/*--------------------------------*- C++ -*----------------------------------*\
| =========                 |                                                 |
| \\      /  F ield         | OpenFOAM: The Open Source CFD Toolbox           |
|  \\    /   O peration     | Version:  2.1.1                                 |
|   \\  /    A nd           | Web:      www.OpenFOAM.org                      |
|    \\/     M anipulation  |                                                 |
\*---------------------------------------------------------------------------*/
FoamFile
{
    version     2.0;
    format      ascii;
    class       volScalarField;
    location    "0.002850000";
    object      OH;
}
// * * * * * * * * * * * * * * * * * * * * * * * * * * * * * * * * * * * * * //

dimensions      [0 0 0 0 0 0 0];

internalField   nonuniform List<scalar> 
12384
(
0.012032
0.0104023
0.00676642
0.00414167
0.00268936
0.00217798
0.00209523
0.00178415
0.00162261
0.00152493
0.00180565
0.00246249
0.00356852
0.00047185
0.000286882
0.00125629
0.000856661
0.000775201
0.000734181
0.000731775
0.000747503
0.000772955
0.000807071
0.00082719
0.000844265
0.00081987
0.000813973
0.000757884
0.000781252
0.000722621
0.00071069
0.000654821
0.000630421
0.000617573
0.000604937
0.000573289
0.000549437
0.000469073
0.000419274
0.000610747
0.000413745
0.000161637
4.64e-06
1.32378e-07
0.00241643
0.00358242
0.00456371
0.00357964
0.00356185
0.0036967
0.00362755
0.00385388
0.00381939
0.00396647
0.00389274
0.00383859
0.00371914
0.00369574
0.00369874
0.0037629
0.00391861
0.00388323
0.00373338
0.00330514
0.00268809
0.00179721
0.00120231
0.000877102
0.000754446
0.00108502
0.00149547
0.000455952
0.000391384
5.52725e-05
0.00252096
0.00311921
0.0020571
0.00189892
0.00179225
0.00202694
0.00247026
0.00294339
0.00312594
0.00315029
0.00291633
0.00258891
0.00233564
0.00231187
0.00267882
0.00327201
0.00367721
0.00400305
0.00392741
0.00318069
0.00201943
0.00134028
0.000886175
0.000786831
0.000894559
0.00118837
0.000577563
0.0006158
0.000618713
0.000211019
0.000479513
0.00221141
0.00185234
0.002573
0.00395926
0.00339047
0.0032078
0.00316181
0.00307713
0.0030229
0.00287982
0.00266017
0.00226957
0.00185449
0.00183156
0.00208314
0.00296091
0.00342137
0.0037509
0.00393602
0.00132159
0.000451839
0.00036729
0.000195753
2.8823e-05
3.19794e-06
7.18598e-08
1.93727e-08
7.27406e-09
3.54432e-10
3.38992e-11
1.6665e-08
4.96601e-05
0.000497222
0.000696508
0.000798263
0.000731536
0.000734401
0.000733226
0.000650962
0.00053944
0.000546187
0.000477055
0.000472625
0.000451971
0.000495842
0.000502723
0.000512774
0.000416388
0.000298777
4.03354e-05
3.15055e-06
3.00759e-07
1.3811e-09
9.16746e-11
9.13495e-13
1.13424e-14
1.30089e-16
1.31836e-18
1.72674e-20
2.93157e-30
5.47368e-27
1.58851e-23
1.53523e-20
3.54736e-18
4.12858e-16
2.01098e-14
5.71852e-13
8.39729e-13
1.21108e-13
2.09896e-15
1.89179e-18
8.99869e-22
2.61529e-25
7.23336e-29
1.17654e-32
2.50956e-36
2.55456e-40
4.09757e-44
4.63178e-48
3.30781e-52
2.76947e-56
2.14427e-60
1.6914e-64
1.21266e-68
8.95771e-73
6.16152e-77
4.31986e-81
2.93033e-85
2.00647e-89
1.08425e-104
2.32774e-107
2.27676e-111
1.84392e-115
1.36773e-119
9.58435e-124
6.48665e-128
4.29753e-132
2.81639e-136
1.8462e-140
1.22144e-144
8.24009e-149
5.72915e-153
4.12837e-157
3.10745e-161
2.42669e-165
1.88074e-169
1.81836e-175
1.99673e-181
9.25514e-187
1.10256e-191
1.484e-196
2.33813e-201
2.07047e-206
1.0635e-211
4.44382e-217
1.91895e-222
1.10558e-227
1.34104e-232
5.34472e-237
1.06835e-257
7.067e-262
1.01342e-266
1.0191e-271
8.50667e-277
6.42914e-282
4.64274e-287
3.34769e-292
2.50063e-297
1.9987e-302
1.7385e-307
1.67503e-312
1.83221e-317
2.2727e-322
0
0
0
0
0
0
0
0
0
0
0
0
0
0
0
0
0
0
0
0
0
0
0
0
0
0
0
0
0
0
0
0
0
0
0
0
0
0
0
0
0
0
0
0
0
0
0
0
0
0
0
0
0
0
0
0
0
0
0
0
0
0
0
0
0
0
0
0
0
0
0
0
0
0
0
0
0
0
0
0
0
0
0
0
0
0
0
0
0
0
0
0
0
0
0
0
0
0
0
0
0
0
0
0
0
0
0
0
0
0
0
0
0
0
0
0
0
0
0
0
0
0
0
0
0
0
0
0
0
0
0
0
0
0
0
0
0.0103377
0.0061335
0.00312377
0.00179936
0.00121397
0.000840455
0.000556366
0.000440344
0.000391123
0.000308752
0.000531897
0.00106755
0.00258687
0.000341651
0.00124568
0.00124818
0.000930616
0.000732934
0.000634213
0.000678844
0.000837683
0.00155245
0.00258226
0.00375434
0.00444405
0.0045191
0.00333127
0.00254307
0.00167872
0.00127904
0.00112451
0.000999112
0.00096731
0.000744278
0.000598844
0.00055498
0.000471792
0.000429938
0.000407572
0.000458924
0.000949663
0.000850502
0.000135755
9.36504e-07
0.00252066
0.0043186
0.0042789
0.00386551
0.00314315
0.0030895
0.00335146
0.00377553
0.00387168
0.00351754
0.00305243
0.00250315
0.00211128
0.00190134
0.00183647
0.00184295
0.00188424
0.00213943
0.00298292
0.00396923
0.0034255
0.00222525
0.0010629
0.000697229
0.000801485
0.00142946
0.00214845
0.00301265
0.00248301
0.000219392
0.00230744
0.00333126
0.00330787
0.00269988
0.00236905
0.00222632
0.00245211
0.00278046
0.00292041
0.00273214
0.00214688
0.00145161
0.00108016
0.00103447
0.00105455
0.0018784
0.00286029
0.00397485
0.00367004
0.00285053
0.00207136
0.00136491
0.000953467
0.000815424
0.00095753
0.00153699
0.001867
0.00218883
0.00346799
0.0004796
0.00223568
0.00220546
0.00176252
0.00211062
0.0031968
0.00394684
0.00397966
0.00388726
0.00378541
0.00369044
0.00353285
0.00295602
0.00239772
0.00184316
0.00174292
0.00187168
0.00254121
0.00320434
0.003582
0.00368734
0.00385326
0.00382134
0.00379714
0.00220818
0.000622267
5.41935e-05
3.61539e-06
1.56384e-06
5.26289e-07
2.42852e-08
3.35259e-09
1.61892e-05
0.000839436
0.00293583
0.00259604
0.00226079
0.00195523
0.0014909
0.00119979
0.000980392
0.000900197
0.000750345
0.000593258
0.000467147
0.00040356
0.000340051
0.000254094
0.000234495
0.00023557
0.000350529
0.000202359
9.65032e-05
6.16685e-05
2.85317e-07
2.42619e-08
6.04351e-11
3.54814e-13
3.73361e-15
5.06669e-17
5.23145e-19
3.34781e-28
2.39321e-24
2.20132e-20
7.92573e-17
1.15903e-14
7.9405e-12
3.39056e-10
1.29029e-08
1.35361e-08
2.42312e-09
2.36069e-11
5.70978e-14
4.88928e-17
1.018e-20
8.19976e-25
2.93464e-29
8.57925e-34
6.55824e-38
3.50938e-42
1.24501e-45
2.72406e-49
3.14495e-53
2.05813e-57
1.35193e-61
8.93052e-66
5.80886e-70
3.68106e-74
2.28834e-78
1.39217e-82
8.73414e-87
1.53558e-100
3.00377e-103
2.27893e-107
1.563e-111
1.03655e-115
6.37602e-120
3.91506e-124
2.36775e-128
1.49557e-132
9.77883e-137
6.91742e-141
5.08664e-145
3.99394e-149
3.1524e-153
2.61864e-157
2.14732e-161
1.84195e-165
1.44005e-169
1.99785e-175
1.26481e-180
1.49763e-185
2.54472e-190
4.0391e-195
3.25439e-200
1.51005e-205
5.58785e-211
2.04681e-216
9.34053e-222
7.91258e-227
1.76427e-231
3.58555e-252
1.64637e-256
2.10257e-261
1.97759e-266
1.58108e-271
1.16278e-276
8.26613e-282
5.93366e-287
4.43425e-292
3.5455e-297
3.06954e-302
2.9127e-307
3.07034e-312
3.63662e-317
4.79244e-322
0
0
0
0
0
0
0
0
0
0
0
0
0
0
0
0
0
0
0
0
0
0
0
0
0
0
0
0
0
0
0
0
0
0
0
0
0
0
0
0
0
0
0
0
0
0
0
0
0
0
0
0
0
0
0
0
0
0
0
0
0
0
0
0
0
0
0
0
0
0
0
0
0
0
0
0
0
0
0
0
0
0
0
0
0
0
0
0
0
0
0
0
0
0
0
0
0
0
0
0
0
0
0
0
0
0
0
0
0
0
0
0
0
0
0
0
0
0
0
0
0
0
0
0
0
0
0
0
0
0
0
0
0
0
0
0.00540774
0.00514536
0.00641923
0.00695388
0.00712283
0.00393751
0.0019313
0.00104117
0.000942124
0.000637888
0.000176324
0.000228095
0.000391438
0.000118208
0.000733823
0.000913472
0.000586499
0.000538528
0.000778705
0.00236253
0.00584732
0.00794399
0.00569116
0.00368971
0.00270397
0.00242378
0.0026328
0.00305066
0.00455879
0.00573454
0.00662274
0.00606154
0.00491247
0.00313971
0.00164425
0.000797277
0.000477009
0.000368306
0.000383899
0.000463203
0.000591877
0.000310946
5.46968e-05
6.67814e-07
0.00252974
0.00457841
0.00400366
0.00329661
0.00297091
0.00350962
0.00475658
0.00527388
0.00426164
0.00334618
0.00264263
0.00208421
0.00184617
0.00179784
0.00259491
0.00358833
0.00375701
0.00328957
0.00203662
0.00183274
0.00292767
0.00357344
0.00139511
0.000692622
0.000797498
0.00152311
0.00234521
0.00300422
0.00331709
0.00037707
0.00276909
0.00272111
0.00325179
0.00358902
0.00317137
0.00280283
0.00267384
0.00280867
0.00297185
0.00299126
0.00270863
0.00197827
0.00134079
0.00102515
0.000829616
0.00111411
0.00188095
0.00392785
0.00353218
0.00270672
0.0019868
0.00130515
0.000949057
0.000737258
0.000727714
0.000886514
0.00148112
0.00309591
0.00379685
0.000645273
0.00228415
0.00211019
0.00173758
0.00175104
0.00238005
0.00297787
0.00356333
0.0038505
0.00386863
0.00386437
0.00390291
0.00353206
0.00258032
0.00185724
0.00153325
0.00147975
0.00180949
0.00222569
0.00292733
0.00317354
0.0028175
0.00305727
0.00338558
0.0037049
0.0033768
0.000245111
4.97361e-05
1.90421e-05
8.93908e-06
1.06641e-06
1.5795e-09
1.23427e-05
0.000679365
0.00306005
0.00274488
0.00276678
0.00245811
0.00214292
0.00110624
0.000652423
0.000435
0.000287813
0.000201423
0.000149754
0.000111359
8.37412e-05
6.04882e-05
5.92682e-05
7.56116e-05
9.51096e-05
0.000149179
0.000719931
0.000424101
4.20125e-05
4.84964e-05
1.43393e-08
1.93732e-11
1.07416e-13
1.09021e-15
8.23864e-18
7.59523e-26
1.63424e-20
7.20765e-16
1.09871e-12
2.61342e-10
3.30086e-08
3.58168e-07
5.48528e-06
4.74868e-06
1.24305e-06
1.439e-08
4.33938e-11
2.4295e-14
1.47635e-17
1.35606e-20
1.4935e-23
9.58201e-28
9.99598e-33
8.23888e-38
1.11041e-42
5.50075e-48
4.39187e-52
3.47624e-57
3.79545e-61
4.42017e-66
7.6512e-70
1.62269e-74
3.00936e-78
7.04925e-83
2.29887e-87
4.5042e-100
2.96029e-102
2.15558e-106
1.12217e-110
7.21709e-115
3.45646e-119
2.27377e-123
1.16421e-127
9.20344e-132
5.65528e-136
5.17678e-140
3.54042e-144
3.38983e-148
2.49092e-152
2.47576e-156
1.76712e-160
1.68235e-164
1.21262e-168
1.12571e-172
9.42535e-178
1.15504e-182
2.61693e-187
3.84789e-192
2.58286e-197
1.10082e-202
3.48022e-208
1.0992e-213
3.91364e-219
2.22984e-224
7.16711e-230
1.45854e-250
1.83231e-254
1.81478e-259
1.39374e-264
9.78388e-270
6.59337e-275
4.45425e-280
3.07171e-285
2.23443e-290
1.72861e-295
1.46709e-300
1.36187e-305
1.41636e-310
1.61179e-315
1.96786e-320
0
0
0
0
0
0
0
0
0
0
0
0
0
0
0
0
0
0
0
0
0
0
0
0
0
0
0
0
0
0
0
0
0
0
0
0
0
0
0
0
0
0
0
0
0
0
0
0
0
0
0
0
0
0
0
0
0
0
0
0
0
0
0
0
0
0
0
0
0
0
0
0
0
0
0
0
0
0
0
0
0
0
0
0
0
0
0
0
0
0
0
0
0
0
0
0
0
0
0
0
0
0
0
0
0
0
0
0
0
0
0
0
0
0
0
0
0
0
0
0
0
0
0
0
0
0
0
0
0
0
0
0
0
0
0
0.00726707
0.0138334
0.0178017
0.0144889
0.00924308
0.0091985
0.0107744
0.0108515
0.00978948
0.00562782
0.000560424
4.07231e-05
9.69875e-05
4.05773e-05
0.000395421
0.000497453
0.000411413
0.000817242
0.0049332
0.00749144
0.00387836
0.00171512
0.00108008
0.000811137
0.000692223
0.000613505
0.000604445
0.000695738
0.000826675
0.00110964
0.00185393
0.00295468
0.00523101
0.00822087
0.00575847
0.00228571
0.000879952
0.000375411
0.000304411
0.000331142
0.000228618
8.40559e-05
1.61019e-05
5.45587e-07
0.0025371
0.00432626
0.00361922
0.00266874
0.00282207
0.00440674
0.0059745
0.00472947
0.00322927
0.00264817
0.00253726
0.00244454
0.00219283
0.00317322
0.0035174
0.00236705
0.00188151
0.00203947
0.00357323
0.00274081
0.00179219
0.00293151
0.00237833
0.000725049
0.000607933
0.0011279
0.00183818
0.00279257
0.00315956
0.000438909
0.00281574
0.00229361
0.00284724
0.00345387
0.00359549
0.00330425
0.00310645
0.00308435
0.00324667
0.00344453
0.0035407
0.00333404
0.00262164
0.00154743
0.00107656
0.000810545
0.00169209
0.00383466
0.00291689
0.00197186
0.00150824
0.0010658
0.000694397
0.000549133
0.000513489
0.000617009
0.000950979
0.00222323
0.00322166
0.00324872
0.002134
0.00194134
0.0015081
0.00146558
0.00188995
0.00259603
0.00327398
0.00366152
0.00373912
0.00363966
0.00371651
0.0038192
0.00272772
0.00184531
0.00147597
0.0012433
0.0011337
0.00131321
0.00160308
0.00243461
0.00165682
0.00116658
0.00128876
0.00200968
0.00358511
0.00113594
0.000279238
0.000102455
1.02328e-05
2.52813e-06
1.67618e-08
8.55219e-07
5.91938e-05
0.00045117
0.000777865
0.0028511
0.00283731
0.00256673
0.00249772
0.000949191
0.000364074
0.000170165
8.6544e-05
5.95434e-05
4.71212e-05
3.51742e-05
3.00927e-05
2.68137e-05
3.13695e-05
5.72796e-05
0.000171749
0.000609715
0.00225651
0.00237689
0.000166024
3.53553e-05
8.76223e-09
4.41451e-12
1.80881e-14
1.09182e-16
4.27453e-21
2.28992e-15
1.70073e-11
1.14866e-08
2.27026e-07
2.62273e-05
3.74698e-05
4.21255e-05
2.37769e-05
1.07255e-05
4.19659e-06
1.50698e-07
8.55533e-11
2.83278e-14
1.32854e-17
6.54502e-21
7.10037e-24
5.82802e-27
2.66461e-31
3.81771e-36
3.91742e-41
2.19512e-46
2.34627e-51
2.26403e-56
1.56603e-60
2.76491e-65
2.79943e-69
6.26931e-74
5.50935e-78
1.12781e-82
2.73906e-94
5.04737e-97
2.69354e-101
1.71266e-105
8.31548e-110
4.90549e-114
2.29574e-118
1.48076e-122
8.20195e-127
6.46024e-131
4.23642e-135
3.64113e-139
2.55865e-143
2.24903e-147
1.66359e-151
1.46239e-155
1.13375e-159
9.91986e-164
8.11268e-168
7.11998e-172
7.75895e-177
2.94253e-181
3.23974e-186
1.97425e-191
7.17058e-197
2.06776e-202
5.42818e-208
1.56171e-213
6.213e-219
3.51752e-224
8.54952e-245
2.75409e-249
1.83866e-254
1.0305e-259
5.37364e-265
2.82265e-270
1.49846e-275
8.45078e-281
5.04266e-286
3.31095e-291
2.36681e-296
1.89415e-301
1.67194e-306
1.6641e-311
1.84043e-316
2.30729e-321
0
0
0
0
0
0
0
0
0
0
0
0
0
0
0
0
0
0
0
0
0
0
0
0
0
0
0
0
0
0
0
0
0
0
0
0
0
0
0
0
0
0
0
0
0
0
0
0
0
0
0
0
0
0
0
0
0
0
0
0
0
0
0
0
0
0
0
0
0
0
0
0
0
0
0
0
0
0
0
0
0
0
0
0
0
0
0
0
0
0
0
0
0
0
0
0
0
0
0
0
0
0
0
0
0
0
0
0
0
0
0
0
0
0
0
0
0
0
0
0
0
0
0
0
0
0
0
0
0
0
0
0
0
0
0.0179251
0.017652
0.00849176
0.00288393
0.00202235
0.00272944
0.00455387
0.00706695
0.00981692
0.0102073
0.00112353
1.46223e-05
1.71103e-05
5.6242e-05
0.000189164
0.000318983
0.00109138
0.00718969
0.00434507
0.00170286
0.000799727
0.000549599
0.000469673
0.000474858
0.000555485
0.000558934
0.000586315
0.000575224
0.000553801
0.00073129
0.000890484
0.00130892
0.00205644
0.00391082
0.00764704
0.00671259
0.00239013
0.000582951
0.000237641
0.000171218
6.4366e-05
2.08813e-05
1.12786e-05
1.8424e-06
0.00247781
0.00396873
0.00314317
0.00228959
0.00294496
0.00518534
0.00542643
0.00383702
0.00234097
0.00231055
0.00192208
0.00214722
0.00223444
0.00389262
0.00293135
0.00216332
0.00174648
0.00154427
0.00189379
0.00379041
0.00200355
0.0019805
0.00350509
0.000830889
0.000436711
0.000665295
0.00139639
0.00243148
0.00277568
0.000479582
0.00229295
0.001988
0.00266715
0.00331993
0.0035704
0.00360116
0.0035238
0.00345796
0.00356555
0.00359412
0.00336564
0.00305262
0.00271398
0.00220704
0.00143037
0.00123645
0.00173813
0.00376965
0.00240296
0.00136766
0.000881604
0.000604815
0.000432175
0.000398698
0.000440773
0.00049025
0.000611857
0.0013131
0.00263511
0.00333139
0.00209644
0.00189283
0.00155304
0.00137276
0.00184255
0.00280189
0.00345905
0.00360686
0.00346295
0.00330641
0.00333809
0.00381881
0.0028691
0.00176009
0.00138814
0.000818735
0.000807876
0.000758202
0.000803559
0.00135175
0.0013353
0.000686305
0.000532812
0.000798484
0.00264708
0.00250906
0.00061605
6.32633e-05
4.13817e-05
3.46652e-06
7.06061e-07
3.5503e-05
0.000103333
0.000190634
0.000569427
0.00229517
0.00199231
0.00171776
0.00189115
0.00135317
0.000194262
7.03201e-05
3.59738e-05
3.10183e-05
2.28398e-05
3.0335e-05
2.38564e-05
1.85904e-05
2.11845e-05
2.79844e-05
6.33285e-05
0.000177143
0.000545728
0.000422948
0.000486383
1.91658e-05
3.23784e-07
4.04083e-10
7.91778e-13
1.14192e-14
6.91245e-16
1.78155e-10
1.12739e-07
1.37415e-05
5.68612e-05
6.2986e-05
3.7783e-05
2.22054e-05
1.38805e-05
6.37414e-06
5.08255e-06
3.88362e-06
2.746e-07
1.62651e-10
4.56895e-14
1.59979e-17
4.8443e-21
3.43524e-24
3.52168e-27
1.04228e-30
3.59703e-35
6.60873e-40
5.40751e-45
8.30525e-50
1.40428e-54
9.00983e-59
2.19553e-63
1.61887e-67
4.38834e-72
2.70733e-76
6.79681e-88
1.19451e-90
6.59449e-95
3.41099e-99
1.86647e-103
8.48372e-108
4.87408e-112
2.53084e-116
1.72539e-120
1.10186e-124
8.87839e-129
6.24006e-133
5.28487e-137
3.85594e-141
3.34729e-145
2.50985e-149
2.21004e-153
1.71935e-157
1.52342e-161
1.23548e-165
1.10796e-169
6.30149e-174
5.35659e-179
2.70117e-184
8.86217e-190
2.21133e-195
5.04894e-201
1.16156e-206
3.41929e-212
1.51845e-217
6.06285e-238
1.15794e-242
4.80539e-248
1.8641e-253
7.35771e-259
2.95298e-264
1.26757e-269
5.7602e-275
2.89099e-280
1.58034e-285
9.74186e-291
6.65031e-296
5.17258e-301
4.50516e-306
4.51728e-311
5.13923e-316
6.81811e-321
0
0
0
0
0
0
0
0
0
0
0
0
0
0
0
0
0
0
0
0
0
0
0
0
0
0
0
0
0
0
0
0
0
0
0
0
0
0
0
0
0
0
0
0
0
0
0
0
0
0
0
0
0
0
0
0
0
0
0
0
0
0
0
0
0
0
0
0
0
0
0
0
0
0
0
0
0
0
0
0
0
0
0
0
0
0
0
0
0
0
0
0
0
0
0
0
0
0
0
0
0
0
0
0
0
0
0
0
0
0
0
0
0
0
0
0
0
0
0
0
0
0
0
0
0
0
0
0
0
0
0
0
0
0.0159042
0.00818696
0.00191706
0.000975374
0.00162497
0.00399327
0.0075146
0.00970941
0.0100583
0.00449497
0.000418285
1.76834e-05
4.38139e-06
3.79381e-05
0.000170857
0.000642937
0.0074352
0.0034451
0.00130454
0.00059113
0.000537308
0.00072131
0.00223736
0.00343803
0.00228816
0.00195848
0.00251232
0.00390776
0.00169406
0.0010797
0.000950881
0.00111915
0.00156642
0.00228129
0.00413174
0.0081735
0.00607293
0.00125861
0.000172381
5.59281e-05
1.3822e-05
7.67776e-06
2.23451e-05
2.83085e-05
0.0024457
0.00341824
0.00272384
0.00225008
0.00351199
0.00567881
0.00499168
0.00326533
0.00190846
0.00169076
0.00153763
0.00170538
0.00168933
0.00282159
0.00390105
0.0036086
0.00308584
0.00251046
0.00212442
0.00308555
0.0032183
0.00196258
0.00390201
0.000947308
0.000374197
0.000384956
0.000847978
0.00207013
0.00245456
0.000776535
0.00162388
0.00168999
0.00256489
0.00331594
0.00353806
0.0035688
0.00357608
0.00357333
0.0035911
0.0027388
0.00133365
0.00103267
0.00099398
0.0011963
0.00141683
0.0016079
0.00321853
0.00258195
0.00103104
0.000532266
0.000402287
0.000387234
0.000465194
0.000634399
0.000644518
0.000546313
0.00055239
0.000921491
0.00201974
0.00345507
0.00191485
0.00176216
0.00148068
0.00154935
0.00234232
0.00339486
0.0035982
0.00330661
0.00307356
0.00290429
0.00313791
0.0036298
0.00301838
0.00196924
0.00141929
0.000910427
0.000627667
0.00046653
0.000451247
0.000711398
0.000960897
0.000641408
0.000366797
0.000379961
0.000857295
0.00359104
0.00120139
0.000170048
3.05574e-06
1.17247e-05
2.8406e-05
0.0010717
0.00218
0.00305075
0.00148333
0.00127364
0.00124708
0.00124734
0.00185976
0.000535928
9.92413e-05
3.45052e-05
2.48637e-05
3.80612e-05
4.66884e-05
3.18226e-05
2.87531e-05
2.08677e-05
1.31291e-05
1.41062e-05
2.20327e-05
5.83317e-05
0.000182718
0.000248083
0.000263375
0.000521103
2.22021e-05
1.47103e-06
6.9029e-10
1.21551e-12
6.97751e-11
2.0142e-06
9.79636e-05
0.000103186
5.87339e-05
5.61009e-05
3.46073e-05
2.02267e-05
1.33198e-05
1.16307e-05
9.08163e-06
4.18079e-06
4.61498e-06
3.71844e-07
2.10363e-10
5.842e-14
1.55974e-17
3.12212e-21
2.06868e-24
1.53245e-27
9.63849e-31
1.14827e-34
4.07271e-39
6.05256e-44
1.65861e-48
3.31206e-53
2.74007e-57
6.39699e-62
5.15202e-66
1.14185e-70
6.20096e-82
1.00848e-84
4.9964e-89
2.96862e-93
1.40923e-97
8.11049e-102
3.74399e-106
2.35113e-110
1.29655e-114
9.82917e-119
6.70118e-123
5.48168e-127
4.02995e-131
3.32932e-135
2.57968e-139
2.10524e-143
1.71196e-147
1.39631e-151
1.17753e-155
9.71426e-160
8.43413e-164
7.11163e-168
5.9155e-172
2.64136e-177
7.65042e-183
1.70476e-188
3.37005e-194
6.40203e-200
1.39246e-205
3.22137e-211
2.84981e-231
3.93298e-236
1.09176e-241
3.03536e-247
8.85297e-253
2.80787e-258
9.75487e-264
3.75319e-269
1.60167e-274
7.65625e-280
4.09362e-285
2.46406e-290
1.67304e-295
1.28939e-300
1.13096e-305
1.14156e-310
1.33873e-315
1.83002e-320
0
0
0
0
0
0
0
0
0
0
0
0
0
0
0
0
0
0
0
0
0
0
0
0
0
0
0
0
0
0
0
0
0
0
0
0
0
0
0
0
0
0
0
0
0
0
0
0
0
0
0
0
0
0
0
0
0
0
0
0
0
0
0
0
0
0
0
0
0
0
0
0
0
0
0
0
0
0
0
0
0
0
0
0
0
0
0
0
0
0
0
0
0
0
0
0
0
0
0
0
0
0
0
0
0
0
0
0
0
0
0
0
0
0
0
0
0
0
0
0
0
0
0
0
0
0
0
0
0
0
0
0
0.00908288
0.00257397
0.000660116
0.00107953
0.00492781
0.010378
0.0114499
0.00989656
0.00259077
0.000396967
0.000179661
9.2712e-05
2.30662e-05
1.37643e-05
0.000306881
0.00686724
0.0028114
0.00122176
0.000566709
0.000638168
0.00390877
0.00129177
0.000474612
0.000349042
0.000309042
0.000350665
0.000424274
0.000643317
0.00179645
0.00393747
0.00170274
0.00128601
0.00137928
0.00207047
0.00306653
0.00609412
0.00881756
0.00195524
0.000135553
2.09902e-05
6.90507e-06
7.25035e-06
1.87984e-05
2.56652e-05
0.00224675
0.00285525
0.00243039
0.00279312
0.00434013
0.00609177
0.00420931
0.00258001
0.0014364
0.00102828
0.00111349
0.00120082
0.00157316
0.0014775
0.00188485
0.00356776
0.00390542
0.00344819
0.00296048
0.00344906
0.00363833
0.00255989
0.00394392
0.000957828
0.000295605
0.000267918
0.00057874
0.00163482
0.00214795
0.00219592
0.00119813
0.00128577
0.00234961
0.00323412
0.00340249
0.00339662
0.00343809
0.00359971
0.00333073
0.00124933
0.00066458
0.000569475
0.000610134
0.000704416
0.00113087
0.00258404
0.00318332
0.00132675
0.000526165
0.000339816
0.000381066
0.000656884
0.00126203
0.00181223
0.00174506
0.00102497
0.000718342
0.000867292
0.00169114
0.00313641
0.00178696
0.00167396
0.00163385
0.00211282
0.00319536
0.00360542
0.0032834
0.0030249
0.00282546
0.00282283
0.00299936
0.00353009
0.00331253
0.00241478
0.0016723
0.00109839
0.00059838
0.000353847
0.000252737
0.000260003
0.000386055
0.000415408
0.000286347
0.000213958
0.000258775
0.000911054
0.00308769
0.000746262
0.000458982
2.94088e-05
7.60472e-05
0.000554019
0.00378536
0.003059
0.00224047
0.00166167
0.00133818
0.00115873
0.00109004
0.000391769
6.48393e-05
4.7108e-05
5.33961e-05
7.86537e-05
0.000103498
8.31763e-05
8.28187e-05
5.51308e-05
2.53734e-05
1.32636e-05
1.08841e-05
1.70633e-05
4.32239e-05
8.71067e-05
6.7645e-05
4.75221e-05
0.000395875
0.000187713
6.30721e-06
7.72166e-10
5.25749e-09
1.43507e-05
0.000119861
0.000119126
8.20544e-05
5.30072e-05
3.06955e-05
1.65036e-05
1.41218e-05
8.9436e-06
8.52536e-06
7.41102e-06
4.37056e-06
3.72212e-06
4.45407e-07
2.27655e-10
5.20786e-14
1.17573e-17
1.85745e-21
9.53422e-25
5.32383e-28
3.14882e-31
1.20106e-34
1.13299e-38
3.5213e-43
1.5486e-47
6.15739e-52
3.97979e-56
1.40476e-60
7.17324e-65
2.3746e-76
3.06508e-79
1.87949e-83
1.01624e-87
5.61489e-92
2.84286e-96
1.70373e-100
9.35894e-105
6.6466e-109
4.45093e-113
3.65008e-117
2.67926e-121
2.2609e-125
1.71833e-129
1.45408e-133
1.13167e-137
9.60503e-142
7.66915e-146
6.54933e-150
5.35933e-154
4.63079e-158
3.88755e-162
3.41647e-166
2.87429e-170
7.67462e-176
1.54328e-181
2.66633e-187
4.24144e-193
7.00728e-199
1.1859e-204
2.8517e-224
2.67256e-229
3.96427e-235
6.92917e-241
1.4373e-246
3.45857e-252
9.82507e-258
3.21227e-263
1.19342e-268
4.96961e-274
2.34165e-279
1.23111e-284
7.37001e-290
4.99465e-295
3.87534e-300
3.44587e-305
3.57158e-310
4.31932e-315
6.02661e-320
0
0
0
0
0
0
0
0
0
0
0
0
0
0
0
0
0
0
0
0
0
0
0
0
0
0
0
0
0
0
0
0
0
0
0
0
0
0
0
0
0
0
0
0
0
0
0
0
0
0
0
0
0
0
0
0
0
0
0
0
0
0
0
0
0
0
0
0
0
0
0
0
0
0
0
0
0
0
0
0
0
0
0
0
0
0
0
0
0
0
0
0
0
0
0
0
0
0
0
0
0
0
0
0
0
0
0
0
0
0
0
0
0
0
0
0
0
0
0
0
0
0
0
0
0
0
0
0
0
0
0
0.00399196
0.0010054
0.000630487
0.00301898
0.0101204
0.0117334
0.0117391
0.00585551
0.000509164
0.000226886
0.000929361
0.00227345
0.00109169
0.000207734
0.000643553
0.00444809
0.0015253
0.000745907
0.000904907
0.00244715
0.000539234
0.000289029
0.000260556
0.000260189
0.000317163
0.000399005
0.000475828
0.000638829
0.00116474
0.00282414
0.00331817
0.00164894
0.0017717
0.00216925
0.00340567
0.00630516
0.00886494
0.00204217
0.000126346
1.20914e-05
5.7484e-06
1.74107e-05
4.21898e-05
6.28116e-05
0.00169949
0.00220458
0.00275135
0.00367968
0.00564855
0.00511622
0.00251277
0.00134247
0.000798901
0.000692674
0.000753446
0.000943186
0.00108544
0.00129604
0.00119772
0.00332142
0.00375721
0.00397724
0.00390402
0.00397283
0.00360952
0.00355818
0.00300202
0.000732561
0.000292708
0.000269266
0.000501849
0.00148118
0.00189709
0.00192062
0.000919651
0.00118231
0.00232103
0.00325454
0.00337918
0.00329321
0.00333757
0.00369683
0.0030366
0.000798696
0.000472527
0.000446063
0.000513721
0.000606203
0.000933391
0.00315644
0.00233691
0.000945665
0.000611223
0.000712719
0.00133909
0.002323
0.00292334
0.00332128
0.00336258
0.00243422
0.00126788
0.000994698
0.00156377
0.00284187
0.0017251
0.00170589
0.00204605
0.0030124
0.00351421
0.00342962
0.00322639
0.00314203
0.0031648
0.00313307
0.00319031
0.00338662
0.00362842
0.00318687
0.00247382
0.00146153
0.00070802
0.000322418
0.000188242
0.000145924
0.000162436
0.000201225
0.000218088
0.000174477
0.000143203
0.000197864
0.0008437
0.00312776
0.000990991
0.000110554
0.000108772
0.0008675
0.00306994
0.00377359
0.00333417
0.00246206
0.00147811
0.000883818
0.000781005
0.000260078
6.49036e-05
6.16021e-05
0.000131981
0.000119397
0.000214625
0.000308064
0.000397482
0.000283363
0.000137653
4.90002e-05
1.80632e-05
8.16878e-06
1.17317e-05
1.65881e-05
1.85599e-05
3.04581e-05
3.93814e-05
3.04381e-05
2.27384e-06
5.25973e-08
1.50002e-07
8.97689e-06
0.00012871
0.000148286
8.11928e-05
3.60935e-05
1.95169e-05
1.64821e-05
1.04676e-05
9.43128e-06
7.37053e-06
7.30723e-06
6.7175e-06
4.75784e-06
3.28768e-06
4.56634e-07
1.91521e-10
3.52035e-14
6.14283e-18
7.66187e-22
3.12366e-25
1.73662e-28
7.08664e-32
3.1177e-35
7.86108e-39
5.92869e-43
3.97534e-47
2.1642e-51
1.40901e-55
5.56541e-60
8.85783e-72
1.23343e-74
8.81477e-79
5.4838e-83
3.2266e-87
1.87806e-91
1.1358e-95
7.31446e-100
5.2605e-104
3.93576e-108
3.20055e-112
2.51129e-116
2.10346e-120
1.66166e-124
1.39811e-128
1.11554e-132
9.39666e-137
7.59108e-141
6.44628e-145
5.28724e-149
4.55432e-153
3.79559e-157
3.32202e-161
2.8283e-165
2.45939e-169
4.59722e-175
6.91828e-181
9.16663e-187
1.16822e-192
1.368e-198
1.12022e-217
1.57002e-223
2.24013e-229
3.58897e-235
6.60245e-241
1.41474e-246
3.53651e-252
1.04397e-257
3.47038e-263
1.2809e-268
5.31898e-274
2.49508e-279
1.33696e-284
8.12618e-290
5.55637e-295
4.31378e-300
3.84849e-305
3.98961e-310
4.84195e-315
6.38926e-320
0
0
0
0
0
0
0
0
0
0
0
0
0
0
0
0
0
0
0
0
0
0
0
0
0
0
0
0
0
0
0
0
0
0
0
0
0
0
0
0
0
0
0
0
0
0
0
0
0
0
0
0
0
0
0
0
0
0
0
0
0
0
0
0
0
0
0
0
0
0
0
0
0
0
0
0
0
0
0
0
0
0
0
0
0
0
0
0
0
0
0
0
0
0
0
0
0
0
0
0
0
0
0
0
0
0
0
0
0
0
0
0
0
0
0
0
0
0
0
0
0
0
0
0
0
0
0
0
0
0
0.00173682
0.000558858
0.000936123
0.00615811
0.0101466
0.00929909
0.0105636
0.00409465
0.000415499
0.000422322
0.00311454
0.00770185
0.00798671
0.00643063
0.00442954
0.00505277
0.00439164
0.00187963
0.00102518
0.00115372
0.00268324
0.000703023
0.00042377
0.000375682
0.000355915
0.000394369
0.00051204
0.000668363
0.000929568
0.00137143
0.00241457
0.00433076
0.00526829
0.00378236
0.00362355
0.00454872
0.00667859
0.00784401
0.00389749
0.000721602
6.66156e-05
9.90186e-06
8.79038e-06
2.91184e-05
0.000128549
0.000743411
0.000799652
0.000872261
0.00141888
0.0021068
0.00324492
0.00496744
0.00563596
0.00230765
0.00112541
0.000838
0.000628171
0.000583583
0.000719285
0.000801779
0.000855956
0.00127115
0.00160426
0.00314794
0.00348858
0.00315455
0.00354368
0.00375316
0.00401284
0.00334233
0.00138413
0.000468778
0.000300728
0.000366136
0.000632067
0.00130544
0.00175389
0.00179157
0.00139891
0.00109877
0.00107436
0.00155505
0.00253335
0.0032377
0.00318881
0.00320761
0.00340712
0.00379187
0.00324325
0.000935398
0.000315028
0.000409359
0.000512794
0.000664264
0.000840361
0.00280749
0.00308738
0.00229745
0.00260102
0.00333526
0.00353594
0.00344778
0.00331499
0.00327003
0.00353214
0.00345562
0.00235834
0.00145938
0.00155637
0.00245305
0.00246912
0.00163253
0.00172262
0.00186675
0.00273115
0.00354536
0.00361289
0.003556
0.00367451
0.00368754
0.00364733
0.00363198
0.00355098
0.00356039
0.00359969
0.00362404
0.00312796
0.00183682
0.000756392
0.00029529
0.000129237
7.28223e-05
5.93282e-05
6.30246e-05
8.36406e-05
9.21983e-05
8.8594e-05
8.61969e-05
0.000165795
0.000838906
0.00166426
0.000354677
0.00120682
0.00118193
0.000793432
0.00126374
0.00295975
0.00356258
0.00371871
0.00341466
0.00231012
0.00139391
0.000585135
0.000289944
9.44998e-05
8.23139e-05
0.000124485
0.000191477
0.00019651
0.000552664
0.000941832
0.00129316
0.00103935
0.00034029
6.73567e-05
2.23786e-05
6.34706e-06
7.22211e-06
8.46709e-06
1.5186e-05
3.16345e-05
3.81544e-05
4.61786e-05
3.20064e-05
2.10782e-06
8.91516e-07
6.14876e-06
1.90342e-05
7.95522e-05
3.66411e-05
7.38877e-05
2.50553e-05
1.65521e-05
1.1167e-05
9.78554e-06
8.07228e-06
7.92577e-06
6.74014e-06
7.00748e-06
6.72372e-06
4.71398e-06
2.94224e-06
3.21769e-07
1.00123e-10
1.46242e-14
2.27998e-18
2.4509e-22
1.04584e-25
3.77932e-29
1.48031e-32
5.40307e-36
1.13541e-39
1.35064e-43
1.4843e-47
1.74455e-51
1.8232e-55
1.37012e-59
8.62901e-64
4.74208e-68
3.78817e-72
3.91377e-76
4.73019e-80
4.58097e-84
5.09853e-88
4.5257e-92
4.52655e-96
3.96722e-100
3.71824e-104
3.18486e-108
2.83161e-112
2.38233e-116
2.05744e-120
1.71254e-124
1.45744e-128
1.20949e-132
1.02569e-136
8.54893e-141
7.27513e-145
6.12428e-149
5.25833e-153
4.49101e-157
3.91071e-161
3.40302e-165
2.94534e-169
3.83195e-175
4.21912e-181
4.00203e-187
3.21063e-193
2.2961e-199
1.70698e-205
1.26106e-211
1.03024e-217
9.25728e-224
1.00597e-229
1.31798e-235
2.12323e-241
4.14759e-247
9.86432e-253
2.72737e-258
8.55805e-264
3.01113e-269
1.18946e-274
5.27728e-280
2.65607e-285
1.51718e-290
9.88056e-296
7.39287e-301
6.45322e-306
6.65761e-311
7.91105e-316
9.9406e-321
0
0
0
0
0
0
0
0
0
0
0
0
0
0
0
0
0
0
0
0
0
0
0
0
0
0
0
0
0
0
0
0
0
0
0
0
0
0
0
0
0
0
0
0
0
0
0
0
0
0
0
0
0
0
0
0
0
0
0
0
0
0
0
0
0
0
0
0
0
0
0
0
0
0
0
0
0
0
0
0
0
0
0
0
0
0
0
0
0
0
0
0
0
0
0
0
0
0
0
0
0
0
0
0
0
0
0
0
0
0
0
0
0
0
0
0
0
0
0
0
0
0
0
0
0
0
0
0
0
0
0
0
0
0
0
0
0
0
0
0.000872215
0.000468441
0.0013174
0.00495264
0.00532545
0.0046538
0.00874394
0.00472684
0.000426924
0.000252553
0.00145077
0.00737982
0.00554107
0.00354794
0.00307587
0.0022398
0.00181104
0.00102837
0.00114138
0.00359429
0.00145377
0.000855718
0.000644271
0.000532234
0.000449573
0.000448353
0.000560444
0.000706987
0.000905757
0.00111403
0.00163276
0.00234456
0.00312097
0.0035284
0.00314309
0.00230912
0.0014925
0.000926574
0.00047821
0.000196704
6.23358e-05
1.6135e-05
1.33037e-05
4.17037e-05
0.000191762
0.000503745
0.000767474
0.00140333
0.00213144
0.00287255
0.00434252
0.00586584
0.00229778
0.00101325
0.00076657
0.000581419
0.000612511
0.000667163
0.000738571
0.000792969
0.000952727
0.00145597
0.00266797
0.00386471
0.00352168
0.00321707
0.00387406
0.00357274
0.00231234
0.00122941
0.000571506
0.000359132
0.000351118
0.000454666
0.000634914
0.00101141
0.00130948
0.00150764
0.00126222
0.00127145
0.00169134
0.00237704
0.00314548
0.00319086
0.00302388
0.00303402
0.00325018
0.00356424
0.0039491
0.00179825
0.000832345
0.000448748
0.000462586
0.000663825
0.000814048
0.00127956
0.00231199
0.00293075
0.0033556
0.00351766
0.00326056
0.00320116
0.00306303
0.00279858
0.00298016
0.00359962
0.00324433