/*--------------------------------*- C++ -*----------------------------------*\
| =========                 |                                                 |
| \\      /  F ield         | OpenFOAM: The Open Source CFD Toolbox           |
|  \\    /   O peration     | Version:  2.1.1                                 |
|   \\  /    A nd           | Web:      www.OpenFOAM.org                      |
|    \\/     M anipulation  |                                                 |
\*---------------------------------------------------------------------------*/
FoamFile
{
    version     2.0;
    format      ascii;
    class       volScalarField;
    location    "0.002850000";
    object      omega;
}
// * * * * * * * * * * * * * * * * * * * * * * * * * * * * * * * * * * * * * //

dimensions      [0 0 -1 0 0 0 0];

internalField   nonuniform List<scalar> 
12384
(
2040.73
2117.48
2182.98
2286.53
2491.31
2644
2761.92
2760.3
2758.46
2816.17
2363.75
2151.51
1791.42
681.891
814.736
1782.02
2430.64
2704.23
3971.99
4892.4
5911.83
7355.75
7690.46
8074.63
7873.1
7494.65
7331.14
7433.38
7290.16
7854.01
7457.29
6972.56
6321.72
5354.85
5367.23
5565.81
6039.53
4848.7
3943.69
3373.71
2717.82
2234.16
1506.36
856.356
6900.81
16064.8
24592.5
32694.6
36985
44063.1
45742.9
49653.8
49241.2
50520.5
49457
47779.4
45208.5
39126.2
34676.5
30105.5
26090.7
22448.5
19603.9
16736.2
12775.9
11152.5
9123.61
7973.98
6165.03
5332.43
3617.98
2772.22
2194.83
1107.48
12571.6
31945.2
47454.5
66741.8
82695.9
94023.8
101999
105427
109611
112937
117347
122592
124731
123673
116445
106962
90050.5
66823.7
45006.2
25907.9
15105.8
9383.81
8555.14
8266.24
7197.92
4736.21
3600.4
3038.3
2019.68
969.077
3376.17
9779.33
25030.5
31952
44531.1
52613.5
53719.1
51155.2
48077
39231
33067.4
28998.7
41307.7
50126.8
45116.8
27204.9
13469.1
8544.56
5904.96
4244.17
3095.76
3212.79
3143.13
2504.91
2479.44
2138.4
1920.45
1436.04
1107.91
751.267
632.434
693.17
1032.63
2798
5015.3
8394.44
12147.6
13373.8
16133.8
16938.1
15614.8
13752.1
11640.1
9562.99
8177.13
6995.52
6234.38
5492.92
5144.78
4711.64
3866.47
3087.99
2910.5
2047.42
1728.9
1356.36
1080.5
869.265
702.684
638.488
611.204
610.104
621.192
626.991
640.197
654.364
675.844
696.394
743.892
733.524
742.777
718.766
714.817
697.16
685.129
674.778
655.052
642.457
626.257
614.207
616.833
613.791
613.857
610.841
614.182
610.577
613.398
610.363
611.376
608.89
614.356
614.623
614.868
615.227
615.163
615.404
615.388
615.461
615.558
615.527
615.639
615.588
615.654
615.602
615.685
615.595
615.702
615.611
615.712
615.627
615.705
615.632
615.691
615.636
615.64
615.661
615.582
615.622
615.542
615.604
615.74
615.717
615.718
615.729
615.731
615.732
615.739
615.733
615.742
615.733
615.741
615.732
615.732
615.729
615.722
615.728
615.728
615.732
615.739
615.737
615.746
615.74
615.751
615.743
615.75
615.745
615.746
615.739
615.732
615.767
615.776
615.731
615.737
615.747
615.751
615.757
615.748
615.756
615.745
615.751
615.742
615.745
615.737
615.732
615.731
615.726
615.732
615.735
615.736
615.745
615.744
615.745
615.757
615.749
615.759
615.754
615.757
615.754
615.754
615.725
615.773
615.74
615.743
615.743
615.75
615.743
615.752
615.743
615.751
615.741
615.747
615.739
615.738
615.733
615.727
615.731
615.731
615.735
615.744
615.739
615.749
615.742
615.753
615.744
615.753
615.746
615.748
615.742
615.733
615.769
615.727
615.748
615.741
615.746
615.759
615.754
615.761
615.751
615.757
615.745
615.751
615.741
615.742
615.734
615.737
615.738
615.734
615.739
615.741
615.749
615.744
615.755
615.749
615.758
615.751
615.755
615.744
615.742
615.748
615.726
615.771
615.739
615.747
615.743
615.76
615.744
615.766
615.744
615.766
615.743
615.76
615.74
615.748
615.734
615.735
615.731
615.729
615.734
615.741
615.737
615.751
615.742
615.757
615.744
615.757
615.746
615.75
615.741
615.733
615.77
2068.5
59523.7
72685.3
80074.8
86719.6
90259.5
92819.3
94863.7
101592
110000
108948
87081.4
53290.8
1197.75
2036.66
128332
154530
165339
180374
191486
207736
227367
250519
276876
302801
326989
345084
358934
362414
361869
352101
336660
317408
295676
273974
254496
238544
222582
204277
167722
138983
109144
79411.4
1952.49
24258.8
292885
419871
530412
619464
670854
681810
665204
632954
593334
551311
510603
473541
441953
417126
404192
396875
391151
383211
370050
354859
345439
333754
321492
313680
302662
280811
218422
145803
3076.89
38833.9
373448
511676
585218
628391
663982
710201
765925
824391
878492
917036
941173
935827
897829
832434
749964
653408
556195
455987
384809
333419
319025
323090
325878
314031
282826
283244
293434
226065
2095.69
7750.88
464498
478339
456642
448143
457045
467981
479206
474865
458560
447715
441834
444221
442478
413924
374620
350422
336604
305728
274776
231452
207442
196919
205417
224660
234393
260893
263291
209032
1306.49
1506.78
202656
367625
488580
535063
550463
525542
468010
422048
397912
392735
407140
445365
487494
518321
504155
475219
447663
440703
427024
432203
477642
471662
452154
430603
395278
343456
264948
161110
708.215
606.881
40142.8
64671.6
95583
116856
134707
157336
187924
231661
267004
295519
312709
323744
324649
319503
301389
275863
234069
178154
114259
63682.3
42850.6
33103.3
24743.2
17416.9
11569
7066.79
3747.03
1518.42
609.256
610.745
267.965
280.683
294.896
309.408
323.2
332.293
333.888
328.892
318.635
305.524
290.466
273.859
257.099
242.275
229.291
217.374
206.656
197.17
188.968
182.019
176.119
171.214
167.114
163.75
160.988
158.852
157.288
162.373
614.186
614.285
161.853
155.712
155.69
155.717
155.723
155.742
155.752
155.779
155.797
155.82
155.842
155.909
155.938
155.973
155.96
155.931
155.884
155.834
155.789
155.769
155.733
155.711
155.681
155.67
155.658
155.658
155.69
162.005
614.309
614.303
161.944
155.659
155.649
155.662
155.683
155.696
155.725
155.745
155.774
155.789
155.826
155.874
155.909
155.936
155.954
155.929
155.887
155.814
155.793
155.783
155.746
155.729
155.698
155.688
155.666
155.654
155.657
161.628
614.371
614.339
161.839
155.685
155.658
155.682
155.689
155.711
155.726
155.756
155.776
155.802
155.825
155.889
155.916
155.957
155.949
155.926
155.88
155.83
155.787
155.768
155.731
155.711
155.681
155.668
155.657
155.658
155.695
162.011
614.311
614.365
161.762
155.698
155.636
155.646
155.644
155.676
155.697
155.739
155.766
155.8
155.833
155.893
155.919
155.949
155.952
155.923
155.894
155.828
155.797
155.765
155.745
155.708
155.693
155.667
155.668
155.647
155.684
161.724
614.37
614.346
161.83
155.684
155.655
155.68
155.685
155.7
155.711
155.736
155.754
155.786
155.815
155.881
155.922
155.957
155.949
155.923
155.878
155.838
155.795
155.77
155.732
155.706
155.673
155.659
155.648
155.651
155.699
162.017
614.314
1903.22
84415.3
97289.2
106202
114260
118820
120588
125900
139264
151393
145917
105557
70223.4
1534.01
3122.28
148946
166637
183234
198677
215375
234243
259645
295041
336401
377035
412482
440794
458076
465610
457668
436709
405954
372210
341287
312809
287334
266000
255359
248706
217066
168525
122591
96992.2
2327
31893.5
362897
469550
564938
641084
688976
706101
697838
673049
640542
605671
572135
541541
514619
496652
487158
480557
474315
461408
446374
422147
398361
377368
362682
356600
346794
315754
263348
170404
3720.51
48412.9
453795
540115
587708
630098
673455
716553
764686
818843
867910
902720
920160
924985
910658
877748
831732
767558
690421
590839
497859
435573
414599
418337
424932
435650
444773
481578
512398
447071
2930.94
17076.9
660559
627810
586913
557610
535612
528768
528194
520678
518925
535527
570943
602399
595840
551206
496402
455094
432841
419162
421863
416597
395888
348346
282110
229513
258414
286858
270846
229168
1383.7
2077.69
237206
358846
416228
396564
387752
366040
389676
443522
494950
557306
634165
736236
852987
944523
1.00407e+06
1.05196e+06
1.07827e+06
1.05792e+06
1.02972e+06
998817
932382
544249
525340
477794
449345
405518
325844
214670
699.325
622.066
79917.6
119541
164247
199205
264146
336345
464561
576616
645579
639863
601118
544987
491627
438857
390846
339668
285291
224158
153973
85359.8
40194.3
25374.7
18644.7
13169.6
8683.37
5261.28
2772.94
1142.49
593.741
594.933
407.478
389.968
367.904
357.132
344.489
331.218
316.397
300.753
285.219
269.913
255.197
241.164
227.856
215.43
204.379
194.875
186.805
179.986
174.238
169.383
165.299
161.882
158.972
156.55
154.54
152.949
151.768
155.558
594.721
594.763
155.219
150.523
150.436
150.422
150.379
150.361
150.321
150.304
150.262
150.242
150.193
150.156
150.096
150.068
150.052
150.091
150.122
150.173
150.193
150.231
150.244
150.277
150.287
150.321
150.332
150.361
150.401
155.138
594.761
594.757
155.157
150.388
150.34
150.314
150.309
150.279
150.272
150.241
150.232
150.195
150.177
150.125
150.095
150.048
150.051
150.067
150.131
150.175
150.213
150.237
150.264
150.302
150.312
150.343
150.349
150.372
150.411
155.127
594.904
594.761
155.147
150.422
150.351
150.35
150.318
150.312
150.278
150.269
150.233
150.219
150.173
150.142
150.084
150.058
150.04
150.08
150.112
150.164
150.186
150.225
150.239
150.275
150.285
150.32
150.332
150.361
150.403
155.131
594.764
594.893
155.128
150.403
150.356
150.341
150.306
150.296
150.263
150.254
150.218
150.204
150.16
150.133
150.078
150.045
150.046
150.078
150.134
150.161
150.206
150.219
150.255
150.264
150.297
150.306
150.34
150.346
150.399
155.137
594.891
594.757
155.147
150.415
150.345
150.344
150.313
150.305
150.272
150.263
150.228
150.216
150.174
150.146
150.09
150.062
150.036
150.072
150.105
150.158
150.18
150.219
150.234
150.27
150.28
150.315
150.328
150.358
150.404
155.131
594.761
2064.8
113341
132578
148399
158201
164532
172431
187297
208300
212846
191269
132936
76626
1767.48
5987.48
166536
186891
205563
221800
239878
264292
299664
347447
403532
460708
511215
553464
578834
588407
575845
545814
500766
447876
397524
354696
319613
292407
275704
263715
225143
180588
133285
111373
3030.89
41785.3
420763
496900
567827
629789
677373
701339
701106
684437
657443
627386
599963
574488
553912
539889
532355
526772
516512
506786
502008
489383
468325
438938
409726
385977
361476
319861
269735
184713
4555.75
63787.8
533254
582653
607449
647162
689389
729808
772130
817241
853803
874002
882062
881986
877211
866638
842756
809495
751574
669916
573796
496290
464671
462383
480093
507365
541446
583267
633391
640742
4659.52
13714.1
759723
693035
647038
591426
538598
512916
509906
518841
552394
602767
666959
714913
709103
655365
590301
538983
505739
489409
506847
523629
532831
521183
484089
463046
475124
488426
316332
237851
1615.53
2459.66
215490
264670
284853
258748
277898
373796
473938
561541
593558
644271
736339
874844
1.0131e+06
1.12288e+06
1.19041e+06
1.23562e+06
1.2538e+06
1.22113e+06
1.15632e+06
1.17629e+06
1.32385e+06
1.29819e+06
871374
511111
501745
470612
394710
281521
737.364
651.761
137594
179064
212247
303754
583794
860450
1.12789e+06
1.24839e+06
1.25207e+06
1.13662e+06
993643
848683
726888
613032
524536
447207
380270
310798
235208
154159
78357.3
33728.3
21027.9
14836.7
9848.98
5945.93
3124.13
1279.34
594.348
595.477
675.671
601.485
537.492
492.58
446.547
408.274
374.872
345.054
317.896
293.61
271.671
252.151
235.208
221.224
209.672
199.55
190.253
182.313
175.739
170.362
165.872
162.146
159.018
156.435
154.302
152.614
151.382
156.156
594.734
594.817
155.825
150.067
149.967
149.941
149.915
149.898
149.88
149.868
149.855
149.846
149.836
149.831
149.822
149.819
149.817
149.817
149.818
149.821
149.822
149.826
149.826
149.829
149.83
149.835
149.835
149.844
149.904
155.678
594.788
594.79
155.684
149.903
149.846
149.836
149.834
149.828
149.827
149.823
149.822
149.818
149.816
149.812
149.81
149.807
149.808
149.808
149.812
149.812
149.821
149.828
149.82
149.822
149.823
149.827
149.829
149.835
149.898
155.686
594.696
594.801
155.67
149.9
149.831
149.829
149.825
149.824
149.821
149.821
149.818
149.817
149.812
149.812
149.807
149.807
149.806
149.809
149.81
149.815
149.817
149.821
149.822
149.826
149.827
149.834
149.835
149.842
149.904
155.677
594.789
594.696
155.694
149.903
149.834
149.837
149.831
149.83
149.824
149.822
149.818
149.817
149.812
149.811
149.808
149.814
149.813
149.807
149.81
149.811
149.816
149.817
149.821
149.822
149.827
149.829
149.836
149.837
149.908
155.699
594.699
594.797
155.673
149.898
149.83
149.828
149.824
149.825
149.822
149.822
149.82
149.819
149.815
149.813
149.808
149.807
149.805
149.807
149.808
149.812
149.816
149.82
149.822
149.827
149.828
149.834
149.835
149.843
149.904
155.677
594.789
2534.07
144888
176014
200736
211683
220525
231294
253972
281353
276882
233354
170223
97863.1
2287.29
11226.9
200145
225549
244621
256598
271792
297638
336921
387568
442811
496162
549121
596125
632115
644671
634537
605733
562620
512091
456726
405386
360851
323396
296380
275036
235443
193734
143109
120205
3387.23
50305.5
471291
521087
567391
617787
663349
690224
695264
686005
665538
639810
615256
592577
572319
558520
552837
549529
538734
527456
529632
537482
533856
509521
471878
427839
385819
336995
286323
207970
5882.58
76473.6
616541
651803
662444
688821
718661
748769
780670
821038
853650
867176
859451
844399
839163
839786
834929
823269
788271
721285
629259
549976
511644
508331
535964
572084
618994
681696
777498
889270
14012.4
20259.8
802531
721372
661791
572414
485172
453261
472211
509373
570355
646010
732556
795850
795753
736657
658809
599210
557424
541094
569046
603373
630474
644831
623142
577782
567497
631999
538674
292073
2120.51
4560.14
188988
243040
265598
286077
371855
615832
722998
715311
680668
715605
853787
1.0521e+06
1.24246e+06
1.35914e+06
1.39968e+06
1.3792e+06
1.34156e+06
1.27839e+06
1.19392e+06
1.12757e+06
1.16246e+06
1.30461e+06
1.70022e+06
857026
561292
529892
464924
359591
891.071
731.367
184785
199941
345153
787324
1.26346e+06
1.74307e+06
1.95914e+06
1.89521e+06
1.68298e+06
1.5091e+06
1.31723e+06
1.14088e+06
977695
840009
704500
593395
495783
412976
327438
239196
149078
69561.4
29269.4
18686.6
12626.5
7825.6
4205.99
1759.46
594.132
598.547
1151.55
952.02
822.913
719.211
621.418
542.242
477.676
424.327
378.774
340.242
306.907
278.869
255.611
236.829
221.237
208.156
197.065
187.806
180.148
173.757
168.436
164.048
160.461
157.532
155.144
153.207
151.762
156.414
596.978
597.033
156.23
150.248
150.142
150.082
150.054
150.009
149.991
149.959
149.95
149.925
149.923
149.904
149.905
149.89
149.897
149.884
149.894
149.883
149.893
149.883
149.892
149.881
149.891
149.879
149.89
149.881
149.953
155.79
597.03
597.036
155.787
149.954
149.881
149.891
149.879
149.891
149.879
149.891
149.88
149.89
149.879
149.888
149.876
149.886
149.875
149.886
149.875
149.885
149.883
149.88
149.889
149.878
149.889
149.879
149.891
149.882
149.956
155.829
597.099
597.024
155.795
149.94
149.891
149.878
149.89
149.879
149.89
149.879
149.89
149.878
149.889
149.876
149.886
149.874
149.884
149.875
149.887
149.878
149.889
149.879
149.889
149.878
149.889
149.878
149.889
149.88
149.952
155.792
597.03
597.099
155.81
149.952
149.891
149.879
149.89
149.879
149.89
149.879
149.89
149.878
149.888
149.876
149.885
149.875
149.875
149.884
149.875
149.887
149.878
149.889
149.878
149.889
149.877
149.889
149.877
149.89
149.948
155.808
597.094
597.029
155.795
149.939
149.891
149.878
149.89
149.879
149.891
149.881
149.892
149.88
149.89
149.877
149.885
149.873
149.883
149.873
149.885
149.876
149.889
149.88
149.89
149.879
149.89
149.879
149.891
149.882
149.953
155.791
597.03
3025.54
177107
216290
245777
261343
277546
296248
327277
355320
335401
275639
222184
148523
4502.5
19520.7
252426
283707
297353
298684
305631
328505
355475
385607
418818
448711
475511
506583
545032
576352
592188
588746
566722
533541
491891
446175
399990
355362
316601
288139
255970
220978
184310
143146
5637.54
60177.6
520234
548203
575438
615316
653840
674145
678399
669986
651001
629191
607817
592902
583710
580920
585167
589619
582501
569332
569690
583339
589531
575768
536665
480502
424256
369747
319132
250711
9764.5
91921.8
693621
719586
718661
731685
745934
759555
783299
822179
861964
883031
874013
845763
824118
816068
818088
815041
792749
738266
665026
601880
570000
580086
624458
668808
715174
787313
908831
1.07204e+06
44937.7
12859.6
790331
745527
679845
557460
454982
453600
506440
543119
593021
667184
757427
838483
848467
791049
708963
637311
589746
576116
608929
655520
688819
704964
700204
670883
611860
593427
577150
310662
3190.85
21210.3
301164
558326
686362
799131
906616
980932
981816
914871
862232
919795
1.08961e+06
1.28923e+06
1.47522e+06
1.61265e+06
1.61919e+06
1.5231e+06
1.4036e+06
1.30445e+06
1.22094e+06
1.15705e+06
1.18305e+06
1.37591e+06
1.96587e+06
2.16767e+06
603431
556956
534848
434667
1296.25
898.112
185859
402523
929058
1.46446e+06
1.92909e+06
2.19976e+06
2.29439e+06
2.13547e+06
1.89527e+06
1.68533e+06
1.55291e+06
1.3888e+06
1.23361e+06
1.07991e+06
935793
786433
654194
536245
434495
333672
233402
135935
57187
25318.9
16545.2
10607.6
5939.82
2586.77
598.82
602.391
1980.48
1519.74
1281.41
1061.06
873.418
728.671
614.459
525.426
453.432
397.983
353.336
316.719
286.224
260.152
238.188
220.208
205.824
194.446
185.19
177.731
171.617
166.635
162.519
159.129
156.329
154.063
152.33
156.657
599.526
599.664
156.436
150.483
150.322
150.226
150.164
150.1
150.062
150.02
150
149.972
149.962
149.942
149.938
149.925
149.927
149.917
149.923
149.915
149.921
149.914
149.919
149.911
149.916
149.908
149.914
149.91
149.981
155.772
599.591
599.59
155.778
149.979
149.909
149.915
149.909
149.917
149.91
149.919
149.912
149.917
149.91
149.915
149.906
149.913
149.906
149.913
149.905
149.91
149.915
149.91
149.915
149.908
149.916
149.909
149.916
149.91
149.979
155.758
599.599
599.596
155.766
149.97
149.916
149.908
149.916
149.91
149.917
149.911
149.918
149.909
149.916
149.907
149.912
149.905
149.912
149.905
149.913
149.909
149.916
149.909
149.916
149.908
149.914
149.907
149.914
149.911
149.979
155.769
599.592
599.6
155.766
149.979
149.917
149.909
149.915
149.908
149.916
149.909
149.917
149.908
149.915
149.907
149.911
149.909
149.908
149.91
149.905
149.914
149.908
149.916
149.908
149.915
149.906
149.913
149.905
149.914
149.978
155.77
599.597
599.598
155.763
149.969
149.914
149.907
149.916
149.909
149.918
149.912
149.919
149.912
149.916
149.908
149.912
149.904
149.911
149.904
149.912
149.908
149.916
149.911
149.917
149.91
149.916
149.909
149.917
149.913
149.981
155.774
599.591
3562.9
204547
246609
277376
299679
322669
349080
384374
411858
398685
359167
314957
235317
14560.5
39284.5
343491
366053
360842
346766
345241
360374
376528
389194
398563
401751
399789
399731
412422
440495
479737
506003
512142
504752
485823
460962
428479
390205
354581
329990
305764
293947
275362
157436
8558.46
71362.8
559686
572701
587244
617180
646291
659386
655946
640960
617534
594777
577766
571675
575818
592660
618062
643498
653753
657786
664013
674698
673164
651962
598634
526322
460256
410427
374341
340177
20803.2
99588.4
753689
763735
745515
748431
751771
754842
771273
808638
856437
893331
903633
882693
842831
813051
799784
790227
769664
733257
684731
641215
629496
669875
750023
810406
859240
934587
1.07139e+06
1.30364e+06
88852.4
26104.6
805223
834638
758383
633287
554926
564241
584410
583593
603739
661109
747804
836276
864712
823754
750208
679929
632101
617065
644569
695312
734855
750505
743895
717332
664355
611647
548807
417728
5923.81
40343.2
548836
932612
1.13851e+06
1.15115e+06
1.07951e+06
1.04029e+06
1.03708e+06
1.03269e+06
1.06248e+06
1.1199e+06
1.20419e+06
1.34156e+06
1.54452e+06
1.7006e+06
1.71972e+06
1.60627e+06
1.42133e+06
1.25553e+06
1.15367e+06
1.09077e+06
1.072e+06
1.1306e+06
1.26747e+06
1.5727e+06
3.28178e+06
652010
648858
546673
2834.14
2574.9
368449
1.09089e+06
1.62158e+06
2.05623e+06
2.31016e+06
2.44777e+06
2.43266e+06
2.34607e+06
2.10424e+06
1.85885e+06
1.69182e+06
1.6015e+06
1.47333e+06
1.32736e+06
1.16921e+06
1.01288e+06
847631
698787
562292
444953
329639
220699
117492
45863.7
23004.1
14984.6
8872.09
4212.24
599.977
611.017
3377.31
2495.6
1994.39
1559.87
1237.66
997.622
813.644
676.912
570.84
488.497
421.808
368.254
324.281
288.546
260.31
237.853
219.675
205.182
193.561
184.199
176.584
170.435
165.467
161.447
158.168
155.468
153.333
157.386
604.597
604.739
157.267
150.878
150.61
150.45
150.326
150.229
150.159
150.103
150.065
150.032
150.012
149.991
149.98
149.967
149.963
149.955
149.955
149.95
149.952
149.947
149.949
149.943
149.945
149.94
149.942
149.939
150.008
155.92
604.691
604.694
155.925
150.005
149.938
149.941
149.94
149.945
149.943
149.948
149.945
149.948
149.943
149.945
149.941
149.944
149.941
149.943
149.939
149.941
149.948
149.944
149.945
149.94
149.945
149.94
149.942
149.938
150.005
155.908
604.707
604.691
155.921
150
149.941
149.938
149.944
149.942
149.947
149.944
149.948
149.944
149.945
149.941
149.943
149.94
149.943
149.94
149.944
149.942
149.945
149.942
149.945
149.94
149.942
149.939
149.941
149.941
150.007
155.919
604.692
604.708
155.908
150.008
149.945
149.94
149.942
149.94
149.944
149.942
149.946
149.942
149.945
149.94
149.943
149.941
149.941
149.942
149.939
149.945
149.941
149.945
149.941
149.943
149.938
149.94
149.935
149.939
150.008
155.912
604.706
604.693
155.914
149.998
149.94
149.937
149.943
149.94
149.946
149.943
149.947
149.944
149.946
149.941
149.942
149.938
149.942
149.939
149.943
149.943
149.946
149.944
149.947
149.944
149.946
149.941
149.946
149.944
150.01
155.921
604.691
4209.68
222144
265408
300620
330171
360877
391569
425268
467202
514595
557362
563524
436670
68492.5
60047.7
466329
450669
425217
401483
394764
402895
415108
425266
429659
426797
416727
404692
401985
410516
430068
451998
468575
474651
472456
464730
450318
428906
404800
387930
371824
362201
330181
169547
19424.8
93364.1
585092
590503
603866
628193
645331
647124
630538
605452
576797
554784
542246
545401
564027
598660
645027
693134
735079
769982
790400
795275
777091
730767
654248
573762
510134
474571
469985
487278
39747
158419
809331
783885
740012
736068
735659
731523
742107
778057
830215
883409
914395
915283
888458
844400
804333
774823
746462
717692
686157
674764
712345
809931
904596
964798
1.01991e+06
1.10642e+06
1.26049e+06
1.57907e+06
170223
96260.5
1.06181e+06
1.11043e+06
989853
823138
723149
686340
644718
604671
603007
645098
724826
811044
852463
833281
780236
728882
694423
686580
705699
745186
786556
814790
813146
789027
736620
685992
596093
533509
11297.4
83878.1
745178
987944
1.19248e+06
1.20773e+06
1.15845e+06
1.12481e+06
1.13117e+06
1.16472e+06
1.21764e+06
1.22271e+06
1.15491e+06
1.17949e+06
1.3761e+06
1.58744e+06
1.69175e+06
1.65222e+06
1.46689e+06
1.2192e+06
1.03761e+06
956232
932765
957848
1.01774e+06
1.11891e+06
1.68289e+06
1.26338e+06
722500
648964
4367.42
37868.6
890362
1.52021e+06
2.40262e+06
2.83987e+06
2.72734e+06
2.6793e+06
2.5843e+06
2.4332e+06
2.27291e+06
2.0454e+06
1.84773e+06
1.72557e+06
1.66599e+06
1.55014e+06
1.39278e+06
1.22383e+06
1.05605e+06
882329
721198
571503
439583
314412
194955
90623
34931.1
19795.4
11623.1
5784.84
609.702
618.898
6263.42
4390.55
3099.07
2279.56
1728.76
1351.36
1075.39
875.771
717.784
594.335
498.099
424.175
365.886
320.551
285.295
257.512
235.232
217.41
203.1
191.673
182.482
175.064
169.042
164.144
160.098
156.807
154.192
157.978
609.921
610.265
157.807
151.419
150.954
150.693
150.5
150.366
150.271
150.201
150.145
150.1
150.069
150.045
150.027
150.013
150.005
149.999
149.995
149.991
149.99
149.986
149.987
149.983
149.983
149.979
149.98
149.979
150.046
155.862
609.995
609.998
155.879
150.042
149.978
149.979
149.98
149.983
149.982
149.985
149.983
149.984
149.981
149.983
149.981
149.982
149.979
149.982
149.979
149.978
149.986
149.983
149.983
149.98
149.982
149.98
149.98
149.979
150.043
155.847
609.997
609.998
155.855
150.039
149.98
149.978
149.983
149.982
149.985
149.983
149.985
149.982
149.983
149.981
149.982
149.979
149.981
149.981
149.982
149.981
149.983
149.981
149.983
149.979
149.98
149.977
149.98
149.981
150.044
155.86
609.997
609.998
155.847
150.045
149.984
149.98
149.98
149.978
149.982
149.98
149.983
149.98
149.983
149.98
149.981
149.981
149.98
149.981
149.979
149.982
149.98
149.983
149.98
149.981
149.978
149.979
149.976
149.977
150.045
155.851
609.997
609.999
155.853
150.037
149.979
149.978
149.982
149.98
149.984
149.982
149.985
149.982
149.984
149.98
149.981
149.978
149.98
149.978
149.981
149.98
149.983
149.982
149.985
149.983
149.983
149.98
149.983
149.984
150.048
155.859
609.979
4866.54
226656
274774
318525
360998
401109
428751
452548
524327
667597
860769
1.04448e+06
1.05065e+06
774416
131340
156168
738849
666377
555401
491391
452462
446021
455026
467392
477116
481860
484929
482346
479558
475242
474639
473992
475449
476888
479509
481471
483345
483440
478277
468637
461192
455878
457749
410077
276091
206382
79704
101701
496772
592394
591341
612148
638203
649665
644730
621645
589160
557281
534508
528050
542413
571701
620470
682331
756931
828840
886886
913171
904100
855908
779274
687246
598908
530910
492153
494768
560125
467720
129172
155348
784241
871212
777857
718682
708279
702784
693002
700881
736436
790827
848033
897540
925450
925411
900792
858987
822203
786981
762999
761943
800670
883173
961335
996507
1.02445e+06
1.10552e+06
1.23423e+06
1.42632e+06
1.82192e+06
1.60017e+06
381554
371917
1.02446e+06
1.34594e+06
1.34059e+06
1.21948e+06
1.03007e+06
889008
785835
692684
636056
625557
654003
715725
791502
837405
836752
804532
771858
754568
754147
766746
788696
817622
853777
878405
887960
868846
830351
751743
774539
492989
119229
142622
674358
1.23562e+06
1.27644e+06
1.30312e+06
1.31945e+06
1.30975e+06
1.28928e+06
1.28411e+06
1.30731e+06
1.36378e+06
1.37913e+06
1.25729e+06
1.13882e+06
1.28014e+06
1.50156e+06
1.68971e+06
1.74484e+06
1.62252e+06
1.33079e+06
1.02668e+06
844394
789196
795933
842954
902869
1.04265e+06
1.12733e+06
721092
763359
686057
30764.1
19793.8
1.01454e+06
1.54503e+06
1.69368e+06
3.00888e+06
3.31769e+06
3.03607e+06
2.87001e+06
2.6848e+06
2.50234e+06
2.32741e+06
2.16707e+06
1.99342e+06
1.84582e+06
1.75183e+06
1.70708e+06
1.58568e+06
1.41338e+06
1.23819e+06
1.06803e+06
888052
719569
561536
423360
287820
163653
68862.1
33443.4
24769.3
21744.6
23809.2
624.805
617.656
20025.6
15253.6
9481.75
5940.82
3919.38
2752.81
2022.01
1538.36
1195.73
945.837
760.059
621.752
517.613
437.589
375.545
327.122
289.257
259.547
236.211
217.771
203.153
191.466
182.143
174.727
168.965
164.56
161.415
159.632
159.47
173.709
619.541
619.542
173.727
156.214
153.554
152.225
151.458
150.997
150.698
150.5
150.363
150.266
150.194
150.143
150.107
150.08
150.062
150.047
150.038
150.032
150.029
150.028
150.028
150.032
150.035
150.043
150.055
150.074
150.098
150.13
150.346
162.558
619.505
619.505
162.596
150.354
150.129
150.097
150.074
150.056
150.045
150.036
150.031
150.026
150.023
150.019
150.018
150.017
150.016
150.015
150.016
150.015
150.016
150.024
150.025
150.028
150.032
150.043
150.055
150.073
150.095
150.125
150.338
162.478
619.512
619.506
162.557
150.341
150.122
150.095
150.071
150.057
150.043
150.036
150.03
150.026
150.021
150.02
150.017
150.016
150.015
150.015
150.015
150.017
150.018
150.021
150.023
150.028
150.033
150.043
150.055
150.075
150.099
150.128
150.344
162.551
619.505
619.513
162.493
150.342
150.128
150.101
150.075
150.056
150.041
150.034
150.028
150.024
150.02
150.019
150.015
150.016
150.015
150.015
150.015
150.015
150.019
150.02
150.024
150.028
150.034
150.041
150.055
150.071
150.097
150.13
150.345
162.498
619.511
619.504
162.557
150.337
150.121
150.096
150.071
150.056
150.041
150.036
150.029
150.026
150.022
150.021
150.017
150.017
150.014
150.015
150.016
150.02
150.024
150.031
150.038
150.05
150.064
150.09
150.121
150.172
150.234
150.31
150.576
163.199
619.497
619.153
5257.88
218336
274746
333419
395775
449932
471480
475197
540444
713352
980727
1.29425e+06
1.54037e+06
1.62997e+06
1.55884e+06
1.35176e+06
1.05785e+06
779877
639839
553929
510061
507417
518515
532211
543931
554383
565094
575743
582928
581190
575742
562261
548990
535106
525892
521781
521338
525420
530898
535841
542474
548475
561633
533448
524478
535207
521306
545188
630269
620796
616973
633605
653930
665166
664184
645353
614996
582539
559956
559207
581588
621214
675831
749671
834614
919941
980602
992438
956436
880742
785720
683495
586940
507775
460610
464480
539349
624372
727528
836654
899618
818234
724900
685485
677059
663427
641601
642289
677919
734492
794924
847950
893936
924611
934835
921646
901240
888825
899053
957838
1.06265e+06
1.17144e+06
1.23296e+06
1.20478e+06
1.1245e+06
1.15146e+06
1.30781e+06
1.5195e+06
1.88369e+06
2.09271e+06
1.55201e+06
1.36619e+06
1.47577e+06
1.53534e+06
1.49322e+06
1.36487e+06
1.17106e+06
1.00462e+06
861451
749833
694696
684745
703044
744258
798455
835812
841200
822284
800683
797538
805409
822676
834365
852762
884549
924875
966938
998907
1.02429e+06
1.02277e+06
1.09336e+06
1.24114e+06
1.24204e+06
1.2977e+06
1.47468e+06
1.67067e+06
1.69712e+06
1.69403e+06
1.69244e+06
1.7001e+06
1.70966e+06
1.71228e+06
1.70864e+06
1.72467e+06
1.74398e+06
1.7142e+06
1.6803e+06
1.78212e+06
1.96495e+06
2.105e+06
2.13533e+06
2.01607e+06
1.6895e+06
1.27703e+06
935150
764294
720527
736540
788057
868157
1.04514e+06
1.02774e+06
886201
1.0317e+06
1.35286e+06
1.64712e+06
1.85909e+06
2.111e+06
1.92836e+06
2.65399e+06
3.24365e+06
3.13227e+06
2.93392e+06
2.72788e+06
2.53888e+06
2.39023e+06
2.24989e+06
2.10503e+06
1.95173e+06
1.82851e+06
1.76093e+06
1.72236e+06
1.57687e+06
1.3967e+06
1.22384e+06
1.05122e+06
867073
693045
533927
384913
241897
117233
50073.2
32930.8
27814.6
27197.9
26283
23689.1
20978.6
14700.1
9305.89
6067.14
4201.42
3046.61
2284.97
1753.08
1373.02
1091.86
881.932
721.022
597.218
500.788
425.77
366.785
320.489
284.05
255.43
232.842
214.996
200.866
189.711
180.892
173.951
168.56
164.556
161.907
160.712
161.303
166.269
165.128
159.032
155.364
153.373
152.204
151.496
151.053
150.761
150.565
150.423
150.32
150.242
150.186
150.145
150.115
150.092
150.075
150.065
150.058
150.052
150.05
150.05
150.051
150.051
150.052
150.057
150.065
150.069
150.076
150.079
150.264
156.095
156.094
150.268
150.084
150.073
150.068
150.064
150.056
150.051
150.048
150.047
150.044
150.041
150.037
150.036
150.034
150.033
150.033
150.034
150.034
150.035
150.042
150.043
150.044
150.047
150.05
150.056
150.064
150.069
150.072
150.074
150.261
156.094
156.095
150.265
150.075
150.071
150.069
150.064
150.058
150.051
150.05