/*--------------------------------*- C++ -*----------------------------------*\
| =========                 |                                                 |
| \\      /  F ield         | OpenFOAM: The Open Source CFD Toolbox           |
|  \\    /   O peration     | Version:  2.1.1                                 |
|   \\  /    A nd           | Web:      www.OpenFOAM.org                      |
|    \\/     M anipulation  |                                                 |
\*---------------------------------------------------------------------------*/
FoamFile
{
    version     2.0;
    format      ascii;
    class       volScalarField;
    location    "0.002850000";
    object      rhoEu;
}
// * * * * * * * * * * * * * * * * * * * * * * * * * * * * * * * * * * * * * //

dimensions      [1 -1 -2 0 0 0 0];

internalField   nonuniform List<scalar> 
12384
(
312681
286861
227769
159863
92871.1
16996.7
-29536.7
-115926
-171894
-227494
-232255
-242019
-322931
44262.6
-126158
-397314
-355982
-297661
-246591
-219902
-198158
-169980
-144463
-128218
-115234
-105443
-117739
-124802
-143823
-147072
-149720
-141688
-140033
-133065
-145387
-134129
-155702
-184229
-253202
-291039
-107917
36109
21775.2
-6003.49
-311082
-52906.3
-858.639
-59694.6
-72255.1
-130934
-132885
-178423
-179756
-207486
-216757
-234323
-241561
-254784
-266602
-282696
-302815
-330447
-350406
-365498
-362095
-347567
-335171
-342881
-361366
-361778
-283319
-141349
-108274
10899.1
-218972
-186620
-183094
-174374
-134423
-157463
-192472
-250559
-290114
-314366
-332296
-356210
-388327
-406596
-409852
-409421
-398183
-379057
-359246
-334415
-353566
-409121
-430582
-443141
-377590
-260752
-137811
-132191
-58683.3
38763.8
-174784
-371027
-388479
-444984
-502111
-517095
-515582
-509244
-498127
-479179
-463049
-454073
-467671
-466486
-426428
-445486
-568748
-628041
-639235
-530624
-314254
-99395.7
-43723.2
14634.9
201804
427901
931703
904681
883670
876515
232172
372514
485875
384287
209195
152426
121154
119804
114816
91858.6
170200
134442
209372
201160
296958
369347
484668
496061
531631
607084
710145
578482
548803
442974
402143
341552
235013
230200
202609
175090
-60320.5
-66043.2
-59668.3
-63404.7
-47223.1
-48961.9
-29646.3
38265.4
72530.4
141909
196123
244832
295267
391449
456134
577436
580114
529530
452236
83397.6
-82982.2
-93789.8
-93032.5
-94734.1
-100069
-100646
-104087
-104025
-105648
-105397
-107612
-107610
-107602
-107604
-107591
-107594
-107584
-107584
-107573
-107574
-107564
-107565
-107556
-107558
-107547
-107551
-107539
-107544
-107530
-107536
-107526
-107530
-107520
-107524
-107519
-107515
-107517
-107513
-107516
-107514
-107491
-107491
-107491
-107491
-107489
-107491
-107490
-107491
-107489
-107490
-107488
-107489
-107490
-107490
-107489
-107489
-107489
-107489
-107487
-107487
-107488
-107488
-107488
-107488
-107488
-107486
-107488
-107487
-107488
-107489
-107487
-107487
-107488
-107488
-107486
-107487
-107488
-107486
-107487
-107487
-107487
-107486
-107488
-107488
-107488
-107488
-107488
-107488
-107487
-107487
-107488
-107488
-107487
-107488
-107488
-107486
-107487
-107488
-107488
-107488
-107488
-107488
-107487
-107488
-107486
-107488
-107488
-107488
-107486
-107487
-107486
-107487
-107488
-107488
-107488
-107488
-107488
-107488
-107486
-107487
-107487
-107487
-107487
-107488
-107488
-107486
-107488
-107487
-107488
-107488
-107488
-107487
-107487
-107488
-107485
-107489
-107488
-107487
-107487
-107487
-107486
-107487
-107487
-107488
-107488
-107487
-107488
-107488
-107486
-107486
-107488
-107487
-107487
-107487
-107488
-107486
-107488
-107488
-107488
-107488
-107488
-107489
-107487
-107488
-107486
-107488
-107487
-107488
-107487
-107487
-107487
-107487
-107488
-107488
-107486
-107487
-107486
-107488
-107488
-107488
-107488
-107488
-107487
-107488
-107487
-107486
-107487
-107488
-107487
-107487
303800
290942
301114
288009
246041
167451
73495.6
-7417.22
-47803.7
-111865
-170706
-215712
-377315
110306
-389947
-409406
-351032
-280942
-201700
-143653
-86794.4
-30734.2
8507.13
35384.4
47407.1
42381.9
22389.6
-1923.49
-28861.9
-48684.3
-53203.2
-51525.7
-45202.1
-58006.4
-79284.7
-111870
-125345
-174859
-247672
-241797
-250712
-197664
10450.7
-6486.89
-254848
3272.2
-3632.22
-17360.5
-57473.1
-58177.7
-69186.5
-97109.6
-91366.1
-115788
-134428
-144399
-153117
-152918
-157980
-164116
-185867
-216738
-279053
-321784
-337665
-313389
-308490
-331011
-364419
-366193
-342911
-338414
-319556
-42443.2
-173807
-230752
-267122
-262976
-202463
-179519
-179534
-207254
-241681
-273599
-307832
-344762
-380766
-407811
-419454
-421456
-408270
-376539
-347469
-321643
-321178
-347954
-380382
-378485
-354748
-342210
-362848
-377193
-311186
-54428.1
-256142
-361184
-383955
-430799
-493370
-521534
-537971
-538730
-528115
-494343
-460548
-446063
-463211
-462632
-420586
-420724
-515533
-581930
-591009
-526078
-427278
-422670
-415997
-393941
-158439
425553
614345
877731
770616
695423
362742
438073
170014
-381269
-235491
-204523
-246919
-208655
-181703
-174722
-167538
-157252
-98110.5
-111491
-112362
-167329
-194321
-252466
-307585
-389963
440136
541252
598525
511745
516850
384431
310649
186978
224171
168889
-62354.6
-56182.1
-61155.5
-46120.1
-43586.5
8412.15
126059
196562
361182
425715
506963
472365
437427
352626
367887
320988
301491
361294
253672
204622
4490.73
-86786.8
-94550.1
-95421.2
-99233.7
-101166
-103449
-104652
-105099
-105741
-107622
-107611
-107613
-107594
-107604
-107585
-107590
-107580
-107577
-107573
-107567
-107565
-107558
-107559
-107547
-107552
-107538
-107545
-107531
-107538
-107524
-107532
-107520
-107525
-107518
-107520
-107515
-107514
-107517
-107511
-107489
-107493
-107487
-107496
-107488
-107496
-107487
-107495
-107487
-107495
-107487
-107494
-107487
-107493
-107487
-107493
-107486
-107493
-107486
-107493
-107485
-107493
-107485
-107493
-107485
-107492
-107485
-107489
-107488
-107486
-107487
-107488
-107491
-107485
-107492
-107485
-107492
-107485
-107492
-107485
-107492
-107486
-107492
-107485
-107491
-107485
-107492
-107485
-107491
-107487
-107486
-107492
-107485
-107493
-107485
-107492
-107485
-107492
-107485
-107488
-107486
-107490
-107484
-107492
-107484
-107492
-107484
-107492
-107485
-107492
-107485
-107492
-107486
-107492
-107485
-107492
-107486
-107492
-107485
-107492
-107485
-107492
-107485
-107492
-107484
-107492
-107484
-107489
-107488
-107486
-107489
-107487
-107489
-107491
-107485
-107492
-107485
-107492
-107485
-107492
-107484
-107492
-107485
-107491
-107486
-107486
-107492
-107486
-107492
-107485
-107492
-107485
-107492
-107485
-107491
-107484
-107491
-107487
-107488
-107488
-107486
-107490
-107484
-107491
-107484
-107492
-107484
-107492
-107484
-107492
-107484
-107492
-107485
-107492
-107485
-107491
-107485
-107492
-107485
-107492
-107484
-107492
-107484
-107492
-107484
-107492
-107485
-107489
-107487
-107485
321016
370777
428624
434410
398073
317134
232257
162385
136024
88097.7
-70521.7
-174592
-127123
235207
-395132
-371569
-269185
-192198
-80877.3
10192.4
72570.4
100392
127928
137479
142677
141178
131958
114814
95616
70566.6
63102
63256.5
68728.4
54507.8
22188.4
-32134.1
-83424.9
-130383
-216346
-277157
-316649
-153217
21304
-2328.32
-224054
28878.4
-510.036
-5911.09
-7727.62
5979.95
30135.6
26640.2
25930.8
13147.7
-43.14
-25453.6
-43003
-66203.4
-90990.4
-118099
-133224
-141653
-164563
-221385
-283639
-287306
-289185
-313067
-356969
-388646
-398878
-394611
-325115
-101119
-40840.3
-213814
-293131
-333642
-274013
-224915
-196131
-197499
-215460
-243009
-272904
-298933
-329755
-361935
-398245
-414766
-418415
-397193
-357304
-323152
-305259
-299268
-291088
-285805
-299880
-338238
-376688
-384812
-366735
-114651
-325330
-363093
-375433
-431732
-481597
-531647
-550075
-562572
-550043
-503513
-452031
-436440
-454206
-460314
-425847
-400169
-444869
-510703
-538432
-557737
-567375
-577610
-497438
-429297
-457469
26911.2
436005
533014
655803
713780
372862
450103
227783
-410775
-282216
-219159
-182331
-214008
-151416
-186153
-148714
-87648.9
-17697.5
24332.6
11400.3
1073.3
-21501.8
-50572.4
-136089
-216808
-244391
-359035
-593534
585212
513545
475631
361221
238864
229457
165290
-55045.8
-58714.8
-45512.1
-21128.1
45389.3
175050
281679
509606
655195
826917
871060
843036
726045
558344
408768
267258
287171
204380
280422
291738
176982
-21838.8
-95956.2
-96357.7
-99946.9
-100759
-103830
-104181
-105428
-105580
-107614
-107612
-107607
-107616
-107602
-107613
-107598
-107606
-107593
-107598
-107589
-107590
-107580
-107581
-107570
-107574
-107561
-107565
-107557
-107554
-107553
-107546
-107548
-107540
-107545
-107537
-107541
-107536
-107539
-107537
-107515
-107513
-107515
-107513
-107514
-107513
-107514
-107511
-107513
-107512
-107513
-107511
-107513
-107510
-107511
-107510
-107511
-107510
-107512
-107510
-107512
-107509
-107511
-107509
-107511
-107509
-107511
-107510
-107511
-107512
-107511
-107510
-107510
-107511
-107509
-107511
-107509
-107510
-107509
-107511
-107510
-107511
-107510
-107511
-107509
-107510
-107509
-107511
-107509
-107510
-107511
-107508
-107510
-107509
-107511
-107509
-107511
-107510
-107511
-107510
-107512
-107509
-107511
-107509
-107510
-107509
-107510
-107509
-107510
-107510
-107511
-107510
-107511
-107509
-107510
-107509
-107510
-107509
-107511
-107510
-107511
-107509
-107510
-107509
-107511
-107509
-107511
-107510
-107511
-107512
-107512
-107511
-107511
-107509
-107511
-107511
-107510
-107508
-107510
-107510
-107511
-107509
-107511
-107510
-107510
-107510
-107510
-107511
-107509
-107511
-107509
-107511
-107509
-107510
-107510
-107511
-107509
-107511
-107510
-107511
-107511
-107510
-107510
-107509
-107511
-107509
-107511
-107509
-107511
-107509
-107510
-107509
-107511
-107509
-107510
-107509
-107510
-107508
-107510
-107509
-107510
-107510
-107510
-107509
-107511
-107509
-107510
-107510
-107510
-107511
437315
507699
512901
479632
411000
343069
287849
268006
262663
229864
67030.3
-117312
-16761.5
243360
-332837
-295142
-188591
-70966.2
50001.2
128823
166099
180094
172239
171716
167864
164844
172526
175973
182657
182537
184865
175203
170465
141505
114184
55206.8
-10336
-89172.1
-174844
-281475
-305962
-105055
46364.7
32477.3
-178506
21654.4
2111.2
-17436.5
10296.1
49826.9
66787.7
86502.5
74339.2
67518.1
69661.3
45101.5
-8095.29
-79529.4
-141941
-181943
-200696
-194903
-171697
-162370
-210449
-241170
-269538
-293547
-344021
-383883
-403109
-399335
-312368
-138593
-10170.8
-152681
-295724
-350848
-319309
-262922
-221538
-204622
-206482
-213581
-219994
-228814
-244242
-276226
-326545
-381586
-415672
-416589
-392913
-357586
-313631
-277885
-254760
-246206
-250352
-289575
-340238
-367245
-370323
-329324
-367703
-366777
-390177
-433310
-501111
-536194
-572146
-571429
-551062
-495897
-438299
-422942
-444881
-456034
-423550
-395597
-393380
-432352
-472069
-552724
-584411
-553188
-515549
-481007
-353228
-259748
-240342
-430428
454433
465946
277473
361170
411505
211003
-68887.2
-361704
-238742
-209007
-190172
-232237
-178158
-124033
-4519.04
27611.9
58769
44716.5
23849.4
-30929.1
-131899
-245267
-360007
-443995
-337399
-303568
-690850
571671
477104
336355
258635
156609
-62896.6
-63987.8
-15791.4
18082.7
153464
272058
379054
417762
517785
684633
907261
928738
863397
710762
592161
331031
293127
239207
266055
300259
299763
176695
-42258.9
-98505.5
-98711.4
-101444
-102184
-104607
-104732
-105630
-107592
-107580
-107593
-107583
-107600
-107588
-107599
-107594
-107592
-107592
-107586
-107587
-107579
-107580
-107571
-107571
-107562
-107563
-107556
-107552
-107553
-107545
-107548
-107541
-107543
-107537
-107538
-107534
-107537
-107535
-107512
-107514
-107510
-107514
-107510
-107515
-107510
-107514
-107508
-107513
-107509
-107512
-107508
-107511
-107508
-107511
-107508
-107511
-107507
-107511
-107507
-107511
-107508
-107511
-107508
-107510
-107507
-107510
-107509
-107509
-107509
-107508
-107510
-107507
-107511
-107508
-107511
-107508
-107511
-107506
-107510
-107507
-107510
-107507
-107509
-107506
-107509
-107507
-107509
-107507
-107507
-107510
-107507
-107511
-107508
-107510
-107507
-107510
-107508
-107509
-107509
-107510
-107506
-107511
-107507
-107511
-107507
-107511
-107506
-107511
-107507
-107510
-107506
-107510
-107506
-107509
-107507
-107509
-107507
-107510
-107506
-107510
-107507
-107511
-107508
-107510
-107508
-107509
-107508
-107509
-107509
-107508
-107508
-107510
-107506
-107512
-107507
-107511
-107507
-107510
-107507
-107511
-107507
-107510
-107507
-107507
-107510
-107507
-107510
-107507
-107510
-107507
-107511
-107507
-107512
-107507
-107510
-107508
-107508
-107510
-107509
-107509
-107507
-107510
-107507
-107511
-107507
-107511
-107507
-107511
-107507
-107511
-107507
-107511
-107508
-107511
-107507
-107511
-107508
-107511
-107507
-107510
-107507
-107511
-107508
-107511
-107506
-107510
-107509
-107510
560509
577770
481820
382754
328379
315553
305866
290090
298098
233419
95250.8
-116484
-120437
100194
-261002
-195519
-50963.5
76422.7
168154
194825
185591
157963
116996
83992.7
54688.9
58256.7
69408.1
113796
137855
175331
180235
207818
208714
214627
181093
130278
60584.8
-33003.9
-135291
-252423
-277876
-38503.8
53573.1
49734.6
-172372
14859.8
-9558.84
-28959.2
12307.6
55670.7
69869.8
81614.5
49376.4
65570.8
50116.1
54522
-25429.8
-116585
-170931
-202288
-218229
-227301
-212363
-180780
-168052
-204199
-246418
-282672
-321736
-364578
-393836
-383479
-302337
-171607
-52707.5
-179126
-313472
-341899
-331953
-289213
-249581
-216179
-197685
-174931
-156186
-147716
-151711
-179043
-243840
-327048
-396924
-416845
-409459
-374593
-340552
-314586
-298728
-291373
-266407
-261263
-273304
-304850
-361184
-377542
-367617
-364886
-393120
-464537
-518767
-575011
-579161
-562427
-517096
-456774
-407362
-409127
-435020
-448512
-421728
-393841
-383623
-388313
-406885
-491926
-567834
-537335
-493449
-513213
-527268
-469918
-388776
-235212
145101
254337
181206
229699
284175
200956
-87852.8
-366974
-339902
-225598
-168016
-245760
-164830
-77048.6
39802.6
155603
184225
205545
173754
68461.7
-60902.1
-213297
-391681
-528205
-517329
-343142
-329134
610780
559361
465299
293382
198115
-76062.6
-50648.9
59318.3
121744
172609
240672
54224.7
-61096.5
-90801.3
-1427.9
243073
770832
843651
855714
758316
655380
395276
350132
258353
287341
307799
298025
130178
-67798.7
-99278.5
-100252
-102502
-103217
-105095
-105154
-107533
-107501
-107522
-107552
-107547
-107578
-107573
-107590
-107580
-107587
-107581
-107583
-107578
-107575
-107572
-107566
-107565
-107557
-107557
-107549
-107550
-107542
-107545
-107537
-107541
-107532
-107537
-107531
-107534
-107531
-107512
-107511
-107512
-107509
-107511
-107508
-107511
-107508
-107510
-107506
-107509
-107506
-107509
-107506
-107509
-107506
-107508
-107505
-107508
-107505
-107507
-107505
-107508
-107506
-107507
-107505
-107507
-107506
-107506
-107506
-107506
-107506
-107505
-107507
-107505
-107507
-107505
-107508
-107504
-107506
-107504
-107507
-107504
-107507
-107505
-107507
-107505
-107507
-107505
-107506
-107507
-107504
-107507
-107505
-107507
-107504
-107506
-107504
-107507
-107505
-107506
-107505
-107507
-107505
-107507
-107505
-107508
-107506
-107507
-107504
-107507
-107505
-107507
-107505
-107507
-107505
-107507
-107504
-107507
-107504
-107507
-107504
-107507
-107505
-107507
-107505
-107506
-107505
-107506
-107506
-107505
-107506
-107505
-107505
-107506
-107505
-107507
-107505
-107506
-107504
-107507
-107505
-107506
-107505
-107506
-107507
-107505
-107506
-107505
-107506
-107504
-107507
-107506
-107507
-107505
-107507
-107505
-107506
-107506
-107506
-107507
-107505
-107507
-107505
-107507
-107504
-107508
-107505
-107508
-107505
-107507
-107505
-107508
-107505
-107507
-107505
-107506
-107504
-107507
-107505
-107506
-107505
-107508
-107506
-107507
-107505
-107507
-107505
-107507
-107507
573923
496032
370575
307002
287216
274583
270148
275828
222187
159450
38339.4
-83149.3
-177030
-23513.8
-213057
-76157.3
85474
192821
202632
167425
92315.9
-1351.55
-81979.1
-109765
-114247
-107845
-99711.4
-72228.3
-21601
47553.9
115187
157064
199815
219824
221062
189556
123823
22016.3
-103247
-227980
-245917
-219320
-83761.2
65178.7
-172833
-4168.95
-22475.2
-30405.4
21504.6
56034
63213.5
42207.6
-1040.22
12653.6
27690.7
33692.7
-5031.73
-66823.1
-124214
-156099
-192257
-213759
-222261
-191893
-172725
-173746
-234662
-268337
-306262
-334625
-372702
-365591
-305289
-221732
-99931.7
-232264
-319354
-352883
-332960
-311169
-282022
-239777
-179516
-119428
-66679.3
-43162.2
-57043.1
-99817.4
-175683
-281828
-375731
-411837
-410634
-400808
-389393
-376846
-357220
-319121
-286476
-249790
-221818
-220177
-313761
-406085
-424781
-381815
-435484
-493492
-568120
-590395
-564837
-510360
-455566
-402830
-378581
-395633
-424335
-432952
-405798
-384611
-376058
-368317
-366288
-390424
-485936
-506008
-444909
-447997
-529647
-556103
-422123
-239781
-190429
155392
87626.1
-356682
-322242
-289565
-291769
-316971
-299768
-209398
-184658
-182511
-171297
-91922
-4852.07
163673
302246
301649
321842
221181
85800
-131774
-336769
-520148
-648295
-657053
-166741
-762196
519603
601911
465996
244396
-74927.1
-19664.5
193315
115849
37508.1
-67203.2
-146890
-156859
-189508
-196864
-174116
48720.8
580585
853364
851763
788526
710779
472938
398098
286096
308976
304784
280068
79721.1
-86084
-100998
-101162
-103313
-103973
-105295
-107437
-107402
-107483
-107490
-107540
-107534
-107568
-107560
-107582
-107568
-107583
-107571
-107575
-107569
-107572
-107561
-107563
-107555
-107556
-107545
-107550
-107539
-107543
-107534
-107538
-107531
-107532
-107529
-107530
-107528
-107509
-107509
-107507
-107509
-107507
-107508
-107506
-107507
-107506
-107506
-107504
-107506
-107504
-107506
-107504
-107505
-107504
-107505
-107503
-107504
-107502
-107504
-107502
-107504
-107502
-107504
-107503
-107504
-107503
-107504
-107503
-107503
-107504
-107502
-107503
-107502
-107503
-107502
-107503
-107502
-107503
-107502
-107503
-107503
-107503
-107503
-107503
-107503
-107503
-107502
-107502
-107503
-107502
-107503
-107502
-107503
-107502
-107503
-107502
-107504
-107504
-107503
-107502
-107503
-107502
-107503
-107502
-107503
-107502
-107503
-107502
-107503
-107503
-107504
-107503
-107504
-107503
-107504
-107503
-107503
-107502
-107503
-107502
-107504
-107503
-107503
-107503
-107503
-107503
-107503
-107504
-107503
-107503
-107503
-107503
-107503
-107502
-107503
-107502
-107503
-107502
-107504
-107503
-107503
-107503
-107503
-107503
-107502
-107503
-107502
-107503
-107502
-107502
-107503
-107503
-107502
-107503
-107503
-107503
-107504
-107503
-107502
-107502
-107503
-107503
-107503
-107502
-107503
-107503
-107503
-107502
-107504
-107503
-107503
-107503
-107504
-107503
-107503
-107502
-107503
-107502
-107503
-107502
-107504
-107503
-107504
-107502
-107504
-107504
-107504
570829
408707
295994
274932
262042
265476
279061
257904
145496
43249.4
6863.38
-50166.5
-79741.7
-71484
-131537
63901.5
202643
210058
140135
14709.6
-103504
-141981
-149478
-155411
-148427
-141781
-132146
-115827
-100067
-61376
7646.73
91263
144258
209111
220643
222715
164995
53054.9
-84918.5
-186613
-223091
-225462
-79922.9
65360.2
-183290
-38375.7
-35045.8
3027.8
31670
71250.8
39528.3
21413.4
-10835.7
2857.01
24058.1
63254.5
57156
19481.4
-52612.7
-135073
-180844
-208373
-210118
-197838
-174175
-177468
-220465
-264125
-287271
-314167
-348330
-347287
-311274
-281130
-164379
-228963
-334520
-368432
-354980
-332964
-309025
-261249
-185705
-79375.8
9906.55
42845.8
25052
-34154.7
-141511
-263999
-363963
-406556
-418220
-418992
-409970
-381198
-342313
-307029
-267539
-222943
-187390
-155497
-233828
-374556
-426034
-385043
-445794
-555544
-602748
-574176
-510099
-456768
-407947
-376991
-362324
-378163
-408256
-408633
-391350
-379000
-371840
-362902
-351876
-357551
-404003
-454306
-439852
-382669
-410832
-528017
-512762
-374079
-308764
44435
-4662.35
-294440
-352432
-373845
-343339
-288918
-209843
-150262
-154605
-196997
-171608
-213450
-126789
62077.7
242868
312921
399456
412221
258764
81213.9
-169718
-435833
-626646
-678180
-585615
-167482
-511475
187277
539693
390483
-58304.6
126648
-50631.2
-71506.8
-125033
-168629
-164334
-175350
-174396
-193163
-215753
-186550
-35729.8
507172
858222
859667
801462
734709
507385
425688
306015
315351
300403
254546
10375.9
-97307
-100917
-102178
-104163
-104753
-107196
-107191
-107314
-107403
-107428
-107513
-107507
-107561
-107542
-107577
-107551
-107581
-107554
-107573
-107558
-107559
-107558
-107548
-107552
-107540
-107544
-107534
-107536
-107531
-107530
-107526
-107525
-107522
-107524
-107521
-107505
-107504
-107505
-107501
-107504
-107501
-107503
-107500
-107501
-107499
-107500
-107498
-107500
-107498
-107499
-107498
-107499
-107498
-107498
-107497
-107498
-107496
-107498
-107497
-107498
-107497
-107497
-107497
-107497
-107498
-107497
-107497
-107497
-107498
-107496
-107498
-107496
-107498
-107495
-107497
-107496
-107498
-107497
-107498
-107497
-107498
-107497
-107498
-107497
-107497
-107497
-107496
-107498
-107496
-107498
-107496
-107498
-107497
-107498
-107497
-107497
-107497
-107498
-107496
-107498
-107496
-107498
-107496
-107497
-107496
-107497
-107497
-107498
-107497
-107498
-107497
-107498
-107497
-107498
-107496
-107497
-107495
-107498
-107497
-107498
-107497
-107497
-107497
-107497
-107497
-107496
-107497
-107496
-107496
-107497
-107496
-107498
-107496
-107497
-107496
-107497
-107497
-107498
-107497
-107497
-107498
-107497
-107498
-107496
-107498
-107496
-107497
-107496
-107498
-107496
-107498
-107496
-107497
-107497
-107497
-107497
-107497
-107498
-107496
-107498
-107496
-107498
-107496
-107497
-107495
-107498
-107496
-107498
-107496
-107497
-107496
-107497
-107496
-107497
-107496
-107498
-107496
-107498
-107496
-107498
-107497
-107498
-107497
-107497
-107498
485609
348689
290168
273626
280957
287144
285657
203739
76733.5
41661.1
74675.7
93721.9
15721.9
-70389.6
-62257.6
178378
222149
130479
-22092.4
-129490
-160664
-169303
-168661
-158331
-140036
-123215
-107997
-98918.7
-81232.4
-64145.4
-21127.7
51504.3
134953
181705
219378
211616
163242
52538.7
-64044.1
-150673
-210085
-220529
-36979.6
37507.4
-187875
-85034.3
-10264.2
26251.7
67301.2
54220.4
49026.1
28365
37258.4
44881
73007.1
100858
107622
72297.7
-27585.3
-136854
-184650
-196292
-197244
-184685
-178820
-184162
-232999
-259860
-288554
-309411
-345818
-344100
-317423
-301074
-172887
-285250
-355824
-389337
-382020
-361732
-325394
-281416
-215558
-108263
16341.7
69230.6
67991.9
341.145
-116006
-253951
-354187
-398371
-401899
-381539
-355245
-332339
-323782
-303555
-277207
-223878
-163885
-113859
-156314
-317991
-412482
-374497
-488932
-593755
-598779
-538817
-494340
-461778
-424174
-381809
-360135
-359494
-379511
-385292
-380295
-376128
-369482
-349927
-337486
-332458
-346999
-377362
-392598
-376069
-347037
-408436
-500840
-507912
-409230
-30631
-12666.2
-278672
-365745
-341991
-261911
-185845
-130389
-123072
-167195
-188764
-215785
-302050
-316081
-141516
64048.4
234880
421547
550474
510405
322341
83560.5
-176935
-428472
-671946
-968736
-940232
-242042
287687
480119
430217
26390.6
226663
-203867
-41625.7
-110495
-194920
-180374
-163776
-175955
-182369
-196071
-201451
-185692
-74762.9
475148
853412
861280
796524
727697
510195
435669
311960
318884
286728
145020
-60980
-100460
-101448
-103548
-103869
-106185
-106596
-106986
-107272
-107373
-107448
-107484
-107515
-107536
-107551
-107556
-107559
-107563
-107558
-107561
-107553
-107554
-107547
-107543
-107540
-107534
-107535
-107530
-107527
-107525
-107522
-107521
-107518
-107518
-107517
-107501
-107499
-107499
-107499
-107498
-107499
-107496
-107498
-107496
-107496
-107494
-107495
-107495
-107495
-107495
-107495
-107494
-107494
-107493
-107493
-107492
-107494
-107492
-107493
-107492
-107494
-107492
-107493
-107492
-107492
-107492
-107492
-107492
-107492
-107493
-107493
-107492
-107492
-107493
-107492
-107492
-107492
-107493
-107493
-107494
-107493
-107493
-107493
-107492
-107492
-107492
-107493
-107492
-107492
-107492
-107493
-107492
-107492
-107492
-107492
-107492
-107492
-107492
-107492
-107493
-107493
-107491
-107493
-107492
-107492
-107492
-107492
-107493
-107494
-107493
-107494
-107493
-107493
-107492
-107492
-107492
-107493
-107492
-107492
-107492
-107493
-107492
-107492
-107492
-107492
-107492
-107492
-107492
-107492
-107492
-107493
-107492
-107493
-107492
-107493
-107492
-107493
-107493
-107494
-107493
-107493
-107494
-107493
-107493
-107492
-107492
-107492
-107493
-107492
-107493
-107493
-107492
-107492
-107492
-107492
-107492
-107492
-107492
-107492
-107492
-107492
-107492
-107493
-107492
-107492
-107493
-107493
-107492
-107493
-107492
-107493
-107492
-107493
-107492
-107492
-107493
-107493
-107492
-107493
-107492
-107493
-107492
-107492
-107492
-107492
414487
304454
269783
268046
280009
276393
261911
169568
79456.3
74822.6
143313
168598
147863
106259
62501.8
38667.1
81263.2
210054
134242
-29211.6
-136443
-165091
-172478
-171533
-165007
-150327
-125251
-105052
-69753.2
-54206.3
-33830.1
-13424.4
13358.6
66022.9
106634
135890
135002
118103
69988.9
-3383.03
-85751
-154140
-209852
-239490
-268333
-278218
-241048
-198895
-189121
-81787.3
9678.7
62243.8
59545.1
67233.4
50523.2
58038.7
58437.9
88984.5
123501
132246
134081
100831
-49796.7
-161949
-186640
-185515
-183324
-185407
-188722
-216951
-245716
-268465
-292066
-320357
-352903
-358774
-343228
-298717
-299783
-288426
-294280
-345612
-389321
-392268
-385817
-379549
-355018
-304373
-245043
-168417
-77523.3
33645.4
67832.2
34826.6
-82977.1
-216721
-296836
-328400
-319882
-317966
-342047
-368407
-365715
-337525
-298521
-244481
-170339
-88732.1
-91071.3
-206555
-25097.3
-171827
-377129
-396474
-554392
-624211
-580568
-551603
-519736
-471354
-412724
-374589
-342866
-332508
-344197
-357117
-366233
-375581
-369957
-346198
-321611
-337487
-349176
-361583
-373279
-375256
-360907
-338359
-391327
-476683
-450432
-285592
-257123
-326893
-286621
-289731
-326069
-262050
-162251
-117289
-102722
-113044
-140122
-176472
-220076
-324736
-393737
-324580
-183084
118619
284696
574662
789878
671313
346600
94767.2
-198806
-527237
-821084
-774080
-280759
-507981
72605.1
462483
198948
140066
163901
167699
-203475
-23325.1
-56962.2
-150976
-144161
-166093
-156704
-182139
-188781
-188651
-188573
-189153
-78669.6
511783
865626
845451
767421
702717
480861
426828
319753
305847
224744
42389.3
-91607.5
-99793.1
-101859
-101557
-103948
-104439
-104921
-105565
-106346
-106953
-107136
-107373
-107400
-107491
-107497
-107532
-107536
-107547
-107548
-107550
-107547
-107547
-107542
-107541
-107536
-107532
-107531
-107523
-107526
-107517
-107519
-107513
-107514
-107508
-107508
-107503
-107501
-107497
-107495
-107495
-107494
-107491
-107493
-107490
-107491
-107489
-107490
-107488
-107489
-107487
-107488
-107487
-107487
-107487
-107487
-107486
-107487
-107486
-107486
-107485
-107486
-107485
-107486
-107485
-107486
-107484
-107485
-107484
-107484
-107483
-107484
-107485
-107484
-107485
-107484
-107485
-107484
-107485
-107484
-107485
-107485
-107486
-107485
-107486
-107485
-107485
-107485
-107485
-107485
-107485
-107485
-107485
-107486
-107485
-107485
-107485
-107485
-107484
-107485
-107484
-107483
-107483
-107484
-107485
-107484
-107484
-107485
-107485
-107485
-107485
-107485
-107485
-107485
-107485
-107486
-107485
-107486
-107485
-107486
-107485
-107486
-107485
-107485
-107484
-107485
-107484
-107485
-107484
-107485
-107484
-107485
-107484
-107483
-107484
-107484
-107485
-107485
-107484
-107485
-107484
-107485
-107484
-107486
-107484
-107485
-107485
-107486
-107485
-107486
-107485
-107485
-107486
-107485
-107486
-107485
-107485
-107484
-107485
-107485
-107485
-107484
-107485
-107485
-107484
-107484
-107484
-107484
-107485
-107485
-107484
-107485
-107484
-107485
-107484
-107486
-107484
-107485
-107485
-107486
-107485
-107485
-107484
-107485
-107485
-107486
-107485
-107485
-107484
-107485
-107485
-107486
-107484
-107485
-107485
-107485
-107484
-107485
-107484
358476
293416
268844
276671
273688
270440
252423
165369
85375.7
71015.1
121415
160120
189144
195274
197577
182071
191204
111160
-32564.5
-134849
-163463
-172440
-174119
-169381
-158075
-143985
-128615
-108209
-91230.9
-72499.7
-51983.2
-37382.5
-24117.6
-19802.6
-22686.6
-34586.4
-49815.1
-63150.3
-74305.7
-105842
-135677
-170419
-214431
-243491
-255021
-254737
-220907
-211231
-156082
-12639.5
54131.6
57848.8
79015.9
65726.1
38529.6
-12279.2
11401.4
65016.7
124181
142578
139808
36565.2
-105248
-173281
-192395
-190772
-194809
-204185
-225680
-237804
-258692
-264391
-281710
-294322
-330222
-345877
-352870
-341738
-325622
-333120
-372731
-405524
-400518
-400522
-403424
-397383
-375676
-338215
-288388
-237395
-175994
-95499.7
-5910.43
14326.2
-30229.7
-115211
-187554
-237438
-307963
-392787
-432036
-431665
-413075
-359345
-291587
-247335
-187585
-105989
-56460.8
-94969.2
-54498.7
15518.6
-274474
-476154
-624464
-641732
-593632
-523604
-443290
-359064
-313067
-291881
-303629
-304198
-314360
-334605
-356548
-370862
-358528
-318100
-298630
-316768
-353709
-364643
-371886
-378611
-373017
-352915
-337276
-379026
-439250
-367128
-287993
-355892
-317929
-317473
-295073
-209373
-144693
-144850
-163021
-179089
-128157
-112664
-130203
-166635
-216513
-171176
-144882
44448
219918
502691
857576
1.03125e+06
724121
308739
101306
-171710
-450316
-547157
-416506
-497777
-440241
-67477.5
163141
202045
178040
131786
-262103
-83801.3
-49391.5
-102519
-131311
-118914
-139655
-144956
-162420
-171220
-173022
-188716
-205801
3410.7
657081
852155
821038
737181
671234
439721
398387
316752
281232
155292
-53462.8
-99131.1
-101719
-101171
-102895
-103864
-104489
-105831
-106358
-107065
-107093
-107378
-107361
-107492
-107471
-107532
-107518
-107546
-107535
-107548
-107538
-107543
-107536
-107536
-107531
-107528
-107525
-107521
-107517
-107515
-107512
-107509
-107507
-107505
-107502
-107500
-107496
-107494
-107491
-107490
-107489
-107488
-107486
-107486
-107485
-107484
-107483
-107483
-107483
-107482
-107482
-107482
-107482
-107481
-107481
-107481
-107481
-107481
-107481
-107481
-107480
-107480
-107480
-107480
-107480
-107480
-107480
-107480
-107479
-107479
-107480
-107480
-107480
-107479
-107480
-107479
-107480
-107479
-107480
-107480
-107480
-107479
-107480