/*--------------------------------*- C++ -*----------------------------------*\
| =========                 |                                                 |
| \\      /  F ield         | OpenFOAM: The Open Source CFD Toolbox           |
|  \\    /   O peration     | Version:  2.1.1                                 |
|   \\  /    A nd           | Web:      www.OpenFOAM.org                      |
|    \\/     M anipulation  |                                                 |
\*---------------------------------------------------------------------------*/
FoamFile
{
    version     2.0;
    format      ascii;
    class       volScalarField;
    location    "0.002850000";
    object      rhoUnburned;
}
// * * * * * * * * * * * * * * * * * * * * * * * * * * * * * * * * * * * * * //

dimensions      [1 -3 0 0 0 0 0];

internalField   nonuniform List<scalar> 
12384
(
1.41401
1.51699
1.77165
2.12795
2.58438
3.27507
4.13268
5.47244
5.92036
5.89122
5.93029
5.42199
5.37723
3.5348
3.73175
4.49756
4.49197
4.42256
4.37488
4.22569
4.21302
4.05285
4.08905
4.00296
3.98712
4.08904
4.02185
4.20548
4.13586
4.33709
4.31867
4.48746
4.4817
4.72668
4.6773
5.17894
5.1057
5.62746
5.71243
5.25519
4.17662
2.72523
2.18804
2.01861
7.6109
5.4627
4.33366
5.36928
5.58008
4.59548
4.85989
4.04922
4.28788
3.84127
3.93058
3.72496
3.77559
3.75477
3.82902
3.8296
3.91182
3.94908
3.97965
3.979
4.00093
3.99351
4.02098
3.89129
3.86594
3.55064
3.55362
2.88774
2.54997
1.9949
10.0028
7.96862
6.87159
5.71949
6.27728
6.09473
6.30174
6.43641
6.50741
6.44668
6.23699
5.86302
5.22722
4.55644
4.29239
3.53192
3.7752
3.55854
3.60359
3.6533
4.16067
3.96169
4.93368
4.80737
4.57486
8.70726
4.38808
3.91356
3.19715
2.34894
2.52759
3.14688
3.21511
3.39563
3.5184
3.40644
3.54699
3.584
3.79845
3.93864
4.00989
3.88663
3.59776
3.63198
3.36558
3.38601
3.62203
3.76451
3.94238
3.9172
3.98388
3.08581
2.85671
2.90585
3.11421
3.54185
4.81644
4.61926
4.44155
4.4869
3.30991
3.74102
3.77495
4.01745
3.52825
3.57913
3.60926
3.65819
3.70607
3.72271
3.7203
3.86811
3.93504
4.17131
4.45328
4.88754
5.11384
5.29194
5.04779
4.81283
4.28408
4.01664
4.02486
3.9157
3.79645
3.60763
3.12743
3.07304
2.89347
2.77421
1.72064
1.67645
1.70583
1.53738
1.788
1.67836
1.92261
2.45012
2.5458
2.95627
3.13129
3.30664
3.41718
3.63549
3.71984
3.84515
3.7687
3.26215
3.28356
2.0018
1.30561
1.20791
1.20506
1.20962
1.11687
1.14645
1.06407
1.0906
1.04332
1.06013
0.893391
0.894723
0.891822
0.892615
0.889933
0.890575
0.887197
0.888037
0.884215
0.885075
0.881564
0.88221
0.879103
0.879712
0.876686
0.877663
0.874823
0.875682
0.873249
0.874005
0.871957
0.872633
0.870945
0.871422
0.870478
0.870072
0.870247
0.869581
0.869821
0.869053
0.86573
0.866206
0.866248
0.866205
0.86621
0.866182
0.866172
0.866151
0.866129
0.866117
0.866082
0.866095
0.866092
0.866075
0.8661
0.866048
0.866045
0.86598
0.865963
0.865911
0.865908
0.86586
0.865859
0.865819
0.865817
0.86578
0.865782
0.865757
0.865725
0.865217
0.865188
0.865693
0.865731
0.865748
0.865756
0.865773
0.865788
0.865796
0.865811
0.865823
0.865836
0.865849
0.865875
0.865898
0.865913
0.865917
0.865906
0.865881
0.865848
0.865827
0.865817
0.865802
0.865786
0.865774
0.865761
0.865745
0.865738
0.865725
0.865693
0.865183
0.865188
0.865697
0.86573
0.865745
0.865752
0.86577
0.865781
0.865796
0.865804
0.86582
0.865831
0.865848
0.865875
0.865899
0.865916
0.865918
0.865903
0.86588
0.86585
0.865836
0.865822
0.865807
0.865795
0.865782
0.865767
0.865751
0.865744
0.865731
0.865698
0.865187
0.865183
0.865696
0.86573
0.865742
0.865745
0.865765
0.865776
0.86579
0.865805
0.86582
0.865832
0.865851
0.865875
0.8659
0.865916
0.865913
0.865901
0.865878
0.865848
0.865831
0.865823
0.865805
0.865793
0.865778
0.865769
0.865752
0.865744
0.86573
0.865698
0.865186
0.865181
0.865693
0.865722
0.865741
0.86575
0.865768
0.865776
0.865794
0.865802
0.865817
0.865827
0.865847
0.86587
0.865897
0.865909
0.865917
0.865901
0.865881
0.865859
0.865844
0.865826
0.865812
0.865793
0.865784
0.865767
0.865752
0.86574
0.865733
0.865694
0.865184
1.49684
1.63804
1.74021
1.85898
2.02013
2.44589
3.00444
3.96304
4.77696
6.33816
6.14132
5.58851
5.25382
3.5277
4.45175
4.42486
4.40428
4.42655
4.35388
4.26546
4.21578
3.16486
2.50366
2.18347
2.06939
2.13431
2.38769
2.79172
3.32604
3.81105
4.02694
4.00281
3.92894
4.32832
4.85705
4.97606
5.27516
5.2378
5.50855
5.16623
5.58598
4.56896
2.51318
2.01623
7.52132
4.66247
4.42075
4.71977
5.26525
5.14609
4.8164
4.25066
4.2827
4.07676
3.80941
3.77437
3.73578
3.64662
3.68796
3.71941
3.74854
3.78661
3.82048
3.87176
3.91723
4.00133
4.02019
4.00746
3.86591
3.62013
3.51202
3.30384
3.377
2.18939
9.6271
7.86887
6.96783
5.77827
6.07923
6.00353
6.11699
6.26994
6.32653
6.21533
5.94169
5.52808
5.06694
4.45706
4.32448
3.63056
3.79161
3.72516
3.84102
3.90288
4.21532
4.39096
4.67098
5.09504
5.18496
4.56305
5.1429
4.60568
4.11954
2.77882
3.10106
3.13415
3.36325
3.4761
3.60595
3.51365
3.68826
3.65841
3.90044
4.07177
4.07146
3.95979
3.65277
3.48843
3.311
3.37333
3.6514
3.699
4.00611
4.26309
4.3283
4.24355
4.39784
5.33385
4.87276
4.25904
4.01975
4.7493
4.25658
3.96194
3.78779
3.85519
4.53295
5.63818
5.81431
5.78755
5.42988
5.90834
6.05051
6.91604
6.95408
7.52092
7.91466
7.66653
7.6028
7.37199
7.74862
8.09663
8.2961
8.83813
4.06139
3.79309
4.10454
3.94082
4.13562
3.86932
3.59237
3.02206
3.03497
2.8179
1.73373
1.77388
1.66395
1.7055
1.7024
1.93527
2.45644
2.53903
2.88211
3.01967
3.22747
3.25698
3.26762
3.19925
3.36218
3.25125
3.11364
3.38211
2.77379
2.64897
1.86942
1.35146
1.26217
1.2471
1.1885
1.16162
1.11766
1.08891
1.08697
1.05639
0.929256
0.933278
0.934658
0.929493
0.927878
0.922652
0.919845
0.917342
0.912698
0.911933
0.907593
0.907294
0.903545
0.904053
0.900439
0.901011
0.89771
0.897692
0.895293
0.894997
0.893432
0.892929
0.892143
0.891093
0.891139
0.889872
0.890184
0.889313
0.889094
0.877587
0.874861
0.885993
0.886739
0.886777
0.886971
0.886986
0.887237
0.887236
0.887495
0.887509
0.887798
0.887873
0.888314
0.888532
0.888851
0.888718
0.888606
0.88814
0.887932
0.887577
0.887505
0.887151
0.887102
0.88676
0.886703
0.886393
0.886333
0.886082
0.885384
0.873932
0.873907
0.885375
0.886081
0.886367
0.886396
0.886707
0.88675
0.887073
0.887093
0.887407
0.887444
0.887764
0.887921
0.888367
0.888476
0.888657
0.888394
0.888144
0.887632
0.887392
0.887222
0.886903
0.886852
0.886534
0.886517
0.88622
0.886244
0.88598
0.885443
0.873472
0.87395
0.885324
0.886154
0.886178
0.886474
0.886496
0.886825
0.886855
0.88717
0.887206
0.887528
0.887611
0.888053
0.888294
0.888635
0.888556
0.888477
0.888032
0.887827
0.88748
0.887418
0.887069
0.887029
0.886691
0.886642
0.886335
0.886281
0.886051
0.885353
0.8739
0.873433
0.885444
0.886136
0.886167
0.886467
0.886487
0.886831
0.886877
0.887215
0.887272
0.887616
0.887692
0.888127
0.888336
0.888618
0.888623
0.888354
0.888119
0.887675
0.887594
0.887258
0.887213
0.886886
0.886853
0.886522
0.886509
0.886201
0.886162
0.885458
0.873461
0.873887
0.885328
0.886183
0.886211
0.886538
0.88655
0.8869
0.886903
0.887235
0.887229
0.887567
0.887615
0.888035
0.888246
0.888612
0.888554
0.888477
0.888041
0.887834
0.887496
0.88744
0.88709
0.887054
0.886709
0.886666
0.886348
0.886289
0.886053
0.885349
0.873883
1.60344
1.5288
1.4067
1.39566
1.45039
1.70545
2.0751
2.42321
2.68274
3.17604
5.31349
6.13071
5.04291
3.50399
4.31713
4.30024
4.42352
4.40194
4.33856
2.59373
1.92235
1.59362
1.39486
1.28181
1.23536
1.25869
1.30277
1.46272
1.62835
1.8947
2.05787
2.14629
2.22264
2.46674
3.00688
4.0553
5.09908
5.29831
5.10877
5.36222
4.64586
4.51727
2.4236
2.05664
7.5062
4.34924
4.50134
4.5382
4.29725
3.70219
3.10877
2.79988
2.63314
2.59293
2.69288
2.95187
3.26439
3.73994
3.74605
3.8291
3.87005
3.8256
3.75267
3.71387
3.74781
3.85348
4.01105
4.00312
3.92149
3.65721
3.55403
3.21706
3.29612
2.485
6.63231
7.73289
7.03925
5.86252
5.99075
5.93916
6.00791
6.09798
6.15162
6.0409
5.774
5.42582
5.0621
4.50644
4.39458
3.87786
3.7813
3.74986
3.80149
3.8734
4.21954
4.43366
4.70488
4.99862
5.25126
5.20999
4.8587
3.9744
4.12111
3.19866
2.72264
3.07208
3.18269
3.61084
3.56754
3.80038
3.67913
3.8996
4.00316
4.05578
4.05081
4.05578
3.65688
3.52633
3.63533
3.73802
3.70727
3.84956
3.97179
4.02712
4.53307
4.76145
4.96845
4.74355
5.95646
3.71483
4.28108
4.05432
4.16719
4.28985
3.91076
3.85797
4.20031
5.02184
5.79539
5.3835
5.29394
4.9572
6.16637
6.19274
7.06952
7.37407
7.44561
7.4807
6.89204
7.03849
7.13902
7.51147
7.50334
7.40669
7.87693
7.16934
8.03749
4.06546
4.1804
4.24625
3.91733
3.36768
3.18572
2.94276
1.70749
1.59178
1.69108
1.68062
1.88275
2.02581
2.05842
2.31139
2.47584
2.7391
2.84811
2.94852
2.92071
2.79448
2.70632
2.50633
2.87356
2.55375
2.85983
3.02852
2.61851
1.97674
1.47075
1.46539
1.40303
1.39943
1.33161
1.32912
1.29537
1.30203
1.1191
1.11226
1.10505
1.10877
1.10129
1.10339
1.09647
1.09755
1.09307
1.09259
1.08914
1.08818
1.08466
1.08407
1.08025
1.08097
1.07742
1.07876
1.07651
1.07654
1.07566
1.07504
1.07483
1.07388
1.07414
1.07329
1.07352
1.07287
1.07357
1.08804
1.08426
1.06928
1.0684
1.06806
1.06786
1.0676
1.06736
1.06709
1.06686
1.06656
1.0663
1.06594
1.06551
1.06498
1.06471
1.06464
1.0649
1.06524
1.06564
1.06584
1.06607
1.06625
1.06646
1.06662
1.06684
1.06699
1.06721
1.06737
1.06818
1.08352
1.0835
1.06818
1.0673
1.06707
1.06688
1.06672
1.06651
1.06636
1.06616
1.066
1.06579
1.06558
1.06521
1.06483
1.06453
1.06446
1.06461
1.06508
1.06557
1.06592
1.06608
1.06634
1.06658
1.06675
1.06694
1.06708
1.06724
1.06743
1.0683
1.08348
1.08347
1.0682
1.06737
1.06712
1.06698
1.06679
1.06663
1.06642
1.06626
1.06604
1.06586
1.06558
1.06521
1.06475
1.0645
1.06444
1.0647
1.06507
1.0655
1.06573
1.06597
1.06617
1.0664
1.06657
1.0668
1.06697
1.06719
1.06734
1.06816
1.08349
1.08347
1.06819
1.06735
1.0672
1.06702
1.06681
1.0666
1.06638
1.06619
1.06596
1.06575
1.06549
1.06514
1.06472
1.06446
1.06447
1.0647
1.06515
1.06551
1.06578
1.06598
1.0662
1.06638
1.06658
1.06677
1.06697
1.06714
1.06736
1.06816
1.08346
1.08346
1.06817
1.06731
1.06705
1.06691
1.06672
1.06656
1.06637
1.06622
1.06603
1.06584
1.06558
1.06526
1.06481
1.06454
1.06442
1.06468
1.06504
1.06547
1.0657
1.06594
1.06616
1.06638
1.06656
1.06679
1.06696
1.06718
1.06733
1.06815
1.08348
1.37507
1.17396
1.07299
1.04671
1.10318
1.25704
1.4288
1.61648
1.66361
1.97909
3.36033
6.29898
4.18992
3.53372
4.36893
4.44344
4.45316
4.17237
2.14033
1.48693
1.21983
1.10587
1.06347
1.0487
1.05214
1.04936
1.05443
1.05546
1.08429
1.13479
1.20745
1.2957
1.44736
1.67441
2.04086
2.7048
3.71748
5.13243
5.22596
4.9002
5.00476
3.62597
2.53392
2.28276
7.53552
4.4036
4.54707
4.67617
3.96486
3.11735
2.55629
2.24361
2.0901
2.04462
1.98054
2.10065
2.65793
3.80091
3.99707
4.02737
4.08136
4.07203
3.89965
3.72622
3.62159
3.68451
3.89065
4.01847
3.99472
3.72274
3.64691
3.19915
3.31337
2.77281
5.74145
7.69651
6.90982
5.9353
5.82452
5.85302
5.98571
6.01975
6.03046
5.94947
5.72568
5.44769
5.14495
4.84023
4.69585
4.35877
4.22032
4.09956
4.29941
4.41177
4.7116
4.99342
5.2402
5.29247
5.30103
5.295
4.80993
4.55331
4.09449
4.12373
3.61557
3.65524
3.8098
3.75289
3.92559
3.70515
3.93978
4.0295
4.21633
4.31867
4.24228
4.14075
3.86812
3.77706
3.73623
3.66539
3.96812
4.2056
4.40399
4.84765
5.0036
5.29895
5.26588
5.37082
5.4665
6.25899
6.43636
9.24557
3.68991
3.58399
3.61732
3.6481
3.55851
3.55905
3.67642
5.27484
4.81346
5.14842
5.56512
5.97081
6.93875
6.68773
7.17103
6.83346
7.00085
6.99451
7.08467
7.15692
7.15904
7.38008
7.42221
6.29133
5.73903
7.05604
7.37392
4.29914
4.27993
3.81404
3.3788
2.98116
1.50332
1.33278
1.66344
1.59075
1.70709
1.49703
1.80149
2.31889
2.65081
2.46876
2.40624
2.30586
2.5024
2.36559
2.54582
2.05355
2.35016
2.34369
2.61037
2.75811
2.90313
2.56343
1.82522
1.42662
1.42685
1.38146
1.38111
1.32609
1.33266
1.31168
1.12004
1.11143
1.11457
1.10677
1.10976
1.10403
1.10449
1.10216
1.09975
1.09924
1.09623
1.09578
1.0928
1.09238
1.08971
1.08925
1.08719
1.08696
1.08548
1.08388
1.08453
1.08209
1.08314
1.08105
1.08183
1.08034
1.08096
1.07988
1.08049
1.08269
1.07863
1.0761
1.07579
1.07579
1.07568
1.07567
1.07557
1.07553
1.07544
1.07539
1.07531
1.07526
1.07518
1.07512
1.07506
1.07505
1.07503
1.07505
1.07505
1.07505
1.07505
1.07505
1.07505
1.07506
1.07506
1.07506
1.07508
1.07509
1.07531
1.07796
1.07793
1.07528
1.07505
1.07504
1.07501
1.07502
1.07499
1.07499
1.07497
1.07496
1.07494
1.07494
1.0749
1.07488
1.07485
1.07485
1.07486
1.0749
1.07493
1.07496
1.07497
1.07497
1.075
1.075
1.07503
1.07502
1.07504
1.07505
1.07526
1.07799
1.07793
1.07527
1.07506
1.07503
1.07503
1.075
1.075
1.07498
1.07497
1.07496
1.07495
1.07493
1.07491
1.07487
1.07486
1.07484
1.07487
1.07489
1.07493
1.07494
1.07496
1.07496
1.07499
1.07499
1.07502
1.07502
1.07504
1.07506
1.07527
1.07793
1.07798
1.07527
1.07506
1.07503
1.07503
1.075
1.075
1.07498
1.07497
1.07495
1.07495
1.07492
1.0749
1.07487
1.07486
1.07486
1.07486
1.0749
1.07492
1.07495
1.07495
1.07497
1.07498
1.075
1.075
1.07502
1.07503
1.07507
1.07526
1.07798
1.07793
1.07526
1.07505
1.07501
1.07501
1.07499
1.07499
1.07497
1.07497
1.07495
1.07495
1.07493
1.07491
1.07488
1.07486
1.07485
1.07487
1.07489
1.07493
1.07494
1.07496
1.07496
1.07499
1.07499
1.07501
1.07501
1.07504
1.07505
1.07527
1.07793
1.05066
0.933504
0.956307
1.033
1.11802
1.17903
1.2702
1.33444
1.42448
1.64151
2.84179
5.61596
7.3847
3.4804
4.46446
4.39006
3.64059
1.8673
1.2664
1.07034
1.04571
1.09628
1.22789
1.43176
1.62987
1.63601
1.54649
1.3375
1.2152
1.15738
1.1447
1.14275
1.18415
1.28349
1.50407
1.96179
2.67447
4.07966
5.09127
5.05142
5.06025
3.30107
2.69172
2.44211
7.40981
4.48294
4.69755
4.82602
3.86968
2.94159
2.4749
2.24653
2.29056
2.17029
2.10557
2.1139
3.05692
4.08079
3.99954
4.10954
4.03423
4.02918
3.99895
3.80059
3.61229
3.56724
3.77259
4.01117
4.03111
3.80997
3.61896
3.18551
3.15878
3.07731
6.26085
7.46555
6.54137
6.13611
5.64278
5.6939
5.8493
6.02181
5.96051
5.8929
5.66732
5.34145
5.21888
5.08205
4.9212
4.69239
4.51558
4.42699
4.40145
4.59778
4.87324
5.14715
5.37611
5.5644
5.48522
5.38257
5.1136
4.6601
4.22812
3.76563
3.06661
3.53842
3.66174
4.08557
4.05153
4.22205
4.10674
4.26143
4.4112
4.46778
4.51924
4.34331
4.32757
4.24957
4.15169
4.26603
4.30524
4.43121
4.73213
5.10681
5.57296
5.50124
5.48769
5.50674
5.48889
5.03962
4.62895
5.45471
4.17055
2.89466
3.1873
3.34733
3.40688
3.11515
3.47496
4.4552
4.81538
4.5421
5.72328
5.57069
6.47452
6.15827
5.94845
5.36833
5.52658
5.58627
6.22881
7.09165
7.23426
7.60205
7.65858
7.0759
6.52612
3.0539
6.95175
4.12659
4.27891
4.14604
3.57766
3.13006
1.4737
1.46509
1.83544
1.51625
1.32825
1.77687
2.31907
3.40644
3.26656
3.36559
3.13168
2.35251
2.0692
2.36727
2.3041
2.43924
2.02856
2.34621
2.20568
2.49154
2.60117
2.78454
2.29413
1.61887
1.37271
1.35812
1.32889
1.32925
1.28984
1.29638
1.07962
1.08278
1.07785
1.0859
1.07914
1.07997
1.07468
1.07372
1.07186
1.06955
1.06925
1.06634
1.06603
1.06308
1.06307
1.06013
1.06039
1.05789
1.05805
1.05613
1.05624
1.05462
1.05491
1.05337
1.05394
1.05257
1.05312
1.05215
1.05261
1.05236
1.04868
1.04841
1.04834
1.04828
1.04821
1.04818
1.0481
1.04808
1.04799
1.04798
1.04789
1.04789
1.0478
1.04781
1.04773
1.04775
1.04768
1.04771
1.04764
1.04769
1.04761
1.04766
1.04758
1.04764
1.04756
1.04762
1.04755
1.04762
1.04765
1.04787
1.04786
1.04762
1.04758
1.04751
1.04759
1.04751
1.04759
1.04751
1.04759
1.04751
1.04759
1.04751
1.04758
1.04751
1.04758
1.0475
1.04757
1.0475
1.04756
1.04754
1.04752
1.04758
1.0475
1.04759
1.0475
1.04759
1.0475
1.04759
1.04754
1.04791
1.04783
1.0476
1.0475
1.04759
1.0475
1.04759
1.04751
1.04759
1.04751
1.04759
1.04751
1.04758
1.04751
1.04758
1.0475
1.04757
1.0475
1.04758
1.04751
1.04758
1.04751
1.04758
1.0475
1.04758
1.0475
1.04758
1.04751
1.04758
1.04761
1.04784
1.04789
1.04757
1.04757
1.04758
1.0475
1.04758
1.0475
1.04758
1.0475
1.04758
1.0475
1.04758
1.0475
1.04757
1.04752
1.04751
1.04757
1.0475
1.04758
1.0475
1.04758
1.0475
1.04758
1.0475
1.04758
1.04749
1.04758
1.04754
1.04757
1.04788
1.04783
1.0476
1.0475
1.04758
1.04749
1.04758
1.0475
1.04759
1.0475
1.04759
1.04751
1.04759
1.04751
1.04758
1.0475
1.04758
1.0475
1.04758
1.04751
1.04759
1.04751
1.04759
1.0475
1.04758
1.0475
1.04758
1.04751
1.04758
1.04761
1.04784
0.898741
0.914078
1.01263
1.11484
1.22309
1.34147
1.40723
1.4451
1.62476
2.15244
3.1558
5.08221
5.24945
3.43579
4.48951
4.3438
1.7845
1.15676
1.03824
1.10111
1.41263
2.30607
3.73898
3.86049
3.9719
3.96395
3.97552
3.81756
2.85802
1.87254
1.47809
1.29268
1.20133
1.19558
1.29042
1.52047
2.02981
3.09409
5.1579
5.05858
5.07234
5.03455
3.67958
2.69614
7.34521
4.70796
4.81085
4.75508
3.58848
2.83378
2.52324
2.63165
2.91308
2.7228
2.40035
2.29011
2.77362
3.98387
4.0908
3.89016
3.97747
3.86338
3.9217
3.84844
3.62017
3.54817
3.71525
3.95009
4.01299
3.75334
3.61851
3.08793
3.22452
3.03679
7.20642
6.90951
6.45337
5.82482
5.63685
5.45978
5.47927
5.65987
5.89044
5.74274
5.40058
4.49606
4.66727
5.15636
5.25434
5.20546
5.18392
5.05201
5.12415
5.25462
5.47093
5.61027
5.69481
5.62169
5.60653
5.45455
5.31548
4.91755
4.50194
4.00175
4.68127
4.56382
4.72945
4.52018
4.45721
4.27139
4.40343
4.57331
4.69437
4.80626
4.73635
4.78292
4.76837
4.65741
4.7073
4.63498
4.55674
4.5621
4.67243
5.34443
5.69587
5.754
5.5586
5.46065
5.55058
5.45104
5.39298
5.42577
5.91254
2.9803
3.06396
5.97169
6.22083
5.54671
4.55003
4.52018
4.49528
5.10417
5.0342
5.93438
5.45743
5.98674
5.77309
4.69879
4.0612
4.2734
4.45272
5.27313
6.85564
7.18988
7.63111
8.07418
8.60084
5.25594
3.1403
7.41374
4.06311
4.03053
3.91256
3.28464
1.50619
1.67217
1.86332
1.79001
2.41625
1.78971
2.43836
1.83072
2.65139
2.69476
3.33988
3.17973
2.26271
2.0746
2.28906
2.2643
2.36602
2.03204
2.28901
2.13162
2.37623
2.45727
2.56901
2.10313
1.43121
1.29224
1.29933
1.27503
1.27282
1.25795
1.05358
1.04349
1.05141
1.04073
1.04697
1.04021
1.04222
1.03742
1.03887
1.03436
1.03514
1.03223
1.03131
1.02979
1.02929
1.02676
1.02681
1.02476
1.02493
1.0226
1.0235
1.02121
1.02209
1.02023
1.02091
1.01963
1.01993
1.01932
1.01962
1.02144
1.01775
1.01559
1.01535
1.01542
1.01529
1.01534
1.01522
1.01524
1.01513
1.01513
1.01504
1.01503
1.01495
1.01495
1.01488
1.01489
1.01483
1.01484
1.01479
1.01481
1.01476
1.01479
1.01473
1.01476
1.01471
1.01474
1.0147
1.01475
1.01491
1.01714
1.01713
1.0149
1.01471
1.01467
1.0147
1.01467
1.0147
1.01468
1.0147
1.01468
1.0147
1.01468
1.0147
1.01468
1.0147
1.01467
1.0147
1.01467
1.01469
1.0147
1.01469
1.0147
1.01467
1.0147
1.01467
1.0147
1.01467
1.01471
1.01484
1.01708
1.01712
1.01485
1.01467
1.01469
1.01467
1.0147
1.01467
1.0147
1.01468
1.0147
1.01468
1.0147
1.01467
1.0147
1.01467
1.0147
1.01467
1.0147
1.01468
1.0147
1.01467
1.0147
1.01467
1.0147
1.01467
1.01469
1.01467
1.01471
1.01488
1.01711
1.01708
1.01485
1.01472
1.0147
1.01467
1.01469
1.01467
1.0147
1.01467
1.0147
1.01467
1.0147
1.01467
1.01469
1.01469
1.01468
1.01469
1.01467
1.0147
1.01467
1.0147
1.01467
1.01469
1.01467
1.01469
1.01466
1.01469
1.01471
1.01486
1.01708
1.01711
1.01485
1.01467
1.01469
1.01466
1.01469
1.01467
1.0147
1.01468
1.0147
1.01468
1.0147
1.01468
1.01469
1.01467
1.01469
1.01467
1.01469
1.01467
1.0147
1.01467
1.0147
1.01467
1.01469
1.01466
1.01469
1.01467
1.01471
1.01488
1.01712
0.824071
0.946052
1.07822
1.18709
1.35706
1.4509
1.45918
1.57319
2.25068
3.05683
3.48522
3.9392
4.70431
3.59453
4.50181
1.97061
1.11322
1.02409
1.21656
2.09971
3.95071
4.18273
4.27572
4.23005
4.20687
4.19195
4.20016
4.18338
4.0847
3.97893
2.39579
1.6718
1.37806
1.23008
1.22467
1.33601
1.68389
2.6965
4.96696
5.20201
5.02548
5.13214
3.58583
2.70157
7.12407
5.19538
4.8582
4.06302
3.20896
2.70367
2.67552
2.85577
3.06898
2.79899
2.36495
2.01502
2.02805
2.42837
3.71293
3.99995
3.78651
3.89414
3.78495
3.77623
3.61215
3.53003
3.65853
3.92813
3.94998
3.75007
3.52732
3.15143
3.20365
3.04661
7.08662
6.74792
5.97616
5.40615
5.16877
5.22081
5.07631
5.06496
5.1987
5.23592
3.62188
3.08496
3.2781
4.25671
5.41678
5.59132
5.64495
5.55582
5.36334
5.34842
5.46961
5.6232
5.57956
5.47353
5.37379
5.40963
5.25417
5.02959
4.59327
4.10015
5.26144
5.393
5.28865
5.22031
4.84805
4.71155
4.73451
4.80692
4.92539
4.93009
5.10028
5.16868
5.13782
5.18681
5.05995
4.88155
4.61743
4.44892
4.61
4.93849
5.38141
5.51504
5.37803
5.12057
5.10049
5.16555
5.39491
5.34992
4.92515
2.78421
2.87077
4.73882
4.06151
4.47779
4.35567
4.33362
4.76083
4.82984
5.40316
5.25319
5.41408
4.96988
5.78417
4.84564
3.60693
3.33831
3.30709
3.57377
4.51653
6.1427
7.67535
7.92476
7.91949
6.43175
3.84267
1.71724
6.56191
4.41052
3.59298
3.47136
1.63529
1.75527
3.26936
2.51938
2.06446
2.06845
1.8982
2.34677
2.07189
2.86336
2.68863
3.1893
3.06185
2.29403
2.06918
2.24605
2.19742
2.29311
1.99663
2.2259
2.04056
2.26383
2.2667
2.44735
1.76631
1.25543
1.2331
1.2225
1.20789
1.21129
0.977766
0.986172
0.983423
0.994707
0.988826
0.992188
0.986753
0.985999
0.982414
0.983034
0.977955
0.980231
0.975143
0.976388
0.973933
0.972517
0.972804
0.969881
0.970957
0.96821
0.969019
0.967189
0.967274
0.966408
0.96613
0.965659
0.965494
0.965113
0.965378
0.964406
0.960989
0.961551
0.961627
0.961484
0.961503
0.961423
0.961396
0.961341
0.961296
0.961247
0.961201
0.961167
0.961106
0.96112
0.961033
0.961059
0.960988
0.961001
0.960949
0.96096
0.96091
0.960936
0.960872
0.960912
0.960847
0.960888
0.960847
0.960892
0.96088
0.960282
0.96029
0.960875
0.96085
0.960809
0.960844
0.960813
0.960856
0.960821
0.960862
0.960826
0.960866
0.960833
0.960867
0.960839
0.960865
0.960838
0.960861
0.96083
0.960847
0.960863
0.960845
0.960854
0.960816
0.960852
0.960811
0.960846
0.96081
0.960854
0.960802
0.960207
0.960251
0.960827
0.960814
0.96084
0.960809
0.960852
0.960819
0.960862
0.960826
0.960863
0.960828
0.960865
0.960835
0.960865
0.960839
0.960863
0.960837
0.960864
0.96083
0.96086
0.960819
0.960854
0.960813
0.960849
0.960808
0.960843
0.960819
0.960856
0.960846
0.960249
0.9602
0.960824
0.960869
0.960851
0.960812
0.960847
0.960811
0.960854
0.960818
0.960859
0.960823
0.960865
0.960831
0.960864
0.960855
0.960856
0.960863
0.960833
0.960863
0.960825
0.960858
0.960816
0.960853
0.96081
0.960843
0.960802
0.96084
0.960862
0.960838
0.960197
0.960248
0.960824
0.960813
0.960839
0.960803
0.960848
0.960809
0.960859
0.960816
0.960864
0.960827
0.960871
0.960835
0.960869
0.960838
0.960869
0.960842
0.960871
0.960836
0.960869
0.960829
0.960864
0.960817
0.960854
0.960806
0.960848
0.960822
0.960861
0.960861
0.960271
0.845607
0.981477
1.1075
1.28636
1.40635
1.40083
1.40601
1.81604
2.8834
3.26217
2.68436
2.30289
2.79161
4.09381
4.23108
1.28721
1.02711
1.28941
2.74935
4.15603
4.33214
4.32082
4.2969
4.28797
4.25664
4.17927
4.22588
4.12676
4.25704
4.00795
2.9428
1.93748
1.46173
1.2811
1.24413
1.32478
1.67389
2.61439
4.4089
5.14767
5.0512
4.97268
3.25159
2.84096
6.94167
6.03332
4.30526
3.43315
2.85861
2.65909
2.59788
2.58435
2.38173
2.14466
1.89214
1.70069
1.6439
1.86963
3.1612
3.91733
3.97171
3.72213
3.79993
3.66668
3.64223
3.57343
3.77493
3.88103
3.95193
3.60235
3.58712
3.0801
3.10994
3.20025
6.71867
5.70557
5.25699
4.73914
4.37988
4.57408
4.80734
4.60002
4.44768
4.59164
3.35211
2.87369
2.96397
3.86445
5.6688
6.01655
6.15573
6.05718
5.93083
5.80606
5.72012
5.54364
5.38285
5.22007
5.07909
5.06529
5.11505
4.93947
4.68159
4.16277
6.1871
6.23178
6.09014
5.5428
5.1732
4.8594
4.79413
4.90634
4.85945
5.10561
5.28916
5.35392
5.38884
5.30507
5.15123
4.93068
4.65173
4.48109
4.38509
4.65571
4.91538
5.14718
5.08225
4.88404
4.62623
4.66049
4.97696
5.26999
5.27441
3.63599
3.02466
4.7813
4.51112
4.66992
4.66998
4.53805
4.62133
4.94323
5.1349
5.26905
4.66619
5.16574
4.79932
5.42351
4.0057
2.91148
2.647
2.6703
3.06057
3.88337
5.25309
7.81608
7.84896
7.13209
5.3851
4.79998
4.04877
3.12971
3.20153
3.42726
1.20871
1.59787
3.18198
0.732671
1.11757
1.8483
2.20291
2.07608
2.50453
2.28076
2.92122
2.8528
3.15602
2.95742
2.35113
2.05618
2.19615
2.13939
2.22327
1.94445
2.14527
1.96024
2.13973
2.17092
1.99323
1.41083
1.15164
1.17867
1.14094
1.18933
0.934667
0.917084
0.938275
0.927755
0.939109
0.932527
0.937049
0.931248
0.93343
0.929303
0.929978
0.926531
0.927399
0.924061
0.924898
0.921997
0.922501
0.920437
0.920129
0.919243
0.918402
0.918078
0.917492
0.916849
0.916849
0.916152
0.9163
0.915891
0.916124
0.915505
0.911217
0.912062
0.912135
0.912256
0.912184
0.912211
0.912119
0.912097
0.912028
0.911995
0.911943
0.911868
0.911886
0.91178
0.911824
0.911726
0.911762
0.911678
0.911705
0.911647
0.911665
0.911642
0.911624
0.911627
0.911613
0.911636
0.91164
0.911685
0.911673
0.910976
0.910976
0.911663
0.911644
0.911604
0.911593
0.911579
0.911575
0.911572
0.911578
0.911571
0.911574
0.911569
0.911577
0.911573
0.911579
0.911571
0.911577
0.911561
0.911567
0.911579
0.911574
0.91157
0.911563
0.911568
0.911574
0.911593
0.911607
0.911646
0.91162
0.910899
0.910951
0.911622
0.91163
0.911608
0.911587
0.911585
0.911568
0.911578
0.911571
0.911574
0.911567
0.911572
0.91157
0.911576
0.911572
0.911576
0.911571
0.911574
0.911566
0.911569
0.911562
0.911569
0.911562
0.911567
0.911569
0.911593
0.91161
0.91165
0.911639
0.910947
0.910903
0.911628
0.911662
0.911621
0.911589
0.911583
0.911564
0.911572
0.911566
0.91157
0.911564
0.911573
0.911569
0.911577
0.911582
0.911579
0.911577
0.911569
0.911573
0.911564
0.91157
0.911565
0.91157
0.911561
0.911576
0.911579
0.911607
0.911658
0.911638
0.910903
0.910941
0.911619
0.91163
0.911609
0.911584
0.911578
0.911564
0.911572
0.911567
0.911572
0.911572
0.911575
0.911571
0.911576
0.911569
0.911575
0.911572
0.911575
0.911568
0.911571
0.911567
0.911569
0.91156
0.911569
0.911568
0.911598
0.91163
0.911718
0.911814
0.911125
0.892981
1.027
1.15988
1.3217
1.33916
1.30503
1.38286
2.01344
2.92692
2.96176
2.17727
1.76728
1.71524
1.90052
2.17997
2.24233
1.90223
1.07527
1.31281
2.93942
4.14067
4.36165
4.40039
4.41884
4.35121
4.26424
4.14169
4.08802
4.10222
3.68433
3.24976
2.84632
2.42172
1.90508
1.6346
1.54933
1.60907
1.83434
2.29317
3.26955
4.80002
5.04023
5.02806
4.84107
4.83332
4.58717
5.04405
5.84736
6.10702
5.79996
3.72511
3.01149
2.72801
2.48361
2.38512
2.25547
2.06981
1.78184
1.58568
1.50207
1.50226
1.74474
3.73208
4.15384
3.87718
3.88816
3.67907
3.72076
3.67044
3.79316
3.87881
3.97441
3.86906
3.64888
3.47499
3.06845
3.31271
4.3929
4.53679
5.29322
5.42614
5.03612
4.62327
4.43012
4.53319
4.14923
4.05223
4.15731
4.08582
3.95214
4.19454
3.05546
2.94061
3.53924
5.76329
6.14171
6.3597
6.22601
5.92001
5.69657
5.62659
5.55559
5.37169
5.10088
4.87086
4.74517
4.72014
4.76854
4.55583
4.6358
3.58243
5.16207
6.27639
6.48064
6.19541
5.73581
4.95123
4.74634
4.5447
4.63567
4.83269
4.97951
5.22235
5.34321
5.27513
5.21712
5.08004
4.8741
4.5848
4.30217
4.2832
4.1889
4.4508
4.56268
4.6222
4.51644
4.32688
4.35178
4.41699
4.86347
5.37574
5.67239
5.04981
4.8675
5.29505
4.53688
4.34306
4.65044
4.63934
4.62371
4.67279
4.57201
5.13619
5.0782
4.80759
4.60847
4.79048
4.05436
4.56963
3.61066
2.74686
2.45313
2.39873
2.7467
3.617
4.67649
7.60415
7.05431
6.24299
6.30739
5.58123
6.12519
3.87815
2.99909
1.3353
0.94127
0.95395
1.56577
4.85046
0.584332
0.944675
2.08261
1.90693
2.27553
2.11812
2.53539
2.39661
2.96609
2.91486
3.11859
2.97626
2.35554
2.04438
2.13579
2.08109
2.16803
1.88809
2.05384
1.85226
2.04783
1.85249
1.65955
1.13657
1.07228
1.0433
1.06316
0.974756
0.974154
0.876319
0.8852
0.86353
0.880868
0.867161
0.872998
0.866577
0.866224
0.863359
0.862
0.860455
0.858359
0.857444
0.855697
0.854716
0.853583
0.852441
0.851595
0.850764
0.849699
0.849703
0.848208
0.848708
0.847385
0.847645
0.846787
0.846975
0.846538
0.8463
0.843589
0.839679
0.839073
0.840564
0.843351
0.843665
0.843565
0.843539
0.843408
0.843386
0.843278
0.843276
0.843163
0.843185
0.843085
0.843091
0.843034
0.843019
0.84299
0.84297
0.842944
0.84293
0.84291
0.842894
0.842899
0.842868
0.842888
0.842871
0.842902
0.8429
0.842907
0.842642
0.839679
0.836898
0.836891
0.839681
0.842642
0.84287
0.842864
0.842863
0.842836
0.842837
0.842818
0.84283
0.842816
0.842826
0.842812
0.842819
0.84281
0.842816
0.842809
0.842816
0.842805
0.842809
0.842831
0.842826
0.84282
0.842813
0.842828
0.842834
0.842862
0.842866
0.842867
0.84259
0.839627
0.836876
0.836877
0.839658
0.842596
0.842853
0.842874
0.842852
0.84285
0.842823
0.842834
0.842817
0.842829
0.842813
0.842822
0.84281
0.842817
0.842811
0.842817
0.842809
0.842818
0.842809
0.842822
0.84281
0.842823
0.842809
0.842829
0.84283
0.842859
0.842871
0.842876
0.842612
0.839657
0.836877
0.836878
0.839633
0.842606
0.842887
0.842883
0.842852
0.842847
0.84282
0.842827
0.842814
0.842824
0.842811
0.84282
0.84281
0.842818
0.842822
0.84282
0.842817
0.84281
0.842821
0.842812
0.842828
0.842814
0.842827
0.842817
0.842843
0.842844
0.84287
0.842881
0.842612
0.839631
0.83688
0.836876
0.83965
0.842594
0.842854
0.842877
0.842848
0.842847
0.842816
0.842832
0.842819
0.842835
0.842821
0.842835
0.842822
0.842828
0.842817
0.842822
0.842814
0.842821
0.842815
0.84283
0.842819
0.842838
0.842821
0.842849
0.842842
0.842876
0.842889
0.842896
0.84262
0.839677
0.837057
0.839234
0.927236
1.05238
1.19787
1.28386
1.26174
1.24455
1.3704
1.94576
2.83843
3.05469
2.46008
1.85309
1.47621
1.35624
1.29261
1.24471
1.20363
1.46699
3.11361
4.03459
4.24838
4.30144
4.32713
4.3431
4.41645
4.40122
4.37461
4.26726
4.1802
4.12626
3.68149
3.35471
3.154
3.0685
3.19263
3.46924
3.87395
4.2208
4.56814
4.73505
4.8122
4.89221
4.80015
4.69286
4.77153
4.62233
5.30891
5.44871
5.7599
4.08612
3.17934
2.84201
2.46387
2.32421
2.57848
3.02104
2.64666
1.9752
1.58171
1.45992
1.51045
2.27815
4.37317
4.30989
4.12717
3.83321
3.94109
3.85387
3.9619
3.98218
4.08437
3.89711
3.93836
3.50728
3.57597
3.13862
3.81779
4.21598
4.91157
4.71622
4.71087
4.04057
4.0705
4.10507
4.05029
4.14042
3.89702
3.96152
3.92656
4.00884
3.93222
4.03701
3.48962
3.47378
4.58098
5.79917
6.03946
6.11879
6.05428
5.92529
5.91758
5.76994
5.50859
5.12489
4.83462
4.52493
4.52089
4.48375
4.65922
4.72422
4.99868
3.62935
6.82398
6.53398
6.01296
5.2522
4.48181
4.18805
4.23605
4.28188
4.39772
4.76288
4.91867
5.07908
5.11729
5.00987
4.91056
4.73495
4.51551
4.2996
4.00512
4.06099
3.98627
4.20406
4.20892
4.16177
4.17161
4.12872
4.11709
4.39332
5.05803
5.06684
5.05595
5.01282
4.95005
4.81026
4.6198
4.60318
4.62928
4.26031
3.9816
4.16963
5.0073
5.18902
5.66181
5.33344
4.64638
4.40381
4.16843
5.06547
3.51898
2.80737
2.40278
2.26248
2.69731
3.5832
4.26418
6.95577
6.62746
6.2839
5.4042
5.20612
4.80591
4.50404
2.77613
2.13945
2.19833
1.90806
4.92824
1.90392
1.27042
1.54879
2.06771
1.93422
2.31705
2.21153
2.63815
2.59678