/*--------------------------------*- C++ -*----------------------------------*\
| =========                 |                                                 |
| \\      /  F ield         | OpenFOAM: The Open Source CFD Toolbox           |
|  \\    /   O peration     | Version:  2.1.1                                 |
|   \\  /    A nd           | Web:      www.OpenFOAM.org                      |
|    \\/     M anipulation  |                                                 |
\*---------------------------------------------------------------------------*/
FoamFile
{
    version     2.0;
    format      ascii;
    class       volScalarField;
    location    "0.004750000";
    object      k;
}
// * * * * * * * * * * * * * * * * * * * * * * * * * * * * * * * * * * * * * //

dimensions      [0 2 -2 0 0 0 0];

internalField   nonuniform List<scalar> 
12384
(
26.5935
227.056
340.709
442.649
497.478
511.391
437.141
347.847
264.426
191.571
125.419
65.9985
24.5713
6.35698
205.486
550.603
885.559
1147.87
1366.1
1550.9
1733.74
1897.6
2091.57
2298.31
2542.65
2821.87
3134.3
3451.05
3750.88
3986.82
4117.01
4092.34
3943.58
3724.36
3393.39
3006.39
2508.91
1911.62
1229.76
629.02
286.558
162.227
96.5596
45.789
931.572
1545.94
1879.3
2129.63
2336.76
2551.24
2782.03
3041.36
3294.98
3536.46
3735.22
3922.86
4138.6
4503.03
5051.13
5808.11
6614.37
7440.99
7987.37
8253.02
7653.86
6584.04
5412.51
4250.74
3023.24
1801.54
831.445
325.388
142.6
53.0389
620.841
1265.89
1831.69
2399.04
2992.81
3595.17
4255
4926.99
5682.39
6487.08
7411.91
8409.4
9527.6
10842.6
12309.5
13751.3
15163.6
16302.3
16967.2
16971.8
15748.1
14077.3
12314
10651.5
8611.86
5817.75
2658.91
698.687
293.837
193.693
1138.86
2206.87
3095.44
3943.17
4788.91
5653.93
6595.08
7651.32
8833.87
10124.1
11458
12804.6
13937.1
15091.9
15825.4
16583
16266.5
16667.8
14943.1
14960.3
12627.3
11573
9944.58
8149.91
5770.54
3132
1109.74
372.027
262.17
268.922
205.396
460.087
757.105
1042.33
1259.68
1414.39
1556.2
1730.4
1958.83
2215.83
2516.79
3009.51
3819.17
4900.49
6118.17
7435.53
8668.77
9517.73
10027.3
9256.88
8617.63
7793.76
6935.91
6134.21
5420.14
4742.46
3974.83
2867.46
1504.02
691.82
272.982
450.455
671.419
882.378
1063.75
1234.15
1446.42
1727.83
1959.04
2137.42
2209.08
2206.57
2175.91
2128.26
2092.1
2081.05
2100.57
2170.48
2278.85
2415.57
2552.16
2634.15
2644.7
2584.57
2473.82
2339.18
2103.83
1696.15
1081.66
404.192
152.903
308.294
802.727
1858.46
3081.86
4092.41
4904.18
5436.07
5668.05
5651.51
5455.52
5248.15
5066.3
4988.79
5001.83
4977.05
5010.71
4638.37
4203.93
3641.29
3297.44
3056.29
2850.39
2675.68
2522.82
2382.58
2221.36
1973.49
1519.31
888.293
73.7929
165.173
941.767
2289.46
3456.05
4268.75
4752.7
5007.8
5140.96
5325.55
5715.34
6246.07
6853.72
7338.75
7568.19
7159.96
6968.48
6647.16
6238.62
5771.48
5212.41
4611.13
3999.55
3387.73
2754.54
2048.12
1312.81
665.512
230.773
45.299
308.917
805.83
1994.29
3159.53
3982.96
4437.18
4577.51
4641.19
4972.53
5773.95
7019.25
8566.17
10059.2
11515.3
12471.5
12876
12944
12163.4
11110.5
10229
9404.69
8582.43
7650.27
6680.23
5846.92
5084.04
4245.68
3453.5
2748.58
2492.78
392.708
1337.72
2585.11
3502.11
4026.53
4152.25
4045.32
4198.45
4971.52
6311.89
7928.02
9814.18
11521.3
13416.1
14737.8
16130.7
16626.1
16963.2
17121.1
16674.3
16205.8
15322.6
14048.7
12211.1
9640.93
6778.4
4344.24
3115.42
2408.14
2381.66
135.077
463.957
1420.75
2394.37
3135.59
3631.61
3865.53
3910.65
3769.25
3574.24
3369.26
3243.23
3220.44
3322.13
3563.18
3917.51
4376.63
4884.69
5402.14
5866.05
6108.6
6054.09
5563.11
4905.49
4005.61
2843.59
1478.83
411.267
28.6929
1.02109
1.38671
3.31391
8.62602
18.344
53.6198
137.46
311.352
626.806
1117.11
1754.54
2426.09
3029.4
3543.22
3980.08
4328.17
4454.71
3810.69
2957.88
1871.23
933.658
274.275
29.8623
3.58407
1.84203
1.33545
0.859126
0.568098
0.447234
0.28892
0.180523
115.536
584.94
863.479
1219.26
1642.88
2081.31
2427.21
2612.64
2570.8
2266.42
1727.16
1081.39
515.792
116.532
253.139
444.474
594.408
710.796
815.106
911.423
1047.37
1192.35
1452.09
1819.2
2366.21
3138.53
4156.83
5411.98
6832.11
8339.46
9769.26
10979.9
11813.7
12050.7
11639.4
10779.7
9447.04
7798.87
5815.55
3731.1
1843.13
664.379
286.462
155.19
888.564
692.904
801.256
977.818
1148.89
1423.36
1827.23
2228.15
2488.26
2561.97
2499.39
2528.29
2890.79
3872.09
5666.04
8278.46
11656.9
15625.6
19877.1
23752.9
26480.2
27389.3
26361.2
23687
19763.8
14970.3
9688.27
4581.77
1212.71
245.414
704.155
1389.84
2182.13
3130.84
4070.14
4939.26
5635.08
6099.39
6375.69
6539.26
6751.37
7045.24
7614.45
8627.02
10480.4
13129.9
16758
21377.1
26563.2
31690.2
35838.8
38165.7
37870.6
35512.4
31522.4
25846.3
18386.4
10133.1
3160.44
624.597
1025.38
1552.4
1985.19
2652.54
3732.11
5141.86
7117.05
10000.2
14096
19588.2
26489.2
34667.4
43900.1
54014.8
64586.2
74731.9
83609.2
90136.8
93425.2
92307.1
86524.7
77964.1
66669.7
54702.7
40910.7
26857.3
13865.8
4592.79
944.696
563.647
456.254
895.346
1621.04
2537.69
3512.74
4348.59
4887.46
4947.75
4664.87
4347.03
4304.65
4902.78
6452.5
9122.3
12993.4
18318.5
25036.8
32389.2
39468.5
44768.9
46643.9
45089.5
40605.7
34227.6
26744.3
18739.8
11312
5639.16
2267.41
1963.17
518.34
795.947
1447.96
2204.45
2857.17
3285.79
3451.5
3408.32
3245.97
3040.53
2856.8
2746.71
2777.36
2954.83
3318.65
3908.43
4766.87
5914.11
7343.36
8970.28
10636
12108.8
13147.9
13554.7
13228.3
12062.4
9985.43
7059.4
3870.88
1337.39
897.248
2003.8
3294.33
4116.29
4512.27
4550.42
4430.26
4163.62
3893.58
3709.32
3761.5
4339.75
5596.68
7728.75
10738.9
14322.4
17976.4
20846.7
22450.4
22214.9
20280.4
17441.7
14280.2
11469.4
9169.73
7376.46
5843.65
4353.89
2859.16
2031.77
812.523
1421.3
2090.57
2512.81
2705.42
2863.68
3238.23
4240.22
6323.78
10244.7
16165.8
23518.1
31179.7
37888.4
42381.6
43885.6
42798.6
39381.3
34493.7
28862
23109.8
17868.3
13461.8
10009.7
7378.36
5386.41
3885.99
2747.94
1771.42
841.38
1767.01
1085.36
1307.1
1526.77
1683.87
1965.11
2757.44
4924.01
9157.54
15250.1
22636.1
30738.4
39287.5
47837.5
56102.4
63381.4
68792.9
71479.2
70622.1
66324.2
59229
50318.5
40084.2
28534.6
17230
9027.94
4781.45
2847.34
1836.54
3406.47
1754.6
1111.3
1381.7
1548.84
1594.03
1841.94
3055.65
5937.96
10286.2
15607.5
21758.3
28605.6
36090.8
43876.2
51640.1
58643.7
64386.1
67581.9
68011.8
65304.4
60285.2
53372.3
45535.4
36932.4
27547.4
18410
10649.1
4877.95
1804.88
3491.27
1252.94
918.603
1337.69
1794.2
2181.17
2469.6
2662.7
2739.55
2707.17
2638.35
2459.7
2315.53
2306.05
2505.39
3077.04
4000.98
5355.5
7112.83
9191.84
11426.3
13600.6
15404.1
16403.1
16341.2
15228.4
13095
9950.44
6071.34
2134.2
194.417
21.7214
95.9254
306.806
737.376
1542.6
2899.55
5219.66
8818
13622.1
18919.3
23728.9
27349.1
29358.7
29231.2
27027.9
23343.6
18632.8
13819.9
9230.34
5345.7
2222.74
390.151
20.1619
5.96688
3.86817
2.50975
1.6114
1.04993
0.617986
0.314875
257.415
890.704
1129.57
1375.53
1631.52
1881.15
2118.98
2278.54
2346.83
2283.18
2044.31
1556.31
963.527
257.631
416.827
600.578
770.099
911.094
1042.06
1172.12
1342.48
1529.24
1806.79
2129.08
2514.28
2984.24
3585.32
4351.54
5256.02
6281.79
7293.56
8180.11
8838.37
9147.32
9127.88
8878.41
8437.36
7779.29
6736.06
5169.43
3197.61
1464.72
569.9
287.017
1050.01
743.154
945.428
1191.78
1509.93
2008.05
2565.84
2925.44
2980.41
2824.13
2765.33
3179.74
4293.63
6172.31
8724.84
11495.7
14323.6
17112.4
19772.6
22054.9
23784.7
24490.7
23967
22429.6
20167.7
17116.8
13012.7
7820.33
2962.32
557.251
913.739
1672.05
2388.48
3353.18
4406.94
5428.84
6275.8
6891.21
7338.45
7650.1
7993.42
8433.8
9187.63
10432.3
12484.9
14860
17476.3
20458
23769.7
27080
30007.7
32055
32830.8
32448.6
31455.7
29445.6
25116.9
17601.8
8483.95
2114.62
1207.19
1660.9
2203.25
3369.99
5066.78
6937.41
8982.34
11405.1
14499.4
18538.3
23723.4
30135.3
37633.7
46019.2
54881
63425.5
70895.6
76432.8
79294.3
78602.9
74604.2
67727
58998.5
50162.8
41204
31549.9
20453.1
9624.38
2759.88
941.698
704.839
1417.64
2231.58
3237.04
4307.21
5215.04
5813.59
6081
6283.07
6724.32
7566.72
8916.03
10767.5
12908.4
15106.1
17781.3
21262.9
25535.8
30210.7
34800.9
37704.6
38373.8
36608.8
33183.1
28494.8
22605
15667.5
8932.35
3985.1
2787.58
736.026
1202.98
2050.82
2885.4
3509.58
3904.08
4116.93
4176.41
4125.64
4016.18
3898.55
3787.43
3709.66
3642.43
3650.16
3756.8
3998.72
4359.87
4829.39
5379.28
5984.02
6645.6
7359.25
8059.03
8634.93
9003.11
8869.15
7700.76
5426.98
1832.19
2225.03
3624.83
4858.88
5354.51
5467.89
5375.93
5236.16
5015.32
4840.67
4891.06
5440.77
6773.89
8834.39
11487.8
14571
17923.4
21147.7
23722.1
24927.9
24265.1
22005.5
18681.2
14971.6
11688.9
9123.42
7364.44
6112.55
5000.28
3736.47
2706.02
2290.93
2327.47
2852.1
3047.78
3155.9
3525.8
4600.37
7001.83
11105.7
17008.9
23834
30755.1
37090.5
42292.8
45560.1
46594
45109
41754.9
36998.4
31438.2
25606.9
20068.3
15221.6
11292.1
8301.25
6107.34
4497.88
3302.88
2304.53
1213.26
2666.17
1328.78
1472.99
1624.57
1837.74
2598.33
4777.08
9122.79
14939.6
21159.9
27365.9
33507.5
39737.2
46031.4
52262.9
57935.9
62544.2
65245.6
65372.7
62869.5
58460.7
52927.7
46363.3
37757.6
26768.4
15836.6
8255.12
4404.5
2600.45
4134.91
2544.75
1279.69
1346.28
1391.17
1646.76
2910.25
6050.64
10512.4
15212.6
19849.8
24632.4
29737.8
35451.8
41551.2
47957.8
53896.4
59097.4
62518.6
63627.9
62227.3
58916.3
54388.3
49235
43659.5
36756.2
28335.3
19068.1
10467.2
4521.65
4346.98
2209.18
1457.1
2056.93
2766.78
3492.38
4190.8
4722.59
5084.27
5224.65
5198.94
4963.76
4600.1
4312.65
4111.31
4255.53
4508.96
4889.74
5494.5
6516.67
7883.01
9420.68
10885.7
12021.8
12667.4
12871.5
12567.9
11335.1
8483.39
4166.42
620.302
65.1732
221.497
673.097
1626.2
3323.33
6078.77
10215.9
15571
21579.6
27218.1
31804.7
34909.6
36315
35696.8
33251.2
29227.3
24566.5
19695.4
14838.7
10171.1
5706.9
1860.2
120.156
16.0449
7.78376
3.99564
2.21821
1.36753
0.810201
0.429412
410.961
1173.67
1366.82
1503.66
1596.09
1657.37
1748.49
1872.83
2021.68
2160.2
2232.72
2054.47
1593.28
436.023
677.447
829.445
1033.09
1240.63
1432.04
1623.92
1863.65
2220.02
2641.22
3034.63
3340.03
3590.58
3883.64
4252.17
4708.66
5240.12
5778.87
6281.69
6669.57
6869.03
6928.59
6909.99
6938.59
6958.61
6756.43
5927.59
4259.92
2265.01
945.011
460.815
1256.33
934.719
1280.16
1806.82
2503.91
3232.86
3633.6
3543.13
3149.13
2883.3
3278.85
4476.88
6365.57
8891.44
11644.3
13956.3
15687.9
16859.2
17633.7
18157
18588.4
18849.8
18870.1
18626.3
18126.9
17125.8
14840.4
10465.2
4965.07
937.75
1207.07
2249.55
2799.35
3677.47
4741.67
5872.42
6896.51
7705.74
8324.48
8847.16
9421.74
10197.2
11482.4
13574.3
16356.6
18664.1
19980.4
20661.4
21365.2
22426.6
23806.4
25216
26428.9
27443.2
28626.1
29734.3
28889.8
23637.2
14115.6
4006.34
1586.7
2066.54
2526.42
3985.42
6172.75
8592.4
10936.4
13237.7
15740.9
18807.6
22769
27819.2
33972.2
41175.3
48914.8
56495.8
62999.9
67377.5
69346
67940.1
63857.4
57485.7
49934.5
42851.7
36734
30625
22780.8
13011.9
4887.93
1543.6
1001.45
2315.55
3145.42
4115.98
5108.85
5921.35
6561.13
7250.2
8343.53
9979.72
11999.4
14025.3
15812.4
16978.7
17089.7
16883.6
16827.6
17330.1
18697.9
20923.6
23569.9
25967
27201.5
27210.3
26009.6
23210.4
18260.2
11789.2
5949.07
3422.14
984.024
1831.97
2792.92
3587.19
4123.83
4489.87
4772.26
4971.75
5066.55
5064.91
5020.66
4923.83
4787.92
4590.58
4385.67
4265.54
4253.18
4295.8
4357.6
4361.87
4252.6
4062.34
3941.95
4103.65
4688.73
5731.09
7012.55
7763.32
7136.48
2154.39
3925.22
5465.91
6363.6
6446.78
6306.25
6192.87
6105.93
6058.92
6196.25
6925.56
8597.13
11132.6
13751.8
15986.9
17875.7
19704.1
21537.6
23336.1
24514.6
24467.6
22847.2
19716.7
15807.6
11948.4
8874.35
6933.47
5894.67
5302.78
4580.57
3176.55
3624.08
3270.42
3566.6
3581.47
3832.85
4890.84
7363.24
11569.5
16849.1
22311.7
26859.5
30380
33073.7
35143.4
36595.9
37285.5
36550
34721.2
31961.4
28338.1
24042.1
19480.2
15081.5
11282.2
8294.14
6134.25
4606.43
3572.51
2793.76
1514.03
3263.25
1650.51
1776.14
1938.44
2470.88
4336.23
8401.84
13945.5
19195
23486.5
26996.1
30137.2
33351.1
36873.7
40727.9
44613.7
48134.9
50868.5
52142.1
51678.9
49989.5
47771.5
45046.2
40513.1
32388.6
21592.7
12088.7
6417.66
3632.1
4806.75
3103.2
1498.11
1450.44
1551.31
2430.03
5185.15
9502.78
13672.5
17029
19852.8
22665.4
25898.1
29882.9
34653.5
40041.4
45401.1
50260.5
53667.5
55001.8
54646.4
52638.1
49772.4
47009.6
44415.3
40988.7
35403.6
26910.5
16761.1
8184.36
5851.09
3022.11
2349.91
3379.1
4587.73
5823.1
6970.34
7924.71
8632.2
9074.81
9201.04
8948.35
8347.67
7719.22
7108.57
6872.24
6609.76
6119.88
5680.51
5708.4
6074.37
6686.08
7427.45
8239.22
9073.52
9973.86
10935.5
11375.4
9901.18
5672.94
873.348
149.419
455.384
1293.31
2918.74
5653.84
9766.09
15235
21371.9
27275.6
32035.3
35415
37133.8
37303.5
36131
33512.6
30161.5
26713.1
23072.8
19168
14799.3
9861.56
4637.42
552.42
39.2745
14.3439
5.96976
3.03668
1.92783
1.20342
0.569018
549.178
1390.58
1555
1618.03
1540.46
1387.02
1315.45
1407.67
1635.88
1976.5
2371.04
2625.97
2479.06
657.205
992.65
1134
1371.89
1619.75
1818.03
2039.29
2388.53
3009.15
3655.48
4141.28
4375.08
4459.83
4549.8
4604.83
4609.43
4567.86
4536.33
4577.24
4705.89
4864.98
5079.33
5308.46
5658.56
6113.43
6505.5
6311.13
5008.03
2923.23
1319.37
660.167
1484.11
1286.23
1837.57
2698.45
3614.43
4157.93
4018.14
3384.69
2783.42
2894.84
4076.94
5943.16
8282.52
11080.4
13642.3
15211.4
15729.8
15369.7
14389.2
13306.8
12600.8
12602.9
13231.5
14308.9
15578
16537.9
16115.6
12792.3
7057.04
1265.61
1542.86
3054.98
3271.65
3903.73
4778.85
5832.98
6917.29
7937.28
8825.43
9678.39
10602.1
11886.7
13995.9
17381.8
21411.9
23832.4
23640
21523.9
19171.7
17688.5
17524.7
18469.2
20049.5
22274.7
25209.3
28742.3
31067.4
28581.9
19763
5694.1
2160.77
2562.81
2809.46
4400.76
7021.62
10085.2
12972.2
15458.5
17768.5
20302.5
23502
27452.1
32272.4
37758.7
43619.8
49305.4
54298.7
57234.1
58690.2
57093.4
53769.7
47838.1
41260.4
35565.4
31322.5
27783.2
22867.6
14956.7
6643.6
2230.33
1356.11
3702.73
4374.98
5108.26
5785.04
6348.43
7039.17
8276.45
10458.5
13464.3
16664
19286.5
20906
21298.3
19827.2
17497.9
14690.3
11999.2
10097.9
9656.22
11080.7
13970.5
17182.3
19967.5
21788.3
21881.7
19247.5
13834.8
7864.28
3890.81
1321.68
2746.14
3684.45
4311.18
4687.77
4992.25
5362.55
5797.19
6167.23
6313.58
6251.55
6052.95
5820.23
5524.34
5244.97
5143.63
5184.68
5321.89
5463.96
5440.22
5105.71
4405.31
3538.63
2849.54
2814.59
3738.09
5682.05
7973.39
9140.81
2342.41
5751.11
7581.61
7864.81
7410.96
7064.48
6970.87
7006.61
7234.1
7980.04
9962.14
13334.1
16896.8
18978.1
19433.2
19128.6
18799.8
18670.2
18906.8
19470.9
20038.7
20006.1
18584
15820.9
12215.1
8888.1
6714.38
5782.63
5637.99
5488
3610.78
4838.13
4368.25
4286.69
4208.19
4975.7
7324.58
11468.9
16568.9
20929.1
23607.4
24491.5
24152.3
23296.1
22377.6
21769
21668.6
22033.6
22396.2
22379.9
21509.1
19653.5
16926.3
13673
10502.4
7835.36
5873.67
4513.73
3725.42
3290.23
1746.17
3755.2
2112.32
2196.54
2453.73
3673.58
7148.6
12469.8
17509.1
20721.9
22248
22889.1
23377.4
24072
25190.5
26797.1
28959
31486.6
34046.4
36198.7
37635.5
38472.9
39120.4
39581.9
38620
33748.3
24580
14790.5
8204.3
4718.58
5416.94
3534.5
1775.43
1649.09
2010.57
3934.06
7918.2
11986.1
14765.3
16374
17560.5
18997
21106.6
24176.8
28112.5
32690.2
37412.7
41779.9
44943.7
46486.5
46408.4
45358.8
43750.1
42541
41959.7
41362.5
38890.2
32403.4
22281.1
12063.4
7455.57
3908.92
3775.91
5366.87
7195.96
9051.71
10863.7
12510
13784.7
14557.4
14779.2
14476.8
13638.7
12389.7
11110.6
10320.7
9731.7
8500.18
7142.42
6260.14
5544.17
4905.17
4472.53
4726.4
5755.35
7369.39
9444.93
11252.6
10923.8
6622.06
805.272
281.969
808.468
2089
4407.65
8038.05
13058.9
19025.4
24928.7
29746.8
32759.6
34106.8
33747
32306
30212.8
27899.7
26100.5
24678.1
23200.2
21210.6
18157.3
13680.5
7897.29
1732.06
86.2666
22.7842
8.34238
3.89571
2.58145
1.81308
0.727432
653.872
1511.44
1676.15
1687.03
1461.53
1120.5
911.798
968.443
1259.7
1776.54
2486.4
3287.01
3715.22
937.033
1371.92
1549.66
1743.87
1919.83
2025.74
2250.4
2770.44
3691.44
4560.8
5093.05
5240.94
5222.97
5209.11
5025.66
4632.23
4066.73
3485.76
3061.31
2928.14
3093.32
3471.57
3994.02
4674.64
5501.05
6313.41
6542.01
5479.34
3349.11
1615.17
857.366
1723.36
1819.37
2497.26
3497.1
4255.7
4307.87
3615.43
2702.47
2338.99
3135.21
4941.66
7176.59
9710.63
12543.9
14653.8
15447.8
14984.7
13429.1
11129.7
8889.21
7472.93
7369.39
8583.48
10722
13424.3
16067.4
17252.1
14845.6
9021.94
1437.94
1871.87
4007.34
3737.79
3969.11
4475.67
5241.78
6235.33
7401.89
8644.95
9943.89
11315.3
13153.1
16143.3
20943.5
26383.5
29015
27414.8
22510.9
17122
13295.5
11821.1
12302.5
14376.5
17601.1
21982.1
27532.2
32595.7
32878.1
25360.5
6866.84
2896.89
3040.62
3025.26
4653.42
7658.58
11326.2
14768.8
17514.7
19781.3
22007.7
24503.7
27327.6
30477.1
33682.2
36937.2
40002
42642.3
43992
44454.1
43090.3
40718.1
36692
32318.5
28507.1
26085.3
24650.3
22022.9
15782.5
7815.76
2830.52
1816.31
5719.88
5929.06
6109.18
6220.19
6402.14
7057.21
8767.74
11932.5
16183.4
20407.4
23529.3
25153
25200.9
23105.8
19827.4
15572.1
10926.9
6720.82
4189.72
4130.23
6545.03
10098.7
14090
17638.5
19698.5
19020.1
15040.6
9632.74
4187.76
1776.31
3955.24
4710.82
5053.6
5170.25
5352.56
5809.71
6581.1
7383.06
7749.81
7625.58
7233.29
6858.85
6502.74
6261.69
6345.09
6658.87
7199.21
7733.47
7952.67
7578.33
6519.46
5054.54
3575.04
2707.85
3047.84
5075.94
8410.07
11173.7
2509.79
7718.2
10117.9
9405.15
8316.4
7740.6
7665.09
7883.15
8542.88
10250.4
14008.8
19273.5
23146.3
23565.8
21588.7
19100.6
16951.2
15042.5
13399.6
12677.7
13519.6
15112.8
15816.2
14809.3
12036.4
8836.33
6573.03
5742.31
6000.65
6331.16
3847.73
6044.11
5898.74
5286.14
5325.08
7023.3
11035.8
16342.8
20937.7
23226.5
22944.4
20951.6
18015.7
15069
12497.5
10581.8
9646.04
10098.1
11593.9
13456.5
14809.6
15113.9
14119.2
12110.3
9671.49
7389.88
5605.87
4415.87
3884.05
3781.9
1920.22
4271.24
2849.38
2873.56
3429.49
5737.84
10828.3
16357.8
19879.6
20735.8
19908.7
18539.6
17308.3
16330.4
15749.3
15493
15618.7
16180.6
17601.8
20259.6
23478.8
26809.7
29852
32903.9
34686.8
32303.3
24994.2
15987
9502.58
5789.85
5878.55
3932.29
2148.26
2010.9
2938.77
6125.65
10534.1
13603.5
14971.8
15324.3
15654.5
16529.1
18129.5
20358.8
22878.1
25536.6
28309.6
31204.6
33772.8
35357.9
36120.7
36518.4
36512.9
37034
38093.3
39638.4
39828.8
35731.7
26509.9
15333.8
8416.74
4941.23
5867
8054.27
10543.5
13171.3
15872
18131.8
19637.2
20486.1
20884.7
20862
20120.6
18171.9
15711.7
13958.6
13055.8
11369.6
9311.01
7661.11
6030.98
4242.04
2687.98
2250
3333.16
5626.88
8689.15
11467.8
11644.7
6745.01
454.338
443.695
1274.58
2944.58
5785.84
9933.36
15240
20945.3
25893.8
29018.9
29846.7
28642.5
25966.3
23012
20635.1
19369.7
19453
20372.1
21274.8
21437.2
20083
16605.3
10877
3713.03
202.311
30.418
11.3218
5.354
3.62211
2.91661
1.01874
731.933
1534.4
1711.73
1700.02
1403.81
981.833
716.492
736.042
1034.07
1637.83
2590.11
3953.59
5426.99
1372.43
1894.81
2106.59
2149.92
2150.47
2117.85
2311.08
2973.04
4121.01
5137.05
5667.86
5757.53
5726.03
5706.37
5399.03
4730.51
3824.51
2853.02
2074.46
1693.54
1815.02
2333.4
3109.86
4107.92
5270.54
6353.69
6738.89
5668.51
3485.45
1810.5
1082.3
2022.12
2570.14
3115.68
3933.18
4266.22
3778.55
2779.17
1988.04
2117.44
3493.81
5595.71
7935.29
10477.4
13161.4
14760.5
14931.4
13739.1
11331.4
8153.8
5380.04
3904.41
4051.08
5691.01
8491.86
12185.3
16033.9
18336.6
16446.3
10582.9
1453.68
2155.47
5030.09
4149.41
3883.52
3912.18
4278.36
5034.87
6207.89
7753.58
9550.83
11474.8
13838.1
17538.8
23478.1
30017.7
32833.2
30276
23258.1
15357.8
9534.19
7106.43
7383.15
9904.63
13899.5
19520.4
26756.6
34115.8
36808.4
30633.2
7287.01
3638.73
3370.72
3111.48
4801.59
8104.63
12182.7
15964.3
18832.9
21033.4
23056.5
25089.1
26813.6
28007.5
28616.3
28850.1
28705.3
28417.9
28072.2
27846
27262
26565.5
24888
23212.2
21904.4
21594.1
22054.1
20991
15738.4
8479.49
3286.75
2486.3
8485.38
7741.16
7080.58
6406.55
6001.44
6401.67
8297.88
12130.5
17331.7
22343.6
25888.2
27702.9
27828.8
25867
22716.8
18665.3
13900.4
8930.71
5026.8
3525.3
4605.91
7330.54
10969.3
14785.5
17646
17946.5
15246.2
10890.5
4232.45
2417.53
5461.65
5866.17
5787.7
5503.69
5458.99
5967.29
7124.75
8467.94
9139.4
8980.83
8461.32
8026.07
7761.33
7778.42
8318.08
9187.08
10147.6
10800.5
10927.1
10247.6
8938.47
7173.59
5305.38
3856.84
3539.64
5309.43
9112.68
13001.6
2518.31
10294.8
13364.2
11157.9
9219.45
8320.46
8256.94
8716.18
9916.81
12857.1
18782.5
25698.3
29228.4
27505.2
23279.5
19346.3
16070
12880.8
9585.76
7244.74
7841.8
10723.7
13209.1
13519
11463.9
8593.68
6507.48
5906.32
6450.85
6928.77
3902.54
7676.28
8249.25
6950.83
7362.02
10340
15775.8
21432.4
24874.4
25249.5
23040.7
19584.1
15520.3
11681.5
8389.22
5794.3
4303.58
4568.47
6272.74
8870.89
11258
12664
12606.1
11349.3
9352.49
7269.94
5571.14
4527.94
4176.37
4171.49
1978.4
4988.79
4100.77
4008.89
5221.6
9018.97
15097.1
20173.9
22141.3
21066.1
18631.2
16140
14096.1
12313
10731.3
9105.54
7410.24
5811.18
5657.76
8472.52
12910.9
18059
22918.9
27582.9
30778.9
29692.3
23768.4
16010.2
10315.5
6707.99
6093.38
4383.73
2658.65
2676.15
4670.09
8915.45
13177.3
15262.5
15734.3
15453.3
15542.8
16218.9
17372.4
18357.1
18860.2
18602.6
18188.4
17977.5
18548.2
20383.5
22787.2
25742
28366.1
31155.2
34031.6
37338.5
39565.9
37468.7
29394.6
17885.1
8714.58
6216.66
8752.94
11383.2
14462.3
17750.5
20565.1
22222.6
23016
23704.8
24692.5
26068.3
26574.9
24578
20512.4
17185.5
15828.3
13953.6
11512.2
9342.65
7092.92
4593.47
2446.27
1639.26
2745.24
5555.94
9207.43
12098.3
11768.6
6229.08
200.955
634.631
1803.48
3721.27
6832.24
11110.7
16228.7
21217.7
24844.2
26046.6
24729.5
21295.4
16918
12908.6
10683.5
10971.4
13086.2
16173.4
19034.3
20865
20933
18475.7
13134.6
5812.12
524.081
37.8147
14.6717
8.97475
6.99951
6.75214
3.52477
764.976
1454.77
1650.37
1665.06
1402.32
1029.51
776.92
744.075
963.298
1512.53
2563.62
4461.03
7711.12
1838.06
2685.38
2757.34
2486.66
2246.35
2102.76
2255.2
2987.36
4198.93
5237.69
5768.15
5869.06
5904.73
5974.63
5681.84
4947.31
3938.26
2820.21
1849.11
1306.58
1345.42
1916.48
2912.47
4170.73
5554.02
6623.13
6822.81
5549.22
3399.42
1962.61
1395.75
2348.17
3498.76
3455.09
3878.15
3763.39
2963.02
2005.28
1562.53
2144.79
3751.44
5910.47
8163.3
10537.9
12896.9
14051
13844.6
12309.2
9511.15
6133.98
3548.2
2441.42
2819.94
4608.68
7738.92
12002.1
16450
19188.2
17331
11556.6
1364.22
2406.09
6077.24
4553.67
3760.82
3306.76
3262.65
3744.74
4863.38
6575.19
8721.31
11076.2
13799.8
17818.7
24390.9
31557
34582.7
31657.6
23823
14654.5
7495.24
4416.15
4561.66
7241.57
11720
18217
26790.4
35965.8
40469.5
35233.9
6880.83
4181.54
3562.64
3172.24
4909.54
8349.66
12530.7
16293.7
19018.2
21128.7
23101.3
24870.4
25631.4
25080.4
23413.5
21121.7
18420.9
15754.1
14018.7
13617
14044.4
14793.3
15320.5
16029.7
17066.2
18706.2
20703.2
20123.9
14838.5
8743.75
3866.05
3242.41
12013.2
9228.8
7499.81
6059.85
5080.02
5037.11
6718.67
10713.4
16431.8
21986.8
25857
28024.3
28572.5
27257
25001.3
22203.4
18829.7
14869.7
11052.5
8435.93
7534.07
8441.74
10509.3
13216
15609.8
16221.1
14552.7
11498.6
4018.58
3247.65
7179.94
6989.47
6340.12
5535.35
5191.15
5709.99
7231.02
9153.02
10197.3
10122.2
9657.99
9421.62
9584.26
10321.6
11535.8
12431.9
12746.5
12282.1
11658.8
10646.8
9433.68
8066.14
6572.66
5205.4
4660.34
6196.36
10126.5
14780.8
2813.99
13663.8
17455.7
12963.4
9986.7
8769.6
8758.9
9476.13
11172.6
15426.9
23685.4
32046.1
34931.9
31413.2
25929.5
21433.1
17706.8
13949.9
9704.46
6179.58
5986.03
9270.05
12224.7
12752.3
10935.3
8414.93
6711.87
6427.17
7032.64
7269.95
3839.87
10038.3
11633.2
9043.72
10175.4
14690.4
21303.9
26662.8
29050.9
28263.9
25414.3
21755.6
17672.2
13802.2
10247.3
7251.9
5421.95
5372.07
6979.32
9472.92
11813
13155.6
13103.3
11812.6
9740.57
7558.4
5825.34
4874.3
4554.39
4397.7
2097.92
6326.68
5921.91
5563.07
7925.69
13330.9
19954
24296.3
25085
22789.3
19493
16640.7
14481.7
12602.1
10848.3
8849.01
6547.13
4177.46
3625.6
5922.16
10085.9
15329.3
20488.8
25309.9
28182.2
26917.2
21579.6
15301.4
10680.5
7341.45
6032.48
5239.29
3473.41
3944.97
7367.98
12338.4
16198.8
17719
17837.2
17498.3
17644.6
18297.6
18971.5
18708
17335.1
14701
11873.2
9194.94
7426.27
8039.3
11015
16287.2
21495.2
26475.1
31014.5
35759.8
39361.8
38762.1
31186
19053.9
8168.34
7706.17
12263.5
14945.2
18303.8
21367.3
22917.9
22622.4
21674
21709.7
23551.6
27407.1
30818.8
30314.4
24909.8
19325.5
17358.2
15551.9
12957
10644
8338.1
5847.71
3790.53
3148.07
4403.21
7274.31
10651.7
12608.3
11122.5
5426.04
140.103
824.624
2294.37
4260.53
7372.89
11491.2
16172.1
20299.6
22650
22493.3
19785.3
15007.1
9786.81
5447.66
3725.96
5613.89
9371.46
13945.9
17957.3
20703.9
21458.4
19568.3
14543.7
7435.08
1254.22
67.8254
20.819
21.7969
25.0292
33.0873
34.1494
752.859
1279.52
1515.49
1609.49
1478.56
1245.45
1071.76
1029.31
1163.12
1649.69
2841.29
5551.24
11290.7
10363.1
4553.09
4519.81
5276.24
4575.57
3622.23
2795.39
2300.05
2249.21
2842.07
3906.33
4857.76
5392.61
5583.47
5773.5
6006.99
5895.49
5328.16
4462.18
3441.51
2487.12
1902.22
1887.39
2467.88
3553.04
4943.4
6343.04
7212.18
6975.26
5349.13
3354.83
2400.45
2592.52
2825.63
3442.85
5950.08
4634.66
3779.09
3608.81
3089.5
2211.28
1494.81
1420.41
2228.96
3830.52
5839.48
7818.48
9837.44
11810.7
12822.7
12506.6
10958.8
8310.3
5362.77
3211.82
2438.13
3047.04
4968.68
8278.77
12622.6
16920
19271.3
16990.6
11395.8
4371.86
2751.28
3106.93
5919.4
6522.78
4774.57
3664.73
2964.1
2722.38
3026.17
4036.03
5690.36
7838.97
10279
13003.7
16858.2
23350.5
30735
34247
31592.3
24268.6
15533.1
8217.91
4548.91
4202.77
6639.66
11196.9
18189.7
27649.8
37919.8
43313.7
38517.7
18986.7
4028.79
3543.03
5785.91
3107.75
2894.47
4894.73
8387.67
12343
15667
17966.5
19923.9
22064.1
23865.2
24016.3
22420.7
19492.6
16149.8
12461.5
9107.11
6890.47
6367.89
7048.39
8417.19
10241
12374.3
14973.8
18085.3
20771.9
19249.8
13584
9441.59
8201.43
4444.48
6209.49
15459.4
16041.3
10513.9
7524.07
5390.38
3914.65
3362.55
4494.21
8081.22
13715.5
19388.2
23383.9
25983.4
27289.8
26943
25717.1
24300
22726.8
20666.2
18183
15444.2
13125.7
11889
11753.6
12464.5
13435.3
13757.1
12892.4
11217.5
7933.42
3631.85
4598.85
8641.46
8905.18
8034.01
6679.36
5279.75
4553.32
4953.62
6657.93
9064.91
10609.7
10855.5
10763.7
11170
12423.6
14386.2
15919.6
15915
14546.5
12123.9
9945.3
8287.85
7434.65
6930.33
6490.79
5964
5867.06
7341.47
11056.4
15486.6
10979
8925.43
21099.4
33369.2
22118.1
14888.5
10608.1
8945.44
8999.05
9931.23
11942.6
17288.8
27746
37687.2
40435.9
36080.9
30557.1
26523.5
23476.8
20314.4
16490.7
12746.3
11333.5
12809.4
13988.1
13312.4
11098
8769.84
7348.95
6971.05
6997.08
6657.81
5575.71
11033.7
21271.4
33010.3
17915.5
13089.6
14199.7
19523.9
26669
31909.9
33839
32725.4
30331.3
27540.9
24536.3
21703.4
18954.1
16512.1
14886.3
14341.8
14965.6
16030.6
16747.7
16564.5
15274.7
13110.4
10473.4
7991.15
6173.54
5127.61
4644.83
4332.43
4090.97
8595.58
13192.3
17535.3
10404.3
9196.07
12069.5
18238.6
25081.9
28923.3
29012.8
26105
22657.8
20104.8
18443.6
17321.3
16391.6
15272.1
13709.7
12060.3
11889.4
13167.8
15807
19348.7
22840.3
25772.7
26660.5
24255.3
19328.7
14295.7
10343.9
7138.46
6182.65
7301.34
9917.59
9744.38
6029.63
6932.37
11022.6
16128.2
19831.6
21289.4
21434.3
21439.5
22007.6
22979.7
23515
22779
20502.3
16781.8
12914.7
8957.31
5928.04
5466.16
7800.99
13245.8
19203.5
25168.9
30665
36227.9
40077.4
39732.3
31957.3
19482.3
10694.4
7246.97
9537.31
16194.4
15960.8
18265.5
21134.7
23009.3
22185.2
18911.1
15519.1
14570.9
17582.6
24160.4
31375.1
33771.7
28019
19823.8
17144.7
15656.6
13252
11137.4
9358.19
7585.15
6303.94
6175.93
7478.89
9888.87
12182.2
12559
9753.85
4578.61
1487.39
1405.42
1809.3
1945.08
2760.04
4558.74
7434.72
11171.1
15282.5
18700.7
20314.9
19699.6
16646.6
11779.7
6675.08
2879.35
1957.37
5023.23
9498
14434
18529.2
21277.2
21932.5
19953.3
15060.2
8334.81
2276.3
164.9
31.476
61.651
117.371
184.97
217.102
19.3635
1.45673
705.622
1046
1314.08
1520.81
1576.99
1537.26
1507.29
1547.21
1710.57
2105.85
3162.14
5807.13
11854.5
21591.6
21661
16403.2
12528.4
9143.95
6058.59
3803.92
2560.29
2210.48
2579.01
3355.41
4120.99
4659.1
4996.25
5390.9
5856.71
6070.99
5888.34
5401.31
4720.81
4012.76
3555.23
3551.63
4121.66
5165.89
6430.75
7526.89
7964.73
7196.93
5286.33
3430.83
2604.93
2578.13
2858.68
5004.5
8077.01
4981.94
3612.48
3046.12
2376.74
1645.09
1231.73
1429.48
2302.81
3745.7
5442.35
6973.37
8517.74
10174.8
11206.5
11085.1
9941.06
7945.01
5755.23
4182.83
3690.93
4498.61
6486.24
9646.41
13482.2
16879.1
18125.7
15179.3
9835.22
5434.45
2307.47
2125.24
6608.44
6073.35
4617.37
3627.85
3022.15
2852.14
3170.4
4102.22
5498.07
7243.82
9287.83
11584.3
14829.2
20658.4
27883.5
32158.6
30928.4
25357.5
18145.8
11477.1
7405.48
6403.41
8272.36
12499.9
19398.6
28980.5
39397.1
44923.4
40572
23703.5
6876.59
4662.57
4992.66
2529.14
3140.07
5340.66
8562.5
11815.6
14261.7
15898.1
17625.6
20000.8
22164.6
22502.2
20633.4
17698.4
14685.5
11594.9
8872.59
6931.48
6111.58
6283.57
7280.44
9143.6
11858.1
15688.5
20210.3
23248.2
21159.9
17016.5
16699
19412.1
22934.8
27155.4
25303.3
14941.6
9391.71
6562.3
4634.9
3176.25
2401.54
2888.05
5456.72
10192.5
15393.4
19213.9
22050.7
24161.3
24937.6
24729.4
24304.1
23851.9
23123.3
21886.8
19882.5
17420
14856.3
12912.9
11706.7
11101.5
10734.6
10290.4
9805.36
8888.28
5205.06
6449.14
10265.2
9800.16
8472.37
6605.11
4764.33
3709.51
3893.2
5512.9
8095.59
10039
10815
11354.3
12902.8
15926.9
19333.8
21252.4
20616.4
18316.6
14993.3
11577.4
8640.24
7149.51
6546.17
6630.75
6760.78
7099.46
8374.25
11476.8
14927
14692.2
10873.9
25196.5
38283.7
24963
15970.2
10692.6
8650.07
8856.17
9872.57
11799.2
17601.3
29843.6
41908.1
45583.8
41824.8
37498.6
35077.2
34368
33391.3
31709.2
28405.5
25094.7
22136.6
19287.4
16059.1
12732.9
10108.8
8476.14
7653.62
7172.51
7276.66
11515.4
25866.3
42567.3
40732.2
22348.9
16786.2
17741.1
23566.1
31062.3
36569
38617.9
37979.8
36591.2
35382.4
34526.9
33965.1
33352.2
32852.3
31738.1
30353.8
28629.1
26633.3
24203.7
21284.5
17934.5
14458.9
11174.9
8602.52
6941.1
6005.97
5758.13
6342.08
9548.89
17130.8
24845.7
23483.5
14872.1
13116.9
15958.6
22221.5
29243.8
33335.1
33410.2
30611.1
27615.9
25867.4
25423.6
25933.7
26959.8
27804.6
28453.7
28451.2
27913.5
27494.9
27534
27962.8
28222.4
27812.7
25802.2
21860.1
17045.8
12719.1
9241.64
6617.31
6295.28
8496.78
12843.3
12673.2
8907.65
9967.81
14172.9
19411.1
23425.6
25379.7
26052.7
26870.1
28406.6
30465
31874.5
31948.2
30135.7
26917.6
23181.7