/*--------------------------------*- C++ -*----------------------------------*\
| =========                 |                                                 |
| \\      /  F ield         | OpenFOAM: The Open Source CFD Toolbox           |
|  \\    /   O peration     | Version:  2.1.1                                 |
|   \\  /    A nd           | Web:      www.OpenFOAM.org                      |
|    \\/     M anipulation  |                                                 |
\*---------------------------------------------------------------------------*/
FoamFile
{
    version     2.0;
    format      ascii;
    class       volScalarField;
    location    "0.004750000";
    object      omega;
}
// * * * * * * * * * * * * * * * * * * * * * * * * * * * * * * * * * * * * * //

dimensions      [0 0 -1 0 0 0 0];

internalField   nonuniform List<scalar> 
12384
(
9331.72
26889.5
32918.8
37508.6
39761.2
40308.7
37274.7
33256.6
29005.8
24703.3
20010.7
14556.6
8957.79
4655.78
25558
41814.8
53023.9
60366.2
65853.8
70166.6
74188.6
77615.4
81486.5
85418.3
89842.5
94644.6
99742.3
104660
109106
112484
114302
113956
111869
108715
103769
97673.3
89225.4
77883.3
62469
44685.2
30174.4
22716.4
17542.6
12108.8
54394.1
70063.3
77246.1
82228
86132.4
89997.8
93978.2
98258.7
102274
105955
108895
111599
114630
119566
126631
135779
144890
153672
159204
161825
155832
144534
131033
116114
97913.5
75575.1
51345.5
32146.7
21309.7
13029.1
44396.1
63385.5
76241.5
87249.8
97450.4
106811
116200
125045
134292
143494
153391
163397
173934
185558
197715
208973
219440
227518
232095
232114
223559
211362
197672
183839
165288
135827
91797.4
47063
30560.3
24823.5
60127.7
83696.3
99125.7
111882
123305
133982
144701
155852
167452
179249
190673
201546
210237
218753
223973
229227
227009
229755
217531
217668
200030
191551
177572
160747
135249
99640
59329.9
34368.4
28848.3
29216.9
25549.3
38219.5
49019.2
57514.2
63226.8
66996.9
70274.8
74098.6
78834.4
83849.6
89368.3
97729.8
110097
124716
139353
153625
165872
173798
178397
171381
165354
157237
148324
139491
131128
122666
112305
95387.5
69083.9
46856.6
29449
37821.1
46168.4
52922.7
58106.1
62585.4
67750.6
74049.8
78850.7
82366.3
83737.8
83689.8
83105.7
82187.1
81484.3
81267
81645.6
82995.2
85045.7
87562.5
90007.6
91439.3
91618.5
90567.7
88603.3
86158
81707.9
73364.7
58588.3
35823.2
22035.7
31287.8
50469.5
76792.2
98891.4
113967
124769
131370
134150
133956
131611
129080
126812
125825
125972
125644
126072
121282
115449
107470
102283
98480.2
95111
92155.2
89486.9
86966.5
83973.4
79152.2
69453.7
53109.8
15332.8
22920.1
54694
85268.2
104760
116427
122847
126096
127749
130003
134652
140760
147427
152577
154932
150723
148702
145232
140700
135331
128610
120967
112662
103690
93500.7
80625.6
64552.5
45969.2
27088.3
12055.1
31310.2
50579.3
79568.3
100153
112451
118692
120552
121377
125617
135350
149231
164875
178670
191186
198969
202161
202708
196452
187744
180141
172733
165017
155803
145600
136229
127040
116099
104708
93412.2
88953.8
35318
65173
90596.8
105447
113068
114819
113323
115439
125602
141541
158608
176507
191215
206372
216306
226293
229763
232069
233129
230059
226803
220533
211166
196868
174926
146679
117438
99452.3
87435.8
86941.2
20723.3
38387.3
67157.9
87181.4
99768.3
107371
110776
111421
109389
106521
103423
101470
101114
102697
106357
111518
117871
124522
130951
136456
139246
138612
132865
124752
112718
94955.2
68459.4
36094.2
9560.22
1955.1
2212.43
3319.49
5279.66
7670.91
13086.7
20920.4
31449.2
44599.1
59526
74594.1
87717.9
98026.7
106016
112370
117179
118866
109945
96854.8
77037.8
54416.8
29500.9
9802.56
3593.24
2706.24
2385.12
2027.13
1735.27
1468.5
1194.05
1041
19208.3
139193
181387
217373
252042
283180
305163
313869
305436
280939
240917
187486
127674
19272.3
28362.8
131330
155570
171015
183307
194603
208159
222875
244395
272975
309602
354285
405525
460868
516976
570970
618585
656865
680982
685788
668552
636654
586483
524003
444776
351155
243496
149722
102932
22219.8
53123.7
161134
179583
195782
208298
227575
255587
285213
307097
319347
321294
323770
344860
395927
474695
570086
673306
777293
875621
958286
1.01384e+06
1.03206e+06
1.00335e+06
935870
837110
711184
554600
360362
177025
27922.1
47278
209239
272070
333315
388268
433511
468071
490153
504429
514865
526308
540897
563302
601183
662468
739766
832396
935404
1.03927e+06
1.13281e+06
1.20441e+06
1.24097e+06
1.22123e+06
1.16318e+06
1.07318e+06
951442
785861
559398
285148
44517.8
57057.1
227567
279512
334105
394005
460518
538946
634091
746950
874849
1.01311e+06
1.1565e+06
1.30092e+06
1.4436e+06
1.57977e+06
1.70154e+06
1.80195e+06
1.87332e+06
1.90755e+06
1.89561e+06
1.83166e+06
1.73159e+06
1.58384e+06
1.41103e+06
1.19404e+06
944006
652391
349496
159513
42288.6
38061.1
170108
229940
290460
346563
392143
423753
431445
422993
411830
412093
440491
505835
600360
713671
842346
979672
1.11248e+06
1.22852e+06
1.30944e+06
1.33514e+06
1.30051e+06
1.2207e+06
1.10325e+06
958450
788502
604753
423252
274349
78934.1
40567.7
163948
225165
282610
328658
360008
375123
375305
367758
356468
345550
338459
339414
348030
365680
393004
429367
474010
524602
577472
628104
669790
696934
704401
688259
643720
570548
467704
339002
65133.6
53347.4
263764
352692
402844
429198
437567
433665
420394
405515
394599
395733
420522
471362
546237
637410
732449
819719
885729
922952
918968
875216
808362
729681
653281
583352
520833
459957
393503
314116
80315.5
50796.1
230327
286275
317516
332915
345138
364628
409384
488047
606984
755051
911496
1.05617e+06
1.17457e+06
1.25399e+06
1.286e+06
1.27601e+06
1.22302e+06
1.14264e+06
1.04159e+06
928986
814755
706414
608859
522994
446881
380927
320791
255181
51684.8
74887.4
203499
227960
244691
256869
278299
325954
424444
571486
740926
911776
1.07295e+06
1.22174e+06
1.35583e+06
1.47416e+06
1.57249e+06
1.64114e+06
1.67136e+06
1.65397e+06
1.59242e+06
1.48824e+06
1.35108e+06
1.18423e+06
982840
755705
550138
411924
327891
262738
103988
74635.4
204106
227636
240374
247704
268916
338140
464466
614559
764757
909275
1.04739e+06
1.17995e+06
1.30435e+06
1.41861e+06
1.51609e+06
1.5921e+06
1.63262e+06
1.6369e+06
1.596e+06
1.52583e+06
1.42265e+06
1.29788e+06
1.15419e+06
987035
800900
606644
412837
248609
105271
63071.4
187842
224592
256757
282176
303650
318018
327869
327656
322983
312082
303862
304947
320157
354702
402771
462323
529421
599639
667901
729772
778179
801567
792654
750418
682000
580582
438156
234764
24812.1
8332.19
83542.8
120200
170889
239649
324324
431152
557933
693218
820937
927549
1.0069e+06
1.0544e+06
1.06068e+06
1.01965e+06
944055
839635
717908
580679
436072
286690
164528
109053
92262.7
88121
84616.8
78573.2
71937.2
58482.2
1228.14
28614.9
176186
210066
232950
252994
270902
287126
297732
301334
295907
278081
240790
187361
28623.7
36384.5
158202
181866
197678
210917
223376
237486
253093
272991
295560
320048
347524
379453
416193
455900
497257
535772
568213
591796
603399
603618
595228
578835
553260
511531
444850
346255
232756
147218
30200.4
57745.8
177632
202985
226502
251765
286292
321461
343875
349339
342502
340074
363735
418837
498010
588512
673394
749218
816393
875554
924823
961923
979139
969801
937049
884536
808294
694004
519243
300491
42040
53856.6
252413
305851
363311
417120
463500
499454
525188
544047
558358
573147
591424
618551
659214
719885
783196
847727
914899
984317
1.04977e+06
1.1055e+06
1.14382e+06
1.15732e+06
1.1481e+06
1.12439e+06
1.07909e+06
985249
805444
525286
81877.7
61913.3
258348
307706
381273
463062
537461
606986
678874
759785
853234
959954
1.07781e+06
1.20222e+06
1.32885e+06
1.45173e+06
1.56271e+06
1.65504e+06
1.72187e+06
1.75597e+06
1.75232e+06
1.70884e+06
1.62947e+06
1.52091e+06
1.39915e+06
1.26151e+06
1.09356e+06
862938
566417
285026
54649.7
47299.8
229745
288309
346727
400299
441979
468879
482521
493646
512682
545278
593573
655251
718864
777912
841401
914966
997848
1.08283e+06
1.16244e+06
1.21277e+06
1.22411e+06
1.19535e+06
1.13495e+06
1.04662e+06
926231
766052
575081
383249
94050.9
48336.4
213705
282129
337944
376007
399323
412031
416398
414901
409939
404209
398282
393796
389425
388446
392336
401700
416332
434584
455366
477684
501473
527027
551476
570386
579631
570627
526872
438156
76231
84029.6
379965
449100
475718
483355
480471
474351
464331
455322
455470
475126
522107
588881
666150
746983
826402
897405
951942
978417
968785
925082
853788
766592
679221
602566
542861
494735
446166
382637
92686.1
85289.1
309219
347959
361356
368154
386468
433717
521179
643501
789084
934320
1.06523e+06
1.17465e+06
1.2599e+06
1.31487e+06
1.33722e+06
1.32296e+06
1.27806e+06
1.20719e+06
1.11538e+06
1.00833e+06
893665
779131
672036
577303
496433
427447
367259
306169
62060.1
91993.8
233954
252771
265090
280891
326579
427936
580041
744006
892444
1.02133e+06
1.13508e+06
1.23902e+06
1.33598e+06
1.42571e+06
1.50378e+06
1.56538e+06
1.60199e+06
1.60661e+06
1.5772e+06
1.52045e+06
1.44292e+06
1.34293e+06
1.2026e+06
1.00507e+06
772352
566030
423167
325215
114572
89883
229322
240779
245054
264220
338334
474428
627231
762109
876455
978961
1.07673e+06
1.17545e+06
1.27306e+06
1.36884e+06
1.45402e+06
1.52602e+06
1.57372e+06
1.59191e+06
1.57841e+06
1.53896e+06
1.47917e+06
1.40571e+06
1.31947e+06
1.20688e+06
1.05623e+06
863738
637471
411846
117457
83749.2
244646
292885
337595
377671
412714
437489
453633
459065
456971
445458
429577
415670
407497
414094
427213
444351
469952
508973
557166
608325
655271
692050
711716
716488
704404
662467
561535
370409
44327.7
14397.6
114452
170051
253828
359965
484980
627286
774176
912173
1.02646e+06
1.11174e+06
1.16633e+06
1.18979e+06
1.17877e+06
1.13566e+06
1.06363e+06
973777
869531
750731
614756
455290
280051
156172
112941
96046.9
87416.2
82944.8
78547.6
69059.1
1371.01
36138
205835
232436
244324
250802
254729
261295
270437
280720
289564
292918
279213
243287
37222.3
46378
186495
210029
229643
246131
261186
278722
302182
327995
350463
366829
379821
394019
411187
431478
454048
476468
497263
513793
523203
526880
527361
528630
528841
519548
484643
407900
295134
191015
38256.6
63161.3
198999
234084
274621
318737
359410
381534
378952
360195
346722
369075
428584
507504
596993
680993
743917
785989
811382
826838
838135
849620
859443
862133
857515
845593
819310
755861
619582
405945
54524.8
61899.3
295261
333634
382902
434548
483611
524885
556178
579703
599622
620304
646505
685902
743479
813564
867044
897123
913048
929578
954111
985413
1.01665e+06
1.04137e+06
1.06055e+06
1.08081e+06
1.09658e+06
1.07325e+06
956916
711406
112711
70983.4
289906
330909
414219
510107
596316
667239
728560
788880
856937
937791
1.03234e+06
1.13777e+06
1.25119e+06
1.36378e+06
1.46757e+06
1.55291e+06
1.61075e+06
1.63765e+06
1.62527e+06
1.57918e+06
1.50162e+06
1.40267e+06
1.30178e+06
1.20577e+06
1.09781e+06
937089
690353
403550
69965.5
56374.9
294195
343799
393253
438660
473997
501351
529575
570062
625017
687420
746079
796172
827387
831872
826432
822669
830808
858814
907709
965152
1.01183e+06
1.03573e+06
1.0353e+06
1.01033e+06
951309
839990
671438
473873
104201
55884.9
265966
331688
379018
409136
428966
443625
453542
458336
458745
457163
452973
446953
437513
427345
420394
417511
417112
416879
414083
406396
395700
388673
395281
421323
464359
512307
537114
511498
82658.4
111612
472708
517287
523413
518977
514708
510795
507982
511659
536062
588738
662210
732471
789402
835456
876863
917109
955012
981022
981907
949209
882288
790278
688013
595696
529452
489974
464444
429199
100422
107274
368381
389959
391724
403660
449025
538708
663365
796252
918922
1.01251e+06
1.08e+06
1.12836e+06
1.16429e+06
1.19078e+06
1.20518e+06
1.19805e+06
1.17201e+06
1.12764e+06
1.06417e+06
982032
884982
779628
675021
579854
499826
434582
383962
340007
69326.9
101779
262144
277222
288831
321978
412831
562502
724287
857047
954090
1.02635e+06
1.0858e+06
1.14167e+06
1.19954e+06
1.25946e+06
1.31847e+06
1.37121e+06
1.4115e+06
1.43243e+06
1.42956e+06
1.40828e+06
1.37715e+06
1.33481e+06
1.26025e+06
1.12009e+06
910789
685636
508524
384063
123532
99255.2
249425
251322
258447
313686
442806
598094
725470
816478
884585
945258
1.009e+06
1.08176e+06
1.16318e+06
1.24975e+06
1.33222e+06
1.40417e+06
1.45546e+06
1.47909e+06
1.47795e+06
1.45449e+06
1.41772e+06
1.37897e+06
1.33941e+06
1.28526e+06
1.19223e+06
1.03736e+06
815839
561357
136278
97953.4
309658
372801
431877
484728
529262
563614
588130
602121
605379
595599
575796
553294
532570
522606
512738
492930
475872
475609
488256
509973
537930
570887
601847
633129
662821
672873
619517
451731
52601
21784.4
147765
227873
337873
469575
616776
770573
913557
1.03311e+06
1.12092e+06
1.17901e+06
1.20743e+06
1.20971e+06
1.18928e+06
1.1442e+06
1.08545e+06
1.02165e+06
949131
863247
753663
608507
420066
224273
141692
107913
89677.5
83466
81389.8
74451.1
1526.95
41767.7
227543
248733
253604
246632
233429
227421
235076
253007
276881
301560
314801
302578
45687.2
56136.3
217669
241213
261764
277083
292174
315316
350751
385313
408863
419634
423207
426149
427723
426998
424425
422716
425007
432313
441016
451684
462864
478377
497235
511794
502637
445695
338831
227579
45785
68646.4
230979
276067
330732
379860
407225
402591
372662
341082
348094
409996
491700
577999
666429
737792
777439
787760
774347
745329
715339
699047
703293
722887
752957
785982
808333
792614
693403
495758
63342
69980.2
342648
360754
395672
438263
484462
528302
566661
598608
627889
657849
696061
753548
835471
923271
971139
967007
923889
874624
844744
845949
872156
909240
956917
1.0158e+06
1.08071e+06
1.11757e+06
1.06166e+06
861262
134388
82836.2
320212
349084
434495
542945
644370
724291
784493
835097
887602
949952
1.02289e+06
1.10554e+06
1.19368e+06
1.28183e+06
1.36371e+06
1.43356e+06
1.47781e+06
1.50055e+06
1.4855e+06
1.44585e+06
1.36861e+06
1.27564e+06
1.18903e+06
1.11981e+06
1.05522e+06
952313
757978
489398
84107.9
65595.2
369681
404387
438151
468007
492885
521596
567260
638897
726960
811661
876704
916325
926994
896237
841724
771209
695892
637228
623777
669385
745309
824621
888055
926399
926099
865645
730898
547876
111107
64764.3
326193
381889
416526
437093
452795
469895
488462
503509
509776
508081
500734
491774
479372
467248
461538
461385
464675
467700
463613
446360
412688
368736
331585
329316
376416
461670
544968
580003
86190.1
135115
558123
575028
560885
548409
544583
545026
552105
576088
635470
725321
812220
862439
876229
872429
865854
863331
868315
883277
897841
895746
862844
794295
697347
596336
520676
485098
479165
470734
107069
123947
425448
426690
423022
455428
541465
666811
797739
899982
962982
985703
981088
963520
943655
930949
929700
937476
945987
946549
929792
890191
827048
744266
652766
564667
489642
430724
393008
369944
74452.9
109187
296046
306741
322583
386107
523763
688852
822202
902289
939583
955071
965189
977446
996995
1.02477e+06
1.06221e+06
1.10655e+06
1.15153e+06
1.18952e+06
1.21616e+06
1.23262e+06
1.2454e+06
1.25247e+06
1.2333e+06
1.14724e+06
974891
758915
573429
437099
131139
105928
271572
266819
289634
390203
547352
680664
763348
808286
837755
869848
914194
974896
1.04799e+06
1.12786e+06
1.20649e+06
1.27664e+06
1.32821e+06
1.35588e+06
1.36019e+06
1.3489e+06
1.3282e+06
1.31113e+06
1.30238e+06
1.29246e+06
1.25183e+06
1.14219e+06
945347
687288
153825
111400
389755
465440
536765
600749
657533
705395
740796
760928
765964
756861
733917
699733
663961
639559
619959
578052
530183
495202
465395
436941
417894
432502
478384
543697
616491
671204
655049
500077
50511.2
29918.6
186387
286473
414461
560080
714367
863297
989307
1.08163e+06
1.13583e+06
1.15862e+06
1.15245e+06
1.12698e+06
1.08937e+06
1.04615e+06
1.01201e+06
985542
956455
914005
842543
725611
547420
309656
172458
121424
94097.8
84459.5
83269.7
77575.5
1680.98
45572.2
240242
258700
259148
240656
210518
190508
196432
222925
262366
307955
350134
367717
54542.5
65993.9
253788
271690
285086
293124
307315
339223
387764
429757
453211
459593
458346
456347
447367
428844
401654
372061
349276
342855
352994
374473
402042
435326
471955
504657
512483
467786
365216
254197
52175
73968.6
271559
318087
374136
411907
415560
383712
335746
314305
361043
449078
538278
624461
708189
764592
783552
768778
722917
653351
582800
539506
541266
584640
653562
731020
797796
821695
751010
569019
67521.1
77078.6
390524
385035
400066
426595
462603
505193
550227
594707
637654
679804
731041
806661
913497
1.02088e+06
1.0674e+06
1.03629e+06
938489
820044
727806
694288
714576
771874
851464
948823
1.05798e+06
1.14576e+06
1.14269e+06
987425
147592
95913.8
344670
361381
446053
565859
681307
771131
833393
879588
922768
969117
1.01997e+06
1.07325e+06
1.12483e+06
1.17441e+06
1.2204e+06
1.26069e+06
1.28577e+06
1.29815e+06
1.2856e+06
1.25533e+06
1.19813e+06
1.13015e+06
1.06742e+06
1.0265e+06
999929
942345
789777
545119
94765.3
75903.9
456259
468880
478792
486179
496581
523813
584444
682625
797609
898933
968845
1.00466e+06
1.00718e+06
965151
892864
790061
659832
518301
415675
416171
513586
634662
747285
834144
879020
860954
763089
607783
115269
75080.1
392319
432571
451694
459786
469227
488469
518499
547963
561641
558209
545110
531770
518262
508527
510189
520427
537653
554455
559667
544425
503605
441877
371608
324786
343332
437644
559672
641564
89218
156533
645138
628208
592944
572207
568486
575121
595964
647098
745830
866614
949830
964206
928917
878335
829633
782499
738580
719975
744390
784180
800774
771593
694116
595134
515332
483576
494704
506565
110524
138539
492370
471683
472415
534741
659271
797817
906381
961197
963703
925702
861521
789236
719214
662447
632159
641773
683214
734326
771984
781171
756377
701496
627495
549335
479194
426755
401769
395598
78078.5
116451
342900
348324
376479
475473
644556
796383
885495
911713
897356
868471
839779
814731
797568
786816
784762
794565
825381
883087
953557
1.02395e+06
1.08612e+06
1.14112e+06
1.16835e+06
1.12269e+06
984056
790103
616858
483535
136611
111731
298322
292150
342686
482492
637355
733503
775195
786662
794270
814157
849831
897710
949055
1.00014e+06
1.05098e+06
1.10242e+06
1.14931e+06
1.1795e+06
1.19595e+06
1.20578e+06
1.21051e+06
1.22077e+06
1.23975e+06
1.2645e+06
1.26672e+06
1.20049e+06
1.03345e+06
780629
163448
125247
483090
566485
646528
721959
792477
847838
883812
903424
911159
909219
890422
845851
787364
743092
716726
667445
603138
546049
484616
407446
328106
304222
367428
476635
592248
678348
678247
516279
37939
37525.8
228831
339453
475497
623812
773445
907783
1.00994e+06
1.06938e+06
1.08418e+06
1.0613e+06
1.01062e+06
951885
901999
872451
875476
898182
919126
922401
890794
805731
646819
401528
201868
131518
99164.1
86911.6
84759.1
79225.2
1935.46
48214.5
244155
261533
260385
236526
198002
169975
172806
203181
252308
313636
382041
440022
65993.7
77555.7
295220
301770
302092
300091
311579
350164
408362
454816
477687
481829
480077
478082
464389
434542
391075
338734
290206
263765
272613
308321
355237
408279
461706
506260
520132
476799
374896
270743
58618.5
80122.1
319318
352604
395601
412301
390116
338338
290279
299133
378830
475633
564345
647263
724379
766899
769986
736196
664196
559684
455652
395958
407657
480727
585004
698495
797962
847877
792688
622499
67892.3
82711.9
435790
404845
396496
401341
421700
458363
507922
565974
626278
684437
748782
838433
964679
1.08686e+06
1.13407e+06
1.08746e+06
951042
773143
614043
539415
556858
642479
757979
894413
1.04278e+06
1.17228e+06
1.21113e+06
1.0932e+06
152051
107493
359739
366137
452284
580451
705028
800554
863438
906794
944850
981473
1.01164e+06
1.03043e+06
1.0377e+06
1.03616e+06
1.02805e+06
1.01971e+06
1.01618e+06
1.01818e+06
1.01831e+06
1.01217e+06
988792
960768
939635
938167
950040
925015
796503
578071
102126
88803.4
552144
533916
514545
493921
482649
500913
569127
687975
825039
940166
1.01549e+06
1.05316e+06
1.05699e+06
1.01864e+06
952124
858454
733912
583708
442146
381081
437488
547391
663613
765480
832047
836124
768657
647033
115890
87590.7
462357
483454
484022
475098
474315
494196
536979
583312
606262
602586
586636
572081
562493
561749
577505
604124
631865
651138
653971
633751
591653
529329
454779
387623
371098
449153
583412
693894
89384.1
180799
739515
682484
622573
591021
586716
600796
637226
717998
856201
996762
1.06739e+06
1.04404e+06
968223
887415
811912
729174
631545
551756
572029
661565
731699
737371
678171
587787
513269
490480
513421
524908
111305
156131
578822
537418
550128
642728
787139
919220
996652
1.01099e+06
973730
901288
806042
701750
597002
499368
431407
436941
504697
596647
673443
714667
714416
678556
616594
544358
477138
431826
416362
410380
79251.3
125853
409601
408146
458339
591086
764530
891121
940574
924288
873201
816237
764464
715144
667454
613399
550366
484123
469140
563238
703412
840605
953129
1.04519e+06
1.09953e+06
1.07495e+06
959491
792117
643207
519949
139082
117972
331087
332464
423794
583308
719216
781754
796887
790622
791045
806650
833227
857118
868715
863639
852326
845383
856818
891416
941532
1.00298e+06
1.0602e+06
1.1153e+06
1.16981e+06
1.22608e+06
1.26221e+06
1.2301e+06
1.08991e+06
846966
166327
140483
586889
670629
755196
836734
901908
939996
958737
973634
991949
1.01666e+06
1.02279e+06
981117
896279
822403
787694
737984
668677
601895
525126
425065
315322
264021
338933
477025
610483
696354
681917
499468
25260.5
44879
269867
382084
517765
661047
799594
915048
990218
1.01368e+06
985983
913655
813283
713289
652269
658192
721153
803272
871861
912279
912221
854195
715509
480061
229496
135625
101521
89570.6
86324.4
78371.7
3416.63
49290.6
238989
256973
258155
237167
203550
177584
174546
197562
244225
312873
405215
519291
76359.4
92329.2
333170
323709
308477
298197
306944
348807
410032
457634
481264
486367
487550
489480
477013
445386
397989
337990
275297
233555
237011
280883
343882
410511
472623
516039
523056
472355
371816
280231
66566
86338
368360
369474
392277
387503
346758
289527
258726
299853
390485
486782
570605
647360
716081
748043
741619
697483
610404
489505
375993
319863
345947
437783
562360
695434
809434
867981
815211
654376
65801.5
87384.1
476083
422796
390421
371288
372619
400333
453888
524110
599793
672261
746473
843148
980689
1.11247e+06
1.16276e+06
1.11128e+06
961325
753907
545315
428948
440868
552380
698083
864889
1.04356e+06
1.20385e+06
1.27146e+06
1.1785e+06
147769
115226
368262
368228
455383
586929
713182
807584
867401
909355
946969
979244
992314
979689
944106
891725
826829
759573
716173
710743
731706
759418
781156
803674
833994
876403
922834
909003
779720
594242
110767
101410
652116
582558
529985
481496
446130
446482
512560
645626
801993
930887
1.01289e+06
1.05747e+06
1.06972e+06
1.04464e+06
998375
936252
856041
756722
653738
578517
552037
585612
650722
724976
782936
794621
750910
664522
112932
101529
531581
528723
507329
477255
463065
482298
537649
602067
636340
636259
623213
615709
619597
639564
672096
697468
706663
697224
679996
651134
612663
565560
509818
452434
426649
487092
617443
740480
94510.4
208309
842044
733409
645268
603042
599456
621391
671150
779175
954147
1.10944e+06
1.16634e+06
1.11609e+06
1.02119e+06
932093
849074
753896
630452
507249
494479
609005
699026
713249
660906
581419
521151
511756
536317
531166
110404
178538
682974
609856
641355
761683
915259
1.02914e+06
1.08089e+06
1.07248e+06
1.02242e+06
946663
854316
753398
648286
546466
474385
468879
528031
612640
685429
724540
724419
688596
626071
552555
486700
447634
434278
414483
81610.5
141725
489624
477207
559100
718312
882699
981195
1.00328e+06
962364
893726
828778
774235
722444
669353
603055
516777
415476
387916
487264
636137
782810
904335
1.00087e+06
1.04995e+06
1.02156e+06
914960
776693
655233
541719
138386
128971
376723
396073
529705
691298
800598
842312
846654
838034
839410
854217
870133
867909
838250
777143
700386
618576
552842
556640
642333
785470
917674
1.02559e+06
1.11612e+06
1.19929e+06
1.25909e+06
1.25123e+06
1.12321e+06
873025
161034
156408
693075
767304
848901
918297
953270
950304
933155
934106
969042
1.04225e+06
1.10126e+06
1.08694e+06
983133
868474
823067
777744
708313
641175
567832
478020
389636
358297
421469
541292
653959
708752
660886
459700
21104.8
51157.6
303662
409916
539188
673650
799504
896349
946666
943094
881777
765343
613389
459531
387883
472990
612983
747636
848211
909562
924937
881517
756598
536198
260478
134953
101376
92325.3
89810.4
81577.1
10444.9
48899.7
224865
246427
254395
244446
224914
209297
205279
217438
255748
328867
448283
621275
626397
120161
119772
392545
419691
383961
340221
308784
304306
337776
393250
439153
464794
474198
482069
490813
486079
462468
423752
372718
317722
279258
277842
315895
377278
444323
502872
536410
527710
463553
369048
305068
261523
94711.2
104552
410034
420447
384392
377666
351462
301234
251696
246331
303746
392854
482254
556994
624243
684672
714331
705424
659667
573926
462457
362346
321665
360079
456063
583117
714303
821739
870642
808835
653219
349811
93455.2
99291
382286
493618
432244
385189
352182
341841
361716
415807
489372
569566
647261
723475
818559
957671
1.09605e+06
1.15572e+06
1.10896e+06
968641
772387
566424
432519
421537
528198
681825
863385
1.05938e+06
1.23598e+06
1.31657e+06
1.23284e+06
684287
113069
106055
388656
356002
353982
453768
585858
705460
790592
843006
884121
927379
962347
965320
932917
870283
790376
692694
590920
516583
500460
530802
583513
646022
711461
784010
862442
924338
890493
748920
610751
484933
118689
140409
715183
752546
621835
532127
456014
394930
370291
423634
561891
731549
871865
960662
1.01611e+06
1.04418e+06
1.03865e+06
1.01436e+06
983755
948361
902323
845822
781565
722887
689713
686303
704532
727206
731827
706421
653626
439701
107361
120789
488298
594328
567717
521256
466800
434488
448693
512782
594499
644405
654649
653346
664496
697071
745521
782936
786910
757376
698974
636814
584570
552058
530639
510940
487095
480129
532331
648324
762540
550242
168283
258827
939643
944653
782196
661362
604766
602578
631437
689006
817199
1.02481e+06
1.19872e+06
1.25321e+06
1.19423e+06
1.10406e+06
1.0294e+06
966423
895085
801899
704847
663676
703888
739062
723404
663259
592767
545656
534545
538010
519935
373486
187113
259822
947276
838261
726500
751346
874563
1.02377e+06
1.12625e+06
1.1659e+06
1.15228e+06
1.11212e+06
1.05837e+06
996932
931996
866629
804237
758439
739186
752591
781681
804061
804016
775205
720124
645485
565975
500371
459608
439860
417152
315161
165163
204633
705976
641420
607565
688320
842224
991449
1.07092e+06
1.07854e+06
1.02821e+06
960828
906642
868079
839730
814477
784273
742221
699660
687108
718490
789300
874557
949978
1.00549e+06
1.01798e+06
968886
868004
753154
646136
535914
380289
152243
177460
541645
492687
522238
653076
794723
886522
921138
924675
923028
933388
953480
966252
955019
909436
827560
727281
610094
501080
477106
556829
717873
872715
1.00127e+06
1.10999e+06
1.20631e+06
1.27026e+06
1.26556e+06
1.13488e+06
876791
513579
151675
174001
640874
790088
848205
912990
953078
937839
869656
792929
769020
837620
979032
1.11154e+06
1.14611e+06
1.03817e+06
874877
815816
779571
716264
655918
601453
543804
499040
495572
543979
626644
696028
704436
616684
420451
189359
66786.4
75780.9
228512
332142
424924
542593
665481
778527
861754
898225
884734
812625
683423
514008
336002
277960
441631
613835
758927
861297
921997
935483
891028
770923
565689
295845
131485
99249.4
101642
108394
108615
86066.7
7946.89
2520.32
47342.1
203902
229998
247917
252995
250350
248444
251849
264309
291359
351252
463910
644702
854990
803251
736034
678450
592789
486130
387985
321109
299713
320890
363761
403981
431983
448689
465926
484872
493397
486218
465902
435644
401934
378015
376218
403307
450759
503247
545177
561316
534118
459244
372658
323756
312704
315023
388288
528339
436132
375335
347095
309521
261577
229271
245844
307133
387450
464407
524800
579887
635405
668379
665376
630494
564202
482006
414143
392441
432420
516990
627375
738009
821195
845305
767396
612760
430464
285591
268386
460756
479535
425758
382932
354489
348173
368464
417605
480171
547365
615225
682672
767185
899557
1.04218e+06
1.1184e+06
1.09595e+06
989395
833498
664942
543055
512308
582781
714988
887781
1.08216e+06
1.25901e+06
1.34133e+06
1.26607e+06
901822
461729
376068
414916
325439
364559
468129
586974
686857
752606
793054
833459
886159
931733
939289
902266
837894
764133
679268
593785
525895
497064
508173
548766
614313
698140
800558
907132
971863
926762
826555
799153
828265
866706
903798
937336
733798
592641
501397
426013
358329
316430
344736
465564
631371
775167
868021
933615
981339
999570
996668
987797
977550
961251
933973
889894
833187
769959
718586
683840
663415
648582
632198
612716
550251
424159
476842
617561
627934
584969
519316
444252
393428
398306
464141
557186
622536
649676
667036
708495
781633
857815
901394
894101
849472
774854
685979
598569
544560
519609
518656
520078
529579
571755
665201
755163
708161
607298
900314
1.17476e+06
1.00489e+06
807277
660133
590529
593311
625962
680754
816639
1.05316e+06
1.25792e+06
1.32775e+06
1.28271e+06
1.21732e+06
1.17522e+06
1.15715e+06
1.13545e+06
1.09955e+06
1.03724e+06
971471
913558
858711
789255
708228
635777
586656
561081
544755
537704
618663
902434
1.14609e+06
1.19843e+06
938381
818212
833668
954759
1.10033e+06
1.20162e+06
1.24172e+06
1.23739e+06
1.21665e+06
1.19516e+06
1.17696e+06
1.16135e+06
1.14591e+06
1.12967e+06
1.10325e+06
1.07172e+06
1.03747e+06
1.00251e+06
960068
904934
834386
752008
664065
585726
529212
495320
484960
497236
576020
744707
892761
920525
766592
723459
791595
929940
1.06955e+06
1.148e+06
1.15571e+06
1.11091e+06
1.05777e+06
1.02437e+06
1.01427e+06
1.02249e+06
1.03997e+06
1.05511e+06
1.06479e+06
1.06268e+06
1.04674e+06
1.03429e+06
1.0341e+06
1.0431e+06
1.04844e+06
1.03947e+06
999788
921709
818848
713313
612238
517236
470586
534084
652233
688879
597753
627401
743560
872289
961759
1.0029e+06
1.01616e+06
1.02964e+06
1.05709e+06
1.09434e+06
1.12188e+06
1.1261e+06
1.09686e+06
1.03943e+06
965258
883145
811903
773803
791164
867224
966397
1.06762e+06
1.16264e+06
1.2469e+06
1.29639e+06
1.2768e+06
1.12994e+06
862702
563995
352195
467090
767497
835697
890698
940909
950003
882024
738664
583860
530879
656406
873227
1.07326e+06
1.15846e+06
1.05736e+06
842659
767154
745496
694683
645509
613351
592288
586731
603859
639711
685406
707931
672259
557405
394910
270417
218122
225917
279674
335635
414497
522905
637866
743445
822570
858048
850286
793798
695777
582544
496944
507015
605649