/*--------------------------------*- C++ -*----------------------------------*\
| =========                 |                                                 |
| \\      /  F ield         | OpenFOAM: The Open Source CFD Toolbox           |
|  \\    /   O peration     | Version:  2.1.1                                 |
|   \\  /    A nd           | Web:      www.OpenFOAM.org                      |
|    \\/     M anipulation  |                                                 |
\*---------------------------------------------------------------------------*/
FoamFile
{
    version     2.0;
    format      ascii;
    class       volScalarField;
    location    "0.004950000";
    object      fH;
}
// * * * * * * * * * * * * * * * * * * * * * * * * * * * * * * * * * * * * * //

dimensions      [0 0 0 0 0 0 0];

internalField   nonuniform List<scalar> 
12384
(
0.0351807
0.0335285
0.0321489
0.0312112
0.0307345
0.0306678
0.0309333
0.0315285
0.0325117
0.0340162
0.0358511
0.0366755
0.0335247
0.025806
0.0224622
0.0229835
0.0231573
0.0232224
0.0233256
0.0235368
0.0237767
0.0240308
0.0241906
0.0242671
0.0242794
0.0242276
0.0241817
0.0240591
0.0239995
0.0239029
0.0238656
0.023791
0.023768
0.0237185
0.0236978
0.0236677
0.0236515
0.0236359
0.0236146
0.0235967
0.0232525
0.0223426
0.0234657
0.0238015
0.0301408
0.0305818
0.0306195
0.0305133
0.0301266
0.0294621
0.0292521
0.0301048
0.0313092
0.032057
0.0321466
0.0319837
0.0318343
0.0317127
0.0318834
0.0315827
0.0317636
0.0314316
0.0314808
0.0313363
0.0312603
0.0311477
0.0312116
0.0310528
0.0310382
0.0309408
0.0307
0.0295901
0.0263308
0.0247123
0.0312521
0.0307571
0.0297233
0.028882
0.0282996
0.0279945
0.0279332
0.0278752
0.0279966
0.0282212
0.0287514
0.0289877
0.0295552
0.0298761
0.0302128
0.0303331
0.0303844
0.0302738
0.0301319
0.029922
0.0297133
0.0295395
0.0294144
0.0292385
0.0291799
0.0289795
0.0287719
0.0286131
0.0281367
0.0279171
0.0330741
0.0338736
0.0336229
0.0333157
0.0330963
0.0329549
0.0328327
0.032735
0.0326072
0.0325049
0.0323491
0.0321775
0.0321985
0.0318501
0.0319034
0.0316826
0.031556
0.0315246
0.0313119
0.0313045
0.0311487
0.0310781
0.0309601
0.0308803
0.0308892
0.0308658
0.0291735
0.0271368
0.0272963
0.0274818
0.0309932
0.0321622
0.0334448
0.0350779
0.0358628
0.0362925
0.0364885
0.0365194
0.0365832
0.0365681
0.0365764
0.0365957
0.0366344
0.0366748
0.0367181
0.036766
0.0367888
0.0368404
0.0368653
0.0368841
0.0368861
0.0368755
0.0368637
0.0368286
0.0368098
0.0367057
0.0364185
0.034606
0.0300471
0.0292311
0.0300538
0.0329081
0.0332699
0.0307903
0.029935
0.0292793
0.0285253
0.0279759
0.0275933
0.02722
0.0268177
0.0264101
0.0260034
0.0256464
0.0253617
0.0251608
0.0250239
0.0249631
0.0249904
0.0251016
0.0253213
0.0256076
0.0259324
0.0262746
0.0266268
0.0270002
0.0274394
0.0278955
0.0279877
0.0278054
0.0244009
0.0254644
0.0298596
0.0337383
0.034692
0.0345555
0.0341722
0.0337652
0.0338688
0.0336104
0.0341768
0.0340315
0.0345725
0.0343985
0.0345485
0.0348797
0.034594
0.0341931
0.0340995
0.0336222
0.0334478
0.0329113
0.0324959
0.0322107
0.0321204
0.0325603
0.0334852
0.0344119
0.0343939
0.0336106
0.0261046
0.0262966
0.0274851
0.030341
0.0337171
0.0370203
0.038786
0.0391767
0.0392195
0.0389672
0.0387432
0.0384005
0.038187
0.0378909
0.0376227
0.0372976
0.037004
0.036762
0.0366661
0.0367098
0.0368506
0.0371688
0.038321
0.0405002
0.0430351
0.0455514
0.046894
0.0473012
0.0461991
0.0442775
0.026589
0.0267484
0.0273534
0.0283662
0.0296268
0.0307469
0.0316835
0.0323916
0.0329526
0.0333249
0.033662
0.0339906
0.0342215
0.034525
0.0347723
0.0350557
0.0353069
0.0356859
0.0360775
0.036499
0.0370138
0.0375546
0.0379548
0.0378448
0.0375332
0.0374546
0.0374169
0.0372936
0.0371433
0.0370699
0.0331439
0.0352873
0.0378073
0.0396518
0.040872
0.0416873
0.0422333
0.0424743
0.0428301
0.0429157
0.0432853
0.0430492
0.0433296
0.0431533
0.0432346
0.0431874
0.0433739
0.0432515
0.0434069
0.0434134
0.043438
0.04319
0.0427643
0.0415597
0.039143
0.038384
0.0392538
0.039899
0.0401007
0.0401002
0.026126
0.0346804
0.0432972
0.0425192
0.0387053
0.0361009
0.0342383
0.0330354
0.032517
0.0324652
0.0325733
0.0326879
0.0328408
0.0329928
0.0332609
0.0335135
0.0338877
0.034153
0.0342821
0.0342715
0.0342785
0.0338199
0.0338764
0.0338323
0.0338683
0.0343081
0.0357982
0.0379292
0.0302925
0.0185762
0.0169772
0.0168712
0.0168568
0.0172664
0.0183443
0.022297
0.0388324
0.0579646
0.0578286
0.0561424
0.0552845
0.054783
0.0544037
0.0540995
0.0538137
0.0532631
0.0528546
0.0518442
0.0506448
0.0487223
0.0469173
0.04479
0.0439046
0.0436033
0.0420032
0.0387625
0.0325628
0.0242305
0.0184798
0.0176495
0.0280758
0.0267483
0.0260617
0.0259983
0.026163
0.0264461
0.026517
0.0266847
0.0271529
0.0288932
0.0321343
0.0354488
0.0347668
0.0278776
0.022457
0.0231236
0.0233088
0.0235698
0.0241212
0.0247206
0.0251302
0.025323
0.0253786
0.0252532
0.0250381
0.0247533
0.0244751
0.0242406
0.0240574
0.0239141
0.0238173
0.0237611
0.0237215
0.0236905
0.0236661
0.023639
0.0236337
0.0236468
0.0236469
0.0236355
0.0234773
0.0228129
0.0222895
0.0221816
0.0300265
0.0303637
0.0301122
0.0298647
0.0293579
0.0293679
0.0307605
0.0325148
0.0328723
0.0319189
0.0301268
0.029589
0.0295577
0.0299792
0.030053
0.0299327
0.0295853
0.0292867
0.0289583
0.0287595
0.02866
0.0286251
0.0287804
0.029058
0.0294924
0.0299664
0.0303128
0.0300515
0.0284482
0.0267049
0.0311859
0.0302358
0.0289332
0.0280697
0.0276493
0.0276069
0.027707
0.0285098
0.0298046
0.0312571
0.0322796
0.0331014
0.0334981
0.0336593
0.0336023
0.0331221
0.0327039
0.032081
0.0314516
0.0308808
0.030378
0.0299776
0.0296683
0.0294871
0.0293358
0.02933
0.0290736
0.0288443
0.0285178
0.028274
0.0332269
0.0340328
0.0337059
0.0334994
0.0334709
0.033351
0.0332171
0.0330564
0.0329044
0.0325978
0.0322912
0.0319014
0.0315872
0.0312509
0.0310078
0.0308594
0.0307551
0.0306886
0.0306528
0.03064
0.0306202
0.0306581
0.0305988
0.0305675
0.0306415
0.0307774
0.0301689
0.0283518
0.0274762
0.0277268
0.0311802
0.0326346
0.0342768
0.0359867
0.0367152
0.0369866
0.036964
0.0369218
0.0369263
0.0369385
0.0369449
0.0369338
0.0369385
0.0368921
0.0368562
0.036799
0.0367452
0.0367145
0.0367104
0.0367559
0.0368333
0.0369268
0.0370217
0.0370848
0.0370855
0.0369494
0.0366484
0.0356759
0.0327945
0.0308979
0.0313633
0.0333369
0.0321243
0.030037
0.0289185
0.0286787
0.0291259
0.0291897
0.0285659
0.0275374
0.0265302
0.0258343
0.0252829
0.024891
0.0245376
0.0242003
0.0239226
0.0236822
0.0235771
0.0236419
0.0238701
0.0243498
0.0250372
0.0258074
0.0265213
0.0271056
0.0275809
0.0279954
0.0281226
0.0278943
0.0289444
0.0316073
0.034545
0.0351425
0.0348274
0.0341593
0.0339799
0.0346946
0.0356439
0.0365484
0.0370256
0.0375679
0.0379119
0.0382547
0.0385706
0.0387762
0.0389676
0.0388686
0.0385845
0.0378096
0.036802
0.0354799
0.0341512
0.0330499
0.032338
0.0322371
0.03273
0.0337228
0.0343769
0.0339778
0.0349285
0.036906
0.0382666
0.0387062
0.0384008
0.0374354
0.0362882
0.0352101
0.0342824
0.033556
0.0330216
0.0326589
0.0325384
0.0325637
0.0328176
0.033183
0.0337052
0.0343252
0.0349972
0.0356438
0.0361823
0.036607
0.0372762
0.0384845
0.0399206
0.0414345
0.043333
0.0454502
0.046893
0.0457976
0.0279792
0.0283861
0.0302128
0.0323809
0.0337641
0.0340776
0.033968
0.0335011
0.0329715
0.0324503
0.0320561
0.0317732
0.0316508
0.0316867
0.0318636
0.0322708
0.032789
0.033525
0.034353
0.0352454
0.0361208
0.0369351
0.0376016
0.0378439
0.037693
0.0374972
0.0373808
0.0371461
0.0369038
0.0366924
0.0347135
0.0366925
0.0387656
0.0406426
0.0418025
0.0422713
0.0423551
0.0420337
0.0416422
0.0411654
0.0409656
0.040734
0.0407584
0.0408911
0.041056
0.0414054
0.041728
0.0420891
0.0424408
0.0427633
0.0430212
0.0430383
0.0428349
0.042313
0.0409502
0.0389966
0.0383861
0.0390904
0.039154
0.039246
0.0334228
0.0403042
0.0425752
0.0379892
0.0333198
0.0315178
0.0314002
0.0323821
0.0338392
0.0350945
0.0359251
0.0365794
0.037215
0.0378623
0.0388803
0.0399437
0.0410069
0.0416429
0.0418231
0.0418277
0.0413204
0.0406037
0.0393047
0.0377789
0.0361695
0.035329
0.0357756
0.0376312
0.0343415
0.0243349
0.0166946
0.0176382
0.0213956
0.0270521
0.0358896
0.040002
0.0522423
0.0583061
0.0575275
0.0567996
0.0568361
0.0571048
0.057338
0.0574947
0.0574689
0.0576032
0.0574257
0.0574645
0.0568743
0.0555191
0.0524144
0.0472998
0.0409297
0.0404306
0.04265
0.0446124
0.043122
0.0338354
0.0222132
0.0177817
0.0258458
0.0254807
0.0256997
0.0267865
0.028242
0.0290785
0.0289389
0.027908
0.026784
0.0267903
0.0286351
0.0329466
0.0348406
0.0295182
0.0225627
0.0234548
0.0239851
0.0246358
0.0253996
0.0260024
0.026513
0.0265416
0.0262385
0.0257536
0.0252174
0.024694
0.0244052
0.0242243
0.0241597
0.0241456
0.0242344
0.0242529
0.0243547
0.0243155
0.0243252
0.0242375
0.0241337
0.0240034
0.0238732
0.0237463
0.0236101
0.0232235
0.0221231
0.0216349
0.0299235
0.029581
0.0287824
0.0287533
0.0289943
0.0304879
0.0326808
0.0332926
0.0307498
0.0284355
0.0265295
0.0266098
0.0279925
0.0288926
0.0287609
0.0283274
0.0277798
0.0274419
0.0271227
0.0269682
0.0269379
0.0268776
0.0269231
0.0271314
0.0275715
0.0283011
0.0292065
0.0297856
0.0293512
0.0278356
0.0310345
0.0295998
0.0282146
0.027641
0.0275291
0.0281059
0.0294829
0.0316075
0.0336313
0.0348501
0.0350009
0.0348135
0.0349453
0.0346646
0.0340271
0.033043
0.0318472
0.0309217
0.0301879
0.0296138
0.0291701
0.0288524
0.0285948
0.0285967
0.0287302
0.0290399
0.0291843
0.0290994
0.0288072
0.0284713
0.0333706
0.034262
0.0340344
0.0339201
0.033531
0.0331264
0.0329457
0.0328092
0.0325049
0.0320494
0.0313859
0.0308801
0.0303112
0.0299958
0.0296862
0.0295091
0.0294158
0.0293964
0.0294943
0.0295694
0.0298034
0.0299797
0.0301423
0.0302094
0.0303226
0.0305382
0.030481
0.0294039
0.0281701
0.0279223
0.0314127
0.0332611
0.0352574
0.0367707
0.0371953
0.0371973
0.0371774
0.0372215
0.0373117
0.037436
0.0375298
0.0375355
0.0374338
0.0371654
0.0367925
0.0364338
0.0361603
0.0359891
0.0359501
0.036035
0.0361925
0.0363397
0.0365191
0.0367591
0.0370275
0.0371213
0.036933
0.0363115
0.0345456
0.0321413
0.0320639
0.0328319
0.0309567
0.0301181
0.0311098
0.0330335
0.0330421
0.0307387
0.028252
0.0267062
0.0261846
0.0262665
0.0270881
0.0276053
0.0277929
0.0273819
0.0266591
0.0257841
0.0249199
0.0242623
0.0239806
0.0241619
0.0248695
0.0259105
0.0268449
0.0274745
0.0279056
0.0282282
0.0283177
0.0279858
0.0317419
0.0348206
0.0361615
0.0354236
0.0343361
0.034546
0.0363449
0.0376708
0.0377745
0.0377838
0.0373556
0.0374848
0.037603
0.0380491
0.0385251
0.0391299
0.0396144
0.0402586
0.0405282
0.0407806
0.0401719
0.0389256
0.0371769
0.0351293
0.0333181
0.0323223
0.0322688
0.0329956
0.0340719
0.0340944
0.0377848
0.0388347
0.0384374
0.03673
0.0345683
0.0327671
0.0313269
0.0302999
0.029615
0.0291889
0.028884
0.0287808
0.0287224
0.0288165
0.0290305
0.0294762
0.0301348
0.0310594
0.0321972
0.0334214
0.0345849
0.0355067
0.0361992
0.0369675
0.037802
0.038993
0.040491
0.0430343
0.0456903
0.0459931
0.0283325
0.0305897
0.0339074
0.0345771
0.0332568
0.0314208
0.0299827
0.0290393
0.0285055
0.0282003
0.028093
0.0280166
0.0280942
0.0280982
0.0282606
0.0285375
0.0289138
0.0296447
0.0306634
0.0320419
0.033599
0.0351498
0.036494
0.0374217
0.037678
0.0375292
0.0373947
0.0373146
0.0370281
0.0365836
0.0351867
0.03709
0.0409222
0.0426159
0.0422854
0.0410021
0.0394009
0.0379692
0.0366323
0.0360075
0.035101
0.0351027
0.0347731
0.0350897
0.0356211
0.0363142
0.0372938
0.0384432
0.0395805
0.0406318
0.0414999
0.0421065
0.0423965
0.0423313
0.0418342
0.0405512
0.039058
0.0383231
0.0380652
0.0384182
0.0390372
0.0418887
0.038162
0.0328534
0.0314382
0.0330623
0.0355861
0.0377958
0.0390439
0.0396509
0.0403022
0.0410436
0.0419246
0.0428583
0.0438104
0.0445109
0.0448043
0.0445655
0.0439068
0.0433546
0.0432556
0.0435761
0.0434637
0.0427253
0.0406183
0.0381369
0.0368559
0.0377426
0.0365302
0.0283289
0.017182
0.0227407
0.0349625
0.0436238
0.0498971
0.0545327
0.0583856
0.0582799
0.0575531
0.0572316
0.0569602
0.0564999
0.0559147
0.0555134
0.0554867
0.0557911
0.0564805
0.0572257
0.0580966
0.0586187
0.058323
0.0559425
0.0473709
0.036184
0.034089
0.0385676
0.0420994
0.0376682
0.0250566
0.0179903
0.0253443
0.0255287
0.0274367
0.0304844
0.0322456
0.0325147
0.0321862
0.0309918
0.0287181
0.0268673
0.0272952
0.0307717
0.0343691
0.0302902
0.0227681
0.024046
0.0248976
0.0256896
0.0265807
0.0274207
0.0278691
0.0274826
0.0266566
0.0258657
0.0250415
0.02457
0.0243833
0.0243889
0.0244678
0.0246602
0.0248138
0.0249712
0.0250268
0.0250383
0.0249568
0.0248831
0.0247473
0.0245565
0.024289
0.0239934
0.0237519
0.0234507
0.0223819
0.0215538
0.0297076
0.0285094
0.0276408
0.0280471
0.0295762
0.032008
0.0337056
0.0324589
0.0286697
0.0259649
0.0244086
0.025291
0.0277702
0.0284581
0.0278504
0.0272897
0.0267931
0.0267055
0.0266373
0.0267261
0.0267024
0.0266253
0.0265294
0.0264662
0.0265561
0.0270192
0.0279515
0.0290844
0.0294617
0.0284554
0.030872
0.0291195
0.0279294
0.027693
0.0282194
0.0299649
0.032595
0.035111
0.0359365
0.0353477
0.0343056
0.033858
0.0338369
0.0333322
0.0319089
0.0305797
0.0296405
0.0289982
0.028585
0.0283166
0.02809
0.0278654
0.0277708
0.0277075
0.0278675
0.0283319
0.0289006
0.0291768
0.0289747
0.0285946
0.0334781
0.0344903
0.0342945
0.0336947
0.0324874
0.0321089
0.0322137
0.0322268
0.031793
0.0311907
0.0304542
0.0299761
0.0295829
0.0293582
0.0292566
0.0290509
0.0289714
0.0289047
0.0288876
0.0289219
0.0291219
0.0293653
0.0296915
0.0298622
0.030006
0.0302378
0.0304224
0.0299253
0.0288538
0.0282276
0.0316422
0.0338955
0.0360065
0.0372
0.0375115
0.0374781
0.0374594
0.0373407
0.0372653
0.0374987
0.0379647
0.0382815
0.0382863
0.0378103
0.0369687
0.0361784
0.0356355
0.0354628
0.0355265
0.0358112
0.0360877
0.0362661
0.0363669
0.0364889
0.0367865
0.0370796
0.0370853
0.0366457
0.0353991
0.0329356
0.0323224
0.032271
0.0312807
0.0327814
0.0356615
0.0358043
0.031518
0.0278348
0.0264345
0.0266872
0.0288155
0.0321813
0.0346423
0.0358412
0.0359299
0.0350192
0.0334012
0.0315074
0.0295081
0.0275059
0.0257983
0.024922
0.0250838
0.025947
0.0268365
0.0274256
0.0279197
0.0283536
0.028492
0.0280706
0.0335822
0.0363482
0.0362923
0.0349765
0.0352468
0.0373233
0.0380719
0.0373053
0.0360605
0.0351
0.035029
0.0356252
0.0364184
0.0374998
0.0383179
0.0389652
0.0394189
0.0398807
0.0403405
0.0409455
0.041515
0.0412829
0.0399805
0.0376506
0.0349103
0.0328214
0.032204
0.0325365
0.033705
0.0340679
0.038623
0.0385434
0.0357783
0.0324916
0.0302074
0.028848
0.0281692
0.0277432
0.0276405
0.0276018
0.027647
0.0277483
0.0277686
0.0277171
0.0276566
0.0277131
0.0279877
0.0286339
0.0296606
0.0310401
0.0325561
0.0339312
0.0349593
0.0357297
0.0364134
0.0372243
0.0385759
0.0407044
0.0442774
0.0457855
0.0294962
0.0342237
0.0342576
0.0315381
0.0292079
0.0281201
0.0277133
0.0276063
0.0276787
0.0278436
0.0280151
0.0281537
0.0282322
0.0282882
0.0282918
0.0282607
0.0282331
0.0282323
0.0285127
0.029339
0.0307934
0.032678
0.0346307
0.0362542
0.037187
0.0374047
0.0372898
0.037224
0.0370675
0.0365461
0.0355313
0.0401034
0.0431084
0.0417962
0.0392846
0.0368381
0.0347889
0.0332321
0.0319296
0.0310817
0.0304762
0.0299281
0.030024
0.0298938
0.0301379
0.031008
0.0320501
0.0335709
0.0354685
0.0372686
0.0389642
0.0402767
0.0411358
0.0415966
0.0416537
0.0411312
0.0400206
0.0388355
0.0379326
0.0380663
0.0417381
0.03961
0.0336916
0.0315289
0.0337525
0.0371542
0.039264
0.040004
0.0402694
0.0406335
0.0412708
0.0422007
0.0432794
0.0442407
0.0449119
0.0450261
0.0436021
0.0407414
0.0376858
0.0358054
0.0355258
0.0374669
0.0404516
0.0428792
0.0432025
0.0411415
0.0387702
0.0384505
0.0376682
0.0305391
0.018755
0.0321076
0.047894
0.0539145
0.0576022
0.059214
0.0588198
0.0579951
0.0571053
0.056046
0.0545505
0.0528618
0.0515273
0.0508341
0.0508964
0.0516679
0.0526599
0.054103
0.0554074
0.0570033
0.0585748
0.0593032
0.0573099
0.0435365
0.0333048
0.0358265
0.0399811
0.037897
0.0262975
0.0180769
0.0251945
0.0263662
0.0302866
0.0332121
0.0333599
0.0325114
0.0316383
0.030916
0.0293293
0.0271553
0.0268076
0.0295548
0.0337575
0.0306108
0.0231138
0.0248093
0.0258007
0.0266977
0.0278488
0.0288189
0.0290297
0.0283738
0.0270622
0.0258442
0.0249522
0.0246317
0.0246233
0.0246885
0.0249116
0.0251524
0.0254766
0.0256874
0.0258451
0.0257132
0.0254782
0.0252196
0.0250787
0.0249491
0.0247263
0.0243347
0.0239362
0.0235514
0.02262
0.0216838
0.0294635
0.0279361
0.0272694
0.0281912
0.0306457
0.0332681
0.0341833
0.0322483
0.0284798
0.0249261
0.023436
0.0249649
0.0279272
0.0280461
0.0270703
0.0268269
0.02674
0.0270946
0.0273191
0.0274449
0.027358
0.027168
0.026904
0.0266189
0.026367
0.0264039
0.0270644
0.0283415
0.0293164
0.0287022
0.0307499
0.0288955
0.0280104
0.0282834
0.0299131
0.0328141
0.0357181
0.036982
0.0363279
0.0342233
0.032084
0.0323655
0.0327758
0.0315799
0.0299766
0.0289832
0.0285348
0.0283921
0.0283201
0.0281741
0.0279522
0.0276824
0.0274602
0.0272656
0.0272909
0.0277344
0.0285175
0.0291134
0.0290667
0.0286688
0.0334706
0.0347052
0.0342534
0.0326722
0.0312564
0.0314325
0.0318584
0.0317517
0.0311118
0.0304562
0.029834
0.0296416
0.0295145
0.0295795
0.0296477
0.0296347
0.029542
0.0293434
0.0291863
0.0288762
0.0289345
0.0289848
0.0293621
0.029596
0.0297701
0.0300066
0.0301986
0.0300324
0.0292447
0.0284397
0.0318189
0.0344133
0.0365213
0.0375714
0.0378195
0.0378218
0.0375343
0.036966
0.036528
0.0366421
0.037536
0.0386764
0.0389722
0.0384638
0.0370617
0.0357502
0.0350526
0.0350251
0.0354714
0.0359573
0.036256
0.0364069
0.0364522
0.0364557
0.0366371
0.0369527
0.0371108
0.0368063
0.0357595
0.0333736
0.0323846
0.0322079
0.0329051
0.036412
0.0378469
0.0336646
0.0285782
0.0270196
0.027922
0.0316193
0.035904
0.0392946
0.0408603
0.041332
0.040967
0.0401858
0.0384459
0.0359822
0.0334299
0.0310509
0.0286192
0.0265679
0.0256884
0.0258704
0.0263484
0.0268399
0.0275446
0.0283295
0.0286107
0.0281347
0.0348823
0.0370073
0.0360997
0.0358961
0.0376184
0.0379342
0.0366213
0.0348842
0.034009
0.0340688
0.0349314
0.0362576
0.0376405
0.0388707
0.0397949
0.0405425
0.040894
0.0408766
0.0407614
0.0409012
0.0415758
0.0421376
0.0416704
0.0396036
0.0364438
0.0334157
0.0322667
0.0323355
0.0334804
0.0339914
0.038767
0.0362147
0.0317901
0.0291031
0.028012
0.0275919
0.0274054
0.0275369
0.0278281
0.0282196
0.0285118
0.028662
0.0286157
0.0283808
0.028072
0.027709
0.0275041
0.0275436
0.0280757
0.0291947
0.0307119
0.0322945
0.0336186
0.0346302
0.0354502
0.0363019
0.0375914
0.0400216
0.0435734
0.0453952
0.0315133
0.0350679
0.0307018
0.0287775
0.0282634
0.0283238
0.0285349
0.0287379
0.0288909
0.0289757
0.0289857
0.028923
0.0288251
0.0287779
0.0288023
0.0288431
0.0288002
0.0286483
0.0284235
0.0284195
0.0291077
0.0305973
0.0326352
0.0346919
0.0362189
0.036906
0.0369404
0.0368676
0.0368607
0.0364464
0.0369539
0.0427175
0.0419497
0.0387369
0.0359842
0.0338445
0.0320503
0.0306947
0.0295298
0.0287739
0.0281166
0.0277516
0.0273766
0.027336
0.0274198
0.0276586
0.0283533
0.0295866
0.0314929
0.0337784
0.036055
0.0379821
0.0393681
0.0401824
0.0406879
0.0407746
0.0402231
0.0392378
0.0380263
0.0378772
0.0412957
0.036119
0.0317722
0.0331604
0.0371335
0.0394055
0.0398844
0.0396902
0.0395645
0.0398032
0.0404279
0.041525
0.0429682
0.044306
0.0449259
0.0440898
0.0399897
0.0348857
0.0304243
0.0286209
0.0279221
0.0294474
0.0342037
0.0399894
0.0432702
0.0428948
0.0405746
0.0393977
0.0383903
0.0314525
0.0215086
0.041446
0.0548841
0.0585086
0.0597995
0.0595193
0.0585351
0.0571989
0.0555046
0.0531645
0.0504599
0.0480804
0.0465664
0.0460152
0.0465866
0.0477947
0.0495403
0.0514616
0.0529496
0.0546696
0.0564414
0.0587265
0.0599326
0.054008
0.0360358
0.0349749
0.0382487
0.0368779
0.0260972
0.0179427
0.0250816
0.0276249
0.0327325
0.0337397
0.0317761
0.0297856
0.0285746
0.0281588
0.0277651
0.026682
0.026515
0.0290158
0.0333721
0.0306999
0.0234935
0.0255325
0.0265951
0.0276719
0.0290395
0.0298249
0.0298576
0.0291552
0.0273607
0.025828
0.0249723
0.0248182
0.0248446
0.0249373
0.0251821
0.0256363
0.0262048
0.0266859
0.0268375
0.0265994
0.026034
0.0255042
0.0252253
0.0251756
0.0250646
0.0246834
0.0241453
0.0236857
0.0227869
0.0218191
0.0293473
0.0279528
0.0274243
0.0287721
0.031689
0.0341777
0.034838
0.033278
0.0293065
0.0245565
0.0231312
0.0252465
0.0279675
0.0276007
0.0268102
0.0270192
0.0275503
0.0279976
0.0283522
0.0284446
0.0282867
0.0279123
0.0274407
0.0269814
0.0265356
0.0262458
0.0266183
0.0278061
0.0290959
0.0287893
0.0306683
0.0289101
0.0283828
0.0294632
0.0320725
0.0354181
0.0377394
0.0377723
0.0356828
0.0325559
0.0306893
0.0317655
0.0319393
0.0301306
0.0290253
0.0286036
0.0285591
0.0286324
0.0285896
0.0283434
0.0279784
0.0276166
0.0272962
0.0270186
0.0269621
0.0274036
0.0282975
0.0290734
0.0290973
0.0286981
0.0335772
0.0347595
0.0337984
0.031167
0.0306603
0.0313338
0.031676
0.0311874
0.0303441
0.0297863
0.0295367
0.0295988
0.0297914
0.0299936
0.0301085
0.0301791
0.0300691
0.0298859
0.0296029
0.0292564
0.0290292
0.0289541
0.0291924
0.0294454
0.0296206
0.0298162
0.0300261
0.0299693
0.0293491
0.0285171
0.032045
0.0348253
0.0368826
0.0378475
0.0382588
0.0383609
0.0380047
0.0372058
0.0362351
0.03557
0.0362547
0.0384716
0.0393769
0.0387024
0.0366572
0.034959
0.0343786
0.0348557
0.0356858
0.03619
0.0364102
0.0365236
0.0365414
0.0365022
0.0365779
0.0368649
0.0370906
0.0368295
0.0358364
0.0335819
0.032393
0.0327457
0.0353176
0.0387742
0.0378041
0.0318025
0.028793
0.0287491
0.0314559
0.0356302
0.0395733
0.0417061
0.0422092
0.0416103
0.0411578
0.0408468
0.0399933
0.0379303
0.0351418
0.032736
0.0305754
0.0282342
0.0264848
0.0259069
0.0259744
0.0263017
0.0271453
0.0282536
0.0286805
0.0281494
0.035812
0.0372984
0.0365292
0.0373464
0.0379172
0.0367617
0.0355545
0.0348921
0.0345231
0.0348951
0.0358833
0.0371349
0.0382657
0.0393221
0.0402547
0.0412845
0.0419172
0.0418859
0.0414436
0.0411747
0.0415575
0.0424641
0.0423358
0.0407029
0.0372618
0.033796
0.0321768
0.0322023
0.0333742
0.0338852
0.0379864
0.0325641
0.0289761
0.0280211
0.0276995
0.0276318
0.0278023
0.0283498
0.0290026
0.029441
0.0295256
0.0293256
0.0289712
0.028616
0.0283161
0.0278728
0.027387
0.0270847
0.0272494
0.0280389
0.0293623
0.0309527
0.0324435
0.0336834
0.0346571
0.0356066
0.0369109
0.0392634
0.0433837
0.0450834
0.0329651
0.0326589
0.0293487
0.0292487
0.02971
0.0298877
0.0298414
0.0296989
0.0295291
0.0293173
0.029007
0.028649
0.0283802
0.0282982
0.0284075
0.0286495
0.0289156
0.0290092
0.028856
0.0285363
0.0285549
0.0293721
0.0310762
0.033173
0.0350525
0.0361279
0.0364144
0.0364482
0.0366149
0.0362931
0.0391231
0.0428833
0.0395495
0.0367406
0.0344771
0.0325166
0.0308011
0.0294176
0.0282682
0.0275391
0.0269479
0.0264626
0.0263296
0.0261084
0.0260903
0.0261836
0.0265169
0.0273507
0.0286828
0.0310363
0.0334566
0.0357484
0.0374324
0.0384809
0.0392127
0.039719
0.0397313
0.0390843
0.0378748
0.0377778
0.0400747
0.0338251
0.0321827
0.0357056
0.0390145
0.0397894
0.0392335
0.0385833
0.0384048
0.0385154
0.0389541
0.0399683
0.0416909
0.0436653
0.0445705
0.0430934
0.0372101
0.0316127
0.0277292
0.0261229
0.0256181
0.0262294
0.0303646
0.0373305
0.042797
0.0435662
0.0416687
0.0401733
0.0386435
0.0316525
0.0244073
0.0482603
0.0581845
0.0600102
0.0601096
0.0592804
0.0577924
0.0557652
0.0530261
0.0495488
0.0462102
0.0435322
0.0418515
0.0413957
0.0422023
0.0441353
0.046716
0.0496486
0.0515145
0.0531913
0.0545385
0.0571039
0.0597261
0.059759
0.0428122
0.0335819
0.0352839
0.0339294
0.024109
0.017596
0.0252727
0.0288551
0.0331349
0.0327266
0.0298505
0.0278979
0.0268273
0.0262481
0.0261426
0.0259531
0.0263916
0.0290601
0.0331497
0.0306688
0.0239608
0.0263029
0.027417
0.0286783
0.0298694
0.0302964
0.0302554
0.0295451
0.027449
0.0257142
0.0250985
0.025
0.0249889
0.0250299
0.0253906
0.0260644
0.0269212
0.0274973
0.0275915
0.0271368
0.026395
0.0256119
0.0252642
0.0252723
0.0253014
0.0249654
0.0243243
0.0237199
0.0229239
0.0220313
0.0293761
0.0284178
0.0279791
0.029334
0.0320966
0.0345739
0.0354324
0.0345126
0.0301152
0.0244252
0.0231199
0.0256929
0.0279345
0.0273097
0.0269183
0.0274832
0.0282807
0.0287822
0.0292334
0.0293029
0.0291615
0.028672
0.0279495
0.0273003
0.0267277
0.0262205
0.0264161
0.0275541
0.0289804
0.0288294
0.0306986
0.0291034
0.0289916
0.0308779
0.0340932
0.0372609
0.0387446
0.0380118
0.0347426
0.0311853
0.0300828
0.0316487
0.0311123
0.0292306
0.0287528
0.0287399
0.0289302
0.0289219
0.0286452
0.0281591
0.0276778
0.0272871
0.0269919
0.0267524
0.0267928
0.0273965
0.0284075
0.0291315
0.0290824
0.0287063
0.0335621
0.0346017
0.0323023
0.0301272
0.0306929
0.0314863
0.031347
0.0304667
0.0296751
0.029434
0.029495
0.0297428
0.0300158
0.0302296
0.0303682
0.0304321
0.0303755
0.0301973
0.0299027
0.0295384
0.0292101
0.0290679
0.029206
0.0294154
0.0295713
0.0297076
0.0298785
0.0297964
0.0292456
0.0284838
0.0321336
0.0352102
0.0371558
0.0381962
0.0387971
0.0392629
0.0393531
0.0388137
0.0372622
0.0352561
0.0347746
0.0377749
0.0395663
0.0387159
0.0359785
0.0341302
0.0339963
0.0350262
0.0359577
0.0363633
0.0365209
0.0366122
0.0366068
0.0365441
0.0366033
0.0368514
0.0370464
0.036759
0.0357733
0.0335873
0.0324571
0.0337617
0.0376895
0.0402096
0.0374858
0.0330824
0.0308808
0.0307971
0.0330045
0.0369024
0.0404575
0.041601
0.0401559
0.0384698
0.0380727
0.0385672
0.0387975
0.0377742
0.0353067
0.0330025
0.0313941
0.0294219
0.0272771
0.0261491
0.0259963
0.0261713
0.0269828
0.0282552
0.0286883
0.0281297
0.036528
0.0375335
0.0372062
0.0377646
0.037287
0.0369134
0.0373423
0.0371094
0.0361792
0.0357784
0.0362478
0.0369929
0.037898
0.0389243
0.0403493
0.0417788
0.0425586
0.0424048
0.0417828
0.0413883
0.0417688
0.0426681
0.0423613
0.0406391
0.0368518
0.0334441
0.0320685
0.0322414
0.0334623
0.03378
0.0346468
0.0293617
0.0284265
0.0282625
0.027999
0.0280367
0.0285234
0.0292569
0.0299927
0.0300981
0.0296634
0.0289401
0.0280542
0.0274731
0.0271244
0.026871
0.0265124
0.0264721
0.0266259
0.0273541
0.0285938
0.030118
0.0316585
0.033012
0.0341848
0.0352953
0.0368194
0.0400528
0.043531
0.0446352
0.0330222
0.0306681
0.030159
0.030982
0.0312625
0.0310963
0.0306963
0.0302929
0.0298756
0.0293942
0.0287632
0.0282485
0.0280009
0.0280577
0.0281789
0.0283159
0.0286923
0.0290552
0.0291249
0.0288373
0.0285387
0.0288442
0.0301042
0.0320237
0.0339841
0.0352784
0.0357436
0.0359489
0.036333
0.036447
0.0405644
0.0415829
0.0382259
0.0361078
0.0340062
0.0319748
0.0301273
0.0287139
0.027474
0.0267954
0.0260296
0.0255515
0.025196
0.0250683
0.0250871
0.0252806
0.0255121
0.026152
0.0271638
0.0292524
0.0315598
0.0339663
0.0357
0.0368111
0.0376399
0.038362
0.0387653
0.0384693
0.0374664
0.0377568
0.0385894
0.0326628
0.0331611
0.0375714
0.0395829
0.0392493
0.0382399
0.037749
0.0376585
0.0377542
0.0379788
0.0385895
0.0401618
0.0426885
0.0442464
0.0428212
0.0364629
0.0311521
0.0279897
0.0263122
0.0255345
0.0260126
0.0303848
0.0372553
0.042576
0.0435446
0.0421213
0.040436
0.0376352
0.0314715
0.0267523
0.0513547
0.0594311
0.0604047
0.0599962
0.0587172
0.0567595
0.0539941
0.0504077
0.0462034
0.042504
0.0394186
0.037558
0.0370921
0.038289
0.0410169
0.0440846
0.0482333
0.0506773
0.0523923
0.0533867
0.0557863
0.0586689
0.0609475
0.0519531
0.0325516
0.0314501
0.0297529
0.0217923
0.0169551
0.0251582
0.0294698
0.0331355
0.0318064
0.0292821
0.0280508
0.0271244
0.0263293
0.0258542
0.0257957
0.0263101
0.0291314
0.0329129
0.0309266
0.0242774
0.0268269
0.0280965
0.0292459
0.0299984
0.0300841
0.0301968
0.029602
0.0273043
0.0255829
0.0252404
0.0251703
0.025055
0.0250483
0.0254622
0.0262927
0.0273014
0.0278507
0.0278214
0.0272131
0.0262028
0.0254859
0.0253149
0.0254192
0.025502
0.0251814
0.0244216
0.0237952
0.0230165
0.0221241
0.028347
0.0283756
0.0288353
0.0299674
0.0323766
0.0346586
0.0355149
0.034828
0.0304056
0.0241548
0.0232807
0.0261535
0.027926
0.0271327
0.0271861
0.0279588
0.0288399
0.0293804
0.0297378
0.029772
0.0296459
0.0291143
0.0282126
0.0273836
0.0266927
0.0262433
0.0264761
0.0277269
0.0290239
0.0287461
0.0306627
0.0293671
0.0296926
0.0322127
0.0356692
0.0383343
0.0390781
0.0377352
0.0334354
0.0299301
0.0299264
0.031641
0.03031
0.0289208
0.0288935
0.0290845
0.0291353
0.0288397
0.0282175
0.0275319
0.0270513
0.0267763
0.0266449
0.0267484
0.0271141
0.0279429
0.028801
0.0291872
0.0290331
0.0287234
0.0336388
0.0341778
0.0311476
0.0299545
0.0310494
0.0315295
0.0308381
0.0297851
0.0292835
0.0293039
0.0296135
0.029987
0.0303495
0.0305598
0.0306644
0.0306653
0.0305337
0.0302949
0.0299093
0.0295735
0.0292374
0.0291268
0.0292642
0.0295176
0.0296011
0.0296742
0.0297521
0.0295733
0.0290224
0.0284601
0.0322393
0.0353168
0.0373029
0.0384266
0.0392735
0.0401018
0.0407697
0.0407176
0.039228
0.035913
0.0335543
0.0367104
0.0395904
0.0385327
0.0353877
0.033659
0.0338981
0.0352491
0.0361274
0.0364313
0.0366182
0.0366883
0.0366458
0.0366263
0.0367256
0.036971
0.0369882
0.0365867
0.0355518
0.0335188
0.0325605
0.034919
0.0393571
0.0409787
0.0386883
0.0358215
0.0337236
0.0327042
0.0338823
0.037156
0.0398403
0.0392596
0.0365846
0.0353164
0.0356243
0.0362648
0.0365865
0.0360364
0.0341631
0.0324355
0.0316085
0.0301604
0.0279064
0.0266244
0.0263842
0.0263471
0.0271858
0.0284242
0.028615
0.0279719
0.037071
0.0377119
0.0374789
0.0376225
0.0377446
0.0390835
0.0402235
0.0394814
0.0374024
0.0361411
0.0360555
0.0365544
0.0375301
0.0388239
0.0405953
0.0421323
0.0427071
0.0421071
0.0415996
0.0414791
0.0419783
0.0424034
0.0416484
0.0390448
0.0352768
0.0327081
0.0320561
0.0325617
0.033553
0.0332485
0.0305274
0.0289115
0.0289298
0.0286473
0.0284017
0.02849
0.0291442
0.0299567
0.0306447
0.0305329
0.0296427
0.0284159
0.0271746
0.026357
0.0256853
0.0256662
0.0257129
0.025954
0.0263051
0.0271589
0.0283515
0.0298497
0.0313657
0.0327804
0.0339917
0.0351914
0.0373499
0.0409235
0.0433838
0.0442111
0.0325035
0.0307264
0.0317099
0.0324908
0.032615
0.0322213
0.0315978
0.0309589
0.0302648
0.0294446
0.0285643
0.0280489
0.02807
0.0284004
0.0286554
0.028651
0.0288747
0.0292836
0.0293549
0.0290373
0.0286386
0.028671
0.0296286
0.031337
0.0331935
0.0344727
0.0349947
0.0355596
0.0366184
0.0379136
0.0412926
0.0408098
0.0380826
0.0362781
0.0340658
0.0318573
0.0298697
0.0283822
0.0271007
0.0262921
0.0253511
0.0247387
0.0243396
0.024155
0.0243577
0.0246847
0.0249353
0.0256213
0.0264362
0.028532
0.0304705
0.0328345
0.0342996
0.0353517
0.0361851
0.0370008
0.0376025
0.0375764
0.0369729
0.0378868
0.0374329
0.0321684
0.0343492
0.0385133
0.0395141
0.0383772
0.0372953
0.0369051
0.0369373
0.0372997
0.0377037
0.0378966
0.0388051
0.0414752