/*--------------------------------*- C++ -*----------------------------------*\
| =========                 |                                                 |
| \\      /  F ield         | OpenFOAM: The Open Source CFD Toolbox           |
|  \\    /   O peration     | Version:  2.1.1                                 |
|   \\  /    A nd           | Web:      www.OpenFOAM.org                      |
|    \\/     M anipulation  |                                                 |
\*---------------------------------------------------------------------------*/
FoamFile
{
    version     2.0;
    format      ascii;
    class       volScalarField;
    location    "0.004950000";
    object      H2O;
}
// * * * * * * * * * * * * * * * * * * * * * * * * * * * * * * * * * * * * * //

dimensions      [0 0 0 0 0 0 0];

internalField   nonuniform List<scalar> 
12384
(
0.241957
0.241222
0.240436
0.239259
0.23838
0.238357
0.238923
0.240244
0.241182
0.242302
0.242445
0.241537
0.23664
0.220354
0.198539
0.202947
0.204663
0.205394
0.206347
0.208112
0.210092
0.212217
0.213451
0.21403
0.214062
0.213599
0.213173
0.212135
0.211597
0.210664
0.210301
0.209628
0.209347
0.208918
0.208674
0.208387
0.208222
0.208125
0.207973
0.207919
0.204969
0.197202
0.206542
0.209292
0.247326
0.248651
0.248769
0.248585
0.247485
0.245776
0.245143
0.247112
0.249665
0.250453
0.250478
0.250505
0.250537
0.250763
0.250792
0.250829
0.25137
0.250615
0.250823
0.250406
0.250356
0.250113
0.250069
0.249671
0.249698
0.249346
0.248754
0.246133
0.228729
0.216869
0.251503
0.250364
0.248959
0.247452
0.244567
0.242987
0.242739
0.242403
0.243037
0.244245
0.246135
0.247294
0.247838
0.248249
0.248396
0.248598
0.24873
0.248575
0.248482
0.248198
0.247955
0.247634
0.247555
0.246956
0.246903
0.245913
0.244963
0.243585
0.240158
0.238832
0.251862
0.251811
0.251655
0.251541
0.251428
0.251375
0.251365
0.2514
0.251429
0.251437
0.251457
0.251606
0.251549
0.251623
0.25173
0.251647
0.251674
0.25147
0.251178
0.250906
0.250679
0.250329
0.250006
0.249751
0.249646
0.249699
0.246469
0.234075
0.234982
0.236081
0.251429
0.25139
0.251372
0.251434
0.251302
0.251289
0.251261
0.251203
0.251126
0.25109
0.251083
0.251086
0.251094
0.251107
0.251097
0.251165
0.251134
0.251095
0.251081
0.25108
0.251086
0.251145
0.251142
0.251066
0.251071
0.250996
0.250872
0.251359
0.247375
0.245652
0.248354
0.251345
0.251527
0.250124
0.249078
0.248429
0.245753
0.243287
0.24079
0.238119
0.235232
0.232143
0.228915
0.226078
0.223831
0.222141
0.22101
0.220509
0.220732
0.22165
0.223494
0.225762
0.228333
0.231044
0.233841
0.23651
0.239642
0.242811
0.243289
0.24195
0.214498
0.223066
0.247866
0.251467
0.251925
0.251794
0.251714
0.251674
0.25166
0.251664
0.251848
0.251833
0.251966
0.252033
0.251963
0.251824
0.252007
0.251893
0.251807
0.251613
0.251561
0.251417
0.251239
0.251188
0.251062
0.251179
0.251453
0.251624
0.251296
0.250547
0.228672
0.230267
0.23911
0.250137
0.252096
0.251871
0.251523
0.251415
0.251448
0.251474
0.251539
0.251585
0.251645
0.251683
0.251818
0.251841
0.251868
0.25186
0.251848
0.251822
0.251813
0.251809
0.251596
0.251238
0.250689
0.250107
0.249797
0.249714
0.249995
0.250451
0.229919
0.230868
0.234543
0.240482
0.245629
0.248404
0.250534
0.25075
0.251054
0.251439
0.251465
0.251806
0.251788
0.252017
0.251859
0.251897
0.251924
0.251803
0.251747
0.251707
0.251651
0.251588
0.251475
0.251493
0.251589
0.251278
0.251215
0.251225
0.251275
0.251295
0.25204
0.25186
0.25165
0.251218
0.251023
0.250831
0.250748
0.250727
0.250693
0.250663
0.250638
0.250663
0.25066
0.250676
0.250657
0.250682
0.250613
0.25063
0.250571
0.250551
0.250542
0.250553
0.250643
0.25084
0.251272
0.251419
0.251314
0.251179
0.251117
0.251146
0.229951
0.252482
0.250614
0.250762
0.251568
0.252031
0.252472
0.252292
0.252294
0.252225
0.252185
0.252167
0.252193
0.252213
0.252262
0.252324
0.252348
0.252409
0.252416
0.252529
0.252406
0.252369
0.25238
0.252369
0.252374
0.252395
0.252173
0.251802
0.25061
0.165562
0.151512
0.15057
0.150444
0.154043
0.163529
0.19805
0.251646
0.246985
0.247018
0.24745
0.247667
0.247794
0.247888
0.247968
0.248029
0.248174
0.24826
0.248523
0.24881
0.249269
0.249713
0.250203
0.2504
0.250479
0.250776
0.251472
0.252033
0.21414
0.164577
0.157286
0.231213
0.225216
0.221439
0.221199
0.22217
0.223831
0.22446
0.225339
0.227709
0.234955
0.241166
0.242156
0.239142
0.229054
0.198543
0.204393
0.206225
0.208466
0.21301
0.217801
0.220956
0.222372
0.222581
0.221559
0.219678
0.21741
0.215108
0.213159
0.211547
0.210214
0.209165
0.208604
0.208094
0.207743
0.207484
0.207316
0.207324
0.207654
0.207904
0.208083
0.206855
0.201308
0.196695
0.195721
0.247109
0.248338
0.247837
0.247035
0.245728
0.245526
0.248448
0.250565
0.250788
0.250447
0.247477
0.246615
0.246693
0.247491
0.247963
0.247647
0.247358
0.246751
0.245856
0.244704
0.244226
0.243939
0.244691
0.246044
0.246915
0.247666
0.248301
0.24743
0.241849
0.231076
0.251259
0.24965
0.247721
0.243383
0.240914
0.240629
0.241349
0.245699
0.24938
0.251366
0.251311
0.251379
0.251181
0.251205
0.250976
0.250993
0.250777
0.250737
0.250559
0.249523
0.24873
0.248079
0.247378
0.247035
0.246687
0.246753
0.246238
0.244988
0.242688
0.240811
0.25185
0.251833
0.251613
0.251456
0.251472
0.251599
0.25148
0.251484
0.251572
0.25146
0.251375
0.251374
0.251409
0.250865
0.250689
0.25021
0.250138
0.249909
0.249755
0.24956
0.249442
0.249294
0.249154
0.248837
0.249028
0.249419
0.248337
0.242144
0.236602
0.237867
0.251538
0.251378
0.251585
0.251379
0.251332
0.251313
0.251216
0.25129
0.251254
0.251258
0.251273
0.251298
0.251208
0.251216
0.251281
0.251263
0.251212
0.251162
0.251117
0.251077
0.25107
0.251107
0.251074
0.251124
0.251087
0.251033
0.251013
0.25092
0.250622
0.249087
0.250806
0.251496
0.251322
0.249299
0.247635
0.246655
0.24882
0.248878
0.24598
0.239981
0.233062
0.227511
0.223232
0.21992
0.217002
0.214217
0.211877
0.209843
0.208956
0.209502
0.21143
0.215443
0.221117
0.227341
0.233084
0.237249
0.240644
0.243316
0.243979
0.242489
0.24535
0.250919
0.251671
0.251494
0.251505
0.251631
0.25163
0.251789
0.251577
0.251621
0.251601
0.251611
0.251476
0.251479
0.251414
0.251397
0.251343
0.251353
0.251357
0.251546
0.251584
0.251665
0.251782
0.251383
0.251107
0.251073
0.251183
0.251356
0.251495
0.250941
0.251936
0.251799
0.251531
0.251449
0.25148
0.25171
0.251727
0.25183
0.252057
0.251802
0.251696
0.251637
0.251606
0.251664
0.25168
0.251752
0.251843
0.251981
0.251894
0.251879
0.251862
0.251848
0.251765
0.251583
0.251359
0.251037
0.250629
0.250141
0.249805
0.250091
0.238193
0.240458
0.247411
0.250857
0.25147
0.251753
0.251716
0.251607
0.25161
0.251563
0.251621
0.252098
0.251879
0.252058
0.251843
0.251917
0.25186
0.251946
0.252092
0.25178
0.251654
0.251638
0.251602
0.25146
0.251595
0.251555
0.25145
0.2515
0.251561
0.251499
0.252276
0.251664
0.251322
0.251056
0.250789
0.250716
0.250724
0.250826
0.250933
0.251052
0.251166
0.251211
0.251244
0.251223
0.251207
0.251068
0.250991
0.250871
0.250795
0.250715
0.250629
0.250601
0.250636
0.250714
0.251008
0.251276
0.251376
0.251258
0.251252
0.251226
0.252411
0.251346
0.250753
0.251717
0.252368
0.252673
0.252283
0.252177
0.252249
0.252058
0.251944
0.251882
0.251833
0.251665
0.251503
0.251317
0.251164
0.250971
0.250936
0.250961
0.251077
0.251297
0.251534
0.251943
0.252123
0.252233
0.252174
0.251944
0.252392
0.215332
0.149005
0.157315
0.190271
0.236883
0.25216
0.2514
0.248439
0.246894
0.247092
0.247275
0.247264
0.247192
0.247132
0.247091
0.24709
0.247058
0.247098
0.247088
0.247232
0.247589
0.248333
0.249603
0.251074
0.251153
0.250588
0.250175
0.250501
0.252268
0.19693
0.158439
0.219741
0.217829
0.219303
0.225538
0.232093
0.235
0.234296
0.230692
0.225653
0.225971
0.234214
0.241578
0.2401
0.233355
0.199609
0.20743
0.212024
0.217207
0.22329
0.227624
0.231112
0.23091
0.228469
0.22487
0.220979
0.21672
0.214327
0.212619
0.21179
0.211281
0.21163
0.211453
0.212001
0.211555
0.211466
0.210883
0.210273
0.209638
0.209051
0.208597
0.20787
0.204723
0.195292
0.191052
0.247028
0.246718
0.243863
0.243522
0.244459
0.247983
0.250632
0.251024
0.248671
0.242114
0.230505
0.231122
0.24018
0.244691
0.244324
0.241992
0.239504
0.236803
0.234795
0.233678
0.233514
0.233122
0.233466
0.234953
0.238006
0.242242
0.246427
0.247228
0.245943
0.23833
0.251136
0.248878
0.24411
0.240866
0.240051
0.2436
0.249174
0.252009
0.251754
0.251782
0.251436
0.251341
0.251091
0.251538
0.251156
0.250919
0.250685
0.249577
0.248291
0.24737
0.246606
0.245127
0.243807
0.243564
0.244134
0.245739
0.246364
0.246353
0.244586
0.242036
0.251855
0.251801
0.251658
0.251652
0.251647
0.25168
0.251628
0.251521
0.25141
0.251329
0.251104
0.250048
0.249383
0.248781
0.248436
0.248009
0.247833
0.247444
0.247632
0.247363
0.247805
0.247749
0.247992
0.247867
0.248146
0.248531
0.248786
0.246778
0.241223
0.23948
0.251795
0.251471
0.251432
0.251356
0.251301
0.251361
0.251311
0.251326
0.251337
0.251349
0.251382
0.251339
0.251348
0.251351
0.251391
0.251364
0.251317
0.251273
0.25119
0.25117
0.251081
0.251009
0.250938
0.250948
0.250932
0.250995
0.251018
0.250974
0.251198
0.250427
0.25106
0.251429
0.250706
0.249609
0.251051
0.251561
0.251467
0.250205
0.243382
0.233481
0.229621
0.23028
0.236203
0.239935
0.241554
0.238609
0.23379
0.227139
0.220149
0.214722
0.212396
0.213891
0.21973
0.228153
0.23538
0.23987
0.24283
0.244504
0.24497
0.243119
0.251132
0.251397
0.251409
0.251415
0.251659
0.251733
0.251539
0.251545
0.251534
0.251472
0.251503
0.251592
0.251573
0.251483
0.251381
0.25133
0.251231
0.251116
0.251066
0.251055
0.251154
0.251306
0.251586
0.251606
0.25145
0.250995
0.25097
0.251093
0.251317
0.251017
0.251709
0.251434
0.251473
0.25162
0.251955
0.251301
0.250727
0.249089
0.247754
0.247081
0.246081
0.245422
0.245287
0.245715
0.246889
0.24796
0.249039
0.250571
0.251473
0.251797
0.252106
0.251874
0.25184
0.251811
0.251714
0.251488
0.251238
0.250686
0.250078
0.250028
0.240587
0.248712
0.251592
0.251876
0.251489
0.251101
0.248719
0.247141
0.244584
0.243306
0.242949
0.242634
0.243333
0.243476
0.244236
0.24559
0.247416
0.248954
0.250249
0.251553
0.251775
0.251675
0.251597
0.251573
0.251601
0.251618
0.251672
0.25165
0.251682
0.251672
0.251792
0.2517
0.251062
0.250626
0.250704
0.251047
0.251332
0.251597
0.251875
0.25202
0.252207
0.25222
0.252262
0.252227
0.252156
0.252071
0.251944
0.251634
0.251401
0.251206
0.250956
0.250806
0.250749
0.25073
0.250817
0.251073
0.251263
0.251359
0.25138
0.251324
0.251562
0.250913
0.251682
0.252315
0.252384
0.252192
0.251962
0.251755
0.251345
0.251266
0.251168
0.251085
0.250821
0.250653
0.250472
0.250296
0.250233
0.250298
0.250474
0.250617
0.250633
0.250559
0.250597
0.25077
0.251308
0.251788
0.252031
0.251916
0.252074
0.245028
0.153326
0.201856
0.252279
0.250576
0.249036
0.247863
0.246878
0.246898
0.24708
0.247155
0.247219
0.247335
0.24748
0.247579
0.247581
0.247503
0.247332
0.247146
0.246921
0.246792
0.246854
0.24747
0.249571
0.251806
0.251931
0.251321
0.250684
0.25175
0.22085
0.160275
0.21684
0.218161
0.228632
0.237975
0.240612
0.240673
0.240294
0.238284
0.233398
0.226101
0.228573
0.239187
0.240872
0.23445
0.201519
0.212525
0.219405
0.225551
0.232091
0.23716
0.2394
0.23681
0.231374
0.22576
0.219512
0.21576
0.213919
0.21349
0.213432
0.214447
0.215043
0.215975
0.216073
0.216096
0.215423
0.214858
0.213951
0.21289
0.211542
0.210164
0.208843
0.206665
0.197579
0.190301
0.246619
0.242734
0.237733
0.239929
0.246114
0.250428
0.25115
0.25071
0.243222
0.226201
0.214165
0.221234
0.23902
0.242405
0.239493
0.23537
0.232237
0.231401
0.231159
0.231726
0.231622
0.231114
0.230598
0.230266
0.231084
0.234363
0.240614
0.246347
0.24655
0.241381
0.2509
0.248408
0.24264
0.241235
0.244132
0.249851
0.252017
0.251854
0.25169
0.251501
0.251371
0.251071
0.250918
0.250961
0.250705
0.24884
0.247211
0.245802
0.243827
0.242505
0.241364
0.240178
0.23954
0.238981
0.239761
0.242129
0.245083
0.246484
0.245609
0.242983
0.251892
0.251801
0.251765
0.251677
0.251584
0.25155
0.251549
0.251412
0.251684
0.250602
0.249587
0.248821
0.248623
0.248129
0.248141
0.247566
0.246892
0.246164
0.245766
0.245394
0.246284
0.246276
0.246872
0.246881
0.247073
0.247576
0.248402
0.247716
0.244875
0.241212
0.251978
0.251522
0.251435
0.251342
0.25135
0.251314
0.251331
0.251321
0.251331
0.251348
0.25123
0.251215
0.251248
0.251506
0.251441
0.251464
0.251459
0.251415
0.251304
0.251107
0.250968
0.250812
0.250772
0.250716
0.250787
0.250979
0.251011
0.251035
0.250988
0.2507
0.251158
0.251346
0.251275
0.251514
0.251471
0.251417
0.251194
0.240959
0.231158
0.233231
0.245764
0.251287
0.251895
0.251465
0.251527
0.251606
0.251648
0.251533
0.248706
0.239882
0.227262
0.220162
0.221495
0.228437
0.235316
0.239512
0.242892
0.245136
0.245861
0.243691
0.25137
0.251357
0.251399
0.251352
0.251463
0.251463
0.2513
0.251465
0.251412
0.251428
0.251547
0.251552
0.251625
0.25163
0.251443
0.251355
0.251277
0.251192
0.25109
0.251008
0.250863
0.250904
0.251156
0.251511
0.251532
0.251071
0.250873
0.250968
0.251225
0.251007
0.251468
0.251453
0.251579
0.251026
0.248279
0.245029
0.241926
0.239807
0.238981
0.239056
0.239351
0.239969
0.24031
0.23985
0.23965
0.240083
0.241607
0.244853
0.248113
0.250371
0.251523
0.251914
0.251869
0.251841
0.251826
0.251745
0.251559
0.251221
0.250424
0.250074
0.246289
0.251712
0.251586
0.251164
0.247399
0.242574
0.240339
0.239837
0.240478
0.241969
0.24301
0.243931
0.244397
0.244673
0.244644
0.244459
0.244324
0.244198
0.245208
0.248171
0.250231
0.251488
0.251977
0.251576
0.251577
0.25163
0.251602
0.251684
0.251749
0.251693
0.251776
0.251183
0.250507
0.250781
0.251301
0.251772
0.251969
0.252032
0.252083
0.251644
0.250692
0.249898
0.25004
0.249806
0.250127
0.25135
0.252179
0.252288
0.252077
0.251873
0.2515
0.251204
0.251013
0.250909
0.250874
0.250961
0.251156
0.25132
0.251406
0.251377
0.250939
0.251405
0.25238
0.252363
0.252222
0.251764
0.251257
0.251131
0.251062
0.251014
0.250856
0.250714
0.250514
0.250369
0.250186
0.25018
0.250514
0.251187
0.25182
0.25205
0.252069
0.251866
0.251272
0.250731
0.250669
0.251153
0.251664
0.25174
0.251943
0.250923
0.167189
0.252267
0.249551
0.248019
0.247081
0.246667
0.246757
0.246964
0.247185
0.247446
0.24781
0.248223
0.24858
0.24873
0.248724
0.248526
0.248267
0.247915
0.247605
0.247198
0.246791
0.246608
0.247113
0.250477
0.251862
0.251717
0.2511
0.251523
0.230657
0.161017
0.215799
0.222923
0.237658
0.241444
0.241404
0.240279
0.239365
0.237851
0.234844
0.227343
0.226144
0.236954
0.240519
0.234943
0.204499
0.218719
0.226495
0.233094
0.240327
0.244315
0.245238
0.241886
0.234163
0.225713
0.218965
0.21613
0.215487
0.215161
0.216273
0.217419
0.219414
0.220422
0.221351
0.22038
0.218911
0.217289
0.216133
0.215324
0.214175
0.212253
0.210061
0.207414
0.199564
0.191385
0.24636
0.239944
0.235326
0.240721
0.248433
0.250983
0.25131
0.250717
0.242451
0.218267
0.206205
0.218588
0.239638
0.240123
0.23391
0.231883
0.231516
0.233782
0.235536
0.236288
0.235876
0.234692
0.232984
0.231238
0.229545
0.230109
0.23495
0.242734
0.246492
0.242767
0.250731
0.247472
0.243054
0.244483
0.249723
0.252028
0.251906
0.251665
0.251672
0.251509
0.250218
0.25047
0.250767
0.250924
0.248049
0.245971
0.24362
0.242886
0.242453
0.241613
0.240463
0.2387
0.237127
0.23581
0.236013
0.238853
0.243179
0.246509
0.246325
0.243558
0.251871
0.251892
0.251726
0.251559
0.251044
0.251365
0.251414
0.251729
0.25066
0.249525
0.248824
0.248459
0.248506
0.248374
0.248645
0.248363
0.248129
0.247247
0.246824
0.244782
0.244995
0.244696
0.245906
0.245964
0.246255
0.246696
0.247539
0.247769
0.246418
0.242357
0.252174
0.25164
0.251423
0.251396
0.251352
0.251221
0.251338
0.251335
0.251328
0.251364
0.251405
0.251199
0.251187
0.251308
0.251546
0.251633
0.251606
0.251481
0.25118
0.250965
0.250765
0.250728
0.250552
0.25059
0.250697
0.250853
0.250981
0.251068
0.25101
0.250944
0.251234
0.251353
0.251516
0.251432
0.251181
0.25142
0.244303
0.235148
0.241174
0.251305
0.25137
0.250957
0.250768
0.250649
0.250825
0.250926
0.251209
0.251521
0.251586
0.250729
0.246136
0.233385
0.226388
0.227833
0.231611
0.235337
0.24036
0.245
0.24646
0.244009
0.251349
0.251297
0.251302
0.2514
0.251487
0.251266
0.251379
0.251309
0.251347
0.251427
0.251527
0.251585
0.251586
0.251377
0.251228
0.251126
0.251058
0.251069
0.251034
0.251028
0.250835
0.250737
0.250794
0.251144
0.251471
0.251274
0.250702
0.250696
0.251067
0.250985
0.251412
0.251592
0.251189
0.245959
0.240937
0.238409
0.237677
0.238242
0.240511
0.24238
0.24368
0.244557
0.244466
0.243495
0.24197
0.239824
0.238487
0.238846
0.241804
0.247158
0.249687
0.25136
0.251679
0.251985
0.251755
0.251743
0.251675
0.251279
0.250547
0.250156
0.250683
0.251501
0.249493
0.245645
0.243485
0.243926
0.245195
0.246323
0.247523
0.248083
0.248347
0.247962
0.247431
0.247147
0.247236
0.247434
0.247209
0.246447
0.24522
0.24476
0.247633
0.249701
0.25139
0.251911
0.251575
0.251602
0.251627
0.251741
0.251768
0.251736
0.251729
0.250612
0.250746
0.251397
0.251824
0.251987
0.251869
0.250858
0.249538
0.247219
0.243724
0.241861
0.239002
0.238725
0.239346
0.241046
0.244974
0.249449
0.252061
0.252153
0.25199
0.251626
0.251334
0.251223
0.251156
0.251109
0.251189
0.251272
0.251429
0.2514
0.251034
0.252052
0.252754
0.252156
0.251692
0.251174
0.251069
0.251054
0.251055
0.251037
0.250999
0.250798
0.250565
0.250328
0.250183
0.250433
0.251269
0.252135
0.250507
0.246371
0.242879
0.2494
0.252406
0.251363
0.25066
0.250747
0.25131
0.251549
0.251728
0.252141
0.191256
0.251069
0.24778
0.246846
0.246511
0.246575
0.246824
0.24716
0.247576
0.248147
0.248818
0.249368
0.249674
0.249805
0.249692
0.249419
0.24901
0.24855
0.248203
0.247773
0.247339
0.24675
0.246449
0.247953
0.251812
0.251784
0.251405
0.251737
0.229012
0.159835
0.214825
0.22951
0.241442
0.241841
0.239312
0.234468
0.231433
0.230586
0.229803
0.225094
0.224756
0.235736
0.240298
0.235025
0.207704
0.224541
0.232557
0.239609
0.246056
0.247292
0.247224
0.24578
0.236164
0.22573
0.219144
0.217502
0.216787
0.216701
0.217807
0.220662
0.223835
0.226623
0.226986
0.225843
0.222259
0.219049
0.21727
0.21682
0.216323
0.21451
0.211622
0.208581
0.201123
0.192563
0.246238
0.240051
0.236378
0.243631
0.250516
0.251285
0.251311
0.251127
0.246164
0.215331
0.203674
0.220831
0.239722
0.237101
0.231801
0.232901
0.236746
0.23956
0.24184
0.24239
0.241871
0.23998
0.23697
0.23378
0.23095
0.228896
0.231994
0.240308
0.246558
0.243479
0.250536
0.247591
0.244967
0.249136
0.252095
0.251975
0.251677
0.251622
0.251665
0.250786
0.248215
0.250658
0.250858
0.24871
0.246354
0.244206
0.243882
0.243949
0.243707
0.242485
0.240628
0.238347
0.236014
0.234204
0.233834
0.236826
0.242187
0.24645
0.246743
0.24389
0.251945
0.251744
0.251706
0.250841
0.250215
0.251217
0.251504
0.250571
0.249379
0.24833
0.248109
0.247851
0.248051
0.248192
0.248234
0.248223
0.248026
0.247258
0.246759
0.245466
0.244863
0.244071
0.245087
0.245232
0.245547
0.24598
0.246884
0.247414
0.246559
0.242694
0.251737
0.251552
0.251394
0.251259
0.251198
0.251155
0.251173
0.251326
0.251343
0.251342
0.251403
0.251232
0.251175
0.251316
0.251649
0.25177
0.251939
0.251412
0.250992
0.250734
0.250642
0.250565
0.250595
0.250524
0.250566
0.2508
0.250929
0.251097
0.251009
0.251128
0.251268
0.251382
0.251519
0.251038
0.251412
0.251561
0.245336
0.244889
0.250715
0.251258
0.250907
0.250483
0.250433
0.250555
0.250688
0.250798
0.250956
0.251321
0.251651
0.251516
0.250128
0.244475
0.232806
0.228117
0.228659
0.231241
0.23751
0.244634
0.246819
0.244126
0.2513
0.251369
0.251321
0.251394
0.251252
0.251323
0.251231
0.25127
0.25149
0.251518
0.251466
0.251595
0.251404
0.251284
0.251147
0.250932
0.250807
0.250812
0.250881
0.250935
0.250848
0.250662
0.250673
0.251008
0.251444
0.251332
0.250592
0.250646
0.250961
0.250886
0.251486
0.250825
0.245065
0.240795
0.239383
0.238833
0.240411
0.242746
0.246237
0.247006
0.247508
0.247354
0.246581
0.244801
0.24331
0.241244
0.237835
0.235507
0.236624
0.241468
0.247122
0.250095
0.25138
0.251627
0.251939
0.251733
0.251736
0.251406
0.250602
0.250229
0.251149
0.251075
0.247715
0.247958
0.2488
0.24923
0.24946
0.249323
0.249594
0.249257
0.24841
0.24654
0.245089
0.244655
0.245199
0.246439
0.247805
0.248311
0.24753
0.245673
0.244971
0.247829
0.250497
0.251514
0.251602
0.251605
0.251669
0.251717
0.251783
0.251753
0.251326
0.250545
0.251253
0.251757
0.252184
0.251926
0.250983
0.249262
0.24459
0.240234
0.235978
0.232497
0.231356
0.229583
0.229445
0.23021
0.232895
0.238905
0.246655
0.251503
0.252211
0.252001
0.251792
0.251499
0.251393
0.251298
0.251264
0.251345
0.251449
0.251596
0.251314
0.252382
0.252168
0.251835
0.251194
0.251036
0.25105
0.251106
0.2511
0.25111
0.251127
0.251044
0.250763
0.250437
0.250252
0.250635
0.251854
0.252368
0.241181
0.229379
0.225653
0.230439
0.250651
0.25194
0.250762
0.250596
0.251037
0.251376
0.25167
0.252413
0.215938
0.249426
0.246926
0.246452
0.246422
0.246636
0.247006
0.247514
0.248187
0.249027
0.249768
0.250305
0.250569
0.250634
0.250506
0.250182
0.249642
0.248957
0.248551
0.248143
0.247818
0.247165
0.246507
0.246485
0.250588
0.251965
0.251817
0.252121
0.213008
0.156785
0.216101
0.23428
0.241511
0.240488
0.234108
0.22747
0.22319
0.221474
0.221729
0.221134
0.2239
0.235941
0.240012
0.234871
0.211681
0.230424
0.238063
0.244816
0.247777
0.248486
0.248204
0.246212
0.236723
0.22489
0.22027
0.21877
0.217689
0.217132
0.219338
0.223335
0.228179
0.230477
0.230752
0.228193
0.224351
0.219685
0.217576
0.217606
0.218041
0.216405
0.212874
0.208786
0.20221
0.194222
0.246417
0.242552
0.240127
0.24595
0.250509
0.251454
0.251336
0.25157
0.247714
0.21426
0.203501
0.22404
0.239405
0.234903
0.232222
0.235781
0.241067
0.243779
0.246272
0.246393
0.24641
0.24417
0.240498
0.23637
0.232526
0.228946
0.230546
0.23856
0.245972
0.243453
0.25054
0.248517
0.248102
0.251037
0.252191
0.251774
0.251487
0.25155
0.25163
0.24954
0.246919
0.250681
0.250272
0.247393
0.245175
0.244876
0.245662
0.245457
0.243733
0.241217
0.238368
0.235824
0.234099
0.232471
0.232769
0.236946
0.243019
0.246902
0.246908
0.24401
0.251879
0.251957
0.251514
0.249393
0.25009
0.251351
0.250948
0.249386
0.247997
0.247414
0.246888
0.246543
0.246785
0.246701
0.247043
0.246852
0.246917
0.246327
0.246043
0.244967
0.244697
0.243963
0.244634
0.244762
0.245034
0.245471
0.246422
0.247076
0.246239
0.242457
0.251748
0.251555
0.25138
0.251232
0.251089
0.251015
0.25094
0.250983
0.251271
0.251327
0.251381
0.251465
0.25117
0.251371
0.251783
0.251892
0.251812
0.251228
0.250801
0.250632
0.250589
0.250571
0.250574
0.250513
0.250587
0.250734
0.250964
0.251028
0.251016
0.251075
0.251284
0.251641
0.251335
0.25087
0.25139
0.251191
0.249808
0.249594
0.251095
0.251227
0.250774
0.250484
0.250814
0.251049
0.251162
0.25113
0.251105
0.251406
0.251638
0.251616
0.251293
0.248701
0.238448
0.230046
0.228836
0.230221
0.236381
0.244616
0.246879
0.243986
0.251307
0.251312
0.251348
0.251398
0.2513
0.251243
0.251322
0.251401
0.25141
0.251524
0.251522
0.25158
0.251456
0.25131
0.2511
0.250812
0.250658
0.250716
0.250808
0.250907
0.250792
0.250595
0.250658
0.250974
0.251345
0.251098
0.250366
0.250281
0.250782
0.250782
0.251778
0.246038
0.242635
0.242307
0.241246
0.241336
0.243888
0.246833
0.248151
0.248481
0.248057
0.24646
0.242176
0.238593
0.236328
0.234479
0.231757
0.231349
0.232207
0.236973
0.243908
0.248308
0.251087
0.251319
0.251759
0.251644
0.251615
0.251228
0.250555
0.250327
0.251197
0.249577
0.249285
0.2508
0.251302
0.251171
0.250802
0.250395
0.24999
0.24932
0.247111
0.244468
0.243128
0.243383
0.243964
0.24464
0.246571
0.248485
0.248724
0.247273
0.245046
0.246262
0.248748
0.251207
0.25168
0.25161
0.251688
0.25179
0.25187
0.251783
0.251122
0.250822
0.251477
0.251777
0.252084
0.251973
0.250189
0.246929
0.239762
0.234921
0.228974
0.225194
0.22235
0.221283
0.22143
0.223048
0.224863
0.230003
0.237535
0.249108
0.25221
0.252256
0.251983
0.251823
0.25179
0.251522
0.251435
0.251445
0.251651
0.251604
0.251601
0.252303
0.252094
0.251578
0.251047
0.251032
0.251076
0.251224
0.251207
0.251282
0.251144
0.251173
0.251091
0.250624
0.250373
0.250677
0.251936
0.251531
0.242857
0.230839
0.224965
0.228831
0.25068
0.25196
0.250805
0.250602
0.250925
0.251311
0.251919
0.252162
0.234763
0.248671
0.246598
0.246354
0.246455
0.246775
0.247263
0.247957
0.248814
0.249774
0.250447
0.250942
0.251178
0.251065
0.251002
0.250693
0.250207
0.249269
0.248729
0.248327
0.248102
0.247529
0.246767
0.246184
0.248469
0.251835
0.251823
0.24919
0.193288
0.151128
0.215162
0.236118
0.241587
0.23952
0.232359
0.227597
0.223873
0.220926
0.219823
0.220055
0.223453
0.236
0.239867
0.235589
0.214288
0.234265
0.242324
0.247355
0.248482
0.24866
0.248003
0.246135
0.235677
0.223965
0.221449
0.22011
0.218067
0.21728
0.219788
0.225018
0.230199
0.232402
0.231759
0.228591
0.222976
0.218864
0.217837
0.218625
0.21943
0.218032
0.213554
0.20944
0.202972
0.194984
0.241436
0.241923
0.244272
0.247227
0.250636
0.251511
0.251385
0.251406
0.248345
0.212062
0.204713
0.227376
0.239227
0.233554
0.233783
0.238791
0.244122
0.246106
0.24733
0.247324
0.247455
0.246621
0.242297
0.237084
0.232501
0.229267
0.231394
0.240049
0.246324
0.242966
0.250606
0.248884
0.249417
0.252086
0.251957
0.251529
0.251432
0.251586
0.25136
0.246841
0.24644
0.250861
0.24904
0.246114
0.245865
0.246761
0.246772
0.245044
0.241875
0.237796
0.23462
0.232766
0.232018
0.232638
0.235118
0.24081
0.245395
0.247276
0.246534
0.244149
0.251884
0.251924
0.250988
0.248985
0.250759
0.251204
0.249965
0.248139
0.246884
0.245859
0.245486
0.245474
0.245861
0.24596
0.24623
0.246049
0.245915
0.245185
0.24495
0.244266
0.244078
0.243757
0.244184
0.244667
0.244711
0.245231
0.246136
0.246583
0.245389
0.242187
0.251772
0.251523
0.251409
0.251207
0.251022
0.250876
0.250749
0.250731
0.250928
0.251319
0.251296
0.251437
0.251175
0.251401
0.251835
0.251836
0.251683
0.251074
0.250722
0.250585
0.250603
0.250587
0.250532
0.25063
0.250678
0.250727
0.250926
0.251013
0.251077
0.250963
0.251315
0.251492
0.250946
0.250755
0.251002
0.25128
0.251396
0.251008
0.251358
0.251263
0.25078
0.250877
0.251261
0.251355
0.251376
0.251411
0.251471
0.251518
0.251673
0.251471
0.251371
0.249498
0.242833
0.233817
0.23191
0.23163
0.237827
0.245556
0.246555
0.242807
0.251207
0.251275
0.251415
0.251409
0.251362
0.251039
0.251003
0.251078
0.251502
0.251474
0.25151
0.251518
0.251547
0.251316
0.251036
0.25074
0.250646
0.250752
0.25086
0.250878
0.250722
0.250656
0.250736
0.251078
0.251195
0.250392
0.250223
0.250362
0.25074
0.250226
0.248358
0.244462
0.245374
0.244152
0.243326
0.243628
0.246988
0.248159
0.249461
0.249328
0.248098
0.244143
0.236759
0.230888
0.225451
0.225086
0.225352
0.227107
0.229659
0.235351
0.24256
0.247517
0.250469
0.251198
0.251512
0.251549
0.251596
0.251087
0.250602
0.250442
0.250987
0.249844
0.251781
0.251685
0.251841
0.251916
0.252244
0.251382
0.250486
0.249337
0.246094
0.243416
0.243418
0.245092
0.246383
0.246363
0.247516
0.248902
0.249042
0.248259
0.245825
0.245285
0.247914
0.250739
0.251474
0.251888
0.251707
0.251834
0.251852
0.251543
0.250884
0.251013
0.251483
0.25181
0.2522
0.252059
0.249937
0.245205
0.237078
0.231089
0.223591
0.218562
0.215252
0.213719
0.215395
0.218124
0.220176
0.225785
0.232228
0.245935
0.250719
0.252081
0.252333
0.251997
0.251874
0.25183
0.25173
0.251713
0.251687
0.25143
0.251895
0.25221
0.252158
0.251254
0.250975
0.251056
0.251158
0.251158
0.251151
0.251209
0.251275
0.251197
0.251199
0.250823
0.250411
0.2506
0.251864
0.251947
0.249637
0.246012
0.243892
0.249807
0.252394
0.251543
0.2508
0.250679
0.25097
0.251437
0.252122
0.252449
0.236864
0.248271
0.246512
0.246345
0.246517
0.246929
0.247531
0.248318
0.24928
0.250227
0.2509
0.25107
0.250905
0.250841
0.25097
0.250859
0.250461
0.24945
0.248816
0.248443
0.24827
0.247722
0.246924
0.246116
0.247288
0.252075
0.242095
0.219611
0.179466
0.158126
0.215008
0.235179
0.241076
0.238775
0.233392
0.230446
0.228014
0.22445
0.222133
0.222875
0.228029
0.236318
0.239116
0.23562
0.227485
0.217966
0.218504
0.238387
0.243946
0.247166
0.247394
0.247314
0.247098
0.245392
0.233772
0.222673
0.222553
0.221415
0.218419
0.216993
0.219386
0.224548
0.229904
0.232289
0.231495
0.227717
0.222685
0.220026
0.219815
0.220723
0.221052
0.218615
0.213775
0.209119
0.203577
0.196544
0.19815
0.20664
0.221341
0.227632
0.239972
0.246753
0.250647
0.251269
0.251347
0.251558
0.24772
0.211413
0.205727
0.230013
0.239191
0.23287
0.234914
0.240468
0.245596
0.24661
0.247541
0.247368
0.247261
0.244892
0.240713
0.235391
0.231544
0.230385
0.23458
0.242733
0.246593
0.242286
0.245049
0.24806
0.250627
0.24935
0.250122
0.252091
0.251844
0.251495
0.251427
0.251618
0.250809
0.244307
0.247203
0.250876
0.248138
0.246104
0.246948
0.247073
0.24673
0.243437
0.238898
0.23507
0.232888
0.232878
0.23471
0.238276
0.241964
0.245358
0.247209
0.247242
0.245459
0.243305
0.247609
0.251531
0.251902
0.25159
0.248908
0.249755
0.25114
0.251014
0.24887
0.24709
0.245598
0.244737
0.244805
0.245192
0.245828
0.24593
0.245589
0.245295
0.24469
0.244403
0.244062
0.243753
0.243737
0.243821
0.24424
0.244563
0.244563
0.245189
0.245736
0.245534
0.244133
0.246311
0.249564
0.251964
0.251798
0.251582
0.251431
0.251204
0.250991
0.250807
0.250523
0.250516
0.250828
0.251327
0.251044
0.251437
0.25116
0.251412
0.251853
0.251818
0.251605
0.250992
0.250627
0.250624
0.250642
0.250485
0.250605
0.25057
0.250617
0.250769
0.250974
0.25095
0.250905
0.250709
0.250509
0.250906
0.251435
0.251428
0.25088
0.250531
0.250802
0.250993
0.251304
0.251259
0.251252
0.251153
0.250891
0.251176
0.251586
0.251588
0.251367
0.251523
0.251504
0.251638
0.251435
0.251237
0.251505
0.249896
0.245476
0.238919
0.235443
0.234183
0.240581
0.245781
0.245136
0.242097
0.250862
0.251228
0.251295
0.251105
0.251368
0.251094
0.251038
0.250723
0.250543
0.250816
0.251293
0.251475
0.251546
0.251566
0.251563
0.251363
0.251202
0.250999
0.250899
0.250947
0.250951
0.250915
0.250857
0.250961
0.251077
0.2512
0.25086
0.250129
0.249876
0.250112
0.250451
0.250626
0.25074
0.246149
0.244932
0.246361
0.246995
0.246593
0.24557
0.245736
0.247835
0.249034
0.25049
0.250222
0.249046
0.245915
0.238713
0.230873
0.226922
0.224106
0.225609
0.227579
0.232433
0.238207
0.244708
0.248189
0.250951
0.251031
0.251513
0.251526
0.251361
0.250903
0.250753
0.251547
0.251194
0.25167
0.2517
0.251515
0.251756
0.25204
0.252108
0.252099
0.252122
0.252512
0.251041
0.249449
0.245968
0.243433
0.244452
0.247016
0.248857
0.249215
0.249222