/*--------------------------------*- C++ -*----------------------------------*\
| =========                 |                                                 |
| \\      /  F ield         | OpenFOAM: The Open Source CFD Toolbox           |
|  \\    /   O peration     | Version:  2.1.1                                 |
|   \\  /    A nd           | Web:      www.OpenFOAM.org                      |
|    \\/     M anipulation  |                                                 |
\*---------------------------------------------------------------------------*/
FoamFile
{
    version     2.0;
    format      ascii;
    class       volScalarField;
    location    "0.004950000";
    object      HO2;
}
// * * * * * * * * * * * * * * * * * * * * * * * * * * * * * * * * * * * * * //

dimensions      [0 0 0 0 0 0 0];

internalField   nonuniform List<scalar> 
12384
(
2.94408e-06
3.90836e-06
4.42002e-06
5.74225e-06
6.152e-06
6.16485e-06
5.88938e-06
5.26171e-06
4.05366e-06
3.36193e-06
2.66635e-06
2.90808e-06
6.03191e-06
1.20012e-05
7.72068e-06
7.87266e-06
7.30302e-06
6.89828e-06
6.7238e-06
6.7727e-06
6.86306e-06
6.99918e-06
7.06302e-06
7.15914e-06
7.25297e-06
7.35214e-06
7.43995e-06
7.61542e-06
7.71069e-06
7.85058e-06
7.94611e-06
8.09865e-06
8.26931e-06
8.34442e-06
8.50274e-06
8.61694e-06
8.70571e-06
8.66633e-06
8.64443e-06
8.46771e-06
8.70483e-06
8.8573e-06
9.03729e-06
9.02184e-06
2.28181e-06
1.76467e-06
1.70176e-06
1.78339e-06
2.18381e-06
2.85346e-06
3.0814e-06
2.33501e-06
1.3467e-06
6.32093e-07
6.15706e-07
6.15539e-07
6.09758e-07
9.02279e-07
5.27e-07
8.57169e-07
6.2021e-07
9.14243e-07
8.15522e-07
9.76078e-07
9.90427e-07
1.08577e-06
1.10585e-06
1.25477e-06
1.25182e-06
1.38063e-06
1.59766e-06
2.5837e-06
7.68221e-06
8.30468e-06
5.82035e-07
9.62272e-07
1.44745e-06
2.12596e-06
2.83815e-06
3.22167e-06
3.32712e-06
3.38537e-06
3.33042e-06
2.97167e-06
2.76421e-06
2.43619e-06
2.03448e-06
1.87732e-06
1.85431e-06
1.78489e-06
1.75541e-06
1.78199e-06
1.80687e-06
1.87987e-06
1.96547e-06
2.08897e-06
2.10795e-06
2.35858e-06
2.37001e-06
3.23245e-06
3.48409e-06
4.01453e-06
5.28502e-06
5.75168e-06
2.24068e-07
1.91456e-07
2.36223e-07
2.78717e-07
3.18124e-07
3.38527e-07
3.47069e-07
3.4033e-07
3.39206e-07
3.42031e-07
3.42501e-07
3.12478e-07
3.26694e-07
3.23723e-07
2.93409e-07
5.35433e-07
5.16311e-07
5.96797e-07
6.96275e-07
8.10138e-07
8.91895e-07
1.04546e-06
1.17824e-06
1.29235e-06
1.3362e-06
1.32224e-06
2.50406e-06
6.79256e-06
6.62525e-06
6.43285e-06
7.10211e-07
3.75094e-07
3.10035e-07
1.49407e-07
1.38713e-07
1.22646e-07
1.19312e-07
1.28188e-07
1.39096e-07
1.46097e-07
1.46923e-07
1.45486e-07
1.42314e-07
1.37952e-07
1.37688e-07
1.19924e-07
1.24787e-07
1.2976e-07
1.31268e-07
1.30086e-07
1.28392e-07
1.16715e-07
1.17338e-07
1.35941e-07
1.33348e-07
1.48305e-07
1.84682e-07
2.12192e-07
2.29178e-06
2.91716e-06
1.98407e-06
3.70522e-07
3.03836e-07
1.28776e-06
1.6439e-06
1.83878e-06
2.92534e-06
3.40933e-06
4.22623e-06
4.60443e-06
5.00142e-06
5.56756e-06
5.75819e-06
5.92071e-06
6.07689e-06
6.16928e-06
6.17186e-06
6.17748e-06
6.16734e-06
6.16287e-06
6.06522e-06
5.92149e-06
5.75553e-06
5.58517e-06
5.16672e-06
4.78605e-06
4.33032e-06
3.48568e-06
3.36972e-06
3.84082e-06
8.88108e-06
8.26695e-06
2.11356e-06
2.78606e-07
1.04619e-07
1.51527e-07
1.9319e-07
2.23889e-07
2.22097e-07
2.33722e-07
1.55605e-07
1.73372e-07
1.08116e-07
1.06348e-07
1.16111e-07
1.00063e-07
1.0221e-07
1.46706e-07
1.70811e-07
2.45245e-07
2.66641e-07
3.33069e-07
4.01969e-07
4.30847e-07
4.68719e-07
4.14568e-07
2.93589e-07
1.87187e-07
2.56731e-07
5.13747e-07
6.81832e-06
6.58395e-06
4.80591e-06
1.19338e-06
1.4428e-07
3.11731e-08
2.03245e-08
2.02035e-08
1.77958e-08
1.95493e-08
1.95628e-08
2.22196e-08
2.16226e-08
2.40282e-08
1.99473e-08
2.64825e-08
3.17898e-08
3.9617e-08
4.37226e-08
4.5494e-08
4.22421e-08
3.33519e-08
2.25266e-08
1.03316e-08
4.6145e-09
2.3364e-09
1.56081e-09
1.18615e-09
1.42671e-09
2.38224e-09
8.48064e-06
8.27966e-06
7.48808e-06
5.38887e-06
3.06314e-06
1.94572e-06
1.11518e-06
5.41956e-07
4.28642e-07
3.0225e-07
2.78677e-07
1.75616e-07
1.68862e-07
1.07069e-07
9.89369e-08
8.4951e-08
7.35743e-08
7.7471e-08
7.22999e-08
6.2646e-08
5.36853e-08
4.44548e-08
3.93432e-08
4.03013e-08
4.06596e-08
8.0174e-08
9.02552e-08
9.41503e-08
9.25741e-08
9.25517e-08
1.9988e-07
8.91277e-08
2.89132e-08
2.53976e-08
1.65342e-08
1.36886e-08
1.12346e-08
9.24765e-09
6.67054e-09
6.99172e-09
4.25287e-09
5.61682e-09
3.30955e-09
4.48412e-09
4.42217e-09
3.87615e-09
4.38979e-09
4.90403e-09
5.53033e-09
6.28746e-09
6.30282e-09
8.88793e-09
9.2879e-09
1.4801e-08
3.19748e-08
3.5752e-08
2.62225e-08
2.39169e-08
2.48421e-08
2.14114e-08
5.82431e-06
4.43741e-08
5.24773e-09
7.46189e-09
2.00433e-08
4.37546e-08
5.85796e-08
1.52554e-07
1.76761e-07
1.93207e-07
1.96094e-07
1.94272e-07
1.8162e-07
1.70166e-07
1.4738e-07
1.23333e-07
1.01601e-07
7.72822e-08
6.97425e-08
4.73998e-08
7.08473e-08
9.66448e-08
9.29384e-08
9.60403e-08
9.38861e-08
7.03399e-08
3.74839e-08
1.67707e-08
1.00354e-06
3.37925e-06
1.919e-06
1.87028e-06
1.96923e-06
2.48424e-06
3.21017e-06
5.55692e-06
1.26861e-08
3.29395e-10
3.51962e-10
3.26491e-10
4.18468e-10
6.03689e-10
6.49334e-10
6.36426e-10
6.94158e-10
7.78449e-10
9.69909e-10
1.06905e-09
1.48647e-09
2.32498e-09
3.60221e-09
5.25168e-09
6.82797e-09
7.49027e-09
1.25655e-08
2.46495e-08
2.32568e-07
7.32863e-06
4.45584e-06
3.8447e-06
9.51164e-06
1.14168e-05
1.22296e-05
1.21527e-05
1.20443e-05
1.18325e-05
1.14134e-05
1.11848e-05
1.05839e-05
8.04908e-06
4.0895e-06
2.82584e-06
4.13264e-06
1.05561e-05
7.59442e-06
7.28189e-06
6.6806e-06
6.60525e-06
6.86569e-06
6.85419e-06
7.0004e-06
7.07753e-06
7.3035e-06
7.50585e-06
7.74031e-06
7.81003e-06
8.03349e-06
8.23093e-06
8.59923e-06
8.79139e-06
9.21944e-06
9.4188e-06
9.74729e-06
9.96424e-06
1.01076e-05
1.005e-05
9.9897e-06
9.64849e-06
9.2021e-06
8.73504e-06
8.60192e-06
8.76722e-06
8.97508e-06
9.12454e-06
2.36053e-06
1.88145e-06
2.06777e-06
2.36113e-06
2.87485e-06
2.94904e-06
1.81922e-06
5.7346e-07
4.88036e-07
6.36522e-07
2.15543e-06
2.48835e-06
2.40927e-06
2.1199e-06
1.89491e-06
2.02298e-06
2.08199e-06
2.33282e-06
2.8911e-06
3.25578e-06
3.37805e-06
3.49667e-06
3.28947e-06
2.91516e-06
2.26725e-06
1.9898e-06
1.76588e-06
2.08137e-06
4.31564e-06
7.30028e-06
6.61082e-07
1.21435e-06
2.04785e-06
3.12965e-06
3.86548e-06
3.9301e-06
3.83239e-06
2.59224e-06
1.35398e-06
6.60699e-07
3.83878e-07
3.20408e-07
3.49331e-07
3.35441e-07
4.01006e-07
4.28888e-07
5.10871e-07
5.58094e-07
1.02893e-06
1.39155e-06
1.67805e-06
1.91681e-06
2.18592e-06
2.32645e-06
2.46436e-06
2.49804e-06
3.15295e-06
3.55418e-06
4.36034e-06
5.09626e-06
2.18576e-07
1.7172e-07
2.38319e-07
2.87613e-07
2.85196e-07
2.60177e-07
2.9614e-07
3.03584e-07
2.87913e-07
3.30235e-07
3.62625e-07
3.82668e-07
6.12228e-07
8.1892e-07
8.53963e-07
1.0266e-06
1.04733e-06
1.14599e-06
1.18094e-06
1.29575e-06
1.32742e-06
1.41057e-06
1.48383e-06
1.61642e-06
1.57193e-06
1.43441e-06
1.82024e-06
4.24031e-06
6.13509e-06
5.97867e-06
6.77899e-07
3.52858e-07
2.03067e-07
1.22641e-07
9.82456e-08
9.00928e-08
1.07175e-07
9.62962e-08
1.02963e-07
1.02289e-07
9.96007e-08
9.58659e-08
1.11134e-07
1.11409e-07
1.01558e-07
1.06533e-07
1.1745e-07
1.26997e-07
1.34413e-07
1.38624e-07
1.35142e-07
1.20333e-07
1.24125e-07
1.08188e-07
1.15997e-07
1.33392e-07
1.47463e-07
2.12557e-07
5.50688e-07
1.63327e-06
1.07298e-06
3.07046e-07
4.20369e-07
1.58469e-06
2.48514e-06
2.67473e-06
1.65948e-06
1.62664e-06
2.83215e-06
4.49635e-06
5.44174e-06
5.97196e-06
6.19216e-06
6.1969e-06
6.21312e-06
6.229e-06
6.17013e-06
6.09873e-06
6.07226e-06
6.08598e-06
6.14563e-06
6.1992e-06
6.16252e-06
5.8153e-06
5.27057e-06
4.66327e-06
4.17584e-06
3.35474e-06
3.1968e-06
3.68747e-06
3.51389e-06
9.78976e-07
1.80052e-07
1.42622e-07
1.52144e-07
2.09657e-07
2.19963e-07
1.42612e-07
1.09446e-07
7.0451e-08
5.68487e-08
3.81099e-08
3.90674e-08
3.15828e-08
3.05196e-08
2.77478e-08
2.83079e-08
2.96642e-08
3.51395e-08
3.93931e-08
6.82288e-08
1.02045e-07
1.72494e-07
3.34846e-07
4.44104e-07
4.64412e-07
4.07526e-07
3.03369e-07
2.15573e-07
3.78896e-07
8.74284e-08
4.21497e-08
2.83766e-08
2.61093e-08
2.93025e-08
3.45527e-08
6.84759e-08
8.89452e-08
1.0584e-07
2.03013e-07
2.54284e-07
2.84519e-07
2.97796e-07
2.82339e-07
2.65713e-07
2.30997e-07
1.84699e-07
1.2273e-07
8.64493e-08
6.90543e-08
5.49417e-08
4.36586e-08
3.52883e-08
2.06002e-08
1.15723e-08
7.15252e-09
4.26573e-09
2.17326e-09
1.45177e-09
1.56407e-09
6.18359e-06
5.41986e-06
2.32396e-06
5.21883e-07
2.78055e-07
1.87926e-07
2.07761e-07
2.60118e-07
2.88842e-07
3.26064e-07
3.32874e-07
4.65027e-07
5.34325e-07
4.59447e-07
2.81749e-07
2.44643e-07
2.31596e-07
1.75879e-07
9.72047e-08
9.43003e-08
8.23671e-08
5.62671e-08
3.85428e-08
4.29014e-08
3.71116e-08
4.68236e-08
6.65015e-08
6.79762e-08
6.8264e-08
8.51918e-08
5.23819e-08
6.58876e-08
3.61506e-08
1.87679e-08
1.42858e-08
1.19209e-08
1.08663e-08
9.84273e-09
9.4999e-09
9.7524e-09
8.09466e-09
8.96412e-09
7.27584e-09
6.50707e-09
4.2539e-09
6.49094e-09
6.31163e-09
7.16962e-09
6.78577e-09
6.47761e-09
7.30839e-09
8.44761e-09
8.79008e-09
1.14978e-08
1.59341e-08
3.46612e-08
3.92311e-08
3.4225e-08
3.30033e-08
3.32595e-08
1.12484e-07
8.37855e-09
7.22717e-09
2.20337e-08
1.24628e-07
3.78192e-07
5.08443e-07
2.04902e-07
1.19306e-07
7.05311e-08
6.01442e-08
4.83862e-08
3.53586e-08
2.74538e-08
2.0772e-08
1.4917e-08
6.73754e-09
8.29892e-09
7.55304e-09
6.55138e-09
7.19589e-09
6.45424e-09
1.2355e-08
9.56777e-09
3.33505e-08
4.28208e-08
3.78063e-08
1.30678e-08
6.89548e-08
6.23451e-06
1.85858e-06
2.67691e-06
5.02647e-06
4.73588e-06
3.6495e-08
9.88269e-09
7.51321e-10
3.09113e-10
3.96555e-10
4.47241e-10
4.34681e-10
4.37828e-10
4.24043e-10
4.21412e-10
4.79072e-10
4.5902e-10
4.96171e-10
4.96925e-10
6.24643e-10
6.12925e-10
1.43017e-09
3.38131e-09
1.10824e-08
1.49027e-08
1.3417e-08
7.62778e-09
1.21491e-08
1.15816e-07
7.18735e-06
3.94674e-06
1.27712e-05
1.28096e-05
1.25005e-05
1.13238e-05
9.17246e-06
8.15593e-06
8.44142e-06
9.63756e-06
1.11669e-05
1.09792e-05
8.25985e-06
3.80951e-06
3.73171e-06
8.58025e-06
7.22708e-06
6.72618e-06
6.64466e-06
6.73298e-06
6.62979e-06
6.5358e-06
6.38669e-06
6.67725e-06
7.18525e-06
7.56337e-06
7.86902e-06
8.10651e-06
8.32935e-06
8.87185e-06
9.34927e-06
1.00247e-05
1.0416e-05
1.08968e-05
1.11447e-05
1.14483e-05
1.16656e-05
1.1658e-05
1.14818e-05
1.11122e-05
1.03311e-05
9.38182e-06
8.71394e-06
8.67269e-06
8.96173e-06
9.26169e-06
2.38847e-06
2.48902e-06
3.88934e-06
4.03236e-06
3.77917e-06
2.00523e-06
5.43964e-07
3.99136e-07
1.71566e-06
4.37458e-06
7.35072e-06
7.20035e-06
4.79421e-06
3.48525e-06
3.4725e-06
4.20637e-06
4.77552e-06
5.73772e-06
6.0222e-06
6.30059e-06
6.30541e-06
6.38231e-06
6.32601e-06
5.98956e-06
5.35809e-06
3.99288e-06
2.44022e-06
2.14105e-06
2.64542e-06
5.47329e-06
7.04951e-07
1.47879e-06
2.93785e-06
3.88719e-06
3.98476e-06
3.09629e-06
1.37441e-06
4.27254e-07
2.03003e-07
1.03338e-07
1.48933e-07
1.71721e-07
2.07781e-07
1.71873e-07
3.22129e-07
4.51908e-07
5.86063e-07
1.39771e-06
1.84628e-06
2.17646e-06
2.45321e-06
3.30807e-06
3.67989e-06
3.86056e-06
3.72745e-06
3.28335e-06
2.64117e-06
2.6284e-06
3.69334e-06
4.64842e-06
2.0938e-07
1.65168e-07
2.07501e-07
2.15361e-07
2.41366e-07
2.56871e-07
2.77662e-07
3.08273e-07
3.48336e-07
3.90923e-07
7.4586e-07
1.13145e-06
1.32848e-06
1.5441e-06
1.63906e-06
1.8037e-06
1.85543e-06
2.02193e-06
1.94373e-06
2.08249e-06
1.91316e-06
1.98159e-06
1.89298e-06
1.98148e-06
1.90319e-06
1.75579e-06
1.67069e-06
2.39504e-06
4.52429e-06
5.13057e-06
5.86815e-07
2.94639e-07
1.43039e-07
9.57286e-08
8.83772e-08
7.37068e-08
8.34999e-08
7.99068e-08
7.50265e-08
6.86396e-08
5.973e-08
7.23853e-08
7.49343e-08
8.45335e-08
8.85903e-08
1.07264e-07
1.25971e-07
1.39534e-07
1.53767e-07
1.52919e-07
1.57529e-07
1.62219e-07
1.63306e-07
1.49079e-07
1.45002e-07
1.30772e-07
1.36093e-07
1.73013e-07
2.67422e-07
6.44674e-07
4.94995e-07
3.56511e-07
1.09652e-06
1.45082e-06
9.32121e-07
3.04294e-07
3.28854e-07
1.23606e-06
3.71033e-06
5.99117e-06
6.45812e-06
6.34734e-06
5.4157e-06
4.66014e-06
4.01174e-06
4.74951e-06
5.38647e-06
5.86936e-06
6.16988e-06
6.20708e-06
6.21772e-06
6.20679e-06
6.16496e-06
5.75424e-06
4.92295e-06
4.27058e-06
3.45878e-06
3.05507e-06
2.94382e-06
3.45637e-06
9.11558e-07
1.71353e-07
1.16959e-07
1.43973e-07
1.88384e-07
1.61023e-07
9.09424e-08
4.02439e-08
3.77957e-08
4.77661e-08
5.863e-08
4.0131e-08
3.93509e-08
3.51124e-08
3.40006e-08
2.58636e-08
2.41659e-08
2.06659e-08
1.93702e-08
1.36488e-08
1.82663e-08
3.24794e-08
5.36827e-08
1.22868e-07
3.02044e-07
4.78478e-07
4.88413e-07
4.14437e-07
2.90674e-07
3.54247e-07
2.56874e-08
2.50194e-08
2.95566e-08
6.67255e-08
1.03983e-07
3.66853e-07
9.53074e-07
1.51626e-06
2.00227e-06
2.24305e-06
2.80857e-06
3.02556e-06
3.00847e-06
2.89971e-06
2.5601e-06
1.84947e-06
1.46616e-06
9.42043e-07
3.45763e-07
2.07491e-07
7.59844e-08
7.3309e-08
5.67354e-08
3.71398e-08
2.60078e-08
1.84825e-08
1.02127e-08
4.72497e-09
2.19009e-09
1.67855e-09
5.2899e-06
1.81678e-06
2.40509e-07
1.27904e-07
3.06178e-07
8.91311e-07
1.73435e-06
2.7036e-06
3.35419e-06
3.61651e-06
3.62314e-06
3.68029e-06
3.37722e-06
3.26262e-06
3.08009e-06
2.7574e-06
2.29665e-06
1.53829e-06
1.08624e-06
3.44358e-07
2.0873e-07
1.12188e-07
7.74366e-08
4.88619e-08
3.64906e-08
3.95873e-08
3.66682e-08
4.52237e-08
5.06742e-08
6.5367e-08
1.00419e-07
4.68564e-08
1.06195e-08
1.21233e-08
1.23621e-08
1.15044e-08
2.22247e-08
2.93844e-08
4.39866e-08
4.50279e-08
4.90961e-08
4.79185e-08
5.11239e-08
4.72478e-08
4.13418e-08
3.33098e-08
1.99587e-08
1.8639e-08
1.55782e-08
1.11287e-08
1.01583e-08
9.86889e-09
9.23538e-09
1.09914e-08
1.25356e-08
1.8981e-08
3.44425e-08
4.22429e-08
4.61679e-08
4.32086e-08
1.50569e-08
8.06044e-09
2.15512e-08
1.55905e-07
4.7341e-07
1.68668e-07
6.71627e-08
1.75905e-08
2.90437e-08
2.22713e-08
1.68423e-08
8.25684e-09
1.18161e-08
8.41191e-09
5.4243e-09
4.69404e-09
4.32022e-09
4.02273e-09
4.33284e-09
4.58171e-09
5.0004e-09
4.52565e-09
4.22882e-09
5.23355e-09
5.58043e-09
1.43386e-08
2.57533e-08
1.57502e-08
2.9403e-08
2.92953e-06
2.27448e-06
5.76245e-06
4.70007e-08
3.92063e-09
1.05115e-09
5.12522e-10
3.15773e-10
3.27057e-10
3.96412e-10
4.63962e-10
5.16231e-10
5.57449e-10
5.95983e-10
6.79114e-10
7.32457e-10
7.06912e-10
6.11308e-10
5.52291e-10
5.11124e-10
4.30277e-10
5.91812e-10
7.41766e-10
3.86147e-09
6.66118e-08
1.65795e-07
4.041e-08
1.60828e-08
2.41347e-08
7.25205e-06
3.9873e-06
1.30973e-05
1.27188e-05
1.05992e-05
6.35981e-06
4.33867e-06
4.29126e-06
4.46619e-06
6.23173e-06
8.76379e-06
1.10413e-05
1.0306e-05
5.74292e-06
3.91818e-06
8.08824e-06
7.03461e-06
6.62296e-06
6.57864e-06
6.40866e-06
5.92291e-06
5.27458e-06
4.79208e-06
5.62176e-06
6.69398e-06
7.38135e-06
7.91335e-06
8.06238e-06
8.67179e-06
9.3116e-06
1.02295e-05
1.06592e-05
1.12833e-05
1.14186e-05
1.17807e-05
1.18433e-05
1.20332e-05
1.21522e-05
1.21575e-05
1.18928e-05
1.12759e-05
1.02154e-05
8.98248e-06
8.44332e-06
8.64689e-06
9.15514e-06
2.51743e-06
4.19063e-06
6.00434e-06
5.12823e-06
2.72181e-06
6.43389e-07
3.38251e-07
5.34433e-07
4.04741e-06
8.11877e-06
9.10538e-06
8.62114e-06
5.16969e-06
4.18632e-06
4.91884e-06
6.2706e-06
6.72614e-06
7.09077e-06
6.9279e-06
6.83099e-06
6.82056e-06
6.94525e-06
6.99488e-06
6.9986e-06
6.74504e-06
6.00435e-06
4.39277e-06
2.43636e-06
2.39185e-06
4.50582e-06
7.84556e-07
1.63097e-06
3.29885e-06
3.83159e-06
2.93098e-06
1.15679e-06
2.00955e-07
8.65639e-08
7.99672e-08
1.25075e-07
2.31094e-07
3.41468e-07
3.85316e-07
4.15205e-07
5.66553e-07
1.67553e-06
2.2758e-06
3.13573e-06
3.65581e-06
4.01237e-06
4.32487e-06
4.66943e-06
4.90535e-06
5.33129e-06
4.98629e-06
4.31523e-06
3.46286e-06
2.56466e-06
3.34783e-06
4.2489e-06
1.94679e-07
1.52147e-07
1.66258e-07
2.25083e-07
3.15516e-07
3.43065e-07
3.34834e-07
3.66011e-07
5.66805e-07
9.52559e-07
1.27759e-06
1.55355e-06
1.59227e-06
1.76733e-06
1.73683e-06
2.19457e-06
2.42376e-06
2.68495e-06
2.83009e-06
3.06595e-06
2.4756e-06
2.53666e-06
2.31094e-06
2.35966e-06
2.29623e-06
2.12297e-06
1.82579e-06
2.04931e-06
3.4311e-06
4.60098e-06
5.14775e-07
2.45275e-07
1.12688e-07
8.13708e-08
6.7904e-08
7.55891e-08
7.41108e-08
8.12611e-08
8.31127e-08
7.19906e-08
6.05025e-08
5.45213e-08
5.14514e-08
3.55019e-08
8.17755e-08
1.07433e-07
1.28035e-07
1.40346e-07
1.52973e-07
1.72504e-07
1.80779e-07
1.96758e-07
1.96952e-07
2.00748e-07
1.74647e-07
1.27377e-07
1.29135e-07
1.45502e-07
2.10314e-07
5.17954e-07
4.5511e-07
4.07575e-07
8.87257e-07
3.33613e-07
1.28759e-07
1.30906e-07
8.75566e-07
4.50235e-06
6.75179e-06
6.12911e-06
3.15717e-06
4.13887e-07
1.11231e-07
1.19018e-07
1.05053e-07
1.2617e-07
2.48645e-07
6.80636e-07
1.66369e-06
4.31738e-06
5.80687e-06
6.15726e-06
6.14269e-06
5.72584e-06
4.92649e-06
4.31068e-06
3.43659e-06
2.89017e-06
2.71972e-06
3.25445e-06
3.16054e-07
1.17993e-07
1.10389e-07
1.71841e-07
1.43936e-07
6.68716e-08
5.17133e-08
6.14078e-08
1.17621e-07
1.5076e-07
1.32983e-07
1.11778e-07
7.27674e-08
3.66292e-08
3.29282e-08
2.69504e-08
2.42514e-08
2.18095e-08
2.10447e-08
1.5519e-08
1.36307e-08
1.45916e-08
2.23118e-08
4.769e-08
1.43457e-07
4.27921e-07
5.21978e-07
4.77188e-07
3.36714e-07
3.61206e-07
2.65011e-08
2.9131e-08
1.04782e-07
4.54809e-07
1.88249e-06
3.37936e-06
4.16554e-06
4.90263e-06
5.14776e-06
4.92149e-06
4.8531e-06
4.78287e-06
4.39959e-06
4.71337e-06
4.64719e-06
4.53833e-06
3.98281e-06
3.09909e-06
1.81593e-06
1.01802e-06
3.1515e-07
1.53189e-07
9.03768e-08
7.03854e-08
5.12566e-08
3.83826e-08
2.05011e-08
7.65753e-09
2.92381e-09
1.79976e-09
2.76106e-06
1.91303e-07
2.19514e-07
8.80419e-07
2.21563e-06
3.97908e-06
4.79364e-06
4.7639e-06
4.55348e-06
3.81959e-06
3.49763e-06
3.17254e-06
2.99698e-06
2.92131e-06
2.89657e-06
2.92581e-06
2.96393e-06
3.04264e-06
2.90317e-06
1.81594e-06
1.12715e-06
3.27704e-07
9.92574e-08
8.87038e-08
5.64145e-08
4.17512e-08
5.22826e-08
4.38206e-08
4.06578e-08
6.51837e-08
9.07501e-08
1.95621e-08
1.18007e-08
1.48834e-08
2.65811e-08
4.61064e-08
8.82066e-08
1.84964e-07
2.318e-07
6.35996e-07
9.23759e-07
1.17163e-06
1.12822e-06
1.1879e-06
1.07808e-06
6.8525e-07
2.00467e-07
1.16017e-07
5.3391e-08
2.6043e-08
1.85314e-08
1.55328e-08
1.17713e-08
1.13851e-08
1.24137e-08
1.43988e-08
2.3309e-08
3.4343e-08
4.69281e-08
4.64627e-08
8.79065e-09
1.47988e-08
1.03127e-07
4.79703e-07
1.27876e-07
3.77251e-08
3.07162e-08
2.46753e-08
2.48377e-08
2.10172e-08
1.81757e-08
1.314e-08
9.22502e-09
4.263e-09
4.89901e-09
4.18548e-09
5.90411e-09
9.44629e-09
2.03343e-08
4.80832e-08
5.34656e-08
2.30026e-08
1.00266e-08
4.86782e-09
4.4214e-09
6.01727e-09
1.23928e-08
1.27491e-08
1.20897e-08
8.92786e-07
3.20021e-06
1.89941e-07
1.35463e-09
5.73706e-10
2.959e-10
2.8879e-10
3.16869e-10
3.8765e-10
4.9034e-10
5.92305e-10
9.46469e-10
1.31738e-09
1.58938e-09
2.26469e-09
1.98362e-09
1.56161e-09
1.42482e-09
1.2072e-09
7.73744e-10
6.51041e-10
5.61204e-10
4.86953e-10
6.99228e-10
7.7222e-09
2.29465e-07
8.87657e-08
2.84097e-08
3.81993e-08
6.52524e-06
4.15698e-06
1.34014e-05
1.23034e-05
6.55393e-06
3.87029e-06
3.86985e-06
4.45467e-06
5.71461e-06
6.43245e-06
7.80537e-06
1.08194e-05
1.09057e-05
6.74013e-06
4.16266e-06
7.85406e-06
6.83513e-06
6.54261e-06
6.2453e-06
5.61086e-06
4.31748e-06
3.32357e-06
3.06087e-06
4.06199e-06
6.07007e-06
7.29065e-06
7.70885e-06
8.20523e-06
8.95164e-06
1.00112e-05
1.0555e-05
1.11815e-05
1.10717e-05
1.12871e-05
1.11922e-05
1.14867e-05
1.16874e-05
1.18774e-05
1.21405e-05
1.20863e-05
1.17011e-05
1.07222e-05
9.44775e-06
8.60878e-06
8.76068e-06
9.47206e-06
2.60795e-06
4.9588e-06
6.4665e-06
4.86632e-06
1.83227e-06
4.12335e-07
2.69971e-07
5.46304e-07
4.24626e-06
8.89452e-06
9.31297e-06
8.82092e-06
5.00724e-06
4.89344e-06
6.52831e-06
7.22169e-06
7.04153e-06
6.61555e-06
6.0428e-06
5.96354e-06
5.94821e-06
6.15026e-06
6.51478e-06
6.76913e-06
7.07787e-06
6.81554e-06
5.707e-06
3.75184e-06
2.39467e-06
4.04053e-06
8.42289e-07
2.11788e-06
3.19519e-06
2.85835e-06
1.18117e-06
1.89796e-07
6.12267e-08
5.0859e-08
6.7424e-08
2.08111e-07
6.77512e-07
5.93645e-07
4.91071e-07
8.67285e-07
1.92785e-06
3.02459e-06
3.7124e-06
3.89885e-06
4.01231e-06
4.2557e-06
4.58176e-06
5.37474e-06
5.69958e-06
6.01136e-06
5.97164e-06
5.53335e-06
3.98086e-06
2.53406e-06
3.0575e-06
4.01874e-06
1.99958e-07
1.17879e-07
1.81139e-07
3.11255e-07
8.35388e-07
7.13022e-07
3.84113e-07
5.70329e-07
9.26361e-07
1.33798e-06
1.54702e-06
1.67989e-06
1.62585e-06
1.67764e-06
1.561e-06
1.66307e-06
1.74277e-06
2.08366e-06
2.23488e-06
3.30568e-06
3.21043e-06
3.48783e-06
2.6774e-06
2.72856e-06
2.61605e-06
2.47567e-06
2.14546e-06
2.05532e-06
2.56028e-06
4.25885e-06
4.39471e-07
1.85079e-07
9.45846e-08
5.77519e-08
5.57178e-08
6.35803e-08
6.97523e-08
9.29781e-08
1.12112e-07
1.02388e-07
6.17063e-08
4.67829e-08
4.1295e-08
4.21994e-08
6.49031e-08
9.85303e-08
1.26749e-07
1.46489e-07
1.74167e-07
1.87476e-07
2.04e-07
2.00066e-07
2.31812e-07
2.23816e-07
1.93984e-07
1.53827e-07
1.31756e-07
1.30936e-07
1.90312e-07
4.21105e-07
4.32549e-07
4.09467e-07
3.29977e-07
1.05957e-07
7.08166e-08
3.05394e-07
3.72731e-06
6.07927e-06
4.5154e-06
8.43271e-07
1.29959e-07
5.36674e-08
3.12316e-08
2.83808e-08
2.23126e-08
3.48664e-08
5.01275e-08
1.03384e-07
2.60635e-07
9.45856e-07
2.66776e-06
5.18799e-06
5.85616e-06
5.76899e-06
5.51543e-06
4.91947e-06
4.18652e-06
2.91616e-06
2.56427e-06
3.16803e-06
1.78184e-07
9.78208e-08
1.34401e-07
1.29128e-07
4.8299e-08
5.85361e-08
9.89583e-08
1.79648e-07
2.80072e-07
2.56784e-07
1.41661e-07
8.43842e-08
3.84398e-08
2.71018e-08
2.06649e-08
1.45974e-08
1.29294e-08
1.15911e-08
1.69156e-08
1.45721e-08
1.42007e-08
1.22903e-08
1.5083e-08
3.129e-08
9.58938e-08
3.39798e-07
5.64843e-07
5.63133e-07
3.93943e-07
3.72625e-07
2.78522e-08
8.71349e-08
8.24073e-07
2.75493e-06
4.54184e-06
5.45717e-06
5.26033e-06
5.3265e-06
4.43488e-06
3.90662e-06
3.56181e-06
3.2674e-06
3.23787e-06
3.44221e-06
3.86089e-06
4.65684e-06
4.87186e-06
4.78364e-06
3.98873e-06
2.15822e-06
1.26211e-06
3.68743e-07
2.2352e-07
9.93446e-08
8.90997e-08
6.38176e-08
3.58549e-08
1.41882e-08
4.67579e-09
2.19237e-09
1.06406e-06
1.45065e-07
1.51149e-06
3.19679e-06
3.67868e-06
3.52939e-06
3.10921e-06
2.79131e-06
2.35717e-06
2.18202e-06
2.07057e-06
2.12457e-06
2.23756e-06
2.28025e-06
2.23434e-06
2.17757e-06
2.23018e-06
2.43102e-06
2.77323e-06
3.00144e-06
2.02415e-06
1.31903e-06
3.53445e-07
1.12753e-07
9.02625e-08
6.30679e-08
6.02941e-08
4.80293e-08
4.80147e-08
6.48708e-08
4.87993e-08
1.13765e-08
1.46412e-08
3.01493e-08
6.7909e-08
1.6612e-07
2.7789e-07
9.32304e-07
1.34713e-06
2.32385e-06
3.11121e-06
3.58102e-06
4.18553e-06
4.24116e-06
4.18008e-06
3.92894e-06
2.82421e-06
1.32526e-06
4.65809e-07
1.33261e-07
4.66805e-08
2.71584e-08
2.28997e-08
1.59888e-08
1.10779e-08
1.31641e-08
1.64464e-08
3.01935e-08
4.29661e-08
4.88261e-08
9.57717e-09
4.19456e-08
3.51814e-07
1.71763e-07
4.78419e-08
3.40659e-08
3.16517e-08
3.74812e-08
4.03584e-08
3.66325e-08
2.58442e-08
1.78316e-08
1.06943e-08
5.35561e-09
4.88325e-09
3.79904e-09
1.64979e-08
6.52609e-08
1.09904e-06
2.65992e-06
3.49458e-06
1.4269e-06
6.88581e-08
1.15604e-08
3.74827e-09
4.41221e-09
6.63732e-09
9.95929e-09
1.42525e-08
4.81585e-07
5.0433e-06
6.27444e-09
4.60044e-10
3.1369e-10
2.32355e-10
2.96388e-10
3.71936e-10
4.91281e-10
7.35272e-10
1.26728e-09
2.39867e-09
3.6522e-09
6.62624e-09
7.3565e-09
6.07996e-09
5.01981e-09
3.14569e-09
2.28716e-09
1.39268e-09
1.14505e-09
6.93971e-10
5.79795e-10
4.18707e-10
1.15195e-09
7.11595e-08
1.08778e-07
4.06527e-08
5.19941e-08
6.76736e-06
4.10355e-06
1.35745e-05
1.04169e-05
3.93326e-06
3.62966e-06
5.7657e-06
8.09744e-06
9.76244e-06
9.96509e-06
1.00517e-05
1.1317e-05
1.11483e-05
7.68438e-06
4.31319e-06
7.79859e-06
6.83352e-06
6.27435e-06
5.62681e-06
4.56798e-06
2.74471e-06
2.03449e-06
2.05925e-06
2.59857e-06
5.65117e-06
7.12671e-06
7.67906e-06
8.22645e-06
9.40167e-06
1.02189e-05
1.0915e-05
1.07074e-05
1.06989e-05
1.0058e-05
1.02298e-05
1.0437e-05
1.12862e-05
1.16586e-05
1.19543e-05
1.2064e-05
1.18089e-05
1.09335e-05
9.54742e-06
8.41919e-06
8.54704e-06
9.21052e-06
2.65293e-06
4.9605e-06
6.22932e-06
3.9547e-06
1.02626e-06
2.76972e-07
1.77539e-07
3.74623e-07
2.63519e-06
9.09119e-06
9.44164e-06
8.77579e-06
4.9956e-06
6.10017e-06
7.14318e-06
7.08206e-06
5.92779e-06
4.96036e-06
4.12596e-06
3.96732e-06
4.03828e-06
4.58831e-06
5.47162e-06
6.17756e-06
6.69127e-06
6.93849e-06
6.20575e-06
4.32876e-06
2.33766e-06
3.72434e-06
9.00174e-07
2.07663e-06
2.72114e-06
1.38348e-06
2.10325e-07
6.22961e-08
3.03764e-08
3.11921e-08
9.00984e-08
4.93472e-07
1.81132e-06
9.1807e-07
5.12355e-07
1.65366e-06
2.87597e-06
3.45915e-06
3.54043e-06
3.57766e-06
3.61225e-06
3.92813e-06
4.44764e-06
5.26798e-06
5.85545e-06
6.23972e-06
6.34738e-06
5.7793e-06
4.19004e-06
2.94905e-06
2.41935e-06
3.83057e-06
1.76934e-07
1.15156e-07
2.1249e-07
9.07897e-07
1.12578e-06
7.75921e-07
6.50776e-07
9.76151e-07
1.38449e-06
1.76036e-06
1.78778e-06
1.89034e-06
1.79222e-06
1.73704e-06
1.71282e-06
1.70789e-06
1.7844e-06
2.09801e-06
2.26774e-06
2.81084e-06
3.33085e-06
3.73657e-06
3.00737e-06
3.02842e-06
2.90586e-06
2.76791e-06
2.4183e-06
2.18855e-06
2.51143e-06
4.17807e-06
3.01638e-07
1.40837e-07
8.78197e-08
5.92264e-08
5.51084e-08
5.67817e-08
6.40752e-08
7.90037e-08
1.17357e-07
1.47113e-07
1.11295e-07
4.84041e-08
3.33234e-08
3.64813e-08
6.62308e-08
1.07211e-07
1.25066e-07
1.63812e-07
1.96182e-07
2.14483e-07
2.17578e-07
2.21282e-07
2.16515e-07
2.32314e-07
2.22304e-07
1.65941e-07
1.41603e-07
1.23367e-07
1.87201e-07
3.55829e-07
4.23609e-07
3.71382e-07
1.35484e-07
6.10745e-08
4.50537e-08
7.73063e-07
3.4266e-06
3.6149e-06
1.08494e-06
1.60524e-07
5.13638e-08
3.31591e-08
2.75015e-08
2.96395e-08
2.84423e-08
2.99977e-08
3.64127e-08
5.14365e-08
1.1421e-07
3.15413e-07
1.16078e-06
3.03437e-06
5.28882e-06
5.74208e-06
5.72159e-06
5.5379e-06
4.59795e-06
3.0226e-06
2.47557e-06
3.18279e-06
1.47631e-07
7.28033e-08
1.14268e-07
7.44964e-08
6.09302e-08
1.02866e-07
1.66665e-07
1.86668e-07
2.15575e-07
1.44692e-07
1.16462e-07
5.42416e-08
3.70435e-08
2.55265e-08
1.75979e-08
1.30739e-08
1.13734e-08
1.13655e-08
1.36736e-08
1.43892e-08
1.37817e-08
1.14939e-08
1.25896e-08
1.79827e-08
6.61682e-08
3.00392e-07
5.97763e-07
5.88385e-07
4.27136e-07
4.08668e-07
3.76606e-08
5.1099e-07
3.54493e-06
4.69535e-06
5.14683e-06
5.31544e-06
4.45135e-06
3.95093e-06
2.82422e-06
2.2658e-06
2.01299e-06
2.06509e-06
2.57797e-06
3.05699e-06
3.45241e-06
3.96489e-06
4.89819e-06
5.48362e-06
5.27761e-06
4.13929e-06
2.20315e-06
1.12289e-06
3.53864e-07
2.2708e-07
9.84764e-08
8.64843e-08
4.49728e-08
1.85307e-08
4.47397e-09
2.33175e-09
4.08399e-07
4.48623e-07
2.11035e-06
1.9984e-06
1.69326e-06
1.53969e-06
1.43215e-06
1.46579e-06
1.3412e-06
1.46159e-06
2.0243e-06
2.46734e-06
2.78032e-06
2.87952e-06
2.73303e-06
2.42333e-06
2.08433e-06
1.97592e-06
2.173e-06
2.67804e-06
3.08226e-06
1.97723e-06
1.04685e-06
2.95668e-07
1.27087e-07
8.94546e-08
7.11495e-08
6.51124e-08
5.39552e-08
6.77108e-08
2.8784e-08
1.27155e-08
2.49922e-08
5.15988e-08
8.53386e-08
2.45486e-07
8.88474e-07
1.45314e-06
2.95468e-06
4.09679e-06
4.66577e-06
5.14717e-06
5.31829e-06
5.38944e-06
5.40892e-06
5.41154e-06
5.10267e-06
4.30789e-06
2.39976e-06
6.89317e-07
1.35736e-07
5.50776e-08
2.7599e-08
2.73978e-08
2.17194e-08
1.93084e-08
2.17323e-08
2.74582e-08
4.41992e-08
3.40057e-08
1.30427e-08
9.7033e-08
2.1697e-07
7.82522e-08
4.0928e-08
3.56615e-08
4.80606e-08
5.86171e-08
6.40998e-08
6.04392e-08
4.79938e-08
3.24354e-08
1.74023e-08
8.04141e-09
5.52932e-09
6.34791e-09
3.06722e-08
4.5871e-07
4.33099e-06
6.24463e-06
6.20496e-06
5.87682e-06
9.72066e-07
1.88851e-08
4.50272e-09
3.26655e-09
5.29663e-09
8.6433e-09
1.3928e-08
3.9143e-07
6.25347e-06
1.62605e-09
3.12714e-10
2.52608e-10
2.78018e-10
2.77989e-10
4.69841e-10
6.57412e-10
1.32269e-09
2.93435e-09
6.83793e-09
1.44631e-08
2.45931e-08
2.78656e-08
2.2956e-08
1.21567e-08
6.87977e-09
3.77806e-09
1.91555e-09
1.41876e-09
1.00141e-09
6.79658e-10
3.94411e-10
5.10821e-10
1.14722e-08
1.92182e-07
9.46536e-08
1.40273e-07
7.65551e-06
3.9714e-06
1.35103e-05
8.51891e-06
3.87474e-06
4.39025e-06
8.3353e-06
1.15917e-05
1.29545e-05
1.28822e-05
1.23164e-05
1.19935e-05
1.15551e-05
7.58599e-06
4.47394e-06
7.86008e-06
6.92687e-06
5.89888e-06
4.74233e-06
3.01001e-06
1.85914e-06
1.59353e-06
1.69552e-06
2.43303e-06
5.5292e-06
7.19759e-06
7.4816e-06
8.39456e-06
9.50879e-06
1.05022e-05
1.0613e-05
1.04499e-05
9.54153e-06
9.32005e-06
9.29713e-06
1.00628e-05
1.1013e-05
1.15442e-05
1.17263e-05
1.17888e-05
1.15893e-05
1.10148e-05
9.6804e-06
8.55377e-06
8.63722e-06
9.58729e-06
2.54321e-06
4.13069e-06
4.91475e-06
2.74986e-06
6.0937e-07
2.08673e-07
1.50437e-07
1.88215e-07
2.06033e-06
9.18341e-06
9.59216e-06
8.46278e-06
5.11226e-06
6.69523e-06
7.19048e-06
6.50364e-06
4.45387e-06
3.66412e-06
2.43296e-06
2.40202e-06
2.36426e-06
3.30731e-06
4.35049e-06
5.4141e-06
6.13339e-06
6.69543e-06
6.47721e-06
4.90269e-06
2.80121e-06
3.77801e-06
8.98383e-07
1.59264e-06
1.94875e-06
7.4632e-07
9.46143e-08
3.11021e-08
2.15455e-08
3.00595e-08
1.27137e-07
1.31399e-06
2.31383e-06
9.08994e-07
1.07693e-06
2.10476e-06
3.12491e-06
3.24913e-06
3.03066e-06
3.08266e-06
3.62482e-06
4.35854e-06
5.41746e-06
5.91064e-06
6.10918e-06
6.52454e-06
6.49606e-06
5.64162e-06
3.87026e-06
2.34141e-06
2.34737e-06
3.74594e-06
1.93442e-07
1.08282e-07
3.39995e-07
1.4172e-06
1.16646e-06
7.15231e-07
8.50355e-07
1.39511e-06
1.87792e-06
2.08439e-06
2.24874e-06
2.40112e-06
2.25103e-06
2.3138e-06
2.14707e-06
2.22901e-06
2.19465e-06
2.47352e-06
2.55581e-06
3.0285e-06
3.09558e-06
3.88862e-06
3.19794e-06
3.24123e-06
3.132e-06
3.00037e-06
2.61982e-06
2.34259e-06
2.63387e-06
4.26137e-06
2.93242e-07
1.25674e-07
7.97506e-08
5.34631e-08
5.24186e-08
4.77294e-08
5.22428e-08
6.2046e-08
8.51632e-08
1.61158e-07
1.72206e-07
4.23714e-08
2.95448e-08
3.15779e-08
7.14423e-08
1.63803e-07
1.77967e-07
1.85218e-07
2.16119e-07
2.23721e-07
2.18151e-07
2.19108e-07
2.16523e-07
2.27509e-07
2.11517e-07
1.77757e-07
1.36262e-07
1.4006e-07
1.88644e-07
3.71671e-07
4.15852e-07
2.45838e-07
6.54677e-08
3.96375e-08
6.31838e-08
4.06473e-07
1.45464e-06
1.52159e-06
4.2995e-07
1.13498e-07
3.86525e-08
3.49592e-08
4.47568e-08
6.50663e-08
6.30711e-08
5.36479e-08
5.07203e-08
5.28927e-08
1.09274e-07
2.74525e-07
7.44449e-07
1.67083e-06
4.45889e-06
5.64086e-06
5.71729e-06
5.62922e-06
4.79942e-06
3.00956e-06
2.47389e-06
3.21294e-06
1.17505e-07
7.32697e-08
8.2696e-08
5.14997e-08
8.5976e-08
1.09731e-07
7.85763e-08
7.51074e-08
1.13772e-07