/*--------------------------------*- C++ -*----------------------------------*\
| =========                 |                                                 |
| \\      /  F ield         | OpenFOAM: The Open Source CFD Toolbox           |
|  \\    /   O peration     | Version:  2.1.1                                 |
|   \\  /    A nd           | Web:      www.OpenFOAM.org                      |
|    \\/     M anipulation  |                                                 |
\*---------------------------------------------------------------------------*/
FoamFile
{
    version     2.0;
    format      ascii;
    class       volScalarField;
    location    "0.004950000";
    object      k;
}
// * * * * * * * * * * * * * * * * * * * * * * * * * * * * * * * * * * * * * //

dimensions      [0 2 -2 0 0 0 0];

internalField   nonuniform List<scalar> 
12384
(
31.2343
226.179
335.144
434.878
503.195
528.478
486.855
396.514
304.034
224.452
150.355
81.7315
30.5806
7.85421
200.923
482.498
740.637
930.095
1089.85
1213.89
1319.7
1410.6
1515.82
1652
1842.09
2081.84
2390.18
2736.76
3118.52
3461.7
3765.32
3894.33
3905.64
3661.33
3435.35
3103.89
2813.01
2410.04
1847.44
1151.84
525.637
202.621
96.5513
50.1792
807.951
1197.53
1433.91
1628.64
1790.45
1977.77
2194.29
2401.73
2593.42
2685.13
2716.19
2714.98
2789.78
2992.29
3425.1
3954.38
4607.2
5213.87
5829.42
6163.53
6237.91
5976.33
5391.61
4698.61
3822.08
2746.46
1549.99
597.582
173.471
62.4022
604.936
1142.2
1623.63
2108.42
2571.01
3023.94
3451.84
3860.49
4237.59
4543.41
4790.77
5013.77
5336.81
5832.63
6641.14
7626.63
9007.53
10304.3
11704.4
12515.9
12933.6
12513.6
11272.2
10067.9
8934.34
7419.12
5146.67
2320.41
550.798
255.518
1238.32
2121.99
2797.98
3327.87
3799.06
4253.68
4725.22
5216.48
5821.02
6573.48
7480.34
8452.45
9525.18
10302.7
11189.3
11380.5
11761.9
11961.1
11963.4
11769.6
11253.3
10427.9
9257.97
7810.25
6050.26
3849
1446.56
352.271
245.68
279.001
219.113
478.705
766.995
1019.01
1207.1
1376.79
1581.14
1842.6
2076.78
2206.5
2372.56
2668.79
3238.58
3974.01
4891.52
6005.53
7270.04
8643.28
9909.05
10655.5
10982.6
9530.81
8548.42
7608.12
6589.62
5376.55
3995.66
2597.29
1309.09
705.45
259.792
417.39
616.416
800.034
959.65
1120.92
1308.35
1480.7
1600.07
1689.85
1755.01
1845.23
1957.33
2108.12
2277.35
2433.49
2534.51
2557.12
2501.19
2454.86
2449.56
2461.25
2470.09
2463.16
2398.6
2274.58
2071.04
1722.97
1156.87
496.315
206.927
318.933
740.434
1491.4
2235.34
2792.29
3168.93
3437.47
3702.36
4104.22
4672.54
5423.53
6081.93
6646.29
6690.74
6066.04
5721.86
5339.86
5026.59
4549.14
4032.24
3480.12
2992.2
2581.67
2262.57
2015.12
1814.41
1585.56
1239.01
808.9
183.951
219.32
679.021
1412.48
2117.38
2751.86
3398.5
4169.57
5031.81
5973.72
6840.95
7487.98
7755.12
7539.15
7291.35
6958.29
6629.02
6278.57
5866.08
5333.05
4676.76
3962.89
3236.47
2622.15
2087.08
1549.33
1031.33
566.263
238.59
84.8976
464.889
665.831
1302.6
1926.7
2436.31
2915.79
3520.75
4363.98
5438.61
6707.76
7964.02
9185.55
10033.1
10510.6
10356.2
10193
10184.7
10098.2
9872.6
9383.78
8604.45
7568.98
6390.14
5158.47
4050.42
3280.33
2755.13
2270.06
1937.66
2027.21
498.368
995.939
1665.26
2177.29
2612.69
3180.26
4042.53
5251.93
6733.15
8150.14
9786.72
10535.8
11669.5
11268.6
11208.6
11291.1
11309.6
11476.7
11592.2
11495.5
11147.8
10479.1
9472.31
8039.92
6137.45
4086.53
2757.08
2123.61
1845.81
2155.69
162.751
468.71
1224.96
1906.51
2384.93
2669.63
2783.86
2773.36
2696.52
2605.72
2500.94
2381.18
2304.12
2295.54
2420.56
2659.79
2996.28
3395.71
3840.8
4244.01
4494.98
4556.07
4473.76
4299.19
3941.05
3294.76
2276.18
1029.29
172.676
7.65815
2.94142
9.33687
22.7356
27.9966
49.9499
119.657
319.248
877.806
1703.32
2544.79
3249.18
3826.97
4402.9
5041.85
5644.74
5741.87
5023.49
4132.8
2930.11
1831.36
827.098
194.504
21.3039
3.61874
1.66035
0.981716
0.635712
0.46691
0.305765
0.185336
125.501
450.488
626.766
839.121
1083.31
1329.48
1535.28
1656.4
1667.37
1537.4
1263.14
877.714
470.967
137.305
233.517
336.952
451.41
561.571
651.033
707.093
745.111
791.526
917.844
1151.57
1559.61
2191.63
3115.75
4358.85
5887.45
7638.23
9463.52
11193.5
12629.3
13663.5
14159.8
13994.4
13211.7
11838.9
9920.41
7438.42
4565.59
1972.65
553.91
178.026
766.526
478.482
523.186
678.07
1001.01
1534.78
2097.96
2403.8
2396.27
2161.07
1961.81
1955.76
2229.82
2869.7
3999.89
5576.78
7660.91
10100.3
12649.9
14962.9
16546.1
17172.7
16646.5
15291.1
13174.7
10460.6
7413.08
4452.1
1916.14
471.588
731.344
1393.44
2195.69
3085.34
3936.28
4674.47
5168.8
5353.58
5216.18
4750.6
4232.85
3903.15
4080.66
4843.71
6547.16
8672.93
11657.9
14827.3
18340.3
21782.8
24755.2
26734.3
27219.8
26113.4
23837
20371.5
15813.2
10317.8
4972.66
1608.9
1272.55
2419.75
2948.91
3286.93
3536.45
3805.67
4328.89
5298.43
7040.04
9838.56
13914.5
19341.2
25882.8
32969.8
39831.5
45677.2
49117.9
50004.7
48543.5
45142.4
40248.9
34317.9
27964.6
21689.2
15742.4
10383.8
6020.47
2930.67
927.747
576.625
480.729
1263.82
2395.12
3636.13
4618.67
5163.97
5222.83
4843.37
4305.91
3820.27
3529.17
3557.27
4103.02
5207.68
7000.42
9675.6
13341.5
17951.2
23273.7
28775.9
33776.5
37976.2
39602.7
38301.7
34810
28812.2
20130.1
10618.3
3705.47
1760.11
470.24
653.495
1114.71
1532.63
1794.18
1871.84
1816.85
1709.9
1618.7
1631.81
1812.35
2264.28
3049
4232.98
5825.91
7684.64
9555.12
11154.1
12245.5
12737.8
12664.2
12157.3
11407.3
10583.2
9729.46
8829.6
7697.79
6079.41
3885.7
1800.25
883.251
999.888
1360.81
1578.57
1700.18
1827.03
2169.23
3121.8
5196.33
8802.31
14021.6
20605.5
27990.1
35287.3
41633.7
45978.3
47600.5
45814.8
42153.9
36586.9
30449.4
24195.4
18423.8
13401
9237.87
6010.47
3799.97
2421.83
1541.51
1590.05
958.929
904.352
1230.45
1835.71
2996.07
5112.95
8467.54
13058.8
18586.8
24660.7
30737.3
36298
40770.9
43496.6
44018.5
42535.9
39246.1
34560.5
28972.9
22960.8
17028
11862.8
7921.25
5167.66
3421.89
2369.68
1706.89
1252.19
896.82
746.244
1485.28
765.946
923.849
1452.41
2653.31
5039.65
8886.42
14080.6
20314.8
27332.1
34921.9
42840.3
50589.1
57537.7
62797.6
65160.7
64430.5
60631.1
54174.5
45872.3
36643.9
27197.1
18413
11485.7
6855.77
3887.79
2088.94
1395.72
1421.03
2636.06
1444.81
777.067
1024.35
1775.77
3558.64
6994.25
12218.5
19084.6
27305.2
36675.2
46733.9
56844.7
65695.1
72362.4
74994.3
74251
70288
63998.6
56086.8
47406.7
38540.3
29723
21360.4
14227.5
8826.95
5213.34
3045.02
1794.83
1617.42
2966.13
972.669
632.398
1098.16
1815.8
2661.07
3491.01
4096.11
4373.41
4368.57
4138.51
3672.83
3038.11
2492.07
2118.65
2085.86
2436.5
3132.37
4201.36
5666.18
7332.75
8953.27
10174.3
10678.6
10510.5
9787.1
8544.69
6763.48
4535.13
2309.31
528.885
26.4871
93.8302
240.385
462.338
839.367
1764.64
4000.01
7807.45
12693.9
17658.8
21675.2
24316.4
25414
24843.9
22679.7
19288.6
15329.5
11519
8061.78
5281.3
2966.22
1122.28
115.782
15.5296
6.13084
3.5048
2.15567
1.24386
0.677224
0.321981
262.844
670.258
826.206
978.954
1122.45
1257.87
1381.49
1481.5
1540.28
1538.47
1435.03
1179.47
792.538
285.441
362.207
464.667
607.532
749.558
864.523
934.308
1001.06
1116.62
1335.57
1671.53
2112.53
2714.26
3529.35
4592.15
5873.64
7351.77
8893.1
10357.4
11573.2
12387.5
12712.6
12517.2
11946
11149.6
10148
8704.97
6511.44
3730.59
1402.45
371.342
891.564
506.216
589.358
829.29
1298.71
1885.34
2281.42
2330.58
2173.9
2080.75
2332.14
2938.13
3806.13
4927.59
6351.61
8015.75
9855.49
11823.3
13702.1
15333.2
16380.9
16739.3
16329.1
15370.1
13936.1
12088.5
9723.05
6800.86
3670.99
1188.02
920.335
1845.18
2643.19
3506.65
4284.65
4904.91
5255.83
5292.42
5015.82
4694.58
4691.01
5170.08
6417.24
8294.11
11179.6
14118
17045.3
19777.2
22210.7
24392.3
25985.1
26897
26826.4
25700.7
23857.7
21421.9
18321.2
13906.5
8169.2
3693.67
1305.42
2592.85
2690.7
3025.9
3601.93
4505.52
5825.22
7709.98
10291.6
13560.7
17460.3
21904.7
26751.5
31819.2
36516.9
40752.6
43490.9
44475.8
43486.4
40699
36750.7
32082.8
27246.2
22618.1
18165.4
13759.5
9404.47
5480.62
2528.17
1151.34
740.212
2144.57
3416.41
4557.76
5276.29
5619.19
5730.45
5736.51
5751.47
5783.68
5799.12
5927.62
6286.67
6985.55
7988.42
9496.68
11662.8
14515.4
17949.1
21724.7
25351.8
28654.1
30949.1
31944.2
31974.6
30540.2
25612.4
16742.4
7419.28
2843.25
672.718
1040.23
1604.05
2000.85
2204.4
2276.29
2289.47
2294.71
2322.43
2431.67
2708.85
3249.1
4099.69
5269.74
6763.24
8388.42
9848.82
10869.3
11353.6
11269.3
10716.2
9829.29
8831.48
7939.17
7339.55
7080.14
6997.97
6590.7
5182.75
2427.25
1810.8
1462.18
1763.26
1899.35
1993.86
2256.44
3166.08
5346.7
8961.14
13631.8
18883.8
24558.4
30540.4
36578.5
42018.5
46272.6
48491.7
47810.9
44716.3
39870.1
33928
27663.1
21651.9
16280.1
11672.9
7889.38
5053.95
3195.09
2047.82
2037.77
1935.91
1395.41
1838.46
2869.14
4773.04
7628.7
11242.1
15376.4
19849.5
24553.5
29337.5
33979.2
38074.8
41234.6
42676.5
42452
40648.7
37567.1
33481.6
28695.6
23327.8
17812.7
12732.4
8564.63
5531.25
3544.04
2337.87
1614.86
1137.11
1044.72
2018.13
968.774
1281.73
2264.22
4240.62
7245.83
10899.1
14984.4
19460
24375.2
29846.2
35786.6
42012.2
48016.7
53279.9
57077.4
58564.8
57427.2
53928.2
48636.2
42021.7
34487.9
26329
18471.9
11973.6
7202.18
3862.96
1987.71
1596.76
3060.18
1941.84
984.085
1437.45
2923.47
5935.21
10294.9
15522.6
21600.6
28536.1
36386.7
44763.9
53372.4
61015.2
67464.4
70896.9
71421.7
68809.9
64093.8
58021.8
51220.5
44275.4
37097
29613.4
22091.3
15224.3
9701.89
5751.51
3243.18
2149.53
3687.39
1563.28
1093.71
1932.1
3177.96
4618.67
6044.92
7184.24
7880.91
8129.91
7894.49
7222.18
6211.68
5202.44
4361.3
3937.16
3946.06
4160.07
4466.91
5047.37
5861.84
6797.85
7638.38
8183.22
8400.71
8347.22
8050.7
7305.3
5824.39
3678.18
1175.17
74.7402
195.403
461.42
1016.1
2317.3
5074.96
9537.04
14945.7
20134.2
24183
26757.9
28072.4
28293.7
27348.6
25027.3
21779.9
18331.6
14860.5
11548.7
8464.76
5528.37
2851.18
511.255
42.9446
11.5207
5.01127
2.73468
1.56205
0.877403
0.432315
404.392
883.915
1010.86
1103.68
1136.89
1139.96
1156.48
1215.78
1303.94
1416.48
1493.69
1434.49
1165.85
460.19
550.421
706.472
898.723
1071.61
1157.16
1192.35
1287.48
1551.21
1976.61
2463.53
2947.07
3522.83
4241.43
5098.17
6069.49
7134.3
8211.58
9227
10065.3
10640.1
10864.7
10723.9
10352.6
9912.17
9525.94
8946.1
7662.64
5308.66
2548.66
642.029
1046.6
623.593
797.005
1227.64
1819.45
2282.27
2344.84
2117.12
1948.59
2258.92
3204.21
4450.97
5803.66
7217.59
8680.68
10063.6
11260.4
12310.6
13153.8
13852.2
14268.6
14397
14161.6
13645.1
13000.8
12180.7
10849.6
8574.75
5379.83
1814.03
1186.12
2607.83
3240.65
3895.74
4440.81
4797.34
4882.09
4732.57
4611.23
4895.67
5933.03
7649.15
10064
13045
16688.4
19930.7
21972.4
23285.4
23746.5
23794.4
23544.9
23196.6
22669
21851.1
20823.9
19672.9
18330.1
15734.7
10738.1
5177.1
1450.3
3070.79
2524.56
2814
3812.71
5470.86
7714.98
10650.7
13995.9
17373.7
20461.5
23219.4
25807.7
28426.7
30789.6
33082.3
34644.3
35353.7
34913.9
33270
30753.1
27626.2
24407.5
21388.2
18590.6
15635.6
11984
7861.58
4194.17
2014.33
1042.01
3494.08
4688.74
5470.39
5735.56
5785.68
5924.26
6289.08
6866.35
7485.57
7940.43
8314.53
8766.47
9323.52
9874.66
10638.8
11724.2
13046.4
14545.9
16061.4
17629.7
19446.7
21369.6
23547.6
26117.5
28369.6
27736.1
21380.7
11379
3707.65
925.568
1607.63
2155.3
2438.04
2564.93
2677.83
2854.27
3079.38
3315.37
3570.15
3985.06
4809.75
6048.95
7471.06
9010.86
10522.7
11800.3
12542.9
12504.1
11670.8
10303.5
8720.61
7172.98
5931.52
5228.8
5186.54
5767.54
6553.25
6410.36
2804.85
2715.23
1946.4
2153.36
2228.68
2398.06
3097.21
5158.6
8763.96
12917.6
16644.4
19850
22919.9
26140.3
29552.5
33167.3
36701.7
39080.2
39880.6
38843.1
36170.8
32206.5
27356.3
22205.1
17243.4
12783
8945.67
5905.06
3853.91
2605.57
2352.74
2682.46
2033.35
2854.98
4542.28
6907.69
9487.64
11956.9
14352.9
16772.9
19350.3
22126.7
25033.9
27975.7
30753.7
32990.2
34360
34670.3
33960
32272.4
29659.6
26045.9
21512
16461.3
11650.1
7682.31
4862.29
3067.45
2030.27
1421.39
1278.37
2331.33
1279.32
2011.65
3703.7
6164.75
8748.54
11088.5
13323.3
15688.8
18427.5
21738.3
25606.7
29968.6
34488
38782.4
42520.7
45078.1
46158.1
45551
43595.2
40416.6
36115
30554.2
23968
17212.9
11267.6
6608.6
3469.71
2100.4
3381.68
2264.34
1274.37
2268.52
4867.17
8809.33
13210.5
17594.6
22172.2
27123
32703.7
38767.3
45345.9
51172.3
56524.6
59995.3
61020.3
59942.3
57078.4
52868.4
48219.5
43359.8
38526.9
33310.7
27478.1
21147.6
14951.1
9578.85
5552.46
3172.63
4414.45
2078.8
2029.73
3588.62
5628.23
7875.24
10063.9
11780.2
12792.7
13194
12941
12072.7
10726.5
9149.31
7705.36
6798.87
6472.7
6209.52
5690.38
5262.7
4989.42
5003.18
5296.08
5725.36
6181.84
6618.39
7080.67
7268.67
6661.52
4832.76
1485.87
160.624
371.075
942.577
2247.04
4983.38
9661.35
15598.8
21226.2
25262.5
27393
28049.6
27848.1
26990.3
25490.2
23355.3
21149.1
18941.9
16633.8
14178.2
11362.4
8202.33
4877.18
1521.67
106.699
20.6611
7.17153
3.53895
2.13876
1.31827
0.570953
518.156
1043.6
1158.99
1201.72
1118.26
980.659
886.492
908.518
1037.02
1259.17
1517.35
1688.44
1601.24
653.565
777.247
1089.41
1278
1376
1344.2
1313.76
1475.71
1968.75
2627.14
3214.36
3703.24
4248.37
4902.92
5568.48
6184.42
6711.82
7132.97
7492.62
7801.93
8084.97
8290.1
8396.88
8437.34
8492.38
8664.81
8842.61
8467.32
6789.75
3915.92
899.243
1206.31
797.685
1067.09
1605.59
2152.53
2373.53
2105.47
1731.84
1800.99
2719.33
4326.27
6049.4
7740.25
9295.54
10588.5
11406.6
11730.2
11709.7
11477.1
11167
10881.2
10706.7
10689.1
10842.2
11118.6
11408.2
11283.9
9993.22
7084.27
2179.78
1495.17
3661.15
3939.4
4230.25
4391.95
4368.11
4169.95
3995.67
4317.91
5539.22
7889.82
10841.4
14108.7
18000.5
22157.3
25063.6
25562.3
24544.9
22550.2
20336.3
18316.1
16907.7
16201.6
16022.6
16277
16781
17343.6
16777.9
12977.8
6097.34
1712.57
3807.24
2458.15
2702.87
4168.12
6568.34
9744.77
13601.5
17298.6
20157.1
21864.8
22631.8
22829.4
22959.5
23143.6
23625.6
24177
24747.3
24982.6
24682.4
23768.2
22392.6
20765.9
19221
17852.6
16261.8
13586.5
9705.1
5629.55
2766.05
1391.57
5424.22
6297.33
6470.59
6039.97
5590
5587.06
6209.86
7357.95
8634.87
9654.18
10396.4
11133.8
11779.6
12098.2
12402.2
12730.6
12931.4
12691.5
11766.1
10698.5
10562
12217.6
15639.7
20292
25574.5
28605
25037
15292.9
4197.05
1237.14
2366.92
2764.97
2862.86
2906.87
3128.21
3559.89
4088.18
4589.25
5106.12
5988.23
7694.82
9766.64
11275.4
12131.2
12645.4
13143
13570.8
13555.2
12738.8
11156.4
9110.68
7025.7
5256.04
4125.88
3970.12
4887.26
6631.06
7747.77
2942.16
3554.91
2498
2544.31
2590.01
3021.59
4505.72
7932.37
12217.7
15540
17259.8
18064.4
18602.2
19205.1
20008.8
21150.1
22696.7
24785.6
26680.3
27910.1
27947.3
26638.8
24104.1
20600
16726.2
12856.3
9301.29
6358.61
4393.02
3242.33
2627.62
3301.53
2884.62
4239.28
6359.98
8395.2
9921.64
10920.8
11753
12499.5
13355.5
14318.6
15416
16729.3
18275.6
20340.3
22528.3
24571.6
26166.3
26970.9
26723.4
25267.2
22284
18056.2
13381.1
9078.7
5802.45
3621.67
2378.95
1714.69
1452.76
2555.7
1733.11
3052.73
5374.13
7793.93
9618.1
10881.3
11920
12968.8
14222.9
15746.8
17561.1
19703.5
22220.7
25009.4
28000
30776.6
32963
34343.8
34948.5
34680.8
33401.3
30750.7
26408.3
20641.5
14489.9
8975.81
4840.51
2661.49
3645.72
2478.85
1610.15
3412.67
7158.41
11745.1
16121
19714.6
22816.2
25603.6
28421.2
31425.5
34953.2
38525.3
42318.8
45373.3
47156.9
47260.3
46134.2
44023
41389.5
38511.5
35710.4
32629
28954.5
24245.1
18705
12951.7
7864.93
4275.27
5076.1
2706.58
3605.04
6045.13
9016.2
12210.3
15078.6
17116.5
18242.1
18643.6
18415.9
17599.6
16143.6
14045.4
11847.3
10278
9586.99
8882.42
7512.45
5997.49
4528.85
3515.38
3155.41
3475.95
4269.27
5228.2
6336.38
7287.11
7405.25
5825.21
1463.75
291.758
652.662
1698.72
3994.14
8199.04
14233.2
20559.5
25319.3
27507.4
27454.4
26123.7
24274.2
22280.1
20469.1
18992
18187.2
17699.2
17101.4
15912.7
13775.3
10658.9
6875.17
2939.64
267.826
34.8496
9.87508
4.51011
2.88828
2.03623
0.733386
603.94
1141.8
1257.12
1262.13
1088.92
838.129
649.564
636.825
796.659
1113.53
1537.81
1943.8
2078.24
882.088
1042.57
1629.34
1662.59
1579.9
1385.3
1303
1591.32
2314.75
3126.41
3744
4220.84
4770.76
5405.41
5913.42
6154.66
6112.53
5837.56
5484.63
5209.05
5194.88
5423.28
5863.96
6393.25
7060.19
7822.88
8657.87
9092.95
8156.16
5506.98
1195.31
1384.11
1001.02
1282.7
1801.54
2209.02
2181.63
1712.7
1373.95
1820.08
3306.26
5347
7351.71
9236.75
10835.8
11882
12112.1
11572
10439.4
9052.26
7729.05
6777.53
6438.58
6826.3
7753.35
9046
10454.9
11494.6
11210.9
8720.03
2202.5
1838.3
4918.2
4681.9
4458.79
4106.75
3635.32
3224.8
3245.69
4280.46
6628.84
10167.9
13996.6
17767.4
22417.6
26939.6
28868.6
27332.3
23798.6
19514.5
15509.3
12326.4
10412.8
9926.48
10730.7
12374.5
14499
16731.7
17759.7
14839.5
6476.11
2081.1
4779.11
2521.03
2782.56
4677.9
7697.21
11645.2
16070.1
19573.6
21365.6
21424.4
20248.5
18538.7
16864.7
15487.1
14635.2
14343.6
14729.8
15488.1
16374.4
16994.4
17217.6
17094.2
16786
16541
16072.1
14339.9
10919.6
6764.42
3280.9
1778.51
7877.66
8163.83
7512.39
6188.68
5017.34
4702.21
5477.4
7153.1
9115.98
10748
11913.4
13009.3
13874.7
14101
14051.3
13825.6
13294.8
11991.1
9296.7
6031.36
4324.95
5739.49
9984.32
16147.5
23705.7
29406.4
27896.2
18727.9
4221.68
1652.46
3369.75
3471.1
3281.08
3214.05
3558.52
4276.79
5131.35
5982.12
7096
9129.87
12444
15432
16172.4
15061.9
13479.3
12405.4
12050.4
12233.6
12293.1
11669
10063.1
7812.59
5541.25
3887.91
3438.86
4522.5
7011.47
9107.34
2931.47
4365.48
3223.98
3038.8
3135.33
4066.76
6618.42
11096.4
15251.5
17286.5
17237.6
16429.7
15435.5
14272.3
12970.3
11809
11307.9
12126.2
14304.5
16832
18951.4
19957.8
19599.2
17919.8
15408.7
12327
9195.09
6548.76
4850.18
3876.13
2788.25
3955.69
3921.26
5712.31
7853.46
9254.26
9939.94
10104.3
10189.2
10155.8
10006.6
9638.36
9062.06
8518.86
8340.37
9191.15
11293.1
14187.1
17355.5
20101.1
21845.2
22155.3
20719.8
17649.9
13639.5
9557.25
6226.5
3944.12
2667.5
2033.7
1569.94
2794.17
2323.18
4300.94
7101.9
9465.52
10950.4
11825.1
12418.9
12870.3
13274.2
13467.5
13394.7
13065.6
12968.4
13427.3
14913.5
17440.8
20373.8
23167.7
25545.7
27438.5
28424.5
28134.6
25954.5
21710.6
16187.3
10518.6
5823.84
3074.22
3856.1
2629.53
2100.71
4886.51
9668.47
15209.3
20103.5
23196.6
24892.2
25296.6
24892.7
24435.1
24495.2
25208.6
26931.3
28932.4
31019.6
32700
33569.1
33574.8
32882.7
31846.6
30582.8
29121.5
27250.6
24328.6
20123.3
14882.3
9485.48
5084.82
5478.85
3506.93
5880.92
9228.74
13148.2
16958.5
19715.2
21180.9
21821.1
22213.5
22475.1
22420.7
21455.3
19183.6
16190.2
13771.3
12689.7
11589
9624.06
7200.33
4700.41
2697.97
1650.19
1795.49
2963.38
4505.9
6209.45
7680.81
8117.59
6438.96
982.741
454.804
1041.43
2615.76
5839.64
11106.3
17700.4
23544.8
26877.8
27073.9
24972.2
21770.7
18375.4
15488.7
13755
13430.4
14295.7
15739.2
16898.9
17102.1
15756.1
12802.3
8632.36
4293.38
647.168
59.7969
13.1748
6.11047
4.13064
3.3363
1.02465
661.266
1159.39
1289.06
1288.46
1087.79
800.079
567.82
520.32
674.123
1035
1577.15
2179.12
2555.2
1198.5
1382.73
2319.21
2003.47
1666.33
1321.42
1234.32
1651.19
2520.76
3372.05
3963.69
4440.83
5043.41
5718.59
6106.49
6029.48
5508.16
4642.4
3698.07
2963.4
2740.71
3043.78
3752.99
4661.13
5795.17
7062.63
8465.88
9560.55
9358.91
7244.93
1508.43
1599.66
1218.36
1398.74
1808.25
2075.23
1889.48
1359.67
1161.32
1988.39
3823.02
6015.17
8117.97
10086.2
11682.4
12550.2
12313.4
11011.8
8943.03
6664.22
4662.53
3347.37
3009.21
3812.93
5466.92
7626.56
9958.97
11893
12285.6
10031.2
1939.4
2102.71
6271.95
5449.14
4626.75
3694.77
2801.77
2282.44
2639.13
4455.17
7763.79
12032.3
16222
20423.6
25875.1
30699.2
31185.4
27501.7
21925.4
16158.9
11157.4
7492.54
5742.93
6057.57
8051.74
10906
14216.3
17315.3
18656.4
15857
6369.62
2681.88
5854.28
2742.1
3088.16
5327.73
8772.63
13286.6
17904.3
20821.7
21327.6
19920.2
17251.7
14419
11803.7
9706.63
8194.7
7466.37
7624.9
8653.58
10242.3
11870.3
13259.3
14105.1
14727.2
15268.9
15619.5
14609.4
11578.4
7465.11
3427.34
2258.69
10698.6
10083.4
8486.93
6194.8
4239.92
3496.31
4271.32
6370
8916.57
11043.7
12563.6
14023.5
15268.6
15515.3
15261.8
14615.3
13690.1
11888
8636.94
4719.46
2269.74
3365.58
7671.66
14752.2
23534.5
30246
29540.4
20869
3829.95
2183.38
4617.94
4264.88
3673.56
3420.41
3840.93
4808.41
5983.91
7322.59
9421.49
13291.1
18741
22293.3
21258.5
17181.6
13085.5
10300.2
8947.43
8984.23
10005.9
10890.4
10529.8
8652.01
6156.53
4153.23
3490.11
4758.01
7754.73
10215.1
2720.72
5327.81
4281.34
3750.04
3998.68
5669.84
9391.23
14442.9
18086.7
19130.4
17996.4
16420.6
14795.9
12742.1
10153.3
7173.29
5007.61
4696.48
6413.69
9270.06
12390.3
14786.1
15908.4
15605.7
14153
11670.3
8834.38
6565.03
5204.35
4418.07
2860.16
4894.59
5108.45
7284.83
9397.04
10449.6
10834.3
10784.2
10718.2
10555.3
9977.66
8926.37
7243.66
5406.33
3742.41
3078.27
4189.34
7003.51
10635.7
14388
17242.9
18697.4
18338.5
16325.8
13021.5
9363.61
6260.72
4134.65
2950.18
2358.89
1596.04
3187.12
3204.91
5996.16
9221.58
11711.2
13303.6
14282.8
14853
15203.7
15243.8
14707.3
13319.7
11010.4
8613.15
6553.9
5745.58
7101.7
10067.5
13834.6
17488.8
20752.5
23220.3
24524.4
24015.3
21269.3
16621.8
11067.2
6090.8
3195.69
3956
2835.73
2916.77
6996.29
13001.7
19759.2
25592
28552.2
28962.9
27111.1
23664.3
20072.1
16873.4
14700.7
13808.8
14251.8
16244.5
18926.2
21556.4
23533.7
24568.8
24961.6
24896.6
24552.7
23900.9
22409
19636.8
15385.8
10312.3
5581.07
5547.83
4499.16
8839.02
12917.3
17450.3
20956.4
22434
22343.5
21967.1
22165.7
23314.9
24942.9
25452.7
23639.6
19946.1
16537.6
15045.2
13803.5
11593.8
8733.33
5677.72
3075.03
1493.37
1450.56
2919.62
4959.65
7007.86
8491.38
8616.74
6472.67
574.506
618.084
1464.41
3487.51
7366.43
13172.9
19667.7
24536.7
26371.4
24875.5
21217.4
16584.5
12055
8634.51
7249.04
8304.62
10912.9
14161.7
16834.9
18231.4
17448.6
14577.4
9990.17
5361.32
1344.37
131.06
19.6094
10.2838
8.27554
8.23419
3.61058
685.842
1101.95
1259.15
1286.9
1132.95
898.576
682.684
585.328
662.958
985.597
1578.9
2345.49
3019.42
1618.05
1807.26
3096.19
2166.09
1572.81
1176.47
1149.31
1658.27
2534.68
3322.82
3861.27
4357.13
5040.9
5798.12
6128.94
5889.12
5092.2
3900.26
2631.6
1687.2
1365.96
1680.22
2487.37
3581.7
4942.58
6484.32
8203.16
9695.5
10136.9
8903.68
1748.52
2001.71
1559.07
1474.15
1723.26
1872.12
1622.18
1147.05
1146.25
2202.66
4097.5
6207.56
8223.72
10152.4
11798
12644.5
12165.7
10428.5
7885.05
5159.35
2915.83
1607.53
1538.94
2692.76
4853.4
7639.77
10494.3
12672.6
13042.4
10682.3
1567.43
2311.57
7562
6168.12
4720.07
3237.5
2030.76
1564.34
2365.9
4783.96
8596.97
12986.5
17169.5
21767.2
28167.6
33135.7
32277.4
26989.2
20359.6
13985.2
8769.63
5238.7
4312.14
5968.64
9238.75
13057.6
16643.4
19074.3
19128.5
15605.5
5954.58
3295.25
7344.47
2981.62
3492.58
6032.69
9686.96
14517.9
19111.8
21385.7
20873
18514.5
15236.3
12161.4
9397.64
7144.01
5479.86
4515.46
4501.97
5483.94
7293.02
9364.24
11177.3
12564.5
13631
14671.8
15330.4
14525.5
11620.3
7748.2
3477.79
2685.96
13899.6
11761
9195.96
6116.03
3512.03
2341.99
2968.63
5253.85
8138.28
10489.5
12189.1
13936.3
15658.7
16181.7
15936.5
15055.4
13931.7
12102
9201.15
5872.04
3768.89
4784.48
9019.42
16116.7
24449.4
30232.7
29258.6
21341.2
3479.85
2788.25
6071.74
5026.72
3865.81
3345.33
3782.55
4960.52
6454
8326.93
11685.8
17926
25669.5
29269
25862.8
18777
12453.9
8321.48
6095.12
5674.66
7210.59
9460.94
10480.8
9199.35
6668.66
4599.55
4129.73
5733.23
8797.47
10778.8
2568.79
6644.23
5617.53
4458.41
5072.79
7721.53
12500.5
17909.1
21132.6
21578.9
19853.8
18044.8
16400
14374.9
11580
7967.86
4869.42
3324.64
4250.89
6703.93
9937.15
12742.9
14346.3
14554.2
13443.9
11132.7
8598.74
6622.26
5413.49
4732.36
2825.91
7005.7
7384.25
9917.86
12014.7
12941.9
13230.6
13196.7
13299.8
13374.1
13023.6
11931.3
9951.86
7601.17
5098.76
3499.38
3517.94
5475.56
8587.49
12139.7
15055.9
16620.3
16587.5
15060.1
12230.6
8996.91
6220.21
4326.61
3213.41
2555.86
1620.79
4195.17
4739.79
8277.62
11958.5
14842.1
16836.8
18093.7
18857.2
19360.8
19456.9
18817.5
16801.3
13447.8
9662.12
5924.06
3274.39
2713.76
4576.11
8281.1
12374.1
16238.5
19457.7
21565.7
22058.9
20380.1
16422.1
10935
5861.84
3174.03
3897.23
3599.92
4538.3
9788.64
17155.5
25586.5
32546
35540.8
35156.4
31684.4
26092.5
20313.3
14598.5
10154.2
7052.02
5507.19
6523.45
9311.83
12896
16117.9
18325.5
19561.5
20185.7
20461.2
20454.6
19850.6
18210.3
14954.8
10417.5
5667.45
5312.52
5652.25
12262.4
16676.5
21228.7
23472.5
22637.6
20021.3
17741.1
17527.1
20100.7
24291
27171.8
26505.8
22346.6
17874.7
16011.6
14918.2
13054.9
10489.4
7614.83
5025.98
3409.12
3417.51
4910.53
6885.21
8655.95
9485.85
8673.91
5829.86
324.194
777.454
1932.75
4197
8315.35
14136.3
20117.4
23926.7
24712.2
22189.3
17663.6
12251.2
7213.62
3639.89
2850.13
5340.81
9375.02
13866.7
17471.8
19517.2
18914.5
15896.9
11019.6
6099.59
2103.51
260.266
30.2634
23.5112
28.5147
38.5986
30.6666
669.802
975.824
1181.37
1283.2
1243.95
1122.96
974.948
861.408
858.869
1122.64
1743.64
2682.27
3586.85
3881.82
3584.23
3671.37
5316.74
4128.09
2473.13
1610.17
1191.94
1188.16
1620.02
2353.22
3008.58
3483.84
4005.05
4774.09
5628.36
6007.05
5767.66
4949.98
3750.38
2467.54
1524.66
1179.73
1417.07
2160.19
3218.11
4554.71
6081.58
7803.75
9441.64
10410.1
10367.8
6440.65
2595.63
2702.84
3326.35
2592.49
2015.33
1898.19
1897.86
1602.98
1190.82
1300.98
2355.12
4109.9
5942.37
7670.92
9463.32
11220.5
12219
11807.7
10147.7
7733.68
5129.5
3057.71
1954.12
2276.33
3871.3
6446.07
9367.06
11893.7
13260.7
12605.1
9502.37
3918.9
2319.6
2680.06
6886.99
8833.05
6865.71
4788.71
2889.49
1605.36
1357.43
2514.93
5129.04
8811.74
12754.7
16613.3
21764.1
29323.6
34481.3
32921.7
27104.7
20505.3
14536.7
9835.89
7126.54
7692.79
11000.2
15145.1
18506.5
20120.1
19630.1
17144.3
12846.3
7786.3
4138.22
7466.61
16087.6
9177.6
4041.71
4526.31
6934.86
10516.2
15413.2
19996.4
21938
20952.8
18559
15537.1
12953.6
10431.4
8392.73
6811.18
5889.34
5830.78
6700.67
8262.15
9977.69
11553.4
12798
13890.2
14980.9
15575.9
14757.2
11976.6
8691.09
6496.59
4305.23
4901.31
10718.7
16083.7
12599.5
9377.67
5966.93
3090.49
1629.8
1988.7
4152.59
6995.93
9248.99
10843.2
12727.3
14956.7
16059.8
16058.1
15198.8
14121.5
12727.5
10789.7
8707.89
7696.59
9033.43
13086.1
19119.1
25366.6
28649.4
26375.2
18830.6
6849.62
3068.51
3955.04
8042.89
7528.91
5749.27
3939.85
3044.77
3348.8
4606.77
6369.46
8746.7
13284.7
21924.7
31810.6
35308.8
29985
21130.8
13348.6
8231.67
5212.13
4261.82
5814.52
8894.55
10534.4
9593.05
7248.87
5475.7
5347.14
6875.86
9147.82
10217.4
6443.17
7583.75
12129.5
15659.6
8381.89
6413.72
7067.58
10206.5
15503
21205.9
24486.7
24757.5
22724.1
20931.7
19672.5
18528.7
16694.7
14026.4
11162.6
9093.23
9204.34
10602.3
12604.5
14364.6
15170.3
14779.6
13237.5
10735
8282.19
6529.13
5546.85
5471.82
7012.69
10772.2
13450.6
11258
12334.3
14735.2
16515.1
17195.4
17223.5
17193.8
17577.5
18266
18634.3
18356.3
17161.2
15199.1
13075.7
11337.3
10654.6
11277.3
12871.9
14861.7
16412.4
17000.9
16352.8
14528.5
11760.6
8759.57
6230.15
4484.01
3424.83
2990.88
4098.39
7045.37
8773.77
10413.4
9776.37
12288.7
15542.1
18597.8
21032.1
22707
23862.6
24783.2
25333.1
25082.8
23257
19895.2
15703.6
11308.6
7708.68
5797.77
6226.3
8510.52
11709.4
15150.4
18213.7
20401.7
21178
19928.5
16147.5
10576.6
5668
3921.02
5447.87
5605.3
6831.06
10721.7
10561.8
14357.7
21767.4
31372.8
39757.4
43536.4
43077.5
38829.1
32676.7
25983.8
18890.8
13123.6
8166.64
4955.64
4325.02
6254.88
9576.1
12996.2
15467.4
16901.9
17632.1
18067.6
18201.7
17941.6
16798.9
14026.8
9795.03
5383.81
3691.65
4706.4
6238.79
13667.4
15648.7
19947.6
23923.9
24406.7
20909.4
15457.4
11096.9
10400.2
14274.2
20950.3
26381.2
27284.9
22957.2
17476.2
15245.1
14567.1
13561.3
12057.8
10267.8
8569.67
7575.97
7679.42
8753.72
9996.55
10737.2
10244.5
8115.41
4690.69
1293.07
1140.93
1374.03
1567.35
2437.1
4670.57
8577.74
13963.9
19303.6
22359.4
22667.9
19976.3
15399.1
10119.9
5380.86
2305.18
2569.98
6024.47
10546.6
15252.5
18878.1
20807.5
20018.2
16631.4
11467.3
6352.55
2536.53
458.621
57.2936
64.5429
116.602
175.33
191.4
21.6298
1.69841
623.579
809.958
1052.94
1244.03
1350.02
1370.38
1325.63
1246.35
1213.61
1444.37
2162.67
3395.03
4705.11
5575.99
5771.09
6400.24
7378.45
4473.81
2699.61
1844.95
1406.03
1292.21
1535.19
2054.83
2549.63
2946.22
3459.89
4263.98
5185.09
5705.81
5639.01
5053.06
4123.38
3075.4
2255.97
1912.35
2050.1
2632.52
3492.83
4559.14
5764.67
7068.39
8358.88
9337.58
9957.85
9966.91
6612.94
5487.78
5466.42
4869.36
3858.4
3075.59
2555.63
1956.52
1426.14
1505.23
2412.43
3893.31
5301.58
6609.94
8204.96
10088.9
11411
11486.4
10469.3
8737.13
6783.29
5248.24
4625.83
5446.17
7362.6
9913.9
12272.8
13578.8
13138
10698.2
6876.69
4031.52
2620.67
4040.17
9890.82
9739.5
7108.22
4679
2723.67
1670.45
1728.52
3007.28
5364
8377.37
11480.2
14828.8
20577.9
29400.3
35187
34103.7
29143.2
23716.1
19216.4
16169.7
15668
18198
22208.8
25218.2
25948.9
24249.2
20858.9
16950.1
13660.4
13915.1
20873.2
28894
24181.7
9953.49
5312.96
5751.51
7820.3
11147.9
16049.2
20791.6
22864.1
22322
20840.6
18904.2
17419.6
15612.3
14423.8
13257.9
12740.7
12595.3
12864.7
13425.9
14061
14606.5
15170.6
15723.7
16403.4
16631.1
15750.9
13276.9
10740.5
9432.77
8997.23
11419.1
16853.3
14397.4
11533.1
8714.41
5670.29
3069.51
1729.56
1903.9
3521.53
5757.57
7552
8791.5
10607.4
13245.8
15154.3
15779.9
15262.1
14446.2
13664.5
12989.5
12520.9
12872.7
14607.2
17856.3
21793.1
24797.2
24787.2
20574.6
13534.9
7122.9
2980.77
4272.06
9881.25
8593.83
6204.98
3826.91
2524.98
2542.02
3695.86
5590.05
8310.93
13669.9
24187.3
35931
40025.3
34372.3
25493.6
17494.7
11881.4
8325.3
7183.38
8335.48
10718.4
11721.4
10525.6
8393.36
7064.69
7120.36
8116.78
9206
9393.83
8200.71
9508.95
16187.5
18544.8
10790.2
8390.36
8900.54
12154.5
17643.7
23745.5
27665.1
28241.5
26296.6
24615.9
23905.1
24026.8
24113.7
23616.6
22334.2
20785
19718.4
19187.3
18918.4
18484.3
17430.6
15621.8
13270.4
10736.4
8896.94
8413.83
9795.79
12658.3
15162.5
16173.1
16200.5
15474.3
17442
20267.1
22100.5
22678.2
22374.5
22161.8
22758.7
24281.6
25983.8
27288.7
27794.3
27352.7
26277.7
24930.8
23642.6
22824.4
22373.4
21966.5
21180.3
19772.3
17594.8
14765.3
11586.2
8592.61
6306.31
4946.56
4621.5
5879.03
9200.72
13275.1
14921.5
13180.9
12647.7
14903.1
18202.5
21757.5
24907.3
27280.6
29035.1
30619.7
31987.4
32703.3
32015.2
29824.6
26364.8
22353.1
18635.6
15896.3
14802.4
15086.9
16318.5
18212.5
20126.6
21550.2
21801.6
20186
16151.3
10680.7
6399.68
5712.25
8985.61
12971.8
13915
12120.2
11794
16074.9
24052
34877.1
45236.8
51007.6
51752
48355.9
42894
36659.1
29821.5
24272.2
18820