/*--------------------------------*- C++ -*----------------------------------*\
| =========                 |                                                 |
| \\      /  F ield         | OpenFOAM: The Open Source CFD Toolbox           |
|  \\    /   O peration     | Version:  2.1.1                                 |
|   \\  /    A nd           | Web:      www.OpenFOAM.org                      |
|    \\/     M anipulation  |                                                 |
\*---------------------------------------------------------------------------*/
FoamFile
{
    version     2.0;
    format      ascii;
    class       volScalarField;
    location    "0.004950000";
    object      O2;
}
// * * * * * * * * * * * * * * * * * * * * * * * * * * * * * * * * * * * * * //

dimensions      [0 0 0 0 0 0 0];

internalField   nonuniform List<scalar> 
12384
(
0.00174113
0.00248854
0.00328271
0.00436966
0.00521509
0.00529061
0.00480822
0.00367068
0.00291813
0.00195625
0.00150978
0.00148344
0.00371816
0.0233437
0.0484819
0.0442229
0.0428792
0.0423853
0.0415707
0.039855
0.0378994
0.035824
0.0345567
0.0339542
0.0338519
0.0342549
0.0346105
0.0355685
0.0360303
0.0368275
0.0371167
0.0377052
0.037893
0.0382868
0.0384383
0.0386916
0.0388145
0.0389457
0.0391208
0.0392665
0.0420216
0.0493716
0.0402908
0.0376034
0.00250152
0.00173714
0.00170298
0.00179995
0.00246572
0.00351924
0.00390115
0.00261587
0.000901432
0.000504009
0.000489853
0.000505851
0.000510534
0.000338666
0.000456586
0.000374132
0.000118137
0.000589723
0.000533656
0.000773806
0.000828734
0.000935681
0.000925685
0.00116823
0.00112123
0.00131885
0.00168762
0.00332717
0.0186171
0.0304606
0.000543779
0.00114035
0.00213547
0.00342868
0.00591745
0.00725363
0.00748866
0.00775999
0.00721565
0.00622009
0.00426129
0.00326354
0.00262162
0.00230863
0.00207478
0.00193292
0.0018244
0.00197116
0.0020762
0.00231399
0.0025078
0.00271942
0.00280846
0.00313682
0.00318606
0.00387189
0.00471414
0.00562344
0.0080598
0.00906952
0.000147139
0.00010529
0.000140256
0.000173534
0.000216503
0.000239369
0.000250881
0.000260823
0.000263746
0.00026932
0.000284418
0.000268831
0.000274292
0.000285493
0.000263456
0.000247768
0.00028094
0.000327712
0.000584503
0.00065344
0.000811449
0.000954299
0.00109798
0.00120069
0.00124103
0.00122769
0.00338046
0.0135386
0.012622
0.0115792
0.000639631
0.000311549
0.000203729
9.03354e-05
7.4563e-05
6.10048e-05
5.16399e-05
5.77501e-05
6.49138e-05
6.99622e-05
7.05044e-05
6.94942e-05
6.70783e-05
6.39905e-05
6.35912e-05
4.41954e-05
4.75514e-05
5.09388e-05
5.1995e-05
5.13806e-05
5.04136e-05
4.26228e-05
4.3507e-05
6.34229e-05
5.52832e-05
5.97827e-05
8.82885e-05
-2.43557e-05
0.00252505
0.00368943
0.00212866
0.000235164
0.000162756
0.00109557
0.00192793
0.00248217
0.00490023
0.00714287
0.00935145
0.0118248
0.0144928
0.0173249
0.0204162
0.023131
0.0252933
0.026871
0.0279652
0.0284512
0.0282323
0.0273434
0.0256028
0.0234263
0.020958
0.0183571
0.0157654
0.0132924
0.0103856
0.00752392
0.00711995
0.00807406
0.0328703
0.0246563
0.00243799
0.000139954
-4.57657e-05
2.19348e-05
6.91793e-05
0.000108945
0.000104416
0.000139011
3.74042e-05
9.00879e-05
3.10702e-06
2.17713e-05
2.71368e-05
6.46316e-05
1.46474e-05
4.64907e-05
7.24503e-05
0.000149715
0.000159056
0.000232904
0.00030558
0.000338761
0.000375041
0.000314708
0.00016374
2.32557e-05
4.65376e-05
0.000292425
0.0198682
0.0184046
0.0104193
0.00136356
8.08828e-05
1.00265e-05
1.05762e-05
9.81811e-06
8.97777e-06
9.63843e-06
1.03098e-05
1.20765e-05
1.18289e-05
1.34212e-05
4.35296e-06
9.67295e-06
1.40578e-05
2.01734e-05
2.33646e-05
2.4647e-05
2.21546e-05
1.52776e-05
1.2412e-05
4.53853e-06
1.92948e-06
1.04082e-06
6.23303e-07
4.61124e-07
6.25162e-07
9.34053e-07
0.0169629
0.0160547
0.0125839
0.0074311
0.00345875
0.00167998
0.000321396
0.000410433
0.000287453
0.000180349
0.000165649
8.04746e-05
6.79414e-05
3.42577e-05
6.41547e-05
5.51432e-05
4.63427e-05
4.59968e-05
4.11862e-05
2.96868e-05
2.117e-05
1.25466e-05
1.98509e-05
2.04406e-05
1.34318e-06
2.16035e-05
2.33901e-05
2.67021e-05
2.58955e-05
2.61687e-05
0.000115789
5.09106e-05
-6.72816e-06
8.16018e-06
3.19203e-06
5.79762e-06
4.72704e-06
3.62184e-06
2.49911e-06
2.661e-06
1.60132e-06
2.34749e-06
1.24564e-06
1.88509e-06
1.84282e-06
1.55614e-06
1.43297e-06
1.94243e-06
1.77539e-06
2.19726e-06
1.87734e-06
3.30132e-06
3.22015e-06
6.45754e-06
1.40653e-05
1.68326e-05
1.03426e-05
8.49353e-06
8.94967e-06
5.53616e-06
0.0194775
-9.13581e-06
1.46318e-06
2.79019e-06
9.70503e-06
2.25595e-05
-1.01071e-05
0.000101632
0.000120788
0.000136885
0.000138561
0.000135615
0.000122006
0.000109706
8.52148e-05
7.0371e-05
4.60796e-05
2.05329e-05
2.27029e-05
-8.62509e-06
2.47906e-05
5.44277e-05
4.96894e-05
5.38173e-05
5.12252e-05
2.52567e-05
2.21747e-05
9.02172e-06
0.00123894
0.0808828
0.0940891
0.0949631
0.0950721
0.0916746
0.0828075
0.0501274
6.2058e-06
1.04862e-07
1.14486e-07
4.33011e-08
8.76667e-08
1.90363e-07
2.12153e-07
2.08602e-07
2.14619e-07
2.73261e-07
3.3621e-07
2.67564e-07
4.12733e-07
8.83018e-07
1.13775e-06
2.06476e-06
1.63548e-06
2.42531e-06
5.04001e-06
1.11984e-05
0.000153576
0.0342629
0.081585
0.0884277
0.0117426
0.0178733
0.0218788
0.0222166
0.0212206
0.0194622
0.0189089
0.0180523
0.0156872
0.0085737
0.00306407
0.00164829
0.00248261
0.0129837
0.048531
0.0431535
0.0417113
0.0395929
0.0351176
0.0303821
0.0271681
0.0256702
0.0252824
0.0262026
0.0279146
0.0301352
0.0322979
0.0341272
0.0355377
0.036675
0.037459
0.037889
0.0381984
0.0384283
0.0386353
0.0388579
0.0388854
0.038795
0.0388188
0.038941
0.0402258
0.0455409
0.0497982
0.0506566
0.00265442
0.00197937
0.00231909
0.00278763
0.0035934
0.00367549
0.00170527
0.000434508
0.000345654
0.000525869
0.00247378
0.00310844
0.00310574
0.00256266
0.00235086
0.00253928
0.00283592
0.00321787
0.00396315
0.00486807
0.00528211
0.00548122
0.00483422
0.00367439
0.00305613
0.00252014
0.00206451
0.00256367
0.00672323
0.0161891
0.000672645
0.00163765
0.00320449
0.0069213
0.00906617
0.00934136
0.00867731
0.00497581
0.00191462
0.000515755
0.000313465
0.00023963
0.000210526
0.000191072
0.000231758
0.000270491
0.000377608
0.000439524
0.000541594
0.0012967
0.00186439
0.00232474
0.0027643
0.00299099
0.00320743
0.00317047
0.0035346
0.00454873
0.00619872
0.00749796
0.00013969
7.10433e-05
0.000127648
0.00017998
0.000178226
0.000157442
0.000208335
0.000219171
0.000210735
0.000257545
0.000306226
0.000332499
0.000330523
0.000654757
0.000867506
0.00113067
0.00120305
0.00129668
0.00140802
0.00143372
0.00152833
0.00153811
0.00158854
0.00173693
0.00158578
0.00135213
0.00212799
0.00679954
0.0113832
0.0100204
0.000497647
0.000272912
6.92297e-05
6.71946e-05
4.12349e-05
3.40011e-05
4.60434e-05
3.22615e-05
3.649e-05
3.5597e-05
3.34264e-05
3.07959e-05
4.78705e-05
4.85112e-05
3.57781e-05
4.00227e-05
4.83263e-05
5.56401e-05
6.13976e-05
6.47623e-05
6.2758e-05
4.57701e-05
5.54041e-05
3.73274e-05
4.24026e-05
5.51665e-05
5.99708e-05
0.000119554
0.00037672
0.00135236
0.000456927
0.000164642
0.000313194
0.00178816
0.00325009
0.0041741
0.00236379
0.00232047
0.00471923
0.00990641
0.0164177
0.0217229
0.025887
0.0290277
0.031853
0.0345494
0.0367899
0.0387555
0.0396152
0.0390851
0.0372187
0.0333535
0.0278584
0.0219083
0.0164649
0.0125987
0.0094513
0.00709243
0.00653329
0.00765425
0.00417906
0.000301218
2.64697e-05
8.50756e-05
9.34655e-05
6.71708e-05
8.16895e-05
1.27075e-05
6.33767e-05
3.26559e-05
2.09744e-05
1.00076e-05
2.11449e-05
1.64695e-05
1.55847e-05
1.37486e-05
1.39741e-05
1.47954e-05
1.83092e-05
9.8111e-06
3.35346e-05
5.89664e-05
5.47464e-05
0.000230508
0.000348106
0.000354683
0.000288909
0.000167868
3.00077e-05
0.00015052
5.49898e-05
1.51347e-05
1.44581e-05
1.29226e-05
1.51469e-05
9.81026e-06
3.76879e-05
5.56107e-05
2.42493e-05
0.00012858
0.000197248
0.000232328
0.000246726
0.00023249
0.000213274
0.000174938
0.000122922
5.43857e-05
5.67906e-05
4.24977e-05
3.09837e-05
2.19162e-05
1.66094e-05
1.1203e-05
5.08563e-06
3.59119e-06
1.85687e-06
9.63842e-07
6.05608e-07
7.0297e-07
0.00918315
0.00739693
0.00241757
0.000384329
0.000136945
4.44147e-05
8.38831e-05
0.000159142
0.000196506
0.000254182
0.000267808
-5.57558e-05
0.000144174
5.43361e-05
0.000242651
0.000203378
0.000184215
0.000111711
1.18578e-05
5.67023e-05
4.52309e-05
1.9754e-05
4.21956e-06
2.21228e-05
2.36083e-06
6.18823e-06
2.13288e-05
2.29875e-05
2.37588e-05
3.70845e-05
-7.75586e-05
2.39831e-05
1.66438e-05
4.67188e-06
6.08627e-06
4.73851e-06
4.52283e-06
4.03285e-06
4.21199e-06
4.59838e-06
2.70355e-06
3.27291e-06
2.70842e-06
2.22241e-06
3.10546e-07
3.12472e-06
2.99681e-06
3.27755e-06
2.84025e-06
2.38608e-06
2.77649e-06
3.06921e-06
2.92126e-06
4.49819e-06
2.88564e-06
1.58395e-05
1.90608e-05
1.55046e-05
1.35502e-05
1.36179e-05
6.67245e-05
1.75581e-06
2.64172e-06
1.11481e-05
7.22074e-05
-8.86988e-05
0.000120136
0.00015091
4.22133e-05
3.9737e-05
3.04503e-05
2.04727e-05
9.65373e-06
1.39559e-05
9.42021e-06
5.39548e-06
-4.31209e-08
3.61288e-06
3.38875e-06
2.86192e-06
3.24535e-06
1.42194e-06
5.8866e-06
-2.34103e-06
1.87479e-05
2.66697e-05
2.24861e-05
5.88562e-07
2.41151e-05
0.0334735
0.0964127
0.0886182
0.0575697
0.012948
2.13724e-05
4.19531e-06
2.76454e-07
8.76803e-08
1.33505e-07
1.55828e-07
1.43169e-07
1.44553e-07
1.38929e-07
1.37596e-07
1.60565e-07
1.52312e-07
1.56202e-07
1.56248e-07
2.07814e-07
1.12314e-07
5.1087e-07
8.71554e-07
-2.12977e-07
2.53975e-06
4.58119e-06
2.94677e-06
4.18366e-06
2.36313e-05
0.0506795
0.0873356
0.0233084
0.0255222
0.0241132
0.0176394
0.0110528
0.00816957
0.00873335
0.0123038
0.0176101
0.0174888
0.0094048
0.00264168
0.00223251
0.0083528
0.0477067
0.0405217
0.0362089
0.0310426
0.0250759
0.0206617
0.0170036
0.0169295
0.019146
0.0226382
0.026491
0.0306064
0.0328424
0.0342427
0.0347331
0.0348363
0.0341695
0.0340384
0.0332907
0.0335932
0.033526
0.0341716
0.0349341
0.0359006
0.0369742
0.038025
0.0391444
0.0422537
0.0511541
0.0550926
0.00274251
0.00306253
0.00515834
0.00537188
0.00446835
0.00204427
0.000402389
0.000247943
0.0016516
0.0066275
0.0170718
0.0165601
0.0083872
0.00458543
0.00502347
0.00692164
0.00914109
0.0114379
0.0133629
0.014331
0.014507
0.0148729
0.0145816
0.0132567
0.0105102
0.00688215
0.0033956
0.00279156
0.00352833
0.00948605
0.000740048
0.00221153
0.006298
0.00911749
0.00986337
0.00674832
0.00213086
0.000162062
0.00013409
6.92942e-05
9.55355e-05
0.00010978
0.000131318
-6.20061e-06
0.000147924
0.000313803
0.000471988
0.00121309
0.00213788
0.00279381
0.00332252
0.0044853
0.00558824
0.00568074
0.00515584
0.00382379
0.0034066
0.0034514
0.00479444
0.0065712
0.000129035
6.19686e-05
9.2784e-05
0.000102585
0.000148768
0.000170202
0.000194822
0.000239809
0.000275268
0.000326133
0.000495405
0.00115714
0.00169773
0.0020787
0.00236629
0.0026021
0.00271636
0.00288698
0.00276746
0.00284043
0.002551
0.00247481
0.00229691
0.0022922
0.0020894
0.00184844
0.00176431
0.00314321
0.0075696
0.00881815
0.000260691
0.000194208
8.47139e-05
4.43747e-05
3.69073e-05
2.10141e-05
2.75976e-05
2.42284e-05
1.9707e-05
1.4004e-05
6.80544e-06
2.14877e-05
2.37483e-05
3.20978e-05
3.15681e-05
4.7206e-05
6.22222e-05
7.33874e-05
8.45158e-05
7.95348e-05
7.7497e-05
8.16065e-05
7.55251e-05
6.42521e-05
6.59034e-05
5.37364e-05
5.77686e-05
8.77143e-05
5.75129e-05
0.000502519
0.000370832
0.000221074
0.000770034
0.00163855
0.000635181
0.000202424
0.000211016
0.0010859
0.0064874
0.0154775
0.0192172
0.0185681
0.0130272
0.00965005
0.00826198
0.01099
0.0156218
0.0221041
0.0287964
0.0340534
0.0363049
0.0348558
0.0291991
0.0211256
0.0143269
0.0101602
0.00749618
0.00608123
0.00568786
0.00719016
0.000144522
0.000103194
5.80969e-05
8.14238e-05
2.07458e-05
1.15992e-05
4.32794e-05
1.98322e-06
-6.58044e-08
1.25239e-05
2.16371e-05
8.70186e-06
7.25706e-06
1.89044e-05
1.78508e-05
1.24757e-05
1.11575e-05
8.51937e-06
7.53132e-06
2.73301e-06
5.95842e-06
1.64074e-05
1.81909e-05
7.52768e-05
0.000178103
0.00036661
0.000376813
0.000289061
0.000128347
0.000147667
1.0055e-06
1.20488e-05
1.44461e-05
3.19338e-05
-1.67689e-05
0.000270792
0.000576496
0.00177434
0.00264248
0.00311496
0.00401559
0.00451134
0.00469786
0.00431516
0.00335431
0.00263084
0.00191128
0.00085618
0.000291092
0.00013868
-6.56029e-06
4.61921e-05
3.26119e-05
1.6628e-05
9.00755e-06
9.70091e-06
4.01738e-06
1.98395e-06
9.60216e-07
7.2492e-07
0.00745816
0.00169644
9.64362e-05
-2.51348e-05
0.000189958
0.000411823
0.00207414
0.00321923
0.005439
0.00664148
0.00702657
0.00732717
0.0068729
0.0068043
0.00612761
0.00496128
0.00337396
0.00213939
0.00121199
0.000283639
0.000115163
6.96647e-05
3.67461e-05
1.24883e-05
2.16661e-06
4.69382e-06
2.88098e-06
1.29965e-05
1.76692e-05
2.63631e-05
5.70595e-05
8.84039e-06
-1.9528e-06
4.35598e-06
4.57766e-06
1.54104e-07
8.99942e-06
1.50373e-05
2.20421e-05
2.38234e-05
3.15852e-05
3.05633e-05
3.4873e-05
3.14403e-05
2.65505e-05
1.96943e-05
7.3372e-06
9.93496e-06
7.16369e-06
4.0104e-06
4.53068e-06
4.27334e-06
3.5857e-06
4.53531e-06
5.13424e-06
5.01845e-06
1.56609e-05
1.98969e-05
2.25391e-05
2.03979e-05
6.89387e-06
3.16243e-06
1.0769e-05
0.000106684
6.42065e-05
0.000109916
3.68578e-05
-1.05727e-05
1.30573e-05
7.37963e-06
3.51865e-06
-2.35305e-06
4.94803e-06
2.94831e-06
1.18422e-06
1.87707e-06
1.68355e-06
1.65428e-06
9.66786e-07
1.46943e-06
1.69486e-06
1.63159e-06
1.47013e-06
2.24913e-06
8.8289e-07
7.74765e-06
1.24776e-05
4.10325e-06
1.55185e-05
0.00563905
0.0923832
0.0464591
3.01967e-05
1.4473e-06
3.56698e-07
1.65016e-07
9.89087e-08
9.56996e-08
1.2595e-07
1.55063e-07
1.77788e-07
1.96024e-07
1.45573e-07
1.8438e-07
2.06732e-07
1.92564e-07
2.06856e-07
1.80124e-07
1.4544e-07
1.11075e-07
1.75233e-07
1.60844e-07
1.08286e-06
3.30128e-05
4.41554e-05
1.83897e-05
6.09956e-06
-6.53675e-06
0.027719
0.0856211
0.0264148
0.0252124
0.0144651
0.0056195
0.003192
0.00306202
0.00331611
0.00494172
0.00954653
0.0171811
0.0149239
0.00489843
0.00209314
0.00709646
0.0460511
0.0357272
0.028978
0.0229242
0.0164425
0.0113667
0.00899641
0.0112729
0.0163088
0.0218259
0.0279117
0.0315711
0.0330124
0.0329784
0.0324125
0.0309927
0.0299185
0.0288001
0.0284435
0.0283628
0.0289607
0.0294989
0.0304859
0.0318444
0.0337753
0.0359845
0.037994
0.0404329
0.0490665
0.0557589
0.00304373
0.00621311
0.0103678
0.00836007
0.0033162
0.000514678
0.000178675
0.000414997
0.005668
0.0211567
0.0328187
0.0259764
0.00934349
0.00646883
0.00898331
0.0125186
0.0154909
0.016095
0.0164506
0.0159178
0.016047
0.0165125
0.0170602
0.0174218
0.0168123
0.0139066
0.00831281
0.0034878
0.00322249
0.00690704
0.000898507
0.00257674
0.00754374
0.00877395
0.00627823
0.00168835
0.000171178
5.76223e-05
5.0034e-05
7.99369e-05
9.60603e-05
0.000208326
0.000226007
0.000279518
0.000469329
0.00169117
0.00283481
0.00389026
0.00560231
0.00672996
0.00769245
0.00866814
0.00913309
0.0096436
0.00882139
0.00684158
0.00439513
0.00336256
0.00401362
0.00591501
0.000113709
4.54766e-05
4.82943e-05
0.000130253
0.000247345
0.000279778
0.000273142
0.000294663
7.79729e-05
0.000789598
0.0015508
0.00206502
0.00231676
0.00261334
0.0026496
0.00302839
0.00347961
0.0039369
0.00414649
0.00424
0.00349788
0.00337979
0.00297025
0.00286326
0.00270839
0.00237541
0.00192742
0.00250499
0.00459
0.00744985
0.000101213
0.000134943
5.99345e-05
3.19861e-05
2.08542e-05
2.61821e-05
2.48354e-05
2.98687e-05
3.11516e-05
2.16447e-05
3.14129e-05
2.73588e-05
2.54301e-05
-6.95412e-06
3.49528e-05
5.6563e-05
7.38015e-05
8.00775e-05
8.59519e-05
9.56276e-05
9.68654e-05
0.000102873
0.000104097
0.000106516
8.45213e-05
4.67176e-05
5.28624e-05
6.64403e-05
0.000125434
0.00036182
0.000326653
0.000296776
0.000386601
0.000230724
6.71879e-05
6.88057e-05
0.000327145
0.00839511
0.0174374
0.015633
0.00427232
0.000317377
-3.44757e-05
6.67702e-05
6.03384e-05
7.84255e-05
0.000157659
0.000246741
0.0022915
0.0100474
0.0219786
0.0287793
0.0274855
0.0208486
0.0143839
0.0104866
0.00743945
0.00554058
0.00493029
0.00677012
0.00015577
5.81312e-05
4.79312e-05
0.000103318
8.15683e-05
2.17122e-05
2.67501e-05
1.42647e-05
6.09711e-05
9.35371e-05
8.43016e-05
6.37579e-05
3.60055e-05
9.9511e-06
1.74031e-05
1.33531e-05
1.13594e-05
9.60351e-06
8.76572e-06
4.95818e-06
6.18967e-06
6.72211e-06
8.53502e-06
1.23253e-05
8.79513e-05
0.000308223
0.00039505
0.000343642
0.000182054
0.000152633
1.30459e-05
1.40775e-05
5.61647e-05
0.000345767
0.00210797
0.00453218
0.00728377
0.0092131
0.00988765
0.00999797
0.00971775
0.0090987
0.00883579
0.00927267
0.00954766
0.00917774
0.00782572
0.00507285
0.0024844
0.000952028
0.000256182
7.90118e-05
5.83821e-05
4.39353e-05
2.85577e-05
1.94359e-05
1.11885e-05
2.40915e-06
1.04059e-06
7.9581e-07
0.00326746
4.23722e-05
6.97482e-05
0.000279959
0.00295592
0.00711073
0.00909022
0.00966843
0.00917016
0.00798543
0.00717725
0.00648901
0.00612581
0.00588714
0.00589449
0.00604248
0.00615942
0.00621074
0.00517413
0.00259211
0.00110093
0.000245042
-2.68053e-05
4.58267e-05
1.88364e-05
6.97305e-06
1.84748e-05
1.21755e-05
9.9613e-06
2.97275e-05
4.9224e-05
5.49083e-06
4.10571e-06
6.06063e-06
1.05888e-05
1.396e-05
5.53428e-05
0.000122673
0.000199412
0.000517344
0.00115744
0.00167289
0.00158133
0.00172609
0.00151304
0.00071317
0.000177586
8.15562e-05
3.25808e-05
7.77111e-06
8.58488e-06
5.22298e-06
5.42798e-06
4.85317e-06
5.39637e-06
6.26128e-06
8.01313e-06
1.45329e-05
2.30524e-05
2.26605e-05
3.80758e-06
5.36673e-06
3.81605e-05
4.5253e-05
5.29649e-05
6.13966e-06
1.31546e-05
7.73e-06
7.58374e-06
4.85957e-06
7.91893e-06
4.93877e-06
2.99198e-06
1.05444e-07
1.83709e-06
1.60984e-06
1.51494e-06
1.94929e-06
-9.59565e-07
2.74598e-05
3.18443e-05
6.64381e-06
3.81324e-06
1.89198e-06
1.77729e-06
2.788e-06
6.41172e-06
6.3733e-06
-5.76757e-08
0.00102863
0.0794357
0.000158871
3.16533e-07
1.93677e-07
9.14445e-08
8.66282e-08
9.06587e-08
1.21742e-07
1.66412e-07
1.42801e-07
3.07284e-07
4.80351e-07
4.38405e-07
7.60691e-07
6.34272e-07
3.34056e-07
5.25789e-07
3.86536e-07
1.89683e-07
2.18183e-07
1.62319e-07
1.29917e-07
2.02818e-07
2.18054e-06
0.000131692
4.34895e-05
9.72993e-06
1.91461e-05
0.0183184
0.0848977
0.0273765
0.0200907
0.00593531
0.00256032
0.0024917
0.00319078
0.00382108
0.00518646
0.00798446
0.01581
0.0173747
0.00695854
0.00255196
0.00654433
0.0432703
0.0296807
0.0220716
0.0156458
0.00866573
0.00492352
0.00408899
0.00688394
0.0138048
0.021944
0.0285841
0.0310862
0.0311893
0.0307515
0.0291139
0.0274209
0.0252242
0.0239186
0.022931
0.0238051
0.0253167
0.0269871
0.0280807
0.0290194
0.030596
0.0334207
0.0364958
0.0396217
0.0471139
0.0546694
0.00327632
0.00859717
0.0126051
0.00772774
0.00177004
0.000260565
0.000121228
0.000430781
0.00639599
0.0288395
0.0405098
0.0285119
0.00874952
0.00829163
0.0138532
0.0154617
0.0159231
0.0138094
0.0123585
0.0116171
0.0120987
0.0132297
0.0148175
0.0165024
0.0182032
0.0178563
0.0135302
0.00659288
0.00332181
0.00581261
0.00101347
0.00339094
0.00719175
0.00598861
0.00176336
0.000156598
3.97482e-05
2.55982e-05
3.78857e-05
9.25022e-05
0.000562104
0.000472763
0.000374607
0.000327926
0.00233816
0.00384675
0.00579597
0.00641
0.00674619
0.00740922
0.00836445
0.00983244
0.0112647
0.012459
0.0122937
0.00960604
0.00600976
0.00338314
0.0035184
0.00552411
0.000119008
9.95232e-06
7.93682e-05
0.000240547
0.000599307
0.000394051
0.000326474
1.4113e-05
0.000794919
0.00154917
0.0021195
0.00235063
0.00239335
0.00242828
0.00228796
0.00241678
0.00254107
0.00299579
0.00324306
0.00458949
0.00438552
0.00439562
0.00353618
0.003377
0.00316273
0.00284739
0.0024098
0.00241218
0.00336379
0.0065223
-4.58512e-05
6.8912e-05
4.46458e-05
1.35702e-05
1.07008e-05
3.41208e-05
2.15442e-05
4.04164e-05
5.56042e-05
4.76228e-05
1.37904e-05
2.22439e-05
1.96933e-05
2.05845e-05
2.57249e-05
5.44386e-05
7.74953e-05
9.00027e-05
0.000102397
0.000102406
0.000101867
0.000100752
0.000124406
0.000118694
9.52456e-05
6.88237e-05
5.58493e-05
5.56711e-05
0.000109472
0.000260561
0.000303665
0.000299628
0.000209637
4.73535e-05
3.42028e-05
0.000156533
0.0053912
0.0136438
0.00811488
0.000128053
6.49454e-05
2.30732e-05
7.716e-06
1.28532e-05
2.3768e-06
1.44027e-05
2.52285e-05
5.95017e-05
0.00016957
0.000814671
0.00453641
0.0161661
0.0228142
0.0214303
0.0177982
0.0143622
0.0096992
0.00565132
0.00441801
0.00649591
0.000102899
3.48479e-05
6.59189e-05
6.77829e-05
1.57875e-06
2.98122e-05
3.87938e-05
0.000111309
0.000100588
0.000123425
8.77551e-05
4.48455e-05
1.04955e-05
1.34795e-05
8.93119e-06
5.58614e-06
4.43372e-06
2.7312e-06
6.02355e-06
4.51646e-06
6.50066e-06
5.62812e-06
6.89462e-06
1.43182e-05
4.76693e-05
0.000193809
0.000432593
0.000428364
0.00021909
0.000165878
1.3823e-05
4.1402e-05
4.78964e-05
0.00362474
0.00802981
0.0102967
0.0112423
0.0105429
0.00861734
0.0069969
0.00582527
0.00513993
0.00527237
0.00619023
0.00749415
0.00931763
0.0105924
0.010274
0.00754855
0.0030867
0.00138149
0.000301818
0.000151457
1.71258e-05
5.64593e-05
3.57785e-05
1.45559e-05
6.08983e-06
1.88937e-06
9.55919e-07
0.000447372
8.29355e-05
0.00134092
0.004403
0.00641983
0.00610706
0.00511656
0.00420388
0.00336959
0.00293622
0.00280202
0.00310591
0.00354617
0.00377229
0.00368355
0.00351122
0.00370052
0.00435422
0.00536347
0.00556684
0.00290396
0.00141083
0.000270028
-1.58386e-05
4.70117e-05
2.43567e-05
2.54806e-05
1.62335e-05
1.92015e-05
3.27818e-05
1.50311e-05
3.97571e-06
5.93143e-06
1.31657e-05
3.21256e-05
8.36478e-05
0.000226236
0.000954742
0.00193244
0.00374461
0.00666823
0.00825387
0.0108608
0.0111258
0.0105638
0.00898441
0.00561969
0.00197131
0.000253005
7.7687e-05
2.68284e-05
1.42553e-05
1.01643e-05
5.46124e-06
1.03458e-06
2.27338e-06
3.53007e-06
1.27463e-05
2.04385e-05
2.4202e-05
4.27826e-06
1.8843e-05
-0.000204422
0.000101547
1.37913e-05
1.41326e-05
1.0989e-05
1.48002e-05
1.66528e-05
1.40105e-05
6.58698e-06
7.25569e-06
3.45938e-06
7.08862e-07
1.83492e-06
2.89948e-07
5.71491e-06
3.95338e-05
0.00116587
0.00442865
0.00743329
0.00201357
1.83573e-05
4.92377e-06
1.24895e-06
1.7979e-06
2.07006e-06
4.4276e-06
7.37207e-06
0.00022239
0.0566375
2.89646e-06
1.25338e-07
9.74951e-08
5.34854e-08
8.08907e-08
1.1437e-07
1.66622e-07
2.08544e-07
4.56877e-07
8.37322e-07
9.92521e-07
2.58253e-06
2.82285e-06
2.141e-06
1.46344e-06
1.13188e-06
6.59751e-07
4.78849e-07
3.47261e-07
2.36692e-07
1.67754e-07
8.08115e-08
3.07499e-07
3.62159e-05
6.36574e-05
1.85379e-05
1.62719e-05
0.0198515
0.0859988
0.0283188
0.0135488
0.00275564
0.00220683
0.00365477
0.00764563
0.0106001
0.0118032
0.0129438
0.018139
0.0188283
0.00800973
0.0028217
0.00641666
0.0401947
0.0240654
0.0162554
0.00949513
0.00371399
0.00275839
0.00277331
0.00370964
0.0119757
0.0220482
0.0284287
0.0296611
0.0295174
0.0289181
0.0271967
0.024137
0.0205339
0.0176532
0.0170026
0.0182043
0.0217671
0.0251554
0.0269547
0.0273752
0.0281689
0.0308428
0.0348388
0.0385377
0.045759
0.0535843
0.0033866
0.00851648
0.0116588
0.00527665
0.000394309
0.000127885
0.000112467
0.000242475
0.00344747
0.0316807
0.0429487
0.0262988
0.00862726
0.010761
0.0155467
0.0143856
0.0110849
0.00863788
0.00694443
0.00651748
0.00707445
0.00866399
0.0113695
0.014252
0.0169414
0.0190073
0.0162983
0.00876308
0.00339507
0.0053294
0.00115446
0.00331026
0.00556783
0.00215426
0.000189269
4.07212e-05
1.35201e-05
9.35896e-06
5.62182e-05
0.000388217
0.00185505
0.000246382
0.000436775
0.00201017
0.00359961
0.00540384
0.00563645
0.00545433
0.00564975
0.00668949
0.00824694
0.0102213
0.0122777
0.0139639
0.0143054
0.0115874
0.00689721
0.00344795
0.0032915
0.00532362
9.56228e-05
7.35508e-05
0.000116291
0.000721145
0.00118749
0.000455761
0.00020007
0.000802544
0.00165768
0.00233703
0.00254482
0.00262691
0.00246766
0.0023087
0.00224273
0.00221896
0.00232948
0.00272267
0.00307278
0.00378186
0.00424161
0.00472911
0.00396906
0.00375831
0.00352825
0.00323308
0.00275473
0.0025948
0.00325367
0.00621533
0.000249155
8.8269e-05
4.26563e-05
3.15518e-05
2.8677e-05
2.83334e-05
3.31699e-05
2.48646e-05
5.66614e-05
8.50746e-05
5.56881e-05
2.35048e-05
1.44469e-05
1.78001e-05
3.10671e-05
6.55555e-05
8.28361e-07
0.000100239
0.000114431
0.000109212
0.000113107
0.000108595
0.000114273
0.000126384
0.000116929
7.9695e-05
6.38054e-05
5.0721e-05
0.000106837
0.000195356
0.000294937
0.000252812
7.28235e-05
2.69869e-05
-1.52975e-05
-1.5368e-05
0.00449962
0.00478433
0.000456037
8.74252e-05
1.90602e-05
1.45352e-05
1.14079e-05
1.28435e-05
1.35193e-05
9.37296e-06
1.56724e-05
2.76305e-05
7.01876e-05
0.000234763
0.00125695
0.00608423
0.0167118
0.0211532
0.0206396
0.0181533
0.0123426
0.00597054
0.00411328
0.00641057
7.61807e-05
8.61762e-06
4.86702e-05
2.13166e-05
2.97561e-05
4.03696e-05
9.33917e-05
0.000111932
4.76943e-05
8.98878e-05
6.53387e-05
2.34091e-05
1.91961e-05
1.2265e-05
6.95693e-06
6.31947e-06
5.27674e-06
5.48861e-06
6.56609e-06
6.99981e-06
6.30411e-06
4.84882e-06
5.07276e-06
4.13794e-06
1.81846e-05
0.000123477
0.000467733
0.000441069
0.000255619
0.000174052
1.97021e-05
0.000377256
0.00424562
0.00806024
0.00951471
0.00996063
0.00871414
0.00655769
0.00370447
0.00303485
0.00280726
0.00295284
0.00361788
0.00513163
0.00640568
0.00823398
0.0112549
0.0132653
0.01223
0.00776766
0.00302713
0.00106638
0.000286656
0.000142811
3.53339e-06
5.45642e-05
2.08079e-05
9.21904e-06
1.81109e-06
1.03749e-06
0.000277842
0.000306468
0.00276044
0.00269347
0.00215327
0.00189908
0.00183679
0.00196054
0.00190611
0.00211966
0.00273147
0.0043076
0.00551348
0.00587715
0.00540935
0.00435575
0.00319592
0.00277558
0.00344081
0.00492366
0.005185
0.00271317
0.000829095
0.000190623
7.78245e-05
4.64815e-05
3.1578e-05
3.00512e-05
2.40744e-05
3.51799e-05
1.29601e-05
4.69301e-06
9.44618e-06
1.81393e-05
-1.68693e-05
0.000179146
0.000864503
0.00208735
0.00596454
0.00976275
0.0136877
0.0169054
0.017953
0.0196365
0.0197738
0.0190617
0.0165427
0.011005
0.00418854
0.000592635
8.46367e-05
3.13572e-05
2.25315e-06
1.33342e-05
9.40872e-06
6.61461e-06
8.14254e-06
1.10626e-05
2.23037e-05
-6.85132e-06
4.03906e-06
3.02435e-05
0.000163851
4.25401e-05
1.8721e-05
1.21226e-05
2.05359e-05
2.78658e-05
3.13027e-05
2.87731e-05
2.03783e-05
1.11136e-05
7.43283e-06
2.32104e-06
2.29338e-06
1.81656e-06
7.4293e-06
-7.28291e-05
0.00869886
0.019626
0.0233761
0.0187834
0.00120262
4.02807e-06
1.70634e-06
9.58017e-07
2.36347e-06
3.43269e-06
7.11911e-06
4.28732e-05
0.0328956
6.3872e-07
8.87789e-08
6.13889e-08
7.21073e-08
6.31926e-08
1.56323e-07
1.73077e-07
4.55487e-07
1.10702e-06
2.54634e-06
5.30485e-06
1.13483e-05
1.27958e-05
1.03713e-05
3.17117e-06
2.51586e-06
1.31454e-06
4.96607e-07
4.44493e-07
2.86667e-07
2.1274e-07
7.12548e-08
1.16617e-07
4.32609e-06
9.05563e-05
5.20063e-05
3.32097e-05
0.0352067
0.0888464
0.0269223
0.00891127
0.00256439
0.00302328
0.00769906
0.0135193
0.0182643
0.0210219
0.0214147
0.0224598
0.0196757
0.00783843
0.00300122
0.00650963
0.0363807
0.0183221
0.0110642
0.00500268
0.00254504
0.00205835
0.00217278
0.00334129
0.0114445
0.0228731
0.0274184
0.0282489
0.0284552
0.0282289
0.0257039
0.0213414
0.0163302
0.0136102
0.0131956
0.0155851
0.0195293
0.0244717
0.0267011
0.0266503
0.0264126
0.0287502
0.0334755
0.0382682
0.0446511
0.0518262
0.00330514
0.00648715
0.00843137
0.00351855
0.000495438
5.27348e-05
9.01559e-05
5.39265e-05
0.00239929
0.0326894
0.0430238
0.0231383
0.00882707
0.0126206
0.0149947
0.0116662
0.00741448
0.00521782
0.0034599
0.00337473
0.0034355
0.00528799
0.00837241
0.0121109
0.0156749
0.0191272
0.0176848
0.0103526
0.00387176
0.00526363
0.00114364
0.00253373
0.00291002
0.000897899
5.35307e-05
1.27556e-05
1.1599e-05
1.67113e-05
8.39037e-05
0.00107387
0.00272328
0.000351052
0.000919141
0.00296483
0.00467249
0.00483353
0.00409683
0.00421026
0.00551922
0.00760999
0.00999644
0.012371
0.0140968
0.0155843
0.0153269
0.0115539
0.00632049
0.0032115
0.00322873
0.00526033
0.000124191
2.96176e-06
0.00027491
0.00174818
0.00122978
0.000339687
0.00052412
0.00160574
0.00252779
0.00287278
0.00307057
0.00307959
0.00284928
0.00272688
0.00251146
0.00255388
0.00256016
0.00287941
0.00318727
0.00383288
0.00413563
0.00453691
0.00415192
0.00396763
0.00376432
0.00349632
0.00301018
0.00280375
0.00343955
0.00638337
0.000241139
7.6101e-05
3.57893e-05
2.77706e-05
2.65634e-05
2.2103e-05
2.32054e-05
2.98334e-05
2.92936e-05
9.7041e-05
0.000106459
-1.00771e-06
1.19718e-05
1.47436e-05
3.63653e-05
7.053e-05
5.92011e-05
0.000112288
0.000117135
0.000116641
0.000105235
0.000114743
0.000114535
0.00011541
0.000101892
8.89572e-05
6.06033e-05
6.29141e-05
0.000108203
0.00020817
0.00028584
9.58531e-05
6.43432e-06
9.90588e-06
-9.07141e-07
0.000241949
0.0011119
0.00124529
0.000272462
4.06663e-05
7.42785e-06
1.55342e-05
1.70314e-05
3.17102e-05
3.26561e-05
2.77844e-05
2.56532e-05
1.40208e-05
6.90452e-05
0.000193689
0.000399321
0.0023225
0.0114712
0.0193117
0.0204729
0.0191429
0.0134088
0.00597675
0.00406973
0.00651317
4.44244e-05
7.06828e-06
2.18438e-05
-3.49431e-06
2.46407e-05
4.44514e-05
2.03235e-05
1.91752e-05
5.73229e-05
6.2136e-05
4.80199e-05
2.41259e-05
2.22701e-05
1.5027e-05
8.06112e-06
6.07055e-06
4.78533e-06
4.30448e-06
6.16025e-06
6.27826e-06
6.28136e-06
5.17262e-06
5.32144e-06
4.73098e-06
3.47845e-05
0.000214486
0.000512291
0.000517139
0.000269198
0.000212231
-7.17872e-06
0.00345841
0.00642453
0.00691838
0.00793327
0.00781248
0.00571025
0.00319345
0.00231709
0.00212959
0.00251176
0.00373311
0.00744935
0.0106656
0.0128256
0.0144906
0.0168309
0.0171201
0.0162003
0.0116996
0.00555565
0.00216872
0.00027895
0.000248704
5.80664e-05
6.64387e-05
3.00041e-05
6.83894e-06
1.79597e-06
1.20731e-06
0.00024584
0.0013536
0.00175314
0.000764987
0.000474747
0.000641712
0.000978838
0.00131237
0.00163866
0.00207781
0.00381701
0.00606107
0.00717314
0.00694337
0.00643524
0.00585181
0.00421175
0.00260535
0.00243373
0.00359168
0.00518478
0.00401674
0.0019988
0.000348208
9.124e-05
7.05315e-05
4.89215e-05
3.64841e-05
2.31367e-05
2.83858e-05
2.28631e-06
6.77596e-06
1.70672e-05
3.76788e-05
5.25881e-05
0.000209379
0.00145654
0.00399771
0.0101959
0.0146875
0.0202338
0.0238665
0.0265715
0.0276027
0.0274512
0.0259252
0.0241685
0.019297
0.0122536
0.0022146
0.000118583
3.32612e-05
3.39708e-05
1.53373e-05
-2.78544e-06
1.36967e-05
1.21699e-05
1.55686e-05
2.98315e-06
-7.08186e-06
8.49615e-06
0.000110911
0.000114282
7.57555e-06
1.4911e-05
1.91483e-05
3.39137e-05
1.00687e-05
1.55551e-05
2.73207e-06
3.56285e-05
2.35672e-05
5.49959e-06
3.85614e-06
-3.36525e-08
2.89393e-06
1.7764e-05
0.000457603
0.00728959
0.0182142
0.0240056
0.0203811
0.00118376
4.10571e-06
2.31025e-06
9.54968e-07
2.26614e-06