/*--------------------------------*- C++ -*----------------------------------*\
| =========                 |                                                 |
| \\      /  F ield         | OpenFOAM: The Open Source CFD Toolbox           |
|  \\    /   O peration     | Version:  2.1.1                                 |
|   \\  /    A nd           | Web:      www.OpenFOAM.org                      |
|    \\/     M anipulation  |                                                 |
\*---------------------------------------------------------------------------*/
FoamFile
{
    version     2.0;
    format      ascii;
    class       volScalarField;
    location    "0.004950000";
    object      T;
}
// * * * * * * * * * * * * * * * * * * * * * * * * * * * * * * * * * * * * * //

dimensions      [0 0 0 1 0 0 0];

internalField   nonuniform List<scalar> 
12384
(
3037.54
3046.28
3050.82
3048.42
3045.23
3044.86
3046.75
3050.2
3049.74
3044
3032.91
3027.21
3029.85
2799.04
2673.03
2709.88
2707.93
2702.61
2698.45
2701.73
2703.46
2708.06
2710.22
2711.74
2711.27
2708.48
2705.27
2700.77
2698.16
2695.87
2696.51
2697.32
2701.44
2702.08
2707.34
2710.74
2715.91
2718.17
2724.09
2734.49
2747.82
2650.77
2589.2
2592.12
3002.42
2984.86
2976.72
2980.79
2988.39
2998.16
2996.58
2979.87
2958.87
2937.33
2931.7
2927.84
2925.56
2926.19
2910.74
2920.5
2907.53
2913.58
2904.61
2910.25
2909.14
2917.33
2919.38
2923.74
2928.76
2932.83
2938.76
2960.58
2855.38
2743.48
2824.3
2820.04
2820.84
2820.98
2807.19
2791.29
2808.99
2794.9
2825.26
2820.28
2863.17
2864.45
2889.62
2887.92
2897.21
2894.84
2896.96
2890.22
2886.26
2880.93
2879.78
2883.22
2883.46
2896.51
2899.36
2908.64
2906.04
2911.57
2904.29
2902
2879.99
2870.39
2868.79
2868.16
2864.96
2862.56
2859.17
2849.17
2844.34
2838.9
2827.57
2813.69
2815.12
2804.07
2792.47
2800.92
2792.65
2802.59
2796.83
2812.55
2813.26
2826.15
2835.43
2845.04
2852.99
2867.52
2840.88
2702.77
2702.85
2713.94
2828.5
2810.15
2775.9
2774.04
2790.58
2791.76
2799.62
2802.08
2805.5
2805.71
2803.44
2800.36
2796.59
2792.47
2789.99
2789.9
2789.93
2790.8
2790.65
2789.4
2788.88
2787.26
2787.67
2788.21
2797.05
2811.69
2821.91
2832.77
2868.61
2871.68
2774.15
2802.49
2788.95
2770.4
2766.89
2776.6
2762.47
2744.23
2732.52
2710.33
2684.79
2665.97
2636.74
2611.23
2597.62
2579.24
2570.33
2567.18
2566.52
2574.11
2587.02
2604.4
2622.96
2643.78
2663.88
2684.73
2706.9
2729.2
2729.79
2727.24
2540.09
2601.51
2762.21
2764.79
2766.18
2772.45
2782.2
2791.83
2798.07
2796.82
2796.56
2786.63
2785.9
2778.59
2783.28
2772.71
2782.18
2797.19
2803.3
2812.68
2820.06
2827.93
2837.87
2840.18
2839.75
2813.9
2780.85
2759.05
2772.98
2806.94
2863.81
2869.63
2904.85
2920.74
2846.88
2767.64
2719.57
2716.15
2702.82
2714.61
2712.48
2723.55
2724.92
2734.78
2737.34
2746.14
2753.67
2763.58
2769.75
2772.17
2767.81
2756.26
2727.59
2662.23
2607.12
2552.3
2530.47
2532.07
2565.78
2609.5
2846.28
2851.31
2871.34
2901.37
2917.95
2915.62
2914.72
2895.86
2890.82
2873.86
2871.52
2850.1
2853.3
2826.16
2830.41
2817.63
2807.34
2812.37
2805.86
2808.04
2806.88
2805.09
2803.11
2805.24
2810.36
2817.79
2823.64
2824.57
2826.44
2827.21
2892.8
2872.11
2848.93
2824.97
2803.03
2784.16
2767.42
2758.83
2736.37
2741.33
2703.28
2717.59
2688.97
2700.99
2701.81
2694.77
2715.93
2710.32
2729.63
2733.29
2739.97
2753.88
2766.07
2796.69
2837.78
2832.86
2809.4
2803.71
2806.79
2811.55
2731.98
2832.32
2756.4
2776.65
2832.89
2871.38
2902.35
2922.73
2934.85
2939.71
2940.95
2940.89
2937.93
2935.27
2929.11
2915.25
2910.26
2900.73
2884.78
2891.77
2875.2
2880.42
2879.65
2876.06
2876.41
2869.57
2847.55
2819.32
2917.27
2362.44
2162.96
2176.39
2212.52
2262.35
2346.05
2603.73
2806.22
2569.89
2573.58
2594.53
2604.03
2608.56
2613.4
2614.16
2627.16
2627.63
2648.04
2654.83
2683.23
2705.27
2738.59
2765.29
2788.09
2784.99
2820.71
2855.53
2958.8
2766.2
2404.75
2350.57
3016.2
2976.47
2948.85
2945.5
2952.26
2962.96
2967.18
2971.89
2985.96
3027.76
3048.26
3036.15
3029.87
2916.5
2668.84
2695.71
2686.3
2692.62
2709.32
2720.86
2737.3
2752.57
2766.47
2763.24
2753.48
2735.77
2723.49
2713.42
2713.03
2712.31
2719.56
2724.21
2730.88
2735.17
2735.94
2730.31
2729.25
2726.33
2723.67
2727.96
2738.15
2708.65
2630.97
2591.05
2999.17
2974.87
2971.73
2983.8
2996.53
2993.43
2969.13
2930.12
2911.91
2922.53
2932.62
2931.33
2925.43
2925.54
2915.73
2922.04
2916.02
2925
2919.28
2920.81
2918.63
2921.48
2925.44
2931.61
2932.17
2931.35
2933.44
2945.86
2944.28
2882.18
2823.18
2820.69
2818.64
2795.35
2775.47
2777.21
2787.71
2813.6
2843.02
2838.47
2859.8
2853.76
2875.49
2874.19
2888.98
2884.66
2886.62
2887.51
2887.99
2881.44
2879.47
2878.88
2884.21
2889.33
2897.42
2905.95
2910.87
2910.79
2910.28
2909.07
2878.77
2867.26
2863.66
2859.63
2858.56
2854.91
2852.3
2844.23
2828.82
2824.67
2813.62
2807.46
2796.82
2798.96
2784.21
2786.66
2782.22
2788.21
2783.57
2798.72
2797.24
2809.07
2817.2
2827.55
2839.64
2857.42
2857.23
2794.22
2728.05
2735.07
2828.4
2797.5
2777
2778.47
2791.61
2794.39
2801.7
2803.01
2802.54
2798.01
2792.28
2785.28
2777.9
2773.01
2772.43
2770.41
2771.32
2773.08
2775.26
2776.78
2776.42
2779.94
2774.63
2779.86
2786.02
2795.58
2810.57
2820.62
2849.7
2862.81
2795.65
2793.05
2783.44
2787.38
2790.62
2796.15
2813.2
2807.35
2788.69
2746.73
2691.18
2650.21
2616.47
2584.82
2562.42
2539.47
2517.65
2498.35
2490.54
2492.97
2506.95
2537.56
2582.34
2630.31
2674.17
2702.33
2723.73
2737.57
2736.75
2729.45
2757.12
2779.68
2770.7
2773.01
2787.41
2812.63
2823.12
2812.68
2793.76
2774.92
2768.95
2751.13
2748.94
2734.72
2732.6
2726.4
2726.16
2727.33
2736.62
2750.91
2769.82
2797.53
2824.11
2843.3
2852.66
2843.77
2814.83
2779.08
2767.52
2793.54
2836.53
2788.42
2751.54
2737.68
2745.27
2765.83
2798.8
2819.46
2837.86
2856.79
2860.47
2868.09
2870.97
2868.06
2864.95
2856.92
2846.85
2834.01
2820.37
2803.35
2789.58
2777.32
2756.6
2720.12
2679.73
2639.35
2595.18
2551.82
2533.22
2569.51
2899.35
2906.54
2919.91
2906.79
2890.78
2890.78
2893.11
2898.6
2905.86
2908.92
2911.51
2912.61
2906.36
2901.63
2891.76
2880.17
2876.41
2869.87
2862.42
2853.61
2839.03
2826.75
2815.74
2811.1
2810.81
2810.11
2807.66
2810.51
2813.76
2818.68
2889.98
2871.42
2841.61
2813.78
2795.97
2787.01
2777.86
2775.43
2770.49
2771.02
2753.86
2758.54
2742.44
2738.71
2739.63
2739.65
2734.39
2744.01
2744.37
2746.69
2748.23
2758.93
2767.52
2780.48
2811.66
2841.89
2841.59
2830.15
2838.87
2840.28
2847.49
2785.59
2774.75
2843.41
2914.68
2946.09
2951.54
2941.42
2926.63
2910.52
2900.31
2889.89
2878.54
2864.82
2844.45
2824.7
2800.58
2788.74
2778.19
2769.4
2778.61
2779.17
2799.67
2820.94
2840.63
2852.61
2845.07
2821.69
2869.56
2720.58
2193.49
2291.77
2550.48
2847.35
2843.12
2787.91
2631.92
2572.01
2580.68
2590.94
2592.54
2590.53
2587.01
2585.58
2591.51
2589.1
2598.94
2599.09
2614.37
2629.71
2674.56
2739.83
2838.69
2845.74
2832.44
2795.36
2818.99
2932.77
2655.77
2360.35
2941.99
2926.29
2934.01
2977.29
3018.59
3036.23
3035.05
3013.4
2978
2975.73
3023.75
3045.7
3034.26
2966.83
2660.77
2681.88
2694.93
2718.96
2745.11
2780.16
2838.63
2864.31
2854.73
2825.06
2784.16
2748.62
2734.85
2740.06
2754.41
2776.55
2796.9
2813.57
2827.78
2831.91
2836.48
2827.24
2809.93
2784.88
2754.7
2732.03
2730.5
2727.73
2670.86
2613.85
2990.07
2966.49
2965.63
2980.46
2989.82
2972.8
2925.22
2899.95
2930.78
2919.25
2859.76
2860.46
2903.27
2925.16
2920.12
2924.29
2909.59
2910.29
2896.24
2894.64
2892.64
2889.93
2889.86
2892.79
2901.81
2916.89
2932.65
2935.88
2952.88
2934.67
2823.81
2820.57
2793.31
2777.1
2763.68
2796.42
2818.39
2825
2829.9
2815.46
2851.43
2865.23
2884.77
2878.63
2888.21
2889.98
2898.88
2897.42
2890.99
2888.31
2887.1
2881.33
2874.79
2882.57
2891.37
2900.93
2908.81
2912.32
2909.56
2911.65
2876.18
2861.55
2857.83
2858.21
2863.02
2864.14
2856.39
2841.5
2833.25
2824
2815.88
2816.89
2802.48
2803.49
2794.36
2795.47
2790.42
2794.13
2789.57
2797.62
2792.07
2802.87
2801.87
2813.27
2822.68
2840.22
2858.97
2848.52
2789.77
2762.5
2825.28
2787.41
2775.71
2783.89
2795.21
2802.63
2808.84
2808.54
2805.85
2800.79
2793.22
2783.23
2776.27
2772.37
2773.5
2773.86
2775.51
2778.07
2783.17
2790.37
2801.13
2805.94
2813.51
2808.73
2799.89
2795.62
2799.87
2810.9
2829.01
2849.84
2795.53
2789.78
2796.5
2805.85
2825.45
2818.92
2820.24
2820.99
2783.31
2718.05
2683.42
2689.2
2734.07
2752.36
2761.02
2739.06
2701.05
2648.43
2592.49
2545.91
2523.02
2533.86
2580.12
2646.73
2702.72
2735.15
2750.55
2754.42
2746.41
2731.29
2783.97
2770.86
2772.74
2797.59
2830
2828.3
2790.19
2764.99
2767.45
2770.74
2784.06
2778.83
2780.34
2758.63
2754.54
2735.46
2727.92
2715.46
2708.56
2703.96
2711.99
2733.83
2775.1
2817.61
2854.21
2865.29
2845.74
2810.3
2778.98
2787.8
2769.34
2738.35
2750.24
2796.18
2852.9
2894.35
2916.91
2912.29
2919.82
2918.66
2905.53
2907.8
2901.43
2905.33
2906.89
2903.63
2899.44
2900
2885.71
2860.29
2835.89
2808.33
2789.83
2767.53
2742.39
2708.28
2670.48
2610.49
2558.76
2565.76
2909.86
2919.59
2892.62
2895.9
2921.16
2945.93
2947.05
2943.24
2927.4
2912.61
2904.51
2900.22
2890.47
2885.67
2890.53
2898.6
2907.7
2915.14
2912.16
2909.01
2890.72
2866.02
2843.03
2824.05
2815.7
2811.54
2805.91
2800.64
2804.34
2813.07
2889.43
2866.49
2816.19
2795.81
2799.89
2813.78
2827.22
2841.8
2847.83
2852.05
2847.92
2846.91
2833.92
2834.73
2822.24
2818.61
2805.03
2800.24
2793.99
2774.86
2775.97
2771.57
2769.7
2776.47
2790.08
2819.27
2844.12
2860.99
2869.31
2862.14
2800.55
2782.63
2841.63
2924.36
2949.91
2930.64
2903.82
2879.24
2865.48
2858.56
2848.28
2833.01
2812.75
2792.08
2773.19
2757.01
2750.45
2743.2
2756.85
2750.93
2755.32
2741.09
2740.27
2745.96
2775.2
2808.59
2825.17
2815.32
2835.82
2898.64
2245.89
2624.73
2848.51
2728
2649.75
2597.69
2565.3
2573.41
2584.24
2592.18
2598.6
2605.55
2614.96
2620.94
2622.81
2620.56
2614.4
2604.32
2602.76
2594.07
2608.05
2632.64
2745.04
2908.87
2959.66
2895.27
2841.95
2886.18
2815.16
2373.5
2921.45
2927.18
2997.05
3046.91
3058.06
3058.07
3058.79
3055.55
3032.07
2980.85
2990.32
3044.11
3040.4
2983.13
2659.15
2691.58
2724.32
2759.27
2810.36
2885.97
2938.55
2929.55
2892.9
2835.12
2769.6
2737.15
2744.58
2770.51
2808.35
2838.21
2866.08
2880.61
2892.26
2895.15
2894.69
2891.29
2878.61
2849.67
2806.36
2758.69
2729.78
2725.73
2691.81
2635.47
2979.75
2948.11
2937.06
2963.11
2979.8
2942.87
2896.27
2907.79
2926.03
2835.71
2764.45
2805.07
2902.32
2925.11
2917.08
2918.17
2899.91
2905.22
2894.42
2898.12
2894.68
2891.64
2884.34
2877.92
2873.26
2880.55
2905.16
2928.62
2941.84
2950.34
2822.05
2820.45
2782.08
2776.99
2785.39
2825.44
2809.93
2804.95
2809.83
2844.23
2885.84
2895.66
2904.55
2893.5
2897.66
2901.91
2898.12
2888.01
2872.41
2862.45
2855.56
2851.99
2856.2
2852.22
2871.65
2885.3
2899.54
2906.94
2908.53
2907.6
2873.21
2859.55
2857
2865.7
2880.98
2877.3
2858.84
2846.48
2834.96
2831
2819.82
2822.59
2811.12
2816.69
2807.67
2805.44
2803.05
2800.34
2795.2
2799.82
2796.55
2802.82
2795.53
2803.05
2807.91
2825.3
2850.21
2858.26
2834.76
2791.14
2818.26
2780.54
2775.16
2791.59
2801.24
2813.43
2817.59
2820.68
2819.09
2812.57
2800.25
2789.05
2777.12
2772
2768.86
2766.56
2767.17
2772.32
2784.87
2804
2819.62
2835.42
2840.22
2840.46
2829.46
2810.42
2800.81
2804.85
2814.34
2836.75
2794.85
2791.17
2807.16
2823.44
2813.14
2808.78
2836.19
2786.19
2715.58
2725.66
2813.32
2816.09
2792.86
2777.52
2764.99
2774.76
2787.45
2804.91
2797.92
2740.56
2645.94
2588.24
2597.39
2653.84
2709.76
2740.13
2761.33
2766.4
2757.04
2732.49
2775.33
2766.91
2791.7
2824.37
2819.58
2772.19
2758.99
2791.48
2831.18
2852.57
2848.54
2843.39
2815.73
2787.44
2770.79
2756.35
2745.89
2734.47
2723.74
2704.06
2690.63
2693.67
2721.68
2775.42
2837.25
2873.37
2869.91
2838.37
2794.07
2792.17
2744.76
2748.68
2831.35
2907.48
2933.72
2928.51
2906.65
2886.94
2886.24
2873.19
2875.47
2880.47
2881.4
2875.1
2868.6
2870.4
2884.23
2899.04
2909.76
2905.33
2881.43
2850.57
2827.12
2803.49
2781.54
2756.58
2717.02
2660.99
2580.99
2565.96
2925.16
2883.56
2913.81
2953.97
2949.82
2918.45
2900.07
2891.59
2890.46
2891.14
2890.8
2885.53
2879.04
2876.35
2866.16
2862.7
2869.51
2881.55
2900.94
2923.75
2926.6
2909.05
2881.43
2850.36
2829.12
2818.44
2814.17
2808.63
2805.8
2812.32
2886.82
2819.6
2795.5
2811.82
2841.58
2872.34
2895.67
2912.93
2917.14
2925.51
2910.11
2903.86
2902.85
2891.92
2888.17
2891.43
2883.28
2866.33
2857.78
2834.44
2808.9
2805.48
2788.79
2785.72
2789.51
2803.29
2829.75
2855.39
2875.98
2870.66
2776.2
2820.31
2915.96
2952.81
2927.4
2892.07
2871.29
2867.26
2867.19
2861.15
2847.32
2825.25
2799.03
2774.78
2760.19
2746.82
2774.91
2804.49
2863.45
2878.93
2886.34
2845.9
2789.04
2747.4
2734.83
2762.81
2795.43
2802
2817.85
2912.21
2365.24
2897.32
2674.04
2604.77
2566.54
2556.24
2569.03
2580.35
2595.54
2614.36
2637.9
2663.75
2683.81
2700.04
2694.29
2692.69
2669.59
2657.68
2634.78
2614.25
2604.35
2594.88
2628.29
2794.34
2962.69
2934.66
2874.63
2888.24
2882.41
2380.75
2917.82
2962.22
3046.24
3056.52
3057.41
3061.5
3062.82
3056.95
3044.72
2991.29
2976.78
3036.06
3042.39
2991.91
2663.12
2719.34
2761.62
2806.58
2891.02
2960.16
2975.39
2961.23
2909.65
2829.91
2750.3
2743.18
2772.99
2818.96
2855.61
2888.24
2909.24
2925.73
2931.53
2931.33
2923.57
2913.7
2905.86
2889.79
2851.33
2792.22
2743.15
2729.42
2712.32
2660.7
2969.78
2930.62
2921.41
2959
2963.05
2909.83
2880.56
2909.85
2918.99
2787.14
2719.91
2787.82
2911.37
2929.49
2909.82
2921.42
2909.75
2919.97
2915.43
2917.94
2907.43
2898.64
2892.08
2879.54
2862.54
2854.16
2870.37
2908.49
2936.09
2952.77
2821.09
2812.73
2781.6
2793.66
2812.75
2812.2
2785.55
2794.45
2811.85
2871.39
2934.11
2927.93
2901.5
2897.43
2892.67
2883.1
2869.06
2859.33
2850.69
2843.57
2836.76
2831.2
2829.91
2832.97
2840
2866.12
2889.1
2901.07
2902.25
2904.45
2874.08
2856.07
2857.9
2883.13
2891.88
2877.28
2858.41
2848.47
2832.01
2834.82
2824.51
2826.33
2815.99
2817.86
2806.95
2809.95
2806.4
2813.98
2805.39
2807.08
2796.41
2803.13
2794.22
2799.69
2798.79
2814.88
2839.26
2860.47
2857.22
2807.75
2812.78
2774.31
2778.53
2794.25
2811.76
2823.46
2832.03
2835.3
2834.96
2826.76
2812.3
2791.85
2776.56
2760.98
2751.85
2747.1
2749.35
2763.87
2793.82
2821.92
2847.93
2854.55
2864.53
2862.42
2850.92
2826.16
2806.15
2802.61
2809.17
2826.94
2792.42
2793.37
2812.55
2809.76
2806.05
2840.17
2822.21
2753.75
2791.71
2835.61
2790.09
2755.27
2735.79
2725.65
2728.11
2722.21
2739.1
2759.16
2785.93
2799.6
2779.99
2688.82
2638.9
2654.29
2684.5
2715.15
2748.44
2770.25
2763.7
2732.53
2775.08
2780.28
2810.23
2809.02
2767.56
2764.62
2814.89
2862.56
2894.18
2881.18
2862.4
2827.58
2791.33
2761
2744.24
2720.32
2714.6
2719
2724.26
2710.35
2696.61
2676.23
2693.95
2741.05
2815.88
2877.82
2888.05
2861.21
2814.95
2796.96
2743
2820.45
2932.67
2942.34
2909.7
2893.54
2869.92
2881.91
2883.65
2894.63
2902.91
2902.51
2897.34
2887.47
2881.17
2871.92
2864.21
2865.73
2892.43
2916.99
2909.92
2895.14
2865.66
2840.39
2821.75
2797.34
2759.67
2694.23
2611.53
2582.59
2920.72
2898.61
2965.44
2936.85
2912.92
2913.45
2914.36
2919.76
2911.32
2910.43
2900.55
2880.56
2871.36
2858.25
2851.49
2854.3
2859.43
2869.91
2882.76
2894.92
2927.76
2930.45
2912.13
2882.4
2850.18
2832.62
2822.12
2814.59
2805.92
2808.35
2862.22
2793.41
2811.91
2847.31
2886.16
2916.52
2936.72
2944.53
2940.34
2929.91
2891.1
2886.97
2852.83
2852.75
2866.38
2873.52
2903.92
2911.87
2902.47
2897.3
2850.31
2834.99
2826.06
2807.26
2803.37
2806.27
2821.52
2845.63
2873.17
2876.66
2790.16
2877.31
2951.17
2938.4
2898.36
2881.14
2884.13
2892.18
2896.41
2891.4
2876.8
2848.79
2812.9
2777.96
2759.25
2762.64
2831.65
2904.71
2979.96
2962.19
2942.21
2969.32
2896.32
2795.64
2736.23
2735.91
2766.9
2785.4
2805.36
2907.46
2542.4
2757.8
2598.28
2563.64
2554.6
2562.47
2575.56
2595.19
2623.46
2660.02
2704.37
2744.99
2775.42
2788.73
2777.36
2764.86
2727.62
2705.15
2670.54
2652.31
2622.06
2604.57
2596.26
2665.91
2912.95
2943.73
2898.46
2904.37
2874.88
2374.45
2909.66
3002.06
3055.98
3057.38
3066.51
3053.07
3037.19
3027.62
3016.35
2977.35
2966.67
3031.28
3042.56
2996.83
2673.89
2748.67
2796.54
2861.7
2945.23
2969.31
2974.15
2975.72
2921.43
2818.69
2743.75
2754.88
2807.88
2848.62
2885.45
2911.02
2941.56
2958.59
2968.79
2960.58
2943.8
2924.66
2914.64
2907.31
2883.21
2821.93
2754.78
2728.23
2712.98
2664.67
2964.35
2928.5
2921.24
2961.45
2946.13
2885.11
2863.81
2890.51
2927.62
2770.37
2705.97
2805.06
2917.97
2932.55
2918.6
2934.22
2932.29
2936.27
2921.7
2916.03
2904.04
2898.47
2885.88
2879.11
2864.83
2846.33
2852.44
2888.37
2925.33
2948.57
2816.84
2810.88
2790.33
2816.34
2811.97
2787.35
2769.02
2786.32
2820.53
2906.99
2945.6
2940.36
2891.94
2879.68
2880.15
2864.13
2852.39
2849.32
2839.46
2827.02
2817.33
2807.54
2807.15
2809.15
2823.66
2847.31
2878.99
2894.88
2896.88
2897.71
2869.14
2853.22
2867.72
2897.05
2887.07
2874.43
2851.03
2840.7
2835.03
2837.04
2823.5
2823.17
2810.25
2805.47
2802
2801
2801.7
2810.48
2804.43
2813.34
2801.48
2803.07
2796.04
2797.58
2794.88
2807.26
2832.77
2857.33
2861.39
2815.29
2805.01
2769.3
2777.19
2800.36
2816.32
2835.64
2845.57
2850.41
2846.29
2838.02
2823.2
2796.37
2775.75
2748.28
2730.89
2726.99
2740.43
2770.75
2814.73
2851.98
2859.8
2866.98
2860.42
2865.09
2861.29
2834.41
2813.1
2801.83
2808.97
2820.26
2790.9
2793.58
2807.9
2803.51
2815.31
2858.61
2830.77
2827.32
2840.44
2799.67
2760.48
2739.31
2727.79
2732.4
2723.3
2726.01
2723.95
2737.34
2762
2789.16
2798.77
2769.87
2690.69
2656.96
2668.75
2686.66
2729.42
2777.97
2768.72
2742.59
2774.12
2787.23
2803.91
2776.72
2764.71
2810.83
2854.29
2870.25
2878.15
2855.33
2844.38
2799.06
2785.94
2756.24
2736.61
2715.51
2701.93
2697.5
2712.3
2710.25
2698.28
2676.08
2686.15
2724.67
2810.46
2888.88
2900.47
2874.59
2825.39
2809.59
2766.76
2915.83
2942.28
2914.34
2888.63
2888.73
2884.21
2906.39
2911.09
2922.3
2909.2
2910.51
2904.63
2898.59
2889.66
2873.27
2856.65
2855.19
2862.16
2895.89
2925.25
2914.94
2892.38
2871.36
2849.37
2817.54
2778.06
2710.45
2610.99
2590.8
2907.31
2947.4
2944.26
2933.48
2929.61
2928.87
2921.07
2918.09
2901.92
2902.81
2876.96
2864.51
2842.43
2839.94
2835.45
2836.29
2843.91
2863.23
2878.18
2884.62
2908.52
2930.83
2930.6
2905.3
2873.44
2847.94
2836.46
2826.61
2812.38
2811.99
2833.43
2800.25
2837.46
2874.89
2910.48
2935.07
2945.84
2947.61
2916.94
2885.71
2852.93
2827.46
2815.67
2795.66
2793.7
2810.31
2829.72
2885.24
2907.38
2929.89
2897.35
2864.82
2854.77
2841.11
2824
2823
2826.62
2844.07
2874.4
2879.28
2812.21
2914.68
2946.54
2916.26
2891.78
2896.35
2911.48
2924.7
2931.33
2927.16
2912.98
2886.48
2842.22
2791.62
2765.05
2778.79
2871.03
2972.01
2946.27
2882.52
2845.03
2875.95
2941.61
2840.21
2744.46
2729.34
2751.01
2775.97
2802.52
2907.22
2720.42
2675.76
2572.7
2555.28
2557.23
2570.88
2589.11
2619.03
2667.9
2719.36
2785.15
2837.33
2871.08
2884.71
2864.93
2838.12
2781.28
2742.4
2698.3
2676.43
2647.49
2621.43
2595.57
2603.26
2812.16
2956.82
2934.91
2948.08
2769.45
2356.64
2923.06
3032.6
3059.03
3064.93
3055.96
3029
2996.82
2969.56
2959.8
2945.06
2960.25
3030.86
3043.14
2998.44
2692.12
2785.18
2837.69
2908.68
2953.21
2957.53
2961.01
2975.96
2925.01
2810.08
2740.88
2773.07
2825.86
2866.57
2895.37
2929.48
2960.68
2982.76
2984.67
2977.87
2954.24
2926.89
2912.94
2911.32
2900.22
2844.51
2768.64
2732.53
2722.72
2688.85
2954.17
2929.04
2927.49
2956.71
2930.2
2876.19
2850.99
2864.14
2923.86
2764.14
2707.72
2825.84
2924.96
2936.75
2931.64
2949.18
2938.75
2933.5
2914.53
2909.21
2900.68
2893.72
2885.05
2869.15
2854.76
2832.31
2837.45
2877.32
2922.69
2955.25
2816.34
2814.32
2806.93
2817.19
2792.21
2774.61
2762.47
2777.26
2840.03
2928.91
2953.67
2925.58
2881.27
2874.92
2861.45
2854.01
2847.17
2839.54
2835.38
2823.66
2812.23
2799.69
2789.86
2797.73
2816.03
2843.25
2874.6
2890
2891.14
2893.21
2865.72
2859.74
2886.79
2892.48
2881.62
2860.84
2847.43
2839.23
2838.82
2828.92
2816.39
2808.44
2792.13
2794.45
2788.05
2791.38
2792.52
2802.85
2800.1
2810.76
2802.44
2806.76
2795.08
2796.48
2793.9
2805.11
2830.92
2856.95
2861.9
2813.22
2798.14
2764.52
2780.69
2803.22
2828.31
2844.89
2862.72
2865.51
2855.97
2839.56
2831.57
2805.5
2773.37
2735.17
2713.7
2715.71
2739.12
2789.61
2840.17
2859.84
2865.35
2858.63
2859.52
2869.58
2864.04
2838.13
2812.15
2808.3
2811.31
2821.26
2790.34
2794.15
2801.61
2798.01
2822.47
2858.07
2858.74
2848.72
2832.56
2795.39
2761.82
2742.1
2751.58
2766.37
2755.26
2741.55
2737.3
2742.03
2755.77
2780.46
2798.7
2803.61
2733.77
2679.03
2674.6
2684.77
2733.35
2771.67
2773.6
2740.07
2780.41
2793
2787.92
2770.18
2791.91
2817.9
2812.64
2814.37
2828.34
2832.14
2832.97
2813.37
2791.53
2775.39
2739.8
2711.51
2693.53
2689.21
2707.3
2701.84
2697.58
2680.38
2686.92
2739.43
2836.62
2900.57
2918.91
2894.96
2838.53
2816.47
2864.41
2946.65
2925.68
2911.29
2896.99
2900.32
2903.17
2920.24
2912.63
2912.03
2908.84
2909.9
2887.07
2864.39
2847.28
2837.47
2830.78
2832.17
2845.61
2876.41
2919.03
2927.77
2923.52
2896.47
2869.32
2839.68
2797.09
2708.84
2625.78
2613.66
2921.94
2955.42
2934.47
2929.85
2923.34
2918.48
2909.75
2902.22
2893.62
2886.3
2861.64
2860.34
2841.07
2836.5
2823.51
2811.19
2812.96
2837.61
2856.44
2886.58
2901.64
2916.17
2932.58
2922.76
2891.46
2864.75
2847.98
2831.57
2811.81
2808.21
2812.7
2807.34
2850.27
2883.86
2912.79
2935.49
2941.99
2929.93
2883.93
2854.31
2806.29
2786.89
2760.58
2763.36
2759.66
2775.69
2774.07
2834.35
2871.81
2937.58
2924.57
2899.46
2868.96
2870.73
2853.93
2841.68
2842.31
2852.01
2880.61
2879.11
2836.14
2933.77
2942.2
2905.57
2901.04
2917.67
2940.85
2956.43
2958.38
2953.24
2939.49
2919.06
2875.23
2816.22
2771.81
2779.48
2882.89
2977.15
2955.77
2892.18
2842.23
2861.4
2943.13
2840.29
2745.04
2728.14
2746.14
2773.71
2821.68
2905.11
2831.7
2642.89
2564.18
2559.04
2565.02
2580.12
2609.17
2650.59
2712.77
2783.41
2861.31
2919.11
2959.13
2973.09
2944.16
2901.95
2835.05
2769.74
2716.73
2692.71
2662.77
2638.01
2603.28
2590.95
2690.44
2968.05
2983.92
2991.36
2638.74
2318.11
2917.26
3039.98
3060.09
3067.86
3051.33
3028.95
3002.37
2975.21
2949.04
2939.71
2955.81
3034.46
3043.57
3010.15
2703.67
2808.4
2866.27
2921.21
2937.18
2934.99
2951.98
2974.47
2923.09
2799.98
2746.47
2781.25
2837.34
2867.5
2899.08
2934.03
2972.34
2988.92
2994.01
2976.83
2949.58
2921.96
2916.7
2914.04
2904.92
2851.72
2777.44
2735.52
2725.6
2693.99
2949.12
2935.9
2942.05
2946.87
2920.53
2872.6
2845.88
2859.23
2920.9
2753.42
2718.42
2848.35
2931.92
2939.71
2945
2959.93
2936.93
2926.97
2903.01
2902
2890.02
2891.8
2872.26
2862.38
2843.42
2824.92
2829.07
2873.11
2919.46
2950.31
2811.9
2809.21
2810.61
2807.59
2778.17
2770.43
2755.39
2786.09
2863.21
2938.33
2960.29
2910.11
2874.39
2867.95
2856.87
2849.52
2837.51
2831.51
2816.79
2802.08
2785.92
2782.01
2783.17
2800.63
2825.03
2856.95
2874.54
2881.26
2885.27
2888.68
2864.99
2864.89
2897.53
2889.17
2870.84
2851.16
2843.78
2841.28
2831.69
2819.36
2801.59
2790.4
2784.36
2787.1
2785.47
2788.73
2787.77
2798.89
2796.78
2807.7
2802.31
2804.58
2795.11
2793.49
2795.27
2804.89
2831.59
2856.63
2855.66
2810.6
2791.97
2762.27
2781.09
2806.94
2832.87
2860.71
2877.74
2879.1
2865.57
2838.64
2833
2813.77
2772.72
2726.9
2702.06
2712.33
2743.69
2807.51
2853.1
2861.09
2857.9
2859.89
2859.74
2856.5
2850.76
2842.28
2821.95
2813.1
2809.62
2824.73
2789.04
2791.87
2795.37
2793.1
2815.78
2836.67
2858.35
2860.47
2838.84
2800.5
2773.72
2774.6
2788.6
2787.92
2775.03
2756.99
2748.94
2749.69
2769.97
2786.05
2802.5
2802.74
2771.56
2710.16
2698.87
2706.38
2740.32
2789.33
2781.9
2740.58
2783.26
2793.04
2783.98
2780.53
2790.68
2762.79
2735.1
2750.75
2795.29
2827.93
2833.54
2831.73
2808.97
2778.26
2738.98
2703.19
2685.97
2699.46
2704.87
2700.11
2700.2
2687.89
2716.45
2790.89
2876.19
2932.84
2924.39
2890.88
2841.6
2834.93
2947.32
2946.12
2929.67
2922.66
2904.39
2911.01
2912.63
2915.53
2901.95
2907.35
2908.01
2890.81
2847.54
2812.62
2789.87
2796.8
2799.8
2813.24
2833.55
2878.9
2915.59
2935.53
2925.95
2901.17
2879.76
2850.13
2785.5
2684.24
2630.28
2631.47
2934.98
2947.19
2932.57
2914.13
2903.45
2900.24
2900.27
2893.17
2881.33
2876.24
2866.01
2856.45
2838.76
2848.5
2842.23
2828.4
2825.41
2832.23
2858.59
2892.69
2892.4
2910.92
2931.96
2926.53
2901.35
2876.91
2857.53
2833.43
2809.9
2806.35
2813.91
2824.27
2856.32
2877.48
2906.38
2927.82
2930.4
2919.06
2861.86
2825.91
2777.2
2745.2
2721.76
2702.12
2713.75
2751.58
2750.47
2805.17
2840.31
2933.51
2925.49
2915.93
2890.15
2887
2877.97
2866.99
2859.45
2868.05
2889.01
2872.43
2853.67
2941.13
2932.94
2906.23
2910.07
2938.57
2965.61
2976.46
2976.7
2969.81
2953.98
2936.16
2905.79
2842.2
2777.28
2777.18
2873.57
2961.4
2975.46
2973.89
2946.14
2966.85
2899.47
2802.61
2746.84
2737.13
2754.86
2788.16
2839.97
2905.85
2855.03
2629.81
2567.24
2560.84
2569.89
2592.38
2629.46
2680.87
2751.21
2836.7
2910.57
2979.09
3017.04
3022.98
3000.02
2937.57
2870.14
2787.7
2726.56
2699.9
2673.21
2646.56
2611.79
2584.73
2640.27
2944.53
2956.17
2817.79
2533.45
2366.56
2920.34
3041.75
3063.97
3068.72
3049.94
3027.04
3011.78
2990.74
2974.28
2962.63
2988.71
3034.2
3042.17
3009.19
2903.16
2765.66
2732.43
2836.45
2878.02
2912.47
2918.13
2920.08
2951.39
2978.13
2914.03
2796.63
2748.97
2786.45
2833.93
2866.36
2891.85
2929.98
2965.19
2987.13
2986.65
2972.05
2943.41
2928.28
2923.66
2922.82
2902.74
2846.19
2775.47
2735.05
2737.52
2714.09
2748.21
2780.52
2856.5
2888.25
2936.63
2942.93
2930.35
2887.39
2857.09
2865.41
2923.33
2754.89
2728.33
2865.97
2936.47
2945.09
2953.98
2963.48
2937.51
2922.39
2898.71
2898.76
2885.47
2880.32
2860.24
2840.05
2826.78
2819.4
2837.82
2886.42
2927.75
2958.03
2945.04
2909.73
2834.63
2812.09
2808
2800.18
2775.74
2761.79
2764.74
2800.9
2888.81
2957.89
2956.01
2894.2
2875.27
2868.18
2855.7
2847.29
2839.92
2832.45
2820.77
2804.34
2795.79
2796.83
2807.88
2822.76
2850.53
2866.12
2875.63
2876.83
2878.03
2884.34
2888.8
2879.84
2861.45
2884.94
2888.56
2874.09
2858.39
2845.69
2841.78
2836.1
2826.03
2802.86
2790.93
2786.95
2786.52
2786.65
2791.65
2791.52
2796.71
2798.71
2800.11
2804.26
2800.24
2800.11
2792.77
2790.85
2796.12
2809.65
2837.66
2853.34
2832.34
2815.4
2810.48
2784.99
2780.9
2754.33
2781.49
2807.66
2839.41
2863.82
2886.01
2885.44
2866.4
2832.44
2830.63
2821.82
2774.4
2723.36
2699.4
2711.43
2753.68
2818.39
2859.39
2864.19
2853.49
2864.83
2860.45
2862.04
2852.52
2834.53
2821.42
2823.54
2826.94
2840.08
2843.13
2811.27
2784.57
2789.24
2787.72
2790.47
2796.29
2808.55
2828.79
2843.67
2839.47
2815.79
2789.41
2801.45
2805.49
2787.38
2778.73
2758.68
2768.27
2771.97
2779.32
2795.65
2802.72
2808.52
2790.97
2750.51
2735.31
2720.86
2765.47
2793.16
2775.71
2753.25
2820.92
2775.09
2782.11
2785.32
2781.06
2778.25
2753.86
2700.8
2671.01
2706.32
2773.61
2832.85
2844.07
2846.44
2823.6
2802.76
2755.55
2727.78
2712.11
2708.1
2712.89
2709.98
2717.89
2733.72
2790.55
2862.36
2931.44
2943.29
2939.9
2897.87
2853.94
2854.09
2924.09
2974.96
2964.53
2947.04
2936.3
2932.01
2913.8
2914.87
2906.15
2909.68
2892.59
2902.15
2897.55
2901.29
2862.64
2820.88
2806.46
2788.53
2808.95
2828.68
2867.75
2897.78
2935.02
2933.98
2932.55
2910.91
2884.19
2830.17
2744.7
2674.27
2670.7
2794.74
2923.61
2924.18
2935.74
2924.26
2906.73
2893.25
2882.46
2878.53
2878.06
2883.34
2872.75
2872.61
2867.25
2839.87
2851.27
2871.77
2866.6
2846.46
2833.63
2846.96
2872.08
2892.25
2888.74
2911.83
2926.73
2923.83
2904.34
2883.09
2859.27
2824.19
2808.52
2792.52
2780.61
2772.06
2801.82
2819.43
2835.45
2860.41
2887.02
2913.15
2926.52
2909.26
2854.46
2818.17
2758.78
2730.06
2693.18
2695.09
2693.41
2731.2
2732.79
2807.68
2834.7
2933.3
2925.81
2922.07
2906.16
2903.49
2895.83
2889.96
2877.71
2879.3
2898.09
2879.2
2834.4
2830.69
2868.99
2940.76
2925.32
2906.12
2917.62
2963.23
2990.46
3012.8
3017.67
2999.01
2967.73
2946.62
2923.66
2871.48
2790.84
2767.63
2852.32
2937.08
2949.26
2952.22
2926.42
2886.5
2837.74
2777.62
2750.78
2756.51
2784.09
2829.95
2904.6
2779.2
2399.88
2451.99
2906.69
2620.54
2569.93
2566.95
2578.13
2605.06
2643.13
2701.8
2773.3
2862.32
2929.75
3001.82
3028.65
3034.14
3009.95
2941.47
2870.71
2792.73
2723.16
2704.29
2677.62
2652.86
2609.45
2581.61
2599.7
2861.27
2933.95
2865.1
2842.1
2976.36
2544.28
2503.89
2910.31
3027.33
3064.12
3066.46
3046.42
3018.05
2986.75
2973.98
2983.76
3009.84
3030.44
3030.97
3004.81
2927.52
2804.19
2770.25
2780.04
2864.05
2882.95
2898.74
2881.24
2905.78
2955.59
2983.31
2902.55
2793.31
2752
2781.31
2827.7
2858.03
2879.03
2912.16
2946.19
2964.58
2968.41
2962.05
2953.35
2939.06
2932.8
2913.18
2883.51
2820.89
2770.5
2737.05
2745.25
2726.57
2747.99
2763.77
2788.33
2828.02
2880.51
2939.33
2945.66
2917.28
2875.37
2876.97
2927.84
2751.25
2740.17
2879.99
2940
2946.78
2962.3
2965.01
2938.37
2923.66
2898.04
2900.84
2871.56
2862.4
2839.6
2828.11
2825.48
2842.46
2880.83
2914.01
2948.36
2963.2
2928.03
2873.04
2834.33
2812.93
2806.66
2802.39
2768.07
2772.82
2779.68
2816.45
2916.94
2954.34
2949.88
2894.9
2878.94
2870.48
2856.41
2845.76
2847.9
2834.68
2827.16
2813.62
2812.64
2824.84
2837.81
2853.07
2860.11
2868.7
2877.16
2884.1
2893.82
2909.74
2903.25
2875.16
2883.67
2891.01
2879.32
2864.92
2850.91
2840.77
2836.99
2833.74
2812.06
2794.5
2789.19
2786.96
2785.46
2787.7
2793.1
2795.91
2796.4
2798.48
2797.08
2799.77
2795.52
2794.26
2791.16
2791.26
2799.93
2818.71
2842.78
2836.61
2821.55
2817.8
2800.84
2773.83
2769.16
2756.45
2783.59
2808.74
2837.31
2861.63
2881.4
2879.47
2856.33
2825.21
2824.93
2832.94
2777.61
2727.61
2698.08
2711.86
2751
2815.28
2857.48
2863.49
2866.18
2849.3
2848.96
2845.42
2840.19
2832.16
2834.23
2833.04
2832.45
2836.27
2835.29
2813.97
2788.89
2784.99
2789.55
2784.67
2783.69
2786.23
2797.8
2824.43
2835.71
2825.72
2811.72
2814.56
2808.2
2791.37
2775.23
2765.08
2774.87
2781.03
2790.84
2792.84
2810.1
2807.88
2806.99
2781.08
2741.87
2735.74
2764.09
2778.76
2767.75
2781.12
2803.33
2781.54
2781.78
2777.56
2773.12
2763.29
2725.28
2666.3
2633.66
2676.77
2757.32
2837.04
2856.22
2862.46
2845.01
2834.13
2801.59
2781.22
2760.7
2750.71
2755.15
2760.17
2785.98
2826.67
2876.57
2934.12
2949.69
2950.85
2923.7
2887.44
2866.28
2908.19
2981.73
2980.8
2962.32
2955.33
2934.95
2933.81
2915.97
2916.07
2897.55
2901.15
2885.42
2891.54
2887.65
2900.4
2904.1
2889.29
2857.55
2862.23
2865.31
2886.16
2909.45
2936.09
2940.12
2941.97
2922.76
2894.32
2847.98
2780.56
2713.2
2688.24
2750.22
2886.19
2935.01
2932.57
2932.38
2915.87
2898.3
2882.48
2864.39
2856.81
2859.73
2860.86
2865.93
2867.36
2861.46
2832.43
2856.15
2859.64
2871.32
2864.98
2859.14
2872.63
2882.31
2886.81
2888.26
2908.74
2920.79
2918.12
2900.88
2874.33
2840.06
2813.45
2803.84
2794.51
2792.15
2792.86