/*--------------------------------*- C++ -*----------------------------------*\
| =========                 |                                                 |
| \\      /  F ield         | OpenFOAM: The Open Source CFD Toolbox           |
|  \\    /   O peration     | Version:  2.1.1                                 |
|   \\  /    A nd           | Web:      www.OpenFOAM.org                      |
|    \\/     M anipulation  |                                                 |
\*---------------------------------------------------------------------------*/
FoamFile
{
    version     2.0;
    format      ascii;
    class       volScalarField;
    location    "0.007900000";
    object      O2;
}
// * * * * * * * * * * * * * * * * * * * * * * * * * * * * * * * * * * * * * //

dimensions      [0 0 0 0 0 0 0];

internalField   nonuniform List<scalar> 
12384
(
0.0154729
0.0171368
0.019071
0.0209909
0.0218262
0.0217832
0.0212246
0.0198097
0.0185596
0.016864
0.0148469
0.0124912
0.0109318
0.00903301
0.0296242
0.0275345
0.0208384
0.0157704
0.0137621
0.0129604
0.0127089
0.0125919
0.012573
0.0128861
0.0134278
0.0141078
0.0149877
0.0160369
0.0171746
0.0181857
0.0193863
0.0201735
0.0207694
0.021241
0.0214196
0.0216702
0.0216358
0.0217968
0.0215977
0.0211526
0.0203416
0.0196149
0.0251252
0.0332547
0.0022505
0.00217005
0.00315915
0.00373731
0.00424999
0.0049961
0.00583827
0.0064067
0.00663135
0.00699302
0.00727653
0.00760801
0.00777378
0.00754216
0.00745382
0.00706716
0.00673761
0.00636004
0.00602102
0.00566082
0.00537858
0.00493073
0.0044981
0.00407661
0.00395098
0.00388219
0.00374911
0.00332562
0.00349346
0.00356444
0.00151259
0.00181486
0.00194538
0.00202263
0.00210998
0.00220601
0.00223543
0.00236529
0.00248444
0.00258201
0.00266228
0.00272068
0.00267857
0.00261866
0.00254557
0.0024603
0.00237882
0.00238503
0.00228158
0.00222903
0.00218523
0.00212262
0.00206064
0.0019856
0.00186428
0.00167659
0.00151477
0.0014704
0.00159268
0.00161789
0.000474186
0.000440796
0.000432849
0.000432974
0.000458636
0.000492862
0.000522796
0.000543248
0.000283661
0.000237612
0.000415582
0.000230839
0.000309348
0.000224546
0.000228177
0.000246759
0.000224885
0.000550017
0.00052599
0.000523012
0.000519181
0.000462049
0.000404023
0.000389438
0.000407649
0.000430208
0.000442964
0.000433832
0.000416738
0.00040849
6.41517e-05
6.23632e-05
5.54692e-05
5.0334e-05
4.49447e-05
4.20246e-05
4.9035e-05
4.87475e-05
4.72637e-05
4.82355e-05
4.81642e-05
5.02489e-05
5.28626e-05
5.60909e-05
4.96274e-05
5.28241e-05
5.53826e-05
5.66473e-05
5.70006e-05
5.66498e-05
5.82036e-05
5.62902e-05
5.92309e-05
5.85854e-05
6.24355e-05
6.35875e-05
6.76369e-05
7.66451e-05
8.69418e-05
9.78781e-05
0.000188324
5.0003e-05
-2.13378e-06
-2.15807e-06
8.45738e-06
2.39693e-05
5.10748e-05
0.000118656
0.000145654
0.000168278
0.000186401
0.000200062
0.000208997
0.000234492
0.000231255
0.000233325
0.000212674
0.000219782
0.000218239
0.000200564
0.000196167
0.00019896
0.000205259
0.000203314
0.000173571
0.000188831
0.00141768
0.00722637
0.00619786
0.00556785
5.10239e-05
1.99343e-05
1.65188e-05
2.03085e-05
2.98977e-05
3.6228e-05
3.99637e-05
4.1384e-05
3.85557e-05
3.97757e-05
3.32195e-05
4.23016e-05
3.63746e-05
3.82402e-05
3.32532e-05
3.36052e-05
3.85858e-05
2.66984e-05
3.10038e-05
2.91071e-05
3.64379e-05
7.34216e-05
7.93245e-05
8.01908e-05
8.17434e-05
8.26335e-05
7.50957e-05
7.26882e-05
7.07871e-05
7.95585e-05
0.000199007
0.000206799
0.000189947
0.000165118
0.000158217
0.000159662
0.000163957
0.000166226
0.000170944
0.000166718
0.000176198
0.000210397
0.00022539
0.000230203
0.000207414
0.000219855
0.000259346
0.000292261
0.000245461
3.6291e-05
1.14801e-05
1.58469e-05
2.04183e-05
2.394e-05
2.91065e-05
3.09269e-05
1.44202e-05
1.87644e-06
2.0141e-05
9.71288e-06
0.000143726
0.000142383
0.000110605
9.60441e-05
2.33881e-05
2.50759e-05
2.64049e-05
3.29822e-05
3.9608e-05
9.7794e-05
9.31957e-05
8.7303e-05
9.3084e-05
8.89031e-05
9.79173e-05
9.53302e-05
0.000123536
0.000139707
0.000124217
0.000163543
5.60515e-05
3.23195e-05
3.14055e-05
3.43847e-05
3.48944e-05
3.46092e-05
3.24872e-05
3.02468e-05
2.76275e-05
2.32044e-05
5.95277e-06
6.13245e-05
6.11455e-05
5.79174e-05
5.9633e-05
6.17619e-05
6.29994e-05
6.35844e-05
6.80877e-05
5.04671e-06
1.17004e-05
1.87413e-05
2.68159e-05
-1.55268e-05
8.9302e-06
6.0805e-05
1.39802e-05
1.18393e-05
1.16825e-05
1.13413e-05
1.11437e-05
4.18292e-06
3.13401e-06
2.32819e-06
1.0757e-05
1.08486e-05
1.03449e-05
1.04829e-05
1.04126e-05
1.06044e-05
1.98326e-05
1.95728e-05
2.10846e-05
1.57544e-05
1.91035e-05
1.80573e-05
1.57677e-05
1.43401e-05
1.29422e-05
1.23961e-05
1.18037e-05
1.18126e-05
1.19093e-05
1.23881e-05
1.23396e-05
1.28936e-05
1.28838e-05
1.30949e-05
1.31155e-05
1.37788e-05
1.41714e-05
1.42476e-05
1.53029e-05
1.45976e-05
1.12865e-05
1.1366e-05
8.52687e-06
9.53932e-06
1.11005e-05
1.4995e-05
2.82198e-06
3.79881e-06
6.41522e-06
7.1889e-06
7.62199e-06
7.36438e-06
3.7264e-06
6.99722e-07
3.7918e-07
3.71987e-07
2.38274e-07
3.25214e-07
3.79183e-07
6.15297e-07
6.55196e-07
7.44652e-07
7.79079e-07
8.71453e-07
5.93119e-07
7.67833e-07
7.59059e-07
1.50979e-07
7.67359e-07
6.68702e-07
3.42742e-07
2.25409e-07
4.30981e-07
4.40504e-07
2.89042e-07
8.33619e-07
0.0192845
0.0237199
0.0275799
0.0287359
0.0280886
0.0267169
0.0255247
0.0244481
0.023476
0.0219353
0.0191397
0.0156736
0.0118899
0.00922322
0.0296454
0.0262313
0.0188339
0.0137174
0.0110046
0.0101084
0.00971987
0.0096835
0.0100323
0.0105737
0.0116262
0.0128248
0.0143479
0.0166578
0.0189919
0.0206681
0.0216217
0.0221589
0.0225723
0.0228671
0.023367
0.0236445
0.0239209
0.0237909
0.0236258
0.0229551
0.0218583
0.0204108
0.0206764
0.0249517
0.00220402
0.00236927
0.00361891
0.00479236
0.00656108
0.00754421
0.00797834
0.00837379
0.00885655
0.00936947
0.00988335
0.00991498
0.00937281
0.00862309
0.00769347
0.00693105
0.00634891
0.00590644
0.00568614
0.00548994
0.0053162
0.00511828
0.00483533
0.00447755
0.00408139
0.00396645
0.00388209
0.00362102
0.00329492
0.00301997
0.00157041
0.00180489
0.00187696
0.00191273
0.0019802
0.00211406
0.00224796
0.00255918
0.00290093
0.00319729
0.00330758
0.00324835
0.00309606
0.00295218
0.00278687
0.00268609
0.00259864
0.00256622
0.00250216
0.0024346
0.00234915
0.00226456
0.00217401
0.00208531
0.00198677
0.00184277
0.00166201
0.0015343
0.00149768
0.00162631
0.000479114
0.000449684
0.000441249
0.000462945
0.000525642
0.00046112
0.000582368
0.000740091
0.000835744
0.000865265
0.000904862
0.000903716
0.000911117
0.000894505
0.000865684
0.00079787
0.000662814
0.000489408
0.000282185
0.000557416
0.000544098
0.000507779
0.000444522
0.000405622
5.30381e-05
0.000689583
0.000871073
0.000615815
0.000124977
0.00043381
6.53517e-05
6.0679e-05
5.17224e-05
4.39547e-05
4.80985e-05
4.51595e-05
4.36623e-05
4.36779e-05
4.39928e-05
4.49041e-05
4.67836e-05
5.19601e-05
6.14579e-05
6.38085e-05
7.37857e-05
8.12619e-05
8.5832e-05
7.98528e-05
8.11337e-05
8.1722e-05
7.95346e-05
7.92897e-05
7.21816e-05
7.69094e-05
7.26501e-05
6.83232e-05
6.85377e-05
7.15062e-05
8.14389e-05
8.81756e-05
0.00017609
4.84301e-06
6.65896e-05
6.77538e-05
-1.38759e-05
2.75583e-05
0.000125594
0.000172609
0.000215991
0.000265176
0.000279143
0.000286395
-7.32271e-05
-7.13437e-05
-0.000109226
0.000269613
0.000262149
0.000251946
0.000257781
0.000253588
0.000252746
0.000247575
0.000231167
0.000222015
0.000210261
0.000182504
0.000275482
0.00198166
0.0059342
0.00553227
5.32088e-05
2.0284e-05
1.71828e-05
3.07748e-05
4.33006e-05
4.73765e-05
4.86849e-05
4.59716e-05
4.46113e-05
3.86335e-05
4.0916e-05
3.7679e-05
3.59912e-05
2.95818e-05
3.03306e-05
3.09326e-05
3.22384e-05
3.54903e-05
3.84136e-05
2.67239e-05
3.10721e-05
4.87066e-05
7.87036e-05
8.81773e-05
1.6694e-05
2.04459e-05
8.69052e-05
8.22659e-05
7.24279e-05
6.60832e-05
0.000184513
0.000179568
0.000129148
0.000105511
0.000120586
0.000153998
0.000192091
0.000228355
0.000297109
0.000315062
0.000330759
0.000339575
0.000339533
0.000336453
0.000324335
0.000307186
0.000296049
0.000277565
0.000292462
3.85714e-05
3.64025e-05
6.09265e-06
1.22167e-05
2.5412e-05
3.92234e-05
4.92773e-05
5.27324e-05
3.91136e-05
1.07222e-05
1.41148e-05
0.0001397
0.000148027
0.000116187
1.57032e-05
8.57433e-06
1.459e-05
3.81405e-05
0.000127563
0.000160562
0.000179706
0.000226938
0.000239809
0.000236858
0.000232019
0.000222717
0.000217315
0.000197001
0.000146722
0.000155116
0.000182101
9.91509e-05
6.28167e-05
3.70251e-05
3.71725e-05
4.25141e-05
4.35434e-05
3.72401e-05
3.25711e-05
2.96312e-05
2.41752e-05
1.45989e-05
6.12548e-05
5.86708e-05
5.82276e-05
5.43877e-05
6.08972e-05
6.2525e-05
-6.39961e-06
1.87995e-05
8.54269e-05
0.000102359
0.000113015
7.43739e-05
6.58887e-05
1.66773e-05
3.27702e-06
4.31997e-05
1.03957e-05
1.29112e-05
1.30231e-05
2.29488e-06
4.2769e-06
1.50077e-06
1.00729e-05
1.00109e-05
9.6676e-06
9.46624e-06
9.75134e-06
1.02125e-05
1.06225e-05
1.9582e-05
1.40634e-05
1.63896e-05
1.85652e-05
1.84108e-05
1.66556e-05
1.55361e-05
1.51247e-05
1.56631e-05
1.68004e-05
9.63826e-06
1.12869e-05
1.21284e-05
1.2715e-05
1.23733e-05
1.14054e-05
1.84246e-05
1.75657e-05
1.65726e-05
1.72833e-05
1.83375e-05
2.25017e-05
2.49387e-05
2.87175e-05
3.26435e-05
2.54044e-05
2.38546e-05
1.24746e-05
1.17311e-05
1.48844e-05
1.85018e-06
2.24235e-06
7.48919e-06
4.49518e-07
-1.19961e-06
6.23018e-06
1.446e-06
3.57562e-07
3.89649e-07
2.97516e-07
4.4839e-07
5.74581e-07
7.05556e-07
7.84736e-07
8.42617e-07
9.36918e-07
3.41744e-07
6.20534e-07
1.25239e-06
1.49599e-06
1.58102e-06
1.63509e-06
1.48578e-06
1.16712e-06
8.94301e-07
5.64141e-07
3.27211e-07
2.36121e-07
3.4685e-07
8.72035e-07
0.0262696
0.0310786
0.0315001
0.0290916
0.0254833
0.022584
0.0204824
0.0190864
0.0188762
0.019248
0.0191777
0.0178396
0.0134844
0.00958315
0.0296874
0.0255815
0.017274
0.0119693
0.00978101
0.00913363
0.00931721
0.0100574
0.0111741
0.0127333
0.0134243
0.0139721
0.0153173
0.0179954
0.0202831
0.0211982
0.0212028
0.02119
0.0212525
0.0213432
0.0215677
0.0220076
0.0227088
0.0234027
0.0240007
0.0240767
0.0235001
0.0219583
0.0203355
0.0220906
0.00216576
0.00249521
0.00389631
0.0050987
0.00570107
0.00557367
0.00597042
0.00722612
0.0087487
0.00992458
0.0104285
0.0091512
0.00733884
0.00573486
0.00483529
0.00416451
0.0041459
0.00404101
0.00403592
0.00403045
0.00406966
0.00409577
0.00419355
0.00420459
0.00409015
0.00400002
0.00394176
0.00381147
0.00351616
0.00309189
0.00158055
0.00173532
0.00170048
0.00162933
0.00163456
0.00171662
0.00191632
0.00220497
0.00278112
0.00328838
0.00341336
0.00319714
0.00289462
0.00276362
0.00274921
0.00283993
0.00285765
0.0029071
0.00291204
0.00281325
0.00266553
0.00250616
0.00234395
0.00220842
0.0020985
0.00198352
0.00183038
0.00167271
0.00155956
0.00156075
0.00049189
0.000470031
0.000467744
0.000209363
0.000652648
0.000765447
0.000892424
0.000994611
0.000983455
0.00121157
0.00119782
0.0013701
0.00147306
0.00147038
0.0014746
0.00140488
0.00126876
0.00104852
0.000775681
0.000456518
0.000165218
0.00054689
0.000516679
0.000447495
0.00045413
0.000889206
0.00112262
0.000999541
0.000267014
0.000436172
6.47147e-05
5.83855e-05
4.8026e-05
4.01722e-05
3.49325e-05
3.54652e-05
4.72855e-05
4.92704e-05
4.81435e-05
4.82687e-05
5.18784e-05
6.29559e-05
7.06149e-05
8.50101e-05
8.63852e-05
9.13105e-05
9.38475e-05
9.60542e-05
9.7836e-05
9.83756e-05
9.09203e-05
9.01589e-05
8.85589e-05
9.08982e-05
8.27173e-05
7.13748e-05
7.28408e-05
7.20714e-05
7.67995e-05
8.10931e-05
0.000157617
6.79452e-05
5.80311e-05
6.27464e-05
-2.90988e-05
2.15791e-05
0.000123753
0.000174605
0.000246379
0.000275698
-6.26168e-05
-2.57764e-05
-5.10507e-05
-0.000105769
0.00027294
0.000270921
0.000249458
0.000248506
0.000236036
0.000235325
0.000233368
0.0002411
0.000242111
0.000239497
0.000228751
0.000210905
0.000227654
0.000309199
0.00235215
0.00552102
5.78318e-05
2.25026e-05
1.89187e-05
4.17882e-05
4.49128e-05
4.6602e-05
4.55208e-05
4.28081e-05
3.78223e-05
3.8983e-05
3.1112e-05
3.00119e-05
2.07447e-05
2.03796e-05
1.622e-05
1.72493e-05
2.36798e-05
2.80929e-05
3.22501e-05
3.69117e-05
2.46264e-05
3.59256e-05
5.86675e-05
8.73604e-05
4.19124e-05
4.43812e-05
4.28299e-05
3.81938e-05
8.47373e-05
6.76518e-05
0.000164304
0.00011041
6.64557e-05
8.92107e-05
0.000147483
0.000210155
0.000308704
0.000367264
0.000416741
0.000425585
0.000748456
0.000941625
0.00100515
0.000890836
0.000652718
0.000233798
0.000383371
0.00033757
0.000302075
0.000237541
8.07773e-05
1.44561e-05
2.29995e-05
2.1007e-05
4.58488e-05
6.18978e-05
6.69714e-05
6.3316e-05
4.06607e-05
2.08373e-05
0.000129717
0.000147534
9.8574e-05
1.42742e-06
8.92134e-05
4.02211e-05
0.000141601
0.000193376
0.000262752
0.000296957
0.000104692
0.00050115
0.000645994
0.00066508
0.000550687
0.000292236
0.00029488
0.00025621
0.000217863
0.000179472
0.000175304
8.96998e-05
6.34652e-05
4.16479e-05
4.47156e-05
5.08933e-05
4.35502e-05
3.37209e-05
2.97937e-05
2.4871e-05
2.7736e-05
6.14346e-05
5.82036e-05
4.98592e-05
5.51825e-05
5.63429e-05
-2.1733e-05
7.9778e-05
0.000131547
0.000176233
0.000204412
0.000213993
0.000206061
0.000184157
0.000115822
9.05034e-05
-2.86642e-05
4.44202e-05
1.53863e-05
1.69916e-05
1.31493e-05
1.93602e-06
1.56576e-06
9.77187e-06
9.72487e-06
9.43694e-06
9.23969e-06
9.64771e-06
1.00747e-05
9.55603e-06
1.5644e-05
1.77954e-05
1.85627e-05
1.90535e-05
1.77862e-05
1.74268e-05
1.83595e-05
1.27471e-05
1.64403e-05
2.06181e-05
1.46664e-05
1.72706e-05
1.84162e-05
1.85028e-05
1.71283e-05
1.41619e-05
1.97755e-05
1.56439e-05
1.94551e-05
1.7534e-05
1.78624e-05
2.29861e-05
2.91069e-05
3.88574e-05
3.24454e-06
-3.77875e-05
3.53994e-05
2.56229e-05
1.95107e-05
1.4135e-05
1.29688e-06
3.95713e-06
1.54697e-06
8.30509e-06
4.69386e-06
7.285e-07
5.66093e-07
4.00643e-07
3.3015e-07
4.9991e-07
4.89133e-07
6.69585e-07
7.61542e-07
8.31694e-07
6.88117e-07
7.98599e-07
7.51753e-07
9.73434e-07
1.01168e-06
8.57541e-07
1.54839e-06
1.76747e-06
1.73327e-06
1.33708e-06
1.17644e-06
4.38655e-07
4.91216e-07
3.32533e-07
5.01764e-07
9.13293e-07
0.0334589
0.0327471
0.0283613
0.0229945
0.018459
0.0161463
0.0149389
0.0143942
0.0140472
0.0144894
0.016193
0.017222
0.0147291
0.00999386
0.0298252
0.0257616
0.0171353
0.0112153
0.00951845
0.00933269
0.0102922
0.0127543
0.0159546
0.0178285
0.017133
0.0159031
0.0169854
0.0196424
0.0206993
0.0206536
0.0207297
0.0209994
0.0212484
0.0213393
0.0211814
0.0210499
0.0211657
0.021937
0.0230644
0.0240034
0.0243217
0.0233615
0.02122
0.0213066
0.00212631
0.002468
0.00372489
0.00405504
0.00355702
0.00320952
0.00401148
0.00674886
0.00952289
0.0110352
0.00920905
0.00634694
0.00440855
0.00398458
0.00404787
0.00416741
0.00465939
0.00492408
0.00491685
0.00478026
0.00447465
0.00415659
0.00405838
0.00402419
0.00400919
0.00397497
0.00394565
0.0039273
0.00370622
0.00321798
0.00155749
0.00163814
0.00153361
0.00145224
0.00145905
0.00151933
0.00163874
0.00193072
0.00256094
0.0032541
0.00333601
0.00284359
0.00266969
0.00279636
0.00292626
0.00311135
0.00336077
0.00356011
0.00364619
0.00359018
0.00342044
0.00314143
0.0028113
0.00246529
0.00226655
0.00211651
0.00197626
0.00181094
0.00166808
0.00160784
0.000497805
0.0004884
0.000506989
0.000687119
0.000793276
0.000888209
0.000858304
0.00108328
0.0013395
0.00162981
0.00191262
0.00211474
0.00224219
0.00227847
0.00221183
0.00205844
0.00190767
0.00164487
0.00130523
0.00090621
0.000499705
0.000184767
0.000542792
0.000488113
0.000453414
0.000523624
0.00087012
0.000939795
0.000426326
0.000366327
6.38952e-05
5.71388e-05
4.69521e-05
3.96196e-05
3.6033e-05
3.76678e-05
3.93469e-05
5.20478e-05
5.18329e-05
5.1227e-05
5.59948e-05
6.45082e-05
8.50991e-05
9.36396e-05
9.6326e-05
9.12125e-05
9.46608e-05
9.84609e-05
9.28744e-05
9.79108e-05
9.84803e-05
8.7658e-05
0.000100691
9.90764e-05
9.17756e-05
8.74616e-05
7.44037e-05
6.63984e-05
7.54693e-05
7.91513e-05
0.000141276
6.01542e-05
5.00537e-05
5.64483e-05
6.52621e-05
-1.25917e-06
9.34203e-05
0.000142983
0.000196648
0.000261857
0.000280941
-8.18707e-05
0.000283571
0.000278756
0.00026645
0.000258246
0.000238809
0.000216295
0.000219899
0.000196652
0.000196915
0.00022866
0.000239725
0.000242223
0.000243177
0.00022124
0.000218784
0.000257958
0.00134979
0.00383449
6.28544e-05
2.30911e-05
3.0871e-05
3.85452e-05
3.97399e-05
4.29326e-05
4.31093e-05
3.68201e-05
2.78536e-05
2.85061e-05
2.40651e-05
1.84826e-05
8.88365e-06
5.85249e-06
5.86639e-06
9.2057e-06
1.15771e-05
1.84924e-05
2.49898e-05
3.11845e-05
2.16616e-05
2.74328e-05
4.60325e-05
7.8909e-05
2.72532e-05
4.0715e-05
3.24635e-05
4.95283e-05
-1.65954e-05
7.49368e-05
0.000122372
2.02379e-05
4.52544e-05
0.000118399
0.000185154
0.00029199
0.000368412
0.000272931
0.000974398
0.00157521
0.00199202
0.00222035
0.00235833
0.00231775
0.00199841
0.00153213
0.000864685
6.62499e-05
0.000364334
0.000311933
0.000111565
4.47576e-05
2.11126e-05
9.35969e-06
4.68436e-05
7.07672e-05
7.90899e-05
7.78445e-05
6.46618e-05
1.15307e-05
0.000120466
0.000135989
2.20556e-05
8.54507e-05
1.62826e-05
0.000119886
0.000185713
0.000267982
-3.41758e-05
0.000550301
0.0011115
0.00144529
0.00166945
0.00174476
0.0016507
0.00141286
0.000993678
0.00044784
0.000287311
0.000240031
0.000200698
0.000175601
6.86249e-05
5.90588e-05
4.55373e-05
5.07599e-05
4.62307e-05
3.50501e-05
2.8561e-05
2.54076e-05
2.68387e-05
6.31938e-05
5.08581e-05
4.51421e-05
5.09309e-05
5.51846e-05
7.33275e-05
0.000169445
0.000259502
0.000445345
0.000832015
0.000878409
0.000628669
0.000115048
0.000240303
0.000151797
0.000100902
1.4251e-05
4.79111e-05
3.55986e-05
3.54261e-05
1.0279e-05
1.10584e-05
9.82968e-06
8.83853e-06
9.00627e-06
9.94553e-06
1.00502e-05
1.02966e-05
9.68978e-06
1.71693e-05
1.92761e-05
1.96857e-05
1.92244e-05
1.92331e-05
1.26888e-05
1.68036e-05
1.26396e-05
1.96502e-05
1.43446e-05
1.89074e-05
9.34002e-06
1.20133e-05
1.15162e-05
8.00314e-06
1.66401e-05
2.1305e-05
1.32671e-05
1.52852e-05
1.83648e-05
1.47003e-05
2.06697e-05
3.0486e-05
-2.42138e-05
2.1961e-05
6.66835e-05
1.30482e-05
3.08861e-05
2.08173e-05
1.40759e-05
4.68121e-07
4.8821e-06
6.26965e-06
3.11298e-06
1.94238e-06
6.5603e-07
2.76565e-07
1.0547e-07
3.00892e-07
5.53917e-07
5.57417e-07
7.62325e-07
9.65715e-07
1.07834e-06
9.60551e-07
9.17919e-07
8.62355e-07
8.53804e-07
9.61024e-07
8.65156e-07
1.07098e-06
1.28454e-06
1.82845e-06
1.40876e-06
8.56546e-07
8.82563e-07
9.89237e-07
6.61217e-07
8.98587e-07
5.10589e-07
0.0338556
0.0284963
0.0214135
0.0161191
0.0128455
0.0116335
0.0116506
0.0124494
0.0126962
0.0122377
0.0132605
0.0155494
0.0148502
0.0103312
0.0299208
0.0265977
0.0182079
0.0121872
0.0100064
0.0102065
0.0123995
0.0173138
0.0229433
0.0247489
0.0211166
0.0172414
0.0185135
0.0201725
0.020392
0.0209491
0.0218767
0.0226779
0.0231249
0.0232022
0.0229577
0.0223008
0.0214162
0.0211236
0.02185
0.0233159
0.0244271
0.0241318
0.0220509
0.0211198
0.00207309
0.0023059
0.00319364
0.00287316
0.00185641
0.00178127
0.00372315
0.00816603
0.0116125
0.0107174
0.00647482
0.00399212
0.00391335
0.00416494
0.0054417
0.00643581
0.00711165
0.00742143
0.00742525
0.0071502
0.00654903
0.00573065
0.00488311
0.00416921
0.00401363
0.00395027
0.00391277
0.00395604
0.00383362
0.00331328
0.00151718
0.00154252
0.00140197
0.00137417
0.00146937
0.00149941
0.00151892
0.00172536
0.00240392
0.00323673
0.00320258
0.00259615
0.00266961
0.00280328
0.00305374
0.00346215
0.00399264
0.00486254
0.00532877
0.0053841
0.00496641
0.00401304
0.00340965
0.00295276
0.00258675
0.00228481
0.00210025
0.00194392
0.00178074
0.00166734
0.000480483
0.000506998
0.000613058
0.000810655
0.000818535
0.000775097
0.000995876
0.00137194
0.00174004
0.00217192
0.00254317
0.00278528
0.00301056
0.00308504
0.00307946
0.00288344
0.00259148
0.00219708
0.00175912
0.00137626
0.000863293
0.000435341
0.000578078
0.000535652
0.000457695
0.000182371
0.000458569
0.000661452
0.000345687
0.000255698
6.28566e-05
5.65789e-05
4.73888e-05
2.64405e-05
2.20622e-05
2.33928e-05
3.90234e-05
4.28059e-05
5.3193e-05
5.30493e-05
6.05741e-05
7.44015e-05
9.12673e-05
9.2808e-05
9.27161e-05
8.94603e-05
9.55973e-05
9.2702e-05
8.7632e-05
9.24916e-05
9.80637e-05
8.29786e-05
8.58627e-05
9.74384e-05
9.32629e-05
9.25856e-05
8.67913e-05
7.29447e-05
6.78974e-05
7.79579e-05
0.000130343
5.36079e-05
4.06968e-05
4.70253e-05
5.97961e-05
7.10895e-05
1.46044e-05
0.000106823
0.000153314
0.000231626
0.00026876
0.000280443
0.000279284
0.000273787
0.00025901
0.000245628
0.000212642
0.000196041
0.000181163
0.000184464
0.000180018
0.000192212
0.000203036
0.000219112
0.00024427
0.000231907
0.000217935
0.000238844
0.000547027
0.00262092
6.35211e-05
1.64101e-05
3.63334e-05
1.17749e-05
3.52798e-05
4.24474e-05
3.89134e-05
3.15778e-05
3.17928e-05
2.0054e-05
1.7398e-05
2.46233e-05
2.28573e-05
2.27334e-05
2.24568e-05
2.20142e-05
2.36879e-05
9.46989e-06
1.58213e-05
2.57127e-05
3.0632e-05
2.21311e-05
3.58415e-05
5.84284e-05
8.49132e-05
1.71405e-05
8.71474e-06
3.8224e-05
3.67344e-06
8.37297e-05
9.41165e-05
9.5831e-05
6.95037e-05
0.000185097
0.000233801
0.000312116
0.000412958
0.000960625
0.00179991
0.00244472
0.00293056
0.00323684
0.00340008
0.00331851
0.00308686
0.0026283
0.00193187
0.000997152
8.52094e-05
0.000377448
0.000235587
7.27234e-05
3.00614e-06
2.20695e-05
3.65721e-05
7.43221e-05
8.59957e-05
-7.29289e-06
7.62381e-05
2.76224e-05
0.000126874
9.96353e-05
8.72071e-05
8.91056e-05
3.11891e-05
0.000134805
0.00023671
0.000305633
0.000538832
0.00128376
0.00179296
0.00219217
0.00248838
0.00258779
0.00257238
0.00234019
0.00192218
0.00133304
0.000501326
0.000290364
0.000251479
0.000209494
0.000161312
6.35918e-06
5.27317e-05
5.01773e-05
4.51091e-05
3.27159e-05
2.62978e-05
2.419e-05
1.78218e-05
5.48826e-05
4.60109e-05
4.86258e-05
4.77972e-05
3.37539e-05
0.000156497
0.000100355
0.00137157
0.00222505
0.00266596
0.00267002
0.00229729
0.00163473
0.000736384
0.000263856
0.000165714
9.4625e-05
1.58207e-06
5.66916e-05
4.65318e-05
1.54661e-05
1.0947e-05
9.15901e-06
9.20498e-06
9.90408e-06
9.54373e-06
9.67331e-06
9.7019e-06
9.70369e-06
1.77503e-05
2.01707e-05
2.04374e-05
2.04396e-05
1.42384e-05
1.90336e-05
1.62052e-05
1.3485e-05
8.52868e-06
1.59899e-05
7.58527e-06
1.58567e-05
2.1326e-06
1.82101e-05
1.1293e-05
1.73461e-05
6.83683e-06
1.09914e-05
1.29595e-05
2.04907e-05
1.38654e-05
1.76197e-05
2.92583e-05
-1.25589e-06
7.46699e-05
6.63408e-05
3.37341e-05
3.27038e-05
2.13018e-05
2.00125e-05
5.49e-07
3.83376e-06
3.23376e-06
9.87783e-07
8.456e-07
3.78468e-07
4.04932e-07
2.65937e-07
5.45556e-07
6.38939e-07
9.81373e-07
1.12248e-06
1.44421e-06
8.09286e-07
1.13174e-06
1.76306e-06
1.56862e-06
1.2899e-06
1.00793e-06
8.35264e-07
9.33688e-07
1.07242e-06
1.52023e-06
1.89772e-06
6.7753e-07
8.29929e-07
1.56782e-06
9.11136e-07
8.90809e-07
6.31946e-07
0.0286247
0.021955
0.0151718
0.0111845
0.00988755
0.00977091
0.0101746
0.0112209
0.0124222
0.0119705
0.0119478
0.0140739
0.0144598
0.0103197
0.0300541
0.0280213
0.0210327
0.0146469
0.0116196
0.0119307
0.0159117
0.0233079
0.030242
0.0303496
0.023016
0.0178203
0.0194101
0.0200456
0.0208001
0.0224748
0.0237591
0.0240307
0.0237611
0.0235188
0.0235793
0.0234122
0.0224392
0.0213346
0.0212332
0.022696
0.024298
0.0245178
0.0225668
0.021076
0.00203831
0.00204966
0.00256928
0.0017865
0.000715149
0.00140065
0.00456807
0.0111084
0.0124819
0.00799619
0.00397937
0.0037755
0.00443765
0.00622753
0.00758643
0.00822269
0.00861018
0.00876911
0.0087261
0.00861189
0.00822313
0.0074458
0.00634376
0.00517824
0.00426954
0.00398534
0.0039082
0.00395092
0.00390256
0.00338637
0.00147989
0.00145328
0.00130255
0.00138113
0.00157189
0.00157769
0.00146628
0.001537
0.00224894
0.00327416
0.00296427
0.00253771
0.00253627
0.00269089
0.003156
0.00374396
0.00516185
0.00617915
0.00672667
0.00683461
0.00652949
0.00575402
0.00443933
0.00343854
0.00292157
0.00248004
0.00223834
0.00205868
0.00187646
0.001721
0.000492164
0.000527614
0.000890274
0.000805119
0.000804942
0.000830691
0.00114115
0.00158072
0.00201015
0.00260353
0.00298618
0.00323381
0.00339203
0.00346934
0.00348242
0.00343873
0.00322159
0.00279672
0.00230741
0.00170863
0.00121281
0.000705595
0.000330047
0.000556119
0.000500594
0.000491668
0.000119153
0.0003289
0.000261018
0.000138606
6.17908e-05
5.69842e-05
3.51069e-05
2.87116e-05
2.50844e-05
2.47947e-05
2.39396e-05
4.36218e-05
5.45481e-05
5.43588e-05
6.46118e-05
8.18013e-05
9.16038e-05
8.89788e-05
9.02179e-05
8.95771e-05
8.82022e-05
8.72188e-05
9.79494e-05
9.04132e-05
9.14077e-05
9.31454e-05
9.59224e-05
8.94736e-05
0.000103951
9.25876e-05
8.62051e-05
8.01786e-05
7.0248e-05
7.85754e-05
0.00012592
4.81618e-05
2.98089e-05
3.49356e-05
4.87738e-05
6.47042e-05
7.56604e-05
2.19486e-05
0.000105065
0.000164221
0.000246473
0.000274382
0.000276586
0.000266438
0.000251103
0.00022309
0.000196864
0.000182523
0.000138402
0.000128009
0.00012742
0.000148976
0.000187523
0.000217383
0.000238685
0.000239401
0.000220929
0.000233051
0.000210081
0.00244665
6.25047e-05
2.99957e-05
2.82646e-05
3.0136e-05
3.29729e-05
4.2173e-05
3.62856e-05
2.5252e-05
2.3496e-05
1.52172e-05
2.59264e-05
2.21163e-05
2.07871e-05
1.99063e-05
1.91058e-05
2.07685e-05
2.13677e-05
2.33704e-05
8.58622e-06
1.95087e-05
2.70288e-05
3.17535e-05
2.84905e-05
4.81267e-05
7.43283e-05
8.18212e-05
8.21871e-05
1.75052e-05
-8.4857e-07
8.87873e-05
8.071e-05
-2.5782e-05
0.000132006
0.000178383
0.000227617
0.000321906
0.000351049
0.00147499
0.00231932
0.00304043
0.0039969
0.00518473
0.00569636
0.00573076
0.00499168
0.00358527
0.002782
0.0018121
0.000707232
0.000402585
0.000302559
3.22347e-05
1.8093e-05
2.20884e-05
2.81202e-05
7.44285e-05
9.10584e-05
1.36665e-05
8.26214e-05
2.7922e-05
0.000121709
2.53726e-05
9.03252e-05
8.98674e-05
3.41501e-05
0.000156606
0.000262083
0.000138875
0.00104038
0.00174663
0.00236495
0.00277349
0.00348529
0.00387765
0.00371352
0.00315747
0.00262928
0.00202501
0.00130847
0.000296832
0.00028369
0.000227962
0.000205485
8.2413e-05
6.08733e-05
5.09602e-05
4.23864e-05
2.84487e-05
2.35068e-05
2.46932e-05
5.41166e-05
4.60044e-05
4.36955e-05
4.5208e-05
5.33067e-05
8.45638e-05
0.000252027
0.00139062
0.00271947
0.00565748
0.00743976
0.00760799
0.00627094
0.0034066
0.00198229
0.000718765
0.000257952
0.000151171
6.97438e-05
1.24241e-05
5.61141e-05
1.52423e-05
1.02502e-05
9.51125e-06
9.60662e-06
9.65829e-06
9.78329e-06
9.57791e-06
9.45117e-06
9.19771e-06
1.79277e-05
2.05827e-05
2.13429e-05
1.48056e-05
1.86685e-05
1.58224e-05
1.41688e-05
1.12549e-05
5.64954e-06
1.16626e-06
2.01064e-05
1.2469e-05
1.4277e-05
2.70555e-05
1.3921e-05
1.4808e-05
1.60846e-05
4.82707e-06
1.90962e-05
1.73693e-05
1.48392e-05
1.28734e-05
2.6262e-05
-1.34633e-05
6.0292e-05
5.31881e-05
1.78021e-05
3.16063e-05
2.13688e-05
2.04479e-05
6.69223e-07
3.25227e-06
9.7352e-07
8.71453e-07
6.335e-07
1.12573e-07
4.41777e-07
4.62758e-07
5.87527e-07
1.01618e-06
1.3191e-06
1.36593e-06
2.79806e-06
3.72674e-06
4.02238e-06
3.2353e-06
2.50368e-06
1.85647e-06
1.46139e-06
1.1291e-06
1.03197e-06
9.20592e-07
5.52713e-07
1.42741e-06
1.761e-06
5.53822e-07
8.68956e-07
1.39162e-06
7.49549e-07
8.54945e-07
0.0243521
0.016714
0.0108743
0.00916153
0.00931227
0.00978477
0.0100616
0.0107182
0.0119245
0.0120037
0.011519
0.0129675
0.0137109
0.0101262
0.0300641
0.029261
0.0242896
0.0185158
0.0159737
0.0167361
0.0216955
0.0301326
0.0355235
0.0331335
0.0229082
0.0181153
0.0196955
0.0201157
0.0219934
0.0241575
0.0245637
0.0237291
0.0228283
0.0224033
0.0227581
0.0232878
0.022992
0.0217718
0.0211102
0.0223869
0.0243062
0.0247707
0.0225934
0.020973
0.00199626
0.00174078
0.0018605
0.000905368
0.000361729
0.00232288
0.00808817
0.0138071
0.0110545
0.00489914
0.00361561
0.00419642
0.00626287
0.00761384
0.0085085
0.00879684
0.00892596
0.00886301
0.0088668
0.00887154
0.00879363
0.00843233
0.0075028
0.00620777
0.00493673
0.00407189
0.00393137
0.00393561
0.00395185
0.00345009
0.00143912
0.00139723
0.00124487
0.00140469
0.00158717
0.00161572
0.00150721
0.00139525
0.00213294
0.0032895
0.00281644
0.00238496
0.00231122
0.00256919
0.00321592
0.00426717
0.00596398
0.00698423
0.00746261
0.00759924
0.00742242
0.0068371
0.00569212
0.00400074
0.00323807
0.00270241
0.00237652
0.00215707
0.00195855
0.00176672
0.000495262
0.000448582
0.000916323
0.000786635
0.000804995
0.000841766
0.00116697
0.00164592
0.00216048
0.00283638
0.00313203
0.00345515
0.0036504
0.00368042
0.00371594
0.00365991
0.00357316
0.00322144
0.00275116
0.00209065
0.00141107
0.000939013
0.000508212
0.000191034
0.000532027
0.000487744
0.000104444
0.000467343
0.000172017
1.72751e-05
6.09637e-05
5.77395e-05
3.67111e-05
3.06844e-05
2.65714e-05
2.5633e-05
2.58166e-05
4.53362e-05
5.58127e-05
5.69333e-05
6.84566e-05
8.51258e-05
8.95842e-05
9.17932e-05
8.8383e-05
9.02852e-05
9.16371e-05
9.02909e-05
8.82609e-05
7.83805e-05
8.57135e-05
8.21372e-05
8.79531e-05
9.565e-05
9.73497e-05
9.95065e-05
9.40203e-05
8.47358e-05
7.28041e-05
8.01152e-05
0.000129703
4.52062e-05
7.14875e-06
5.25936e-06
1.87015e-05
4.36753e-05
6.29476e-05
7.23879e-05
2.25505e-05
0.000121794
0.000219014
0.000267954
0.000271109
0.000259134
0.000254859
0.000212777
0.000191773
0.000149764
0.000130744
0.000127695
0.00012032
0.000144725
0.00018202
0.000215068
0.000233856
0.000243834
0.000221132
0.000233715
0.000140343
0.00246184
5.97257e-05
3.05903e-05
2.83585e-05
2.71059e-05
3.13811e-05
4.22277e-05
3.38297e-05
3.33095e-05
1.95684e-05
1.27936e-05
2.39582e-05
2.04637e-05
1.85811e-05
1.93207e-05
1.86042e-05
1.92134e-05
1.88263e-05
2.19795e-05
2.38324e-05
1.39041e-05
2.32735e-05
2.9445e-05
2.3306e-05
3.90777e-05
6.47449e-05
7.18013e-05
7.63027e-05
8.99681e-05
-1.17513e-05
9.08349e-05
7.61037e-05
-2.23314e-05
6.45682e-05
0.000152277
0.000202898
0.000321289
0.000535142
0.00169782
0.00257838
0.00335903
0.00534726
0.00669526
0.00725056
0.00718248
0.00660852
0.00542691
0.00335413
0.00241579
0.00121844
0.000268328
0.000357935
0.000119243
3.72168e-05
3.52698e-06
3.33313e-05
7.81332e-05
2.37339e-05
2.21061e-05
8.62098e-05
4.84618e-05
0.000105617
9.04041e-05
9.1766e-05
8.59416e-05
3.48976e-05
0.000202727
0.000268974
0.000459963
0.00129915
0.0020753
0.00266928
0.00375833
0.0044833
0.00472158
0.00470236
0.00423799
0.00330271
0.00250067
0.0017875
0.000917619
0.000317992
0.000272009
0.000224842
0.000121545
6.55873e-05
5.24462e-05
3.72848e-05
2.11869e-05
1.82734e-05
2.07467e-05
3.33319e-05
2.85505e-05
4.83274e-05
4.28506e-05
5.41095e-05
0.000134098
0.000494121
0.00219069
0.00513648
0.00851061
0.0114862
0.0120114
0.010466
0.00723995
0.00316604
0.00163136
0.000222032
0.000197674
0.000110521
5.81432e-05