/*--------------------------------*- C++ -*----------------------------------*\
| =========                 |                                                 |
| \\      /  F ield         | OpenFOAM: The Open Source CFD Toolbox           |
|  \\    /   O peration     | Version:  2.1.1                                 |
|   \\  /    A nd           | Web:      www.OpenFOAM.org                      |
|    \\/     M anipulation  |                                                 |
\*---------------------------------------------------------------------------*/
FoamFile
{
    version     2.0;
    format      ascii;
    class       volScalarField;
    location    "0.007900000";
    object      OH;
}
// * * * * * * * * * * * * * * * * * * * * * * * * * * * * * * * * * * * * * //

dimensions      [0 0 0 0 0 0 0];

internalField   nonuniform List<scalar> 
12384
(
0.0103342
0.0101128
0.00985746
0.00959971
0.00941507
0.009299
0.00931921
0.00933911
0.00943892
0.00953122
0.00972936
0.00984879
0.0100495
0.0102348
0.00558777
0.0059436
0.00643219
0.00678673
0.0067831
0.0066926
0.00662709
0.00659246
0.00654692
0.00652305
0.00648864
0.00647612
0.00645555
0.0064332
0.00640904
0.00638887
0.00635418
0.00630904
0.00628192
0.00626081
0.00628981
0.00628005
0.00635229
0.00635945
0.00643777
0.00650497
0.00649818
0.00627152
0.00560197
0.00483928
0.00381991
0.00379439
0.00429581
0.0046049
0.00488865
0.0051369
0.00529347
0.00535392
0.0054065
0.0054048
0.00544543
0.0054231
0.00543328
0.00532057
0.0052943
0.00515455
0.00510299
0.0049852
0.00493521
0.00484041
0.00480541
0.00474304
0.00469247
0.00457636
0.00452766
0.00450925
0.0044593
0.00423911
0.00429823
0.00433847
0.00324624
0.00339185
0.00345057
0.00349262
0.00354184
0.00359767
0.00363596
0.00371048
0.00378042
0.00383675
0.0038838
0.00392075
0.00389926
0.00386604
0.00381851
0.00375612
0.00370204
0.00368107
0.00359638
0.00356047
0.00353484
0.00349751
0.00346307
0.00342344
0.00335792
0.00326177
0.00318187
0.00314656
0.00316633
0.00317394
0.00249431
0.0024162
0.00240039
0.0024013
0.002459
0.00253501
0.00260205
0.0026476
0.00267984
0.00263537
0.00273426
0.00260757
0.00266112
0.00259786
0.00261459
0.00263392
0.00263511
0.00266379
0.00263582
0.00263536
0.00262813
0.00245184
0.0022722
0.00223582
0.00227961
0.00233215
0.00236223
0.00234097
0.00230032
0.0022807
0.0012113
0.00120261
0.00115727
0.00112065
0.00108191
0.00106074
0.00107236
0.00106984
0.00105834
0.00106545
0.00106451
0.00107998
0.00109937
0.00112337
0.00111123
0.00113357
0.00115139
0.00116008
0.00116245
0.00115985
0.00117134
0.00115755
0.00117924
0.00117453
0.00120248
0.00121092
0.00123916
0.00129999
0.00139552
0.00146776
0.00157416
0.00126715
0.00113291
0.00113116
0.00115681
0.00119405
0.0012627
0.00138302
0.00145537
0.00151493
0.00156245
0.00159797
0.00162088
0.00166187
0.00164963
0.00165561
0.00159007
0.00161197
0.00157849
0.00155241
0.00153939
0.00155036
0.00157338
0.00157113
0.00152613
0.00156983
0.0024637
0.00350394
0.00345395
0.00340971
0.00108621
0.000917024
0.000895411
0.00092143
0.000985639
0.00102809
0.00105312
0.00106228
0.00104118
0.00104971
0.00100239
0.00102538
0.000980346
0.000994904
0.000957129
0.000960184
0.000998802
0.000958352
0.000990342
0.000980192
0.00103007
0.0012478
0.00128973
0.00129631
0.00130815
0.00131504
0.00128315
0.00126698
0.001254
0.00129299
0.00179623
0.00181919
0.00178338
0.0017274
0.00171188
0.00171398
0.00172122
0.00172188
0.00172887
0.00171249
0.00173346
0.00175936
0.00179754
0.00180974
0.00180603
0.00183971
0.00194335
0.00202303
0.00191668
0.000980384
0.000800774
0.000832478
0.000865945
0.000891025
0.000928874
0.000942391
0.000873912
0.00078931
0.000764792
0.000592616
0.00151061
0.00150892
0.00142825
0.00139817
0.00128243
0.00129146
0.00129548
0.00130976
0.00132284
0.00140338
0.00138508
0.00136432
0.00137899
0.00136515
0.00139051
0.00138427
0.00146705
0.00151234
0.00153135
0.00157375
0.00108681
0.000903113
0.000896029
0.00091984
0.000923737
0.000921884
0.000905821
0.000888804
0.000869134
0.000835046
0.00107062
0.0011061
0.00110529
0.00109879
0.00111269
0.00112947
0.00113869
0.0011425
0.0011628
0.00106916
0.0010869
0.00110747
0.0011317
0.0010928
0.00116401
0.00112248
0.000610982
0.000555516
0.000552097
0.000544591
0.000540254
0.000497696
0.000486764
0.000478419
0.000522433
0.000524579
0.000512719
0.000515954
0.000514293
0.000518718
0.000629599
0.000626418
0.000643355
0.00064664
0.000679199
0.000668918
0.000647256
0.000633941
0.000620772
0.000615764
0.000610193
0.000610415
0.00061141
0.000616097
0.000615652
0.000621028
0.000620985
0.000622959
0.000623075
0.000629276
0.000632688
0.000633035
0.000642944
0.000635846
0.000603947
0.000604969
0.000577711
0.00058753
0.000602202
0.000639048
0.000333727
0.000357042
0.000405332
0.000425412
0.000436548
0.000429917
0.000355237
0.000184926
0.000137858
0.000136558
0.000129983
0.000140032
0.000146546
0.000166407
0.000171687
0.000182409
0.000186998
0.000198011
0.000189314
0.000200874
0.000200256
0.00017658
0.000189469
0.000177731
0.000151473
0.000138879
0.000149246
0.000150849
0.000145078
0.000196023
0.00990189
0.00933575
0.00873252
0.00848473
0.00847291
0.00846374
0.00855786
0.00862538
0.00873167
0.00882958
0.00906463
0.00938852
0.00982407
0.0102444
0.00560792
0.00601665
0.00667578
0.00691919
0.00682829
0.0066719
0.00661995
0.00663408
0.00668286
0.00668947
0.00667392
0.00655943
0.00646532
0.00637241
0.00631544
0.00619433
0.00612313
0.00608649
0.00607095
0.00607903
0.00606678
0.00608953
0.00613345
0.00617252
0.00626776
0.00636929
0.00646457
0.00640959
0.00612307
0.00562624
0.00379994
0.00389772
0.00455825
0.00514814
0.00548254
0.0056599
0.00572989
0.00576615
0.00582805
0.00584777
0.00588107
0.00578963
0.00566098
0.00544266
0.00529804
0.00510657
0.00501681
0.00491553
0.00487112
0.00482161
0.00479672
0.00476974
0.00472701
0.00468239
0.0045805
0.00453857
0.00451732
0.0043986
0.00423106
0.0040689
0.00328067
0.00338565
0.00341978
0.00344385
0.00348043
0.00355836
0.00366024
0.00383531
0.00402107
0.00418599
0.00425967
0.00423414
0.00415388
0.00405392
0.0039419
0.00387198
0.00380258
0.00373792
0.00369731
0.00366065
0.00360889
0.00356449
0.00352093
0.00347469
0.00342173
0.00334604
0.00325549
0.0031921
0.00316853
0.00319601
0.00250529
0.00243539
0.00241681
0.00246505
0.00260375
0.00276357
0.00288251
0.0029844
0.00304547
0.00305601
0.00307486
0.00305813
0.00305443
0.00304573
0.00302809
0.00299937
0.00293459
0.0028495
0.00274935
0.00270648
0.00268337
0.00259813
0.00240706
0.0022758
0.00235592
0.00267342
0.00276272
0.00263694
0.00240063
0.00234446
0.00122039
0.00119197
0.00113152
0.00107604
0.00106646
0.00104373
0.00103162
0.00103104
0.00103282
0.00103926
0.00105288
0.00109116
0.00116206
0.00120932
0.00127947
0.00133201
0.0013642
0.00135041
0.00135937
0.00136385
0.0013494
0.0013487
0.00130153
0.00130368
0.00127398
0.00124396
0.00124588
0.00126557
0.00133379
0.00140432
0.00154221
0.00115116
0.00116824
0.00117653
0.00109829
0.00120142
0.00140248
0.00152641
0.00164077
0.00175102
0.00179049
0.00181121
0.0017486
0.00174489
0.00171529
0.00175802
0.00173295
0.00170312
0.00170091
0.00168791
0.00168617
0.00167034
0.00164446
0.00162062
0.00159038
0.0015491
0.00177929
0.00275209
0.00341249
0.00340696
0.00110105
0.000919144
0.000899979
0.000991168
0.00107479
0.00110213
0.00111061
0.00109084
0.00108138
0.00103927
0.00101355
0.00098978
0.000977429
0.000928769
0.000934895
0.000939561
0.000949655
0.000974729
0.000997504
0.000960472
0.00099321
0.0011093
0.00128581
0.00135319
0.00128279
0.00129346
0.00136252
0.00133233
0.00126654
0.00122335
0.00175752
0.00174878
0.00163885
0.00158502
0.00161815
0.00169227
0.00177626
0.00185524
0.00197529
0.00201398
0.00204896
0.00206841
0.00206623
0.00205916
0.00203315
0.00199559
0.00197382
0.00197638
0.00202046
0.0014243
0.000982008
0.000760906
0.000804094
0.000899133
0.00099879
0.00107185
0.00109771
0.00104109
0.000850069
0.000665369
0.00149919
0.00152145
0.00144181
0.00126304
0.00125724
0.00127126
0.00132307
0.00148171
0.00156051
0.00160115
0.00168371
0.00171641
0.00170357
0.00168832
0.0016636
0.00165418
0.00160181
0.00151592
0.00154607
0.00162301
0.00140461
0.00113975
0.000939884
0.000941027
0.000981888
0.000989881
0.000941511
0.00090641
0.000884764
0.000842838
0.00109376
0.00110487
0.00108461
0.00108203
0.0010721
0.00110383
0.00111597
0.00103145
0.00109714
0.00122506
0.00127362
0.0013058
0.00125095
0.00123225
0.00117247
0.00114471
0.000957002
0.000640149
0.000589095
0.00058166
0.000520371
0.000498318
0.000469574
0.000506236
0.00050472
0.000496618
0.000491882
0.000498629
0.000509529
0.00051913
0.00065357
0.000629932
0.000653061
0.000674166
0.000672419
0.000655736
0.00064544
0.000641831
0.000647261
0.000658336
0.000629398
0.000644327
0.000651877
0.000657097
0.000653814
0.000644815
0.000673379
0.000664944
0.000655139
0.000661731
0.000671311
0.000710779
0.000733299
0.000769137
0.000786684
0.000737385
0.000697237
0.000615014
0.000608163
0.000638095
0.000261174
0.000319854
0.000433114
0.00041735
0.000399419
0.000400492
0.000234934
0.000143541
0.000139794
0.000136277
0.000153345
0.000167677
0.000182286
0.000191276
0.000197865
0.00020823
0.00018826
0.000205706
0.000233606
0.000250425
0.000256727
0.000260372
0.000249944
0.000227658
0.000203804
0.000174431
0.0001492
0.000139549
0.000150997
0.000200462
0.00903215
0.00831785
0.00812487
0.0082384
0.00838626
0.00851489
0.00867686
0.00878093
0.00898004
0.00900953
0.00900454
0.00904494
0.00960006
0.0101023
0.00561686
0.00610175
0.00682215
0.00710626
0.00692574
0.0068871
0.00703815
0.0072433
0.00732875
0.00723324
0.00701605
0.00678183
0.00652802
0.00633275
0.00620897
0.00613293
0.00615649
0.00620794
0.00624532
0.00626444
0.0062684
0.00623422
0.00620242
0.00618507
0.00620875
0.00626675
0.00637739
0.00644048
0.00633106
0.00593251
0.00377355
0.00395916
0.00471653
0.00526083
0.0054002
0.00537001
0.00539657
0.00552268
0.0057237
0.0058112
0.0058269
0.00551013
0.00523957
0.00495066
0.00484009
0.00465152
0.00465239
0.00457504
0.0045677
0.00456398
0.00458385
0.00458689
0.00465645
0.00464537
0.00458262
0.00454072
0.00452986
0.00448764
0.00434765
0.00413333
0.00327729
0.003343
0.00332566
0.0032942
0.00329975
0.00334362
0.00345329
0.00363931
0.00395768
0.00423339
0.00431388
0.00418876
0.00400322
0.00389997
0.00386859
0.00388054
0.00384941
0.00385867
0.00385684
0.0037933
0.0037173
0.00364841
0.00358035
0.0035238
0.00347084
0.00341156
0.00333452
0.0032618
0.00320444
0.0032041
0.00253658
0.00248125
0.00247492
0.00261376
0.00286225
0.00300129
0.00310672
0.00318042
0.00322906
0.0032914
0.00332308
0.003348
0.00339693
0.00337311
0.00337493
0.00334579
0.00328429
0.00316407
0.0030128
0.00284648
0.00271035
0.00268823
0.00258923
0.00238513
0.00238914
0.00276323
0.00288072
0.00281829
0.00245494
0.00234721
0.00121608
0.0011768
0.00110651
0.00105071
0.00101294
0.00101587
0.00105952
0.0010729
0.00106304
0.0010634
0.00109004
0.00117268
0.00125637
0.00135732
0.00139192
0.00142478
0.00144279
0.00145928
0.00147297
0.00147802
0.00145972
0.00145548
0.00144507
0.00142859
0.00137367
0.00129786
0.00127585
0.00127041
0.0013024
0.00135821
0.00149181
0.00117866
0.00110248
0.00113788
0.00105751
0.00118672
0.00139775
0.00153023
0.00169683
0.00177978
0.00175633
0.00177323
0.00175829
0.0017324
0.00176985
0.0017659
0.00170022
0.00169995
0.00166138
0.00166029
0.00165347
0.00167699
0.00167879
0.00167108
0.00164179
0.00159229
0.00164261
0.00193153
0.00294179
0.00339479
0.00113253
0.000933356
0.000911907
0.00106478
0.00108593
0.00109717
0.00108845
0.00106914
0.00103473
0.00100098
0.000942762
0.00093597
0.000866324
0.000864159
0.000832535
0.000839893
0.000887891
0.000920331
0.00095097
0.000986779
0.00094645
0.00102479
0.00117352
0.00134695
0.00133984
0.00134687
0.00134734
0.00134032
0.0013493
0.00123472
0.00170678
0.00158935
0.00149233
0.00154171
0.00167273
0.00181384
0.00200552
0.00214642
0.0022635
0.00240018
0.00255626
0.00263985
0.00266681
0.00261593
0.00249247
0.00229683
0.00217975
0.0020722
0.00202959
0.00188666
0.00132375
0.000821568
0.00081117
0.000867127
0.00104676
0.00116271
0.00119859
0.00117295
0.00105241
0.000776352
0.0014723
0.00151856
0.00139929
0.00123941
0.00136054
0.00133121
0.00151487
0.00163909
0.00178233
0.00187118
0.00194314
0.00209146
0.00214769
0.00215882
0.00208979
0.00196771
0.00186249
0.00176133
0.00166103
0.00160571
0.00160151
0.00137882
0.00114459
0.000976144
0.00099945
0.00104674
0.00098971
0.000914488
0.000885837
0.000848407
0.00112967
0.00110547
0.00108111
0.00103728
0.00105664
0.00106423
0.000984525
0.0012066
0.00135552
0.00148532
0.00156685
0.00159547
0.00157372
0.00151272
0.00136556
0.0013037
0.00105485
0.000966583
0.000724484
0.000698537
0.000662858
0.00051612
0.000470384
0.000499011
0.000497806
0.000490985
0.000486392
0.000496098
0.00050625
0.000505437
0.00064624
0.00066745
0.000674471
0.000678766
0.000666627
0.000663696
0.000673208
0.000657767
0.000691662
0.000730094
0.000717932
0.000740649
0.000750582
0.000751096
0.000738709
0.000712445
0.000721057
0.000682707
0.000682629
0.000663875
0.000666676
0.000715162
0.000772736
0.000865466
0.000828124
0.000762595
0.000814448
0.000715309
0.000653279
0.000630843
0.000235667
0.000360821
0.000429419
0.000454258
0.000378349
0.000228146
0.000160636
0.00014186
0.000139454
0.000158425
0.000166467
0.000184436
0.000193525
0.000200373
0.000194935
0.000205018
0.000201112
0.000215138
0.00021973
0.000219474
0.000253331
0.000269034
0.000267047
0.000239806
0.000228249
0.000193923
0.000166473
0.000149545
0.000167197
0.000205754
0.0079963
0.00798712
0.00825259
0.00840847
0.00847734
0.00840307
0.0083464
0.00838965
0.00870735
0.00909483
0.00917586
0.00907749
0.00933833
0.00994381
0.00560711
0.0061036
0.00692022
0.00726654
0.00722918
0.00733022
0.00760652
0.00780679
0.0075926
0.00730396
0.00709338
0.00681175
0.00646588
0.00623922
0.00615364
0.00624635
0.00640078
0.0065568
0.00668118
0.00675583
0.00671709
0.00663521
0.00652023
0.00638211
0.00630324
0.00627027
0.00632727
0.0063987
0.00638074
0.00604095
0.00374732
0.00394118
0.00463584
0.00486358
0.00463189
0.0044111
0.00478881
0.00534516
0.00568737
0.00571005
0.00547806
0.00503633
0.00482628
0.00459233
0.00463735
0.00466289
0.00478729
0.00477737
0.00477971
0.00475372
0.00471491
0.00463631
0.00457754
0.00456403
0.00454722
0.00452692
0.00452749
0.00453551
0.00444913
0.00419942
0.00325674
0.00328536
0.00323722
0.00319574
0.00319142
0.00322402
0.00329837
0.00346479
0.00382761
0.00420873
0.00426564
0.00396491
0.00383207
0.00386518
0.00390943
0.0039623
0.00407157
0.0041614
0.00417703
0.004136
0.0040565
0.00392607
0.00376887
0.0036237
0.00354286
0.00347302
0.003407
0.00332523
0.00326314
0.00323355
0.00255037
0.00252189
0.00255806
0.0028722
0.00302868
0.0031269
0.00316685
0.0032894
0.00342148
0.00355131
0.00367897
0.00377545
0.0038276
0.00384806
0.00379942
0.00372726
0.00362413
0.00349702
0.00330856
0.00308799
0.00287603
0.00272943
0.00267718
0.0025163
0.00239498
0.00259693
0.00277875
0.00281094
0.00232314
0.00218562
0.00121031
0.00116871
0.00110039
0.00104941
0.00102474
0.00103636
0.00104541
0.00109463
0.00109019
0.0010849
0.00112023
0.00121308
0.00135738
0.00141587
0.00143447
0.00142286
0.00144921
0.00147841
0.00147468
0.00150976
0.00151505
0.00148572
0.00152818
0.00151602
0.00146754
0.0014063
0.00131845
0.00126513
0.00129355
0.00134628
0.00144669
0.00111904
0.00104129
0.00108948
0.00115685
0.00113197
0.00131617
0.00144614
0.00158726
0.00174072
0.00179418
0.00174232
0.00180175
0.00178863
0.0017529
0.00173114
0.00167453
0.00164545
0.00162259
0.00159145
0.00159114
0.0016481
0.00167862
0.00168215
0.00168449
0.00162031
0.00161642
0.00172907
0.00243722
0.00324906
0.00116686
0.000936513
0.000992121
0.00104391
0.00105236
0.00107215
0.00107157
0.00102744
0.00096584
0.000924483
0.000893246
0.000852678
0.000780949
0.000758694
0.000759184
0.000783951
0.000800335
0.000851039
0.000898223
0.000943657
0.000924103
0.000966154
0.00109077
0.00128749
0.0013016
0.00133439
0.00131792
0.00136599
0.00128568
0.00128354
0.00161386
0.00138159
0.00143787
0.00160306
0.00175386
0.00196311
0.00214826
0.00234378
0.00268006
0.00298878
0.00317822
0.00327409
0.00331434
0.00329264
0.00317087
0.00293985
0.00261179
0.00222062
0.00213711
0.00205233
0.00158908
0.00104172
0.000780142
0.000782651
0.00105496
0.00122765
0.00128681
0.00127686
0.00118528
0.000802215
0.00144599
0.00148876
0.00128612
0.00135421
0.00127916
0.00145956
0.00161858
0.00179506
0.00187452
0.00217142
0.00241523
0.00257269
0.00268669
0.00271752
0.00267216
0.00254182
0.00233153
0.00207693
0.00184536
0.00172058
0.00166104
0.00160265
0.00132199
0.00111076
0.00100631
0.00104619
0.00101069
0.000924522
0.000875932
0.000852838
0.00112531
0.00112053
0.00104544
0.00100074
0.00101988
0.00105204
0.00118496
0.00146479
0.0017283
0.00200724
0.0022161
0.00223697
0.0021096
0.00183613
0.00167532
0.00146269
0.00133039
0.00109497
0.000995447
0.000892701
0.00086216
0.000596078
0.00052949
0.000500258
0.000489548
0.000493259
0.000503062
0.000505603
0.000511469
0.000508367
0.000661524
0.000681962
0.000685178
0.000680533
0.000681126
0.000656962
0.000695145
0.000700785
0.00076209
0.000764722
0.000802958
0.000780392
0.000800946
0.000796711
0.000768777
0.000782813
0.000775617
0.000704852
0.00067966
0.000672293
0.00063663
0.00069339
0.000785986
0.000808124
0.000950316
0.00103982
0.000859747
0.000768682
0.000666448
0.000630242
0.00021742
0.000382796
0.000415848
0.000340551
0.000264976
0.00017262
0.000133522
0.000126859
0.000146906
0.000172388
0.000182663
0.000201455
0.000220057
0.000230442
0.00022829
0.000224651
0.000219833
0.000218951
0.000219621
0.000211477
0.000225874
0.000246698
0.000273251
0.000244834
0.00020664
0.000222099
0.000214002
0.000184015
0.000203277
0.000198774
0.00789717
0.0082686
0.00844948
0.00845563
0.0084858
0.00837202
0.00820581
0.00802876
0.00808825
0.00854576
0.00920637
0.00915818
0.00923878
0.00984165
0.00560482
0.00603074
0.00692199
0.00748786
0.00755204
0.00772082
0.00800078
0.00777377
0.00714819
0.00675632
0.00686669
0.00667591
0.00634834
0.00617402
0.00628136
0.00652542
0.00680424
0.00707452
0.0072798
0.0073544
0.00731439
0.00715697
0.0069439
0.00669997
0.00649023
0.00635597
0.00633427
0.00638755
0.00639755
0.00608982
0.00371262
0.00385275
0.00435955
0.00425082
0.00371241
0.00363931
0.00461376
0.00544575
0.00568444
0.00555311
0.00507369
0.0046161
0.00461361
0.00469199
0.00497479
0.0050014
0.00509769
0.00512692
0.00510983
0.00505843
0.00497531
0.00487484
0.0047721
0.00465053
0.00456389
0.0045301
0.00450789
0.00455173
0.00450691
0.00426548
0.0032254
0.00323027
0.00316197
0.00314124
0.00317427
0.00318436
0.00320866
0.00334951
0.00374098
0.00418344
0.00416753
0.00380028
0.00380134
0.00384796
0.00393758
0.00412418
0.00436004
0.00440305
0.00443476
0.00443373
0.00439405
0.00429795
0.00405714
0.00383369
0.00366415
0.00355088
0.00346338
0.0033935
0.00332138
0.00327073
0.00253933
0.00256545
0.00281257
0.0030316
0.00309312
0.00312918
0.00323917
0.00343279
0.00362517
0.00380799
0.00401777
0.00410925
0.00423294
0.00425589
0.00427739
0.00415877
0.00401379
0.00381037
0.00359142
0.00335155
0.00307074
0.00285466
0.00275671
0.00263432
0.00243679
0.00243973
0.00260163
0.00268979
0.00213401
0.00192447
0.00120253
0.00116488
0.00110494
0.00101231
0.000986087
0.000996958
0.0010479
0.00106669
0.00110015
0.00109811
0.00115425
0.00128229
0.00139878
0.00140729
0.00140734
0.00141184
0.00145849
0.0014752
0.0014878
0.00152154
0.0015579
0.00151513
0.00152943
0.00154838
0.00151847
0.00147348
0.00140213
0.00130887
0.00127428
0.00133874
0.00141625
0.00106918
0.000969775
0.00101767
0.00111653
0.00120325
0.00117327
0.00135417
0.00147378
0.00165462
0.00175982
0.00179232
0.00178904
0.00177437
0.00173216
0.00169651
0.00163842
0.00159648
0.00155762
0.00157141
0.00155665
0.00158811
0.00161184
0.0016513
0.00168952
0.00165156
0.00161263
0.00167509
0.0020512
0.00308689
0.00117062
0.000893001
0.00102853
0.00091972
0.00102317
0.00106831
0.00104143
0.000991536
0.00094942
0.000863407
0.000846195
0.000839142
0.000809972
0.000808163
0.000803566
0.000796066
0.000823723
0.000786438
0.000831662
0.000903904
0.000940323
0.000928606
0.00102246
0.00117104
0.00132873
0.00127516
0.00125726
0.00133659
0.00133279
0.00134285
0.00141565
0.00142687
0.00148974
0.00170207
0.00181853
0.00200858
0.00225304
0.00267378
0.00310146
0.00339957
0.00361194
0.00376309
0.0038584
0.00381122
0.00367338
0.00347743
0.00314492
0.00267304
0.00222492
0.00217223
0.00187502
0.00124338
0.000737637
0.000795732
0.000980221
0.00125419
0.00133767
0.00121754
0.00126736
0.000918648
0.00146306
0.00140066
0.00136847
0.00138262
0.00131043
0.00148719
0.00170905
0.00189522
0.00216734
0.00250554
0.00275017
0.00294994
0.00309276
0.00314798
0.00314651
0.00304432
0.00281441
0.00251548
0.00215129
0.00185311
0.00175421
0.00168585
0.00156532
0.00115801
0.00106202
0.0010423
0.00100265
0.000906706
0.000858327
0.000843227
0.00110144
0.00107607
0.00100995
0.00100223
0.000991432
0.00106853
0.00142557
0.00181837
0.0025093
0.0029696
0.00320047
0.00321286
0.00300157
0.00264849
0.00217235
0.00174412
0.00150228
0.00131376
0.0010601
0.00106829
0.000982393
0.000645753
0.000526808
0.000496557
0.000497627
0.00051301
0.000505144
0.000507995
0.00050863
0.000508661
0.000667313
0.000690523
0.00069243
0.000692651
0.000670961
0.000715711
0.00073202
0.000757489
0.000773931
0.000833079
0.0008299
0.000889773
0.000857085
0.000906067
0.000855571
0.000842544
0.000760253
0.000736271
0.00070232
0.000693155
0.000628881
0.000664607
0.000774218
0.000881009
0.00106636
0.00108959
0.000928043
0.000787057
0.000671277
0.000658262
0.000220816
0.000357625
0.000324024
0.000238899
0.000195865
0.000145431
0.000144901
0.000142973
0.000171257
0.000190002
0.00022165
0.000242656
0.000270489
0.000267698
0.000283293
0.000297514
0.000280541
0.000256391
0.000232232
0.000217493
0.000217301
0.000225825
0.000261627
0.000278005
0.00019461
0.000196789
0.000254658
0.000223715
0.000222562
0.000206518
0.00844389
0.00848479
0.00851411
0.00868893
0.00898931
0.00912812
0.00888281
0.00826241
0.0079081
0.00810961
0.00893558
0.00920507
0.00925372
0.00974802
0.0055829
0.00593217
0.00670287
0.00747701
0.0077982
0.0079489
0.00790062
0.00721558
0.00626474
0.00610709
0.0066188
0.00649435
0.00619484
0.00622322
0.00647885
0.00682885
0.00722334
0.00760373
0.00788868
0.00803961
0.00798474
0.00773245
0.00738563
0.0070247
0.00668099
0.00645904
0.00635977
0.00639209
0.00639528
0.00609345
0.00369127
0.00371513
0.00401873
0.00365848
0.00311141
0.00342803
0.00500937
0.00562387
0.00557969
0.00520868
0.00463949
0.00453909
0.00489948
0.00503927
0.00520313
0.00525703
0.00526898
0.00531466
0.0052627
0.0052737
0.0052192
0.00512538
0.0049713
0.00482732
0.00471246
0.00455996
0.00451659
0.00454829
0.00454463
0.00429869
0.00320049
0.00317569
0.00309988
0.00313015
0.00321454
0.00321468
0.00316055
0.00322312
0.00365319
0.00420021
0.00401734
0.00374058
0.0037193
0.00376868
0.00398212
0.00425406
0.00443288
0.00453815
0.0046105
0.00460759
0.00454706
0.0044492
0.00433731
0.00407237
0.00382155
0.00363046
0.00353084
0.00345086
0.00336854
0.00330099
0.00256825
0.00261062
0.00302316
0.00307901
0.00309745
0.00314993
0.00331045
0.00353797
0.00373734
0.00404249
0.00424513
0.00435957
0.00446736
0.00452339
0.00450611
0.00450416
0.00436321
0.00412177
0.00388723
0.00356731
0.00326282
0.0030012
0.00281313
0.00270638
0.00254601
0.0024917
0.0025071
0.00256189
0.00194017
0.00165135
0.00119447
0.00116706
0.00106817
0.00103035
0.00101052
0.00101036
0.00099844
0.00107283
0.00111001
0.00110759
0.00118426
0.00133372
0.00139881
0.00137818
0.00138917
0.00141423
0.00144393
0.00148487
0.00155688
0.00156339
0.00157236
0.00158286
0.00159652
0.00155401
0.00158869
0.00151383
0.00143212
0.00135752
0.00129005
0.00134309
0.00140386
0.0010278
0.000886922
0.000926763
0.00103351
0.00115587
0.00123999
0.00119708
0.0013488
0.00150224
0.00169589
0.00177483
0.00178139
0.00175197
0.00170926
0.00166586
0.00159911
0.00156577
0.00150094
0.0014768
0.00147316
0.00152817
0.00157545
0.00165408
0.00167475
0.00167501
0.0016206
0.0016582
0.00188282
0.00299231
0.00116314
0.000936071
0.000975918
0.000950607
0.00100762
0.0010654
0.00102294
0.000947966
0.000888444
0.00082914
0.000861041
0.000797872
0.000776059
0.00076157
0.000748322
0.000775971
0.000785691
0.000818572
0.000779645
0.000858816
0.0009135
0.000949828
0.000972253
0.00110338
0.0012539
0.00130622
0.00130846
0.00128372
0.00132122
0.00137668
0.00132485
0.0012661
0.00157147
0.00168422
0.00180199
0.00202874
0.00236095
0.00293032
0.00333744
0.00366717
0.00397411
0.0041338
0.00416415
0.00416513
0.0040943
0.00389984
0.00352042
0.00308826
0.00252126
0.00222555
0.00202743
0.00132378
0.000846462
0.000796158
0.000918739
0.0012548
0.00137521
0.00127139
0.00131238
0.000964497
0.00145071
0.00130619
0.00142226
0.00138925
0.0013104
0.00154057
0.00177765
0.00195898
0.00236619
0.00272075
0.00302627
0.00324613
0.00339821
0.00343615
0.00340616
0.00337355
0.00320274
0.00286267
0.00252479
0.00203853
0.00183862
0.00172743
0.00167776
0.00135711
0.00112469
0.00104827
0.000982331
0.000874601
0.000837112
0.000847783
0.00106942
0.00101255
0.000992084
0.000971653
0.00101944
0.00121488
0.00170467
0.00252271
0.00324633
0.00368554
0.0038915
0.00388667
0.00376297
0.00342622
0.00284707
0.00215271
0.00172968
0.00146576
0.00124785
0.00109178
0.0010621
0.000643522
0.000520596
0.000504314
0.000506436
0.000507599
0.000510372
0.000505858
0.000503062
0.000497493
0.000669079
0.000694455
0.000701312
0.000675655
0.000712139
0.000728689
0.000763086
0.000795024
0.000815128
0.000851006
0.000979185
0.00099181
0.00100248
0.00102455
0.000936132
0.000881029
0.00083327
0.000745089
0.00075702
0.000699204
0.000638529
0.000619554
0.000746017
0.000842029
0.00101823
0.00104856
0.00087446
0.000775991
0.00067195
0.000662709
0.000225497
0.000324789
0.000237644
0.000197544
0.000168842
0.000127658
0.00015118
0.000162643
0.000185142
0.000224931
0.000259692
0.000294929
0.000364892
0.000410257
0.000424662
0.000399114
0.000350181
0.00030535
0.000270997
0.000242624
0.000226305
0.000216189
0.000217048
0.000293405
0.000268865
0.000164832
0.000201118
0.000242777
0.000213785
0.000199616
0.00863043
0.00853695
0.00889384
0.00955145
0.00999444
0.0101404
0.00994007
0.00906252
0.00808791
0.00798219
0.00876005
0.00923784
0.00929111
0.00969311
0.00559309
0.00578714
0.00631578
0.00720584
0.0076913
0.00778244
0.0074522
0.00634103
0.00547714
0.00571343
0.00649873
0.006348
0.00614948
0.00635251
0.00671057
0.00714903
0.00761006
0.00804894
0.00837463
0.00851553
0.00848301
0.00819569
0.00773664
0.00722249
0.00683073
0.00655566
0.00640529
0.00641098
0.00638028
0.00606093
0.00366298
0.00355264
0.00364168
0.00318852
0.00286618
0.00388085
0.00538202
0.00556822
0.00545574
0.00486928
0.00448145
0.00476986
0.00508084
0.00524545
0.00528835
0.00536659
0.00533357
0.00532703
0.00531713
0.00532019
0.00529119
0.00526954
0.00513266
0.00497411
0.00482122
0.00460822
0.00454161
0.00454162
0.0045713
0.00434003
0.00317272
0.00314594
0.00307186
0.00314806
0.00322002
0.00322632
0.00318097
0.00314076
0.00354891
0.00420404
0.00393563
0.00364611
0.00359124
0.00371377
0.00400281
0.00433432
0.00451869
0.00464575
0.00466039
0.00467033
0.00466199
0.00458256
0.00445307
0.00430537
0.00397334
0.00373456
0.00359423
0.00349643
0.00341086
0.00333061
0.00257458
0.00275591
0.00310326
0.00307554
0.00309164
0.00315116
0.00332009
0.00355584
0.00380247
0.00416415
0.00434003
0.00450424
0.00465001
0.00464468
0.0046767
0.00462145
0.00459284
0.00435239
0.00413022
0.00378022
0.00341806
0.0031267
0.00291105
0.00274242
0.00262414
0.00250775
0.00252606
0.00245785
0.00173127
0.00136705
0.00118789
0.00117064
0.00107781
0.00104428
0.00102133
0.00101553
0.00100969
0.00108403
0.00111907
0.00112663
0.00121298
0.0013561
0.00138271
0.00138104
0.00137596
0.00142004
0.001468
0.00150638
0.00154924
0.00155701
0.0016017
0.00158318
0.00161238
0.00159585
0.0015973
0.00155859
0.00148304
0.00138821
0.00130705
0.00135331
0.00141344
0.00100559
0.000763979
0.0007518
0.000848063
0.00102761
0.00116615
0.00123379
0.00120136
0.00139394
0.00161824
0.00175717
0.00176483
0.00172922
0.00172284
0.00163747
0.00158784
0.00152912
0.00148685
0.00148509
0.00146295
0.00152542
0.00156574
0.00165243
0.00166178
0.00168966
0.00162038
0.00165996
0.00184561
0.00300008
0.00114388
0.000945454
0.000925427
0.000907976
0.000996591
0.00106529
0.00100578
0.000960387
0.000860007
0.000812266
0.000828541
0.000770699
0.000739663
0.000737781
0.000725011
0.000735822
0.000743713
0.000795797
0.000826098
0.000817875
0.000885882
0.000932374
0.000936377
0.00104296
0.00118681
0.00123567
0.00126717
0.00136751
0.00130009
0.00139136
0.00129171
0.00127396
0.00147408
0.00161737
0.00173665
0.00202522
0.00244429
0.00302135
0.00344818
0.00381922
0.00414762
0.00421954
0.00423708
0.00425901
0.00421113
0.00416408
0.00382047
0.0033524
0.00276836
0.00232042
0.00212069
0.00153934
0.000984788
0.000740427
0.000957089
0.00128158
0.00130329
0.00129554
0.0013379
0.00106855
0.00142056
0.00142021
0.00146721
0.00138855
0.00130992
0.00161973
0.00179257
0.00206408
0.00248552
0.00289001
0.00317264
0.00341968
0.00345992
0.00348722
0.00347567
0.00342293
0.00340429
0.00312264
0.00275457
0.00232259
0.00193082
0.00181056
0.00172329
0.00145827
0.00116104
0.00105982
0.000943067
0.000818883
0.000796591
0.000816516
0.000954566
0.000919006
0.00100056
0.000950833
0.00102591
0.0013589
0.00203682
0.00295301
0.00358312
0.00395822
0.00398489
0.0040082
0.00399409
0.00383036
0.00342515
0.00264901
0.00191807
0.00159164
0.00135842
0.00121827
0.00108095
0.000617416
0.000545704
0.000552477
0.000572698
0.000534964
0.00052781
0.000572782
0.000547023
0.000518986
0.000669757
0.000699324
0.000708787
0.000698088
0.000703925
0.00073491
0.000773588
0.000807063
0.000867068
0.000953222
0.0010739
0.00115917
0.00117596
0.00113197
0.000996817
0.000909854
0.000815626
0.000758839
0.000739449
0.000745719
0.000656703
0.000589948
0.000680402
0.000893838
0.000902055
0.000868436
0.000844521
0.000746373
0.000664557
0.00065378
0.000239324
0.000280996
0.000215405
0.000165622
0.000151733
0.000148945
0.00014913
0.000167684
0.000211125
0.000250809
0.000297489
0.000395096
0.000436484
0.000555887
0.00058039
0.000517826
0.0004445
0.000353215
0.00029099
0.000255807
0.000236863
0.000228492
0.000212393