/*--------------------------------*- C++ -*----------------------------------*\
| =========                 |                                                 |
| \\      /  F ield         | OpenFOAM: The Open Source CFD Toolbox           |
|  \\    /   O peration     | Version:  2.1.1                                 |
|   \\  /    A nd           | Web:      www.OpenFOAM.org                      |
|    \\/     M anipulation  |                                                 |
\*---------------------------------------------------------------------------*/
FoamFile
{
    version     2.0;
    format      ascii;
    class       volScalarField;
    location    "0.007900000";
    object      rhoEu;
}
// * * * * * * * * * * * * * * * * * * * * * * * * * * * * * * * * * * * * * //

dimensions      [1 -1 -2 0 0 0 0];

internalField   nonuniform List<scalar> 
12384
(
416269
404158
390604
377897
370063
361297
360667
355249
360588
361920
372692
382478
401977
425003
139663
152971
161502
176299
174508
166790
162422
160103
156570
155101
152785
151157
150372
149735
149277
149261
150116
151051
152375
153321
157768
157483
162814
162795
167287
169914
165943
146704
121861
105729
55097.9
56552.2
64513.2
71320.4
79101.4
84054.9
90460.2
89881.1
92190.3
87996.8
89517.5
84318.9
85033.3
76269.7
76653.7
68052
67220.9
60311.1
59450
53541.1
52013.3
47845.4
45549.7
42357.6
42664.6
43816.9
45145.9
41787.9
39274.4
40518.1
25410.6
25975.8
26298
28294.2
30292.1
32223.2
33488.3
34839.3
36100.3
36892.2
37670.5
38879.1
38763.9
38746.8
37991.9
36608.2
36567.9
36340.9
31770
30660.8
28599.5
25278.6
22061.7
19289.1
16639.2
14831.2
14062.6
11809.7
9346.45
8802.31
25365.1
22674.2
23923.9
24282.7
25122.8
25964.9
27880.9
30359.9
34087.7
34377.4
41294.5
38931.5
44240.7
41767.9
42513.7
40918.9
37585.6
35156.9
33590.5
33629.4
32804.8
15574.1
226.206
-1191.38
-221.251
-219.47
-116.277
-285.804
-1063.16
-1403.51
-547.215
6156.56
8842.31
5849.05
2087.68
24.5924
-4114.92
-5368
-8342.24
-8923.86
-10975.7
-10589.7
-9432.5
-7477.87
-4722.93
-1773.27
1364.21
3905.8
6158.02
7044.53
10176.1
7244.14
9500.1
5729.74
7609.87
7074.4
8349.9
8851.69
15521.3
20796.4
-47628
-34338.7
-32006
-32905.8
-34271.9
-37197.4
-39290.5
-44255.6
-47463.2
-51675.5
-55088.6
-57453.6
-58383.2
-58428.4
-58484.8
-53955
-55697.9
-50255.2
-51943.7
-50450.5
-51392.4
-52095.5
-51330.2
-52468.1
-52613.2
-53711.8
-84146.6
-105296
-99832.7
-97991.2
-9471.14
5652.57
8463.05
9617.99
8827.76
8542.88
8950.68
9601.03
8210.13
13685.1
10639.6
12844.8
10815.6
15428.5
11636.8
9682.42
12466.4
8169.23
8929.19
9728.26
8961.16
-9041.04
-10156.4
-9170.32
-7403.04
-6273.28
-5152.35
-5070.7
-5423.87
-6053.88
2243.77
5486.74
7925.53
9136
9826.89
10010.4
10309
10417.9
12135.6
12088.2
15327
13426.4
14684.2
13336.5
13355.5
10014.5
12858.4
10642.1
10634.5
-8491.8
-10821.4
-9755.33
-8038.78
-8685.16
-7126.74
-6352.33
-5010.08
-5241.26
-12628.8
-23009.3
-35027.6
-33203.9
-31206.1
-24080.4
-21183.2
-17657.1
-16504.1
-16203.6
-15388
-13982.1
-14554.8
-13937.5
-10530.4
-11952.2
-10868.4
-15861
-13391.1
-17213.1
-17934
-24336.9
-33300.7
-36562.5
-36534.1
-33597.6
-33690.5
-32761.9
-32061.8
-31572
-30145.2
-30371.9
-44605
-44613.2
-41539.4
-38063
-36483.8
-35372.8
-35225.3
-34971
-34591.6
-34186.4
-33342.3
-32709.3
-33404.3
-32392.3
-28478.9
-34282.7
-69274.1
-80012.3
-83870.3
-88056.1
-91469
-95729.2
-98193.9
-99422.6
-100939
-99725.4
-102551
-101082
-101213
-94753.3
-117684
-121849
-117042
-91399.3
-86050.3
-87905.2
-87377.1
-85266
-83827.1
-81706.2
-80591.3
-79358.2
-78982.2
-78490.1
-79244.4
-79282.3
-79672.1
-80273.9
-80832.3
-81127.6
-82558.8
-84028.4
-83435.4
-85840.6
-89055.8
-87689
-91575.7
-91447.1
-93414.7
-93967.3
-106403
-109751
-114912
-118951
-119354
-119163
-108298
-45307.6
-9013.26
-9060.45
-12612.6
-13060.4
-15028.6
-13805.2
-16881.2
-15094.3
-20208.8
-19242.4
-24211.1
-24033.1
-25288.3
-21437.9
-16853.9
-10254.3
-4067.73
1085.62
4944.38
6403.86
4962.07
-7796.33
394380
374105
353578
342302
337302
331045
331960
329718
332253
329963
336540
351015
383577
420498
141294
155674
170777
183200
176814
170963
169206
169946
171430
168425
162765
155964
150004
146100
145191
144428
144246
144749
146137
148633
150293
152696
157439
159610
165612
169067
170786
160594
141010
123055
55581.3
58908.4
71948.4
86401
101462
107840
109954
109198
110465
107638
107274
98324.8
93210.9
80341.4
77288
66813.4
65636
61016
59319.7
55873.2
54238.1
52392.4
49476.9
46728.4
44339.2
44376.2
45739.6
45283.4
42829
37803.1
26856.7
26570.1
27458.8
29232.5
30216.7
32465.4
35548.2
39573.9
42858.4
46000.6
48200.6
48299.4
47333.3
44448.8
41346.7
40665.7
38418.7
34818.8
35473.7
34907.5
32398
30174.1
27789.6
24474.5
20899
17709.1
15596.7
14413.1
13288.8
11436.8
25451.8
22467.2
22529
23103.4
24118.7
28665.4
34978
42387
49230.5
53085.2
57864.3
59696
60722.4
62122.4
60799.4
58882.7
55250.3
49971.4
44004.4
40214.8
38218.6
30729.3
12205.4
-17.3591
-550.472
888.289
1107.84
704.653
870.615
1967.14
1705.75
8012.53
8390.5
2801.44
-3577.83
-7095.89
-10594
-12659.5
-14303.7
-15222.1
-15287.5
-13157.1
-7114.25
484.329
7352.52
13221.1
17991.4
22055.8
25746.4
28950.2
28652.7
30148.7
25395.6
21775.6
18049.7
13382.9
12291.5
10033.6
11937.8
17554.5
-44972.8
-32127.8
-30655.1
-32234.9
-35087.1
-39770.8
-43877.7
-51165.7
-57960.7
-62640.6
-64788.2
-65101.9
-66030.4
-64321.5
-62990
-58729.4
-58444
-54645.3
-54152.7
-53534.1
-52478.3
-53597.5
-53392.6
-53438.3
-52477.5
-52656.6
-63898.1
-89456.7
-101567
-97959.4
-11290.8
5168.71
8538.28
7782.22
6648.18
7276.56
8090.48
7707.9
11191
11012
7823.54
11900
14378
10736.6
12056.6
11368.4
10251.3
9709.06
9177.1
9517.63
11762.6
3488.43
-8592.84
-10657.4
-9431.75
-8163.94
-5521.64
-3500.07
-2595.96
-3503.02
-1065.14
652.667
5729.91
7154.28
7148.02
6855.1
6834.23
7246.84
8815.61
9070.06
10019.3
11405.5
11228.5
10541
10538.3
11087.1
9836.29
10947.7
11953.2
4937.36
-6163.92
-13529
-15217.6
-14554.4
-13889.1
-12024.9
-9946.78
-3428.74
-2991.7
-18002.6
-35688.7
-35385.3
-32455.6
-21826.3
-12407.2
-12120.8
-15097.1
-17214.5
-19442.3
-22430.1
-21842.6
-19864.4
-20975.4
-20526.3
-19859.4
-15326.6
-15798.9
-16395.6
-16203.9
-16432.3
-22776.6
-29781.7
-34903.4
-34654.6
-35195.8
-34645.5
-34321.3
-32084.8
-29474.5
-29366.6
-45134.3
-47556.5
-43710.2
-39732.6
-36520.6
-37329.2
-38814.1
-40733.1
-41220.6
-40920.9
-40245.1
-38558.1
-36476.9
-34657.6
-30752.6
-29019.3
-42173
-63280.6
-73329.4
-81274
-86773.5
-98094.6
-102343
-105845
-104358
-106128
-106773
-104795
-101855
-93950.2
-98767
-95876.5
-89028.4
-85448.4
-86540.2
-86141.2
-83228.4
-80359.3
-77221.1
-74445.2
-72020.2
-70047.3
-69788.8
-70270.5
-72383.3
-75547.7
-79213
-81705.2
-84547.7
-85533.9
-87546.1
-86602.4
-89687.1
-88409
-92211.4
-91038.5
-93965.9
-92808.6
-92907.2
-93012.7
-85906.5
-103578
-118662
-125410
-123776
-113502
-65103.5
-16504.1
-4477.12
-6562.38
-4599.79
-3045.9
258.768
1065.97
514.346
1849.54
-4667.23
-9097.79
-18553.4
-26137.1
-34837
-36939.5
-33948.3
-25236.3
-17566.1
-5417.55
3013.77
5623.86
5287.41
-8854.93
367111
347054
337090
329269
323100
316885
319309
320526
332903
332781
332165
332270
361186
409524
142143
158774
179904
194565
191280
191828
201020
212008
211660
203218
188683
173007
156603
145301
144179
143496
145828
149931
153127
154908
156803
155939
158075
159282
163689
167332
172280
169564
154078
132738
54879.2
60031.7
76697.8
92826.6
99972.1
96889.2
96237.8
96853.6
103543
101705
98963.5
81848.7
74629.6
62084.9
61392.3
54833.2
58510.8
53908.9
53965.9
53586.3
53245.9
50933.2
50558.5
47855.4
46464.3
44674.6
45123.9
46781.1
45129.1
42514.1
26406.1
25975.2
26373.6
26876.3
27397.4
28110.9
30009.1
34464
41616.2
47150.9
49662.9
46888
41333
37130.5
36029.4
34511.8
30892.5
31553.6
32023.5
29850.1
28815
28720.3
28162.4
26964.4
24037.9
20440.8
17337.5
16065.1
14651
14174.7
27534.9
23181.7
22587.5
22504.1
29806.7
39821.3
49788.5
56912.5
64377.6
65751.8
70908.1
69619
71885.1
69109.2
68851.9
68718.7
67426.6
62565.3
55490.8
47954
42207
38853.9
27469.8
8228.88
243.146
-510.965
259.915
-97.1391
-1278.77
73.7529
1881.43
8858.48
8148.51
2483.12
-2651.9
-4063.89
-7825.51
-9818.65
-14155.3
-15479.6
-14091.8
-6792.25
3228.41
11759.5
17796.9
22134.8
27135
33111.1
38647.1
42407.2
46359.5
46740
46071.5
39554.2
33495.8
25041.6
16929.8
14015.5
12817.6
15237.1
-43202.1
-30462.2
-30324.4
-33079.8
-36703.4
-39287.4
-44064.1
-53451.9
-60689.1
-64908.4
-66491.9
-66201.6
-64747.6
-61547.8
-59631.9
-53728.3
-54443.5
-48339
-48854.5
-46752.4
-48059.5
-47885.1
-50596.2
-52689.1
-52682.1
-52552.2
-55568.2
-71273.6
-93306.5
-99160.5
-15160
3755.45
8870.99
6749.47
7798.61
9212.68
8864
10554.9
12170.1
8612.68
9332.41
15086.2
9133.64
12542.3
8636.72
7461.63
9883.56
9898.82
8373.05
9620.11
10375.8
9838.89
-1945.51
-11296
-13544.9
-12703.3
-9121.63
-5680.18
-2982.27
-1982.67
-3695.82
1546.37
5612.52
4590.54
3699.9
3429.19
4582.9
5687.7
5700.49
5719.87
7850.32
7604
6970.95
8227.39
6985.25
7152.64
8672.55
8427.43
9913.51
9185.35
2434.18
-11825.5
-17416.1
-15680.5
-13370.7
-12035.7
-13336.8
-11999.7
-1787.05
-11349.9
-36416.2
-36953.8
-29514.1
-12709.5
-8317.31
-12404.8
-19940.4
-26012
-29606.2
-30092.7
-29045.2
-30387.8
-30951.1
-28674.5
-30042.1
-28491.1
-21770.8
-18334.9
-17745
-16721.7
-17793
-22258.8
-29870.7
-32549.5
-33432.6
-33753.1
-35048.9
-33946.8
-29733.8
-28653.7
-45419.3
-50459.2
-42575.9
-36214.8
-36544
-39567.8
-42937.7
-44229.9
-45271.1
-44775.5
-45113.5
-44258.3
-42195.4
-38925.6
-35396.8
-31761
-31991.9
-42699.2
-55912.7
-63088.5
-70182.9
-91745.7
-101021
-102860
-99209.7
-99999.9
-102369
-102666
-101618
-92392.7
-87684.4
-82358.7
-83430.7
-84693.2
-84553
-80531.6
-75309.9
-68999.7
-62332.6
-54604.4
-48092.8
-43481.3
-41893.3
-43144.8
-47737.9
-55085
-64488.6
-73829.9
-82610.8
-86237.7
-88010.4
-88210.7
-90084.8
-87225.8
-92898.1
-91698.3
-96138
-94145.6
-94009.9
-93447.3
-79632.6
-109962
-124693
-122529
-111094
-74028.8
-25144.4
-2675.04
-861.395
3560.49
10339.9
19535.4
25374.3
30876
33044.4
36871.9
30130.9
25088.2
15856
249.709
-18483.1
-32094.1
-37156.1
-32340.3
-24910.2
-15180.9
-690.86
4917.83
3101.26
-15627.8
340902
336107
326431
313688
303856
295141
290118
290908
310649
334055
339702
333931
345806
397742
142184
159606
186109
208079
214487
222429
236890
241090
229858
212486
197389
177097
154867
144060
143143
149783
161625
173964
183022
188686
185175
179726
172284
165986
166118
167480
172661
173875
162252
137966
54460.7
59798
76072.3
85661.6
82758.3
74040.1
77400.3
86401.7
94958
90971.5
79923.8
64094.6
62485.9
57225.9
60728
57845.4
60294.8
57886
58383.4
56810.8
54754.6
54103.5
51264.1
50730.5
48239.9
45905.4
46356.4
46864.2
47939.4
43666.4
26178.4
25304.2
25357.9
24309.3
22561.2
23036.5
26017.3
30337.8
37647.3
46291.3
48898.3
39827.9
34103
33581.5
32338.1
28682.3
29619.8
29766.8
25940.2
25011.4
26122
26910.6
26420.8
26393.8
25980.4
23172.5
20241.5
17125.9
16387.2
15505.8
28177.5
23349.4
20746
28027.9
41020.4
51941.5
58406.6
64382.5
69810.9
70773.2
72518.7
74841.4
74160.7
75795.7
73419.7
72685.3
70586.6
69784
64653
56946.7
49134.2
43522.5
37526.4
21593.2
5692.97
1234.72
3405.56
3558.97
-92.2463
1014.83
1713.82
9719.22
10198.1
6606.61
4865.15
5742.78
1297.3
-6386.06
-12856.6
-14655.3
-12192.6
-855.037
11108.7
14000.9
16133.1
21185.8
29828.9
38917.6
47056.3
55115.8
58033
59588.1
59173.7
56308.7
49800.4
37926.8
26689.1
19746.5
14143.6
16584.9
-41796.9
-28759.9
-29734.4
-33492.4
-34872.3
-35351.2
-42139.5
-49684.8
-57578.8
-62095.7
-64671.3
-64444.6
-61483.6
-58054.1
-56094.4
-51407
-49313.2
-41559.2
-43014.6
-39986.2
-40852.9
-42754.3
-44718.3
-49571.6
-51202.6
-52916
-52785.2
-60406.4
-80593.7
-97178.1
-19049.5
2246.13
8250.65
8889.1
11206.1
10319.6
10543
10497.3
11001
7472.65
11850.7
10427.9
5392.91
4703.97
5832.72
7762.76
6103.69
7744.66
8339.07
8356.6
10391.2
10986.3
5135.59
-7295.05
-15100.8
-15602.4
-12369.8
-7423.42
-4390.97
-2695.89
-841.619
2860.5
2562.91
1247.08
1251.37
2644.66
3636.7
2899.44
3378.86
6236.29
3673.6
1474.32
-112.218
-871.15
3738.12
5079.67
5260.97
5256.76
7306.61
9373.26
5605.62
-5103.12
-18137.6
-17777.5
-11147.8
-9479.36
-11052.3
-13314.2
-6132.59
-8272.5
-38491.3
-36775.2
-16261.6
-1001.77
-7913.43
-20027.2
-27166.7
-32058.9
-34490.1
-33077.3
-36027.1
-37764.5
-37289.2
-38016.1
-35368.9
-35303
-33528.8
-26326.9
-20629.9
-19593.4
-17175.2
-17198.4
-24355
-29533.8
-31679.2
-32453.4
-34024.6
-34321.6
-30730.5
-27583.7
-47682.1
-48388.7
-35512.4
-34656.6
-38377
-43243.7
-45666.5
-46417.3
-46636.7
-47916.1
-47721.6
-47955.4
-46299.3
-44532.6
-40160.8
-35744.6
-32492.4
-35113.6
-42686.2
-49817.7
-58493.2
-86023.1
-98449.8
-97201.7
-91149.4
-91097.6
-96461.5
-99537
-98647.1
-89466.5
-82533
-79018
-82233.3
-82787.7
-78455.1
-71147.9
-61877.6
-50934.2
-37721.8
-26131.5
-17428.4
-11017.3
-7791.41
-9574.21
-16122.3
-25868.2
-39565.3
-56458.8
-72680
-81939.6
-88441.3
-86663.6
-88860.9
-87360
-91215.9
-93453.6
-95591.2
-95769.6
-94483.3
-93131
-76759.3
-109227
-110862
-102927
-80718.6
-34942.1
-4786.01
3904.75
8370.23
17750.1
28027.3
36283.9
44627.4
48304.7
52420.5
51783
50052.6
49963.4
41700.9
28500.7
12274.4
-11773.5
-33363.7
-34182.6
-23797.4
-22087.4
-12794.9
-720.392
-6942.06
-20589.8
337070
328181
310062
299982
297348
293893
282670
265276
269048
300035
338745
336293
339257
389873
142772
158133
187234
220803
234300
244736
252764
243379
218775
200471
193096
168981
146696
142928
151867
171437
194603
214944
229736
233581
230507
217441
200900
183827
172825
170192
173705
176591
167034
140602
53701.2
58216.4
70567.2
73375.1
63356.6
57885.5
71472.7
85035.2
90359.8
78714.6
66736.3
58919
64406.8
60377.7
68918.1
63129.5
66209.4
65948.3
64120.8
61892.6
59624.1
57319.9
55068.3
53328.2
50532.8
49161.1
46863.6
48690.2
48895
46897.9
25703.3
24989.4
23498.7
20845.5
18291.4
17547.7
20069.1
27421
36383.8
44396.5
44970.4
34686.2
33451.2
32154.2
28784.9
28996.7
28654.5
24761
23734.9
24961
24789.2
25331.1
26215.8
25440
24666.7
25384.9
22144.3
19627.4
18382.4
17432.6
29420
25024.6
23626.8
38949.6
50093.2
56804.6
61685.1
67313.5
72435.4
69242.7
76001.8
70889.5
73945.8
72436.4
77265
74344.7
73670.5
71463.4
70185.2
64720
56105.8
48797.5
44061.8
31419.4
13607.2
2631.08
6904.7
5669.65
-1133.32
-1374.48
328.927
9699.61
13237.2
13177.1
14441.9
18241.3
9687.9
-2504.51
-12471.9
-14224.2
-9182.58
4873.51
11496.5
9550.61
12308.7
22511
35451.1
47847.5
58795.7
65586.3
72234.1
72907.6
74139.4
68480.3
62300.4
50996
37640.2
25541.3
18262.3
17688.1
-40559.7
-26513.1
-28413.4
-31743.9
-30252.3
-31341.1
-35990.3
-40955.4
-50637
-58008
-61526.9
-61873.8
-59402.9
-55814.4
-54025.7
-48453.2
-42119
-38918.7
-36270.4
-31841
-33779.8
-35229.3
-40167.5
-44155.6
-49236.7
-51992.4
-52455.4
-55677.8
-72987.8
-95166.5
-21210.7
5216.86
7479.84
12899.3
13874
10941.6
9142.04
11956.7
9128.6
6719.17
10852.6
2805.54
967.505
2148.88
1504.28
-209.204
3106.91
4847.27
5469.44
8340.55
9121.52
11154.4
8525.7
-2799.38
-12430.6
-16655.1
-14226
-8840.86
-4535.57
-2522.4
3229.3
3068.49
104.956
-1025.19
-124.994
1270.42
1448.34
1579.78
3813.36
-1956.72
-6951.98
-7868.69
-6044.57
-5945.72
-8882.95
-2108.91
3083.52
3384.11
3077.56
7695.53
8003.27
-2002
-14564.9
-19298.3
-13809.6
-7302.68
-8336.62
-13143.2
-8816.71
-6649.95
-38268.1
-30965.1
2559.36
6422.03
-10670.6
-27532.9
-33096.5
-32727
-34375.1
-39671.2
-44987
-47875.8
-50957.8
-50328.8
-48051.1
-41826.4
-40202.7
-36505.6
-25211.4
-22916.3
-19671.3
-17472.6
-19209.1
-26870.2
-30256.3
-30709.2
-32295.2
-33888.7
-31154.8
-28143.6
-46608.9
-37441.9
-29498.5
-35782.7
-43637.8
-44887.8
-46195
-47279.7
-47898
-49689.6
-52651.5
-51244.5
-51546
-48220.6
-44201.1
-39475.2
-35175.7
-33712.5
-37203.2
-42148.8
-51089.4
-82889.6
-96577.3
-88951
-85300.3
-84056
-90322.6
-92351.6
-91690.1
-85646.3
-80603.3
-77974.8
-80549.6
-78068.2
-69874.1
-58082.5
-44463.6
-28392.9
-13361.5
-1343.14
8065.19
15969.7
18709.8
16791.1
9824.28
-1496.03
-16882.7
-34478.9
-55743
-76755
-86536.2
-85780.3
-89661.6
-86047.3
-94170.4
-91267.1
-97881.8
-96606.3
-95106
-94749
-76844
-99917
-89072
-73598.2
-47106.4
-10400
5735.99
10578.8
19189.2
30617.6
40385.2
46766.8
49690.2
53786.1
56861.7
58893.1
58487.7
56428.7
50549.9
44819.8
35063.4
13239.3
-16948.4
-35621.7
-23775.1
-19154.9
-25384.9
-20576.8
-22397.5
-22917.4
338903
314086
302447
319307
344266
353159
334578
286403
255673
270792
326863
336684
340079
382760
141759
155189
181221
222170
243094
251191
249735
224954
192228
181790
183935
158055
140945
146502
167919
198442
228684
252137
267380
276122
272259
257279
232340
205341
182561
175117
175825
178666
169100
140581
53609
55550.7
63613.4
61011.6
51546.3
52635.2
74467.2
85311.3
82620.9
66171.5
62445.6
62743.5
69589.7
68036.6
70843.6
69973.2
65220
68639.8
62801.6
65332.2
64008.4
62975.1
58974.3
56040.7
53736.2
51239.9
49289
49585
51009.2
47610.3
25894.5
24072.8
21548.2
18529.3
16639.5
16242.3
16464.6
21454.3
34021.1
45336.4
40589.3
32866.9
31841
29957.5
30136.1
27638.9
23185.6
23241.1
23915
22510.1
20203.8
19965.9
23470.4
25465.5
25030.5
24885.7
24325.3
22040
20019.4
18878.4
32201
24995.1
31064
46871.1
52760.9
57730.5
64092.5
69196
69684.5
72444.8
73980.2
70937.5
73382.6
75975.8
72768.6
77428.4
75659.2
71339.6
72972.3
68795
61048.9
54441.1
47357.1
39406.5
23540.1
11025.3
11787.7
11102.6
1351.7
-1602.77
-1508.86
8609.93
15824.3
18942.9
22898.2
25199.6
14831.6
-1439.91
-12153
-14028.2
-6799.49
8353.28
8014
4171.23
11111.8
26382.6
42274.4
58243.4
70626.5
79153.1
81417.1
82748.3
84977.9
77463.3
73393.8
62129.9
46229.4
32221
21705.5
19769.7
-39571.7
-24413.2
-25592.9
-25642.3
-26088.2
-26771.9
-27012.7
-31824.6
-41121.6
-50852.3
-58509
-59711.9
-57145.9
-55463.9
-52282.6
-42849.7
-40503.9
-34865.5
-29441.1
-27893.4
-29106
-27999.2
-36875.1
-38727.5
-48113.1
-50222.4
-52161
-54080.6
-69062.2
-93527.8
-21380.2
10100.6
10919.8
17189.8
14550.1
10282.8
9664.29
11318.6
6255.57
6927.55
6319.88
-4362.68
-6409.63
-8990.97
-10606.1
-4756.94
-3475.77
640.969
2789.18
6296.05
8575.34
10255.2
9756.35
2323.82
-8920.38
-13724.3
-14699.1
-10411.9
-5420.73
-3279.12
1960.11
-2778.26
-3297.66
-1163.55
175.599
56.7267
-9.3084
1780.54
-2412.06
-9617.83
-9346.34
-6883.84
-9441.79
-8850.29
-6504.86
-10182.2
-9287.07
1918.35
1938.61
3032.37
8607.24
805.375
-13023.8
-17941.8
-15330.1
-8191.91
-5725.71
-11340
-11125.6
-5775.56
-37453.8
-7252.27
23021.3
9634.19
-15356.3
-28056
-31897.7
-35183.6
-42214
-47199.4
-54337.7
-58101
-59155.4
-59635.2
-59765.1
-55625.3
-45728.6
-45405.2
-33781.4
-27842.5
-21663.5
-19978.6
-18867
-24165.7
-29086.9
-30745.8
-30506.8
-31739.6
-30363.1
-26025.4
-39802.3
-23802.9
-28012.6
-41768
-45518.2
-45403.8
-45602.6
-44960.7
-47793.6
-48167.5
-47937
-50704
-48670.9
-51178
-46932.7
-45476.4
-38032.5
-34719.5
-35074.7
-38590.4
-48103.3
-83920.8
-92866.1
-85189.6
-80866.5
-80389.6
-80920.5
-82281.7
-81535.9
-81551.2
-79510.6
-77116.1
-77942.4
-71536.1
-59981.8
-45562.6
-27935.5
-10656.6
3775.61
17644.8
30785.7
35604.4
35011.8
32397.3
25099.9
13056
-1085.79
-17555.1
-40254.5
-65985.2
-83646.1
-86271.2
-88617.5
-87346.7
-95014.7
-91509.2
-98970.7
-95808.7
-95262.7
-94457.9
-72325.8
-88115.3
-63721.1
-45287.8
-24609.8
531.724
11210.4
17972.4
28525.9
38489.7
45608.2
50962.2
54715.7
56918.4
57812.1
63913.2
60105.2
58755.9
57907.8
51402.9
39013.3
30949.6
7567.16
-30961.4
-37929.5
-9501.12
-18836.5
-25797.9
-22733
-20156.9
333189
305414
334809
383504
409444
415267
400932
341423
269343
261615
316371
339608
340056
379698
142702
151849
167846
207293
236514
243049
233261
196191
166673
170201
175819
147733
139843
156445
189163
226375
255584
278374
293324
297956
297707
282941
255748
218269
192143
180188
178758
180976
168152
137643
52682.5
52718.1
55716.8
51050.3
44782.8
57985.7
79559.6
82776.8
72050.4
61579.4
63666.3
69138.9
71434.8
75224.5
68553.1
72489.9
64518
64898.6
62839.7
63114.8
61862.2
64754.3
61433.3
58923.1
57014.2
52712.1
51681.4
51018
52674.1
50399.4
25157.6
24580.2
21942.5
19460
15602
14272.1
16238.6
19581.8
28921.2
44712.7
39597.7
30374.4
30239
32764.7
29472.5
23926.4
23966.3
22871.9
17080.9
16358.4
19073.8
19379
19956.8
25085
24392.1
25448
25499.1
23460.8
21921.4
21239.9
32423
26442.3
41116.3
48061.8
52868.6
58619
65190.1
68018
69068.9
72894.6
73449.2
70969.4
77019.6
72096.5
75316.4
72442.5
78191.9
71623.4
74527.7
71739.4
65798.8
57703.4
51388.1
43125.1
29769.1
16106.7
15520.8
12854.2
-15.0107
-3008.59
-3764.12
5489.97
14834.7
21317.2
25220.7
25060
13915.4
-1996.99
-12248.2
-12899.3
-4499.16
8266.74
3512.02
1192.66
10663.5
29999.4
48229.4
62795.6
76638.8
85599.5
91959.3
89976
94142.6
84304.2
82052.2
68846.1
53436.1
36698.4
24718.4
21747.1
-39955.6
-22200.6
-20262.9
-18806.1
-21441.6
-21612.6
-22219.8
-22259.3
-28302.7
-40772.1
-53844.4
-56958.2
-56653.4
-55338.2
-47804.8
-43488.2
-38531.2
-30829.3
-27889.4
-23037.1
-25306.6
-23938.5
-33829.8
-35471.7
-47432.3
-48448.9
-52503.9
-53465
-68185.2
-93401.3
-19502.6
11944
16687.2
19780.9
14451.7
10482.7
9491.33
10062.8
5893.29
6899.59
35.7266
-9597.91
-14075.1
-18270.9
-20163.9
-17686.5
-12735.1
-3813.99
348.612
3413.26
7111.74
9856
9902.12
4567.1
-3955.66
-10168.9
-12332.5
-7416.65
-2568.59
-1571.15
-2362.76
-2617.31
-2006.73
-2902.02
-2616.76
157.55
-554.288
-1105.04
-6458.12
-13526.3
-8458.38
-18562.4
-23137
-20490.5
-18093.9
-6766.74
-11038.7
-5171.19
-1345.37
3121.66
4106.03
3564.72
-9914.09
-17877.6
-13302.1
-7730.04
-5908.99
-8694.03
-11718.1
-6924.84
-27100.2
18004.6
36390.8
15478
-15880.2
-29486.8
-35249.3
-39491
-46077
-50636.7
-63460.8
-62742.8
-69028.4
-69751.8
-69478.1
-68087.3
-56884.1
-49642.8
-42427
-33237.3
-24332
-21606.3
-21508.2
-23855.7
-28196.7
-30154
-30815.4
-31670.5
-31186.9
-28696.6
-17843.4
-18846.2
-34708.8
-44851.2
-46189.5
-44795.4
-43140.2
-45872.4
-51236.7
-51467.4
-55605.2
-55155.2
-55732.2
-52892.7
-48953.4
-46950.3
-40442.4
-35762.2
-35244.5
-37361.1
-48668.2
-84941.7
-89848.1
-82868
-80040
-79747.4
-81468.1
-81096.3
-82429.6
-84262
-78387.4
-75119.2
-75296.3
-65637.1
-51457.9
-33974.9
-15678.4
1343.76
18469.9
32501
38223.3
42128
44369.5
43999.4
34921
22415.6
5000.81
-11790.9
-28888.3
-54942.7
-81341.6
-84753.2
-89476.8
-86494.7
-95112.2
-91952.1
-99825.7
-94909.3
-96708.1
-96949.7
-69164.2
-76399.4
-47281.2
-23289.7
-7583.2
8874.96
16245.9
23829.2
34440.7
42825
48273.9
51825.1
55690.7
60782.5
62188
61931.2
60994.2
64755.4
62463.6
51832
42308.8
34150.6
25666
-10417.5
-51157.6
-22978.6
-1036.39
-10229.9
-10696.2
-5877.92
321674
314218
384998
421615
427400
427759
422486
376784
285374
266054
321447
343392
344287
380731
139555
150679
152468
181469
207922
215888
198993
167142
153226
164879
166906
141037
140646
167430
204139
240476
264151
281377
292372
301287
302980
293321
260380
220899
196334
183953
182083
181921
162570
133981
52621.6
50138.4
50025
45136.7
46029.4
65983.2
82632.6
76869.2
63588.9
61811.4
66770.6
73717.7
73274.4
75943.4
69083
71068.5
62846.6
64113.9
60970.2
61346.6
62357.2
64598.8
63280.1
61674.9
58786
55516.3
52800.5
53377.7
54526.1
50384.8
25001.2
24129.9
21971.2
17692.7
12997.2
11222.3
12441.9
17448.4
27262
42184.5
36287.7
30999.5
33241.7
32457.7
27245.7
27361.1
23376.1
17587.1
18538.5
16448.8
16509.4
21410
19054.6
22164.4
26177.1
26739.7
26059.5
25758.8
24740.8
22540.1
32814.6
31259.1
43904.8
46707.6
52163.5
58804.7
63241.7
66915.7
71502.7
73149.1
68653.5
77643.2
78168.1
78012.8
76333.9
75656.2
80929.3
71047.3
73772.1
74179.8
67929.1
60158.7
53876.5
46825.9
35661.9
23924.7
22429.8
15519
2028.09
-2848.8
-6010.44
944.425
11511.5
19269.4
23403.2
20134
8953.16
-5532.03
-12810.3
-12312
-2596.08
6805.3
476.817
125.468
9765.81
29342.1
51325.5
64191.4
78591.5
89726
96258.9
94015.9
98656.1
89251.6
86495.6
73150.2
57129.4
39297
27003.6
23351.1
-42752.7
-21080.2
-15863.1
-11468.1
-14162.1
-17267.7
-20778.5
-16689.1
-17869.2
-29912.7
-47142.9
-55404.4
-56720.2
-53267.5
-48727.8
-45115.9
-37465.8
-30617.7
-27029.3
-22665.6
-23965.2
-24066.2
-33602.3
-35600.4
-46835.7
-48521.3
-51801.1
-53905.8
-70117.2
-96588.3
-15729.2
12578.8
22975.9
22258
14891.2
10465.7
8994.37
7405.72
7132.98
6740.68
-6047.06
-10430.8
-19658
-21940.6
-27603.6
-22462.7
-18471.9
-7727.53
-4050.99
3752.69
5448.57
9756.36
9134.04
5785.9
-1371.51
-6745.68
-9793.74
-5048.61
-1206.64
-1004.26
-2455.57
-4940.96
-4753.29
-2669.94
-1681.25
-1237.53
-1802.73
-2999.07
-9959.75
-12329.5
-12812.3
-20230.4
-17568.2
-18240.3
-25954.6
-12904
-16423.6
-2600.23
-8064.56
3853.1
1587.99
2207.43
-6502.36
-14562.5
-12298.3
-5134.95
-4873.68
-8020.34
-10515.3
-6008.25
-6623.44
40424.7
45289.4
21196.9
-14632.8
-33613.4
-36977.3
-40889.4
-50241.8
-55144.2
-69544.1
-64295.7
-72301.2
-71433.9
-69981.9
-72345.4
-58897.3
-56384.7
-46716.5
-39399.2
-27728.9
-23644.2
-23645.6
-26528.8
-29332.7
-31039.8
-30290.4
-29005.6
-27890.1
-25469.3
-11873
-21024.2
-37794.6
-45253.1
-44028.5
-44617.6
-43137.6
-44213.6
-53275.9
-48842.3
-49895.7
-55032.2
-50972.2
-55099.4
-47313.3
-47798.8
-41538.5
-37310.3
-35732.6
-37268.1
-53503.7
-85378.3
-84529.2
-76931.9
-71472.8
-71836.2
-73786.6
-78948.1
-85922.8
-97263.1
-79307.4
-72058.9
-71191.2
-61235.5
-45116.3
-26905.1
-9208.37
9585.21
26170.6
35466.7
40654.1
46075.4
47502.5
48039.8
39880.2
24490.6
5790.74
-12820.9
-25671.1
-47516.9
-75743
-86228
-87266.5
-87762.6
-94006
-93748.6
-97964.3
-94347.6
-98118.3
-96264.7
-61306.9
-68512.7
-41643.1
-8763.23
281.735
12125.5
19531.2
28491.7
36875.5
44550.5
49076.7
53508.4
55894.5
62485
60682.9
60049.6
65313.3
67117.9
57711.2
57487.7
43428.4
30389.6
25956.2
12316.1
-47200.9
-52010.2
-8126.6
-1995.91
-7626.65
-10478
319104
345373
417276
423747
409996
418240
419452
368953
292855
291541
338146
349017
356071
326595
226651
158916
142221
150677
147019
155516
173408
176837
162693
148043
149922
163953
157476
138020
144414
176185
212859
243890
262282
275323
286483
295005
295791
277759
247797
213539
196503
185759
187916
177927
153353
123994
89239.2
60622.2
51028.4
47845.9
45205.1
43788.6
50630.6
78803.7
81151.4
70939.8
59241.5
64024.6
68636.3
76612.8
74416.4
77307.5
69354.5
71629.7
63607.5
65693.1
62773.1
63327.4
64878.9
65736.2
65998.8
63170.8
59892.3
56284.7
53131.7
54460
55259.9
51393.7
39886.1
33712.5
24692.1
22688.1
20741.1
17164.5
12548.4
11828.8
12755.8
13693.8
22890.6
42435
35568.5
31082
32946.7
31966.9
30996.5
28129.1
22186.1
20098.8
20327.7
17674.6
18602.4
21803.7
18425.7
23028.7
25090.6
26988.8
25752.2
25622
24688.2
23241.2
32353.8
35526.7
33332.6
37234.5
40622.5
43603.1
49514.9
56542.1
60489.4
66494.3
73530.8
69269.4
70104.9
79159.9
79495.3
79455.4
79228.5
77302.6
83001.5
71025
74973.4
75054.7
68454.9
61197
55600.4
48729.2
37872.2
28008.8
25319.2
13760.5
1761.2
-5010.55
-2499.34
-4440.6
-5761.06
-3584.18
4115.95
11894.3
14694.6
11097.3
876.172
-8737.53
-13043.1
-11221.9
-1748.43
6773.47
-366.411
-2148.52
8234.91
26798.1
48060.7
65232.8
75720.3
86197.8
93845.2
93917.9
100638
90674.5
87278.8
73228.6
56060.3
39131.1
27472.6
23644
-13587.1
-45226.5
-43673.9
-22816.6
-13340.9
-7379.64
-6635.54
-13199.5
-19289.4
-15973.1
-14589
-18592.5
-38294.8
-54096.7
-55073.4
-52771.6
-51009.3
-46276.7
-36044.9
-36311.3
-30774.1
-28684.6
-28036.4
-27058.5
-35976.4
-38231.5
-45884.4
-49781.7
-50509.1
-55468.3
-74449.1
-90225.9
-3766.44
-226.465
-5847.85
18871.7
27513.3
23753.9
14916
10225.5
8175.29
7290.88
8025.68
6805.44
-8843.96
-8396.8
-18841.7
-24267.1
-28669.5
-22479.2
-21966.6
-7280.34
-5741.57
2730.8
3911.12
7829.75
8347.81
6423.09
795.426
-5644.82
-5599.87
931.107
656.131
-485.655
-4177.8
-5231.01
-6214.16
-5197.78
-3666.98
-3825.04
-2088.21
-2310.64
-1794.46
-2770.74
-11584.5
-10303.6
-14949.8
-22120.2
-20862.9
-19375.1
-25984.4
-11470.5
-21251.1
-2566.2
-11935.4
2671.58
-631.772
2079.25
-6814.18
-9539.01
-9063.95
-5537.16
-3265.08
-6009.09
-10897.9
-7204.71
611.502
20034.1
30311
56140.2
49859.5
25687.1
-14611.4
-32416.4
-37188.4
-45241.2
-49202.6
-57481.3
-70414.6
-67285.3
-76438.3
-76110.7
-76081.2
-75706.9
-61785.3
-59129.4
-50549.6
-39315.8
-33486.2
-26820.8
-25133.6
-28129.4
-30548.1
-30693.7
-29895.8
-30537.5
-30694.8
-25311.9
-3459.04
-4761.22
-10263.7
-20928.6
-35035.2
-45623.9
-44015.4
-41022
-44454.7
-42951.1
-49352
-52000.8
-55635.7
-57787
-53004.7
-52401.9
-46673
-45774.7
-41656.2
-37526.5
-35323.3
-38097.6
-58945
-82600.7
-74464.9
-65207.5
-63081
-61898.4
-63416.8
-63802.7
-67107.4
-77393.8
-83323
-94337.6
-81815.9
-73589.8
-72146.3
-61583
-45507.6
-26939.4
-7667.63
11212
24286.8
36943.9
41135.8
47383.7
46460
46567
36294.7
20909.7
747.967
-17058.3
-29961.4
-44244.4
-72195.8
-86087.2
-83975.5
-88701
-91488.4
-95930.7
-96594.6
-98200.9
-96846.5
-87520.1
-65890.9
-48748.9
-55668.1
-48255.8
-30956.1
-928.501
7879.59
14702.7
22226.3
28823
39349.7
43230.7
50293.1
51030.1
57185.8
60120.6
60195.4
59540.4
66457.3
60849.2
61244.2
56835.7
41693.4
25577.2
23924
20515.8
-28182.7
-75071.4
-44204.9
-22757.5
-17867.9
15935
89051.2
105381
318145
370678
416794
396685
384253
401390
404662
362878
313855
326245
349161
352837
350419
289765
194786
147784
144555
150922
144030
142822
145626
145947
142770
143087
151979
162633
148286
135432
146913
176667
210706
239070
253847
261097
267780
268418
268750
248208
227893
206012
196927
190430
186403
166019
134580
101238
74554.4
54392
50413.3
45644.4
43977.6
45696.9
63992.9
87819.4
82137.1
66457.7
57375.5
64969.4
69190.3
76884.4
75038.3
76627.9
72129.6
71453.3
67495
67060.5
63608.5
63836
65758
64854.9
64169.8
63162.2
59066
56583.3
55822.5
55468.2
55906.3
53134.8
44958.6
35810
28456.9
23244
20807
17662.8
12883.9
10383.5
12246.8
13546
19026
39236.2
37585.8
29016.3
31799
34101
33072.5
28511.8
25502
21965.2
19847.6
19608.6
19513.9
19598.1
20078.5
25585.9
26382.5
26926.9
28424
28173.7
26656.7
26937.7
37782.6
34726.3
35645.9
36051.1
35053.5
39083.2
45182.6
52877.7
57474.1
67251.8
72025.6
67505.8
71958.4
78226.7
74190.4
81443.4
80518.4
80871.1
80123.7
71439.2
76662
74611.8
67146.2
61239.9
56027.1
49520.6
40231.3
33487.5
25201.2
7351.17
-604.092
-6292.73
-7049.25
-7704.98
-5849.04
-5789.65
-2367.87
1802.51
3754.85
168.696
-6053.73
-11567.5
-12331.1
-9183.3
-1863.2
5104.53
86.908
-2322.61
4040.07
20663.6
42463.5
62547.6
76142
84714.3
89824.6
96175
98621.4
86464.4
84482
69614.4
52539.5
37925.7
27806.2
20505.5
-25540.9
-48749.3
-46572.7
-26193.7
-14912.7
-7286.07
-6439.44
-8579.76
-16806.8
-18881.8
-14978.8
-12384.4
-28604.1
-50606.3