/*--------------------------------*- C++ -*----------------------------------*\
| =========                 |                                                 |
| \\      /  F ield         | OpenFOAM: The Open Source CFD Toolbox           |
|  \\    /   O peration     | Version:  2.1.1                                 |
|   \\  /    A nd           | Web:      www.OpenFOAM.org                      |
|    \\/     M anipulation  |                                                 |
\*---------------------------------------------------------------------------*/
FoamFile
{
    version     2.0;
    format      ascii;
    class       volScalarField;
    location    "0.002750000";
    object      cSound;
}
// * * * * * * * * * * * * * * * * * * * * * * * * * * * * * * * * * * * * * //

dimensions      [0 1 -1 0 0 0 0];

internalField   nonuniform List<scalar> 
12384
(
1045.84
1034.86
1015.5
1004.87
1007.07
1009.44
1015.65
1000.27
978.484
956.182
958.802
987.801
599.26
485.952
576.815
747.102
958.852
948.553
967.42
971.871
977.436
977.974
978.052
976.29
970.727
966.3
965.459
962.003
962.31
962.41
957.823
955.429
951.139
945.691
939.113
928.438
908.415
905.024
897.995
613.53
547.766
501.277
491.032
494.309
958.598
1009.43
1050.5
1073.27
1072.16
1075.93
1068.94
1050.16
1056.57
1044.11
1044.65
1044.86
1044.01
1045.93
1043.93
1048.06
1041.64
1034.73
1034.91
1019.78
1019.46
1003.46
1009.43
997.241
981.203
959.44
923.062
668.376
606.724
553.619
944.329
964.257
1016.52
1033.47
1049.09
1059.18
1068.89
1068.36
1060.8
1041.23
1024.46
1008.54
1008.74
1013.35
1018.41
1022.84
1020.3
1015.33
1009.35
1004.25
643.37
579.119
554.867
531.421
509.488
453.95
453.781
450.817
471.042
461.633
587.386
687.359
964.713
1019.06
1035.85
1041.04
1056.47
1049.51
1080.68
1080.04
1099.63
1104.21
1103.75
1120.11
1140.66
1161
1147.43
1101.79
781.291
560.486
499.876
489.584
492.238
490.55
493.928
484.392
486.635
476.484
486.053
487.905
488.603
481.772
473.974
471.243
471.811
477.654
478.088
499.407
486.495
531.489
548.99
567.79
571.897
565.492
567.291
562.629
563.24
558.915
556.622
548.732
548.61
545.063
546.049
547.23
548.224
554.388
539.861
547.45
524.595
525.916
425.933
425.149
424.69
426.26
426.206
427.867
427.877
428.771
428.373
427.599
426.61
424.351
424.741
421.233
422.186
418.506
418.516
417.812
415.181
415.744
414.173
412.752
413.314
411.604
412.081
411.063
410.86
410.797
410.441
410.525
406.116
406.014
405.971
405.95
405.906
405.85
405.82
405.722
405.722
405.613
405.614
405.543
405.453
405.479
405.342
405.399
405.274
405.333
405.229
405.278
405.19
405.231
405.159
405.194
405.135
405.168
405.122
405.145
405.126
405.246
405.133
405.017
405.011
405.006
405.005
404.999
404.996
404.993
404.989
404.986
404.981
404.978
404.97
404.965
404.959
404.96
404.962
404.967
404.973
404.976
404.978
404.981
404.984
404.986
404.989
404.992
404.994
404.997
405.004
405.118
405.119
405.006
404.997
404.993
404.991
404.988
404.984
404.983
404.979
404.977
404.974
404.972
404.966
404.961
404.957
404.956
404.959
404.965
404.972
404.976
404.978
404.982
404.986
404.987
404.99
404.993
404.995
404.997
405.004
405.119
405.118
405.004
404.997
404.994
404.992
404.988
404.986
404.982
404.981
404.977
404.976
404.971
404.966
404.96
404.957
404.956
404.959
404.964
404.971
404.974
404.977
404.98
404.984
404.985
404.989
404.992
404.994
404.997
405.004
405.118
405.118
405.004
404.996
404.994
404.993
404.989
404.987
404.983
404.981
404.976
404.975
404.97
404.965
404.96
404.956
404.956
404.96
404.965
404.971
404.975
404.976
404.98
404.982
404.986
404.987
404.991
404.993
404.996
405.003
405.118
405.118
405.003
404.996
404.992
404.991
404.986
404.986
404.981
404.981
404.977
404.976
404.971
404.967
404.96
404.958
404.956
404.96
404.963
404.97
404.972
404.977
404.979
404.983
404.984
404.989
404.991
404.994
404.996
405.004
405.118
1040.69
1001.23
952.777
909.796
892.987
910.949
932.367
947.09
933.47
925.886
927.258
941.802
541.878
479.333
725.846
969.283
952.276
960.328
973.084
992.827
1009.54
1026.86
1031.62
1037.01
1023.99
1014.6
1015.73
1008.34
1001.2
1007.22
989.076
971.873
958.715
948.968
941.972
934.865
920.151
894.193
901.717
890.248
915.394
528.971
489.498
491.005
964.223
1025.59
1063.5
1074.25
1071.75
1059.85
1054.94
1037.74
1041.34
1037.58
1048.86
1053.39
1065.44
1069.88
1075.55
1084.35
1086.38
1094.59
1090.7
1096.57
1087.95
1081.06
1077.38
1060.84
1034.63
963.123
943.891
944.821
1007.79
586.949
951.818
969.658
999.001
1018.76
1034.37
1049.15
1060.22
1065.84
1060.84
1047.67
1033.53
1019.68
1024.07
1026.95
1033.9
1035.02
1032.36
1017.7
1003.05
1003.36
1001.7
979.455
930.251
911.138
960.03
491.553
525.48
582.089
504.596
475.029
670.125
926.859
948.646
973.147
996.657
1011.38
1026.77
1044.62
1058.07
1076.46
1089.82
1101.4
1113.73
1124.23
1145.19
1161.39
1145.71
1146.05
1132.5
757.607
588.786
587.471
525.185
502.138
486.898
478.253
478.563
474.836
487.91
488.532
473.73
464.558
470.903
477.375
480.026
488.868
503.859
514.604
534.2
591.048
705.907
715.702
726.766
704.123
679.826
671.032
654.544
642.335
615.504
607.029
599.291
591.529
574.79
556.499
532.831
501.887
517.299
518.014
525.898
522.336
397.847
396.375
397.804
397.311
399.993
397.97
401.075
400.432
403.165
402.59
405.909
404.667
406.82
406.767
406.877
408.151
406.803
407.423
407.843
406.263
408.076
406.317
407.176
406.803
406.555
406.808
406.503
406.681
406.473
408.796
401.964
400.094
399.823
400.102
400.185
400.321
400.46
400.431
400.579
400.471
400.586
400.456
400.491
400.318
400.344
400.251
400.338
400.357
400.435
400.448
400.481
400.494
400.526
400.54
400.564
400.586
400.594
400.603
400.722
403.261
403.12
400.562
400.394
400.375
400.322
400.303
400.244
400.223
400.167
400.143
400.083
400.048
399.956
399.885
399.822
399.834
399.867
399.955
400.011
400.074
400.1
400.165
400.187
400.249
400.274
400.33
400.356
400.399
400.555
403.131
403.128
400.552
400.392
400.34
400.319
400.263
400.239
400.18
400.161
400.103
400.081
400.022
399.974
399.885
399.847
399.818
399.866
399.936
400.04
400.103
400.143
400.204
400.23
400.288
400.306
400.359
400.369
400.413
400.54
403.221
403.124
400.559
400.39
400.369
400.316
400.296
400.236
400.215
400.157
400.135
400.076
400.043
399.956
399.888
399.823
399.829
399.86
399.948
400.007
400.072
400.1
400.166
400.189
400.251
400.277
400.333
400.359
400.399
400.555
403.132
403.23
400.535
400.387
400.371
400.318
400.298
400.234
400.21
400.147
400.12
400.055
400.025
399.939
399.878
399.825
399.824
399.874
399.941
400.029
400.06
400.123
400.147
400.207
400.23
400.291
400.308
400.363
400.385
400.531
403.226
403.136
400.556
400.382
400.359
400.3
400.282
400.218
400.202
400.142
400.128
400.067
400.042
399.961
399.898
399.829
399.829
399.859
399.945
400.006
400.069
400.096
400.161
400.184
400.248
400.272
400.33
400.358
400.398
400.555
403.136
1006.88
950.869
904.099
879.861
868.325
860.423
859.957
869.273
871.196
876.894
889.941
896.442
520.941
474.429
913.855
935.898
951.549
989.527
1030.28
1065.74
1109.32
1132.79
1145.91
1150.71
1146.24
1144.37
1142.94
1133.79
1126.4
1115.17
1085.9
1042.76
1002.99
966.902
951.972
938.033
921.384
900.697
876.232
869.576
842.907
508.573
477.063
489.758
973.868
1039.1
1066.12
1064.98
1057.39
1032.92
1030.08
1012.28
1027.28
1041.57
1056.31
1076.64
1083.54
1092.99
1092.82
1105.86
1104.02
1112.16
1108.49
1108.77
1115.3
1111.85
1123.58
1117
1102.61
997.066
929.578
928.937
989.648
606.128
969.573
981.342
986.4
994.705
1014.68
1034.36
1050.14
1059.07
1060.18
1051.53
1043.11
1030.96
1031.57
1035.48
1035.78
1037.69
1033.95
1024.31
1002.91
978.632
950.443
933.716
923.023
907.216
897.813
903.131
910.954
921.158
616.945
500.824
665.533
956.253
954.544
973.908
999.243
1012.5
1018.64
1032.71
1047.09
1051.93
1081.49
1096.99
1110.69
1127.51
1139.51
1159.97
1171.29
1168.61
1155.02
1104.22
1085.77
1087.69
624.895
555.891
513.892
479.036
472.053
462.211
477.209
484.305
457.728
466.493
478.282
481.626
490.609
488.98
505.753
526.488
610.202
775.995
1049.95
1038.72
1062.56
1074.25
1093.21
1097.32
1105.01
1090.61
868.876
700.96
637.498
618.378
617.781
594.913
560.162
542.662
517.745
506.034
506.622
493.992
388.134
393.96
393.915
397.467
393.545
396.227
389.456
391.119
387.338
387.511
384.658
383.088
382.804
378.897
379.93
376.816
377.27
374.568
375.016
372.918
372.428
372.232
370.565
371.243
369.721
370.668
369.353
370.262
369.488
367.946
362.888
364.854
365.182
365.076
365.177
365.084
365.163
365.081
365.147
365.087
365.103
365.128
365.12
365.22
365.196
365.21
365.125
365.044
364.958
364.895
364.86
364.781
364.789
364.692
364.714
364.629
364.656
364.595
364.527
361.983
361.896
364.414
364.557
364.597
364.625
364.654
364.686
364.717
364.748
364.782
364.82
364.866
364.937
365.015
365.059
365.06
365.014
364.947
364.877
364.837
364.797
364.76
364.725
364.693
364.654
364.624
364.589
364.558
364.425
361.88
361.879
364.421
364.565
364.605
364.637
364.666
364.701
364.73
364.761
364.791
364.827
364.864
364.927
364.995
365.045
365.059
365.03
364.951
364.864
364.805
364.777
364.73
364.691
364.66
364.628
364.601
364.575
364.541
364.399
361.882
361.881
364.417
364.554
364.595
364.62
364.652
364.683
364.717
364.746
364.781
364.816
364.863
364.928
365.006
365.052
365.061
365.016
364.951
364.878
364.837
364.796
364.759
364.723
364.69
364.651
364.62
364.584
364.556
364.423
361.88
361.883
364.42
364.556
364.581
364.614
364.649
364.687
364.723
364.757
364.796
364.834
364.878
364.94
365.011
365.058
365.057
365.014
364.939
364.875
364.83
364.793
364.756
364.723
364.69
364.654
364.623
364.591
364.555
364.423
361.884
361.882
364.42
364.563
364.605
364.631
364.662
364.692
364.724
364.751
364.784
364.818
364.862
364.919
364.995
365.045
365.063
365.021
364.956
364.883
364.842
364.801
364.762
364.725
364.691
364.652
364.621
364.585
364.557
364.424
361.88
944.749
931.568
938.232
944.045
950.22
911.351
884.664
867.328
861.693
851.548
845.592
704.758
494.379
466.202
905.282
924.558
991.258
1067.05
1120.63
1155.35
1176.12
1197.76
1205.81
1209.55
1209.03
1204.67
1200.39
1191.74
1183.52
1175.38
1156.11
1131.84
1090.49
1031.09
992.717
956.699
927.227
892.6
859.911
833.8
796.361
504.882
472.303
482.388
982.02
1042.36
1059.92
1052.46
1034.67
1016.37
1004.43
1010.05
1047.78
1070.2
1096.2
1101.34
1106.24
1111.58
1114.4
1116.01
1109.42
1084.18
1054.18
1035.25
1049.25
1088.84
1110.6
1134.15
1129.22
1000.22
912.612
888.714
989.096
585.19
981.012
986.224
977.096
974.76
994.997
1022.26
1041.79
1052.4
1056.31
1053.22
1044.55
1040.65
1035.77
1039.31
1043.32
1041.67
1035.9
1027.92
1012.01
962.578
924.059
912.548
905.971
888.238
880.055
886.985
905.519
907.733
577.135
489.22
661.275
949.368
954.078
990.609
1005.12
1016.41
1021.87
1025.44
1030.25
1044.93
1055.31
1085.2
1095.7
1115.78
1135.68
1150.9
1165.72
1169.76
1140.85
1113.5
1082.81
1100.2
1103.34
1116.97
593.627
514.285
477.1
465.145
468.229
476.867
447.56
466.051
487.901
488.281
485.334
519.566
596.799
701.328
1103.13
1089.51
1069.61
1080.43
1087.2
1104.66
1113.22
1123.89
1119.43
1114.46
1127.32
1138.22
1168.71
708.414
600.262
592.415
606.449
580.976
556.275
532.65
514.481
515.086
400.864
413.208
421.244
422.89
426.777
414.591
412.435
399.057
398.65
392.385
391.559
386.736
386.001
382.61
379.246
379.483
376.21
376.18
374.026
372.797
372.144
371.232
370.163
370.267
368.866
369.251
368.256
368.448
367.946
367.592
364.054
364.525
364.337
364.406
364.218
364.262
364.091
364.115
363.959
363.987
363.841
363.88
363.741
363.77
363.687
363.662
363.636
363.571
363.577
363.511
363.525
363.465
363.483
363.433
363.445
363.414
363.419
363.398
363.374
362.928
362.84
363.279
363.309
363.319
363.315
363.321
363.317
363.323
363.32
363.325
363.323
363.329
363.329
363.338
363.336
363.34
363.332
363.331
363.322
363.322
363.316
363.317
363.311
363.312
363.306
363.307
363.301
363.3
363.263
362.825
362.824
363.263
363.3
363.301
363.307
363.305
363.312
363.31
363.316
363.315
363.32
363.32
363.327
363.329
363.336
363.334
363.334
363.325
363.322
363.316
363.313
363.314
363.308
363.31
363.303
363.306
363.3
363.3
363.263
362.815
362.825
363.264
363.296
363.305
363.303
363.308
363.308
363.313
363.312
363.317
363.317
363.323
363.324
363.332
363.333
363.337
363.331
363.329
363.32
363.321
363.315
363.316
363.31
363.311
363.305
363.306
363.3
363.299
363.263
362.824
362.815
363.264
363.297
363.304
363.303
363.308
363.308
363.314
363.312
363.318
363.317
363.323
363.325
363.332
363.332
363.333
363.333
363.325
363.323
363.317
363.318
363.312
363.314
363.308
363.308
363.303
363.304
363.296
363.264
362.815
362.824
363.264
363.297
363.305
363.303
363.309
363.308
363.314
363.312
363.318
363.316
363.322
363.323
363.331
363.331
363.336
363.329
363.328
363.32
363.321
363.315
363.316
363.31
363.312
363.305
363.306
363.3
363.299
363.262
362.823
939.861
981.007
1027.44
1054.89
1068.37
1047.18
1005.14
954.369
921.907
884.5
833.73
786.284
505.999
460.912
911.337
1005.75
1115.1
1153.96
1184.29
1201.05
1220.34
1224.15
1222.7
1213.46
1200.46
1193.2
1185.24
1182.65
1181.1
1179.19
1178.59
1166.49
1143.48
1106.84
1061.4
1004.45
949.083
889.229
838.856
789.622
642.546
524.11
479.52
479.394
988.635
1042.5
1046.45
1033.08
1016.06
996.864
996.258
1041.14
1077.3
1103.39
1105.68
1110.57
1113.5
1120.06
1125.57
1113.58
1080.28
997.927
961.421
966.322
979.331
1008.33
1056.05
1113.25
1127.3
1033.61
904.606
892.788
953.384
628.228
975.371
983.16
968.358
964.474
989.172
1018.5
1035.22
1043.03
1049.56
1049.43
1045.82
1038.37
1035.03
1038.14
1043.09
1047.45
1043.44
1037.57
1024.11
984.514
924.558
894.595
882.557
865.376
864.168
877.075
898.884
925.219
965.89
535.164
641.738
949.215
956.67
986.796
1008.98
1014.28
1014.31
1019.32
1033.59
1045.43
1062.62
1066.07
1089.64
1100.22
1124.36
1153.35
1175.03
1163.06
1146.2
1103.01
1085.55
1096.19
1103.33
1116.52
1148.79
582.316
512.051
470.268
465.817
461.929
443.778
483.361
645.219
612.773
582.345
714.966
1058.61
1066.04
1081.12
1099.71
1128.5
1139.75
1143.3
1144.99
1158.68
1167.24
1169.65
1176.13
1177.63
1175.09
1155.91
951.575
692.603
617.929
605.757
609.027
601.01
569.121
547.016
536.811
409.829
429.13
433.784
445.006
448.812
453.738
436.536
429.95
411.76
408.721
401.114
399.15
393.638
392.667
387.516
385.223
384.496
381.098
381.261
378.58
377.326
377.523
374.874
375.776
373.965
374.068
373.187
373.173
372.536
372.531
369.888
369.72
369.742
369.443
369.457
369.211
369.191
368.995
368.975
368.813
368.799
368.674
368.662
368.544
368.554
368.447
368.452
368.383
368.365
368.322
368.306
368.27
368.263
368.227
368.231
368.192
368.209
368.17
368.174
368.12
368.044
368.079
368.095
368.078
368.091
368.075
368.087
368.072
368.084
368.07
368.082
368.069
368.08
368.068
368.079
368.067
368.077
368.065
368.075
368.063
368.074
368.062
368.073
368.061
368.073
368.061
368.072
368.06
368.055
368.015
368.012
368.053
368.06
368.071
368.059
368.072
368.059
368.071
368.06
368.072
368.061
368.073
368.062
368.073
368.063
368.074
368.064
368.075
368.065
368.068
368.071
368.061
368.073
368.06
368.072
368.059
368.072
368.059
368.065
368.004
368.015
368.056
368.072
368.059
368.072
368.06
368.072
368.06
368.072
368.061
368.073
368.062
368.074
368.064
368.074
368.064
368.074
368.063
368.073
368.062
368.073
368.061
368.072
368.06
368.072
368.06
368.071
368.06
368.055
368.015
368.007
368.062
368.061
368.06
368.073
368.06
368.073
368.061
368.073
368.061
368.073
368.061
368.074
368.064
368.072
368.072
368.064
368.074
368.062
368.073
368.061
368.073
368.06
368.073
368.061
368.073
368.061
368.065
368.06
368.008
368.015
368.056
368.071
368.059
368.072
368.06
368.072
368.059
368.072
368.06
368.072
368.061
368.073
368.063
368.074
368.063
368.074
368.063
368.072
368.06
368.072
368.061
368.072
368.06
368.072
368.06
368.071
368.06
368.053
368.013
1000.47
1060.07
1098.82
1124.14
1146.24
1153.64
1145.36
1120.31
1068.92
997.689
864.717
771.218
700.048
492.195
949.912
1109.01
1163.63
1191.21
1206.13
1224.59
1226.77
1214.41
1186.06
1151.69
1124.47
1099.62
1079.73
1084.5
1113.28
1136.91
1153.88
1163.49
1156.74
1137.08
1105.17
1039.04
951.828
875.754
814.757
765.516
754.332
741.468
534.028
482.046
992.134
1034.84
1034.52
1019.38
997.801
990.262
1030.63
1070.3
1100.11
1101.07
1099.03
1096.97
1100.19
1114.88
1120.67
1105.51
1045.22
971.174
953.048
967.071
996.189
1008.6
1030.02
1100.77
1118.1
1017.16
888.076
866.762
936.35
611.378
956.881
972.793
959.091
964.239
995.547
1020.2
1028.88
1031.66
1038.14
1041.2
1035.38
1035.99
1027.42
1027.83
1031.18
1040.23
1046.63
1048.98
1037.61
1028.88
942.153
892.304
858.259
845.036
841.707
850.957
871.573
909.109
935.261
581.902
611.945
955.982
954.767
984.386
1002.88
1012.87
1006.29
1011.68
1031.3
1047.67
1062.48
1083.63
1085.79
1109.12
1115.47
1139.69
1157.61
1185.55
1138.12
1090.24
1092.97
1097.13
1105.22
1119.63
1128.02
1142.43
589.343
505.266
471.807
458.03
448.268
546.675
1044.51
1032.55
1056.64
1060.83
1061.88
1057.54
1066.97
1078.58
1101.37
1125.29
1138.14
1151.9
1162.16
1174.41
1185.26
1188.53
1188.85
1187.08
1180.94
1174.16
970.175
708.829
619.245
617.617
619.942
609.363
589.786
562.76
415.79
421.579
429.402
431.267
456.559
466.895
472.642
453.528
443.006
423.192
419.151
410.617
408.121
401.786
400.034
395.561
391.705
391.442
387.713
387.707
384.581
384.542
382.858
381.23
381.647
379.477
380.117
378.49
378.831
377.599
376.249
376.753
376.206
376.237
375.751
375.729
375.354
375.335
375.036
375.038
374.8
374.813
374.617
374.619
374.511
374.433
374.421
374.325
374.338
374.249
374.269
374.19
374.215
374.145
374.17
374.112
374.133
374.089
374.07
373.654
373.59
373.995
374.017
374.016
374.014
374.009
374.009
374.004
374.004
374.001
374.002
373.998
374
373.997
373.999
373.995
373.996
373.993
373.995
373.991
373.994
373.99
373.994
373.989
373.994
373.99
373.992
373.986
373.955
373.55
373.547
373.952
373.986
373.993
373.988
373.992
373.988
373.992
373.988
373.992
373.988
373.992
373.989
373.993
373.989
373.993
373.99
373.995
373.991
373.989
373.991
373.989
373.993
373.988
373.992
373.988
373.992
373.986
373.961
373.553
373.549
373.959
373.992
373.989
373.993
373.988
373.992
373.988
373.992
373.988
373.992
373.988
373.993
373.99
373.994
373.99
373.993
373.989
373.993
373.989
373.993
373.989
373.994
373.988
373.993
373.989
373.991
373.985
373.955
373.55
373.554
373.959
373.983
373.987
373.992
373.988
373.993
373.989
373.993
373.989
373.993
373.989
373.994
373.99
373.991
373.992
373.991
373.994
373.989
373.993
373.989
373.993
373.989
373.993
373.989
373.993
373.988
373.984
373.958
373.554
373.548
373.959
373.99
373.988
373.993
373.988
373.993
373.988
373.992
373.988
373.992
373.989
373.994
373.991
373.995
373.991
373.994
373.991
373.994
373.989
373.993
373.989
373.994
373.989
373.993
373.988
373.991
373.985
373.953
373.548
1078.11
1113.53
1142.21
1168.16
1187.94
1193.08
1187.86
1173.87
1157.85
1135.19
996.136
823.257
758.32
528.812
998.878
1130.05
1162.69
1187.33
1215.72
1224.81
1206.82
1155.97
1095.04
1005.96
960.427
943.934
944.65
957.717
989.921
1059.74
1119.24
1140.44
1145.69
1132.24
1098.53
1015.58
923.035
854.174
805.57
775.505
780.232
815.081
564.902
486.089
990.799
1027.51
1020.77
998.816
989.998
1017.97
1055.76
1091.58
1094.52
1087.15
1084.36
1084.11
1096.38
1108.67
1122.62
1110.52
1074.84
1036.38
1014.96
996.838
1025.39
1068.72
1065.39
1108.85
1106.88
978.545
889.748
899.847
711.469
568.519
939.929
961.664
954.306
972.996
1006.73
1021.96
1019.76
1020.89
1027.66
1028.26
1031.48
1025.98
1026.23
1031.38
1033.37
1036.2
1039.61
1048.76
1056.26
1045.41
971.921
880.98
842.903
823.239
817.302
824.47
835.627
870.116
915.438
662.641
592.862
924.323
931.124
987.676
996.463
1008.32
1001.28
1010.36
1025.75
1060.62
1090.95
1100.67
1107.54
1103.13
1124.59
1141.33
1179.54
1184.74
1147.91
1123.15
1091.7
1098.2
1105.44
1113.66
1120.95
1131.16
1138.24
639.51
510.913
465.624
449.397
535.295
1018.24
995.601
1021.43
1049.82
1032.86
1007.46
1014.43
1032.69
1047.07
1082.43
1110.28
1129.3
1147.08
1157.07
1164.9
1175.95
1176.66
1171.51
1166.09
1152.27
1143.76
971.333
719.283
621.374
632.771
630.067
628.864
583.843
421.643
424.995
413.725
432.133
442.691
468.867
483.309
485.914
464.007
453.681
433.936
430.516
421.722
419.101
412.041
411.11
404.524
402.834
401.169
397.832
397.628
394.673
394.77
392.334
392.163
390.721
390.148
389.304
388.43
387.723
388.442
387.888
387.451
386.896
386.635
386.25
386.075
385.782
385.676
385.458
385.379
385.225
385.152
385.04
384.993
384.889
384.864
384.772
384.766
384.681
384.691
384.612
384.627
384.561
384.573
384.521
384.532
384.482
384.487
384.584
384.547
384.419
384.418
384.402
384.406
384.391
384.396
384.384
384.389
384.379
384.384
384.377
384.38
384.374
384.378
384.372
384.375
384.37
384.375
384.369
384.375
384.369
384.375
384.369
384.376
384.37
384.373
384.366
384.367
384.486
384.479
384.363
384.368
384.375
384.37
384.374
384.367
384.372
384.367
384.372
384.366
384.371
384.366
384.37
384.366
384.37
384.367
384.372
384.369
384.366
384.369
384.368
384.373
384.368
384.373
384.368
384.373
384.366
384.374
384.494
384.485
384.371
384.373
384.369
384.374
384.367
384.372
384.366
384.372
384.366
384.371
384.366
384.371
384.366
384.37
384.367
384.37
384.366
384.371
384.367
384.373
384.368
384.374
384.368
384.374
384.369
384.371
384.366
384.368
384.486
384.496
384.371
384.363
384.367
384.373
384.368
384.373
384.367
384.373
384.367
384.372
384.366
384.371
384.366
384.367
384.367
384.367
384.371
384.366
384.372
384.367
384.373
384.368
384.373
384.369
384.375
384.368
384.364
384.369
384.496
384.485
384.371
384.372
384.369
384.374
384.367
384.373
384.366
384.373
384.366
384.371
384.365
384.371
384.366
384.37
384.366
384.369
384.365
384.37
384.366
384.371
384.366
384.372
384.367
384.373
384.367
384.37
384.364
384.363
384.48
1128.15
1151.64
1180.34
1200.15
1205.34
1193.09
1170.14
1149.06
1143.71
1135.92
1109.03
950.964
816.441
557.931
989.866
1080.62
1128.89
1184.86
1216.55
1209.7
1157.84
1065.38
952.671
915.23
908.982
913.017
924.441
948.529
982.459
1031.39
1082.6
1107.84
1105.33
1069.93
1007.15
944.861
890.672
854.267
826.429
804.238
823.477
850.966
550.856
501.288
994.012
1011.82
999.471
993.997
1015.86
1049.48
1084.53
1086.96
1076.62
1077.33
1078.92
1096.53
1106.21
1121.85
1128.43
1132.14
1117.18
1104.76
1091.13
1018.63
1021.11
1089.76
1102.67
1115.14
1081.62
941.997
904.249
940.118
731.591
965.573
922.33
949.559
953.874
992.091
1013.81
1013.14
1008.63
1012.32
1015.01
1025.23
1021.21
1032.13
1053.69
1071.61
1081.73
1067.41
1050.01
1051.39
1066.01
1056.72
992.335
880.463
821.619
811.787
795.185
796.098
788.297
840.798
904.273
733.113
582.732
913.821
832.241
970.613
993.693
1001.03
1001.21
1011.15
1050.77
1105.92
1129.28
1122.88
1111.71
1117.72
1131.31
1168.69
1199.56
1210.53
1180.85
1149.54
1136.56
1138.13
1135.83
1133.68
1134.42
1135.61
1132.13
1131.12
714.767
491.448
492.242
554.632
947.441
823.111
907.587
952.935
943.527
934.101
971.761
982.902
1039.98
1054.5
1100.16
1126.29
1129.33
1140.28
1149.42
1141.99
1139.98
1148.88
1157.55
1165.91
1155.66
1145.52
976.021
720.44
628.564
635.97
651.679
604.468
469.451
467.533
454.578
434.638
449.229
463.483
486.384
497.366
495.005
470.223
463.238
445.076
442.408
433.609
431.067
423.592
422.376
415.556
414.352
411.567
408.871
407.94
405.451
404.716
402.815
401.565
401.107
398.877
398.755
397.042
400.535
400.418
398.773
398.503
397.514
397.333
396.716
396.578
396.166
396.097
395.745
395.776
395.467
395.508
395.272
395.308
395.131
395.142
395.038
395.004
394.967
394.905
394.901
394.838
394.842
394.78
394.783
394.72
394.715
394.84
394.84
394.692
394.665
394.673
394.665
394.666
394.661
394.659
394.655
394.654
394.653
394.651
394.649
394.648
394.646
394.645
394.643
394.643
394.642
394.642
394.642
394.64
394.641
394.639
394.639
394.634
394.63
394.62
394.622
394.769
394.763
394.618
394.622
394.631
394.633
394.637
394.637
394.639
394.637
394.638
394.637
394.639
394.638
394.639
394.638
394.639
394.638
394.641
394.64
394.637
394.638
394.638
394.64
394.638
394.637
394.633
394.629
394.62
394.625
394.777
394.767
394.625
394.624
394.629
394.634
394.635
394.638
394.637
394.638
394.637
394.639
394.638
394.639
394.638
394.639
394.638
394.639
394.638
394.64
394.638
394.64
394.638
394.64
394.638
394.638
394.633
394.628
394.62
394.622
394.768
394.777
394.624
394.618
394.626
394.634
394.635
394.639
394.638
394.64
394.638
394.64
394.638
394.639
394.638
394.637
394.638
394.638
394.64
394.638
394.64
394.638
394.639
394.638
394.64
394.636
394.636
394.629
394.618
394.622
394.777
394.769
394.625
394.623
394.628
394.635
394.635
394.639
394.638
394.639
394.638
394.639
394.638
394.64
394.639
394.64
394.639
394.639
394.638
394.639
394.638
394.64
394.638
394.64
394.637
394.637
394.63
394.623
394.605
394.583
394.728
1163.5
1180.24
1204.69
1212.55
1199.66
1163.38
1124.91
1085.6
1065.14
1064.62
1079.06
1034.51
839.87
727.941
848.37
932.061
960.369
986.953
1107.59
1186.07
1212.51
1187.41
1108.84
967.096
917.096
903.327
907.061
921.147
942.982
971.08
994.378
1009.61
1015.68
1005.63
982.084
958.889
935.477
916.781
897.806
882.172
864.971
854.135
862.22
863.374
817.473
881.367
873.533
933.047
980.514
1009.39
1002.51
1013.8
1041.61
1064.41
1072.41
1065.49
1073.64
1084.84
1108.71
1122.85
1134.22
1138.74
1141.92
1147.18
1144.77
1132.31
1119.67
1036.11
1001.46
1084.56
1110.54
1103.44
1007.25
922.23
924.432
945.62
941.039
929.298
934.365
933.037
930.715
952.777
976.517
997.418
1003.96
998.809
997.151
1001.05
1013.26
1013.39
1027.09
1056.53
1085.79
1109.51
1116.81
1106.87
1093.74
1062.86
1071.6
1065.56
1024.32
880.682
819.432
791.163
778.029
778.606
826.191
891.092
943.962
977.459
1025.11
1043.95
941.918
879.962
843.829
935.897
973.026
995.502
998.525
1017.99
1097.49
1147.68
1160.62
1147.96
1136.62
1155.39
1164.92
1199.88
1221.63
1231.07
1205.21
1174.59
1154.68
1157.24
1155.71
1158.34
1165.13
1173.76
1172.22
1142.29
1136.31
674.866
562.933
860.19
746.826
685.097
1036.98
531.973
669.395
826.245
924.232
963.218
986.492
1046.12
1061.53
1093.63
1104.38
1130.43
1150.96
1147.13
1132.2
1133.53
1141.95
1153
1159.51
1159.3
1160.2
1155.91
1138.65
929.711
687.662
629.278
647.705
618.639
578.881
534.991
521.328
509.771
483.821
489.393
460.217
476.277
489.959
506.757
507.646
500.356
476.512
472.909
457.423
455.203
447.266
445.041
437.798
434.91
432.124
427.586
427.313
423.139
423.246
420.223
420.068
417.538
417.497
414.657
414.072
411.461
414.764
414.912
417.881
416.538
415.637
414.199
413.861
413.128
412.869
412.453
412.23
411.991
411.769
411.659
411.48
411.375
411.264
411.178
411.081
411.044
410.94
410.933
410.84
410.838
410.76
410.76
410.694
410.682
410.632
410.606
410.614
411.284
411.97
411.976
411.348
410.626
410.551
410.522
410.526
410.511
410.514
410.502
410.505
410.496
410.497
410.495
410.493
410.492
410.49
410.489
410.488
410.487
410.486
410.484
410.484
410.482
410.483
410.479
410.477
410.471
410.467
410.465
410.527
411.237
411.912
411.912
411.233
410.522
410.467
410.468
410.47
410.475
410.477
410.48
410.478
410.48
410.479
410.482
410.481
410.482
410.482
410.483
410.482
410.484
410.483
410.478
410.478
410.48
410.48
410.477
410.475
410.469
410.466
410.466
410.531
411.243
411.912
411.912
411.237
410.531
410.469
410.465
410.47
410.472
410.478
410.477
410.479
410.478
410.481
410.48
410.482
410.481
410.482
410.482
410.483
410.481
410.482
410.48
410.481
410.48
410.481
410.478
410.476
410.47
410.465
410.465
410.527
411.237
411.912
411.912
411.243
410.528
410.462
410.463
410.47
410.474
410.479
410.479
410.48
410.48
410.481
410.481
410.482
410.482
410.48
410.481
410.481
410.482
410.481
410.481
410.479
410.48
410.479
410.479
410.474
410.472
410.466
410.463
410.527
411.243
411.911
411.912
411.238
410.531
410.469
410.465
410.471
410.473
410.479
410.478
410.479
410.477
410.478
410.477
410.479
410.48
410.481
410.481
410.482
410.481
410.481
410.478
410.48
410.476
410.478
410.472
410.472
410.465
410.461
410.46
410.524
411.232
411.869
411.341
1189.88
1200.89
1216.05
1212.74
1185.98
1136.17
1086.21
1060.5
1055.18
1054.48
1051
1053.54
923.859
793.976
816.845
869.461
880.862
899.252
1082.39
1184.91
1209.82
1165.68
1060.51
950.706
924.213
922.306
925.926
927.886
935.206
946.379
956.728
958.887
958.361
956.473
955.383
950.486
946.52
939.413
933.233
927.212
919.72
909.282
904.442
894.574
950.417
900.314
920.596
960.478
989.659
1002.84
1011.24
1026.91
1045.65
1056.72
1052.95
1074.44
1094.35
1124.29
1138.47
1141.84
1142.16
1140.89
1145.37
1152.26
1149.08
1146.56
1119.45
1025.32
965.546
1049.32
1103.03
1067.26
962.881
917.822
925.376
944.445
947.098
943.686
949.718
943.507
938.744
962.388
984.192
995.034
992.728
984.638
982.286
991.278
999.222
1007.28
1029.36
1064.1
1099.82
1123.18
1134.35
1130.81
1122.09
1099.95
1083.64
1075.09
1044.59
921.521
830.13
797.102
791.052
814.086
876.953
930.957
993.564
1001.8
967.956
1035.25
1067.44
955.741
844.228
913.697
961.22
992.963
1002.81
1058.5
1146.87
1197.99
1198.5
1200.21
1200.6
1206.11
1217.98
1230.8
1252.2
1241.62
1229.21
1161.76
1162.7
1146.78
1142.62
1139.66
1140.73
1150.93
1165.55
1172.77
1170.63
1123.91
1080.43
1076.73
1051.13
1071.42
1072.36
1034.25
1026.11
1005.6
1036.01
1059.48
1100.53
1094.96
1130.95
1132.21
1151.7
1154.6
1169.42
1169.5
1175.04
1161.88
1153.9
1150.41
1158.69
1160.34
1160.42
1155.2
1150.48
1146.5
859.447
652.923
631.523
632.702
615.159
602.762
576.258
538.95
539.67
519.558
517.762
485.654
501.616
513.376
520.314
511.875
505.29
484.103
482.683
470.1
468.201
460.591
458.521
450.539
450.612
443.087
444.086
439.073
438.485
435.848
434.254
433.282
431.407
429.93
429.493
426.685
429.542
428.38
431.322
430.199
429.941
428.425
428.35
427.343
427.334
426.606
426.605
426.07
426.081
425.683
425.689
425.41
425.388
425.194
425.176
425.023
425.026
424.885
424.907
424.786
424.802
424.718
424.699
424.663
424.618
424.609
424.572
424.659
425.315
425.339
424.67
424.579
424.54
424.527
424.521
424.511
424.516
424.507
424.506
424.502
424.502
424.499
424.501
424.498
424.498
424.495
424.495
424.492
424.491
424.488
424.487
424.485
424.484
424.481
424.477
424.471
424.469
424.469
424.479
424.578
425.271
425.271
424.576
424.475
424.471
424.469
424.471
424.475
424.48
424.482
424.482
424.483
424.484
424.486
424.487
424.489
424.488
424.489
424.488
424.489
424.488
424.483
424.482
424.484
424.482
424.48
424.475
424.47
424.468
424.47