/*--------------------------------*- C++ -*----------------------------------*\
| =========                 |                                                 |
| \\      /  F ield         | OpenFOAM: The Open Source CFD Toolbox           |
|  \\    /   O peration     | Version:  2.1.1                                 |
|   \\  /    A nd           | Web:      www.OpenFOAM.org                      |
|    \\/     M anipulation  |                                                 |
\*---------------------------------------------------------------------------*/
FoamFile
{
    version     2.0;
    format      ascii;
    class       volScalarField;
    location    "0.002750000";
    object      G;
}
// * * * * * * * * * * * * * * * * * * * * * * * * * * * * * * * * * * * * * //

dimensions      [0 0 0 0 0 0 0];

internalField   nonuniform List<scalar> 
12384
(
1
1
1
1
1
1
1
1
1
1
1
1
1
1
1
1
1
1
1
1
1
1
1
1
1
1
1
1
1
1
1
1
1
1
1
1
1
1
1
1
1
1
1
1
1
1
1
1
1
0.999995
0.999993
0.999922
0.999892
0.99957
0.999642
0.999489
0.999732
0.999982
0.999998
1
1
1
1
1
1
1
1
1
1
1
1
1
1
1
1
1
1
0.999759
0.994067
0.972793
0.947591
0.925848
0.912125
0.86782
0.83496
0.746334
0.737442
0.681582
0.792084
0.809961
0.960736
0.996681
1
1
1
1
1
1
1
1
1
1
1
1
1
1
1
0.999998
0.999916
0.999654
0.999817
0.999962
0.999993
1
1
1
0.999872
0.999005
0.999994
1
1
1
1
1
1
1
1
1
1
1
1
1
1
1
1
1
1
1
1
1
1
1
1
1
1
1
1
1
1
1
1
1
1
1
1
1
1
1
1
1
1
1
1
1
1
1
1
1
1
1
1
1
1
1
1
1
1
1
1
1
1
1
1
1
1
1
1
1
1
1
1
1
1
1
1
1
1
1
1
1
1
1
1
1
1
1
1
1
1
1
1
1
1
1
1
1
1
1
1
1
1
1
1
1
1
1
1
1
1
1
1
1
1
1
1
1
1
1
1
1
1
1
1
1
1
1
1
1
1
1
1
1
1
1
1
1
1
1
1
1
1
1
1
1
1
1
1
1
1
1
1
1
1
1
1
1
1
1
1
1
1
1
1
1
1
1
1
1
1
1
1
1
1
1
1
1
1
1
1
1
1
1
1
1
1
1
1
1
1
1
1
1
1
1
1
1
1
1
1
1
1
1
1
1
1
1
1
1
1
1
1
1
1
1
1
1
1
1
1
1
1
1
1
1
1
1
1
1
1
1
1
1
1
1
1
1
1
1
1
1
1
1
1
1
1
1
1
1
1
1
1
1
1
1
1
1
1
1
1
1
1
1
1
1
1
1
1
1
1
1
1
0.998929
1
1
1
1
1
1
1
1
1
1
1
1
1
0.999873
0.970683
0.827805
0.806034
0.661667
0.384387
0.139618
0.144357
0.476799
0.999908
1
1
1
1
0.710623
0.509106
0.343218
0.208553
0.0990134
0.0735407
0.0461736
0.0554072
0.07177
0.119206
0.189476
0.282816
0.408171
0.518595
0.619408
0.697771
0.718765
0.708507
0.698955
0.728985
0.793394
0.914544
0.931051
0.907674
0.361687
0.347329
0.872661
1
1
1
0.384349
0.186123
0.14629
0.0944112
0.0620476
0.043693
0.0313443
0.0187576
0.00910088
0.00430721
0.00227602
0.00226888
0.003436
0.0069327
0.0154909
0.0294905
0.0667601
0.172923
0.543966
0.924955
0.965451
0.658561
0.678178
1
0.997435
0.999985
1
1
1
1
0.0916899
0.00639459
0.0106639
0.0155065
0.015222
0.0139835
0.012715
0.0132652
0.0198169
0.0347153
0.0484638
0.0481472
0.0596053
0.589109
0.99099
0.970027
0.999768
0.999997
1
1
1
1
1
0.999539
0.990642
1
1
1
1
1
1
1
1
1
1
1
1
0.999996
0.999999
0.999996
0.999994
0.999996
1
1
1
1
1
1
1
1
1
1
1
1
0.959582
1
1
1
1
1
1
1
1
1
1
1
1
1
1
1
1
1
1
1
1
1
1
1
1
1
1
1
1
1
1
1
1
1
1
1
1
1
1
1
1
1
1
1
1
1
1
1
1
1
1
1
1
1
1
1
1
1
1
1
1
1
1
1
1
1
1
1
1
1
1
1
1
1
1
1
1
1
1
1
1
1
1
1
1
1
1
1
1
1
1
1
1
1
1
1
1
1
1
1
1
1
1
1
1
1
1
1
1
1
1
1
1
1
1
1
1
1
1
1
1
1
1
1
1
1
1
1
1
1
1
1
1
1
1
1
1
1
1
1
1
1
1
1
1
1
1
1
1
1
1
1
1
1
1
1
1
1
1
1
1
1
1
1
1
1
1
1
1
1
1
1
1
1
1
1
1
1
1
1
1
1
1
1
1
1
1
1
1
1
1
1
1
1
1
1
1
1
1
1
1
1
1
1
1
1
1
1
1
1
1
1
1
1
1
1
1
1
1
1
1
0.999911
1
1
1
1
1
1
1
1
0.988275
0.957646
1
1
1
1
1
1
1
1
1
1
1
1
1
1
1
1
0.998328
0.644768
0.343433
0.168269
0.0409828
0.0254037
0.0770726
0.0811248
0.997635
1
1
0.999995
0.321998
0.263727
0.166461
0.0808144
0.0200786
0.0102822
0.00477137
0.0087145
0.0223378
0.0493814
0.102365
0.152076
0.201192
0.241594
0.278206
0.27293
0.231855
0.193907
0.183267
0.261252
0.4601
0.719065
0.895952
0.861822
0.147152
0.0129225
0.215977
0.999999
1
0.999995
0.0724385
0.0483075
0.059825
0.0564826
0.0437234
0.0303582
0.0209981
0.0141163
0.00854212
0.00509298
0.00329254
0.00334149
0.00548176
0.00939804
0.0161086
0.0233379
0.0310826
0.0308277
0.0554138
0.103066
0.0643766
0.00724519
0.000264652
0.000280267
0.161487
0.999417
1
1
1
1
0.254484
0.0173918
0.0127967
0.0116199
0.00867573
0.00648912
0.00680679
0.00546713
0.00410738
0.00701525
0.00972088
0.0122946
0.017838
0.0471576
0.6983
0.968368
0.987255
0.941446
0.999043
1
1
1
1
1
0.994433
0.987643
1
1
1
1
1
1
1
1
1
0.999473
0.979778
0.970897
0.914833
0.402086
0.32976
0.414446
0.55486
0.79068
0.955304
0.995187
0.999554
0.979552
1
1
1
1
1
1
1
1
1
1
1
1
1
1
1
1
1
1
1
1
1
1
1
1
1
1
1
1
1
1
1
1
1
1
1
1
1
1
1
1
1
0.999975
1
1
1
1
1
1
1
1
1
1
1
1
1
1
1
1
1
1
1
1
1
1
1
1
1
1
1
1
0.999973
0.999973
1
1
1
1
1
1
1
1
1
1
1
1
1
1
1
1
1
1
1
1
1
1
1
1
1
1
1
1
0.999973
0.999973
1
1
1
1
1
1
1
1
1
1
1
1
1
1
1
1
1
1
1
1
1
1
1
1
1
1
1
1
0.999973
0.999973
1
1
1
1
1
1
1
1
1
1
1
1
1
1
1
1
1
1
1
1
1
1
1
1
1
1
1
1
0.999973
0.999973
1
1
1
1
1
1
1
1
1
1
1
1
1
1
1
1
1
1
1
1
1
1
1
1
1
1
1
1
0.999973
0.999973
1
1
1
1
1
1
1
1
1
1
1
1
1
1
1
1
1
1
1
1
1
1
1
1
1
1
1
1
0.999973
1
1
1
1
1
1
1
0.984231
0.502718
0.689327
0.996162
0.991149
1
1
1
0.881912
0.999998
1
1
1
1
1
1
1
1
1
1
1
1
1
1
1
1
1
0.999962
0.754676
0.047603
0.00223284
0.000312428
0.000505886
1.12257e-05
0.297693
0.998549
1
0.999673
0.113078
0.112442
0.0843573
0.027604
0.00690616
0.00200302
0.00242252
0.029388
0.0473814
0.493686
0.551387
0.702051
0.853097
0.872001
0.882511
0.574131
0.0321905
0.00529061
0.00170981
0.0037852
0.0289542
0.178929
0.808163
0.773851
0.0786991
0.000555379
0.00680459
0.999945
1
0.996368
0.0167954
0.0113953
0.0197564
0.0287096
0.0300433
0.0218529
0.0139329
0.0104583
0.00802551
0.00554799
0.00434455
0.00413812
0.00624854
0.0113256
0.0178758
0.0223705
0.0294362
0.0261999
0.00645783
0.0031725
0.00135669
0.000213016
1.1808e-05
2.72552e-05
0.00112887
0.0303239
0.968399
1
1
1
0.318456
0.0527173
0.0503964
0.0349239
0.0305839
0.0208521
0.0101647
0.00426126
0.00139447
0.0010896
0.00204327
0.00283127
0.0070514
0.023438
0.0723066
0.476141
0.374739
0.622436
0.855855
0.980803
0.999681
1
1
1
1
0.994265
0.973404
1
1
1
1
1
1
0.999663
0.946471
0.508563
0.190656
0.138649
0.0595155
0.0279121
0.0295055
0.0459087
0.0925133
0.195661
0.350839
0.530274
0.728152
0.934506
0.989086
0.99944
0.999998
1
1
1
1
1
1
1
1
1
1
1
1
1
1
1
1
1
1
1
1
1
1
1
1
1
1
1
1
1
0.999999
1
0.999999
1
1
1
1
1
1
1
1
1
1
1
1
1
1
1
1
1
1
1
1
1
1
1
1
1
1
1
1
1
1
1
1
1
1
1
0.999999
0.999999
1
1
1
1
1
1
1
1
1
1
1
1
1
1
1
1
1
1
1
1
1
1
1
1
1
1
1
1
0.999999
0.999999
1
1
1
1
1
1
1
1
1
1
1
1
1
1
1
1
1
1
1
1
1
1
1
1
1
1
1
1
0.999999
0.999999
1
1
1
1
1
1
1
1
1
1
1
1
1
1
1
1
1
1
1
1
1
1
1
1
1
1
1
1
0.999999
0.999999
1
1
1
1
1
1
1
1
1
1
1
1
1
1
1
1
1
1
1
1
1
1
1
1
1
1
1
1
0.999999
0.999999
1
1
1
1
1
1
1
1
1
1
1
1
1
1
1
1
1
1
1
1
1
1
1
1
1
1
1
1
0.999999
1
1
1
1
1
1
1
1
1
0.681071
0.00878316
1.58677e-05
0.763148
1
1
1
1
1
1
1
1
1
1
1
1
1
1
1
1
1
1
1
1
1
1
0.999815
0.410948
0.000155121
3.14419e-07
2.98196e-10
9.79198e-10
0.0022562
0.919841
1
0.99835
0.0353278
0.0365595
0.0282878
0.00995167
0.00210313
0.00121345
0.00844085
0.0503926
0.640572
0.61262
0.636988
0.741611
0.919214
0.973057
0.785478
0.0415929
0.000505482
1.68e-05
1.6524e-05
6.39397e-05
0.000466051
0.0108062
0.187656
0.474354
0.103043
1.54335e-05
0.000503667
0.700174
1
0.981333
0.00405487
0.00277656
0.00817748
0.0200566
0.0244944
0.0152536
0.00836133
0.00660065
0.00606968
0.00501749
0.00404034
0.00356145
0.00432223
0.00888493
0.0181597
0.0281922
0.03518
0.0403985
0.00728194
0.000406099
4.13903e-05
6.48235e-06
1.20673e-06
3.21452e-06
5.63123e-05
0.00202109
0.131942
1
1
1
0.582145
0.200633
0.226973
0.233827
0.204979
0.0610416
0.0140285
0.00743274
0.00290994
0.00125785
0.000760106
0.00120891
0.00314714
0.01808
0.0601593
0.512412
0.223752
0.31902
0.480648
0.695648
0.93349
0.995613
0.999892
1
1
1
0.924905
0.941712
1
1
1
0.93698
0.950285
0.768287
0.0706503
0.115277
0.027233
0.0135248
0.00924311
0.0100841
0.0107189
0.0160056
0.0272507
0.0450181
0.0702584
0.118718
0.222829
0.385674
0.55131
0.699714
0.625083
0.996542
0.999996
1
1
1
1
1
1
1
1
1
1
1
1
1
1
1
1
1
1
1
1
1
1
1
1
1
1
1
1
1
1
1
1
1
1
1
1
1
1
1
1
1
1
1
1
1
1
1
1
1
1
1
1
1
1
1
1
1
1
1
1
1
1
1
1
1
1
1
1
1
1
1
1
1
1
1
1
1
1
1
1
1
1
1
1
1
1
1
1
1
1
1
1
1
1
1
1
1
1
1
1
1
1
1
1
1
1
1
1
1
1
1
1
1
1
1
1
1
1
1
1
1
1
1
1
1
1
1
1
1
1
1
1
1
1
1
1
1
1
1
1
1
1
1
1
1
1
1
1
1
1
1
1
1
1
1
1
1
1
1
1
1
1
1
1
1
1
1
1
1
1
1
1
1
1
1
1
1
1
1
1
1
1
1
1
1
1
1
1
1
1
1
1
1
1
1
1
1
1
1
1
1
1
1
1
1
1
1
1
1
1
1
1
1
1
1
1
1
1
1
1
1
1
1
1
1
1
0.000588225
6.895e-12
1.01672e-21
1
1
1
1
1
1
1
1
1
1
1
0.999376
0.950279
0.82121
0.863036
0.995932
1
1
1
1
1
1
0.999996
0.396572
2.39666e-06
4.37144e-11
5.56135e-16
2.43978e-15
2.71554e-17
0.212183
1
0.975655
0.0142908
0.0167018
0.0115755
0.00279083
0.00107753
0.00530164
0.0343776
0.402999
0.187541
0.119847
0.124654
0.14216
0.644231
0.905714
0.458609
0.0163224
8.74539e-05
1.0935e-05
4.08085e-05
0.000672432
0.00213368
0.00669885
0.10365
0.26844
0.0140657
1.41581e-07
4.02264e-07
0.137209
1
0.911091
0.00099213
0.000956423
0.00562367
0.0189471
0.0208449
0.0100355
0.00460561
0.00372219
0.00379934
0.00330694
0.00288854
0.00200077
0.00193307
0.0032761
0.0091353
0.0304295
0.0504294
0.0598825
0.0319635
0.00049503
1.02125e-05
4.81287e-07
1.33646e-07
2.99402e-07
2.48202e-06
8.37168e-05
0.0204768
0.507255
1
1
0.812463
0.155958
0.312719
0.326372
0.250863
0.0363065
0.00552319
0.00508045
0.00346999
0.00224257
0.00149227
0.00132179
0.00373452
0.0195711
0.0552494
0.105107
0.293125
0.186452
0.158916
0.243015
0.391588
0.645202
0.92324
0.998997
1
1
1
0.916186
1
1
0.967485
0.12056
0.0688422
0.0820145
0.0264905
0.00399556
0.00115053
0.000669785
0.000606254
0.000632843
0.00082271
0.00147104
0.00346149
0.00654272
0.0111515
0.021813
0.0511122
0.0978039
0.146342
0.202095
0.33132
0.205112
0.974828
0.9998
1
1
1
1
1
1
1
1
1
1
1
1
1
1
1
1
1
1
1
1
1
1
1
1
1
1
1
1
1
1
1
1
1
1
1
1
1
1
1
1
1
1
1
1
1
1
1
1
1
1
1
1
1
1
1
1
1
1
1
1
1
1
1
1
1
1
1
1
1
1
1
1
1
1
1
1
1
1
1
1
1
1
1
1
1
1
1
1
1
1
1
1
1
1
1
1
1
1
1
1
1
1
1
1
1
1
1
1
1
1
1
1
1
1
1
1
1
1
1
1
1
1
1
1
1
1
1
1
1
1
1
1
1
1
1
1
1
1
1
1
1
1
1
1
1
1
1
1
1
1
1
1
1
1
1
1
1
1
1
1
1
1
1
1
1
1
1
1
1
1
1
1
1
1
1
1
1
1
1
1
1
1
1
1
1
1
1
1
1
1
1
1
1
1
1
1
1
1
1
1
1
1
1
1
1
1
1
1
1
1
1
1
1
1
1
1
1
1
1
1
1
1
1
1
1
0.996936
7.76063e-10
6.8126e-16
0.967008
1
1
1
1
1
1
1
0.999992
0.65731
0.00634269
8.12515e-05
1.35e-05
2.28527e-05
0.000895641
0.0550059
0.838149
0.999975
1
1
1
1
0.988201
0.00886267
6.3289e-09
5.59171e-13
8.64091e-16
1.85359e-13
3.50424e-10
0.0562566
1
0.935081
0.00539566
0.00516541
0.00259542
0.0014523
0.00327558
0.0211889
0.141922
0.0960623
0.0861229
0.0886692
0.0995754
0.149724
0.205839
0.876502
0.563145
0.0545318
0.0042834
0.000670533
0.000215639
0.00320095
0.0395139
0.0424263
0.112465
0.13145
0.000385796
2.94795e-08
3.6119e-06
0.0663547
0.999571
0.796214
0.000219817
0.000734876
0.00545765
0.0178596
0.0147213
0.00544698
0.00268298
0.00239579
0.00235645
0.00211552
0.00155263
0.00126287
0.00167933
0.00258216
0.00552976
0.0154642
0.0529803
0.0947034
0.0740071
0.0019826
1.9086e-06
3.45062e-08
5.62413e-09
9.36843e-09
6.41618e-08
9.4155e-07
0.000176413
0.0112272
1
1
0.0430629
0.00103476
0.0313058
0.0384682
0.0296624
0.00527023
0.00309386
0.00373547
0.00462148
0.00578823
0.00536909
0.00440352
0.00854661
0.0274135
0.0468314
0.184832
0.0857892
0.0243576
0.0194913
0.019173
0.0372131
0.0919818
0.299397
0.801927
0.997639
1
1
1
1
0.962676
0.125178
2.63229e-05
9.32333e-07
1.37524e-05
6.89178e-05
1.9701e-05
5.16998e-06
2.48182e-06
4.09513e-06
7.66767e-06
1.8988e-05
4.95067e-05
0.000193106
0.000697588
0.00165015
0.0043551
0.0137633
0.0362302
0.0802335
0.140527
0.223237
0.317725
0.190009
0.971902
0.998681
1
1
1
1
1
1
1
1
1
1
1
1
1
1
1
1
1
1
1
1
1
1
1
1
1
1
1
1
1
1
1
1
1
1
1
1
1
1
1
1
1
1
1
1
1
1
1
1
1
1
1
1
1
1
1
1
1
1
1
1
1
1
1
1
1
1
1
1
1
1
1
1
1
1
1
1
1
1
1
1
1
1
1
1
1
1
1
1
1
1
1
1
1
1
1
1
1
1
1
1
1
1
1
1
1
1
1
1
1
1
1
1
1
1
1
1
1
1
1
1
1
1
1
1
1
1
1
1
1
1
1
1
1
1
1
1
1
1
1
1
1
1
1
1
1
1
1
1
1
1
1
1
1
1
1
1
1
1
1
1
1
1
1
1
1
1
1
1
1
1
1
1
1
1
1
1
1
1
1
1
1
1
1
1
1
1
1
1
1
1
1
1
1
1
1
1
1
1
1
1
1
1
1
1
1
1
1
1
1
1
1
1
1
1
1
1
1
1
1
1
1
1
1
1
1
0.34367
1.36979e-12
0.083312
0.999842
1
1
1
1
1
0.999962
0.0778477
1.08908e-05
5.33326e-08
2.00532e-08
4.74881e-08
3.83263e-07
2.75956e-05
0.0158875
0.563222
0.993787
0.999953
0.999971
0.997417
0.598804
0.00373182
7.54884e-08
5.65409e-10
7.9028e-12
4.86686e-13
3.3859e-10
6.73212e-08
0.0525881
0.99189
0.689196
0.00211057
0.0020511
0.00135084
0.00257192
0.0137795
0.0553252
0.0716331
0.0634327
0.0752001
0.102122
0.177251
0.209426
0.467595
0.880438
0.967106
0.649363
0.166103
0.0225072
0.000584579
0.00118617
0.061197
0.122852
0.118166
0.0348646
3.49496e-06
7.12022e-08
0.000133437
0.00379168
0.766167
0.57963
4.40374e-05
0.000537165
0.00614081
0.0109303
0.00610903
0.00279478
0.00196477
0.00177232
0.00181507
0.0015168
0.00167337
0.00400934
0.0102974
0.0194923
0.0219416
0.0202198
0.0482011
0.130709
0.116666
0.00531863
9.30922e-07
7.0064e-10
1.4983e-10
3.10413e-10
8.02619e-10
2.50255e-09
1.01913e-07
2.75243e-05
0.997691
0.911509
1.92328e-05
4.43994e-09
9.2925e-05
0.000942817
0.00132377
0.00108685
0.0019937
0.00341959
0.0140764
0.0271521
0.0195904
0.0183242
0.021297
0.0279496
0.0391565
0.327464
0.0607538
0.00237644
0.00118581
0.00165705
0.00366885
0.0119307
0.048229
0.228141
0.773362
0.999421
1
0.999997
1
0.494177
0.00284769
9.59056e-08
6.7403e-10
4.49522e-10
1.93285e-08
2.593e-08
9.6048e-09
1.53826e-08
1.98153e-08
1.58239e-07
4.7536e-07
2.33701e-06
8.8858e-06
3.34282e-05
0.000120464
0.00045092
0.00149925
0.00533764
0.0177617
0.0477201
0.103462
0.186853
0.265283
0.192812
0.971603
0.998494
1
1
1
1
0.99998
0.998994
0.999995
1
1
1
1
1
1
1
1
1
1
1
1
1
1
1
1
1
1
1
1
1
1
1
1
1
1
1
1
1
1
1
1
1
1
1
1
1
1
1
1
1
1
1
1
1
1
1
1
1
1
1
1
1
1
1
1
1
1
1
1
1
1
1
1
1
1
1
1
1
1
1
1
1
1
1
1
1
1
1
1
1
1
1
1
1
1
1
1
1
1
1
1
1
1
1
1
1
1
1
1
1
1
1
1
1
1
1
1
1
1
1
1
1
1
1
1
1
1
1
1
1
1
1
1
1
1
1
1
1
1
1
1
1
1
1
1
1
1
1
1
1
1
1
1
1
1
1
1
1
1
1
1
1
1
1
1
1
1
1
1
1
1
1
1
1
1
1
1
1
1
1
1
1
1
1
1
1
1
1
1
1
1
1
1
1
1
1
1
1
1
1
1
1
1
1
1
1
1
1
1
1
1
1
1
1
1
1
1
1
1
1
1
1
1
1
1
1
0.990178
5.59708e-10
5.12474e-25
0.000594606
0.314273
0.232844
0.720537
0.999996
1
1
1
0.610085
4.14788e-05
4.56036e-08
5.58271e-09
8.83619e-09
5.20163e-08
5.69119e-07
0.000107384
0.0118801
0.0728203
0.136038
0.0594261
0.00304766
1.78173e-05
5.66358e-07
1.55194e-07
3.35157e-08
1.24093e-08
3.26129e-09
1.9226e-09
2.50434e-08
2.11626e-07
2.64904e-08
0.000380063
0.0914834
0.0789594
0.00120905
0.000714691
0.000898389
0.00193887
0.00903743
0.0271228
0.0408515
0.0421271
0.072143
0.144596
0.208096
0.20663
0.720088
0.883568
0.956335
0.992385
0.985124
0.931176
0.730301
0.00189451
0.000295587
0.0416776
0.116931
0.061859
0.00048164
8.05957e-08
1.56412e-07
1.02653e-05
8.41039e-05
3.66705e-05
0.0384619
0.0505561
1.00296e-05
1.7372e-05
0.000581608
0.00328526
0.0038393
0.0023523
0.00169706
0.00171091
0.00191283
0.00178787
0.00234837
0.00701752
0.0248016
0.0445781
0.0571295
0.0786292
0.095552
0.0708417
0.12288
0.146304
0.0189374
3.56217e-07
4.52037e-11
2.66501e-12
3.18262e-12
3.67095e-12
3.64933e-12
8.33474e-12
3.23191e-10
1.47472e-08
0.0377341
0.409844
2.90933e-05
1.22421e-10
6.61697e-12
1.40124e-07
9.34984e-06
5.10144e-05
0.000209247
0.000554361
0.00428918
0.0164259
0.0150517
0.0165797
0.0178261
0.0181492
0.0154105
0.266573
0.409615
0.203935
0.000792136
0.00119512
0.00360236
0.0131262
0.0338724
0.0609261
0.121812
0.232444
0.591959
0.961636
0.821611
0.0693725
0.420752
0.812238
4.707e-05
2.40805e-06
0.0001011
5.92763e-15
2.81462e-15
9.22398e-13
3.246e-11
2.00165e-10
2.61254e-10
1.92809e-09
5.34406e-09
3.96863e-08
1.13358e-07
5.22667e-07
2.25913e-06
6.82504e-06
1.62118e-05
9.35695e-05
0.000597745
0.00290135
0.00983184
0.0265349
0.0572823
0.122789
0.200996
0.102775
0.948295
0.997772
0.999998
1
1
1
0.999999
0.999515
0.996903
0.999998
1
1
1
1
1
1
1
1
1
1
1
1
1
1
1
1
1
1
1
1
1
1
1
1
1
1
1
1
1
1
1
1
1
1
1
1
1
1
1
1
1
1
1
1
1
1
1
1
1
1
1
1
1
1
1
1
1
1
1
1
1
1
1
1
1
1
1
1
1
1
1
1
1
1
1
1
1
1
1
1
1
1
1
1
1
1
1
1
1
1
1
1
1
1
1
1
1
1
1
1
1
1
1
1
1
1
1
1
1
1
1
1
1
1
1
1
1
1
1
1
1
1
1
1
1
1
1
1
1
1
1
1
1
1
1
1
1
1
1
1
1
1
1
1
1
1
1
1
1
1
1
1
1
1
1
1
1
1
1
1
1
1
1
1
1
1
1
1
1
1
1
1
1
1
1
1
1
1
1
1
1
1
1
1
1
1
1
1
1
1
1
1
1
1
1
1
1
1
1
1
1
1
1
1
1
1
1
1
1
1
1
1
1
1
1
1
1
1
1
1
1
1
1
1
1
1
1
1
1
1
0.999999
0.998421
0.00111826
1.17918e-20
3.18232e-15
2.84267e-08
4.26054e-06
0.00120868
0.999778
1
1
0.999982
0.0308985
4.64697e-06
9.33946e-08
5.59568e-08
5.62489e-08
3.36397e-08
3.50411e-08
6.49079e-08
1.29319e-07
1.4063e-07
1.375e-07
1.4355e-07
2.16514e-07
2.51485e-07
3.37482e-07
3.7326e-07
3.92799e-07
4.52192e-07
3.29595e-07
2.64177e-07
2.60514e-07
2.23113e-07
0.000102171
1.52286e-07
1.01423e-06
1.37642e-05
8.06797e-05
0.000280485
0.000752748
0.00259679
0.00859487
0.0171409
0.0233937
0.0802559
0.194047
0.20612
0.727577
0.827551
0.883594
0.888922
0.968454
0.992983
0.990308
0.993874
0.735197
0.00224465
3.78949e-05
0.00957114
0.0772861
0.0124581
9.70173e-06
3.45228e-08
1.15587e-07
3.72011e-06
1.02362e-05
1.17932e-06
3.25157e-06
1.11271e-06
5.87095e-07
3.1672e-05
0.000586553
0.00147231
0.00147104
0.00117287
0.00110345
0.00141259
0.00181348
0.00223511
0.00443989
0.0187415
0.0501114
0.0513075
0.0460546
0.0586057
0.108417
0.142781
0.142072
0.162582
0.0506675
2.11534e-05
1.47829e-10
1.20449e-12
8.71699e-13
1.02827e-12
1.59542e-12
1.66704e-12
1.53017e-11
1.31983e-12
3.40243e-14
6.67006e-13
7.96806e-08
6.59045e-15
5.56667e-15
3.28189e-10
1.83965e-07
7.79358e-06
6.44373e-05
0.000321334
0.016227
0.281923
0.0570315
0.0416919
0.052347
0.104027
0.319845
0.530347
0.713598
0.338078
0.109859
0.00458495
0.0181746
0.0351638
0.0302861
0.0220364
0.0154822
0.0154104
0.0191101
0.0239527
0.0243458
0.0113753
5.44902e-05
3.66585e-06
1.62299e-07
6.52169e-08
1.50358e-07
5.29882e-09
2.10648e-10
8.02606e-12
1.12243e-11
2.2186e-11
4.32228e-11
7.39925e-11
8.60875e-10
2.36999e-09
1.13514e-08
3.30239e-08
1.6964e-07
4.8757e-07
1.38643e-06
7.09354e-06
6.16752e-05
0.000343098
0.00161603
0.00542567
0.0161817
0.0359108
0.0832292
0.174939
0.421617
0.942175
0.994698
0.999913
0.997464
0.993764
0.98424
0.94572
0.997522
0.999875
1
1
1
1
1
1
1
1
1
1
1
1
1
1
1
1
1
1
1
1
1
1
1
1
1
1
1
1
1
1
1
1
1
1
1
1
1
1
1
1
1
1
1
1
1
1
1
1
1
1
1
1
1
1
1
1
1
1
1
1
1
1
1
1
1
1
1
1
1
1
1
1
1
1
1
1
1
1
1
1
1
1
1
1
1
1
1
1
1
1
1
1
1
1
1
1
1
1
1
1
1
1
1
1
1
1
1
1
1
1
1
1
1
1
1
1
1
1
1
1
1
1
1
1
1
1
1
1
1
1
1
1
1
1
1
1
1
1
1
1
1
1
1
1
1
1
1
1
1
1
1
1
1
1
1
1
1
1
1
1
1
1
1
1
1
1
1
1
1
1
1
1
1
1
1
1
1
1
1
1
1
1
1
1
1
1
1
1
1
1
1
1
1
1
1
1
1
1
1
1
1
1
1
1
1
1
1
1
1
1
1
1
1
1
1
1
1
1
1
1
1
1
1
1
1
1
1
1
1
1
1
0.999553
0.671785
1.54183e-08
3.0372e-12
9.4034e-11
1.94656e-09
0.000971873
0.999916
1
1
0.999916
0.0304078
5.25732e-05
3.7129e-06
1.52689e-06
1.70657e-07
1.22079e-08
2.81923e-09
4.90248e-09
1.57833e-08
5.31909e-08
1.43942e-07
3.52583e-07
7.42787e-07
1.14943e-06
1.38899e-06
1.41939e-06
1.37986e-06
1.44482e-06
1.18326e-06
6.5948e-07
3.48255e-07
2.09392e-07
6.91612e-07
1.63537e-07
8.74485e-07
5.8669e-06
3.94349e-05
0.000259967
0.000881761
0.00237347
0.00543926
0.0158897
0.100292
0.228415
0.58654
0.869773
0.760789
0.150238
0.144777
0.156213
0.71778
0.946416
0.990447
0.975095
0.0655619
0.000141183
5.83207e-06
0.000483909
0.00907479
0.001165
2.69516e-06
2.71784e-07
4.43557e-06
2.82921e-05
1.55385e-05
2.78274e-06
2.78402e-06
1.41386e-06
4.1781e-06
0.000114699
0.000620234
0.000901781
0.000975664
0.000985626
0.00104606
0.00113757
0.00148837
0.00212494
0.00515177
0.0182625
0.052929
0.0625177
0.0502527
0.0441692
0.0586536
0.125917
0.167202
0.127423
0.0780162
0.00504502
1.28194e-07
2.46861e-11
5.48889e-12
7.69973e-11
2.67569e-09
1.11411e-07
2.39043e-07
1.65406e-08
1.65823e-11
3.23747e-14
3.24704e-11
0.000427602
3.4641e-14
1.17858e-10
2.05083e-07
5.50659e-06
3.20007e-05
0.000216656
0.496044
0.552243
0.342612
0.25937
0.225274
0.532183
0.654928
0.815192
0.827671
0.626494
0.309524
0.00270515
0.00379965
0.00333581
0.00204508
0.000975782
0.000499907
0.000327779
0.00026417
0.000204687
0.000119128
2.74177e-05
1.45876e-06
1.33058e-07
1.30274e-08
3.97975e-09
5.55621e-09
1.14082e-09
8.8954e-11
5.62394e-12
1.52074e-12
4.26487e-12
3.6236e-12
3.00026e-11
6.38143e-11
1.06923e-09
2.86152e-09
9.411e-09
2.94411e-08
1.2915e-07
3.11655e-07
1.04498e-06
7.97101e-06
5.90809e-05
0.000311811
0.00142588
0.00445363
0.0128721
0.0288829
0.0617037
0.050878
0.568868
0.902019
0.971499
0.975301
0.966357
0.853155
0.962837
0.955216
0.99978
0.999997
1
1
1
1
1
1
1
1
1
1
1
1
1
1
1
1
1
1
1
1
1
1
1
1
1
1
1
1
1
1
1
1
1
1
1
1
1
1
1
1
1
1
1
1
1
1
1
1
1
1
1
1
1
1
1
1
1
1
1
1
1
1
1
1
1
1
1
1
1
1
1
1
1
1
1
1
1
1
1
1
1
1
1
1
1
1
1
1
1
1
1
1
1
1
1
1
1
1
1
1
1
1
1
1
1
1
1
1
1
1
1
1
1
1
1
1
1
1
1
1
1
1
1
1
1
1
1
1
1
1
1
1
1
1
1
1
1
1
1
1
1
1
1
1
1
1
1
1
1
1
1
1
1
1
1
1
1
1
1
1
1
1
1
1
1
1
1
1
1
1
1
1
1
1
1
1
1
1
1
1
1
1
1
1
1
1
1
1
1
1
1
1
1
1
1
1
1
1
1
1
1
1
1
1
1
1
1
1
1
1
1
1
1
1
1
1
1
1
1
1
1
1
1
1
1
1
1
1
1
1
0.999933
0.990095
0.187862
0.000608032
0.000135058
1.68622e-05
0.0218985
1
1
1
0.999945
0.0754311
0.000714023
5.34059e-05
9.22372e-06
3.60985e-07
1.71684e-08
9.85168e-09
3.47274e-08
2.00296e-07
7.95996e-07
1.72118e-06
2.12537e-06
1.9732e-06
1.77787e-06
1.89159e-06
1.88238e-06
1.75992e-06
1.30625e-06
7.45749e-07
3.71591e-07
2.45301e-07
1.93848e-07
1.95365e-07
3.59972e-07
2.43388e-06
1.08574e-05
7.67815e-05
0.000409107
0.00112756
0.00342142
0.0177714
0.117496
0.234581
0.831599
0.929513
0.52877
0.127992
0.0550438
0.0269838
0.0538017
0.118892
0.159161
0.14667
0.060089
0.000309623
2.05826e-06
6.7388e-07
5.68593e-06
1.29778e-05
5.80672e-06
5.56299e-06
3.81387e-05
0.00013034
6.68827e-05
1.62271e-05
5.00645e-06
4.6077e-06
9.24994e-06
3.47255e-05
0.000266122
0.000627818
0.000993218
0.00137907
0.00196735
0.00203615
0.00170065
0.00142021
0.00163241
0.00278154
0.00873573
0.0212727
0.0495389
0.0770608
0.069753
0.0608354
0.082469
0.129862
0.126209
0.0924406
0.0198056
0.000674822
4.6085e-07
1.52991e-07
1.48591e-06
3.07802e-05
4.10854e-05
3.77781e-06
1.70608e-08
5.63825e-12
2.44629e-14
4.30183e-11
5.79111e-11
1.42936e-10
1.5202e-08
1.13322e-06
7.28066e-06
1.25133e-05
0.0976336
0.698973
0.602041
0.32002
0.0921148
0.00567021
0.0126724
0.16624
0.606742
0.774724
0.521841
0.381074
0.000115995
6.48391e-05
4.75523e-05
4.10937e-05
3.36333e-05
2.08362e-05
1.49558e-05
1.15542e-05
8.05265e-06
4.46022e-06
1.61838e-06
2.73459e-07
6.10805e-08
3.76222e-09
1.72011e-09
1.16788e-09
4.67284e-10
1.13357e-10
2.68708e-11
4.92599e-12
2.39272e-12
5.81899e-12
4.80921e-12
6.18787e-11
3.4986e-10
2.16099e-09
5.01343e-09
5.46448e-08
8.20712e-08
4.87857e-07
5.77005e-07
2.63537e-06
1.59465e-05
9.52944e-05
0.000430701
0.00175817
0.00482467
0.012956
0.0260944
0.0561174
0.0209563
0.655782
0.833155
0.865484
0.833217
0.903082
0.875131
0.978365
0.994963
0.999995
1
1
1
1
1
1
1
1
1
1
1
1
1
1
1
1
1
1
1
1
1
1
1
1
1
1
1
1
1
1
1
1
1
1
1
1
1
1
1
1
1
1
1
1
1
1
1
1
1
1
1
1
1
1
1
1
1
1
1
1
1
1
1
1
1
1
1
1
1
1
1
1
1
1
1
1
1
1
1
1
1
1
1
1
1
1
1
1
1
1
1
1
1
1
1
1
1
1
1
1
1
1
1
1
1
1
1
1
1
1
1
1
1
1
1
1
1
1
1
1
1
1
1
1
1
1
1
1
1
1
1
1
1
1
1
1
1
1
1
1
1
1
1
1
1
1
1
1
1
1
1
1
1
1
1
1
1
1
1
1
1
1
1
1
1
1
1
1
1
1
1
1
1
1
1
1
1
1
1
1
1
1
1
1
1
1
1
1
1
1
1
1
1
1
1
1
1
1
1
1
1
1
1
1
1
1
1
1
1
1
1
1
1
1
1
1
1
1
1
1
1
1
1
1
1
1
1
1
1
1
0.999725
0.996095
0.930035
0.561226
0.097876
0.00933397
0.878764
1
1
1
0.999993
0.600797
0.00411875
0.000149693
1.50641e-05
7.22091e-07
7.74247e-08
9.18282e-08
5.17314e-07
2.2833e-06
4.61629e-06
4.92423e-06
3.88988e-06
2.92979e-06
2.59731e-06
2.78892e-06
3.24991e-06
3.24683e-06
2.76294e-06
1.92309e-06
1.35842e-06
1.18126e-06
1.28631e-06
1.97153e-06
5.56677e-06
2.22015e-05
0.000100675
0.00044064
0.00152123
0.0050932
0.0293422
0.147828
0.197073
0.860046
0.934321
0.771122
0.103475
0.018086
0.00104722
0.000371532
0.00131946
0.00562231
0.00821108
0.00149137
3.42692e-05
8.66569e-07
2.37392e-07
3.81175e-07
7.23371e-07
2.41971e-06
1.10718e-05
4.30863e-05
8.13667e-05
7.07904e-05
4.66198e-05
2.28851e-05
1.26112e-05
1.4092e-05
3.32664e-05
0.000124053
0.000463225
0.00101015
0.00190463
0.00337239
0.0050663
0.00555518
0.00398918
0.00206466
0.00148291
0.00165591
0.00283731
0.00606013
0.0132605
0.034863
0.0770872
0.106183
0.111559
0.121645
0.146941
0.110363
0.06539
0.00895041
0.00168695
0.000419496
0.000476951
0.000191001
1.76809e-05
8.90125e-08
2.67634e-10
2.37398e-11
3.4269e-11
8.23929e-11
4.07413e-09
3.99445e-08
2.86649e-07
2.00704e-06
3.83907e-06
5.55119e-05
0.0886341
0.397006
0.199617
0.0624653
5.53497e-05
4.68958e-05
0.00310602
0.0411193
0.146089
0.175916
0.0953635
0.00147776
0.000491282
1.13627e-05
6.21991e-06
4.01529e-06
3.18894e-06
2.23697e-06
1.78671e-06
1.40838e-06
8.72776e-07
5.00454e-07
9.05288e-06
8.96148e-06
1.73122e-08
4.85325e-09
1.04507e-09
5.25621e-10
3.78197e-10
1.68279e-10
4.11825e-11
1.18246e-11
5.61613e-12
2.72807e-12
8.8966e-12
9.89509e-12
2.73924e-10
9.80297e-10
4.11354e-08
1.32335e-07
1.79695e-06
1.66652e-06
1.05922e-06
1.97054e-06
8.88802e-06
4.10137e-05
0.000213966
0.00080911
0.00286125
0.00675725
0.0156417
0.0239123
0.0594147
0.0151284
0.594641
0.623202
0.768656
0.753265
0.882261
0.920752
0.994546
0.99938
1
1
1
1
1
1
1
1
1
1
1
1
1
1
1
1
1
1
1
1
1
1
1
1
1
1
1
1
1
1
1
1
1
1
1
1
1
1
1
1
1
1
1
1
1
1
1
1
1
1
1
1
1
1
1
1
1
1
1
1
1
1
1
1
1
1
1
1
1
1
1
1
1
1
1
1
1
1
1
1
1
1
1
1
1
1
1
1
1
1
1
1
1
1
1
1
1
1
1
1
1
1
1
1
1
1
1
1
1
1
1
1
1
1
1
1
1
1
1
1
1
1
1
1
1
1
1
1
1
1
1
1
1
1
1
1
1
1
1
1
1
1
1
1
1
1
1
1
1
1
1
1
1
1
1
1
1
1
1
1
1
1
1
1
1
1
1
1
1
1
1
1
1
1
1
1
1
1
1
1
1
1
1
1
1
1
1
1
1
1
1
1
1
1
1
1
1
1
1
1
1
1
1
1
1
1
1
1
1
1
1
1
1
1
1
1
1
1
1
1
1
1
1
1
1
1
1
1
1
1
0.999143
0.959254
0.832511
0.508338
0.16316
0.705331
1
1
1
1
1
0.986594
0.0191148
0.000342652
2.40698e-05
2.36775e-06
5.77642e-07
8.98334e-07
3.12421e-06
7.98024e-06
9.58984e-06
7.99337e-06
5.82771e-06
5.06677e-06
5.27671e-06
5.92423e-06
7.38808e-06
8.27847e-06
1.07373e-05
1.07212e-05
1.43923e-05
1.82903e-05
2.54225e-05
4.58282e-05
0.000107034
0.000282158
0.000735077
0.00219927
0.00900119
0.0445548
0.12569
0.459655
0.875747
0.935092
0.933001
0.105705
0.0514881
0.00260151
4.45765e-05
6.86547e-06
5.17136e-06
4.70564e-06
2.44465e-06
6.76718e-07
3.67903e-07
3.75551e-07
6.1684e-07
1.45335e-06
2.71149e-06
8.5942e-06
2.36021e-05
4.58705e-05
6.06752e-05
6.45559e-05
6.33757e-05
4.69163e-05
3.34687e-05
3.43049e-05
5.99552e-05
0.000157608
0.00038883
0.000859067
0.00177759
0.0032447
0.0049888
0.00570686
0.00446705
0.00250263
0.00148392
0.00148592
0.00183292
0.00298197
0.00420923
0.00773085
0.0170467
0.0558367
0.0842284
0.182748
0.187845
0.943552
0.784154
0.340859
0.00445486
0.00186274
0.000517011
6.44185e-05
1.87799e-07
6.21744e-10
3.18509e-11
1.1064e-09
2.52619e-09
1.24573e-09
2.32165e-08
5.19599e-08
1.42348e-07
3.93227e-07
0.000172377
0.00573522
0.0475933
0.0138513
0.0130375
0.000167963
5.6865e-05
0.000573004
0.00418953
0.100916
0.284655
0.353431
0.0993898
0.0122514
6.51491e-06
4.04528e-06
1.41706e-06
9.63271e-07
6.1713e-07
5.10885e-07
4.07052e-07
3.23355e-07
7.14392e-07
2.31324e-05
0.000140402
4.95779e-06
6.5505e-06
3.13494e-09
6.6106e-10
3.96178e-10
1.66292e-10
1.05e-10
2.88754e-11
1.27134e-11
3.4607e-12
1.77239e-12
5.91426e-12
1.10652e-11
2.09507e-10
9.18106e-10
2.88523e-08
3.26996e-07
1.41482e-06
2.64758e-06
1.71611e-06
2.44103e-06
9.08351e-06
4.05756e-05
0.000183862
0.000800088
0.00236179
0.00577409
0.0106483
0.0194598
0.0241154
0.0197839
0.0987811
0.588243
0.638289
0.779735
0.825435
0.949414
0.988306
0.999909
0.999996
1
1
1
1
1
1
1
1
1
1
1
1
1
1
1
1
1
1
1
1
1
1
1
1
1
1
1
1
1
1
1
1
1
1
1
1
1
1
1
1
1
1
1
1
1
1
1
1
1
1
1
1
1
1
1
1
1
1
1
1
1
1
1
1
1
1
1
1
1
1
1
1
1
1
1
1
1
1
1
1
1
1
1
1
1
1
1
1
1
1
1
1
1
1
1
1
1
1
1
1
1
1
1
1
1
1
1
1
1
1
1
1
1
1
1
1
1
1
1
1
1
1
1
1
1
1
1
1
1
1
1
1
1
1
1
1
1
1
1
1
1
1
1
1
1
1
1
1
1
1
1
1
1
1
1
1
1
1
1
1
1
1
1
1
1
1
1
1
1
1
1
1
1
1
1
1
1
1
1
1
1
1
1
1
1
1
1
1
1
1
1
1
1
1
1
1
1
1
1
1
1
1
1
1
1
1
1
1
1
1
1
1
1
1
1
1
1
1
1
1
1
1
1
1
1
1
1
1
1
0.999922
0.936236
0.558798
0.681502
0.978691
1
1
1
1
1
1
0.999987
0.660532
0.00477109
0.000174772
3.58586e-05
1.15495e-05
8.88998e-06
1.13961e-05
1.36125e-05
1.36926e-05
1.18674e-05
9.93965e-06
8.93808e-06
9.0492e-06
1.00198e-05
1.20891e-05
1.12793e-05
1.68753e-05
1.69608e-05
2.67265e-05
3.68753e-05
6.04987e-05
0.000103843
0.000188928
0.000441883
0.00136348
0.00749962
0.0358218
0.0713147
0.631927
0.83521
0.887651
0.904522
0.897751
0.350015
0.0622021
0.00687905
2.97094e-05
1.68993e-06
3.98166e-07
1.53854e-07
1.47408e-07
1.39382e-07
3.00917e-07
7.40993e-07
1.48048e-06
2.77811e-06
5.82302e-06
1.22111e-05
3.4559e-05
8.60939e-05
0.000156314
0.00019357
0.000208253
0.000146313
6.79558e-05
4.17478e-05
4.20854e-05
6.32894e-05
0.000132047
0.000258892
0.000487067
0.000849567
0.00128705
0.00164885
0.00170529
0.00144039
0.00124598
0.00147327
0.00196565
0.00310204
0.00415222
0.0058649
0.0069861
0.0108217
0.0207618
0.0360013
0.10163
0.981543
0.969227
0.518001
0.179851
0.00213137
0.000306573
8.3676e-06
5.28928e-08
2.94014e-10
5.27148e-11
8.25186e-10
9.2189e-09
4.01833e-09
4.01946e-08
1.13694e-07
2.35926e-07
8.0478e-07
7.42364e-05
0.00222134
0.00117476
0.00232775
6.75497e-05
0.000298798
0.000464594
0.00327291
0.0927863
0.313487
0.528861
0.516297
0.510835
0.226689
2.73413e-06
2.76147e-06
4.07501e-07
3.77765e-07
2.73375e-07
2.50473e-07
2.79852e-07
5.00063e-05
0.000190285
0.000968889
0.000266494
0.00041754
1.85861e-07
7.29722e-08
1.55226e-09
4.48911e-10
2.61624e-10
1.148e-10
3.11119e-11
1.09883e-11
7.55616e-12
6.20383e-12
1.36389e-11
4.00288e-11
6.69254e-10
2.74206e-09
1.37868e-08
5.59594e-08
5.06288e-07
1.10723e-06
3.59899e-06
1.657e-05
7.32578e-05
0.000287813
0.00101996
0.00252929
0.00507887
0.00741028
0.0111682
0.0153436
0.0208894
0.0240806
0.00536737
0.39985
0.639198
0.724077
0.857482
0.917687
0.992712
0.99905
0.999999
1
1
1
1
1
1
1
1
1
1
1
1
1
1
1
1
1
1
1
1
1
1
1
1
1
1
1
1
1
1
1
1
1
1
1
1
1
1
1
1
1
1
1
1
1
1
1
1
1
1
1
1
1
1
1
1
1
1
1
1
1
1
1
1
1
1
1
1
1
1
1
1
1
1
1
1
1
1
1
1
1
1
1
1
1
1
1
1
1
1
1
1
1
1
1
1
1
1
1
1
1
1
1
1
1
1
1
1
1
1
1
1
1
1
1
1
1
1
1
1
1
1
1
1
1
1
1
1
1
1
1
1
1
1
1
1
1
1
1
1
1
1
1
1
1
1
1
1
1
1
1
1
1
1
1
1
1
1
1
1
1
1
1
1
1
1
1
1
1
1
1
1
1
1
1
1
1
1
1
1
1
1
1
1
1
1
1
1
1
1
1
1
1
1
1
1
1
1
1
1
1
1
1
1
1
1
1
1
1
1
1
1
1
1
1
1
1
1
1
1
1
1
1
1
1
1
1
1
1
1
1
1
1
1
1
1
1
1
1
1
1
1
1
0.999728
0.998528
0.991217
0.957227
0.874232
0.790755
0.681573
0.588224
0.523429
0.450178
0.42159
0.383212
0.3872