/*--------------------------------*- C++ -*----------------------------------*\
| =========                 |                                                 |
| \\      /  F ield         | OpenFOAM: The Open Source CFD Toolbox           |
|  \\    /   O peration     | Version:  2.1.1                                 |
|   \\  /    A nd           | Web:      www.OpenFOAM.org                      |
|    \\/     M anipulation  |                                                 |
\*---------------------------------------------------------------------------*/
FoamFile
{
    version     2.0;
    format      ascii;
    class       volScalarField;
    location    "0.002750000";
    object      O;
}
// * * * * * * * * * * * * * * * * * * * * * * * * * * * * * * * * * * * * * //

dimensions      [0 0 0 0 0 0 0];

internalField   nonuniform List<scalar> 
12384
(
0.00085062
0.000757819
0.000489375
0.000232081
0.000149817
0.000157094
0.000190159
0.000181076
0.000158473
0.000134081
0.000144291
0.000226894
3.67333e-05
1.4109e-06
9.05818e-06
1.92761e-05
2.45323e-05
2.26364e-05
2.32322e-05
2.43814e-05
2.96628e-05
3.58618e-05
3.93656e-05
3.99722e-05
2.64364e-05
2.39493e-05
2.84929e-05
2.56072e-05
2.14789e-05
1.96846e-05
1.71085e-05
1.67001e-05
2.07208e-05
2.11637e-05
1.97902e-05
1.86788e-05
1.71783e-05
1.12641e-05
1.31702e-05
1.06969e-05
1.33821e-05
4.99582e-06
1.48951e-07
2.83662e-09
0.000149391
0.000168766
0.000198708
0.000210064
0.000222733
0.000222615
0.000227362
0.000252002
0.000242224
0.000255641
0.000253248
0.000252483
0.000251368
0.000246342
0.000234515
0.000227037
0.000235507
0.000238469
0.000232592
0.000244609
0.000215678
0.000214688
0.000157209
0.00012987
5.57791e-05
2.34402e-05
1.2024e-05
2.50197e-05
2.58841e-05
2.71662e-06
0.000160243
0.000183265
0.000218332
0.000127747
7.23649e-05
4.1261e-05
3.03083e-05
3.99318e-05
8.07087e-05
0.000143935
0.000182968
0.000222917
0.000227368
0.000220119
0.000205533
0.000204213
0.000222267
0.00022984
0.000239676
0.000229646
2.68317e-05
1.4385e-05
8.22696e-06
5.79101e-06
5.31143e-06
1.64199e-07
1.45394e-07
8.22641e-07
1.4462e-07
2.08248e-08
8.33032e-06
3.44129e-05
6.68223e-05
0.000195503
0.000119553
9.15969e-05
8.40609e-05
8.8072e-05
7.8148e-05
8.07963e-05
6.52537e-05
5.11132e-05
2.04213e-05
1.80238e-05
2.51388e-05
7.04295e-05
4.30321e-05
4.16823e-05
6.53863e-05
7.72549e-06
7.33644e-07
3.30308e-07
1.44859e-08
2.13863e-10
7.05196e-12
1.94014e-13
4.29101e-15
5.97581e-17
4.57401e-19
3.05161e-21
5.22187e-20
3.18204e-17
1.23403e-16
2.56297e-16
6.92732e-15
1.41429e-13
1.85527e-12
2.299e-11
8.81308e-11
5.74575e-09
5.7963e-07
1.38649e-06
1.57417e-06
7.74141e-07
3.57905e-07
2.04951e-07
9.12266e-08
3.67139e-08
4.02167e-09
1.40082e-10
3.25213e-12
1.32906e-14
5.85962e-18
3.44713e-21
1.39724e-24
9.81359e-28
4.80377e-31
2.26465e-34
4.47604e-38
1.23328e-41
2.60785e-57
4.23919e-58
1.49648e-61
4.42923e-65
1.12485e-68
2.16933e-72
3.46709e-76
4.74032e-80
6.03928e-84
7.07649e-88
8.44521e-92
9.64511e-96
1.18038e-99
1.36691e-103
1.66419e-107
1.95856e-111
2.30881e-115
2.75853e-119
3.20355e-123
3.75301e-127
4.31835e-131
4.90963e-135
5.58705e-139
6.26419e-143
6.97695e-147
7.73382e-151
8.44723e-155
9.23892e-159
9.968e-163
1.06918e-166
4.5226e-184
7.79427e-188
3.84475e-193
1.85466e-198
8.14239e-204
3.19784e-209
9.78773e-215
2.60914e-220
6.24582e-226
1.35226e-231
2.68643e-237
4.98459e-243
8.80572e-249
1.492e-254
2.47551e-260
4.06613e-266
6.75052e-272
1.14565e-277
2.03079e-283
3.80945e-289
7.72793e-295
1.72504e-300
4.35234e-306
1.2681e-311
4.42102e-317
1.92686e-322
0
0
0
0
0
0
0
0
0
0
0
0
0
0
0
0
0
0
0
0
0
0
0
0
0
0
0
0
0
0
0
0
0
0
0
0
0
0
0
0
0
0
0
0
0
0
0
0
0
0
0
0
0
0
0
0
0
0
0
0
0
0
0
0
0
0
0
0
0
0
0
0
0
0
0
0
0
0
0
0
0
0
0
0
0
0
0
0
0
0
0
0
0
0
0
0
0
0
0
0
0
0
0
0
0
0
0
0
0
0
0
0
0
0
0
0
0
0
0
0
0
0
0
0
0
0
0
0
0
0
0
0
0
0
0
0
0
0
0
0
0
0
0
0
0
0
0
0
0
0
0
0
0
0
0.000806924
0.000479225
0.000163028
3.80045e-05
1.17982e-05
1.00816e-05
2.15766e-05
4.63549e-05
5.02763e-05
5.48841e-05
6.19797e-05
8.09194e-05
2.01708e-05
4.94362e-07
2.2665e-05
2.24945e-05
1.65438e-05
1.63677e-05
3.61321e-05
0.000104634
0.000242292
0.000484658
0.000507916
0.000512698
0.000358803
0.000232298
0.000243301
0.000174803
0.000141753
0.000203073
0.000115541
5.42464e-05
2.88442e-05
1.86791e-05
1.81418e-05
1.64046e-05
1.2914e-05
1.22801e-05
9.36629e-06
1.69282e-05
4.08015e-05
1.11728e-05
8.20129e-07
1.47626e-08
0.000150622
0.000166406
0.00019984
0.000209897
0.000223025
0.000219219
0.000216632
0.000229677
0.000221719
0.000245756
0.000259724
0.000252911
0.000208441
0.000158895
0.000103172
5.70843e-05
5.07885e-05
4.13044e-05
4.0352e-05
3.59761e-05
1.7531e-05
8.37474e-05
0.000116302
0.000201794
0.000140551
2.28297e-05
1.03382e-05
2.57466e-05
0.000111282
2.10253e-05
0.000158392
0.000182183
0.000251023
0.000200072
0.0001333
8.71622e-05
6.28833e-05
5.96772e-05
8.6853e-05
0.000132612
0.000171656
0.000197192
0.000174028
0.000133616
7.41568e-05
4.60176e-05
0.000121573
0.000230466
0.000222711
0.000195766
0.000185773
0.000120518
3.80207e-05
2.83419e-05
9.91036e-05
3.83402e-06
1.15468e-05
2.15641e-05
1.31094e-05
1.35354e-06
2.76857e-05
2.18838e-05
5.13031e-05
0.000116522
0.000180781
0.000193872
0.000184733
0.000179958
0.000180709
0.00016931
0.00011844
5.08499e-05
9.68655e-06
1.69031e-05
1.93664e-05
2.32792e-05
1.74378e-05
3.24981e-05
2.69055e-05
6.64485e-06
8.0395e-07
2.93386e-06
2.0652e-06
1.14212e-07
4.52932e-10
2.66865e-12
7.99727e-14
3.16706e-15
3.15378e-17
2.80841e-19
3.75054e-18
3.0334e-15
1.96018e-13
6.00723e-13
1.08435e-11
1.34577e-10
1.51968e-09
1.44247e-08
3.06131e-08
2.72326e-06
9.322e-06
5.7802e-06
3.1733e-06
2.06598e-06
1.4063e-06
8.78464e-07
3.31689e-07
1.27073e-07
2.13164e-08
7.09077e-10
5.02171e-11
2.96614e-12
1.30004e-14
8.52885e-17
8.01228e-21
7.96228e-26
1.82215e-29
1.6872e-32
5.01616e-35
1.85995e-38
1.03626e-55
9.62629e-57
4.75329e-60
1.06897e-63
4.04459e-67
5.76573e-71
1.78107e-74
2.96875e-78
6.23623e-82
9.74502e-86
1.79506e-89
2.65085e-93
3.72893e-97
5.0149e-101
5.96501e-105
7.10499e-109
8.2722e-113
9.12733e-117
1.04831e-120
1.14298e-124
1.28592e-128
1.44221e-132
1.65407e-136
1.96223e-140
2.31755e-144
2.7548e-148
3.16716e-152
3.6656e-156
4.22751e-160
4.51798e-164
4.67347e-178
7.24024e-182
3.37317e-187
1.75817e-192
8.45582e-198
3.75288e-203
1.0961e-208
2.7424e-214
6.3678e-220
1.33684e-225
2.60932e-231
4.71915e-237
8.12192e-243
1.33413e-248
2.16399e-254
3.43272e-260
5.52406e-266
9.03028e-272
1.52601e-277
2.71475e-283
5.15995e-289
1.07108e-294
2.48318e-300
6.58434e-306
2.06046e-311
7.94154e-317
4.05134e-322
0
0
0
0
0
0
0
0
0
0
0
0
0
0
0
0
0
0
0
0
0
0
0
0
0
0
0
0
0
0
0
0
0
0
0
0
0
0
0
0
0
0
0
0
0
0
0
0
0
0
0
0
0
0
0
0
0
0
0
0
0
0
0
0
0
0
0
0
0
0
0
0
0
0
0
0
0
0
0
0
0
0
0
0
0
0
0
0
0
0
0
0
0
0
0
0
0
0
0
0
0
0
0
0
0
0
0
0
0
0
0
0
0
0
0
0
0
0
0
0
0
0
0
0
0
0
0
0
0
0
0
0
0
0
0
0
0
0
0
0
0
0
0
0
0
0
0
0
0
0
0
0
0
0.000508997
0.00016168
4.59984e-05
2.2639e-05
1.02997e-05
2.58934e-06
1.05276e-06
2.50154e-06
4.09288e-06
9.325e-06
1.85478e-05
2.52479e-05
7.7737e-06
3.62927e-07
8.02565e-06
7.13348e-06
1.34319e-05
9.25927e-05
0.000537914
0.00110153
0.00115204
0.00049259
0.000259712
0.000176827
0.000191301
0.000155989
0.000167123
0.00029668
0.000525146
0.000648327
0.00101989
0.000674717
0.000257026
5.09339e-05
2.11418e-05
1.41082e-05
1.0541e-05
8.05555e-06
8.08679e-06
7.83305e-06
3.33776e-06
2.77783e-06
2.24296e-07
9.88399e-09
0.000133221
0.000171337
0.000196934
0.000207033
0.000203832
0.000167428
0.000147913
0.000141141
0.000173675
0.000231359
0.000260078
0.000219044
0.000155665
0.000100759
6.04926e-05
4.39582e-05
3.70064e-05
3.28352e-05
3.76004e-05
3.97679e-05
2.74619e-05
1.07469e-05
1.62515e-05
2.01202e-05
0.000140677
5.3494e-05
6.7715e-06
1.24095e-05
8.30074e-05
2.83996e-05
0.00015256
0.000183929
0.000228108
0.000251814
0.000217874
0.000151221
0.000114118
9.86743e-05
0.000101364
0.0001285
0.000156966
0.000172467
0.0001498
6.88304e-05
3.50293e-05
1.1585e-05
1.87774e-05
6.74592e-05
0.000243334
0.000204902
0.00014303
7.48177e-05
3.60747e-05
1.7659e-05
1.59527e-05
2.46296e-05
4.39955e-05
6.99533e-05
3.01555e-05
8.03403e-06
2.83963e-05
5.75538e-05
7.8041e-05
0.000133444
0.000176827
0.000191992
0.000193167
0.00017859
0.000159913
0.000161939
0.000168135
9.68319e-05
3.11181e-05
1.87325e-05
7.52078e-06
5.35863e-06
4.40871e-06
2.35341e-06
5.09755e-07
5.2566e-07
7.27255e-07
1.03011e-06
8.53292e-07
1.67373e-06
6.65576e-07
3.61803e-10
1.48366e-12
1.63445e-14
2.16638e-15
2.89972e-17
1.39529e-16
1.3877e-11
9.92032e-10
7.02415e-10
3.30984e-09
3.58459e-08
3.95075e-07
5.10747e-06
1.72072e-05
3.92294e-05
3.05947e-05
1.4182e-05
8.39609e-07
2.55114e-06
1.13724e-06
7.12539e-07
5.07195e-07
3.00839e-07
1.11693e-07
9.09208e-08
6.14334e-09
2.79831e-10
2.44279e-13
1.08558e-15
6.99218e-18
1.58694e-19
2.29322e-24
2.86356e-30
1.87735e-34
1.22718e-37
1.86657e-53
6.64427e-53
2.30962e-56
1.30344e-59
1.00582e-63
1.12836e-67
3.16813e-72
2.9534e-76
1.28992e-80
9.80583e-85
4.28287e-89
3.09076e-93
2.79174e-97
1.94879e-101
1.88517e-105
1.8655e-109
1.45592e-113
1.40229e-117
1.16736e-121
1.36301e-125
9.11282e-130
1.65977e-133
1.32448e-137
2.48229e-141
2.36099e-145
3.98336e-149
3.53764e-153
6.82599e-157
5.70775e-161
1.50761e-165
1.69952e-177
1.31197e-180
6.37577e-186
3.2486e-191
1.88884e-196
9.86196e-202
2.60604e-207
5.63642e-213
1.19935e-218
2.41532e-224
4.61546e-230
8.23065e-236
1.4199e-241
2.31593e-247
3.73622e-253
5.64321e-259
8.76227e-265
1.29446e-270
2.08585e-276
3.33453e-282
6.04723e-288
1.10854e-293
2.40027e-299
5.51048e-305
1.55657e-310
5.05146e-316
2.19859e-321
0
0
0
0
0
0
0
0
0
0
0
0
0
0
0
0
0
0
0
0
0
0
0
0
0
0
0
0
0
0
0
0
0
0
0
0
0
0
0
0
0
0
0
0
0
0
0
0
0
0
0
0
0
0
0
0
0
0
0
0
0
0
0
0
0
0
0
0
0
0
0
0
0
0
0
0
0
0
0
0
0
0
0
0
0
0
0
0
0
0
0
0
0
0
0
0
0
0
0
0
0
0
0
0
0
0
0
0
0
0
0
0
0
0
0
0
0
0
0
0
0
0
0
0
0
0
0
0
0
0
0
0
0
0
0
0
0
0
0
0
0
0
0
0
0
0
0
0
0
0
0
0
0
0.000148066
0.000143682
0.000259587
0.000290044
0.000278882
4.77269e-05
8.94519e-06
1.97184e-06
1.21392e-06
1.34052e-06
3.15721e-06
3.08955e-06
1.8254e-06
2.39042e-07
2.59462e-06
7.15541e-06
0.000116214
0.000963534
0.00107241
0.00039603
8.3402e-05
2.93586e-05
1.54626e-05
7.47879e-06
1.07291e-05
1.13598e-05
9.65475e-06
2.48538e-05
3.12785e-05
6.61968e-05
0.000128903
0.000416949
0.000965188
0.000490445
0.000148625
3.32819e-05
9.97135e-06
4.07104e-06
2.44406e-06
1.65061e-06
4.59456e-07
3.34413e-07
2.53057e-07
3.09563e-08
0.00013272
0.000167538
0.00018468
0.000191145
0.000151547
0.000120451
0.000100753
0.000132017
0.000232345
0.000250878
0.000145848
7.6876e-05
5.09446e-05
4.18502e-05
4.49778e-05
3.10192e-05
5.94998e-05
0.000171683
0.000226044
0.000193887
0.000209074
0.000206107
4.10479e-05
2.79364e-05
2.35343e-05
6.37657e-05
4.4954e-06
4.56711e-06
8.19181e-05
2.08075e-05
0.000143322
0.000165229
0.000187999
0.000223116
0.000248597
0.000206384
0.000160338
0.000150714
0.00013525
0.000137724
0.000159969
0.000166569
0.000157547
8.58365e-05
3.24899e-05
1.42493e-05
1.06074e-05
1.84604e-05
0.000100895
0.000215332
0.000104997
5.14935e-05
2.75804e-05
1.50135e-05
1.76385e-05
3.21375e-05
4.78269e-05
4.29358e-05
2.396e-05
5.47981e-06
2.46376e-05
6.76447e-05
0.000126911
0.000178833
0.000193188
0.000193449
0.00017527
0.000153941
0.000131385
0.000126983
0.000161686
0.000167097
0.000117726
3.39229e-05
1.65037e-06
1.23243e-06
9.41657e-07
2.33077e-07
1.25608e-07
9.13666e-08
1.00186e-07
1.15451e-07
1.71166e-07
1.12565e-07
7.07509e-07
7.14319e-07
3.7215e-10
1.00133e-12
1.33459e-14
1.0136e-15
1.14151e-13
2.23134e-08
8.47961e-07
2.41618e-07
3.94578e-07
6.20452e-06
2.38734e-05
2.51042e-05
2.87659e-05
1.58737e-05
7.44908e-06
3.76979e-06
2.447e-06
1.107e-06
5.46173e-07
2.0346e-07
1.01707e-07
9.6729e-08
9.29802e-08
4.18147e-08
3.83317e-08
1.78324e-08
2.23578e-10
1.78275e-13
6.5629e-16
4.24263e-18
1.05268e-19
2.18828e-23
3.51744e-29
7.34135e-35
5.20722e-46
1.82119e-45
1.22327e-48
3.8287e-52
1.15029e-55
6.94707e-60
2.71584e-64
3.70334e-69
1.1651e-73
1.92565e-78
8.68222e-83
2.02044e-87
1.12053e-91
4.7881e-96
2.55452e-100
1.85559e-104
1.49755e-108
1.05163e-112
8.77318e-117
6.1923e-121
7.63391e-125
6.31041e-129
9.017e-133
8.8178e-137
1.36033e-140
1.25171e-144
1.68498e-148
1.50583e-152
2.03934e-156
1.14082e-160
6.94038e-172
6.64776e-175
3.80586e-180
1.98517e-185
1.5535e-190
9.05403e-196
1.84022e-201
3.1267e-207
4.98585e-213
8.78259e-219
1.46566e-224
2.43601e-230
3.7375e-236
5.7072e-242
8.28995e-248
1.20977e-253
1.73183e-259
2.52565e-265
3.75609e-271
5.8402e-277
9.52428e-283
1.67241e-288
3.17701e-294
6.77955e-300
1.63933e-305
4.75016e-311
1.70222e-316
8.39912e-322
0
0
0
0
0
0
0
0
0
0
0
0
0
0
0
0
0
0
0
0
0
0
0
0
0
0
0
0
0
0
0
0
0
0
0
0
0
0
0
0
0
0
0
0
0
0
0
0
0
0
0
0
0
0
0
0
0
0
0
0
0
0
0
0
0
0
0
0
0
0
0
0
0
0
0
0
0
0
0
0
0
0
0
0
0
0
0
0
0
0
0
0
0
0
0
0
0
0
0
0
0
0
0
0
0
0
0
0
0
0
0
0
0
0
0
0
0
0
0
0
0
0
0
0
0
0
0
0
0
0
0
0
0
0
0
0
0
0
0
0
0
0
0
0
0
0
0
0
0
0
0
0
0.00025415
0.00090696
0.00177871
0.00204297
0.00168171
0.00117209
0.000444742
9.24287e-05
2.64696e-05
3.94364e-06
1.16561e-06
1.85484e-07
2.83908e-07
3.23314e-07
4.49918e-06
0.000204614
0.00130824
0.000474647
0.000155075
3.38367e-05
1.15787e-05
4.71876e-06
2.93321e-06
5.11182e-06
6.85013e-06
7.33659e-06
4.1961e-06
1.17613e-05
1.39077e-05
1.96283e-05
3.24756e-05
5.95991e-05
0.000226382
0.000759565
0.000798851
0.000213601
2.81369e-05
2.81818e-06
5.58542e-07
9.86082e-08
3.51946e-08
8.91642e-08
3.74813e-07
1.73368e-07
0.000129977
0.000155171
0.000156204
0.000151195
0.000120744
9.6242e-05
0.000102632
0.000198283
0.000227018
9.17171e-05
4.35686e-05
3.25802e-05
2.85884e-05
1.87994e-05
2.90852e-05
2.80585e-05
0.000158471
0.000137694
5.99265e-05
5.94176e-05
8.40103e-05
0.000123103
0.000214371
7.6245e-05
3.25991e-05
0.000133445
3.49287e-06
3.94116e-06
2.90346e-05
2.50278e-05
0.000134188
0.000140309
0.000146741
0.00018852
0.000242857
0.000228818
0.000206813
0.000197377
0.000173176
0.000160525
0.000173403
0.000195207
0.000201048
0.000173438
8.02271e-05
2.56797e-05
1.01408e-05
6.03043e-06
1.99465e-05
0.000250502
9.25837e-05
3.70268e-05
2.08513e-05
1.44172e-05
1.74028e-05
2.85004e-05
5.0085e-05
9.821e-05
0.00017475
2.06261e-05
2.25734e-05
7.6035e-05
0.000185186
0.000195928
0.000188749
0.000187449
0.00016314
0.00013767
0.000142559
0.000153785
0.000159507
0.000176069
0.000167512
9.50338e-05
8.09493e-06
6.79504e-07
7.83957e-07
1.8548e-07
5.97823e-08
4.84767e-08
4.8179e-08
3.92741e-08
3.69809e-08
1.79581e-08
2.07984e-09
4.34579e-07
6.22231e-07
1.31291e-10
4.1525e-13
4.24552e-15
2.46228e-10
3.09704e-06
1.82777e-05
1.19203e-05
1.05458e-05
1.39894e-05
2.80052e-05
1.2691e-05
4.93688e-06
2.75477e-06
1.4603e-06
5.21044e-07
2.77917e-07
1.25709e-07
4.46045e-08
1.4671e-08
8.51234e-09
7.48745e-09
7.53072e-09
5.14244e-09
3.47579e-09
3.34198e-09
3.69783e-09
3.41799e-10
3.16936e-13
4.43208e-16
2.65104e-18
5.12952e-20
6.19845e-23
6.48321e-29
2.74821e-40
6.43089e-41
1.21861e-44
1.87938e-48
2.56053e-52
6.36094e-56
9.37988e-59
1.19149e-62
3.02811e-67
1.06943e-71
3.06263e-76
1.26048e-80
4.8986e-85
2.42551e-89
1.30372e-93
7.38839e-98
5.49954e-102
4.2076e-106
2.92662e-110
2.76834e-114
1.60021e-118
2.61289e-122
1.85417e-126
2.79812e-130
2.90334e-134
4.28065e-138
3.99637e-142
5.33199e-146
5.06309e-150
6.28787e-154
3.66473e-165
2.33357e-168
1.46022e-172
6.91771e-178
1.24646e-182
6.13125e-188
1.11796e-193
1.4438e-199
1.73487e-205
2.31734e-211
3.41243e-217
5.07457e-223
7.31067e-229
1.0282e-234
1.40283e-240
1.9136e-246
2.57613e-252
3.54038e-258
4.91444e-264
7.11476e-270
1.07014e-275
1.71647e-281
2.96464e-287
5.62095e-293
1.20223e-298
2.96719e-304
8.96497e-310
3.54636e-315
2.22675e-320
0
0
0
0
0
0
0
0
0
0
0
0
0
0
0
0
0
0
0
0
0
0
0
0
0
0
0
0
0
0
0
0
0
0
0
0
0
0
0
0
0
0
0
0
0
0
0
0
0
0
0
0
0
0
0
0
0
0
0
0
0
0
0
0
0
0
0
0
0
0
0
0
0
0
0
0
0
0
0
0
0
0
0
0
0
0
0
0
0
0
0
0
0
0
0
0
0
0
0
0
0
0
0
0
0
0
0
0
0
0
0
0
0
0
0
0
0
0
0
0
0
0
0
0
0
0
0
0
0
0
0
0
0
0
0
0
0
0
0
0
0
0
0
0
0
0
0
0
0
0
0
0.00152549
0.00229635
0.00172156
0.000904673
0.000306433
0.000159659
0.000185077
0.000553298
0.000743797
0.000208225
1.66323e-06
5.25368e-08
6.23222e-10
8.73631e-07
3.10665e-05
0.00137164
0.000444024
0.000159239
3.2263e-05
4.76596e-06
4.40751e-06
2.91349e-06
7.76109e-06
2.99182e-05
7.71412e-05
0.000255192
0.000296575
0.000287581
0.000113374
3.46537e-05
2.95127e-05
5.01128e-05
8.58041e-05
0.000288557
0.000877763
0.000529683
3.80879e-05
1.37475e-06
1.26184e-07
1.52185e-08
1.24523e-08
4.04126e-09
4.93183e-07
1.25998e-06
0.000129561
0.000167303
0.000159971
0.000128036
9.74558e-05
9.82221e-05
0.00018174
0.000249108
8.1596e-05
3.64347e-05
3.04012e-05
2.6604e-05
1.59055e-05
1.33577e-05
1.69981e-05
2.54082e-05
0.00025234
8.15379e-05
5.13864e-05
6.16222e-05
0.00011581
0.000129712
0.000169034
0.000143003
5.4275e-05
9.70497e-05
2.05888e-06
1.46584e-06
2.30826e-05
2.05107e-05
0.000117154
0.000131657
0.000133208
0.00018888
0.000241805
0.000227161
0.000222376
0.000223127
0.000222413
0.000209834
0.000221855
0.000234533
0.000246276
0.00024605
0.000242372
0.000158048
3.46631e-05
9.73633e-06
6.34336e-06
8.1585e-05
0.000127097
3.79922e-05
1.76964e-05
1.2685e-05
1.43098e-05
2.18685e-05
3.65868e-05
7.03693e-05
0.000123197
2.77789e-05
1.94247e-05
9.82499e-05
0.00024564
0.000158117
0.000179011
0.000191562
0.000171406
0.000169596
0.000176154
0.000183764
0.000186476
0.000181451
0.000177494
8.98213e-05
9.18055e-06
1.21406e-06
4.98279e-07
9.24313e-08
6.77572e-08
3.31357e-08
1.21565e-08
1.36995e-08
6.34348e-09
4.08652e-09
3.46632e-09
8.2542e-09
3.50303e-07
6.77221e-07
2.5192e-10
1.04663e-13
9.36415e-09
1.78829e-05
0.000136578
0.00014268
6.36947e-05
3.90809e-05
1.53216e-05
8.60205e-06
3.04037e-06
1.67632e-06
4.20164e-07
5.83671e-08
8.29508e-08
3.75628e-08
1.26855e-08
4.09583e-09
1.77567e-09
1.64276e-09
1.50854e-09
1.39663e-09
1.22977e-09
1.15953e-09
5.97128e-10
1.51143e-09
2.15674e-10
5.65735e-13
5.58891e-16
2.44273e-18
3.61391e-20
1.35339e-23
1.05198e-35
3.6433e-37
1.07869e-40
1.84904e-44
8.89157e-49
3.82782e-53
1.23716e-56
1.4176e-59
1.59899e-62
2.21122e-66
1.40496e-70
7.10208e-75
4.27064e-79
2.2102e-83
1.45418e-87
8.92614e-92
6.49804e-96
4.5977e-100
3.9108e-104
2.80932e-108
3.05435e-112
2.11609e-116
3.46667e-120
2.32565e-124
4.75898e-128
3.53451e-132
6.00063e-136
4.8446e-140
7.22035e-144
5.32586e-148
4.93982e-159
2.91371e-162
1.95118e-166
1.97597e-170
9.42389e-175
3.24613e-180
5.04728e-186
5.78455e-192
5.08161e-198
4.89606e-204
5.4559e-210
7.05074e-216
9.05903e-222
1.17606e-227
1.48707e-233
1.8822e-239
2.37755e-245
3.02384e-251
3.92445e-257
5.23049e-263
7.28957e-269
1.06548e-274
1.67316e-280
2.82927e-286
5.29762e-292
1.11742e-297
2.81104e-303
8.95654e-309
4.20967e-314
1.76816e-319
0
0
0
0
0
0
0
0
0
0
0
0
0
0
0
0
0
0
0
0
0
0
0
0
0
0
0
0
0
0
0
0
0
0
0
0
0
0
0
0
0
0
0
0
0
0
0
0
0
0
0
0
0
0
0
0
0
0
0
0
0
0
0
0
0
0
0
0
0
0
0
0
0
0
0
0
0
0
0
0
0
0
0
0
0
0
0
0
0
0
0
0
0
0
0
0
0
0
0
0
0
0
0
0
0
0
0
0
0
0
0
0
0
0
0
0
0
0
0
0
0
0
0
0
0
0
0
0
0
0
0
0
0
0
0
0
0
0
0
0
0
0
0
0
0
0
0
0
0
0
0.00210889
0.00126621
0.000494352
8.20822e-05
9.28924e-06
3.50462e-06
7.02776e-06
1.38872e-05
5.54164e-05
0.000307122
0.000146421
2.44298e-07
1.39675e-08
1.53337e-07
0.000175981
0.00104356
0.000521698
0.000117193
1.57033e-05
8.47703e-06
3.06516e-06
1.08085e-05
0.000249896
8.82515e-05
2.56643e-05
1.38922e-05
1.23509e-05
2.43151e-05
6.84641e-05
0.000302829
0.000194099
9.87605e-05
0.000129836
0.00036607
0.000880641
0.000303939
1.32071e-05
5.59127e-07
7.15391e-08
1.91734e-08
5.87018e-08
3.81691e-07
7.05508e-07
1.32736e-06
0.000144047
0.000149454
0.000126274
0.000109619
0.000110631
0.000157781
0.000261574
0.000108198
5.46887e-05
4.82379e-05
5.82258e-05
5.22216e-05
2.11469e-05
8.33056e-06
9.05159e-06
1.2764e-05
0.000121398
0.000232562
0.000177735
0.000124294
0.000188047
0.000221034
0.000228856
9.58043e-05
9.44702e-05
4.1706e-05
2.19611e-06
3.81492e-06
1.28969e-05
1.07174e-05
0.000102294
0.000122072
0.000143747
0.000209003
0.000235681
0.000225003
0.000230721
0.000233047
0.000230804
0.000237779
0.000238741
0.000249178
0.000249984
0.00025454
0.000254081
0.000248542
0.000194712
4.99025e-05
7.45347e-06
8.54109e-06
0.000198485
3.58874e-05
1.40202e-05
1.01647e-05
1.18648e-05
1.72046e-05
2.41374e-05
4.57002e-05
0.000102234
4.45443e-05
1.77021e-05
7.3869e-05
0.00025591
0.00010919
0.000134319
0.000187154
0.000196023
0.000189041
0.000188705
0.000182314
0.000168945
0.00012864
0.000102655
2.9958e-05
3.72937e-06
9.1169e-07
2.06782e-07
3.53117e-08
1.39322e-08
1.19789e-08
9.9737e-09
7.12631e-09
3.01319e-09
2.06873e-09
1.696e-09
1.78803e-09
8.70132e-09
8.7373e-07
2.66187e-06
1.51539e-10
2.01952e-07
1.89558e-05
0.000260435
0.000292716
0.00013834
6.71715e-05
2.62215e-05
1.25783e-05
4.13895e-06
1.98065e-06
9.56988e-07
1.95504e-07
7.52825e-08
3.10066e-08
1.23879e-08
3.98157e-09
1.73418e-09
1.40905e-09
1.40849e-09
1.47685e-09
1.57207e-09
1.67409e-09
1.89487e-09
8.61211e-10
1.79451e-09
4.20985e-10
4.00661e-13
1.76101e-16
1.53168e-18
1.51111e-19
9.95876e-32
3.37872e-33
3.56053e-37
1.08648e-40
9.64844e-45
1.9329e-49
1.48281e-53
2.80442e-57
1.92697e-60
1.82962e-63
1.68836e-66
3.20573e-70
3.607e-74
3.38954e-78
2.79744e-82
2.49892e-86
2.02497e-90
1.79086e-94
1.6013e-98
1.45453e-102
1.38554e-106
1.53965e-110
1.56572e-114
2.15588e-118
2.42381e-122
3.48331e-126
3.85102e-130
5.15906e-134
4.92171e-138
6.04237e-142
4.77084e-153
2.02953e-156
1.4477e-160
1.47133e-164
1.75788e-168
1.60248e-172
2.44841e-178
2.70297e-184
2.12425e-190
1.49712e-196
1.20748e-202
1.19663e-208
1.33556e-214
1.5608e-220
1.82358e-226
2.14029e-232
2.512e-238
2.98661e-244
3.60663e-250
4.48145e-256
5.7591e-262
7.75666e-268
1.10684e-273
1.68499e-279
2.76191e-285
5.01912e-291
1.05814e-296
2.72678e-302
9.51752e-308
4.04643e-313
0
0
0
0
0
0
0
0
0
0
0
0
0
0
0
0
0
0
0
0
0
0
0
0
0
0
0
0
0
0
0
0
0
0
0
0
0
0
0
0
0
0
0
0
0
0
0
0
0
0
0
0
0
0
0
0
0
0
0
0
0
0
0
0
0
0
0
0
0
0
0
0
0
0
0
0
0
0
0
0
0
0
0
0
0
0
0
0
0
0
0
0
0
0
0
0
0
0
0
0
0
0
0
0
0
0
0
0
0
0
0
0
0
0
0
0
0
0
0
0
0
0
0
0
0
0
0
0
0
0
0
0
0
0
0
0
0
0
0
0
0
0
0
0
0
0
0
0
0
0
0.000818327
0.000349234
4.65006e-05
3.3466e-06
8.49115e-07
1.33074e-06
5.0828e-06
2.33671e-05
7.40414e-05
0.00016188
0.000589631
4.53543e-05
1.43443e-07
5.97288e-08
0.000116997
0.0010948
0.000854422
0.000151499
2.27836e-05
6.19682e-06
9.05682e-06
0.000220877
2.02493e-05
5.99283e-06
4.71669e-06
5.45629e-06
8.06492e-06
1.84074e-05
6.44204e-05
0.00026668
0.000548743
0.000494765
0.000560098
0.000627131
0.000189843
2.25442e-05
2.60393e-06
7.5441e-07
2.64163e-07
1.51168e-07
5.50329e-07
2.10564e-06
1.71796e-06
2.32558e-06
0.000144482
0.000149604
0.000139403
0.0001227
0.000151455
0.000248576
0.000169782
0.000112577
0.000132178
0.000101798
5.71548e-05
1.08211e-05
4.77636e-06
2.96031e-06
4.37359e-06
6.61001e-06
9.55994e-06
1.54664e-05
7.89976e-05
0.000183884
0.000169987
0.000109824
4.56593e-05
3.4772e-05
0.000199597
1.36825e-05
4.16329e-06
1.81588e-05
1.31832e-05
6.41726e-05
0.000102677
0.000120457
0.000173194
0.000231466
0.000231276
0.000223218
0.000211838
0.000220406
0.000243009
0.000240111
0.000253711
0.000250163
0.000229454
0.000132907
7.39513e-05
0.00013566
0.000217509
0.000159783
1.76222e-05
1.15624e-05
0.000248453
4.05805e-05
1.0164e-05
7.36452e-06
1.24104e-05
1.61714e-05
2.71617e-05
3.20998e-05
6.38021e-05
4.47123e-05
1.68858e-05
4.58235e-05
0.000253037
0.00016799
0.000137034
0.000164714
0.000183446
0.000187526
0.000185085
6.27026e-05
1.2155e-05
1.7842e-05
1.01924e-05
5.04129e-06
1.29166e-06
2.13728e-07
1.62903e-07
9.90997e-09
4.67045e-09
2.47086e-09
2.70277e-09
2.12872e-09
1.80775e-09
2.91203e-09
1.81675e-09
1.51951e-09
1.91647e-09
9.12053e-09
6.56904e-07
6.26133e-07
3.47035e-06
2.3169e-05
0.000129428
2.13822e-05
6.88326e-06
8.99103e-06
3.9003e-06
3.56886e-06
1.34005e-06
9.41893e-07
4.42669e-07
2.43936e-07
8.29375e-08
2.74166e-08
1.67881e-08
5.59067e-09
2.16601e-09
2.06773e-09
1.93638e-09
1.8384e-09
1.70116e-09
1.7094e-09
1.85074e-09
2.23514e-09
1.17579e-09
2.10115e-09
2.26994e-10
1.0659e-13
1.06716e-16
3.76474e-17
6.16357e-28
1.79083e-29
2.64355e-33
5.10231e-37
1.79349e-41
5.96166e-46
2.51822e-50
1.75577e-54
4.74658e-58
3.98944e-61
2.47337e-64
1.20223e-67
3.37568e-71
9.42687e-75
1.9341e-78
3.34723e-82
4.46284e-86
5.3651e-90
6.03023e-94
6.49299e-98
7.35078e-102
8.42079e-106
1.11026e-109
1.35245e-113
1.98133e-117
2.38873e-121
3.57595e-125
4.05011e-129
5.39629e-133
5.89246e-137
3.41679e-148
6.5648e-152
8.51667e-156
1.13815e-159
1.43629e-163
1.91047e-167
1.72203e-171
2.12843e-177
1.62576e-183
9.93159e-190
5.92412e-196
4.21478e-202
3.6442e-208
3.633e-214
3.80805e-220
4.12253e-226
4.48752e-232
4.96325e-238
5.58076e-244
6.44171e-250
7.70191e-256
9.57564e-262
1.25784e-267
1.71407e-273
2.47114e-279
3.89183e-285
6.98994e-291
1.48387e-296
3.94225e-302
1.28925e-307
0
0
0
0
0
0
0
0
0
0
0
0
0
0
0
0
0
0
0
0
0
0
0
0
0
0
0
0
0
0
0
0
0
0
0
0
0
0
0
0
0
0
0
0
0
0
0
0
0
0
0
0
0
0
0
0
0
0
0
0
0
0
0
0
0
0
0
0
0
0
0
0
0
0
0
0
0
0
0
0
0
0
0
0
0
0
0
0
0
0
0
0
0
0
0
0
0
0
0
0
0
0
0
0
0
0
0
0
0
0
0
0
0
0
0
0
0
0
0
0
0
0
0
0
0
0
0
0
0
0
0
0
0
0
0
0
0
0
0
0
0
0
0
0
0
0
0
0
0
0
0.000211148
6.62537e-05
3.01289e-06
4.39806e-07
6.8413e-07
6.40353e-06
0.000118466
0.00064662
0.000741328
0.000708587
0.000781926
0.000418066
6.11287e-07
7.58102e-10
6.06253e-07
1.83583e-05
5.53803e-05
0.000168034
0.00103565
0.000120545
1.21607e-05
4.38432e-06
0.000115278
3.20187e-05
6.68104e-06
4.78375e-06
5.55876e-06
8.58459e-06
1.59105e-05
4.16755e-05
0.000100601
0.000161407
0.000200513
0.000141604
6.47397e-05
2.42771e-05
1.22561e-05
9.50965e-06
6.2255e-06
4.39571e-06
2.92895e-06
2.28994e-06
3.70817e-06
4.7203e-06
7.2465e-07
8.81855e-06
1.13373e-05
4.90076e-05
0.000144564
0.00014302
0.00014254
0.000167728
0.000242486
0.000259394
0.000213988
0.000212891
0.000129861
2.88956e-05
3.4022e-06
9.27786e-07
1.3072e-06
1.62109e-06
2.03315e-06
4.45986e-06
5.40094e-06
5.42221e-06
1.64304e-05
0.000232718
0.00013157
0.00012401
1.52169e-05
8.7448e-05
8.32844e-05
6.57707e-06
7.67516e-06
2.19319e-05
2.74191e-05
3.74879e-05
3.92872e-05
6.64499e-05
0.000101005
0.000143516
0.000204078
0.000233818
0.000217735
0.000207279
0.000202991
0.000218664
0.000228885
0.000242509
0.000250467
0.000188923
3.61799e-05
6.84382e-06
2.87694e-06
5.25523e-06
1.9761e-05
0.000131691
6.98521e-05
4.18015e-06
0.000149727
4.13516e-05
8.60252e-06
7.15061e-06
1.17064e-05
1.98304e-05
2.68303e-05
3.49147e-05
5.23115e-05
5.94505e-05
0.000214615
0.000307145
8.26114e-05
5.91219e-05
0.000124379
0.000228659
0.000172994
0.000141587
0.000153089
0.000191746
6.96237e-05
2.75653e-06
5.88864e-07
6.35317e-07
6.86052e-07
2.97599e-07
1.98897e-07
1.44633e-07
9.61184e-08
2.34233e-08
1.94669e-09
1.66955e-09
1.013e-08
1.73365e-08
1.84949e-08
1.75166e-08
7.09082e-09
9.3542e-09
3.51684e-09
1.81504e-09
3.65579e-09
2.12549e-05
2.179e-05
4.01214e-05
5.15893e-05
2.20968e-05
4.3814e-05
5.42226e-07
2.08813e-06
9.05568e-07
4.01209e-07
2.76121e-07
1.98517e-07
1.50838e-07
1.01052e-07
6.45607e-08
3.63033e-08
2.20835e-08
1.07989e-08
6.43066e-09
3.31437e-09
2.53137e-09
2.2507e-09
1.77512e-09
1.74329e-09
1.75664e-09
1.76074e-09
1.81001e-09
2.49468e-09
8.61515e-10
1.62843e-09
3.32732e-11
5.97851e-15
9.72604e-17
2.8228e-20
2.10956e-22
3.50997e-25
2.90937e-28
1.15755e-31
6.3342e-36
2.86953e-40
2.3575e-44
1.06536e-48
9.48197e-53
1.5954e-56
6.42165e-60
4.241e-63
2.03029e-66
7.20928e-70
1.89703e-73
6.80264e-77
1.65455e-80
4.0377e-84
8.84913e-88
1.60347e-91
3.25197e-95
5.67534e-99
1.16735e-102
1.87717e-106
3.21697e-110
5.02178e-114
8.25483e-118
1.27421e-121
2.38905e-125
4.00707e-129
6.64397e-133
5.28905e-137
6.80494e-141
6.05631e-145
1.03461e-148
1.80878e-152
2.9205e-156
4.33358e-160
6.24242e-164
8.85351e-168
8.2178e-172
6.98767e-178
3.92158e-184
2.02104e-190
1.0633e-196
6.65812e-203
5.01697e-209
4.46067e-215
4.26487e-221
4.28595e-227
4.37972e-233
4.59962e-239
4.91602e-245
5.43382e-251
6.2171e-257
7.4637e-263
9.30403e-269
1.21032e-274
1.68544e-280
2.544e-286
4.15077e-292
7.00993e-298
1.08724e-303
1.64929e-309
2.81633e-315
5.29144e-321
0
0
0
0
0
0
0
0
0
0
0
0
0
0
0
0
0
0
0
0
0
0
0
0
0
0
0
0
0
0
0
0
0
0
0
0
0
0
0
0
0
0
0
0
0
0
0
0
0
0
0
0
0
0
0
0
0
0
0
0
0
0
0
0
0
0
0
0
0
0
0
0
0
0
0
0
0
0
0
0
0
0
0
0
0
0
0
0
0
0
0
0
0
0
0
0
0
0
0
0
0
0
0
0
0
0
0
0
0
0
0
0
0
0
0
0
0
0
0
0
0
0
0
0
0
0
0
0
0
0
0
0
0
0
0
0
0
0
0
0
0
0
0
0
0
0
0
0
0
0
0
0
0
0
0
0
0
0
0
4.09889e-05
1.05249e-05
7.31837e-07
2.45569e-07
1.40086e-06
7.81971e-05
0.000769794
0.00092231
0.000954215
0.000932906
0.000810518
0.000721219
2.4574e-05
3.19065e-08
1.10913e-07
1.46756e-06
3.07799e-06
1.08407e-05
0.000911529
6.01012e-05
1.05446e-05
9.75747e-06
0.000204764
2.17039e-05
1.02603e-05
1.05179e-05
1.1512e-05
1.16177e-05
1.2967e-05
1.90962e-05
2.34133e-05
2.54026e-05
2.40247e-05
2.28607e-05
2.54984e-05
2.75929e-05
3.03494e-05
3.29904e-05
3.28828e-05
3.31129e-05
2.67083e-05
2.31328e-05
1.96856e-05
1.43176e-05
7.67693e-05
2.10725e-05
3.50787e-05
9.44997e-05
0.000153753
0.000154114
0.000159064
0.00020253
0.000255287
0.00026375
0.000264662
0.000119921
1.19139e-05
9.52834e-07
7.11026e-07
8.6038e-07
9.74239e-07
1.0961e-06
1.53624e-06
2.68731e-06
4.20569e-06
7.74825e-06
1.68062e-05
0.000214351
6.68613e-05
0.000237893
3.89966e-05
0.000209051
2.69374e-05
4.80103e-06
6.63109e-06
1.80697e-05
2.74678e-05
2.53892e-05
6.01824e-05
9.35496e-05
0.000128683
0.000182789
0.000217875
0.000209704
0.000192265
0.000176835
0.000184746
0.000207617
0.000220959
0.000239932
0.000244101
0.00010438
7.6715e-06
1.37841e-06
5.37028e-07
5.43399e-07
1.2672e-06
1.77492e-05
4.46182e-05
2.72145e-05
4.54138e-05
0.000116301
1.24812e-05
7.25051e-06
9.88577e-06
1.32514e-05
2.13939e-05
3.56253e-05
5.81089e-05
8.38723e-05
7.01737e-05
6.2612e-05
0.000307632
6.4702e-05
8.33906e-05
0.000190602
0.000196659
0.000120533
0.000139579
0.000151951
5.2979e-06
5.18659e-07
8.34e-08
4.97415e-08
3.90878e-08
4.53242e-08
8.69909e-08
1.0101e-07
1.21616e-07
2.49986e-08
9.04047e-09
8.86997e-09
2.86011e-08
1.37159e-07
2.59602e-07
5.06528e-07
3.36725e-07
3.2116e-07
1.74799e-07
3.44241e-08
1.37326e-08
1.14147e-07
1.06932e-06
9.82092e-07
1.05421e-06
6.30831e-07
5.56679e-07
7.84228e-07
8.72053e-07
4.16682e-07
1.70871e-07
1.16727e-07
2.82875e-08
3.17164e-08
2.05298e-08
1.33005e-08
9.8292e-09
8.86855e-09
6.78063e-09
3.81795e-09
2.00485e-09
1.81504e-09
2.34018e-09
2.4589e-09
2.02525e-09
1.95398e-09
1.88972e-09
2.03351e-09
2.12613e-09
1.92265e-09