/*--------------------------------*- C++ -*----------------------------------*\
| =========                 |                                                 |
| \\      /  F ield         | OpenFOAM: The Open Source CFD Toolbox           |
|  \\    /   O peration     | Version:  2.1.1                                 |
|   \\  /    A nd           | Web:      www.OpenFOAM.org                      |
|    \\/     M anipulation  |                                                 |
\*---------------------------------------------------------------------------*/
FoamFile
{
    version     2.0;
    format      ascii;
    class       volScalarField;
    location    "0.002750000";
    object      omega;
}
// * * * * * * * * * * * * * * * * * * * * * * * * * * * * * * * * * * * * * //

dimensions      [0 0 -1 0 0 0 0];

internalField   nonuniform List<scalar> 
12384
(
2787.36
2799.31
2712.04
2717.68
2767.03
2754.07
2818.33
2618.36
2453.9
2337.26
2238.01
2347.58
781.051
634.369
770.744
1301.03
1760.02
2021.07
3107.24
4172.09
5204.14
6511.17
6558.44
6966.28
6833.13
6436.61
7359.79
7128.69
7016.78
7864.54
6719.29
6189.78
5525.95
4389.02
4943.55
4760.66
5336.38
3543.41
3663.03
3191.12
2651.68
2178.61
1491.77
854.049
4712.71
11386.5
17228.1
22253.5
25926
31466.6
32208.3
37565.9
38890.7
43622.5
43285.5
45321.8
43413.9
35915.4
31641.6
26113.5
20860.8
17761.6
16180.9
14199.5
11794.8
9795.68
8331.28
7207.7
5809.84
5688.04
3699.86
3013.43
2196.4
1152.63
3689.69
11301.5
26247.8
46625.9
66984
84385.2
94616.4
99894.5
99246.1
101146
100548
108242
108446
115737
103384
100575
71697
49764
21268.3
6705.14
3214.38
2931.46
3324.05
3038.16
2780.66
1864.64
1451.99
1617.8
1183.52
674.998
1902.28
4463.3
10403.8
25964.4
39440.3
46157.1
43729
39133.2
34565.1
28581.4
25465.3
27194.5
44615.9
55096.4
50765.2
27728.3
11959.6
7505.37
4603.17
3429.58
3069.81
3054.51
2785.11
2181.27
1887.97
1554.79
1113.12
846.746
694.378
634.379
620.945
652.718
700.522
762.751
910.574
1126.26
1523.13
2022.62
2970.95
4363.03
7529.23
8412.92
8379.22
6182.8
5714.08
4315.13
3915.98
3424.54
3209.44
2879.92
2757.45
2413.46
2300.04
1865.44
1607.56
1124.36
861.598
684.388
630.334
619.508
607.907
610.573
613.154
611.017
614.509
613.523
614.376
614.903
614.259
615.925
614.099
616.7
613.633
616.865
613.881
616.768
615.149
615.505
616.191
615.614
615.576
616.497
615.055
615.924
614.914
615.029
614.755
614.173
614.018
613.382
615.548
615.63
615.754
615.748
615.801
615.87
615.802
615.973
615.834
616.014
615.864
615.996
615.922
615.968
615.936
615.969
615.951
615.977
615.968
615.984
615.972
615.987
615.976
615.983
615.974
615.976
615.965
615.963
615.936
615.992
616.038
616.008
616.012
616.012
616.019
616.014
616.023
616.014
616.023
616.012
616.02
616.011
616.011
616.005
616.001
616.005
616.006
616.009
616.016
616.013
616.022
616.016
616.027
616.018
616.026
616.02
616.021
616.015
616.007
616.042
616.049
616.005
616.011
616.021
616.024
616.03
616.022
616.03
616.019
616.025
616.017
616.019
616.012
616.007
616.006
616.001
616.007
616.01
616.011
616.019
616.019
616.019
616.03
616.023
616.032
616.028
616.03
616.028
616.027
616
616.046
616.014
616.017
616.017
616.023
616.018
616.025
616.017
616.025
616.015
616.021
616.014
616.013
616.008
616.002
616.006
616.006
616.01
616.018
616.014
616.022
616.016
616.026
616.018
616.026
616.019
616.022
616.016
616.007
616.042
616.001
616.021
616.015
616.02
616.033
616.028
616.034
616.025
616.03
616.019
616.025
616.016
616.016
616.009
616.012
616.013
616.009
616.014
616.016
616.023
616.018
616.029
616.023
616.032
616.026
616.029
616.019
616.016
616.022
616
616.043
616.013
616.021
616.017
616.033
616.018
616.039
616.018
616.039
616.017
616.034
616.015
616.022
616.009
616.01
616.006
616.005
616.01
616.016
616.013
616.025
616.017
616.03
616.019
616.03
616.02
616.024
616.015
616.007
616.043
2828.22
46922.7
58960.6
65272.4
67950.1
67850.5
65774.7
62248.9
65097.6
72086.8
73385.7
58241.6
42531.6
1013.68
1615.8
109934
154097
178334
190141
201180
208986
210686
204683
194165
184356
177471
176420
176922
178010
179602
175987
169643
163198
156865
156388
165408
181665
207254
217550
196917
150499
118766
85269.4
1759.87
16618.1
263237
343450
402203
442386
484927
494498
506454
493276
483841
464469
452280
439802
427646
421809
420422
426034
440923
460363
474483
468885
443402
400945
356265
315178
275353
244158
275297
218599
3362.29
16121.3
239182
373488
450537
532039
602615
657904
697526
737277
781089
825020
873005
896409
892547
859527
789495
686257
565958
457570
372643
308762
262414
259184
253498
203685
187939
185972
174879
142167
1386.73
9570
360433
571183
686906
775246
845608
886333
888894
857136
810065
768531
757867
772047
778911
735495
630768
542058
482567
317074
216993
197295
192272
176124
164667
166600
169070
154784
123760
81748.7
736.544
672.763
75563.8
128958
192036
251901
298328
324776
325450
308009
297699
324807
365192
410190
449553
481608
515246
542233
567690
582042
590465
589662
578938
546067
498259
424981
344837
252843
152198
63744.6
653.555
597.744
7898.78
9766.8
12411.2
15424.4
18207.9
20442.8
22090.4
22998
22979.2
22236.3
20956.1
19335
17442.1
15435.3
13414.8
11477.1
9691.41
8096.77
6689.65
5465.93
4402.57
3479.55
2682.06
1998.84
1417.42
938.418
569.005
316.779
612.472
613.171
175.13
171.716
173.938
176.254
178.142
179.217
179.296
178.294
176.595
174.352
171.84
169.25
166.785
164.47
162.411
160.609
159.032
157.682
156.513
155.567
154.718
154.06
153.474
153.055
152.687
152.45
152.286
158.287
614.578
614.638
158.187
152.165
152.143
152.169
152.176
152.196
152.21
152.24
152.262
152.288
152.313
152.383
152.414
152.452
152.44
152.413
152.368
152.317
152.274
152.253
152.217
152.195
152.164
152.152
152.14
152.138
152.166
158.34
614.625
614.618
158.279
152.135
152.129
152.143
152.165
152.179
152.208
152.229
152.259
152.275
152.313
152.362
152.399
152.427
152.445
152.419
152.375
152.3
152.278
152.266
152.229
152.21
152.178
152.168
152.145
152.132
152.132
157.969
614.682
614.652
158.18
152.16
152.137
152.162
152.17
152.192
152.208
152.239
152.261
152.287
152.312
152.377
152.406
152.448
152.44
152.416
152.369
152.317
152.273
152.253
152.216
152.194
152.164
152.15
152.138
152.138
152.17
158.344
614.626
614.677
158.098
152.173
152.116
152.127
152.126
152.158
152.18
152.222
152.251
152.285
152.32
152.381
152.409
152.44
152.443
152.413
152.382
152.315
152.283
152.25
152.229
152.191
152.175
152.148
152.148
152.127
152.16
158.064
614.681
614.658
158.173
152.16
152.134
152.16
152.166
152.181
152.193
152.218
152.238
152.271
152.301
152.368
152.411
152.447
152.44
152.413
152.367
152.325
152.281
152.255
152.216
152.189
152.155
152.14
152.128
152.13
152.175
158.349
614.63
2631.62
55447.7
65229.1
69249.1
72825.6
74940.9
71815.5
68159.6
73566.4
82056.3
89967.3
73398.6
54238.2
1207.51
2440.07
124896
173125
200954
220617
238942
247912
245950
237765
224921
211625
203053
199286
199768
202108
202318
200584
195892
191608
188601
187538
191826
199302
222599
233620
217028
175736
126932
102523
2246.87
22231
352714
409997
448423
480153
507895
526793
535990
536100
530905
523972
518134
513106
507803
503633
510170
526962
557211
587166
606229
596388
557263
500879
442160
396924
363279
298057
270205
212319
3991.88
22692.2
374467
453083
483273
539420
608971
673908
727233
770172
804605
836022
865380
886759
895113
888087
855937
799179
700026
585277
469506
401196
388765
425006
466329
451132
344123
279550
218294
183690
1878.2
9976.29
421734
621097
736049
834702
897501
909440
869262
821232
801138
823437
861292
895071
888771
836878
730733
644420
598708
520643
445386
369046
259086
219539
201001
185271
176180
159175
131509
101064
749.897
786.214
90224.7
143702
193710
230242
246542
264060
304082
389846
509490
617484
730803
821097
871372
871596
856239
864147
900126
920073
865008
801198
740954
673388
580071
482295
376534
267339
158169
64148.8
640.33
598.667
18508.8
22236.5
26353
29404.1
30710.7
30628.5
29553.4
27730.4
25333
22599
19827.3
17277.3
14924.8
12808.1
10859.9
9128.53
7573.48
6225.82
5047.76
4060.9
3234.2
2545.79
1958.97
1461.59
1045.93
707.688
447.705
271.12
594.74
595.083
190.813
183.287
179.971
177.881
175.741
173.484
171.152
168.769
166.4
164.054
161.842
159.729
157.709
155.855
154.265
152.909
151.77
150.814
150.027
149.377
148.835
148.393
148.022
147.733
147.495
147.315
147.201
151.669
595.003
595.023
151.625
147.044
146.975
146.972
146.94
146.931
146.899
146.889
146.853
146.838
146.793
146.76
146.704
146.68
146.665
146.705
146.736
146.786
146.806
146.843
146.856
146.889
146.898
146.932
146.943
146.971
147.01
151.626
595.017
595.012
151.646
146.998
146.951
146.927
146.922
146.893
146.887
146.857
146.848
146.813
146.795
146.746
146.716
146.67
146.673
146.689
146.751
146.794
146.831
146.853
146.88
146.916
146.925
146.955
146.96
146.982
147.019
151.614
595.156
595.016
151.635
147.029
146.962
146.961
146.931
146.925
146.892
146.884
146.849
146.836
146.791
146.761
146.705
146.68
146.663
146.702
146.732
146.783
146.804
146.841
146.855
146.89
146.899
146.933
146.944
146.973
147.012
151.62
595.019
595.145
151.617
147.012
146.967
146.953
146.919
146.91
146.878
146.869
146.835
146.822
146.779
146.753
146.7
146.668
146.668
146.7
146.754
146.78
146.824
146.835
146.871
146.879
146.911
146.919
146.952
146.958
147.008
151.626
595.144
595.012
151.635
147.023
146.956
146.956
146.926
146.919
146.886
146.879
146.844
146.833
146.792
146.766
146.711
146.684
146.658
146.693
146.725
146.777
146.798
146.836
146.85
146.885
146.894
146.928
146.94
146.969
147.013
151.619
595.017
2301.1
63549.9
74528.9
81521.6
88629.9
93259.5
93653.8
94029.1
97654.4
98107.1
108407
91358.4
64031.1
1325.8
4614.48
147198
198211
230985
258061
275179
282074
281111
275643
266372
258096
251502
248692
248095
249673
247870
243020
234932
226095
218306
215022
215959
221435
236937
238844
210209
183767
138170
116091
2657.99
30294.4
422013
451416
460146
475618
497595
525328
544054
556306
557622
557218
558942
559477
561116
565587
580082
608093
642468
680387
706066
707327
674673
606483
519317
441554
386411
324719
271712
201136
4885.95
37451.7
461260
508178
509343
544311
605634
671484
732273
776989
805044
825855
843358
859417
870519
873441
863895
835779
780162
691995
584537
496686
469825
496016
528736
522717
486859
441427
292715
185969
1881.16
9027.04
437261
643587
735131
784275
787563
757480
712308
681127
735184
824598
902425
952862
955942
905470
815153
722934
641636
570522
527258
481032
424345
342439
248504
216183
197277
170411
143512
116528
809.309
1005.15
103097
142907
168708
200248
262988
372401
531086
685578
839738
1.04514e+06
1.1204e+06
1.14754e+06
1.13859e+06
1.10827e+06
1.08665e+06
1.08923e+06
1.11115e+06
1.07593e+06
1.05068e+06
1.01518e+06
931331
825463
728199
614931
490995
361536
226582
108878
660.233
603.509
35154.3
46436.4
55694
59305.5
57122.6
52198.8
46821.2
41519.9
36197.1
31014.9
26057.9
21698.9
17986.8
14974.1
12441.9
10286
8419.71
6834.11
5495.48
4383.4
3452.64
2686.84
2052.06
1525.98
1091.55
740.388
469.409
285.086
594.563
595.348
231.289
213.45
204.238
196.969
190.496
184.704
179.674
175.185
171.03
167.261
163.936
161.057
158.631
156.623
154.927
153.416
152.069
150.935
149.994
149.23
148.597
148.085
147.66
147.322
147.044
146.836
146.727
152.235
595.042
595.072
152.195
146.54
146.471
146.467
146.461
146.461
146.456
146.456
146.452
146.45
146.446
146.445
146.44
146.44
146.439
146.442
146.443
146.448
146.449
146.453
146.454
146.458
146.459
146.464
146.465
146.473
146.532
152.189
595.064
595.065
152.196
146.531
146.476
146.467
146.465
146.459
146.458
146.454
146.454
146.45
146.448
146.444
146.442
146.439
146.44
146.44
146.444
146.444
146.453
146.459
146.452
146.454
146.455
146.459
146.46
146.466
146.526
152.198
594.973
595.074
152.183
146.528
146.462
146.46
146.456
146.456
146.453
146.452
146.45
146.449
146.444
146.444
146.439
146.439
146.438
146.441
146.443
146.447
146.449
146.453
146.453
146.457
146.458
146.465
146.465
146.473
146.532
152.189
595.063
594.973
152.206
146.53
146.465
146.468
146.462
146.461
146.455
146.454
146.45
146.449
146.444
146.443
146.44
146.446
146.445
146.44
146.442
146.444
146.447
146.448
146.452
146.453
146.458
146.46
146.467
146.468
146.536
152.211
594.974
595.071
152.185
146.526
146.462
146.459
146.456
146.456
146.454
146.454
146.452
146.451
146.447
146.445
146.44
146.439
146.437
146.439
146.44
146.444
146.447
146.452
146.453
146.458
146.46
146.465
146.466
146.473
146.532
152.189
595.064
2391.61
72166.3
86750
97463.2
106534
114497
121257
128571
134578
135224
143948
131557
82059.7
1687.91
8202.5
183497
245919
281556
305838
320093
326169
326756
325075
323374
321952
317494
314120
310284
306762
300752
293326
285195
274697
264513
256215
251305
249291
251737
245577
216436
185931
151804
122715
3122.8
35018.6
479283
482283
469443
475607
502819
535166
561489
581734
591328
594899
596744
595522
592541
590223
599394
621809
648782
673863
684011
682756
668756
626855
556156
479253
421433
365177
287382
211684
6457.54
43694.9
530595
555345
536895
554254
604376
670482
739439
788515
811849
822712
827574
834587
838601
835437
827310
809957
785912
732703
656108
577162
542999
548197
562588
559528
546386
517362
433907
247057
3242.57
7126.01
427218
638773
666709
631945
563015
534899
541220
575702
682631
805739
906189
971418
975859
919491
834871
749760
672316
625738
600818
557001
496047
438353
389428
267525
227079
200334
166504
131641
948.812
2039.85
118901
180236
205764
284526
447549
641610
867686
1.03607e+06
1.13825e+06
1.1977e+06
1.22878e+06
1.21332e+06
1.17353e+06
1.14255e+06
1.11672e+06
1.11839e+06
1.14509e+06
1.15444e+06
1.13705e+06
1.10514e+06
1.06246e+06
982550
880543
770924
644742
489012
323145
176419
718.95
629.216
58159.9
89850.5
113537
119149
107374
90644.6
75039.8
62857.9
52887.2
44203.3
36360.7
29484.1
23780.7
19184.3
15547.4
12613.4
10185.8
8198.96
6555.94
5217.47
4113.55
3202.02
2448.49
1822.17
1305.98
887.575
561.484
334.124
596.267
597.731
300.412
263.459
244.936
229.257
216.206
204.769
195.104
187.025
180.264
174.507
169.463
165.262
161.795
158.94
156.57
154.625
153.015
151.692
150.592
149.692
148.954
148.355
147.872
147.481
147.176
146.928
146.804
152.353
597.282
597.311
152.34
146.591
146.538
146.523
146.531
146.518
146.526
146.515
146.523
146.511
146.519
146.507
146.515
146.504
146.514
146.504
146.516
146.507
146.518
146.508
146.519
146.508
146.518
146.507
146.518
146.509
146.578
152.298
597.306
597.312
152.296
146.579
146.509
146.519
146.508
146.519
146.508
146.519
146.509
146.519
146.507
146.516
146.505
146.514
146.504
146.514
146.503
146.513
146.512
146.508
146.517
146.506
146.518
146.508
146.519
146.511
146.582
152.336
597.374
597.3
152.302
146.566
146.519
146.507
146.519
146.508
146.519
146.508
146.519
146.507
146.517
146.505
146.514
146.503
146.513
146.504
146.515
146.506
146.517
146.508
146.518
146.507
146.517
146.507
146.518
146.509
146.577
152.3
597.306
597.374
152.319
146.577
146.519
146.508
146.518
146.507
146.518
146.508
146.518
146.506
146.517
146.505
146.513
146.504
146.504
146.513
146.504
146.516
146.506
146.517
146.506
146.517
146.506
146.517
146.506
146.519
146.574
152.316
597.369
597.305
152.303
146.565
146.519
146.506
146.519
146.508
146.519
146.509
146.52
146.509
146.519
146.505
146.514
146.502
146.512
146.501
146.513
146.504
146.518
146.508
146.518
146.507
146.518
146.508
146.52
146.511
146.578
152.3
597.305
2844.35
80237
97696.5
111017
123531
135284
147776
162345
175542
181949
192432
200201
126496
2849.63
14790.2
223404
300095
338049
354760
364285
371481
377287
387601
397935
398639
390186
377108
361837
347951
337905
332151
329257
322904
312287
300796
289355
275721
267713
260389
247078
207652
199586
137334
4529.76
48135.5
518500
500376
483459
497299
531084
560991
584748
603453
613176
616040
613966
607133
596536
586560
593971
609848
639956
659144
643474
603963
573343
566421
549644
508588
466444
414596
340510
235907
11346.3
52385.6
601111
600419
569504
571537
609055
674762
747267
795925
817332
823160
822588
822061
815171
798116
773786
751138
735631
715695
678766
631601
599549
587166
581667
573547
562586
529187
446649
379220
6709.42
5817.02
445228
716999
643843
541211
465745
520054
635826
678657
740237
807348
887444
954797
965874
907354
826747
749218
688179
672249
680137
660802
608187
538734
454827
374878
265525
235317
205184
162256
1587.74
6704.55
154308
452819
553315
614483
788867
1.0822e+06
1.28167e+06
1.41509e+06
1.47536e+06
1.49452e+06
1.45877e+06
1.38019e+06
1.27562e+06
1.18486e+06
1.12855e+06
1.10861e+06
1.11003e+06
1.11902e+06
1.14577e+06
1.16208e+06
1.15854e+06
1.12219e+06
1.03408e+06
930565
806401
643061
449695
262016
877.046
649.192
89147.5
162629
212217
219563
194091
154094
119072
93343.6
75276.5
61440.8
49871.5
39985
31674.6
25062.7
19879
15868.1
12652.1
10053.6
7956.79
6261.61
4897.74
3787.62
2902.97
2186.71
1592.95
1102.8
706.919
423.067
599.351
600.916
415.55
340.348
305.838
275.411
251.363
231.39
215.108
201.954
191.304
182.692
175.737
170.096
165.572
161.971
159.023
156.563
154.507
152.816
151.431
150.325
149.436
148.729
148.163
147.709
147.346
147.052
146.884
152.347
599.834
599.873
152.322
146.634
146.574
146.559
146.562
146.55
146.555
146.546
146.551
146.541
146.546
146.537
146.541
146.534
146.54
146.534
146.542
146.537
146.544
146.538
146.544
146.537
146.542
146.535
146.541
146.537
146.605
152.278
599.864
599.863
152.284
146.604
146.537
146.542
146.536
146.545
146.538
146.546
146.539
146.545
146.538
146.542
146.534
146.541
146.534
146.541
146.533
146.538
146.542
146.538
146.543
146.535
146.543
146.536
146.543
146.537
146.604
152.265
599.871
599.868
152.273
146.595
146.543
146.535
146.544
146.538
146.545
146.538
146.545
146.537
146.543
146.535
146.54
146.532
146.539
146.533
146.541
146.536
146.543
146.537
146.543
146.536
146.541
146.535
146.541
146.538
146.604
152.275
599.865
599.872
152.273
146.603
146.544
146.537
146.543
146.536
146.544
146.537
146.544
146.536
146.543
146.534
146.539
146.536
146.536
146.538
146.533
146.542
146.536
146.544
146.536
146.543
146.534
146.541
146.533
146.541
146.603
152.276
599.869
599.87
152.27
146.594
146.542
146.535
146.543
146.537
146.545
146.539
146.546
146.539
146.544
146.535
146.54
146.531
146.538
146.531
146.54
146.535
146.544
146.538
146.544
146.537
146.543
146.537
146.545
146.54
146.605
152.28
599.864
3433.07
85648
104983
120740
135681
148207
162297
181120
202736
221815
241692
261318
223544
8155.77
27731.3
274168
356371
386558
393124
401588
416132
433762
452545
465882
461861
448756
430470
408642
388116
373992
369044
370239
367289
356669
340413
323703
308299
294922
286048
278645
278059
304535
147509
8961.88
55910.9
552866
525800
512337
527526
558229
582928
601920
612899
616104
614010
609421
599165
585011
576370
588140
619950
670618
709419
695022
629702
560939
548510
565556
550482
510373
461374
368819
244297
26993.1
59336.4
684465
646731
606489
597986
625418
684979
751415
795565
816138
820937
820713
815825
799803
771224
728636
690026
664590
661328
666401
665916
655760
646291
638670
633568
627879
584778
491759
463438
9106.53
10821.8
459063
929899
761514
636641
579658
686032
773920
770510
782010
811852
870989
929222
935878
893364
838387
794295
770546
790797
825520
810026
761233
681124
569421
449907
359999
262420
273145
241646
3894.42
28256.8
355066
1.0431e+06
1.66119e+06
1.54962e+06
1.48831e+06
1.79687e+06
2.11647e+06
2.33548e+06
2.32028e+06
2.20368e+06
2.01141e+06
1.78122e+06
1.55138e+06
1.36923e+06
1.23124e+06
1.15551e+06
1.11961e+06
1.10907e+06
1.1143e+06
1.13719e+06
1.14653e+06
1.16626e+06
1.14922e+06
1.08262e+06
970560
818197
619861
378962
1312.03
731.368
173015
312468
368025
363268
313213
244876
181231
136466
105741
84210.5
67668.3
54084.3
42655.5
33353.1
26068.3
20475.4
16148.2
12753.4
10047.1
7896.13
6164.92
4793.81
3686.03
2792.81
2067.26
1472.89
980.201
600.733
603.24
606.349
591.055
462.609
397.979
344.315
302.548
269.276
243.181
223.106
207.41
195.197
185.578
177.786
171.527
166.385
162.288
159.005
156.369
154.273
152.597
151.258
150.168
149.297
148.588
148.034
147.591
147.238
147.021
152.537
604.932
604.978
152.525
146.693
146.621
146.604
146.599
146.589
146.589
146.581
146.582
146.575
146.576
146.571
146.572
146.568
146.571
146.568
146.571
146.569
146.573
146.57
146.573
146.568
146.57
146.565
146.568
146.565
146.631
152.425
604.968
604.971
152.428
146.628
146.565
146.567
146.567
146.572
146.57
146.574
146.571
146.574
146.57
146.572
146.568
146.571
146.567
146.57
146.566
146.568
146.574
146.57
146.572
146.567
146.571
146.567
146.569
146.565
146.629
152.411
604.983
604.967
152.425
146.624
146.567
146.565
146.57
146.569
146.573
146.57
146.574
146.57
146.572
146.568
146.569
146.566
146.569
146.566
146.57
146.568
146.572
146.569
146.571
146.567
146.569
146.565
146.568
146.568
146.63
152.423
604.968
604.984
152.411
146.631
146.571
146.566
146.569
146.566
146.571
146.568
146.573
146.568
146.572
146.567
146.569
146.568
146.567
146.568
146.566
146.571
146.568
146.571
146.568
146.57
146.565
146.567
146.562
146.566
146.631
152.414
604.982
604.969
152.417
146.622
146.566
146.563
146.57
146.567
146.572
146.569
146.573
146.57
146.572
146.567
146.568
146.565
146.568
146.565
146.57
146.569
146.573
146.571
146.574
146.57
146.572
146.568
146.572
146.57
146.633
152.424
604.967
3922.54
90377.4
109386
127044
143552
155158
167076
182195
205484
234876
276763
316543
312551
20489.3
51645.1
323492
403125
426617
425697
434986
459358
482099
505296
523332
522100
510665
494273
478989
462687
448638
438055
434280
430795
421968
409897
396392
381760
364824
350712
340678
340872
356600
160130
22254.3
80469.4
591117
558011
552441
567492
587553
600034
605418
605919
602178
598411
595584
588247
580123
576971
592317
633411
693582
749876
748700
687486
615779
586204
599557
590157
550003
513802
420002
318712
58338.9
72814.9
798433
709082
653563
636307
656524
698471
747127
782077
801277
805851
809255
809779
798270
767973
709911
651854
602343
594000
629805
682223
719093
734079
744668
768615
791489
767441
689019
586198
22354.5
34834.9
591689
1.61692e+06
1.2002e+06
974262
906145
920836
862380
827163
836291
857282
882318
911485
919153
911467
910840
916292
928229
955907
975746
945908
880579
777223
645137
507867
386569
313379
309852
339600
7800.78
97563.4
754826
1.2671e+06
3.28118e+06
4.12938e+06
3.39672e+06
3.31854e+06
3.50097e+06
3.54543e+06
3.37048e+06
3.02277e+06
2.66433e+06
2.31235e+06
1.99611e+06
1.71709e+06
1.50895e+06
1.36001e+06
1.26421e+06
1.20793e+06
1.18404e+06
1.17763e+06
1.19001e+06
1.19649e+06
1.21429e+06
1.19572e+06
1.11289e+06
986248
799638
504642
2219.61
3703.29
484502
603014
590910
524062
438950
342428
256409
190060
144542
112582
89440.7
71393.4
56413.8
44052.6
34055.3
26423.6
20561.6
16093.7
12579.4
9830.46
7639.66
5919.55
4544.99
3438.74
2521.63
1778.96
1201.37
821.652
609.909
613.488
917.143
660.105
520.119
425.549
358.742
309.961
273.429
246.458
226.129
210.153
197.067
186.531
178.118
171.427
166.14
161.991
158.69
156.051
153.94
152.272
150.951
149.904
149.067
148.398
147.849
147.412
147.132
152.526
610.215
610.281
152.534
146.775
146.685
146.661
146.648
146.634
146.63
146.622
146.62
146.614
146.613
146.61
146.609
146.606
146.608
146.607
146.608
146.607
146.608
146.607
146.609
146.606
146.607
146.604
146.605
146.604
146.667
152.365
610.26
610.263
152.379
146.665
146.603
146.605
146.605
146.608
146.607
146.61
146.608
146.609
146.606
146.608
146.606
146.608
146.605
146.607
146.604
146.604
146.611
146.608
146.608
146.605
146.607
146.605
146.605
146.604
146.665
152.349
610.261
610.262
152.358
146.661
146.605
146.604
146.608
146.607
146.61
146.608
146.61
146.607
146.608
146.606
146.607
146.605
146.606
146.606
146.608
146.606
146.608
146.606
146.608
146.604
146.605
146.603
146.605
146.606
146.666
152.361
610.261
610.262
152.35
146.667
146.609
146.605
146.605
146.603
146.607
146.606
146.608
146.606
146.608
146.605
146.606
146.606
146.605
146.606
146.604
146.607
146.606
146.608
146.606
146.606
146.603
146.604
146.601
146.603
146.667
152.353
610.261
610.263
152.355
146.66
146.604
146.603
146.607
146.605
146.609
146.607
146.61
146.608
146.609
146.605
146.606
146.603
146.605
146.603
146.606
146.605
146.608
146.607
146.61
146.608
146.609
146.606
146.608
146.609
146.67
152.359
610.243
4199.25
91392.5
111474
131438
149273
161441
172076
183920
201621
230602
287084
377311
435164
317299
73219.9
84538.7
399871
427394
458814
458891
443953
457209
489142
521188
551675
570842
577751
582502
589994
601187
606446
601493
588107
575386
568647
562641
552634
542004
525388
503804
480450
458819
446925
402411
260106
253169
64011
108223
571303
655846
608763
595967
598272
601638
599787
595992
590678
588011
589925
595243
597820
594330
596449
607120
638394
681879
732016
740979
700343
651770
631925
637226
625934
597727
589912
562118
481732
529540
119743
131814
875977
934762
778706
700674
672970
678747
701471
730218
753524
767941
775653
785712
798804
802111
777777
723424
653390
580716
549427
590441
689881
782791
851977
921752
1.01857e+06
1.16986e+06
1.37993e+06
1.54121e+06
1.4775e+06
1.22815e+06
532706
275473
794211
1.41396e+06
2.02361e+06
1.80526e+06
1.53182e+06
1.37096e+06
1.17303e+06
1.01398e+06
983082
1.00405e+06
1.01222e+06
992644
971246
961816
971163
996245
1.00238e+06
1.00143e+06
997659
964787
888775
803042
726999
661977
580720
476254
371547
357710
480855
553845
97720.6
89422.1
1.036e+06
1.4669e+06
1.4707e+06
3.57856e+06
5.67817e+06
5.82057e+06
5.06565e+06
4.53716e+06
4.26761e+06
3.94439e+06
3.52417e+06
3.09114e+06
2.71851e+06
2.38219e+06
2.09151e+06
1.84068e+06
1.64386e+06
1.4961e+06
1.3921e+06
1.32419e+06
1.28631e+06
1.26912e+06
1.26881e+06
1.2549e+06
1.25391e+06
1.2396e+06
1.14436e+06
1.00026e+06
834616
700454
6586.28
3792.95
739139
1.00626e+06
973538
815762
659362
534426
426837
330584
251016
189597
146670
115694
92336.7
73429
57778.6
44906.3
34725.4
26912.3
20916.8
16285.5
12697.2
9896.84
7738.52
6053.31
4753.34
3771.5
3105.03
2778.46
2879.94
3464.56
621.107
621.27
3111.79
2160.46
1371.98
927.065
667.182
510.989
411.11
343.664
295.79
260.948
234.74
214.828
199.597
187.914
178.91
171.899
166.422
162.106
158.712
156.024
153.894
152.201
150.86
149.815
149.014
148.404
147.968
147.727
147.818
159.784
619.762
619.762
160.184
147.513
147.07
146.917
146.82
146.762
146.721
146.697
146.678
146.667
146.656
146.651
146.646
146.643
146.641
146.641
146.64
146.641
146.643
146.645
146.647
146.652
146.656
146.665
146.677
146.696
146.718
146.749
146.956
158.928
619.766
619.766
158.952
146.962
146.747
146.716
146.694
146.677
146.666
146.658
146.654
146.649
146.646
146.643
146.641
146.64
146.639
146.639
146.639
146.639
146.64
146.647
146.648
146.651
146.655
146.665
146.676
146.693
146.715
146.743
146.947
158.844
619.772
619.766
158.92
146.95
146.74
146.714
146.692
146.678
146.665
146.659
146.653
146.649
146.645
146.643
146.641
146.639
146.639
146.639
146.639
146.641
146.641
146.645
146.647
146.651
146.655
146.665
146.676
146.695
146.718
146.746
146.952
158.913
619.765
619.774
158.857
146.95
146.746
146.72
146.695
146.677
146.663
146.657
146.65
146.647
146.643
146.643
146.639
146.639
146.639
146.638
146.639
146.639
146.642
146.643
146.647
146.65
146.657
146.663
146.677
146.692
146.716
146.747
146.954
158.862
619.77
619.764
158.92
146.946
146.739
146.715
146.691
146.677
146.663
146.658
146.651
146.649
146.645
146.644
146.641
146.641
146.638
146.639
146.639
146.643
146.647
146.653
146.659
146.67
146.684
146.707
146.736
146.783
146.841
146.912
147.164
159.496
619.756
619.422
4404.12
89947.3
110889
133186
153124
168879
183546
202150
222646
248125
301430
419595
550989
587975
497474
446097
440446
437844
464287
452133
435364
462396
508793
554454
594937
620372
637379
662564
700506
742017
770575
780694
776284
766463
759666
759857
760738
761229
753917
734892
706237
669676
634199
579695
573635
644630
663632
761565
808144
717377
657190
631549
619445
607168
594344
583722
578866
582333
592770
606968
615707
613868
613859
617855
631861
646801
674496
680564
663608
650636
652965
654093
629691
597631
587508
593048
606561
704052
803626
981473
1.17954e+06
959625
801541
726922
692487
684633
695769
711614
723255
730463
736217
748152
773347
790838
781470
743652
678961
605826
545796
558668
665543
786290
888998
971471
1.07646e+06
1.2851e+06
1.62986e+06
2.00504e+06
2.37872e+06
2.95023e+06
3.3835e+06
3.60467e+06
3.96793e+06
2.81196e+06
2.81524e+06
2.59432e+06
2.16225e+06
1.73328e+06
1.37623e+06
1.1872e+06
1.16137e+06
1.17433e+06
1.15242e+06
1.10594e+06
1.04666e+06
1.00545e+06
1.00274e+06
1.0183e+06
1.0135e+06
976796
925734
850402
784883
785371
841283
912153
959351
961223
912546
836832
848893
1.0283e+06
1.78184e+06
2.37634e+06
2.98842e+06
3.33327e+06
3.18181e+06
3.66914e+06
4.31825e+06
4.98234e+06
4.98533e+06
4.70791e+06
4.41638e+06
4.1495e+06
3.74013e+06
3.34315e+06
3.00916e+06
2.71721e+06
2.43263e+06
2.16942e+06
1.93323e+06
1.74332e+06
1.59624e+06
1.48964e+06
1.41672e+06
1.37322e+06
1.3471e+06
1.33411e+06
1.30847e+06
1.30163e+06
1.27252e+06
1.17673e+06
1.06303e+06
1.01104e+06
1.1521e+06
1.24597e+06
1.3073e+06
1.29885e+06
1.17447e+06
972597
762057
607842
496985
401109
313076
241452
185173
145222
115399
92116.2
72870.4
56852.8
43852.7
33728.8
26112.6
20254.6
15816.6
12323.7
9667.73
7575.05
5967.17
4730.89
3855.35
3326.7
3198.59
3530.15
3442.13
3168.65
2974.6
2010.87
1335.9
941.179
703.484
550.784
447.967
375.19
321.923
282.102
251.868
228.674
210.724
196.763
185.898
177.373
170.677
165.408
161.272
158.02
155.461
153.441
151.861
150.626
149.67
148.943
148.398
148.024
147.816
147.95
153.478
153.376
147.705
147.174
146.98
146.872
146.804
146.76
146.73
146.712
146.696
146.686
146.676
146.669
146.665
146.662
146.659
146.658
146.659
146.66
146.66
146.663
146.666
146.669
146.67
146.673
146.678
146.686
146.69
146.696
146.7
146.878
152.6
152.599
146.882
146.704
146.694
146.69
146.685
146.678
146.674
146.671
146.669
146.667
146.664
146.66
146.659
146.657
146.656
146.656
146.657
146.657
146.657
146.664
146.665
146.666
146.669
146.673
146.678
146.686
146.691
146.694
146.695
146.875
152.599
152.6
146.879
146.697
146.692
146.69
146.686
146.68
146.673
146.672
146.669
146.666
146.662
146.66
146.658
146.657
146.656
146.656
146.656
146.659
146.659
146.662
146.664
146.667
146.669
146.672
146.677
146.686
146.692
146.695
146.699
146.879
152.6
152.599
146.876