/*--------------------------------*- C++ -*----------------------------------*\
| =========                 |                                                 |
| \\      /  F ield         | OpenFOAM: The Open Source CFD Toolbox           |
|  \\    /   O peration     | Version:  2.1.1                                 |
|   \\  /    A nd           | Web:      www.OpenFOAM.org                      |
|    \\/     M anipulation  |                                                 |
\*---------------------------------------------------------------------------*/
FoamFile
{
    version     2.0;
    format      ascii;
    class       volScalarField;
    location    "0.007500000";
    object      H2O2;
}
// * * * * * * * * * * * * * * * * * * * * * * * * * * * * * * * * * * * * * //

dimensions      [0 0 0 0 0 0 0];

internalField   nonuniform List<scalar> 
12384
(
1.52419e-06
1.52807e-06
1.54011e-06
1.5371e-06
1.53908e-06
1.52171e-06
1.51088e-06
1.49549e-06
1.48794e-06
1.46885e-06
1.39438e-06
1.37657e-06
1.36207e-06
1.27129e-06
1.20951e-06
1.26238e-06
1.25906e-06
1.24873e-06
1.23981e-06
1.26098e-06
1.25201e-06
1.22657e-06
1.20386e-06
1.18554e-06
1.16802e-06
1.16485e-06
1.16597e-06
1.17065e-06
1.17243e-06
1.18568e-06
1.19858e-06
1.21631e-06
1.21658e-06
1.2169e-06
1.2118e-06
1.20295e-06
1.20611e-06
1.19764e-06
1.18391e-06
1.17366e-06
1.13963e-06
1.08355e-06
1.12926e-06
1.05209e-06
4.98943e-07
3.6269e-07
3.44582e-07
3.56261e-07
3.87553e-07
4.08337e-07
4.40084e-07
4.57929e-07
4.93459e-07
5.06419e-07
5.31509e-07
5.4522e-07
5.67628e-07
5.80087e-07
5.8924e-07
5.95156e-07
5.98017e-07
5.98337e-07
5.99059e-07
5.97783e-07
6.00657e-07
5.98376e-07
6.07973e-07
6.04467e-07
6.15841e-07
6.13626e-07
5.94386e-07
5.24568e-07
5.70453e-07
6.38045e-07
4.21552e-07
3.79026e-07
4.08133e-07
4.23908e-07
4.26461e-07
4.2542e-07
4.25536e-07
4.31215e-07
4.36828e-07
4.42421e-07
4.47825e-07
4.51591e-07
4.52747e-07
4.51655e-07
4.50372e-07
4.46384e-07
4.4175e-07
4.37845e-07
4.33742e-07
4.20184e-07
4.24704e-07
4.2246e-07
4.132e-07
4.22392e-07
4.18006e-07
4.2211e-07
4.21904e-07
4.24717e-07
4.26484e-07
4.28112e-07
2.23814e-07
2.17454e-07
2.10504e-07
2.06979e-07
2.04893e-07
2.045e-07
2.0633e-07
2.09665e-07
2.13414e-07
2.14111e-07
2.16318e-07
2.09767e-07
2.18506e-07
2.09043e-07
2.14045e-07
2.12729e-07
2.22735e-07
2.21525e-07
2.2785e-07
2.27284e-07
2.26249e-07
2.20632e-07
3.16936e-07
2.03894e-07
1.98275e-07
1.96421e-07
1.98556e-07
2.01717e-07
2.04174e-07
2.0649e-07
6.60363e-08
7.04079e-08
6.95277e-08
6.69316e-08
6.49113e-08
6.43881e-08
6.41003e-08
6.38389e-08
6.39553e-08
6.44524e-08
6.48284e-08
6.52502e-08
6.5749e-08
6.5942e-08
6.58724e-08
6.54348e-08
6.48131e-08
6.35565e-08
6.34795e-08
6.22334e-08
6.24725e-08
6.09793e-08
6.17849e-08
6.23238e-08
6.35989e-08
6.48546e-08
6.65181e-08
6.91974e-08
7.53839e-08
7.9449e-08
1.05688e-07
1.10203e-07
1.11065e-07
1.01124e-07
9.10089e-08
8.37657e-08
7.92018e-08
8.02202e-08
8.27575e-08
8.62878e-08
9.02212e-08
9.39848e-08
9.65965e-08
9.7655e-08
1.00596e-07
1.00882e-07
9.79856e-08
1.00678e-07
1.01462e-07
1.064e-07
1.10451e-07
1.14526e-07
1.18712e-07
1.24202e-07
1.30139e-07
2.5274e-07
6.36751e-07
7.16282e-07
6.37149e-07
5.98332e-07
6.97275e-08
5.93459e-08
5.60098e-08
5.11234e-08
4.59819e-08
4.1489e-08
4.12636e-08
4.70283e-08
4.5897e-08
4.52678e-08
4.2086e-08
4.26511e-08
4.14902e-08
4.28452e-08
4.25402e-08
4.29532e-08
4.17947e-08
4.37693e-08
4.59022e-08
4.82373e-08
5.92329e-08
6.79581e-08
6.89367e-08
6.846e-08
6.95132e-08
6.96677e-08
6.97496e-08
6.9266e-08
6.96157e-08
7.10471e-08
1.39846e-07
1.45727e-07
1.49664e-07
1.51149e-07
1.52274e-07
1.53786e-07
1.5317e-07
1.51451e-07
1.4932e-07
1.50592e-07
1.4599e-07
1.48007e-07
1.47734e-07
1.58148e-07
1.60725e-07
1.64265e-07
1.75203e-07
1.41188e-07
4.37041e-08
3.28438e-08
3.51446e-08
3.5766e-08
4.12535e-08
4.27015e-08
4.55766e-08
4.81196e-08
4.81416e-08
4.34416e-08
3.27318e-08
2.419e-08
1.03375e-07
1.0992e-07
1.12898e-07
1.12863e-07
1.11822e-07
1.11326e-07
1.09942e-07
1.12233e-07
1.12939e-07
1.11367e-07
1.13988e-07
1.13932e-07
1.15969e-07
1.19975e-07
1.26447e-07
1.30977e-07
1.34241e-07
1.39142e-07
1.17361e-07
4.9151e-08
4.48394e-08
4.41203e-08
4.34454e-08
4.31146e-08
4.17721e-08
4.14975e-08
3.9892e-08
3.84948e-08
3.71818e-08
3.67577e-08
7.64062e-08
8.0858e-08
7.55256e-08
7.16151e-08
7.15061e-08
7.13848e-08
7.13391e-08
7.30574e-08
7.68268e-08
7.74263e-08
8.11744e-08
8.41314e-08
8.82947e-08
9.36799e-08
7.51542e-08
2.88158e-08
1.77581e-08
1.79835e-08
1.83488e-08
1.83253e-08
1.83053e-08
1.75672e-08
1.70707e-08
1.71321e-08
1.62556e-08
1.57928e-08
1.61976e-08
1.54651e-08
1.56671e-08
1.55267e-08
2.58514e-08
2.71119e-08
2.47412e-08
2.16944e-08
2.26879e-08
2.33036e-08
2.34426e-08
2.33584e-08
2.34705e-08
2.3106e-08
2.42818e-08
2.29833e-08
2.496e-08
2.35278e-08
2.48271e-08
2.41181e-08
2.38228e-08
2.30753e-08
2.33034e-08
2.3416e-08
2.33974e-08
2.36755e-08
2.40885e-08
2.47858e-08
2.51685e-08
2.62478e-08
2.70862e-08
2.82126e-08
2.78633e-08
2.78361e-08
1.52724e-08
1.56714e-08
1.58961e-08
1.53545e-08
1.39222e-08
1.3156e-08
8.67537e-09
3.20129e-09
2.38397e-09
2.26619e-09
2.25683e-09
2.16385e-09
2.16611e-09
2.08511e-09
2.09234e-09
2.04669e-09
2.03938e-09
2.01509e-09
1.99948e-09
1.94773e-09
1.95614e-09
1.85548e-09
1.90482e-09
1.81394e-09
1.97329e-09
2.10761e-09
2.34618e-09
2.43233e-09
3.45516e-09
3.44999e-09
1.54955e-06
1.58897e-06
1.56599e-06
1.55642e-06
1.53672e-06
1.52978e-06
1.5222e-06
1.51405e-06
1.50574e-06
1.47848e-06
1.44891e-06
1.37638e-06
1.35966e-06
1.26999e-06
1.2179e-06
1.26379e-06
1.252e-06
1.25113e-06
1.2736e-06
1.27464e-06
1.23772e-06
1.1246e-06
1.07673e-06
1.04784e-06
1.03561e-06
1.10264e-06
1.11317e-06
1.15161e-06
1.21553e-06
1.23274e-06
1.24254e-06
1.25007e-06
1.25192e-06
1.24724e-06
1.25184e-06
1.24776e-06
1.24546e-06
1.23577e-06
1.22534e-06
1.20725e-06
1.17392e-06
1.12937e-06
1.11458e-06
1.12552e-06
4.83842e-07
3.5382e-07
3.43681e-07
3.62738e-07
4.04313e-07
4.38653e-07
4.91307e-07
5.33339e-07
5.91836e-07
7.01978e-07
7.37658e-07
7.4959e-07
7.60473e-07
7.56032e-07
7.46122e-07
7.29417e-07
7.11964e-07
6.14881e-07
6.08091e-07
6.06699e-07
6.08675e-07
6.11164e-07
6.17165e-07
6.23823e-07
6.27173e-07
6.3112e-07
6.21611e-07
5.6701e-07
5.28114e-07
5.45325e-07
4.10425e-07
3.88484e-07
4.17597e-07
4.2325e-07
4.15783e-07
4.10811e-07
4.11233e-07
4.1517e-07
4.2542e-07
4.41472e-07
4.58583e-07
4.74305e-07
4.84214e-07
4.86954e-07
4.8053e-07
4.71999e-07
4.65673e-07
4.59302e-07
4.51672e-07
4.53913e-07
4.47145e-07
4.44449e-07
4.50218e-07
4.39199e-07
4.39232e-07
4.35027e-07
4.30028e-07
4.29168e-07
4.28994e-07
4.30793e-07
2.24043e-07
2.18408e-07
2.12316e-07
2.07488e-07
2.03376e-07
2.06817e-07
2.15888e-07
2.25116e-07
2.33265e-07
3.40158e-07
3.44396e-07
3.56067e-07
3.48739e-07
3.56204e-07
3.59199e-07
3.62888e-07
3.65296e-07
3.64637e-07
3.59882e-07
3.44864e-07
2.38521e-07
2.29613e-07
2.24447e-07
3.1286e-07
1.97059e-07
1.94229e-07
2.06134e-07
2.14095e-07
2.07647e-07
1.96561e-07
6.73114e-08
7.02159e-08
6.76355e-08
6.43672e-08
6.26283e-08
5.99456e-08
5.91624e-08
6.03985e-08
5.92889e-08
5.88874e-08
5.92872e-08
6.03153e-08
6.17007e-08
6.30163e-08
6.44077e-08
6.57053e-08
6.65113e-08
6.66649e-08
6.65427e-08
6.65553e-08
6.59719e-08
6.56095e-08
6.49568e-08
6.48491e-08
6.48965e-08
6.54939e-08
6.6533e-08
6.84431e-08
7.25763e-08
7.78393e-08
1.06389e-07
1.06904e-07
9.18324e-08
5.56308e-08
4.85578e-08
4.70477e-08
4.83324e-08
5.16279e-08
5.49078e-08
7.51794e-08
8.74e-08
9.59473e-08
1.01909e-07
1.07075e-07
1.06549e-07
1.04484e-07
1.07471e-07
1.05948e-07
1.06573e-07
1.08607e-07
1.09704e-07
1.12825e-07
1.17442e-07
1.20983e-07
1.2584e-07
2.15604e-07
3.47704e-07
6.31296e-07
6.31294e-07
5.52116e-07
8.88068e-08
5.95751e-08
5.11448e-08
4.08758e-08
4.17828e-08
5.11918e-08
5.33752e-08
5.37858e-08
5.23795e-08
5.14338e-08
4.95788e-08
4.73046e-08
4.66518e-08
4.57794e-08
4.57815e-08
4.46684e-08
4.47931e-08
4.52146e-08
4.36144e-08
4.63157e-08
5.13279e-08
6.18094e-08
6.91299e-08
7.12344e-08
7.34193e-08
7.3993e-08
7.34715e-08
7.17105e-08
6.86878e-08
6.7132e-08
1.37863e-07
1.4209e-07
1.43998e-07
1.45971e-07
1.51934e-07
1.57559e-07
1.62046e-07
1.65517e-07
1.68955e-07
1.66652e-07
1.68718e-07
2.49813e-07
2.53928e-07
1.69728e-07
1.73114e-07
1.67814e-07
1.75316e-07
1.67279e-07
7.91766e-08
4.25693e-08
3.33469e-08
3.35307e-08
3.38222e-08
3.52245e-08
4.50545e-08
5.01446e-08
5.63918e-08
6.05326e-08
5.01377e-08
2.79136e-08
1.04096e-07
1.12322e-07
1.11218e-07
1.04392e-07
9.64478e-08
9.84861e-08
1.03048e-07
1.10803e-07
1.15795e-07
1.21293e-07
1.24923e-07
1.28503e-07
1.30999e-07
1.33244e-07
1.33916e-07
1.36642e-07
1.37067e-07
1.38769e-07
1.33279e-07
7.67219e-08
4.70639e-08
4.43538e-08
4.33719e-08
4.3379e-08
4.33813e-08
4.29904e-08
4.09112e-08
3.97115e-08
3.84167e-08
3.59191e-08
7.0423e-08
7.50458e-08
5.5638e-08
5.38246e-08
5.44128e-08
5.54849e-08
6.89996e-08
6.96574e-08
7.42059e-08
7.52505e-08
8.09884e-08
8.40311e-08
8.73396e-08
9.05468e-08
9.17057e-08
5.10119e-08
3.08527e-08
1.9079e-08
1.82619e-08
2.04326e-08
1.99946e-08
1.87033e-08
1.87965e-08
1.5972e-08
1.56222e-08
1.51737e-08
1.52675e-08
1.546e-08
1.55873e-08
1.5362e-08
2.50445e-08
2.39361e-08
2.1631e-08
2.22823e-08
2.34916e-08
2.37043e-08
2.3836e-08
2.38173e-08
2.40616e-08
2.35356e-08
2.4556e-08
2.38793e-08
2.43567e-08
2.35284e-08
2.24665e-08
2.21309e-08
2.05837e-08
1.97389e-08
1.98386e-08
2.027e-08
2.15928e-08
2.31924e-08
2.45877e-08
2.52491e-08
2.57242e-08
2.62381e-08
2.68752e-08
2.8182e-08
2.81269e-08
2.80666e-08
1.24374e-08
1.56547e-08
2.07379e-08
1.61239e-08
1.418e-08
8.91294e-09
3.88112e-09
2.80341e-09
2.37187e-09
2.32901e-09
2.32547e-09
2.33853e-09
2.33911e-09
2.33834e-09
2.29881e-09
2.26071e-09
2.20683e-09
2.41295e-09
2.34879e-09
2.29573e-09
2.48868e-09
2.31011e-09
2.23127e-09
2.1269e-09
2.15063e-09
2.07303e-09
2.25728e-09
2.39496e-09
3.57962e-09
3.56119e-09
1.5866e-06
1.56478e-06
1.53279e-06
1.52934e-06
1.52256e-06
1.50701e-06
1.50886e-06
1.47335e-06
1.46923e-06
1.46759e-06
1.45385e-06
1.4283e-06
1.34453e-06
1.25726e-06
1.22242e-06
1.26136e-06
1.24689e-06
1.25781e-06
1.30467e-06
1.28211e-06
1.16766e-06
1.09516e-06
1.04983e-06
1.02079e-06
1.0087e-06
1.01605e-06
1.10339e-06
1.17194e-06
1.23177e-06
1.25014e-06
1.25707e-06
1.25583e-06
1.24965e-06
1.24729e-06
1.2647e-06
1.26275e-06
1.27091e-06
1.27568e-06
1.26739e-06
1.24176e-06
1.21391e-06
1.16325e-06
1.12371e-06
1.13064e-06
4.71445e-07
3.46079e-07
3.37176e-07
3.55849e-07
4.00075e-07
4.46514e-07
5.26101e-07
5.9736e-07
7.70986e-07
8.25948e-07
8.64867e-07
8.68705e-07
8.5681e-07
8.21673e-07
7.67957e-07
7.22825e-07
6.08366e-07
5.9268e-07
5.89782e-07
5.8922e-07
5.93836e-07
6.01846e-07
6.10402e-07
6.2195e-07
7.16471e-07
7.21932e-07
6.40974e-07
6.12368e-07
5.47899e-07
5.23192e-07
4.02641e-07
3.96557e-07
4.17817e-07
4.07946e-07
3.86796e-07
3.741e-07
3.72137e-07
3.83588e-07
3.99496e-07
4.21203e-07
4.50195e-07
4.79533e-07
5.01792e-07
4.96081e-07
4.79538e-07
4.68807e-07
4.62386e-07
4.5866e-07
4.58572e-07
4.6121e-07
4.61993e-07
4.64894e-07
4.66863e-07
4.66115e-07
4.62023e-07
4.56255e-07
4.47291e-07
4.38641e-07
4.3476e-07
4.33259e-07
2.23715e-07
2.20493e-07
2.15755e-07
2.0785e-07
2.07246e-07
2.19955e-07
2.31953e-07
3.52272e-07
3.66717e-07
3.71761e-07
3.80041e-07
3.93845e-07
3.9062e-07
4.04587e-07
4.08775e-07
4.06333e-07
4.09855e-07
4.06971e-07
4.04098e-07
3.89817e-07
3.66462e-07
2.4428e-07
2.30221e-07
2.24678e-07
2.13349e-07
2.09573e-07
3.56209e-07
3.9604e-07
3.68526e-07
2.15727e-07
6.71242e-08
6.89743e-08
6.5318e-08
6.04355e-08
5.82913e-08
5.7539e-08
5.64336e-08
5.65974e-08
5.53808e-08
5.58146e-08
5.58182e-08
5.70022e-08
5.93853e-08
6.2676e-08
6.58532e-08
6.94191e-08
7.19446e-08
7.34357e-08
7.42484e-08
7.36716e-08
7.33719e-08
7.17936e-08
7.15e-08
7.0324e-08
6.87714e-08
6.78857e-08
6.72353e-08
6.79799e-08
7.06799e-08
7.61549e-08
1.05411e-07
9.79565e-08
5.64311e-08
4.31528e-08
3.79422e-08
4.04623e-08
4.6629e-08
5.17459e-08
6.80766e-08
8.62086e-08
1.00072e-07
1.0886e-07
1.14529e-07
1.14982e-07
1.11509e-07
1.13129e-07
1.11471e-07
1.08148e-07
1.07251e-07
1.1025e-07
1.11625e-07
1.13287e-07
1.16234e-07
1.19123e-07
1.22457e-07
1.28213e-07
2.57798e-07
4.03503e-07
6.3689e-07
5.70326e-07
8.98552e-08
5.91306e-08
4.0037e-08
4.54804e-08
5.47571e-08
5.79299e-08
5.76423e-08
5.49014e-08
5.28877e-08
4.98883e-08
4.67442e-08
4.36856e-08
4.30188e-08
4.36013e-08
4.41069e-08
4.43431e-08
4.42225e-08
4.49546e-08
4.54049e-08
4.63377e-08
4.6766e-08
5.26321e-08
6.29657e-08
7.04821e-08
9.25809e-08
9.61475e-08
9.2653e-08
7.61383e-08
7.3652e-08
6.66483e-08
1.35825e-07
1.36266e-07
1.37127e-07
1.45021e-07
1.56505e-07
1.66553e-07
1.76295e-07
2.81279e-07
3.04291e-07
3.23256e-07
3.33565e-07
3.35391e-07
3.35025e-07
3.28919e-07
3.13771e-07
2.80226e-07
1.79006e-07
1.79227e-07
1.49539e-07
6.66978e-08
3.95694e-08
3.20608e-08
3.15664e-08
3.29572e-08
4.33811e-08
5.23387e-08
5.84478e-08
6.32808e-08
6.21165e-08
3.3217e-08
1.06456e-07
1.12106e-07
1.03096e-07
8.78958e-08
8.9768e-08
9.75758e-08
1.13332e-07
1.23926e-07
1.34349e-07
2.15213e-07
2.38266e-07
2.50076e-07
2.59701e-07
2.65513e-07
2.61818e-07
2.45975e-07
2.25273e-07
1.42601e-07
1.39646e-07
1.13997e-07
5.52264e-08
4.39144e-08
4.25227e-08
4.44631e-08
4.68879e-08
4.46516e-08
4.21093e-08
3.97789e-08
3.80896e-08
3.63951e-08
6.06422e-08
4.95506e-08
5.03147e-08
5.28785e-08
6.62575e-08
7.56269e-08
8.52374e-08
9.11042e-08
9.83678e-08
9.97992e-08
9.84693e-08
9.82587e-08
9.65425e-08
9.55885e-08
9.7865e-08
8.67084e-08
4.83255e-08
3.1204e-08
1.97444e-08
1.80328e-08
1.92108e-08
1.83901e-08
1.59935e-08
1.54828e-08
1.57358e-08
1.50713e-08
1.52195e-08
1.58222e-08
1.55218e-08
1.5071e-08
2.35797e-08
2.17078e-08
2.23808e-08
2.34246e-08
2.38933e-08
2.45926e-08
2.50058e-08
2.47336e-08
2.55171e-08
2.56575e-08
2.64613e-08
2.69167e-08
2.70245e-08
2.5463e-08
2.55756e-08
2.32472e-08
2.18932e-08
2.00316e-08
1.98826e-08
2.10269e-08
2.54339e-08
2.87792e-08
3.19158e-08
3.35799e-08
3.29237e-08
3.07224e-08
2.86924e-08
2.8589e-08
2.83472e-08
2.79095e-08
8.37848e-09
1.53713e-08
2.2732e-08
1.49375e-08
9.46865e-09
5.06001e-09
3.03259e-09
2.46547e-09
2.46999e-09
2.58369e-09
2.69652e-09
3.18467e-09
3.31948e-09
3.26824e-09
3.20929e-09
2.96199e-09
2.6949e-09
2.67517e-09
2.72786e-09
2.76956e-09
3.00172e-09
3.06234e-09
3.51022e-09
3.03051e-09
2.9923e-09
2.4811e-09
2.56461e-09
2.81707e-09
4.35807e-09
3.52352e-09
1.55864e-06
1.53139e-06
1.53142e-06
1.51461e-06
1.44975e-06
1.39708e-06
1.36777e-06
1.37616e-06
1.34312e-06
1.42655e-06
1.44649e-06
1.42586e-06
1.34731e-06
1.33412e-06
1.22255e-06
1.25918e-06
1.24265e-06
1.25462e-06
1.32882e-06
1.31023e-06
1.19107e-06
1.12999e-06
1.10295e-06
1.06886e-06
1.03008e-06
1.02394e-06
1.1071e-06
1.20763e-06
1.24064e-06
1.25122e-06
1.24538e-06
1.22998e-06
1.23185e-06
1.23898e-06
1.24484e-06
1.24986e-06
1.26369e-06
1.27482e-06
1.28387e-06
1.27894e-06
1.25259e-06
1.19167e-06
1.13302e-06
1.1237e-06
4.72138e-07
3.42141e-07
3.22679e-07
3.32167e-07
3.64392e-07
4.15561e-07
5.05206e-07
6.12459e-07
8.1969e-07
8.75776e-07
9.07168e-07
9.07405e-07
8.82837e-07
8.10316e-07
7.27428e-07
5.96138e-07
5.79329e-07
5.8278e-07
5.94534e-07
6.09813e-07
6.13957e-07
6.99565e-07
7.06553e-07
7.14652e-07
7.22151e-07
7.34147e-07
7.40742e-07
6.38446e-07
5.73625e-07
5.21002e-07
3.97675e-07
4.00444e-07
4.12361e-07
3.86688e-07
3.60061e-07
3.48852e-07
3.61707e-07
3.77639e-07
3.91559e-07
4.10019e-07
4.48108e-07
4.98005e-07
5.18569e-07
4.96884e-07
4.6921e-07
4.60558e-07
4.61063e-07
4.68969e-07
4.80474e-07
4.85855e-07
4.9645e-07
5.01595e-07
5.00075e-07
4.97526e-07
4.88881e-07
4.78808e-07
4.67665e-07
4.53884e-07
4.41989e-07
4.35445e-07
2.23327e-07
2.22404e-07
2.16196e-07
2.05924e-07
2.20412e-07
3.44268e-07
3.62653e-07
3.76739e-07
3.84243e-07
3.92833e-07
4.21784e-07
4.29282e-07
4.5017e-07
4.55206e-07
4.60516e-07
4.67692e-07
4.5706e-07
4.47148e-07
4.41326e-07
4.213e-07
4.04636e-07
3.69004e-07
2.42199e-07
2.28925e-07
2.21864e-07
3.20725e-07
3.59762e-07
4.14794e-07
3.83633e-07
3.17681e-07
6.71522e-08
6.79013e-08
6.35286e-08
5.79898e-08
5.5955e-08
5.49418e-08
5.35273e-08
5.49614e-08
5.40793e-08
5.49541e-08
5.42046e-08
5.5621e-08
5.97414e-08
6.48527e-08
7.07995e-08
7.54842e-08
7.85623e-08
8.06068e-08
8.08684e-08
8.07935e-08
7.93869e-08
7.93639e-08
7.69713e-08
7.5423e-08
7.40936e-08
7.14735e-08
6.91436e-08
6.83358e-08
6.98529e-08
7.47183e-08
1.04564e-07
8.94873e-08
4.91405e-08
3.44135e-08
2.83627e-08
3.74246e-08
4.67959e-08
5.29445e-08
7.52601e-08
9.53954e-08
1.08686e-07
1.16467e-07
1.1745e-07
1.14332e-07
1.15203e-07
1.1398e-07
1.08128e-07
1.08695e-07
1.08825e-07
1.08223e-07
1.09786e-07
1.11977e-07
1.14635e-07
1.18271e-07
1.19684e-07
1.25027e-07
2.18656e-07
3.31941e-07
5.86453e-07
5.85983e-07
6.77164e-08
4.50986e-08
4.04632e-08
5.55044e-08
5.95104e-08
5.84564e-08
5.46472e-08
5.21897e-08
4.80419e-08
4.52833e-08
3.92143e-08
3.83465e-08
3.80096e-08
3.76108e-08
3.69276e-08
3.91028e-08
4.24985e-08
4.30892e-08
4.42538e-08
4.55421e-08
4.65845e-08
4.8259e-08
5.47633e-08
6.58782e-08
8.85468e-08
9.88871e-08
9.44398e-08
9.45176e-08
9.37382e-08
6.86618e-08
1.3532e-07
1.25019e-07
1.31329e-07
1.46309e-07
1.6212e-07
1.76937e-07
3.00735e-07
3.41342e-07
3.82742e-07
4.14382e-07
4.33311e-07
4.39761e-07
4.29418e-07
4.07113e-07
3.85809e-07
3.49787e-07
3.10336e-07
1.83638e-07
1.76126e-07
1.195e-07
5.80619e-08
3.47419e-08
3.22129e-08
3.43749e-08
4.84103e-08
5.83699e-08
6.61963e-08
6.9054e-08
6.85331e-08
3.79861e-08
1.11218e-07
1.07674e-07
8.66801e-08
6.85548e-08
9.13149e-08
1.13127e-07
1.29166e-07
2.17956e-07
2.61571e-07
2.88796e-07
3.14051e-07
3.31456e-07
3.35593e-07
3.32654e-07
3.28766e-07
3.15415e-07
2.8044e-07
2.40903e-07
1.43951e-07
1.30469e-07
7.95655e-08
4.58928e-08
4.17905e-08
4.70828e-08
5.09851e-08
4.68747e-08
4.20479e-08
3.90978e-08
3.66967e-08
3.64082e-08
4.61742e-08
4.80135e-08
5.26393e-08
6.84305e-08
8.48531e-08
9.57694e-08
1.08008e-07
2.02637e-07
2.35116e-07
2.46334e-07
2.41894e-07
2.18848e-07
1.85138e-07
1.10987e-07
1.05649e-07
1.00764e-07
7.9681e-08
4.40889e-08
2.59037e-08
2.14464e-08
1.98045e-08
1.91441e-08
1.67622e-08
1.56311e-08
1.56843e-08
1.5759e-08
1.54791e-08
1.60341e-08
1.58842e-08
1.48066e-08
2.2687e-08
2.24236e-08
2.32256e-08
2.41437e-08
2.50837e-08
2.48415e-08
2.65434e-08
2.63054e-08
2.80957e-08
2.81678e-08
2.81081e-08
2.80703e-08
2.85864e-08
2.82708e-08
2.71392e-08
2.67377e-08
2.48457e-08
2.31179e-08
2.06584e-08
2.32588e-08
2.74257e-08
3.19681e-08
4.54997e-08
5.63006e-08
5.65376e-08
4.17366e-08
3.26812e-08
3.00319e-08
2.87189e-08
2.77243e-08
7.03311e-09
1.54564e-08
2.28056e-08
1.16967e-08
5.93955e-09
3.39002e-09
2.53107e-09
2.57972e-09
2.75002e-09
3.51992e-09
3.86454e-09
4.32547e-09
4.56032e-09
4.65742e-09
4.38927e-09
4.15023e-09
3.61494e-09
3.10608e-09
2.80168e-09
2.83648e-09
3.10581e-09
4.25695e-09
4.87761e-09
5.00436e-09
4.86559e-09
4.59764e-09
4.21359e-09
4.48289e-09
4.69276e-09
2.7414e-09
1.52419e-06
1.53148e-06
1.51097e-06
1.40239e-06
1.31661e-06
1.27653e-06
1.2527e-06
1.20894e-06
1.24533e-06
1.31103e-06
1.36117e-06
1.42074e-06
1.40693e-06
1.31958e-06
1.22055e-06
1.25599e-06
1.23759e-06
1.24386e-06
1.32108e-06
1.3511e-06
1.29883e-06
1.19326e-06
1.17338e-06
1.14323e-06
1.08749e-06
1.03636e-06
1.11628e-06
1.21593e-06
1.24295e-06
1.23583e-06
1.21943e-06
1.21764e-06
1.24099e-06
1.24829e-06
1.26648e-06
1.26853e-06
1.27279e-06
1.28597e-06
1.30165e-06
1.30164e-06
1.2755e-06
1.22316e-06
1.14489e-06
1.12094e-06
4.82398e-07
3.39271e-07
3.05837e-07
2.98195e-07
3.05404e-07
3.42995e-07
4.47372e-07
5.96307e-07
8.21558e-07
8.91959e-07
9.17269e-07
9.11496e-07
8.49021e-07
7.40955e-07
5.89886e-07
5.71947e-07
5.87738e-07
6.17742e-07
7.34522e-07
7.54664e-07
7.7771e-07
7.67875e-07
7.5871e-07
7.49269e-07
7.42262e-07
7.46864e-07
7.53809e-07
7.42298e-07
6.00268e-07
5.23452e-07
3.94943e-07
4.00273e-07
4.05863e-07
3.72722e-07
3.46022e-07
3.5076e-07
3.8139e-07
3.96358e-07
3.9612e-07
4.03998e-07
4.5098e-07
5.17496e-07
5.3053e-07
4.89382e-07
4.5736e-07
4.59887e-07
4.72454e-07
4.94458e-07
5.0845e-07
5.28603e-07
5.41583e-07
5.41204e-07
5.39959e-07
5.27463e-07
5.20156e-07
5.04773e-07
4.86332e-07
4.68819e-07
4.51075e-07
4.36195e-07
2.22905e-07
2.22467e-07
2.13692e-07
2.14168e-07
3.57233e-07
3.69732e-07
3.77816e-07
3.87863e-07
3.98989e-07
4.29085e-07
4.75789e-07
4.87877e-07
5.22315e-07
5.31634e-07
5.33405e-07
5.26469e-07
5.21507e-07
4.99685e-07
4.84094e-07
4.52422e-07
4.36391e-07
3.96738e-07
3.59512e-07
2.34404e-07
2.28163e-07
3.30641e-07
3.49053e-07
4.15113e-07
3.61205e-07
2.06496e-07
6.58923e-08
6.72951e-08
6.21506e-08
5.65127e-08
5.45638e-08
5.43034e-08
5.2986e-08
5.46547e-08
5.60492e-08
5.45155e-08
5.39098e-08
5.64384e-08
6.21139e-08
6.9271e-08
7.62448e-08
8.08839e-08
8.32617e-08
8.43758e-08
8.48798e-08
8.42354e-08
8.4742e-08
8.31029e-08
8.20143e-08
7.94543e-08
7.70102e-08
7.50334e-08
7.19209e-08
6.94163e-08
6.95509e-08
7.35363e-08
1.04049e-07
8.25405e-08
4.40122e-08
2.78743e-08
2.66702e-08
3.39291e-08
4.7585e-08
5.39327e-08
7.9881e-08
1.02949e-07
1.14451e-07
1.18198e-07
1.15634e-07
1.15718e-07
1.15698e-07
1.0871e-07
1.06337e-07
1.07771e-07
1.06776e-07
1.06126e-07
1.06867e-07
1.10358e-07
1.12472e-07
1.15527e-07
1.17929e-07
1.23371e-07
2.03689e-07
2.85342e-07
5.24385e-07
5.7653e-07
6.04163e-08
3.65326e-08
5.21245e-08
5.95022e-08
5.89376e-08
5.52802e-08
5.25995e-08
4.87201e-08
4.38817e-08
3.98856e-08
3.3479e-08
3.28245e-08
3.13477e-08
3.0567e-08
3.12478e-08
3.19787e-08
3.59403e-08
3.97513e-08
4.19151e-08
4.46337e-08
4.53743e-08
4.60911e-08
5.05546e-08
6.1047e-08
7.10788e-08
9.67748e-08
9.47619e-08
9.55926e-08
1.00058e-07
7.20469e-08
1.11033e-07
1.08605e-07
1.28483e-07
1.52455e-07
1.69735e-07
2.86401e-07
3.50272e-07
4.056e-07
4.68231e-07
4.96067e-07
6.01297e-07
6.11707e-07
6.10045e-07
4.9732e-07
4.54409e-07
4.04666e-07
3.67771e-07
3.05264e-07
1.8671e-07
1.56676e-07
7.97395e-08
5.55326e-08
4.44708e-08
4.85611e-08
5.66979e-08
6.60419e-08
7.33835e-08
7.61668e-08
7.35302e-08
4.89753e-08
1.13664e-07
9.48481e-08
6.85258e-08
6.91723e-08
1.05134e-07
1.27814e-07
2.19237e-07
2.71154e-07
3.16766e-07
3.51816e-07
3.87842e-07
4.02224e-07
4.09458e-07
4.03399e-07
3.82404e-07
3.61564e-07
3.34619e-07
2.8237e-07
2.35805e-07
1.37955e-07
9.71727e-08
4.92454e-08
4.22222e-08
4.97976e-08
5.34091e-08
4.70047e-08
4.04995e-08
3.82078e-08
3.55267e-08
3.61935e-08
4.51717e-08
5.25481e-08
6.70993e-08
7.84306e-08
9.55016e-08
1.806e-07
2.68128e-07
3.28496e-07
3.65269e-07
3.88475e-07
3.83777e-07
3.54963e-07
3.04301e-07
2.40471e-07
1.18903e-07
1.09035e-07
9.73897e-08
5.33114e-08
3.08652e-08
2.0974e-08
2.14521e-08
2.15225e-08
2.05709e-08
1.63734e-08
1.54649e-08
1.56568e-08
1.51942e-08
1.55164e-08
1.55735e-08
1.44314e-08
2.22881e-08
2.27788e-08
2.3872e-08
2.49675e-08
2.52145e-08
2.59185e-08
2.64645e-08
2.96442e-08
2.95209e-08
3.14456e-08
3.15498e-08
3.14645e-08
3.08942e-08
2.93281e-08
2.89419e-08
2.76116e-08
2.74633e-08
2.41484e-08
2.30266e-08
2.31477e-08
2.76964e-08
3.2443e-08
4.98245e-08
6.74691e-08
6.85651e-08
5.72918e-08
3.63711e-08
3.19988e-08
2.9126e-08
2.75241e-08
5.38923e-09
1.3455e-08
2.27365e-08
8.57024e-09
4.3868e-09
2.91186e-09
2.62525e-09
2.80829e-09
3.51022e-09
4.45036e-09
5.21773e-09
5.92209e-09
7.44098e-09
7.40623e-09
6.95376e-09
5.5194e-09
4.74734e-09
3.92626e-09
3.1886e-09
2.79438e-09
2.95542e-09
4.22667e-09
5.14913e-09
5.13466e-09
4.82665e-09
4.68485e-09
4.72443e-09
4.58268e-09
4.20783e-09
2.23649e-09
1.53511e-06
1.53113e-06
1.40254e-06
1.28141e-06
1.23672e-06
1.21416e-06
1.21147e-06
1.21426e-06
1.18513e-06
1.25866e-06
1.32858e-06
1.42108e-06
1.40389e-06
1.31737e-06
1.21448e-06
1.25298e-06
1.22252e-06
1.22237e-06
1.28935e-06
1.37276e-06
1.36566e-06
1.32814e-06
1.3114e-06
1.27848e-06
1.13608e-06
1.11277e-06
1.11949e-06
1.21493e-06
1.2346e-06
1.21272e-06
1.2113e-06
1.2416e-06
1.28437e-06
1.32253e-06
1.34511e-06
1.34064e-06
1.31803e-06
1.31176e-06
1.31493e-06
1.31535e-06
1.30109e-06
1.23758e-06
1.15299e-06
1.11874e-06
5.01073e-07
3.48981e-07
3.00786e-07
2.76602e-07
1.85507e-07
2.91581e-07
4.18931e-07
5.99922e-07
8.22738e-07
8.99666e-07
9.13144e-07
9.02542e-07
7.83686e-07
5.94665e-07
5.63148e-07
5.84293e-07
7.15501e-07
7.73003e-07
8.15855e-07
8.36238e-07
8.30807e-07
8.3072e-07
8.20599e-07
8.04849e-07
7.80617e-07
7.72846e-07
7.65324e-07
7.55072e-07
6.13415e-07
5.26542e-07
3.93257e-07
3.98444e-07
4.04768e-07
3.68433e-07
3.452e-07
3.70165e-07
4.08215e-07
4.22664e-07
4.06497e-07
4.03412e-07
4.60292e-07
5.44219e-07
5.32373e-07
4.72561e-07
4.5535e-07
4.69357e-07
4.95886e-07
5.24322e-07
5.55544e-07
6.66281e-07
6.73662e-07
6.81791e-07
6.74868e-07
6.6017e-07
5.45996e-07
5.26877e-07
5.04197e-07
4.80587e-07
4.57557e-07
4.37165e-07
2.21113e-07
2.21906e-07
2.15819e-07
3.5666e-07
3.82488e-07
3.79305e-07
3.84519e-07
3.97126e-07
4.21091e-07
4.82632e-07
5.24183e-07
5.53532e-07
5.93291e-07
6.0086e-07
6.06543e-07
5.9591e-07
5.80674e-07
5.40345e-07
5.20506e-07
4.82925e-07
4.62223e-07
4.19537e-07
3.82281e-07
2.39799e-07
2.31494e-07
3.31125e-07
3.47675e-07
4.05474e-07
3.06967e-07
1.85831e-07
6.57935e-08
6.6962e-08
6.21167e-08
5.78247e-08
5.35401e-08
5.25822e-08
5.45542e-08
5.56976e-08
5.74246e-08
5.45109e-08
5.40053e-08
5.88082e-08
6.62272e-08
7.42283e-08
8.03937e-08
8.37203e-08
8.52853e-08
8.67207e-08
8.68977e-08
8.609e-08
8.49913e-08
8.57568e-08
8.44075e-08
8.38349e-08
8.03666e-08
7.73387e-08
7.3801e-08
7.03269e-08
6.95313e-08
7.27967e-08
1.03161e-07
7.89474e-08
4.22418e-08
2.72053e-08
2.54944e-08
2.7956e-08
4.8718e-08
5.42569e-08
8.20645e-08
1.07637e-07
1.16401e-07
1.17541e-07
1.15512e-07
1.17732e-07
1.11897e-07
1.06046e-07
1.03957e-07
9.91252e-08
9.77252e-08
1.0134e-07
1.01896e-07
1.08149e-07
1.10186e-07
1.13985e-07
1.16932e-07
1.22022e-07
1.97256e-07
2.61889e-07
4.00241e-07
5.5671e-07
5.22724e-08
3.8966e-08
5.71182e-08
5.99391e-08
5.79346e-08
5.51476e-08
5.08071e-08
4.55022e-08
4.00072e-08
3.41466e-08
3.16145e-08
2.97984e-08
2.82264e-08
2.81475e-08
2.79989e-08
2.93831e-08
3.04144e-08
3.57187e-08
3.90433e-08
4.37106e-08
4.43158e-08
4.73938e-08
4.81906e-08
5.74712e-08
6.78224e-08
9.04153e-08
9.27619e-08
9.6184e-08
1.03823e-07
7.41932e-08
7.72141e-08
9.81616e-08
1.3385e-07
1.56675e-07
1.74459e-07
3.13939e-07
3.96317e-07
4.63034e-07
6.00131e-07
6.44518e-07
6.75031e-07
6.82699e-07
6.75619e-07
6.43e-07
6.10134e-07
4.56682e-07
4.09389e-07
3.42668e-07
2.95968e-07
1.75238e-07
1.35202e-07
7.49813e-08
6.1243e-08
6.21627e-08
6.81953e-08
7.33279e-08
9.68235e-08
9.79815e-08
7.68939e-08
5.23679e-08
1.09482e-07
6.95403e-08
6.90634e-08
9.4665e-08
1.20269e-07
1.39043e-07
2.51334e-07
3.16623e-07
3.62545e-07
4.02052e-07
5.00998e-07
5.15604e-07
5.32161e-07
5.35458e-07
5.20662e-07
4.0334e-07
3.64959e-07
3.17255e-07
2.61985e-07
1.41319e-07
1.06096e-07
5.27917e-08
4.4101e-08
5.39182e-08
5.35701e-08
4.35995e-08
3.77704e-08
3.57385e-08
3.3783e-08
3.54974e-08
5.45152e-08
5.46519e-08
6.85111e-08
8.52182e-08
1.1118e-07
2.72801e-07
3.64557e-07
5.25565e-07
5.98667e-07
6.25628e-07
6.18529e-07
5.74275e-07
4.86124e-07
3.2933e-07
2.39756e-07
1.17751e-07
1.07311e-07
7.50071e-08
3.22885e-08
2.25056e-08
2.40905e-08
2.47391e-08
2.48785e-08
2.19925e-08
1.97586e-08
1.58456e-08
1.49434e-08
1.40874e-08
1.41898e-08
1.40771e-08
2.22272e-08
2.29125e-08
2.34286e-08
2.50137e-08
2.55753e-08
2.65465e-08
2.84076e-08
3.26408e-08
3.52724e-08
3.51927e-08
3.64398e-08
3.73685e-08
3.45601e-08
3.13879e-08
3.12573e-08
2.8789e-08
2.80911e-08
2.65063e-08
2.45534e-08
2.30049e-08
2.65644e-08
3.11378e-08
4.47587e-08
6.54768e-08
7.02123e-08
6.24817e-08
4.51488e-08
3.34716e-08
2.92916e-08
2.73289e-08
4.87442e-09
8.90179e-09
2.28049e-08
7.3425e-09
3.66244e-09
2.87819e-09
2.75425e-09
3.3791e-09
4.3855e-09
5.46973e-09
7.75129e-09
9.75182e-09
1.09885e-08
1.16314e-08
1.06461e-08
8.88663e-09
6.36656e-09
4.77455e-09
3.8343e-09
3.04319e-09
2.69833e-09
3.34873e-09
5.27417e-09
5.25778e-09
3.66135e-09
2.53647e-09
2.72053e-09
2.88836e-09
2.34562e-09
1.4672e-09
1.54854e-06
1.46238e-06
1.29005e-06
1.17306e-06
1.17493e-06
1.19798e-06
1.19211e-06
1.22281e-06
1.22408e-06
1.22192e-06
1.31145e-06
1.35376e-06
1.34135e-06
1.31256e-06
1.21217e-06
1.25283e-06
1.22058e-06
1.20785e-06
1.24367e-06
1.3183e-06
1.37728e-06
1.39076e-06
1.38634e-06
1.32172e-06
1.22446e-06
1.12813e-06
1.13929e-06
1.21629e-06
1.20776e-06
1.20159e-06
1.22975e-06
1.28771e-06
1.36614e-06
1.42197e-06
1.43314e-06
1.41957e-06
1.37957e-06
1.34118e-06
1.33052e-06
1.33301e-06
1.31355e-06
1.25648e-06
1.16042e-06
1.11791e-06
5.26191e-07
3.75159e-07
3.11168e-07
2.75026e-07
2.71461e-07
3.23797e-07
4.72233e-07
7.21063e-07
8.40293e-07
9.03292e-07
9.19434e-07
8.63741e-07
7.12124e-07
5.49485e-07
5.68677e-07
7.12771e-07
7.95394e-07
8.3775e-07
8.53121e-07
8.503e-07
8.59161e-07
8.54384e-07
8.47711e-07
8.35882e-07
8.10141e-07
7.94803e-07
7.75403e-07
7.63942e-07
6.19326e-07
5.23272e-07
3.91451e-07
3.979e-07
4.09436e-07
3.75938e-07
3.58859e-07
3.82929e-07
4.20973e-07
4.33442e-07
4.06795e-07
4.03999e-07
4.77337e-07
5.71796e-07
5.24514e-07
4.59448e-07
4.64177e-07
4.86755e-07
5.25815e-07
6.30973e-07
6.86406e-07
6.89713e-07
7.05519e-07
7.05213e-07
7.01601e-07
6.96779e-07
6.70101e-07
5.48419e-07
5.21232e-07
4.87045e-07
4.59004e-07
4.35068e-07
2.1976e-07
2.20355e-07
3.27152e-07
3.93225e-07
3.90506e-07
3.81918e-07
3.89116e-07
4.07214e-07
4.52102e-07
5.29155e-07
5.68694e-07
5.99482e-07
6.20804e-07
6.16119e-07
6.12379e-07
6.08961e-07
6.14306e-07
5.7974e-07
5.51177e-07
5.02517e-07
4.8425e-07
4.40829e-07
4.0122e-07
2.467e-07
2.3378e-07
2.32957e-07
3.48756e-07
3.81301e-07
1.78155e-07
1.56082e-07
6.39378e-08
6.62178e-08
6.37199e-08
5.90586e-08
5.63084e-08
5.60526e-08
5.58757e-08
5.8042e-08
5.70146e-08
5.47445e-08
5.51064e-08
6.07166e-08
6.93082e-08
7.7883e-08
8.212e-08
8.42006e-08
8.50288e-08
8.63816e-08
8.39315e-08
8.66783e-08
8.60433e-08
8.46794e-08
8.33238e-08
8.38608e-08
8.29058e-08
7.94433e-08
7.52883e-08
7.10798e-08
6.93977e-08
7.25739e-08
1.02802e-07
7.87462e-08
4.31052e-08
2.71402e-08
2.58068e-08
2.75033e-08
4.97162e-08
5.46186e-08
8.33258e-08
1.09324e-07
1.17585e-07
1.1769e-07
1.16627e-07
1.18324e-07
1.08449e-07
1.0646e-07
1.01925e-07
9.35309e-08
9.37819e-08
9.55101e-08
9.95977e-08
1.03402e-07
1.08505e-07
1.13669e-07
1.16334e-07
1.21421e-07
1.95845e-07
2.52498e-07
3.82927e-07
5.32196e-07
4.65007e-08
4.75921e-08
5.47907e-08
5.77779e-08
5.80485e-08
5.46714e-08
4.82327e-08
4.41107e-08
3.80186e-08
3.26298e-08