/*--------------------------------*- C++ -*----------------------------------*\
| =========                 |                                                 |
| \\      /  F ield         | OpenFOAM: The Open Source CFD Toolbox           |
|  \\    /   O peration     | Version:  2.1.1                                 |
|   \\  /    A nd           | Web:      www.OpenFOAM.org                      |
|    \\/     M anipulation  |                                                 |
\*---------------------------------------------------------------------------*/
FoamFile
{
    version     2.0;
    format      ascii;
    class       volScalarField;
    location    "0.007500000";
    object      rho;
}
// * * * * * * * * * * * * * * * * * * * * * * * * * * * * * * * * * * * * * //

dimensions      [1 -3 0 0 0 0 0];

internalField   nonuniform List<scalar> 
12384
(
0.81385
0.818384
0.823355
0.827544
0.830746
0.831077
0.830001
0.826976
0.822996
0.818026
0.811296
0.805653
0.801372
0.795454
0.90409
0.899656
0.898572
0.891759
0.884176
0.874884
0.86494
0.858374
0.855004
0.853154
0.853257
0.853921
0.855067
0.856303
0.858302
0.860365
0.861784
0.861361
0.861529
0.860919
0.858361
0.855053
0.856871
0.854088
0.85375
0.853882
0.85321
0.852532
0.870962
0.923426
0.814189
0.80793
0.808244
0.8071
0.811956
0.810619
0.817553
0.816142
0.823837
0.822723
0.829191
0.830784
0.834027
0.835782
0.837602
0.838374
0.838641
0.838174
0.837851
0.836489
0.837062
0.835951
0.839895
0.839287
0.840871
0.841867
0.841177
0.84026
0.843491
0.845457
0.860529
0.85441
0.854161
0.855065
0.855495
0.853639
0.852808
0.854472
0.856001
0.857241
0.858595
0.859495
0.859424
0.858697
0.857896
0.855804
0.853888
0.852617
0.85099
0.846357
0.84865
0.848885
0.846686
0.851593
0.850512
0.85452
0.85546
0.856964
0.857868
0.859286
0.856808
0.857189
0.856558
0.855849
0.854859
0.854081
0.853452
0.852792
0.851969
0.848239
0.846663
0.838978
0.843059
0.833627
0.837343
0.834301
0.844436
0.841418
0.852004
0.850059
0.855053
0.854602
0.861644
0.861982
0.862435
0.862034
0.863463
0.865054
0.866163
0.866707
0.854737
0.855986
0.853251
0.849753
0.845443
0.843164
0.84162
0.840884
0.841189
0.842938
0.8448
0.84624
0.847599
0.848349
0.848253
0.847056
0.845192
0.841767
0.839611
0.836
0.836199
0.832913
0.835064
0.836002
0.838596
0.840055
0.841218
0.842021
0.841054
0.840258
0.86363
0.859242
0.857564
0.853206
0.84932
0.847742
0.846583
0.847057
0.848471
0.849784
0.850625
0.851099
0.850195
0.845375
0.847272
0.843664
0.837446
0.839919
0.837989
0.843506
0.848883
0.852271
0.856485
0.86148
0.863835
0.871544
0.920076
0.928201
0.920289
0.913275
0.867626
0.849828
0.844963
0.840696
0.838352
0.837298
0.835558
0.833022
0.828481
0.825527
0.81726
0.817989
0.809652
0.813332
0.812743
0.813775
0.816493
0.818838
0.820397
0.822105
0.830763
0.841913
0.844138
0.842366
0.843736
0.843126
0.843138
0.842471
0.842419
0.842574
0.83896
0.83781
0.838327
0.838346
0.8376
0.836592
0.832762
0.828082
0.822412
0.821318
0.813778
0.815306
0.813046
0.824063
0.827164
0.827729
0.835358
0.831574
0.829309
0.827722
0.830104
0.828908
0.833179
0.832612
0.8336
0.834924
0.835173
0.835033
0.836399
0.836964
0.828953
0.827523
0.828857
0.828474
0.829653
0.829927
0.830093
0.82869
0.827407
0.822931
0.824137
0.821174
0.82171
0.824475
0.830797
0.834498
0.836762
0.83752
0.833628
0.82671
0.823735
0.819008
0.816502
0.814905
0.811281
0.811268
0.808702
0.808515
0.80885
0.807639
0.809983
0.808142
0.810667
0.810279
0.8122
0.81216
0.811344
0.81155
0.807818
0.805987
0.808145
0.808844
0.810928
0.810965
0.809054
0.802409
0.800155
0.802152
0.802931
0.802695
0.803556
0.799563
0.797987
0.799551
0.792705
0.790071
0.792157
0.78495
0.784697
0.784194
0.806568
0.809
0.799805
0.788989
0.791071
0.794443
0.795397
0.797174
0.797647
0.797814
0.802657
0.79937
0.807267
0.804392
0.809529
0.810292
0.812207
0.812643
0.813087
0.813625
0.813437
0.813089
0.812904
0.81392
0.813011
0.815221
0.816298
0.817357
0.816797
0.82048
0.818277
0.819718
0.820282
0.819204
0.816852
0.816128
0.801102
0.765175
0.758415
0.755975
0.756255
0.753396
0.753888
0.75136
0.752536
0.752214
0.753225
0.752978
0.753178
0.750527
0.750412
0.744014
0.745483
0.738697
0.741615
0.736101
0.739707
0.738185
0.748388
0.749671
0.827194
0.837324
0.848822
0.854716
0.855094
0.853465
0.850235
0.846684
0.842713
0.836116
0.827392
0.814402
0.804082
0.795669
0.903326
0.899644
0.898177
0.889108
0.875627
0.858384
0.84548
0.838684
0.838401
0.839839
0.841746
0.84513
0.849648
0.857349
0.866491
0.873484
0.87583
0.876537
0.87463
0.870421
0.87058
0.866624
0.864919
0.862019
0.860071
0.857197
0.855524
0.853342
0.859031
0.889996
0.814683
0.807597
0.80852
0.80767
0.813132
0.811831
0.819496
0.816784
0.825007
0.824151
0.8322
0.833323
0.838229
0.8395
0.84101
0.841096
0.840005
0.838655
0.837357
0.83726
0.837277
0.837256
0.83731
0.839837
0.8413
0.842195
0.842566
0.841475
0.841208
0.843594
0.86018
0.85474
0.855784
0.855481
0.853469
0.853016
0.853745
0.854305
0.855685
0.857855
0.859058
0.859342
0.858735
0.857499
0.855328
0.853753
0.852728
0.850413
0.847125
0.849084
0.847146
0.846334
0.849739
0.848931
0.851315
0.853742
0.855067
0.857091
0.857493
0.858644
0.856851
0.857265
0.856545
0.854976
0.852848
0.852438
0.852794
0.852674
0.852997
0.849153
0.845174
0.846057
0.83797
0.839935
0.837726
0.839668
0.84223
0.845714
0.851921
0.851109
0.858216
0.856152
0.859061
0.861401
0.860753
0.861482
0.864684
0.866789
0.86599
0.863774
0.855505
0.855078
0.849653
0.842517
0.835928
0.831192
0.830163
0.833036
0.836347
0.840389
0.844242
0.846975
0.847957
0.848615
0.848561
0.847469
0.844978
0.841293
0.838252
0.834843
0.832899
0.832708
0.832029
0.833773
0.835735
0.838399
0.840667
0.842279
0.841836
0.841276
0.863566
0.857001
0.850697
0.842035
0.835936
0.835938
0.83767
0.840894
0.84268
0.845618
0.849191
0.850178
0.849234
0.85098
0.845873
0.840182
0.843248
0.839869
0.840728
0.84374
0.845791
0.8491
0.855829
0.859574
0.862894
0.866643
0.887428
0.919155
0.919441
0.906198
0.869836
0.849895
0.840475
0.836318
0.836188
0.836165
0.835494
0.833707
0.828417
0.823098
0.817785
0.813303
0.812689
0.806045
0.807083
0.811003
0.813597
0.817152
0.819678
0.821518
0.825161
0.833489
0.843451
0.846458
0.846765
0.844994
0.843239
0.840531
0.839037
0.839401
0.839753
0.836966
0.836741
0.836049
0.836507
0.83451
0.831339
0.827675
0.824581
0.818082
0.817432
0.816703
0.819301
0.819384
0.828512
0.827267
0.836165
0.834646
0.834121
0.828838
0.832
0.831414
0.833077
0.835193
0.83607
0.835854
0.835945
0.83462
0.834814
0.836553
0.829283
0.828322
0.827048
0.826848
0.825855
0.826651
0.827868
0.827103
0.826051
0.825811
0.82377
0.825048
0.82537
0.827648
0.828955
0.833327
0.837253
0.83848
0.836303
0.828833
0.824135
0.821065
0.817513
0.815373
0.811481
0.807247
0.805567
0.804756
0.806058
0.807347
0.809481
0.807742
0.809811
0.809263
0.810304
0.811909
0.812483
0.808252
0.805335
0.807922
0.807497
0.808311
0.810367
0.812721
0.813404
0.809434
0.80387
0.80201
0.804012
0.803461
0.804156
0.802309
0.799051
0.798881
0.795647
0.790633
0.789569
0.787707
0.784692
0.78308
0.801994
0.797695
0.790459
0.788769
0.792429
0.793534
0.794379
0.793974
0.795393
0.793538
0.798514
0.798148
0.802324
0.803397
0.808308
0.806905
0.809439
0.809912
0.809691
0.810469
0.811349
0.811988
0.81215
0.81216
0.812348
0.813802
0.814856
0.817499
0.817439
0.820341
0.810969
0.818907
0.824284
0.820711
0.81673
0.805112
0.775507
0.759004
0.756516
0.754929
0.752272
0.751162
0.748658
0.749153
0.747988
0.749815
0.750806
0.7528
0.753981
0.754666
0.754289
0.748271
0.748775
0.74028
0.740659
0.736296
0.738962
0.737776
0.749711
0.750697
0.843697
0.860143
0.866553
0.86318
0.854301
0.846143
0.83924
0.834587
0.833216
0.834316
0.833225
0.826023
0.809662
0.796712
0.902279
0.898984
0.897528
0.887686
0.869481
0.84867
0.836262
0.83285
0.83219
0.833063
0.836367
0.840864
0.848768
0.861949
0.876103
0.881156
0.880872
0.877061
0.871304
0.866939
0.8668
0.862247
0.86332
0.864426
0.863059
0.861385
0.858726
0.855031
0.854728
0.873898
0.813518
0.807068
0.808336
0.807394
0.812587
0.810544
0.816598
0.814422
0.823361
0.823635
0.832051
0.83347
0.839694
0.840977
0.841466
0.839983
0.837817
0.835884
0.834969
0.833325
0.833332
0.835007
0.83577
0.838122
0.840235
0.842238
0.842774
0.842199
0.841468
0.842392
0.85832
0.854411
0.855111
0.853005
0.850842
0.850024
0.849116
0.851039
0.8536
0.856243
0.857888
0.857542
0.855414
0.852989
0.85166
0.851555
0.850069
0.848036
0.848945
0.847023
0.845149
0.845288
0.847182
0.849838
0.852134
0.852612
0.854879
0.855851
0.857424
0.858005
0.856338
0.857229
0.856525
0.85364
0.851569
0.852621
0.853274
0.854573
0.854204
0.848784
0.847146
0.846857
0.838275
0.841528
0.841502
0.838109
0.842875
0.844973
0.851516
0.854247
0.855386
0.857555
0.856679
0.859266
0.861627
0.863168
0.868796
0.873524
0.87191
0.868179
0.854175
0.852697
0.844569
0.834303
0.825671
0.822894
0.825135
0.830585
0.837853
0.843552
0.847281
0.849573
0.850177
0.850136
0.849357
0.847162
0.843494
0.839067
0.835391
0.830558
0.829228
0.826671
0.829446
0.831434
0.833582
0.836111
0.838386
0.840743
0.841556
0.84136
0.862069
0.853344
0.843122
0.831882
0.828897
0.833286
0.838733
0.841358
0.843395
0.848493
0.851721
0.852674
0.855008
0.849754
0.843165
0.843261
0.839596
0.834158
0.833673
0.839129
0.843035
0.84642
0.851863
0.856997
0.860495
0.863966
0.872876
0.896421
0.920847
0.909823
0.870433
0.849185
0.834909
0.834845
0.837034
0.837447
0.835873
0.830951
0.824172
0.819607
0.811476
0.806229
0.79988
0.802099
0.803727
0.803496
0.808546
0.812558
0.816412
0.819363
0.821054
0.825812
0.835035
0.845112
0.849284
0.848239
0.844672
0.840214
0.837043
0.837032
0.836718
0.834696
0.834714
0.83612
0.835384
0.832956
0.830712
0.82714
0.821761
0.818759
0.815609
0.812527
0.814965
0.82044
0.82735
0.828157
0.831691
0.835426
0.836812
0.83124
0.830683
0.833625
0.834119
0.834969
0.838377
0.838436
0.838506
0.836844
0.83461
0.836315
0.83056
0.828173
0.826963
0.823887
0.825004
0.826526
0.828669
0.827727
0.830456
0.824992
0.823926
0.822451
0.823757
0.828863
0.833159
0.832876
0.834603
0.837027
0.836168
0.831085
0.824562
0.821969
0.820349
0.817535
0.813839
0.807606
0.804324
0.799932
0.802661
0.805563
0.807501
0.806341
0.808754
0.810714
0.811325
0.812295
0.809453
0.807668
0.810299
0.807438
0.8055
0.808646
0.810956
0.81272
0.814098
0.813495
0.809115
0.804816
0.804829
0.806192
0.804755
0.804913
0.799595
0.797083
0.79729
0.788863
0.787964
0.789515
0.783132
0.782012
0.796529
0.789674
0.786653
0.789831
0.790124
0.791173
0.788939
0.78878
0.788099
0.786991
0.789093
0.793314
0.797729
0.798752
0.805711
0.80716
0.808741
0.809621
0.809894
0.811088
0.812862
0.814599
0.81547
0.815931
0.814539
0.815199
0.814805
0.81661
0.817008
0.819143
0.801921
0.819019
0.826908
0.818789
0.806381
0.782568
0.760481
0.755898
0.753324
0.752135
0.748773
0.74844
0.746405
0.744034
0.745454
0.744772
0.746484
0.748371
0.752795
0.755389
0.760882
0.758392
0.759387
0.751115
0.75094
0.740865
0.742676
0.742919
0.754472
0.750875
0.867171
0.873326
0.865463
0.851383
0.839127
0.832261
0.826905
0.822383
0.818066
0.819964
0.826652
0.827783
0.815762
0.798246
0.90087
0.898508
0.897535
0.889002
0.870457
0.847493
0.832442
0.828619
0.827974
0.827054
0.82929
0.836508
0.848821
0.866796
0.879934
0.881092
0.875675
0.865368
0.861747
0.85541
0.852847
0.850976
0.853353
0.855923
0.859944
0.862226
0.860728
0.857512
0.853808
0.866665
0.813891
0.807963
0.806911
0.806808
0.809456
0.809074
0.812011
0.813441
0.82282
0.825374
0.830342
0.834953
0.838757
0.840778
0.8385
0.835225
0.832686
0.831786
0.830802
0.831854
0.829842
0.830347
0.832882
0.836423
0.837617
0.842251
0.842413
0.842811
0.841561
0.841868
0.856978
0.854038
0.853346
0.849798
0.847312
0.843988
0.845237
0.847425
0.851796
0.855101
0.857204
0.855786
0.852154
0.850103
0.850118
0.850131
0.84871
0.849847
0.848536
0.844484
0.846302
0.847364
0.846702
0.84909
0.850369
0.853252
0.85366
0.855454
0.855962
0.857336
0.855788
0.857311
0.855728
0.851561
0.85222
0.852658
0.855082
0.856689
0.852986
0.846666
0.850743
0.839015
0.84063
0.834419
0.833894
0.840806
0.841251
0.842339
0.850567
0.850232
0.858157
0.855811
0.858304
0.857074
0.860614
0.861693
0.867269
0.874019
0.871815
0.866157
0.853282
0.850937
0.840283
0.827256
0.818791
0.815657
0.818682
0.827704
0.836573
0.844143
0.847488
0.848272
0.848661
0.848612
0.846373
0.842194
0.8366
0.831016
0.82454
0.820883
0.817282
0.819709
0.819082
0.823011
0.828389
0.832344
0.83573
0.838511
0.840215
0.840553
0.860948
0.850507
0.836333
0.825081
0.826014
0.832447
0.838578
0.8415
0.843994
0.848918
0.852691
0.85621
0.852368
0.843899
0.844126
0.837862
0.828647
0.829347
0.829715
0.830417
0.834209
0.840727
0.846293
0.854148
0.856625
0.861939
0.867008
0.884199
0.913094
0.913057
0.866775
0.839988
0.834044
0.836571
0.83764
0.83614
0.83084
0.824956
0.817282
0.812349
0.798884
0.798097
0.796755
0.795099
0.793484
0.798526
0.800009
0.806365
0.810638
0.816659
0.818331
0.822861
0.827374
0.839293
0.847375
0.850322
0.846238
0.839471
0.834638
0.835157
0.834289
0.833073
0.834207
0.83267
0.832189
0.83147
0.829161
0.82297
0.821645
0.819796
0.81798
0.818392
0.816132
0.814177
0.823267
0.826454
0.835423
0.831293
0.837428
0.83539
0.831323
0.832213
0.835549
0.835302
0.837892
0.84006
0.841113
0.839286
0.835945
0.835758
0.830044
0.827163
0.823024
0.823316
0.824677
0.82871
0.830711
0.829512
0.829925
0.824367
0.823737
0.82503
0.822929
0.822612
0.82955
0.836024
0.83484
0.834407
0.834735
0.832228
0.825085
0.821851
0.820764
0.818981
0.814648
0.807806
0.80201
0.798281
0.799002
0.8038
0.806417
0.807503
0.808407
0.809215
0.812396
0.808875
0.806496
0.80965
0.807662
0.805681
0.805969
0.805886
0.80777
0.811922
0.815097
0.815
0.812846
0.809091
0.805382
0.806557
0.806123
0.805199
0.802726
0.796005
0.796211
0.791748
0.785503
0.787541
0.785083
0.781328
0.793039
0.786533
0.786255
0.787733
0.787875
0.78435
0.783113
0.778605
0.778172
0.779321
0.779286
0.781083
0.78961
0.79202
0.798626
0.804634
0.809196
0.809246
0.810142
0.811933
0.814352
0.816553
0.817522
0.818701
0.817741
0.816721
0.816087
0.816369
0.816508
0.81832
0.795674
0.819489
0.826948
0.810266
0.789792
0.767412
0.755463
0.753879
0.75103
0.749638
0.747655
0.746122
0.743497
0.744485
0.741633
0.74291
0.741951
0.744507
0.745333
0.752158
0.759043
0.766691
0.766334
0.766318
0.762484
0.757503
0.755968
0.754821
0.758626
0.747948
0.880332
0.870817
0.851972
0.838791
0.833101
0.831829
0.831252
0.827998
0.820809
0.813674
0.816406
0.824853
0.818727
0.799824
0.899733
0.897315
0.898074
0.892747
0.87558
0.853866
0.836576
0.827597
0.826028
0.827444
0.827894
0.834071
0.849075
0.871719
0.881097
0.875411
0.864117
0.856165
0.851996
0.844935
0.843164
0.841643
0.842786
0.847768
0.854411
0.85831
0.860454
0.858864
0.854143
0.863478
0.815685
0.807601
0.805088
0.80568
0.807318
0.805661
0.811013
0.814089
0.824151
0.827658
0.830964
0.835912
0.839701
0.837078
0.834057
0.831808
0.830976
0.829629
0.829943
0.828638
0.831825
0.832488
0.831855
0.834193
0.835436
0.840714
0.842105
0.843187
0.841531
0.841491
0.855916
0.852796
0.851429
0.847807
0.843276
0.840161
0.84337
0.845641
0.850274
0.853833
0.857083
0.853516
0.849397
0.848691
0.849374
0.849517
0.849605
0.848196
0.842926
0.845268
0.844927
0.84177
0.844757
0.843231
0.848934
0.851317
0.853757
0.853711
0.855076
0.855006
0.855314
0.856533
0.854585
0.850879
0.85329
0.854891
0.857223
0.856448
0.849702
0.847775
0.848464
0.835038
0.83696
0.832521
0.830882
0.830017
0.837728
0.840137
0.849681
0.847728
0.856962
0.85467
0.857722
0.857025
0.858653
0.860994
0.863919
0.872736
0.869911
0.866254
0.850728
0.849455
0.838425
0.825122
0.816778
0.815014
0.817772
0.827006
0.836834
0.842562
0.846148
0.846673
0.845803
0.844671
0.841264
0.834928
0.826788
0.818105
0.811224
0.806708
0.807023
0.805075
0.80975
0.812471
0.818214
0.826192
0.832024
0.836501
0.838714
0.838891
0.860677
0.847699
0.831572
0.822211
0.822395
0.82892
0.838862
0.842037
0.844213
0.850115
0.856043
0.854538
0.846886
0.843397
0.840331
0.826437
0.823728
0.823964
0.822524
0.823398
0.825615
0.834475
0.840516
0.848535
0.853165
0.860478
0.864452
0.876694
0.903722
0.91191
0.853329
0.829056
0.832934
0.835529
0.834851
0.830811
0.825364
0.819688
0.80941
0.80264
0.793592
0.791694
0.784246
0.780566
0.784085
0.787175
0.792664
0.800377
0.804154
0.813232
0.815778
0.821126
0.82354
0.833586
0.844399
0.850035
0.846841
0.838468
0.832633
0.833112
0.831172
0.830592
0.830798
0.832154
0.831703
0.828351
0.826107
0.821184
0.82355
0.816679
0.817531
0.81744
0.820874
0.820182
0.820439
0.818915
0.835685
0.831294
0.835751
0.83647
0.835746
0.832476
0.835073
0.837089
0.839346
0.840014
0.842329
0.841308
0.836652
0.835382
0.832093
0.827051
0.823541
0.822802
0.828273
0.830574
0.833093
0.828311
0.830018
0.824404
0.829813
0.827326
0.828424
0.827593
0.823008
0.827364
0.835405
0.834275
0.832313
0.831301
0.825934
0.820834
0.820389
0.818482
0.814427
0.805938
0.79841
0.796792
0.796858
0.801895
0.805075
0.805198
0.80822
0.806691
0.8063
0.807434
0.813109
0.809029
0.80432
0.807956
0.808598
0.809758
0.810039
0.812211
0.813617
0.815546
0.816114
0.811952
0.80819
0.807065
0.807329
0.806727
0.805634
0.798278
0.795487
0.794892
0.785636
0.784489
0.786361
0.780641
0.790422
0.784715
0.784582
0.784866
0.781774
0.778997
0.773552
0.771911
0.766968
0.766773
0.772026
0.770834
0.776728
0.784151
0.791883
0.797047
0.806909
0.809489
0.809829
0.811591
0.814832
0.816973
0.817456
0.820073
0.820523
0.818601
0.817071
0.817325
0.816145
0.817683
0.790146
0.815312
0.826425
0.80073
0.776887
0.760325
0.753778
0.752819
0.74874
0.749489
0.745526
0.744879
0.745006
0.740993
0.74295
0.740719
0.742552
0.740048
0.741929
0.744154
0.753206
0.765333
0.770482
0.768768
0.764047
0.761132
0.760708
0.758834
0.755439
0.743196
0.877612
0.857603
0.842009
0.835627
0.832887
0.833168
0.835411
0.835418
0.830591
0.818238
0.812639
0.820547
0.818658
0.800495
0.898127
0.895585
0.897552
0.897817
0.886931
0.866846
0.849479
0.839069
0.834844
0.832245
0.829816
0.835019
0.850247
0.875642
0.877837
0.865355
0.856817
0.849611
0.844226
0.840577
0.838245
0.837347
0.837925
0.840912
0.845956
0.854796
0.859251
0.858261
0.854077
0.861436
0.816626
0.808363
0.805957
0.806328
0.804438
0.806478
0.810375
0.818495
0.824477
0.831205
0.831661
0.838985
0.837675
0.833817
0.830123
0.828072
0.827052
0.82912
0.830197
0.832676
0.828079
0.830279
0.831198
0.835183
0.833584
0.839645
0.840971
0.843101
0.841502
0.841901
0.854949
0.851601
0.851343
0.846585
0.84152
0.842405
0.844464
0.847932
0.851444
0.854635
0.857323
0.852187
0.847779
0.84795
0.849875
0.850417
0.847884
0.845322
0.847058
0.846849
0.842193
0.845128
0.845076
0.848389
0.84325
0.847583
0.85047
0.853991
0.852931
0.853577
0.854094
0.856239
0.853376
0.852205
0.855015
0.856612
0.858191
0.854318
0.847124
0.850812
0.841984
0.834179
0.838232
0.834468
0.836014
0.834457
0.837151
0.832958
0.847078
0.845067
0.857507
0.853475
0.858701
0.857288
0.858445
0.85892
0.862757
0.870275
0.863711
0.861089
0.850875
0.849316
0.839663
0.826938
0.817795
0.815209
0.820826
0.832411
0.841275
0.843581
0.844822
0.84573
0.845057
0.841849
0.835462
0.827186
0.816698
0.809566
0.800359
0.796202
0.790413
0.794909
0.798555
0.807929
0.812214
0.819537
0.826732
0.832768
0.836697
0.837413
0.860046
0.846036
0.829965
0.820529
0.81827
0.826341
0.83957
0.84094
0.843421
0.852562
0.855822
0.851666
0.845437
0.843373
0.832119
0.820972
0.820802
0.813509
0.811031
0.817413
0.817775
0.82856
0.833943
0.844605
0.850442
0.858612
0.86256
0.872969
0.896848
0.909205
0.840541
0.829596
0.835509
0.835631
0.832801
0.828167
0.821718
0.8134
0.801613
0.798554
0.785575
0.780506
0.772411
0.772764
0.770586
0.776705
0.779697
0.793045
0.79751
0.810216
0.81186
0.820608
0.821688
0.829672
0.840859
0.847732
0.845823
0.836111
0.830308
0.830543
0.82841
0.828483
0.828977
0.829685
0.829196
0.824103
0.825396
0.821207
0.819562
0.812935
0.812987
0.811884
0.814833
0.813378
0.82748
0.816663
0.831282
0.830375
0.837459
0.835802
0.838284
0.836362
0.835709
0.837828
0.840917
0.84024
0.840737
0.841242
0.837037
0.833969
0.828238
0.823987
0.8199
0.826055
0.830963
0.834092
0.83193
0.830933
0.830406
0.824126
0.821902
0.816983
0.822125
0.828024
0.832387
0.825192
0.827181
0.832098
0.832384
0.830486
0.825096
0.820839
0.81848
0.818344
0.812201
0.800551
0.796035
0.794007
0.795269
0.800441
0.80489
0.804078
0.803495
0.806757
0.806893
0.807644
0.804866
0.803926
0.80868
0.806809
0.807149
0.809055
0.809344
0.811572
0.813565
0.815834
0.816787
0.814614
0.809383
0.80912
0.807998
0.806535
0.807886
0.801477
0.795688
0.796266
0.789529
0.782376
0.784438
0.780907
0.789909
0.78272
0.783499
0.78205
0.77813
0.772043
0.767533
0.762278
0.762079
0.758366
0.759748
0.766555
0.767045
0.772952
0.785443
0.791019
0.801195
0.808264
0.810706
0.811416
0.814322
0.816162
0.816559
0.819756
0.820329
0.819103
0.818773
0.818611
0.815985
0.817213
0.784833
0.805522
0.826787
0.795239
0.770224
0.75757
0.7536
0.751681
0.748412
0.74713
0.745413
0.74479
0.741463
0.74452
0.741041
0.74182
0.738036
0.740164
0.73954
0.74154
0.744427
0.759571
0.772225
0.771013
0.758397
0.749604
0.748419
0.751913
0.743722
0.735578
0.866277
0.847275
0.836485
0.828233
0.822566
0.821051
0.826002
0.833322
0.834326
0.824268
0.812744
0.816963
0.817745
0.800755
0.898179
0.895147
0.897108
0.89941
0.898724
0.886442
0.870237
0.861518
0.856094
0.844012
0.832686
0.836778
0.855107
0.876704
0.871291
0.85937
0.85152
0.844369
0.841463
0.83681
0.832771
0.83132
0.83208
0.833817
0.841619
0.849983
0.857815
0.858675
0.852976
0.860812
0.817309
0.811982
0.808323
0.804984
0.804775
0.810048
0.812949
0.822549
0.828058
0.833106
0.83505
0.840277
0.835342
0.830157
0.828285
0.828618
0.831333
0.831061
0.830441
0.827807
0.831673
0.830634
0.829364
0.83392
0.832581
0.840426
0.839184
0.84308
0.842155
0.841538
0.853977
0.851748
0.851833
0.845962
0.843394
0.842577
0.844494
0.846455
0.849531
0.855547
0.857534
0.850543
0.846615
0.849139
0.851293
0.848696
0.848674
0.841772
0.84531
0.83602
0.836246
0.834613
0.837521
0.843386
0.848024
0.845623
0.850437
0.849923
0.851786
0.850527
0.853834
0.854527
0.851237
0.854825
0.856276
0.857594
0.858196
0.851686
0.84755
0.851547
0.839105
0.83524
0.836738
0.828341
0.825243
0.825866
0.83629
0.834041
0.846964
0.840911
0.858748
0.852861
0.86039
0.857083
0.858241
0.859476
0.861434
0.868921
0.861457
0.858322
0.847611
0.848367
0.843
0.833961
0.82636
0.826554
0.831017
0.838395
0.842177
0.844465
0.843316
0.841529
0.841375
0.838092
0.829208
0.820747
0.809841
0.802163
0.787603
0.786088
0.783299
0.783487
0.788318
0.796621
0.80662
0.814846
0.82356
0.829801
0.834228
0.836295
0.860855
0.846217
0.830845
0.819494
0.817489
0.824304
0.839309
0.840412
0.8441
0.852439
0.8563
0.851103
0.846253
0.842179
0.826785
0.822886
0.817556
0.807153
0.808108
0.810472
0.813566
0.82381
0.829021
0.842803
0.848357
0.857215
0.86157
0.871278
0.893899
0.905458
0.828771
0.827345
0.829753
0.830625
0.829267
0.826486
0.815651
0.811619
0.796971
0.793151
0.776419
0.778359
0.771424
0.771535
0.772122
0.776656
0.77652
0.789098
0.790999
0.806843
0.8092
0.81972
0.820822
0.827644
0.837595
0.84594
0.842904
0.832925
0.82731
0.828842
0.82785
0.826298
0.828622
0.827654
0.824271
0.823712
0.823116
0.814859
0.818184
0.815128
0.818768
0.812474
0.818069
0.80952
0.823994
0.817854
0.833025
0.827253
0.840303
0.837205
0.839347
0.838095
0.839606
0.838738
0.838758
0.839215
0.839013
0.839202
0.836344
0.833425
0.829279
0.8211
0.823599
0.828796
0.834655
0.832638
0.835028
0.827638
0.833654
0.817681
0.826127
0.817787
0.817678
0.815807
0.824522
0.828617
0.826219
0.829808
0.829679
0.828365
0.825016
0.818951
0.817624
0.817138
0.80797
0.797696
0.792542
0.792553
0.795076
0.797965
0.79989
0.802414
0.80224
0.806598
0.803012
0.800714
0.806665
0.806898
0.807533
0.808034
0.809297
0.810879
0.812006
0.810351
0.813301
0.814317
0.81743
0.815216
0.809257
0.809285
0.808987
0.805801
0.804996
0.804057
0.797367
0.794367
0.794991
0.787446
0.782869
0.78253
0.788806
0.781929
0.780372
0.778643
0.772206
0.766858
0.760724
0.757599
0.753981
0.755036
0.753057
0.758945
0.762609
0.766379
0.776452
0.788222
0.795991
0.805428
0.811603
0.811865
0.813641
0.816319
0.817663
0.818828
0.8199
0.821209
0.82006
0.818295
0.817003
0.819517
0.782449
0.789482
0.828004
0.796738
0.768931
0.756832
0.752937
0.752203
0.746991
0.747855
0.744885
0.745108
0.742515
0.741605
0.741704
0.738701
0.740219
0.738043
0.739736
0.73983
0.741178
0.748676
0.771992
0.779784
0.765431
0.7439
0.736441
0.736474
0.736901
0.735431
0.857267
0.842115
0.829473
0.814685
0.805375
0.804196
0.809729
0.820185
0.828073
0.822844
0.811983
0.816553
0.816269
0.799082
0.894925
0.892634
0.897053
0.899961
0.902049
0.90225
0.895613
0.8862
0.876817
0.859275
0.838533
0.837072
0.855728
0.875088
0.867289
0.853307
0.84573
0.844875
0.837274
0.831047
0.823517
0.824134
0.826809
0.830992
0.839651
0.847441
0.856648
0.857629
0.853381
0.860121
0.821934
0.814676
0.809305
0.80769
0.810338
0.813907
0.818662
0.829196
0.831888
0.835191
0.841506
0.840206
0.83176
0.829225
0.827176
0.829497
0.830705
0.83112
0.830233
0.831253
0.827817
0.830804
0.829427
0.833928
0.832232
0.839454
0.839639
0.844111
0.841785
0.841948
0.856118
0.852976
0.851647
0.851866
0.849785
0.848593
0.85169
0.853638
0.853507
0.857454
0.856004
0.850206
0.847279
0.850869
0.852047
0.849485
0.848429
0.841503
0.842085
0.84214
0.840385
0.843501
0.838512
0.842959
0.839617
0.847046
0.846072
0.851632
0.848898
0.85052
0.852949
0.854118
0.853205
0.856912
0.857214
0.858462
0.856599
0.851443
0.848212
0.849424
0.839742
0.831275
0.83574
0.825618
0.827946
0.822658
0.835789
0.829046
0.848051
0.840081
0.857984
0.853405
0.861578
0.856338
0.858583
0.860227
0.863865
0.862395
0.85508
0.85312
0.847483
0.848552
0.845191
0.839984
0.836594
0.836258
0.839007
0.841922
0.842632
0.843385
0.843616
0.842376
0.841018
0.83497
0.825934
0.81803
0.805913
0.799083
0.784132
0.784714
0.777511
0.78114
0.783781
0.792508
0.801688
0.812182
0.820951
0.828837
0.83332
0.834422
0.860721
0.848963
0.833001
0.820948
0.816726
0.825739
0.839801
0.841313
0.844139
0.854599
0.855703
0.853855
0.846565
0.841985
0.827721
0.82473
0.816622
0.808861
0.808248
0.81027
0.814318
0.819837
0.829679
0.841375
0.846967
0.858131
0.861505
0.87141
0.893011
0.902013
0.827994
0.828288
0.829869
0.830426
0.829909
0.822275
0.816604
0.807106
0.794139
0.790017
0.777046
0.775349
0.764672
0.764757
0.762125
0.773152
0.770603
0.787239
0.788182
0.805594
0.806851
0.818246
0.820231
0.826565
0.835827
0.843348
0.838498
0.826939
0.824637
0.824115
0.827164
0.825424
0.824646
0.823174
0.823201
0.818445
0.819493
0.813361
0.816
0.813397
0.809782
0.809848
0.817902
0.81156
0.823095
0.81396
0.834391
0.827177
0.838184
0.839582
0.841582
0.839629
0.840202
0.839756
0.835827
0.834613
0.837651
0.837988
0.83386
0.831815
0.827438
0.818316
0.824078
0.832618
0.834197
0.835324
0.833248
0.831742
0.82869
0.821557
0.82374
0.817482
0.820201
0.817551
0.818318
0.825037
0.824654
0.824809
0.831183
0.825536
0.823024
0.818928
0.816856
0.814405
0.803829
0.793591
0.792061
0.793512
0.795147
0.797193
0.788984
0.797453
0.804019
0.804249
0.800723
0.806287
0.812263
0.805497
0.811602
0.817121
0.814577
0.814719
0.812824
0.810951
0.811847
0.814865
0.817917
0.81357
0.808584
0.808339
0.808562
0.80498
0.800246
0.801569
0.796103
0.791022
0.792686
0.790684
0.784388
0.78396
0.790778
0.782282
0.780022
0.776399
0.771909
0.764327
0.759412
0.752606
0.749739
0.751685
0.747934
0.75861
0.754491
0.767989
0.769787
0.785869
0.790688
0.803752
0.811064
0.812366
0.813074
0.817113
0.81751
0.817208
0.819599
0.821106
0.820589
0.820372
0.819752
0.82144
0.789955
0.778168
0.808546
0.807207
0.773076
0.756916
0.752632
0.752355
0.745492
0.749806
0.742538
0.7465
0.742065
0.746039
0.741198
0.741128
0.737201
0.7382
0.73854
0.739718
0.740909
0.742819
0.765686
0.787377
0.785202
0.758143
0.740449
0.740433
0.745281
0.758602
0.852508
0.836218
0.816466
0.799972
0.796438
0.799564
0.803109
0.809564
0.818399
0.816802
0.811109
0.815837
0.814889
0.80019
0.815483
0.849718
0.889678
0.891549
0.892417
0.898117
0.903186
0.908212
0.910154
0.905817
0.892096
0.867321
0.843548
0.840123
0.85715
0.8754
0.862777
0.848122
0.846047
0.845108
0.83197
0.825492
0.818384
0.820226
0.824583
0.829401
0.837797
0.848877
0.855554
0.856255
0.852518
0.861153
0.861787
0.844267
0.825251
0.817429
0.814537
0.81552
0.815754
0.821047
0.828501
0.833456
0.837062
0.84211
0.845714
0.838121
0.831377
0.828123
0.828317
0.831114
0.832312
0.830406
0.829351
0.827211
0.827431
0.830054
0.828257
0.834628
0.832071
0.840106
0.840876
0.842348
0.842065
0.845276
0.850007
0.849008
0.857998
0.850895
0.854881
0.85388
0.850013
0.851907
0.853239
0.851977
0.855543
0.859592
0.857805
0.850463
0.849384
0.852468
0.853411
0.849355
0.848254
0.842796
0.841589
0.842181
0.832702
0.83299
0.838003
0.840266
0.843678
0.841416
0.847526
0.845734
0.848869
0.848134
0.839705
0.833325
0.849536
0.850352
0.854393
0.855944
0.856556
0.857336
0.855638
0.851947
0.849287
0.847939
0.84058
0.832554
0.83585
0.825207
0.826813
0.822083
0.836423
0.82853
0.847458
0.842298
0.856275
0.85457
0.860825
0.857064
0.859768
0.860723
0.863218
0.854248
0.849577
0.847541
0.845661
0.843448
0.848667
0.849756
0.847223
0.84556
0.842245
0.843576
0.842558
0.843494
0.84326
0.842996
0.840977
0.840707
0.839307
0.833625
0.826036
0.816927
0.80477
0.800456
0.78494
0.784942
0.779233
0.781935
0.784639
0.793634
0.799859
0.81206
0.820056
0.827632
0.832941
0.835161
0.839274
0.854836
0.862518
0.848809
0.836601
0.824308
0.819199
0.825482
0.839656
0.84111
0.841991
0.853114
0.858946
0.856307
0.849633
0.844457
0.835386
0.823704
0.814836
0.812658
0.808329
0.814611
0.813112
0.82161
0.833078
0.840592
0.849165
0.858851
0.862612
0.872564
0.8931
0.896949
0.839335
0.819471
0.820407
0.819454
0.820877
0.825733
0.825271
0.824529
0.813525
0.810945
0.791657
0.793159
0.772651
0.776468
0.762807
0.766546
0.762653
0.771887
0.770139
0.785612
0.786825
0.804452
0.807592
0.817196
0.820632
0.827282
0.836073
0.842126
0.830864
0.824699
0.823857
0.821176
0.818907
0.820676
0.821171
0.819477
0.819174
0.821356
0.816263
0.818227
0.815823
0.812601
0.808282
0.812668
0.81007
0.806542
0.814975
0.806993
0.82467
0.811973
0.833827
0.829638
0.83699
0.838322
0.843046
0.841471
0.839274
0.836099
0.831853
0.829429
0.832292
0.834525
0.830141
0.831441
0.825842
0.825615
0.819837
0.816676
0.826142
0.833117
0.835698
0.835325
0.837816
0.828719
0.834923
0.819257
0.828319
0.814492