/*--------------------------------*- C++ -*----------------------------------*\
| =========                 |                                                 |
| \\      /  F ield         | OpenFOAM: The Open Source CFD Toolbox           |
|  \\    /   O peration     | Version:  2.1.1                                 |
|   \\  /    A nd           | Web:      www.OpenFOAM.org                      |
|    \\/     M anipulation  |                                                 |
\*---------------------------------------------------------------------------*/
FoamFile
{
    version     2.0;
    format      ascii;
    class       volScalarField;
    location    "0.001550000";
    object      H2;
}
// * * * * * * * * * * * * * * * * * * * * * * * * * * * * * * * * * * * * * //

dimensions      [0 0 0 0 0 0 0];

internalField   nonuniform List<scalar> 
12384
(
0.000231002
0.00036377
0.0207893
0.0248992
0.0258371
0.0258204
0.0254593
0.0250508
0.0261978
0.0272998
0.0283877
0.0290744
0.029175
0.0289154
0.0242231
0.0231968
0.0205574
0.0201041
0.0196935
0.0195668
0.0194094
0.0193573
0.0192985
0.0191465
0.0189924
0.0188664
0.0189349
0.0193893
0.0199862
0.0208184
0.0215338
0.0230279
0.0247367
0.0262439
0.0273622
0.0281254
0.0287996
0.029018
0.0292028
0.0291533
0.0291703
0.029122
0.0290965
0.0290928
0.0272163
0.0262095
0.0253559
0.0246015
0.0238778
0.0233669
0.0232056
0.0233438
0.0238313
0.0246051
0.0253991
0.0261954
0.0268871
0.0274645
0.027987
0.0283587
0.0286385
0.0288383
0.0289702
0.0290507
0.0290612
0.0290797
0.0290745
0.0290969
0.0290722
0.0290687
0.0290836
0.0290749
0.0290872
0.02908
0.0287674
0.028694
0.0287388
0.0288146
0.0288816
0.0289522
0.0290068
0.0290448
0.0290646
0.0290614
0.0290708
0.0290562
0.0290734
0.0290501
0.0290757
0.0290452
0.0290724
0.0290509
0.0290684
0.0290559
0.0290664
0.0290591
0.029065
0.0290617
0.0290642
0.0290636
0.0290634
0.0290643
0.029063
0.029077
0.0290763
0.0290613
0.0290594
0.0290599
0.0290587
0.0290588
0.0290577
0.0290568
0.0290563
0.0290546
0.0290544
0.0290522
0.0290503
0.0290478
0.0290468
0.0290466
0.0290465
0.0290484
0.029049
0.0290505
0.0290505
0.0290515
0.0290517
0.0290525
0.029053
0.0290533
0.0290532
0.0290537
0.0290542
0.0290766
0.0290767
0.029054
0.029053
0.029052
0.0290512
0.0290503
0.0290495
0.0290486
0.0290476
0.0290466
0.0290456
0.0290443
0.0290421
0.0290406
0.0290393
0.0290395
0.0290407
0.0290424
0.0290441
0.0290453
0.0290464
0.0290473
0.0290482
0.0290491
0.02905
0.0290508
0.0290515
0.0290524
0.0290535
0.0290766
0.0290767
0.0290537
0.0290525
0.0290514
0.0290513
0.0290505
0.0290496
0.0290485
0.0290476
0.0290465
0.0290455
0.0290443
0.0290424
0.029041
0.0290397
0.0290394
0.0290403
0.0290422
0.0290445
0.0290459
0.0290471
0.0290482
0.029049
0.0290498
0.0290506
0.0290513
0.0290519
0.0290528
0.0290537
0.0290767
0.0290767
0.029054
0.0290528
0.0290517
0.0290508
0.0290499
0.029049
0.029048
0.0290472
0.0290463
0.0290454
0.0290441
0.0290423
0.0290407
0.0290393
0.0290393
0.0290406
0.0290423
0.0290441
0.0290453
0.0290464
0.0290473
0.0290481
0.0290491
0.0290499
0.0290507
0.0290515
0.0290525
0.0290536
0.0290766
0.0290766
0.0290538
0.0290529
0.0290517
0.0290509
0.02905
0.0290492
0.0290483
0.0290475
0.0290466
0.0290457
0.0290444
0.0290424
0.0290406
0.0290393
0.0290394
0.0290406
0.0290423
0.0290441
0.0290453
0.0290464
0.0290473
0.0290482
0.0290491
0.02905
0.0290508
0.0290515
0.0290525
0.0290536
0.0290766
0.0290766
0.0290542
0.0290529
0.0290516
0.0290507
0.0290498
0.0290488
0.029048
0.0290471
0.0290463
0.0290454
0.0290443
0.0290426
0.029041
0.0290397
0.0290392
0.0290403
0.0290422
0.0290445
0.0290458
0.0290466
0.0290477
0.0290487
0.0290496
0.0290503
0.0290512
0.029052
0.0290532
0.0290541
0.0290767
0.0290766
0.0290537
0.0290527
0.0290516
0.0290508
0.0290499
0.0290491
0.0290481
0.0290474
0.0290464
0.0290456
0.0290444
0.0290424
0.0290408
0.0290394
0.0290393
0.0290404
0.0290422
0.029044
0.0290453
0.0290464
0.0290473
0.0290482
0.0290492
0.0290501
0.0290508
0.0290515
0.0290524
0.0290535
0.0290766
0.0290767
0.0290536
0.0290525
0.0290519
0.0290512
0.0290505
0.0290495
0.0290484
0.0290475
0.0290464
0.0290454
0.029044
0.0290422
0.0290406
0.0290393
0.0290393
0.0290405
0.0290422
0.0290441
0.0290454
0.0290464
0.0290474
0.0290482
0.0290492
0.0290501
0.0290508
0.0290516
0.0290526
0.0290537
0.0290767
0.0290766
0.0290536
0.0290526
0.0290513
0.0290505
0.0290496
0.029049
0.0290481
0.0290475
0.0290466
0.0290459
0.0290446
0.0290429
0.029041
0.0290395
0.0290392
0.0290404
0.0290422
0.0290439
0.0290452
0.0290463
0.0290474
0.0290483
0.0290492
0.0290502
0.0290509
0.0290516
0.0290523
0.0290534
0.0290766
9.18239e-05
0.000122179
9.29603e-05
0.0150963
0.0173753
0.0160044
0.0151407
0.0140694
0.0153088
0.0162568
0.0203755
0.0224458
0.0260843
0.0271043
0.0189317
0.0144312
0.0144866
0.0157039
0.016787
0.0173918
0.0178104
0.0180346
0.0180565
0.017701
0.01712
0.0165135
0.0155905
0.0142691
0.0129362
0.0119103
0.0113636
0.0117824
0.0123064
0.0134932
0.0152102
0.0167512
0.0193144
0.022506
0.0252007
0.027082
0.0283675
0.0290053
0.029297
0.0292581
0.0164644
0.0138463
0.0124784
0.0123257
0.0122824
0.0121497
0.0120283
0.0119407
0.0118103
0.0119766
0.0123388
0.0130353
0.01394
0.0148734
0.015917
0.017006
0.0181408
0.019257
0.0203903
0.0217317
0.0230702
0.0245381
0.0260607
0.0272114
0.0278896
0.0281973
0.0284186
0.0284822
0.0285834
0.0287491
0.0186964
0.018356
0.0186733
0.0191427
0.0196329
0.0203318
0.0210014
0.0218321
0.0225081
0.0233163
0.0238708
0.0245229
0.0249454
0.025394
0.0257368
0.0260179
0.0263482
0.0265666
0.0268791
0.0270454
0.0272603
0.0273899
0.0275297
0.0276445
0.0277378
0.0278284
0.0278774
0.027905
0.0279435
0.0285473
0.0275715
0.0269621
0.0269836
0.0270378
0.0271337
0.0271996
0.0272491
0.0272973
0.0273267
0.0273541
0.0273653
0.0273757
0.0273366
0.0273061
0.0272941
0.0272978
0.0273438
0.0273888
0.0274476
0.0274649
0.0274954
0.0275059
0.0275329
0.0275477
0.0275741
0.0275889
0.0275794
0.0276069
0.0276057
0.0285101
0.0285055
0.027584
0.027566
0.0275303
0.0275258
0.0274869
0.0274784
0.0274376
0.0274293
0.027384
0.0273683
0.0273209
0.0272784
0.0272316
0.0271976
0.0272117
0.0272309
0.0272883
0.0273165
0.0273578
0.0273699
0.0274132
0.0274221
0.0274631
0.0274755
0.0275129
0.0275261
0.0275452
0.0275852
0.0284851
0.0285095
0.0275763
0.0275588
0.0275246
0.0275166
0.0274979
0.0274557
0.0274429
0.0274004
0.0273878
0.0273443
0.0273317
0.0272774
0.0272463
0.0272068
0.0272091
0.0272182
0.0272816
0.0273232
0.0273763
0.0273969
0.0274432
0.0274506
0.0274886
0.0274962
0.0275324
0.0275354
0.0275668
0.0275838
0.0285077
0.0285095
0.0275723
0.0275413
0.0275273
0.0274917
0.0274833
0.0274413
0.0274328
0.0273934
0.0273847
0.0273437
0.0273313
0.0272743
0.0272395
0.0271984
0.0272082
0.0272257
0.0272848
0.0273157
0.0273581
0.02737
0.0274129
0.0274214
0.0274621
0.0274739
0.0275112
0.0275243
0.0275451
0.0275842
0.0284849
0.0284885
0.0275959
0.0275508
0.0275402
0.0275035
0.0274953
0.0274549
0.0274471
0.0274081
0.0273989
0.0273566
0.0273396
0.0272796
0.0272399
0.0271987
0.0272093
0.0272263
0.0272836
0.0273143
0.0273568
0.0273692
0.0274126
0.0274216
0.0274627
0.0274748
0.0275118
0.0275252
0.0275454
0.0275847
0.0284845
0.0284833
0.0275842
0.0275512
0.0275152
0.0275057
0.0274672
0.0274572
0.0274179
0.0274113
0.0273718
0.0273627
0.0273223
0.0272959
0.0272373
0.027218
0.0271967
0.0272288
0.0272689
0.0273371
0.02737
0.0273898
0.0274341
0.0274459
0.0274853
0.0274933
0.0275302
0.0275336
0.0275676
0.0275824
0.0285093
0.0284833
0.027591
0.0275463
0.0275353
0.0274991
0.0274911
0.0274509
0.0274426
0.0274038
0.0273954
0.0273539
0.0273386
0.0272814
0.0272434
0.0272005
0.0272074
0.027223
0.0272804
0.027313
0.0273562
0.0273692
0.0274132
0.0274228
0.0274641
0.0274765
0.0275138
0.0275275
0.0275457
0.0275855
0.0284851
0.0285094
0.0275739
0.0275522
0.0275365
0.0275043
0.0274941
0.0274509
0.02744
0.0273978
0.0273862
0.0273422
0.0273279
0.0272717
0.0272383
0.0272006
0.0272009
0.0272356
0.0272728
0.0273303
0.0273453
0.0273881
0.0273988
0.0274396
0.027449
0.0274907
0.027499
0.0275336
0.0275477
0.027573
0.0285092
0.0284856
0.0275887
0.027541
0.0275299
0.0274908
0.0274838
0.0274421
0.027436
0.0273964
0.0273921
0.0273509
0.027339
0.0272854
0.0272508
0.0272045
0.0272067
0.0272212
0.0272771
0.0273107
0.0273532
0.0273659
0.0274104
0.0274199
0.0274626
0.0274741
0.0275125
0.0275275
0.0275448
0.0275857
0.0284851
2.74478e-06
4.81718e-06
2.61592e-06
0.00730946
0.00870621
0.00801943
0.00825388
0.00897341
0.00970716
0.0100359
0.0105524
0.0114532
0.0157709
0.018763
0.011221
0.0142022
0.0185044
0.0214211
0.0227048
0.0229677
0.0238696
0.0243729
0.0244286
0.0238786
0.0242149
0.0246731
0.0248042
0.0237451
0.0213566
0.0184765
0.0148404
0.0113275
0.00962309
0.00879963
0.00846764
0.00850608
0.00878841
0.00948205
0.011775
0.0152235
0.019589
0.0241741
0.0270318
0.0279727
0.00920613
0.00962212
0.0108544
0.0123094
0.0142032
0.0153855
0.0152597
0.0140331
0.0124176
0.0109866
0.0100391
0.00941971
0.00896537
0.00869681
0.00853339
0.00838062
0.00834454
0.00829392
0.00826912
0.00824048
0.00823275
0.00834884
0.00852374
0.00900553
0.0100293
0.0112164
0.012877
0.014365
0.0153325
0.0161413
0.00805806
0.00824563
0.00832533
0.0083685
0.00833955
0.00835265
0.00832163
0.00838221
0.00833261
0.00843502
0.00837167
0.00847546
0.00841329
0.00852663
0.00849548
0.00857553
0.00852668
0.00853712
0.00850032
0.00850457
0.00851726
0.00851498
0.00855131
0.00855857
0.00860773
0.00864482
0.00871749
0.00878313
0.00883859
0.00834263
0.00785627
0.00844555
0.00850955
0.00851337
0.00853915
0.00854538
0.0085729
0.00859556
0.00861474
0.00864265
0.00865688
0.0086906
0.00873583
0.00878517
0.00880612
0.00881464
0.00879982
0.00876142
0.00873161
0.00871518
0.00870466
0.00869599
0.00868367
0.00867295
0.00865585
0.00865172
0.00865106
0.00864273
0.0086295
0.00787554
0.00787615
0.00864085
0.0086709
0.00869034
0.00870197
0.0087193
0.00873429
0.00875292
0.00876845
0.00879099
0.00881186
0.0088381
0.00888108
0.00891527
0.00893678
0.00893475
0.00891025
0.00887357
0.00884084
0.00881931
0.0088007
0.0087795
0.00876379
0.00874557
0.00872774
0.00871025
0.00869492
0.00868026
0.00865515
0.0078767
0.00787666
0.00865242
0.00867757
0.00869829
0.00870081
0.00871949
0.0087422
0.00875985
0.00877981
0.00879843
0.00881979
0.00883927
0.00887243
0.0089068
0.00892998
0.00893716
0.00892126
0.00888042
0.00883818
0.00880798
0.00878346
0.00875906
0.00874448
0.00872789
0.0087139
0.00869846
0.0086887
0.00867103
0.00864211
0.00787616
0.00787763
0.00865599
0.0086808
0.00870101
0.00871817
0.00873233
0.0087519
0.00876631
0.00878361
0.00879954
0.00881914
0.00883914
0.00887496
0.00891233
0.00893664
0.00893737
0.00891406
0.00887609
0.0088408
0.0088186
0.00880011
0.00877947
0.00876394
0.00874596
0.00872856
0.00871178
0.00869612
0.00868034
0.00865572
0.00787672
0.00787677
0.00864501
0.00867528
0.00869382
0.00870887
0.00872347
0.00874098
0.00875578
0.00877246
0.00878932
0.00880967
0.00883333
0.00887161
0.00891261
0.00893668
0.00893676
0.00891377
0.00887717
0.00884214
0.00881982
0.00880084
0.00877978
0.00876389
0.00874553
0.00872785
0.00871101
0.0086955
0.00868017
0.00865563
0.00787672
0.00787631
0.00865327
0.00868166
0.00870346
0.0087171
0.00873403
0.00874981
0.00876653
0.00878054
0.00879835
0.00881508
0.00883596
0.00886741
0.00890492
0.00892984
0.00893866
0.0089225
0.00888194
0.00883417
0.00880425
0.00879066
0.00876511
0.00874807
0.00873043
0.00871605
0.00869991
0.00868921
0.00867134
0.00864398
0.00787628
0.00787697
0.00865094
0.00867906
0.00869709
0.00871171
0.00872616
0.00874369
0.00875897
0.00877544
0.00879154
0.00881138
0.0088337
0.00886968
0.00890945
0.00893507
0.00893818
0.00891644
0.00887978
0.0088433
0.00882053
0.00880117
0.00877952
0.00876329
0.00874482
0.00872688
0.00870929
0.00869348
0.0086796
0.0086548
0.00787667
0.00787691
0.00865517
0.00867984
0.00869018
0.00870856
0.00872446
0.00874554
0.00876183
0.00878123
0.00879918
0.00882056
0.00884187
0.00887634
0.00891235
0.00893807
0.00893753
0.00891411
0.00887579
0.00884006
0.00881835
0.00879759
0.00878027
0.0087617
0.00874655
0.00872691
0.00871318
0.00869568
0.00868088
0.00865666
0.00787723
0.00787707
0.00865229
0.00868275
0.00870135
0.00871728
0.00873149
0.00874894
0.00876361
0.00877949
0.00879384
0.00881225
0.00883333
0.0088652
0.00890388
0.00893146
0.00893979
0.00891861
0.0088825
0.0088454
0.00882336
0.0088036
0.00878197
0.0087651
0.00874599
0.00872835
0.00871028
0.00869383
0.00868092
0.00865611
0.00787673
5.79498e-08
1.15433e-07
4.40239e-08
1.38e-05
1.92522e-05
1.1675e-05
1.4111e-08
3.49841e-08
0.00885373
0.0101254
0.0101626
0.00954929
0.0098523
0.0113033
0.0119468
0.0197098
0.0263577
0.0239215
0.00674095
0.00782453
0.010687
0.0132248
0.0132918
0.0132354
0.0139203
0.0132553
0.0124511
0.0103068
0.0319697
0.0336691
0.0290917
0.0230769
0.0169661
0.0133609
0.0116467
0.0106036
0.00971484
0.00914004
0.00887336
0.00918608
0.0107408
0.0156575
0.0201616
0.0234729
0.0104669
0.0151262
0.0210015
0.0268166
0.0307168
0.0327396
0.0334499
0.0319422
0.0275466
0.0224401
0.0183046
0.0155171
0.0137363
0.0125564
0.0116436
0.0109852
0.0104941
0.0100942
0.00979388
0.00949426
0.00926905
0.00902326
0.00880063
0.00869416
0.0085784
0.00855986
0.00858509
0.00859553
0.00883779
0.00886751
0.0104621
0.0108784
0.0106722
0.0103624
0.0101375
0.0098687
0.00967639
0.00944385
0.00930566
0.00913294
0.00905782
0.00894524
0.00889826
0.00883711
0.00878352
0.0087677
0.00870882
0.00872143
0.00866007
0.00868507
0.00863336
0.00864161
0.00862048
0.00861129
0.00859599
0.00859695
0.0085798
0.00859098
0.0085612
0.00845917
0.00861305
0.00868025
0.00867091
0.00866875
0.00865214
0.0086472
0.00863726
0.00863258
0.00862749
0.00862301
0.00862274
0.00861746
0.00861989
0.00861663
0.0086187
0.00861553
0.00861746
0.00861391
0.00861564
0.00861342
0.0086154
0.00861313
0.00861618
0.00861324
0.0086168
0.00861496
0.00861652
0.00861738
0.00861139
0.00847984
0.00847959
0.00861407
0.00862242
0.00862122
0.00862366
0.00862179
0.00862448
0.00862257
0.0086254
0.00862359
0.00862651
0.00862474
0.00862741
0.00862821
0.00862753
0.00862958
0.0086266
0.00862774
0.00862466
0.00862635
0.00862362
0.00862537
0.00862279
0.00862445
0.00862195
0.00862332
0.00862115
0.00862041
0.00861322
0.00848098
0.00847887
0.00861338
0.0086225
0.00862123
0.00862186
0.0086237
0.00862216
0.00862492
0.00862309
0.00862588
0.00862406
0.00862686
0.00862544
0.00862861
0.00862719
0.00862955
0.00862693
0.00862794
0.00862472
0.00862627
0.00862349
0.00862512
0.00862241
0.00862421
0.00862153
0.00862346
0.00862079
0.00862233
0.00861381
0.008479
0.00847903
0.00861394
0.00862046
0.00862287
0.00862151
0.00862415
0.00862232
0.00862506
0.00862314
0.00862594
0.00862411
0.0086269
0.00862556
0.0086288
0.00862749
0.00862959
0.00862672
0.00862775
0.00862469
0.00862634
0.00862365
0.00862538
0.00862281
0.00862446
0.00862198
0.0086234
0.00862111
0.00862057
0.00861319
0.00848107
0.0084808
0.00861374
0.00862001
0.00862301
0.00862145
0.008624
0.00862227
0.00862489
0.00862306
0.00862574
0.008624
0.00862676
0.00862552
0.00862879
0.00862752
0.00862955
0.00862671
0.00862777
0.00862472
0.00862635
0.00862365
0.00862538
0.0086228
0.00862445
0.00862196
0.00862337
0.00862114
0.00862056
0.00861313
0.00848109
0.00848141
0.00861328
0.00862202
0.008621
0.00862372
0.00862193
0.00862458
0.00862273
0.00862541
0.00862354
0.0086263
0.00862455
0.00862757
0.00862642
0.00862931
0.00862754
0.00862899
0.00862581
0.00862648
0.00862439
0.00862354
0.00862516
0.00862249
0.00862425
0.00862158
0.00862346
0.00862078
0.00862233
0.00861368
0.00847908
0.00848121
0.00861351
0.00862006
0.00862312
0.00862154
0.00862408
0.00862235
0.00862494
0.00862313
0.00862577
0.00862403
0.00862675
0.00862547
0.00862869
0.00862746
0.00862959
0.00862679
0.00862783
0.00862475
0.00862636
0.00862368
0.00862536
0.00862281
0.00862442
0.00862195
0.00862327
0.00862118
0.0086204
0.00861324
0.00848097
0.00847911
0.00861352
0.00862237
0.00862259
0.00862144
0.0086241
0.00862224
0.00862501
0.00862311
0.00862589
0.00862408
0.00862687
0.00862554
0.00862871
0.00862762
0.00862764
0.00862875
0.00862554
0.00862682
0.00862405
0.00862589
0.0086231
0.00862505
0.00862228
0.00862419
0.00862148
0.00862301
0.00862176
0.00861369
0.00847915
0.00848109
0.00861368
0.00862011
0.00862317
0.00862149
0.0086242
0.00862232
0.00862508
0.00862306
0.00862592
0.00862389
0.00862683
0.00862528
0.00862864
0.00862726
0.00862968
0.00862692
0.00862802
0.00862491
0.00862664
0.00862392
0.00862572
0.00862303
0.00862477
0.00862217
0.0086235
0.00862136
0.00862056
0.00861319
0.00848097
6.35586e-07
1.07869e-06
1.59344e-06
3.34579e-05
7.08628e-05
3.00906e-05
1.01507e-05
8.73106e-06
4.41402e-06
7.65261e-07
0.0101088
0.0120586
0.0102822
0.00883239
0.0154335
0.0265452
0.0254334
0.0194117
0.00569485
0.00296744
0.00360752
0.00513836
0.0082548
0.011816
0.015093
0.0190489
0.0222145
0.0234087
0.0231405
0.0189607
0.0389768
0.0354473
0.0278876
0.0214662
0.0171173
0.0147138
0.0130184
0.0116158
0.0102906
0.00946105
0.00905238
0.0101459
0.0129616
0.017473
0.0144242
0.0235092
0.0315497
0.0352657
0.0360411
0.0375863
0.0403678
0.0430734
0.0440152
0.0395093
0.0319674
0.0255135
0.0211523
0.0184738
0.0167876
0.0154802
0.0145178
0.0138212
0.0132207
0.012715
0.0123007
0.0118399
0.0115088
0.0110956
0.0106717
0.0102235
0.00978383
0.00944328
0.00917588
0.00899687
0.0146135
0.0162612
0.0158189
0.0149899
0.0142022
0.0136185
0.0130746
0.0126869
0.0123242
0.0120997
0.0118328
0.0117324
0.011535
0.0114874
0.0113476
0.0113179
0.0112175
0.0111915
0.0111247
0.0111024
0.0110586
0.0110307
0.0110028
0.0109716
0.0109382
0.0109037
0.0108483
0.0108154
0.0107618
0.010736
0.0111067
0.0111123
0.0110868
0.0110577
0.0110392
0.0110131
0.0110014
0.0109819
0.0109735
0.010961
0.0109536
0.0109481
0.0109398
0.0109403
0.0109298
0.010936
0.0109222
0.0109309
0.0109179
0.010927
0.010916
0.0109236
0.0109159
0.0109212
0.0109159
0.0109165
0.0109197
0.0109147
0.0109176
0.0109029
0.0109024
0.0109172
0.0109142
0.0109193
0.0109139
0.0109191
0.0109136
0.0109192
0.0109133
0.0109192
0.0109136
0.010919
0.010915
0.0109153
0.0109191
0.0109142
0.0109193
0.0109139
0.010919
0.0109135
0.010919
0.0109136
0.0109194
0.0109142
0.0109196
0.0109151
0.0109187
0.0109186
0.0109144
0.0109068
0.0109018
0.0109168
0.0109145
0.0109187
0.0109167
0.0109143
0.0109189
0.0109135
0.0109189
0.0109131
0.0109188
0.0109132
0.010919
0.0109139
0.0109191
0.0109143
0.0109193
0.0109141
0.0109192
0.010914
0.0109194
0.0109137
0.0109192
0.0109134
0.0109189
0.0109134
0.0109188
0.0109138
0.010917
0.0109017
0.010903
0.010916
0.0109175
0.0109142
0.0109191
0.0109136
0.0109192
0.0109134
0.010919
0.0109132
0.0109191
0.0109136
0.0109194
0.0109144
0.0109196
0.0109147
0.0109195
0.0109142
0.0109192
0.0109137
0.0109191
0.0109137
0.0109194
0.0109143
0.0109196
0.010915
0.0109191
0.0109182
0.0109145
0.0109068
0.010906
0.010914
0.0109194
0.0109142
0.0109196
0.0109139
0.0109193
0.0109136
0.0109191
0.0109134
0.0109192
0.0109139
0.0109194
0.0109145
0.0109196
0.0109147
0.0109195
0.0109142
0.0109192
0.0109137
0.0109191
0.0109137
0.0109194
0.0109143
0.0109196
0.0109151
0.0109191
0.0109184
0.0109144
0.0109068
0.0109051
0.0109143
0.0109153
0.010919
0.0109138
0.0109191
0.0109134
0.0109191
0.0109132
0.0109189
0.0109133
0.010919
0.0109139
0.0109193
0.0109144
0.0109194
0.0109147
0.0109195
0.0109155
0.0109177
0.0109184
0.0109141
0.0109194
0.0109136
0.010919
0.0109135
0.0109189
0.0109134
0.0109169
0.0109019
0.0109063
0.0109138
0.0109196
0.0109142
0.0109195
0.0109139
0.0109193
0.0109136
0.0109191
0.0109134
0.0109191
0.0109138
0.0109194
0.0109145
0.0109196
0.0109147
0.0109196
0.0109143
0.0109192
0.0109137
0.0109192
0.0109139
0.0109195
0.0109143
0.0109197
0.0109152
0.0109188
0.0109187
0.0109144
0.0109068
0.0109012
0.0109162
0.010915
0.0109152
0.0109181
0.0109133
0.010919
0.0109133
0.0109189
0.0109132
0.0109191
0.0109136
0.0109194
0.0109146
0.010919
0.0109188
0.0109149
0.0109195
0.0109137
0.0109191
0.0109131
0.0109189
0.0109132
0.0109189
0.0109134
0.0109186
0.0109146
0.0109152
0.0109159
0.0109016
0.0109062
0.0109139
0.0109196
0.0109141
0.0109197
0.0109137
0.0109196
0.0109135
0.0109193
0.010913
0.0109192
0.0109134
0.0109196
0.0109142
0.0109199
0.0109147
0.01092
0.0109146
0.0109197
0.0109138
0.0109194
0.0109138
0.0109197
0.0109143
0.0109198
0.0109149
0.0109187
0.0109187
0.0109141
0.0109066
0.000161359
0.000225835
0.000574949
0.00167449
0.00167047
0.000891751
0.000330975
0.000138016
5.97718e-05
2.01115e-05
5.72158e-06
1.7722e-06
0.0119266
0.0095726
0.0183864
0.0244661
0.00719246
0.00339998
0.00141263
0.000649937
0.000477695
0.00079944
0.00317843
0.00736829
0.0125318
0.0180572
0.0224522
0.0254875
0.0268517
0.0265836
0.0246941
0.042342
0.0396797
0.0323273
0.0264888
0.0214608
0.0183599
0.0158452
0.0137608
0.0117734
0.0100921
0.00929413
0.00946537
0.0121562
0.0186061
0.0294975
0.0324086
0.0294782
0.0269539
0.0284463
0.0331415
0.0402589
0.0475953
0.0511297
0.0479401
0.0398232
0.0320783
0.0268571
0.0237447
0.0217159
0.0201483
0.0190244
0.0179669
0.0171877
0.0163844
0.0157465
0.0149943
0.0142988
0.0136371
0.0128901
0.0122373
0.0114796
0.0108055
0.010186
0.0207417
0.0242934
0.024053
0.0224013
0.0205726
0.0190425
0.0179884
0.0171171
0.0165189
0.0159861
0.0156325
0.0152716
0.0150624
0.0148098
0.0146581
0.0144925
0.014365
0.0142541
0.0141513
0.0140729
0.0139859
0.0139257
0.0138363
0.0137884
0.0136914
0.0136417
0.0135446
0.0134945
0.0133868
0.0132337
0.014118
0.0141521
0.0140661
0.014003
0.0139236
0.0138796
0.0138277
0.0137942
0.013762
0.0137367
0.013718
0.0136996
0.0136894
0.0136757
0.0136679
0.0136617
0.0136515
0.0136531
0.0136401
0.0136468
0.0136338
0.013642
0.0136312
0.0136383
0.0136308
0.0136339
0.0136332
0.0136339
0.0136262
0.0134869
0.0134867
0.0136276
0.0136352
0.0136368
0.0136354
0.0136362
0.0136351
0.0136357
0.0136352
0.0136357
0.0136355
0.0136359
0.0136356
0.0136357
0.0136366
0.0136355
0.0136363
0.0136353
0.0136357
0.0136348
0.0136356
0.0136348
0.0136357
0.0136352
0.0136362
0.0136357
0.0136364
0.0136363
0.0136278
0.0134827
0.013484
0.0136277
0.0136354
0.0136363
0.0136349
0.0136346
0.0136356
0.0136347
0.0136354
0.0136347
0.0136355
0.0136347
0.0136359
0.0136353
0.0136362
0.0136354
0.0136363
0.0136355
0.013636
0.0136355
0.0136363
0.0136351
0.0136356
0.0136347
0.0136354
0.0136348
0.0136358
0.0136347
0.0136274
0.0134829
0.0134841
0.0136276
0.0136351
0.013635
0.0136359
0.0136349
0.0136356
0.0136347
0.0136354
0.0136347
0.0136358
0.0136352
0.0136364
0.0136359
0.0136368
0.013636
0.0136366
0.0136355
0.013636
0.013635
0.0136357
0.0136349
0.0136357
0.0136353
0.0136362
0.0136357
0.0136366
0.0136363
0.0136278
0.0134827
0.0134827
0.0136277
0.0136362
0.0136357
0.0136363
0.013635
0.0136356
0.0136347
0.0136355
0.0136348
0.0136359
0.0136353
0.0136364
0.0136359
0.0136368
0.0136359
0.0136366
0.0136355
0.0136359
0.013635
0.0136357
0.0136349
0.0136357
0.0136352
0.0136362
0.0136357
0.0136367
0.0136364
0.0136278
0.0134827
0.0134822
0.0136269
0.0136355
0.0136362
0.0136352
0.0136357
0.0136347
0.0136354
0.0136345
0.0136354
0.0136348
0.0136358
0.0136354
0.0136363
0.0136356
0.0136366
0.0136358
0.0136367
0.0136358
0.013636
0.0136357
0.0136351
0.0136358
0.0136348
0.0136354
0.0136349
0.013636
0.0136344
0.0136271
0.0134839
0.013482
0.0136277
0.0136365
0.0136358
0.0136363
0.013635
0.0136356
0.0136347
0.0136354
0.0136348
0.0136358
0.0136353
0.0136364
0.0136359
0.0136368
0.0136359
0.0136366
0.0136356
0.013636
0.0136351
0.0136358
0.013635
0.0136359
0.0136353
0.0136362
0.0136357
0.0136364
0.0136364
0.0136278
0.0134827
0.0134837
0.0136272
0.0136355
0.013635
0.0136351
0.0136347
0.0136355
0.0136347
0.0136354
0.0136348
0.0136358
0.0136351
0.0136364
0.013636
0.0136366
0.0136366
0.0136361
0.0136365
0.0136351
0.0136358
0.0136347
0.0136354
0.0136346
0.0136355
0.0136348
0.0136357
0.0136354
0.0136348
0.0136271
0.0134836
0.0134821
0.0136276
0.0136364
0.0136357
0.0136363
0.013635
0.0136357
0.0136349
0.0136355
0.0136348
0.0136357
0.0136353
0.0136366
0.0136363
0.0136374
0.0136366
0.0136375
0.0136364
0.0136367
0.0136357
0.0136361
0.0136354
0.0136362
0.0136356
0.0136364
0.0136353
0.0136362
0.0136361
0.0136271
0.0134822
0.0020449
0.00205109
0.00249933
0.0032478
0.00302682
0.00205024
0.000861623
0.000409651
0.000322247
0.00013903
6.15937e-05
1.49698e-05
0.0126092
0.0106548
0.020847
0.0200593
0.00207209
0.000407428
0.000128658
7.89524e-05
8.04791e-05
0.000164085
0.000519327
0.00288225
0.00806465
0.0144839
0.0212719
0.0261357
0.0297714
0.0317798
0.031133
0.0290899
0.0459644
0.0442882
0.0370361
0.0315239
0.0262742
0.0222325
0.0191969
0.0162056
0.0134888
0.0109975
0.00954486
0.00953866
0.0222376
0.0313474
0.0279551
0.020644
0.0189474
0.0210904
0.0262236
0.0339639
0.0433399
0.0524801
0.0564522
0.0533092
0.0455289
0.0380075
0.0328443
0.0297163
0.0274742
0.0258475
0.0244667
0.0233052
0.0223685
0.0214244
0.0205934
0.0197135
0.0188429
0.0177139
0.0166178
0.0152109
0.0137845
0.0121811
0.0275466
0.0316051
0.0335249
0.0324753
0.0294977
0.0267294
0.0246825
0.0233794
0.0224037
0.0217217
0.0211785
0.0207708
0.0204202
0.0201886
0.0199356
0.0197818
0.0196046
0.0194915
0.0193668
0.0192742
0.0191876
0.0191005
0.019016
0.0189468
0.0188455
0.0187549
0.0186163
0.018463
0.0182612
0.018084
0.0196199
0.0194629
0.0193009
0.0191809
0.0190962
0.0190146
0.0189715
0.0189194
0.0188887
0.0188616
0.018832
0.0188251
0.0187921
0.0188006
0.0187652
0.0187815
0.0187492
0.0187658
0.0187391
0.0187533
0.0187333
0.0187439
0.0187296
0.0187366
0.0187279
0.0187294
0.0187282
0.0187255
0.0187253
0.018773
0.0187748
0.0187241
0.0187206
0.0187226
0.0187198
0.0187216
0.0187191
0.0187209
0.0187182
0.0187207
0.0187181
0.0187197
0.0187183
0.0187189
0.0187191
0.0187179
0.0187193
0.0187177
0.0187196
0.0187177
0.0187201
0.0187178
0.0187205
0.0187186
0.0187212
0.0187198
0.0187209
0.0187212
0.0187214
0.0187702
0.0187714
0.0187214
0.0187199
0.0187212
0.018719
0.0187189
0.0187203
0.018718
0.01872
0.0187176
0.0187198
0.0187173
0.0187194
0.0187177
0.0187192
0.018718
0.0187194
0.0187179
0.0187199
0.0187183
0.0187206
0.0187182
0.0187205
0.0187183
0.0187208
0.018719
0.0187213
0.0187193
0.0187221
0.0187706
0.0187717
0.0187206
0.0187198
0.0187198
0.0187214
0.0187186
0.0187206
0.0187178
0.0187201
0.0187176
0.0187199
0.0187177
0.0187198
0.018718
0.0187196
0.0187182
0.0187196
0.0187179
0.0187198
0.0187177
0.0187202
0.0187178
0.0187205
0.0187186
0.0187213
0.01872
0.0187214
0.0187211
0.0187214
0.0187703
0.0187702
0.0187216
0.018722
0.0187201
0.0187216
0.0187187
0.0187207
0.0187179
0.0187201
0.0187177
0.01872
0.0187178
0.0187197
0.0187181
0.0187196
0.0187182
0.0187195
0.0187178
0.0187197
0.0187177
0.0187201
0.0187178
0.0187205
0.0187186
0.0187213
0.0187199
0.0187214
0.0187212
0.0187214
0.0187703
0.0187691
0.0187208
0.0187204
0.0187217
0.0187193
0.0187209
0.0187181
0.0187202
0.0187176
0.0187199
0.0187175
0.0187197
0.0187178
0.0187194
0.018718
0.0187195
0.0187182
0.0187197
0.0187191
0.0187188
0.0187196
0.0187183
0.0187206
0.0187183
0.0187209
0.0187191
0.0187216
0.0187191
0.0187215
0.0187713
0.0187696
0.0187211
0.0187221
0.0187201
0.0187217
0.0187186
0.0187206
0.0187178
0.01872
0.0187177
0.0187199
0.0187178
0.0187197
0.0187181
0.0187196
0.0187182
0.0187195
0.0187179
0.0187198
0.0187177
0.0187203
0.018718
0.0187206
0.0187187
0.0187213
0.0187199
0.018721
0.0187213
0.0187214
0.0187703
0.0187711
0.018721
0.0187203
0.0187196
0.0187203
0.0187187
0.0187206
0.0187179
0.0187202
0.0187178
0.0187201
0.0187175
0.0187199
0.0187182
0.0187192
0.0187189
0.0187183
0.0187197
0.0187176
0.0187199
0.0187177
0.0187201
0.0187177
0.0187205
0.0187185
0.0187208
0.01872
0.0187196
0.0187205
0.0187711
0.0187698
0.0187213
0.0187222
0.0187199
0.0187221
0.0187185
0.0187211
0.0187177
0.0187205
0.0187173
0.0187201
0.0187172
0.0187198
0.0187176
0.0187197
0.0187179
0.0187192
0.0187174
0.0187194
0.0187172
0.0187197
0.0187172
0.0187201
0.0187178
0.0187208
0.0187189
0.0187201
0.0187203
0.0187201
0.0187693
0.00277553
0.00344862
0.00490425
0.00575283
0.00416852
0.00220402
0.00102984
0.000802543
0.000733637
0.000404995
0.000123726
1.52147e-05
0.0135802
0.0122853
0.0220537
0.00030118
0.000266703
6.43038e-05
2.35945e-05
2.86253e-05
4.92505e-05
8.18169e-05
0.000178037
0.000557759
0.00366111
0.0105133
0.0185918
0.0255516
0.0305135
0.0331024
0.0350999
0.0356446
0.0339543
0.0502919
0.0495866
0.0424767
0.0373993
0.0318215
0.027099
0.0226743
0.0190017
0.0148085
0.0109817
0.00915024
0.0257265
0.0292384
0.0232122
0.0173912
0.0162125
0.0191269
0.0252006
0.0335866
0.0426584
0.0515572
0.0587979
0.0607616
0.0568474
0.0498298
0.0434029
0.0390613
0.0361466
0.0339588
0.0322557
0.0306705
0.0293313
0.0281218
0.0267951
0.0255819
0.0242413
0.0229047
0.0213752
0.0193498
0.0168266
0.0140027
0.0289554
0.0330488
0.0386253
0.0413429
0.0393598
0.0355386
0.0325694
0.0306
0.0293692
0.0283062
0.0276406
0.0269135
0.0265219
0.0260144
0.0257762
0.0253953
0.0252227
0.0249578
0.0248074
0.0246002
0.0244937
0.0242911
0.0242027
0.0240022
0.0238879
0.0236885
0.0235123
0.0232539
0.0229257
0.0226516
0.0255455
0.025186
0.0248147
0.0245346
0.0243289
0.0241947
0.0240753
0.0240107
0.0239317
0.0238954
0.023842
0.0238204
0.0237836
0.0237692
0.0237437
0.0237359
0.0237148
0.0237147
0.0236929
0.0237017
0.0236779
0.0236911
0.0236706
0.0236827
0.0236664
0.0236728
0.0236626
0.0236621
0.0236528
0.0237
0.0237114
0.023658
0.0236607
0.0236641
0.0236662
0.0236678
0.0236689
0.0236694
0.0236697
0.0236694
0.0236699
0.0236688
0.0236696
0.0236689
0.0236693
0.0236686
0.0236688
0.0236689
0.0236687
0.0236689
0.0236687
0.0236687
0.0236687
0.0236687
0.0236683
0.0236667
0.0236647
0.0236615
0.0236595
0.0237063
0.0237083
0.0236591
0.0236614
0.023665
0.0236657
0.0236673
0.0236689
0.0236684
0.0236686
0.0236686
0.0236687
0.0236686
0.0236686
0.0236687
0.0236685
0.0236688
0.0236688
0.023669
0.0236692
0.0236698
0.0236696
0.0236693
0.023669
0.0236687
0.0236677
0.0236667
0.0236644
0.0236609
0.0236591
0.0237071
0.0237082
0.0236589
0.0236603
0.0236647
0.0236669
0.0236679
0.0236685
0.0236685
0.0236686
0.0236688
0.0236689
0.0236692
0.0236691
0.0236692
0.023669
0.0236692
0.023669
0.0236691
0.0236689
0.023669
0.0236688
0.0236688
0.0236688
0.0236689
0.0236684
0.023667
0.0236652
0.0236616
0.0236595
0.0237065
0.023707
0.0236597
0.0236617
0.0236652
0.023667
0.0236679
0.0236685
0.0236686
0.0236686
0.0236688
0.023669
0.0236692
0.023669
0.0236692
0.023669
0.0236691