/*--------------------------------*- C++ -*----------------------------------*\
| =========                 |                                                 |
| \\      /  F ield         | OpenFOAM: The Open Source CFD Toolbox           |
|  \\    /   O peration     | Version:  2.1.1                                 |
|   \\  /    A nd           | Web:      www.OpenFOAM.org                      |
|    \\/     M anipulation  |                                                 |
\*---------------------------------------------------------------------------*/
FoamFile
{
    version     2.0;
    format      ascii;
    class       volScalarField;
    location    "0.001550000";
    object      N2;
}
// * * * * * * * * * * * * * * * * * * * * * * * * * * * * * * * * * * * * * //

dimensions      [0 0 0 0 0 0 0];

internalField   nonuniform List<scalar> 
12384
(
0.74794
0.747143
0.747077
0.747197
0.747167
0.747241
0.747521
0.747835
0.746955
0.74611
0.745275
0.744748
0.744671
0.74487
0.74847
0.749257
0.751281
0.751629
0.751944
0.752041
0.752161
0.752201
0.752246
0.752363
0.752482
0.752578
0.752526
0.752177
0.75172
0.751081
0.750532
0.749386
0.748076
0.74692
0.746062
0.745476
0.744959
0.744792
0.74465
0.744688
0.744675
0.744712
0.744732
0.744734
0.746174
0.746946
0.747601
0.748179
0.748735
0.749126
0.74925
0.749144
0.74877
0.748177
0.747568
0.746957
0.746426
0.745983
0.745583
0.745297
0.745083
0.74493
0.744828
0.744767
0.744759
0.744744
0.744748
0.744731
0.74475
0.744753
0.744741
0.744748
0.744739
0.744744
0.744984
0.74504
0.745006
0.744948
0.744896
0.744842
0.7448
0.744771
0.744756
0.744758
0.744751
0.744762
0.744749
0.744767
0.744747
0.744771
0.74475
0.744766
0.744753
0.744763
0.744755
0.74476
0.744756
0.744758
0.744756
0.744757
0.744757
0.744756
0.744757
0.744746
0.744747
0.744759
0.74476
0.74476
0.744761
0.74476
0.744761
0.744762
0.744762
0.744764
0.744764
0.744766
0.744767
0.744769
0.74477
0.74477
0.74477
0.744768
0.744768
0.744767
0.744767
0.744766
0.744766
0.744765
0.744765
0.744765
0.744765
0.744764
0.744764
0.744747
0.744747
0.744764
0.744765
0.744766
0.744766
0.744767
0.744768
0.744768
0.744769
0.74477
0.744771
0.744772
0.744773
0.744774
0.744775
0.744775
0.744774
0.744773
0.744772
0.744771
0.74477
0.744769
0.744769
0.744768
0.744767
0.744767
0.744766
0.744765
0.744765
0.744747
0.744747
0.744764
0.744765
0.744766
0.744766
0.744767
0.744767
0.744768
0.744769
0.74477
0.744771
0.744772
0.744773
0.744774
0.744775
0.744775
0.744775
0.744773
0.744771
0.74477
0.744769
0.744769
0.744768
0.744767
0.744767
0.744766
0.744766
0.744765
0.744764
0.744747
0.744747
0.744764
0.744765
0.744766
0.744767
0.744767
0.744768
0.744769
0.744769
0.74477
0.744771
0.744772
0.744773
0.744774
0.744775
0.744775
0.744774
0.744773
0.744772
0.744771
0.74477
0.744769
0.744769
0.744768
0.744767
0.744767
0.744766
0.744765
0.744764
0.744747
0.744747
0.744764
0.744765
0.744766
0.744766
0.744767
0.744768
0.744769
0.744769
0.74477
0.744771
0.744771
0.744773
0.744774
0.744775
0.744775
0.744774
0.744773
0.744772
0.744771
0.74477
0.744769
0.744769
0.744768
0.744767
0.744767
0.744766
0.744765
0.744764
0.744747
0.744747
0.744764
0.744765
0.744766
0.744767
0.744767
0.744768
0.744769
0.744769
0.74477
0.744771
0.744772
0.744773
0.744774
0.744775
0.744775
0.744775
0.744773
0.744771
0.74477
0.74477
0.744769
0.744768
0.744768
0.744767
0.744766
0.744766
0.744765
0.744764
0.744747
0.744747
0.744764
0.744765
0.744766
0.744767
0.744767
0.744768
0.744769
0.744769
0.74477
0.744771
0.744772
0.744773
0.744774
0.744775
0.744775
0.744775
0.744773
0.744772
0.744771
0.74477
0.744769
0.744769
0.744768
0.744767
0.744767
0.744766
0.744765
0.744765
0.744747
0.744747
0.744764
0.744765
0.744766
0.744766
0.744767
0.744768
0.744768
0.744769
0.74477
0.744771
0.744772
0.744773
0.744774
0.744775
0.744775
0.744774
0.744773
0.744772
0.744771
0.74477
0.744769
0.744769
0.744768
0.744767
0.744767
0.744766
0.744765
0.744764
0.744747
0.744747
0.744764
0.744765
0.744766
0.744767
0.744768
0.744768
0.744769
0.744769
0.74477
0.74477
0.744771
0.744773
0.744774
0.744775
0.744775
0.744775
0.744773
0.744772
0.744771
0.74477
0.744769
0.744768
0.744768
0.744767
0.744767
0.744766
0.744765
0.744765
0.744747
0.749469
0.74901
0.749416
0.75115
0.752915
0.754646
0.755414
0.756252
0.755306
0.75458
0.751421
0.749833
0.747042
0.74626
0.752528
0.755981
0.755938
0.755003
0.754149
0.75364
0.753253
0.753039
0.753019
0.753339
0.753841
0.754337
0.75508
0.756104
0.757127
0.757914
0.758334
0.758012
0.75761
0.7567
0.755383
0.754201
0.752235
0.749787
0.74772
0.746277
0.745291
0.744801
0.744578
0.744608
0.754421
0.756429
0.757478
0.757596
0.757629
0.757731
0.757824
0.757891
0.757991
0.757863
0.757585
0.757051
0.756357
0.755641
0.754841
0.754006
0.753135
0.752279
0.75141
0.750381
0.749354
0.748228
0.74706
0.746177
0.745657
0.745421
0.745252
0.745203
0.745125
0.744998
0.752709
0.75297
0.752727
0.752367
0.751991
0.751454
0.750941
0.750304
0.749785
0.749165
0.74874
0.74824
0.747916
0.747572
0.747309
0.747093
0.74684
0.746672
0.746432
0.746305
0.74614
0.746041
0.745933
0.745845
0.745774
0.745704
0.745667
0.745645
0.745616
0.745153
0.745901
0.746369
0.746352
0.746311
0.746237
0.746187
0.746149
0.746112
0.746089
0.746068
0.746059
0.746051
0.746081
0.746105
0.746114
0.746111
0.746076
0.746041
0.745996
0.745983
0.74596
0.745952
0.745931
0.74592
0.745899
0.745888
0.745895
0.745874
0.745875
0.745181
0.745185
0.745892
0.745905
0.745933
0.745936
0.745966
0.745973
0.746004
0.74601
0.746045
0.746057
0.746093
0.746126
0.746162
0.746188
0.746177
0.746163
0.746118
0.746097
0.746065
0.746056
0.746023
0.746016
0.745984
0.745975
0.745946
0.745936
0.745921
0.745891
0.7452
0.745182
0.745898
0.745911
0.745937
0.745943
0.745958
0.74599
0.746
0.746033
0.746042
0.746076
0.746085
0.746127
0.746151
0.746181
0.746179
0.746172
0.746124
0.746092
0.746051
0.746035
0.746
0.745994
0.745965
0.745959
0.745931
0.745929
0.745905
0.745892
0.745183
0.745182
0.745901
0.745924
0.745935
0.745962
0.745969
0.746001
0.746008
0.746038
0.746045
0.746076
0.746086
0.746129
0.746156
0.746187
0.74618
0.746167
0.746121
0.746098
0.746065
0.746056
0.746023
0.746016
0.745985
0.745976
0.745948
0.745937
0.745922
0.745892
0.745201
0.745198
0.745883
0.745917
0.745925
0.745953
0.74596
0.745991
0.745997
0.746027
0.746034
0.746066
0.746079
0.746125
0.746156
0.746187
0.746179
0.746166
0.746122
0.746099
0.746066
0.746056
0.746023
0.746016
0.745985
0.745975
0.745947
0.745937
0.745921
0.745891
0.745201
0.745202
0.745892
0.745917
0.745944
0.745952
0.745981
0.745989
0.746019
0.746024
0.746054
0.746061
0.746092
0.746113
0.746158
0.746172
0.746189
0.746164
0.746133
0.746081
0.746056
0.746041
0.746007
0.745998
0.745967
0.745961
0.745933
0.74593
0.745904
0.745893
0.745182
0.745202
0.745886
0.745921
0.745929
0.745957
0.745963
0.745994
0.746
0.74603
0.746036
0.746068
0.74608
0.746124
0.746153
0.746186
0.746181
0.746169
0.746125
0.7461
0.746066
0.746056
0.746023
0.746015
0.745984
0.745974
0.745946
0.745935
0.745921
0.745891
0.745201
0.745182
0.745899
0.745916
0.745928
0.745953
0.745961
0.745994
0.746002
0.746035
0.746043
0.746077
0.746088
0.746131
0.746157
0.746186
0.746186
0.746159
0.74613
0.746086
0.746075
0.746042
0.746034
0.746002
0.745995
0.745963
0.745957
0.74593
0.74592
0.7459
0.745182
0.7452
0.745888
0.745925
0.745933
0.745963
0.745969
0.746001
0.746005
0.746036
0.746039
0.746071
0.74608
0.746121
0.746147
0.746183
0.746181
0.74617
0.746127
0.746101
0.746069
0.746059
0.746025
0.746018
0.745985
0.745976
0.745947
0.745935
0.745922
0.74589
0.745201
0.754075
0.753488
0.754117
0.757756
0.758771
0.759807
0.759827
0.759613
0.759456
0.75932
0.758956
0.758265
0.754953
0.752658
0.758443
0.756156
0.752847
0.750418
0.747873
0.74661
0.744586
0.743516
0.743431
0.744643
0.7453
0.74536
0.746352
0.747955
0.750577
0.752875
0.755667
0.758361
0.759669
0.7603
0.760555
0.760525
0.760309
0.759777
0.758018
0.755373
0.752024
0.748507
0.746315
0.745594
0.759988
0.759669
0.758724
0.757608
0.756155
0.755249
0.755345
0.756286
0.757525
0.758623
0.75935
0.759825
0.760173
0.760379
0.760504
0.760622
0.760649
0.760688
0.760707
0.760729
0.760735
0.760646
0.760512
0.760142
0.759357
0.758446
0.757173
0.756031
0.755289
0.754669
0.760869
0.760725
0.760664
0.760631
0.760653
0.760643
0.760667
0.76062
0.760658
0.76058
0.760629
0.760549
0.760597
0.76051
0.760534
0.760472
0.76051
0.760502
0.76053
0.760527
0.760517
0.760519
0.760491
0.760485
0.760447
0.760419
0.760363
0.760313
0.76027
0.760651
0.761024
0.760572
0.760523
0.76052
0.7605
0.760495
0.760474
0.760457
0.760442
0.760421
0.76041
0.760384
0.760349
0.760311
0.760295
0.760289
0.7603
0.76033
0.760352
0.760365
0.760373
0.76038
0.760389
0.760397
0.760411
0.760414
0.760414
0.760421
0.760431
0.761009
0.761009
0.760422
0.760399
0.760384
0.760375
0.760362
0.76035
0.760336
0.760324
0.760307
0.760291
0.760271
0.760238
0.760212
0.760195
0.760197
0.760215
0.760244
0.760269
0.760285
0.760299
0.760316
0.760328
0.760342
0.760355
0.760369
0.760381
0.760392
0.760411
0.761008
0.761008
0.760413
0.760394
0.760378
0.760376
0.760362
0.760344
0.760331
0.760315
0.760301
0.760285
0.76027
0.760244
0.760218
0.7602
0.760195
0.760207
0.760238
0.760271
0.760294
0.760313
0.760331
0.760343
0.760355
0.760366
0.760378
0.760385
0.760399
0.760421
0.761009
0.761007
0.76041
0.760391
0.760376
0.760363
0.760352
0.760337
0.760326
0.760313
0.7603
0.760285
0.76027
0.760242
0.760214
0.760195
0.760195
0.760212
0.760242
0.760269
0.760286
0.7603
0.760316
0.760328
0.760341
0.760355
0.760368
0.76038
0.760392
0.760411
0.761008
0.761008
0.760419
0.760396
0.760381
0.76037
0.760359
0.760345
0.760334
0.760321
0.760308
0.760293
0.760274
0.760245
0.760214
0.760195
0.760195
0.760213
0.760241
0.760268
0.760285
0.760299
0.760315
0.760328
0.760342
0.760355
0.760368
0.76038
0.760392
0.760411
0.761008
0.761008
0.760413
0.760391
0.760374
0.760364
0.760351
0.760338
0.760326
0.760315
0.760301
0.760288
0.760272
0.760248
0.760219
0.7602
0.760194
0.760206
0.760237
0.760274
0.760297
0.760307
0.760327
0.76034
0.760353
0.760364
0.760377
0.760385
0.760399
0.76042
0.761009
0.761008
0.760414
0.760393
0.760379
0.760368
0.760357
0.760343
0.760331
0.760319
0.760306
0.760291
0.760274
0.760247
0.760216
0.760196
0.760194
0.760211
0.760239
0.760267
0.760284
0.760299
0.760316
0.760328
0.760342
0.760356
0.76037
0.760382
0.760392
0.760411
0.761008
0.761008
0.760411
0.760392
0.760384
0.76037
0.760358
0.760342
0.760329
0.760314
0.760301
0.760284
0.760268
0.760241
0.760214
0.760194
0.760194
0.760212
0.760242
0.760269
0.760286
0.760302
0.760315
0.760329
0.760341
0.760356
0.760367
0.76038
0.760391
0.76041
0.761008
0.761008
0.760413
0.76039
0.760376
0.760363
0.760353
0.760339
0.760328
0.760316
0.760305
0.760291
0.760274
0.76025
0.76022
0.760199
0.760193
0.760209
0.760237
0.760265
0.760282
0.760297
0.760314
0.760327
0.760341
0.760355
0.760369
0.760381
0.760391
0.76041
0.761008
0.757317
0.756833
0.757502
0.75902
0.759737
0.758895
0.75821
0.75753
0.757325
0.758037
0.759124
0.759722
0.759493
0.75838
0.757886
0.751917
0.74617
0.744277
0.74018
0.739359
0.737205
0.735309
0.735259
0.735301
0.734792
0.735287
0.735886
0.737488
0.737878
0.739955
0.744592
0.749349
0.754036
0.756802
0.758116
0.758917
0.759598
0.760039
0.760244
0.760004
0.758811
0.75504
0.751585
0.749045
0.759021
0.755447
0.750941
0.74648
0.743489
0.741937
0.741392
0.742549
0.74592
0.749837
0.753009
0.755148
0.756514
0.757419
0.758119
0.758624
0.759
0.759307
0.759538
0.759767
0.75994
0.760129
0.760299
0.760381
0.76047
0.760484
0.760465
0.760457
0.760271
0.760248
0.759025
0.758706
0.758864
0.759102
0.759274
0.75948
0.759628
0.759806
0.759912
0.760045
0.760102
0.760189
0.760225
0.760271
0.760313
0.760325
0.76037
0.76036
0.760407
0.760388
0.760428
0.760421
0.760438
0.760445
0.760456
0.760456
0.760469
0.76046
0.760483
0.760561
0.760443
0.760392
0.760399
0.760401
0.760413
0.760417
0.760425
0.760428
0.760432
0.760436
0.760436
0.76044
0.760438
0.760441
0.760439
0.760441
0.76044
0.760443
0.760441
0.760443
0.760442
0.760443
0.760441
0.760443
0.76044
0.760442
0.760441
0.76044
0.760445
0.760546
0.760546
0.760443
0.760436
0.760437
0.760435
0.760437
0.760435
0.760436
0.760434
0.760435
0.760433
0.760434
0.760432
0.760432
0.760432
0.760431
0.760433
0.760432
0.760434
0.760433
0.760435
0.760434
0.760436
0.760435
0.760437
0.760435
0.760437
0.760438
0.760443
0.760545
0.760546
0.760443
0.760436
0.760437
0.760437
0.760435
0.760436
0.760434
0.760436
0.760434
0.760435
0.760433
0.760434
0.760431
0.760433
0.760431
0.760433
0.760432
0.760434
0.760433
0.760435
0.760434
0.760436
0.760435
0.760437
0.760435
0.760437
0.760436
0.760443
0.760546
0.760546
0.760443
0.760438
0.760436
0.760437
0.760435
0.760436
0.760434
0.760436
0.760433
0.760435
0.760433
0.760434
0.760431
0.760432
0.760431
0.760433
0.760432
0.760434
0.760433
0.760435
0.760434
0.760436
0.760435
0.760437
0.760435
0.760437
0.760438
0.760443
0.760545
0.760545
0.760443
0.760438
0.760436
0.760437
0.760435
0.760436
0.760434
0.760436
0.760434
0.760435
0.760433
0.760434
0.760431
0.760432
0.760431
0.760433
0.760432
0.760434
0.760433
0.760435
0.760434
0.760436
0.760435
0.760437
0.760435
0.760437
0.760438
0.760443
0.760545
0.760544
0.760443
0.760436
0.760437
0.760435
0.760437
0.760435
0.760436
0.760434
0.760435
0.760433
0.760435
0.760432
0.760433
0.760431
0.760432
0.760431
0.760434
0.760433
0.760435
0.760435
0.760434
0.760436
0.760435
0.760437
0.760435
0.760437
0.760436
0.760443
0.760546
0.760544
0.760443
0.760438
0.760436
0.760437
0.760435
0.760436
0.760434
0.760436
0.760434
0.760435
0.760433
0.760434
0.760431
0.760432
0.760431
0.760433
0.760432
0.760434
0.760433
0.760435
0.760434
0.760436
0.760435
0.760437
0.760436
0.760437
0.760438
0.760443
0.760545
0.760546
0.760443
0.760436
0.760436
0.760437
0.760435
0.760436
0.760434
0.760436
0.760434
0.760435
0.760433
0.760434
0.760431
0.760432
0.760432
0.760431
0.760434
0.760433
0.760435
0.760434
0.760436
0.760434
0.760436
0.760435
0.760437
0.760436
0.760437
0.760443
0.760546
0.760545
0.760443
0.760438
0.760436
0.760437
0.760435
0.760436
0.760434
0.760436
0.760433
0.760435
0.760433
0.760434
0.760431
0.760432
0.760431
0.760433
0.760432
0.760434
0.760433
0.760435
0.760434
0.760436
0.760434
0.760436
0.760435
0.760437
0.760438
0.760443
0.760545
0.756642
0.755907
0.755499
0.752734
0.751413
0.751854
0.75256
0.752778
0.753543
0.755307
0.756546
0.757032
0.759144
0.760275
0.75521
0.746177
0.741421
0.730705
0.740979
0.743186
0.742619
0.741417
0.739033
0.73636
0.733918
0.730975
0.728621
0.727732
0.727932
0.73104
0.733175
0.73953
0.745658
0.750584
0.75392
0.755764
0.757064
0.75814
0.759157
0.759793
0.760106
0.759268
0.757108
0.753647
0.755986
0.749017
0.74285
0.739999
0.739405
0.738219
0.736086
0.734011
0.733288
0.736744
0.742529
0.74748
0.750825
0.75288
0.754173
0.755176
0.755914
0.756448
0.756909
0.757297
0.757615
0.757968
0.758222
0.758539
0.758864
0.759208
0.759545
0.759807
0.760012
0.760149
0.755841
0.754577
0.754916
0.755552
0.756156
0.756604
0.757021
0.757318
0.757597
0.757769
0.757974
0.758051
0.758202
0.758239
0.758346
0.758369
0.758446
0.758466
0.758517
0.758534
0.758568
0.758589
0.75861
0.758634
0.75866
0.758686
0.758729
0.758754
0.758795
0.758815
0.758531
0.758526
0.758546
0.758568
0.758582
0.758602
0.758611
0.758626
0.758633
0.758642
0.758648
0.758652
0.758659
0.758658
0.758666
0.758662
0.758672
0.758665
0.758675
0.758668
0.758677
0.758671
0.758677
0.758673
0.758677
0.758677
0.758674
0.758678
0.758676
0.758687
0.758687
0.758676
0.758678
0.758674
0.758678
0.758674
0.758679
0.758674
0.758679
0.758674
0.758679
0.758675
0.758678
0.758677
0.758675
0.758678
0.758674
0.758678
0.758675
0.758679
0.758675
0.758679
0.758674
0.758678
0.758674
0.758678
0.758675
0.758675
0.758678
0.758684
0.758688
0.758676
0.758678
0.758675
0.758676
0.758678
0.758675
0.758679
0.758675
0.758679
0.758675
0.758679
0.758675
0.758678
0.758674
0.758678
0.758674
0.758678
0.758674
0.758678
0.758674
0.758679
0.758674
0.758679
0.758675
0.758679
0.758675
0.758679
0.758676
0.758688
0.758687
0.758677
0.758676
0.758678
0.758674
0.758679
0.758674
0.758679
0.758675
0.758679
0.758675
0.758679
0.758674
0.758678
0.758674
0.758678
0.758674
0.758678
0.758674
0.758679
0.758674
0.758679
0.758674
0.758678
0.758674
0.758678
0.758675
0.758675
0.758678
0.758684
0.758685
0.758678
0.758674
0.758678
0.758674
0.758679
0.758674
0.758679
0.758675
0.758679
0.758674
0.758678
0.758674
0.758678
0.758674
0.758678
0.758674
0.758678
0.758674
0.758679
0.758674
0.758679
0.758674
0.758678
0.758674
0.758678
0.758675
0.758675
0.758678
0.758684
0.758685
0.758678
0.758677
0.758675
0.758679
0.758675
0.758679
0.758675
0.758679
0.758675
0.758679
0.758675
0.758678
0.758674
0.758678
0.758674
0.758678
0.758674
0.758677
0.758676
0.758675
0.758678
0.758674
0.758679
0.758675
0.758679
0.758675
0.758679
0.758676
0.758688
0.758684
0.758679
0.758674
0.758678
0.758674
0.758679
0.758674
0.758679
0.758675
0.758679
0.758674
0.758679
0.758674
0.758678
0.758674
0.758678
0.758674
0.758678
0.758674
0.758679
0.758674
0.758679
0.758674
0.758678
0.758674
0.758678
0.758675
0.758675
0.758678
0.758684
0.758688
0.758677
0.758678
0.758678
0.758675
0.758679
0.758675
0.758679
0.758675
0.758679
0.758675
0.758679
0.758674
0.758678
0.758675
0.758675
0.758678
0.758674
0.758679
0.758675
0.758679
0.758675
0.758679
0.758675
0.758679
0.758675
0.758678
0.758678
0.758677
0.758688
0.758684
0.758679
0.758674
0.758678
0.758674
0.758679
0.758674
0.758679
0.758674
0.758679
0.758674
0.758679
0.758674
0.758678
0.758674
0.758678
0.758674
0.758678
0.758674
0.758679
0.758674
0.758679
0.758674
0.758678
0.758674
0.758678
0.758675
0.758675
0.758678
0.758684
0.751181
0.750423
0.748672
0.74609
0.745879
0.746966
0.747932
0.748624
0.750106
0.751689
0.753253
0.754506
0.757174
0.759704
0.752929
0.746744
0.739838
0.742765
0.744693
0.746077
0.746584
0.745681
0.742987
0.739705
0.735825
0.731712
0.728444
0.726187
0.725173
0.725371
0.726775
0.730488
0.736252
0.742252
0.746732
0.750588
0.752967
0.754896
0.756495
0.758019
0.759309
0.759921
0.75979
0.757726
0.752778
0.744424
0.742191
0.744439
0.746375
0.74523
0.741629
0.736169
0.730542
0.727831
0.730278
0.736504
0.742444
0.746449
0.748837
0.750393
0.751595
0.752457
0.753268
0.753866
0.754482
0.754972
0.755549
0.756082
0.75659
0.757163
0.757663
0.758245
0.758762
0.759237
0.75114
0.748416
0.7486
0.749867
0.75127
0.752443
0.753252
0.75392
0.754379
0.754788
0.755059
0.755336
0.755496
0.75569
0.755806
0.755934
0.756031
0.756116
0.756195
0.756255
0.756322
0.756368
0.756437
0.756474
0.756548
0.756586
0.756661
0.756699
0.756782
0.756899
0.756221
0.756195
0.756261
0.756309
0.75637
0.756404
0.756443
0.756469
0.756494
0.756513
0.756528
0.756542
0.75655
0.75656
0.756566
0.756571
0.756579
0.756577
0.756587
0.756582
0.756592
0.756586
0.756594
0.756589
0.756594
0.756592
0.756593
0.756592
0.756598
0.756705
0.756705
0.756597
0.756591
0.75659
0.756591
0.75659
0.756591
0.756591
0.756591
0.756591
0.756591
0.756591
0.756591
0.756591
0.75659
0.756591
0.75659
0.756591
0.756591
0.756591
0.756591
0.756591
0.756591
0.756591
0.75659
0.756591
0.75659
0.75659
0.756597
0.756708
0.756707
0.756597
0.756591
0.75659
0.756591
0.756592
0.756591
0.756591
0.756591
0.756592
0.756591
0.756592
0.756591
0.756591
0.75659
0.756591
0.75659
0.756591
0.75659
0.756591
0.75659
0.756591
0.756591
0.756591
0.756591
0.756591
0.756591
0.756591
0.756597
0.756708
0.756707
0.756597
0.756591
0.756591
0.756591
0.756591
0.756591
0.756592
0.756591
0.756591
0.756591
0.756591
0.75659
0.756591
0.75659
0.756591
0.75659
0.756591
0.756591
0.756591
0.756591
0.756591
0.756591
0.756591
0.75659
0.756591
0.75659
0.75659
0.756597
0.756708
0.756708
0.756597
0.75659
0.756591
0.75659
0.756591
0.756591
0.756591
0.756591
0.756591
0.756591
0.756591
0.75659
0.756591
0.75659
0.756591
0.75659
0.756591
0.756591
0.756591
0.756591
0.756591
0.756591
0.756591
0.75659
0.756591
0.75659
0.75659
0.756597
0.756708
0.756709
0.756597
0.756591
0.75659
0.756591
0.756591
0.756592
0.756591
0.756592
0.756591
0.756591
0.756591
0.756591
0.75659
0.756591
0.75659
0.756591
0.75659
0.756591
0.756591
0.756591
0.756591
0.756591
0.756591
0.756591
0.756591
0.756591
0.756592
0.756597
0.756707
0.756709
0.756597
0.75659
0.756591
0.75659
0.756591
0.756591
0.756591
0.756591
0.756591
0.756591
0.756591
0.75659
0.756591
0.75659
0.756591
0.75659
0.756591
0.756591
0.756591
0.756591
0.756591
0.756591
0.756591
0.75659
0.756591
0.75659
0.75659
0.756597
0.756708
0.756707
0.756597
0.756591
0.756591
0.756591
0.756592
0.756591
0.756592
0.756591
0.756591
0.756591
0.756591
0.75659
0.756591
0.75659
0.75659
0.75659
0.75659
0.756591
0.756591
0.756591
0.756591
0.756592
0.756591
0.756591
0.756591
0.756591
0.756591
0.756597
0.756707
0.756709
0.756597
0.75659
0.756591
0.75659
0.756591
0.756591
0.756591
0.756591
0.756591
0.756591
0.756591
0.75659
0.75659
0.756589
0.75659
0.756589
0.75659
0.75659
0.756591
0.75659
0.756591
0.75659
0.756591
0.75659
0.756591
0.75659
0.75659
0.756597
0.756709
0.74552
0.745532
0.744805
0.743807
0.743943
0.744809
0.74599
0.746842
0.747284
0.748659
0.750069
0.752065
0.755323
0.758827
0.750969
0.748282
0.744048
0.746863
0.748863
0.749645
0.749572
0.748456
0.746476
0.743279
0.739177
0.734371
0.729321
0.725705
0.723
0.721504
0.721985
0.723507
0.726911
0.732677
0.73864
0.74287
0.746896
0.749997
0.752325
0.754619
0.756703
0.758614
0.759729
0.759733
0.749993
0.743005
0.745607
0.751215
0.752516
0.750873
0.746935
0.740998
0.733806
0.726795
0.723748
0.726159
0.732127
0.737896
0.741857
0.744256
0.745976
0.747224
0.748283
0.749174
0.749892
0.750616
0.751254
0.751929
0.752597
0.753463
0.754303
0.755383
0.756477
0.757706
0.74592
0.742807
0.741335
0.74214
0.744424
0.746547
0.748117
0.749117
0.749865
0.750388
0.750805
0.751118
0.751387
0.751564
0.751758
0.751876
0.752012
0.752099
0.752195
0.752266
0.752332
0.752399
0.752464
0.752517
0.752595
0.752664
0.75277
0.752888
0.753043
0.753179
0.752001
0.752121
0.752245
0.752337
0.752402
0.752465
0.752498
0.752538
0.752561
0.752582
0.752605
0.75261
0.752636
0.752629
0.752656
0.752644
0.752668
0.752656
0.752676
0.752665
0.752681
0.752673
0.752683
0.752678
0.752685
0.752684
0.752685
0.752687
0.752687
0.75265
0.752649
0.752688
0.75269
0.752689
0.752691
0.75269
0.752692
0.75269
0.752692
0.75269
0.752692
0.752691
0.752692
0.752692
0.752691
0.752692
0.752691
0.752693
0.752691
0.752693
0.752691
0.752692
0.75269
0.752692
0.75269
0.752691
0.75269
0.75269
0.75269
0.752652
0.752651
0.75269
0.752691
0.75269
0.752692
0.752692
0.752691
0.752692
0.752691
0.752693
0.752691
0.752693
0.752691
0.752693
0.752691
0.752692
0.752691
0.752692
0.752691
0.752692
0.75269
0.752692
0.75269
0.752692
0.75269
0.752692
0.75269
0.752691
0.752689
0.752652
0.752651
0.75269
0.752691
0.752691
0.75269
0.752692
0.75269
0.752693
0.752691
0.752693
0.752691
0.752693
0.752691
0.752692
0.752691
0.752692
0.752691
0.752692
0.752691
0.752693
0.752691
0.752692
0.75269
0.752692
0.75269
0.752691
0.75269
0.75269
0.75269
0.752652
0.752652
0.75269
0.752689
0.752691
0.75269
0.752692
0.75269
0.752692
0.752691
0.752693
0.752691
0.752693
0.752691
0.752692
0.752691
0.752692
0.752691
0.752693
0.752691
0.752693
0.752691
0.752693
0.75269
0.752692
0.75269
0.752691
0.75269
0.75269
0.75269
0.752652
0.752653
0.75269
0.752691
0.75269
0.752691
0.75269
0.752692
0.752691
0.752693
0.752691
0.752693
0.752691
0.752693
0.752691
0.752692
0.752691
0.752692
0.752691
0.752691
0.752692
0.752691
0.752692
0.75269
0.752692
0.75269
0.752692
0.75269
0.752692
0.75269
0.752651
0.752653
0.75269
0.752689
0.752691
0.75269
0.752692
0.75269
0.752693
0.752691
0.752693
0.752691
0.752693
0.752691
0.752692
0.752691
0.752692
0.752691
0.752692
0.752691
0.752693
0.752691
0.752692
0.75269
0.752692
0.75269
0.752691
0.75269
0.75269
0.75269
0.752652
0.752652
0.75269
0.752691
0.752691
0.752691
0.752692
0.75269
0.752692
0.752691
0.752693
0.752691
0.752693
0.752691
0.752692
0.752691
0.752692
0.752692
0.752691
0.752693
0.752691
0.752693
0.752691
0.752693
0.75269
0.752692
0.75269
0.752691
0.752691
0.75269
0.752652
0.752653
0.75269
0.752689
0.752691
0.752689
0.752692
0.75269
0.752693
0.75269
0.752693
0.752691
0.752693
0.752691
0.752693
0.752691
0.752692
0.752691
0.752693
0.752691
0.752693
0.752691
0.752693
0.752691
0.752693
0.75269
0.752692
0.752691
0.752691
0.752691
0.752653
0.744468
0.74363
0.742005
0.741137
0.742497
0.744182
0.74527
0.745653
0.745828
0.746884
0.748951
0.752052
0.754994
0.757576
0.749401
0.747401
0.747582
0.749993
0.751441
0.751176
0.750376
0.749565
0.74835
0.746364
0.742581
0.737335
0.731314
0.726138
0.722448
0.720519
0.719033
0.718627
0.719884
0.723618
0.728557
0.734464
0.738363
0.742641
0.746264
0.749658
0.752475
0.755691
0.758626
0.760031
0.747316
0.744623
0.749245
0.75371
0.754614
0.752379
0.74772
0.741287
0.734329
0.727503
0.721949
0.720443
0.723445
0.728828
0.733758
0.737088
0.739324
0.741002
0.742308
0.743524
0.744551
0.745479
0.746497
0.747427
0.748456
0.749481
0.750654
0.752208
0.754143
0.756309
0.74484
0.7417
0.737422
0.735338
0.736859
0.73979
0.742068
0.743578
0.744522
0.745338
0.745848
0.746406
0.746706
0.747096
0.747278
0.747571
0.747703
0.747906
0.748021
0.74818
0.748262
0.748418
0.748485
0.748639
0.748727
0.74888
0.749015
0.749213
0.749465
0.749675
0.747455
0.747731
0.748016
0.748231
0.748389
0.748491
0.748583
0.748633
0.748693
0.748721
0.748762
0.748779
0.748807
0.748818
0.748837
0.748843
0.74886
0.74886
0.748876
0.74887
0.748888
0.748878
0.748894
0.748884
0.748897
0.748892
0.7489
0.7489
0.748907
0.748871
0.748862
0.748903
0.748901
0.748898
0.748897
0.748896
0.748895
0.748894
0.748894
0.748894
0.748894
0.748895
0.748894
0.748895
0.748894
0.748895
0.748895
0.748895
0.748895
0.748895
0.748895
0.748895
0.748895
0.748895
0.748895
0.748896
0.748898
0.7489
0.748902
0.748866
0.748865
0.748902
0.748901
0.748898
0.748897
0.748896
0.748895
0.748895
0.748895
0.748895
0.748895
0.748895
0.748895
0.748895
0.748895
0.748895
0.748895
0.748895
0.748895
0.748894
0.748894
0.748894
0.748895
0.748895
0.748896
0.748896
0.748898
0.748901
0.748902
0.748865
0.748865
0.748902
0.748901
0.748898
0.748896
0.748896
0.748895
0.748895
0.748895
0.748895
0.748895
0.748895
0.748895
0.748895
0.748895
0.748895
0.748895
0.748895
0.748895
0.748895
0.748895
0.748895
0.748895
0.748895
0.748895
0.748896
0.748898
0.7489
0.748902
0.748866
0.748866
0.748902
0.7489
0.748898
0.748896
0.748896
0.748895
0.748895
0.748895
0.748895
0.748895
0.748895
0.748895
0.748895
0.748895
0.748895
0.748895
0.748895
0.748895
0.748895
0.748895
0.748895
0.748895
0.748895
0.748895
0.748896
0.748898
0.7489
0.748902
0.748866
0.748867
0.748902
0.748901
0.748898
0.748896
0.748896
0.748895
0.748895
0.748895
0.748895
0.748895
0.748895
0.748895
0.748895
0.748895
0.748895
0.748895
0.748894
0.748894
0.748894
0.748895
0.748894
0.748895
0.748895
0.748896
0.748896
0.748898
0.748901
0.748903
0.748865
0.748866
0.748902
0.7489
0.748898
0.748896
0.748896
0.748895
0.748895
0.748895
0.748895
0.748895
0.748895
0.748895
0.748895
0.748895
0.748895
0.748895
0.748895
0.748895
0.748895
0.748895
0.748895
0.748895
0.748895
0.748895
0.748896
0.748898
0.7489
0.748902
0.748866
0.748865
0.748902
0.7489
0.748899
0.748897
0.748896
0.748895
0.748895
0.748895
0.748895
0.748895
0.748895
0.748895
0.748895
0.748895
0.748895
0.748895
0.748895
0.748895
0.748895
0.748895
0.748895
0.748895
0.748895
0.748896
0.748896
0.748898
0.748901
0.748903
0.748865
0.748866
0.748902
0.7489
0.748898
0.748896
0.748895
0.748895
0.748895
0.748895
0.748895
0.748895
0.748895
0.748895
0.748894
0.748894
0.748894
0.748895
0.748895
0.748895
0.748895
0.748895
0.748895
0.748895
0.748895
0.748896
0.748898
0.7489
0.748907
0.748916
0.74888
0.739872
0.738403
0.73557
0.736647
0.73969
0.7423
0.74292
0.742349
0.742068
0.743078
0.745367
0.74897
0.754114
0.756873
0.756572
0.756597
0.751761
0.749991
0.749975
0.752026
0.752227
0.750557
0.748627
0.747855
0.747405
0.746138
0.74303
0.737771
0.731696
0.726324
0.722288
0.719596
0.718028
0.716134
0.715311
0.716256
0.71974
0.722535
0.729582
0.733829
0.738142
0.74232
0.746336
0.750599
0.755065
0.758964
0.760215
0.760065
0.753952
0.751981
0.75521
0.755908
0.75478
0.750752
0.745165
0.738372
0.731386
0.725344
0.720638
0.717796
0.717952
0.72108
0.725409
0.729158
0.731851
0.733813
0.735338
0.736689
0.737796
0.738868
0.739853
0.740833
0.741934
0.74321
0.744837
0.746881
0.74936
0.752604
0.752434
0.750598
0.747843
0.742427
0.73576
0.731036
0.730664
0.733086
0.735537
0.737079
0.738102
0.738831
0.739454
0.739948
0.740347
0.740659
0.740939
0.741145
0.741354
0.741497
0.741659
0.741773
0.741895
0.74201
0.742106
0.742228
0.742334
0.742503
0.742677
0.742976
0.743323
0.743745
0.742506
0.742178
0.741267
0.741352
0.741698
0.741908
0.742048
0.742155
0.742223
0.742286
0.74233
0.742364
0.742402
0.742416
0.74245
0.742454
0.742483
0.742482
0.742504
0.742504
0.74252
0.74252
0.742533
0.742531
0.742543
0.74254
0.742551
0.74255
0.742559
0.742559
0.742555
0.742359
0.742183
0.742181
0.742348
0.74255
0.742566
0.742567
0.742568
0.742567
0.742566
0.742566
0.742566
0.742566
0.742566
0.742566
0.742566
0.742566
0.742566
0.742567
0.742566
0.742567
0.742567
0.742567
0.742567
0.742567
0.742567
0.742567
0.742568
0.742569
0.742571
0.74257
0.742557
0.742354
0.742177
0.742177
0.742353
0.742558
0.74257
0.742571
0.742571
0.742568
0.742567
0.742567
0.742567
0.742567
0.742567
0.742567
0.742567
0.742567
0.742567
0.742567
0.742566
0.742566
0.742566
0.742566
0.742566
0.742567
0.742567
0.742567
0.742568
0.74257
0.742571
0.742571
0.742557
0.742353
0.742177
0.742177
0.742353
0.742558
0.742571
0.742571
0.742569
0.742568
0.742567
0.742567
0.742567
0.742567
0.742567
0.742567
0.742566
0.742566
0.742567
0.742567
0.742566
0.742567
0.742566
0.742567
0.742567
0.742567
0.742567
0.742567
0.742568
0.742569
0.742571
0.74257
0.742557
0.742354
0.742177
0.742177
0.742353
0.742557
0.74257
0.742571
0.742569
0.742568
0.742567
0.742567
0.742567
0.742567
0.742567
0.742567
0.742567
0.742566
0.742567
0.742567
0.742566
0.742567
0.742567
0.742567
0.742567
0.742567
0.742567
0.742567
0.742568
0.742569
0.742571
0.74257
0.742557
0.742354
0.742177
0.742177
0.742354
0.742557
0.74257
0.74257
0.74257
0.742568
0.742568
0.742567
0.742567
0.742567
0.742567
0.742567
0.742567
0.742566