/*--------------------------------*- C++ -*----------------------------------*\
| =========                 |                                                 |
| \\      /  F ield         | OpenFOAM: The Open Source CFD Toolbox           |
|  \\    /   O peration     | Version:  2.1.1                                 |
|   \\  /    A nd           | Web:      www.OpenFOAM.org                      |
|    \\/     M anipulation  |                                                 |
\*---------------------------------------------------------------------------*/
FoamFile
{
    version     2.0;
    format      ascii;
    class       volScalarField;
    location    "0.001550000";
    object      OH;
}
// * * * * * * * * * * * * * * * * * * * * * * * * * * * * * * * * * * * * * //

dimensions      [0 0 0 0 0 0 0];

internalField   nonuniform List<scalar> 
12384
(
0.00395672
0.00436488
0.000898088
0.000181834
1.66798e-05
9.88084e-07
1.9565e-07
4.64754e-08
1.01287e-08
4.37917e-10
1.06993e-11
2.13339e-13
3.40025e-15
4.06111e-17
4.67277e-15
5.70488e-13
4.55406e-11
1.35305e-09
2.37212e-08
6.17904e-08
9.31996e-08
1.09002e-07
1.03205e-07
6.49962e-08
2.84804e-08
1.01582e-08
1.68307e-09
1.15831e-10
1.68382e-12
2.02808e-14
1.723e-16
2.89528e-19
5.27155e-22
9.94592e-25
1.71117e-27
2.85735e-30
4.61953e-33
7.24571e-36
1.08549e-38
1.58389e-41
2.26176e-44
3.16473e-47
4.37436e-50
6.09408e-53
7.9354e-65
1.98956e-65
9.57803e-68
3.07822e-70
2.18709e-71
3.01945e-72
6.9819e-74
7.10856e-76
2.52508e-78
5.43607e-81
4.64709e-84
3.92179e-87
3.25186e-90
2.69412e-93
2.20889e-96
1.79913e-99
1.47064e-102
1.22192e-105
1.01345e-108
8.49824e-112
7.19963e-115
6.18194e-118
5.30312e-121
6.11762e-124
2.07186e-126
2.91815e-129
3.44246e-132
3.54704e-135
3.43409e-138
3.2522e-141
2.18084e-150
7.88926e-152
1.33493e-154
1.66696e-157
1.76373e-160
1.69682e-163
1.55324e-166
6.59285e-170
8.29362e-176
1.79419e-180
2.94664e-184
3.65311e-188
2.88671e-192
2.35805e-196
1.12757e-200
3.42214e-205
7.38947e-210
1.27527e-214
1.91003e-219
2.39234e-224
2.5166e-229
2.21278e-234
1.67719e-239
1.10655e-244
1.16836e-249
8.03013e-253
1.26894e-255
2.23136e-258
4.85095e-261
9.5572e-264
3.51746e-281
7.32406e-281
1.67172e-282
3.30141e-285
1.04953e-287
2.94957e-290
7.24974e-293
1.6435e-295
3.52485e-298
7.31076e-301
1.47772e-303
2.93841e-306
5.6428e-309
1.03468e-311
1.8044e-314
3.04868e-317
5.03206e-320
0
0
0
0
0
0
0
0
0
0
0
0
0
0
0
0
0
0
0
0
0
0
0
0
0
0
0
0
0
0
0
0
0
0
0
0
0
0
0
0
0
0
0
0
0
0
0
0
0
0
0
0
0
0
0
0
0
0
0
0
0
0
0
0
0
0
0
0
0
0
0
0
0
0
0
0
0
0
0
0
0
0
0
0
0
0
0
0
0
0
0
0
0
0
0
0
0
0
0
0
0
0
0
0
0
0
0
0
0
0
0
0
0
0
0
0
0
0
0
0
0
0
0
0
0
0
0
0
0
0
0
0
0
0
0
0
0
0
0
0
0
0
0
0
0
0
0
0
0
0
0
0
0
0
0
0
0
0
0
0
0
0
0
0
0
0
0
0
0
0
0
0
0
0
0
0
0
0
0
0
0
0
0
0
0
0
0
0
0
0
0
0
0
0
0
0
0
0
0
0
0
0
0
0
0
0
0
0
0
0
0
0
0
0
0
0
0
0
0
0
0
0
0
0
0
0
0
0
0
0
0
0
0
0
0
0
0
0
0
0
0
0
0
0
0
0
0
0
0
0
0
0
0
0.00285389
0.00317131
0.0028503
0.000460005
5.75635e-05
4.90789e-06
6.12347e-07
9.95613e-08
3.55069e-08
5.33568e-09
3.75041e-10
1.18545e-11
2.55715e-13
2.39452e-15
7.62269e-14
3.51161e-12
6.7243e-10
3.26419e-08
1.20407e-06
4.20366e-06
9.41925e-06
1.29683e-05
1.33007e-05
8.95201e-06
4.19729e-06
2.10642e-06
3.78499e-07
1.23829e-08
8.0098e-11
2.33725e-13
1.7168e-15
2.44956e-19
6.79212e-22
5.31643e-24
8.63521e-27
1.99009e-29
7.41285e-32
1.82047e-34
6.5583e-37
1.00176e-39
1.32787e-42
1.66441e-45
1.97123e-48
3.5892e-51
9.85322e-63
6.99425e-64
1.62649e-66
4.67339e-69
2.05115e-70
3.64774e-71
1.27172e-72
1.14855e-74
3.40843e-77
6.83074e-80
1.7094e-83
1.05021e-86
1.61654e-89
2.44591e-92
3.53909e-95
4.86195e-98
6.53201e-101
8.35817e-104
6.00909e-107
5.05779e-110
4.71441e-113
4.71368e-116
4.81386e-119
2.72232e-121
2.32055e-123
2.74949e-126
2.72881e-129
2.4487e-132
2.0336e-135
1.66172e-138
6.03043e-148
1.89815e-149
3.33705e-152
4.23713e-155
4.45799e-158
4.46742e-161
4.20647e-164
4.07722e-167
3.22609e-171
3.20504e-175
4.94133e-179
6.27466e-183
5.58949e-187
6.60343e-191
3.28835e-195
9.82496e-200
2.20463e-204
3.78576e-209
5.81823e-214
7.55138e-219
8.25601e-224
7.47755e-229
5.69288e-234
3.67063e-239
2.04778e-244
1.64078e-249
1.02415e-252
1.74703e-255
3.545e-258
6.17634e-261
5.99049e-278
6.15058e-278
1.45927e-279
2.97797e-282
1.02339e-284
3.07261e-287
7.99804e-290
1.90048e-292
4.24201e-295
9.03687e-298
1.86545e-300
3.71816e-303
7.11256e-306
1.28179e-308
2.19155e-311
3.58605e-314
5.68513e-317
8.70593e-320
0
0
0
0
0
0
0
0
0
0
0
0
0
0
0
0
0
0
0
0
0
0
0
0
0
0
0
0
0
0
0
0
0
0
0
0
0
0
0
0
0
0
0
0
0
0
0
0
0
0
0
0
0
0
0
0
0
0
0
0
0
0
0
0
0
0
0
0
0
0
0
0
0
0
0
0
0
0
0
0
0
0
0
0
0
0
0
0
0
0
0
0
0
0
0
0
0
0
0
0
0
0
0
0
0
0
0
0
0
0
0
0
0
0
0
0
0
0
0
0
0
0
0
0
0
0
0
0
0
0
0
0
0
0
0
0
0
0
0
0
0
0
0
0
0
0
0
0
0
0
0
0
0
0
0
0
0
0
0
0
0
0
0
0
0
0
0
0
0
0
0
0
0
0
0
0
0
0
0
0
0
0
0
0
0
0
0
0
0
0
0
0
0
0
0
0
0
0
0
0
0
0
0
0
0
0
0
0
0
0
0
0
0
0
0
0
0
0
0
0
0
0
0
0
0
0
0
0
0
0
0
0
0
0
0
0
0
0
0
0
0
0
0
0
0
0
0
0
0
0
0
0
0.000474212
0.000645092
0.000459498
1.16566e-05
2.79466e-06
6.69056e-07
5.17014e-07
4.89047e-07
1.78612e-07
4.35169e-08
4.91672e-10
1.93719e-11
2.5245e-12
2.85944e-14
2.83145e-13
1.05242e-09
7.49952e-07
3.17102e-05
0.000367472
0.000627156
0.000781557
0.000718515
0.000710949
0.000779001
0.000664173
0.000576702
0.000384842
0.000199184
1.43633e-05
1.93919e-07
1.05822e-09
9.11821e-15
1.91081e-18
4.44762e-22
3.88768e-26
6.51847e-29
1.39685e-31
4.74133e-35
4.29752e-36
1.53938e-38
1.13827e-40
3.25393e-43
4.60256e-46
3.19862e-48
2.1648e-61
1.22124e-61
2.68201e-63
2.54665e-65
1.70351e-66
8.68871e-67
5.00992e-68
2.43563e-70
3.21009e-73
1.93877e-76
4.35229e-81
2.15872e-84
1.3027e-87
7.55532e-91
4.1176e-94
2.70974e-97
1.97636e-100
1.33197e-103
7.39108e-108
3.34324e-111
2.77053e-114
2.61182e-117
2.52943e-120
1.15279e-121
4.349e-123
1.04358e-125
2.9325e-128
4.23093e-131
3.34339e-134
1.68204e-137
1.0208e-147
4.55786e-149
7.57722e-152
7.92557e-155
6.26671e-158
4.6375e-161
3.1455e-164
2.39093e-167
1.73754e-170
1.62854e-173
1.8468e-177
2.16632e-181
2.42751e-185
3.51642e-189
1.52941e-193
4.81236e-198
8.38762e-203
1.43374e-207
2.21881e-212
3.1099e-217
3.87151e-222
3.84291e-227
3.2454e-232
2.19629e-237
1.4127e-242
6.8929e-248
4.35878e-253
2.57247e-256
5.47753e-259
4.77168e-262
1.09378e-278
8.34483e-279
1.2628e-280
3.69824e-283
1.34176e-285
4.07194e-288
1.13457e-290
2.84553e-293
6.61515e-296
1.48824e-298
3.11573e-301
6.50401e-304
1.3109e-306
2.50271e-309
4.32416e-312
6.96192e-315
1.03513e-317
1.41896e-320
1.97626e-323
0
0
0
0
0
0
0
0
0
0
0
0
0
0
0
0
0
0
0
0
0
0
0
0
0
0
0
0
0
0
0
0
0
0
0
0
0
0
0
0
0
0
0
0
0
0
0
0
0
0
0
0
0
0
0
0
0
0
0
0
0
0
0
0
0
0
0
0
0
0
0
0
0
0
0
0
0
0
0
0
0
0
0
0
0
0
0
0
0
0
0
0
0
0
0
0
0
0
0
0
0
0
0
0
0
0
0
0
0
0
0
0
0
0
0
0
0
0
0
0
0
0
0
0
0
0
0
0
0
0
0
0
0
0
0
0
0
0
0
0
0
0
0
0
0
0
0
0
0
0
0
0
0
0
0
0
0
0
0
0
0
0
0
0
0
0
0
0
0
0
0
0
0
0
0
0
0
0
0
0
0
0
0
0
0
0
0
0
0
0
0
0
0
0
0
0
0
0
0
0
0
0
0
0
0
0
0
0
0
0
0
0
0
0
0
0
0
0
0
0
0
0
0
0
0
0
0
0
0
0
0
0
0
0
0
0
0
0
0
0
0
0
0
0
0
0
0
0
0
0
0
4.77975e-05
7.25705e-05
4.01583e-05
7.66691e-06
2.87628e-06
9.0193e-06
1.99225e-05
3.63995e-05
1.40584e-05
4.13604e-06
2.05272e-07
2.37986e-09
2.29809e-11
1.03588e-13
1.34755e-10
1.58554e-06
0.000165457
0.000780821
0.00141159
0.00118765
0.000776128
0.000538679
0.000539423
0.000536144
0.000484518
0.000529581
0.000575128
0.000848427
0.000184505
8.97099e-05
3.22787e-05
7.72003e-08
1.75808e-11
1.91038e-15
7.17782e-20
5.95206e-23
4.2497e-26
4.50916e-30
1.4547e-33
2.12217e-37
1.68787e-39
1.54122e-41
5.08126e-44
2.51885e-45
9.97846e-57
6.87335e-56
2.80607e-57
1.48915e-59
7.00231e-62
1.4912e-62
1.36399e-63
1.8704e-65
1.50368e-67
2.20909e-70
1.18974e-73
4.62015e-77
1.72194e-80
6.92785e-84
2.81477e-87
1.23531e-90
6.35366e-94
2.1249e-97
8.56392e-102
4.33893e-105
2.79686e-108
1.86305e-111
1.22253e-114
8.71034e-118
6.60248e-120
5.41638e-123
3.51542e-126
1.5404e-129
8.41996e-133
1.91068e-136
2.92356e-142
1.36516e-143
1.76455e-146
1.30119e-149
8.38018e-153
4.91269e-156
2.85744e-159
1.50206e-162
9.40011e-166
7.09708e-169
6.76776e-172
6.02135e-176
1.47116e-179
1.38929e-183
5.124e-188
1.17549e-192
1.95121e-197
3.08739e-202
4.28849e-207
6.5054e-212
8.24114e-217
9.68921e-222
8.88397e-227
6.60973e-232
3.87896e-237
1.76031e-242
5.90429e-248
2.72202e-253
1.44685e-256
1.98551e-259
6.36148e-275
8.3778e-276
5.6654e-278
2.45243e-280
7.84025e-283
2.16259e-285
5.21823e-288
1.16191e-290
2.42304e-293
4.81597e-296
9.32174e-299
1.71663e-301
3.12764e-304
5.43896e-307
9.39096e-310
1.55888e-312
2.55114e-315
4.00192e-318
6.19558e-321
9.88131e-324
0
0
0
0
0
0
0
0
0
0
0
0
0
0
0
0
0
0
0
0
0
0
0
0
0
0
0
0
0
0
0
0
0
0
0
0
0
0
0
0
0
0
0
0
0
0
0
0
0
0
0
0
0
0
0
0
0
0
0
0
0
0
0
0
0
0
0
0
0
0
0
0
0
0
0
0
0
0
0
0
0
0
0
0
0
0
0
0
0
0
0
0
0
0
0
0
0
0
0
0
0
0
0
0
0
0
0
0
0
0
0
0
0
0
0
0
0
0
0
0
0
0
0
0
0
0
0
0
0
0
0
0
0
0
0
0
0
0
0
0
0
0
0
0
0
0
0
0
0
0
0
0
0
0
0
0
0
0
0
0
0
0
0
0
0
0
0
0
0
0
0
0
0
0
0
0
0
0
0
0
0
0
0
0
0
0
0
0
0
0
0
0
0
0
0
0
0
0
0
0
0
0
0
0
0
0
0
0
0
0
0
0
0
0
0
0
0
0
0
0
0
0
0
0
0
0
0
0
0
0
0
0
0
0
0
0
0
0
0
0
0
0
0
0
0
0
0
0
0
0
0.000215475
0.000291216
0.000381211
0.00212364
0.00305543
0.00182595
0.000966986
0.000893757
0.00061234
0.00022491
2.36792e-05
6.33274e-06
2.95695e-08
6.21969e-12
4.30247e-08
0.000129926
0.000533834
0.000229675
0.00166724
0.00290755
0.00248759
0.00189812
0.00110789
0.000653673
0.000407487
0.000237742
0.000162997
0.000138356
0.000141611
0.000246964
6.16388e-05
2.51052e-05
2.0413e-07
1.55326e-10
6.90999e-14
8.10853e-17
6.2e-20
5.14321e-24
8.34114e-28
3.99848e-32
2.47681e-36
2.90122e-40
1.26562e-42
8.13975e-43
1.50948e-51
3.77284e-51
8.91048e-54
6.65026e-57
1.41277e-59
3.25507e-60
3.61106e-61
2.85271e-63
1.47414e-65
1.00756e-67
7.93087e-70
2.06434e-72
1.28319e-75
6.36655e-79
3.32756e-82
1.70667e-85
9.15629e-89
5.49104e-92
3.23472e-95
2.03954e-98
1.27904e-101
7.72707e-105
4.9843e-108
2.63128e-111
1.40342e-114
5.49292e-118
2.15052e-121
6.16626e-125
1.63035e-128
3.02337e-132
5.23023e-137
3.40453e-138
4.48016e-141
3.20826e-144
1.88561e-147
1.06203e-150
5.34954e-154
3.23068e-157
1.96551e-160
1.41593e-163
1.24145e-166
1.28813e-169
6.77978e-173
4.17664e-177
1.24401e-181
2.56983e-186
3.57907e-191
4.72004e-196
5.63674e-201
7.11187e-206
9.44499e-211
1.25621e-215
1.45871e-220
1.31596e-225
8.96496e-231
4.14149e-236
1.30366e-241
3.38772e-247
1.18094e-252
4.20747e-256
1.96492e-270
9.17108e-272
3.63397e-274
1.33455e-276
3.92022e-279
9.74135e-282
2.1925e-284
4.54514e-287
9.02891e-290
1.72065e-292
3.17571e-295
5.72325e-298
9.95066e-301
1.71387e-303
2.85099e-306
4.73672e-309
7.527e-312
1.19454e-314
1.80759e-317
2.73021e-320
3.95253e-323
0
0
0
0
0
0
0
0
0
0
0
0
0
0
0
0
0
0
0
0
0
0
0
0
0
0
0
0
0
0
0
0
0
0
0
0
0
0
0
0
0
0
0
0
0
0
0
0
0
0
0
0
0
0
0
0
0
0
0
0
0
0
0
0
0
0
0
0
0
0
0
0
0
0
0
0
0
0
0
0
0
0
0
0
0
0
0
0
0
0
0
0
0
0
0
0
0
0
0
0
0
0
0
0
0
0
0
0
0
0
0
0
0
0
0
0
0
0
0
0
0
0
0
0
0
0
0
0
0
0
0
0
0
0
0
0
0
0
0
0
0
0
0
0
0
0
0
0
0
0
0
0
0
0
0
0
0
0
0
0
0
0
0
0
0
0
0
0
0
0
0
0
0
0
0
0
0
0
0
0
0
0
0
0
0
0
0
0
0
0
0
0
0
0
0
0
0
0
0
0
0
0
0
0
0
0
0
0
0
0
0
0
0
0
0
0
0
0
0
0
0
0
0
0
0
0
0
0
0
0
0
0
0
0
0
0
0
0
0
0
0
0
0
0
0
0
0
0
0
0.00511173
0.00590175
0.00858943
0.0108788
0.0102066
0.00811728
0.00500978
0.0033108
0.00233952
0.00138654
0.000713228
0.000366668
5.49513e-06
3.09714e-09
1.41771e-06
0.000355381
0.00130904
0.00257524
0.00406184
0.00455725
0.00448237
0.00454947
0.00277603
0.00129029
0.000568799
0.000279611
0.000154951
0.000105475
8.81166e-05
9.52469e-05
0.000121513
3.99629e-05
1.47739e-05
1.49005e-07
6.86823e-10
1.59949e-12
3.04075e-15
2.91578e-18
1.38227e-21
4.2873e-26
1.04551e-30
1.34969e-35
2.78862e-40
1.4157e-40
3.79433e-47
8.41111e-48
8.38964e-51
1.25466e-53
1.69628e-56
5.12486e-57
6.4987e-58
2.64696e-60
5.73205e-63
1.38106e-65
5.88402e-68
4.22975e-70
2.59297e-72
6.30349e-75
5.76219e-78
4.41005e-81
3.10866e-84
2.27499e-87
1.52857e-90
1.07304e-93
7.26322e-97
5.06583e-100
3.02334e-103
1.8347e-106
1.01634e-109
4.47733e-113
1.7839e-116
5.01674e-120
1.02343e-123
1.29815e-127
2.26726e-132
1.08011e-133
1.77644e-136
1.63275e-139
1.06747e-142
5.89772e-146
3.38931e-149
1.94026e-152
1.29676e-155
9.18002e-159
8.52624e-162
8.05742e-165
8.16665e-168
7.10974e-171
1.99355e-175
3.52238e-180
4.81517e-185
5.24144e-190
5.13608e-195
4.93035e-200
5.18206e-205
6.09244e-210
7.54917e-215
8.61868e-220
6.93259e-225
3.54054e-230
1.08214e-235
2.61538e-241
5.91888e-247
1.68199e-252
3.87398e-266
1.23283e-267
1.69745e-270
4.9304e-273
1.22482e-275
2.75993e-278
5.61242e-281
1.08855e-283
2.02048e-286
3.63299e-289
6.37216e-292
1.08497e-294
1.82316e-297
2.98311e-300
4.84099e-303
7.65618e-306
1.1868e-308
1.80808e-311
2.6741e-314
3.91607e-317
5.55676e-320
7.90505e-323
0
0
0
0
0
0
0
0
0
0
0
0
0
0
0
0
0
0
0
0
0
0
0
0
0
0
0
0
0
0
0
0
0
0
0
0
0
0
0
0
0
0
0
0
0
0
0
0
0
0
0
0
0
0
0
0
0
0
0
0
0
0
0
0
0
0
0
0
0
0
0
0
0
0
0
0
0
0
0
0
0
0
0
0
0
0
0
0
0
0
0
0
0
0
0
0
0
0
0
0
0
0
0
0
0
0
0
0
0
0
0
0
0
0
0
0
0
0
0
0
0
0
0
0
0
0
0
0
0
0
0
0
0
0
0
0
0
0
0
0
0
0
0
0
0
0
0
0
0
0
0
0
0
0
0
0
0
0
0
0
0
0
0
0
0
0
0
0
0
0
0
0
0
0
0
0
0
0
0
0
0
0
0
0
0
0
0
0
0
0
0
0
0
0
0
0
0
0
0
0
0
0
0
0
0
0
0
0
0
0
0
0
0
0
0
0
0
0
0
0
0
0
0
0
0
0
0
0
0
0
0
0
0
0
0
0
0
0
0
0
0
0
0
0
0
0
0
0
0.0111538
0.0112474
0.0109627
0.00975272
0.00911426
0.00831512
0.00562481
0.00441822
0.00417553
0.00334646
0.00237255
0.00119607
3.81748e-05
1.15198e-07
1.28153e-05
0.000653029
0.00354535
0.00442219
0.00321834
0.00266763
0.00270558
0.00350822
0.00452632
0.00302545
0.00115135
0.000453099
0.000185571
9.61841e-05
6.26515e-05
4.87293e-05
5.54775e-05
7.08856e-05
2.78841e-05
8.62211e-06
9.35748e-08
1.80098e-09
1.75668e-11
4.53953e-14
4.60422e-17
1.70213e-20
1.66441e-24
7.8665e-30
3.29809e-35
9.94709e-38
2.65445e-43
8.13111e-45
1.4226e-47
2.93839e-51
1.5071e-54
9.5386e-55
6.40738e-55
4.77421e-57
5.89301e-60
6.58822e-63
1.12337e-65
4.10914e-68
2.40997e-70
1.26554e-72
4.69686e-75
1.07169e-77
1.59218e-80
1.75004e-83
1.69595e-86
1.50081e-89
1.32748e-92
1.07831e-95
8.7423e-99
6.52593e-102
4.53964e-105
2.51626e-108
1.18743e-111
3.52376e-115
6.82268e-119
6.14422e-123
1.20774e-128
1.38499e-130
1.65962e-133
2.64986e-136
4.83698e-139
5.52695e-142
4.33187e-145
3.26165e-148
2.48054e-151
2.07234e-154
2.06347e-157
2.20807e-160
2.41131e-163
2.60988e-166
2.56333e-169
4.33782e-174
5.54881e-179
5.49014e-184
4.64202e-189
3.80846e-194
3.26732e-199
3.06967e-204
3.12968e-209
3.54157e-214
3.44069e-219
2.0608e-224
7.1479e-230
1.73059e-235
3.66264e-241
8.05599e-247
1.21751e-261
3.33301e-263
1.222e-266
2.12433e-269
4.47056e-272
8.68924e-275
1.62693e-277
2.89629e-280
5.04638e-283
8.55789e-286
1.40759e-288
2.30089e-291
3.62589e-294
5.78318e-297
8.83493e-300
1.37246e-302
2.03315e-305
3.04452e-308
4.35782e-311
6.26425e-314
8.70742e-317
1.21767e-319
1.4822e-322
0
0
0
0
0
0
0
0
0
0
0
0
0
0
0
0
0
0
0
0
0
0
0
0
0
0
0
0
0
0
0
0
0
0
0
0
0
0
0
0
0
0
0
0
0
0
0
0
0
0
0
0
0
0
0
0
0
0
0
0
0
0
0
0
0
0
0
0
0
0
0
0
0
0
0
0
0
0
0
0
0
0
0
0
0
0
0
0
0
0
0
0
0
0
0
0
0
0
0
0
0
0
0
0
0
0
0
0
0
0
0
0
0
0
0
0
0
0
0
0
0
0
0
0
0
0
0
0
0
0
0
0
0
0
0
0
0
0
0
0
0
0
0
0
0
0
0
0
0
0
0
0
0
0
0
0
0
0
0
0
0
0
0
0
0
0
0
0
0
0
0
0
0
0
0
0
0
0
0
0
0
0
0
0
0
0
0
0
0
0
0
0
0
0
0
0
0
0
0
0
0
0
0
0
0
0
0
0
0
0
0
0
0
0
0
0
0
0
0
0
0
0
0
0
0
0
0
0
0
0
0
0
0
0
0
0
0
0
0
0
0
0
0
0
0
0
0
0.0107111
0.00998836
0.00782169
0.00615964
0.00653647
0.00539744
0.0043337
0.00448476
0.00458895
0.00442537
0.00317237
0.00120568
3.86404e-05
3.31868e-07
0.00013395
0.00412835
0.00403959
0.00241602
0.00151631
0.00166132
0.00216432
0.00272516
0.00360272
0.00454556
0.00251888
0.000794089
0.000260581
0.000107991
5.71283e-05
4.1519e-05
3.422e-05
3.28351e-05
4.08614e-05
1.63733e-05
4.926e-06
1.38305e-07
2.83371e-09
5.91828e-11
2.99897e-13
2.84272e-16
1.14126e-19
7.58793e-24
8.20508e-30
7.47643e-34
8.33206e-40
1.19992e-41
8.64361e-45
5.76529e-49
4.3811e-52
3.04761e-52
2.75617e-52
2.51988e-54
3.68653e-57
3.99374e-60
4.50194e-63
7.89707e-66
2.73863e-68
1.31454e-70
5.48153e-73
1.6663e-75
3.93586e-78
7.64779e-81
1.33402e-83
2.06858e-86
2.90873e-89
3.56613e-92
3.82056e-95
3.70081e-98
3.1691e-101
2.40818e-104
1.4698e-107
5.91057e-111
1.2611e-114
1.06207e-118
1.44603e-125
1.20121e-127
5.79575e-131
5.05552e-134
8.80621e-137
1.85221e-139
3.38666e-142
4.86086e-145
5.98697e-148
6.74582e-151
8.47355e-154
1.03422e-156
1.30561e-159
1.47763e-162
1.67914e-165
1.68932e-168
2.0716e-173
1.75418e-178
1.24844e-183
8.45962e-189
5.97662e-194
4.4757e-199
3.7292e-204
3.35799e-209
3.19601e-214
2.25555e-219
9.09055e-225
2.38861e-230
5.19282e-236
1.10218e-241
2.19209e-257
4.23242e-259
6.00295e-263
4.8126e-266
6.92013e-269
1.07364e-271
1.66879e-274
2.62322e-277
4.05256e-280
6.24909e-283
9.4492e-286
1.42672e-288
2.13179e-291
3.17144e-294
4.68213e-297
6.85146e-300
9.86516e-303
1.4034e-305
1.95053e-308
2.68965e-311
3.62828e-314
4.88181e-317
6.44015e-320
3.45846e-323
0
0
0
0
0
0
0
0
0
0
0
0
0
0
0
0
0
0
0
0
0
0
0
0
0
0
0
0
0
0
0
0
0
0
0
0
0
0
0
0
0
0
0
0
0
0
0
0
0
0
0
0
0
0
0
0
0
0
0
0
0
0
0
0
0
0
0
0
0
0
0
0
0
0
0
0
0
0
0
0
0
0
0
0
0
0
0
0
0
0
0
0
0
0
0
0
0
0
0
0
0
0
0
0
0
0
0
0
0
0
0
0
0
0
0
0
0
0
0
0
0
0
0
0
0
0
0
0
0
0
0
0
0
0
0
0
0
0
0
0
0
0
0
0
0
0
0
0
0
0
0
0
0
0
0
0
0
0
0
0
0
0
0
0
0
0
0
0
0
0
0
0
0
0
0
0
0
0
0
0
0
0
0
0
0
0
0
0
0
0
0
0
0
0
0
0
0
0
0
0
0
0
0
0
0
0
0
0
0
0
0
0
0
0
0
0
0
0
0
0
0
0
0
0
0
0
0
0
0
0
0
0
0
0
0
0
0
0
0
0
0
0
0
0
0
0
0.00594662
0.00446384
0.0025875
0.00268051
0.00354041
0.00348459
0.00266911
0.00234746
0.00222817
0.00285165
0.0044386
0.00316573
0.000458138
9.74997e-06
2.45402e-05
5.03091e-05
0.000231765
0.00241239
0.00244214
0.00121142
0.00110364
0.00205057
0.00338578
0.00394931
0.00419135
0.00459637
0.00281984
0.000875412
0.000281145
0.000112491
5.76621e-05
3.64943e-05
2.84353e-05
2.16608e-05
1.94046e-05
2.20324e-05
1.44839e-05
4.22667e-06
3.79272e-07
8.13723e-09
6.68444e-11
3.51512e-13
7.99037e-16
3.34875e-19
2.59566e-24
2.39356e-29
1.39941e-33
6.15149e-37
1.65059e-37
9.5146e-40
7.70939e-43
1.15892e-45
5.54312e-48
1.13384e-48
1.18563e-49
8.39419e-52
1.23068e-54
1.4828e-57
1.72465e-60
2.48469e-63
5.01844e-66
1.50811e-68
5.44461e-71
1.70216e-73
4.29252e-76
9.04984e-79
1.69909e-81
2.97807e-84
4.79932e-87
7.46568e-90
1.1056e-92
1.59198e-95
2.33226e-98
3.25996e-101
4.31008e-104
3.81487e-107
1.82402e-110
3.25718e-114
2.27811e-117
4.7764e-120
1.53421e-122
2.43637e-125
1.39641e-128
1.03794e-131
1.42402e-134
2.83695e-137
5.28458e-140
8.71044e-143
1.20707e-145
1.632e-148
2.64111e-151
3.79168e-154
5.47402e-157
7.15684e-160
9.20462e-163
1.05394e-165
1.16096e-168
9.92921e-174
4.5374e-179
2.46554e-184
1.41567e-189
8.92307e-195
6.20092e-200
4.76385e-205
3.9578e-210
3.35693e-215
2.20244e-220
9.41224e-226
2.92107e-231
7.18427e-237
1.1385e-242
2.27752e-248
1.31841e-253
8.87933e-257
1.10306e-259
1.13603e-262
1.25145e-265
1.45323e-268
1.67975e-271
1.96464e-274
2.2803e-277
2.71131e-280
3.18103e-283
3.9228e-286
4.70555e-289
5.98162e-292
7.30521e-295
9.53934e-298
1.18438e-300
1.54316e-303
1.93555e-306
2.47744e-309
3.12599e-312
3.94746e-315
4.99323e-318
6.3438e-321
0
0
0
0
0
0
0
0
0
0
0
0
0
0
0
0
0
0
0
0
0
0
0
0
0
0
0
0
0
0
0
0
0
0
0
0
0
0
0
0
0
0
0
0
0
0
0
0
0
0
0
0
0
0
0
0
0
0
0
0
0
0
0
0
0
0
0
0
0
0
0
0
0
0
0
0
0
0
0
0
0
0
0
0
0
0
0
0
0
0
0
0
0
0
0
0
0
0
0
0
0
0
0
0
0
0
0
0
0
0
0
0
0
0
0
0
0
0
0
0
0
0
0
0
0
0
0
0
0
0
0
0
0
0
0
0
0
0
0
0
0
0
0
0
0
0
0
0
0
0
0
0
0
0
0
0
0
0
0
0
0
0
0
0
0
0
0
0
0
0
0
0
0
0
0
0
0
0
0
0
0
0
0
0
0
0
0
0
0
0
0
0
0
0
0
0
0
0
0
0
0
0
0
0
0
0
0
0
0
0
0
0
0
0
0
0
0
0
0
0
0
0
0
0
0
0
0
0
0
0
0
0
0
0
0
0
0
0
0
0
0
0
0
0
0
0
0
0
0
0
0
0
0
0
0
0
0
0
0
0
0
0
0
0
0.000894765
0.000893035
0.000568923
0.000625055
0.00113525
0.00170252
0.00154128
0.00106349
0.000586545
0.000620412
0.000647162
0.00110991
0.00443358
0.000178504
0.000527709
0.00157262
0.00124386
0.00132069
0.00106787
0.00102243
0.00250069
0.00429452
0.00245299
0.00277063
0.00340921
0.00271524
0.00122747
0.000448882
0.000170252
7.38663e-05
4.19816e-05
3.16391e-05
2.28309e-05
1.86141e-05
1.45143e-05
1.15801e-05
1.18487e-05
1.09074e-05
2.99669e-06
1.00546e-06
1.0791e-08
4.57999e-11
1.68517e-13
5.69648e-16
7.09047e-19
1.36554e-23
5.1177e-28
6.73576e-32
2.47563e-35
5.36232e-38
2.04981e-39
1.71494e-41
2.65283e-43
8.2722e-45
1.8685e-47
1.74998e-49
2.89388e-52
3.99279e-55
5.57407e-58
7.87482e-61
1.27026e-63
2.48587e-66
6.18438e-69
1.60428e-71
3.77997e-74
8.01336e-77
1.53069e-79
2.64007e-82
4.40015e-85
6.95508e-88
1.05843e-90
1.63554e-93
2.40587e-96
3.71439e-99
5.47213e-102
8.63396e-105
1.30665e-107
2.04422e-110
1.7462e-113
1.53643e-116
1.41471e-119
8.16273e-123
4.55658e-126
3.09324e-129
3.55325e-132
5.55685e-135
8.75665e-138
1.27547e-140
1.69856e-143
2.13741e-146
2.67747e-149
3.28658e-152
3.87121e-155
4.45039e-158
5.01893e-161
5.53591e-164
6.07289e-167
5.44513e-170
2.28452e-175
8.0773e-181
2.62629e-186
8.36645e-192
2.96319e-197
1.43574e-202
9.75276e-208
8.44198e-213
7.5688e-218
5.35359e-223
2.61735e-228
1.00227e-233
2.69589e-239
7.11797e-245
1.8292e-250
7.6169e-256
2.55382e-259
3.44725e-262
4.7461e-265
6.45542e-268
8.74658e-271
1.16035e-273
1.54202e-276
2.03783e-279
2.71126e-282
3.60373e-285
4.77618e-288
6.3051e-291
8.28909e-294
1.08623e-296
1.41404e-299
1.82742e-302
2.33787e-305
2.95594e-308
3.70156e-311
4.58382e-314
5.62063e-317
6.81366e-320
5.92879e-323
0
0
0
0
0
0
0
0
0
0
0
0
0
0
0
0
0
0
0
0
0
0
0
0
0
0
0
0
0
0
0
0
0
0
0
0
0
0
0
0
0
0
0
0
0
0
0
0
0
0
0
0
0
0
0
0
0
0
0
0
0
0
0
0
0
0
0
0
0
0
0
0
0
0
0
0
0
0
0
0
0
0
0
0
0
0
0
0
0
0
0
0
0
0
0
0
0
0
0
0
0
0
0
0
0
0
0
0
0
0
0
0
0
0
0
0
0
0
0
0
0
0
0
0
0
0
0
0
0
0
0
0
0
0
0
0
0
0
0
0
0
0
0
0
0
0
0
0
0
0
0
0
0
0
0
0
0
0
0
0
0
0
0
0
0
0
0
0
0
0
0
0
0
0
0
0
0
0
0
0
0
0
0
0
0
0
0
0
0
0
0
0
0
0
0
0
0
0
0
0
0
0
0
0
0
0
0
0
0
0
0
0
0
0
0
0
0
0
0
0
0
0
0
0
0
0
0
0
0
0
0
0
0
0
0
0
0
0
0
0
0
0
0
0
0
0
0
0
0
0
0
0
0
0
0
0
0
0
0
0
0
0
0
9.17379e-05
0.000114517
0.000129077
0.000147195
0.000158816
0.000154049
0.000177031
0.000135335
0.000143871
0.000155019
0.000140811
0.00012451
0.000187439
0.000668048
0.000459345
0.000345647
0.000872078
0.00326249
0.00146856
0.00332367
0.0013347
0.000475104
0.000513005
0.000790532
0.000819711
0.00057826
0.000323815
0.000141292
7.55196e-05
4.29673e-05
2.94239e-05
2.31323e-05
1.94671e-05
1.59337e-05
1.24978e-05
1.1964e-05
9.76316e-06
8.96374e-06
1.07987e-05
2.47884e-06
8.62645e-07
6.6997e-09
1.79359e-11
4.68079e-14
1.12577e-16
3.07315e-19
1.15825e-22
1.89699e-26
5.52268e-30
5.96252e-33
2.7663e-34
1.43016e-36
1.99336e-39
1.64814e-42
1.66546e-45
1.95072e-48
2.18334e-51
2.64893e-54
3.40577e-57
4.66236e-60
6.50944e-63
1.01308e-65
1.83553e-68
3.60483e-71
7.24848e-74
1.39903e-76
2.46725e-79
4.32e-82
6.86391e-85
1.08795e-87
1.71682e-90
2.59862e-93
3.94711e-96
6.31371e-99
9.97252e-102
1.66155e-104
2.54473e-107
4.49777e-110
6.49312e-113
7.39077e-116
5.80117e-119
3.67892e-122
2.10338e-125
1.36829e-128
1.22647e-131
1.40282e-134
1.70808e-137
2.00445e-140
2.39481e-143
2.8138e-146
3.18459e-149
3.61198e-152
3.95603e-155
4.36467e-158
4.70978e-161
5.0737e-164
5.73497e-167
5.81899e-170
3.0729e-175
1.46801e-180
6.42742e-186
2.56285e-191
1.01654e-196
4.12097e-202
1.82199e-207
9.75548e-213
6.58714e-218
5.41422e-223
4.29732e-228
2.78451e-233
1.31491e-238
5.73656e-244
2.14618e-249
8.11306e-255
3.3838e-260
6.66515e-264
8.92134e-267
1.19936e-269
1.58757e-272
2.07726e-275
2.71477e-278
3.52025e-281
4.6194e-284
6.05818e-287
8.07109e-290
1.07617e-292
1.44127e-295
1.92028e-298
2.53614e-301
3.33095e-304
4.31703e-307
5.54766e-310
6.9975e-313
8.71286e-316
1.0669e-318
1.29445e-321
0
0
0
0
0
0
0
0
0
0
0
0
0
0
0
0
0
0
0
0
0
0
0
0
0
0
0
0
0
0
0
0
0
0
0
0
0
0
0
0
0
0
0
0
0
0
0
0
0
0
0
0
0
0
0
0
0
0
0
0
0
0
0
0
0
0
0
0
0
0
0
0
0
0
0
0
0
0
0
0
0
0
0
0
0
0
0
0
0
0
0
0
0
0
0
0
0
0
0
0
0
0
0
0
0
0
0
0
0
0
0
0
0
0
0
0
0
0
0
0
0
0
0
0
0
0
0
0
0
0
0
0
0
0
0
0
0
0
0
0
0
0
0
0
0
0
0
0
0
0
0
0
0
0
0
0
0
0
0
0
0
0
0
0
0
0
0
0
0
0
0
0
0
0
0
0
0
0
0
0
0
0
0
0
0
0
0
0
0
0
0
0
0
0
0
0
0
0
0
0
0
0
0
0
0
0
0
0
0
0
0
0
0
0
0
0
0
0
0
0
0
0
0
0
0
0
0
0
0
0
0
0
0
0
0
0
0
0
0
0
0
0
0
0
0
0
0
0
0
0
0
0
0
0
0
0
0
0
0
0
0
0
0
0
1.09414e-05
1.98727e-05
2.06809e-05
1.75097e-05
1.66916e-05
2.03961e-05
2.39341e-05
2.64931e-05
3.12984e-05
3.25475e-05
3.50565e-05
3.4872e-05
4.39852e-05
7.60443e-05
7.44384e-05
8.11258e-05
0.000177242
0.00288345
0.00390522
0.000562895
0.0001706
0.00014942
0.000180633
0.000214127
0.000209242
0.000162664
0.000100945
5.81422e-05
3.75802e-05
2.53735e-05
2.07048e-05
1.69571e-05
1.50649e-05
1.33441e-05
1.29536e-05
1.19668e-05
1.05233e-05
8.82072e-06
8.17248e-06
7.67923e-06
1.55515e-06
4.82517e-07
2.09985e-09
3.52539e-12
4.84275e-15
7.44341e-18
1.19399e-20
1.30307e-23
1.18984e-26
8.08463e-30
5.42656e-33
3.95835e-36
2.95368e-39
2.24524e-42
2.01491e-45
2.10127e-48
2.42299e-51
3.15441e-54
4.13511e-57
5.68085e-60
8.37086e-63
1.25782e-65
1.95259e-68
3.084e-71
5.23548e-74
8.736e-77
1.36803e-79
2.14071e-82
3.28741e-85
5.05588e-88
7.36386e-91
1.06057e-93
1.54079e-96
2.29755e-99
3.37817e-102
4.83473e-105
6.80855e-108
9.57173e-111
1.26754e-113
1.47062e-116
1.28699e-119
1.04372e-122
7.37051e-126
5.54976e-129
4.44954e-132
4.39537e-135
4.85181e-138
5.17553e-141
5.38436e-144
5.56991e-147
5.76504e-150
5.85667e-153
5.97886e-156
5.98003e-159
6.39983e-162
6.47363e-165
6.55212e-168
5.39197e-171
2.09024e-176
6.81581e-182
1.97258e-187
5.34051e-193
1.62064e-198
6.33527e-204
3.4454e-209
2.32568e-214
1.75785e-219
1.3838e-224
1.12216e-229
9.05615e-235
6.52366e-240
4.2112e-245
2.22864e-250
1.08886e-255
4.85512e-261
6.65748e-266
6.34529e-269
8.47673e-272
1.12402e-274
1.48741e-277
1.95565e-280
2.56795e-283
3.37412e-286
4.43555e-289
5.88231e-292
7.84329e-295
1.05606e-297
1.42614e-300
1.92318e-303
2.58366e-306
3.42749e-309
4.50236e-312
5.80711e-315
7.41569e-318
9.30326e-321
9.88131e-324
0
0
0
0
0
0
0
0
0
0
0
0
0
0
0
0
0
0
0
0
0
0
0
0
0
0
0
0
0
0
0
0
0
0
0
0
0
0
0
0
0
0
0
0
0
0
0
0
0
0
0
0
0
0
0
0
0
0
0
0
0
0
0
0
0
0
0
0
0
0
0
0
0
0
0
0
0
0
0
0
0
0
0
0
0
0
0
0
0
0
0
0
0
0
0
0
0
0
0
0
0
0
0
0
0
0
0
0
0
0
0
0
0
0
0
0
0
0
0
0
0
0
0
0
0
0
0
0
0
0
0
0
0
0
0
0
0
0
0
0
0
0
0
0
0
0
0
0
0
0
0
0
0
0
0
0
0
0
0
0
0
0
0
0
0
0
0
0
0
0
0
0
0
0
0
0
0
0
0
0
0
0
0
0
0
0
0
0
0
0
0
0
0
0
0
0
0
0
0
0
0
0
0
0
0
0
0
0
0
0
0
0
0
0
0
0
0
0
0
0
0
0
0
0
0
0
0
0
0
0
0
0
0
0
0
0
0
0
0
0
0
0
0
0
0
0
0
0
0
0
0
0
0
0
0
0
0
0
0
0
0
0
0
0
8.70837e-06
9.6322e-06
1.0464e-05
1.11008e-05
1.14386e-05
1.16059e-05
1.20339e-05
1.20617e-05
1.20181e-05
1.22578e-05
1.30159e-05
1.44925e-05
1.71227e-05
2.33563e-05
2.9577e-05
3.34553e-05
4.30662e-05
0.000212906
0.000183123
8.54069e-05
6.06574e-05
5.83523e-05
6.42121e-05
7.1628e-05
6.71501e-05
5.80689e-05
4.13603e-05
3.00878e-05
2.27023e-05
1.89067e-05
1.52018e-05
1.30917e-05
1.27833e-05
1.25569e-05
1.21966e-05
1.17159e-05
1.08615e-05
9.98855e-06
8.93192e-06
8.70055e-06
3.98722e-06
7.74836e-07
1.75668e-07
2.06621e-10
9.63646e-14
3.90848e-17
1.93097e-20
7.89277e-24
4.51914e-27
2.16909e-30
1.10959e-33
5.52143e-37
3.08469e-40
1.81758e-43
1.49591e-46
1.54066e-49
1.95278e-52
2.86567e-55
4.35689e-58
6.68677e-61
1.02973e-63
1.61376e-66
2.51339e-69
3.86137e-72
5.73769e-75
8.47474e-78
1.18221e-80
1.66829e-83
2.2402e-86
3.07376e-89
4.08918e-92
5.48999e-95
7.35689e-98
9.85678e-101
1.30732e-103
1.72602e-106
2.17057e-109
2.62378e-112
2.93817e-115
3.09815e-118
3.00941e-121
2.58902e-124
2.13063e-127
1.89503e-130
1.64322e-133
1.47496e-136
1.3584e-139
1.235e-142
1.14036e-145
1.02296e-148
9.46688e-152
8.39476e-155
7.69568e-158
6.78808e-161
6.10366e-164
5.44857e-167
4.75587e-170
2.69357e-175
1.43303e-180
7.37955e-186
3.50774e-191
1.68284e-196
7.50194e-202
3.37452e-207
1.52557e-212
7.10013e-218
3.57356e-223
1.97569e-228
1.25743e-233
9.01471e-239
6.90207e-244
5.07536e-249
3.11261e-254
1.60515e-259
7.93658e-265
1.49846e-268
1.97923e-271
2.63017e-274
3.49238e-277
4.60412e-280
6.06506e-283
8.01349e-286
1.05888e-288
1.41773e-291
1.90852e-294
2.61808e-297
3.58698e-300
4.95291e-303
6.78705e-306
9.28042e-309
1.24751e-311
1.65893e-314
2.17179e-317
2.81469e-320
3.45846e-323
0
0
0
0
0
0
0
0
0
0
0
0
0
0
0
0
0
0
0
0
0
0
0
0
0
0
0
0
0
0
0
0
0
0
0
0
0
0
0
0
0
0
0
0
0
0
0
0
0
0
0
0
0
0
0
0
0
0
0
0
0
0
0
0
0
0
0
0
0
0
0
0
0
0
0
0
0
0
0
0
0
0
0
0
0
0
0
0
0
0
0
0
0
0
0
0
0
0
0
0
0
0
0
0
0
0
0
0
0
0
0
0
0
0
0
0
0
0
0
0
0
0
0
0
0
0
0
0
0
0
0
0
0
0
0
0
0
0
0
0
0
0
0
0
0
0
0
0
0
0
0
0
0
0
0
0
0
0
0
0
0
0
0
0
0
0
0
0
0
0
0
0
0
0
0
0
0
0
0
0
0
0
0
0
0
0
0
0
0
0
0
0
0
0
0
0
0
0
0
0
0
0
0
0
0
0
0
0
0
0
0
0
0
0
0
0
0
0
0
0
0
0
0
0
0
0
0
0
0
0
0
0
0
0
0
0
0
0
0
0
0
0
0
0
0
0
0
0
0
0
0
0
0
0
0
0
0
0
0
0
0
0
0
0
0
1.00054e-05
1.05697e-05
1.10112e-05
1.11174e-05
1.13095e-05
1.15612e-05
1.14212e-05
1.14194e-05
1.12233e-05
1.14555e-05
1.1443e-05
1.21921e-05
1.28689e-05
1.3837e-05
1.54149e-05
1.58319e-05
1.55726e-05
2.36793e-05
2.98981e-05
2.46589e-05
2.14454e-05
2.04323e-05
2.07812e-05
2.15424e-05
2.25828e-05
2.1796e-05
1.98687e-05
1.6602e-05
1.47046e-05
1.29616e-05
1.23627e-05
1.25594e-05
1.21299e-05
1.17262e-05
1.16186e-05
1.14608e-05
1.11954e-05
1.07782e-05
1.07248e-05
1.01961e-05
8.60413e-06
3.77095e-06
9.50183e-07
7.72879e-08
2.91078e-11
3.6218e-15
5.97574e-19
7.91683e-23
1.58083e-26
2.805e-30
6.65814e-34
1.86949e-37
7.19165e-41
3.77656e-44
3.06455e-47
3.60262e-50
5.64808e-53
1.01705e-55
1.86902e-58
3.36861e-61
5.92054e-64
1.01832e-66
1.70392e-69
2.73218e-72
4.19984e-75
6.15083e-78
8.56553e-81
1.17608e-83
1.49035e-86
1.92329e-89
2.30859e-92
2.80647e-95
3.26122e-98
3.77175e-101
4.30966e-104
4.80457e-107
5.25702e-110
5.68365e-113
5.76962e-116
5.70083e-119
5.6035e-122
4.88057e-125
4.60068e-128
3.9153e-131
3.46865e-134
2.85008e-137
2.42666e-140
1.96161e-143
1.61675e-146
1.28093e-149
1.02253e-152
7.97048e-156
6.15117e-159
4.74115e-162
3.55818e-165
2.7017e-168
1.77147e-171
6.4076e-177
1.96919e-182
5.33286e-188
1.33846e-193
3.28241e-199
8.78197e-205
2.87967e-210
1.2125e-215
6.1704e-221
3.47213e-226
2.05702e-231
1.21789e-236
6.54042e-242
3.05874e-247
1.25708e-252
4.6026e-258
1.55944e-263
5.01544e-268
6.2579e-271
8.42515e-274
1.14008e-276
1.5215e-279
2.03649e-282
2.71005e-285
3.62207e-288
4.83629e-291
6.52649e-294
8.84006e-297
1.21452e-299
1.67108e-302
2.32289e-305
3.21285e-308
4.45889e-311
6.10261e-314
8.29279e-317
1.10646e-319
1.4822e-322
0
0
0
0
0
0
0
0
0
0
0
0
0
0
0
0
0
0
0
0
0
0
0
0
0
0
0
0
0
0
0
0
0
0
0
0
0
0
0
0
0
0
0
0
0
0
0
0
0
0
0
0
0
0
0
0
0
0
0
0
0
0
0
0
0
0
0
0
0
0
0
0
0
0
0
0
0
0
0
0
0
0
0
0
0
0
0
0
0
0
0
0
0
0
0
0
0
0
0
0
0
0
0
0
0
0
0
0
0
0
0
0