/*--------------------------------*- C++ -*----------------------------------*\
| =========                 |                                                 |
| \\      /  F ield         | OpenFOAM: The Open Source CFD Toolbox           |
|  \\    /   O peration     | Version:  2.1.1                                 |
|   \\  /    A nd           | Web:      www.OpenFOAM.org                      |
|    \\/     M anipulation  |                                                 |
\*---------------------------------------------------------------------------*/
FoamFile
{
    version     2.0;
    format      ascii;
    class       volScalarField;
    location    "0.001550000";
    object      p;
}
// * * * * * * * * * * * * * * * * * * * * * * * * * * * * * * * * * * * * * //

dimensions      [1 -1 -2 0 0 0 0];

internalField   nonuniform List<scalar> 
12384
(
157461
164445
164480
170144
185381
205413
204486
208488
195783
194893
189897
173279
175129
153046
154781
156858
160878
160270
168421
172606
176901
179932
179023
178913
177043
178380
178710
176527
177435
177853
177657
176254
177929
178848
180272
183226
184190
183277
183010
176071
177551
174133
172070
173683
141262
141507
141304
143690
143261
145955
147143
148307
149082
149191
149038
147750
146413
145990
145903
146684
147462
149605
151579
153281
153434
153558
151388
151061
148948
143170
144934
141344
140961
141103
117409
117396
117372
116938
117045
116405
116542
115612
115830
114702
114958
113709
114179
112867
112672
112740
111356
111852
110582
110792
109786
110139
109081
109479
108552
108873
108207
108230
108195
107922
102872
102834
102819
102705
102723
102571
102607
102425
102399
102358
102194
102225
102036
102075
101905
101880
101831
101727
101741
101613
101660
101543
101586
101501
101527
101490
101480
101484
101468
101468
101333
101333
101333
101332
101331
101330
101330
101327
101328
101326
101326
101324
101325
101324
101324
101324
101323
101324
101324
101325
101324
101325
101325
101326
101325
101326
101326
101326
101326
101326
101326
101326
101326
101326
101326
101326
101325
101325
101324
101325
101324
101324
101323
101324
101323
101324
101323
101324
101324
101325
101324
101325
101325
101326
101325
101326
101326
101326
101326
101326
101326
101326
101326
101326
101325
101326
101325
101325
101324
101325
101324
101324
101323
101324
101323
101324
101323
101324
101324
101324
101324
101325
101325
101326
101325
101326
101326
101326
101326
101326
101326
101326
101326
101326
101325
101326
101325
101325
101324
101325
101324
101324
101323
101324
101323
101324
101323
101324
101324
101324
101324
101325
101325
101326
101325
101326
101326
101326
101326
101326
101326
101326
101326
101326
101326
101325
101326
101325
101325
101324
101325
101324
101324
101323
101324
101323
101324
101324
101324
101324
101324
101325
101325
101326
101325
101326
101326
101326
101326
101326
101326
101326
101326
101326
101325
101326
101325
101325
101324
101325
101324
101324
101323
101324
101323
101324
101323
101324
101323
101324
101324
101325
101325
101326
101325
101326
101326
101326
101326
101326
101327
101326
101327
101327
101326
101326
101325
101326
101324
101325
101324
101324
101323
101324
101323
101323
101323
101323
101324
101323
101324
101324
101325
101325
101325
101325
101326
101326
101326
101326
101327
101328
101327
101327
101326
101326
101325
101325
101324
101324
101323
101323
101322
101323
101322
101322
101322
101323
101322
101323
101323
101324
101323
101324
101324
101325
101325
101325
101325
101325
158958
165687
170582
171675
191531
199879
206751
202322
196233
191547
187434
177643
174438
164685
151783
157152
159030
165894
172675
176558
176824
176396
174796
172921
174737
176568
179725
186279
184051
184435
180383
182139
179744
181286
182071
182001
181582
182088
178310
179209
175638
176481
173620
173159
138594
138757
139246
139639
142468
142769
145028
146603
147803
148620
148705
148579
148460
147825
147416
147475
148141
149207
150781
151974
152710
152006
152366
148820
148802
145534
142233
143184
140606
140968
117376
117442
117279
117363
116922
116774
116358
115729
115833
114823
115050
113873
114105
113086
112589
112672
111405
111863
110470
110962
109753
110129
109231
109233
108870
108477
108542
108063
108056
108069
102870
102804
102797
102814
102693
102688
102539
102551
102362
102407
102215
102204
102111
101980
102007
101824
101882
101708
101766
101625
101637
101582
101552
101532
101505
101501
101480
101474
101476
101464
101330
101331
101330
101329
101329
101327
101327
101324
101325
101322
101323
101320
101321
101319
101320
101320
101320
101320
101320
101321
101320
101321
101320
101321
101321
101322
101322
101322
101322
101322
101322
101321
101322
101321
101322
101321
101321
101321
101320
101321
101320
101320
101319
101320
101319
101320
101319
101320
101320
101321
101320
101321
101321
101322
101321
101322
101321
101322
101322
101322
101322
101322
101321
101322
101321
101321
101321
101321
101320
101321
101320
101320
101319
101320
101319
101320
101319
101320
101319
101320
101320
101321
101320
101321
101321
101322
101321
101322
101322
101322
101322
101322
101322
101322
101321
101322
101321
101321
101320
101321
101320
101320
101319
101320
101319
101320
101319
101320
101319
101320
101320
101321
101320
101321
101321
101322
101321
101322
101322
101322
101322
101322
101322
101322
101322
101321
101321
101320
101321
101320
101321
101320
101320
101319
101320
101319
101320
101320
101320
101321
101320
101321
101321
101322
101321
101322
101321
101322
101322
101322
101322
101322
101322
101322
101321
101322
101321
101321
101320
101321
101320
101320
101319
101320
101319
101320
101319
101320
101319
101320
101320
101321
101320
101321
101321
101322
101321
101322
101322
101322
101322
101322
101322
101322
101322
101322
101321
101321
101320
101321
101320
101320
101319
101320
101319
101319
101320
101319
101320
101319
101320
101320
101321
101320
101321
101321
101321
101322
101321
101322
101323
101323
101323
101323
101322
101323
101321
101322
101320
101321
101319
101320
101318
101319
101318
101319
101318
101319
101318
101319
101318
101320
101319
101320
101320
101321
101321
101321
101321
101321
164947
170220
175949
182213
189921
199746
197640
189661
193190
187995
183124
181541
175920
169457
170601
169068
171601
175412
183178
183015
181556
178341
177154
181253
183761
190553
189384
191332
190277
186669
185416
179100
181896
182248
181861
179996
179366
176118
178647
176995
176476
177322
176211
176778
135816
135718
136836
136716
138048
140485
141847
143888
145805
147271
148575
149246
149180
148956
148616
148959
148939
149299
149849
150507
150556
151551
149991
149326
147997
145088
143225
142695
141432
140680
117400
117571
117607
117334
117263
116921
116692
116137
115583
115488
114551
114581
113489
113651
112438
112744
111465
111823
110537
110832
109938
109655
109578
108821
109083
108373
108268
108210
107857
108054
102895
103016
102909
102783
102800
102650
102653
102491
102441
102382
102211
102238
102097
101999
102002
101830
101883
101721
101751
101644
101625
101598
101535
101559
101487
101518
101471
101482
101472
101468
101341
101339
101339
101338
101336
101336
101334
101334
101332
101333
101330
101331
101329
101330
101329
101328
101329
101328
101330
101329
101331
101330
101331
101330
101332
101331
101332
101332
101332
101332
101332
101332
101331
101332
101331
101331
101331
101330
101331
101329
101330
101329
101330
101328
101329
101328
101329
101328
101330
101329
101330
101329
101331
101330
101332
101331
101332
101331
101332
101332
101332
101332
101332
101331
101332
101331
101332
101330
101331
101329
101330
101329
101330
101328
101329
101328
101329
101328
101330
101329
101331
101330
101331
101330
101332
101331
101332
101332
101332
101332
101332
101332
101332
101331
101332
101330
101331
101330
101331
101329
101330
101329
101330
101328
101329
101328
101329
101328
101330
101329
101331
101330
101331
101330
101332
101331
101332
101332
101332
101332
101332
101332
101331
101332
101331
101332
101330
101331
101330
101331
101329
101330
101328
101329
101328
101329
101328
101329
101329
101330
101330
101329
101331
101330
101332
101331
101332
101331
101332
101332
101332
101332
101332
101331
101332
101330
101331
101330
101331
101329
101330
101329
101330
101328
101329
101328
101329
101328
101330
101329
101331
101330
101331
101330
101332
101331
101332
101332
101332
101332
101332
101332
101332
101331
101332
101331
101332
101330
101331
101329
101330
101328
101329
101328
101329
101329
101328
101329
101328
101330
101329
101331
101330
101331
101330
101332
101331
101331
101332
101332
101333
101333
101333
101332
101333
101331
101332
101330
101331
101329
101330
101328
101329
101327
101328
101327
101328
101327
101329
101328
101329
101328
101330
101329
101331
101330
101331
101331
101331
101331
177468
181198
184522
190845
191470
194612
182328
203220
181542
185711
183479
181682
180423
179773
176590
176041
177428
180950
180154
181258
178427
178218
175151
179229
183627
182546
179356
166938
186296
196464
198029
197283
188408
182346
178549
177659
173061
176010
174725
175844
177917
177987
178067
175935
131926
132532
131892
134338
135093
136597
139410
142426
144732
146943
148820
150005
150966
151391
151095
149753
149657
149010
148465
148194
149255
148283
148930
148942
146873
145475
145559
141440
142789
140244
117226
117625
117533
117777
117685
117051
116782
116601
115654
115426
114964
114107
114115
113071
113131
112105
112233
111276
110888
110851
109908
109763
109736
108705
109089
108366
108160
108268
107875
107827
103167
102874
102924
102935
102749
102785
102585
102615
102397
102405
102289
102142
102178
101975
102031
101848
101871
101762
101715
101705
101586
101640
101524
101572
101491
101512
101478
101474
101471
101466
101340
101333
101334
101335
101333
101330
101332
101328
101330
101326
101328
101324
101326
101324
101323
101325
101323
101325
101323
101326
101323
101326
101323
101326
101324
101327
101325
101325
101326
101325
101326
101325
101327
101325
101325
101326
101324
101326
101323
101326
101323
101325
101322
101325
101322
101325
101322
101325
101323
101326
101323
101326
101323
101327
101324
101327
101324
101327
101325
101326
101326
101325
101325
101327
101324
101327
101324
101326
101323
101326
101323
101325
101322
101325
101322
101325
101322
101325
101322
101325
101323
101326
101323
101326
101324
101327
101325
101325
101326
101325
101326
101327
101324
101327
101324
101327
101324
101326
101323
101326
101323
101325
101322
101325
101322
101325
101322
101325
101322
101325
101323
101326
101323
101326
101324
101327
101325
101325
101326
101325
101326
101326
101327
101325
101327
101324
101327
101323
101326
101323
101326
101322
101325
101322
101325
101322
101325
101323
101325
101324
101323
101326
101323
101327
101324
101327
101324
101327
101325
101326
101326
101327
101325
101327
101324
101327
101324
101326
101323
101326
101323
101325
101322
101325
101322
101325
101322
101325
101322
101325
101323
101326
101323
101326
101324
101326
101325
101325
101326
101325
101327
101326
101327
101327
101325
101327
101324
101327
101323
101326
101323
101325
101322
101325
101322
101322
101325
101322
101325
101322
101325
101323
101326
101323
101326
101324
101327
101325
101325
101326
101327
101328
101325
101328
101325
101327
101324
101326
101323
101326
101322
101325
101321
101324
101321
101324
101321
101324
101321
101324
101321
101325
101322
101325
101323
101326
101324
101324
101326
101325
186425
185123
187216
186820
187424
187671
192699
178497
190510
180217
181375
180597
182321
181553
186378
180147
181527
181230
180411
180645
180582
178543
179471
176561
183662
187436
186011
181578
186478
181510
189580
206868
200668
188693
178080
173912
173676
172181
173038
174606
177159
177811
179718
179946
131310
130461
131337
129192
133310
134153
137687
141050
143760
146784
148733
150526
151937
152306
152306
151734
149306
149100
147139
147214
145642
146475
147619
146752
147587
145630
145992
142583
142621
141520
117255
117615
117782
117691
117517
117800
117000
116721
116218
115541
114768
114793
113607
113749
112602
112717
111638
111758
110684
110877
110031
109505
109659
108712
109017
108197
108362
107888
107995
107608
102971
103263
103028
102978
102959
102754
102770
102553
102573
102338
102368
102216
102112
102111
101952
101977
101796
101862
101677
101749
101602
101620
101560
101544
101505
101510
101469
101484
101460
101467
101336
101345
101337
101336
101337
101332
101333
101330
101329
101329
101326
101327
101325
101326
101324
101325
101324
101324
101324
101324
101325
101325
101325
101325
101326
101326
101326
101326
101326
101326
101326
101326
101326
101326
101325
101325
101325
101325
101325
101324
101324
101324
101324
101324
101324
101324
101324
101324
101324
101324
101325
101324
101325
101325
101326
101325
101326
101325
101326
101326
101326
101326
101326
101326
101326
101325
101325
101325
101325
101324
101324
101324
101324
101324
101324
101324
101324
101324
101324
101324
101325
101325
101325
101325
101326
101326
101326
101326
101326
101326
101326
101326
101326
101325
101326
101325
101326
101325
101325
101324
101325
101324
101324
101324
101324
101324
101324
101324
101324
101324
101325
101325
101325
101325
101326
101326
101326
101326
101326
101326
101326
101326
101326
101326
101325
101326
101325
101325
101325
101325
101324
101324
101324
101324
101324
101324
101324
101324
101324
101324
101324
101324
101325
101325
101326
101325
101326
101326
101326
101326
101326
101326
101326
101325
101326
101325
101326
101325
101325
101324
101325
101324
101324
101324
101324
101324
101324
101324
101324
101324
101325
101325
101325
101325
101326
101326
101326
101326
101326
101326
101326
101326
101326
101326
101326
101325
101325
101325
101325
101324
101324
101324
101324
101323
101323
101323
101323
101324
101324
101324
101324
101325
101324
101325
101325
101325
101326
101326
101326
101326
101327
101327
101327
101326
101327
101326
101326
101325
101325
101324
101324
101323
101323
101323
101323
101323
101323
101323
101323
101323
101324
101324
101324
101324
101325
101325
101325
101325
101326
101325
188709
189455
190219
189268
189361
188818
187254
194642
182820
184563
180649
180314
180739
183351
187669
180541
183052
181850
182328
180748
180103
178080
176974
178816
179006
184033
190366
196167
194235
185268
182304
190111
210049
197745
187664
172754
175712
172572
172922
173191
175021
176477
180212
179757
128687
127381
126433
129509
128881
132664
136538
140665
144097
146711
148919
150706
152023
152809
152631
152215
149414
148933
146004
144359
144518
145273
143926
146419
146178
146417
144979
144986
141011
142624
116664
117785
117791
118067
118236
117662
117841
116879
116351
116136
114987
114531
114275
113184
113302
112229
112311
111384
111387
110375
110625
109403
109683
108800
108821
108162
108300
107716
107833
107655
103588
103199
103343
103044
102975
102962
102717
102746
102493
102527
102285
102334
102129
102081
102061
101908
101868
101838
101723
101722
101634
101646
101549
101582
101498
101524
101472
101479
101461
101459
101354
101344
101349
101339
101339
101337
101334
101334
101331
101329
101330
101327
101327
101325
101326
101325
101325
101325
101325
101325
101325
101326
101325
101326
101326
101326
101326
101326
101326
101326
101326
101326
101327
101326
101326
101326
101326
101326
101325
101326
101325
101325
101324
101325
101324
101325
101324
101325
101324
101325
101325
101326
101325
101326
101326
101326
101326
101327
101326
101326
101326
101326
101326
101326
101326
101326
101325
101326
101325
101326
101325
101325
101324
101325
101324
101325
101324
101325
101324
101325
101325
101326
101325
101326
101326
101326
101326
101326
101326
101326
101326
101327
101326
101326
101326
101326
101326
101326
101325
101326
101325
101325
101324
101325
101324
101325
101324
101325
101324
101325
101325
101326
101325
101326
101326
101326
101326
101326
101326
101326
101327
101327
101327
101326
101326
101326
101326
101325
101326
101325
101325
101324
101325
101324
101325
101324
101325
101324
101325
101325
101325
101326
101325
101326
101326
101326
101326
101327
101326
101326
101326
101327
101326
101327
101326
101326
101326
101326
101325
101326
101325
101325
101324
101325
101324
101325
101324
101325
101324
101325
101325
101326
101325
101326
101326
101326
101326
101326
101326
101326
101327
101327
101327
101327
101326
101326
101326
101326
101325
101326
101324
101325
101324
101325
101324
101324
101325
101324
101325
101324
101325
101325
101326
101325
101326
101326
101326
101327
101326
101327
101327
101327
101327
101327
101326
101327
101326
101326
101325
101325
101324
101325
101323
101324
101323
101324
101323
101324
101323
101324
101324
101325
101325
101326
101325
101326
101326
101326
101326
101326
188860
189791
189928
189077
188497
188978
189325
185132
187270
181098
180683
180449
180029
180334
186866
181540
185222
182257
183158
182170
178425
176914
175123
173387
177841
181635
185023
198557
196995
190221
182907
183084
188023
201108
193703
184696
175409
172893
170867
172514
172795
173890
176162
180429
129268
127989
126628
125419
125989
132279
136157
140967
144288
147109
148869
150447
151583
152259
152506
151495
150039
147965
145589
143247
143644
141818
143969
144180
145183
145359
145174
144762
141109
141822
117293
117435
117851
118131
118113
118307
117681
117793
116607
115958
115949
114361
114244
113838
112760
112922
111834
112035
110847
110848
110431
109482
109570
108753
108793
108076
108134
107814
107451
107612
103314
103625
103317
103404
103075
102961
102939
102672
102693
102447
102456
102271
102200
102143
102001
102011
101866
101876
101742
101768
101631
101672
101562
101574
101515
101514
101478
101481
101452
101465
101345
101356
101346
101349
101340
101338
101337
101332
101332
101330
101328
101327
101326
101326
101324
101325
101324
101324
101324
101324
101324
101324
101325
101325
101325
101325
101325
101325
101325
101325
101325
101325
101325
101325
101325
101325
101325
101325
101325
101324
101324
101324
101324
101324
101324
101324
101324
101324
101324
101324
101324
101324
101325
101325
101325
101325
101325
101325
101326
101325
101325
101325
101325
101325
101325
101325
101325
101325
101325
101324
101324
101324
101324
101324
101324
101324
101324
101324
101324
101324
101324
101324
101325
101325
101325
101325
101325
101325
101325
101325
101325
101325
101325
101325
101325
101325
101325
101325
101325
101324
101324
101324
101324
101324
101324
101324
101324
101324
101324
101324
101324
101324
101325
101325
101325
101325
101325
101325
101325
101325
101325
101325
101325
101325
101325
101325
101325
101325
101324
101324
101324
101324
101324
101324
101324
101324
101324
101324
101324
101324
101324
101324
101325
101325
101325
101325
101325
101325
101325
101325
101325
101325
101325
101325
101325
101325
101325
101325
101325
101324
101324
101324
101324
101324
101324
101324
101324
101324
101324
101324
101324
101324
101325
101325
101325
101325
101325
101325
101325
101325
101326
101326
101325
101326
101325
101325
101325
101325
101325
101324
101324
101324
101324
101323
101323
101323
101323
101324
101324
101324
101324
101324
101324
101325
101325
101325
101325
101326
101326
101326
101326
101326
101326
101326
101326
101325
101325
101325
101325
101324
101324
101323
101323
101323
101323
101323
101323
101323
101323
101323
101324
101324
101324
101324
101325
101325
101325
101325
101325
101325
189939
190293
189829
190264
189840
189615
187915
187975
181919
179401
177742
178672
177676
179376
182232
184120
182887
184020
184226
182339
177116
174652
172729
174896
172290
178717
183675
188587
196528
197251
187125
181364
175069
186219
195391
186273
182114
179140
177607
172109
171745
171662
174788
172763
130531
128733
126528
126538
125254
133280
136819
141927
144969
147047
148695
149703
150815
151488
151489
150787
149634
147041
146490
142116
143369
142921
142043
142623
143704
145080
144665
144669
142049
141637
115671
117303
117434
119198
118914
118558
118395
117517
117629
116053
116152
114958
114284
113683
113373
112354
112457
111604
111121
110583
110525
109397
109803
108498
109092
107836
108352
107530
107587
107539
103957
103449
103816
103201
103389
103035
102944
102853
102626
102610
102382
102416
102161
102215
102048
101977
101962
101810
101832
101735
101668
101664
101577
101591
101510
101535
101466
101493
101446
101466
101372
101350
101360
101347
101349
101340
101339
101337
101333
101333
101330
101329
101328
101327
101327
101326
101326
101325
101325
101326
101325
101326
101326
101326
101326
101326
101326
101326
101326
101326
101326
101326
101326
101326
101326
101326
101326
101326
101325
101326
101325
101325
101325
101325
101325
101325
101325
101325
101325
101325
101325
101326
101326
101326
101326
101326
101326
101326
101326
101326
101326
101326
101326
101326
101326
101326
101326
101326
101325
101326
101325
101325
101325
101325
101325
101325
101325
101325
101325
101325
101325
101326
101326
101326
101326
101326
101326
101326
101326
101326
101326
101326
101326
101326
101326
101326
101326
101326
101325
101326
101325
101325
101325
101325
101325
101325
101325
101325
101325
101325
101325
101326
101326
101326
101326
101326
101326
101326
101326
101326
101326
101326
101326
101326
101326
101326
101326
101326
101326
101325
101325
101325
101325
101325
101325
101325
101325
101325
101325
101325
101325
101326
101325
101326
101326
101326
101326
101326
101326
101326
101326
101326
101326
101326
101326
101326
101326
101326
101325
101326
101325
101325
101325
101325
101325
101325
101325
101325
101325
101325
101325
101326
101326
101326
101326
101326
101326
101326
101326
101326
101327
101327
101327
101326
101326
101326
101326
101326
101325
101326
101325
101325
101325
101325
101324
101325
101325
101325
101325
101325
101325
101325
101326
101326
101326
101326
101326
101327
101327
101327
101327
101327
101327
101327
101326
101327
101326
101326
101325
101325
101325
101325
101324
101324
101324
101324
101324
101324
101324
101325
101325
101325
101325
101326
101326
101326
101326
101326
101327
101327
191523
191158
191046
190218
189234
188135
186052
181237
178051
176244
175720
175819
179831
179230
179759
179492
182358
185373
179502
183530
185013
181621
177186
173237
171242
171520
175811
173152
180906
186433
187637
195075
188774
187397
183199
187285
188385
185676
185676
184838
179494
177098
170494
170209
162323
152703
113891
125475
132387
126876
122548
128201
128831
134873
139966
143285
145548
147180
147992
148928
149531
150104
150444
150194
148681
146973
146068
141864
143522
140878
141153
141746
142670
142472
143290
141689
138601
131377
118202
122117
116974
118708
119888
119146
119623
119028
118550
118180
117243
117040
116006
114930
115092
113512
113663
112557
112231
111996
110894
111205
109967
109902
109395
108775
108639
107869
107931
107016
107046
106256
106108
105116
104637
104475
103788
104001
103350
103353
103063
102869
102879
102527
102565
102376
102242
102230
102039
102088
101892
101895
101818
101731
101741
101622
101647
101562
101540
101521
101483
101472
101451
101422
101421
101402
101369
101381
101356
101363
101349
101346
101341
101338
101333
101334
101329
101330
101326
101327
101325
101325
101325
101324
101324
101324
101324
101324
101325
101325
101325
101325
101325
101325
101325
101325
101326
101326
101325
101325
101325
101325
101325
101325
101325
101324
101324
101324
101324
101324
101324
101324
101324
101324
101324
101324
101324
101324
101324
101324
101325
101324
101325
101325
101325
101325
101325
101325
101326
101326
101325
101325
101325
101325
101325
101325
101325
101324
101325
101324
101324
101324
101324
101324
101324
101324
101324
101324
101324
101324
101324
101324
101325
101325
101325
101325
101325
101325
101325
101325
101326
101326
101325
101325
101325
101325
101325
101325
101325
101324
101324
101324
101324
101324
101324
101324
101324
101324
101324
101324
101324
101324
101324
101324
101325
101325
101325
101325
101325
101325
101325
101325
101326
101326
101325
101325
101325
101325
101325
101325
101325
101325
101324
101324
101324
101324
101324
101324
101324
101324
101324
101324
101324
101324
101324
101324
101325
101324
101325
101325
101325
101325
101325
101325
101326
101326
101325
101325
101325
101325
101325
101325
101325
101324
101324
101324
101324
101324
101324
101324
101324
101324
101324
101324
101324
101324
101324
101324
101325
101325
101325
101325
101325
101325
101325
101325
101326
101326
101325
101325
101325
101325
101325
101325
101325
101324
101324
101324
101324
101324
101324
101323
101323
101323
101323
101324
101324
101324
101324
101324
101324
101325
101325
101325
101325
101325
101325
101326
101326
101326
101326
101326
101326
101325
101325
101325
101325
101324
101324
101324
101324
101323
101323
101323
101323
101323
101323
101323
101324
101324
101324
101324
101325
101325
101325
101325
101326
101326
101326
101326
101327
101327
191069
191526
189885
189075
187768
185541
180772
174754
172687
170777
170140
172374
174543
178744
180635
176195
178850
179455
179889
183011
181189
180608
176736
174268
171467
171609
173469
177940
175646
183043
187881
185860
192444
186018
184137
188396
187079
192874
191808
187895
187422
181161
177099
166459
163984
155341
126282
136265
135296
133598
132040
129449
132826
137211
141832
144084
145836
146554
147283
147617
148497
149315
149635
149069
148610
146373
145889
142677
142919
140523
141184
140934
140565
141854
141210
140182
138322
133610
127336
123478
122835
121098
120403
120685
119557
119475
118618
117986
117884
116540
116699
115008
115301
113534
114122
112223
112811
111407
111364
110751
110036
110160
108974
109281
108208
108229
107609
107226
107054
106340
106202
104926
105289
104115
104067
103944
103412
103601
102924
103088
102800
102596
102597
102340
102416
102131
102167
102034
101939
101927
101792
101817
101675
101689
101620
101569
101570
101497
101518
101451
101468
101418
101435
101386
101399
101368
101364
101364
101349
101354
101341
101342
101337
101334
101334
101329
101330
101327
101328
101326
101326
101326
101326
101326
101326
101326
101326
101326
101326
101326
101326
101326
101326
101326
101326
101326
101326
101326
101326
101326
101326
101326
101326
101326
101325
101326
101325
101325
101325
101325
101325
101325
101325
101325
101325
101325
101325
101326
101326
101326
101326
101326
101326
101326
101326
101326
101326
101326
101326
101326
101326
101326
101326
101326
101326
101326
101325
101325
101325
101325
101325
101325
101325
101325
101325
101325
101325
101325
101325
101326
101326
101326
101326
101326
101326
101326
101326
101326
101326
101326
101326
101326
101326
101326
101326
101326
101326
101326
101325
101326
101325
101325
101325
101325
101325
101325
101325
101325
101325
101325
101325
101326
101326
101326
101326
101326
101326
101326
101326
101326
101326
101326
101326
101326
101326
101326
101326
101326
101326
101326
101326
101325
101325
101325
101325
101325
101325
101325
101325
101325
101325
101325
101325
101326
101326
101326
101326
101326
101326
101326
101326
101326
101326
101326
101326
101326
101326
101326
101326
101326
101326
101326
101325
101326
101325
101325
101325
101325
101325
101325
101325
101325
101325
101325
101325
101326
101326
101326
101326
101326
101326
101326
101326
101326
101326
101326
101326
101326
101326
101326
101326
101326
101326
101326
101325
101325
101325
101325
101325
101325
101325
101325
101325
101325
101325
101325
101326
101325
101326
101326
101326
101326
101326
101326
101327
101326
101327
101327
101327
101327
101327
101327
101326
101326
101326
101326
101325
101325
101325
101325
101325
101325
101324
101325
101324
101325
101325
101325
101325
101326
101326
101326
101326
101327
101327
101327
101327
101327
101327
101327
191383
188013
188416
187795
183786
179717
174187
172283
167181
165212
166014
165615
170084
173270
176857
178644
179429
180808
178840
177801
180056
178968
178385
175921
174420
173171
175279
176736
178474
180124
186103
188948
185348
185022
186620
182518
193428
187221
175758
198937
190067
186678
180246
171868
160834
160415
139277
136816
135897
135250
133851
136921
138220
139266
143273
143950
145515
145794
146154
146765
147329
147837
148079
148633
147808
147151
144410
144228
141654
140619
141181
139912
140818
140019
139989
139661
137003
134850
128336
127761
123377
122271
122007
120380
120566
119422
119030
118405
117476
117425
115939
116149
114316
114664
113366
112558
112745
111374
111802
110393
110665
109633
109331
109017
108162
108341
107237
107555
106457
106758
105472
105509
104905
104307
104510
103681
103825
103443
103129
103141
102766
102871
102464
102510
102334
102199
102184
102015
102052
101856
101897
101764
101722
101694
101608
101625
101530
101538
101496
101460
101468
101417
101435
101388
101401
101371
101373
101361
101356
101351
101344
101344
101335
101337
101331
101331
101327
101327
101326
101325
101325
101324
101324
101324
101324
101324
101324
101324
101325
101324
101325
101325
101325
101325
101325
101325
101325
101325
101325
101325
101324
101324
101324
101324
101324
101324
101324
101324
101324
101323
101324
101323
101324
101324
101324
101324
101324
101324
101324
101324
101325
101324
101325
101325
101325
101325
101325
101325
101325
101325
101325
101325
101324
101324
101324
101324
101324
101324
101324
101324
101324
101323
101324
101323
101324
101324
101324
101324
101324
101324
101324
101324
101324
101325
101325
101325
101325
101325
101325
101325
101325
101325
101325
101325
101325
101324
101324
101324
101324
101324
101324
101324
101324
101323
101324
101323
101324
101324
101324
101324
101324
101324
101324
101324
101324
101324
101325
101325
101325
101325
101325
101325
101325
101325
101325
101325
101325
101324
101324
101324
101324
101324
101324
101324
101324
101324
101324
101324
101324
101324
101324
101324
101324
101324
101324
101324
101324
101324
101325
101325
101325
101325
101325
101325
101325
101325
101325
101325
101325
101324
101324
101324
101324
101324
101324
101324
101324
101324
101324
101324
101324
101324
101324
101324
101324
101324
101324
101324
101324
101324
101325
101325
101325
101325
101325
101325
101325
101325
101325
101325
101325
101324
101324
101324
101324
101324
101324
101323
101324
101323
101323
101323
101323
101324
101323
101324
101324
101324
101324
101325
101325
101325
101325
101325
101325
101325
101325
101325
101325
101325