/*--------------------------------*- C++ -*----------------------------------*\
| =========                 |                                                 |
| \\      /  F ield         | OpenFOAM: The Open Source CFD Toolbox           |
|  \\    /   O peration     | Version:  2.1.1                                 |
|   \\  /    A nd           | Web:      www.OpenFOAM.org                      |
|    \\/     M anipulation  |                                                 |
\*---------------------------------------------------------------------------*/
FoamFile
{
    version     2.0;
    format      ascii;
    class       volScalarField;
    location    "0.001550000";
    object      sL;
}
// * * * * * * * * * * * * * * * * * * * * * * * * * * * * * * * * * * * * * //

dimensions      [0 1 -1 0 0 0 0];

internalField   nonuniform List<scalar> 
12384
(
1.31727
1.39188
1.39579
1.76564
2.09721
2.16918
2.11534
2.07595
2.18178
2.31069
2.42029
2.42794
2.44553
2.32515
1.80236
1.68435
1.36628
1.30826
1.27681
1.2711
1.26073
1.26057
1.25033
1.23065
1.207
1.19288
1.20124
1.25422
1.33306
1.43953
1.5334
1.7212
1.94134
2.12948
2.26553
2.3638
2.44089
2.45969
2.47905
2.44514
2.45346
2.43412
2.42281
2.42761
2.08877
1.9795
1.88284
1.80413
1.7173
1.66566
1.65024
1.67076
1.73227
1.82512
1.91758
2.00373
2.07529
2.13631
2.19167
2.23401
2.26654
2.29685
2.31926
2.33497
2.33658
2.33889
2.32805
2.32806
2.3166
2.28866
2.2983
2.28127
2.28004
2.2803
2.12854
2.12152
2.12557
2.13058
2.13725
2.14054
2.14624
2.14473
2.14764
2.14119
2.14334
2.13514
2.13917
2.12998
2.13059
2.12877
2.12303
2.12405
2.11832
2.11846
2.11351
2.11498
2.10932
2.11136
2.10616
2.10798
2.10416
2.10418
2.10402
2.10363
2.07352
2.07192
2.07169
2.07102
2.07105
2.07012
2.07025
2.06908
2.06882
2.06848
2.06745
2.06744
2.0661
2.06613
2.06502
2.0648
2.06453
2.06404
2.06422
2.06357
2.06385
2.06322
2.06349
2.06304
2.06324
2.06307
2.06298
2.06304
2.063
2.06499
2.06417
2.06216
2.06206
2.06198
2.06192
2.06181
2.06174
2.06164
2.06157
2.06145
2.06137
2.06125
2.06104
2.06091
2.0608
2.0608
2.06091
2.06106
2.06123
2.06134
2.06142
2.06152
2.06159
2.06167
2.06175
2.06183
2.06189
2.06198
2.06207
2.06412
2.06413
2.06209
2.06198
2.06187
2.06188
2.0618
2.06172
2.06162
2.06154
2.06144
2.06136
2.06124
2.06106
2.06093
2.06081
2.06079
2.06086
2.06104
2.06126
2.06139
2.06149
2.06159
2.06166
2.06173
2.0618
2.06188
2.06193
2.062
2.06209
2.06413
2.06413
2.06211
2.06201
2.06191
2.06184
2.06175
2.06166
2.06158
2.0615
2.06143
2.06135
2.06123
2.06105
2.06091
2.06078
2.06078
2.06089
2.06106
2.06123
2.06134
2.06142
2.06152
2.06159
2.06167
2.06174
2.06183
2.06189
2.06198
2.06207
2.06412
2.06413
2.06209
2.06202
2.06191
2.06185
2.06175
2.06168
2.0616
2.06153
2.06145
2.06138
2.06126
2.06106
2.06091
2.06078
2.06079
2.06089
2.06105
2.06123
2.06134
2.06142
2.06152
2.06159
2.06167
2.06175
2.06184
2.06189
2.06198
2.06207
2.06412
2.06413
2.06214
2.06202
2.0619
2.06184
2.06173
2.06165
2.06158
2.0615
2.06141
2.06134
2.06124
2.06108
2.06093
2.06082
2.06079
2.06087
2.06104
2.06127
2.06138
2.06144
2.06155
2.06164
2.06171
2.06177
2.06188
2.06194
2.06204
2.06212
2.06413
2.06412
2.06209
2.062
2.0619
2.06184
2.06174
2.06166
2.06158
2.06152
2.06144
2.06136
2.06125
2.06106
2.06092
2.06079
2.06078
2.06088
2.06105
2.06123
2.06134
2.06142
2.06152
2.0616
2.06168
2.06176
2.06185
2.0619
2.06198
2.06206
2.06412
2.06413
2.06208
2.06199
2.06193
2.06188
2.0618
2.0617
2.06162
2.06152
2.06143
2.06134
2.06122
2.06105
2.0609
2.06078
2.06079
2.06089
2.06103
2.06123
2.06135
2.06143
2.06151
2.0616
2.06168
2.06176
2.06184
2.06189
2.06199
2.06209
2.06413
2.06413
2.06209
2.06199
2.06189
2.06182
2.06172
2.06167
2.06158
2.06152
2.06144
2.06138
2.06127
2.06109
2.06094
2.06082
2.06078
2.06089
2.06105
2.06119
2.06131
2.06141
2.06151
2.0616
2.06168
2.06176
2.06185
2.0619
2.06196
2.06206
2.06413
1.14689
1.18778
1.13666
0.940844
1.00393
0.875333
0.777403
0.651787
0.783613
0.889701
1.40506
1.65087
2.0949
2.17656
1.14126
0.640894
0.649043
0.791069
0.928979
1.00977
1.05732
1.08089
1.0805
1.03787
0.970431
0.903219
0.797547
0.658056
0.517318
0.421558
0.371683
0.408564
0.453919
0.56961
0.754361
0.934123
1.25353
1.66942
2.00063
2.22876
2.36029
2.43078
2.45102
2.44323
0.829085
0.55895
0.434701
0.422194
0.421047
0.410116
0.401879
0.395804
0.385927
0.400404
0.431355
0.49349
0.579442
0.673022
0.783735
0.905723
1.03896
1.17477
1.31701
1.48571
1.65252
1.82752
2.00694
2.12065
2.19317
2.21188
2.21862
2.22999
2.22841
2.24673
1.03021
0.992556
1.02747
1.07994
1.13417
1.21273
1.28782
1.37995
1.45727
1.54425
1.60705
1.67415
1.72063
1.76518
1.79799
1.82937
1.8562
1.88219
1.9059
1.92606
1.94061
1.95584
1.96468
1.97586
1.98318
1.98961
1.99481
1.99488
1.99826
2.05597
1.93352
1.87389
1.87581
1.88141
1.89001
1.8966
1.90047
1.90531
1.90707
1.90996
1.91006
1.91085
1.90674
1.90284
1.90201
1.90117
1.9061
1.90937
1.91547
1.91627
1.91932
1.91999
1.92243
1.92373
1.92612
1.92753
1.92646
1.92911
1.92897
2.0138
2.01256
1.92608
1.92436
1.9209
1.92049
1.91672
1.91593
1.91195
1.91118
1.90677
1.90528
1.90065
1.89656
1.892
1.88867
1.89007
1.89191
1.89751
1.90022
1.90425
1.9054
1.90961
1.91044
1.91442
1.91559
1.91921
1.92045
1.92229
1.92614
2.0106
2.01288
1.92529
1.92362
1.92031
1.91954
1.91777
1.91368
1.91247
1.90834
1.90715
1.90292
1.90172
1.89643
1.89343
1.88957
1.88982
1.89068
1.89687
1.90087
1.90604
1.908
1.9125
1.91318
1.91687
1.91759
1.92109
1.92135
1.92439
1.926
2.01273
2.01286
1.9249
1.92191
1.92059
1.91715
1.91636
1.91229
1.9115
1.90766
1.90685
1.90286
1.90168
1.89613
1.89278
1.88875
1.88972
1.89141
1.89717
1.90014
1.90428
1.9054
1.90957
1.91037
1.91432
1.91544
1.91904
1.92028
1.92229
1.92604
2.01058
2.01092
1.92717
1.92282
1.92184
1.91829
1.91751
1.9136
1.91287
1.90909
1.90822
1.90411
1.90249
1.89664
1.89282
1.88878
1.88983
1.89147
1.89705
1.90001
1.90415
1.90533
1.90954
1.91039
1.91438
1.91552
1.91911
1.92036
1.92231
1.9261
2.01055
2.01045
1.92605
1.9229
1.91941
1.91852
1.91479
1.91385
1.91003
1.90942
1.90558
1.90472
1.90078
1.89825
1.89254
1.89068
1.88859
1.89173
1.89561
1.90224
1.90542
1.90732
1.91163
1.91273
1.91655
1.9173
1.92088
1.92118
1.92447
1.92587
2.01287
2.01044
1.9267
1.9224
1.92137
1.91787
1.91712
1.91322
1.91244
1.90868
1.90788
1.90385
1.90239
1.89682
1.89316
1.88896
1.88965
1.89115
1.89674
1.89989
1.90409
1.90533
1.9096
1.91051
1.91451
1.91568
1.9193
1.92059
1.92234
1.92617
2.0106
2.01289
1.92506
1.92299
1.92149
1.91837
1.91741
1.91322
1.91219
1.90809
1.90699
1.90271
1.90136
1.89588
1.89267
1.88897
1.88899
1.8924
1.89598
1.90158
1.90301
1.90717
1.90818
1.91215
1.91303
1.91707
1.91785
1.92121
1.92254
1.92497
2.01286
2.01065
1.92649
1.92189
1.92085
1.91706
1.91642
1.91237
1.91181
1.90796
1.90756
1.90355
1.90242
1.8972
1.89387
1.88935
1.88958
1.89097
1.89643
1.89967
1.9038
1.905
1.90933
1.91022
1.91437
1.91545
1.91916
1.92058
1.92224
1.92618
2.01059
0.631597
0.689969
0.619752
0.284157
0.264571
0.204289
0.202798
0.225059
0.258778
0.273978
0.308727
0.380046
0.810787
1.15986
0.355283
0.631938
1.13567
1.49604
1.35839
1.41296
1.60674
1.70374
1.7129
1.6024
1.53901
1.52178
1.62421
1.69986
1.54227
1.15975
0.717349
0.367742
0.240798
0.188616
0.169339
0.170912
0.187058
0.229098
0.405452
0.749299
1.27833
1.86728
2.21165
2.31866
0.195593
0.220387
0.304012
0.418137
0.592834
0.716301
0.70509
0.583388
0.435764
0.320559
0.253682
0.214071
0.186985
0.171824
0.162864
0.15493
0.153072
0.150573
0.149473
0.148207
0.147832
0.154085
0.162788
0.189318
0.252652
0.336475
0.473694
0.614281
0.711767
0.797044
0.129116
0.137876
0.141673
0.143652
0.142237
0.142738
0.141167
0.143891
0.141285
0.146211
0.142775
0.147833
0.144372
0.149978
0.147953
0.152021
0.14909
0.149752
0.147437
0.147756
0.148025
0.147785
0.149535
0.149569
0.152088
0.153628
0.157184
0.160474
0.163128
0.138939
0.115444
0.141759
0.144749
0.14487
0.146113
0.146343
0.147665
0.148687
0.149589
0.150922
0.151533
0.153194
0.155355
0.157751
0.1588
0.159142
0.15843
0.156445
0.154988
0.154131
0.153606
0.15317
0.152538
0.152027
0.151162
0.150976
0.150922
0.150523
0.149877
0.115769
0.115752
0.150368
0.151828
0.152775
0.153344
0.154192
0.15493
0.155848
0.156616
0.157732
0.158771
0.160082
0.162242
0.163972
0.165064
0.164961
0.163716
0.161863
0.160218
0.159142
0.158214
0.157162
0.156383
0.155483
0.154605
0.153748
0.152996
0.15228
0.151058
0.115772
0.11577
0.150926
0.15215
0.153161
0.153285
0.1542
0.155317
0.156189
0.157177
0.158102
0.159165
0.16014
0.161805
0.163542
0.164717
0.165083
0.164275
0.162209
0.160085
0.158577
0.157358
0.15615
0.155429
0.154613
0.153925
0.153171
0.152692
0.151831
0.150426
0.11575
0.115811
0.151099
0.152307
0.153294
0.154136
0.154831
0.155796
0.156508
0.157365
0.158156
0.159133
0.160133
0.161933
0.163822
0.165056
0.165094
0.163909
0.16199
0.160216
0.159107
0.158185
0.15716
0.15639
0.155503
0.154645
0.153822
0.153055
0.152284
0.151086
0.115773
0.115775
0.150567
0.152038
0.152943
0.153679
0.154395
0.155257
0.155987
0.156812
0.157649
0.15866
0.159843
0.161764
0.163836
0.165058
0.165063
0.163894
0.162044
0.160283
0.159167
0.158221
0.157176
0.156388
0.155482
0.15461
0.153784
0.153025
0.152275
0.151082
0.115773
0.115756
0.150967
0.152349
0.153414
0.154083
0.154914
0.155693
0.156519
0.157214
0.158097
0.158931
0.159974
0.161553
0.163446
0.164711
0.165159
0.164338
0.162285
0.159885
0.15839
0.157715
0.156449
0.155606
0.154738
0.154031
0.153241
0.152717
0.151846
0.150517
0.115754
0.115784
0.150854
0.152221
0.153103
0.153819
0.154528
0.15539
0.156145
0.15696
0.157759
0.158746
0.159861
0.161667
0.163676
0.164976
0.165135
0.16403
0.162176
0.160341
0.159202
0.158237
0.157163
0.156358
0.155446
0.154563
0.1537
0.152926
0.152248
0.151041
0.115771
0.115781
0.151059
0.15226
0.152765
0.153665
0.154444
0.155482
0.156287
0.157247
0.158139
0.159204
0.16027
0.162002
0.163822
0.165129
0.165101
0.163912
0.161974
0.160179
0.159093
0.158059
0.157199
0.15628
0.155531
0.154565
0.15389
0.153034
0.152311
0.151132
0.115794
0.115789
0.15092
0.152402
0.153311
0.154092
0.15479
0.15565
0.156374
0.157161
0.157873
0.15879
0.159842
0.161441
0.163393
0.164793
0.165217
0.16414
0.162313
0.160446
0.159344
0.158358
0.157283
0.156448
0.155504
0.154634
0.153749
0.152943
0.152312
0.151106
0.115774
0.321561
0.360375
0.304582
0.195069
0.151969
0.20244
0.25265
0.295693
0.318173
0.313782
0.285058
0.236449
0.256074
0.36718
0.421056
1.29731
1.97666
1.63497
1.92679
1.96455
2.04701
2.09382
2.10253
2.09122
2.09019
2.08378
2.07985
2.06622
2.00496
2.48821
2.50841
1.78774
0.969117
0.557002
0.394299
0.309192
0.243252
0.207163
0.190598
0.210016
0.320103
0.799045
1.35484
1.77333
0.273266
0.677508
1.33734
2.01672
2.40243
2.57691
2.64398
2.54669
2.14071
1.55733
1.05975
0.744415
0.562457
0.452833
0.374759
0.322015
0.285779
0.257619
0.237418
0.218211
0.204896
0.190003
0.17754
0.17166
0.164674
0.163166
0.164577
0.163703
0.177352
0.178061
0.263535
0.29208
0.277825
0.257332
0.242785
0.225649
0.213895
0.2002
0.191891
0.182179
0.177924
0.171493
0.169036
0.165384
0.162645
0.1614
0.158454
0.158706
0.15543
0.156691
0.153704
0.154045
0.153
0.15211
0.15151
0.151274
0.150328
0.150935
0.14931
0.144369
0.149828
0.152976
0.152535
0.152445
0.151545
0.151321
0.15075
0.150535
0.150194
0.149975
0.149919
0.149592
0.14973
0.14948
0.149608
0.149373
0.149475
0.149258
0.149317
0.14921
0.14925
0.149166
0.149261
0.14914
0.149276
0.149196
0.149259
0.149296
0.149008
0.142734
0.142669
0.149076
0.149478
0.149422
0.149537
0.149447
0.149576
0.149484
0.14962
0.149533
0.149673
0.149588
0.149716
0.149754
0.149722
0.14982
0.149677
0.149731
0.149583
0.149664
0.149533
0.149617
0.149493
0.149572
0.149452
0.149519
0.149414
0.149379
0.149031
0.142727
0.142629
0.149039
0.149479
0.149418
0.149448
0.149536
0.149463
0.149595
0.149507
0.149642
0.149554
0.149689
0.149621
0.149773
0.149705
0.149819
0.149692
0.149741
0.149586
0.14966
0.149527
0.149605
0.149474
0.149561
0.149432
0.149525
0.149397
0.14947
0.14906
0.142635
0.142636
0.149066
0.149381
0.149497
0.149432
0.149558
0.14947
0.149601
0.14951
0.149644
0.149556
0.149691
0.149627
0.149782
0.14972
0.149821
0.149683
0.149732
0.149585
0.149664
0.149535
0.149617
0.149494
0.149572
0.149453
0.149522
0.149412
0.149386
0.14903
0.142731
0.142719
0.149057
0.14936
0.149504
0.149429
0.14955
0.149467
0.149593
0.149506
0.149635
0.149552
0.149684
0.149625
0.149782
0.149721
0.149818
0.149682
0.149733
0.149586
0.149664
0.149535
0.149617
0.149493
0.149572
0.149452
0.149521
0.149414
0.149386
0.149027
0.142732
0.142748
0.149034
0.149456
0.149407
0.149537
0.149451
0.149578
0.14949
0.149619
0.149529
0.149662
0.149578
0.149723
0.149668
0.149807
0.149722
0.149792
0.149638
0.149671
0.14957
0.149529
0.149607
0.149478
0.149562
0.149434
0.149525
0.149396
0.14947
0.149054
0.142639
0.142738
0.149045
0.149362
0.149509
0.149433
0.149555
0.149471
0.149596
0.149509
0.149636
0.149553
0.149684
0.149623
0.149777
0.149718
0.149821
0.149686
0.149736
0.149587
0.149665
0.149536
0.149616
0.149493
0.149571
0.149452
0.149516
0.149415
0.149378
0.149032
0.142727
0.142641
0.149046
0.149473
0.149483
0.149428
0.149555
0.149466
0.149599
0.149508
0.149642
0.149555
0.149689
0.149625
0.149778
0.149726
0.149727
0.14978
0.149625
0.149687
0.149554
0.149642
0.149508
0.149601
0.149468
0.149559
0.14943
0.149503
0.149443
0.149054
0.142642
0.142733
0.149054
0.149365
0.149511
0.149431
0.14956
0.14947
0.149602
0.149506
0.149643
0.149546
0.149687
0.149612
0.149774
0.149708
0.149824
0.149691
0.149744
0.149594
0.149677
0.149547
0.149633
0.149504
0.149587
0.149462
0.149527
0.149424
0.149385
0.14903
0.142726
0.80734
0.825196
0.938622
2.21468
2.46247
1.44055
0.771231
0.761044
0.669156
0.4995
0.382965
0.446399
0.289012
0.190823
0.789028
2.06893
1.85056
2.12408
1.88127
1.72761
1.77064
1.85807
1.97695
2.07511
2.10199
2.11032
2.10439
2.10712
2.09822
2.1238
2.09402
3.02883
2.40771
1.54823
0.971243
0.689162
0.515583
0.38751
0.283569
0.227081
0.202243
0.275279
0.515387
1.01708
0.606117
1.62899
2.4554
2.69941
2.76917
2.83541
2.94819
3.01946
3.04643
2.97627
2.58135
1.93714
1.41377
1.08717
0.889228
0.742848
0.638321
0.568456
0.509188
0.463145
0.425481
0.387248
0.361341
0.328457
0.297371
0.264596
0.235495
0.21257
0.196562
0.185839
0.602812
0.767856
0.722825
0.63997
0.564479
0.511565
0.462776
0.429694
0.399452
0.380985
0.35941
0.351901
0.335936
0.332635
0.321348
0.319365
0.311195
0.309498
0.303846
0.302458
0.298713
0.296323
0.294537
0.29161
0.289573
0.286566
0.28292
0.280341
0.276821
0.274797
0.29611
0.296753
0.294808
0.292752
0.291497
0.289533
0.288757
0.287253
0.286707
0.285666
0.285185
0.284702
0.284041
0.284086
0.283238
0.283687
0.282599
0.283245
0.28221
0.28289
0.282029
0.282548
0.281981
0.282331
0.281936
0.281982
0.282161
0.281845
0.282016
0.281041
0.280897
0.281892
0.281684
0.282023
0.281669
0.282011
0.281641
0.282015
0.281618
0.282012
0.281637
0.282002
0.28173
0.281748
0.282003
0.281677
0.282013
0.281656
0.281993
0.281626
0.282
0.281637
0.282026
0.281677
0.282038
0.281737
0.281982
0.281972
0.281688
0.281185
0.280847
0.281854
0.281694
0.28198
0.281847
0.281683
0.281989
0.281629
0.281989
0.281604
0.281986
0.281609
0.281996
0.281656
0.282006
0.281679
0.282016
0.281668
0.282009
0.281658
0.282024
0.281643
0.282007
0.281624
0.281994
0.281622
0.281987
0.28165
0.281866
0.280844
0.280932
0.2818
0.281896
0.281679
0.282007
0.281638
0.282008
0.281622
0.281995
0.281609
0.282001
0.281636
0.28202
0.281689
0.282033
0.281705
0.282032
0.281672
0.28201
0.28164
0.282007
0.281645
0.282027
0.28168
0.282039
0.281728
0.282005
0.281947
0.281694
0.281185
0.281127
0.281661
0.282024
0.28168
0.282036
0.281656
0.282016
0.281638
0.282004
0.281624
0.282011
0.281656
0.282025
0.281698
0.282037
0.281705
0.28203
0.281672
0.28201
0.28164
0.282006
0.281644
0.282026
0.281679
0.28204
0.281735
0.282004
0.281959
0.281691
0.281186
0.281071
0.281681
0.281752
0.281996
0.281648
0.282001
0.281624
0.282
0.281609
0.281989
0.281618
0.281998
0.281656
0.282019
0.281691
0.282025
0.281706
0.282029
0.281763
0.281911
0.281961
0.281668
0.282022
0.281634
0.281997
0.28163
0.281994
0.281623
0.281859
0.280853
0.281154
0.281652
0.282035
0.28168
0.282034
0.281654
0.282018
0.281635
0.282002
0.281621
0.282007
0.281651
0.282022
0.281697
0.282036
0.281707
0.282034
0.28168
0.282012
0.281645
0.282011
0.281653
0.282031
0.281685
0.282044
0.281742
0.281984
0.281978
0.28169
0.281186
0.280809
0.281809
0.281731
0.281742
0.28194
0.28162
0.281995
0.281616
0.281992
0.281606
0.282001
0.281635
0.282022
0.281704
0.281999
0.281984
0.281721
0.282029
0.28164
0.282001
0.281604
0.281989
0.28161
0.281994
0.28162
0.281974
0.281704
0.281743
0.281787
0.280834
0.281146
0.281655
0.28204
0.281669
0.282045
0.281646
0.282036
0.281626
0.282016
0.281597
0.282012
0.281617
0.282034
0.281675
0.282052
0.28171
0.28206
0.281699
0.282039
0.281645
0.282024
0.281645
0.282045
0.281681
0.282052
0.281724
0.281976
0.281978
0.281667
0.281172
4.35291
4.68491
6.41728
9.05694
8.24146
5.38199
2.36072
1.19193
1.0464
0.871711
0.707085
0.577394
0.433027
0.23857
1.15431
1.54885
1.93833
1.75782
1.5988
1.47215
1.42287
1.5149
1.75011
1.95405
2.08379
2.11744
2.09367
2.05895
2.0504
2.07372
2.09777
2.10151
3.1976
2.85366
2.18653
1.50803
1.12028
0.813636
0.588435
0.401664
0.270288
0.21701
0.229503
0.438937
1.05065
2.25524
2.50136
2.27953
2.02413
2.19535
2.61834
2.9653
3.06368
3.05913
3.09123
3.00802
2.60686
2.09906
1.73405
1.48394
1.2834
1.14567
1.01388
0.920607
0.830328
0.76207
0.680228
0.612624
0.547486
0.478118
0.419268
0.356982
0.302943
0.260391
1.25876
1.66614
1.63952
1.45379
1.24522
1.06973
0.953223
0.856509
0.792181
0.736722
0.698903
0.662127
0.641391
0.615165
0.600947
0.583671
0.57189
0.560264
0.550818
0.542194
0.534684
0.527525
0.519888
0.514438
0.505868
0.500611
0.492295
0.487198
0.47803
0.464774
0.535994
0.538407
0.530958
0.524951
0.517797
0.51396
0.509025
0.506158
0.50298
0.500837
0.498868
0.497338
0.496177
0.494892
0.494226
0.493451
0.492521
0.492614
0.491325
0.491904
0.490651
0.491389
0.490313
0.49097
0.490204
0.490511
0.490374
0.490439
0.489759
0.477866
0.477699
0.489708
0.490368
0.490487
0.490367
0.490434
0.490338
0.490389
0.490337
0.490378
0.49036
0.490395
0.490373
0.490375
0.490457
0.490359
0.49043
0.490343
0.490376
0.490301
0.490368
0.4903
0.490379
0.490335
0.490414
0.490373
0.490433
0.490431
0.489695
0.477321
0.477435
0.489686
0.49035
0.490425
0.490308
0.490278
0.490367
0.490293
0.490349
0.490285
0.490357
0.490287
0.490393
0.490336
0.490414
0.490352
0.490425
0.490353
0.490402
0.49036
0.490425
0.490319
0.490368
0.490293
0.490349
0.490301
0.490381
0.490293
0.489663
0.477337
0.477446
0.489678
0.490328
0.490317
0.490397
0.490307
0.490365
0.490287
0.490349
0.49029
0.490379
0.490329
0.490435
0.490389
0.490468
0.490398
0.490456
0.490361
0.490398
0.490317
0.490379
0.490302
0.49038
0.490336
0.490421
0.490374
0.490456
0.490425
0.489696
0.477323
0.477326
0.489688
0.49042
0.490376
0.490424
0.490315
0.490366
0.490293
0.490352
0.490301
0.490389
0.490338
0.490436
0.490395
0.490468
0.490393
0.490449
0.490359
0.490396
0.490312
0.490377
0.490302
0.490379
0.490336
0.490421
0.490376
0.490462
0.490434
0.489695
0.477322
0.477278
0.489623
0.490361
0.490422
0.490331
0.490376
0.490288
0.490348
0.490272
0.490351
0.490297
0.490382
0.490344
0.490428
0.490367
0.490449
0.490379
0.490464
0.490386
0.490397
0.490377
0.490325
0.490386
0.490299
0.490354
0.490309
0.490399
0.490267
0.489642
0.477424
0.477267
0.489694
0.490448
0.490383
0.49043
0.490315
0.490369
0.490291
0.490353
0.490294
0.490381
0.490336
0.490437
0.490393
0.490465
0.490394
0.490452
0.490363
0.4904
0.49032
0.490384
0.490316
0.490393
0.490344
0.490418
0.490376
0.490437
0.490434
0.489697
0.477323
0.477406
0.48965
0.490357
0.49032
0.490326
0.490288
0.490356
0.490288
0.490353
0.490296
0.490385
0.49032
0.490435
0.490395
0.490446
0.490447
0.490409
0.490444
0.490324
0.490385
0.49029
0.490349
0.490284
0.490354
0.490296
0.490372
0.490346
0.490295
0.489641
0.477403
0.477271
0.489685
0.490442
0.490376
0.490426
0.490321
0.490373
0.490304
0.490355
0.490298
0.490374
0.490336
0.490448
0.490421
0.490519
0.49045
0.490523
0.490432
0.490462
0.490376
0.490412
0.490352
0.490412
0.490369
0.490436
0.490343
0.490421
0.49041
0.489639
0.477275
9.8421
9.96955
10.2292
10.0347
8.91841
6.55748
2.60576
1.38926
1.34176
1.20548
1.05311
0.834728
0.495026
0.317204
1.46224
1.24265
1.64921
1.39166
1.18096
1.0973
1.10982
1.23297
1.44189
1.73451
1.97322
2.10456
2.11246
2.04932
2.01283
1.99917
2.02557
2.05037
2.08473
3.2138
3.14169
2.7129
2.11837
1.60805
1.21596
0.85524
0.561029
0.337837
0.233033
0.235145
1.47407
2.42317
2.119
1.29917
1.1049
1.37113
1.97712
2.69776
3.04322
3.04623
2.99788
3.05636
3.10424
2.95486
2.66989
2.39225
2.15491
1.96493
1.79521
1.64869
1.53787
1.41762
1.32329
1.21771
1.11558
0.982979
0.857446
0.703951
0.555491
0.412245
2.0104
2.38122
2.52109
2.44833
2.20105
1.93115
1.70827
1.56359
1.44833
1.3684
1.30646
1.25515
1.21456
1.18779
1.15551
1.13916
1.11576
1.10402
1.08648
1.07628
1.06555
1.05325
1.04408
1.03433
1.02321
1.01148
0.996369
0.979109
0.95622
0.937766
1.09121
1.07526
1.0567
1.04394
1.03387
1.02462
1.02002
1.01356
1.01035
1.00672
1.00353
1.00232
0.998469
0.999341
0.995008
0.996906
0.992912
0.994813
0.991479
0.993153
0.990551
0.991847
0.989971
0.990766
0.989661
0.989825
0.989585
0.989306
0.989204
0.994325
0.994165
0.988791
0.988387
0.988613
0.98829
0.988469
0.988198
0.988383
0.988094
0.988348
0.988069
0.988241
0.988083
0.988144
0.988169
0.988037
0.988184
0.988019
0.988221
0.988011
0.988276
0.988035
0.98832
0.988119
0.988395
0.988247
0.988373
0.9884
0.988413
0.993628
0.993747
0.988416
0.988256
0.988401
0.988163
0.988144
0.988302
0.988044
0.988265
0.988003
0.988237
0.987976
0.988197
0.988009
0.988171
0.988043
0.9882
0.988039
0.98825
0.988081
0.988329
0.988069
0.988316
0.988076
0.988352
0.98816
0.988406
0.988197
0.988487
0.993668
0.993779
0.988331
0.988249
0.988249
0.988414
0.988117
0.988326
0.988024
0.98828
0.988004
0.988255
0.988018
0.988234
0.98805
0.988214
0.988073
0.988216
0.988031
0.988235
0.988018
0.98828
0.988034
0.988321
0.988118
0.988406
0.988261
0.988423
0.988388
0.988418
0.993631
0.993618
0.988434
0.988474
0.988274
0.988442
0.988121
0.988335
0.988034
0.988276
0.988016
0.988261
0.988026
0.988228
0.988052
0.988215
0.988065
0.988203
0.988026
0.988232
0.988011
0.988277
0.988031
0.988319
0.988116
0.988404
0.988252
0.988415
0.9884
0.988417
0.99363
0.993506
0.98835
0.988311
0.988451
0.988194
0.988362
0.988063
0.988284
0.988005
0.988253
0.987995
0.988225
0.98802
0.988197
0.988051
0.988208
0.98807
0.988228
0.988168
0.988134
0.988218
0.988085
0.988331
0.98808
0.988363
0.988165
0.988441
0.98817
0.988427
0.993734
0.993559
0.988384
0.988485
0.988278
0.988446
0.988118
0.988328
0.988024
0.988269
0.988011
0.988256
0.988024
0.988229
0.988052
0.988213
0.98807
0.988208
0.988034
0.988237
0.98802
0.988291
0.988051
0.988329
0.988127
0.9884
0.988254
0.988376
0.988409
0.988416
0.99363
0.993714
0.988374
0.988296
0.988225
0.988304
0.988121
0.988331
0.988039
0.98829
0.988022
0.988268
0.987998
0.988247
0.988063
0.98818
0.98815
0.988077
0.988229
0.988003
0.988255
0.988014
0.988275
0.98802
0.988312
0.988102
0.988351
0.988271
0.988227
0.988318
0.993713
0.993578
0.9884
0.988508
0.988256
0.98849
0.98811
0.98839
0.988017
0.988326
0.987972
0.988276
0.98796
0.988238
0.988004
0.988225
0.988039
0.988179
0.987983
0.988195
0.987956
0.988232
0.98796
0.988268
0.988023
0.988344
0.988147
0.988271
0.988295
0.988274
0.993532
10.4361
10.6469
10.1736
9.11559
7.47982
3.68529
1.53746
1.50172
1.49428
1.39394
1.17837
0.837721
0.548291
0.454959
1.49154
1.33395
1.3172
1.05741
0.898499
0.92922
1.02308
1.11541
1.2506
1.4537
1.79065
2.04147
2.12206
2.0777
2.00458
1.96819
1.95702
1.96379
2.00472
2.04587
3.14129
3.2764
3.0884
2.71484
2.22268
1.66288
1.19296
0.697349
0.337344
0.205593
1.87426
2.24396
1.60953
0.93936
0.805567
1.14174
1.8649
2.67707
3.03821
3.05594
2.95199
2.91731
3.00273
3.09818
3.08578
2.98419
2.86369
2.71986
2.59197
2.43504
2.31539
2.19233
2.04711
1.91375
1.7624
1.6072
1.41996
1.17494
0.875516
0.575788
2.15562
2.49421
2.76217
2.84161
2.78947
2.64063
2.4553
2.29388
2.18639
2.07683
2.01255
1.93272
1.88948
1.83293
1.80704
1.76114
1.74349
1.71092
1.69261
1.66751
1.65604
1.62866
1.62112
1.59329
1.5836
1.55625
1.5391
1.50747
1.4713
1.44114
1.73683
1.69629
1.65912
1.62647
1.60535
1.58955
1.57617
1.56901
1.55936
1.55549
1.54865
1.54653
1.5414
1.54008
1.53663
1.53543
1.53312
1.53242
1.53014
1.53072
1.52779
1.52925
1.52659
1.52801
1.52585
1.52668
1.52527
1.52534
1.52413
1.52929
1.5301
1.52425
1.5246
1.52489
1.52512
1.52526
1.52537
1.52542
1.52542
1.52539
1.52544
1.52531
1.52539
1.52531
1.52535
1.52527
1.5253
1.5253
1.5253
1.52531
1.52529
1.52528
1.52528
1.5253
1.52524
1.52507
1.52487
1.52452
1.52431
1.52933
1.52955
1.52426
1.52452
1.5249
1.52496
1.52513
1.52532
1.52526
1.52527
1.52528
1.52529
1.52528
1.52527
1.52528
1.52526
1.52529
1.52529
1.52532
1.52534
1.52541
1.52539
1.52535
1.52532
1.52529
1.52518
1.52508
1.52483
1.52446
1.52427
1.52941
1.52953
1.52425
1.52439
1.52487
1.52509
1.5252
1.52527
1.52527
1.52527
1.5253
1.52531
1.52534
1.52532
1.52533
1.52532
1.52533
1.52531
1.52532
1.52531
1.52533
1.5253
1.52529
1.52529
1.52531
1.52525
1.52511
1.52492
1.52453
1.52431
1.52935
1.5294
1.52433
1.52454
1.52492
1.5251
1.5252
1.52527
1.52527
1.52527
1.52531
1.52532
1.52534
1.52531
1.52533
1.52531
1.52532
1.52531
1.52532
1.52531
1.52532
1.5253
1.52529
1.52529
1.52531
1.52525
1.52509
1.52491
1.52453
1.5243
1.52935
1.52925
1.52428
1.52451
1.52488
1.52509
1.52517
1.52526
1.52523
1.52526
1.52525
1.5253
1.52529
1.5253
1.52528
1.5253
1.52532
1.52531
1.52538
1.52536
1.52538
1.52532
1.52535
1.52531
1.5253
1.5252
1.52509
1.52486
1.52444
1.52422
1.5295
1.52929
1.5243
1.52456
1.52492
1.5251
1.52519
1.52527
1.52527
1.52526
1.52529
1.52531
1.52533
1.52532
1.52533
1.52531
1.52533
1.52531
1.52532
1.52531
1.52533
1.52532
1.52531
1.52531
1.52532
1.52526
1.5251
1.52488
1.52454
1.52432
1.52934
1.52953
1.52424
1.52455
1.52479
1.52505
1.52518
1.52531
1.52528
1.52529
1.52532
1.52532
1.52532
1.52532
1.52533
1.52531
1.52532
1.52533
1.52533
1.52532
1.52532
1.52532
1.52529
1.52529
1.5253
1.5252
1.5251
1.5249
1.5245
1.52419
1.5295
1.5294
1.52433
1.52457
1.52491
1.52509
1.52523
1.52529
1.52531
1.52529
1.52533
1.52529
1.52534
1.52533
1.52536
1.52535
1.52536
1.52532
1.52532
1.52532
1.52534
1.52532
1.52533
1.5253
1.52527
1.52519
1.52493
1.52456
1.52365
1.52228
1.52736
10.8119
10.441
9.38969
8.44807
6.75604
3.45873
1.73837
1.78871
1.8158
1.74453
1.54862
1.17894
0.617218
0.417527
0.381277
0.379969
0.862542
1.05562
1.06466
0.836177
0.813142
0.998098
1.21401
1.30255
1.35307
1.48126
1.7499
2.0414
2.12295
2.08683
2.02209
1.95373
1.935
1.89784
1.88699
1.90043
1.97242
2.66427
3.29798
3.27192
3.09035
2.742
2.18597
1.50084
0.774643
0.297554
0.183469
0.20517
0.93137
1.21843
0.740604
0.644302
0.786894
1.3921
2.22934
2.87822
3.07099
3.02171
2.91247
2.83382
2.84275
2.9383
3.04309
3.0931
3.08802
3.05655
3.01793
2.94628
2.90702
2.83232
2.77807
2.70496
2.60994
2.47349
2.2794
1.9903
1.60492
1.09554
1.09055
1.37029
1.75466
2.42555
2.8331
2.891
2.89417
2.87875
2.82847
2.77468
2.72123
2.68093
2.64489
2.60515
2.57795
2.54419
2.52257
2.49915
2.47864
2.46577
2.44346
2.43584
2.41653
2.4055
2.39347
2.37787
2.36702
2.34564
2.32923
2.29299
2.25802
2.20748
2.33401
2.35827
2.43462
2.42665
2.39219
2.37512
2.35823
2.34818
2.34022
2.33281
2.32895
2.32329
2.31985
2.31747
2.31306
2.31288
2.30861
2.30919
2.30564
2.30574
2.30367
2.30313
2.3019
2.30134
2.30029
2.30013
2.29876
2.29882
2.29765
2.29766
2.2978
2.31617
2.33241
2.33252
2.3168
2.2979
2.29612
2.29613
2.29596
2.29602
2.29601
2.29603
2.29597
2.29599
2.29595
2.29595
2.29592
2.29595
2.29589
2.29588
2.29589
2.29588
2.29588
2.29584
2.29585
2.29582
2.29587
2.29581
2.29576
2.29562
2.29548
2.29554
2.29678
2.31602
2.33238
2.33238
2.31614
2.29675
2.29555
2.29552
2.29552
2.29572
2.29583
2.29581
2.29585
2.29581
2.29586
2.29585
2.29587
2.29587
2.29586
2.29587
2.29588
2.29588
2.2959
2.29588
2.2959
2.29587
2.29588
2.29581
2.29574
2.29561
2.29552
2.29551
2.29678
2.3161
2.33238
2.33237
2.3161
2.29672
2.29546
2.2955
2.29562
2.2957
2.29583
2.29581
2.29585
2.29581
2.29587
2.29587
2.29589
2.29588
2.29588
2.29588
2.29589
2.29587
2.29589
2.29584
2.29585
2.29582
2.29586
2.29581
2.29576
2.29563
2.29551
2.29554
2.29679
2.31604
2.33239
2.33238
2.31605
2.29681
2.29556
2.29551
2.29562
2.29571
2.29583
2.29581
2.29585
2.29582
2.29586
2.29587
2.29588
2.29588
2.29587
2.29587
2.29588
2.29586
2.29588
2.29584
2.29585
2.29582
2.29586
2.2958
2.29576
2.29562
2.2955
2.29554
2.29679
2.31604
2.33238
2.33238
2.31599
2.29676
2.29555
2.29552
2.2956
2.29572
2.29579
2.29584
2.29581
2.29583
2.29583
2.29588
2.29587
2.29588
2.29588
2.29588
2.29589
2.2959
2.29594
2.29585
2.29587
2.29586
2.2959
2.29581
2.29576
2.29559
2.29553
2.29551
2.29675
2.31612
2.33238
2.33238
2.316
2.29678
2.29556
2.29551
2.29561
2.2957
2.29582
2.29581
2.29584
2.29581
2.29586
2.29586
2.29588
2.29588
2.29587
2.29588
2.29589
2.29587
2.29589
2.29585
2.29586
2.29583
2.29587
2.29581
2.29577
2.29564
2.29549
2.29555
2.2968
2.31603
2.33238
2.33238
2.31613
2.29672
2.29556
2.29546
2.29561
2.29571
2.29584
2.29582
2.29586
2.29582
2.29587
2.29585
2.29588
2.29587
2.29588
2.29587
2.29588
2.29588
2.29586
2.29586
2.29581
2.29585
2.29581
2.29583
2.2957
2.29562
2.29553
2.29555
2.29674
2.31613
2.33238
2.33239
2.31607
2.29683
2.2956
2.2955
2.29563
2.2957
2.29586
2.2958
2.29584
2.29576
2.29581
2.29577
2.29582
2.2958
2.29583
2.29583
2.29586
2.29586
2.29588
2.29582
2.29585
2.29578
2.29583
2.29572
2.2957
2.29559
2.29546
2.29554
2.29677
2.31593
2.33144
2.31717
8.96873
8.95065
7.97695
7.66732
7.65126
7.03069
5.47684
3.46595
2.09603
2.09551
2.09314
1.99611
1.39824
0.468169
0.646116
0.917556
0.845469
0.861012
0.804281
0.790746
1.07234
1.56705
1.78602
1.75748
1.69893
1.77039
1.97969
2.11249
2.12995
2.06037
1.99509
1.95308
1.8984
1.87674
1.84941
1.80456
1.81046
1.85726
2.00517
3.14506
3.30538
3.26173
3.10166
2.64203
1.97332
1.04502
0.515614
0.398062
0.395701
0.427852
0.518558
0.744067
1.34598
2.19495
2.83571
3.05458
3.03294
2.93311
2.83887
2.76846
2.74312
2.77824
2.86146
2.94766
3.01059
3.03775
3.0572
3.0492
3.05409
3.03459
3.02713
3.00703
2.97248
2.93765
2.8667
2.7545
2.59759
2.17464
2.03622
2.05856
2.41306
2.7845
2.90239