/*--------------------------------*- C++ -*----------------------------------*\
| =========                 |                                                 |
| \\      /  F ield         | OpenFOAM: The Open Source CFD Toolbox           |
|  \\    /   O peration     | Version:  2.1.1                                 |
|   \\  /    A nd           | Web:      www.OpenFOAM.org                      |
|    \\/     M anipulation  |                                                 |
\*---------------------------------------------------------------------------*/
FoamFile
{
    version     2.0;
    format      ascii;
    class       volScalarField;
    location    "0.007850000";
    object      omegaC_burn;
}
// * * * * * * * * * * * * * * * * * * * * * * * * * * * * * * * * * * * * * //

dimensions      [1 -3 -1 0 0 0 0];

internalField   nonuniform List<scalar> 
12384
(
155636
184573
199516
213409
225517
237105
244810
249990
250049
247603
239739
225675
198880
157252
235207
261837
282108
294428
305593
317190
327405
336669
346435
351774
351818
351934
357959
373382
405296
439346
472639
501190
522838
533420
531695
523294
511835
499902
484798
463001
433602
390723
307194
218152
343177
379302
400465
413515
422707
432198
443212
451928
448753
442020
438331
442146
462207
499779
544994
588862
627740
655763
674029
680757
681523
679511
668388
650045
622416
585449
536018
465415
356663
302451
375197
445013
511940
557002
588039
614179
643410
656338
645044
621882
593836
566147
548151
543858
558427
588702
624726
658323
677973
691762
708246
724464
734322
732703
720706
696019
654417
583333
476592
406763
427915
477716
503266
505332
508644
547768
624467
708812
792576
858051
909479
941706
948473
934328
923213
915398
899579
882714
849929
804553
739105
645458
474209
351508
333473
333375
335051
332669
327894
320598
307158
349180
387138
426833
464464
496399
526285
549986
562780
557051
550761
548185
560808
597718
649711
704386
755617
796273
820743
824179
801911
790383
780194
767546
744730
708357
652662
565836
433114
358205
317783
388852
452130
499473
532336
554475
569474
580330
599347
634320
688018
753127
820245
886905
947942
997812
1.03143e+06
1.03925e+06
1.02295e+06
991949
961599
933265
900554
853778
775627
640782
449074
343956
339804
363003
296948
348174
410762
478581
560426
654583
741214
824848
902159
968383
1.01753e+06
1.04588e+06
1.04705e+06
1.01492e+06
978666
948874
917691
877412
816717
726160
592204
420027
357547
345119
341689
341312
334396
324721
317736
320386
410368
512400
594909
688735
772419
854738
932250
1.00004e+06
1.05194e+06
1.08311e+06
1.08836e+06
1.0703e+06
1.03223e+06
997775
963084
914489
840266
725248
559411
409175
363901
362036
364816
364596
358645
342395
320301
300652
285496
276979
375513
473858
560241
625178
697434
787230
875135
960547
1.03407e+06
1.09372e+06
1.13056e+06
1.13265e+06
1.12239e+06
1.0854e+06
1.04899e+06
1.01317e+06
963750
891040
783325
632281
475529
406978
394850
394730
392370
379540
363865
353224
348033
349461
572131
684630
744802
809694
904492
994810
1.06038e+06
1.10622e+06
1.12439e+06
1.11275e+06
1.07871e+06
1.01911e+06
968294
887307
779582
658843
572210
535568
510872
496936
487096
485321
483403
480159
474019
465687
453674
440207
423332
400451
342955
337144
406132
502556
598092
665602
709906
733827
743231
740763
731196
714884
711289
685504
658212
621764
591645
571989
571542
584857
610827
638675
658612
654344
624502
598984
578193
554628
515375
454540
235023
262193
256543
236062
217046
251398
414677
492506
519245
563247
601373
628044
651672
667896
692117
698572
694881
662643
625632
564245
503985
444929
409132
381618
360670
334500
307259
272819
226235
161539
183930
122698
131536
146910
161519
175137
184976
191783
194110
193520
187808
177226
160688
203996
241994
221733
272842
317055
351327
372736
379804
373343
354372
328227
302343
283884
281479
301978
341848
389022
438887
486308
528091
558736
576645
581167
574059
554648
521789
476310
418806
352736
277037
336082
399004
381594
433747
459959
463740
451736
425884
392469
357280
328151
314994
331564
379432
446833
518967
589042
648380
693448
720612
733367
735819
727016
709305
676336
627387
561926
486015
404702
318640
421367
518011
503937
580263
618030
628870
620983
596738
560114
516631
471922
433408
409994
417527
464532
545231
636824
715873
762202
780357
780938
791334
794214
784401
752186
692594
611148
521651
432914
353220
540926
391718
292213
265333
261879
341136
470414
600830
708424
784654
789606
769681
684209
628340
582020
580737
598432
656394
732718
795981
818307
748076
616688
471814
332715
264229
254017
254288
249899
251418
345663
373291
381322
459248
513691
542774
547970
535384
503100
464828
426278
402952
406492
450530
518125
597945
680168
754277
809718
838932
847599
849289
843940
851422
848630
827776
768274
667107
545180
420568
494586
426125
441086
489008
510828
510413
494361
473195
458651
459927
483316
528041
588533
640926
658446
614479
521461
405318
309145
255894
215091
220818
271742
348382
468806
619690
702665
620841
449102
263510
377666
298191
220491
248071
321787
417206
515098
619371
722254
802305
832345
801641
731965
644177
593904
585655
613273
673340
756230
832307
828708
694226
508069
325061
255173
259834
256375
242764
218129
201820
329487
378909
289424
383455
498163
614530
709835
747268
702660
593197
474622
372998
302511
286182
311518
369357
476799
632765
773068
773685
600238
378092
282994
284760
287820
283411
264134
232222
200262
185630
291638
348935
281616
304033
387872
496593
614781
718808
747303
681167
506159
358582
272281
198217
178220
206049
259328
356086
520416
693951
763006
655860
451565
295538
268060
269670
259587
234050
209349
204678
346899
482427
366665
409114
562908
658742
651002
548178
397459
267174
199793
136604
157949
197037
282875
492477
697098
728987
551612
367283
328279
341024
350677
354372
356020
356705
354594
347860
340394
332104
397843
409513
302718
375644
464858
563221
654095
724602
751623
762698
736154
734554
702172
719669
704639
703808
667621
614706
546477
495136
470852
474125
498765
530332
557638
579077
590907
587984
567176
506333
552026
279612
243578
238741
234613
257352
334639
402625
456887
533263
607319
657944
682730
697879
702942
716213
701651
699744
659833
617064
550912
477033
388645
314888
275554
273997
278258
276826
265412
241134
208167
206183
141080
152627
170428
185700
198097
205135
208794
207352
203671
196193
186047
172631
228241
249951
232752
273462
304408
322988
328784
323305
310769
298285
293197
298001
311973
338638
378804
425351
469003
506974
538812
564791
583574
594806
594655
587832
569833
544881
507639
458501
395941
323221
396046
418834
400393
421646
417147
398292
374631
352301
337032
332790
341573
369269
421119
491209
565175
628928
681925
718621
745910
758266
763558
759559
752416
735225
712552
676031
624064
554467
471940
383063
502499
577750
552951
594718
602796
594623
578841
557381
535266
514396
496680
484578
488505
523819
593001
673852
737457
762990
757202
750961
751998
748037
772421
785269
785610
754843
692309
604798
506521
414353
616245
375666
259448
232879
295318
449263
598800
714324
781225
818622
790659
783073
689665
670563
603140
593500
605025
627301
677694
723357
780998
800725
739316
609870
466713
324995
237746
228040
250863
269679
366326
398101
408257
461074
482115
478057
455530
429374
406581
402212
412015
440630
488831
550485
616701
681362
739396
788005
826838
851666
870691
874618
878710
870559
863210
844560
812927
746007
637949
507580
592918
460681
469207
475230
467448
456934
454362
464971
486145
519162
563545
610910
645190
652856
634310
595207
544738
462154
418463
366347
308421
296780
299296
324055
379665
473712
605542
668855
581736
407153
402643
320248
223672
277019
381165
496598
614542
722849
798815
830996
822346
783459
726488
652622
624368
582825
592213
623924
669305
734451
806687
805497
676505
498442
320864
221293
230256
247864
235319
211201
338733
448317
353941
464757
596704
701309
737846
698308
611216
497777
403209
313066
261231
235470
246967
282230
333223
450375
592615
744053
763419
590932
369672
263231
276771
301856
302180
272041
231618
204834
308552
352277
279408
345336
467561
605009
722712
739035
624137
476037
303527
214409
155397
107572
105114
112513
142079
197322
292153
446315
632494
743942
660320
452023
289752
280885
285738
260118
227176
210757
355171
445047
349649
524700
658178
636455
491245
324939
202784
136909
84754.1
76949.1
62406.3
67181.5
113811
191096
349879
604820
723629
597947
414303
359753
365877
360143
343587
321253
297408
279313
281459
304898
395967
490538
359918
444603
542670
635597
706543
752107
768087
784317
768137
781799
767114
774445
748010
740549
710559
679530
631721
587939
549180
531654
523927
517939
512089
525088
543414
559673
561507
531760
590108
300756
250972
216327
234636
330545
415802
471665
542858
615334
662167
690229
710667
722809
722314
744779
732727
725964
704491
678912
635805
583529
499022
391667
283073
223475
204201
208789
219237
219752
182750
218928
162984
178771
198930
213501
222557
225283
225285
220941
214575
206793
198851
190349
248465
260882
253686
280179
293336
294309
282704
266305
253366
255619
277258
310989
350324
396968
447785
496277
531587
552165
562350
567412
572561
577468
578612
576440
566107
551060
525037
485805
432301
364794
438147
431151
428154
415488
379875
338901
306331
297206
315838
349072
387674
439359
511384
588498
652629
695633
722514
736914
746870
753849
754710
754403
747141
738873
721428
698045
661179
606084
530609
440364
554739
617021
604429
606577
579541
546013
520411
509366
514794
525961
536157
547453
575814
631959
699893
745881
748564
725849
703709
675073
672679
698839
715065
752434
775783
779393
747304
678216
582326
479606
670942
378584
255608
241019
366942
545813
687102
776739
807975
821050
790016
772956
733101
707934
689074
652607
658668
659744
691552
711435
752342
785587
796878
721112
588699
438754
298272
222160
245829
277029
380113
409846
435004
459754
447973
410245
363233
331818
333580
375870
433996
493994
554820
619203
681291
732566
770565
796796
817396
834252
849194
864610
868931
875471
869875
857703
832404
789314
707976
588325
662650
484411
509459
471807
429675
411270
429804
469719
514739
566450
616723
645644
644353
620477
594300
580053
564004
557142
569483
520034
522799
485763
436440
413210
399241
431906
522964
637010
643490
505771
457164
344228
243929
312823
432210
565904
697054
791835
829313
826708
808637
785987
747269
722627
684743
672200
657527
660289
672784
693594
744608
809242
784025
642491
461070
292117
216717
249870
247641
219558
344609
556155
420380
538210
666586
730770
711889
642152
554823
471222
412811
332787
306259
279194
264786
280261
312601
369698
472581
622992
763167
742428
547972
342347
283817
320042
332492
304165
261170
234096
329544
385798
304448
399065
542585
690927
747482
632710
466705
327087
233251
170422
117077
107912
83698.2
81254.3
100763
138693
192815
293539
459442
645694
739558
615449
401077
307096
303741
278091
243100
226671
366018
491130
457304
620515
674134
517607
320612
189516
128119
82816.3
59837.3
43151.1
46309.2
49869.9
56775.5
87716.5
160630
357479
584559
736377
571317
408664
375537
368865
350697
326720
298834
270498
265250
302935
401985
552773
406628
503861
602441
682326
737352
772759
797375
821049
828478
841433
841469
831393
816780
793037
761357
721366
684153
640245
608316
582279
564773
526546
466477
439993
469496
519534
555112
557799
609515
313200
250513
230520
301934
402855
474600
540128
611341
661922
691236
711064
728529
742018
744990
747381
753216
732791
727218
706083
677411
633671
567749
470408
338891
230375
169411
164858
186549
200680
146789
227612
187691
208101
227276
236693
238948
235512
232068
227084
221023
214921
211545
209168
265900
270772
276720
289505
288150
272251
245926
218845
207033
226717
273725
330658
389748
448297
504574
549596
569631
566167
550125
532510
520671
517994
521010
531203
537145
539791
527904
503250
459712
399987
468447
438086
459909
418699
353404
286598
244974
263150
321888
379977
433145
502219
585677
657815
702630
719660
720110
713934
708106
702954
704186
706181
710808
709844
707732
695948
674628
636128
574410
489964
591617
643795
655404
623001
557385
491069
449777
455324
498489
543507
575755
604554
651732
711534
750482
741766
716189
701599
690623
667606
643427
642676
679803
710104
746419
769649
766542
723724
641773
538831
715307
396725
261823
268369
436297
616833
744154
805420
813149
810675
778404
785180
752691
761224
734472
742425
725879
728379
726062
726095
752103
764917
800817
781400
680485
532991
377061
260318
244752
276008
391517
411611
458537
462092
424702
359617
290933
260306
292487
377555
462858
531377
593656
660924
722306
763261
785365
791899
788627
776763
774587
780672
802366
820783
840125
847191
840061
810486
754197
658485
715569
501245
554952
479681
399289
371578
410839
472302
533123
597326
647249
648949
602629
555496
539322
550210
581242
640174
672485
670742
668997
658220
626601
548440
474744
443942
480697
587900
657559
567151
501720
369331
263590
343144
471965
623070
757977
823395
826354
811382
807443
792695
778514
783662
768289
738966
716411
697199
680818
687238
703194
765448
814076
739446
571421
392179
254318
252294
253666
223829
350766
645369
469027
590239
704025
729371
683036
598915
538381
492236
466983
411816
387593
343747
323141
325876
342509
348021
421797
515776
686706
786836
684145
471863
332592
338512
353265
324316
280958
260518
350774
448971
335146
445354
604166
740671
695577
525248
367202
270237
206636
180216
141762
116102
111082
105974
108112
126272
159251
222248
339530
520720
700001
705934
506925
347875
312977
283079
249451
240992
376822
655907
552904
676264
623975
406145
216388
132853
94632.2
59000.1
56168.4
46860.6
39735.5
37117.8
51273.3
52568
100867
184042
424431
686867
686563
474447
389398
382255
378268
368262
351323
321244
291379
307106
410681
591097
442714
544657
636491
702663
747564
779524
798573
818413
824695
830364
829439
826419
823735
815174
794938
767370
720787
676354
634319
612418
592024
552849
447011
361048
393484
485690
556260
577846
612543
322087
249660
265164
346749
446484
521827
593507
651203
684523
711305
726900
732254
738509
740530
728571
737739
724661
734673
718448
710524
664980
601818
514012
396107
257900
166169
140497
161226
179506
110766
235001
214861
235294
247885
247004
239388
229676
224271
220907
220472
220546
224133
227818
280347
280655
298251
301244
286886
258942
220509
184340
172663
207715
275765
350624
422187
487834
545788
581689
581349
553966
515115
476475
446135
431586
437088
461805
491394
515697
524484
513672
481442
429180
487637
435869
488707
426526
337539
247932
209571
263065
342778
406759
468959
551245
638902
700449
721413
716161
690847
663393
632937
613586
605988
614418
630308
652296
667601
676977
672054
650816
605892
532433
615009
656451
697527
643261
543015
439060
374611
399024
485059
558818
605110
646935
703251
749377
746589
721223
706370
688135
680185
684263
679093
671452
666832
688991
722321
750185
763243
742485
682137
589870
748349
422173
273244
303943
492998
669160
778923
816823
811823
798991
769572
762515
725020
710708
706458
717296
745875
745181
772198
745257
769436
758343
791194
801476
737830
600804
435728
301704
254211
272413
401342
403958
473852
466230
415957
336569
260361
238211
291687
390602
478088
544645
608493
682013
744258
778941
793927
784622
748695
694886
651299
636735
663432
718567
773603
813621
830862
821416
784204
715372
750267
504749
596723
496904
376293
330241
387473
466221
537765
613100
666850
637327
552881
491172
479789
505046
599949
679183
676255
637115
628320
660101
677012
651493
570280
483081
465495
548650
646711
599929
520684
400086
281441
364078
502083
665904
793363
827273
810191
805031
806464
781653
781244
759430
738359
753292
768461
768838
730974
709827
687015
728316
794716
788545
650258
467575
311295
261375
255061
227953
359686
699239
497698
623682
721815
724355
653239
578519
539147
538135
531211
539473
548217
519202
487529
431111
391512
379268
403818
477148
602681
766707
758354
571934
399282
362780
368962
336633
293632
287004
367356
530868
359893
481079
650242
754513
636456
458054
323238
240776
218060
222706
196767
215117
196188
185383
161484
155919
165539
189911
278538
433717
625374
729825
576148
382189
314287
275922
247681
255902
386274
819704
616663
700718
553056
324627
181544
112681
81890.1
69989.2
98524
94307.4
87138.4
66584.4
58651.6
48967.7
78469.2
120788
302919
607062
731137
526131
412090
412145
426042
432511
424026
395728
350161
324487
418721
609442
466863
567797
650108
703779
737372
754914
759091
752119
741512
725967
727477
735599
761541
785344
801286
788350
757472
703041
655199
620035
609884
572891
471770
355873
369596
477352
561401
587283
603203
330304
250728
284720
366673
469766
554977
625198
671083
700722
715842
719588
709833
684042
666203
652589
668538
685829
715277
720598
730091
696012
630649
528641
430303
294510
174460
130448
141317
156716
80362.7
239415
238482
253788
254588
243757
227058
210222
201073
202848
213641
225914
237407
244651
290078
286134
314489
310175
289679
253063
208352
165359
153248
198082
279250
363350
442884
511984
570105
593623
575543
531168
475950
416671
364414
333811
344050
391329
447541
496670
521793
523837
498870
449459
489282
426896
509718
433845
330443
237576
224684
287034
359086
420961
491187
583152
674615
723140
723691
703120
653893
598459
536419
489345
468730
486307
529780
576723
619380
649093
663934
658723
627418
563941
619198
648511
725838
665787
540245
401955
313227
356624
473150
564847
618592
669623
729315
757007
739784
708362
683896
670350
663183
622744
603472
629233
669569
683675
703394
729128
750908
749460
709593
630919
763934
447099
289436
355599
544050
708684
800201
820957
804954
796175
759499
725051
645260
581362
533763
558171
630265
702762
759378
762113
786603
763001
785887
804229
767264
641271
470090
322964
258039
268252
411907
397834
478513
466914
415926
341388
276626
265284
315564
399509
473905
534642
602978
688187
753144
787768
803700
784505
721263
624882
526230
462976
500765
592314
692169
771871
817704
826068
804673
755183
760685
491998
628598
519050
366643
290709
357517
449666
527822
612014
680621
641218
521901
443452
426152
458883
595346
682928
620163
483344
442371
535254
636930
670767
634246
515565
458209
526652
628297
610683
508430
435859
300283
378831
522959
694125
810668
820597
795965
804933
791151
773315
734004
642861
578846
610929
691700
755961
757640
732915
690235
710037
774377
805122
696728
514859
348426
272481
254174
235225
386335
721603
509473
643042
732766
716810
636186
557836
548684
557818
591721
602844
581538
577866
597254
550174
496621
412332
427163
455081
568549
725836
788319
637146
456867
390733
380335
341621
305896
317729
378952
599629
377230
506786
679216
757249
605504
417093
296851
244517
245886
289756
373684
460299
430951
343275
264977
219058
181974
197012
262984
379141
569779
721841
607562
394188
306139
270054
258738
280840
405532
876889
650182
690672
512582
298611
165863
112972
73416.4
115892
189475
222602
227547
129681
104594
55332.5
81415.7
97465
259374
524998
743300
561396
452530
456223
479259
493624
493159
469491
428711
384186
454116
609432
477988
575728
650648
695162
713709
712867
693811
652445
610585
568365
562376
596358
659556
726612
776962
793979
774223
729484
667558
625514
606167
581205
507816
412491
409008
495600
568727
590103
587010
340076
251715
289814
368171
476393
570654
638968
682018
704301
711802
692287
648803
585728
530439
523382
568740
626552
686678
715416
736236
719720
666230
543651
431853
325855
197260
132936
132452
141939
66863.3
241514
255303
261260
255011
237159
211255
185586
171338
180420
208281
233561
250579
256717
295389
295182
326786
318258
293473
253564
205876
162810
150728
197408
280576
367778
450361
522833
579899
593180
564488
512783
447474
372074
294663
237285
264358
346802
432120
496080
529981
534990
511790
461901
486113
416482
523556
437347
329831
253459
254758
303658
363371
423866
501426
603803
697879
736428
723818
691388
624110
546577
456888
380037
337096
366363
442700
523997
588702
634190
658291
662490
641751
584794
611440
622448
741866
686791
548269
388189
290883
340802
460772
557180
613905
673369
738414
763615
737541
691437
670713
667611
645965
545323
449540
468946
576134
660976
693247
719264
738882
745511
722689
656924
754348
479065
324993
423256
597087
742689
810879
819471
793969
797892
758524
714992
606509
487339
374475
359031
479730
608230
717968
752606
796707
766395
792615
802094
779026
655657
477348
321422
255307
269545
423792
397757
471310
460573
416211
355927
309779
305357
341247
397227
451962
504715
582136
680744
753446
792904
813641
798120
728927
610130
463160
319945
353127
495178
629746
741622
807821
830700
816353
781067
740064
484250
649737
547652
384650
259680
319086
421674
505946
593430
681099
664537
518673
419865
386969
417964
557804
675305
626799
442256
346415
452720
588442
665991
649578
515622
453638
517750
613077
606013
474711
476852
324499
392382
537082
708213
817098
814384
789792
796053
780134
777902
692069
535758
383857
430619
583789
714913
760690
753217
704801
714149
759585
809501
719250
538494
370065
278569
257435
257981
446026
717324
519494
655444
740524
717561
625275
556272
527587
568200
612963
567080
429481
409714
536597
602399
561157
487249
455889
481375
564044
712031
791672
663184
484916
407466
381817
341969
323733
355492
401134
620974
388553
521339
690510
762956
596571
401055
292248
264071
260057
359255
522680
500609
489277
511711
403586
278591
223333
218004
254876
353555
537250
710744
607956
385484
300265
285194
293359
320867
459379
876276
660682
676715
507565
308562
166572
101001
101871
171738
337874
439989
422926
276763
176900
83273
88213.2
101490
241908
510026
741133
598656
507164
499876
513096
524394
525227
515614
496118
470739
544380
600758
476803
570877
645797
685806
695851
681292
642822
574905
493481
420114
411818
480148
578338
675161
753870
786681
778781
741170
670369
612964
585538
568364
525211
462656
454511
511229
564657
580104
570096
360187
250093
279664
350927
463931
567710
641379
682904
703291
699466
664259
590349
487142
383350
388820
492905
591054
676369
717692
744104
734094
693091
572891
431811
336146
225335
152644
142548
149220
98527.5
240972
261606
262953
253159
228529
194094
161872
148661
173388
217932
252304
272637
280072
293076
334361
337562
297207
328340
316657
294234
256851
214440
176539
164987
202857
276792
360577
442544
519719
576991
586931
557147
506259
442455
369070
289008
229105
278529
372473
457308
518461
545734
545696
515053
457553
403702
406022
419996
476500
517140
425577
319896
259381
263652
304630
355899
415891
502588
621970
713547
747213
727298
695815
626708
550559
458032
372555
318231
357567
451434
536740
600333
643020
662843
661170
634058
572958
535786
522935
485637
703351
750134
704514
567129
405424
314927
350652
447459
534346
590131
656398
736791
771424
742664
694011
664366
662582
660231
566419
434804
393435
510562
634054
681454
708995
727958
740541
729440
667450
625226
552389
619090
536078
421254
499009
639871
763560
815912
806791
783764
793361
767250
744219
652635
538186
412911
341967
435053
569467
684535
748237
790737
780972
792856
803852
775630
644244
462215
316316
276070
292015
301353
428493
430365
434414
466818
459412
423266
378205
346975
342287
357875
384489
415704
460324
550532
661755
746575
793465
821644
818648
764595
657602
526173
392464
364155
478690
613999
733422
807774
832316
821426
791985
737168
552076
527506
583726
647773
564589
421375
277528
286658
386844
474280
561397
660445
692774
557249
431712
365630
396867
499116
634464
675276
571759
486669
524103
617049
665657
628758
498777
459692
518344
609193
594011
479596
501118
510580
445981
359560
407750
541898
709568
818426
816386
792332
785279
778279
794058
713815
573773
416765
402308
542739
687071
759720
762912
730592
720637
770531
810513
717260
530858
344034
259223
283940
341061
430566
612554
639867
445040
539003
662622
744221
724557
636456
555605
519844
554994
616076
588327
467400
391752
488223
587644
601519
533775
508543
513776
591678
729675
791204
653113
479751
400751
375523
354285
367215
413411
467533
594319
589551
373258
392317
522526
682338
772852
615511
418532
311300
277088
258579
392033
542368
460693
419574
513802
449855
325018
254790
224909
256938
354093
532964
707819
573815
361075
311830
318046
332138
349511
390424
582013
652463
537786
644956
678721
528336
331263
176616
105947
123381
188744
376805
444553
443728
362299
219418
115189
98858.9
126687
256381
526653
733812
637155
565895
542195
541660
549175
565279
579407
590041
587493
548972
533048
540179
444948
459189
551474
634451
683076
698440
685534
647618
580657
492949
414211
407087
481592
579153
673085
747861
784821
775668
741879
661737
573995
539437
531793
519136
492703
497538
541397
577611
590641
560573
449856
415621
351870
323420
311979
344332
437125
548037
630146
677310
698000
694572
658733
585873
484897
389835
414516
525237
620898
699181
734987
757982
747668
711406
596162
445575
331062
245235
192347
182022
186270
154866
99329.5
54094.3
241324
260264
262002
250549
223426
185891
152891
149979
188264
235021
268125
285350
285167
272057
226843
237379
308040
309001
302257
285137
257872
223958
194347
184140
210630
269108
344197
423594
507156
567765
581853
558947
520086
474123
423226
374749
356372
393831
454838
515182
555453
568859
555123
514155
445499
364638
256696
358344
533966
490166
396744
299479
250695
257024
294006
340740
400031
499334
633522
725039
756239
740519
719028
668528
619737
556535
508458
492866
527357
577107
623419
655280
673010
670038
647411
600174
523828
465570
339286
389418
743305
754269
711034
581734
433610
353851
368517
432264
498913
547744
616589
717793
775783
760034
704320
664391
645838
668563
648217
594178
560769
598549
659862
683121
706958
722545
738862
722200
660059
559789
443381
525969
558288
459315
524481
650476
766053
813194
801788
775778
777974
765721
775798
731614
669381
589505
545468
572083
640652
707908
763620
783545
788760
798765
806171
760504
608498
423222
299981
287619
301525
297949
290007
302529
412572
445334
440932
415192
384012
363655
357918
360228
363341
371712
409091
509539
628784
730429
787153
821980
837228
808199
732712
634876
543640
506197
556301
650045
747731
812097
833175
821802
793285
696249
360885
364909
590282
618578
562065
454118
328273
285411
352877
433873
517378
612430
699158
624373
475759
388049
369820
442429
550543
665134
660717
641786
644778
655553
647822
578294
473737
474351
536559
591365
578870
465778
324383
350804
417757
338266
385338
519475
686829
810728
824029
795920
781539
786099
797016
763253
691461
605832
575459
634001
717831
768770
775330
747676
751396
791497
810677
700972
511127
329156
262593
277742
305008
334230
349760
370061
420491
522847
643726
738564
752015
664538
563531
534477
534403
588063
624575
598320
556121
574425
615438
613551
575675
549467
571326
651538
763685
764907
601333
439433
375722
362810
362928
389308
433755
470933
392349
340173
323907
387161
509892
654795
779761
661296
471652
345412
282038
250008
346864
452028
523508
516255
489639
415258
316306
252078
237294
281997
372558
554589
709055
526184
350376
322120
328516
333679
333501
332109
341073
386275
502385
628382
693036
577724
377424
214044
123381
130213
164531
297974
403364
431566
303918
234312
117763
132775
156094
307023
558357
733348
669182
612808
565999
526053
495388
482647
488361
512251
526613
516811
451638
419963
402241
437732
523821
616843
683840
718663
724097
708612
670599
627042
584980
574538
609561
664862
726667
769807
780129
769622
732741
645050
525189
470217
467367
476253
478151
490280
531542
570209
576850
552816
436639
386715
356060
324980
309816
331300
400249
512795
607945
664468
695110
701298
687927
648565
603924
572249
589529
648426
702682
749969
763738
777769
761048
722583
606784
454509
326594
249392
212150
210315
208281
167065
75164.5
46103.3
242074
252390
257412
248944
226099
196236
175020
182641
216558
253007
278177
288072
278106
249838
198183
209654
267695
276485
277492
269406
251928
229961
210207
203256
218768
259677
318589
393697
484246
553620
577705
570501
550593
526531
503313
487602
489231
513657
547047
576815
594123
590216
565225
513076
436891
348553
283496
378620
517667
446501
354101
267035
229414
241704
277514
319636
377806
488353
632815
730249
767243
759043
753735
726714
712599
685502
678163
677622
693538
704788
715728
712828
702866
671550
619800
546790
461521
396865
318254
431341
747298
754394
706678
583357
455086
387552
385947
417688
457713
492459
555301
673919
768112
780226
731618
675610
625728
638954
644558
659744
670139
670802
676095
696363
705498
726069
732276
715947
642758
532622
474389
540762
552570
451355
509183
627189
742823
806910
802590
775100
759964
747422
765117
761210
757286
737468
717762
719582
735565
754637
781974
780868
796804
802990
801564
729641
568190
396155
307656
303506
315482
311652
297674
294523
376780
395681
391818
377151
363827
357625
356090
351024
338854
328575
357712
460085
581529
697579
773817
813200
838853
839462
801784
743525
682750
648858
659078
709963
772831
817635
829335
819435
785456
662852
352169
357557
522051
565434
547263
481299
385981
321021
342093
399762
467898
549785
651249
680087
562706
443946
372869
398001
444029
554226
606306
640633
626436
603293
588179
503588
465734
495216
541912
580116
575882
428221
299021
308355
367070
293117
343810
472531
635272
781481
832929
809264
786030
785190
786726
788601
768199
746788
738429
748326
767119
783382
780134
770436
784675
813378
798116
671439
484469
325006
269478
270728
279058
282978
285721
312479
380087
481502
597522
709392
764415
724061
628250
541256
518973
528812
545306
594395
600980
610620
611754
606974
602132
604265
648939
716010
782994
699910
512504
384848
352812
354661
367482
397392
430835
443669
347932
296255
301403
376654
483926
607710
757330
723691
553226
398157
305285
248558
283498
282772
348293
396151
350346
321806
279481
237941
265320
316743
419296
610917
696887
478154
343719
321966
320525
315242
306391
308138
337515
382463
484121
595561
688017
639151
460300
278388
161790
133585
116269
151936
204088
210971
216207
174080
137662
161877
223609
374575
629707
726414
682238
635871
574689
498351
434219
400947
407636
446203
486100
508683
480312
458943
422424
440740
515706
609836
689360
740540
770473
780160