/*--------------------------------*- C++ -*----------------------------------*\
| =========                 |                                                 |
| \\      /  F ield         | OpenFOAM: The Open Source CFD Toolbox           |
|  \\    /   O peration     | Version:  2.1.1                                 |
|   \\  /    A nd           | Web:      www.OpenFOAM.org                      |
|    \\/     M anipulation  |                                                 |
\*---------------------------------------------------------------------------*/
FoamFile
{
    version     2.0;
    format      ascii;
    class       volScalarField;
    location    "0.007850000";
    object      p;
}
// * * * * * * * * * * * * * * * * * * * * * * * * * * * * * * * * * * * * * //

dimensions      [1 -1 -2 0 0 0 0];

internalField   nonuniform List<scalar> 
12384
(
862697
864137
863042
866523
865196
869193
867892
871724
870845
873949
873708
875511
875594
876153
848868
849036
848603
848807
848192
848349
848272
847523
849480
848863
851370
851345
852872
853730
854251
854121
853739
852636
851991
852328
851494
853662
853825
854975
857984
858530
859604
859864
860759
860937
876013
875364
874885
874336
873857
873675
874302
874482
874583
874583
874607
874196
873116
871725
868626
866960
862473
862307
856805
857853
853571
854701
852968
853387
852271
852307
850845
850959
850749
850471
848392
847756
847813
847773
848174
847169
849349
851628
852489
854353
855628
856612
857393
857565
857119
855659
853860
854580
852290
855015
856822
857042
864347
865319
866778
869720
870743
870674
873375
872678
850893
849794
849422
848091
847671
846888
846724
841156
841968
828999
832221
816531
821461
811409
812762
820953
819338
827707
827004
831920
831835
833857
834619
835399
835004
837376
837384
838639
839627
839791
835814
835687
836413
835777
837855
835565
840863
839048
845345
844407
849926
850489
853203
854525
855137
854800
852939
851724
848335
848825
846488
848301
849593
852877
854435
856293
856439
857278
857223
857874
865526
864802
864400
864277
863673
864005
864906
865552
866580
867757
868442
868474
867226
864004
859741
855448
850278
841686
838799
840205
839621
840474
842727
845670
846867
847046
846747
846385
847300
847024
855040
854523
853503
856872
857207
858521
859474
859125
856984
853089
847530
842871
837027
832517
830948
833550
835768
839458
841403
841559
841276
839728
839303
837664
835158
835728
832055
833239
829271
830354
827092
826316
828111
829075
829969
830506
830209
828695
825637
820951
818248
817376
817128
816857
822096
826870
831063
833595
835947
837461
838475
839501
838878
839260
839029
839494
838243
837591
836127
837557
848083
846097
847227
847894
848301
849123
849620
848525
845139
845195
839201
831312
835995
833929
832905
837277
842743
843474
846155
846931
847336
847269
847929
847844
847562
847016
847173
845281
845198
845659
822665
821369
821789
823618
824391
826806
827333
827082
824561
821819
827491
823854
833500
836803
837294
844299
842857
846096
842125
848359
847137
849777
852182
854179
853422
857972
858463
858459
860917
861181
921614
921972
919735
919064
916952
915127
914362
905455
907435
901858
895893
891222
893619
884419
887878
879625
882367
874427
876706
868873
871297
863883
866326
859800
861913
857738
859845
859096
859538
860132
834897
834907
835727
834955
836433
836082
839885
839208
843285
842403
847128
844956
851724
847661
859184
852635
870216
863371
880365
875431
889520
885213
896800
892714
903078
901527
907887
908445
910053
910969
863114
864404
863457
866594
865334
869164
867747
871640
870776
873788
873719
875410
875545
876164
850522
849691
849812
848642
848643
847737
847917
847741
848987
848954
851222
851466
852574
853538
853960
853885
852877
852142
852296
851482
852122
852144
853349
855747
857477
858649
859804
861430
861417
862082
876513
875525
874737
874036
873621
873515
873196
873604
873940
874105
873929
873466
872229
870776
867177
866186
860786
859809
856359
854250
853786
851669
852749
852052
852577
852002
851741
851379
850594
850999
848907
847871
847315
846714
846329
847535
849301
849437
851845
854346
854788
855893
856891
856700
855304
854230
854427
851758
852364
850209
852935
856979
859660
862937
866283
868921
869988
870809
872327
873438
850293
849309
848878
847838
847654
846302
845590
840168
839445
827605
828149
816099
814983
812492
813388
813263
817470
823740
826697
832137
832587
835046
834797
835754
835403
836340
837186
838471
838883
839164
836558
836230
836032
835789
836554
835640
839257
838553
844390
843738
849318
850150
851998
853475
854078
853446
851924
850332
847504
845803
846336
844528
848080
850328
853174
855404
857014
857397
857832
857904
865420
864351
863821
862860
862341
862744
863605
864843
865346
866142
866739
866193
864279
861815
857040
852550
845308
840726
838825
833239
832780
837274
839707
842269
845298
846759
847268
847101
847240
846859
854547
854063
854446
855115
856162
857659
858149
857325
854595
850399
844953
839710
832462
831912
829919
830947
833252
835946
839105
841543
841661
840748
839245
838188
834800
835989
831860
833099
829562
830228
827292
826874
828114
828517
829757
829876
829116
826794
822904
820039
815719
812332
812812
815884
818769
822731
829648
833781
836809
838492
839768
839591
839458
839521
839756
839410
839601
838841
836651
837861
847126
847854
848185
847532
847807
848551
848452
846270
846813
838172
836039
835385
828230
827418
832119
835126
837605
842963
846262
847836
848802
848592
847762
848388
847748
846917
846103
846250
845042
845208
823550
820944
820945
822566
824465
824962
825162
823334
821687
822707
817173
824529
827322
832272
838400
842595
844783
844632
845177
846459
849161
849717
853658
852676
855087
857608
857424
860047
861153
860984
921451
921179
919898
919188
916632
914473
913271
905149
906529
896547
899221
889426
893194
884505
885633
880213
880674
874725
875247
869337
869680
863930
864925
859241
859849
858933
857779
858908
859483
860312
834887
834865
835230
834421
837066
835777
839997
839676
843186
842995
845725
845993
847598
847261
857833
851936
867265
864241
877803
875823
888330
885325
896295
892879
902538
901522
907384
907926
910117
910987
863101
864371
863564
866764
865217
869196
867663
871722
870709
873846
873564
875107
875385
875981
849387
849886
848793
849567
848123
848415
847631
847660
848997
849318
850710
851576
852990
853217
853753
853135
852333
852433
851480
850718
852284
850960
854814
853989
857671
857792
860896
860857
861906
861991
875613
874601
874220
873712
873049
872806
873348
873371
873197
873362
873202
872554
871016
869243
865479
864157
858435
857767
853816
852818
850380
851466
849692
851085
850759
851384
850973
850669
850501
850086
847594
846485
846199
845473
844900
845616
847944
849186
851034
852964
854468
855212
855360
854702
854023
853820
849390
846897
847509
850871
848831
853201
855761
860468
863490
865964
868600
869685
870935
871601
849417
848649
848422
848068
847645
845964
844762
837553
837817
823479
826929
809340
815596
805385
807023
810378
813233
819854
823373
827993
831184
833249
834115
835693
835896
836155
837147
838020
838603
838973
835984
835512
835666
834517
836789
834414
839965
837660
844758
843586
848152
849639
851846
852525
852944
852445
850417
848668
844804
844783
842179
844289
844582
848309
850380
853175
855026
856962
857181
858301
863829
863007
862146
861493
861874
862491
862813
863241
864129
864490
864688
863696
861886
858422
853672
848953
839463
839154
832596
828917
829925
831074
834451
838833
841740
844398
845909
846693
847447
847420
853707
853312
853644
855527
855610
856180
856658
855124
851787
847087
841527
835388
828293
828044
823368
824978
828448
832060
835323
837857
839830
839866
838712
838290
835062
835934
832252
833677
831213
830629
826517
827177
827946
828777
829135
829414
827580
825090
820379
818050
811380
809682
808703
810806
816339
818571
826357
831082
834579
838127
839372
840757
840104
839457
839527
839039
837935
838408
837831
838500
848833
847466
847982
848208
848699
848363
847521
845744
843749
835012
835170
829361
824814
827260
826774
831068
834761
838940
843045
845961
847730
848621
848514
847958
848395
847547
845971
846367
845939
845496
821994
821980
823557
823028
824036
825029
822542
820747
819030
813774
819526
816647
816855
828360
832620
838664
841715
845070
844276
849863
849006
853525
852292
855558
855625
856320
859819
861222
860174
863578
920413
920675
919718
918605
916841
912584
910763
904926
905027
894605
897755
889308
891108
882484
885337
879329
879172
874026
875152
868140
869912
862898
864635
858009
860112
856365
857993
857872
858293
859325
833918
834894
835616
834972
836368
837086
838183
840067
840959
842112
842610
844835
847516
841861
854238
854860
860282
865059
876120
875394
887468
885691
896070
894081
902282
902563
907120
908176
909418
911191
864398
865230
864753
866995
865753
869294
868019
871806
870834
873602
873525
874738
875261
875757
852402
851011
851383
849016
849870
848220
849172
848531
849610
849700
851361
851194
852833
853400
852901
852477
852173
851188
849521
850096
850590
850707
854264
853236
857224
859406
860031
861811
863098
864055
874823
874222
873825
873344
872786
872505
872403
872599
872846
872678
872130
871019
869073
866432
863370
859520
855659
852766
851807
848300
849080
847001
849063
847798
849105
849402
850342
850475
850384
850347
846174
845214
844810
844909
844967
844367
846255
848407
850379
851501
853204
854070
853631
853675
852884
847373
844286
843926
840655
840996
847476
848044
852635
855624
860101
863443
865651
867618
868832
869769
848641
848078
848319
847768
847616
845095
843620
835158
834118
820641
817785
809236
804978
804928
800210
804366
806381
814055
818058
825708
827415
832349
833343
834925
835686
836207
837026
837548
837307
837638
835686
835362
835124
834488
835870
834959
839470
837793
843802
844154
847806
848411
850974
851802
851609
850783
848195
846112
843012
840028
840219
837385
841376
843331
847682
850207
852948
855181
856692
857301
862324
860828
860189
860689
861081
861040
861347
861700
861990
861962
861484
860497
858033
854127
849804
842013
836549
833854
824137
828013
827711
826490
829878
833133
838278
842215
844577
846070
847173
847449
853151
853075
853322
853995
855300
854969
854084
852012
847693
842769
836459
827833
825624
819906
821162
821110
823581
827701
831597
834503
836786
838185
838417
837562
835451
836041
833045
833608
831235
832091
828171
827841
829036
828766
829124
828411
825948
822354
817214
814657
806958
808183
807435
806995
810645
816310
821439
828060
833488
836322
840109
840246
840223
839924
840208
841051
841420
839751
839766
837895
849797
848809
849144
849244
848877
848125
846263
843599
839529
833534
828703
819754
822856
817191
817657
822394
829492
835137
839361
844386
846474
848282
848949
848729
847786
848413
847072
845849
846234
845859
824381
823564
824945
825373
823586
822807
819126
818915
811992
810735
805585
811499
815645
820703
824856
832947
841919
841797
848043
848384
853397
852420
856676
855410
858389
859508
860411
860364
864077
861652
920257
919784
918594
917091
916257
911614
908433
904224
902043
894451
893520
888753
885019
884087
880769
878761
875536
875538
871029
870761
865377
865372
860460
860729
855770
858004
855519
856087
857495
858314
835973
835134
835251
835233
837008
836259
839045
838528
840071
840100
839576
839645
842397
844633
843074
857594
851943
865936
869964
876899
884245
887153
894624
896906
900997
903434
908162
908094
910366
910456
864259
865096
865078
866903
865927
869591
868167
871694
870957
873399
873340
874460
874946
875438
850683
851188
849715
850880
848872
849477
848231
848628
849016
849882
850684
851666
852419
853001
852586
852588
850794
849141
848713
848299
850182
848576
854150
852431
858532
857916
861433
862679
863208
863408
874570
873562
873590
872805
872765
872448
872365
871864
871392
871163
870449
868869
866419
863305
860002
855312
852293
849216
844786
844860
843549
845802
844454
847480
846957
847890
848470
849354
849347
849121
844534
843642
843393
842815
843923
843088
844745
847514
849429
850833
851599
852575
853797
852151
846381
843973
842506
840105
836419
832155
832010
840640
845520
851066
855171
859579
863200
865509
866671
867434
847784
847685
847765
848069
846970
844472
841376
832947
829328
813846
816793
800178
803694
794253
799958
798637
804130
808537
812096
822296
824203
830284
833187
833997
835793
836166
836899
837328
837220
837973
834907
835435
834974
834286
836486
834857
839812
838146
844142
844061
848091
848158
849692
851083
851017
849035
845910
844257
837712
837880
833717
836795
834305
838574
842066
847865
850551
853180
854611
856249
859688
859106
859642
859422
858259
858226
859165
860196
859860
859701
859130
856685
853773
850703
843827
836080
832711
825869
820053
816993
818296
824159
825340
828644
834066
839323
842953
845239
846572
847145
852760
852427
853660
853499
853748
854190
852123
848257
843443
838934
828371
822431
820735
816359
811121
810899
813955
817631
826124
831233
834918
837017
837722
836824
835858
835737
833858
834699
832328
832373
828262
828491
828817
829720
828830
828246
823401
820065
814432
810697
802340
801124
797971
800167
804696
814242
815574
826702
830144
836979
838961
841614
842319
841945
840659
840355
840221
842004
839617
840472
850910
851160
851440
850604
849660
848222
846011
841196
835792
827949
825573
815520
810626
813599
816224
818268
823206
829684
836031
841284
845300
848104
848584
849345
848825
847702
848208
846304
845334
846069
827182
826225
825932
826044
825570
820499
817345
815240
801134
803199
799367
798577
800037
817014
814562
834217
831517
845640
844978
853163
853052
857405
857007
858509
858371
861117
861128
866069
865351
866058
917642
917819
917104
916100
913718
910759
906849
900563
900574
892271
889744
884723
882750
881031
878382
875668
876167
872431
872637
868127
866169
863048
862534
857780
855740
856601
854567
855797
857039
857156
834894
836382
836398
836587
836687
837095
837521
838933
837265
838436
838573
835794
836780
844658
836419
855058
847082
868342
862002
881180
878261
890483
891020
900668
899190
905360
906401
909672
910318
912139
866377
866911
866257
867993
866764
869765
868437
871604
870850
873065
873317
874104
874854
874838
855795
853354
854481
851404
852270
849815
851102
850184
851355
850799
852419
852079
853256
852762
852520
851412
849707
848781
848518
848026
849130
848305
852777
853657
856604
859518
862323
863688
864849
866637
873814
873748
873161
872866
872485
872372
871940
871600
871109
870365
869301
866711
863955
859001
856810
848793
848454
842342
842953
840446
840554
838833
842306
842390
845961
846437
847079
847815
848908
849526
843965
842389
841541
841050
841599
844224
843039
846365
849334
849864
850893
852190
851107
847021
845438
843547
835142
830618
830962
832337
831606
829484
836566
844942
850613
855489
858340
860718
862765
864212
847636
847487
847847
847369
846464
842897
839672
830446
825205
810462
811814
795067
795421
794175
789917
796595
793536
808116
805510
819934
820835
828599
832324
834071
835852
836523
837252
837117
837639
837248
836692
835944
835992
835752
836581
836075
839861
839583
844083
844371
848085
848872
849690
850224
849514
847977
844771
840981
834332
833912
831272
828539
835198
836061
838453
842699
847796
850947
852677
854392
857776
858886
857956
856123
856414
857728
859166
858561
858348
857206
855249
853130
851060
846753
837635
833820
827907
820805
815367
813251
811608
812531
819562
826713
831611
836299
841062
844402
845804
846400
851665
851960
853148
853547
852897
851991
849453
845052
841354
832974
819591
822139
813251
806206
810142
811083
815134
814773
822477
826291
833160
834703
836299
836688
836983
836557
834786
835037
834053
834877
829457
830101
830522
830051
829831
826576
822979
818154
812963
804455
799484
798655
796496
800019
800501
808234
813750
822431
831453
835084
840238
841364
841097
841502
843716
843348
843015
841069
843146
843460
852959
852736
852352
851783
850674
848582
845714
839602
831536
825502
819540
805690
807176
802996
807502
812342
818437
826602
830000
838348
844258
846730
848751
849004
849181
848146
846380
846905
845949
845375
829013
830088
829555
827408
825475
822615
815455
809053
798983
801243
793355
796477
795316
808951
807796
829733
827188
844601
848498
853032
857809
859163
860526
861136
862852
862098
867022
865338
866357
868534
916276
915773
915664
913932
911349
909610
904329
899942
895374
892621
882257
886460
876848
878814
874501
876155
872799
873385
870056
869866
863978
865432
858330
860517
854290
855137
853391
854433
854827
855816
838217
836921
837104
837028
837407
837306
838181
837348
837578
834620
834102
836516
831350
839235
836074
847417
845799
865521
860078
880772
878032
886465
895589
897627
902042
904898
908200
909974
911459
912803
865998
866489
867567
867659
867272
869364
869252
871187
871531
872387
873612
873762
874094
874159
854967
856499
852985
854061
851169
851799
849939
850079
849932
850733
851048
851994
852318
852830
852103
851047
849181
848925
846841
846279
849119
847047
853814
852324
859012
859644
863589
864127
866706
866619
874164
873198
873214
872309
872391
871996
871475
870610
869974
868682
867842
863883
862015
854331
854951
844798
845321
836724
835911
834602
834965
839735
837083
840335
841345
845175
847260
846935
846758
846883
842861
841696
841400
840778
840264
843972
843589
845200
848818
849787
850260
850717
848619
847340
843509
837164
828793
827760
818772
822694
826879
832388
831779
837568
844606
850715
856231
859490
860586
861457
846534
847158
846975
846846
844810
841388
837678
826826
824685
806333
809223
790050
798185
785111
791570
790403
791445
803276
803212
818665
818516
827265
831503
834577
836086
837140
837099
837256
837111
837211
835729
836251
837248
836905
837457
836854
841562
840604
845416
844930
848381
849283
850437
850402
849253
847824
842652
838117
834063
832706
826659
829773
825595
831996
836365
839868
844273
848949
850109
853017
858588
856006
854305
855080
856654
856659
855240
854862
855356
854942
853791
850871
848585
843421
834086
831615
823328
816524
810089
813768
814614
814160
812902
826070
830631
833029
839981
843479
845260
845899
851973
851769
852599
852961
852867
851073
847686
843271
839969
825304
818712
821615
806029
802505
800559
800427
808256
810899
819177
823334
831322
834665
836279
836199
835944
835686
836193
834907
835308
834308
831414
831143
831058
831005
829881
827001
821497
818556
809169
803782
797610
798108
794488
798483
798287
809309
809510
822955
829257
837247
840261
843574
844384
843594
842485
843850
843841
844919
843186
843238
854195
854023
854216
853213
851790
849498
845180
838707
831705
821402
813877
806032
806595
801175
800482
804531
815284
819972
826396
836296
841619
845589
848145
848962
848524
848319
846375
845386
845275
844415
832178
832285
831987
830836
826230
823919
815740
801720
797363
792857
782553
790180
783440
806241
797669
829851
822285
847990
846073
857045
859502
861623
862699
864370
863654
868311
866412
869424
872792
872622
911924
913447
912886
911665
909702
906069
903494
898780
888894
893987
880717
882094
874782
876832
873808
872668
873570
871966
871400
868887
866315
863204
859898
860151
854826
856150
852972
854807
854406
855149
837731
838557
838359
838639
838640
839136
837634
837937
835389
835402
831879
831663
832749
831171
833879
847438
841167
862545
859369
879524
876352
888759
896506
895656
903478
905904
908483
911730
913953
913848
868970
868856
867938
868786
869124
869917
869449
870679
871305
872000
872677
873462
873743
873638
859545
857404
858490
855143
855725
852863
853986
852809
853693
853292
854251
854492
854950
854102
853159
851022
850311
850517
848604
847471
847887
848985
852171
855350
859338
861669
863977
867295
868016
868340
874226
873833
873623
873151
872496
872140
870794
870158
869702
867694
866937
861545
860581
850802
851664
840388
842838
834399
836909
834135
835435
833546
838916
838835
841912
843547
844803
846846
847836
847740
843324
841133
840149
840066
839915
843950
843737
845938
848602
849655
850596
850378
848881
846381
840666
835439
827253
827358
817476
815082
814901
821806
830449
833603
842149
847386
851112
853405
854295
854636
847185
847540
847507
846050
843674
839393
836534
824369
825506
803979
809279
790806
793391
783336
787122
792702
785716
805248
799333
818880
816611
828519
830571
835380
836996
837725
837868
837792
838177
838523
838078
837287
836670
837057
838887
838623
841560
842267
846144
846959
849027
850547
851032
851048
849541
846976
841999
839098
832773
828557
825081
824622
826418
826761
836185
837007
843147
846014
850108
850999
854592
854032
855028
855214
854132
853410
854339
855405
853933
852762
851946
848671
846776
841174
832676
828965
821148
816881
809157
813459
812407
812478
811982
826650
828297
831345
840238
842733
844918
845632
852426
852268
853149
853087
852501
850336
847175
842867
836927
822316
823455
815513
801149
803825
803747
801054
809700
808977
818003
821785
832393
833522
836957
838736
838880
837397
837433
837379
835939
836756
833359
833593
833051
831998
830434
827274
822858
814801
811074
804312
797293
797788
796600
796630
800748
807090
812766
822287
831855
838194
841950
843341
845222
846340
845383
844531
845997
845834
847007
846372
855639
855753
855281
854778
853081
850448
845024
839625
833378
816546
812464
807912
797867
796884
800675
804608
808016
816539
825594
833334
839372
844286
847015
847913
847792
845761
845518
845829
843490
843328
835966
835846
833854
832157
829609
824489
811302
808696
792437
790238
781732
784929
781391
804842
794830
828590
821083
848176
848168
859990
860999
863481
865168
865630
868839
867493
870421
871890
871142
871988
911598
911114
911132
910687
907295
905309
900828
898669
889074
890507
878371
882085
873316
876699
872105
874220
872076
872796
871385
868980
868317
862650
861879
859670
854133
857049
852361
853195
852973
852728
841165
840313
840568
840504
840348
839648
840029
837737
836731
834258
832319
830361
828841
834751
828111
847774
839214
863184
857453
879107
877361
889853
896478
897913
904796
906073
910496
912853
914249
916801
867922
868282
868997
869775
869594
869582
870939
870635
872271
872215
873174
872847
872516
871206
868868
864503
862796
860912
857983
858725
855483
855887
853160
853024
852434
852868
853308
853757
853671
853872
853114
852384
850174
848483
847822
847884
850988
849202
855856
855353
861133
861015
866806
867577
869539
869992
870847
864907
872613
872454
873025
872500
872454
871110
871254
868762
868996
866423
865676
858861
860727
848106
851821
837887
842084
830806
833693
829671
830692
833198
835936
836239
840326
843176
843805
843623
844257
843867
839902
841141
844743
842229
842578
842364
842383
844335
844523
846935
848878
850459
851134
850761
849425
846384
841607
835931
826774
826984
815921
819256
819773
818018
828994
830265
838565
843454
848118
852299
853136
854724
841252
842455
845733
845374
844749
843843
841584
838747
833828
825545
825073
805925
808361
790708
795116
785496
786315
787687
791041
801085
801042
816514
819973
827532
831726
835764
837543
838036
838149
837753
838134
838263
839796
838600
840188
839359
840032
840091
841615
840721
843579
844440
846751
848783
850690
851379
852023
851613
850510
847825
843188
840062
831329
830380
825570
826851
826237
826986
834950
836432
841684
844961
848265
851949
849352
849117
853607
853286
854133
853122
852595
853788
854707
853745
853879
852894
849797
848796
845690
840433
835466
826897
820467
817532
809695
813563
812662
811466
813503
826863
826817
832384
839907
843146
845002
846577
847798
845849
850531
851158
851861
852263
851813
850437
847733
844278
835636
824346
826855
811153
803625
802128
800170
799114
809632
811154
817161
824983
831007
835551
838086
838711
839108
838680
837627
837141
838079
836511
836448
834277
834271
832472
833316
832290
829782
828828
824073
816497
812057
808432
797997
797459
793143
796762
800126
810660
815308
826700
833573
839258
844375
848440
847582
846627
847597
847586
847233
848331
848279
849548
849587
852372
854500
854393
854809
854934
854229
851594
846428
842778
834048
815856
817188
808564
795855
797357
801634
802373
805906
816482
823239
829703
837863
843041
845657
847294
846369
845869
845207
844137
841773
841898
839243
837814
837073
836034
834304
832741
831686
825028
812419
813203
792324
789775
779455
781396
783387
800819
796805
826989
823671
848965
850208
860944
862216
866372
867301
870445
869893
872591
873742
876178
879488
880065
892668
891459
902235
905220
907628
906971
906494
903781
898562
898513
889973
887536
880040
881833
874862
877536
873213
873959
875402
873512
873423
870880
867109
867337
860792
863031
855314
857079
854411
852949
853296
853332
844669
845757
841713
840954
839664
840614
840923
841204
839424
839335
836905
835733
832261
832792
828389
834001
829525
846550
840992
862387
858640
878654
878814
892974
893592
902415
901789
908770
910042
913205
916779
919317
921813
923883
870233
870980
870799
869701
869923
870563
871272
871091
872492
872555
873111
873144
872838
872153
869434
865377
864522
862237
860967
858068
858653
856122
856802
855583
856418
856449
856490
857018
857822
856739
857007
855143
853595
853783
853340
852022
852810
852148
855404
858480
861273
865791
867415
869711
871022
871294
871585
868265
873548
873014
873148
872588
872228
870838
870340
868639
867944
865338
865499
858532
859076
847763
849491
836820
841494
831355
834778
830930
832436
832479
836502
836123
841224
842417
843756
845318
844796
845181
841404
841671
845195
842939
841854
841363
842167
844273
845636
847991
849910
851396
852148
851904
850037
847743
842539
838718
828214
827256
819345
818429
820932
817690
828938
830275
838241
841291
847509
846940
849135
849513
846716
842818
845157
843337
842989
841853
841326
837804
835066
827984
825480
810512
811545
795868
798205
790623
794816
792917
799798
798993
807953
815250
822916
829069
833685
836950
838310
839093
839404
839080
838892
839576
840288
839484
840195
840234
840594
841466
841206
842101
844288
846923
848122
850733
851434
852560
853102
853052
851070
849274
845311
840695
834043
832497
825706
824913
828718
831346
835277
836749
842323
845164
848549
852121
849839
849360
854934
853179
853275
853051
853410
853053
852213
852309
852577
851461
850520
848595
844935
841958
835452
830309
822076
822369
810353
811675
813505
811347
818184
828193
827046
834564
841443
843605
845675
847701
848340
847691
851720
851061
851979
852051
852110
851302
848627
844947
837913
829956
824748
815068
810464
808066
802955
804293
810901
813613
821314
827132
833880
838262
841264
841253
841119
841327
840227
839046
837717
838525
835226
836043
833999
834741
833866
832559
832616
828758
825616
823109
813839
812685
809913
806943
807081
808353
810414
814188
821451
829122
836706
842679
847698
848515
850104
849546
848398
848542
848374
848281
848913
849911
849926
851834
855025
854947
855837
856469
855377
853089
849023
844429
834864
819656
820033
808839
804916
799191
800733
803135
808996
816096
822258
831138
837183
841790
844510
844718
844944
844239
843766
841623
842328
840673
837323
838038
837067
836343
835589
834827
832352
828148
815993
815166
800172
799847
789975
794924
783671
808911
797696
831934
825614
851559
850862
862825
863097
867632
868430
871408
870455
874132
871745
878873
876815
885699
890635
894783
901748
905161
905034
906003
904977
902766
898979
898470
889542
889704
882182
882079
879533
876121
879073
874804
875369
876064
872746
873083
868179
867155
862666
861762
858502
856587
855972
854176
851348
851745
844982
847273
842133
843057
842188
842266
842705
842251
842599
839981
839234
835298
835537
831173
834887
834631
834293
848184
843468
862847
862085
881544
879884
894519
894143
902659
902552
909302
909658
915356
917006
921422
922463
925226
871444
870697
870661
871123
871228
870817
871205
871677
872207
872474
872818
872964
872587
871676
869434
867565
866373
864103
862316
861046
858595
859049
856642
856806
855889
856129
856475
857662
857221
857906
857201
857339
855623
852805
851999
852833
852569
856827
859746
859672
864647
866733
869153
870802
872331
872413
871542
869674
873979
872973
873049
872307
871953
870050
869815
867827
867831
865455
864189
859362
858775
847930
850399
838797
841651
832480
836605
831435
834311
833117
837676
836999
841821
841922
844390
844761
844870
844788
842694
840694
844573
844353
844459
845108
845344
845645
847260
849486
851127
852606
853387
853112
851666
849292
844678
841581
832546
831160
822837
822863
826607
825080
826534
834830
837338
843017
844709
848929
848733
850337
842236
844911
843244
842364
840871
840893
839321
838562
835666
831299
826722
815700
814242
802556
799011
793547
792157
794850
799176
801821
813905
816201
826745
830648
835969
837897
839295
839977
840159
839786
840450
839750
840793
839618
841402
841204
841763
842074
844191
844683
846338
848220
849135
851557
852598
853419
853875
853546
852724
850833
846404
842844
837657
836761
834195
832546
829610
831874
835696
839697
843201
846458
848985
851528
849698
850251
854889
853872
853761
853349
852628
852787
852643
853199
852864
852016
851098
849212
846665
842826
837410
834341
823621
825503
818648
819037
814133
815389
825787
827514
829680
837820
842743
844170
846395
848082
847798
849277
851615
851468
851630
852392
853225
852966
850859
846978
841736
835575
826980
820960
812135
811285
814848
814397
815305
819746
825891
831647
837615
841035
843093
843852
842563
840863
840894
839615
839592
837978
837948
835774
836179
834109
833752
834755
834928
833325
830461
824274
819111
813683
807086
809306
805133
808611
812423
819225
827156
833580
842113
846457
850366
852183
852109
851675
849858
848567
849413
849037
849657
850998
851120
851862
854235
854424
856054
856478
856409
854999
851437
846637
839090
826804
824516
809069
809715
809387
801457
807499
814805
816137
825663
833198
837465
841497
843547
844221
843609
842778
841020
841782
840839
838129
838428
837589
836813
836658
836451
836093
834072
831031
822943
817597
803680
800350
797099
791371
800368
807356
811619
832053
835786
851057
856619
862139
867184
867005
871624
870835
873133
872700
873433
878529
879228
885764
891133
895093
901316
902812
905447
905119
903676
902161
901360
895874
892783
890381
887212
883300
883788
881149
878134
880895
876635
876586
875749
872069
869102
868839
861735
863633
857455
859210
853848
855472
849633
850851
845576
846954
844010
844494