/*--------------------------------*- C++ -*----------------------------------*\
| =========                 |                                                 |
| \\      /  F ield         | OpenFOAM: The Open Source CFD Toolbox           |
|  \\    /   O peration     | Version:  2.1.1                                 |
|   \\  /    A nd           | Web:      www.OpenFOAM.org                      |
|    \\/     M anipulation  |                                                 |
\*---------------------------------------------------------------------------*/
FoamFile
{
    version     2.0;
    format      ascii;
    class       volScalarField;
    location    "0.007850000";
    object      rho;
}
// * * * * * * * * * * * * * * * * * * * * * * * * * * * * * * * * * * * * * //

dimensions      [1 -3 0 0 0 0 0];

internalField   nonuniform List<scalar> 
12384
(
0.830787
0.837334
0.84268
0.851975
0.853826
0.858091
0.855498
0.855395
0.850548
0.847928
0.840853
0.83403
0.827285
0.820535
0.892704
0.885834
0.86875
0.852598
0.844857
0.842455
0.841526
0.840907
0.842334
0.842771
0.846364
0.848418
0.852314
0.856112
0.860081
0.863195
0.866474
0.867715
0.868659
0.869936
0.869702
0.871729
0.871969
0.872657
0.87436
0.873292
0.872861
0.87454
0.896939
0.931256
0.852496
0.850118
0.85224
0.852851
0.852758
0.852592
0.854099
0.85502
0.855683
0.856281
0.85702
0.857777
0.85765
0.856964
0.854515
0.85299
0.848936
0.848459
0.843566
0.843939
0.839843
0.840176
0.837935
0.837789
0.836142
0.835419
0.833218
0.832497
0.833828
0.833942
0.83886
0.838553
0.839745
0.839818
0.840072
0.839014
0.840627
0.841938
0.842252
0.843335
0.843908
0.844219
0.844304
0.844203
0.843653
0.842326
0.840809
0.841444
0.839936
0.842185
0.843911
0.844336
0.850589
0.851391
0.852511
0.854827
0.855707
0.856229
0.859017
0.858691
0.839333
0.838246
0.83725
0.835151
0.83412
0.83334
0.833613
0.82951
0.83061
0.820224
0.823939
0.81056
0.81515
0.806241
0.807781
0.814368
0.813481
0.820127
0.819268
0.823426
0.823915
0.827088
0.829188
0.829767
0.829881
0.832845
0.833491
0.834318
0.834574
0.834414
0.824527
0.819554
0.814489
0.813896
0.816852
0.816137
0.821732
0.821056
0.827076
0.82662
0.83163
0.832205
0.834423
0.835589
0.836105
0.83581
0.834263
0.833196
0.830252
0.830549
0.828366
0.829799
0.830654
0.832918
0.83346
0.834738
0.836567
0.840497
0.841085
0.840969
0.869833
0.860592
0.856729
0.856209
0.856011
0.856923
0.858709
0.860748
0.863408
0.866318
0.868911
0.870457
0.870463
0.868479
0.865252
0.86182
0.85756
0.850295
0.847599
0.848318
0.847364
0.847589
0.848655
0.849956
0.850242
0.851618
0.879731
0.911449
0.906881
0.903099
0.837396
0.82446
0.820966
0.823058
0.824113
0.825882
0.827026
0.826905
0.825249
0.822241
0.81763
0.813712
0.808782
0.805092
0.8037
0.805781
0.807424
0.810289
0.811089
0.809947
0.816271
0.827817
0.827306
0.824823
0.82168
0.821121
0.817116
0.817653
0.814426
0.815577
0.80031
0.799301
0.8004
0.800813
0.80142
0.801924
0.801749
0.800735
0.798474
0.794822
0.792696
0.792173
0.792399
0.792231
0.796256
0.800157
0.803436
0.804945
0.805277
0.800187
0.799072
0.79971
0.799177
0.799495
0.79932
0.799326
0.797737
0.796628
0.796424
0.797768
0.818912
0.816293
0.815934
0.815054
0.814115
0.813817
0.814013
0.813664
0.811376
0.812055
0.807762
0.802073
0.805856
0.804656
0.803917
0.80712
0.811556
0.812071
0.814427
0.815713
0.811939
0.80943
0.808815
0.807982
0.806981
0.805719
0.805476
0.804701
0.805148
0.805564
0.78446
0.783245
0.783575
0.785023
0.785662
0.787861
0.788633
0.78892
0.786988
0.785216
0.789976
0.787194
0.794644
0.796116
0.795689
0.800803
0.794992
0.79746
0.794315
0.800181
0.799272
0.802195
0.803837
0.805406
0.804793
0.808119
0.808255
0.808124
0.80972
0.808824
0.875712
0.878023
0.873658
0.861691
0.858878
0.858263
0.857358
0.850015
0.851185
0.84638
0.841764
0.83781
0.839538
0.832354
0.834921
0.828544
0.830563
0.824535
0.826412
0.82046
0.822726
0.817202
0.819355
0.814233
0.81569
0.81204
0.813579
0.813116
0.813924
0.815303
0.784574
0.786546
0.789931
0.791398
0.793185
0.792331
0.790144
0.758953
0.740032
0.73921
0.744238
0.744229
0.750921
0.749738
0.759696
0.756822
0.771004
0.767512
0.781763
0.778637
0.78936
0.784246
0.789521
0.783164
0.787098
0.783689
0.787143
0.787706
0.790296
0.800128
0.843644
0.857754
0.869579
0.877368
0.87593
0.876147
0.872131
0.87227
0.868544
0.866262
0.857444
0.846641
0.832064
0.821605
0.893752
0.88366
0.863987
0.84546
0.836859
0.83194
0.830345
0.828951
0.830037
0.831368
0.836827
0.841583
0.848329
0.856838
0.865294
0.87076
0.87311
0.874041
0.875135
0.875228
0.876685
0.877138
0.877975
0.879398
0.879563
0.878338
0.876263
0.875473
0.880647
0.900257
0.852607
0.850738
0.852306
0.852363
0.852942
0.853546
0.854019
0.855169
0.856501
0.857873
0.859351
0.8601
0.860014
0.858622
0.854917
0.852842
0.847507
0.846205
0.84297
0.840951
0.840365
0.8383
0.838888
0.837753
0.837316
0.836035
0.834876
0.833373
0.832104
0.832722
0.839282
0.839027
0.839634
0.839174
0.838836
0.839772
0.841006
0.840357
0.841527
0.84237
0.841397
0.841039
0.84148
0.841555
0.841075
0.84102
0.841919
0.840096
0.840963
0.839041
0.841207
0.844142
0.846376
0.849282
0.852205
0.854354
0.855086
0.855922
0.85765
0.859004
0.838881
0.838087
0.83673
0.834198
0.833854
0.833875
0.835329
0.832811
0.833996
0.824948
0.826468
0.81695
0.816336
0.81427
0.814525
0.813835
0.816393
0.820524
0.821399
0.825274
0.824995
0.827164
0.828181
0.830264
0.83202
0.836248
0.838985
0.838914
0.836138
0.835248
0.82443
0.817968
0.812994
0.813541
0.816139
0.817534
0.822262
0.822925
0.828862
0.828962
0.833825
0.834478
0.835914
0.836798
0.836991
0.83604
0.834388
0.832653
0.829862
0.828161
0.828513
0.826975
0.829945
0.831773
0.83377
0.834992
0.836465
0.83867
0.84113
0.841507
0.868643
0.8576
0.853946
0.853236
0.854008
0.855468
0.858604
0.863048
0.867755
0.872047
0.874716
0.875395
0.874256
0.87221
0.868059
0.8639
0.857283
0.852952
0.851001
0.84605
0.845178
0.84832
0.849426
0.850223
0.850956
0.851626
0.859542
0.883525
0.906557
0.902658
0.839206
0.824679
0.821464
0.822732
0.825324
0.827019
0.827407
0.826593
0.823947
0.819989
0.814971
0.810241
0.804198
0.803551
0.801773
0.802646
0.804644
0.807034
0.809454
0.810372
0.812245
0.821487
0.828939
0.828616
0.823291
0.82193
0.815888
0.814628
0.811418
0.812882
0.800857
0.80015
0.800119
0.800024
0.801217
0.801849
0.802015
0.800979
0.798827
0.797196
0.794168
0.791837
0.792422
0.794746
0.796574
0.799179
0.80395
0.806611
0.807788
0.805151
0.801533
0.800734
0.801707
0.802574
0.803237
0.802713
0.801514
0.798384
0.795436
0.797579
0.818398
0.818322
0.81699
0.813247
0.811109
0.811612
0.812895
0.813517
0.816049
0.811163
0.810762
0.811152
0.806071
0.805361
0.80863
0.810336
0.811334
0.814615
0.816136
0.817062
0.815975
0.813223
0.810745
0.810396
0.809046
0.805695
0.802257
0.801807
0.802958
0.8047
0.785434
0.78321
0.782887
0.78369
0.785416
0.78671
0.788202
0.788143
0.788212
0.79013
0.786425
0.792419
0.794006
0.796794
0.799728
0.801277
0.799989
0.797416
0.796222
0.798417
0.801085
0.802666
0.805855
0.80513
0.806659
0.80833
0.80781
0.809532
0.809902
0.80857
0.86859
0.867171
0.862318
0.860143
0.858982
0.857168
0.85551
0.848414
0.849017
0.840736
0.842771
0.834971
0.838167
0.831871
0.8333
0.829604
0.83042
0.826271
0.82694
0.822765
0.823687
0.820039
0.821438
0.817474
0.817752
0.816017
0.813671
0.813492
0.81383
0.815228
0.772406
0.783099
0.792466
0.795123
0.796132
0.789119
0.768288
0.742746
0.7392
0.740498
0.744135
0.7458
0.748317
0.749172
0.758272
0.755542
0.768853
0.76966
0.783133
0.785658
0.797634
0.796685
0.802108
0.794653
0.796111
0.789218
0.788632
0.787566
0.790922
0.801073
0.864299
0.881052
0.883981
0.882407
0.873086
0.869407
0.862532
0.860912
0.857897
0.860189
0.859139
0.855501
0.839111
0.823326
0.89258
0.881633
0.858295
0.839833
0.829294
0.826011
0.823213
0.822528
0.825421
0.82893
0.834563
0.839952
0.848436
0.859663
0.869046
0.871985
0.871489
0.871038
0.869697
0.868902
0.870665
0.870586
0.875597
0.876495
0.880942
0.88069
0.881254
0.877417
0.876996
0.888205
0.851718
0.850203
0.851739
0.850716
0.849782
0.84956
0.851553
0.854364
0.857106
0.859651
0.862189
0.862301
0.859372
0.855083
0.849429
0.846558
0.841408
0.840694
0.837292
0.836492
0.834544
0.835738
0.834601
0.836143
0.835927
0.836059
0.835025
0.833746
0.832332
0.831436
0.838167
0.838133
0.838558
0.837542
0.836828
0.837535
0.839653
0.840495
0.841441
0.841469
0.840617
0.840268
0.84126
0.842691
0.844368
0.84625
0.843701
0.842225
0.842796
0.845097
0.842254
0.844696
0.845669
0.848584
0.850631
0.852371
0.854312
0.855082
0.856319
0.857325
0.83818
0.83789
0.836702
0.83448
0.835802
0.837864
0.839732
0.835432
0.836825
0.825765
0.830011
0.815103
0.821571
0.812668
0.814131
0.816223
0.817617
0.821585
0.822412
0.82398
0.824708
0.826371
0.827014
0.829413
0.831911
0.837427
0.840615
0.841358
0.838272
0.836896
0.823388
0.815627
0.811013
0.810536
0.814071
0.813453
0.82003
0.820579
0.829268
0.829591
0.833567
0.834447
0.835649
0.835693
0.835652
0.834581
0.831826
0.828957
0.824342
0.823341
0.820601
0.822646
0.823758
0.828216
0.830994
0.833651
0.835137
0.83742
0.839604
0.84177
0.866114
0.854396
0.850519
0.851397
0.853571
0.855222
0.857984
0.862785
0.868773
0.873219
0.873871
0.874221
0.872495
0.868673
0.864316
0.859157
0.84982
0.84858
0.84239
0.839056
0.840099
0.841756
0.84502
0.84862
0.85004
0.850812
0.853475
0.864735
0.888227
0.904031
0.842429
0.825443
0.820654
0.824933
0.825596
0.825957
0.826051
0.8241
0.820296
0.815243
0.80951
0.80361
0.797382
0.796902
0.793193
0.794872
0.798388
0.802215
0.805785
0.807728
0.809139
0.814177
0.82435
0.830217
0.828541
0.826096
0.818041
0.813925
0.810271
0.810894
0.800446
0.799633
0.799386
0.800275
0.801378
0.802775
0.802664
0.802209
0.799687
0.798923
0.794797
0.794155
0.793661
0.795037
0.798498
0.79858
0.803926
0.806377
0.808032
0.807984
0.803981
0.802243
0.803148
0.803636
0.804629
0.804488
0.803233
0.801363
0.796887
0.797385
0.820123
0.818668
0.815993
0.81104
0.810371
0.8122
0.815469
0.81764
0.819186
0.81441
0.816215
0.812996
0.81008
0.812088
0.810701
0.812457
0.814024
0.815449
0.816644
0.817206
0.81734
0.816009
0.813578
0.81224
0.81281
0.80882
0.802352
0.799234
0.800268
0.803642
0.784523
0.78472
0.784592
0.783363
0.785022
0.78779
0.787954
0.788966
0.789686
0.787397
0.792884
0.790974
0.790614
0.798657
0.799447
0.802168
0.801195
0.801077
0.797559
0.801712
0.801177
0.805842
0.804875
0.807122
0.806128
0.80607
0.808512
0.809804
0.808914
0.81033
0.863012
0.860619
0.859482
0.859746
0.858499
0.854078
0.851196
0.845268
0.844122
0.834593
0.836033
0.828739
0.830345
0.824551
0.828449
0.825789
0.828009
0.825748
0.827681
0.822601
0.824491
0.82
0.822294
0.818102
0.820011
0.817001
0.816519
0.813894
0.813068
0.814324
0.767535
0.787207
0.797304
0.794608
0.789016
0.77034
0.745574
0.73666
0.73775
0.739657
0.740298
0.741385
0.742606
0.737792
0.746893
0.747528
0.753293
0.758707
0.771152
0.776155
0.792728
0.798022
0.806757
0.800269
0.802476
0.797745
0.792118
0.789127
0.793021
0.803672
0.889073
0.889717
0.880985
0.870931
0.859852
0.857488
0.853676
0.854148
0.848869
0.848424
0.850647
0.853978
0.845234
0.825376
0.895308
0.883453
0.85971
0.836228
0.827069
0.822397
0.82257
0.825096
0.833635
0.839925
0.84265
0.843349
0.852501
0.865812
0.870285
0.869074
0.866541
0.863626
0.860835
0.860703
0.861154
0.862236
0.867433
0.869836
0.876924
0.881583
0.882366
0.881142
0.878574
0.885769
0.850959
0.849803
0.850685
0.848544
0.845951
0.845483
0.848053
0.854152
0.860344
0.86486
0.864694
0.85986
0.852897
0.848152
0.844723
0.841517
0.838971
0.837091
0.836522
0.83318
0.833431
0.831029
0.833028
0.832297
0.833849
0.834265
0.834812
0.834285
0.832973
0.831742
0.83698
0.837029
0.836563
0.835626
0.835123
0.834628
0.836849
0.839541
0.841033
0.840416
0.839531
0.840949
0.843186
0.846568
0.848249
0.845433
0.844236
0.844971
0.842582
0.842571
0.846979
0.845612
0.847334
0.847692
0.849592
0.85138
0.852572
0.853798
0.854715
0.8558
0.837508
0.837797
0.835372
0.836381
0.840108
0.840907
0.84124
0.835434
0.836354
0.826558
0.825803
0.819622
0.816585
0.816716
0.812403
0.815565
0.816045
0.820886
0.821759
0.825713
0.824331
0.826407
0.826803
0.82814
0.830276
0.834271
0.837342
0.839798
0.835816
0.834191
0.822948
0.814192
0.808286
0.806622
0.807315
0.806363
0.812796
0.817621
0.82832
0.830602
0.833442
0.833093
0.834861
0.835556
0.835141
0.833183
0.828607
0.82415
0.818903
0.814253
0.8135
0.811092
0.815623
0.819598
0.82584
0.83013
0.833311
0.835741
0.83861
0.840722
0.863969
0.850504
0.846942
0.849417
0.851728
0.853317
0.855458
0.860052
0.865936
0.870648
0.871654
0.871397
0.868605
0.864855
0.8594
0.850864
0.84402
0.839933
0.83051
0.833287
0.833598
0.833771
0.838638
0.842928
0.847702
0.850075
0.851286
0.856534
0.876047
0.897743
0.845704
0.825983
0.821844
0.823396
0.824157
0.824369
0.82344
0.820568
0.815276
0.809374
0.802565
0.794452
0.791665
0.78669
0.787748
0.788263
0.791269
0.79605
0.800932
0.8046
0.80624
0.8093
0.817947
0.827252
0.82931
0.829705
0.822103
0.81468
0.8081
0.810126
0.800844
0.799045
0.800221
0.800703
0.802113
0.803141
0.803252
0.802246
0.80099
0.801272
0.796519
0.798562
0.798211
0.797549
0.79944
0.802155
0.803453
0.806115
0.808919
0.809151
0.807137
0.803
0.80325
0.803948
0.805426
0.806502
0.806486
0.804589
0.800164
0.796414
0.82146
0.819962
0.813047
0.809518
0.810814
0.81515
0.818458
0.820061
0.81948
0.818628
0.817604
0.811997
0.815709
0.811118
0.81084
0.812895
0.815839
0.816748
0.817325
0.818689
0.818325
0.818175
0.816042
0.814181
0.813282
0.811035
0.803136
0.797524
0.797965
0.802446
0.786578
0.785648
0.784193
0.78457
0.785209
0.787391
0.78762
0.790981
0.788093
0.789576
0.787435
0.792911
0.795469
0.797177
0.797827
0.801926
0.80536
0.801943
0.803335
0.802629
0.806298
0.805488
0.808375
0.806345
0.807
0.807207
0.808168
0.808707
0.811522
0.808468
0.860614
0.85838
0.858645
0.858022
0.856159
0.850443
0.845594
0.839417
0.834939
0.826236
0.823333
0.818603
0.815907
0.816451
0.816302
0.818165
0.819687
0.823779
0.823255
0.824295
0.820298
0.821246
0.818918
0.820337
0.818162
0.820064
0.816202
0.813679
0.812718
0.813473
0.768123
0.788959
0.792042
0.783994
0.773436
0.750366
0.736834
0.734428
0.736618
0.736415
0.735117
0.734058
0.735234
0.736648
0.735629
0.745786
0.742168
0.752664
0.75791
0.766249
0.778663
0.791086
0.806217
0.805083
0.799866
0.803725
0.801879
0.795459
0.800492
0.805984
0.893046
0.882121
0.867114
0.856124
0.847417
0.846589
0.847174
0.853882
0.852537
0.847282
0.843176
0.84922
0.84616
0.826996
0.893708
0.88575
0.861744
0.839737
0.826101
0.823781
0.825006
0.836519
0.851224
0.859276
0.853972
0.848898
0.857645
0.8688
0.868305
0.865265
0.86105
0.857807
0.856067
0.854819
0.856227
0.855257
0.86125
0.862753
0.872852
0.877468
0.883472
0.883386
0.879905
0.883687
0.850655
0.848878
0.849329
0.845988
0.84273
0.842948
0.847974
0.856679
0.865427
0.867917
0.86152
0.851348
0.847045
0.844339
0.843266
0.841561
0.84064
0.838978
0.835537
0.835002
0.832679
0.833061
0.830311
0.831697
0.831348
0.83247
0.833142
0.833639
0.832624
0.830899
0.835549
0.835396
0.834258
0.832014
0.832277
0.831937
0.83431
0.837861
0.840297
0.839711
0.838363
0.841786
0.84694
0.848204
0.845321
0.845206
0.846235
0.846576
0.844596
0.841002
0.839638
0.844336
0.845757
0.847601
0.848373
0.849831
0.851612
0.852754
0.853288
0.853989
0.8367
0.837416
0.83471
0.840166
0.841959
0.841492
0.840667
0.835486
0.834793
0.823671
0.828369
0.815174
0.819655
0.811528
0.816524
0.814449
0.817979
0.819567
0.820311
0.826009
0.824408
0.826903
0.827066
0.827634
0.829358
0.831344
0.833063
0.836982
0.833585
0.831888
0.82256
0.813839
0.806111
0.80195
0.800946
0.797553
0.806448
0.815502
0.828723
0.830888
0.833515
0.832703
0.834326
0.836379
0.83572
0.831453
0.824674
0.8189
0.809464
0.806593
0.801539
0.804231
0.803857
0.810246
0.816974
0.825664
0.830505
0.833833
0.83664
0.839894
0.861263
0.847201
0.843806
0.84541
0.846932
0.849398
0.851925
0.855961
0.861316
0.866842
0.869821
0.867754
0.865376
0.861307
0.853315
0.84376
0.837787
0.829401
0.822556
0.819312
0.820805
0.827573
0.831117
0.836944
0.843517
0.848119
0.850242
0.853566
0.867413
0.892228
0.846738
0.822748
0.822961
0.821078
0.82185
0.823526
0.821426
0.816446
0.810082
0.804104
0.793502
0.787305
0.784707
0.78062
0.776468
0.776965
0.780758
0.785393
0.79444
0.800779
0.804651
0.806923
0.812794
0.821646
0.827706
0.829179
0.824714
0.817063
0.807811
0.808742
0.799183
0.799771
0.800282
0.801693
0.802273
0.803993
0.802366
0.803694
0.802377
0.801834
0.796511
0.796682
0.794421
0.796096
0.798885
0.805028
0.803036
0.807954
0.807888
0.811479
0.808847
0.805651
0.804983
0.805299
0.805777
0.806402
0.80551
0.806774
0.801528
0.798635
0.822544
0.818777
0.809967
0.809309
0.813309
0.818026
0.820873
0.82002
0.821003
0.818591
0.820143
0.813856
0.811473
0.814273
0.815595
0.815465
0.816662
0.818083
0.818452
0.819089
0.819712
0.819976
0.817966
0.816035
0.81449
0.810849
0.803139
0.796195
0.795452
0.801108
0.789022
0.785707
0.783131
0.785242
0.788102
0.787526
0.789159
0.791371
0.785016
0.790826
0.789544
0.78949
0.789721
0.801239
0.795016
0.806893
0.800406
0.808318
0.803332
0.808601
0.807547
0.809997
0.808466
0.807823
0.80595
0.807871
0.808232
0.812453
0.811809
0.811291
0.857624
0.856442
0.857223
0.855884
0.85163
0.845976
0.839338
0.830229
0.826092
0.816377
0.812356
0.807388
0.806139
0.805999
0.806696
0.808375
0.813583
0.81622
0.82173
0.821443
0.82038
0.818612
0.820257
0.818399
0.818704
0.819469
0.816178
0.813799
0.812531
0.812625
0.767427
0.786869
0.78124
0.76935
0.75705
0.73997
0.733137
0.734296
0.733404
0.733481
0.732775
0.730682
0.732007
0.737902
0.732327
0.745239
0.73908
0.753617
0.749845
0.765001
0.766177
0.781235
0.796876
0.814131
0.79725
0.79905
0.808185
0.807534
0.808633
0.808401
0.882345
0.86951
0.853394
0.841397
0.832597
0.832421
0.835224
0.847362
0.854131
0.851439
0.842625
0.844827
0.845144
0.827078
0.898463
0.890548
0.873421
0.847716
0.835145
0.829726
0.837991
0.855416
0.875909
0.879614
0.864414
0.853133
0.863866
0.868863
0.865879
0.861701
0.858122
0.854744
0.851431
0.849108
0.8502
0.851022
0.856569
0.859677
0.866822
0.875696
0.883131
0.88475
0.882156
0.885964
0.850076
0.848349
0.847849
0.844241
0.840801
0.841787
0.849873
0.86327
0.87102
0.866011
0.85334
0.846882
0.844571
0.843602
0.844924
0.840315
0.841076
0.836343
0.836912
0.834605
0.833795
0.830747
0.831355
0.82922
0.83067
0.830814
0.831713
0.832337
0.832526
0.831433
0.835
0.833916
0.831469
0.828777
0.828598
0.831612
0.831969
0.836202
0.840387
0.83867
0.838181
0.843497
0.846348
0.844791
0.8455
0.846338
0.843302
0.842337
0.844112
0.845639
0.844136
0.840181
0.8426
0.845742
0.84729
0.848594
0.849064
0.849586
0.850451
0.85141
0.836461
0.836456
0.837333
0.841915
0.842339
0.840818
0.840378
0.834862
0.833386
0.823046
0.826591
0.813112
0.81429
0.813552
0.809921
0.815505
0.811693
0.822498
0.817216
0.826464
0.824006
0.827567
0.827943
0.828303
0.829178
0.830753
0.831023
0.833686
0.831261
0.828326
0.824575
0.81527
0.806016
0.799964
0.79622
0.794701
0.80332
0.816179
0.829237
0.83136
0.833193
0.833387
0.835642
0.837457
0.835249
0.829734
0.821353
0.812766
0.801959
0.797908
0.793535
0.79132
0.798555
0.802867
0.809838
0.818637
0.826965
0.831717
0.835009
0.838383
0.859642
0.845448
0.839136
0.837974
0.841116
0.846444
0.850365
0.851612
0.855923
0.861659
0.865236
0.865109
0.862826
0.857565
0.847209
0.840168
0.831285
0.821955
0.815022
0.812133
0.811282
0.813873
0.823208
0.832972
0.840294
0.845477
0.848954
0.852387
0.863027
0.888798
0.845171
0.819671
0.821053
0.818922
0.820577
0.821791
0.81881
0.812786
0.806951
0.797654
0.784791
0.784529
0.776199
0.769815
0.772851
0.774317
0.778952
0.780689
0.789443
0.795269
0.802674
0.804307
0.808896
0.816585
0.824052
0.826979
0.825377
0.817956
0.808335
0.809245
0.800488
0.801061
0.801554
0.801668
0.803218
0.80348
0.804027
0.804478
0.803598
0.799016
0.797518
0.799311
0.798492
0.801264
0.800197
0.803172
0.804735
0.8078
0.810762
0.811285
0.811842
0.80706
0.803924
0.80471
0.807916
0.809042
0.807605
0.805121
0.805184
0.801427
0.822691
0.812531
0.806196
0.809924
0.816108
0.819896
0.822128
0.821395
0.820529
0.820077
0.818957
0.809636
0.813343
0.810239
0.813272
0.81483
0.817201
0.820065
0.817865
0.818842
0.820892
0.820672
0.819767
0.816415
0.815204
0.810856
0.799792
0.794517
0.794634
0.799365
0.788559
0.784754
0.785454
0.787598
0.789246
0.791277
0.790623
0.792471
0.789347
0.798534
0.795917
0.799516
0.795871
0.802095
0.795082
0.808175
0.800021
0.81036
0.808572
0.810182
0.812475
0.811748
0.810799
0.809222
0.808915
0.807857
0.811612
0.810277
0.810952
0.812278
0.856149
0.854488
0.85542
0.85245
0.846845
0.841318
0.832464
0.824084
0.816297
0.811002
0.801519
0.803609
0.796854
0.79942
0.798607
0.803345
0.805642
0.811795
0.815822
0.821336
0.818215
0.819587
0.816296
0.820229
0.81693
0.817845
0.814543
0.812451
0.810838
0.81165
0.769011
0.781717
0.769716
0.75528
0.745814
0.735095
0.732707
0.732563
0.732581
0.729934
0.729855
0.732692
0.730348
0.737123
0.735036
0.742721
0.739887
0.752534
0.748082
0.764296
0.764452
0.772175
0.786754
0.813933
0.812809
0.791347
0.80108
0.809141
0.80843
0.804381
0.87086
0.857177
0.838602
0.82472
0.818644
0.819783
0.823036
0.83597
0.850733
0.852662
0.843209
0.841324
0.842122
0.826274
0.897514
0.895637
0.881176
0.863926
0.848068
0.846401
0.855307
0.877537
0.895918
0.89245
0.866605
0.855947
0.865954
0.867173
0.863197
0.860827
0.856109
0.850634
0.844162
0.841323
0.8443
0.845495
0.854817
0.856421
0.866237
0.873577
0.883333
0.885179
0.883793
0.885969
0.850327
0.847099
0.846351
0.841996
0.839535
0.844311
0.856148
0.872225
0.872792
0.859049
0.848207
0.843836
0.845546
0.843076
0.846053
0.838614
0.839413
0.832512
0.831989
0.830838
0.830784
0.833656
0.829245
0.829311
0.827789
0.829656
0.831601
0.831635
0.830935
0.829211
0.833964
0.832909
0.830295
0.827127
0.826277
0.830577
0.831738
0.834572
0.840377
0.838514
0.838174
0.843718
0.844337
0.844828
0.844096
0.842739
0.840101
0.842407
0.836234
0.840198
0.843255
0.846026
0.842209
0.842389
0.844429
0.846381
0.848621
0.849697
0.849185
0.84936
0.835211
0.835423
0.840253
0.841735
0.84098
0.839896
0.839186
0.832419
0.834116
0.820344
0.825407
0.809161
0.817134
0.805689
0.811871
0.810804
0.811584
0.820217
0.817618
0.827527
0.823987
0.828138
0.828682
0.828804
0.829591
0.830636
0.830187
0.832184
0.828071
0.825119
0.824401
0.817906
0.808486
0.800276
0.796585
0.796119
0.807213
0.819072
0.831251
0.831889
0.832947
0.834099
0.837836
0.839006
0.835645
0.829043
0.818122
0.808167
0.798486
0.792947
0.785291
0.787437
0.786188
0.795592
0.804669
0.813895
0.822782
0.829817
0.83298
0.837417
0.861001
0.842397
0.832855
0.831653
0.835255
0.841408
0.844775
0.846263
0.849441
0.8558
0.861947
0.862645
0.860574
0.854613
0.843866
0.837448
0.826204
0.816895
0.808729
0.810485
0.811632
0.813178
0.815689
0.830943
0.838328
0.842407
0.848176
0.851737
0.861831
0.888433
0.842438
0.818626
0.817667
0.816658
0.820222
0.821057
0.817049
0.810578
0.804946
0.790413
0.782601
0.782567
0.768772
0.765063
0.763476
0.763989
0.771619
0.775738
0.785345
0.791569
0.800518
0.803953
0.807321
0.812459
0.818423
0.82204
0.823973
0.815818
0.808271
0.807536
0.802536
0.802042
0.801441
0.80195
0.803022
0.804076
0.803813
0.806078
0.80172
0.800238
0.799188
0.801969
0.800053
0.803538
0.802041
0.808373
0.803585
0.810815
0.811131
0.813727
0.813204
0.810001
0.807377
0.806284
0.807229
0.809597
0.807401
0.807348
0.805318
0.801551
0.819502
0.806823
0.804661
0.810613
0.817507
0.821286
0.822603
0.822486
0.822901
0.819027
0.816567
0.81364
0.815778
0.81154
0.810495
0.812183
0.817354
0.817614
0.818041
0.820499
0.820364
0.821043
0.820443
0.817166
0.814858
0.809622
0.797394
0.791884
0.793425
0.797632
0.784457
0.783956
0.788923
0.791328
0.790323
0.794188
0.793979
0.790706
0.79566
0.799423
0.796337
0.804455
0.795596
0.808618
0.792874
0.812652
0.798857
0.815228
0.808414
0.815134
0.814567
0.813664
0.812486
0.8126
0.811363
0.815094
0.813708
0.815615
0.817127
0.816082
0.852753
0.852136
0.85242
0.849058
0.843151
0.835282
0.827978
0.819272
0.807983
0.808877
0.797765
0.797922
0.792844
0.795201
0.795252
0.79811
0.803372
0.80719
0.813231
0.818281
0.819557
0.81683
0.81619
0.818942
0.816076
0.816529
0.812923
0.812177
0.810695
0.81121
0.76659
0.777395
0.762198
0.745614
0.739511
0.73411
0.731864
0.732477
0.730447
0.730724
0.729467
0.731322
0.734216
0.734802
0.737148
0.746235
0.739332
0.752096
0.747461
0.762803
0.763641
0.774798
0.779461
0.798827
0.830956
0.803558
0.788492
0.798399
0.800308
0.794589
0.868264
0.847448
0.823683
0.815705
0.817337
0.820217
0.820674
0.829331
0.847076
0.851445
0.841566
0.839762
0.838242
0.824675
0.901996
0.897722
0.895431
0.881085
0.873462
0.871199
0.884866
0.902226
0.911473
0.899254
0.868885
0.860659
0.869138
0.866568
0.863799
0.860942
0.854859
0.84809
0.84136
0.838479
0.839682
0.844456
0.852163
0.858043
0.865887
0.87517
0.883699
0.887541
0.884921
0.887496
0.850836
0.846872
0.845184
0.841263
0.840227
0.849154
0.867689
0.878704
0.869101
0.851269
0.846438
0.842676
0.846764
0.841681
0.843896
0.834966
0.837377
0.830792
0.833244
0.831073
0.83177
0.829327
0.831887
0.829037
0.828862
0.828295
0.829491
0.831489
0.831772
0.82996
0.834281
0.832081
0.828544
0.825469
0.825091
0.829916
0.831442
0.834757
0.840348
0.838336
0.838854
0.843587
0.843938
0.843235
0.841434
0.84177
0.83958
0.843139
0.836168
0.834702
0.834188
0.838618
0.843099
0.841214
0.843796
0.844904
0.845345
0.845294
0.844535
0.844008
0.835518
0.836917
0.841555
0.84098
0.840273
0.838041
0.838018
0.830355
0.835054
0.818288
0.825725
0.809664
0.813169
0.804361
0.807963
0.813006
0.807203
0.822812
0.815607
0.82902
0.823816
0.830402
0.828972
0.830313
0.830539
0.830871
0.830742
0.831592
0.826899
0.824178
0.827066
0.821855
0.811955
0.803964
0.800549
0.801838
0.81285
0.82428
0.832716
0.833464
0.833076
0.835761
0.839499
0.840544
0.836624
0.828721
0.817475
0.808408
0.796315
0.788162
0.781818
0.781169
0.784472
0.789304
0.802845
0.810491
0.821382
0.82737
0.833271
0.835837
0.859009
0.842202
0.832231
0.827445
0.827087
0.833056
0.840736
0.844649
0.845266
0.849365
0.8573
0.85992
0.858891
0.852865
0.842899
0.835446
0.82447
0.817408
0.808051
0.809771
0.809601
0.811592
0.814655
0.831112
0.836189
0.840824
0.848502
0.851561
0.863343
0.892044
0.837712
0.819126
0.814028
0.814711
0.819425
0.820416
0.816551
0.809932
0.802158
0.787819
0.785557
0.777031
0.763957
0.765233
0.765035
0.763478
0.771714
0.773062
0.783442
0.789418
0.800915
0.802967
0.807051
0.812103
0.816671
0.819482
0.820508
0.812882
0.806854
0.807911
0.804727
0.804341
0.802609
0.802016
0.802784
0.803744
0.804904
0.803205
0.803551
0.801545
0.800184
0.80348
0.803613
0.803506
0.805928
0.80866
0.808307
0.811665
0.814706
0.815706
0.815509
0.81121
0.809077
0.80914
0.810335
0.809809
0.808198
0.806773
0.807852
0.804053
0.813834
0.802994
0.80275
0.810287
0.818035
0.82228
0.822844
0.824008
0.825382
0.816088
0.8171
0.816812
0.809429
0.808834
0.811669
0.813764
0.81346
0.816414
0.819091
0.819821
0.818803
0.820903
0.820375
0.816648
0.814212
0.805187
0.794099
0.791705
0.792281
0.795668
0.782828
0.787216
0.792103
0.792428
0.793348
0.795993
0.793119
0.798509
0.79546
0.801907
0.800792
0.804874
0.799328
0.813554
0.796239
0.814626
0.800407
0.816723
0.811195
0.818562
0.815894
0.814946
0.814844
0.814712
0.817354
0.816641
0.818986
0.820523
0.819865
0.820333
0.853546
0.849554
0.850345
0.847508
0.839972
0.832879
0.823983
0.817198
0.806484
0.80479
0.795041
0.797235
0.79076
0.793979
0.792799
0.798436
0.801696
0.8067
0.810788
0.816127
0.820788
0.815545
0.815843
0.817557
0.814316
0.815922
0.811215
0.810417
0.809608
0.809464
0.76687
0.771445
0.763858
0.741939
0.737038
0.733332
0.733159
0.732008
0.731359
0.730389
0.730705
0.731906
0.733327
0.739787
0.735218
0.748792
0.740076
0.7541
0.746605
0.762444
0.763989
0.777392
0.779971
0.787411
0.832922
0.82919
0.797179
0.793075
0.796495
0.801131
0.862828
0.834556
0.816053
0.817015
0.824665
0.826693
0.825609
0.830334
0.845876
0.847283
0.839242
0.835604
0.829766
0.83471
0.866329
0.893326
0.905212
0.901456
0.898742
0.897381
0.892611
0.895921
0.904215
0.91403
0.913824
0.896567
0.86556
0.862756
0.867852
0.865759
0.864776
0.862233
0.853934
0.845841
0.8406
0.838913
0.842874
0.845569
0.85562
0.858543
0.869185
0.876398
0.886353
0.886862
0.886337
0.889195
0.884282
0.85419
0.84925
0.845054
0.843434
0.840896
0.844326
0.859608
0.881938
0.879989
0.862609
0.848104
0.845198
0.841971
0.847784
0.839632
0.844008
0.83264
0.836771
0.827836
0.830688
0.827268
0.827617
0.828737
0.829272
0.826674
0.827491
0.828291
0.828655
0.829023
0.828879
0.826546
0.823992
0.828784
0.835158
0.832808
0.830326
0.826843
0.826218
0.829613
0.831834
0.835509
0.840475
0.839077
0.839334
0.843585
0.843481
0.842176
0.841302
0.841024
0.838345
0.842389
0.834551
0.838245
0.838394
0.835462
0.84216
0.838962
0.841299
0.842234
0.843415
0.844879
0.844035
0.844268
0.827669
0.830074
0.83446
0.838334
0.838823
0.83862
0.837901
0.837224
0.835297
0.830655
0.833852
0.819513
0.824741
0.809584
0.814803
0.806136
0.807388
0.808664
0.811788
0.819166
0.817356
0.8273
0.826809
0.830031
0.830629
0.831149
0.831286
0.831071
0.830991
0.829815
0.825157
0.822719
0.822972
0.821492
0.826835
0.825875
0.82069
0.813845
0.81111
0.812433
0.821694
0.829452
0.833749
0.83458
0.834147
0.836899
0.840961
0.841732
0.838579
0.830786
0.819809
0.810376
0.796319
0.790591
0.782994
0.783451
0.784545
0.789678
0.802164
0.810367
0.820395
0.826834
0.832125
0.837136
0.847863
0.856179
0.859693
0.84446
0.832367
0.825179
0.823037
0.828273
0.836598
0.841114
0.843186
0.845497
0.851734
0.858628
0.857717
0.852545
0.846005
0.835053
0.825178
0.819713
0.81029
0.81224
0.811551
0.812244
0.817178
0.832039
0.835234
0.841681
0.848386
0.852792
0.86785
0.889148
0.824064
0.81621
0.827281
0.813746
0.807979
0.811472
0.817946
0.820441
0.817223
0.811343
0.801258
0.78962
0.788297
0.773812
0.76585
0.763935
0.762259
0.761965
0.771423
0.774708
0.782387
0.79183
0.799425
0.804358
0.807432
0.810425
0.814007
0.819609
0.813822
0.80649
0.807248
0.806915
0.807516
0.806307
0.806125
0.804044
0.802664
0.801423
0.8011
0.804005
0.804847
0.803936
0.803836
0.804065
0.800363
0.803184
0.800861
0.803849
0.805789
0.812099
0.810933
0.815714
0.816568
0.817081
0.817798
0.816108
0.812135
0.810776
0.81323
0.811967
0.808107
0.807615
0.808113
0.807261
0.805474
0.805826
0.804157
0.798469
0.800625
0.808515
0.818053
0.822941
0.823707
0.826364
0.82582
0.815388
0.820907
0.816912
0.807574
0.809066
0.812324