/*--------------------------------*- C++ -*----------------------------------*\
| =========                 |                                                 |
| \\      /  F ield         | OpenFOAM: The Open Source CFD Toolbox           |
|  \\    /   O peration     | Version:  2.1.1                                 |
|   \\  /    A nd           | Web:      www.OpenFOAM.org                      |
|    \\/     M anipulation  |                                                 |
\*---------------------------------------------------------------------------*/
FoamFile
{
    version     2.0;
    format      ascii;
    class       volScalarField;
    location    "0.004400000";
    object      G;
}
// * * * * * * * * * * * * * * * * * * * * * * * * * * * * * * * * * * * * * //

dimensions      [0 0 0 0 0 0 0];

internalField   nonuniform List<scalar> 
12384
(
1
1
1
1
1
1
1
1
1
1
1
1
1
1
1
1
0.999993
0.999626
0.996932
0.987031
0.971382
0.955702
0.938155
0.919333
0.901463
0.884386
0.859622
0.84438
0.836712
0.846648
0.879042
0.923143
0.949756
0.984203
0.995238
0.999633
0.999985
1
1
1
1
1
1
1
1
1
0.999994
0.999982
0.999972
0.999963
0.999941
0.999873
0.999743
0.999659
0.99927
0.999158
0.998305
0.99818
0.998536
0.99797
0.999506
0.999618
0.99995
0.999989
1
1
1
1
1
1
1
1
1
1
0.999984
0.995096
0.976008
0.933127
0.854254
0.73637
0.599376
0.467007
0.357556
0.276019
0.218515
0.183397
0.153219
0.278651
0.135258
0.628536
0.434072
0.852669
0.927589
0.940492
0.983866
0.994992
0.999556
0.999923
0.999981
1
1
1
1
1
1
0.997624
0.983999
0.963898
0.929721
0.841903
0.738023
0.493879
0.474913
0.390338
0.362861
0.273905
0.247571
0.198005
0.183629
0.190282
0.203299
0.253786
0.394519
0.532054
0.676271
0.875038
0.984087
0.982211
0.970209
0.986527
0.999209
0.999933
0.999996
0.999999
1
0.999998
0.99994
0.999119
0.994511
0.983306
0.969542
0.961032
0.956254
0.949014
0.942731
0.922874
0.897625
0.855063
0.813506
0.791314
0.745283
0.684897
0.664229
0.64788
0.642428
0.623195
0.640379
0.671554
0.690686
0.846649
0.90492
0.969726
0.999184
0.999998
0.999999
0.9999
0.999374
0.999382
0.999235
0.998678
0.997714
0.99594
0.991937
0.985392
0.970317
0.957727
0.943004
0.935126
0.927677
0.916278
0.89817
0.873728
0.845816
0.82111
0.799199
0.787709
0.781727
0.788018
0.809863
0.849998
0.910167
0.977171
0.999334
0.999996
1
1
1
1
1
0.999997
0.999919
0.999499
0.998507
0.997403
0.991057
0.992088
0.968052
0.98585
0.961498
0.986863
0.984831
0.993967
0.996544
0.998173
0.998775
0.999113
0.999251
0.998956
0.999373
0.999021
0.999536
0.999857
0.999996
1
1
1
1
1
0.999799
0.997382
0.991038
0.976218
0.966932
0.953894
0.957042
0.960318
0.966858
0.974124
0.974942
0.983882
0.984541
0.982422
0.987679
0.979565
0.98533
0.975238
0.989422
0.987694
0.998503
0.999885
0.999999
1
1
1
1
1
0.999998
0.999592
0.995689
0.988886
0.98448
0.984938
0.988596
0.991699
0.99359
0.995289
0.995625
0.995916
0.995056
0.992876
0.986828
0.974323
0.976451
0.952624
0.962077
0.960858
0.977751
0.993508
0.996499
0.997863
0.999105
0.999868
0.999997
1
1
1
0.999986
0.999667
0.998558
0.996676
0.995392
0.993866
0.99503
0.995678
0.995933
0.993131
0.983089
0.959738
0.870847
0.840271
0.46538
0.678522
0.500683
0.500189
0.948584
0.965792
0.994441
0.996308
0.996928
0.995709
0.996639
0.998704
0.999543
0.999869
1
1
1
0.99997
0.999722
0.998918
0.997514
0.99524
0.993832
0.993147
0.994269
0.994434
0.99536
0.995211
0.995318
0.9938
0.991575
0.99162
0.993422
0.997001
0.998622
0.999671
0.999962
1
1
1
1
1
1
1
1
1
1
1
1
1
1
1
1
1
1
1
0.999999
0.999989
0.99999
0.999996
1
1
1
1
1
1
1
1
1
1
1
1
1
1
1
1
1
1
1
1
1
1
1
1
1
1
1
1
1
0.99999
0.989314
0.815791
0.641758
0.524467
0.413877
0.398643
0.364223
0.364576
0.344039
0.319798
0.281196
0.238461
0.209187
0.180572
0.169804
0.15641
0.152307
0.168458
0.198028
0.294925
0.368159
0.697373
0.951037
0.99815
0.999953
0.999997
0.999999
1
1
0.999989
0.9998
0.999579
0.99944
0.998923
0.996155
0.988694
0.971907
0.927614
0.880195
0.810423
0.674455
0.535257
0.454014
0.271179
0.246312
0.203838
0.307964
0.456427
0.66004
0.839956
0.954509
0.999755
1
1
1
1
1
1
0.999581
0.940067
0.761969
0.440706
0.177919
0.0863189
0.0401469
0.0134253
0.00457783
0.00116729
0.000308237
6.32433e-05
2.73546e-05
7.87871e-06
2.26656e-05
3.08839e-05
0.000359537
0.000595409
0.00265651
0.00941958
0.0297112
0.0829726
0.248062
0.492474
0.683377
0.930057
0.999543
1
1
1
0.999922
0.832123
0.700444
0.498766
0.313003
0.112962
0.0394495
0.00512711
0.00220438
0.00141974
0.000927023
0.00065616
0.000441566
0.000296184
0.000183234
0.000111438
7.53085e-05
5.6274e-05
5.78541e-05
8.8377e-05
0.000204059
0.00332459
0.0967576
0.522257
0.745982
0.852015
0.935751
0.986241
0.997547
0.999699
0.999728
0.995377
0.981132
0.921435
0.8398
0.807644
0.842253
0.837362
0.791697
0.690628
0.539436
0.365695
0.218658
0.159836
0.119288
0.0906174
0.0573219
0.0342186
0.0183
0.0104865
0.00725186
0.00875512
0.0156841
0.0175658
0.0596798
0.151445
0.239878
0.541729
0.870713
0.992075
0.999839
0.9761
0.949551
0.931294
0.871947
0.764469
0.589134
0.357625
0.203653
0.163311
0.195314
0.263949
0.34177
0.388669
0.377256
0.338685
0.261609
0.194406
0.132731
0.0929113
0.0656275
0.0493108
0.0403965
0.0386666
0.0419156
0.0511232
0.0808696
0.201609
0.589904
0.989214
1
0.999848
0.999115
0.980753
0.82922
0.548594
0.346815
0.261289
0.22474
0.2205
0.177445
0.120477
0.0847632
0.0847644
0.0495124
0.172251
0.214603
0.481775
0.725054
0.8675
0.883968
0.859191
0.774322
0.665643
0.590556
0.5489
0.622064
0.765345
0.955291
0.999992
1
0.992818
0.940176
0.74551
0.523351
0.365765
0.295603
0.288159
0.304201
0.396823
0.513633
0.667586
0.797839
0.880661
0.932287
0.94914
0.958115
0.927025
0.901257
0.763574
0.662302
0.370976
0.293821
0.137908
0.113768
0.141997
0.282572
0.584997
0.955953
1
0.99984
0.995859
0.971755
0.890191
0.837319
0.794779
0.85815
0.876475
0.931871
0.925711
0.915049
0.845772
0.738587
0.553585
0.342077
0.166576
0.0582056
0.00960334
0.00429606
0.00158493
0.000857596
0.00280108
0.00945982
0.0278304
0.127601
0.290097
0.512984
0.840014
0.992958
0.999986
0.987744
0.997974
0.990878
0.976201
0.972403
0.977622
0.984156
0.987958
0.990704
0.981959
0.893948
0.576885
0.219611
0.0383517
0.00328596
0.000165854
1.49221e-05
1.53557e-06
1.39006e-06
1.86199e-06
0.000175208
0.00334227
0.0680728
0.20377
0.417554
0.61945
0.799942
0.933319
0.989763
0.996716
0.962777
0.998082
0.995118
0.98181
0.959119
0.922772
0.874041
0.846703
0.860747
0.888034
0.92231
0.946388
0.952931
0.929686
0.879598
0.758672
0.565754
0.328317
0.18824
0.142686
0.138107
0.172005
0.315353
0.523455
0.80948
0.982454
0.999936
1
1
1
1
0.994854
0.876406
0.68732
0.576723
0.848019
0.930316
0.908439
0.857853
0.801212
0.73051
0.696269
0.686882
0.720647
0.815695
0.896387
0.967381
0.995801
0.999927
1
1
1
1
1
1
1
1
1
1
1
1
1
1
1
1
1
1
1
1
1
1
1
1
1
0.999998
0.998089
0.669723
0.486566
0.550042
0.628265
0.732863
0.800158
0.817916
0.813051
0.781289
0.718353
0.646332
0.578887
0.547271
0.527012
0.556675
0.599591
0.645166
0.651023
0.673864
0.631774
0.560107
0.669388
0.811515
0.975488
0.998986
0.999981
0.999993
1
1
0.999932
0.999247
0.998346
0.995979
0.989185
0.980029
0.975234
0.968181
0.965746
0.971822
0.959449
0.928741
0.895799
0.710726
0.588785
0.376348
0.21869
0.261411
0.293855
0.505639
0.653854
0.806064
0.949721
0.997803
0.999816
1
1
1
1
0.996719
0.869938
0.564682
0.277472
0.171007
0.0947224
0.0411333
0.0153219
0.00242328
0.000426769
0.000127649
4.08305e-05
1.4863e-05
6.16121e-06
3.11787e-06
2.4447e-06
3.69118e-05
0.000182726
0.000557763
0.00171959
0.00842455
0.0317129
0.103154
0.236527
0.430093
0.668261
0.951121
0.999939
1
1
0.983612
0.609543
0.367816
0.205964
0.120967
0.0482889
0.0320984
0.00324633
0.00253504
0.00128519
0.00143452
0.00134093
0.00104474
0.000802366
0.000558946
0.000390127
0.000254513
0.000152844
9.41183e-05
7.95534e-05
9.06148e-05
0.000178782
0.00450933
0.092772
0.459845
0.694942
0.853791
0.945988
0.990933
0.998132
0.998163
0.970521
0.905541
0.788958
0.803937
0.840561
0.825711
0.777643
0.696399
0.583038
0.453873
0.322291
0.298664
0.31781
0.276711
0.245773
0.181736
0.121311
0.0753428
0.0458137
0.0312241
0.0362367
0.0266018
0.0415701
0.103393
0.124505
0.232048
0.419392
0.705176
0.979092
0.999098
0.936561
0.935297
0.89668
0.796426
0.562462
0.26862
0.1479
0.148901
0.237848
0.331352
0.356848
0.347776
0.310352
0.228122
0.17344
0.129968
0.12336
0.118915
0.120862
0.111113
0.0956253
0.0824005
0.070571
0.0581769
0.0470129
0.0443553
0.0804683
0.306929
0.970732
0.999999
0.999205
0.986485
0.857754
0.588082
0.452628
0.358945
0.355077
0.341803
0.337768
0.267418
0.194245
0.0856921
0.0613039
0.015742
0.0658044
0.0622895
0.314812
0.491225
0.720883
0.767323
0.741638
0.676872
0.574089
0.476111
0.423516
0.391349
0.512122
0.750919
0.999941
0.999714
0.93652
0.733964
0.498366
0.343561
0.247621
0.207424
0.193336
0.215895
0.255184
0.363092
0.519123
0.672362
0.806883
0.871292
0.899664
0.915813
0.846423
0.786876
0.439301
0.296913
0.0594587
0.0479407
0.0366921
0.0655557
0.129604
0.293362
0.583307
0.871164
1
0.998919
0.963257
0.831641
0.690353
0.664864
0.595402
0.683154
0.712858
0.77273
0.711591
0.638513
0.49448
0.330581
0.127376
0.0554086
0.0289367
0.0101741
0.00311119
0.00105469
8.61789e-05
5.311e-05
6.0117e-05
0.000544823
0.00186183
0.00471222
0.0230099
0.0839524
0.316773
0.877066
0.999839
0.991915
0.987328
0.944304
0.897541
0.941208
0.970792
0.979687
0.983868
0.971609
0.839704
0.440738
0.14886
0.0423577
0.00599546
0.000817869
6.86446e-05
7.27012e-06
4.77155e-07
9.71099e-08
6.09629e-08
1.93316e-05
0.000145121
0.0150096
0.0899162
0.22154
0.403312
0.595743
0.808966
0.955963
0.993387
0.991247
0.989531
0.969831
0.920973
0.832673
0.705193
0.619502
0.581164
0.591092
0.634136
0.747266
0.84271
0.896531
0.910401
0.910869
0.823354
0.639616
0.383944
0.227509
0.141421
0.0982021
0.0943736
0.136498
0.34675
0.633852
0.916979
0.998001
0.999996
1
1
0.999995
0.914102
0.740946
0.602
0.830773
0.922693
0.908492
0.857451
0.765696
0.687331
0.610044
0.547555
0.549128
0.591267
0.655083
0.767267
0.858819
0.94769
0.990904
0.999808
1
1
1
1
1
1
1
1
1
1
1
1
0.999998
0.99999
0.999981
0.999969
0.999993
1
1
1
1
1
1
1
0.999744
0.908074
0.415912
0.498352
0.722852
0.848771
0.916692
0.93102
0.924309
0.887273
0.818714
0.719232
0.610109
0.548307
0.551053
0.605296
0.7315
0.845531
0.918881
0.959066
0.972168
0.963063
0.927581
0.837077
0.825188
0.935964
0.994643
0.999853
0.999963
1
1
0.999837
0.998597
0.994357
0.975987
0.95533
0.964866
0.981739
0.992396
0.996843
0.996884
0.995557
0.994875
0.993718
0.971017
0.954886
0.837631
0.45403
0.301871
0.284716
0.365711
0.537455
0.597458
0.766794
0.837121
0.920432
0.997297
1
1
1
0.988399
0.775372
0.407562
0.260503
0.17467
0.0946224
0.0327593
0.00444486
0.00157857
0.000517384
0.000178647
6.8393e-05
3.13267e-05
1.67697e-05
1.0294e-05
1.97136e-05
0.000113042
0.000364377
0.00111062
0.00263384
0.00490751
0.0193789
0.0555253
0.138552
0.284244
0.48865
0.77714
0.993955
0.99999
1
0.920223
0.40406
0.184175
0.098134
0.0804575
0.0751107
0.107456
0.0381073
0.034642
0.00221051
0.00144706
0.00133493
0.00121907
0.000849773
0.00060029
0.000393608
0.000239705
0.000196505
0.000156475
0.000131132
9.33928e-05
9.82303e-05
0.000278152
0.0142724
0.174224
0.525042
0.730508
0.873175
0.976073
0.997798
0.992802
0.877252
0.746528
0.739336
0.783311
0.759746
0.701677
0.629777
0.538561
0.427516
0.327571
0.3673
0.414377
0.465067
0.462553
0.41314
0.358625
0.287309
0.209341
0.146065
0.117198
0.0825658
0.0863097
0.148811
0.130741
0.173039
0.294361
0.38134
0.62128
0.965644
0.996983
0.897603
0.896418
0.82331
0.62491
0.285432
0.144403
0.165136
0.25992
0.304076
0.326463
0.27526
0.22885
0.153568
0.0679374
0.0442031
0.0450874
0.0762591
0.132022
0.178558
0.206237
0.192871
0.167138
0.137071
0.100776
0.0600911
0.0347005
0.0406329
0.161424
0.957913
0.999987
0.994999
0.931229
0.698067
0.52064
0.481569
0.463834
0.46949
0.468918
0.470657
0.429686
0.332581
0.130345
0.0898319
0.0310795
0.0760978
0.146272
0.432936
0.71024
0.780013
0.847154
0.847157
0.829726
0.824893
0.705139
0.577898
0.463631
0.322083
0.462763
0.999766
0.996914
0.773623
0.520865
0.333223
0.243295
0.204857
0.177908
0.167139
0.166418
0.183239
0.246797
0.380726
0.570158
0.689358
0.762206
0.797587
0.759434
0.60461
0.344025
0.124697
0.0945966
0.0319816
0.0368234
0.0253918
0.0244476
0.0305116
0.11024
0.300547
0.514554
0.999996
0.996274
0.844126
0.667835
0.608213
0.552145
0.480437
0.557295
0.587715
0.616001
0.492127
0.365044
0.15376
0.0832858
0.0710013
0.0685296
0.0474091
0.0269373
0.0115019
0.00179773
0.000983724
0.000882038
0.000522911
0.000514543
0.00348685
0.00304821
0.00287935
0.0100121
0.045425
0.493542
0.99887
0.991165
0.944314
0.835639
0.860602
0.948906
0.96926
0.97773
0.970095
0.884799
0.499736
0.182828
0.0472154
0.0118753
0.000731776
0.000497642
5.95751e-06
4.66796e-06
1.07137e-07
1.29158e-07
1.12247e-07
5.34381e-06
8.63371e-05
0.00412345
0.0352175
0.154179
0.295133
0.476651
0.667921
0.872957
0.988383
0.994051
0.958796
0.899144
0.786503
0.629291
0.510429
0.431748
0.363894
0.322287
0.349303
0.422583
0.563711
0.725805
0.815811
0.838652
0.811557
0.68526
0.604097
0.47362
0.374284
0.232962
0.161283
0.132635
0.272957
0.583931
0.860891
0.992387
0.99994
0.999999
1
0.999711
0.739934
0.684065
0.745836
0.921863
0.9147
0.872063
0.778275
0.69226
0.63641
0.530756
0.498485
0.494619
0.538331
0.564423
0.642779
0.734997
0.83405
0.93632
0.991059
0.99997
1
1
1
1
1
1
1
1
1
1
0.999997
0.999974
0.999984
0.999992
0.999992
0.999987
0.999996
1
1
1
1
1
1
0.996613
0.614992
0.349401
0.479247
0.718103
0.874299
0.893839
0.902189
0.877297
0.816885
0.717931
0.610592
0.540738
0.550543
0.680548
0.851146
0.957117
0.989074
0.997125
0.998725
0.999376
0.999086
0.996692
0.976877
0.91664
0.930603
0.986214
0.999283
0.999776
1
0.999999
0.999719
0.997305
0.9876
0.966186
0.968379
0.982623
0.992033
0.994978
0.992675
0.986648
0.983447
0.97657
0.978559
0.988408
0.99255
0.984778
0.836134
0.556986
0.261806
0.338515
0.441282
0.501451
0.517658
0.561702
0.540519
0.867009
0.999442
1
1
0.970013
0.672638
0.412731
0.266294
0.168869
0.0751882
0.0106926
0.00409042
0.0017144
0.000857759
0.000534516
0.000370618
0.000276256
0.000222664
0.000594304
0.00107551
0.00289354
0.00568771
0.00582398
0.00759243
0.0147433
0.0159574
0.0519037
0.104199
0.202529
0.365103
0.591578
0.930054
0.999607
0.999999
0.969539
0.380771
0.130873
0.0784593
0.11678
0.171521
0.322167
0.251802
0.349239
0.139431
0.166911
0.0336271
0.0405068
0.00518118
0.00702814
0.00185519
0.00290707
0.00139318
0.00137896
0.00049167
0.000186164
9.6542e-05
0.000196096
0.00240701
0.0580883
0.359928
0.645596
0.75682
0.903707
0.995375
0.979676
0.698549
0.610608
0.677372
0.677066
0.626206
0.578172
0.501775
0.400003
0.29884
0.302799
0.406804
0.50972
0.523842
0.539554
0.554896
0.524779
0.503278
0.442567
0.370852
0.275404
0.215245
0.281288
0.2227
0.224991
0.304506
0.312606
0.397957
0.549022
0.956327
0.994792
0.83559
0.818145
0.685321
0.350603
0.159976
0.156833
0.238893
0.287577
0.33393
0.4393
0.258145
0.152862
0.0754849
0.0211573
0.012975
0.0211648
0.0681181
0.179841
0.29534
0.373199
0.373077
0.319826
0.241618
0.153624
0.0695041
0.0290065
0.0246414
0.0896949
0.952692
0.99994
0.971602
0.815734
0.597484
0.526373
0.532973
0.526157
0.547996
0.555489
0.574674
0.541518
0.41954
0.22356
0.119581
0.0456288
0.183805
0.312666
0.680092
0.749006
0.830132
0.782238
0.791717
0.822203
0.902613
0.946149
0.898649
0.656604
0.274401
0.23748
0.999463
0.986316
0.536049
0.336011
0.232184
0.194067
0.174141
0.16842
0.159442
0.148774
0.140944
0.168872
0.288727
0.426012
0.536926
0.600722
0.574249
0.487831
0.283757
0.166399
0.079756
0.0504484
0.0272432
0.03351
0.0356018
0.0630717
0.0683459
0.106245
0.329063
0.455501
0.999803
0.991925
0.691342
0.599681
0.579233
0.489006
0.384293
0.514946
0.452226
0.446186
0.321691
0.124447
0.0814012
0.110679
0.186394
0.236633
0.26115
0.182702
0.066328
0.0406403
0.0165539
0.00348013
0.00580151
0.00641421
0.00653637
0.014889
0.00513577
0.00210362
0.00756905
0.13758
0.993662
0.986186
0.830567
0.767778
0.891773
0.953578
0.966425
0.964475
0.930551
0.689328
0.331574
0.090023
0.0190556
0.00192265
0.000275246
5.70686e-05
4.66573e-06
8.82725e-07
6.40522e-07
3.38777e-07
1.89998e-07
3.29923e-05
0.000116892
0.0032976
0.0151424
0.107332
0.269366
0.40314
0.539156
0.747868
0.978914
0.990211
0.869343
0.766935
0.61078
0.508221
0.448088
0.381216
0.284598
0.213438
0.139424
0.117439
0.188248
0.389101
0.608033
0.726697
0.795925
0.767382
0.803824
0.851653
0.834824
0.5279
0.365372
0.224139
0.383437
0.621969
0.851993
0.979115
0.999372
0.999638
1
0.993802
0.530391
0.574849
0.881817
0.919606
0.890331
0.809332
0.728023
0.694269
0.606084
0.564679
0.595248
0.591704
0.581276
0.610073
0.58243
0.672145
0.722106
0.839773
0.946181
0.997222
1
1
1
1
1
1
1
1
1
1
0.999984
0.999987
0.999999
1
1
1
0.999998
1
1
1
1
1
1
0.986689
0.353101
0.352298
0.445687
0.62723
0.76269
0.848251
0.800103
0.741102
0.660768
0.570072
0.491726
0.505429
0.657235
0.929101
0.995498
0.999801
0.999959
0.999971
0.999963
0.99997
0.999943
0.999821
0.997745
0.975209
0.946768
0.979947
0.997853
0.999065
0.999998
0.999994
0.999581
0.99658
0.988794
0.980671
0.980397
0.986533
0.988107
0.9781
0.954661
0.930976
0.887078
0.835363
0.882875
0.954158
0.975799
0.996971
0.973557
0.687044
0.370762
0.310545
0.423977
0.451962
0.435958
0.374457
0.422285
0.551569
0.96802
1
1
0.944189
0.660303
0.409256
0.257962
0.16821
0.049764
0.00809307
0.00391352
0.00230431
0.00197582
0.00235222
0.00327091
0.00446093
0.0109853
0.0182032
0.0420114
0.0350121
0.0541993
0.0706179
0.0305463
0.0420996
0.0399887
0.0524595
0.108806
0.182236
0.298806
0.437742
0.791951
0.991048
0.999987
0.981137
0.283816
0.100677
0.0997914
0.184493
0.35525
0.598636
0.754461
0.885358
0.88666
0.938668
0.885999
0.912248
0.812968
0.768221
0.621339
0.429529
0.292415
0.0994695
0.020318
0.0018572
0.00035271
0.000216671
0.00166271
0.0359006
0.256291
0.572082
0.739487
0.836169
0.995949
0.947822
0.488821
0.495602
0.567846
0.566671
0.548235
0.506187
0.401892
0.292234
0.205498
0.316125
0.41773
0.50399
0.522259
0.558279
0.612491
0.652314
0.701418
0.708579
0.668108
0.567242
0.523707
0.424746
0.350027
0.440175
0.366095
0.370369
0.410652
0.493413
0.952704
0.988033
0.739675
0.69975
0.499876
0.210002
0.145054
0.211267
0.271353
0.302665
0.394747
0.4444
0.242274
0.129344
0.0616307
0.0129757
0.00453522
0.00672045
0.0398167
0.148585
0.279886
0.382201
0.428536
0.393586
0.284776
0.155774
0.0593879
0.0222738
0.024247
0.0657908
0.958865
0.999782
0.885678
0.670665
0.532311
0.531903
0.572717
0.636561
0.677768
0.708159
0.69414
0.642671
0.519043
0.265155
0.150162
0.078669
0.243246
0.497023
0.67556
0.713931
0.597161
0.451629
0.234175
0.255881
0.446953
0.854656
0.95688
0.828905
0.245062
0.117372
0.999101
0.951445
0.3086
0.201074
0.156982
0.153439
0.162799
0.166084
0.165709
0.154699
0.12998
0.134092
0.201472
0.314829
0.387713
0.379565
0.321772
0.224154
0.184258
0.163462
0.111487
0.0867864
0.068551
0.0631236
0.0997549
0.131262
0.104837
0.0797703
0.116227
0.196748
0.995248
0.977958
0.518876
0.546417
0.529674
0.411655
0.377234
0.402953
0.378278
0.316809
0.183535
0.101947
0.158686
0.325953
0.406114
0.416912
0.372963
0.284044
0.280288
0.154055
0.0250591
0.0168123
0.0307718
0.102156
0.0712322
0.0407319
0.0327801
0.0054833
0.00239759
0.0421779
0.989321
0.975859
0.670642
0.729045
0.912627
0.950606
0.957449
0.943565
0.860323
0.590647
0.193505
0.0445886
0.00498429
0.000409185
2.47551e-05
2.25483e-05
7.20514e-06
2.71478e-05
2.99028e-05
2.07486e-05
5.91822e-06
0.000234755
0.000414064
0.0034218
0.0182609
0.0869766
0.234215
0.341685
0.434685
0.574539
0.963956
0.982971
0.712597
0.593487
0.518267
0.519806
0.509058
0.463601
0.421809
0.288493
0.123838
0.0418193
0.0278069
0.0681315
0.297412
0.587141
0.728774
0.782894
0.866606
0.871598
0.915569
0.744625
0.581807
0.47602
0.613056
0.751023
0.889089
0.96874
0.994046
0.991156
1
0.957552
0.395358
0.603525
0.905948
0.911222
0.854585
0.768886
0.731152
0.710723
0.655083
0.710104
0.684719
0.651005
0.679326
0.678589
0.653155
0.675813
0.660859
0.752345
0.877657
0.979048
0.999995
1
1
1
1
1
1
1
1
1
0.999962
0.999995
1
1
1
1
1
0.999999
1
1
1
1
1
0.969013
0.429632
0.607144
0.439403
0.459464
0.578489
0.63214
0.688242
0.594184
0.517351
0.441622
0.380138
0.434275
0.746553
0.989091
0.999963
0.999999
0.999999
0.999998
0.999989
0.999991
0.999986
0.999963
0.99954
0.990009
0.964204
0.977698
0.996068
0.997112
0.999984
0.999982
0.999647
0.998049
0.994582
0.986744
0.98554
0.986776
0.977384
0.955128
0.926283
0.853586
0.721676
0.719384
0.690531
0.765251
0.905201
0.992574
0.975228
0.819841
0.446958
0.366616
0.42245
0.463697
0.374583
0.373419
0.309171
0.434576
0.832755
0.99999
1
0.926298
0.65931
0.401156
0.269308
0.154844
0.0565457
0.00732653
0.00394379
0.00275263
0.00322748
0.00578661
0.0123062
0.0262533
0.0889429
0.183626
0.204647
0.26854
0.204389
0.207674
0.151942
0.0813738
0.0938047
0.087644
0.107436
0.187001
0.2609
0.341967
0.648303
0.943926
0.999894
0.967623
0.219263
0.103026
0.139576
0.268816
0.513449
0.782374
0.948458
0.980886
0.993534
0.996571
0.9968
0.998717
0.998168
0.999116
0.993806
0.977745
0.889381
0.668831
0.275253
0.0464112
0.00274099
0.00098661
0.00386424
0.0299172
0.204379
0.488751
0.67834
0.773077
0.99588
0.891407
0.314621
0.379308
0.449685
0.491537
0.51565
0.448291
0.323605
0.223786
0.152053
0.293052
0.400731
0.457684
0.4881
0.521641
0.591234
0.65396
0.766399
0.853089
0.906483
0.894311
0.735239
0.620626
0.599364
0.493642
0.440323
0.426823
0.402065
0.463184
0.960711
0.978601
0.601575
0.54068
0.316541
0.162603
0.178929
0.256203
0.280857
0.36081
0.411571
0.381634
0.224707
0.132596
0.0775313
0.0197855
0.00269178
0.0014084
0.00824734
0.0642315
0.173533
0.265806
0.309301
0.283256
0.182791
0.0901503
0.0385298
0.0238205
0.0328501
0.0476512
0.944532
0.99907
0.728486
0.520243
0.462124
0.536094
0.641929
0.729281
0.838189
0.891932
0.858824
0.777905
0.601384
0.385175
0.160942
0.108336
0.327263
0.514949
0.683599
0.528839
0.27947
0.066167
0.0409202
0.0632135
0.12214
0.19353
0.68366
0.797778
0.264826
0.0697453
0.998925
0.864378
0.139922
0.0994324
0.0992155
0.134309
0.16521
0.205427
0.215308
0.167525
0.13697
0.111222
0.158876
0.23879
0.261501
0.228149
0.165507
0.18399
0.232166
0.227615
0.20615
0.177061
0.151614
0.196274
0.247941
0.306947
0.273176
0.121789
0.0785259
0.228146
0.993206
0.970254
0.439709
0.473811
0.444235
0.327257
0.3118
0.346834
0.30536
0.240035
0.164948
0.170115
0.310716
0.339528
0.308031
0.240537
0.191533
0.28465
0.210122
0.0663283
0.0709992
0.0817729
0.124732
0.338046
0.505337
0.275763
0.07446
0.0133625
0.00216214
0.0136886
0.983245
0.957572
0.507123
0.717092
0.909902
0.934128
0.927018
0.903822
0.794235
0.428104
0.123463
0.0312455
0.000990724
6.97465e-05
7.72115e-06
6.62604e-06
7.34334e-05
0.000518928
0.00213067
0.00198147
0.000237914
0.000589085
0.00370863
0.00410451
0.018924
0.0888853
0.224813
0.292921
0.333733
0.424801
0.953127
0.948748
0.465995
0.409896
0.452945
0.523959
0.565759
0.611536
0.570726
0.429555
0.268791
0.0675282
0.00573967
0.00492372
0.0353201
0.263891
0.57333
0.758458
0.84273
0.861504
0.91889
0.878334
0.838883
0.818806
0.840146
0.85561
0.909349
0.972457
0.990826
0.942952
1
0.853879
0.242245
0.639662
0.903469
0.887742
0.817034
0.764988
0.742175
0.753963
0.795057
0.804896
0.87501
0.903658
0.854322
0.842056
0.70914
0.708411
0.644409
0.704317
0.80273
0.948634
0.999561
1
1
1
1
1
1
1
1
1
0.999977
0.999999
1
1
1
1
1
1
1
1
1
1
1
0.955821
0.487938
0.964525
0.896194
0.637991
0.59194
0.614151
0.549311
0.550706
0.428715
0.345349
0.286276
0.339206
0.684557
0.991744
0.99999
1
1
0.999997
0.999985
0.999985
0.999987
0.999972
0.99968
0.993448
0.973193
0.980964
0.994475
0.992404
0.9999
0.99987
0.99912
0.997718
0.996522
0.993859
0.992849
0.989162
0.981492
0.968688
0.929676
0.815435
0.691328
0.628106
0.493304
0.600322
0.735098
0.916168
0.928324
0.830561
0.5146
0.438977
0.491043
0.487887
0.407261
0.362136
0.277526
0.315286
0.709904
0.999874
0.999999
0.898027
0.564022
0.403125
0.250038
0.17214
0.0818247
0.0228991
0.00401888
0.00277864
0.00321927
0.00619331
0.0152136
0.0389593
0.15505
0.357247
0.463908
0.503776
0.443193
0.396792
0.234554
0.233236
0.123849
0.175942
0.14638
0.198115
0.253541
0.275028
0.494974
0.815606
0.999146
0.934936
0.216209
0.121083
0.16644
0.316039
0.571574
0.815938
0.95466
0.972168
0.990461
0.989041
0.98889
0.991747
0.995108
0.998246
0.99685
0.988031
0.947265
0.765273
0.407507
0.11243
0.0211412
0.00624113
0.00904478
0.0611667
0.325277
0.60432
0.679102
0.665363
0.995837
0.802403
0.200365
0.278548
0.368638
0.465396
0.503384
0.424093
0.289554
0.187475
0.125796
0.25319
0.368174
0.402842
0.408743
0.439604
0.489052
0.53782
0.697178
0.844432
0.950241
0.969768
0.886724
0.805489
0.66471
0.510113
0.470419
0.394291
0.390838
0.446078
0.975975
0.963679
0.4425
0.41425
0.22674
0.166021
0.222409
0.279405
0.301023
0.403688
0.399451
0.328525
0.214075
0.151914
0.101336
0.0488406
0.00598314
0.000580307
0.000806567
0.00805648
0.0621571
0.14211
0.17826
0.150317
0.0850646
0.0468219
0.0327127
0.0292735
0.0190015
0.0122681
0.735052
0.996757
0.550135
0.424441
0.424798
0.576335
0.692844
0.846136
0.94577
0.985247
0.977604
0.891649
0.732689
0.495682
0.207566
0.129508
0.37092
0.537857
0.54751
0.363289
0.111769
0.0249644
0.0354901
0.0455542
0.0683205
0.121085
0.172901
0.487469
0.241495
0.0550435
0.998956
0.695921
0.0494229
0.0444311
0.0721374
0.154178
0.272289
0.340895
0.302028
0.203189
0.137216
0.113302
0.131147
0.202169
0.206581
0.162999
0.156969
0.233032
0.258311
0.219874
0.223813
0.19132
0.274862
0.355029
0.474469
0.576579
0.4724
0.195782
0.139361
0.216959
0.98754
0.945274
0.358052
0.435307
0.353759
0.288006
0.295162
0.288266
0.284087
0.233606
0.203057
0.219382
0.281093
0.238026
0.142974
0.0370353
0.0396302
0.034321
0.0315913
0.100161
0.0710288
0.050689
0.193334
0.639049
0.801065
0.55171
0.2034
0.0159204
0.00226657
0.0342714
0.993242
0.921169
0.419756
0.722467
0.879906
0.895516
0.889017
0.850319
0.66503
0.334833
0.109873
0.0147154
0.000249684
4.03031e-05
1.25717e-06
1.32679e-05
0.0001611
0.00102064
0.00391152
0.00666885
0.00144593
0.00137952
0.00326797
0.00980878
0.0236549
0.137365
0.224426
0.258637
0.239548
0.330752
0.928755
0.933561
0.296183
0.342824
0.437839
0.570099
0.716466
0.712394
0.62441
0.563689
0.440557
0.194377
0.0121134
0.00184564
0.00207176
0.0189035
0.238975
0.600404
0.771673
0.874683
0.906351
0.931705
0.935516
0.938211
0.945697
0.953691
0.961113
0.973571
0.987055
0.897961
0.999999
0.691645
0.177657
0.707491
0.884883
0.860976
0.797589
0.754921
0.75295
0.818983
0.873816
0.899203
0.977306
0.97409
0.970216
0.926851
0.824112
0.769002
0.64578
0.686005
0.756602
0.918973
0.996695
1
1
1
1
1
1
1
1
1
0.999988
1
1
1
1
1
1
1
1
1
1
1
0.99993
0.999944
0.959017
0.38079
0.938809
0.999988
0.999945
0.98606
0.715474
0.598217
0.671695
0.632847
0.604438
0.424649
0.287327
0.285409
0.528408
0.966267
0.999933
0.999999
0.999999
0.999992
0.999959
0.999964
0.999946
0.999915
0.999229
0.992538
0.980138
0.98546
0.992945
0.977655
0.920141
0.998025
0.999546
0.991398
0.999099
0.998506
0.998101
0.998094
0.997474
0.99623
0.994096
0.985081
0.950086
0.871108
0.727277
0.52782
0.480633
0.500265
0.418661
0.690946
0.770105
0.721079
0.54856
0.550853
0.515049
0.533152
0.396096
0.386306
0.232387
0.250318
0.602712
0.998041
0.997528
0.978326
0.87401
0.446355
0.46789
0.351631
0.263377
0.182963
0.146449
0.0566317
0.00859886
0.00277896
0.00248896
0.00396528
0.00882408
0.0215957
0.0496928
0.128741
0.264381
0.400992
0.349749
0.457304
0.263021
0.298282
0.226696
0.183421
0.264128
0.242232
0.242962
0.292929
0.420097
0.572269
0.760531
0.963022
0.968672
0.625657
0.310215
0.155553
0.18663
0.300829
0.507924
0.738776
0.87998
0.934958
0.952546
0.91995
0.923567
0.855663
0.87948
0.877775
0.87482
0.86583
0.790482
0.630867
0.374257
0.128
0.0303022
0.0227046
0.0513812
0.180601
0.456356
0.698202
0.705037
0.492842
0.441736
0.953087
0.684532
0.113468
0.116494
0.204423
0.32308
0.467629
0.526622
0.438606
0.292053
0.182975
0.120483
0.205982
0.336607
0.373416
0.34718
0.338144
0.353313
0.404771
0.503318
0.64761
0.821638
0.874422
0.86649
0.678086
0.612703
0.510188
0.376395
0.351553
0.362032
0.455471
0.726094
0.989096
0.931859
0.347583
0.296086
0.296022
0.199428
0.201874
0.269709
0.313043
0.365057
0.497164
0.38476
0.346755
0.270444
0.18956
0.131901
0.0929209
0.0331465
0.00153609
0.000242608
0.000605129
0.00842742
0.0568657
0.101742
0.0971356
0.0599409
0.0412728
0.0319225
0.0139295
0.00269378
0.00125637
0.0145347
0.786141
0.605835
0.0787474
0.238857
0.370198
0.475074
0.612346
0.763669
0.910223
0.984311
0.998447
0.997416
0.960906
0.818803
0.603556
0.280381
0.160144
0.383495
0.585127
0.470454
0.216466
0.0717442
0.0475555
0.0170588
0.0139698
0.0219489
0.0428206
0.0899068
0.178202
0.172453
0.0535364
0.540613
0.999297
0.726128
0.0153104
0.0132622
0.0238606
0.0528741
0.107568
0.233322
0.450605
0.42785
0.298691
0.177423
0.110952
0.11795
0.195259
0.22043
0.157237
0.205917
0.224383
0.180577
0.0975769
0.0839597
0.0891069
0.178005
0.436086
0.64293
0.722974
0.547499
0.144397
0.129406
0.245457
0.30738
0.94514
0.878597
0.24847
0.293336
0.352257
0.376427
0.346412
0.307928
0.305399
0.30882
0.293946
0.23536
0.226437
0.23848
0.139664
0.0283481
0.000403549
0.000302289
0.00127012
0.00583934
0.0163955
0.0325959
0.0656924
0.145425
0.582075
0.729842
0.50065
0.13994
0.00831384
0.00289275
0.0750108
0.861331
0.998484
0.833529
0.115328
0.277055
0.645268
0.80117
0.824039
0.795099
0.716089
0.550431
0.305661
0.0841591
0.010997
0.000252307
1.86704e-05
1.47315e-06
1.53466e-05
0.000144693
0.000589676
0.00109671
0.00125455
0.000693352
0.00208201
0.000810203
0.0131123
0.0878977
0.155453
0.222256
0.184844
0.149197
0.270381
0.577096
0.902105
0.891148
0.0769511
0.130132
0.187965
0.385488
0.689012
0.797426
0.788178
0.726808
0.637787
0.500784
0.364584
0.099463
0.0021315
0.000694018
0.00243549
0.0140249
0.141982
0.568483
0.833352
0.898046
0.950949
0.961295
0.97733
0.983037
0.986272
0.989217
0.991321
0.991289
0.943935
0.444282
0.831343
0.774805
0.0147544
0.0789046
0.597636
0.865138
0.839985
0.781058
0.739792
0.78075
0.84364
0.899451
0.956803
0.996961
0.999673
0.997262
0.968831
0.836253
0.786827
0.678726
0.647665
0.746259
0.897691
0.992506
1
1
1
1
1
1
0.999999
1
1
1
1
0.999997
1
1
1
1
1
1
1
1
1
1
1
0.999855
0.996154
0.758419
0.532281