/*--------------------------------*- C++ -*----------------------------------*\
| =========                 |                                                 |
| \\      /  F ield         | OpenFOAM: The Open Source CFD Toolbox           |
|  \\    /   O peration     | Version:  2.1.1                                 |
|   \\  /    A nd           | Web:      www.OpenFOAM.org                      |
|    \\/     M anipulation  |                                                 |
\*---------------------------------------------------------------------------*/
FoamFile
{
    version     2.0;
    format      ascii;
    class       volScalarField;
    location    "0.004300000";
    object      G;
}
// * * * * * * * * * * * * * * * * * * * * * * * * * * * * * * * * * * * * * //

dimensions      [0 0 0 0 0 0 0];

internalField   nonuniform List<scalar> 
12384
(
1
1
1
1
1
1
1
1
1
1
1
1
1
1
1
1
0.999993
0.999847
0.999106
0.995873
0.989432
0.980658
0.970252
0.956774
0.943259
0.933921
0.927385
0.941592
0.950494
0.977352
0.989588
0.997309
0.99939
0.999905
0.999991
1
1
1
1
1
1
1
1
1
1
0.999826
0.995038
0.978984
0.968742
0.966917
0.967519
0.968749
0.978532
0.979302
0.989848
0.991443
0.994901
0.996241
0.998277
0.999124
0.9998
0.999949
0.999994
1
1
1
1
1
1
1
1
1
1
1
1
0.999958
0.999764
0.999423
0.998626
0.996326
0.991437
0.961944
0.925762
0.899194
0.625348
0.754392
0.351085
0.558375
0.411355
0.507406
0.441944
0.631041
0.648219
0.656521
0.633352
0.678459
0.761532
0.89039
0.995496
0.99996
0.999997
0.999998
0.999997
1
0.999996
0.941535
0.705186
0.512072
0.401849
0.310311
0.241185
0.191133
0.155539
0.137268
0.121677
0.120853
0.123244
0.159442
0.189533
0.390792
0.319607
0.775289
0.892559
0.977155
0.996301
0.998541
0.998122
0.998496
0.999399
0.99978
0.99999
1
1
1
1
0.999997
0.999917
0.998723
0.992151
0.976105
0.95319
0.936636
0.922799
0.917317
0.908682
0.898537
0.879093
0.852625
0.813875
0.768182
0.713412
0.665309
0.602875
0.547325
0.493858
0.454916
0.43165
0.434221
0.45884
0.511419
0.601964
0.775715
0.971975
0.999826
0.999999
0.999917
0.998849
0.996793
0.998089
0.998198
0.998815
0.996798
0.996671
0.991837
0.988401
0.978886
0.969401
0.955355
0.938692
0.913511
0.874365
0.8327
0.793345
0.76077
0.734795
0.731732
0.732729
0.756188
0.797814
0.872668
0.941849
0.990417
0.999816
0.999997
1
0.999812
0.99881
0.999513
1
1
0.999965
0.999926
0.999775
0.99968
0.999677
0.999699
0.999687
0.999714
0.999781
0.999894
0.999951
0.999983
0.99999
0.999995
0.999995
0.999993
0.999988
0.999974
0.999945
0.999968
0.999992
1
1
1
1
1
1
1
1
0.999944
0.997468
0.985636
0.960425
0.902142
0.859197
0.88375
0.899404
0.925707
0.945894
0.966975
0.977927
0.987598
0.992257
0.996668
0.997905
0.999225
0.999854
0.999987
0.999999
1
1
1
1
1
1
1
1
0.999992
0.999714
0.998189
0.996225
0.996004
0.996561
0.998081
0.998621
0.999033
0.999023
0.998836
0.998255
0.996813
0.993184
0.986824
0.969072
0.95367
0.909963
0.910321
0.894928
0.896709
0.945687
0.973976
0.995733
0.99956
0.999901
0.999992
1
1
0.999995
0.999609
0.997488
0.992482
0.989634
0.988782
0.990919
0.993624
0.994773
0.995963
0.994823
0.989924
0.990698
0.96286
0.96987
0.888195
0.909511
0.713157
0.72785
0.577353
0.564742
0.614328
0.639757
0.757604
0.883994
0.948243
0.977029
0.992229
1
1
1
0.999938
0.99914
0.998166
0.995204
0.994922
0.995731
0.997127
0.998347
0.999049
0.999468
0.999592
0.999643
0.999553
0.999481
0.999599
0.999411
0.999882
0.999929
0.999998
1
1
1
1
1
1
1
1
1
1
1
1
1
1
1
1
1
1
1
1
1
1
1
1
1
1
1
1
1
1
1
1
1
1
1
1
1
1
1
1
1
1
1
1
1
1
1
1
1
1
1
1
0.999999
0.999975
0.994376
0.854541
0.503522
0.245727
0.149551
0.103381
0.0794171
0.0658459
0.0564234
0.048997
0.040567
0.0402606
0.0336031
0.0424893
0.0500197
0.0762071
0.129819
0.211095
0.335156
0.509856
0.753187
0.946264
0.995933
0.99961
0.999898
0.999919
0.999971
1
0.999998
0.964618
0.582975
0.432843
0.520166
0.675506
0.664974
0.616195
0.548139
0.506411
0.456444
0.450617
0.42169
0.397461
0.377577
0.373962
0.401722
0.438603
0.553855
0.653726
0.717652
0.75231
0.863802
0.993908
0.999957
1
1
1
1
1
0.999999
0.999506
0.997232
0.979796
0.903278
0.699443
0.408403
0.188231
0.0449865
0.017389
0.00257008
0.000363099
0.000136169
2.56121e-05
3.38886e-05
3.77253e-05
0.000282231
0.00089351
0.00281949
0.00506298
0.00657796
0.0077374
0.0266196
0.114911
0.406352
0.911897
0.97935
0.990846
0.987066
0.99999
0.942451
0.0900842
0.0663569
0.0426299
0.0194051
0.00661068
0.00189702
0.000498351
0.000156955
4.74848e-05
2.06015e-05
7.59329e-06
4.45939e-06
2.04635e-06
1.90016e-06
1.89941e-06
6.0388e-06
0.000260138
0.00210415
0.0163735
0.109913
0.463841
0.825554
0.947867
0.973394
0.986958
0.995903
0.999679
0.99998
0.999999
0.999417
0.983116
0.936094
0.799172
0.615739
0.514584
0.509992
0.54334
0.528591
0.468076
0.367306
0.248761
0.150316
0.0823333
0.0421798
0.0224073
0.0124739
0.00741319
0.00495343
0.00396445
0.00360715
0.00404312
0.00507707
0.00697749
0.0106613
0.0182427
0.0362895
0.0906695
0.25238
0.819448
0.999847
0.973612
0.902114
0.898723
0.913191
0.889264
0.815814
0.723073
0.560074
0.353139
0.214141
0.162568
0.210948
0.25693
0.283568
0.261571
0.196647
0.128011
0.0888493
0.0586511
0.0370771
0.0237058
0.0171118
0.0124637
0.0115175
0.0169645
0.0469332
0.186925
0.579831
0.98516
0.999546
0.660603
0.693876
0.76732
0.896837
0.746492
0.649227
0.461336
0.494459
0.518756
0.578369
0.635438
0.668566
0.661063
0.697706
0.776977
0.894106
0.960774
0.990155
0.997334
0.998849
0.998522
0.994307
0.976821
0.944521
0.897716
0.923907
0.992379
0.999886
1
1
0.999939
0.989188
0.836596
0.646767
0.427309
0.272309
0.116542
0.0731789
0.107382
0.127965
0.186085
0.337353
0.467826
0.594006
0.697299
0.766181
0.80946
0.833705
0.859756
0.826985
0.850685
0.828724
0.778399
0.815984
0.944757
0.994384
0.999998
1
1
0.999998
0.998193
0.971861
0.828013
0.688676
0.645672
0.667494
0.770528
0.867847
0.943689
0.971696
0.979293
0.979078
0.966372
0.91839
0.775421
0.40821
0.113531
0.0194446
0.00487479
0.0013312
0.00041998
0.000241468
0.000266661
0.000493243
0.00289269
0.106124
0.60824
0.960417
0.999805
0.973212
0.979767
0.933536
0.83968
0.764671
0.754977
0.84448
0.913441
0.945885
0.973219
0.972476
0.963705
0.919188
0.738009
0.546244
0.223701
0.1075
0.0327371
0.00730863
0.00313884
0.00211549
0.00262271
0.0035647
0.00531856
0.00842899
0.0281554
0.118017
0.361385
0.650138
0.882303
0.87209
0.913905
0.942132
0.884544
0.841614
0.857935
0.847912
0.898882
0.919507
0.94811
0.965543
0.976434
0.978006
0.969643
0.939998
0.859723
0.682719
0.545112
0.344509
0.437843
0.517322
0.693757
0.848137
0.965595
0.999189
1
1
1
1
1
1
0.999822
0.938483
0.752389
0.568537
0.336832
0.557362
0.742685
0.731623
0.731234
0.69187
0.699385
0.733161
0.776142
0.845208
0.917753
0.97384
0.997121
0.999984
1
1
1
1
1
1
1
1
1
1
1
1
1
1
1
1
1
1
1
1
1
1
1
1
1
0.99993
0.998744
0.693506
0.249302
0.17733
0.184753
0.23404
0.304502
0.371468
0.426072
0.451362
0.462089
0.45675
0.476453
0.463668
0.506199
0.508856
0.538184
0.54516
0.544135
0.529875
0.539731
0.617914
0.824283
0.965286
0.996848
0.999591
0.999813
0.999712
1
0.999957
0.793139
0.324656
0.245239
0.562527
0.779473
0.702942
0.588495
0.479011
0.397296
0.342715
0.307916
0.289182
0.255936
0.239017
0.226587
0.258135
0.334984
0.464911
0.544745
0.64266
0.632308
0.599127
0.797459
0.936267
0.997026
1
1
1
1
0.999998
0.999148
0.989522
0.926849
0.764093
0.547162
0.332367
0.140655
0.0508532
0.0234967
0.00115469
0.000570559
0.000259798
1.01624e-05
3.46772e-05
8.73378e-05
0.000204518
0.00110862
0.00334585
0.00678153
0.00790648
0.00710032
0.00931982
0.0320293
0.118365
0.524627
0.947042
0.989625
0.972216
0.999687
0.753421
0.0977189
0.0876542
0.0648357
0.0454852
0.0287002
0.0148446
0.00652518
0.00242932
0.00076963
0.000231702
5.94495e-05
2.16373e-05
1.14935e-05
7.54968e-06
2.51196e-05
0.000129245
0.00214997
0.00598851
0.0136073
0.0401738
0.172478
0.538621
0.842517
0.960269
0.982826
0.991532
0.998299
0.999899
0.999982
0.996518
0.909048
0.779505
0.54456
0.470337
0.537195
0.584277
0.55845
0.499046
0.417685
0.328576
0.233813
0.160602
0.102781
0.0624367
0.0364299
0.0211144
0.0127948
0.00858091
0.00656847
0.0059266
0.00638291
0.00794071
0.010977
0.0156181
0.0226183
0.0319654
0.0521309
0.118315
0.658622
0.998934
0.924986
0.882426
0.912721
0.889921
0.829627
0.695483
0.422416
0.20243
0.132141
0.130619
0.216214
0.301594
0.379467
0.363921
0.236223
0.135877
0.0988613
0.0836085
0.0785244
0.070607
0.0582249
0.0422463
0.0273505
0.0163042
0.0104521
0.0158948
0.0631536
0.303465
0.973836
0.990795
0.579068
0.578739
0.694226
0.717366
0.334718
0.360345
0.248437
0.350369
0.500478
0.601485
0.644858
0.634969
0.603584
0.543106
0.51394
0.548672
0.726996
0.890305
0.967247
0.985057
0.963202
0.908608
0.812314
0.786843
0.782967
0.828025
0.96348
0.999219
1
1
0.988754
0.763113
0.53675
0.373502
0.284005
0.151247
0.076662
0.0565236
0.0570216
0.0860252
0.121563
0.2141
0.375382
0.512037
0.635185
0.707517
0.750887
0.760525
0.778868
0.75574
0.730819
0.5611
0.698267
0.69556
0.924043
0.975661
0.999966
1
1
0.999923
0.976096
0.83523
0.663359
0.587166
0.530268
0.52888
0.569083
0.720126
0.819493
0.853761
0.829655
0.761354
0.652514
0.506175
0.254186
0.0566361
0.0122985
0.00253442
0.000517369
0.000127576
3.43797e-05
1.63774e-05
9.38295e-06
1.71541e-05
6.21706e-05
0.000673579
0.108892
0.739665
0.999369
0.982356
0.930534
0.825381
0.593489
0.518403
0.580471
0.756296
0.887359
0.928968
0.947814
0.922856
0.855321
0.658892
0.356378
0.147209
0.0392315
0.0145008
0.0038248
0.00234913
0.00127409
0.00155013
0.0019811
0.00279933
0.00395142
0.00566532
0.0089825
0.0187683
0.124622
0.388696
0.813448
0.802397
0.876149
0.83502
0.777584
0.749214
0.746295
0.735135
0.754024
0.743905
0.773606
0.799757
0.835351
0.870086
0.891006
0.87812
0.796174
0.591612
0.380318
0.229894
0.277226
0.345323
0.648774
0.820659
0.942792
0.995478
0.999971
1
1
1
1
1
0.972059
0.831012
0.682896
0.621586
0.773133
0.800219
0.735216
0.653849
0.57184
0.499628
0.49222
0.503832
0.565435
0.648843
0.750683
0.855791
0.93979
0.990351
0.999929
1
1
1
1
1
1
1
1
1
1
1
1
0.999999
0.999991
0.999976
0.999992
0.999999
1
1
1
1
1
1
1
0.9998
0.898393
0.155682
0.100187
0.191767
0.37818
0.56826
0.684589
0.748363
0.764214
0.75863
0.739915
0.742547
0.761218
0.833928
0.88599
0.934973
0.95824
0.965871
0.955474
0.912086
0.813074
0.71033
0.772024
0.91312
0.989699
0.998689
0.999586
0.998618
1
0.999551
0.636621
0.260669
0.25473
0.603743
0.678767
0.46635
0.319189
0.289801
0.293442
0.317288
0.347891
0.340233
0.338569
0.290323
0.253084
0.218478
0.246211
0.293911
0.489196
0.604501
0.560484
0.593034
0.658869
0.773786
0.939521
0.999258
1
1
1
0.999992
0.996961
0.953445
0.796097
0.6278
0.468168
0.244163
0.12969
0.0550351
0.0111382
0.00157101
0.00155814
0.000145457
8.80352e-05
8.77555e-05
9.83224e-05
0.000569729
0.00140568
0.00463113
0.00868749
0.0106652
0.00791742
0.00582796
0.0136166
0.0418869
0.16475
0.642515
0.927804
0.944261
0.99883
0.686299
0.0639105
0.0393933
0.034074
0.0345368
0.0320857
0.0257316
0.0165202
0.00834213
0.00297472
0.000845491
0.000189649
9.6271e-05
6.20132e-05
0.000246127
0.00275705
0.0124495
0.0364716
0.0662472
0.048441
0.0651749
0.130895
0.412935
0.763837
0.927714
0.965946
0.98014
0.993809
0.999469
0.99997
0.98748
0.713691
0.504813
0.41335
0.490986
0.526264
0.48498
0.41465
0.342287
0.280119
0.227148
0.177796
0.136961
0.101902
0.0756727
0.0625092
0.0362556
0.0212491
0.0141502
0.010178
0.00916356
0.00953117
0.011498
0.015274
0.0211914
0.0279027
0.0342864
0.0483329
0.0799402
0.600507
0.99685
0.873363
0.87816
0.888931
0.840196
0.710483
0.404683
0.186216
0.1371
0.167443
0.224627
0.356285
0.45917
0.479387
0.342475
0.106238
0.045441
0.0273609
0.032451
0.0507698
0.0702771
0.0841644
0.0843504
0.0682865
0.0398338
0.0179214
0.0117497
0.0265287
0.151915
0.967705
0.935449
0.525596
0.482999
0.643828
0.314697
0.259776
0.177651
0.369568
0.505961
0.597195
0.653324
0.643643
0.613336
0.580357
0.527126
0.397402
0.287434
0.335312
0.592811
0.858699
0.901994
0.815342
0.681879
0.70981
0.793456
0.894748
0.909771
0.962515
0.998547
1
0.999972
0.831123
0.486373
0.306371
0.254236
0.16421
0.0917942
0.0906747
0.0352904
0.0371313
0.0547594
0.0984606
0.130757
0.25408
0.423397
0.560439
0.641286
0.649484
0.595498
0.415173
0.271355
0.168732
0.171927
0.205308
0.317345
0.488094
0.95859
0.995006
0.999937
1
0.999588
0.904696
0.736858
0.688985
0.655211
0.560148
0.455453
0.444472
0.483241
0.662481
0.641596
0.573499
0.478291
0.400286
0.244803
0.0959446
0.0361671
0.0189494
0.0112855
0.00866578
0.00362879
0.00300919
0.000435587
0.000144701
1.02356e-05
6.21541e-06
3.72138e-05
0.0018803
0.34602
0.998451
0.985885
0.860785
0.654419
0.558401
0.547949
0.61345
0.789552
0.892535
0.906908
0.900014
0.799977
0.572293
0.164273
0.0164728
0.00498584
0.000687885
8.72097e-05
0.00010617
0.000229277
0.000647464
0.00104679
0.00177617
0.0027224
0.0039109
0.00506614
0.0065632
0.00924521
0.0206386
0.162725
0.735346
0.90772
0.775934
0.709049
0.662226
0.666638
0.642813
0.62527
0.618048
0.584528
0.543847
0.551501
0.608354
0.70814
0.802042
0.813641
0.632636
0.4275
0.397594
0.287093
0.354534
0.355938
0.615149
0.84959
0.944478
0.992283
0.999741
1
1
1
1
0.999985
0.793633
0.713278
0.666522
0.834141
0.831905
0.745498
0.624831
0.511275
0.441366
0.406314
0.392669
0.422736
0.477184
0.542805
0.622757
0.710317
0.820889
0.928499
0.991022
0.999997
1
1
1
1
1
1
1
1
1
1
0.999997
0.999923
0.999947
0.999956
0.999976
0.999981
0.999999
1
1
1
1
1
1
0.999876
0.350742
0.0651383
0.0735589
0.228268
0.521837
0.739214
0.83031
0.841697
0.818827
0.763105
0.717564
0.694095
0.795203
0.901256
0.976108
0.995641
0.998824
0.999054
0.998371
0.994688
0.970818
0.869814
0.814451
0.877166
0.979259
0.99685
0.998752
0.995143
1
0.997188
0.627107
0.277337
0.322687
0.579484
0.494127
0.259504
0.255102
0.325979
0.464141
0.565745
0.668445
0.718447
0.741846
0.719758
0.645555
0.50634
0.374771
0.388798
0.45165
0.489611
0.603228
0.622151
0.609856
0.729184
0.853684
0.977016
0.999996
1
1
0.999929
0.990091
0.87889
0.698479
0.54837
0.355634
0.174755
0.0684151
0.0289191
0.0123171
0.00658882
0.0132386
0.00157019
0.00415968
0.000738116
0.00142601
0.00183506
0.00484965
0.00616082
0.0116946
0.0124302
0.0083462
0.00498544
0.00818071
0.0197449
0.0754906
0.305362
0.672481
0.824997
0.995121
0.657504
0.0272516
0.0149528
0.0153616
0.020587
0.0255917
0.026351
0.0206581
0.0112169
0.0039985
0.0014847
0.00095755
0.0081981
0.0558677
0.158483
0.295668
0.340882
0.416655
0.291569
0.22972
0.160047
0.215993
0.433621
0.780363
0.940332
0.974604
0.979385
0.988099
0.998485
0.999885
0.968233
0.438442
0.305146
0.364895
0.421491
0.385293
0.320092
0.261243
0.212334
0.171118
0.14236
0.119627
0.118837
0.148755
0.141541
0.146406
0.106326
0.0578366
0.0604201
0.0254971
0.0243332
0.032339
0.0327144
0.0339604
0.0306051
0.032779
0.0446076
0.0551311
0.0808126
0.601609
0.993128
0.826387
0.857369
0.839162
0.755908
0.499158
0.240155
0.168579
0.197198
0.238877
0.330666
0.482496
0.630912
0.612619
0.346313
0.0515367
0.0124945
0.00781133
0.0165425
0.0492541
0.0984389
0.142535
0.163467
0.147358
0.0882107
0.0324323
0.0124394
0.0160181
0.0894727
0.962836
0.901887
0.425841
0.542007
0.364303
0.283382
0.130567
0.328035
0.455938
0.634953
0.641512
0.58278
0.568451
0.508732
0.430859
0.402497
0.325061
0.143964
0.0931422
0.282426
0.653623
0.708829
0.587159
0.652656
0.830619
0.951825
0.983847
0.995447
0.992286
0.99822
1
0.999592
0.593873
0.267562
0.189368
0.146247
0.109066
0.132723
0.0609639
0.0530099
0.0648254
0.0517433
0.0764115
0.096827
0.173743
0.343332
0.499886
0.573594
0.504066
0.265338
0.112845
0.0550108
0.0432201
0.0708587
0.0411686
0.0845711
0.274926
0.525864
0.958237
0.917669
1
0.99855
0.79055
0.732343
0.826812
0.797649
0.590908
0.42128
0.307996
0.380134
0.438043
0.453122
0.333561
0.267115
0.164836
0.0614569
0.0407131
0.0313777
0.037703
0.0776016
0.0940939
0.172771
0.142463
0.0837344
0.0099914
0.000951598
2.82824e-05
4.45172e-06
9.33185e-05
0.0753947
0.995867
0.982579
0.740224
0.590888
0.655128
0.686332
0.720149
0.835555
0.881231
0.87627
0.808525
0.532189
0.0898794
0.0111754
0.00262902
0.000394728
2.73581e-05
1.93971e-05
3.19069e-06
2.31754e-05
0.000120997
0.000729347
0.00170003
0.00291905
0.00426987
0.00434743
0.00366468
0.0038999
0.00726599
0.0381392
0.626583
0.921095
0.615922
0.581609
0.566336
0.568572
0.590977
0.588434
0.55088
0.472176
0.383055
0.316042
0.359533
0.518702
0.669594
0.690982
0.439985
0.273332
0.486595
0.55313
0.603704
0.524629
0.743138
0.907808
0.959221
0.990559
0.999043
0.999993
1
1
1
0.998343
0.487815
0.641914
0.83117
0.860109
0.764365
0.681099
0.527765
0.442362
0.429528
0.409651
0.437926
0.476161
0.519519
0.555752
0.581273
0.619184
0.689503
0.801655
0.939913
0.998516
1
1
1
1
1
1
1
1
1
1
0.999947
0.999876
0.999985
0.999995
0.999999
0.999996
0.999997
1
1
1
1
1
1
0.999633
0.23499
0.0872067
0.0555103
0.199725
0.530659
0.766879
0.851958
0.859081
0.818239
0.751545
0.66508
0.694005
0.814925
0.968624
0.998344
0.999923
0.999973
0.999949
0.99982
0.999312
0.994643
0.954274
0.869986
0.88364
0.972496
0.994561
0.997291
0.985934
0.999996
0.996511
0.65743
0.336324
0.403779
0.539313
0.408995
0.269206
0.35886
0.509815
0.702191
0.791356
0.883071
0.923824
0.955251
0.969109
0.967026
0.921374
0.759281
0.58681
0.451881
0.590558
0.619663
0.614458
0.667863
0.724155
0.788214
0.928524
0.999812
1
1
0.999841
0.983221
0.831624
0.62642
0.447848
0.273966
0.0638496
0.0272388
0.0127683
0.017964
0.0542064
0.108103
0.0781095
0.107212
0.0271128
0.0323035
0.0228582
0.0182751
0.0228567
0.0203997
0.0163042
0.00924915
0.00547642
0.0067859
0.0131809
0.0464638
0.189396
0.465705
0.681305
0.984191
0.585544
0.0137474
0.00766474
0.00775696
0.00897204
0.0112325
0.0121026
0.00942766
0.00624144
0.00949943
0.0824394
0.36978
0.748226
0.903277
0.927138
0.904013
0.877787
0.7925
0.653223
0.510414
0.389456
0.385744
0.599396
0.858329
0.960833
0.978911
0.975089
0.984992
0.996571
0.999824
0.925709
0.203893
0.192252
0.283021
0.292432
0.252802
0.214524
0.180671
0.141875
0.110035
0.0900568
0.0781957
0.152119
0.19301
0.23025
0.204002
0.215483
0.213277
0.142416
0.114157
0.109791
0.0938325
0.112194
0.0983537
0.0819204
0.0788454
0.0684919
0.0799593
0.0797861
0.674037
0.985088
0.781393
0.815739
0.775178
0.637084
0.365735
0.234904
0.22849
0.263857
0.334774
0.458103
0.651283
0.720206
0.66412
0.3452
0.0275255
0.00439229
0.0030887
0.0128095
0.0682431
0.164724
0.256658
0.297064
0.250982
0.136439
0.0466165
0.0154641
0.0180622
0.0708736
0.96028
0.854351
0.323968
0.349399
0.292686
0.110305
0.212771
0.322765
0.615144
0.640084
0.717987
0.65409
0.474237
0.37416
0.330795
0.225611
0.138962
0.0420856
0.0205172
0.0381972
0.33698
0.452948
0.515525
0.766608
0.9547
0.992001
0.999649
0.999907
0.999706
0.998504
1
0.994766
0.213484
0.121496
0.116289
0.0954799
0.15746
0.112172
0.105682
0.0981742
0.0731669
0.0709269
0.0601541
0.0728237
0.128447
0.296849
0.466744
0.514154
0.360597
0.108818
0.0307318
0.0241822
0.0271177
0.0263473
0.0515767
0.0757739
0.100649
0.278426
0.543841
0.569921
0.999467
0.995613
0.679811
0.800264
0.920959
0.889697
0.709401
0.385918
0.234526
0.194818
0.349826
0.248236
0.1899
0.115996
0.0206506
0.0139497
0.00817177
0.013426
0.0583244
0.194792
0.329998
0.663135
0.456616
0.337169
0.0872804
0.00528773
8.90899e-05
3.21403e-06
9.37811e-06
0.0142167
0.993779
0.973154
0.602027
0.617977
0.792959
0.793689
0.782709
0.843836
0.858764
0.818839
0.665153
0.160855
0.0125563
0.00240454
0.000404576
8.13997e-05
5.70351e-05
2.82523e-05
1.21643e-05
1.69784e-05
0.000123896
0.000565693
0.00208447
0.00370854
0.00494822
0.00383903
0.00161536
0.000935908
0.00215964
0.00591567
0.505523
0.907778
0.428267
0.423516
0.477412
0.514538
0.580146
0.605384
0.563594
0.458954
0.321422
0.215801
0.174454
0.303471
0.522354
0.598259
0.474025
0.297913
0.494869
0.772937
0.873133
0.779465
0.873983
0.936859
0.970306
0.991262
0.998451
0.999947
1
1
1
0.97174
0.304634
0.508215
0.878265
0.808406
0.708238
0.601299
0.490507
0.490087
0.472838
0.539193
0.570333
0.620324
0.646062
0.651559
0.635972
0.615305
0.598319
0.678766
0.843965
0.978969
1
1
1
1
1
1
1
1
1
1
0.999907
0.999954
0.999999
1
1
1
0.999999
0.999997
0.999999
0.999999
1
1
1
0.998665
0.477741
0.45549
0.104905
0.153025
0.471392
0.720749
0.825955
0.849938
0.81726
0.717736
0.661067
0.664608
0.875232
0.994203
0.999978
1
0.999999
0.999991
0.999908
0.999433
0.995983
0.968444
0.906338
0.906627
0.971486
0.991567
0.993275
0.967489
0.999922
0.996598
0.821148
0.355021
0.519589
0.583565
0.471974
0.410838
0.488358
0.665945
0.734921
0.780424
0.807057
0.864757
0.927072
0.967861
0.987252
0.993644
0.979184
0.746224
0.605445
0.622067
0.595719
0.656425
0.673012
0.696214
0.73774
0.861748
0.998367
1
1
0.999555
0.967879
0.772824
0.555152
0.411822
0.159533
0.0244441
0.00875184
0.0051882
0.0377609
0.0835975
0.342286
0.408823
0.573865
0.295761
0.210748
0.0964169
0.0646223
0.0393351
0.0287549
0.0167406
0.00829271
0.00727793
0.00751727
0.0127957
0.0419135
0.153104
0.351749
0.523689
0.958324
0.456927
0.0106425
0.00579234
0.00376512
0.0025838
0.00266398
0.00371759
0.017571
0.0632125
0.371143
0.83158
0.985351
0.996962
0.999114
0.998887
0.99591
0.98738
0.934249
0.838718
0.729203
0.592451
0.631519
0.796617
0.936825
0.981221
0.985812
0.972674
0.976523
0.994146
0.999566
0.84657
0.0833219
0.121699
0.181233
0.190008
0.186302
0.177137
0.146145
0.106361
0.0765339
0.0663556
0.135259
0.180454
0.242902
0.302758
0.320106
0.361159
0.508433
0.495662
0.431758
0.452591
0.361875
0.30318
0.277628
0.17743
0.140498
0.113202
0.103125
0.0958705
0.768302
0.973986
0.719681
0.745131
0.693769
0.527822
0.347215
0.294099
0.310525
0.320309
0.412209
0.636628
0.720225
0.730357
0.657325
0.396924
0.0222775
0.00242611
0.00141886
0.00926018
0.0666147
0.164777
0.265622
0.314198
0.2657
0.146582
0.0586543
0.0269257
0.0326658
0.0751998
0.95136
0.813209
0.243169
0.300153
0.23975
0.116549
0.134742
0.473817
0.619709
0.836989
0.823167
0.869017
0.743474
0.425725
0.267439
0.282363
0.165706
0.0131021
0.0040119
0.043775
0.278567
0.471419
0.69526
0.865762
0.936443
0.982848
0.994982
0.998861
0.997942
0.998615
0.999997
0.953852
0.0627914
0.0408138
0.0360388
0.0995917
0.119904
0.175263
0.203441
0.186244
0.11558
0.102482
0.0790234
0.045226
0.103788
0.280565
0.460809
0.460814
0.228169
0.0478156
0.0212504
0.0147356
0.00949743
0.0286493
0.0734165
0.0672431
0.0622616
0.0834148
0.303786
0.122955
0.992565
0.987143
0.585993
0.843602
0.956309
0.95384
0.807231
0.463155
0.162287
0.143435
0.201588
0.208259
0.0974333
0.0222646
0.00582498
0.00211509
0.00162685
0.00550213
0.0204716
0.0697384
0.140787
0.357804
0.154703
0.101375
0.0814734
0.011648
0.000110631
2.7917e-06
2.48448e-06
0.00171264
0.990801
0.953214
0.473816
0.671832
0.870573
0.848775
0.806936
0.824428
0.820309
0.742388
0.433352
0.0359434
0.00466507
0.00072069
3.33002e-05
3.03247e-05
5.15381e-06
9.26797e-06
4.67637e-05
0.000148709
0.000251816
0.00106
0.00329507
0.00551441
0.00585071
0.00319789
0.000560309
0.0001407
0.00045569
0.00234542
0.405314
0.841723
0.264711
0.287358
0.376999
0.520696
0.599554
0.63067
0.596342
0.493023
0.367517
0.207105
0.110373
0.112027
0.320333
0.558658
0.560596
0.393693
0.450972
0.672544
0.846225
0.918644
0.957392
0.975893
0.985573
0.993814
0.998281
0.99986
0.999999
1
1
0.886156
0.197254
0.675161
0.841061
0.774905
0.654218
0.552449
0.519765
0.563654
0.607263
0.692196
0.745104
0.780187
0.782708
0.749974
0.704984
0.620958
0.579995
0.607318
0.729806
0.933829
0.999892
1
1
1
1
1
1
1
1
1
0.999895
0.999983
1
1
1
1
1
0.999999
0.999998
0.999996
0.999998
1
1
0.985888
0.901082
0.970441
0.591827
0.194572
0.332744
0.603033
0.724187
0.755558
0.725624
0.682691
0.588464
0.631183
0.875457
0.998185
0.999999
1
1
0.999997
0.999842
0.99883
0.99418
0.97146
0.927574
0.944094
0.982058
0.993134
0.991446
0.951118
0.999563
0.99327
0.91035
0.535451
0.59793
0.67079
0.667728
0.594833
0.674813
0.68084
0.649864
0.571296
0.565879
0.631808
0.718234
0.814028
0.908362
0.970502
0.991159
0.980847
0.783146
0.588593
0.614752
0.625799
0.627824
0.647199
0.648507
0.785902
0.995588
1
1
0.999278
0.948444
0.736494
0.518466
0.349618
0.13276
0.0136576
0.00324318
0.00248975
0.0220316
0.0651107
0.274818
0.367708
0.578756
0.4481
0.307263
0.178899
0.0931081
0.0616723
0.0407481
0.0242941
0.0127989
0.0104246
0.0103622
0.0177569
0.0565547
0.172933
0.301107
0.332339
0.920389
0.361652
0.0121081
0.00544004
0.00166838
0.00268736
0.0128053
0.0374905
0.113659
0.441063
0.847754
0.973222
0.990156
0.995376
0.996621
0.997658
0.995363
0.981065
0.941273
0.882503
0.782196
0.751543
0.82136
0.925568
0.978169
0.988732
0.98317
0.966959
0.970505
0.990379
0.999166
0.720296
0.0324744
0.0732246
0.116492
0.145776
0.174057
0.171991
0.131906
0.0883767
0.0608945
0.0636049
0.119081
0.247289
0.255989
0.308198
0.441725
0.582557
0.702699
0.809399
0.86627
0.817759
0.702218
0.594755
0.404888
0.249971
0.193068
0.138746
0.133121
0.0947016
0.862291
0.95244
0.634118
0.665633
0.617544
0.49165
0.396271
0.387183
0.393863
0.481206
0.593932
0.735971
0.79203
0.722253
0.62281
0.415076
0.029034
0.00279358
0.00066169
0.00276364
0.0328983
0.110675
0.183832
0.234784
0.219065
0.152461
0.0924669
0.0654391
0.0701348
0.0820254
0.881374
0.722499
0.189373
0.143019
0.118187
0.081438
0.121146
0.302969
0.705135
0.829784
0.973717
0.979281
0.916323
0.616202
0.314595
0.153548
0.138395
0.0183935
0.00266733
0.0157259
0.303571
0.498028
0.74457
0.830035
0.829381
0.658925
0.50391
0.507374
0.667188
0.853745
0.999969
0.930703
0.0210462
0.00953251
0.0356974
0.0690601
0.175095
0.307948
0.389685
0.296434
0.211812
0.133554
0.0895379
0.0569493
0.0699109
0.315179
0.456968
0.410927
0.119399
0.0378796
0.0124615
0.0031104
0.0051279
0.0064548
0.00621686
0.0424837
0.0867555
0.0212015
0.0490244
0.0433464
0.951762
0.965269
0.495637
0.85991
0.971665
0.979977
0.923822
0.467446
0.178565
0.0964296
0.209683
0.149864
0.078513
0.00637795
0.00225281
0.000659708
0.000564613
0.00146621
0.00235404
0.00524119
0.00604189
0.00817863
0.0297622
0.0477345
0.0250009
0.00257448
1.83909e-05
3.80128e-07
6.19932e-07
0.000607767
0.995827
0.911466
0.379045
0.73149
0.923816
0.890815
0.796479
0.782625
0.762848
0.642329
0.269435
0.0218528
0.0020066
0.000269637
9.54108e-06
7.85568e-06
4.07424e-07
6.92753e-06
0.000109672
0.000861032
0.00198366
0.00334902
0.00643113
0.00822365
0.00641485
0.00202649
0.000134251
2.01078e-05
0.000108519
0.00107083
0.433396
0.731501
0.122856
0.208893
0.330409
0.524057
0.696943
0.718493
0.675049
0.573368
0.451709
0.300223
0.127238
0.0485529
0.151047
0.438024
0.549572
0.607539
0.600862
0.673127
0.873471
0.931126
0.961963
0.982453
0.993194
0.997152
0.998716
0.999693
0.99999
0.999998
1
0.723173
0.179384
0.721578
0.825081
0.740343
0.643194
0.559257
0.586901
0.660566
0.724465
0.840371
0.895956
0.933407
0.919406
0.87169
0.761023
0.668961
0.595249
0.55168
0.668324
0.879888
0.997607
1
1
1
1
1
1
1
1
1
0.999949
0.999992
1
1
1
1
1
1
1
0.999998
0.999996
0.999998
0.999273
1
0.999937
0.845485
0.99987
0.999976
0.993486
0.502042
0.356905
0.481781
0.632322
0.638832
0.658633
0.637691
0.579773
0.594195
0.837979
0.997856
1
1
1
0.999994
0.999694
0.996429
0.986393
0.963993
0.952273
0.973506
0.990048
0.992763
0.987132
0.934828
0.82528
0.980027
0.998897
0.947909
0.877704
0.701312
0.7266
0.754634
0.80666
0.796724
0.763404
0.712348
0.577414
0.453414
0.420332
0.41087
0.48641
0.63282
0.720955
0.835449
0.93618
0.981719
0.941201
0.71095
0.589653
0.549672
0.553073
0.532829
0.532081
0.725258
0.996137
0.999999
0.999781
0.999431
0.994806
0.898461
0.854497
0.675464
0.486017
0.329806
0.141774
0.0133318
0.00220463
0.000959013
0.00770383
0.0199657
0.101826
0.132536
0.169628
0.187265
0.150127
0.08025
0.0704272
0.0337474
0.0278336
0.0183846
0.0153731
0.0132027
0.0150044
0.0306625
0.0823814
0.144178
0.156112
0.126308
0.166903
0.761339
0.513516
0.0672657
0.0210446
0.00594014
0.0010727
0.0074689
0.0302721
0.0928444
0.270179
0.578778
0.841699
0.913797
0.933799
0.929854
0.928918
0.91375
0.911857
0.87059
0.853201
0.817843
0.796432
0.852425
0.925728
0.972
0.987017
0.98493
0.965754
0.95216
0.957543
0.967578
0.897109
0.746053
0.463556
0.0133004
0.0144772
0.0444926
0.0880433
0.145198
0.192401
0.184722
0.13186
0.0846615
0.0554451
0.0587907
0.159834
0.234747
0.298685
0.390808
0.452964
0.620197
0.707778
0.786751
0.792837
0.750787
0.628799
0.49332
0.346931
0.259322
0.193709
0.173318
0.147038
0.0944476
0.33472
0.947717
0.907649
0.494538
0.540809
0.591256
0.573285
0.514769
0.485149
0.477351
0.474122
0.625721
0.773935
0.762043
0.742011
0.711352
0.578759
0.437191
0.14027
0.0080721
0.000468754
0.000410085
0.00407398
0.0330498
0.095479
0.160309
0.200413
0.200311
0.183132
0.172557
0.166323
0.141084
0.105363
0.373436
0.291579
0.00401073
0.00335253
0.0299413
0.073869
0.0549578
0.0865536
0.258314
0.526403
0.878021
0.975102
0.991119
0.940531
0.613091
0.323428
0.214056
0.181439
0.0101917
0.00334341
0.0553792
0.392443
0.651704
0.799221
0.77239
0.502791
0.141537
0.0172063
0.0113806
0.0217428
0.230211
0.591158
0.445815
0.771605
0.000281313
3.60633e-05
0.00538099
0.011098
0.0730925
0.220166
0.426395
0.49992
0.513681
0.338426
0.181637
0.104648
0.0521237
0.0791876
0.34394
0.444906
0.312785
0.104648
0.0180037
0.00196294
0.00263231
0.00420515
0.00229349
0.00938214
0.0255889
0.0496812
0.0161608
0.0195942
0.0225815
0.0871169
0.700516
0.847563
0.119684
0.3975
0.835164
0.969089
0.991011
0.98034
0.713382
0.176219
0.095553
0.200939
0.19424
0.0780997
0.00674188
0.00210254
0.000917559
0.00105771
0.00245133
0.00159772
0.00118492
0.000205592
0.00103901
0.00670387
0.00852669
0.000608643
3.07857e-05
6.75005e-07
1.04298e-07
1.2433e-06
0.00075061
0.537231
0.999511
0.922628
0.0567808
0.284449
0.797958
0.954925
0.922457
0.779367
0.773786
0.745158
0.576771
0.25646
0.0232102
0.00102406
0.000335041
6.35316e-06
5.38399e-06
9.24305e-08
1.04977e-06
1.72026e-05
0.000305282
0.00192989
0.00452324
0.00743675
0.00749027
0.00377237
0.000462275
1.79362e-05
4.18177e-06
4.69924e-05
0.000781466
0.0392759
0.715408
0.640284
0.03299
0.0796503
0.142673
0.326772
0.535742
0.812443
0.899269
0.816692
0.606995
0.520713
0.40999
0.252205
0.0466375
0.0204313
0.218921
0.545132
0.664061
0.707746
0.807657
0.853588
0.935471
0.974651
0.988122
0.994608
0.997993
0.999218
0.999752
0.999925
0.999954
0.87969
0.977038
0.663096
0.00485323
0.140657
0.784192
0.8062
0.738992
0.657619
0.61347
0.6385
0.768232
0.812239
0.937078
0.982325
0.997465
0.988216