/*--------------------------------*- C++ -*----------------------------------*\
| =========                 |                                                 |
| \\      /  F ield         | OpenFOAM: The Open Source CFD Toolbox           |
|  \\    /   O peration     | Version:  2.1.1                                 |
|   \\  /    A nd           | Web:      www.OpenFOAM.org                      |
|    \\/     M anipulation  |                                                 |
\*---------------------------------------------------------------------------*/
FoamFile
{
    version     2.0;
    format      ascii;
    class       volScalarField;
    location    "0.004300000";
    object      H;
}
// * * * * * * * * * * * * * * * * * * * * * * * * * * * * * * * * * * * * * //

dimensions      [0 0 0 0 0 0 0];

internalField   nonuniform List<scalar> 
12384
(
0.000545077
0.000540136
0.00051874
0.000519716
0.000503515
0.000508472
0.000480518
0.00048873
0.000468666
0.000496142
0.000545538
0.000490281
9.10701e-05
1.09541e-05
1.28416e-06
6.07376e-06
8.30377e-06
8.4581e-06
8.23725e-06
7.40058e-06
6.96112e-06
6.70049e-06
6.55523e-06
6.40509e-06
6.36429e-06
6.43953e-06
6.48156e-06
6.99401e-06
7.29628e-06
8.38613e-06
9.20519e-06
1.11923e-05
1.31389e-05
1.50654e-05
1.734e-05
2.01814e-05
2.40001e-05
3.23018e-05
2.30944e-05
8.74505e-06
3.00644e-06
1.39638e-06
2.2253e-06
1.80644e-05
3.64733e-05
5.85732e-05
6.276e-05
6.26303e-05
6.28777e-05
6.46221e-05
6.5347e-05
6.63168e-05
6.95026e-05
6.88267e-05
7.41931e-05
7.21226e-05
7.27162e-05
7.36623e-05
7.09873e-05
6.86158e-05
6.78313e-05
6.5369e-05
6.62453e-05
6.55174e-05
5.36404e-05
2.43138e-05
2.45348e-05
0.00013352
0.000194626
0.00020492
0.000175999
0.00011167
3.74833e-05
9.39815e-06
5.08152e-05
5.79966e-05
7.32177e-05
8.55113e-05
8.47662e-05
8.66961e-05
8.80496e-05
8.46374e-05
7.92345e-05
8.06964e-05
6.5847e-05
7.01494e-05
5.71494e-05
6.22594e-05
5.75133e-05
5.86191e-05
5.61536e-05
5.98309e-05
6.17782e-05
5.86162e-05
5.42048e-05
4.50661e-05
3.66536e-05
2.95628e-05
1.95776e-05
1.9239e-05
2.05231e-05
2.13157e-05
2.03771e-05
2.01278e-05
3.88771e-05
1.78416e-05
1.30957e-05
1.30167e-05
1.31045e-05
1.26234e-05
1.20545e-05
1.18574e-05
1.2194e-05
1.31222e-05
1.33766e-05
1.47647e-05
1.42452e-05
1.68909e-05
1.60331e-05
2.18844e-05
2.01092e-05
2.73172e-05
3.55832e-05
5.04295e-05
7.35926e-05
9.18194e-05
8.78777e-05
7.45739e-05
4.93682e-05
2.01511e-05
1.38629e-05
1.30514e-05
1.46338e-05
1.47137e-05
9.91607e-06
5.96967e-05
6.301e-05
6.38747e-05
6.06275e-05
5.45892e-05
4.55543e-05
4.16476e-05
4.03764e-05
4.24921e-05
4.41011e-05
4.76144e-05
4.99264e-05
5.27991e-05
5.46292e-05
5.61414e-05
5.58641e-05
5.63626e-05
5.45969e-05
5.37237e-05
5.21323e-05
5.15982e-05
5.05472e-05
5.05536e-05
5.05531e-05
5.06407e-05
5.0654e-05
5.21258e-05
4.17571e-05
8.91263e-06
3.63468e-05
3.24077e-05
2.59494e-05
3.46066e-05
5.86131e-05
5.88572e-05
5.87079e-05
5.607e-05
5.90793e-05
5.88521e-05
5.93323e-05
5.48906e-05
4.80208e-05
3.87591e-05
3.39072e-05
2.88251e-05
2.53048e-05
2.23083e-05
2.01613e-05
1.95452e-05
1.85083e-05
1.82641e-05
1.73733e-05
1.83531e-05
1.84055e-05
2.45626e-05
3.29676e-05
4.78469e-05
5.5946e-05
4.65317e-06
1.3603e-06
1.5075e-06
1.95993e-06
8.51462e-06
7.42109e-05
9.18067e-05
9.71576e-05
0.000113923
0.000118224
0.000124903
0.000132115
0.000139403
0.00014102
0.000139374
0.000140008
0.000139705
0.000138663
0.000141383
0.000136453
0.000136169
0.0001291
0.000127508
0.00011678
0.000108022
0.00010414
0.000103814
0.000112369
0.000128901
0.000155856
0.000156556
7.59073e-07
1.06922e-06
2.63223e-06
8.77666e-05
7.33238e-05
8.07008e-05
7.01784e-05
6.38941e-05
6.46767e-05
6.20447e-05
6.07352e-05
6.21252e-05
6.38319e-05
6.44867e-05
6.45115e-05
6.36883e-05
6.38454e-05
6.16667e-05
5.83137e-05
5.70683e-05
5.38185e-05
5.25158e-05
5.12415e-05
4.96642e-05
4.4474e-05
4.98576e-05
4.48349e-05
5.0712e-05
6.55737e-05
4.24894e-06
5.21668e-06
0.000136232
0.000171522
0.000135202
0.000118606
0.00010985
0.000109602
0.000119781
0.00013237
0.000148828
0.000154448
0.000159917
0.000156907
0.000147462
0.000135518
0.000125928
0.000114931
0.000105066
9.58428e-05
9.2262e-05
8.43624e-05
8.53568e-05
8.30152e-05
8.18839e-05
8.6834e-05
9.16002e-05
0.000106881
0.000120907
0.000124025
0.000131676
7.40409e-07
0.00010252
9.91856e-05
9.60832e-05
9.64228e-05
9.59207e-05
9.6376e-05
9.53805e-05
9.44925e-05
9.38683e-05
9.0102e-05
8.74728e-05
8.00463e-05
7.10043e-05
7.05426e-05
5.83958e-05
6.11752e-05
5.14382e-05
5.34075e-05
4.32253e-05
4.52353e-05
4.2799e-05
4.27884e-05
4.45094e-05
4.70457e-05
5.04395e-05
5.81548e-05
6.51301e-05
7.12816e-05
6.40009e-05
1.09011e-07
4.77832e-05
6.7888e-05
6.47116e-05
6.14308e-05
6.70732e-05
6.70631e-05
7.44048e-05
8.03711e-05
8.63722e-05
9.22834e-05
9.73995e-05
0.000101319
0.0001024
0.00010236
9.74786e-05
9.16814e-05
8.61407e-05
7.18432e-05
7.04419e-05
5.88043e-05
5.975e-05
5.53866e-05
5.84697e-05
6.02805e-05
6.73308e-05
1.12936e-05
1.13346e-07
9.59113e-08
2.152e-07
2.23465e-08
6.05736e-08
5.66195e-08
1.2625e-07
5.39459e-07
1.51384e-06
6.82336e-06
4.22896e-05
5.35931e-05
5.3373e-05
5.27178e-05
5.48309e-05
5.33505e-05
5.10944e-05
5.3962e-05
5.33697e-05
5.76378e-05
5.83046e-05
6.0367e-05
5.96578e-05
6.39938e-05
6.19474e-05
5.7848e-05
3.98538e-05
9.96172e-06
1.33146e-06
1.49755e-07
5.67494e-08
6.27487e-08
1.46406e-07
0.000419767
0.00040867
0.00038198
0.000383897
0.000377233
0.000399245
0.000402548
0.000419046
0.000408845
0.000405554
0.000457419
0.000491257
0.000176342
1.47707e-05
1.25274e-06
7.88002e-06
8.02126e-06
5.61286e-06
4.17519e-06
3.42304e-06
3.19025e-06
3.20621e-06
3.33023e-06
3.59801e-06
4.08464e-06
4.60925e-06
5.13595e-06
5.79543e-06
6.26463e-06
7.06449e-06
7.91693e-06
9.23001e-06
1.11536e-05
1.29909e-05
1.50089e-05
1.74644e-05
2.08862e-05
2.67941e-05
2.95237e-05
2.00753e-05
8.73709e-06
3.25629e-06
1.9876e-06
9.99789e-06
4.19262e-05
6.56594e-05
5.66639e-05
5.71037e-05
5.91707e-05
6.05954e-05
5.75418e-05
5.35002e-05
4.74219e-05
4.44075e-05
4.47935e-05
4.6373e-05
4.74373e-05
4.88037e-05
4.87141e-05
5.28645e-05
5.78016e-05
6.16618e-05
6.66672e-05
6.86456e-05
5.96051e-05
3.48834e-05
2.03605e-05
3.01023e-05
4.61121e-05
0.000103758
0.000199327
0.00021493
0.000102803
1.48903e-05
5.64731e-05
8.75413e-05
0.000101661
0.000102949
0.000102775
8.70597e-05
7.14696e-05
6.21301e-05
5.31042e-05
4.88817e-05
4.15572e-05
3.7714e-05
3.70319e-05
3.86465e-05
4.13372e-05
4.62753e-05
5.67389e-05
6.38382e-05
6.84411e-05
6.45729e-05
6.28313e-05
5.30462e-05
4.3126e-05
3.50446e-05
2.17686e-05
2.11545e-05
2.54698e-05
2.87624e-05
2.59571e-05
2.1893e-05
6.18884e-06
1.04213e-05
2.7564e-05
4.0553e-05
4.35894e-05
3.95186e-05
3.31737e-05
2.28842e-05
1.82365e-05
1.41082e-05
1.23987e-05
1.06563e-05
1.07292e-05
9.69576e-06
1.08995e-05
1.07529e-05
1.41401e-05
1.80715e-05
2.50302e-05
3.30647e-05
5.27061e-05
7.49713e-05
9.07358e-05
8.90695e-05
7.56787e-05
5.05365e-05
2.90807e-05
2.6227e-05
2.90131e-05
2.71128e-05
1.53175e-05
6.17988e-05
6.36545e-05
5.61255e-05
3.58033e-05
2.89355e-05
3.56245e-05
4.87475e-05
5.9451e-05
6.14735e-05
6.28928e-05
6.3729e-05
6.28882e-05
6.2088e-05
6.14973e-05
6.10705e-05
6.08903e-05
6.10233e-05
6.13962e-05
6.1443e-05
6.21268e-05
6.2686e-05
6.32465e-05
6.33315e-05
6.14586e-05
5.98837e-05
5.85124e-05
5.57889e-05
4.85084e-05
2.25494e-05
4.86706e-05
3.34548e-05
3.12784e-05
5.70273e-05
5.85625e-05
5.36426e-05
5.54204e-05
5.91999e-05
5.58615e-05
3.19514e-05
1.43108e-05
1.0118e-05
1.09566e-05
1.23479e-05
1.60143e-05
1.77579e-05
1.73637e-05
1.51567e-05
1.28265e-05
1.07517e-05
9.65972e-06
7.99464e-06
6.52712e-06
5.56058e-06
5.01082e-06
6.03073e-06
1.0961e-05
3.07721e-05
5.25114e-05
1.00682e-05
1.66509e-06
2.46203e-06
1.20208e-05
6.57149e-05
8.62126e-05
8.6875e-05
9.15656e-05
8.7806e-05
9.4599e-05
9.89817e-05
0.000103856
0.000109064
0.000108902
0.00010651
0.00010234
0.000102611
0.000105872
0.000110538
0.000115947
0.000118262
0.000118934
0.000107808
6.00683e-05
2.78914e-05
1.55858e-05
1.08197e-05
1.39106e-05
4.01446e-05
0.000127374
0.000156349
1.39914e-06
5.19553e-05
0.000100105
7.49299e-05
7.8796e-05
8.13923e-05
8.01601e-05
6.97195e-05
6.71791e-05
7.15911e-05
7.1429e-05
7.3742e-05
7.78106e-05
7.92829e-05
7.6542e-05
7.61471e-05
7.18093e-05
6.65653e-05
6.34741e-05
6.10693e-05
5.72185e-05
5.9561e-05
6.05551e-05
5.81224e-05
6.20329e-05
6.66936e-05
6.11867e-05
5.27736e-05
6.45357e-05
6.6853e-06
2.85706e-05
0.00014383
0.000120275
5.72281e-05
3.83716e-05
3.50076e-05
3.99817e-05
6.00543e-05
9.24926e-05
0.000122553
0.000127311
0.000118561
0.000103843
8.95371e-05
7.81066e-05
7.15037e-05
6.32658e-05
5.60887e-05
5.09028e-05
3.78749e-05
3.06071e-05
2.23037e-05
2.1968e-05
2.86675e-05
3.86854e-05
5.48757e-05
7.87297e-05
0.00010264
0.000123087
0.000129338
1.79878e-05
0.000107568
0.000109066
0.000105671
9.85663e-05
9.6355e-05
0.000101133
0.000102532
9.53401e-05
9.24474e-05
8.28935e-05
7.78846e-05
7.4821e-05
6.86904e-05
6.83233e-05
5.87945e-05
5.69942e-05
5.12799e-05
4.5091e-05
4.31046e-05
4.44664e-05
4.57429e-05
4.74831e-05
4.7917e-05
4.83429e-05
5.00175e-05
5.45432e-05
6.28514e-05
6.83406e-05
7.14721e-05
4.44487e-06
6.5723e-05
6.46442e-05
6.29497e-05
6.32981e-05
7.09933e-05
7.60554e-05
8.55794e-05
9.10012e-05
9.56995e-05
9.88119e-05
0.000100704
0.000100942
0.000101343
9.73391e-05
9.0339e-05
8.12641e-05
7.91098e-05
7.48248e-05
7.89175e-05
7.46114e-05
6.75493e-05
6.08055e-05
5.52596e-05
5.48602e-05
5.95805e-05
6.50586e-05
1.85501e-06
1.14539e-07
1.2486e-07
2.87906e-08
6.60695e-08
9.16952e-08
4.64577e-07
2.84581e-06
2.97087e-05
5.78411e-05
5.15273e-05
4.03538e-05
3.75637e-05
3.68834e-05
3.72614e-05
3.77119e-05
3.7737e-05
4.02122e-05
3.99829e-05
4.0635e-05
3.84035e-05
3.65429e-05
3.512e-05
3.55589e-05
4.0789e-05
5.24836e-05
6.02497e-05
6.77921e-05
6.51451e-05
1.02441e-05
4.28902e-07
7.23052e-08
1.21257e-07
0.000330564
0.000267478
0.000198792
0.000164211
0.00015868
0.000209185
0.000264575
0.000327349
0.00034602
0.000331449
0.000356748
0.000441095
0.000266571
2.25017e-05
1.59272e-06
8.97233e-06
4.54479e-06
3.16227e-06
2.92523e-06
2.91705e-06
3.1742e-06
3.77008e-06
4.79174e-06
6.46857e-06
8.27711e-06
1.0389e-05
1.26042e-05
1.42719e-05
1.76782e-05
2.21933e-05
2.54557e-05
2.87211e-05
2.96877e-05
2.83578e-05
2.48861e-05
2.10888e-05
1.91713e-05
2.27844e-05
2.91563e-05
2.94505e-05
1.91158e-05
7.16457e-06
2.64568e-06
6.77703e-06
4.57726e-05
6.04888e-05
5.16024e-05
5.52336e-05
5.82548e-05
5.31508e-05
3.52177e-05
2.37245e-05
1.76551e-05
1.57871e-05
1.48688e-05
1.60257e-05
1.75829e-05
1.93211e-05
2.16276e-05
2.42685e-05
2.89102e-05
3.79942e-05
4.96395e-05
5.53044e-05
6.14869e-05
4.8276e-05
2.6517e-05
1.94724e-05
1.66917e-05
2.33223e-05
7.29565e-05
0.000201
0.00019594
2.58356e-05
8.88582e-05
0.000105903
0.00010375
8.98352e-05
6.82313e-05
5.68425e-05
4.5473e-05
3.76075e-05
2.99673e-05
2.64965e-05
1.66178e-05
1.63673e-05
1.5471e-05
1.30016e-05
1.73134e-05
2.42199e-05
3.46363e-05
4.81878e-05
5.98065e-05
6.68376e-05
6.3595e-05
6.02444e-05
4.96308e-05
4.02553e-05
2.89318e-05
2.17278e-05
2.7017e-05
3.22057e-05
3.25042e-05
2.44097e-05
5.64647e-06
4.73332e-05
6.12844e-05
5.99536e-05
5.99496e-05
6.06722e-05
6.24018e-05
5.99006e-05
5.65484e-05
4.28312e-05
2.97907e-05
1.78241e-05
1.2529e-05
1.14803e-05
1.11295e-05
1.34841e-05
1.91406e-05
2.57908e-05
2.99689e-05
3.19183e-05
4.11545e-05
5.88371e-05
8.05613e-05
9.33519e-05
9.47688e-05
8.1459e-05
5.70416e-05
3.69505e-05
3.46661e-05
2.98844e-05
2.69627e-05
6.18952e-05
5.85897e-05
3.37599e-05
3.29139e-05
5.2097e-05
6.20646e-05
6.38521e-05
6.34186e-05
6.30632e-05
6.26041e-05
6.19943e-05
6.0948e-05
6.04833e-05
5.92995e-05
5.83364e-05
5.77371e-05
5.72626e-05
5.67042e-05
5.61568e-05
5.6133e-05
5.62347e-05
5.7121e-05
5.86972e-05
6.11694e-05
6.29166e-05
6.24178e-05
5.98222e-05
5.59496e-05
3.64269e-05
5.8248e-05
3.57718e-05
4.70561e-05
6.05425e-05
5.30395e-05
5.50555e-05
6.00937e-05
3.61332e-05
1.22944e-05
9.0966e-06
1.08788e-05
2.47661e-05
4.21574e-05
5.43481e-05
5.45761e-05
4.3306e-05
3.05061e-05
1.98311e-05
1.60022e-05
1.47582e-05
1.33264e-05
1.10724e-05
8.41184e-06
5.71507e-06
3.71382e-06
2.80673e-06
4.0282e-06
1.22637e-05
4.44845e-05
1.77285e-05
2.04101e-06
8.37851e-06
5.62633e-05
7.32675e-05
8.45666e-05
7.53387e-05
7.94223e-05
7.59062e-05
8.10661e-05
9.24529e-05
9.9503e-05
0.000104072
0.000103577
0.000102519
9.68455e-05
9.24137e-05
8.35997e-05
8.89421e-05
9.85221e-05
0.000107609
0.000114861
7.70554e-05
2.53857e-05
8.81427e-06
4.93304e-06
3.75958e-06
4.01801e-06
1.07144e-05
7.76479e-05
0.000160234
2.19269e-05
8.51176e-05
6.96125e-05
7.3923e-05
7.71962e-05
7.90653e-05
7.07434e-05
6.34602e-05
6.31516e-05
6.50531e-05
6.88853e-05
7.1125e-05
7.56854e-05
8.13623e-05
8.39147e-05
7.9954e-05
7.69989e-05
7.30256e-05
7.09159e-05
7.71147e-05
7.71726e-05
7.95387e-05
7.1652e-05
7.5815e-05
7.05468e-05
7.72473e-05
6.80357e-05
6.26768e-05
5.73696e-05
9.6992e-06
5.65848e-05
0.000127367
6.48463e-05
3.60026e-05
3.00146e-05
2.63938e-05
2.68464e-05
3.84296e-05
8.17063e-05
0.000108047
9.61659e-05
7.87142e-05
6.58679e-05
5.95405e-05
6.01044e-05
6.0724e-05
5.15548e-05
2.97477e-05
1.35508e-05
7.12031e-06
4.72852e-06
2.98283e-06
2.82343e-06
2.621e-06
3.73394e-06
7.96223e-06
3.28755e-05
7.75344e-05
0.000108257
0.000128465
6.70587e-05
0.000113396
0.000105623
5.60308e-05
4.09809e-05
5.59884e-05
8.71228e-05
9.88219e-05
8.94377e-05
8.29828e-05
7.71361e-05
8.02747e-05
8.2934e-05
8.25897e-05
7.69088e-05
7.05441e-05
6.57609e-05
5.93533e-05
5.42019e-05
5.11739e-05
4.92583e-05
5.07904e-05
5.19047e-05
5.35363e-05
5.46237e-05
5.30176e-05
5.16211e-05
5.75509e-05
6.57844e-05
7.11888e-05
4.52059e-05
6.70947e-05
6.29439e-05
6.4171e-05
6.93768e-05
7.68515e-05
8.24588e-05
8.72181e-05
8.82611e-05
9.02118e-05
9.04055e-05
9.23872e-05
9.52878e-05
9.85107e-05
9.56023e-05
7.79021e-05
4.19539e-05
2.53794e-05
2.60489e-05
4.47329e-05
6.94913e-05
7.6603e-05
6.62794e-05
5.72788e-05
5.32655e-05
5.61373e-05
6.96478e-05
1.73692e-05
2.4316e-07
8.09765e-08
3.8176e-08
7.29351e-08
2.38512e-07
2.98136e-06
4.7374e-05
5.98132e-05
4.9492e-05
4.2349e-05
4.21835e-05
4.40033e-05
4.24097e-05
4.69625e-05
4.96948e-05
5.23872e-05
5.18648e-05
5.22129e-05
5.18691e-05
4.63047e-05
3.933e-05
3.59843e-05
3.10503e-05
3.47475e-05
4.84923e-05
6.36891e-05
7.70935e-05
7.25005e-05
6.95903e-05
1.50453e-05
2.18344e-07
7.6064e-08
0.000191209
0.000106545
5.27794e-05
4.04499e-05
3.92282e-05
5.38165e-05
8.96241e-05
0.000178739
0.00025908
0.000276454
0.000287229
0.000391904
0.000321629
3.38077e-05
3.08171e-06
5.76816e-06
3.13097e-06
3.13279e-06
3.80772e-06
5.00241e-06
6.61784e-06
8.29095e-06
1.0098e-05
1.15893e-05
1.30407e-05
1.41938e-05
1.60439e-05
2.11432e-05
3.10994e-05
4.52192e-05
6.52263e-05
8.77691e-05
9.92767e-05
9.24169e-05
6.69631e-05
4.24085e-05
2.73643e-05
2.29032e-05
2.66131e-05
3.35287e-05
2.74926e-05
1.30902e-05
3.41336e-06
5.99378e-06
4.80527e-05
5.2344e-05
4.65126e-05
5.72662e-05
5.70469e-05
3.89879e-05
1.822e-05
1.02733e-05
8.34333e-06
8.20976e-06
9.72641e-06
1.11741e-05
1.20304e-05
1.39745e-05
1.48329e-05
1.56509e-05
1.67599e-05
2.06863e-05
2.69127e-05
4.19273e-05
5.38874e-05
5.03604e-05
3.43331e-05
2.13782e-05
1.51413e-05
1.38393e-05
2.78908e-05
0.000114469
0.00019245
4.07201e-05
0.000100701
0.000104277
9.27158e-05
7.12195e-05
6.41849e-05
5.67756e-05
4.47782e-05
3.48864e-05
2.46725e-05
1.61712e-05
1.19312e-05
1.05336e-05
8.58628e-06
8.55838e-06
9.64162e-06
1.17307e-05
1.92897e-05
3.12433e-05
4.74028e-05
6.00529e-05
6.44882e-05
6.0407e-05
5.47218e-05
4.48728e-05
3.43061e-05
2.63821e-05
2.73973e-05
3.2186e-05
3.61159e-05
3.06965e-05
1.32949e-05
5.92133e-05
5.92815e-05
5.88898e-05
5.91673e-05
5.99486e-05
6.10935e-05
6.26965e-05
5.95842e-05
4.69806e-05
2.79264e-05
1.29375e-05
1.06195e-05
1.06226e-05
1.47823e-05
2.47255e-05
3.63985e-05
4.797e-05
5.28261e-05
4.63104e-05
4.45038e-05
5.46345e-05
7.38496e-05
9.21205e-05
9.61889e-05
9.30164e-05
7.51851e-05
5.49995e-05
3.96859e-05
3.28463e-05
3.87878e-05
6.05261e-05
4.26355e-05
3.6734e-05
5.87775e-05
6.29264e-05
6.36532e-05
6.36802e-05
6.39113e-05
6.33441e-05
6.25431e-05
6.15086e-05
6.10482e-05
6.07323e-05
5.97154e-05
6.10022e-05
6.03173e-05
5.95446e-05
5.88301e-05
5.84589e-05
5.71754e-05
5.62653e-05
5.57671e-05
5.61991e-05
5.72324e-05
6.00231e-05
6.24754e-05
6.33862e-05
6.00762e-05
4.43805e-05
5.99863e-05
4.24256e-05
5.94472e-05
5.54459e-05
5.2511e-05
6.10511e-05
3.40921e-05
1.23253e-05
1.13764e-05
2.44575e-05
4.78966e-05
6.03671e-05
6.52072e-05
6.62358e-05
6.52677e-05
5.00038e-05
2.17742e-05
1.06112e-05
9.83186e-06
1.04588e-05
1.07662e-05
1.04297e-05
9.12798e-06
6.51301e-06
4.11541e-06
2.48387e-06
2.48742e-06
6.24165e-06
3.6973e-05
2.12992e-05
2.87042e-06
3.28528e-05
6.39908e-05
7.75123e-05
7.09971e-05
7.24547e-05
6.73898e-05
7.45655e-05
8.12234e-05
8.57181e-05
9.11376e-05
9.28672e-05
9.35307e-05
9.46678e-05
9.63705e-05
9.03676e-05
7.68179e-05
7.16116e-05
8.30593e-05
0.000101258
0.000103496
5.28929e-05
1.69326e-05
1.06404e-05
7.80542e-06
5.5877e-06
4.2293e-06
8.80113e-06
6.33876e-05
0.000156206
8.69755e-05
6.46082e-05
6.53315e-05
6.9576e-05
7.43102e-05
6.60895e-05
5.99132e-05
5.94095e-05
5.48328e-05
5.56367e-05
6.27498e-05
7.03607e-05
7.58833e-05
8.23127e-05
8.6327e-05
8.50007e-05
8.06476e-05
8.19604e-05
8.4986e-05
6.94027e-05
2.10565e-05
7.44319e-06
5.35451e-06
5.8692e-06
9.62811e-06
4.17563e-05
7.82144e-05
5.9377e-05
5.62361e-05
8.62262e-06
7.51598e-05
0.000107253
5.73552e-05
4.98068e-05
4.64683e-05
3.25117e-05
2.35024e-05
2.5743e-05
6.12801e-05
9.62535e-05
7.68992e-05
6.13933e-05
5.39243e-05
5.89652e-05
6.4083e-05
4.77501e-05
2.08677e-05
1.10749e-05
7.40288e-06
8.0038e-06
7.47182e-06
7.50571e-06
5.42771e-06
3.64949e-06
1.88833e-06
1.64574e-06
5.07191e-06
4.17716e-05
9.39902e-05
0.000126579
8.69516e-05
0.000117867
6.87957e-05
3.5836e-05
3.52691e-05
5.62139e-05
9.12683e-05
9.25693e-05
8.03852e-05
7.77408e-05
8.17031e-05
9.40164e-05
7.49574e-05
3.71463e-05
2.00898e-05
1.6181e-05
1.56295e-05
3.39134e-05
5.37393e-05
5.88708e-05
5.79309e-05
5.51613e-05
5.60786e-05
5.6992e-05
5.84111e-05
5.77224e-05
5.67273e-05
5.47155e-05
6.25339e-05
6.98284e-05
6.18528e-05
6.55262e-05
6.08726e-05
6.74695e-05
7.52537e-05
8.00041e-05
8.35188e-05
8.66102e-05
8.70352e-05
8.56253e-05
8.54983e-05
8.78639e-05
9.30175e-05
0.000100072
0.000100802
5.13839e-05
9.48917e-06
5.71433e-06
6.82141e-06
1.31721e-05
3.96631e-05
7.71927e-05
7.13962e-05
6.05487e-05
5.48986e-05
5.63491e-05
6.31439e-05
6.57568e-05
1.71581e-06
4.97493e-08
4.16876e-08
9.65833e-08
1.09575e-06
3.69893e-05
6.17855e-05
5.11992e-05
4.3362e-05
4.49795e-05
4.40142e-05
5.04916e-05
5.47256e-05
5.49929e-05
5.63946e-05
5.91603e-05
5.96374e-05
6.02218e-05
5.75735e-05
5.50339e-05
5.00676e-05
4.49583e-05
3.79499e-05
3.34178e-05
3.90936e-05
6.45232e-05
8.41653e-05
8.46912e-05
7.4818e-05
6.59118e-05
1.19706e-06
5.93704e-08
0.000115291
4.7714e-05
2.62103e-05
2.54925e-05
2.63123e-05
2.90006e-05
3.79129e-05
7.56751e-05
0.000153403
0.000210391
0.000229845
0.000340103
0.000348931
4.69693e-05
6.98832e-06
3.6647e-06
3.52143e-06
4.02341e-06
6.30669e-06
9.83489e-06
1.32434e-05
1.65817e-05
1.68595e-05
1.59937e-05
1.372e-05
1.16976e-05
1.09999e-05
1.55231e-05
2.72753e-05
5.56864e-05
0.00010054
0.000152598
0.000169388
0.00016215
0.000135303
8.45551e-05
4.2543e-05
2.75705e-05
2.56864e-05
3.39781e-05
3.33145e-05
1.85466e-05
5.30436e-06
5.66381e-06
4.48399e-05
4.83302e-05
4.46532e-05
5.97162e-05
5.45866e-05
2.98203e-05
1.23655e-05
8.19988e-06
8.23312e-06
1.04304e-05
1.40465e-05
1.95251e-05
2.39227e-05
2.68901e-05
2.59372e-05
2.14965e-05
1.76786e-05
1.65113e-05
2.06825e-05
2.88774e-05
3.96591e-05
4.75418e-05
3.98664e-05
2.63955e-05
1.84399e-05
1.33006e-05
1.55601e-05
5.48479e-05
0.000187207
5.34835e-05
0.000101736
9.88358e-05
8.40127e-05
7.24137e-05
6.85844e-05
6.0294e-05
4.54877e-05
2.79423e-05
1.66563e-05
1.17459e-05
9.57219e-06
1.06833e-05
7.67633e-06
9.42556e-06
8.2016e-06
1.13449e-05
1.45779e-05
2.44226e-05
3.96299e-05
5.41694e-05
6.40065e-05
6.10554e-05
5.66611e-05
4.82399e-05
3.7973e-05
3.25093e-05
3.11231e-05
3.34921e-05
3.61521e-05
3.47301e-05
3.23796e-05
5.99018e-05
5.96174e-05
6.02137e-05
6.18453e-05
6.15725e-05
6.00577e-05
5.77308e-05
4.17207e-05
1.96899e-05
1.01694e-05
8.72756e-06
1.45021e-05
3.00379e-05
5.44683e-05
7.33933e-05
8.37151e-05
8.99972e-05
7.92078e-05
6.7566e-05
5.69609e-05
5.82785e-05
7.16902e-05
9.31396e-05
0.000102325
0.000100092
8.87012e-05
6.33517e-05
4.51142e-05
3.22618e-05
4.54603e-05
5.84611e-05
3.99183e-05
5.51344e-05
6.20371e-05
6.28963e-05
6.15241e-05
6.15149e-05
6.23322e-05
6.35705e-05
6.23496e-05
6.13818e-05
6.12872e-05
6.4861e-05
6.66614e-05
6.9966e-05
6.99646e-05
6.77025e-05
6.9876e-05
6.55214e-05
6.50874e-05
6.54719e-05
6.22229e-05
5.92469e-05
5.66808e-05
5.80055e-05
6.23336e-05
6.64512e-05
6.46349e-05
5.03482e-05
6.15361e-05
5.22318e-05
6.062e-05
5.22369e-05
5.81656e-05
4.92179e-05
1.90432e-05
1.72967e-05
3.36779e-05
5.50067e-05
6.13073e-05
6.48231e-05
6.74716e-05
7.02051e-05
6.76592e-05
5.12687e-05
1.54562e-05
8.26279e-06
9.734e-06
1.448e-05
1.69849e-05
1.58723e-05
1.28486e-05
9.31496e-06
5.32021e-06
2.7525e-06
2.28136e-06
5.18162e-06
3.45745e-05
2.01205e-05
4.43041e-06
4.88805e-05
7.02259e-05
6.93285e-05
7.12579e-05
6.2824e-05
6.86109e-05
7.06724e-05
7.63205e-05
7.73095e-05
7.52278e-05
7.68408e-05
7.95216e-05
7.79191e-05
8.49493e-05
8.96595e-05
7.5808e-05
6.368e-05
7.1218e-05
9.40115e-05
9.52944e-05
4.48608e-05
4.00801e-05
5.67939e-05
5.44417e-05
2.75875e-05
1.5422e-05
2.00607e-05
8.67669e-05
0.00015915
8.34993e-05
6.1396e-05
5.98444e-05
6.74905e-05
6.23509e-05
5.90325e-05
5.90872e-05
5.05279e-05
4.74773e-05
5.09242e-05
5.41081e-05
6.43561e-05
7.43169e-05
8.15597e-05
8.89721e-05
8.66499e-05
8.5636e-05
8.63052e-05
5.39446e-05
6.95536e-06
2.12828e-06
1.37946e-06
1.46814e-06
1.07544e-06
1.23638e-06
3.04703e-06
4.22462e-05
6.41197e-05
4.33706e-05
1.62338e-05
8.27469e-05
9.9729e-05
7.94722e-05
0.000105371
9.33645e-05
5.158e-05
2.69785e-05
2.16492e-05
5.37109e-05
8.49275e-05
6.4877e-05
5.20066e-05
5.35574e-05
6.52889e-05
2.94644e-05
8.91545e-06
5.61365e-06
6.41972e-06
1.11853e-05
1.9439e-05
3.5067e-05
4.37293e-05
3.57975e-05
1.68716e-05
5.2833e-06
1.66107e-06
1.49762e-06
1.18291e-05
7.92514e-05
0.000121712
9.50727e-05
0.0001138
5.51762e-05
4.66084e-05
5.62784e-05
7.53991e-05
9.47211e-05
8.43655e-05
7.68507e-05
8.03756e-05
9.261e-05
4.83839e-05
1.64763e-05
8.00029e-06
5.13084e-06
3.08864e-06
3.2402e-06
3.01708e-06
9.02639e-06
2.98206e-05
5.71259e-05
6.03289e-05
5.82197e-05
5.85817e-05
5.83213e-05
5.40066e-05
5.32179e-05
5.72723e-05
5.87958e-05
6.71304e-05
6.56778e-05
6.50647e-05
6.41174e-05
7.06136e-05
7.99354e-05
8.60924e-05
9.01225e-05
9.08077e-05
8.85098e-05
8.52385e-05
8.14817e-05
8.32229e-05
9.05032e-05
9.7282e-05
9.89456e-05
3.82202e-05
4.86822e-06
3.68485e-06
4.45725e-06
8.82209e-06
2.72579e-05
7.30023e-05
7.40341e-05
6.11441e-05
5.52743e-05
5.23119e-05
5.55835e-05
7.06725e-05
1.17334e-05
6.25997e-08
4.28542e-08
1.80702e-07
6.22944e-06
6.69634e-05
5.52102e-05
4.50566e-05
4.70328e-05
4.67602e-05
5.41465e-05
6.02741e-05
6.64699e-05
7.11315e-05
7.43113e-05
7.60003e-05
7.28973e-05
6.73881e-05
5.9533e-05
5.72723e-05
5.21841e-05
4.83635e-05
4.4028e-05
3.70619e-05
3.58865e-05
6.40309e-05
8.38749e-05
8.61777e-05
8.55264e-05
7.487e-05
2.63691e-06
5.46351e-08
8.63011e-05
2.94211e-05
2.39755e-05
2.89302e-05
3.20426e-05
3.28289e-05
3.05465e-05
4.10822e-05
8.20596e-05
0.000142909
0.000180315
0.000298403
0.000365886
6.77229e-05
8.91023e-06
4.32591e-06
6.06885e-06
6.59564e-06
9.67784e-06
1.65311e-05
2.43739e-05
2.95634e-05
2.73664e-05
2.15522e-05
1.33621e-05
9.49583e-06
8.47812e-06
1.05589e-05
2.39981e-05
6.12658e-05
0.000124823
0.000159734
0.00016338
0.000159539
0.00014474
0.000104477
5.84841e-05
3.2153e-05
2.60696e-05
3.41311e-05
3.6768e-05
2.33394e-05
6.82526e-06
5.84135e-06
4.55946e-05
4.33836e-05
4.30131e-05
6.13836e-05
5.45909e-05
3.114e-05
1.66068e-05
1.42405e-05
1.79771e-05
3.12542e-05
4.71646e-05
6.21837e-05
7.02202e-05
7.47204e-05
7.2797e-05
6.2584e-05
4.15041e-05
2.02667e-05
1.78074e-05
2.14057e-05
3.3023e-05
3.98826e-05
3.57903e-05
2.95113e-05
2.08582e-05
1.33874e-05
1.1905e-05
3.8174e-05
0.000155894
5.94104e-05
0.000105148
9.87934e-05
8.42151e-05
7.73816e-05
7.39168e-05
6.21991e-05
3.56682e-05
1.85019e-05
1.11983e-05
1.00758e-05
1.23963e-05
1.52783e-05
1.42736e-05
1.44266e-05
1.16294e-05
1.44926e-05
1.73658e-05
2.43822e-05
4.02784e-05
5.26752e-05
6.3628e-05
6.04446e-05
5.72911e-05
5.02591e-05
4.01282e-05
3.57627e-05
3.53835e-05
3.65305e-05
3.82711e-05
3.55799e-05
4.39829e-05
6.08158e-05
6.02762e-05
6.07064e-05
5.39337e-05
4.02169e-05
2.91301e-05
1.63075e-05
8.64506e-06
6.52323e-06
1.19099e-05
2.98137e-05
6.40771e-05
9.72796e-05
0.000109593
0.0001134
0.000117028
0.000111593
9.9465e-05
8.42159e-05
6.90915e-05
6.41036e-05
7.72709e-05
9.81014e-05
0.000107816
0.00010385
9.33613e-05
7.1339e-05
4.6906e-05
3.20626e-05
4.98067e-05
5.34934e-05
4.80785e-05
6.07203e-05
6.26407e-05
6.12755e-05
6.0925e-05
6.17277e-05
6.29469e-05
6.2469e-05
6.18302e-05
6.08358e-05
6.66774e-05
7.05024e-05
7.50179e-05
7.53272e-05
7.74218e-05
7.81246e-05
7.41608e-05
7.26482e-05
7.2106e-05
7.04458e-05
7.04522e-05
6.72073e-05
6.2952e-05
6.24639e-05
6.48258e-05
7.00441e-05
6.86606e-05
5.62771e-05
6.17832e-05
5.88624e-05
5.69142e-05
5.28894e-05
6.14223e-05
3.85063e-05
2.67668e-05
3.81913e-05
5.57763e-05
6.0316e-05
6.16241e-05
6.57607e-05
6.88577e-05
7.15932e-05
7.12389e-05
5.11496e-05
1.20837e-05
7.48427e-06
1.41281e-05
3.4555e-05
4.46126e-05
4.37096e-05
3.49591e-05
1.88588e-05
7.7332e-06
3.45271e-06
2.81532e-06
6.76109e-06
3.55929e-05
1.75656e-05
6.46147e-06
5.71593e-05
6.62344e-05
6.87805e-05
6.10122e-05
6.48258e-05
6.34205e-05
7.05046e-05
6.60986e-05
6.70175e-05
6.41538e-05
5.91392e-05
6.21683e-05
6.78696e-05
7.17037e-05
7.54321e-05
7.08305e-05
5.61792e-05
5.91901e-05
8.11387e-05
7.97431e-05
7.40072e-05
0.000103205
0.000122928
0.00012419
0.000116563
9.7648e-05
9.88496e-05
0.00012684
0.000144498
7.07798e-05
5.07278e-05
5.52875e-05
6.23915e-05
5.84119e-05
6.08717e-05
5.29301e-05
4.99757e-05
4.7767e-05
4.4658e-05
4.87706e-05
5.81974e-05
7.23377e-05
8.0126e-05
8.86652e-05
8.75584e-05
8.52203e-05
8.44856e-05
1.19973e-05
2.21751e-06
1.4006e-06
1.51299e-06
2.12211e-06
2.50974e-06
1.44273e-06
1.11958e-06
5.76434e-06
6.1568e-05
4.41681e-05
1.73921e-05
8.36946e-05
0.000106575
0.000132401
0.000175637
0.000146401
8.06142e-05
3.32349e-05
2.1512e-05
4.64085e-05
7.9974e-05
5.60674e-05
4.89606e-05
6.24984e-05
2.26876e-05
4.06162e-06
1.96783e-06
2.7072e-06
6.82248e-06
2.02879e-05
5.29746e-05
8.53384e-05
8.11436e-05
6.97544e-05
4.12967e-05
1.18331e-05
2.14684e-06
9.20793e-07
4.31389e-06
6.90063e-05
0.000118005
9.69117e-05
0.000107544
6.52647e-05
7.3721e-05
7.33737e-05
8.52983e-05
9.24483e-05
7.88938e-05
7.41902e-05
8.89284e-05
7.04821e-05
1.65903e-05
1.03564e-05
5.54775e-06
4.06443e-06
2.63546e-06
1.93584e-06
2.05368e-06
2.77909e-06
9.76486e-06
3.50654e-05
5.82525e-05
6.08215e-05
5.99779e-05
5.53291e-05
3.3773e-05
2.58246e-05
4.95792e-05
5.59905e-05
6.50687e-05
6.77831e-05
6.25434e-05
6.80993e-05
7.7922e-05
8.58593e-05
9.53146e-05
0.000100108
9.93718e-05
9.46707e-05
8.87502e-05
8.19076e-05
7.84964e-05
8.44959e-05
9.22963e-05
9.65258e-05
7.56019e-05
1.24481e-05
6.18318e-06
9.37281e-06
1.5711e-05
4.28162e-05
7.63803e-05
7.02952e-05
5.85062e-05
5.47097e-05
5.34002e-05
4.79219e-05
6.0439e-05
6.27014e-05
8.05923e-08
5.75468e-08
2.72468e-07
3.53491e-05
6.21878e-05
4.92244e-05
4.68985e-05
4.93706e-05
5.49853e-05
6.46996e-05
7.57579e-05
8.71016e-05
9.80158e-05
0.000103168
0.000102509
9.57779e-05
8.65091e-05
7.41618e-05
6.04144e-05
5.54781e-05
5.2277e-05
4.75991e-05
3.90223e-05
3.53401e-05
6.53885e-05
7.74619e-05
7.74449e-05
8.93015e-05
7.82834e-05
5.20238e-06
6.87061e-08
6.99012e-05
2.55623e-05
2.70792e-05
4.30392e-05
5.56463e-05
5.56182e-05
3.72294e-05
3.48367e-05
4.69092e-05
8.48165e-05
0.000126947
0.000245345
0.000372105
9.49311e-05
9.6349e-06
8.80183e-06
1.60703e-05
1.14511e-05
1.26942e-05
2.18306e-05
3.13917e-05
3.54219e-05
3.43195e-05
2.39239e-05
1.39413e-05
8.03342e-06
6.04747e-06
8.43419e-06
2.34231e-05
7.38518e-05
0.000131925
0.000130285
0.000107654
9.62386e-05
9.751e-05
8.36362e-05
5.37624e-05
3.22675e-05
2.70813e-05
3.44061e-05
3.75679e-05
2.40612e-05
7.44624e-06
5.70902e-06
4.78589e-05
4.19346e-05
3.95077e-05
6.33052e-05
5.92394e-05
4.4735e-05
3.37297e-05
3.94276e-05
5.62536e-05
7.55215e-05
8.16396e-05
8.75599e-05
9.46515e-05
0.000104408
0.000108118
0.000107148
9.54654e-05
5.98986e-05
1.97119e-05
1.75492e-05
2.52997e-05
2.90419e-05
3.26808e-05
2.65453e-05
1.99095e-05
1.28417e-05
1.17309e-05
2.85208e-05
0.000144049
5.81508e-05
0.000106107
0.00010107
8.54704e-05
8.05483e-05
7.86745e-05
5.83882e-05
2.77923e-05
1.4801e-05
9.0412e-06
1.25207e-05
1.68429e-05
2.57995e-05
2.64205e-05
2.6397e-05
2.04632e-05
2.17014e-05
2.45653e-05
3.31357e-05
4.4e-05
5.57111e-05
6.03159e-05
5.87397e-05
5.78983e-05
5.04764e-05
4.0668e-05
3.71995e-05
3.77554e-05
3.95632e-05
4.05298e-05
3.60702e-05
4.93045e-05
6.02241e-05
6.09251e-05
5.05144e-05
1.9974e-05
9.46881e-06
5.93405e-06
4.93655e-06
6.05497e-06
1.56074e-05
5.1597e-05
9.72003e-05
0.000116539
0.000119767
0.000115875
0.000117206
0.00012269
0.000113632
0.000104071
9.11592e-05
7.6229e-05
7.52094e-05
8.80413e-05
0.000107589
0.000113319
0.00010724
9.32491e-05
7.02065e-05
4.48983e-05
2.98649e-05
5.06461e-05
5.30501e-05
5.79742e-05
6.2094e-05
6.15402e-05
6.09503e-05
6.19864e-05
6.28243e-05
6.24136e-05
6.21636e-05
6.12845e-05
6.72991e-05
7.18532e-05
7.69926e-05
8.2108e-05
8.28562e-05
8.36693e-05
8.8249e-05
8.45392e-05
7.94126e-05
7.91203e-05
7.54349e-05
7.39264e-05
7.42925e-05
7.05965e-05
6.90521e-05
7.03978e-05
7.4007e-05
7.30214e-05
5.96106e-05
6.14324e-05
6.16882e-05
5.40091e-05
5.5172e-05
5.91494e-05
4.49325e-05
4.55557e-05
5.63716e-05
5.95386e-05
5.9881e-05
6.33882e-05
6.70004e-05
6.95403e-05
7.27767e-05
7.39941e-05
5.49337e-05
1.13951e-05
6.12129e-06
1.66868e-05
4.78399e-05
5.70773e-05
5.78431e-05
5.44704e-05
3.36369e-05
1.11227e-05
5.50302e-06
5.17336e-06
1.27539e-05
3.75935e-05
1.37564e-05
8.54437e-06
5.73676e-05
6.67983e-05
6.70586e-05
6.16506e-05
5.76698e-05
6.46844e-05
6.32023e-05
6.70427e-05
5.74061e-05
5.9626e-05
5.82392e-05
5.55772e-05