/*--------------------------------*- C++ -*----------------------------------*\
| =========                 |                                                 |
| \\      /  F ield         | OpenFOAM: The Open Source CFD Toolbox           |
|  \\    /   O peration     | Version:  2.1.1                                 |
|   \\  /    A nd           | Web:      www.OpenFOAM.org                      |
|    \\/     M anipulation  |                                                 |
\*---------------------------------------------------------------------------*/
FoamFile
{
    version     2.0;
    format      ascii;
    class       volScalarField;
    location    "0.004300000";
    object      H2O;
}
// * * * * * * * * * * * * * * * * * * * * * * * * * * * * * * * * * * * * * //

dimensions      [0 0 0 0 0 0 0];

internalField   nonuniform List<scalar> 
12384
(
0.241864
0.242578
0.243258
0.243157
0.243599
0.242794
0.242609
0.241357
0.240922
0.239601
0.237621
0.229567
0.203805
0.217157
0.186156
0.197776
0.201388
0.203422
0.204442
0.2049
0.204973
0.204791
0.204606
0.204438
0.204579
0.204607
0.204699
0.204782
0.205107
0.204949
0.205151
0.205566
0.206137
0.206481
0.207094
0.207742
0.208672
0.211975
0.210544
0.193288
0.175675
0.169799
0.186176
0.224422
0.23428
0.245679
0.248737
0.249699
0.249662
0.249224
0.248649
0.247821
0.247137
0.24628
0.24553
0.244699
0.244026
0.24322
0.242153
0.241452
0.240818
0.240093
0.239318
0.237839
0.234529
0.223269
0.219939
0.238174
0.241827
0.242233
0.243032
0.240818
0.229241
0.208688
0.248527
0.249117
0.250572
0.251422
0.250812
0.250669
0.250643
0.251269
0.251015
0.251194
0.251685
0.251367
0.252076
0.252044
0.25207
0.252007
0.252053
0.251971
0.25248
0.25224
0.252118
0.250604
0.249236
0.246482
0.238018
0.236578
0.238209
0.238828
0.238772
0.238589
0.245425
0.236278
0.233958
0.234562
0.234596
0.233991
0.233443
0.233119
0.233248
0.234181
0.234329
0.235416
0.235026
0.237342
0.236456
0.240581
0.240668
0.23945
0.241998
0.243958
0.246968
0.249694
0.250713
0.249629
0.244878
0.231519
0.224895
0.225
0.227251
0.228737
0.229233
0.252068
0.25208
0.252186
0.252072
0.251315
0.249879
0.249267
0.249118
0.24946
0.249717
0.250321
0.25071
0.251183
0.251493
0.251729
0.25167
0.251718
0.251427
0.251219
0.251031
0.250924
0.250777
0.250797
0.250791
0.250801
0.25079
0.251037
0.249432
0.22733
0.248838
0.247162
0.24453
0.248439
0.25219
0.251936
0.251615
0.251662
0.251869
0.252088
0.252353
0.252234
0.251188
0.249752
0.248478
0.2463
0.244983
0.243477
0.242372
0.241232
0.240142
0.239734
0.238861
0.23959
0.239671
0.243626
0.247554
0.250489
0.251774
0.216939
0.193539
0.196533
0.202837
0.227137
0.251895
0.250999
0.251104
0.250903
0.250888
0.250807
0.250719
0.250606
0.250592
0.250589
0.250861
0.250608
0.250634
0.250833
0.250897
0.25071
0.250754
0.25096
0.250392
0.250015
0.249922
0.249294
0.2494
0.24941
0.250537
0.250121
0.16111
0.165798
0.187396
0.250097
0.248047
0.248821
0.249171
0.249421
0.249585
0.249676
0.249754
0.249734
0.249697
0.249634
0.24956
0.24947
0.249355
0.249262
0.249219
0.249178
0.249226
0.249255
0.249357
0.24951
0.24964
0.249542
0.24937
0.249243
0.25125
0.200878
0.189715
0.245811
0.247395
0.244718
0.243089
0.242738
0.242805
0.243992
0.245977
0.24744
0.248339
0.249094
0.249835
0.250186
0.250541
0.250929
0.251115
0.251314
0.251459
0.251521
0.251691
0.251662
0.251708
0.251711
0.251616
0.251537
0.251133
0.250783
0.250715
0.250876
0.185847
0.25082
0.250378
0.250523
0.250571
0.250582
0.250493
0.250352
0.25018
0.250033
0.249886
0.249784
0.249775
0.249786
0.249797
0.249844
0.249961
0.250007
0.250161
0.250214
0.250354
0.250396
0.25052
0.250569
0.250616
0.250642
0.250685
0.250956
0.251759
0.251892
0.167867
0.252389
0.249655
0.24911
0.248907
0.248822
0.24886
0.249099
0.249303
0.249531
0.249736
0.249954
0.250151
0.250261
0.250389
0.250462
0.250421
0.250337
0.250062
0.249792
0.249497
0.249138
0.248957
0.24892
0.248954
0.250491
0.229195
0.154434
0.151032
0.162322
0.153609
0.149468
0.143561
0.153894
0.176269
0.198198
0.226084
0.251183
0.252292
0.251319
0.250719
0.250279
0.249828
0.249562
0.249481
0.249562
0.249767
0.250138
0.250693
0.25126
0.2519
0.252117
0.252149
0.250775
0.228015
0.195826
0.161992
0.150521
0.1525
0.164174
0.246493
0.246214
0.246267
0.245819
0.245808
0.244939
0.244606
0.24306
0.241809
0.239204
0.238121
0.232105
0.21347
0.213438
0.186074
0.200863
0.204938
0.206152
0.205825
0.204838
0.203752
0.203072
0.202686
0.202677
0.203068
0.203778
0.204587
0.205317
0.206071
0.206427
0.20693
0.207357
0.207663
0.207829
0.207875
0.207774
0.207985
0.210482
0.211717
0.206725
0.193223
0.177301
0.178254
0.213156
0.238014
0.250086
0.25169
0.251695
0.250708
0.248536
0.246702
0.243749
0.240776
0.238591
0.237107
0.236265
0.236136
0.236295
0.237034
0.237601
0.238075
0.238601
0.238344
0.23811
0.236822
0.228968
0.219636
0.221952
0.225453
0.234454
0.240514
0.242307
0.238176
0.214924
0.248487
0.251098
0.250975
0.250477
0.250083
0.24831
0.246648
0.246084
0.245378
0.244536
0.244366
0.244831
0.245332
0.24768
0.248436
0.249443
0.250322
0.251247
0.251845
0.251758
0.252324
0.251759
0.25023
0.248931
0.242649
0.238865
0.242294
0.243438
0.242926
0.241455
0.222908
0.230867
0.245407
0.249662
0.2501
0.249432
0.247697
0.242944
0.239287
0.234991
0.233396
0.230473
0.230665
0.228514
0.230785
0.230799
0.234306
0.234004
0.237062
0.240507
0.245336
0.247899
0.249993
0.250538
0.24977
0.246371
0.236329
0.234663
0.237303
0.236983
0.236124
0.252135
0.252181
0.251633
0.248472
0.245324
0.248419
0.250429
0.252015
0.252091
0.25215
0.252177
0.252085
0.252007
0.25194
0.251887
0.25185
0.251834
0.251833
0.25187
0.251911
0.252001
0.252101
0.252177
0.25212
0.252066
0.252025
0.251623
0.250499
0.242548
0.250733
0.247756
0.246987
0.252124
0.251888
0.251416
0.251579
0.252087
0.252159
0.247756
0.2363
0.23087
0.23108
0.233451
0.236745
0.238553
0.238686
0.237152
0.234733
0.232556
0.229587
0.22633
0.223572
0.220328
0.218494
0.221756
0.231511
0.246394
0.251266
0.229666
0.196391
0.206844
0.233494
0.252237
0.251265
0.251196
0.251297
0.251398
0.251324
0.251241
0.251177
0.251357
0.251076
0.251257
0.251322
0.251274
0.251242
0.251164
0.251093
0.250995
0.251096
0.25043
0.242835
0.228873
0.216496
0.211074
0.212978
0.23045
0.248153
0.250028
0.173188
0.246864
0.250966
0.248777
0.248674
0.249532
0.24993
0.25034
0.250539
0.250625
0.250716
0.250743
0.250628
0.250488
0.250308
0.250013
0.249791
0.249634
0.249509
0.24951
0.249642
0.24984
0.250121
0.250483
0.250791
0.250883
0.250447
0.249546
0.25105
0.213778
0.220449
0.245897
0.243086
0.231674
0.225279
0.224477
0.228698
0.237462
0.245364
0.249659
0.250683
0.250935
0.250958
0.251088
0.251383
0.251801
0.252117
0.252295
0.252251
0.250154
0.247919
0.24394
0.243634
0.246749
0.249886
0.252136
0.252046
0.251325
0.250727
0.250769
0.236837
0.25078
0.250807
0.251163
0.250976
0.251148
0.251243
0.251035
0.250594
0.25009
0.249809
0.249615
0.249727
0.249942
0.250157
0.250393
0.250434
0.25041
0.250481
0.250557
0.250651
0.250789
0.250908
0.250991
0.251031
0.250965
0.250894
0.250965
0.251371
0.251995
0.219059
0.251341
0.249101
0.248818
0.248761
0.249145
0.249733
0.250192
0.25068
0.25095
0.251193
0.251219
0.251243
0.251254
0.251106
0.251011
0.250981
0.251186
0.251703
0.251681
0.251239
0.250218
0.249332
0.248866
0.248663
0.249477
0.252094
0.196265
0.152712
0.155088
0.152854
0.146639
0.14933
0.171761
0.205443
0.24831
0.251991
0.249791
0.247638
0.246429
0.245828
0.24546
0.245327
0.245364
0.24531
0.245182
0.245022
0.244832
0.244701
0.244984
0.24538
0.2466
0.247761
0.249059
0.249889
0.251895
0.229375
0.175889
0.154162
0.158882
0.245247
0.243935
0.241707
0.239104
0.23895
0.240131
0.242051
0.241928
0.240726
0.238219
0.237045
0.23364
0.22228
0.212864
0.187754
0.203863
0.205879
0.205382
0.204407
0.203152
0.201804
0.201242
0.201383
0.202263
0.20357
0.205278
0.207262
0.209568
0.211936
0.214046
0.216111
0.217295
0.217771
0.21683
0.214626
0.211747
0.209394
0.209332
0.211368
0.212215
0.206237
0.188544
0.177456
0.204197
0.241293
0.251149
0.25129
0.251447
0.248725
0.243116
0.235691
0.228435
0.223237
0.221728
0.220844
0.221818
0.222988
0.22466
0.226546
0.22869
0.231166
0.233665
0.235663
0.236907
0.236997
0.232929
0.224274
0.217289
0.21472
0.217756
0.229694
0.239369
0.241424
0.221849
0.251483
0.251211
0.250302
0.248259
0.245369
0.242639
0.240156
0.238062
0.235463
0.233915
0.232007
0.230326
0.230244
0.231535
0.234843
0.239876
0.245038
0.248461
0.250179
0.251464
0.251806
0.252204
0.251182
0.249697
0.246048
0.241808
0.243183
0.245234
0.245645
0.242529
0.22079
0.250732
0.252226
0.252031
0.251997
0.252065
0.252204
0.252151
0.25189
0.249674
0.245892
0.23845
0.233305
0.231957
0.231256
0.23314
0.236202
0.236841
0.238198
0.239677
0.242306
0.246459
0.248674
0.250415
0.250652
0.249552
0.246438
0.239898
0.23912
0.238315
0.244504
0.252153
0.252048
0.24759
0.247118
0.250945
0.252111
0.252181
0.252139
0.25208
0.252018
0.251946
0.251872
0.251774
0.251666
0.251572
0.2515
0.251437
0.251366
0.251317
0.251295
0.251327
0.251411
0.251571
0.251838
0.252062
0.252152
0.252069
0.251715
0.248653
0.252077
0.248769
0.250617
0.252047
0.251338
0.251536
0.252268
0.249155
0.234197
0.228816
0.232933
0.244287
0.249946
0.251587
0.251602
0.25023
0.247237
0.24169
0.237815
0.236454
0.234993
0.232115
0.227084
0.22088
0.214037
0.209237
0.214868
0.23339
0.250049
0.238766
0.202172
0.226793
0.252115
0.251566
0.251219
0.25143
0.251415
0.251385
0.25113
0.250779
0.250556
0.250498
0.250812
0.251026
0.251466
0.251715
0.251486
0.251435
0.251376
0.251208
0.251177
0.246645
0.226237
0.206135
0.195062
0.189417
0.189516
0.203184
0.24017
0.250351
0.231456
0.250393
0.248865
0.248781
0.249347
0.249834
0.250075
0.250373
0.250578
0.250764
0.250979
0.251171
0.251187
0.251054
0.250724
0.25039
0.250049
0.249974
0.250273
0.250729
0.251285
0.251696
0.251925
0.251883
0.251902
0.251697
0.251361
0.249971
0.250847
0.221059
0.23273
0.243927
0.234246
0.223719
0.221469
0.220686
0.222229
0.232509
0.246758
0.251113
0.250996
0.250615
0.25054
0.250848
0.251604
0.252469
0.252564
0.247954
0.236513
0.22592
0.21864
0.212478
0.210435
0.208919
0.215004
0.227008
0.249121
0.251959
0.251033
0.250744
0.250376
0.250884
0.250712
0.245325
0.241295
0.246496
0.250832
0.251253
0.250531
0.249827
0.24965
0.250068
0.250812
0.251386
0.251774
0.251954
0.251976
0.251948
0.251575
0.251345
0.251209
0.251252
0.2514
0.251559
0.251665
0.251631
0.25152
0.251289
0.251311
0.251858
0.251966
0.249951
0.248778
0.248827
0.249272
0.249894
0.250474
0.250862
0.251201
0.251369
0.251453
0.251462
0.2514
0.251323
0.251114
0.249695
0.243565
0.237642
0.237565
0.247696
0.251676
0.251425
0.250179
0.249089
0.248477
0.248755
0.250965
0.236834
0.161916
0.148158
0.150856
0.146905
0.162985
0.204963
0.251237
0.251173
0.248462
0.246641
0.246013
0.246087
0.246353
0.246587
0.246715
0.24669
0.246627
0.24647
0.246176
0.245726
0.245185
0.24458
0.244313
0.245051
0.247046
0.24897
0.250013
0.250063
0.251346
0.23761
0.166276
0.152357
0.24024
0.234487
0.226587
0.222404
0.222427
0.22523
0.231841
0.237304
0.238731
0.236097
0.234292
0.234606
0.227036
0.213402
0.192847
0.20586
0.206839
0.206889
0.206977
0.207199
0.207716
0.207894
0.208002
0.208178
0.208447
0.208879
0.210252
0.212899
0.216756
0.22179
0.226477
0.229661
0.231131
0.230478
0.227034
0.220895
0.214121
0.209995
0.210559
0.213141
0.211883
0.197916
0.180816
0.199155
0.243036
0.250298
0.250104
0.250926
0.246932
0.238004
0.226822
0.218344
0.215556
0.214976
0.21733
0.219167
0.221701
0.223452
0.224625
0.22547
0.226393
0.228438
0.231856
0.234237
0.235284
0.234654
0.228823
0.220423
0.21401
0.211984
0.218008
0.233832
0.239528
0.227423
0.251345
0.2507
0.248804
0.245969
0.244337
0.242869
0.241501
0.238201
0.234001
0.229193
0.226678
0.223592
0.223668
0.223489
0.225017
0.228483
0.235294
0.243131
0.248349
0.25043
0.251735
0.251973
0.251899
0.250346
0.248677
0.244756
0.244466
0.24636
0.248256
0.244933
0.234776
0.252191
0.25195
0.251868
0.251871
0.25192
0.252028
0.252229
0.252106
0.250327
0.24502
0.233684
0.230533
0.230382
0.233651
0.23778
0.241333
0.243095
0.243236
0.24248
0.242061
0.245258
0.247671
0.249595
0.250238
0.250623
0.248959
0.245567
0.240071
0.237809
0.248982
0.252098
0.24956
0.248643
0.252077
0.252186
0.252177
0.252188
0.252186
0.252154
0.252071
0.251965
0.251873
0.251785
0.251719
0.251663
0.25165
0.251628
0.251581
0.251491
0.251394
0.251311
0.251282
0.251325
0.251436
0.251689
0.252002
0.252205
0.252011
0.249822
0.252156
0.249881
0.252161
0.251499
0.25132
0.252223
0.248848
0.234114
0.233358
0.244376
0.251237
0.252184
0.252057
0.251991
0.252247
0.251503
0.243169
0.232553
0.229998
0.231114
0.231602
0.230912
0.228381
0.223412
0.215373
0.207297
0.20724
0.222646
0.248867
0.242122
0.208725
0.247696
0.252047
0.251315
0.251395
0.251406
0.251281
0.25068
0.250093
0.249726
0.249526
0.249521
0.249717
0.250176
0.250915
0.251555
0.251518
0.251352
0.251483
0.251313
0.250803
0.241134
0.219125
0.209659
0.204407
0.195611
0.190275
0.199763
0.236656
0.250314
0.251612
0.248807
0.248584
0.249087
0.249558
0.249709
0.249745
0.249854
0.250109
0.250454
0.250864
0.251256
0.251463
0.251417
0.251152
0.25071
0.250457
0.25075
0.251599
0.250669
0.23382
0.214293
0.207116
0.209506
0.222084
0.248564
0.251806
0.250432
0.250725
0.226311
0.237219
0.241706
0.231806
0.230438
0.230576
0.225217
0.220872
0.225193
0.245802
0.251352
0.250742
0.250193
0.250186
0.251091
0.252111
0.250611
0.239278
0.227529
0.222106
0.220642
0.220866
0.220752
0.2176
0.211677
0.204135
0.202812
0.219726
0.250183
0.251471
0.250738
0.251093
0.250883
0.245971
0.237216
0.238905
0.246635
0.251247
0.250886
0.249966
0.249539
0.25017
0.25132
0.251169
0.244965
0.235522
0.235146
0.236773
0.249152
0.25195
0.252236
0.251919
0.251649
0.25169
0.251941
0.252125
0.252219
0.252154
0.25192
0.25148
0.251835
0.252026
0.249211
0.248703
0.249057
0.249689
0.250219
0.250623
0.25095
0.251235
0.251484
0.251569
0.251524
0.251374
0.251211
0.25128
0.245835
0.215781
0.207453
0.210899
0.224713
0.246016
0.25226
0.250743
0.249266
0.248209
0.248258
0.249792
0.252374
0.193833
0.14403
0.14957
0.150496
0.185245
0.249441
0.25116
0.248397
0.246481
0.246093
0.246389
0.246826
0.247237
0.24751
0.247601
0.247578
0.247449
0.247238
0.247
0.246724
0.246298
0.245586
0.244816
0.24453
0.246343
0.249386
0.251163
0.251101
0.250664
0.252081
0.188885
0.146715
0.235029
0.223826
0.217623
0.216754
0.217752
0.218466
0.221331
0.22833
0.234688
0.233702
0.231763
0.233915
0.229713
0.216247
0.198823
0.206881
0.210348
0.212797
0.215603
0.218687
0.221655
0.222736
0.222022
0.21943
0.215883
0.212664
0.210891
0.212219
0.217753
0.225394
0.232009
0.235353
0.235968
0.235705
0.23413
0.228887
0.220271
0.212026
0.210369
0.21283
0.213991
0.204143
0.184495
0.197062
0.243098
0.249177
0.249301
0.250294
0.24619
0.235871
0.224546
0.217501
0.217689
0.220703
0.225678
0.230226
0.233715
0.235049
0.234475
0.23204
0.227976
0.226756
0.22848
0.231841
0.234234
0.233629
0.230439
0.223733
0.216415
0.211871
0.21241
0.226338
0.238856
0.22905
0.251326
0.250406
0.24797
0.245889
0.245431
0.24547
0.242814
0.237207
0.230114
0.225895
0.223764
0.223741
0.222039
0.222686
0.222797
0.2266
0.232004
0.239149
0.246891
0.249829
0.251776
0.25197
0.252094
0.250799
0.249191
0.247499
0.246809
0.247902
0.248833
0.247022
0.247559
0.252209
0.251969
0.25201
0.252166
0.252203
0.252146
0.252058
0.249537
0.240552
0.229771
0.227
0.231462
0.239872
0.245109
0.246219
0.246821
0.246282
0.246031
0.245081
0.243996
0.244712
0.246871
0.248904
0.2499
0.250103
0.249982
0.247039
0.241454
0.237807
0.250121
0.252053
0.249242
0.251606
0.252183
0.252192
0.252156
0.252149
0.25218
0.252183
0.252064
0.251939
0.251865
0.251771
0.2518
0.251773
0.251815
0.251894
0.251847
0.251892
0.251832
0.251694
0.251517
0.2514
0.251391
0.251495
0.251815
0.252076
0.251982
0.250477
0.252214
0.251433
0.252053
0.251245
0.251857
0.251134
0.240743
0.239046
0.248912
0.252168
0.252183
0.251704
0.251283
0.251274
0.251884
0.251658
0.237327
0.22711
0.229738
0.236158
0.238483
0.23739
0.2343
0.228734
0.219518
0.209038
0.205986
0.218911
0.248556
0.241223
0.216128
0.250914
0.251747
0.251369
0.251351
0.251287
0.250618
0.249823
0.249348
0.249058
0.248994
0.249061
0.249264
0.249632
0.250301
0.251266
0.251824
0.251476
0.251445
0.251313
0.250396
0.239786
0.23673
0.243126
0.241833
0.22815
0.213223
0.215903
0.242956
0.250396
0.250976
0.248321
0.248686
0.249303
0.2495
0.249391
0.249318
0.249372
0.249484
0.249744
0.250368
0.251169
0.251724
0.251674
0.251564
0.251005
0.25078
0.251626
0.24821
0.209016
0.187632
0.180194
0.180671
0.180044
0.183408
0.196916
0.248681
0.250704
0.250473
0.237808
0.238843
0.241071
0.237859
0.24261
0.242311
0.233034
0.222456
0.222111
0.244982
0.251649
0.250359
0.249942
0.250525
0.252081
0.243614
0.218656
0.208727
0.210648
0.219798
0.232364
0.241244
0.245364
0.243557
0.235054
0.216739
0.200466
0.200868
0.234461
0.251827
0.250794
0.251048
0.250441
0.242225
0.240527
0.245565
0.249525
0.251343
0.250352
0.249631
0.249897
0.251335
0.246692
0.22802
0.215462
0.210991
0.206713
0.208815
0.210752
0.228538
0.24627
0.252185
0.252091
0.251951
0.252097
0.25226
0.252186
0.252207
0.252373
0.251889
0.251891
0.251376
0.248883
0.248799
0.24943
0.250026
0.25044
0.2507
0.250899
0.251154
0.251426
0.251654
0.251635
0.251404
0.251087
0.251299
0.241547
0.204073
0.198274
0.20351
0.216242
0.240006
0.25189
0.25103
0.249368
0.248133
0.247897
0.248757
0.250969
0.23207
0.142985
0.1493
0.156293
0.216865
0.25185
0.248978
0.246777
0.246088
0.246485
0.24716
0.247774
0.248284
0.248604
0.248781
0.248712
0.248429
0.247994
0.247541
0.247132
0.246797
0.246343
0.245559
0.244868
0.245474
0.249537
0.251641
0.25165
0.251072
0.251752
0.204368
0.145285
0.231261
0.218614
0.216326
0.218531
0.220146
0.219208
0.218631
0.220424
0.2273
0.229495
0.228454
0.233027
0.231772
0.219326
0.203304
0.210664
0.218419
0.221039
0.224883
0.229807
0.233789
0.235158
0.233245
0.228218
0.221095
0.2139
0.20904
0.209575
0.216863
0.227233
0.23349
0.235066
0.234638
0.234096
0.233011
0.230855
0.223286
0.213772
0.210184
0.212439
0.214916
0.207215
0.187377
0.195573
0.241864
0.24758
0.248495
0.249866
0.246674
0.238947
0.230762
0.227821
0.232878
0.241059
0.246661
0.247627
0.247822
0.247591
0.24699
0.246086
0.241492
0.231109
0.226316
0.228998
0.231829
0.232036
0.230181
0.224835
0.218376
0.212485
0.210446
0.221501
0.237278
0.229953
0.251235
0.250204
0.247546
0.246355
0.246516
0.246033
0.242053
0.23324
0.225752
0.22449
0.22622
0.229553
0.229213
0.22723
0.226333
0.228888
0.23319
0.239337
0.246905
0.249834
0.25203
0.252031
0.252099
0.251061
0.249478
0.248779
0.248732
0.248888
0.249162
0.248384
0.250201
0.252248
0.252043
0.252209
0.251592
0.249397
0.245721
0.237305
0.227062
0.221466
0.226825
0.237807
0.245668
0.247918
0.248219
0.24828
0.247983
0.247549
0.246849
0.245679
0.244833
0.245077
0.246596
0.248668
0.249673
0.250037
0.250479
0.24801
0.242161
0.237459
0.250796
0.251411
0.250544
0.25215
0.252195
0.252148
0.252133
0.252173
0.252208
0.252148
0.252023
0.251907
0.2518
0.251808
0.251786
0.251833
0.251808
0.251797
0.251885
0.251885
0.251867
0.251863
0.251758
0.25164
0.251499
0.251476
0.251662
0.251907
0.251912
0.250975
0.252257
0.252153
0.25163
0.251299
0.252226
0.249447
0.245318
0.2495
0.252183
0.252155
0.251627
0.251049
0.250732
0.250812
0.251657
0.251593
0.233958
0.225566
0.235807
0.248826
0.250322
0.250185
0.248781
0.240223
0.225665
0.213141
0.209433
0.223758
0.248744
0.23874
0.223265
0.252106
0.251688
0.251329
0.251335
0.250905
0.250064
0.249294
0.248919
0.248754
0.24872
0.248864
0.249111
0.249439
0.250002
0.251113
0.252104
0.251418
0.251651
0.251306
0.249219
0.247529
0.250453
0.250837
0.250805
0.249433
0.246788
0.245285
0.248993
0.250287
0.250501
0.24825
0.24883
0.249295
0.249306
0.249187
0.249189
0.249159
0.249116
0.249183
0.24965
0.250736
0.251755
0.251792
0.251586
0.25103
0.251057
0.251691
0.222192
0.187797
0.179525
0.183081
0.192209
0.193833
0.183963
0.180818
0.210724
0.251618
0.250246
0.2396
0.239767
0.242016
0.244774
0.248155
0.247608
0.240832
0.227695
0.223479
0.243772
0.251448
0.250149
0.250076
0.251716
0.241758
0.203801
0.191477
0.194381
0.207849
0.227366
0.245599
0.24905
0.251333
0.250959
0.248488
0.232097
0.205098
0.19354
0.217109
0.251854
0.250846
0.250946
0.24977
0.244058
0.245946
0.24787
0.250862
0.251224
0.250005
0.249553
0.250752
0.250198
0.226721
0.219681
0.212191
0.209131
0.203438
0.200638
0.204773
0.208905
0.229546
0.248632
0.252182
0.252152
0.252235
0.252172
0.248954
0.245333
0.251704
0.252142
0.251936
0.250904
0.248802
0.248995
0.24976
0.250356
0.250631
0.250814
0.250881
0.250969
0.251322
0.251626
0.251805
0.251531
0.251004
0.251163
0.250136
0.222867
0.208904
0.21625
0.226666
0.246698
0.25186
0.250709
0.249157
0.247985
0.24738
0.247534
0.249234
0.25224
0.146615
0.149346
0.164623
0.248278
0.250329
0.247404
0.246096
0.246264
0.247182
0.248043
0.248929
0.249589
0.250017
0.250183
0.250064
0.249676
0.249084
0.248352
0.247644
0.2471
0.246702
0.246083
0.245274
0.245414
0.249612
0.251944
0.251615
0.251546
0.251703
0.214525
0.145889
0.228467
0.215486
0.216803
0.222061
0.225183
0.223692
0.21945
0.216188
0.218992
0.221532
0.223088
0.23113
0.233346
0.223474
0.205249
0.216757
0.227418
0.229282
0.232363
0.236302
0.239592
0.240312
0.237757
0.23181
0.222724
0.212598
0.206081
0.206613
0.216455
0.228257
0.23267
0.231528
0.227964
0.226233
0.227366
0.226798
0.221615
0.213226
0.210284
0.212467
0.215248
0.209382
0.189889
0.194634
0.240528
0.242981
0.24788
0.249528
0.247565
0.245056
0.242879
0.245446
0.248852
0.251196
0.251133
0.250904
0.250377
0.249828
0.249045
0.248751
0.248454
0.246146
0.230159
0.225387
0.227567
0.229574
0.227415
0.22361
0.218474
0.212464
0.209313
0.218971
0.236853
0.229504
0.251552
0.250381
0.247809
0.246938
0.246923
0.246605
0.240771
0.231069
0.224308
0.226912
0.23298
0.237266
0.239198
0.237146
0.235007
0.235554
0.239316
0.244218
0.248695
0.250893
0.251994
0.252111
0.252091
0.251041
0.249508
0.248982
0.249064
0.249358
0.24956
0.248784
0.251089
0.252119
0.252176
0.251137
0.241137
0.228715
0.220345
0.214581
0.215391
0.226761
0.24326
0.248003
0.24957
0.249032
0.24842
0.248237
0.247801
0.247727
0.247009
0.245764
0.245229
0.245495
0.246929
0.248987
0.249551
0.249898
0.250549
0.248232
0.241645
0.237366
0.250992
0.251389
0.252086
0.252202
0.252187
0.252169
0.252202
0.252185
0.25215
0.252107
0.252015
0.251812
0.251784
0.251797
0.251754
0.251741
0.251702
0.251589
0.25166
0.251737
0.251744
0.251789
0.251808
0.251734
0.251634
0.251524
0.251626
0.251827
0.251837
0.251183
0.252165
0.252253
0.251348
0.251485
0.252193
0.250383
0.250566
0.252191
0.252186
0.251755
0.251247
0.25088
0.250725
0.250823
0.251482
0.252153
0.233222
0.223013
0.238325
0.250871
0.252147
0.252162
0.251814
0.248105
0.232584
0.220226
0.219069
0.234123
0.249105
0.234998
0.227054
0.252109
0.251658
0.251302
0.251243
0.250686
0.249692
0.248995
0.24869
0.248562
0.248526
0.248652
0.248971
0.24937
0.24982
0.250824
0.252293
0.251283
0.251163
0.25127
0.250572
0.251053
0.251007
0.250983
0.250762
0.250449
0.249966
0.250137
0.250523
0.250897
0.250172
0.248076
0.248952
0.249312
0.249206
0.249172
0.249194
0.249179
0.249047
0.248924
0.249075
0.250244
0.251871
0.251932
0.251592
0.250944
0.251141
0.250062
0.207105
0.18738
0.187726
0.20015
0.213201
0.215702
0.202851
0.181451
0.194649
0.252151
0.250205
0.24993
0.240893
0.244326
0.248268
0.248918
0.249355
0.245859
0.232678
0.22405
0.244047
0.251453
0.250123
0.250575
0.25215
0.209907
0.186317
0.183116
0.191576
0.206022
0.222672
0.241935
0.248849
0.25207
0.250909
0.246021
0.225636
0.20052
0.187055
0.20638
0.252529
0.250927
0.250911
0.249337
0.2461
0.249212
0.249774
0.251025
0.25107
0.249862
0.24984
0.251401
0.243857
0.225869
0.221936
0.213965
0.208308
0.199237
0.199701
0.199299
0.204401
0.215535
0.23928
0.251378
0.252217
0.252217
0.250702
0.236186
0.226409
0.245912
0.252365
0.251997
0.250625
0.248772
0.249287
0.250203
0.250653
0.25087
0.250893
0.250862
0.250934
0.251026
0.251461
0.25182
0.251776
0.251298
0.250769
0.251342
0.249798
0.239164
0.238893
0.247356
0.251479
0.251657
0.250335
0.248862
0.247755
0.24684
0.246331
0.247598
0.251596
0.153632
0.150209
0.175881
0.252151
0.248946
0.246519
0.245974
0.246678
0.247897
0.248976
0.250105
0.250719
0.250863
0.250856
0.250793
0.250557
0.250117
0.249334
0.248321
0.247512
0.24698
0.246419
0.245483
0.245369
0.249683
0.251682
0.251729
0.251776
0.251905
0.198829
0.145137
0.226406
0.21296
0.217872
0.225943
0.231881
0.232785
0.225704
0.219253
0.217574
0.21735
0.218649
0.228063
0.234181
0.226529
0.206512
0.224596
0.236954
0.237478
0.237979
0.240201
0.241719
0.241568
0.239264
0.233505
0.223474
0.21156
0.2029
0.202974
0.21495
0.22916
0.231894
0.227035
0.218506
0.21436
0.216299
0.218008
0.215061
0.210957
0.209552
0.213363
0.216085
0.209506
0.191166
0.19394
0.240556
0.239113
0.245391
0.249214
0.248746
0.248543
0.249397
0.251238
0.251521
0.251722
0.251686
0.25145
0.250839
0.250099
0.24946
0.249289
0.24943
0.249879
0.245932
0.228978
0.224788
0.224882
0.223731
0.22096
0.216616
0.211136
0.20844
0.218084
0.236164
0.230771
0.251285
0.250317
0.248446
0.247234
0.2473
0.247086
0.241554
0.23197
0.225686
0.229308
0.237681
0.242013
0.246065
0.245195
0.244806
0.245076
0.247522
0.249001
0.250633
0.251932
0.252063
0.252112
0.252072
0.250589
0.249198
0.248875
0.249241
0.249715
0.249671
0.248442
0.25215
0.251969
0.252197
0.244313
0.222762
0.211602
0.208155
0.210164
0.22398
0.24308
0.248103
0.249465
0.249283
0.248958
0.2483
0.248002
0.248046
0.247649
0.246731
0.246187
0.245976
0.246718
0.248234
0.249369
0.249717
0.25007
0.250258
0.24718
0.238216
0.236883
0.25119
0.252
0.252165
0.252231
0.252216
0.252166
0.25205
0.252041
0.252085
0.25208
0.251975
0.251782
0.251721
0.25177
0.25172
0.251578
0.251446
0.251442
0.251396
0.251458
0.251609
0.251684
0.251706
0.251721
0.251696
0.251599
0.251646
0.251777
0.251762
0.251338
0.252109
0.252031
0.25121
0.251632
0.252212
0.252122
0.252197
0.252136
0.251838
0.251422
0.251214
0.251146
0.251128
0.251088
0.251351
0.252245
0.237395
0.217333
0.225878
0.248726
0.252114
0.252154
0.252128
0.250041
0.242541
0.23438
0.235529
0.24481
0.248687
0.22676
0.226007
0.252087
0.251719
0.251318
0.251208
0.250652
0.24967
0.248908
0.24863
0.248459
0.248382
0.248542
0.248907
0.249364
0.24986
0.250711
0.252203
0.250694
0.251447
0.25126
0.250961
0.251021
0.25104
0.250903
0.248845
0.248136
0.249714
0.250646
0.251036
0.251077
0.249703
0.248215
0.249013
0.249227
0.24917
0.249182
0.249257
0.249283
0.249165
0.24888
0.248762
0.24981
0.251876
0.2517
0.251549
0.250632
0.251311
0.246833
0.206602
0.195426
0.201827
0.216394
0.226474
0.223075
0.212726
0.188493
0.182284
0.252163
0.250332
0.250604
0.241868
0.247171
0.248622
0.24906
0.24901
0.248393
0.239736
0.22545
0.239875
0.251543
0.250201
0.250803
0.249336
0.198489
0.183407
0.185628
0.196067
0.206698
0.215345
0.229812
0.24436
0.25004
0.247747
0.223424
0.200041
0.183692
0.178714
0.203686
0.251992
0.250917
0.251196
0.249444
0.249124
0.250112
0.250471
0.251146
0.25108
0.249823
0.250095
0.251662
0.242065
0.229249
0.225343
0.213904
0.206635
0.196654
0.198301
0.199007
0.204547
0.217516
0.236895
0.250144
0.252139
0.252224
0.245954
0.22009
0.210975
0.235354
0.2523
0.252058
0.250504
0.24885
0.249644
0.250528
0.250942
0.25097
0.250964
0.250919
0.250869
0.250863
0.251052
0.251658
0.251763
0.251793
0.250745
0.250599
0.251242
0.25156
0.25145
0.251526
0.251703
0.250872
0.249714
0.248501
0.247368
0.246263
0.245328
0.246369
0.251123
0.157265
0.151002
0.18823
0.251816
0.247934
0.246093
0.246075
0.24709
0.248525
0.249721
0.25078
0.250809
0.250968
0.250648
0.250789
0.250792
0.250575
0.249897
0.248934
0.247923
0.247211
0.246707
0.245644
0.245003
0.248649
0.251749
0.247251
0.248635
0.230346
0.182449
0.169128
0.225543
0.211252
0.217448
0.228034
0.237441
0.241044
0.23781
0.232895
0.226758
0.22409
0.222081
0.227694
0.235154
0.229893
0.232879
0.229491
0.215305
0.237217
0.240214
0.242437
0.243153
0.243745
0.243823
0.242828
0.240632
0.235058
0.226819
0.213765
0.201896
0.199215
0.21057
0.226219
0.231092
0.225728
0.214029
0.208472
0.208878
0.210285
0.21023
0.209053
0.210855
0.21508
0.216884
0.211091
0.195047
0.19228
0.201184
0.227311
0.239308
0.235699
0.241973
0.248455
0.249274
0.250329
0.251258
0.251599
0.251806
0.25198
0.251815
0.251879
0.251503
0.25073
0.249529
0.248674
0.249609
0.25006
0.249742
0.240746
0.226067
0.22228
0.220469
0.217626
0.213804
0.208967
0.208134
0.219552
0.235567
0.245891
0.251064
0.251124
0.250699
0.250645
0.250246
0.247732
0.247607
0.247758
0.244314
0.235538
0.229317
0.231232
0.238296
0.24317
0.247565
0.24836
0.248854
0.249319
0.2502
0.251102
0.252149
0.252073
0.252091
0.252078
0.251035
0.24938
0.248575
0.248833
0.249456
0.24966
0.249328
0.247957
0.240858
0.241711
0.25213
0.251962
0.252267
0.236795
0.214856
0.206947
0.206553
0.215471
0.233628
0.245628
0.248822
0.249585
0.249615
0.249476
0.248946
0.248408
0.248216
0.247603
0.247196
0.247227
0.247541
0.248572
0.249348
0.249662
0.24994
0.250655
0.24867
0.242489
0.236201
0.239962
0.244653
0.250111
0.251482
0.252124
0.252231
0.252142
0.252057
0.251878
0.251792
0.251894
0.252026
0.252078
0.25197
0.251744
0.251728
0.251692
0.251551
0.251491
0.251332
0.251345
0.251344
0.251474
0.251579
0.251666
0.251708
0.251726
0.251686
0.251651
0.251639
0.251762
0.251697
0.25183
0.252104
0.251935
0.252009
0.251779
0.251095
0.25159
0.252114
0.252179
0.25199
0.251754
0.251491
0.251303
0.251302
0.251341
0.25132
0.251266
0.251301
0.251903
0.248756
0.213405
0.205833
0.220478
0.241966
0.250155
0.251971
0.251946
0.250306
0.249078
0.249107
0.249508
0.248755
0.228628
0.207242
0.199444
0.19902
0.213505
0.250715
0.251695
0.251151
0.250674
0.249809
0.249038
0.24865
0.24847
0.248403
0.248551
0.248978
0.249494
0.249882
0.250659
0.252223
0.250219
0.251717
0.251219
0.251057
0.250967
0.250954
0.248113
0.241639
0.2489
0.252224
0.252164
0.251823
0.25046
0.237662
0.251556
0.249683
0.24832
0.249096
0.249196
0.249151
0.249199
0.249282
0.249331
0.2492
0.248864
0.248625
0.249555
0.251927
0.251854
0.251292
0.250357
0.251448
0.246454
0.216057
0.207803
0.215615
0.228009
0.228694
0.217428
0.203541
0.187549
0.183188
0.250497
0.25042
0.252277
0.252209
0.242515
0.244448
0.248378
0.249092
0.248863
0.249266
0.249249
0.245378
0.226639
0.231524
0.251793
0.250177
0.250818
0.249227
0.203112
0.192589
0.203081
0.217227