/*--------------------------------*- C++ -*----------------------------------*\
| =========                 |                                                 |
| \\      /  F ield         | OpenFOAM: The Open Source CFD Toolbox           |
|  \\    /   O peration     | Version:  2.1.1                                 |
|   \\  /    A nd           | Web:      www.OpenFOAM.org                      |
|    \\/     M anipulation  |                                                 |
\*---------------------------------------------------------------------------*/
FoamFile
{
    version     2.0;
    format      ascii;
    class       volScalarField;
    location    "0.004300000";
    object      N2;
}
// * * * * * * * * * * * * * * * * * * * * * * * * * * * * * * * * * * * * * //

dimensions      [0 0 0 0 0 0 0];

internalField   nonuniform List<scalar> 
12384
(
0.738452
0.738043
0.737875
0.73793
0.738124
0.738497
0.738966
0.739451
0.739971
0.740143
0.740266
0.7427
0.748386
0.748103
0.750994
0.749857
0.749498
0.749323
0.74924
0.749219
0.749221
0.749242
0.749261
0.749279
0.749268
0.749264
0.749255
0.749237
0.749203
0.749195
0.749161
0.749091
0.749008
0.748948
0.748861
0.748763
0.748625
0.748241
0.74848
0.750186
0.751833
0.752395
0.750956
0.747355
0.746215
0.74466
0.743834
0.743569
0.74357
0.743667
0.743815
0.743972
0.744085
0.744281
0.744329
0.744541
0.744658
0.744806
0.744955
0.745061
0.745139
0.745248
0.745319
0.745484
0.745974
0.747362
0.747645
0.744617
0.743312
0.743124
0.743316
0.744514
0.74665
0.748856
0.744222
0.743875
0.74316
0.742715
0.742508
0.742568
0.742524
0.742695
0.742637
0.742823
0.7426
0.742847
0.742618
0.742762
0.74258
0.742619
0.742786
0.742539
0.742662
0.742739
0.742953
0.743694
0.744464
0.745099
0.746133
0.746267
0.746099
0.746031
0.746052
0.746073
0.745058
0.746317
0.746607
0.746556
0.746552
0.746614
0.746673
0.746705
0.746687
0.746588
0.74657
0.746449
0.746493
0.74624
0.746334
0.745864
0.745887
0.745879
0.745478
0.74504
0.744022
0.743005
0.742819
0.743345
0.744956
0.746701
0.747384
0.747389
0.747167
0.747037
0.74708
0.742123
0.739737
0.740464
0.741899
0.743077
0.743895
0.744246
0.744344
0.744151
0.744005
0.743673
0.743458
0.743192
0.743021
0.742886
0.742915
0.74288
0.743043
0.743143
0.743267
0.743322
0.743411
0.743405
0.743406
0.7434
0.743402
0.743265
0.74419
0.747265
0.744599
0.744972
0.745377
0.744793
0.741568
0.73865
0.737374
0.737431
0.738219
0.739452
0.740937
0.74226
0.743463
0.744242
0.744808
0.745135
0.745341
0.74556
0.745719
0.745848
0.745963
0.746003
0.746097
0.746014
0.746006
0.745501
0.744919
0.743612
0.74288
0.748252
0.750356
0.750094
0.749535
0.74729
0.739844
0.736249
0.737041
0.737214
0.737453
0.737632
0.737837
0.737972
0.738056
0.738098
0.738082
0.737991
0.737998
0.738147
0.738497
0.739066
0.739788
0.740655
0.741461
0.742211
0.742795
0.742986
0.742845
0.741945
0.74051
0.739654
0.753165
0.752747
0.750827
0.732946
0.726192
0.728697
0.729606
0.730238
0.730794
0.731
0.731224
0.731203
0.731126
0.730943
0.730711
0.730409
0.730081
0.729759
0.729568
0.729423
0.72952
0.729573
0.729875
0.730318
0.730617
0.730425
0.729815
0.729536
0.736168
0.749622
0.750554
0.743074
0.741774
0.743331
0.743916
0.744117
0.74411
0.743707
0.743116
0.742442
0.741653
0.740963
0.740306
0.739751
0.739322
0.739164
0.739166
0.739268
0.739442
0.739603
0.739862
0.739684
0.739849
0.739478
0.739321
0.738834
0.737931
0.736856
0.736695
0.738451
0.751042
0.736314
0.734354
0.734765
0.734951
0.734987
0.734671
0.734128
0.733483
0.732885
0.732326
0.731933
0.731744
0.731585
0.731616
0.731473
0.731902
0.731878
0.73239
0.732384
0.732852
0.732914
0.73333
0.733487
0.733699
0.73384
0.734153
0.735241
0.73834
0.742119
0.752645
0.742619
0.731093
0.729342
0.728656
0.728492
0.728607
0.729462
0.730217
0.731078
0.731884
0.732714
0.733532
0.734056
0.734518
0.734613
0.734256
0.733786
0.732475
0.73159
0.7304
0.729314
0.72869
0.728613
0.728745
0.733751
0.747058
0.75379
0.754085
0.753109
0.753878
0.754223
0.754731
0.753834
0.751883
0.749952
0.747416
0.743633
0.740084
0.736096
0.734134
0.732785
0.731388
0.730478
0.73023
0.730479
0.731215
0.732423
0.734222
0.736055
0.738392
0.739928
0.742002
0.74386
0.747186
0.750162
0.753144
0.754136
0.753965
0.752957
0.736143
0.737001
0.737844
0.738482
0.738644
0.738813
0.739032
0.739636
0.740627
0.741336
0.741101
0.742119
0.74686
0.748356
0.751003
0.74955
0.749203
0.749151
0.749214
0.749318
0.749417
0.749474
0.749502
0.749495
0.74945
0.749376
0.749295
0.749218
0.749144
0.749096
0.749035
0.748973
0.748913
0.748867
0.748828
0.748802
0.748732
0.748436
0.748297
0.748854
0.750192
0.751686
0.751645
0.748459
0.745803
0.743383
0.743068
0.74305
0.743312
0.743943
0.744462
0.745018
0.745423
0.745697
0.745848
0.745905
0.745904
0.745872
0.745792
0.745677
0.745562
0.745455
0.745417
0.745416
0.745666
0.746711
0.747731
0.747398
0.746897
0.745391
0.743468
0.743017
0.745006
0.748226
0.744086
0.741921
0.741422
0.741949
0.74279
0.743489
0.74415
0.744484
0.744847
0.744999
0.745131
0.74514
0.745095
0.744812
0.744525
0.744068
0.7435
0.74301
0.742692
0.742553
0.742664
0.743102
0.743889
0.744625
0.745657
0.74603
0.745625
0.745443
0.745549
0.745779
0.747703
0.746929
0.745252
0.744171
0.74391
0.744284
0.7449
0.745606
0.746043
0.746498
0.746671
0.746958
0.74694
0.747147
0.746926
0.746928
0.746558
0.746515
0.74613
0.745677
0.744855
0.743759
0.742969
0.742825
0.743283
0.744737
0.746135
0.746327
0.746047
0.746105
0.746376
0.741241
0.740544
0.742915
0.744733
0.745235
0.744757
0.743593
0.742519
0.741596
0.740907
0.740307
0.739756
0.73928
0.738881
0.738566
0.738359
0.738285
0.738309
0.738509
0.738781
0.739297
0.739867
0.740643
0.741412
0.742096
0.742653
0.742933
0.743581
0.745655
0.743503
0.744888
0.745012
0.742728
0.738375
0.736446
0.737139
0.739475
0.742362
0.744917
0.746379
0.746935
0.746903
0.746664
0.746307
0.746117
0.746112
0.746288
0.746544
0.746775
0.747055
0.747371
0.747639
0.74794
0.74811
0.747806
0.746862
0.745085
0.743179
0.74704
0.750101
0.749177
0.746669
0.740776
0.737221
0.736923
0.73766
0.737929
0.738053
0.737997
0.738057
0.738238
0.738625
0.739226
0.739777
0.739956
0.739733
0.739329
0.739189
0.739593
0.740723
0.742682
0.745025
0.746825
0.748082
0.748619
0.748406
0.746507
0.742937
0.740006
0.752096
0.744504
0.736912
0.728476
0.728207
0.730973
0.732184
0.73319
0.73386
0.734305
0.734605
0.734772
0.734475
0.734025
0.733249
0.732392
0.73159
0.730967
0.730526
0.730476
0.730802
0.731478
0.732401
0.73346
0.734606
0.73505
0.733441
0.730415
0.735566
0.748462
0.747529
0.742969
0.743885
0.746163
0.746977
0.74709
0.74665
0.745561
0.743888
0.741699
0.739613
0.738021
0.737083
0.736842
0.737485
0.738688
0.740146
0.741596
0.742946
0.744133
0.744925
0.74551
0.74555
0.745088
0.744181
0.742621
0.740605
0.738216
0.736714
0.737725
0.746246
0.736494
0.736618
0.739485
0.741044
0.740957
0.739413
0.737381
0.735016
0.733087
0.731906
0.731189
0.731477
0.732036
0.732709
0.733149
0.733286
0.733142
0.733208
0.733419
0.73378
0.73424
0.734652
0.734926
0.73506
0.734887
0.734768
0.735202
0.736831
0.740367
0.748077
0.736658
0.729303
0.728424
0.728243
0.729547
0.731521
0.733257
0.735162
0.736563
0.737873
0.738979
0.739718
0.740223
0.740903
0.741463
0.742302
0.742113
0.741797
0.739473
0.736547
0.732882
0.72997
0.728402
0.727796
0.730328
0.740264
0.750103
0.753937
0.753733
0.753941
0.754465
0.754229
0.752277
0.749283
0.744901
0.738759
0.731239
0.724592
0.720968
0.719197
0.71811
0.717746
0.717828
0.717679
0.717294
0.716844
0.716262
0.715862
0.716711
0.71788
0.721512
0.725076
0.729074
0.731832
0.738536
0.747063
0.751923
0.75382
0.753412
0.740012
0.741657
0.743272
0.744091
0.744187
0.743426
0.742347
0.741488
0.741617
0.742455
0.742428
0.742275
0.745303
0.748291
0.750845
0.749276
0.7492
0.74928
0.749369
0.749475
0.749581
0.749611
0.749573
0.749462
0.749313
0.749129
0.748922
0.748688
0.748437
0.748194
0.747973
0.747828
0.747775
0.747873
0.748108
0.748404
0.748631
0.748586
0.748331
0.748255
0.748907
0.750625
0.751692
0.749291
0.745393
0.743152
0.743291
0.743187
0.743937
0.745091
0.746105
0.746921
0.747464
0.747624
0.747714
0.747612
0.747486
0.747316
0.747117
0.746891
0.746599
0.74625
0.745919
0.745715
0.745624
0.746186
0.747245
0.747954
0.748215
0.747859
0.746202
0.743633
0.743353
0.747461
0.741324
0.740942
0.742086
0.743477
0.744486
0.74509
0.745514
0.745857
0.746198
0.746387
0.746714
0.746872
0.746893
0.746824
0.746454
0.745891
0.745169
0.744282
0.743488
0.742847
0.742556
0.742684
0.743326
0.744172
0.745158
0.745746
0.745502
0.74519
0.745141
0.745619
0.747899
0.74356
0.740372
0.739236
0.739062
0.739472
0.740345
0.741543
0.742819
0.744072
0.745158
0.746125
0.746676
0.746813
0.746881
0.746672
0.746302
0.746138
0.745953
0.745783
0.745357
0.744482
0.743447
0.742817
0.742732
0.743234
0.744536
0.745675
0.745796
0.745944
0.745361
0.741104
0.742488
0.7449
0.744967
0.743295
0.741335
0.740505
0.740084
0.739745
0.739379
0.738952
0.738479
0.738001
0.737572
0.737205
0.736925
0.736683
0.736412
0.736217
0.736137
0.736255
0.736586
0.737213
0.738317
0.739638
0.740998
0.742089
0.743002
0.744652
0.742374
0.744644
0.743606
0.739368
0.736197
0.736973
0.740753
0.744511
0.746602
0.747133
0.746739
0.745426
0.74405
0.74318
0.743168
0.743924
0.745
0.745802
0.746214
0.746357
0.746512
0.746808
0.747297
0.747889
0.748523
0.74896
0.748444
0.746674
0.743888
0.746099
0.749588
0.747323
0.742561
0.737791
0.736891
0.737384
0.73752
0.737258
0.736362
0.735497
0.734918
0.734886
0.735596
0.737062
0.739005
0.740731
0.741637
0.741346
0.740363
0.739842
0.740839
0.744038
0.747088
0.749085
0.750116
0.750632
0.750616
0.749299
0.745081
0.740468
0.74666
0.733973
0.728664
0.728483
0.730275
0.7319
0.73247
0.733183
0.733895
0.73461
0.735425
0.73607
0.736318
0.735967
0.73502
0.733666
0.732528
0.732196
0.732992
0.734849
0.736849
0.73886
0.739779
0.740144
0.73939
0.73865
0.736763
0.731961
0.734682
0.747792
0.746071
0.74361
0.745834
0.747145
0.747421
0.747539
0.747398
0.746323
0.743764
0.740309
0.736785
0.734555
0.733947
0.734794
0.737498
0.740437
0.742924
0.744938
0.746374
0.747424
0.748105
0.748675
0.748858
0.748994
0.74844
0.747313
0.744658
0.740886
0.737471
0.737317
0.743086
0.737351
0.741071
0.744746
0.745432
0.744473
0.742092
0.738331
0.734583
0.731983
0.731283
0.732674
0.735354
0.737668
0.739279
0.739888
0.739429
0.73856
0.73707
0.736163
0.73561
0.735814
0.736384
0.737007
0.737422
0.737252
0.736767
0.73606
0.736518
0.739165
0.743272
0.732033
0.728283
0.728461
0.729911
0.73205
0.734167
0.735727
0.737294
0.738596
0.739578
0.740109
0.740193
0.74012
0.741033
0.743047
0.74517
0.746049
0.746066
0.744584
0.742138
0.737491
0.73273
0.729128
0.727198
0.728099
0.735432
0.746274
0.753141
0.754334
0.754109
0.754441
0.753046
0.74932
0.743528
0.735727
0.727144
0.721633
0.719785
0.720017
0.720763
0.721511
0.721924
0.721888
0.721669
0.721197
0.720332
0.718962
0.717314
0.715501
0.714687
0.716906
0.722907
0.728874
0.732395
0.732466
0.736847
0.746248
0.752769
0.753974
0.74359
0.74537
0.746716
0.747234
0.747247
0.746833
0.745836
0.744203
0.743161
0.743395
0.743571
0.742684
0.744294
0.748101
0.750354
0.749173
0.749157
0.749153
0.749125
0.749076
0.748995
0.748945
0.748901
0.74886
0.748813
0.748756
0.748604
0.748306
0.747845
0.747232
0.746585
0.746057
0.745807
0.745935
0.746515
0.747343
0.748119
0.748528
0.748432
0.748126
0.748308
0.749714
0.751374
0.749742
0.745173
0.743605
0.743831
0.743323
0.744425
0.745844
0.747146
0.748014
0.748288
0.74834
0.748111
0.747927
0.747689
0.747506
0.74739
0.747304
0.747206
0.746967
0.746567
0.746147
0.745902
0.746003
0.746731
0.747646
0.748299
0.74849
0.747777
0.745342
0.743704
0.746771
0.739781
0.741678
0.743266
0.744302
0.744808
0.745067
0.745384
0.745881
0.746408
0.746972
0.747265
0.747556
0.747587
0.747603
0.747451
0.747111
0.746381
0.745431
0.744354
0.743354
0.742658
0.742473
0.742893
0.743781
0.744734
0.745345
0.745357
0.745066
0.744776
0.745249
0.746532
0.741436
0.738759
0.738294
0.738332
0.738655
0.739314
0.740443
0.741901
0.743698
0.745287
0.746635
0.746954
0.746967
0.746604
0.74607
0.745537
0.745168
0.745081
0.745258
0.745331
0.744838
0.743869
0.743017
0.742609
0.742703
0.743476
0.7448
0.745615
0.745946
0.744452
0.741754
0.744114
0.744642
0.742669
0.740671
0.740298
0.740495
0.740457
0.740156
0.739654
0.739015
0.738495
0.738049
0.737762
0.737613
0.737536
0.737425
0.737225
0.736918
0.736526
0.736199
0.736079
0.736247
0.73668
0.737678
0.739287
0.740974
0.74242
0.744003
0.741494
0.744025
0.741578
0.736849
0.736114
0.740334
0.74469
0.746608
0.746692
0.745422
0.743456
0.741448
0.739921
0.73949
0.740717
0.743212
0.745603
0.746778
0.747016
0.746907
0.746858
0.746925
0.74717
0.747653
0.748399
0.749137
0.749142
0.747725
0.744564
0.745724
0.749004
0.744906
0.739676
0.737007
0.737023
0.737166
0.73643
0.734557
0.732733
0.731617
0.731035
0.731058
0.731746
0.733263
0.735999
0.739408
0.741883
0.742611
0.741576
0.740404
0.741613
0.745305
0.747834
0.74875
0.749252
0.750053
0.750544
0.749632
0.745623
0.740623
0.740318
0.728407
0.727734
0.729346
0.730929
0.731211
0.731184
0.731522
0.73225
0.733328
0.734869
0.736486
0.737616
0.737734
0.736744
0.734995
0.733932
0.73505
0.738577
0.743185
0.746477
0.748413
0.749074
0.748859
0.747698
0.744476
0.739833
0.733343
0.73425
0.747359
0.745389
0.744362
0.74615
0.746367
0.746396
0.747058
0.747564
0.747154
0.744485
0.739649
0.734933
0.732682
0.732504
0.735614
0.74028
0.743728
0.745999
0.747206
0.747741
0.747861
0.747853
0.747862
0.748178
0.748728
0.749427
0.749548
0.748004
0.743996
0.738769
0.737031
0.741655
0.739289
0.74425
0.74593
0.745782
0.744434
0.741001
0.73605
0.732356
0.730947
0.733037
0.738382
0.742607
0.745135
0.746344
0.746445
0.746312
0.744605
0.742919
0.740229
0.738489
0.737382
0.737558
0.738532
0.739613
0.740051
0.739629
0.738108
0.737018
0.738745
0.739361
0.729655
0.728006
0.729214
0.731362
0.733202
0.734718
0.736065
0.737359
0.738611
0.739533
0.739684
0.738999
0.738361
0.740384
0.744768
0.748232
0.749025
0.748719
0.747408
0.744981
0.740532
0.734739
0.729766
0.726449
0.726614
0.73144
0.740779
0.750315
0.754693
0.754219
0.754128
0.751081
0.744403
0.735691
0.726985
0.721187
0.720047
0.720891
0.722272
0.723531
0.724279
0.724601
0.724579
0.724205
0.723585
0.722844
0.721989
0.720661
0.718525
0.716213
0.715357
0.720735
0.730142
0.73668
0.736298
0.734519
0.740238
0.750764
0.754462
0.74522
0.747025
0.747832
0.747916
0.747819
0.747718
0.747359
0.746307
0.744881
0.744389
0.744467
0.743185
0.743711
0.747698
0.749748
0.749138
0.748845
0.74862
0.748327
0.747992
0.747671
0.747524
0.74758
0.747822
0.748163
0.748471
0.748632
0.748445
0.747807
0.746797
0.74569
0.744813
0.744505
0.744629
0.745112
0.746162
0.747394
0.748295
0.748461
0.748148
0.748056
0.749096
0.751014
0.749928
0.745215
0.74409
0.744164
0.743461
0.744657
0.746164
0.74744
0.748126
0.748109
0.747809
0.747313
0.74683
0.746445
0.746281
0.746347
0.746632
0.747054
0.747179
0.746963
0.746538
0.746176
0.74613
0.746515
0.747293
0.748044
0.74851
0.748427
0.746701
0.743863
0.746475
0.739946
0.742251
0.743626
0.744292
0.744468
0.744652
0.745235
0.746071
0.746884
0.747336
0.747559
0.74754
0.747745
0.747654
0.74767
0.747282
0.746752
0.745952
0.744884
0.743719
0.742769
0.742339
0.742605
0.743501
0.744423
0.744934
0.745034
0.744872
0.744609
0.744947
0.74493
0.741169
0.738883
0.739148
0.740097
0.740848
0.741544
0.742609
0.74416
0.745905
0.747029
0.747298
0.746804
0.745797
0.744853
0.74419
0.743845
0.743839
0.744109
0.744571
0.744942
0.744846
0.744089
0.743195
0.742628
0.742536
0.74302
0.744246
0.745386
0.745955
0.743825
0.742482
0.744326
0.742965
0.740882
0.740637
0.741161
0.741209
0.740839
0.740324
0.739604
0.738867
0.738353
0.738214
0.738364
0.738636
0.738875
0.739028
0.739043
0.738911
0.738534
0.737901
0.737132
0.736591
0.736454
0.736918
0.738173
0.740047
0.741873
0.743576
0.740788
0.74314
0.739406
0.735834
0.738183
0.743358
0.7459
0.746082
0.744688
0.742487
0.740199
0.737964
0.73645
0.736547
0.738939
0.743112
0.746267
0.747298
0.747041
0.746388
0.746137
0.746254
0.746582
0.747136
0.748015
0.748979
0.749256
0.748071
0.744759
0.745838
0.748328
0.743439
0.738274
0.736834
0.736879
0.736255
0.734163
0.731621
0.730151
0.729338
0.72911
0.729339
0.730012
0.73113
0.733481
0.737445
0.741302
0.743028
0.742505
0.741359
0.742834
0.745562
0.745943
0.745037
0.745209
0.746892
0.74836
0.748064
0.744562
0.740481
0.736072
0.726861
0.727949
0.729966
0.730457
0.7301
0.729882
0.729915
0.730187
0.731063
0.733004
0.735801
0.73828
0.739154
0.738074
0.735926
0.73527
0.738305
0.744217
0.748877
0.750835
0.751503
0.751458
0.751528
0.751231
0.750007
0.744429
0.734384
0.733146
0.746208
0.745118
0.744605
0.745266
0.744225
0.744491
0.74613
0.747392
0.747496
0.744834
0.738834
0.733314
0.731721
0.7336
0.740187
0.745408
0.748012
0.748931
0.748748
0.747873
0.746635
0.745565
0.744985
0.745309
0.746442
0.748255
0.74975
0.749722
0.746587
0.740373
0.737097
0.741202
0.741181
0.745115
0.745426
0.744684
0.743167
0.739015
0.733771
0.731214
0.732139
0.738148
0.744694
0.747069
0.748303
0.748749
0.749169
0.748985
0.748824
0.747159
0.745117
0.741924
0.739586
0.738679
0.739477
0.741182
0.742586
0.742617
0.740683
0.738155
0.738756
0.73679
0.728638
0.728355
0.730325
0.732503
0.73406
0.735198
0.736093
0.737108
0.738402
0.739618
0.739834
0.738561
0.737289
0.739657
0.745452
0.749335
0.749863
0.749402
0.748219
0.745831
0.741529
0.735595
0.730055
0.726228
0.725452
0.728095
0.735475
0.746787
0.754782
0.754241
0.753625
0.74822
0.738513
0.728801
0.722078
0.720034
0.721211
0.723295
0.725145
0.726782
0.727842
0.728423
0.72824
0.727307
0.725943
0.724463
0.723238
0.722184
0.720784
0.718442
0.716361
0.718144
0.730604
0.739092
0.7397
0.736358
0.738417
0.749381
0.754585
0.745925
0.747701
0.747974
0.747714
0.747534
0.747606
0.747683
0.7474
0.746337
0.745539
0.745316
0.743655
0.743284
0.747214
0.749325
0.748795
0.748093
0.747858
0.747461
0.746913
0.746432
0.746231
0.746435
0.746973
0.747716
0.748406
0.748844
0.748757
0.747927
0.746558
0.745283
0.744753
0.744768
0.744888
0.745142
0.745764
0.746954
0.748089
0.74847
0.748179
0.747936
0.748767
0.750732
0.750051
0.745335
0.744674
0.744453
0.743567
0.74455
0.745867
0.746829
0.747125
0.746614
0.745649
0.744765
0.744127
0.743896
0.743861
0.744034
0.744474
0.745436
0.746733
0.747196
0.746907
0.746482
0.746371
0.746588
0.747154
0.747841
0.748456
0.748649
0.747335
0.744461
0.746324
0.740332
0.742449
0.743704
0.744091
0.744138
0.744491
0.74547
0.746573
0.747358
0.747487
0.747296
0.746957
0.747004
0.747173
0.747299
0.747028
0.746599
0.745936
0.744871
0.743721
0.742716
0.742207
0.742442
0.743336
0.744245
0.744641
0.744672
0.744576
0.744419
0.744762
0.743862
0.740724
0.739326
0.740996
0.74302
0.744266
0.745189
0.746254
0.747294
0.747822
0.747252
0.745991
0.744528
0.743358
0.743086
0.742995
0.743032
0.743222
0.743561
0.744084
0.744584
0.744649
0.744033
0.743182
0.742564
0.742418
0.742802
0.743829
0.745284
0.745989
0.743436
0.743094
0.743586
0.741376
0.740672
0.741267
0.741443
0.741011
0.740526
0.740055
0.739347
0.738655
0.738386
0.738672
0.739179
0.739531
0.739658
0.739677
0.739691
0.739604
0.739429
0.739184
0.738575
0.737773
0.737068
0.736967
0.737754
0.739449
0.741483
0.743279
0.740459
0.741758
0.73737
0.736051
0.74038
0.744322
0.745277
0.744319
0.742223
0.739936
0.737532
0.735541
0.734587
0.734932
0.73806
0.743136
0.746626
0.747447
0.746426
0.744678
0.743799
0.743878
0.744674
0.745949
0.747433
0.748606
0.748944
0.747618
0.744659
0.746104
0.747667
0.742423
0.737939
0.736675
0.736417
0.735036
0.732279
0.729948
0.728714
0.728233
0.728065
0.728467
0.729266
0.730355
0.732213
0.736005
0.740703
0.743154
0.742979
0.742048
0.743395
0.743916
0.741953
0.740196
0.740777
0.742359
0.743631
0.743929
0.742316
0.740169
0.73382
0.726544
0.728288
0.729842
0.729831
0.72952
0.729388
0.729252
0.729114
0.729259
0.73072
0.734324
0.738486
0.740223
0.738734
0.736114
0.736091
0.741152
0.747643
0.750817
0.751559
0.751246
0.750438
0.750288
0.751174
0.751459
0.748757
0.73751
0.732505
0.746031
0.745003
0.744308
0.743374
0.74154
0.74251
0.744972
0.746855
0.747381
0.745116
0.7378
0.732448
0.73208
0.737992
0.745721
0.749388
0.750505
0.750236
0.74898
0.747066
0.744822
0.743295
0.742701
0.743049
0.74451
0.746798
0.749336
0.750376
0.748248
0.741759
0.737062
0.741215
0.742285
0.744767
0.744146
0.743664
0.742208
0.737606
0.732446
0.730903
0.735341
0.74301
0.747179
0.747898
0.748631
0.748935
0.749461
0.749725
0.749367
0.74899
0.747057
0.744715
0.741697
0.739943
0.740316
0.742393
0.744671
0.745294
0.743168
0.739508
0.73902
0.735169
0.728337
0.729029
0.731573
0.733727
0.73507
0.735683
0.736022
0.736626
0.737808
0.739445
0.740372
0.739192
0.736659
0.737572
0.742935
0.747568
0.748889
0.748208
0.747198
0.744861
0.740311
0.734586
0.729357
0.725776
0.72395
0.724286
0.729626
0.742865
0.754466
0.754236
0.752902
0.74481
0.733027
0.723972
0.720077
0.720571
0.72336
0.726048
0.728924
0.731165
0.732876
0.733586
0.733108
0.73168
0.729597
0.727118
0.724797
0.723131
0.721923
0.720023
0.717567
0.717976
0.730901
0.741075
0.741772
0.738247
0.73881
0.748442
0.75453
0.746355
0.748026
0.747892
0.747234
0.746817
0.74695
0.747531
0.747849
0.74746
0.746854
0.746322
0.744404
0.743019
0.746569
0.749145
0.748177
0.747129
0.747048
0.746753
0.746248
0.745806
0.745657
0.745929
0.746614
0.747568
0.748544
0.749147
0.749052
0.74797
0.74633
0.745299
0.745436
0.746028
0.746297
0.746179
0.746365
0.747153
0.748134
0.748449
0.748173
0.747898
0.748563
0.750498
0.750134
0.745443
0.745273
0.744736
0.743588
0.744223
0.745006
0.745415
0.745045
0.743967
0.742894
0.742305
0.742263
0.742508
0.742812
0.742948
0.743026
0.743282
0.744528
0.746833
0.74728
0.746976
0.746736
0.746888
0.7473
0.747846
0.748466
0.748761
0.747675
0.744669
0.74638
0.74059
0.742773
0.743625
0.743907
0.743952
0.744463
0.745737
0.746834
0.747523
0.747234
0.746626
0.7461
0.745916
0.746102
0.746387
0.746317
0.745935
0.745283
0.744356
0.743323
0.742416
0.742053
0.742362
0.743333
0.744213
0.744519
0.744471
0.744305
0.744203
0.74463
0.743368
0.739724
0.74008
0.743302
0.745848
0.747134
0.747932
0.748446
0.748351
0.747194
0.745098
0.743341
0.74268
0.742715
0.742916
0.742982
0.743009
0.743148
0.743433
0.743941
0.744348
0.744316
0.743747
0.742972
0.742421
0.742379
0.74279
0.743811
0.745369
0.746029
0.743341
0.743119
0.742375
0.740747
0.74096
0.741207
0.740771
0.740277
0.74006
0.739813
0.739187
0.738563
0.738717
0.739383
0.739867
0.73987
0.739659
0.739407
0.739256
0.739206
0.739226
0.739199
0.739118
0.738666
0.737907
0.737442
0.737863
0.73931
0.741322
0.743097
0.74006
0.740501
0.736262
0.736792
0.741433
0.743767
0.743685
0.742044
0.740023
0.73793
0.736136
0.735016
0.734578
0.735002
0.737536
0.742601
0.746704
0.747696
0.746157
0.743496
0.742176
0.741918
0.74293
0.744847
0.746766
0.74795
0.748057
0.7466
0.744465
0.746504
0.747297
0.742362
0.737852
0.736495
0.73611
0.734153
0.731087
0.728934
0.728033
0.727523
0.727462
0.727813
0.728747
0.730032
0.731655
0.735136
0.740451
0.743406
0.743209
0.742167
0.742506
0.740987
0.738782
0.738745
0.740187
0.741425
0.741806
0.741576
0.740723
0.739959
0.732588
0.725938
0.728654
0.729766
0.729505
0.729361
0.729407
0.729317
0.728886
0.728433
0.728924
0.732673
0.738583
0.741087
0.738818
0.735621
0.73669
0.7434
0.749061
0.750855
0.75083
0.749724
0.748513
0.748265
0.749478
0.751406
0.750234
0.741018
0.732301
0.744207
0.744896
0.74357
0.741307
0.739412
0.740621
0.743586
0.746272
0.747357
0.745115
0.737396
0.732335
0.733565
0.742285
0.748837
0.750968
0.751257
0.750494
0.749168
0.747595
0.745506
0.743836
0.742717
0.743479
0.745153
0.747439
0.749751
0.750949
0.749223
0.742684
0.737329
0.741349
0.742712
0.743846
0.742774
0.742871
0.741779
0.736706
0.731894
0.731824
0.738552
0.74519
0.747276
0.747714
0.748491
0.749018
0.749852
0.749823
0.749857
0.749398
0.74838
0.746042
0.743143
0.741075
0.741325
0.743656
0.746392
0.74737
0.745213
0.740788
0.739418
0.734108
0.728289
0.729973
0.733011
0.735244
0.736367
0.736536
0.736361
0.736347
0.736953
0.738534
0.740495
0.740732
0.737479
0.735531
0.738341
0.743325
0.745888
0.745902
0.74476
0.742406
0.738381
0.733225
0.728457
0.725013
0.722289
0.720724
0.724558
0.73804
0.753856
0.754162
0.751907
0.741275
0.72864
0.721298
0.719693
0.721856
0.725597
0.729133
0.733015
0.736109
0.737804
0.738029
0.737163
0.735568
0.733191
0.730254
0.726976
0.724339
0.722723
0.721045
0.718201
0.717878
0.73111
0.742266
0.742842
0.740264
0.741631
0.749864
0.754595
0.746607
0.748294
0.747768
0.746693
0.745652
0.745402
0.746601
0.747408
0.747573
0.747402
0.746993
0.745229
0.742921
0.746011
0.749056
0.747232
0.745687
0.746022
0.746138
0.745869
0.745586
0.745532
0.745803
0.746454
0.747496
0.748657
0.749453
0.74941
0.748123
0.746145
0.745466
0.746175
0.747358
0.747883
0.747691
0.747515
0.747891
0.748372
0.748497
0.748054
0.74778
0.748523
0.750354
0.750181
0.745394
0.745708
0.745062
0.74371
0.743749
0.743891
0.743718
0.742899
0.741913
0.741229
0.74115
0.741441
0.741986
0.742587
0.74289
0.742852
0.742567
0.742653
0.744567
0.746909
0.747316
0.747233
0.74732
0.747616
0.748048
0.748617
0.748859
0.747768
0.744874
0.74625
0.740879
0.742755
0.743402
0.743795
0.743828
0.744304
0.74565
0.746787
0.747399
0.747007
0.746115
0.745529
0.744956
0.745047
0.745153
0.745128
0.744791
0.744219
0.743463
0.74264
0.742113
0.742024
0.742564
0.743584
0.744389
0.744576
0.744369
0.744112
0.744136
0.744651
0.742329
0.738799
0.741473
0.745412
0.747694
0.748702
0.749005
0.748802
0.747439
0.745068
0.743315
0.742534
0.742579
0.742833
0.742979
0.743053
0.743101
0.743272
0.743589
0.743924
0.744044
0.743799
0.743186
0.742543
0.742204
0.742397
0.742889
0.744225
0.745858
0.746102
0.743252
0.742778
0.741367
0.740518
0.740636
0.740138
0.739463
0.739401
0.739667
0.739625
0.739122
0.738539
0.739105
0.739973
0.740126
0.739796
0.739301
0.738876
0.738672
0.738608
0.738733
0.738911
0.739026
0.738954
0.738475
0.737981
0.738233
0.739508
0.741376
0.742984
0.739724
0.739277
0.735715
0.73739
0.741125
0.742311
0.741428
0.739786
0.73815
0.736743
0.736045
0.735974
0.735923
0.735816
0.736977
0.741263
0.746258
0.748221
0.747416
0.744735
0.74263
0.74195
0.742337
0.743947
0.745677
0.746574
0.746451
0.745337
0.744714
0.747326
0.747399
0.742462
0.737753
0.736293
0.735822
0.734013
0.730907
0.72871
0.727757
0.727204
0.726949
0.727404
0.728572
0.730002
0.731574
0.734568
0.740501
0.743668
0.74322
0.741977
0.741615
0.739349
0.738541
0.740908
0.743496
0.744087
0.743514
0.742983
0.742672
0.740927
0.731028
0.726331
0.728779
0.729505
0.729327
0.729406
0.729613
0.729665
0.729182
0.728277
0.727913
0.731217
0.738776
0.741994
0.738342
0.734628
0.737378
0.744781
0.749109
0.750142
0.749587
0.748239
0.747276
0.747627
0.748576
0.750771
0.751345
0.742808
0.732701
0.743725
0.744788
0.742652
0.739742
0.738343
0.739428
0.742015
0.745405
0.747203
0.745785
0.737727
0.732504
0.734463
0.744406
0.749877
0.751234
0.751037
0.750098
0.749139
0.748345
0.746981
0.745402
0.743935
0.744894
0.747649
0.749793
0.751251
0.751688
0.749471
0.742649
0.737047
0.741425
0.742614
0.742583
0.741709
0.742303
0.741634
0.736415
0.73165
0.732554
0.740031
0.745463
0.746956
0.747386
0.748505
0.749175
0.750092
0.749948
0.749884
0.749384
0.748198
0.746296
0.743854
0.742141
0.742717
0.745186
0.747968
0.748808
0.746491
0.741609
0.739882
0.733578
0.728467
0.731124
0.734584
0.736896
0.737928
0.737952
0.737545
0.736822
0.736402
0.737076
0.739602
0.742042
0.739979
0.735136
0.734623
0.737402
0.740929
0.742227
0.741218
0.738858
0.735253
0.731228
0.72732
0.723938
0.720558
0.717717
0.720834
0.735975
0.75354
0.754093
0.75081
0.738281
0.725595
0.720046
0.720013
0.723106
0.727631
0.731821
0.736658
0.739258
0.740482
0.74028
0.739497
0.737847
0.735573
0.732517
0.728994
0.72562
0.723455
0.721894
0.718686
0.716762
0.727712
0.742512
0.744869
0.744432
0.746925
0.751333
0.752509
0.746732
0.748467
0.747795
0.746303
0.744118
0.742559
0.743732
0.745152
0.746148
0.746369
0.746468
0.745302
0.742755
0.745373
0.744801
0.746328
0.748155
0.744778
0.743569
0.744535
0.745387
0.745405
0.745339
0.745402
0.745698
0.746296
0.747162
0.748444
0.74955
0.749765
0.748582
0.746556
0.745596
0.746429
0.747945
0.748596
0.748583
0.748436
0.748455
0.74857
0.748336
0.747863
0.747732
0.748365
0.749973
0.750315
0.749518
0.746824
0.745357
0.74613
0.745507
0.743973
0.743547
0.743088
0.742431
0.741636
0.740854
0.740435
0.740372
0.740651
0.741276
0.742151
0.742878
0.743083
0.74278
0.742367
0.742992
0.745521
0.747192
0.747546
0.747712
0.74797
0.74836
0.748835
0.748899
0.747599
0.745109
0.743781
0.740216
0.740922
0.74173
0.742006
0.742794
0.743653
0.743721
0.743982
0.745231
0.746404
0.747057
0.746837
0.746074
0.745395
0.744744
0.744408
0.744172
0.743979
0.743692
0.743243
0.742741
0.742352
0.742218
0.742465
0.743324
0.744279
0.744743
0.744595
0.744255
0.744138
0.744351
0.744808
0.74575
0.74574
0.739718
0.738743
0.7427
0.746317
0.748399
0.749101
0.749117
0.748254
0.746356
0.744358
0.743082
0.742537
0.742444
0.742682
0.742905
0.743064
0.743229
0.743407
0.743581
0.743628
0.743451
0.743043
0.74252
0.742197
0.742261
0.742676
0.743594
0.745272
0.746147
0.745842
0.745346
0.743853
0.743097
0.74205
0.74055
0.739979
0.739477
0.73844
0.738042
0.738537
0.739308
0.739602
0.739115
0.738522
0.739383
0.740279
0.740202
0.73973
0.739138
0.738677
0.738384
0.738317
0.738442
0.738656
0.73886
0.738966
0.738756
0.738406
0.738717
0.739993
0.741736
0.742521
0.739802
0.73883
0.739217
0.737991
0.735339
0.737225
0.739811
0.740128
0.739016
0.737852
0.736912
0.73638
0.73642
0.736672
0.736705
0.736461
0.736653
0.739133
0.744744
0.748584
0.749272
0.747929
0.745765
0.743893
0.74284
0.742856
0.743796
0.744502
0.744487
0.744249
0.744665
0.747143
0.749138
0.749845
0.749883
0.74857
0.743502
0.737833
0.735636
0.734069
0.731339
0.728966
0.727855
0.727244
0.72706
0.727465
0.728758
0.730372
0.731703
0.734434
0.74093
0.743958
0.742927
0.741742
0.740997
0.739203
0.739924
0.743667
0.745531
0.744453
0.741296
0.739986
0.741911
0.743182
0.746196
0.738657
0.730679
0.72649
0.729015
0.729311
0.729252
0.729434
0.729664
0.729716
0.729283
0.728209
0.727468
0.730348
0.739185
0.742747
0.737386
0.733437
0.737796
0.744853
0.748259
0.74905
0.748322
0.747122
0.747067
0.748128
0.749416
0.750859
0.751262
0.743741
0.732998
0.741451
0.742857
0.745036
0.744421
0.741638
0.738741
0.737759
0.738632