/*--------------------------------*- C++ -*----------------------------------*\
| =========                 |                                                 |
| \\      /  F ield         | OpenFOAM: The Open Source CFD Toolbox           |
|  \\    /   O peration     | Version:  2.1.1                                 |
|   \\  /    A nd           | Web:      www.OpenFOAM.org                      |
|    \\/     M anipulation  |                                                 |
\*---------------------------------------------------------------------------*/
FoamFile
{
    version     2.0;
    format      ascii;
    class       volScalarField;
    location    "0.004300000";
    object      p;
}
// * * * * * * * * * * * * * * * * * * * * * * * * * * * * * * * * * * * * * //

dimensions      [1 -1 -2 0 0 0 0];

internalField   nonuniform List<scalar> 
12384
(
681536
690055
683278
700076
691726
713944
704256
730463
723414
746533
742652
755173
756735
761903
789840
783074
805117
801156
819128
827031
838764
846060
849161
846647
837472
827892
813380
808553
791927
798050
788878
795629
795784
797544
797236
797241
797731
798204
796826
812021
808891
821872
825783
826207
771797
767529
770240
769698
773552
769517
779329
772354
788349
783728
796574
796360
796659
792271
786312
777530
776338
774722
785307
810931
816268
822736
836819
841446
840871
858557
861295
867103
875883
878133
914850
919608
922970
923002
917416
908943
897248
854535
841991
828613
758319
782262
706870
742809
698060
733633
726298
760430
768213
777096
778709
772286
763128
756378
747486
740230
729971
730875
717338
717837
737511
740974
741293
738283
732662
719869
721868
706188
687315
690327
677244
650584
662650
634484
629981
679078
650482
719162
724609
746316
750197
749451
746825
746248
750074
739675
738470
728701
728316
718686
667516
663663
661581
656149
651440
643609
639594
639733
647911
649738
650577
659752
664686
668484
672446
672231
669776
664954
661785
651247
660513
657083
660105
663313
662457
661844
659867
662766
665507
666981
707863
688429
722695
717701
738495
735620
755721
749662
771744
766576
788287
795828
810294
814449
817704
814583
805015
790018
776677
761809
754651
737710
738123
713981
716723
691398
700374
680628
684663
685672
713303
704968
734519
722094
770417
767228
796481
863453
903274
941866
987273
1.02543e+06
1.03117e+06
1.02172e+06
1.00054e+06
986132
966618
958416
935068
930186
908109
894253
879948
864926
855247
862433
875983
911922
940067
965834
1.04203e+06
1.04962e+06
1.04095e+06
1.05694e+06
1.05613e+06
1.05265e+06
973633
949611
918859
891577
883514
896707
907978
914160
920730
925703
927021
925364
918783
917489
898846
891169
884889
875437
843407
891418
852020
970780
997905
1.07867e+06
1.04678e+06
1.04369e+06
1.04514e+06
1.04051e+06
1.0405e+06
1.03415e+06
1.04431e+06
1.05372e+06
1.06177e+06
1.07338e+06
1.0755e+06
1.07432e+06
1.05994e+06
1.04132e+06
1.01351e+06
986882
956277
933824
904104
895481
870622
865337
849765
831111
845438
845087
860306
868089
863409
878934
1.02149e+06
1.01566e+06
1.01254e+06
1.0123e+06
1.01451e+06
1.01485e+06
1.03136e+06
1.0384e+06
1.05357e+06
1.05986e+06
1.06541e+06
1.05428e+06
1.04335e+06
997340
1.00637e+06
932056
952203
876529
891961
818109
833217
787523
802275
814637
811268
829783
852303
866353
873498
884335
983784
996297
985973
1.01518e+06
999881
1.03812e+06
1.02278e+06
1.06665e+06
1.07263e+06
1.09977e+06
1.11512e+06
1.1272e+06
1.13714e+06
1.13841e+06
1.1291e+06
1.10898e+06
1.08226e+06
1.06791e+06
999559
1.02291e+06
966874
991885
971490
980024
982250
985347
989012
991730
992340
994197
1.05222e+06
1.03881e+06
1.01071e+06
985302
981818
942633
939557
937798
913749
923032
917897
915508
930842
935138
952314
958084
962621
958046
956958
942280
944877
937067
942329
935316
940435
933134
933666
922774
919140
913104
682344
690171
683775
699768
693420
712376
707681
727809
726214
746362
744976
755705
759502
763360
781889
784887
795606
799782
814381
820617
832378
840810
844340
842157
835796
825179
812498
806989
792397
795452
790545
791973
795718
795499
794660
792642
794149
793616
802501
811124
812568
825159
826386
832750
771575
766495
768889
770179
769701
770914
775194
772706
783889
784876
790461
795610
794113
789840
783401
776506
775248
771145
787876
803572
808865
829459
838094
837125
854038
864687
863013
868765
878703
879237
910642
910969
912238
909998
905648
892870
872792
858378
818758
813094
775032
743858
737517
707782
717142
708623
730408
741346
758146
764697
767865
764864
760490
754165
747457
738098
727579
727913
716297
714222
736509
737326
738304
733098
727422
721795
707203
703564
695607
673157
681970
652069
658371
637563
638394
667905
664887
704148
716825
735709
745301
749193
750874
751798
741911
740310
736150
736780
733699
737263
666689
663076
657172
658077
658827
658988
654055
648093
642192
647154
654030
663106
665135
669461
670660
670568
667550
660892
652149
658076
649558
653860
659899
660491
661939
660595
662081
665875
667173
675966
703715
699428
726075
717043
732380
747461
749460
757324
764825
775752
786024
795320
808619
813910
813977
809153
798729
785889
773285
759564
751605
738595
738091
713532
720039
693124
698789
683308
688504
681759
716126
715821
729621
727234
767606
765362
820788
837121
888613
925174
960625
990987
1.00278e+06
992804
982537
970742
966162
950008
942426
923993
912001
896762
881757
865756
865140
860531
871176
916126
935982
968367
1.02962e+06
1.03739e+06
1.04746e+06
1.05348e+06
1.0526e+06
1.02184e+06
979125
920940
890774
899878
886654
883836
905221
911368
917458
921312
923527
922131
920361
916102
896087
897407
881586
854773
849949
877038
878079
943405
989182
1.02769e+06
1.05667e+06
1.04999e+06
1.04477e+06
1.03613e+06
1.03051e+06
1.03544e+06
1.03172e+06
1.04424e+06
1.05218e+06
1.05993e+06
1.06377e+06
1.05983e+06
1.05145e+06
1.03509e+06
1.00797e+06
983662
947912
924203
892062
882437
861599
841484
826365
831144
817730
838137
851784
861475
879589
878538
1.02912e+06
1.02409e+06
1.02147e+06
1.01695e+06
1.01966e+06
1.019e+06
1.032e+06
1.04168e+06
1.05287e+06
1.06122e+06
1.06176e+06
1.04719e+06
1.03974e+06
985538
982073
928151
912717
885506
845278
835909
794966
801441
788401
802488
803248
830316
846208
866133
875026
884728
989776
996997
992214
1.00987e+06
1.00224e+06
1.03344e+06
1.02019e+06
1.06194e+06
1.06763e+06
1.09265e+06
1.10507e+06
1.12119e+06
1.1296e+06
1.13069e+06
1.12237e+06
1.10421e+06
1.07044e+06
1.05862e+06
999657
1.00184e+06
975108
976651
976877
976346
984150
986709
990076
993110
994294
996309
1.0462e+06
1.03093e+06
1.01053e+06
983579
971927
950555
932203
938408
915977
925010
913051
918496
928826
937418
951476
958336
962883
958318
958663
941353
948989
936023
940932
938972
938091
937978
932047
933616
927835
925659
683689
688768
685108
701130
693007
715222
709261
726702
729967
744472
747392
755837
760341
763875
781036
781425
791736
792956
805073
815508
824665
833755
838328
837581
830325
822982
808921
806372
790920
796201
788328
793149
792271
794339
792768
791323
788346
796013
799454
811837
814516
826157
832190
830568
770411
765086
769406
767811
771928
769291
775853
772053
783775
781580
791628
789955
792298
786826
782979
775767
775369
776126
787773
789508
812208
827800
827255
848855
858267
856054
869035
877863
877068
878982
897626
900042
898538
896555
885728
875033
861781
835675
817904
813902
750473
752339
743092
692316
705413
713218
714638
731973
741677
751116
753098
753577
750411
746547
740039
733582
725911
722266
714329
711206
732607
734938
733608
727719
721692
716294
701613
700807
688575
676905
678105
652828
659553
646949
642356
671461
661982
696827
707933
722663
735072
744755
749888
752779
762108
760196
751639
741530
737928
729057
668146
670681
671099
664919
656507
648070
649202
654499
662934
659325
658933
659853
670842
672726
671637
669383
664021
658127
652963
651703
647301
653857
655077
660529
659357
660511
663398
663035
673934
673624
692731
708099
725132
716888
739808
746931
751800
762429
772405
782076
786065
801403
805828
809399
808683
801428
791358
779371
768769
755053
750314
738534
735268
715977
720860
697339
695026
693247
694973
693112
720086
712525
737934
721256
774223
757499
821421
826942
861952
897198
934353
952175
956637
957507
955774
956387
951896
950038
936316
922890
917658
890917
890306
865183
868110
862914
869162
913200
938146
961270
1.03236e+06
1.0333e+06
1.03123e+06
1.03822e+06
1.01886e+06
1.00416e+06
952061
916680
888936
881125
886060
884011
892593
910284
913594
918445
919969
922545
917901
913464
907321
895796
859404
875386
846813
884121
862583
948734
938018
999594
1.06022e+06
1.05016e+06
1.04059e+06
1.03116e+06
1.028e+06
1.01893e+06
1.02899e+06
1.02095e+06
1.03854e+06
1.03942e+06
1.04761e+06
1.04776e+06
1.04052e+06
1.02446e+06
1.00452e+06
972764
941812
909622
880755
863518
838297
823478
824526
797279
817240
815250
840391
861887
874444
887069
1.03449e+06
1.02734e+06
1.02496e+06
1.01962e+06
1.02191e+06
1.02361e+06
1.03763e+06
1.04293e+06
1.05567e+06
1.05848e+06
1.05765e+06
1.03403e+06
1.0198e+06
964675
947918
900713
882185
843423
842831
791309
802131
774228
788263
792832
794282
827926
838663
860259
872066
882570
993899
993231
992446
1.00407e+06
1.002e+06
1.01904e+06
1.02195e+06
1.05264e+06
1.05608e+06
1.08269e+06
1.09689e+06
1.11104e+06
1.1211e+06
1.12182e+06
1.11089e+06
1.09764e+06
1.0623e+06
1.03139e+06
987366
998236
962674
979177
974603
974778
986364
983961
992288
992440
994601
994514
1.03867e+06
1.01821e+06
1.00703e+06
978106
970648
948430
938782
931593
919691
920412
915377
922061
924755
937667
948093
958528
962113
959510
955883
944729
945253
937923
940471
938363
940778
936299
938864
928763
924845
920601
684394
690540
688105
699399
695516
716207
709321
729462
731951
742971
749314
756249
760497
764581
774733
776639
782214
787739
795198
806143
816837
822981
828578
827595
825184
816027
809478
796454
798777
788511
791192
790029
792984
790975
791752
791059
786375
797107
797699
815124
815742
831668
829659
836887
773571
767288
769252
768192
770521
768628
776971
772875
784332
781805
788826
792176
789699
789068
781860
778293
774111
780281
774836
795860
819368
814900
842909
862836
864542
878660
883148
884092
888168
888266
894350
890425
887065
877990
873232
864755
836339
831071
817700
780531
748673
757142
714465
702421
703659
694162
711184
714499
728300
733551
738622
738140
737638
734773
731543
726433
722111
713428
712730
711908
732030
728945
728142
721730
715355
705499
699272
694089
683445
678085
676066
657542
665824
650117
651059
666803
669132
682724
706539
707486
733000
741999
757410
760418
759912
757848
754503
751984
744256
746175
665862
665822
662916
663222
661842
669264
663272
659768
656036
669042
670846
675461
669061
669168
672769
670107
660573
655522
652389
642744
648329
648704
653491
654439
659671
660627
659524
670548
671137
680723
702572
721359
713801
723514
750307
739161
764244
761562
778995
782506
791159
800042
804544
800901
797400
792891
783360
773379
760354
754503
745096
739172
730550
724818
715923
708880
700228
698621
692666
690404
721070
724020
721451
746905
740205
785374
784061
825374
840505
863737
883378
894511
893810
895029
904988
917534
926140
928339
922587
919140
901227
893646
875395
869425
855593
873202
874068
893228
943926
952048
1.01717e+06
1.01411e+06
1.01842e+06
1.00711e+06
1.0002e+06
965127
921961
922277
859548
860593
867002
885526
883662
899056
910998
913701
918438
918855
918172
915905
910217
876697
870205
855548
843991
837045
885455
889089
939198
907505
1.0619e+06
1.04836e+06
1.03501e+06
1.02383e+06
1.01328e+06
1.01477e+06
1.00471e+06
1.01641e+06
1.00512e+06
1.02164e+06
1.01811e+06
1.02378e+06
1.02271e+06
1.01291e+06
989149
964083
927689
894351
865111
842483
812941
807769
778310
795789
778437
801128
829834
855884
874386
894444
1.04031e+06
1.03335e+06
1.02852e+06
1.02661e+06
1.02849e+06
1.02995e+06
1.03981e+06
1.04813e+06
1.05331e+06
1.05472e+06
1.04259e+06
1.01753e+06
991724
919872
905827
865130
825039
818705
770260
794540
754725
775373
763175
783959
783977
820116
832755
852677
866043
878106
994239
994276
991942
991726
1.00103e+06
1.00799e+06
1.01428e+06
1.03391e+06
1.04955e+06
1.06626e+06
1.08471e+06
1.09917e+06
1.1064e+06
1.10955e+06
1.101e+06
1.08072e+06
1.04503e+06
1.0256e+06
969662
985360
968021
964999
975586
974673
985710
983470
990276
990573
994504
995914
1.02207e+06
1.01135e+06
994293
983329
960143
955600
940243
925647
921968
914414
914163
913863
920657
931702
942819
953414
957066
957710
952801
946027
940799
941716
937245
941506
938579
944522
939863
945687
942625
942533
686349
693671
687432
702698
699267
714469
713100
730622
732614
743448
749441
756077
760343
764060
774868
768063
773350
780668
786455
796031
806469
816598
819393
821358
816628
811685
800371
802426
791101
791218
791393
791587
789906
792239
788780
792009
786319
802095
794979
817501
821588
829723
835270
835392
763707
770631
772511
769470
776535
772076
780039
778304
783150
784958
791619
792306
795659
791689
791569
783006
780969
775320
789241
802446
799250
832924
858513
860543
878097
884324
883589
885882
889038
890328
872869
874369
870577
870637
862644
843878
831761
821020
799568
773158
742875
754189
695615
720987
682721
697461
692853
707728
706975
716190
720780
723029
722604
723193
721963
719366
713482
714640
710181
711550
732240
727207
723501
716894
707311
699436
695317
688864
682438
680133
673767
668722
664513
662224
657288
665992
662434
688936
684753
709981
727062
751098
762138
773502
775166
772286
765319
754651
750770
740353
682238
675131
679491
677999
682711
675357
679115
674333
675662
667945
676128
675155
681034
679368
671227
671228
661126
648208
654110
637755
638443
647151
649098
655329
655715
656673
664769
668549
677171
682219
705633
725263
716293
735147
738226
752059
764290
764485
785536
782527
792067
796017
800188
797877
791244
785650
774161
766409
752824
753324
738511
739162
727495
730604
715599
715371
705162
702019
703071
703098
719980
724637
728874
723605
759858
753667
794791
790178
824399
824475
821463
830352
833871
832951
846712
872785
888431
888999
905582
900587
890815
874343
870582
855429
861851
851667
885817
888099
913079
953964
1.01433e+06
1.01723e+06
997037
980662
959143
925535
925302
863758
859142
864419
853899
871556
879589
891903
904445
911342
917039
919507
920585
914561
896684
878591
876237
814139
821463
838460
835139
887409
867333
924219
1.05658e+06
1.04008e+06
1.02627e+06
1.01343e+06
1.00484e+06
983814
990269
978237
1.00744e+06
987419
1.00605e+06
1.00276e+06
1.00481e+06
989995
973744
944145
911679
877959
853925
808769
803561
774152
774680
751548
776627
783997
817485
846134
877444
903245
1.03986e+06
1.03392e+06
1.02951e+06
1.02699e+06
1.02868e+06
1.03344e+06
1.04179e+06
1.04521e+06
1.05045e+06
1.04234e+06
1.0265e+06
982262
947171
886304
846715
770278
770064
722470
766893
718938
757363
729877
753436
775593
776014
804460
827609
844401
856976
870225
991618
989916
991355
987047
984706
994772
1.00336e+06
1.01463e+06
1.02901e+06
1.05142e+06
1.0663e+06
1.08473e+06
1.096e+06
1.0967e+06
1.08427e+06
1.06593e+06
1.02665e+06
1.0214e+06
965887
978256
955877
965875
977653
975123
983158
981628
987137
988701
990372
992436
1.0141e+06
996681
996617
974807
967572
947568
949910
921430
915344
911502
899526
901050
910157
919431
931928
942309
949892
952247
944616
944976
940764
937680
940155
939340
945851
943660
948381
946629
947595
945142
692321
690100
691168
706146
698520
718729
715046
730747
733791
744105
748074
755691
759087
762726
758000
764587
765233
768442
779224
787051
795922
802700
807395
806367
808575
800416
803059
792228
794095
788742
787810
789252
795443
792296
796736
793805
795226
802084
804024
823026
827138
838570
837322
845357
777186
770253
778060
774294
775208
781520
779644
786004
787238
792646
793312
798278
796656
793925
789028
788982
786995
789201
799200
787327
823647
845199
855312
879219
888499
888135
890232
888607
887311
887048
878326
873188
871364
860036
847038
843269
815631
820348
783448
766321
748187
736227
701315
714172
678629
696361
695858
693340
705464
704257
709106
711481
715271
714426
713805
710890
713261
709562
709759
714767
733291
731555
721580
715176
706851
697721
693310
687773
690058
684102
684523
670853
674041
662841
663842
657822
670093
678113
685758
710069
739224
756121
773879
783987
782712
775488
765450
761270
749048
743522
684014
688482
684772
687728
679684
677525
675943
682957
680798
688136
678884
679641
682896
680143
677994
665220
661718
656180
640479
637656
639965
637598
647471
649058
652050
661080
664122
673573
679839
689279
721531
717459
724175
735726
731248
748771
769741
767415
776915
788323
788382
791163
792580
792900
784259
778261
768984
758475
752881
747901
736649
737922
730516
728049
720974
721025
714874
712465
707878
706668
721049
720715
726926
733426
730342
768657
762173
792780
772324
792893
785160
765775
766696
785140
784347
797221
826211
846617
827295
842750
839894
835559
829886
846937
840627
866137
859219
890479
886064
912601
969341
955888
962735
957276
919691
923346
862598
853567
845932
839320
852520
856238
873820
888123
900868
909429
918765
920063
921119
903633
898474
865627
806007
802551
799069
800491
828269
820618
856893
813131
1.04111e+06
1.02599e+06
1.01292e+06
994854
977763
977814
955373
961712
963926
983965
971951
985201
983002
975546
955165
930796
897130
871706
837861
784494
806284
741245
746611
750434
742307
767456
799112
845489
884268
901975
1.03152e+06
1.02881e+06
1.02426e+06
1.02527e+06
1.02772e+06
1.03046e+06
1.03616e+06
1.03959e+06
1.0385e+06
1.02884e+06
999081
946109
921318
821415
812624
745360
740411
730631
679438
727295
702187
739285
728816
765494
781300
790167
817733
837683
848143
861640
990535
981818
976237
976076
968944
973553
984398
995931
1.00973e+06
1.02599e+06
1.05164e+06
1.06741e+06
1.08306e+06
1.08376e+06
1.07229e+06
1.06414e+06
1.02343e+06
1.00832e+06
963845
978161
961373
967758
968941
972952
979912
983180
982079
986620
985432
990646
998736
1.00116e+06
985596
985060
964022
952328
947434
914651
921668
890359
897158
888376
894148
902891
916592
929181
938706
936929
940433
939421
934800
935027
939205
943180
943155
949685
951488
956143
956674
959319
690591
697601
699971
706073
703496
721917
715017
735559
731731
743815
747776
754473
757437
760358
753476
751763
759866
767755
769223
781037
786813
795294
802464
806904
798921
802856
793215
794919
791409
792121
796431
794111
788948
791535
787645
788893
790562
806959
808654
824768
826521
830832
836944
839584
798200
777629
774635
782866
785163
782169
790660
787493
795867
792799
799599
798543
799738
802467
803492
797258
794540
794230
793984
805512
837602
841218
870130
883779
885766
888368
887685
886634
883909
882649
860209
863187
858681
850994
848861
831032
812597
813314
767536
781014
727812
741312
700667
715093
682259
694820
682715
689229
687050
692397
694468
698541
701970
705263
704938
707668
707134
708929
717535
715029
742964
738202
732287
719623
710204
700091
692486
697505
685535
689017
682976
684406
671467
672728
659567
658785
673961
675256
687558
722981
740258
764899
781851
787729
785437
777938
763647
754220
748550
736480
692523
697773
699159
690586
692019
691843
691657
686907
690182
687991
695892
699631
689306
690618
687099
671926
655952
658298
641209
631018
639289
636245
639393
651507
650519
660930
669222
677456
688210
693546
718192
721776
719271
727753
732949
740663
752945
773214
770045
776303
787953
783730
782470
784106
781204
775375
763397
759488
751970
744389
740673
735471
729128
728520
725634
724350
722006
718749
715961
707178
709256
719245
717064
727543
734378
736678
769364
754637
781822
749765
767814
762150
749621
756447
795479
798441
792721
814706
845706
836403
845782
843964
840085
826135
841133
839288
865084
850577
878648
830683
921962
923014
919940
884149
900256
851663
845555
835197
831213
826007
846535
860791
862167
889577
897877
911254
918143
919628
910104
900540
865776
799553
791278
775624
753187
757137
785340
821114
798213
850782
1.01287e+06
1.00234e+06
986321
968968
959303
938755
955179
934762
958405
945557
971649
956516
964163
960576
946477
922303
896864
859360
833573
776579
787964
723509
747605
714480
746947
740358
801755
842855
876120
903527
1.013e+06
1.01163e+06
1.00887e+06
1.01018e+06
1.01602e+06
1.0237e+06
1.02617e+06
1.02731e+06
1.02442e+06
1.00182e+06
971260
924887
894595
778035
805421
676799
695471
642058
679644
652548
685399
706921
729350
743388
783252
789542
805338
831668
845430
852467
968389
972175
960104
951281
953071
944787
948891
968507
981564
1.00578e+06
1.02665e+06
1.05377e+06
1.06021e+06
1.06411e+06
1.06884e+06
1.04795e+06
1.02045e+06
1.00634e+06
976940
969465
980111
985389
984218
978677
974935
977837
983910
979158
981429
983489
1.00648e+06
993789
995040
979452
974027
954588
939488
914938
913068
881985
879390
871010
874373
881505
891761
908824
912334
925086
932653
929082
935022
931316
940897
937333
947956
948099
956782
957619
960528
961906
702728
700897
699150
704774
713039
717965
721867
735204
733422
742118
749595
751569
755745
757544
756093
748039
749411
758151
766189
768902
778128
783893
787647
788907
797668
791086
793463
790489
791127
791672
792989
803030
810174
805871
811989
812680
820217
816708
828723
838137
847355
855651
857349
855198
787499
803175
786032
783578
786784
792750
790707
798746
795291
801167
799604
802464
805913
802647
797180
798488
795118
792306
810158
819322
827151
853108
870545
876379
883834
883902
883004
879356
877933
876552
871443
866143
856389
848314
840115
834617
809897
810680
762964
776296
727039
745544
703027
718895
693590
691751
692185
683439
690385
692757
698372
698260
699044
700332
703938
705254
706795
716760
716061
722759
754121
751136
737651
728652
719575
713207
705463
695604
703914
694387
696069
685263
685164
670291
673419
668587
668340
675067
702655
721421
744027
767823
782347
785069
781129
772550
761992
748455
746110
739256
707750
702387
701087
701439
695682
694744
691951
694293
692634
696064
699551
695942
704260
694980
684764
684382
665240
651277
642164
637152
631019
629221
641191
647509
650633
664014
670810
683327
689379
696451
719480
716666
720914
714852
726443
729418
735871
749491
770170
768155
775545
784784
776017
770502
768611
766708
763400
759059
750438
748495
740848
731440
734416
729013
730508
728660
727682
726714
721501
712762
708149
705841
716077
707039
722131
735056
735287
762112
736868
759086
724981
737252
747985
754041
745322
775807
796493
789856
798208
819688
812207
815591
807233
812522
807371
810151
807386
809039
787320
813592
931827
918876
873061
890884
848305
842615
830975
818386
807222
819334
838034
850252
875803
879077
902585
909048
914076
903156
903362
863622
793722
765911
725630
692306
703446
752797
742064
775510
812598
790268
972565
974629
967464
957286
933214
923461
905358
935637
940193
950741
945032
956930
964519
964522
947353
923037
895380
851876
836868
761882
763052
722170
708648
695187
726725
740133
789264
833255
861959
892236
982430
987340
988445
994997
1.00055e+06
1.00597e+06
1.00866e+06
1.00779e+06
999383
977256
960784
907837
877981
779145
793387
662152
700831
663906
657803
673826
676223
707623
732322
743613
777547
799241
802022
847120
842876
868633
941831
944852
950209
937988
932185
931614
925766
935073
959989
987040
1.00919e+06
1.03202e+06
1.05317e+06
1.0654e+06
1.05136e+06
1.03257e+06
1.02803e+06
1.01033e+06
994364
1.00198e+06
983983
975826
981566
990147
988708
982473
980813
987092
982037
986644
1.00486e+06
1.00601e+06
991989
990359
978611
963179
940938
919264
911565
870544
881255
861299
865280
867797
887306
887969
904686
913374
916601
925585
928651
930366
934032
939663
943400
950570
953319
958442
958536
964775
699476
703564
703077
715859
713579
720413
729827
731184
737181
744324
746858
752035
751604
752721
734907
725271
743844
741907
741355
744216
754389
768781
768775
783880
783930
793728
792861
794628
797256
796100
801248
805983
803849
800223
799733
812713
808125
812102
808407
821048
830761
836858
840622
842009
843330
846645
831432
835872
830185
797897
807873
791130
791625
792515
801058
798236
804824
802373
800982
808132
809309
807009
816529
807865
808976
805998
804597
816796
834908
851324
860780
871109
874042
874463
874166
875860
872331
868686
864337
856954
858318
852488
847814
843609
836243
834965
809634
810434
762004
776620
733137
747294
716040
710856
703783
702393
687629
698292
686864
696100
691769
697537
697476
700189
701496
700945
713361
713554
726497
735220
747360
758006
760025
755848
748457
736791
727401
720123
717104
713069
703695
706214
696174
693076
683143
682007
670324
676317
668310
687680
704836
721116
743234
764902
775210
779644
775035
764056
754335
739629
728262
718413
706059
696322
716029
709555
703923
701429
699657
693881
695210
693273
696395
701306
700076
706556
705860
709455
706255
689362
678120
659192
642940
636109
627325
630772
637471
645549
655380
662658
674151
682299
690451
694477
687739
679092
694860
698661
701896
712991
702730
721617
725102
733129
748340
764416
757023
763575
775491
768173
763827
763283
764513
757000
754023
749759
737302
736235
729824
730903
729529
729833
730542
726387
715690
699837
632866
680419
675881
692319
695354
709174
700808
723837
734231
734706
750536
745466
730294
733333
736636
748749
756107
782852
780644
797506
815959
815585
825427
830640
814475
816029
814393
798386
753011
744582
778193
762489
577201
701663
699820
756830
854259
821072
827895
818148
811739
789104
801081
819240
834002
845441
867833
887207
891667
901985
890379
895667
857356
792206
769646
734609
697167
702208
704470
718828
747071
762924
796030
810189
825460
775628
900177
926050
926115
901998
889053
890287
906079
910768
933818
936817
950616
955775
972489
970695
957772
919216
897998
841955
833176
736912
768347
692337
712876
684316
722050
728776
778985
813018
844566
872818
856276
829050
921246
943406
969297
975763
981008
992129
1.00407e+06
998628
979260
965055
951914
896935
893629
796858
809092
686530
718511
664729
678722
696104
705606
721737
755723
769517
800800
809756
838832
849394
861394
876268
871977
821994
931522
947580
933243
930347
897910
894109
896551
902351
903530
962408
989677
1.01504e+06
1.03042e+06
1.03543e+06
1.03453e+06
1.03731e+06
1.0312e+06
1.01294e+06
1.0215e+06
1.00068e+06
1.0002e+06
997379
989320
982403
988306
993956
989421
977576
976210
985408
983532
994341
1.00905e+06
1.00616e+06
1.00955e+06
991376
989607
972965
953360
917093
922738
862950
876797
845310
848979
849876
853781
865343
889672
900191
910611
919021
925860
921287
937414
931264
947023
944426
958613
956528
970493
971243
980031
983841
706327
705650
712556
713232
719593
725899
734095
735486
740639
744705
746699
749253
752722
752002
740009
739633
751058
735747
736907
751838
748848
765831
765137
776098
782739
787711
792379
795639
793301
797056
796448
806602
817913
829364
837277
822995
826620
828112
847926
856484
860732
866136
875988
879274
876228
879615
853628
848281
830257
822566
793123
802692
792041
801168
800307
807921
806349
803981
811604
807371
808447
823979
807331
814448
810719
814068
802919
826654
830584
843620
853125
861462
866638
872030
873982
871424
868458
867871
862144
853552
853875
846810
844861
841659
837072
833492
817447
799817
773773
776232
737256
751500
727183
731746
715793
711619
707212
693850
704359
692911
700121
695485
700899
699524
700157
702686
713723
717502
728958
737925
750282
758638
764012
761404
755029
747127
742719
732935
724323
720004
717140
709525
708244
697945
695735
685245
686033
675659
680380
692310
704855
718533
741780
755003
766514
768695
766537
762763
752451
740566
731153
713847
706519
697398
713759
709447
707940
697644
698006
694673
691381
693615
699601
698168
706751
710300
712136
712589
709025
701744
685933
671561
657231
638765
640828
636608
641288
643589
658422
662380
671273
678092
680220
682645
678831
681411
690015
697421
695707
693133
707742
695396
713669
715437
714369
718478
734185
726761
734463
754294
756429
748763
752008
749651
750677
738119
737791
728788
729399
724223
723521
721918
721123
720867
717167
704496
683963
678209
682426
677105
690285
687674
701385
705550
724623
732034
760906
745995
745590
757568
752907
754586
764979
771564
789528
807092
821851
837792
836451
830260
827634
805425
800172
789917
769000
744212
702936
674475
671808
707782
786785
815670
838471
843443
817368
822138
792336
804397
799490
800161
836721
845882
854164
876862
882795
873459
895207
862632
800248
801725
740946
704214
710297
668839
685428
720342
729353
772994
799255
828998
823910
839615
884606
895000
890370
882709
873166
881259
886918
913633
917754
934292
948884
964581
982609
975782
955230
924160
897090
824006
828565
729000
757565
680127
717730
681852
711950
728019
765178
811661
848076
901885
885571
872854
914721
940416
945678
968491
979130
978221
975097
974810
978009
963201
947001
926368
900669
843999
815362
729195
714798
660501
670294
674210
701465
749411
756492
790563
796672
822009
847494
885333
904506
931286
924413
901369
953998
944052
925276
914777
902540
886927
883869
902111
887224
941848
968458
994902
1.0206e+06
1.0337e+06
1.03955e+06
1.04237e+06
1.03289e+06
1.04084e+06
1.01987e+06
1.0145e+06
1.01735e+06
1.01263e+06
1.00565e+06
1.0023e+06
994297
995241
1.00034e+06
1.00197e+06
994447
1.00752e+06
1.00308e+06
1.00509e+06
1.02437e+06
1.01222e+06
1.01509e+06
1.01352e+06
990946
982552
961473
941460
914130
885003
873374
861078
844163
858920
861472
859946
888899
888664
906090
911717
917336
923187
926334
933140
938777
942529
956294
956233
963424
969939
978930
982970
704726
709732
713938
716789
726919
730617
737317
738369
743588
744749
746994
748675
748261
751034
739104
738718
750920
742576
741236
753270
749517
766134
758783
778847
776835
789855
797487
801458
811188
813958
821569
822957
828530
831630
832099
851240
848284
860630
854486
855622
863414
876657
878100
884098
885414
881618
870415
853544
836171
820528
809298
791454
799568
796450
807325
808947
810075
817909
814130
813776
832126
821107
834876
826098
817614
813851
811221
821519
835908
834237
854477
853982
862397
862674
864097
865683
868281
864736
860262
853685
847544
838800
841081
839655
838680
832198
822354
797692
794487
766770
758296
749684
733175
733712
721902
726732
716326
715708
701340
708831
698518
704324
699889
702812
706495
701823
716925
717869
736110
739829
752888
757578
763035
762095
760687
757204
746526
742985
735412
726390
720608
717544
708266
704814
698085
693688
683800
687887
690788
692614
704417