/*--------------------------------*- C++ -*----------------------------------*\
| =========                 |                                                 |
| \\      /  F ield         | OpenFOAM: The Open Source CFD Toolbox           |
|  \\    /   O peration     | Version:  2.1.1                                 |
|   \\  /    A nd           | Web:      www.OpenFOAM.org                      |
|    \\/     M anipulation  |                                                 |
\*---------------------------------------------------------------------------*/
FoamFile
{
    version     2.0;
    format      ascii;
    class       volScalarField;
    location    "0.004300000";
    object      Tu;
}
// * * * * * * * * * * * * * * * * * * * * * * * * * * * * * * * * * * * * * //

dimensions      [0 0 0 1 0 0 0];

internalField   nonuniform List<scalar> 
12384
(
1066.7
1057.86
1033.75
1039.14
1019.3
1037.79
1017.47
1044.44
1034.17
1075.39
1132.31
1185.01
977.212
414.2
383.03
504.412
534.621
511.644
496.973
474.872
465.579
462.075
460.957
458.88
455.193
455.593
453.881
464.92
466.686
491.611
504.61
533.997
556.71
578.416
598.31
621.396
657.631
675.723
626.697
614.319
607.76
549.706
464.029
443.221
468.08
431.865
380.176
358.922
361.015
376.079
392.455
409.964
436.719
449.955
481.069
492.504
504.904
511.809
516.016
516.024
522.176
524.749
537.976
561.65
551.789
511.672
558.168
735.086
772.702
784.358
733.977
659.477
556.269
484.105
371.97
382.06
400.576
420.37
435.138
441.427
442.155
407.564
402.1
393.45
323.157
347.677
270
298.186
270
283.286
270
294.354
290.653
284.099
271.028
270
270
270
300.312
312.785
306.773
307.448
296.08
295.669
336.763
303.315
279.78
270
270
270
270
270
270
270
270
270
270
270
270
290.122
270
347.676
367.533
412.341
444.056
441.791
411.489
394.166
396.395
387.034
379.584
366.939
362.503
349.384
270
270
270
270
270
270
270
270
270
270
270
270
270
270
270
270
270
270
270
270
270
270
270
270
270
270
270
270
270
270
270
270
270
270
270
270
283.321
271.862
280.157
270
273.813
271.438
274.856
275.156
275.122
274.003
270
270
270
270
270
270
270
270
270
270
270
270
270
270
318.694
298.289
286.493
270
334.407
421.795
431.655
488.328
506.528
527.882
555.571
579.364
583.436
579.469
570.126
569.584
564.001
565.145
551.445
550.013
531.484
520.391
507.689
497.947
485.65
498.366
519.755
563.899
594.958
607.906
607.353
598.987
527.323
490.633
538.316
524.646
465.362
446.003
425.275
404.031
398.752
409.25
417.147
422.059
425.974
428.417
426.594
424.093
415.983
414.019
394.948
385.456
376.833
363.873
333.389
367.42
341.947
395.424
377.65
480.665
615.489
669.53
703.119
682.586
674.336
661.624
660.341
665.175
659.581
668.543
659.203
652.295
629.736
603.427
569.814
536.85
500.554
470.112
434.866
421.008
390.211
393.997
378.91
374.98
395.309
412.663
461.504
512.977
519.505
528.326
357.386
495.116
504.91
492.009
490.992
488.615
495.263
498.928
504.65
510.724
507.299
503.601
483.013
450.398
448.923
395.839
401.091
344.387
346.452
288.891
292.441
270
270
279.741
288.586
309.351
339.051
354.267
345.761
327.806
270
270
445.873
459.957
459.964
482.045
479.391
496.747
505.164
515.098
522.769
527.556
530.966
527.008
521.089
504.512
490.584
477.299
440.167
450.521
422.079
439.627
433.068
443.916
447.595
406.779
325.119
418.721
418.741
401.216
280.389
415.778
472.759
439.647
378.027
301.436
270
270
270.851
305.279
331.258
349.092
369.762
381.12
401.767
397.763
401.216
381.283
371.542
340.556
333.951
316.095
308.126
270
310.582
310.793
359.053
369.172
358.311
342.089
921.767
915.813
887.2
897.786
891.291
925.052
931.757
968.989
974.948
1009.54
1062.17
1160.5
1047.6
507.961
379.01
531.172
484.442
412.563
371.195
353.22
357.327
367.109
379.415
392.219
403.418
412.641
417.951
428.916
430.349
448.712
460.84
483.481
511.873
538.461
565.195
591.749
626.777
655.553
660.434
632.037
614.741
604.401
521.653
453.427
453.908
359.66
290.922
292.783
323.604
378.366
407.439
432.189
449.885
469.93
480.638
497.067
503.953
507.992
510.95
515.823
526.034
531.189
553.271
567.079
557.171
536.232
529.141
571.774
620.48
718.38
801.028
798.829
669.565
508.256
391.165
428.088
466.253
483.479
489.3
480.143
466.347
450.44
415.425
409.873
369.33
341.451
329.433
300.758
302.735
295.952
317.088
322.523
327.542
317.816
297.719
273.208
270
270
274.299
305.459
304.101
307.362
295.094
292.11
270
270
270
270
270
270
270
270
270
270
270
270
270
270
270
270
278.19
329.822
353.521
379.169
404.291
429.516
433.676
418.945
394.1
385.937
393.657
393.423
382.94
372.108
270
270
270
270
270
270
270
270
270
270
270
270
270
270
270
270
270
270
270
270
270
270
270
270
270
270
270
270
270
270
270
270
270
270
270
273.114
270
270
270
270
270
270
281.01
287.059
287.104
283.152
275.171
270
270
270
270
270
270
270
270
270
270
270
270
270
313.588
270
270
290.204
390.194
395.53
415.017
401.347
428.791
449.901
474.534
493.34
499.861
485.65
474.062
468.363
479.132
487.319
501.942
503.915
502.131
494.036
486.192
483.778
495.928
498.49
516.638
559.406
584.496
613.02
567.018
433.689
484.055
511.236
525.686
495.321
465.702
414.806
393.525
399.529
392.165
396.024
417.327
428.278
435.966
439.96
439.483
434.072
425.796
418.648
395.722
395.426
376.057
353.699
346.54
364.377
368.082
396.526
372.137
423.108
627.168
682.814
678.088
652.231
636.736
627.137
610.137
597.588
581.809
571.601
555.203
528.88
494.698
451.688
404.976
365.221
318.759
287.805
270
270
270
270
270
270
270
281.997
360.907
447.568
519.815
526.464
360.541
508.768
511.517
490.593
480.645
470.295
478.157
488.817
489.391
503.869
491.047
483.195
468.245
430.744
420.184
376.221
361.036
329.232
296.014
277.573
270
270
270
270
270
285.77
314.06
343.352
352.742
340.859
270
365.628
458.987
465.529
470.107
480.749
469.437
480.47
475.689
479.144
478.63
484.111
485.331
486.43
481.906
466.556
444.244
430.927
394.982
400.895
398.739
414.133
426.743
437.195
451.95
434.558
337.504
358.02
426.989
418.983
314.033
450.623
462.941
401.454
336.083
270
300.575
366.58
417.172
458.528
473
488.438
502.484
509.674
521.361
526.284
530.666
523.398
521.086
498.38
496.432
472.052
466.156
437.4
423.868
335.65
298.957
350.348
371.257
364.402
852.755
806.5
749.369
738.671
730.947
789.782
835.667
902.372
936.178
960.431
997.541
1106.75
1076.08
591.201
394.383
513.314
381.8
331.427
332.997
351.189
381.759
417.496
453.385
485.72
510.026
528.544
540.391
556.561
560.917
579.82
584.663
596.586
599.034
598.567
594.506
595.479
605.459
639.204
661.95
657.588
629.282
623.054
570.127
469.255
434.171
317.167
279.998
291.648
366.136
439.196
445.248
446.219
447.701
446.139
448.635
448.422
451.132
447.313
447.861
448.229
461.422
482.106
518.712
537.792
560.055
550.922
517.928
528.313
529.846
559.85
682.809
821.831
787.133
551.487
418.078
466.505
486.81
490.09
484.73
476.852
464.266
439.763
421.907
414.982
349.683
357.275
343.735
294.722
312.034
316.764
316.194
329.501
333.509
329.46
311.94
287.421
270
270
270
285.574
299.653
300.503
294.488
290.378
270
270
270
270
270
270
270
270
270
270
270
270
270
270
270
286.29
308.531
359.814
375.09
383.64
392.806
410.555
430.327
433.717
434.067
418.198
406.683
410.73
409.235
376.292
270
270
270
270
270
270
270
270
270
270
270
270
270
270
270
270
270
270
270
270
270
270
270
270
270
270
270
270
271.505
270
270
270
270
270
270
270
270
270
270
270
270
276.891
282.124
290.394
290.529
278.041
270
270
270
270
270
270
270
270
270
270
270
270
270
270
300.167
270
270
332.865
391.691
349.173
374.875
366.768
401.032
446.359
484.449
501.97
497.268
479.767
452.278
429.412
416.411
428.603
447.816
476.452
493.989
484.122
495.73
494.682
506.641
513.732
524.316
568.413
590.019
607.892
458.098
466.823
486.75
504.46
490.916
474.106
429.376
393.46
373.123
362.772
370.107
375.116
389.37
415.204
428.731
439.587
440.34
434.708
419.37
408.871
392.105
378.614
340.852
359.861
335.424
369.803
352.837
404.588
344.88
379.733
642.066
680.081
655.587
638.04
623.567
605.778
592.361
556.771
526.883
499.695
474.284
440.828
400.883
363.017
333.547
302.505
273.966
270
270
270
270
270
270
270
270
270
270
361.76
475.273
531.487
409.904
518.309
505.136
479.228
466.648
455.207
460.495
472.164
477.052
489.075
479.962
470.676
445.349
408.641
380.78
343.462
321.815
293.836
281.397
270
270
270
270
270
270
270
275.324
315.286
343.364
343.997
270
427.059
467.863
469.982
468.671
464.496
456.703
456.513
446.364
447.668
448.333
455.386
465.703
476.824
477.154
465.237
443.155
419.864
392.829
383.653
369.028
395.826
412.859
432.839
455.872
451.351
388.217
325.03
417.28
430.06
358.064
459.843
437.589
348.379
299.233
343.572
416.598
467.158
491.561
494.686
490.699
495.235
498.513
508.388
517.384
525.91
532.689
532.86
532.432
521.586
512.674
493.849
478.714
455.13
451.201
432.744
366.461
280.101
360.971
380.406
758.367
688.498
621.483
603.746
595.614
637.62
680.468
789.539
871.947
925.135
958.945
1053.31
1080.18
665.175
450.546
417.701
311.954
312.623
343.236
385.1
427.146
463.083
495.096
518.121
536.195
549.392
565.811
583.278
618.402
646.216
683.938
711.765
726.211
715.129
682.941
643.697
618.093
632.994
654.507
673.267
647.799
638.895
594.988
491.885
419.757
306.68
289.3
312.513
400.948
439.49
410.801
392.241
388.367
391.478
394.609
402.697
401.614
403.912
399.027
398.755
400.219
420.049
439.778
497.015
546.976
536.489
536.637
534.424
520.004
530.968
595.387
751.372
810.278
598.446
446.858
477.248
483.764
480.323
480.373
471.086
437.372
423.63
400.918
365.384
335.556
351.444
309.363
311.02
310.612
308.217
326.322
324.91
330.083
326.322
314.81
292.274
270
270
270
270
280.851
282.97
286.951
294.31
270
270
270
270
270
270
270
270
270
270
270
270
270
270
291.931
337.558
373.813
403.62
426.856
410.113
410.918
411.809
433.745
446.45
447.513
429.362
410.383
410.438
420.402
403.617
270
270
270
270
270
270
270
270
270
270
270
270
270
270
271.44
276.904
273.834
272.248
271.233
270
270
270
270
270
270
270
270
274.924
278.194
274.984
270
270
270
270
270
270
270
270
270
270
270
287.007
303.016
310.398
298.39
270
270
270
270
270
270
270
270
270
270
270
270
270
270
270
275.162
270
284.392
359.996
336.865
346.1
337.562
392.293
439.685
475.938
501.971
509.043
502.684
486.395
460.793
421.639
389.713
382.686
407.76
456.838
475.938
486.142
488.457
492.416
493.586
520.532
530.127
556.52
598.461
601.842
427.374
472.565
483.961
476.273
469.918
435.07
404.377
395.582
347.344
344.342
346.254
364.208
369.436
395.456
421.425
435.93
438.361
423.664
402.796
384.063
389.792
395.659
405.732
390.869
372.725
323.93
373.528
365.172
344.796
302.755
651.79
673.634
651.209
634.584
617.477
602.451
579.658
553.216
484.525
460.983
428.386
399.234
370.444
349.249
327.998
315.969
318.495
328.222
331.732
332.455
318.633
319.604
292.791
289.942
270
270
270
283.205
423.913
530.553
451.12
527.145
505.316
492.079
471.628
453.722
455.477
470.661
475.759
485.685
471.46
456.48
409.431
363.363
359.033
317.785
284.953
270
270
270
270
270
270
270
270
270
270
275.933
322.767
340.297
326.072
456.765
472.994
466.961
467.059
459.624
453.004
449.734
441.121
430.594
429.973
439.476
458.424
481.746
482.329
458.84
465.227
456.232
415.085
406.614
366.449
372.569
404.012
427.891
459.779
461.619
423.01
334.954
379.449
443.096
375.797
456.637
392.177
304.927
357.346
432.122
483.362
498.6
495.269
489.528
486.245
485.49
492.161
501.383
509.03
516.813
519.703
524.217
526.563
525.775
520.775
506.8
476.598
443.233
421.781
431.761
415.759
332.75
356.893
413.481
699.764
622.875
564.664
569.255
566.322
586.062
603.757
683.446
783.379
880.807
928.945
1015.49
1072.88
715.697
514.577
334.799
295.855
304.352
341.301
385.431
421.105
447.091
460.007
469.014
473.377
481.546
494.116
535.685
581.88
652.778
725.961
784.68
806.716
801.238
768.428
712.846
651.214
644.448
648.815
679.033
664.47
645.722
615.2
504.561
403.728
321.093
303.347
336.068
409.057
409.627
369.544
364.411
363.58
373.94
379.284
390.553
396.589
401.179
401.343
398.064
393.149
393.321
418.327
459.943
489.622
536.411
548.244
528.641
529.152
525.48
545.549
670.722
812.583
628.417
445.807
471.263
475.016
483.496
479.95
453.927
420.742
388.295
364.771
341.425
331.522
350.026
310.514
338.957
309.169
320.821
318.842
327.71
316.447
316.923
306.952
289.361
270
270
270
270
270
270
270
289.654
270
270
270
270
270
270
270
270
270
270
270
270
311.812
360.017
401.277
444.133
457.998
487.927
466.456
456.782
435.284
435.091
443.811
463.763
473.426
462.075
430.927
415.053
425.106
398.375
270
270
270
270
270
270
270
270
270
270
270
270
274.307
288.552
294.786
305.999
302.204
292.86
300.944
281.692
282.418
287.962
285.212
280.68
272.602
270
277.566
285.028
293.477
281.852
270
270
270
270
270
270
270
270
270
270
281.893
308.166
339.43
346.807
315.762
270
270
270
270
270
270
270
270
270
270
270
270
270
270
270
271.875
270
319.83
329.924
341.534
317.048
372.611
410.27
460.223
473.804
467.391
472.955
468.605
456.108
444.844
418.803
368.438
343.938
375.82
438.811
463.815
469.796
472.092
467.016
477.114
488.753
535.199
554.623
579.871
605.851
437.84
482.612
464.284
456.136
434.198
413.966
415.14
368.08
359.28
357.312
341.701
349.29
360.025
384.042
415.345
433.537
434.648
410.176
390.587
429.005
449.791
456.292
459.615
418.183
416.779
413.265
322.808
366.208
294.559
290.237
653.275
667.339
653.38
651.961
630.041
587.393
567.754
527.745
473.834
417.621
403.379
372.507
352.554
337.519
347.029
383.855
397.26
398.653
401.995
377.76
389.298
365.737
353.55
309.452
298.744
283.387
270
270
372.2
519.008
471.927
531.461
516.661
503.032
475.78
454.893
458.993
470.158
479.098
478.018
452.295
418.807
403
396.319
355.814
312.025
298.85
270
270
270
270
270
270
270
270
270
270
270
294.746
329.996
363.634
468.549
476.008
468.686
461.943
466.446
467.78
461.296
445.94
428.851
413.933
421.131
450.144
478.221
474.722
451.94
463.523
472.983
428.328
413.675
368.703
374.726
405.767
431.013
463.273
471.552
449.666
389.765
334.914
452.904
383.965
443.12
349.61
347.07
423.856
479.07
514.18
497.375
489.465
488.574
482.213
487.48
494.399
501.981
508.875
512.036
513.793
513.121
511.717
519.736
523.348
514.771
486.078
435.659
403.95
412.948
429.128
375.245
335.936
425.477
675.163
583.324
557.461
583.947
582.346
600.962
595.293
632.941
713.683
828.743
899.159
986.388
1063.61
755.548
514.506
328.26
304.176
290.397
322.283
365.939
398.848
418.945
429.194
431.089
432.154
430.891
451.859
487.485
566.188
660.883
756.321
805.887
819.126
811.648
800.375
752.784
687.566
656.206
656.061
685.463
675.319
659.984
628.146
526.128
423.715
341.527
319.919
352.643
399.555
385.551
354.944
357.653
355.951
369.568
378.901
406.105
426.11
442.446
447.799
437.812
414.557
400.981
417.065
422.065
483.684
525.733
531.461
538.477
534.669
519.446
529.755
631.244
788.448
638.688
458.433
475.625
482.864
484.523
471.96
446.186
381.362
361.043
335.041
334.061
346.735
349.013
334.731
356.48
327.063
341.346
332.503
322.501
319.859
309.031
298.128
282.922
270
270
270
270
270
270
270
282.288
270
270
270
270
270
270
270
270
270
281.74
325.851
373.717
429.474
472.664
496.632
502.673
517.204
515.911
500.869
487.505
470.931
457.404
465.269
482.519
489.9
473.035
434.161
419.404
422.215
401.77
270
270
270
270
270
270
270
270
270
270
270
270
297.395
310.299
322.808
321.136
328.418
328.441
312.383
307.499
306.499
300.599
304.641
298.504
290.545
291.411
292.162
303.525
306.461
294.253
270
270
270
270
270
270
270
270
270
278.947
300.763
338.691
363.523
367.769
329.11
270
270
270
270
270
270
270
270
270
270
270
270
270
270
270
270
270
303.416
330.957
301.854
339.208
370.106
434.753
436.312
452.108
444.94
415.887
412.05
422.698
407.296
375.201
326.123
308.463
311.578
395.743
436.083
454.155
470.619
503.652
506.075
530.094
528.509
562.679
566.133
571.749
415.533
434.169
435.943
433.439
414.675
425.207
388.031
377.808
364.414
348.456
348.781
338.003
348.127
376.649
413.128
433.711
429.684
402.351
415.995
452.256
469.222
450.306
411.547
416.183
426.742
415.405
378.708
305.53
297.531
270
644.835
665.471
673.354
684.929
645.673
596.911
543.395
506.697
430.593
402.196
369.608
352.289
333.982
337.748
408.277
424.173
425.591
434.045
430.573
407.535
444.894
376.076
351.782
307.537
279.642
276.054
275.754
270
345.642
510.499
478.525
536.094
530.878
518.799
481.405
454.512
455.585
468.268
473.945
464.66
423.048
419.258
397.326
370.887
333.316
324.927
300.008
270
270
270
270
270
270
270
270
270
270
270
270
317.297
386.009
471.28
468.825
468.028
466.743
477.468
487.147
485.265
468.47
440.351
414.459
401.074
426.89
466.411
472.53
446.948
440.801
457.372
421.695
413.326
371.775
377.436
401.451
432.529
467.224
485.38
474.599
435.751
336.922
450.76
382.998
433.721
311.134
400.732
463.969
508.995
514.158
494.4
495.395
483.611
493.935
495.057
503.949
509.073
513.731
515.534
512.319
502.663
503.145
508.187
514.587
517.537
492.863
430.289
379.62
394.889
424.385
385.837
344.915
441.338
657.392
578.94
578.771
621.504
644.134
661.308
622.172
639.492
676.471
781.16
864.736
955.324
1050.7
795.988
508.634
378.798
379.922
302.638
301.682
344.93
379.636
403.915
418.837
423.446
415.663
419.253
425.813
474.328
564.961
688.802
780.777
792.208
779.088
772.958
762.248
734.091
685.315
663.739
662.444
687.239
676.36
655.935
634.993
531.811
460.339
392.113
320.909
367.378
397.127
377.793
355.161
347.411
360.981
372.621
394.255
416.164
446.39
480.69
503.255
504.593
481.784
431.81
393.949
422.899
474.915
497.989
528.713
534.094
525.585
512.996
515.203
605.38
777.331
638.86
452.288
472.702
478.405
481.262
476.427
420.707
358.554
332.507
316.827
343.974
334.123
360.363
339.85
363.422
336.301
342.729
323.716
315.891
301.642
293.928
282.472
270
270
270
270
270
270
270
270
274.3
270
270
270
270
270
270
274.631
305.102
327.317
373.77
417.452
474.414
491.07
507.748
506.888
511.636
533.126
517.447
507.335
505.963
482.99
479.187
487.864
500.466
504.925
482.611
431.751
411.335
420.678
388.634
270
270
270
270
270
270
270
270
270
270
272.036
300.497
315.577
333.075
348.31
346.779
349.409
366.556
350.455
333.749
333.356
320.132
314.297
320.164
309.17
309.607
313.266
320.447
323.764
302.067
270
270
270
270
270
270
270
270
270
284.641
324.647
349.262
364.897
368.757
345.203
270
270
270
270
270
270
270
270
270
270
270
270
270
270
270
270
270
305.653
323.692
310.793
319.555
397.222
419.666
453.871
421.592
427.944
422.23
395.759
390.472
416.414
390.144
299.778
274.771
324.71
396.25
441.829
477.542
501.123
501.607
510.078
499.496
524.034
521.399
556.402
497.953
385.763
415.416
400.572
386.274
411.811
391.967
389.695
374.218
359.336
346.46
350.181
344.9
329.527
371.643
412.275
435.769
422.782
395.872
426.737
454.962
437.899
390.539
394.354
396.327
382.796
407.014
369.743
309.444
270
270
625.695
663.093
698.946
723.064
679.932
596.109
547.355
482.297
418.562
367.613
365.437
330.946
311.361
382.959
423.157
423.977
424.496
412.58
402.255
370.916
375.055
299.654
270
270
270
270
283.141
277.364
313.321
496.918
475.941
536.692
545.624
528.172
479.844
452.037
447.056
459.449
460.476
437.892
408.91
409.42
374.594
330.941
324.112
290.617
270
270
270
270
270
270
270
270
270
270
270
270
270
305.42
384.851
469.278
462.781
461.946
479.104
487.127
495.496
500.068
492.085
472.68
430.38
394.742
387.351
434.45
477.067
453.172
412.788
413.018
394.723
375.979
384.653
404.324
425.637
449.586
476.554
497.668
501.391
468.603
375.742
442.474
393.456
415.297
344.399
431.005
498.916
517.596
509.747
498.709
498.641
494.59
507.027
513.471
516.584
516.201
515.221
514.528
503.895
500.845
497.117
494.068
508.586
515.542
505.286
424.692
363.527
368.312
392.948
361.196
366.153
450.842
665.199
575
588.31
657.821
724.608
745.162
697.743
685.729
697.786
769.757
846.55
925.605
1037.79
825.257
476.397
493.784
535.639
387.917
302.383
315.507
354.426
380.836
396.902
403.463
411.094
405.39
416.533
461.037
565.27
706.32
775.098
777.709
748.282
724.278
723.53
713.649
689.849
667.838
681.681
701.046
691.355
675.63
657.245
556.697
469.314
447.004
343.282
369.271
396.684
391.262
360.608
362.006
364.929
373.454
378.461
396.247
429.304
464.954
492.947
510.643
506.871
475.689
435.752
427.547
444.712
489.855
514.124
516.878
513.647
496.668
500.66
594.121
762.686
626.515
469.525
477.067
477.986
481.175
469.293
418.309
345.479
314.875
305.627
331.175
329.238
353.336
333.01
348.848
329.782
324.941
314.271
299.534
293.063
285.709
279.341
270
270
270
270
270
270
270
270
289.674
270
270
270
270
295.239
331.808
350.751
370.673
402.674
435.113
475.882
488.882
499.005
497.283
506.627
508.631
504.068
498.757
503.712
492.372
486.262
492.36
504.448
513.032
503.196
468.298
424.418
410.08
420.207
379.29
270
270
270
270
270
270
270
270
270
270
279.471
304.851
342.671
347.196
358.361
378.458
388.401
392.157
388.84
378.928
352.758
330.559
329.532
328.048
322.066
327.558
328.473
338.359
329.918
305.507
270
270
270
270
270
270
270
270
285.603
304.495
331.967
355.271
356.909
358.93
346.974
270
270
270
270
270
270
270
270
270
270
270
270
270
270
270
270
270
276.553
296.794
296.599
320.377
361.299
429.197
421.421
440.134
413.072
408.86
398.01
390.931
372.057
371.483
306.901
270
291.952
397.647
441.279
484.477
495.745
483.611
433.21
391.118
371.976
389.263
412.298
471.152
401.417
398.778
366.73
392.116
386.157
398.051
387.501
364.355
339.415
341.645
346.046
339.57
334.499
358.89
417
434.044
411.765
382.076
426.253
416.883
368.025
358.181
338.342
324.421
363.68
408.956
373.169
270
270
270
599.516
660.598
729.219
760.451
704.473
623.255
519.519
483.858
408.977
371.221
348.501
326.738
306.683
398.985
417.553
406.555
394.392
367.841
354.181
310.494
276.579
270
270
270
270
270
278.312
270
301.339
484.547
462.038
538.985
560.86
544.201
480.732
440.572
431.007
440.14
435.03
416.836
407.961
387.365
359.627
320.521
314.35
273.485
270
270
270
270
270
270
270
270
270
270
270
270
270
315.179
378.579
455.265
464.28
468.725
483.211
503.236
504.506
509.446
510.556
503.698
470.012
408.847
367.328
395.608
449.685
455.203
441.682
416.659
399.839
406.112
399.67
410.078
438.452
472.555
498.376
513.191
516.308
499.835
401.251
444.311
395.545
409.703
371.325
464.577
515.912
527.454
511.506
507.938
506.625
504.881
524.362
521.288
523.677
521.051
524.204
510.337
507.876
500.054
487.987
489.861
497.848
512.847
511.915
439.281
346.681
338.81
342.861
336.803
384.896
402.769
661.695
576.451
594.294
692.867
793.253
857.609
830.984
790.023
781.778
820.414
864.483
924.329
1027.77
847.034
852.796
630.76
513.903
724.966
775.102
575.232
343.846
310.607
327.876
360.052
373.97
393.328
402.475
405.463
413.784
451.568
558.509
704.577
777.23
758.389
711.631
689.039
673.388
672.561
662.324
670.113
693.783
703.08
683.767
666.918
658.505
583.755
537.36
562.418
537.466
437.225
374.157
380.426
396.194
398.49
377.882
365.55
367.869
364.015
361.916
377.762
399.659
436.04
486.883
502.772
500.157
476.788
450.509
427.485
438.115
468.819
486.879
496.338
487.348
475.539
489.935
608.913
735.896
548.807
478.857
465.879
464.248
457.262
464.753
476.22
467.769
424.61
345.631
307.955
290.16
315.942
313.577
339.523
323.279
319.242
318.434
308.25
292.335
292.248
275.597
275.115
270
270
270
270
270
270
270
270
270
292.36
338.957
297.771
270
270
270
270
333.879
374.228
400.89
419.568
431.07
457.802
472.953
483.049
483.338
488.447
482.996
487.56
475.976
482.096
483.304
479.564
489.187
503.947
513.359
510.444
483.816
439.488
415.624
409.903
392.744
335.57
272.445
270
270
270
270
270
270
270
270
270
270
270
279.65
320.446
346.997
367.31
386.947
394.008
416.203
411.142
400.899
375.145
352.255
336.332
333.455
332.363
337.445
338.597
346.968
348.538
329.419
300.648
270
270
270
270
270
270
270
270
270
270
291.842
320.789
323.501
327.338
340.911
342.291
342.897
304.786
270
270
270
270
270
270
270
270
270
270
270
270
270
270
270
270
270
270
270
291.647
291.585
308.188
358.328
392.906
441.678
439.482
429.218
412.625
387.555
380.087
381.46
380.015
287.303
270
320.7
407.266
465.608
498.645
486.322
445.149
380.853
296.632
270
270
335.571
357.592
270
368.721
270
277.861
357.573
350.5
381.234
387.325
373.271
340.156
335.735
334.422
343.803
336.307
322.311
363.38
414.17
423.856
389.601
378.354
375.418
345.499
347.471
338.754
328.432
364.476
375.664
398.956
378.326
270
270
270
270
479.956
537.37
648.601
733.017
751.498
713.558
649.759
555.433
474.871
421.825
363.18
355.109
324.001
310.785
393.781
410.825
389.501
376.793
339.684
319.754
270
270
270
270
270
270
270
270
270
301.008
469.4
557.279
510.297
423.997
530.359
581.942
555.871
481.394
429.743
420.408
423.53
411.263
410.635
400.289
364.119
365.076
315.6
322.212
270
270
270
270
270
270
270
270
270
270
270
270
270
270
322.509
355.247
371.103
387.699
462.198
457.96
479.041
487.237
509.895
524.614
517.687
498.257
514.541
503.005
452.912
362.146
335.595
394.171
452.245
458.512
442.013
443.687
429.713
438.231
455.438
472.378
491.299
515.659
532.391
532.433
514.304
452.803
349.721
400.928
426.913
402.678
397.774
405.553
483.32
531.523
536.411
521.366
511.558
524.862
514.638
538.599
529.167
532.311
522.59
508.028
494.631
501.301
493.65
487.513
484.296
492.971
504.027
520.284
458.965
353.544
318.423
322.153
323.7
318.817
452.182
584
581.698
674.381
576.795
598.61
680.186
825.619
930.386
947.429
891.544
843.848
838.89
873.558
926.878
1017.45
917.298
911.121
900.247
740.354
893.25
917.322
778.003
449.826
315.428
316.528
341.002
355.242
370.738
388.518
405.305
405.777
434.788
515.991
666.597
774.83
789.228
755.476
700.572
684.577
681.319
697.917
716.132
734.462
727.948
702.528
695.426
680.73
620.282
546.697
551.074
534.608
428.899
383.347
392.796
396.978
409.706
392.979
375.77
369.954
368.985
384
383.211
387.036
423.758
458.448
500.709
490.774
460.878
434.755
437.658
428.204
442.758
458.009
465.17
461.434
461.526
491.699
628.976
687.245
516.088
473.627
462.122
453.45
432.978
447.355
470.244
473.489
441.701
368.701
302.318
283.836
292.721
289.848
313.032
308.142
318.892
302.574
302.015
287.203
271.381
270.744
270
270
270
270
270
270
270
270
270
270
288.04
314.841
270
270
270
270
276.427
348.786
391.228
415.43
435.776
444.902
451.968
467.621
469.976
472.255
468.352
470.543
462.998
460.555
464.783
467.75
472.094
488.918
495.019
495.013
477.683
449.036
432.498
424.595
404.292
309.607
270
270
270
270
270
270
270
270
270
270
270
270
270
281.623
321.818
353.653
372.812
388.367
403.492
413.58
417.962
405.367
370.246
362.16
342.61
341.607
337.309
350.495
351.663
354.774
342.422
310.542
285.102
270
270
270
270
270
270
270
270
270
276.131
284.33
294.104
303.332
287.354
286.464
311.39
329.322
326.417
270
270
270
270
270
270
270
270
270
270
270
270
270
270
270
270
270
270
270
270
279.701
290.298
332.252
370.257
432.272
433.966
432.028
427.762
395.441
383.055
388.238
367.85
284.147
270
339.055
434.945
475.043
497.69
483.196
419.394
355.909
275.215
270
270
270
281.556
317.297
312.47
281.927
320.433
339.448
367.465
376.534
386.835
352.812
353.912
326.49
317.544
339.341
333.454
301.071
350.552
403.337
395.663
392.874
343.83
313.276
349.185
324.521
329.211
359.364
346.067
370.384
396.205
343.632
270
270
270
388.102
560.508
544.543
643.788
724.761
749.013
719.654
682.919
590.56
494.398
433.543
365.476
360.858
330.845
318.819
376.139
395.908
385.368
375.034
329.611
316.346
270
270
270
270
270
270
270
270
270
345.464
517.918
556.768
503.624
443.916
558.367
599.547
583.983
506.205
425.913
393.427
392.963
399.256
408.883
402.383
381.313
364.551
330.636
328.096
277.481
270
270
270
270
270
270
270
270
270
270
270
270
309.409
370.829
409.442
444.445
415.824
458.589
457.385
480.378
506.621
519.241
523.098
531.19
501.418
516.259
507.896
487.175
400.384
323.28
335.329
398.757
433.538
461.219
462.857
468.951
483.098
489.192
493.952
500.436
505.187
512.741
521.103
514.91
480.005
392.396
388.523
430.151
414.611
384.679
433.64
511.611
536.757
542.745
530.838
529.239
522.444
538.392
543.569
549.594
534.714
537.385
514.42
493.698
497.589
485.997
483.079
480.106
484.936
503.277
513.262
497.502
397.005
321.693
332.929
379.602
465.856
560.998
595.295
605.518
684.469
586.315
584.033
651.211
810.478
959.186
1021.66
964.846
863.966
777.07
743.511
801.673
923.982
941.514
935.736
948.862
951.672
955.574
928.911
787.374
482.991
346.081
331.084
356.086
352.08
360.934
377.62
400.978
421.001
435.366
489.759
609.55
735.697
780.203
770.584
757.37
731.846
734.556
732.194
739.281
743.927
735.65
708.381
711.569
689.325
613.616
565.67
540.921
520.633
445.051
415.82
391.095
406.045
404.647
417.658
389.48
379.441
393.397
407.293
415.733
422.585
403.839
455.209
502.612
503.402
461.394
427.235
424.572
427.867
419.658
438.042
436.982
441.846
452.29
521.951
638.239
617.654
494.464
470.028
456.25
433.915
408.368
419.718
454.639
476.641
461.879
405.605
326.425
291.957
271.013
276.361
280.028
274.216
281.924
275.561
277.27
270
270
270
270
270
270
270
270
270
270
270
270
270
294.148
270
270
270
270
270
270
322.211
374.633
407.903
426.254
439.425
445.558
445.194
452.653
454.633
453.952
447.083
447.393
449.906
446.454
452.798
460.014
466.994
467.078
459.851
450.111
439.075
432.779
419.631
338.413
270
270
270
270
270
270
270.129
270
273.279
292.647
284.524
270
270
270
272.181
314.22
356.394
376.243
394.925
402.316
416.326
409.979
414.046
383.829
374.344
364.976
360.074
361.59
358.119
359.742
346.232
323.831
297.858
270
270
270
270
270
270
270
270
270
270
281.926
294.157
296.089
295.541
298.121
278.232
270
294.564
313.042
292.957
270
270
270
270
270
270
270
270
270
270
270
270
270
270
270
270
270
270
270
270
287.883
300.395
370.877
408.984
409.297
428.617
390.556
378.353
381.346
390.484
371.334
282.044
275.329
366.166
450.824
482.505
498.096
478.139
425.126
365.496
291.293
272.867
286.709
270
278.66
277.826
275.469
306.566
333.602
344.441
367.256
378.674
373.995
342.229
334.478
323.747
318.296
316.293
324.773
297.904
337.476
399.345
404.973
353.362
310.098
326.801
314.464
359.107
366.359
326.246
333.232
342.066
329.44
270
270
270
270
495.935
568.527
562.432
657.464
730.964
740.993
717.139
685.716
636.822
513.629
448.783
383.981
380.44
339.797
326.454
342.228
379.571
378.615
378.297
349.071
352.481
270
270
270
270
270
270
270
270
270
417.583
547.866
524.715
472.081
462.297
568.518
602.623
581.597
520.879
434.692
391.716
378.043
376.006
407.443
417.845
395.652
373.163
355.767
352.088
309.954
280.278
270
270
270
270
270
270
270
270
283.367