/*--------------------------------*- C++ -*----------------------------------*\
| =========                 |                                                 |
| \\      /  F ield         | OpenFOAM: The Open Source CFD Toolbox           |
|  \\    /   O peration     | Version:  2.1.1                                 |
|   \\  /    A nd           | Web:      www.OpenFOAM.org                      |
|    \\/     M anipulation  |                                                 |
\*---------------------------------------------------------------------------*/
FoamFile
{
    version     2.0;
    format      ascii;
    class       volScalarField;
    location    "0.007300000";
    object      H2;
}
// * * * * * * * * * * * * * * * * * * * * * * * * * * * * * * * * * * * * * //

dimensions      [0 0 0 0 0 0 0];

internalField   nonuniform List<scalar> 
12384
(
0.0014793
0.00134793
0.00123538
0.00114298
0.00108119
0.00107917
0.00112805
0.00121204
0.00133221
0.00146605
0.0016864
0.00188294
0.0020091
0.00242962
0.000298876
0.000335725
0.000321486
0.000326526
0.000350774
0.000362334
0.000406922
0.00048088
0.000567991
0.000637702
0.000706742
0.000738093
0.000742138
0.000726624
0.000696596
0.000655873
0.000608999
0.000596764
0.000575503
0.000563097
0.000550368
0.00054725
0.00054387
0.000541986
0.000540425
0.00053821
0.000552402
0.000564245
0.000381103
0.000165144
0.00134273
0.00228303
0.00274228
0.00288247
0.002891
0.0028323
0.00277399
0.00265876
0.00252485
0.0024077
0.00226907
0.00214854
0.0020172
0.0019047
0.00180567
0.00172805
0.00166835
0.00162243
0.00159031
0.00157251
0.00156179
0.00158318
0.00160401
0.00164132
0.0017
0.00181524
0.00212899
0.00250979
0.00172503
0.0012932
0.00237802
0.00296752
0.00322528
0.00308681
0.00291297
0.00280255
0.00273088
0.00268609
0.00264994
0.00262711
0.00261402
0.00260693
0.00260677
0.00262811
0.00265283
0.00266413
0.00267441
0.00268358
0.00268554
0.00268402
0.00267714
0.00267285
0.00267203
0.00268013
0.00268116
0.00266
0.00265956
0.00268854
0.00267006
0.00255772
0.00401454
0.00384335
0.00387226
0.00395576
0.00404006
0.00411819
0.00416519
0.0041698
0.00413659
0.00409137
0.00400233
0.00398578
0.00385405
0.00390672
0.00386741
0.00384253
0.0038973
0.00391074
0.00395917
0.00403373
0.00409914
0.00402749
0.00339069
0.00322023
0.00348013
0.00375926
0.00388734
0.00387858
0.00373639
0.00342476
0.00759647
0.00722201
0.00719318
0.00715951
0.00723318
0.0074015
0.00755921
0.00765584
0.00778058
0.0078174
0.00782113
0.00779904
0.00776069
0.00771077
0.00763759
0.00756553
0.00749957
0.00742401
0.00736241
0.00730968
0.00726602
0.00722571
0.00718673
0.00715557
0.00712186
0.00707831
0.0070294
0.00699632
0.00678891
0.00670318
0.00402265
0.00479945
0.00426864
0.00408251
0.00416525
0.00439884
0.0046752
0.00474263
0.00469982
0.00458622
0.00443076
0.00427959
0.00410897
0.00396468
0.00383366
0.00374804
0.00365983
0.00360335
0.00355099
0.00352034
0.00342004
0.00335009
0.00329368
0.00328572
0.00332318
0.00116269
0.000384801
0.00046018
0.000533515
0.000606428
0.00600853
0.00775582
0.00826008
0.00876837
0.00928325
0.00955467
0.00963004
0.00964177
0.00960885
0.00956021
0.00949304
0.00945355
0.0093797
0.00932011
0.00924491
0.00916897
0.0090899
0.00894261
0.00879505
0.00860609
0.00795232
0.00668893
0.00666138
0.00676592
0.00681472
0.00687588
0.00694069
0.00698206
0.0069342
0.00678461
0.00513249
0.00512986
0.00506372
0.00496199
0.00486578
0.00475022
0.00465341
0.00457473
0.00449972
0.00448759
0.00442988
0.00450087
0.00449717
0.00457482
0.00460505
0.00459336
0.00459052
0.00626821
0.00988449
0.0102171
0.00993483
0.00976984
0.0096405
0.00951067
0.00938161
0.00929754
0.0093583
0.00968987
0.0105121
0.0118469
0.00544472
0.00525893
0.00504211
0.00494473
0.00488011
0.00480155
0.00468768
0.00458591
0.00450002
0.0043985
0.0043768
0.00425544
0.00430036
0.00423358
0.00428506
0.00441358
0.00482543
0.00593365
0.00785676
0.00833942
0.00821505
0.00808976
0.00804576
0.00805019
0.00810413
0.00819216
0.00832063
0.00847389
0.00865804
0.00878605
0.00663095
0.00605891
0.00587868
0.00578065
0.00567288
0.00557518
0.0054851
0.00537313
0.00529447
0.00525636
0.00520517
0.00524843
0.00517316
0.0056152
0.00797816
0.0107605
0.0110481
0.0106273
0.0101776
0.00988377
0.00973093
0.00969274
0.00964834
0.00969809
0.00972002
0.00974758
0.00982155
0.00992083
0.0102118
0.0108881
0.00774022
0.0072894
0.00835777
0.00909582
0.00883411
0.00854252
0.00834845
0.00823917
0.00816295
0.00811311
0.00807878
0.0080534
0.00805075
0.00805315
0.00806771
0.00808222
0.00810493
0.00814512
0.00816286
0.0081847
0.0081555
0.00811549
0.00805687
0.00801257
0.00798599
0.00803465
0.00825505
0.00866532
0.00854015
0.00762863
0.0106405
0.0105262
0.0107496
0.0113501
0.0118755
0.0111869
0.0153392
0.0228926
0.0237656
0.0240575
0.0242898
0.0244496
0.0245392
0.0246536
0.0246752
0.024726
0.0246756
0.0246685
0.0245899
0.0245078
0.0243853
0.0241801
0.0238965
0.0234972
0.0230971
0.0226534
0.0219717
0.0199975
0.0173416
0.0205316
0.00105006
0.000913451
0.000744095
0.000642589
0.000631353
0.00067115
0.000731904
0.000794231
0.000868553
0.000989907
0.00124862
0.00162142
0.00196863
0.00240026
0.000303517
0.000331208
0.000320739
0.000329069
0.000347099
0.000388176
0.000540325
0.000768106
0.00101456
0.00110274
0.00109241
0.00101953
0.000949392
0.000820443
0.000667889
0.000566383
0.000492609
0.00045008
0.000430331
0.000419516
0.000420429
0.000427378
0.000447463
0.000471306
0.000497587
0.000516861
0.00054118
0.000567964
0.000504134
0.000261214
0.0014122
0.00240591
0.00283607
0.00298413
0.002957
0.00284536
0.00265276
0.00241466
0.00219893
0.00198557
0.00183166
0.00171087
0.00160422
0.00152204
0.0014603
0.00140838
0.00137506
0.00135154
0.00132783
0.00130668
0.0012864
0.00127148
0.00127726
0.00130647
0.00136181
0.00150324
0.00177858
0.00226215
0.00229853
0.00182127
0.00255856
0.0030702
0.00310842
0.00284225
0.0026227
0.00251804
0.0024774
0.00248593
0.00251666
0.00251207
0.00246935
0.0024072
0.00234331
0.00230124
0.00230479
0.0023513
0.00240269
0.00243941
0.00244867
0.0024294
0.00239604
0.00236245
0.0023455
0.00236049
0.00239522
0.00244515
0.00250374
0.00257688
0.00263986
0.00258998
0.00403638
0.00382981
0.00382296
0.00389951
0.00404521
0.0041816
0.00419145
0.00405705
0.00382719
0.00351646
0.00336075
0.00324177
0.00316657
0.00310132
0.00307046
0.00307664
0.00314135
0.00325681
0.00341502
0.00366266
0.0038921
0.00400182
0.00380911
0.00333324
0.00335744
0.00406575
0.00426603
0.00426571
0.0042958
0.00436641
0.00754145
0.00719456
0.00719167
0.00729444
0.00762662
0.00806898
0.00843639
0.00864051
0.00866625
0.00859947
0.00845776
0.00831911
0.00819519
0.00808165
0.00789162
0.00769792
0.00752425
0.00738616
0.00728909
0.00722741
0.00719214
0.00717096
0.00715399
0.00713455
0.00711312
0.00708425
0.00704065
0.00700283
0.00690305
0.00677072
0.00409425
0.00473097
0.00444844
0.00489528
0.005938
0.00677468
0.00705648
0.00674435
0.00620751
0.00555661
0.00497427
0.00452196
0.00420652
0.00400164
0.00384276
0.00374309
0.00368744
0.003668
0.00362986
0.00358036
0.00350972
0.00338068
0.00331037
0.00323513
0.00330635
0.00254266
0.000727527
0.000449851
0.00071154
0.000939976
0.00591874
0.00799533
0.00872716
0.00967541
0.0100781
0.00995384
0.0096505
0.00935464
0.00914305
0.0090202
0.00895855
0.00892076
0.00889496
0.00890756
0.00892952
0.00895765
0.00897813
0.00895713
0.00885628
0.00871016
0.00841392
0.00745725
0.00661073
0.00653148
0.00650939
0.00654713
0.00674623
0.00697598
0.00726452
0.00733759
0.00512912
0.00512043
0.00497829
0.00475462
0.00447232
0.00416666
0.00388989
0.00366637
0.00344362
0.00335134
0.00331907
0.00337979
0.00357069
0.00381304
0.00409844
0.00432116
0.00439132
0.00494937
0.00726312
0.00973308
0.0100878
0.00989531
0.00987743
0.00974758
0.00937821
0.00892131
0.00857634
0.00857742
0.00932988
0.0113193
0.00519127
0.00490786
0.00494264
0.00500325
0.00491382
0.00467033
0.0043582
0.0040209
0.003733
0.00345316
0.00332893
0.0032365
0.00322229
0.00329384
0.00354079
0.00383842
0.00433157
0.00522141
0.00690073
0.0081253
0.00818594
0.00799747
0.00799429
0.00804918
0.00806416
0.00810404
0.00820223
0.00831575
0.00854423
0.00876581
0.0068376
0.00628828
0.00611613
0.00599379
0.00577977
0.00548363
0.00514311
0.00481146
0.00456952
0.00440923
0.0044613
0.00463015
0.00476171
0.00505247
0.00599646
0.00850124
0.0105115
0.0104649
0.00972833
0.00942302
0.00939487
0.00942025
0.00953631
0.00964639
0.00977838
0.00981525
0.00980231
0.009789
0.0100718
0.0108828
0.00779247
0.00806687
0.00884982
0.00889118
0.00853085
0.00829676
0.00820404
0.00814216
0.0081502
0.00812542
0.00813397
0.00813741
0.00819174
0.00828084
0.00841429
0.0085655
0.00872228
0.00887651
0.00890725
0.00878783
0.00855819
0.00829319
0.00806621
0.00785335
0.00768554
0.00763612
0.0078326
0.00836631
0.00854985
0.00781226
0.0105113
0.00963364
0.00934293
0.0114086
0.0115986
0.0137687
0.0205058
0.02376
0.0242717
0.0245694
0.024758
0.0248755
0.0249229
0.0249516
0.0249851
0.0250545
0.0251114
0.0251068
0.0250466
0.0249581
0.0248983
0.0248173
0.024557
0.0242195
0.0238177
0.0232856
0.0221641
0.019471
0.0169821
0.0204851
0.000814453
0.000599967
0.000512127
0.000536887
0.000624932
0.000785168
0.000904478
0.0010074
0.00100632
0.000963594
0.00100999
0.00128244
0.00180031
0.00237182
0.000305664
0.000327493
0.000319331
0.000324399
0.000336994
0.00041689
0.000679227
0.00106096
0.0012948
0.00128313
0.0011636
0.00103328
0.000905709
0.000685335
0.000510744
0.000406788
0.000384126
0.000386645
0.000393533
0.000406119
0.000411298
0.000411188
0.000413411
0.000421661
0.000428814
0.000465099
0.00050526
0.000537165
0.000538622
0.000334347
0.00145574
0.00247731
0.00293776
0.00312507
0.00310634
0.0029556
0.00270884
0.00232459
0.00195538
0.00162906
0.00143335
0.00135669
0.00135887
0.00137988
0.00139507
0.00139713
0.00138727
0.00136471
0.00133238
0.00129555
0.00126087
0.00123025
0.00120972
0.00120364
0.00122463
0.0012865
0.00143297
0.00189483
0.00227902
0.00210441
0.00265836
0.00308652
0.00294174
0.00263363
0.00251007
0.00258415
0.00277112
0.00292658
0.00296951
0.00290299
0.00275651
0.00257174
0.00240484
0.00226235
0.00222929
0.00229166
0.00235949
0.00237123
0.00232182
0.00223226
0.00213151
0.00205442
0.00201553
0.00202287
0.00207101
0.00215254
0.00225855
0.00237963
0.00254648
0.00259161
0.0040834
0.00381006
0.00372176
0.00381932
0.0041133
0.00422393
0.00407579
0.00373349
0.00335174
0.00311692
0.00298718
0.00283734
0.00277847
0.00269994
0.0026419
0.00262469
0.00263465
0.00271576
0.00286793
0.00312639
0.00341633
0.00381173
0.00391923
0.00367084
0.00332606
0.00359597
0.00366645
0.00337474
0.00347204
0.00409251
0.00751336
0.00718427
0.00722095
0.0074965
0.00808498
0.00870401
0.00909185
0.0091885
0.00904638
0.00878877
0.00850233
0.00827157
0.00810781
0.00799083
0.00777102
0.00752882
0.00734371
0.0072252
0.00717388
0.00716679
0.00717586
0.00718306
0.00718382
0.00717257
0.00714563
0.00710851
0.00706345
0.00701574
0.00695512
0.00683564
0.00414916
0.0047828
0.00503525
0.00655066
0.00823593
0.00882013
0.00842254
0.00761842
0.00679533
0.00564464
0.00475471
0.00423079
0.00397242
0.00388033
0.00386873
0.0039167
0.00394909
0.00396607
0.00396648
0.00390912
0.00378935
0.00362412
0.00340786
0.00327693
0.00328401
0.0030951
0.0017481
0.000593766
0.000526744
0.000967844
0.00604645
0.00799031
0.00977088
0.0102955
0.00986367
0.00922644
0.00877303
0.00857866
0.00855098
0.00861
0.00868683
0.00875302
0.00878489
0.00878809
0.00878281
0.00879999
0.00881973
0.00884365
0.00883974
0.00877091
0.00862392
0.00810943
0.0070956
0.0064357
0.00608145
0.0060716
0.00635603
0.00654098
0.0068726
0.00747678
0.00516633
0.00511463
0.00496299
0.00460713
0.0041406
0.00366647
0.00326017
0.00294309
0.00272437
0.00256926
0.00247318
0.00251858
0.00262703
0.00287044
0.00324021
0.00373528
0.00405901
0.00429071
0.00534727
0.0078853
0.00981994
0.0101496
0.0101723
0.0100563
0.00953706
0.00879956
0.00830841
0.00811657
0.00851326
0.0105389
0.00491869
0.0050142
0.00526785
0.00526685
0.00495902
0.00442528
0.00385947
0.00331071
0.00294524
0.00268267
0.00249924
0.0024318
0.00242603
0.00255217
0.00275005
0.00310742
0.00365373
0.00454631
0.00588953
0.00736058
0.00812682
0.00823795
0.00825493
0.00819933
0.00805183
0.00807515
0.00822727
0.00843579
0.00857915
0.00876373
0.00729842
0.00668566
0.0064196
0.00614283
0.00574477
0.00520834
0.00458389
0.00400703
0.00356408
0.00334091
0.00332814
0.00359592
0.00400948
0.00440987
0.00490183
0.00676623
0.00929113
0.0103072
0.00971862
0.00938303
0.00937747
0.00947282
0.00960728
0.00983881
0.01005
0.0101998
0.0101091
0.00989032
0.0101195
0.0109711
0.00800567
0.00858108
0.00891172
0.00864953
0.00843183
0.00841833
0.00850627
0.0085758
0.00858801
0.00855903
0.0084974
0.00841401
0.00838435
0.00843693
0.00863478
0.00893941
0.00922741
0.00936086
0.00929503
0.00877505
0.00814475
0.00760998
0.00729601
0.00719296
0.00715063
0.00716573
0.00738795
0.00801514
0.0084905
0.00789365
0.0122088
0.00972421
0.00861685
0.0114745
0.0129846
0.0184968
0.023172
0.0242319
0.024475
0.0244915
0.0242395
0.0239054
0.0237114
0.0236991
0.0238991
0.0242084
0.0245524
0.0248133
0.0248689
0.0247298
0.024517
0.0243665
0.0237661
0.0231644
0.0227024
0.0218591
0.0199268
0.0172649
0.0167107
0.021343
0.000536093
0.000443331
0.000501505
0.000680855
0.000917544
0.00117939
0.00137196
0.0015394
0.00158069
0.00139024
0.00115385
0.00117924
0.00160509
0.00232013
0.00030839
0.000324188
0.000312565
0.000310276
0.00031635
0.000412016
0.000737162
0.00116506
0.00138259
0.00135957
0.00121527
0.00104156
0.000874856
0.000565437
0.000409293
0.000372869
0.000386242
0.000401736
0.000443608
0.000473367
0.000485629
0.000482041
0.00045753
0.000447653
0.000437785
0.00042683
0.000466673
0.000530258
0.000558199
0.000404778
0.0014325
0.00248364
0.00301347
0.00331271
0.00339568
0.00326915
0.00286896
0.00225814
0.00167934
0.00134466
0.00121317
0.00116805
0.0012325
0.00131806
0.00138187
0.00143401
0.0014299
0.00136063
0.00130395
0.00123624
0.00118004
0.00114188
0.00112513
0.00112757
0.00114176
0.00118045
0.00126634
0.00156142
0.00214005
0.00225264
0.0027099
0.00306628
0.00281114
0.00253867
0.00256018
0.00283742
0.00315225
0.00328335
0.0032624
0.00314982
0.00296049
0.00268506
0.00243534
0.00225136
0.00224131
0.00232256
0.00234964
0.00227536
0.00212387
0.00194975
0.00179102
0.00167175
0.00162364
0.0016339
0.00171417
0.00183886
0.00199337
0.00217691
0.00240416
0.00256383
0.00415638
0.00381431
0.00365266
0.00393873
0.00422934
0.00419528
0.00386889
0.00336744
0.00309715
0.00290304
0.00280063
0.00269321
0.00259005
0.00251346
0.00243783
0.00238657
0.0023736
0.00241521
0.00249722
0.00268265
0.00301582
0.00339986
0.00380337
0.00382503
0.00348508
0.00332768
0.00328058
0.00285131
0.00294976
0.00344236
0.00751713
0.0071934
0.00724589
0.00761029
0.00833483
0.00900584
0.00930535
0.00932213
0.00909097
0.00872145
0.00839871
0.00813092
0.00794723
0.00779692
0.00755404
0.00733132
0.00720641
0.00718613
0.00723876
0.00730977
0.00736745
0.00739166
0.00738182
0.00734038
0.00727253
0.0071881
0.00710622
0.00703358
0.00697346
0.00687323
0.0041884
0.00499608
0.00589422
0.00812649
0.00976557
0.0097276
0.00871237
0.0075909
0.00677317
0.00537416
0.00441485
0.00401648
0.00393746
0.00401194
0.00415256
0.00428819
0.00439288
0.00445819
0.00447169
0.00440174
0.00423186
0.00398348
0.00370394
0.00338578
0.00327953
0.00325409
0.00257464
0.000997291
0.000569291
0.000920727
0.00676649
0.00890717
0.0104205
0.00981729
0.00891855
0.00846077
0.00839753
0.00855745
0.00877623
0.00898078
0.00913998
0.00926092
0.0093125
0.00929668
0.00920866
0.00909405
0.00897136
0.00887528
0.00882859
0.00878169
0.00869695
0.00844021
0.00765859
0.00667471
0.00593651
0.00589639
0.00624635
0.00632569
0.00648094
0.00732234
0.0052174
0.00523939
0.00495813
0.0043603
0.00372905
0.00315112
0.00272989
0.00235195
0.0020587
0.00187338
0.0017797
0.00176609
0.00187048
0.00209827
0.00249292
0.00300953
0.00354044
0.00388494
0.00442772
0.00618021
0.00859925
0.00989458
0.0102086
0.00999152
0.00923927
0.00821968
0.00759831
0.00757737
0.00800214
0.00980844
0.00498703
0.00530378
0.00562457
0.00540454
0.00476167
0.00400422
0.00325566
0.00272044
0.00229329
0.00192975
0.00174422
0.00166154
0.0016878
0.0018107
0.00208868
0.00247192
0.00302925
0.00389452
0.00511401
0.00644291
0.00756454
0.00812356
0.00824142
0.00789247
0.0076987
0.00790682
0.00814782
0.00849504
0.00871107
0.00881094
0.00777676
0.00714656
0.00657192
0.00607051
0.00540477
0.00454478
0.00358795
0.00280836
0.002346
0.00208377
0.0021893
0.00250284
0.00297757
0.00364852
0.00421518
0.00568742
0.00830394
0.0100664
0.00973491
0.00935312
0.00931956
0.00935092
0.00943093
0.0096561
0.0099432
0.010294
0.0104623
0.0102828
0.0103547
0.0110953
0.00819317
0.00879132
0.00885726
0.00858615
0.00859999
0.00878007
0.008926
0.00902112
0.00901646
0.00896411
0.00885753
0.00869134
0.0085053
0.00837837
0.00841955
0.00873539
0.00916858
0.00941952
0.00921847
0.00823355
0.00726148
0.00644803
0.00588659
0.00583183
0.00613784
0.00651159
0.00696988
0.00775798
0.00841592
0.00789714
0.0140642
0.00997235
0.00827722
0.0119379
0.0156387
0.0217288
0.0240784
0.0243273
0.0241201
0.023451
0.0226434
0.0220106
0.0217427
0.0217602
0.0221477
0.0227319
0.0235003
0.0242027
0.0246651
0.0245995
0.024074
0.0234054
0.0221056
0.0199481
0.0182372
0.0172042
0.0167706
0.016617
0.0178638
0.0235581
0.000369234
0.000439202
0.000670701
0.000984313
0.00120361
0.00126325
0.00132029
0.00150283
0.00176539
0.00178484
0.00144806
0.00123146
0.0014906
0.00227228
0.000307802
0.000320927
0.000301489
0.000289768
0.000283226
0.000388673
0.0006853
0.0011228
0.00137916
0.0014287
0.00130191
0.00106859
0.000848094
0.000510589
0.000371721
0.000376865
0.00042025
0.000495091
0.000544746
0.000573234
0.000589172
0.000591684
0.00056861
0.000516474
0.000455596
0.000445374
0.000442584
0.000501859
0.000556019
0.00044123
0.00135595
0.00237421
0.00301398
0.00343351
0.00366622
0.00359809
0.00297061
0.00203337
0.00137655
0.00117658
0.00108708
0.00103993
0.00116338
0.00130925
0.00143407
0.00149241
0.00142987
0.00131218
0.00120451
0.00110958
0.00104833
0.00101422
0.00100817
0.00102456
0.00105672
0.00109364
0.0011651
0.00134761
0.0019799
0.00227554
0.00272082
0.00304629
0.00274444
0.00250538
0.00260364
0.00296062
0.00322076
0.00326002
0.00322396
0.00318011
0.00299344
0.00268819
0.0023847
0.00220463
0.0022584
0.00234886
0.0022874
0.00209754
0.00186374
0.00163024
0.00142701
0.00129068
0.00125882
0.00127398
0.00136167
0.00153088
0.0017377
0.00196606
0.00226633
0.00251873
0.00424936
0.00385276
0.00364177
0.00414821
0.00420217
0.00403989
0.00363635
0.00317527
0.00296406
0.00282571
0.00271269
0.00254057
0.00237738
0.00224516
0.00216719
0.00214492
0.00215285
0.00219054
0.00225999
0.00239178
0.00266124
0.00308869
0.00350253
0.00380877
0.00367184
0.00336861
0.00320911
0.00267234
0.00287329
0.00347319
0.00754705
0.00721966
0.00726046
0.00756093
0.00826932
0.00894551
0.00924698
0.00921784
0.00889285
0.00854625
0.00831274
0.00807637
0.00786526
0.00765372
0.00737887
0.00720392
0.00719264
0.00729927
0.00745501
0.00760703
0.00771063
0.00773388
0.00768939
0.00759003
0.00746454
0.00731637
0.00717742
0.00705706
0.00698371
0.00688827
0.004237
0.00530484
0.00675351
0.00924913
0.0105224
0.0100876
0.00854255
0.00729063
0.00654292
0.00501068
0.00417113
0.00396753
0.00404356
0.0042335
0.00443989
0.00464526
0.004811
0.0049279
0.00495368
0.00487932
0.00469803
0.00439267
0.00401399
0.00362893
0.00332365
0.00330985
0.00294174
0.00157521
0.000736
0.000938642
0.00784164
0.0105707
0.010194
0.00885475
0.00830623
0.00832828
0.00858911
0.00888496
0.00918423
0.00943024
0.00963973
0.00977003
0.00983442
0.00983648
0.00974808
0.00958512
0.00935233
0.00911646
0.00893779
0.00882105
0.00872443
0.00856568
0.00805739
0.00703808
0.00603609
0.00593912
0.00622117
0.00624529
0.00621472
0.00706611
0.00548494
0.00540656
0.00475557
0.00396989
0.00326529
0.00274809
0.00227963
0.00181611
0.00146998
0.00123359
0.00114234
0.00115386
0.00121775
0.00145447
0.0018595
0.00239165
0.00299781
0.0034249
0.00394526
0.00514668
0.00714332
0.00874437
0.00948719
0.00939252
0.00848029
0.00736804
0.00673264
0.00690067
0.0075673
0.00930267
0.00520749
0.00573585
0.00592146
0.00538975
0.00450158
0.00361103
0.00284181
0.00225616
0.00172395
0.00139032
0.00116731
0.00113137
0.00111879
0.001262
0.00151688
0.00196994
0.00250783
0.00329679
0.00448688
0.00568008
0.0067618
0.00753414
0.00770829
0.0071481
0.00729022
0.00778141
0.00816558
0.00857137
0.00886838
0.00889375
0.00759284
0.0069161
0.00639401
0.00574063
0.00473901
0.00348878
0.00235577
0.00155723
0.00105185
0.000980742
0.00104512
0.00141681
0.00206385
0.00287771
0.00364708
0.00503223
0.00769274
0.00986242
0.00968631
0.00930385
0.00917439
0.00908004
0.00904283
0.0091386
0.00937019
0.00983521
0.0104042
0.0108181
0.0108524
0.0112396
0.0083018
0.00887286
0.00883865
0.00868821
0.00887954
0.00911826
0.00923704
0.00929624
0.00929511
0.00926656
0.00920475
0.00905603
0.00881844
0.00853825
0.00834299
0.00845965
0.00894449
0.00936713
0.00914844
0.00795345
0.00682081
0.00584135
0.00498621
0.00485447
0.00531456
0.00597648
0.00670882
0.00769012
0.00838357
0.00784256
0.0156482
0.0106773
0.00785696
0.0125974
0.0178749
0.0230647
0.0242257
0.0240234
0.0231667
0.0218924
0.0206629
0.0198017
0.0193657
0.0194728
0.0199699
0.0208855
0.0219651
0.0231713
0.0241997
0.0246375
0.0240237
0.0225861
0.0209371
0.0172986
0.0163238
0.0165278
0.0177025
0.0188574
0.0222524
0.0256774
0.000383522
0.000570003
0.000884975
0.00109986
0.00109496
0.00106065
0.00105492
0.00114209
0.00144134
0.00179103
0.00166278
0.00132146
0.001463
0.00225454
0.000304042
0.000319128
0.000290126
0.000267585
0.000243526
0.0003122
0.000525048
0.000921712
0.00123439
0.0014088
0.00134583
0.00106934
0.000798238
0.00044184
0.000361204
0.000395868
0.000502161
0.000567326
0.000603596
0.000622496
0.000643473
0.000657387
0.000655628
0.000608711
0.000527999
0.000470818
0.000433601
0.000485743
0.000551782
0.00045866
0.00127265
0.00215896
0.00281555
0.00333862
0.00359174
0.00342938
0.00267756
0.00157945
0.00115644
0.00104864
0.00100856
0.000975588
0.00116015
0.00135432
0.00152883
0.00153251
0.0013561
0.00119882
0.001067
0.000983127
0.00094684
0.000931807
0.000929527
0.000949882
0.000986511
0.00103357
0.00109895
0.00126393
0.00184169
0.00228286
0.00270282
0.0030401
0.00273687
0.00248571
0.0025531
0.00283672
0.00298754
0.00291555
0.00292302
0.00305135
0.00294034
0.00263081
0.00230392
0.002169
0.00228573
0.00235232
0.00216591
0.00189121
0.00161451
0.00132752
0.00117721
0.00109135
0.0010727
0.00109753
0.00117103
0.00128172
0.00151265
0.0017845
0.00213411
0.00247299
0.00434449
0.00388657
0.00371606
0.0041574
0.00391826
0.00383825
0.00342255
0.00307897
0.00291944
0.00278825
0.00257907
0.0023187
0.00209945
0.00199625
0.00192576
0.00195511
0.00198566
0.00202805
0.00208619
0.00219398
0.00243436
0.00282753
0.00330011
0.00373118
0.00372158
0.00342742
0.00316484
0.0026147
0.00305628
0.00381041
0.00761392
0.00726254
0.00727864
0.00742086
0.00792126
0.0085158
0.00884398
0.0087906
0.00850494
0.00832705
0.00823215
0.00802814
0.00778998
0.00752279
0.00724735
0.00716784
0.00729081
0.00750604
0.00775522
0.00796612
0.00808872
0.0080983
0.00800854
0.00784982
0.00766342
0.00745889
0.00725771
0.00709024
0.00698941
0.00689758
0.00427317
0.00562521
0.00742529
0.00993214
0.0108308
0.0102319
0.00822489
0.0069625
0.00625102
0.00468042
0.00404141
0.00399356
0.00416726
0.00439899
0.00467793
0.00496878
0.00521369
0.00539355
0.00541769
0.00533211
0.00509651
0.00474928
0.00429929
0.00381297
0.00339548
0.00332441
0.00310004
0.00201205
0.000920884
0.00102126
0.00865058
0.0111063
0.00915876
0.00822617
0.0082306
0.00848598
0.00880787
0.00913413
0.00945785
0.00975061
0.00998463
0.0101604
0.0102441
0.0102459
0.0101765
0.0100288
0.00976611
0.00944137
0.00913647
0.00890803
0.00875273
0.00861258
0.00826163
0.00735183
0.00625988
0.00608738
0.00627325
0.00618115
0.00604106
0.00684043
0.00620032
0.00542574
0.0044
0.00366623
0.00304134
0.00245537
0.00191045
0.0013712
0.00110707
0.00096599
0.0008993
0.000895017
0.000962584
0.00109396
0.00135123
0.0019253
0.00255801
0.00312402
0.00365159
0.00457361
0.00605172
0.00748302
0.00836107
0.00833507
0.00741344
0.00645825
0.00601882
0.00635736
0.00727914
0.00897725
0.00548669
0.00623818
0.00615542
0.00533642
0.00425669
0.00325205
0.00252474
0.00187743
0.00134843
0.0010989
0.00101012
0.000966616
0.00098306
0.00102056
0.00114042
0.00154633
0.00213148
0.00291126
0.00401154
0.00512987
0.00609926
0.00683628
0.00689906
0.00657135
0.00715945
0.00793693
0.00844687
0.00882844
0.00905612
0.00898868
0.00676158
0.00658597
0.00609179
0.00514106
0.00378078
0.0023584
0.00121295
0.00073898
0.000508681
0.000493701
0.000526032
0.000820425
0.00128224
0.00227952
0.00314112
0.00467201
0.00744352
0.00977389
0.00962626
0.00924205
0.0090409
0.0088811
0.00880259
0.00876628
0.00881352
0.00902618
0.00953944
0.0103515
0.0111156
0.0113345
0.00833197
0.00891055
0.00887967
0.00886728
0.00912259
0.00930337
0.00930526
0.00924419
0.00919298
0.00920843
0.00926792
0.00926469
0.0091225
0.00882377
0.0084611
0.00829127
0.00863858
0.00920747
0.00919928
0.007993
0.00684738
0.00589168
0.0049782
0.00459502
0.00513223
0.00587489
0.00678671
0.00786304
0.00836128
0.00772627
0.0171716
0.0122487
0.00762735
0.012964
0.0191093
0.0234924
0.0241571
0.0234534
0.0220403
0.0202918
0.0187147
0.0175599
0.0169884
0.0169416
0.0177049
0.0188767
0.0203519
0.0218726
0.023332
0.0245066
0.0244292
0.0222211
0.0206852
0.0168419
0.0162005
0.0195484
0.0229697
0.0246731
0.0263546
0.0260569
0.000443605
0.000754366
0.00100712
0.00103884
0.00103141
0.00102926
0.00102693
0.00105933
0.00124077
0.00169268
0.00173399
0.00137962
0.001483
0.00227887
0.000302596
0.000319857
0.000280841
0.000249997
0.000211828
0.000229437
0.00035977
0.000642178
0.000991101
0.00125041
0.00133179
0.00103753
0.000735362
0.000392093
0.000366509
0.000451044
0.000561175
0.000601576
0.000614633
0.000640369
0.00068754
0.000723911
0.0007311
0.000688443
0.000595701
0.000486083
0.000431986
0.000478885
0.000554793
0.000464198
0.00119393
0.00183521
0.00239626
0.00284488
0.00301696
0.00266882
0.00179864
0.00118687
0.00101064
0.000989667
0.000962277
0.000938102
0.00120815
0.00147003
0.00161062
0.00150398
0.00125434
0.00106527
0.000960576
0.000917292
0.000919552
0.000912344
0.000902285
0.000900996
0.000936437
0.000984813
0.00105258
0.00120707
0.00177929
0.00227952
0.00265608
0.00304574
0.00279019
0.00248942
0.0024464
0.00257901
0.00262947
0.00257551
0.00270779
0.00293671
0.0028496
0.00252375
0.00220671
0.00214882
0.00235025
0.00230724
0.00203184
0.00172757
0.00139084
0.00116469
0.0010334
0.000951481
0.000925316
0.000953494
0.00103707
0.0011627
0.00133666
0.00164352
0.00203958
0.00244462
0.004427
0.00391214
0.0038312
0.00380368
0.00359912
0.00365281
0.00335524
0.00304684
0.0029088
0.00272795
0.00242088
0.00210297
0.00193405
0.00188385
0.00188681
0.00189624
0.00191898
0.00195318
0.00199727
0.00207733
0.0022967
0.00265812
0.00316047
0.00363666
0.00372159
0.00344164
0.00312311
0.0025786
0.00347979
0.00423707
0.00767799
0.00731698
0.00735265
0.00738049
0.00756664
0.00791537
0.00815537
0.00815522
0.00809712
0.00816133
0.0081589
0.00794997
0.00769196
0.00738627
0.00715956
0.00722077
0.00744141
0.00773125
0.00804843
0.00828258
0.00839604
0.00838594
0.00826109
0.00805499
0.00781899
0.00757571
0.00732628
0.00711752
0.00699374
0.00689691
0.00431126
0.00592234
0.00791145
0.0102856
0.0109602
0.0103329
0.00783886
0.00673014
0.00603101
0.00445961
0.00399678
0.0040252
0.00422181
0.0044758
0.00483529
0.00520775
0.00558478
0.00581567
0.00583221
0.00566822
0.00538031
0.00497889
0.00447691
0.0039242
0.00343949
0.00334549
0.00317261
0.00224348
0.00111536
0.00115701
0.00926612
0.0104549
0.00846199
0.00813667
0.00827274
0.00857799
0.00893439
0.00929819
0.00965574
0.00996883
0.0102309
0.0104173
0.0105225
0.0105376
0.0104672
0.0103187
0.0100645
0.00972135
0.00934127
0.00901717
0.00878857
0.0086252
0.00834122
0.00754389
0.00653862
0.0063241
0.0063682
0.00610299
0.00599266
0.00672633
0.00670006
0.00517681
0.00417122
0.00357891
0.0029202
0.00225014
0.00165797
0.00113094
0.000958055
0.000805119
0.000747217
0.000754063
0.000800919
0.000932323
0.00116033
0.00160783
0.00226513
0.00289323
0.00341238
0.00425886
0.00535337
0.00651286
0.00756739
0.00733402
0.00652967
0.00596472
0.00587794
0.00623995
0.00723595
0.00881275
0.00590432
0.00677644
0.0064561
0.00529897
0.00409047
0.00309271
0.0023085
0.00166526
0.00114059
0.0010249
0.000951331
0.000944047
0.000936135
0.00097201
0.00104325
0.00130514
0.00185381
0.00262851
0.00365683
0.0047626
0.00566981
0.00625027
0.00617502
0.00634112
0.0074402
0.00840659
0.00898849
0.00923097
0.00923748
0.00912073
0.00678234
0.00645889
0.00561659
0.00433582
0.00279072
0.00136187
0.000701339
0.00046037
0.00037736
0.000358073
0.000394766
0.000538499
0.000920093
0.00186455
0.00286823
0.00455543
0.00755375
0.00978874
0.00956678
0.00921482
0.00902154
0.00892018
0.00888093
0.00882198
0.00872595
0.00864537
0.00879171
0.00928128
0.0101643
0.0110187
0.00832359
0.00892048
0.00894606
0.00901676
0.00927073
0.00935399
0.00916079
0.00895809
0.00881762
0.00891205
0.00907372
0.00923729
0.00927089
0.0090633
0.00867394
0.00829315
0.00835675
0.00894149
0.00927108
0.00825903
0.00717326
0.00647416
0.00580623
0.00546339
0.00570779
0.00638394
0.00728671
0.00809805
0.00825554
0.00758353
0.018721
0.0149481
0.00775354
0.0124804
0.0193519
0.0235083
0.0239766
0.0229065
0.0210953
0.0189823
0.0170761
0.0155189
0.0145126
0.01448
0.0153272
0.0170382
0.0188646
0.0207737
0.0223296
0.0240167
0.0249067
0.022464
0.0201714
0.0173706
0.0152426
0.0210731
0.0259779
0.02675
0.0258738
0.0233718
0.000545621
0.00084017
0.00100754
0.00110686
0.00129953
0.00142699
0.00138923
0.00132007
0.00138922
0.00169524
0.00171901
0.00139021
0.0015497
0.00233548
0.000290374
0.000328547
0.000280517
0.000239439
0.000213537
0.000202477
0.000243022
0.000396853
0.000680384
0.00105676
0.00124349
0.000978023
0.000674297
0.000366538
0.000377249
0.000504408
0.000595585
0.000604556
0.000606401
0.00067222
0.000768878
0.000817841
0.000813914
0.000750927
0.000640958
0.000505703
0.000434293
0.000485119
0.000569182
0.000454817
0.00110839
0.00149022
0.00185127
0.00208633
0.00206398
0.00165618
0.00122816
0.00103268