/*--------------------------------*- C++ -*----------------------------------*\
| =========                 |                                                 |
| \\      /  F ield         | OpenFOAM: The Open Source CFD Toolbox           |
|  \\    /   O peration     | Version:  2.1.1                                 |
|   \\  /    A nd           | Web:      www.OpenFOAM.org                      |
|    \\/     M anipulation  |                                                 |
\*---------------------------------------------------------------------------*/
FoamFile
{
    version     2.0;
    format      ascii;
    class       volScalarField;
    location    "0.007300000";
    object      O;
}
// * * * * * * * * * * * * * * * * * * * * * * * * * * * * * * * * * * * * * //

dimensions      [0 0 0 0 0 0 0];

internalField   nonuniform List<scalar> 
12384
(
0.000996954
0.000979288
0.000969388
0.000946156
0.000935685
0.000918338
0.000912982
0.0009114
0.000918974
0.000921408
0.000914636
0.00092778
0.00093539
0.00093785
0.000406664
0.000466608
0.00047386
0.000462056
0.000454248
0.000441086
0.000458829
0.000489303
0.000522529
0.000534556
0.000527934
0.000518961
0.000508538
0.000506362
0.00050089
0.00049807
0.000496844
0.000501901
0.00049645
0.000493253
0.000494442
0.000490541
0.000483339
0.000478356
0.000466063
0.000456203
0.000430807
0.000423595
0.000425627
0.000317609
0.000250889
0.000154709
0.000125083
0.00010312
0.000114084
0.000108515
0.000112453
0.000127386
0.000138982
0.000155194
0.00016967
0.000185217
0.000192411
0.000207079
0.000219469
0.000228463
0.000233808
0.000236109
0.0002362
0.000235042
0.000233494
0.000236429
0.000234515
0.00023165
0.000221667
0.000211606
0.000186905
0.000141488
0.000216347
0.000265738
0.000133112
9.68315e-05
8.00955e-05
8.79533e-05
9.80481e-05
0.000103671
0.000108472
0.000108484
0.000116043
0.000116699
0.00012142
0.000115834
0.000116482
0.000117418
0.00011761
0.000117261
0.000117624
0.000117942
0.000118141
0.000118085
0.000118199
0.000117563
0.000120364
0.000122775
0.000124843
0.000119534
0.000123058
0.00012447
0.000125872
0.000129779
9.10593e-05
9.51288e-05
9.06972e-05
8.61346e-05
8.25549e-05
8.06293e-05
8.03621e-05
8.18762e-05
8.40281e-05
8.52146e-05
8.91239e-05
8.38538e-05
8.96963e-05
8.77009e-05
8.54106e-05
9.00193e-05
8.53233e-05
8.69122e-05
8.56604e-05
8.43777e-05
8.2009e-05
8.16288e-05
6.94527e-05
7.12678e-05
4.77559e-05
7.28135e-05
7.05199e-05
7.0564e-05
7.30812e-05
5.11778e-05
1.98182e-05
2.25183e-05
2.37003e-05
2.37736e-05
2.28237e-05
2.19588e-05
2.12787e-05
1.84703e-05
1.80846e-05
1.89743e-05
1.92381e-05
1.94964e-05
2.00443e-05
2.0573e-05
2.09049e-05
2.12019e-05
2.12455e-05
2.13308e-05
2.17966e-05
2.15833e-05
2.16274e-05
2.25253e-05
2.23519e-05
2.40316e-05
2.5687e-05
2.67288e-05
2.6232e-05
2.89445e-05
3.33229e-05
3.25651e-05
3.82695e-05
3.19758e-05
3.93624e-05
4.17855e-05
4.1479e-05
3.67538e-05
3.46169e-05
3.44181e-05
3.55472e-05
3.72923e-05
3.9063e-05
4.02584e-05
4.08606e-05
4.39234e-05
4.36501e-05
4.34653e-05
4.34559e-05
4.36233e-05
4.35074e-05
4.41855e-05
2.84694e-05
2.22265e-05
2.92949e-05
3.29805e-05
3.32651e-05
0.000135153
0.000203557
0.000198547
0.00019525
0.000183474
1.66935e-05
1.72351e-05
1.35012e-05
1.20839e-05
1.02395e-05
1.19622e-05
1.17993e-05
1.21825e-05
1.2221e-05
1.15781e-05
7.58475e-06
6.1221e-06
7.32393e-06
7.59053e-06
8.30587e-06
9.7813e-06
1.15164e-05
9.15807e-06
1.06911e-05
1.22263e-05
1.86648e-05
2.32727e-05
2.30162e-05
2.26799e-05
2.26877e-05
2.24074e-05
2.25824e-05
2.17709e-05
2.26007e-05
2.30619e-05
3.06268e-05
3.37903e-05
3.82136e-05
4.13707e-05
4.34978e-05
4.39381e-05
4.5556e-05
4.21353e-05
4.43597e-05
4.48723e-05
4.6444e-05
4.48229e-05
4.43025e-05
4.99746e-05
4.77299e-05
4.98376e-05
4.99568e-05
1.84478e-05
8.6398e-06
7.90309e-06
8.22891e-06
8.87873e-06
9.42482e-06
6.43728e-06
7.50529e-06
8.72696e-06
5.04377e-06
1.03778e-05
7.37024e-06
4.58496e-06
3.20113e-05
3.78378e-05
4.34534e-05
4.55021e-05
4.7383e-05
4.81335e-05
4.75215e-05
4.64809e-05
4.94073e-05
4.46518e-05
4.55294e-05
4.67495e-05
4.43525e-05
4.68729e-05
4.58557e-05
4.10456e-05
3.61849e-05
2.10716e-05
1.28772e-05
9.7479e-06
1.12557e-05
9.97748e-06
1.16462e-05
9.92143e-06
9.81297e-06
9.39876e-06
8.7745e-06
8.0112e-06
7.29979e-06
8.8666e-06
1.32541e-05
8.65175e-06
1.28021e-05
1.62855e-05
1.85039e-05
1.98347e-05
1.99853e-05
2.00204e-05
1.96607e-05
2.09865e-05
2.19133e-05
2.11228e-05
2.30475e-05
1.93161e-05
9.26834e-06
4.20477e-06
4.43142e-06
5.00697e-06
5.55561e-06
5.58991e-06
6.12569e-06
5.90687e-06
5.98949e-06
6.15362e-06
5.99464e-06
5.99993e-06
6.23729e-06
6.46162e-06
6.00772e-06
5.45793e-06
5.96316e-06
6.94406e-06
5.84201e-06
4.0495e-06
3.82104e-06
5.42295e-06
4.73872e-06
4.68874e-06
5.72526e-06
5.13889e-06
5.25036e-06
4.62542e-06
4.70287e-06
5.66381e-06
5.65744e-06
5.61897e-06
5.60993e-06
5.51621e-06
5.52092e-06
5.46524e-06
5.57904e-06
5.64934e-06
5.80071e-06
5.89548e-06
5.93987e-06
5.83843e-06
5.36788e-06
3.20812e-06
4.75939e-06
6.66091e-06
2.79314e-06
2.87526e-06
2.7151e-06
2.28031e-06
1.89901e-06
2.39771e-06
1.109e-06
3.41912e-07
2.58568e-07
2.25899e-07
3.08127e-07
2.98794e-07
2.88734e-07
2.94029e-07
2.84715e-07
2.99459e-07
2.92592e-07
3.05585e-07
3.02285e-07
3.11166e-07
3.13905e-07
2.44341e-07
2.66992e-07
3.39736e-07
3.75475e-07
4.43059e-07
4.84422e-07
5.32198e-07
1.01903e-06
5.4425e-07
0.00095829
0.000932831
0.000871714
0.000823993
0.00080457
0.000804915
0.000812135
0.000819196
0.000832129
0.000838369
0.000860075
0.000879736
0.000914257
0.000939722
0.000417125
0.000471174
0.00046829
0.000455402
0.000449732
0.000471729
0.00054327
0.000604358
0.000598578
0.000573181
0.00053441
0.000512809
0.000495708
0.000490984
0.000493918
0.000501127
0.00049707
0.000499731
0.00050565
0.000505495
0.000510122
0.000510308
0.000509303
0.000505527
0.000492673
0.000477955
0.000457459
0.00042998
0.000436335
0.000386032
0.000244787
0.000143756
0.000117467
0.000106023
0.000108032
0.000116536
0.000122356
0.000142738
0.000167161
0.000189642
0.000207372
0.000221804
0.000229802
0.000243299
0.000253537
0.000260185
0.000259698
0.000260996
0.000260253
0.000260365
0.000261485
0.000261949
0.000262154
0.000259598
0.000252136
0.000243155
0.000215361
0.000170471
0.000161057
0.000206941
0.000123863
9.05491e-05
8.56912e-05
0.000101212
0.000113656
0.000118753
0.00011944
0.000121624
0.000120377
0.000123285
0.000131408
0.000135983
0.000137122
0.000140188
0.000141571
0.000140621
0.000137426
0.000135652
0.000135089
0.000135678
0.000137027
0.00013971
0.000140274
0.000141677
0.000142286
0.000142033
0.000141409
0.000130356
0.000129329
0.000127456
9.09133e-05
9.47465e-05
9.03127e-05
8.61392e-05
8.20985e-05
7.90633e-05
8.20337e-05
8.98839e-05
9.48588e-05
7.11448e-05
8.54197e-05
0.000105772
0.000114556
0.000113666
0.000116409
0.000116405
0.000112007
0.000103949
8.99493e-05
0.000100156
9.11433e-05
8.54481e-05
8.59715e-05
6.70742e-05
6.42133e-05
6.68624e-05
6.45776e-05
6.61983e-05
6.55528e-05
6.36469e-05
2.05453e-05
2.29953e-05
2.35083e-05
2.27468e-05
1.84393e-05
1.73005e-05
1.68193e-05
1.30573e-05
1.34485e-05
1.38277e-05
1.49297e-05
1.55295e-05
1.94554e-05
1.9772e-05
2.00928e-05
2.04049e-05
2.10881e-05
2.22566e-05
2.25831e-05
2.30155e-05
2.39914e-05
2.45217e-05
2.58809e-05
2.58018e-05
2.61499e-05
2.56777e-05
2.61949e-05
2.79423e-05
3.17439e-05
3.18263e-05
3.48559e-05
3.33192e-05
3.81571e-05
3.02474e-05
1.98788e-05
1.99596e-05
1.9164e-05
2.05541e-05
1.04211e-05
1.95729e-05
3.31203e-05
3.64709e-05
4.16476e-05
4.31439e-05
4.25725e-05
4.28136e-05
4.2912e-05
4.24494e-05
4.24317e-05
4.31256e-05
4.35953e-05
2.91001e-05
3.55449e-05
2.89782e-05
2.94123e-05
7.53804e-05
0.000172894
0.000201191
0.000176329
0.00015117
1.77076e-05
1.4184e-05
1.2203e-05
1.17894e-05
1.11717e-05
1.13072e-05
1.15859e-05
8.89246e-06
9.44989e-06
8.56476e-06
1.14005e-05
1.15493e-05
1.09987e-05
1.10745e-05
8.14559e-06
8.85232e-06
9.82226e-06
1.09953e-05
1.25779e-05
1.06757e-05
1.32119e-05
2.09554e-05
2.38625e-05
2.39431e-05
2.47523e-05
2.48203e-05
2.41196e-05
2.28503e-05
2.14115e-05
2.08122e-05
3.02494e-05
3.56315e-05
4.11155e-05
4.49767e-05
4.83928e-05
5.15828e-05
5.36351e-05
5.82125e-05
4.1952e-05
4.5383e-05
4.67431e-05
4.61135e-05
6.05273e-05
5.72589e-05
5.48843e-05
5.04643e-05
5.33827e-05
4.20591e-05
1.98072e-05
8.6983e-06
7.89224e-06
8.16448e-06
8.61701e-06
8.97579e-06
6.59763e-06
1.08892e-05
1.11039e-05
1.26793e-05
6.00285e-06
5.86802e-06
3.65629e-05
4.40392e-05
4.42805e-05
4.36868e-05
4.4975e-05
4.80345e-05
5.14465e-05
5.74783e-05
6.01122e-05
3.57593e-05
4.52492e-05
4.33714e-05
4.02207e-05
3.31529e-05
5.21579e-05
4.81581e-05
4.47164e-05
3.00833e-05
1.87684e-05
1.08498e-05
1.12303e-05
1.21865e-05
1.1919e-05
1.19835e-05
1.20078e-05
1.1783e-05
9.19725e-06
8.80824e-06
8.38137e-06
7.04169e-06
1.20876e-05
1.04271e-05
1.07004e-05
1.35857e-05
1.58697e-05
1.73871e-05
2.34027e-05
2.50524e-05
2.72083e-05
2.76705e-05
2.92141e-05
2.60458e-05
2.68488e-05
2.44488e-05
1.19925e-05
7.93181e-06
4.8307e-06
5.11932e-06
5.39442e-06
1.96636e-06
2.23981e-06
1.63907e-06
2.02268e-06
5.65048e-06
5.78295e-06
5.93807e-06
5.82908e-06
6.23448e-06
5.89012e-06
5.49253e-06
5.86762e-06
5.56676e-06
4.71501e-06
4.67373e-06
4.37146e-06
6.51496e-06
5.90342e-06
5.32609e-06
5.23762e-06
6.03168e-06
5.41173e-06
5.11864e-06
4.37205e-06
4.02937e-06
4.93607e-06
4.61312e-06
4.32107e-06
3.99586e-06
3.96547e-06
4.21742e-06
4.74312e-06
5.2986e-06
5.77849e-06
6.2563e-06
6.594e-06
6.67888e-06
6.2534e-06
5.1254e-06
4.7351e-06
6.26743e-06
2.88829e-06
3.52471e-06
3.14288e-06
2.23833e-06
2.10009e-06
1.31853e-06
5.33347e-07
2.99111e-07
3.33765e-07
3.31218e-07
3.00397e-07
2.99969e-07
3.05842e-07
3.04596e-07
2.97728e-07
2.97022e-07
2.70174e-07
3.02501e-07
2.83735e-07
2.79785e-07
2.73324e-07
2.93824e-07
3.06246e-07
3.42247e-07
3.03312e-07
3.79074e-07
4.72814e-07
6.2433e-07
1.06803e-06
5.57835e-07
0.000908445
0.000836999
0.000769685
0.000769159
0.000795852
0.000825268
0.000854271
0.000849973
0.000848621
0.00082316
0.000816223
0.000828974
0.000872762
0.000925044
0.000425235
0.000472589
0.000459951
0.00044531
0.000447598
0.00050669
0.000621164
0.000641416
0.000592322
0.000526231
0.000477097
0.000458348
0.000461376
0.000478471
0.000486203
0.000482585
0.00050363
0.000513459
0.000527784
0.000538405
0.000548102
0.000552037
0.000552209
0.000548045
0.000526667
0.000506953
0.00047951
0.000446434
0.000429172
0.000414129
0.000243675
0.000136717
0.000108967
9.37208e-05
9.38312e-05
0.00010618
0.000128889
0.000162192
0.000203555
0.000233954
0.000251953
0.000253965
0.000253686
0.000254742
0.000256003
0.000256116
0.000255279
0.000250688
0.000252653
0.000257406
0.000262003
0.000265487
0.000270899
0.000274066
0.000274072
0.000266255
0.000250127
0.000208686
0.00016543
0.00017822
0.000116679
8.73997e-05
9.41094e-05
0.000112436
0.000118177
0.000111813
0.000100527
9.10688e-05
9.13654e-05
9.49508e-05
0.000101766
0.000116045
0.000132633
0.00014719
0.000149549
0.000145656
0.000142237
0.000140277
0.000142041
0.000146746
0.00015262
0.000158308
0.000162539
0.000163831
0.000163361
0.00016086
0.000156098
0.000141423
0.000133777
0.000130231
8.95481e-05
9.50097e-05
9.24253e-05
8.81627e-05
8.07492e-05
8.01468e-05
8.92963e-05
9.90822e-05
9.34151e-05
0.000113985
0.000125653
0.000135922
0.000142994
0.000153586
0.000164901
0.00016656
0.000157113
0.00014943
0.000134469
0.000121837
8.92318e-05
9.30482e-05
8.67206e-05
9.11265e-05
6.87913e-05
7.96216e-05
7.77709e-05
6.81334e-05
6.25857e-05
7.1291e-05
2.05856e-05
2.30103e-05
2.29106e-05
2.15737e-05
1.6775e-05
1.21266e-05
1.22774e-05
1.31049e-05
1.41691e-05
1.35898e-05
1.3848e-05
1.86701e-05
1.98182e-05
1.99389e-05
2.04179e-05
2.17024e-05
2.36233e-05
2.50871e-05
2.6619e-05
2.62334e-05
2.74184e-05
2.71819e-05
2.77829e-05
2.84822e-05
2.68393e-05
2.71816e-05
2.75717e-05
2.77107e-05
3.02404e-05
3.09279e-05
3.41681e-05
3.33347e-05
2.80227e-05
2.02374e-05
1.40087e-05
8.20991e-06
1.25487e-05
1.60037e-05
2.01863e-05
1.77129e-05
3.36586e-05
4.13845e-05
4.38776e-05
4.34213e-05
4.03764e-05
4.10097e-05
4.011e-05
3.86256e-05
4.02563e-05
4.10269e-05
4.23681e-05
4.35171e-05
2.85322e-05
3.55686e-05
3.75475e-05
4.85248e-05
0.000104723
0.000186512
0.00019472
0.000148552
1.59731e-05
1.44313e-05
1.14529e-05
1.08079e-05
1.15018e-05
1.04031e-05
1.17147e-05
1.17695e-05
1.07813e-05
1.26474e-05
1.17004e-05
1.10986e-05
1.11643e-05
1.11727e-05
1.15083e-05
1.19173e-05
9.28715e-06
1.01745e-05
1.11868e-05
1.26148e-05
1.45737e-05
1.78108e-05
2.21558e-05
2.42806e-05
1.45952e-05
1.52378e-05
1.15399e-05
2.56144e-05
2.45325e-05
2.03851e-05
3.32986e-05
3.91185e-05
4.21625e-05
4.59826e-05
5.13067e-05
5.71333e-05
5.78728e-05
7.15794e-05
8.65623e-05
9.05307e-05
9.72654e-05
9.76015e-05
9.40653e-05
7.40631e-05
5.46587e-05
6.20274e-05
5.88144e-05
5.32382e-05
3.20079e-05
1.5729e-05
8.42428e-06
7.81128e-06
7.84204e-06
8.31496e-06
5.9173e-06
1.08182e-05
1.42368e-05
1.60811e-05
1.46418e-05
7.89338e-06
4.16309e-05
4.00779e-05
3.63217e-05
3.71425e-05
4.18075e-05
4.94931e-05
6.02583e-05
5.1163e-05
6.66094e-05
7.67619e-05
8.43892e-05
8.58755e-05
8.98728e-05
8.39794e-05
6.96243e-05
5.32699e-05
4.78242e-05
4.09148e-05
1.58894e-05
1.64678e-05
1.16225e-05
1.1028e-05
1.054e-05
1.11798e-05
1.18986e-05
1.15182e-05
1.10038e-05
8.05401e-06
7.8999e-06
7.24825e-06
9.45486e-06
1.29793e-05
1.54066e-05
1.12945e-05
1.34043e-05
2.08777e-05
2.47087e-05
3.1345e-05
3.44582e-05
2.80409e-05
2.82093e-05
3.68285e-05
3.5167e-05
3.20732e-05
2.45165e-05
1.62406e-05
4.11314e-06
4.89157e-06
5.2451e-06
1.92979e-06
1.57984e-06
1.49701e-06
5.29642e-06
5.30522e-06
5.06619e-06
5.32427e-06
5.86383e-06
6.35455e-06
5.89539e-06
5.25219e-06
5.93114e-06
4.89732e-06
5.54719e-06
5.42671e-06
6.11056e-06
5.72896e-06
6.2524e-06
5.55075e-06
5.06987e-06
4.7977e-06
5.41478e-06
4.92492e-06
5.27899e-06
4.38157e-06
3.39732e-06
2.41695e-06
3.26914e-06
1.4084e-06
3.16543e-06
4.24803e-06
5.61075e-06
6.72273e-06
7.41916e-06
7.63321e-06
7.71847e-06
7.67259e-06
7.19581e-06
5.87038e-06
4.86656e-06
6.10567e-06
1.10883e-06
3.45997e-06
4.65798e-06
2.19023e-06
1.56657e-06
6.63517e-07
3.40143e-07
3.5545e-07
3.33712e-07
3.60148e-07
3.95122e-07
3.6777e-07
3.94379e-07
4.18548e-07
3.46069e-07
4.16614e-07
3.66574e-07
3.3001e-07
3.13787e-07
2.9427e-07
2.74155e-07
2.97368e-07
2.45704e-07
3.43699e-07
3.87971e-07
4.77774e-07
5.40026e-07
1.06661e-06
1.09288e-06
4.94349e-07
0.000807266
0.000738334
0.000755609
0.000809688
0.000830894
0.000832637
0.000838302
0.0008584
0.000878239
0.00087619
0.000832898
0.000815801
0.00083811
0.000904251
0.000425562
0.000471934
0.00044966
0.000435127
0.000442573
0.000531081
0.000656235
0.000656684
0.000589048
0.000523477
0.000462223
0.000441252
0.000458289
0.000481647
0.000474566
0.000496722
0.000513343
0.000528543
0.000543759
0.000562361
0.000576928
0.000592416
0.000598714
0.000594631
0.000575787
0.000536744
0.000506692
0.000466873
0.000432502
0.000424384
0.000243796
0.000145333
0.00010189
7.76183e-05
6.94282e-05
8.16464e-05
0.000115427
0.000177261
0.000246779
0.000298441
0.000318448
0.000302287
0.000281024
0.000261693
0.000254363
0.000248245
0.000246318
0.000251847
0.000257375
0.000268539
0.000276838
0.000281132
0.000283365
0.00028496
0.000285247
0.000282891
0.000270343
0.000235841
0.000180533
0.000164191
0.000112099
8.68318e-05
0.000100875
0.000116893
0.000112723
9.38666e-05
7.23486e-05
6.61064e-05
7.32921e-05
8.08986e-05
9.54189e-05
0.00011021
0.000132473
0.000149282
0.000152638
0.000144712
0.000140552
0.000144973
0.000153691
0.000165299
0.000176431
0.000188011
0.000192613
0.000188602
0.00018609
0.000180823
0.000173117
0.000162979
0.000141536
0.000132197
8.75354e-05
9.53875e-05
9.46255e-05
8.56334e-05
7.87109e-05
8.29969e-05
9.33363e-05
9.1175e-05
0.000118781
0.000131531
0.000145273
0.000155887
0.000170296
0.000176128
0.000187489
0.000189654
0.000185388
0.000188059
0.000177208
0.000155581
0.000132495
8.94176e-05
9.24715e-05
8.74844e-05
6.97728e-05
6.5833e-05
7.2645e-05
0.000109218
0.00010228
6.64571e-05
2.07946e-05
2.27358e-05
2.27588e-05
2.08323e-05
1.62744e-05
1.22479e-05
1.3002e-05
7.991e-06
1.27259e-05
1.55288e-05
1.45711e-05
1.53238e-05
1.80667e-05
1.95011e-05
2.12007e-05
2.38292e-05
2.65359e-05
2.69757e-05
3.07493e-05
2.99281e-05
3.09474e-05
3.17234e-05
3.02165e-05
3.06533e-05
2.97306e-05
2.96754e-05
2.93013e-05
2.87162e-05
2.94705e-05
3.26116e-05
3.3225e-05
2.60176e-05
1.82568e-05
1.39597e-05
9.93599e-06
9.70089e-06
9.97504e-06
1.47728e-05
1.95814e-05
2.59681e-05
3.49764e-05
4.30508e-05
4.31864e-05
4.0514e-05
4.1708e-05
4.08797e-05
3.75997e-05
3.63882e-05
3.6399e-05
3.61012e-05
3.73398e-05
3.90198e-05
4.32805e-05
2.86271e-05
3.43831e-05
3.85742e-05
6.7693e-05
0.000139193
0.000187105
0.000151246
2.0348e-05
1.0578e-05
1.03505e-05
1.15733e-05
1.20592e-05
1.32918e-05
1.27461e-05
1.12395e-05
1.18985e-05
1.08862e-05
9.92391e-06
8.34936e-06
7.58535e-06
8.05494e-06
9.15085e-06
1.02735e-05
1.13293e-05
9.21967e-06
1.02645e-05
1.14873e-05
1.31127e-05
1.55742e-05
1.95661e-05
2.34959e-05
2.40125e-05
1.74977e-05
1.27898e-05
1.26386e-05
2.69531e-05
2.19561e-05
3.79009e-05
3.28279e-05
4.13329e-05
4.84082e-05
5.69015e-05
6.45403e-05
9.01529e-05
0.000110695
0.000127069
0.000141033
0.000147688
0.000147456
0.000143831
0.000131185
0.00010663
7.39503e-05
6.46459e-05
5.99995e-05
5.24058e-05
1.245e-05
1.16322e-05
8.46766e-06
7.41433e-06
8.36985e-06
6.76637e-06
1.34158e-05
1.6383e-05
1.76492e-05
1.8291e-05
9.37511e-06
4.01834e-05
3.42264e-05
2.91634e-05
3.20496e-05
4.17448e-05
5.63796e-05
5.31459e-05
8.11118e-05
0.000108083
0.000118469
0.000129224
0.000134019
0.000129441
0.000115648
0.000103641
7.76006e-05
5.15849e-05
4.69907e-05
3.24331e-05
2.14336e-05
1.38974e-05
1.12947e-05
1.08477e-05
1.25997e-05
1.3257e-05
1.16275e-05
1.04804e-05
9.77492e-06
7.07306e-06
7.41645e-06
7.38837e-06
1.15867e-05
1.52948e-05
1.04714e-05
1.80677e-05
2.34073e-05
3.33052e-05
4.42011e-05
6.61071e-05
7.65504e-05
7.90452e-05
6.67622e-05
3.98142e-05
3.96768e-05
3.42824e-05
1.7321e-05
9.1539e-06
5.48934e-06
5.29165e-06
2.47664e-06
1.7319e-06
2.21601e-06
2.11997e-06
5.52883e-06
5.58557e-06
5.33827e-06
5.83653e-06
5.71185e-06
5.98888e-06
5.10237e-06
5.19367e-06
6.06532e-06
3.94493e-06
4.95935e-06
5.60088e-06
6.44946e-06
6.24862e-06
4.45989e-06
6.02049e-06
5.54139e-06
6.45698e-06
5.17147e-06
5.50551e-06
5.68027e-06
4.3939e-06
2.9434e-06
3.38076e-06
2.88243e-06
3.32324e-06
5.39535e-06
7.4425e-06
9.18869e-06
9.99608e-06
1.04291e-05
8.19636e-06
9.04556e-06
8.07916e-06
6.41826e-06
5.03123e-06
6.10555e-06
1.27794e-06
3.28045e-06
5.36981e-06
1.85409e-06
7.47263e-07
4.9348e-07
1.70427e-07
3.57455e-07
3.00427e-07
4.75316e-07
5.09788e-07
6.33393e-07
7.04912e-07
6.90569e-07
6.26895e-07
4.84143e-07
3.23739e-07
4.29591e-07
3.46603e-07
3.26218e-07
1.53508e-07
2.12609e-07
4.54133e-07
4.61011e-07
7.15205e-07
1.05502e-06
1.08804e-06
1.11019e-06
9.2108e-07
2.13563e-07
0.000701392
0.000731983
0.000810233
0.000811124
0.000767581
0.000726605
0.0007128
0.000740932
0.000822498
0.000866831
0.000880131
0.000828351
0.000827954
0.000893328
0.000426575
0.000469859
0.000446044
0.000423565
0.000428368
0.000530231
0.000655883
0.000664899
0.00062079
0.000563624
0.000482497
0.000442863
0.000456647
0.000477115
0.000484105
0.00050412
0.000513862
0.000534736
0.000553506
0.000584362
0.000607249
0.000625505
0.000639218
0.00063727
0.000614612
0.000584424
0.000534933
0.00048666
0.000440242
0.00042941
0.000244187
0.000144871
0.00010101
6.5792e-05
8.09849e-05
8.52252e-05
0.000112259
0.000213788
0.000301116
0.000352642
0.000365958
0.000342824
0.000294509
0.000259537
0.000244824
0.000238582
0.00024522
0.000258441
0.000279445
0.000295323
0.00030653
0.000312554
0.000311691
0.000305263
0.000298661
0.000294624
0.000286404
0.000254912
0.000196815
0.000159051
0.000109788
8.64634e-05
0.000104106
0.00011779
0.00010832
8.45749e-05
6.79926e-05
6.4582e-05
7.16764e-05
8.19371e-05
9.32305e-05
0.000117058
0.00013914
0.000155227
0.00014941
0.000142441
0.000143625
0.000154624
0.000170995
0.000191508
0.00020484
0.000214575
0.000213208
0.000216763
0.00020937
0.000200014
0.000189434
0.000175611
0.000157986
0.00013383
8.49214e-05
9.43555e-05
9.50645e-05
8.05483e-05
7.98908e-05
8.89198e-05
0.00010323
0.000111446
0.000127893
0.000138658
0.000159051
0.000175147
0.000192998
0.000214618
0.00022668
0.000226063
0.000218466
0.000212065
0.00020892
0.000191472
0.000159479
0.000123233
7.74913e-05
9.04417e-05
9.03561e-05
7.29675e-05
8.49315e-05
0.000121604
0.000108322
6.18725e-05
2.01502e-05
2.24351e-05
2.20789e-05
2.06752e-05
1.5518e-05
1.10233e-05
1.18061e-05
1.15707e-05
1.06954e-05
1.3686e-05
1.60445e-05
1.65368e-05
1.65224e-05
1.94718e-05
2.25571e-05
2.63618e-05
2.82339e-05
3.01395e-05
3.34011e-05
3.15523e-05
3.35537e-05
3.49377e-05
3.39416e-05
3.09654e-05
3.08774e-05
3.11458e-05
3.04624e-05
2.97615e-05
2.95944e-05
3.16401e-05
3.60158e-05
2.21773e-05
1.87745e-05
5.81647e-06
8.75767e-06
8.50527e-06
9.19812e-06
1.69735e-05
2.07544e-05
2.82218e-05
4.14019e-05
4.18752e-05
4.02867e-05
4.22231e-05
3.8027e-05
3.40371e-05
3.3963e-05
3.54475e-05
3.45404e-05
3.38577e-05
3.6725e-05
3.75528e-05
3.88091e-05
4.31235e-05
2.99368e-05
3.29401e-05
5.0837e-05
0.000113141
0.000166419
0.000146077
1.62467e-05
9.78852e-06
1.09574e-05
1.27458e-05
1.4647e-05
1.32851e-05
1.16511e-05
9.18626e-06
9.76073e-06
5.42176e-06
1.08562e-05
1.03048e-05
1.03317e-05
1.00601e-05
1.03703e-05
1.08615e-05
5.5622e-06
7.55406e-06
9.19422e-06
1.06498e-05
1.2119e-05
1.42388e-05
1.7489e-05
2.21891e-05
2.25486e-05
2.45307e-05
1.35834e-05
1.45321e-05
1.77516e-05
2.37866e-05
3.01849e-05
3.07115e-05
4.38552e-05
5.39312e-05
4.71961e-05
9.12116e-05
0.000119667
0.000144361
0.000168261
0.000178625
0.000188135
0.00019124
0.000186443
0.000173981
0.00015029
0.000113236
8.03349e-05
4.15659e-05
5.96168e-05
3.80725e-05
2.02725e-05
1.0606e-05
6.78516e-06
7.40263e-06
1.2559e-05
1.94006e-05
2.29657e-05
2.24928e-05
2.01466e-05
8.41365e-06
3.16318e-05
2.23766e-05
2.12635e-05
2.89471e-05
4.67745e-05
6.14977e-05
7.28961e-05
0.00010939
0.000131059
0.00015345
0.000155959
0.000160042
0.000154488
0.000146591
0.000131545
0.00010722
7.43893e-05
3.60818e-05
3.6357e-05
2.36909e-05
1.87907e-05
1.32869e-05
1.17613e-05
1.47408e-05
1.46919e-05
1.18575e-05
1.00613e-05
9.00774e-06
6.17282e-06
7.00844e-06
8.81218e-06
1.39514e-05
9.78789e-06
1.6231e-05
2.46258e-05
3.30567e-05
6.32864e-05
0.000101281
0.000124193
0.000137844
0.000130962
0.000114595
8.55401e-05
4.44496e-05
4.02775e-05
2.3752e-05
1.17893e-05
6.0408e-06
5.38043e-06
2.97041e-06
3.39035e-06
3.78756e-06
4.16433e-06
4.07771e-06
2.76899e-06
5.63182e-06
5.0561e-06
4.87328e-06
5.37204e-06
4.82315e-06
5.95421e-06
4.55528e-06
5.68777e-06
6.56025e-06
5.43002e-06
7.0665e-06
5.02509e-06
5.6642e-06
5.16323e-06
4.78009e-06
5.63424e-06
5.80685e-06
5.94989e-06
5.69e-06
5.44238e-06
3.90834e-06
3.86468e-06
2.99313e-06
3.47838e-06
5.97197e-06
8.39313e-06
1.0274e-05
1.66278e-05
1.76151e-05
1.42351e-05
9.37485e-06
8.62797e-06
6.56403e-06
5.10973e-06
6.22789e-06
7.55455e-07
2.76864e-06
6.24462e-06
1.15521e-06
7.47929e-07
3.79381e-07
3.68088e-07
3.12703e-07
5.30993e-07
6.78172e-07
9.29645e-07
8.75031e-07
1.06432e-06
1.08267e-06
8.2999e-07
9.46369e-07
6.54513e-07
4.36792e-07
4.29143e-07
3.49952e-07
2.03477e-07
3.61025e-07
4.96807e-07
9.87553e-07
5.89171e-07
1.09484e-06
9.49824e-07
6.07607e-07
3.53827e-07
2.4325e-07
0.00070876
0.000794888
0.000795636
0.000706224
0.000632052
0.000605551
0.000598385
0.000630303
0.000720261
0.000832179
0.000870116
0.000837794
0.000818975
0.000879226
0.000427219
0.000469656
0.000440163
0.000412421
0.000406563
0.000486573
0.000609194
0.000681739
0.000662317
0.000607675
0.000511409
0.000446643
0.000454852
0.000469933
0.000483624
0.000498914
0.00051254
0.000537444
0.000575494
0.000618302
0.000655796
0.00067174
0.000688515
0.000680973
0.000659352
0.00062017
0.000559421
0.000497945
0.000446746
0.000431811
0.000257823
0.000170768
0.000116615
7.56659e-05
8.29409e-05
7.15607e-05
0.00013966
0.000256991
0.000345854
0.000380952
0.000382265
0.000357295
0.000292057
0.000248162
0.000237692
0.000238296
0.000250818
0.000282447
0.000309025
0.000323528
0.000331377
0.000333728
0.000333378
0.000328176
0.000315572
0.000306077
0.000294696
0.000269241
0.000208603
0.000159414
0.000109893
8.60894e-05
0.000104135
0.00011834
0.000111482
9.28827e-05
8.28604e-05
9.07461e-05
9.07359e-05
8.8739e-05
9.90763e-05
0.000121938
0.000144578
0.000161026
0.000147308
0.000138824
0.000151274
0.000166958
0.000190721
0.000208927
0.000219724
0.000233058
0.00024096
0.000237641
0.000228995
0.000212866
0.000203721
0.000186571
0.000164464
0.000135132
8.13475e-05
9.34534e-05
9.2822e-05
8.00574e-05
8.69319e-05
9.64301e-05
8.46601e-05
0.000119101
0.000129145
0.000145599
0.000175865
0.000208072
0.000235732
0.00025802
0.000259832
0.000262664
0.000255243
0.000239863
0.000229653
0.000214326
0.00019008
0.000140623
9.97343e-05
9.53891e-05
9.11343e-05
7.73732e-05
7.92929e-05
0.000128647
9.2844e-05
7.7812e-05
2.0461e-05
2.22651e-05
2.25304e-05
2.15428e-05
1.68825e-05
1.5995e-05
1.17502e-05
1.14036e-05
1.51314e-05
1.61201e-05
1.46256e-05
1.61384e-05
1.71751e-05
2.03716e-05
2.45731e-05
2.75227e-05
2.98065e-05
3.12213e-05
3.43858e-05
3.3914e-05
3.56631e-05
3.55649e-05
3.59373e-05
3.16387e-05
3.30424e-05
3.16568e-05
2.99061e-05
2.95827e-05
2.97956e-05
3.13085e-05
3.50782e-05
1.82257e-05
1.63894e-05
9.87739e-06
8.14538e-06
8.22048e-06
1.24014e-05
1.72417e-05
1.301e-05
3.16086e-05
3.9789e-05
3.90661e-05
4.19362e-05
3.77796e-05
3.52128e-05
3.61946e-05
3.13441e-05
2.84281e-05
2.65614e-05
3.23956e-05
3.36788e-05
3.28335e-05
3.8664e-05
4.19745e-05
2.43782e-05
2.90674e-05
4.16419e-05
9.35585e-05
0.000141355
0.00013424
1.24326e-05
9.25127e-06
7.63606e-06
1.57428e-05
1.4524e-05
1.2552e-05
1.05343e-05
7.20014e-06
5.01205e-06
1.06786e-05
9.78978e-06
9.18169e-06
9.18432e-06
9.41878e-06
9.53633e-06
9.96375e-06
1.00222e-05
5.66456e-06
7.94788e-06
9.94136e-06
1.1498e-05
1.34732e-05
1.63118e-05
2.08138e-05
1.14139e-05
1.42511e-05
1.30894e-05
1.70097e-05
2.14952e-05
2.56688e-05
1.71245e-05
2.82315e-05
4.95232e-05
5.93812e-05
6.23852e-05
0.000109979
0.00013914
0.000174424
0.000197267
0.00021805
0.000226681
0.000227686
0.000229197
0.000208881
0.000180376
0.000154068
0.000103562
7.18037e-05
6.76602e-05
5.26758e-05
1.91528e-05
1.87406e-05
1.1559e-05
1.40066e-05
1.91686e-05
2.42461e-05
2.19337e-05
9.64871e-06
2.17507e-05
1.12279e-05
3.29264e-05
1.33999e-05
1.43757e-05
3.4089e-05
4.90848e-05
4.64808e-05
9.24689e-05
0.000123026
0.000156131
0.000169248
0.000174549
0.000175346
0.000171573
0.000160006
0.000149582
0.000124239
9.763e-05
6.03565e-05
4.46505e-05
2.90312e-05
1.6043e-05
1.77476e-05
1.65568e-05
1.79807e-05
1.49239e-05
1.09691e-05
9.02551e-06
8.05488e-06
5.34179e-06
6.72935e-06
1.51599e-05
1.65806e-05
1.12464e-05
1.9119e-05
3.09556e-05
6.50168e-05
0.000113391
0.000156897
0.00018846
0.000195
0.000190423
0.000165147
0.00012226
7.58016e-05
3.25573e-05
2.91193e-05
1.19748e-05
6.02747e-06
5.72567e-06
3.39142e-06
5.36868e-06
4.29335e-06
6.73554e-06
4.74482e-06
6.2347e-06
4.1515e-06
2.11445e-06
4.87212e-06
4.52591e-06
4.65188e-06
6.11946e-06
5.25716e-06
6.58454e-06
6.7886e-06
4.79566e-06
4.396e-06
7.04245e-06
9.08431e-06
8.59317e-06
8.07917e-06
7.60618e-06
4.58639e-06
6.45556e-06
5.6269e-06
5.14758e-06
4.75871e-06
4.49632e-06
3.34206e-06
3.36054e-06
5.90659e-06
8.32687e-06
9.94609e-06
1.66305e-05
1.94787e-05
1.55844e-05
1.01176e-05
8.4708e-06
6.20616e-06
5.16067e-06
6.47952e-06
6.99449e-07
1.62805e-06
6.72139e-06
1.6496e-06
6.6057e-07
3.92373e-07
2.71818e-07
4.69554e-07
6.46314e-07
1.03141e-06
1.50949e-06
2.10976e-06
2.24484e-06
2.41207e-06
2.05183e-06
1.45438e-06
1.06704e-06
7.05693e-07
3.72952e-07
3.85664e-07
3.16266e-07
3.95032e-07
4.80901e-07
1.03754e-06
5.64522e-07
4.61912e-07
2.88134e-07
2.98755e-07
2.25566e-07
2.23687e-07
0.000748888
0.000804405
0.000695495
0.000607952
0.000587231
0.000587234
0.00058762
0.000605892
0.000676143
0.000801114
0.000874685
0.000849202
0.000813908
0.000866277
0.000422143
0.000470114
0.000435246
0.000404481
0.000387913
0.000427052
0.000532057
0.000649766
0.000681249
0.000643741
0.000541126
0.000453692
0.000453804
0.000467396
0.000486379
0.000495049
0.000515669
0.000550464
0.000611378
0.000673756
0.000725681
0.000743191
0.000743326
0.000728886
0.000697674
0.00064511
0.000573954
0.000508554
0.000448529
0.000432772
0.000280873
0.000194958
0.000152907
0.000115734
0.000104583
0.000130832
0.000223072
0.000318706
0.000375833
0.000391484
0.000387291
0.000349405
0.000272495
0.0002418
0.00022925
0.000242941
0.000274993
0.000311305
0.000335785
0.000338796
0.000340343
0.000336495
0.000336624
0.000335818
0.000326025
0.00031547
0.000304463
0.000276458
0.000213897
0.000154775
0.000112153
8.5389e-05
0.000100359
0.000119368
0.000119192
0.000111049
0.000108179
0.000115521
0.000108531
9.54697e-05
0.000103632
0.000122374
0.000155571
0.000161807
0.000141902
0.000139633
0.000163284
0.000182321
0.000204754
0.000225608
0.000249443
0.000261226
0.000263108
0.000259855
0.000247022
0.000228939
0.00021587
0.00019539
0.000169408
0.000137152
7.78694e-05
9.16932e-05
8.91029e-05
8.70887e-05
9.52975e-05
0.000102076
9.28621e-05
0.000119997
0.000129668
0.000155482
0.00019758
0.000234781
0.000265813
0.000283293
0.000280411
0.000279317
0.000273352
0.000264594
0.000251058
0.000232891
0.000207345
0.000161529
0.000117792
9.87377e-05
9.37747e-05
7.94236e-05
8.82048e-05
0.000129937
6.05528e-05
6.83466e-05
1.95148e-05
2.16863e-05
2.15475e-05
2.1343e-05
2.01801e-05
1.88828e-05
1.49033e-05
1.51379e-05
1.7357e-05
1.61856e-05
1.55336e-05
1.6896e-05
1.77004e-05
2.18413e-05
2.54185e-05
3.12089e-05
3.30972e-05
3.1958e-05
3.43182e-05
3.17372e-05
3.26703e-05
3.28433e-05
3.40344e-05
3.63331e-05
3.07032e-05
3.29192e-05
3.23546e-05
3.01295e-05
2.90048e-05
3.13486e-05
3.4647e-05
1.4439e-05
1.41181e-05
9.12168e-06
7.8709e-06
8.69349e-06
1.33296e-05
1.85422e-05
1.57149e-05
3.5494e-05
3.80608e-05
4.04146e-05
4.09138e-05
3.57104e-05
3.72892e-05
3.04036e-05
2.61395e-05
2.27463e-05
2.19286e-05
2.2099e-05
3.04177e-05
2.97299e-05
3.73083e-05
4.15322e-05
2.31987e-05
2.64414e-05
3.7236e-05
8.41399e-05
0.000124622
0.000125619
6.59359e-06
1.06399e-05
1.54506e-05
1.61853e-05
1.43313e-05
1.21462e-05
9.56798e-06
6.12039e-06
1.10001e-05
9.93488e-06
8.90456e-06
8.47799e-06