/*--------------------------------*- C++ -*----------------------------------*\
| =========                 |                                                 |
| \\      /  F ield         | OpenFOAM: The Open Source CFD Toolbox           |
|  \\    /   O peration     | Version:  2.1.1                                 |
|   \\  /    A nd           | Web:      www.OpenFOAM.org                      |
|    \\/     M anipulation  |                                                 |
\*---------------------------------------------------------------------------*/
FoamFile
{
    version     2.0;
    format      ascii;
    class       volScalarField;
    location    "0.007300000";
    object      rhoEu;
}
// * * * * * * * * * * * * * * * * * * * * * * * * * * * * * * * * * * * * * //

dimensions      [1 -1 -2 0 0 0 0];

internalField   nonuniform List<scalar> 
12384
(
367007
358605
350408
341302
334579
329393
329805
331614
337445
345258
356561
369897
380216
406367
103864
141085
150131
140795
124400
118812
125616
139726
150609
158354
157053
153904
149161
144804
141443
139252
137941
138921
138635
139004
138339
136948
132285
129162
121008
111157
97019.6
93353.7
104566
83253.9
49572.1
31837.6
29750.8
31208.8
31666.2
33950.6
33636.4
37678.2
37633.5
41584.9
42663.6
45588
47701.5
50278.3
52633.9
54633.4
55976.9
56677.6
56898.8
56862.4
56433.3
56196.3
55138.5
53260.2
51353.7
48854
43321.5
33192.3
40194.4
51307.5
6324.82
10488.4
12268.7
12361.8
13150.7
13973.5
15677.6
13921.7
17773.3
15778.5
16480.6
18376.6
17193.3
17687.7
18830.5
19030.7
20148.5
21775.9
23398.2
24999
26497.4
27013.8
29679.7
31835.7
31635
33053.5
33894.9
35440
35125
24378.8
69520.8
62814
59180.2
56548.5
54957.7
54755.8
55687.8
57850.3
60717.7
63145.2
69320.8
66208.3
74303.4
70759.2
74611.1
73546
72016.7
69804.5
64290.7
59609.9
54973.2
50346.8
36513.8
18766.2
16054
19075.1
19529.8
18944
17842.2
14421.2
7376.95
8424.71
12231.6
12509.2
12142.5
14234.9
16523.4
19483.6
21019.4
24199.1
24316
23162.4
22718.6
22653.2
22115.7
22410
23056.3
24641.2
27952.8
28379.7
29896.5
33161.1
30533.2
32570.5
34755.7
33350.9
35889.8
41350
47988.8
50830.2
-62338.2
-45271.1
-44622.4
-44031.7
-41898.7
-36197
-32229.8
-31533.5
-31442.3
-31550.5
-31877
-31816.1
-32400.6
-32955.5
-32032.9
-30653.2
-35142.3
-33642
-35565
-37632.9
-41738.6
-44175.2
-46603.3
-48624.8
-49414.2
-79734.9
-90548.1
-90718.3
-89496.1
-90208.6
-31175
-8600.53
-1098.33
5630.32
11452.6
15674.2
18934
20477.5
26364.1
25713.4
32611.7
30906.6
34782
34568.3
32682.2
30771.3
29041.5
24467.1
20315.4
17321.6
10980.2
-2266.69
-3919.42
-2717.7
-1624.85
-1174.61
956.337
-1003.7
899.067
-958.733
-21195.3
-16402.6
-11223
-8459.83
-5571.2
-4049.24
1958.63
-16.3155
7269.52
4695.22
6251.37
11780.9
5249.86
10002.2
8872.35
6010.76
3074.04
-7263.57
-23379.8
-24325.5
-19630.7
-16642
-15035.9
-10309.7
-9214.19
-6830.77
-4743.3
-5850
-16408
-26832.7
24029.5
26344.4
27878.9
27631.4
29275.8
30563.9
31210.3
33732.5
32740.2
29367.4
26522.9
25895.3
13540.5
9613.87
-244.827
-7624.78
-12275.7
-8807.75
-31403.3
-34244.7
-40421.7
-37927.5
-41563.4
-39041.3
-38975.9
-39328.7
-39502.8
-39655.5
-38760.2
-40809.8
-76513.8
-69774
-65458
-61366.1
-59488.6
-56304.1
-52358.2
-47762.6
-45046.2
-40269
-43078
-37992
-43987.6
-43722
-54139.1
-59234.8
-61267.3
-60851.4
-61234.6
-65960.2
-61076.2
-65182.3
-57464.7
-60852.7
-55762.2
-54924
-50710
-46696
-38542.6
-31713.2
-138412
-140770
-99443.9
-83640.9
-89535.3
-96478.1
-103466
-103885
-108656
-113678
-114288
-120686
-121261
-125120
-127495
-127773
-130204
-129231
-130856
-128513
-130177
-127547
-128432
-128086
-127678
-128264
-126770
-122849
-126089
-143674
-136637
-137166
-136409
-134468
-133769
-136147
-94014.8
-35351.7
-31917.9
-29951.3
-28501.6
-27007.3
-26966.3
-24737.2
-27417.1
-25203.3
-29057.6
-27738.3
-30155.6
-29249.2
-29683.9
-27228.2
-28074.7
-25531.9
-27201.7
-26385.9
-31205.1
-43604.6
-61683.9
-51283.8
341568
330725
313070
297709
291719
290670
291442
291856
294243
299101
315895
341844
370506
402595
110091
145513
146762
132385
122436
133856
165698
196044
203484
195059
177139
161625
150769
141443
137790
139068
142982
148349
154268
158678
161758
161386
160083
152844
143410
130046
112273
97866.6
101461
98729.3
47668.4
31502
29757.9
30195.9
30729.4
30941.9
32750.5
33160
37563.1
40167.2
43171.2
45624.1
48586.5
52588.2
56152.6
58568.3
60215.5
61016.4
60624.2
60806.9
60934.7
60020.3
60036.7
59669.2
58015.1
55316.9
50436
40568.9
35170.3
39313.7
9266.85
12151.8
12017.9
11359.1
10713.5
10163.8
9078.29
11307.1
11275
12028.5
15349.8
13553.8
17123.2
16412.2
17075
19443.8
20842.7
22996.1
25139.7
26849.9
28310.3
30464.7
30420.2
32188.4
33526
34305.3
34653.2
36065.8
37021.1
32330.4
70641.8
62053
56756.2
54192.3
53992.1
54894.7
59212.9
65454.1
72575.8
76769.5
81657.7
82559.5
88718.5
87248.4
88700
88581.3
87513.7
85526.3
81419
74871
66417.2
58429.6
49645
31813.3
20446.8
19750.5
22700.1
24954.6
24720
24176.8
9041.7
9963.88
12422.7
12928.2
15978.2
23403.6
30659.6
36385.2
38007.7
36615.3
35731.1
33765.8
30826.8
29113.9
26579.3
24773.6
25591.7
29070.7
30425
33370.5
37637.2
38760.9
42987.8
41366.8
38077.4
42364.7
40328.1
40962.3
47466.1
50931.1
-59881.9
-43914.9
-41440.6
-34303.3
-22447.1
-15512.3
-12735.3
-14541.4
-18189.1
-21723.5
-25086.2
-29730.7
-32799.1
-30765.7
-33029.6
-36125.2
-33298.2
-33880.2
-35324.9
-36280.6
-40333.3
-44021.7
-45606.8
-48522
-49107.8
-59827.7
-85940.9
-88970.3
-85490.9
-83463.7
-31911.4
-4698.75
5072.39
15423.4
20692.8
22066.7
22394.8
22708.2
26241.6
26294.7
28307.1
33139.6
32691.6
32728.2
33284.8
32936.2
32088.4
29937.9
26768.6
23284
19166.6
9313.37
-1355.57
-3541.02
-1392.73
-337.986
1786.14
2652.82
4200
3837.36
-22005.2
-13810.5
-7887.51
-5248.1
-3368.23
-1676.79
-62.2976
2230.32
3356.77
5002.64
5877.8
7775.4
10111.5
11899.7
10773.1
10275.3
10417.6
5575.57
-8605.44
-19927.9
-20048.1
-21544
-17875.6
-16871.6
-13189.7
-6586.77
-1100.15
3672.43
-1997.32
-23978.8
22197.8
23391.8
25302.2
28107.9
30110.2
31597.1
32770.3
29402.4
26062.1
27359.4
20232.6
13550.4
9186.27
1495.72
-1514.98
-8399.24
-10171
-9057.15
-17609.3
-34134.1
-41646.3
-40366.8
-41848.3
-40207.2
-39836.5
-40295.2
-39866.9
-39355.5
-36460.9
-37526.3
-78157.7
-73932.6
-65160.5
-60395.9
-56368.9
-53887.3
-51166
-47965
-42479.6
-42795.1
-39771.3
-36581.7
-39199.4
-34800.4
-42134.2
-46576.3
-55899.7
-61862.8
-71163.1
-75171.7
-73323
-76203.7
-71879.4
-68859.5
-64399.7
-61931.7
-56472.5
-51657.5
-42164.4
-30959.9
-132337
-107459
-84069.2
-82512.4
-89888.3
-89990.4
-95353.2
-98833.2
-98615
-104251
-109582
-113287
-119643
-122340
-126674
-127071
-129271
-127682
-128486
-127677
-129820
-129149
-129316
-131664
-131602
-130809
-129032
-124413
-124696
-139171
-134748
-142596
-144330
-133830
-132617
-108273
-52543.4
-26950.4
-23711.8
-18883.3
-14538.9
-11815.5
-9527.28
-9805.43
-11567.4
-12321.1
-18230
-21386.8
-27437.7
-30003
-32545.5
-29008.5
-29236.7
-25158.1
-26290.2
-25478
-30330.2
-45881.6
-63247.9
-50055.4
325656
303177
286963
282500
286321
294083
301403
305686
302833
293780
293024
307502
348801
397242
115364
147539
141721
126793
123983
155203
199210
223480
214964
187744
156023
137616
131506
129122
132053
141013
152052
162320
169988
177440
182203
184448
183802
179228
168294
152809
131569
108417
98870.9
102315
46322.4
30829.3
29107.4
28519
27669.9
28417.4
30868.4
39658.5
46611.9
52698.7
53117.7
50507.3
50738.3
53168.7
55860.8
57452.8
57834.6
57853.2
57766.5
58634
59066.4
58371.2
59465.4
60032.8
60671.2
59756
56009.6
48022.5
38053
35889.3
9722.43
11705.3
10556.1
9044.31
7238.68
6492.92
7848.2
8492.39
11388.4
9186.66
15091.8
15027.8
17133.2
19875.7
19945.7
20929.7
23762.9
25114.1
26147.5
27320.2
28219.8
29428.4
31384.7
32338.6
33716.5
35149.5
35418.3
36041.1
37201.7
35117
71411
61837.8
55646.9
53605.1
54754.3
58438.2
65942.1
74378.2
82481.2
84529.9
89200.6
89264.2
92630.4
88504.5
93757.7
93748.2
95030.1
92925
89895.8
85754.8
77397.8
67753.7
58590.8
46680.6
32532.9
22413.9
22211.7
24199.3
25611.2
26172.5
8941.44
10390.8
11393
13683.5
20857.5
33559.4
42593.6
46891.9
46763.1
38886
32689.4
30492.9
30773.5
29168.3
27035.1
27874.3
32020.7
35733.8
41940.8
50471.4
54763.2
53902.7
54678.9
57325.4
50056.9
48043
47107.8
43516.3
46035.2
50750.8
-58872.2
-41702.6
-34596.7
-19976.5
-6626.86
-2481.48
-8093.61
-12385
-13496.4
-20209
-28357
-33741.7
-32578.6
-33980.5
-36823.8
-30186
-30313.1
-31612.9
-34630
-35859.5
-37569.8
-41587.7
-45645.6
-48443.4
-50159.2
-53808.7
-72997
-88442.7
-88786.4
-82836.4
-31299.9
-3968.36
14794.6
21965
21075.8
18598.1
17688.2
18757.1
19698
21339.8
23979.1
25690.3
29130.2
30030.6
30362.2
30302.1
30291.8
30299
28935.3
26194.5
23042
17055.7
5540.63
-3776.72
-4097.07
-3640.25
-388.701
2364.32
6098.98
5461.99
-16000.6
-7702.7
-3759.23
-2846.92
-1922.16
-1896.24
129.159
-1647.79
2555
440.669
1507.94
3950.15
5698.22
9013.91
11015
13090.9
11575.1
9269.4
3968.88
-8973.58
-20318.6
-19830
-18363.3
-16792.4
-11344.6
-8540.58
-7047.1
5616.61
9707.41
-10910.4
19885.5
20735.6
24717.2
29523.2
32080.3
32022.8
27258
22636.3
19496.6
15968.8
5687.72
4498.63
-2863.65
-4041.63
-10460.9
-11563.6
-15797.9
-11388.1
-13272.7
-24648.4
-40988.7
-41793.3
-44005.9
-41329
-40335.7
-41697.3
-41260
-39664.1
-37657.6
-36793.4
-84367.2
-77337.5
-62906.1
-54646.4
-50886.9
-50388.2
-50438.1
-50423.2
-50754.3
-46466.4
-47098.3
-40170.3
-37537.5
-34343.6
-38523
-36763.4
-48842.5
-58513.3
-73342.2
-75886.4
-77720.9
-75855.4
-74103.8
-70206.2
-60874.9
-55197.3
-50916.7
-48774.4
-40927.4
-31289.2
-116878
-88685.3
-76169.6
-80677.8
-79182.1
-80500
-73487.3
-76934.2
-78444.5
-80940.9
-90203
-96559.1
-107086
-114795
-120306
-123618
-125353
-124234
-126546
-127229
-130687
-130421
-132090
-131489
-131933
-132197
-131299
-126842
-125026
-137268
-124864
-143686
-148119
-133335
-115721
-67617.3
-29573.1
-18917
-13154.1
-6760.65
-2230.95
1753.22
1836.55
3999.46
-55.5802
511.581
-5440.26
-10211.7
-20814.1
-27577.5
-35467.6
-32969.5
-33221.9
-31168.1
-32552.7
-34098.9
-44405.2
-59506.3
-65170.3
-46603.5
300939
285057
282244
288878
293734
302638
312694
329889
337301
327094
304800
297576
326828
389007
118304
148169
136947
124205
126923
169758
213619
231440
220443
190421
153164
131096
126424
127062
136847
151006
161998
169407
177082
183722
192722
200000
204457
200904
193901
175169
152335
122670
102078
102990
45246.3
30149.6
27858
26445.9
24846.4
26314
36762.9
49842.7
65509.6
77149.1
78106.4
67331.4
58788.9
56284.3
56042.8
56343.2
55677.3
56127.4
57329.2
58057.3
58188.8
57548.2
57368.9
58564.6
59977.3
61494.1
60198.8
53749.3
42104.6
35418.3
10011.9
11348.7
9406.32
6997.62
4335.78
4089.04
3917.8
5680.76
10561.6
10988.2
11597.8
17147.7
20052.9
21630.5
24052.6
23887.8
24012.9
26008.6
26919.7
28031.4
29038.6
26822.1
27496.3
29263.7
31543.6
34082.6
36028.9
36738.7
37787.3
36991.5
72539.7
62733.2
55936.5
54706.9
56590.3
62270
72596.9
82038.1
87380
86624.6
91941.3
91708.1
85986.5
93824.6
88131.7
85654.8
88621.3
94415.1
93255.3
90440
85984
76758.4
66856.8
56102
43443.8
30639
22070.8
25415.3
25736.5
26835.3
10659.6
10259.2
12004.5
13560.3
24701.7
39944.7
48271.2
49285.9
42415.8
30372.4
20478.7
17438.1
23036.9
25788.1
27728.1
32737.3
39719.9
49768.1
62476.3
68866.3
72792.8
76061.4
70914.2
70799.9
68722.9
57009.1
53296.7
49213.2
46597.3
49874.9
-58554.6
-38899.1
-27378.3
-9506.39
71.8888
-2584.28
-11400.2
-16844.5
-15233.3
-24179.7
-32672.4
-33688.7
-35019.8
-36170
-27335.9
-25781.8
-28605.1
-28244.5
-27504.9
-31147.7
-34542.7
-38336.1
-43576.4
-48944.7
-50908.7
-52107.9
-63926.4
-86499.9
-90872.2
-85511.6
-24590
3605.03
20455.2
19306
15650.1
13813.6
15031.8
17376.4
15814
20277.6
22455.2
20534.9
19796.3
21884.7
24785.2
26583.6
27103.7
28273.9
28406.4
27402.9
25157.3
21331.6
12156.7
235.972
-6347.72
-5253.16
-1765.36
360.634
5474.08
7446.72
-7528.37
-2481.09
-1290.46
-646.892
-18.6517
-2062.41
-148.062
-2353.74
-3753.29
-868.271
596.779
163.841
1987.85
2897.15
11535.9
13106
10281.1
13348.2
12688.1
-296.142
-9708.03
-17686
-21822.6
-17023.4
-14023.6
-11210.5
-4317.8
-967.774
10181.5
-5360.89
19701.2
21857.6
28107.7
30466.1
30232.2
25286
19669.5
16055.3
6294.99
-3913.44
-3631.42
-10553.4
-13857.2
-21101.8
-18405.8
-23210.2
-19948.3
-18046.1
-12381.4
-19692.8
-32297.9
-43243.6
-42955.7
-40877.6
-40846.5
-44262.3
-45222.7
-41801.5
-38256.8
-34976.4
-88016.6
-76429.6
-55423.9
-47885.1
-47723.2
-50321.9
-53504.3
-56831.2
-55331
-57484.7
-51533
-48534.4
-46138.5
-32574.2
-38073
-33316.5
-42104.7
-54681.7
-72452.9
-72959.9
-77777.7
-74208.4
-72372.7
-69282.8
-63977.2
-53027.6
-44352.8
-40403.7
-35579.3
-30002
-107510
-76200.8
-72753.6
-70746.6
-65483.4
-56693
-53727.4
-47524.7
-52854.1
-55655.4
-64478.5
-76863.7
-90665.5
-103693
-114908
-121729
-123502
-124789
-126428
-130425
-133147
-135542
-133930
-133829
-133285
-132996
-132400
-128283
-125743
-136984
-113169
-140958
-148838
-126549
-90028
-40845.6
-17768.8
-10583.5
-3069.94
3535.03
7431.08
7883.48
9425.24
8663.68
9904.44
6792.23
5033.58
2255.18
-8540.16
-20251.1
-35575.1
-39456.3
-42393.6
-48662.7
-58467.7
-61511.1
-64994.9
-65460.4
-60379.8
-37848.9
281575
282752
289138
289603
280765
266550
266382
289259
331424
345844
330455
302580
315676
380650
119403
147775
134656
122622
127615
172007
215564
234999
232604
211227
168781
133747
125585
128110
143276
155693
161064
166259
174199
186646
198035
208529
215885
218179
213127
195804
170939
136361
106725
103692
47895.3
30743.7
26869.9
23884.6
24696.5
27980.5
38460.1
59678.7
79704.4
93830.8
94861.2
78803.9
61620.7
55924.7
54494
54570.6
55324.3
57224.3
59114.7
59329.4
60304.9
61107.5
60640.1
58960.8
58859.1
60468
61803.6
57562.6
46210.8
34314.9
9925.43
11047.3
8707.38
5374.05
1983.11
1881.75
2593.85
1974.52
5254.31
12495.1
12510.6
14684.1
23139.5
25153.7
23772.8
25626.3
26016.2
26198.9
27375.8
25807.3
24282.6
27709.4
26643.3
26294
27927.4
31182.5
35502.1
37462.9
38768.5
38695.9
73850.7
63157.1
56202
55649.6
58140.7
65765.9
78548.9
87572.4
88393.9
88523.1
93993
88963.1
88871.1
91167.7
94454.8
92235.5
87798.8
87024.1
92945.5
93669.8
90806.3
83636.4
73669.9
62703.1
52832.5
38451.2
27413.3
24401
26206.4
25154.8
9632.97
10388.7
9931.72
11689.9
20039.2
34077.9
42546.5
41013.4
31328.6
20497.3
13063.3
10794.7
18014.1
24882.5
30694.3
39992.2
53413.7
68663
78201.2
84111.7
90387.9
93725.1
91766.6
81712.1
80849.9
71824.6
58426.9
53648.1
49787
49235.9
-57713.8
-36210.1
-20783.7
-1634.16
5210.24
-4588.54
-18277.9
-22445.2
-20118.8
-27677.5
-32523.1
-36906.8
-37215.5
-26596.5
-24204.9
-25826
-20769.9
-14937
-16386.1
-19280.8
-27381.2
-33966.1
-40528.9
-47416.9
-52149.7
-53097
-59301.3
-79622.8
-91324.9
-88226.1
-10397.7
18810.8
20788.6
14303.6
12443.2
12432.4
16362.2
16142.2
13571.2
18349.2
16860.6
15348.6
18038.5
16548.6
17854.5
20371.2
22354.9
24983.3
26513.7
27257.5
25904.5
23398
16905.4
5633.19
-5255.78
-5566.3
-1037.11
876.495
4566.48
7834.66
-634.078
2454.48
854.413
746.624
390.185
-747.476
-1259.69
-7702.07
-6521.2
-11385.7
-10656.3
-7367.18
-3963.52
2536.27
8283.29
7580.95
14371.6
16251.4
12364.1
9788.89
1797.28
-10695.2
-8951.93
-7413.78
-7975.49
-6040.47
-6797.68
967.236
16607.2
7307.33
13025.9
18372.9
27360.3
28324.5
23718.2
20049.8
14766.2
3577
-9853.21
-9624.68
-24090.4
-26447.1
-35300.8
-31047.9
-34141.8
-25015.7
-25416.9
-21747.9
-18129.6
-16351.9
-26804.1
-36794.6
-40215.1
-38361.1
-42116.5
-45364.5
-46593.1
-43828.9
-38715.4
-35063
-84071.3
-59648.1
-45619.4
-44841.4
-48265
-54892.9
-59107.1
-61902.6
-64666.2
-60268.5
-58989.7
-50244.7
-54120
-38507.6
-35313.5
-32839.8
-39290.7
-50165.4
-71192.4
-71089.9
-70784.8
-69804.1
-68672.7
-66154.5
-68956
-64720
-53889.4
-38565.1
-32741.5
-30152.7
-99441.7
-69727
-62489.6
-59640.1
-47375.6
-34298.1
-28407.3
-24504.7
-26622
-27890
-39358.4
-53492.4
-69471.7
-88937.9
-106220
-117887
-123558
-124669
-127103
-131382
-135963
-134073
-136032
-135660
-134427
-134226
-132817
-128503
-126801
-138032
-102586
-135636
-148914
-117829
-70094.1
-26047.9
-10613.4
-3592.56
3723.41
7908.75
8756.43
10890.5
10458.8
12833
12099.1
14145.5
8193.26
9088.87
2098.58
-7675.38
-29981.9
-45195.8
-51124
-64264.2
-71627.4
-68015.8
-61187.3
-55264.1
-40514.3
-29401.1
279198
286449
278288
251355
222568
209523
206464
224374
277443
337614
340093
310084
311033
375878
117602
148340
134149
121945
125037
162606
202918
231601
237583
227181
184722
135262
123284
129887
147035
152995
155524
162149
180049
199113
216089
223850
232127
231411
229217
211691
185675
146860
110720
104426
48207.8
30342.6
26973.5
25500
24217.2
25920.8
40385.5
64467.3
88460.6
101264
100112
82100.3
61413.6
54771.2
52946.7
53663.6
56476.3
59166.3
61504.9
61336
62230.4
62224.6
62689.4
63405.6
61295.4
61883.2
61675.6
60499.4
48329.4
36697.1
9953.32
11179
8598.88
4388.67
906.231
399.366
-64.4155
2518.57
3282.7
10027.5
14575.3
16920.3
23353.1
28345.1
25625
24763.9
27038.4
25920.3
24162.7
21634.6
17092
15619.6
18649.5
23657.5
26979.9
28970.4
34605.7
38221
40235
40486
74294.3
63831.6
56221
55820.8
57953.1
70134.7
82824.6
90085.6
88995.4
91582.5
93102.1
92072.3
91364.2
100540
92872.3
96622.1
96939.6
93537.4
88950
90924.1
94903
89141.1
78579.4
69192.2
57336
46070.2
30885.6
26787.2
25117.8
27098.8
13247.3
11349
12572
11841.2
16676
26764.9
33697.3
30890.2
23644.5
12798.9
6641.73
9260.34
20412.6
26867.3
36042.3
51833.4
67651.4
82534.8
91636.7
102431
106543
105498
106617
95834.7
86405
83053.3
67672
54800.7
51988.7
50471.5
-57706.4
-33286.2
-14878.8
2354.38
5598.35
-4295.59
-23020.9
-27484
-20682.3
-29337.6
-39174.5
-40227.2
-29443.7
-26186.6
-25765.4
-16021.9
-10812.1
-12443.4
-15079.5
-17210
-19131.7
-28255.1
-35715.5
-46295.6
-54120.3
-55074.8
-58876.1
-76841.5
-93497
-89858.1
4270.66
25711.5
15221.6
11383
11523.2
14574.4
16950.5
12696.8
12987.9
16676.9
5390.49
3554.99
4446.61
7515.04
9030.85
12299.6
16308.4
20653.7
23617.8
26172.9
25695.5
24172.1
19834
9652.81
-1651.49
-3910.37
-42.5455
2809.09
4891.42
9204.48
2207.94
1865.46
2966.17
2677.11
684.587
-1317.76
-1863.7
-10855.1
-8516.93
-12779.8
-10783.7
-11187.3
-2521.35
148.006
-2630.53
11251.4
18068.1
12043.7
17061.9
18082.2
5911.31
1511.81
-3222.95
-5402.61
-5328.53
-7233.65
-6350.15
-1909.63
15168.7
9612.63
11824
22472.1
26032.6
24794.2
24426.3
15394.9
3286.9
-6883.63
-14471.1
-26868.4
-35101.5
-44727.7
-40469.9
-48307.1
-43435.3
-42308.5
-34048.3
-28805.2
-19488.3
-19135.8
-22947.4
-32029.3
-36814.7
-36679.9
-43474.7
-46489.2
-45938.1
-43113
-38228.3
-34130.7
-58568.4
-43595.1
-42766.7
-47362.4
-54176.8
-59515.8
-67581.6
-72159.6
-72203.2
-69568.5
-71010.1
-55927.3
-55871.7
-47358.4
-39415.3
-27277.8
-39543.9
-50609.9
-65992.4
-68487.4
-62452.3
-55729.2
-57888.1
-56018.4
-59649.8
-67846.8
-69800.7
-57005.5
-36402.7
-30409.1
-97530.2
-64653
-55399.4
-41968.8
-32690.5
-15630.9
-7640.14
-2139.14
-5673.73
-6139.87
-18395
-29572.3
-49058.7
-71477.2
-94214.3
-113076
-121873
-125848
-125989
-132981
-135548
-135010
-134771
-135518
-135543
-134751
-133118
-128177
-127907
-140374
-92249.4
-126327
-149079
-111958
-58604.8
-18592
-6015.73
2264.16
7258.25
10314.3
14355.7
15394.9
17110.6
15194.2
15511.1
14466
14653.3
10972.2
6521.47
4437.22
-17236
-44936.7
-55591.7
-67079.4
-74097
-53895.5
-38597.2
-29242.9
-25677.1
-29226.5
288179
282682
244578
209207
198712
197880
201144
208884
247109
320399
344240
314374
310133
372419
114547
148289
137022
121777
122343
145394
179195
214067
235194
230354
195105
136424
120857
132780
148145
147701
150154
165755
196504
223857
243522
251217
252678
247118
242772
223118
194754
153390
112408
105129
54557.7
34484.9
29631.5
26417.5
27363.8
33999.5
51845.1
73682.9
92066.2
101654
99238
75483.7
54755.4
51525.7
52089.2
54676.7
60016.5
61976.9
65198.1
60826.7
61070.1
58119.6
58221.5
59962.2
60816.1
61819.2
64146
60977.8
50267.2
34267.6
9372.23
11302.2
8560.88
5271.59
588.159
-80.2175
-447.499
2602.75
5627.43
9712.7
13426.7
19872.2
26908.9
28135.1
26060.1
24723.9
24305.1
25000
22834.7
20228
20681.2
17931.5
14849.8
16134.8
22863.7
27208.9
34384.1
39349.6
42151.2
42849.4
74800.3
63056.7
55744.2
52820.7
58484
72391.1
86951.5
91492.2
90778.9
94217.9
95145.7
97300.9
99525.9
105442
95436.5
94488.3
94382.6
95937.7
97957.7
92043.5
95389.8
91167.4
84080.3
71374.3
62430.7
48863.9
35255.2
25641.3
25171.3
27808.5
11407.4
10800.6
10599.7
9861.01
9253.87
12149.6
14271.6
15475.9
10861.2
9503.04
9347.69
11757.6
20762.5
29778.1
46381.9
63309.3
78295.5
96481.8
102892
109554
111440
111023
113046
107662
92723.7
86430.7
75661.6
58546.4
50745.1
51176.3
-56668.7
-31044.8
-12954.9
3099.35
5830.8
-6728.8
-27188
-25783
-21790.7
-37174.6
-41965.8
-35382.8
-31885
-28129
-19071.4
-14121.2
-14348.5
-14353.7
-15211.7
-18638.6
-20975
-30540.9
-36106.7
-45639.2
-52772.7
-55921.3
-58893
-74393.8
-93305.9
-90854.3
12739.3
22507.6
12727.7
11596.5
12840.7
15934.4
15792.2
11473.3
16339.2
9123.25
-3517.17
-4528.29
-9234.04
-11593.9
-6111.65
983.131
10185.6
16959.6
20164.6
24332.1
25330.4
24562.8
21092.5
11552.8
2629.32
543.361
2590.31
4987.1
7147.79
9713.71
6025.26
3968.42
2822.79
4720.17
1671.04
-387.518
-4324.34
-10399.5
-9830.22
-13939.1
-13935.3
-7852.28
-7670.44
-7708.57
4847.07
13155.8
8628.37
18683.2
21277
16361
15567
10761.8
6523.3
2490.26
-2255.52
-4503.91
-3492.61
3312.9
19857.9
17260.7
9355.15
22139.6
24772.8
22479.5
16228
6046.23
27.5505
-11264
-29873.5
-33284.9
-44669.1
-44862.5
-51588.6
-48301.3
-49445.8
-41446.6
-37369.9
-31016.3
-26204.7
-21026.3
-22207
-29360.3
-33574.9
-38184.4
-46893.6
-43340.3
-40357.1
-39228.3
-35734.3
-33862.2
-40798.6
-41284.7
-47058.8
-52995.4
-59627.7
-65430.7
-68304.3
-68017
-67241
-65860.8
-68877.1
-64405.2
-57860.6
-44328.3
-44063.3
-27972.8
-35558
-55314.6
-63683.5
-58512.7
-55617.8
-45346.1
-40852.1
-42906.3
-42111.7
-49590.1
-64394.6
-73387.9
-63354.9
-41679.6
-94509.2
-60417.2
-49081.8
-32769.5
-13131.9
-4677.89
5899.46
14108
8394.75
8974.27
-2154.4
-14658.5
-32802.8
-55472.9
-82201.6
-105675
-120049
-125676
-126140
-132872
-134609
-136200
-134411
-134051
-135003
-134497
-131205
-128344
-130700
-143111
-81249.5
-109583
-148265
-113458
-55246.8
-15462.5
-2723.85
5196.01
7876.24
11099
15816
13899.2
15755.3
17693.4
18365.8
16412.9
14755.8
16856.7
7555.07
8065.77
-3415.28
-37251.5
-60675.5
-65577.6
-80481.8
-50285.8
-26400.4
-23143.6
-27300.4
-44478.3
291235
258290
210654
205900
240769
270568
270654
264751
275876
327404
347202
315241
312305
374310
104022
147271
142667
125100
121547
132102
150540
179789
213899
225377
196062
135416
118978
134500
145105
141841
149052
174667
215974
249127
270681
275668
273302
261154
253247
229045
198057
152515
111875
104434
55819.4
37513.6
31572.1
33013.9
36973.6
46970.8
62950
82298.5
95256.6
100503
95887.5
66679
51626.2
50235.2
50352.3
56487.3
61734
65328.8
62147.8
55921.1
54248
53690.1
55757.3
60566.5
59036.4
63456.7
63180.3
62832.3
49833.5
34236.3
10393.2
10377.7
9686.97
5586.9
2695.55
1392.96
1621.14
4431.69
6235.35
11277.8
13789.1
22771.7
30888.6
30020.5
24442.7
24601.1
26303.6
25553.1
21158
18392.6
17549.8
16574.9
17323.5
17677.5
22659.2
25256.6
35432.1
42435.4
46078.1
44299.3
75107.7
67121.3
56765.4
51666.2
57787.6
74148.9
88526.9
93535.8
92845.1
95960.5
98514.3
102386
103080
113363
101657
107721
100341
95171.8
94196.5
97344.1
94483.5
97564.3
84418.5
75783.9
63042.8
52368.9
34416.7
26963.2
26611.2
25755.6
15466.4
11435.1
13497.4
13759.2
13839.6
11946.9
12803.9
9153.34
10893.7
7905.19
6623.75
12053.4
26093.9
35242.6
54459.5
75037.5
86256.8
102184
113672
114676
119020
116962
118068
110535
99492
88707.2
75781
61961.4
52475.8
48383.5
-56592.8
-29501.3
-10408.6
4859.98
7272.52
-6556.59
-30609.6
-28576.2
-26787.3
-37861.5
-39893.7
-40564.2
-32239.3
-24769.3
-23821.2
-17820.7
-9665.43
-9049.35
-7763.07
-15944.8
-17129.5
-29402.4
-38318.8
-46553
-54550.3
-56562.9
-60603.8
-77394
-95498.9
-89898.8
21816.7
20285.7
13984.5
13425.3
14652.3
16434.8
14850
15205
15516.7
3524.96
-4976.38
-9718.79
-16449
-16271.3
-15924.1
-5948.65
8747.38
11745.3
17535.2
24068.7
24342.7
23661.5
20975.2
14056.7
5088.33
4390.63
6820.77
9010.05
10274.6
11439
5761.97
6588.42
5838.77
4247.52
4010.57
997.304
-5222.26
-6653.4
-8473.24
-10952
-10994.6
-10837.1
-11899.2
147.447
4851.51
3956.55
15391.2
21207.1
17518
21807.2
18924.2
11176
5885.78
-2019.71
1014.23
3058.04
902.576
4600.2
26034.9
19046.6
18271.4
42397.3
35774.1
20254.7
9611.94
5821.6
-3504.89
-22033.2
-29453.8
-36990.5
-51532.5
-53453.9
-59934.4
-61393.8
-54696.6
-50714.2
-40538.9
-36037.9
-30557.1
-22905.7
-24247.3
-28234.6
-33148
-43687.9
-48073.8
-39149.2
-36493.8
-36223.7
-36083.7
-39203.7
-40077.3
-46189.6
-53585
-58177.3
-63520.9
-68931.4
-71299.9
-73180.2
-77839.3
-73061.3
-70876.4
-61685.1
-63336.5
-43963.1
-43878.7
-34032.3
-35173.8
-53605.1
-64839.7
-52926.7
-46120.8
-44399.6
-37542.7
-34199.2
-34554.3
-34264.7
-39646.4
-57727.8
-76403.2
-70061.2
-100965
-58017.5
-44953.9
-29353.2
-6601.67
10922.1
11761.1
25225.4
16784.2
17206
4568.83
-4309.04
-22510.7
-44769
-72569
-98773.7
-118170
-125031
-126443
-131543
-135738
-135744
-135292
-133916
-132476
-131983
-130762
-130036
-135564
-146119
-74578.1
-86039.6
-141989
-121409
-58922.8
-15226.8
-1454.59
6272.19
8938.64
13050.6
17482.6
16281.9
21766.4
18020.6
22889.1
21450.3
14310.6
18911.8
10959.6
7454.02
3016.42
-22466
-67225.8
-62873.4
-90099.4
-73519.7
-41769.3
-36795.4
-57278.7
-91986.8
290205
232919
206834
269302
336371
358356
354417
338638
329368
345614
343176
311397
329989
356791
262703
151077
105384
143289
146045
131478
123599
127124
132440
151808
185281
212296
191950
133476
118982
136080
140096
138521
147461
183591
229734
263939
283432
285632
285397
270179
258089
228722
194021
144318
108773
104697
80943.6
72170.7
64403.4
47151
40304.8
39746.1
47377.4
58498.4
73134.1
84122
93677.3
97341.3
87219.5
53868.6
47825
48878.4
50811.2
58042.3
64828.4
62970.3
62426.6
53513.3
55220.7
51834
56399.5
60348.4
60737.2
63018.7
64513.6
61368.3
47865.9
33688.2
26598.9
16770.7
9914.53
12474.9
10400.4
7792.29
5570.42
3472.32
2835.38
6293.22
8122.91
13700.9
15558.9
27249.6
35788.5
28520.5
23861.2
26343
26211.4
25821.3
22439.6
17467.6
13645.4
12852.5
11358.4
18631
23804.8
26675.7
37472.3
44648.7
46716.4
48215.5
52462.6
49681.6
71075.3
59348.5
51093.9
49328.2
56413.8
72781.3
90143.6
94508.2
95617.1
98403.8
101779
106605
108483
116673
106084
111436
106751
96674.5
101392
98143.3
95920.4
98269.8
85937.8
75191.4
64972.7
50112.9
31780.2
26278.4
25688
25621.2
22806.3
15893.9
14551.6
13136.2
10743.4
11582.6
10707.3
11808.4
9823.45
10949.7
9362.34
9908.82
11060.2
21398.8
32352.7
41742
64163.2
81607.9
94883.9
103922
118047
122416
126289
123020
120639
109896
100922
88418.9
73156.9
59837.5
50746.9
46177.7
1244.37
-48218.2
-53894.8
-27149.6
-9996.69
4222.17
6548.44
-11012
-32692.9
-29521
-26056.4
-37677.8
-44264.6
-41295.2
-33174.7
-30261.7
-27022.3
-18247.4
-16769.7
-13165.7
-13103.9
-18884.5
-20955.5
-31783.6
-42219.5
-49895.7
-54411.9
-57685
-62356.2
-78978
-91537
-52880.9
22262.5
24177
22569.4
18113.3
14289.6
13614
15600.4
16795.1
16354.4
18104.9
15229
1649.73
-1731.88
-8918.26
-11871.8
-11691.9
-15316.3
-3696.18
4680.71
8589.17
18757.1
22124.4
22485.8
22962.4
21034.8
14459.6
8381.09
8216.74
12469
12706
12782.1
13005.3
13594.9
12981.7
9952.11
7375.71
7618.91
6432.78
5301.01
3829.08
-4283.48
-7298.59
-7338.21
-8056.4
-11587.8
-10392.7
-5321.98
3382.86
149.909
11762.6
17765.9
16695.4
23028.4
23089.5
18408.3
14041.4
-163.459
1685.78
14719.5
13235.2
8811.09
19296.5
31165.5
23547.6
2319.19
12987.4
28885
55585.1
34582.7
15065.2
10794
1613.23
-6736.21
-21632
-33485.4
-38227.9
-51548.1
-52040.6
-60204.7
-58013
-55039.4
-50274.5
-43307.6
-38093.3
-30839.7
-25842.9
-25806.3
-28597.7
-36164.3
-49422.8
-47018
-39339.7
-37687.8
-37284.9
-35217.4
-32068.5
-31960.3
-32624.7
-39025
-50012.3
-55823
-61867.3
-67252.6
-69897.3
-73496.3
-74689
-82125.7
-75836.1
-75594.5
-62465
-64791.2
-45477.2
-39891.4
-35492.3
-43150
-54337.4
-59295.6
-54086.8
-44093.8
-41828
-43631.9
-38179.9
-33569
-32693
-31299.8
-35054.3
-58059.8
-78486.7
-89950.5
-92160.5
-93441
-67885
-37852.1
-23592.2
-6507.19
16857.6
17490.8
25570.6
21987.1
20524.9
9214.76
-69.8307
-17539.3
-39985.7
-66172.8
-94201.8
-113765
-126559
-126725
-129182
-136514
-137860
-136170
-135465
-133972
-133018
-134124
-136882
-142299
-147380
-132251
-101419
-70795.9
-58403.2
-101027
-124187
-76709.5
-21925.8
-968.249
6266.03
10252.9
11824.7
17490.6
17327
21786.8
19457.3
22462.3
22345
15617.7
19366.9
13568.3
7006
4261.16
-10473.7
-68824.5
-69636.4
-91921.5
-99697.9
-77263.4
-81665.7
-104218
-119126
17184.5
71528.4
284469
218382
237479
339378
386542
386162
379634
371590
359367
354164
333808
308635
337069
361127
277330
160238
107355
133126
145249
139825
131402
128364
129665
141043
171561
200242
186298
130448
117050
134203
137845
134758
145075
185174
230506
264576
282157
288108
285263
272017
252007
221564
180596
134044
106889
104120
73543
72070.2
66891.7
56479.5
50964.1
54742.4
60689
70795.5
77293.9
83463.1
87387.9
90394.2
78297.1
45645.5
47348.1
45840.4
51570.9
57896.9
67062.9
62088.1
63052.2
53997.9
55373.6
52906.6
56363
60034.8
60902.7
64737.6
65241.5
59039.3
45494.9
33254.1
26409.5
13087.2
10035.9
11441.2
11383.8
10141.6
7238.17
6155.67
7171.8
8930.38
12061.5
13046.9
19565
35202.1
36627.2
27403.6
22830.2
25666.4
28500.6
25911.9
25337
18825.1
15579.9
11554.7
12620.8
21491.5
24101.8
31738.4
40661.9
47442.1
50831.3
55099.3
56297.5
57182.1
68214.8
54664.1
50097.3
49383
55008.2
70950.7
90213.4
96103.4
97231.9
100287
104249
111216
111133
116319
107767
109130
104940
102649
100644
104074
95584.7
99297.4
82086.2
74403.1
60077.2
44114.6
28755
28073.1
28176.8
25050.2
24462.4
17181.9
16376.6
13620.2
13268.4
11944.7
13877.3
12975.2
13260.5
12027.2
12984.9
9920.43
15663.8
22529
32427.3
45412.3
68067.6
83653.7
97570.7
107241
114356
117171
118354
116462
113734
106439
96062.6
82533.4
68622.3
58650.9
53402.6
46868.6
-27386.1
-54165.6
-50856.9
-23240.1
-8586.26
2061.06
4929.42
-17435.5
-32570.4
-28067
-25624
-38771.7
-45762.7
-43615.4
-38428.6
-33819.8
-32274
-24681.3
-20528.1
-21351.8
-22169.1
-25764.5
-28950.7
-39374.8
-45523.8
-54155.8
-55679.6
-58970
-67626.1
-83154.5
-81012
-20800.5
31350.6
31077.6
30964.2
25823.9
18551.4
17011.4
17216
18709.9
19192.8
19929.5
17752.7
12402.7
4349.73
-7435.65
-12939.7
-15054.1
-11149.6
1618.87
2435.49
14608.7
20229.1
19813.8
22713.3
22737.6
19640.4
13307.1