/*--------------------------------*- C++ -*----------------------------------*\
| =========                 |                                                 |
| \\      /  F ield         | OpenFOAM: The Open Source CFD Toolbox           |
|  \\    /   O peration     | Version:  2.1.1                                 |
|   \\  /    A nd           | Web:      www.OpenFOAM.org                      |
|    \\/     M anipulation  |                                                 |
\*---------------------------------------------------------------------------*/
FoamFile
{
    version     2.0;
    format      ascii;
    class       volVectorField;
    location    "0.007300000";
    object      U;
}
// * * * * * * * * * * * * * * * * * * * * * * * * * * * * * * * * * * * * * //

dimensions      [0 1 -1 0 0 0 0];

internalField   nonuniform List<vector> 
12384
(
(-1.70318 -1.34923 0)
(-1.60932 -2.7327 0)
(0.240749 -3.3459 0)
(3.33309 -4.32017 0)
(7.30025 -3.86884 0)
(10.8121 -4.25698 0)
(14.0124 -3.0034 0)
(15.6293 -2.6818 0)
(15.7191 -1.12025 0)
(14.3207 -0.884027 0)
(11.2913 -0.00686845 0)
(8.14594 0.268656 0)
(4.4758 0.200011 0)
(1.3109 -0.374118 0)
(-3.27303 2.69653 0)
(-11.0037 3.8293 0)
(-20.9741 4.75449 0)
(-32.6202 5.90018 0)
(-45.6535 6.01093 0)
(-57.3948 5.42989 0)
(-66.7784 2.94933 0)
(-71.0497 1.30279 0)
(-71.01 -0.625719 0)
(-67.254 -3.17257 0)
(-57.6392 -5.98141 0)
(-44.288 -7.7307 0)
(-27.2703 -9.12143 0)
(-7.61114 -10.329 0)
(14.3048 -11.4849 0)
(38.0281 -12.0469 0)
(62.1549 -11.8929 0)
(85.0445 -10.4335 0)
(104.244 -8.99171 0)
(118.636 -5.29761 0)
(128.41 -4.00229 0)
(129.868 1.15876 0)
(123.093 4.66669 0)
(109.236 8.76951 0)
(88.4144 10.4724 0)
(64.3611 11.618 0)
(40.4636 10.058 0)
(19.9514 7.39456 0)
(6.27507 3.39167 0)
(0.616426 -0.638727 0)
(-7.64366 5.78252 0)
(-24.7664 7.55762 0)
(-45.334 8.93632 0)
(-65.7933 8.34162 0)
(-83.7138 6.7288 0)
(-97.1038 4.12912 0)
(-104.494 2.42743 0)
(-105.921 -1.22753 0)
(-101.84 -3.66059 0)
(-92.4157 -6.22301 0)
(-77.9537 -7.6086 0)
(-60.0043 -9.3052 0)
(-38.3235 -10.8188 0)
(-13.1277 -12.5863 0)
(15.2815 -14.2022 0)
(46.767 -14.728 0)
(78.588 -14.1885 0)
(108.271 -12.3962 0)
(133.417 -9.48308 0)
(152.298 -5.94164 0)
(164.04 -2.56114 0)
(166.93 2.81918 0)
(159.609 7.99617 0)
(141.847 12.774 0)
(114.692 16.9465 0)
(81.5977 18.5167 0)
(47.8954 16.6787 0)
(19.6174 12.3026 0)
(2.12545 4.47797 0)
(-3.22663 -3.26007 0)
(-4.51011 4.14132 0)
(-19.5159 10.1265 0)
(-45.1982 14.5147 0)
(-77.2839 16.9946 0)
(-109.38 15.5498 0)
(-135.69 11.2955 0)
(-151.599 6.19448 0)
(-158.705 -0.128684 0)
(-154.828 -2.43534 0)
(-142.941 -10.0094 0)
(-123.775 -10.5871 0)
(-98.5598 -14.0171 0)
(-73.5638 -13.6432 0)
(-47.1043 -13.2458 0)
(-21.8812 -12.1643 0)
(1.81621 -11.8303 0)
(26.1013 -11.9681 0)
(51.6406 -12.6812 0)
(77.4292 -12.5008 0)
(101.838 -11.1581 0)
(122.064 -8.44029 0)
(135.455 -3.53388 0)
(139.554 0.898823 0)
(133.151 6.94182 0)
(115.54 12.3096 0)
(89.5163 16.1888 0)
(59.0724 16.7698 0)
(29.7845 14.5299 0)
(8.22313 9.46807 0)
(0.128448 1.52916 0)
(-12.9243 11.9009 0)
(-34.367 9.48877 0)
(-49.0803 5.20716 0)
(-53.9212 0.350647 0)
(-49.3378 -4.64223 0)
(-34.5743 -10.7334 0)
(-9.69468 -15.687 0)
(23.5028 -20.0708 0)
(63.7129 -22.8465 0)
(106.261 -24.7152 0)
(149.437 -21.9653 0)
(189.655 -21.4977 0)
(218.288 -13.4471 0)
(242.958 -13.1397 0)
(250.443 -2.71885 0)
(249.747 2.61227 0)
(232.868 11.1409 0)
(205.286 16.8701 0)
(165.416 24.1181 0)
(116.695 27.3229 0)
(65.1062 26.066 0)
(19.1076 22.2041 0)
(-17.2201 16.3376 0)
(-40.7374 9.386 0)
(-49.9299 1.30897 0)
(-47.8293 -1.97237 0)
(-39.9807 -4.85025 0)
(-28.4447 -4.80181 0)
(-15.372 -4.36975 0)
(-4.40097 -2.10761 0)
(-5.27488 5.45089 0)
(-18.4527 8.06418 0)
(-36.1418 10.1309 0)
(-57.1942 11.6692 0)
(-78.9922 11.3629 0)
(-97.6145 9.40967 0)
(-111.299 5.85456 0)
(-118.598 2.06965 0)
(-120.194 0.98912 0)
(-112.944 -4.83994 0)
(-97.7691 -8.37175 0)
(-76.7732 -11.0517 0)
(-49.9121 -13.1918 0)
(-18.7691 -15.1909 0)
(15.5473 -16.9708 0)
(51.8243 -17.8854 0)
(89.1838 -17.1879 0)
(123.425 -15.7878 0)
(152.505 -12.7545 0)
(175.481 -8.65209 0)
(190.402 -4.64437 0)
(195.871 -0.16438 0)
(190.189 5.56209 0)
(172.927 12.4377 0)
(146.088 16.0277 0)
(109.3 19.3095 0)
(70.6701 19.3515 0)
(35.3523 15.0269 0)
(9.70365 7.85334 0)
(0.245101 -1.36238 0)
(-9.56899 9.48044 0)
(-30.3487 11.0986 0)
(-51.9928 10.6885 0)
(-68.8459 7.26815 0)
(-77.6373 2.4162 0)
(-78.0201 0.0972256 0)
(-68.8939 -7.49585 0)
(-49.9255 -11.5267 0)
(-23.2971 -14.6524 0)
(9.25489 -17.7632 0)
(46.1889 -19.9754 0)
(86.6159 -20.8667 0)
(127.559 -19.7986 0)
(167.099 -17.4382 0)
(199.929 -16.2628 0)
(227.183 -10.7581 0)
(247.584 -7.54992 0)
(256.644 -2.16076 0)
(257.115 1.82368 0)
(243.972 8.07192 0)
(221.942 14.1127 0)
(188.727 20.1549 0)
(144.959 24.6547 0)
(96.3427 24.6341 0)
(49.8109 20.8677 0)
(13.4047 15.0361 0)
(-9.03135 7.68489 0)
(-18.4052 -0.490598 0)
(-16.51 -6.29886 0)
(-7.18425 -6.82525 0)
(-7.94093 6.5593 0)
(-8.23095 3.48013 0)
(-3.60681 -1.07021 0)
(10.5789 -7.06985 0)
(35.472 -12.3423 0)
(69.6657 -16.4492 0)
(111.107 -18.8722 0)
(153.942 -19.2036 0)
(196.582 -18.0803 0)
(231.586 -15.8559 0)
(260.216 -10.6483 0)
(282.663 -7.61499 0)
(287.621 -1.07339 0)
(287.876 5.71566 0)
(274.261 10.1895 0)
(247.049 16.4952 0)
(211.33 22.2224 0)
(166.147 25.6446 0)
(118.094 24.8348 0)
(75.0284 20.3127 0)
(41.1058 14.4675 0)
(17.8836 8.88986 0)
(4.05317 4.59723 0)
(-3.14162 0.41201 0)
(-6.04711 -1.95129 0)
(-4.8816 -3.4538 0)
(-0.506896 -5.38852 0)
(4.01356 -3.31044 0)
(5.99453 -2.81677 0)
(3.19654 -0.0204225 0)
(-13.3001 10.6243 0)
(-17.8053 1.19013 0)
(-3.8919 -12.9503 0)
(31.5683 -22.8124 0)
(78.8414 -27.7454 0)
(130.231 -27.6968 0)
(179.7 -26.0514 0)
(221.097 -20.8328 0)
(251.356 -14.0018 0)
(275.939 -10.0702 0)
(277.516 -4.56097 0)
(267.395 7.82709 0)
(243.59 15.6013 0)
(201.433 24.0311 0)
(150.518 29.0484 0)
(92.9968 27.4533 0)
(42.806 23.1278 0)
(4.15073 16.6993 0)
(-22.3461 9.87154 0)
(-37.6107 3.646 0)
(-45.2085 -0.617479 0)
(-47.7687 -2.52688 0)
(-45.8824 -3.82477 0)
(-37.5291 -6.2716 0)
(-26.0472 -7.30193 0)
(-13.2481 -6.37618 0)
(-2.93512 -4.33408 0)
(2.63479 -1.29392 0)
(2.96164 0.244096 0)
(1.05359 3.02051 0)
(-11.464 9.02752 0)
(-20.9929 -0.653554 0)
(-17.2341 -7.40084 0)
(3.05941 -17.3132 0)
(40.5387 -25.6794 0)
(89.4037 -29.6463 0)
(144.056 -31.5664 0)
(197.976 -27.9486 0)
(243.38 -25.7303 0)
(282.774 -15.4227 0)
(304.902 -16.0017 0)
(312.062 0.178091 0)
(311.05 2.43439 0)
(281.06 16.8071 0)
(239.168 22.5268 0)
(177.209 30.2068 0)
(110.108 27.1083 0)
(51.4708 23.9994 0)
(5.09043 13.7557 0)
(-26.6912 9.67838 0)
(-47.0411 2.78561 0)
(-59.6431 1.17386 0)
(-62.2007 -3.6694 0)
(-58.5152 -9.19473 0)
(-44.4707 -11.6332 0)
(-28.1929 -11.3607 0)
(-14.3858 -9.44807 0)
(-5.21292 -6.2692 0)
(0.0600334 -3.85361 0)
(1.42905 -2.31581 0)
(-26.8369 27.8664 0)
(-54.9848 14.9134 0)
(-61.1579 2.27496 0)
(-36.0744 -17.4226 0)
(17.5644 -29.5214 0)
(84.2016 -33.8738 0)
(149.329 -30.2501 0)
(203.42 -21.4159 0)
(236.212 -12.6857 0)
(250.086 6.41917 0)
(233.116 11.8009 0)
(196.816 24.7687 0)
(141.492 30.015 0)
(85.894 24.1265 0)
(42.3909 18.5219 0)
(12.4285 8.47591 0)
(1.26645 -1.10252 0)
(-0.0208025 -3.6044 0)
(5.28357 -7.14079 0)
(5.8076 -3.77497 0)
(12.8008 -3.65094 0)
(16.2247 -3.58712 0)
(25.1688 -4.4875 0)
(32.3189 -2.58831 0)
(39.857 -1.11517 0)
(45.0537 2.1855 0)
(44.3108 2.78923 0)
(38.8298 8.29821 0)
(26.691 11.1993 0)
(10.1181 13.0871 0)
(7.96658 -7.25377 0)
(6.83048 -3.91322 0)
(-1.95154 5.30808 0)
(-19.5082 8.9302 0)
(-45.3396 12.7676 0)
(-71.2526 10.7907 0)
(-94.0078 9.88195 0)
(-112.384 3.24768 0)
(-118.929 2.34356 0)
(-119.04 -5.19083 0)
(-112.358 -5.42593 0)
(-98.5225 -9.2627 0)
(-82.3236 -10.4447 0)
(-61.4759 -10.9084 0)
(-40.6436 -11.7354 0)
(-19.0479 -10.809 0)
(2.5255 -11.4802 0)
(25.0424 -11.1921 0)
(48.9426 -12.7767 0)
(73.369 -11.5091 0)
(96.4392 -10.9457 0)
(113.822 -6.51339 0)
(124.849 -1.45177 0)
(123.801 1.71994 0)
(116.297 6.6399 0)
(99.0761 11.3036 0)
(74.0339 13.9798 0)
(46.8962 13.3594 0)
(22.6609 10.2045 0)
(6.04194 5.6902 0)
(5.75181 -6.21876 0)
(17.3662 -6.34382 0)
(26.998 -4.04412 0)
(30.9719 -0.760325 0)
(29.4197 1.35468 0)
(21.3269 6.5574 0)
(4.78503 10.6234 0)
(-19.9589 14.2548 0)
(-50.1051 16.1416 0)
(-81.7205 16.0607 0)
(-110.38 13.1658 0)
(-130.956 8.86702 0)
(-143.235 1.62774 0)
(-141.273 -1.38672 0)
(-131.175 -9.56209 0)
(-111.182 -10.0111 0)
(-85.5734 -16.0715 0)
(-54.5665 -15.3325 0)
(-22.9913 -17.0069 0)
(8.19064 -14.5877 0)
(34.5639 -12.7824 0)
(56.3805 -8.51476 0)
(68.9781 -5.0444 0)
(74.178 0.00516844 0)
(71.9852 1.76238 0)
(65.0237 5.0891 0)
(55.0804 7.29068 0)
(40.4023 8.63829 0)
(24.9192 8.94489 0)
(8.42434 9.06011 0)
(-0.370208 -4.79166 0)
(1.46691 -8.56708 0)
(4.7858 -10.8509 0)
(8.93635 -12.2487 0)
(13.234 -11.9992 0)
(16.9449 -11.4216 0)
(20.0441 -8.95305 0)
(21.2664 -6.85049 0)
(21.1418 -3.34865 0)
(19.6031 -1.49873 0)
(16.6134 0.635404 0)
(12.5516 1.65238 0)
(7.45021 1.93504 0)
(2.48135 0.874579 0)
(-5.00369 9.91452 0)
(-15.2922 12.6435 0)
(-26.4797 14.665 0)
(-37.5425 16.5562 0)
(-47.985 15.9071 0)
(-56.3371 13.4363 0)
(-62.4454 7.51896 0)
(-64.7135 2.1987 0)
(-62.5204 -3.2907 0)
(-56.8607 -10.8986 0)
(-46.4779 -17.7399 0)
(-32.5261 -22.9505 0)
(-15.5423 -27.1369 0)
(4.0661 -30.7565 0)
(26.2391 -33.9357 0)
(49.9893 -35.8836 0)
(74.2417 -35.0815 0)
(97.1083 -31.6218 0)
(116.931 -25.7808 0)
(131.53 -17.161 0)
(140.141 -9.40114 0)
(142.618 2.02573 0)
(138.794 12.3205 0)
(127.883 22.5328 0)
(111.42 29.1185 0)
(91.0695 33.0606 0)
(67.2084 31.2404 0)
(43.343 24.9089 0)
(22.1735 15.7449 0)
(6.35896 4.48717 0)
(-10.4205 19.9963 0)
(-30.7085 23.8148 0)
(-50.6577 25.1974 0)
(-67.8717 22.2591 0)
(-80.002 16.8828 0)
(-88.3834 8.51106 0)
(-91.4297 2.40401 0)
(-89.7666 -5.92283 0)
(-83.7537 -11.2517 0)
(-72.6608 -18.6357 0)
(-58.1308 -22.5853 0)
(-40.0984 -27.7573 0)
(-18.577 -32.262 0)
(6.88252 -37.4561 0)
(35.9272 -41.759 0)
(67.2325 -43.2959 0)
(98.2622 -41.2444 0)
(126.809 -35.607 0)
(150.875 -26.8346 0)
(168.588 -16.5828 0)
(179.195 -5.60079 0)
(181.754 7.43125 0)
(176.383 20.7514 0)
(163.69 33.9671 0)
(143.83 45.2631 0)
(117.324 51.8937 0)
(86.3654 50.5912 0)
(54.9362 40.3232 0)
(27.2975 24.288 0)
(6.59094 4.57843 0)
(-11.5667 19.7063 0)
(-37.1269 34.472 0)
(-66.9263 44.0266 0)
(-95.6291 45.8437 0)
(-119.162 39.1716 0)
(-134.619 27.0595 0)
(-142.929 12.7692 0)
(-141.784 -1.66588 0)
(-133.949 -10.8691 0)
(-120.829 -26.7629 0)
(-101.014 -32.5815 0)
(-78.4462 -38.8831 0)
(-52.5712 -40.4559 0)
(-26.6429 -39.7359 0)
(-1.94689 -36.4125 0)
(23.5386 -36.319 0)
(49.1595 -37.4107 0)
(76.535 -38.893 0)
(104.71 -38.2804 0)
(131.087 -33.6594 0)
(153.157 -25.1796 0)
(167.587 -13.2621 0)
(172.73 1.70539 0)
(169.106 18.5321 0)
(155.906 33.7632 0)
(133.572 45.9026 0)
(104.023 51.0849 0)
(70.143 47.6551 0)
(36.9224 35.8387 0)
(11.0165 15.5303 0)
(-12.7872 34.8909 0)
(-30.2504 24.8985 0)
(-39.3566 11.3148 0)
(-39.1706 -3.41179 0)
(-29.1587 -17.0004 0)
(-10.3394 -33.2772 0)
(16.3443 -47.7138 0)
(50.9158 -59.3714 0)
(91.6908 -68.5185 0)
(133.937 -69.9904 0)
(178.132 -64.9325 0)
(215.542 -57.619 0)
(242.888 -41.779 0)
(266.625 -29.251 0)
(274.771 -10.3127 0)
(271.797 6.22342 0)
(260.919 27.2015 0)
(241.432 46.4397 0)
(213.501 63.9434 0)
(176.053 76.0842 0)
(130.523 78.2674 0)
(81.4101 69.8713 0)
(36.0834 55.2455 0)
(0.541048 35.027 0)
(-22.2044 14.5561 0)
(-32.5819 3.03674 0)
(-34.0117 -5.67999 0)
(-27.9292 -11.6432 0)
(-16.9988 -12.9717 0)
(-5.52948 -7.22055 0)
(-9.11213 20.3502 0)
(-28.0598 25.962 0)
(-48.1702 30.5951 0)
(-67.1589 31.8209 0)
(-83.6447 29.2705 0)
(-96.8191 22.8886 0)
(-105.121 14.3886 0)
(-107.947 4.52492 0)
(-104.866 -2.08773 0)
(-95.645 -15.0541 0)
(-79.6364 -24.6714 0)
(-58.0061 -33.0334 0)
(-31.9027 -39.5657 0)
(-0.948417 -45.4741 0)
(33.8695 -50.1448 0)
(70.725 -52.1325 0)
(106.67 -51.188 0)
(139.578 -46.2774 0)
(168.858 -36.0452 0)
(190.602 -24.6604 0)
(203.061 -12.1653 0)
(206.734 1.97807 0)
(203.136 15.1657 0)
(189.741 30.8864 0)
(167.172 43.3698 0)
(141.827 52.2073 0)
(107.793 55.1908 0)
(70.7993 48.2545 0)
(36.8078 32.5007 0)
(10.7611 8.73761 0)
(-12.4753 30.8664 0)
(-35.3019 33.6987 0)
(-55.2223 29.6041 0)
(-68.3202 19.0946 0)
(-73.2164 4.80958 0)
(-69.1106 -5.36163 0)
(-55.5648 -22.4836 0)
(-34.6509 -34.1043 0)
(-8.34388 -42.9652 0)
(23.7494 -51.4729 0)
(60.373 -57.7704 0)
(100.059 -59.838 0)
(139.649 -57.2644 0)
(175.743 -52.6862 0)
(208.218 -43.673 0)
(235.27 -31.014 0)
(253.006 -21.5514 0)
(261.884 -7.59165 0)
(261.726 6.24323 0)
(254.2 20.9204 0)
(236.355 37.156 0)
(211.753 52.7055 0)
(180.6 64.9586 0)
(142.567 69.9358 0)
(100.352 64.3291 0)
(59.8433 49.4446 0)
(27.7703 29.3381 0)
(7.64149 9.0651 0)
(-1.0847 -4.00403 0)
(-2.68411 -14.6052 0)
(-2.08314 15.6589 0)
(1.58802 3.97886 0)
(13.6767 -9.43929 0)
(35.0609 -24.4533 0)
(65.1812 -39.1071 0)
(102.401 -50.1801 0)
(144.259 -56.435 0)
(186.249 -56.72 0)
(226.642 -52.8274 0)
(262.338 -45.1686 0)
(290.114 -30.6178 0)
(311.701 -20.5671 0)
(322.107 -4.65347 0)
(319.706 12.3688 0)
(309.898 27.2163 0)
(292.014 43.9995 0)
(266.244 58.3939 0)
(232.82 68.8876 0)
(192.82 71.7146 0)
(147.912 64.7156 0)
(103.482 50.9626 0)
(64.6409 35.1246 0)
(35.4503 20.7366 0)
(15.9875 10.0227 0)
(3.91004 -0.247913 0)
(-0.526384 -7.50179 0)
(1.34515 -14.0073 0)
(4.54706 -10.326 0)
(5.18445 -7.67665 0)
(2.40589 -0.263349 0)
(-2.48769 17.9577 0)
(8.49489 -10.5829 0)
(34.7772 -44.604 0)
(74.6301 -67.9599 0)
(121.497 -79.7586 0)
(168.598 -77.5177 0)
(213.186 -72.6728 0)
(251.183 -56.8216 0)
(277.806 -41.4723 0)
(296.244 -23.6504 0)
(303.49 -5.00398 0)
(299.964 17.8649 0)
(284.227 38.8825 0)
(258.135 59.0287 0)
(223.51 74.5036 0)
(177.161 79.0895 0)
(127.123 73.2443 0)
(76.4778 57.6786 0)
(32.549 38.7352 0)
(0.877585 22.3709 0)
(-18.4844 10.1569 0)
(-28.3831 0.703118 0)
(-28.3779 -7.99638 0)
(-21.2798 -18.1624 0)
(-11.8645 -23.1356 0)
(-0.494949 -20.1492 0)
(7.14151 -14.1488 0)
(9.54962 -6.73731 0)
(8.39123 -0.646553 0)
(4.09586 3.16285 0)
(-3.823 15.8541 0)
(-2.52593 -6.21221 0)
(10.0144 -25.5706 0)
(37.0037 -52.5773 0)
(76.0886 -72.462 0)
(123.407 -84.726 0)
(174.313 -87.3592 0)
(224.52 -79.0868 0)
(267.413 -67.9455 0)
(302.158 -47.5153 0)
(325.776 -31.9314 0)
(330.315 -1.75641 0)
(326.578 15.1234 0)
(308.138 39.6781 0)
(274.207 62.3957 0)
(231.099 80.7797 0)
(173.073 82.631 0)
(110.267 75.9076 0)
(49.1792 52.8399 0)
(2.27029 34.103 0)
(-29.4833 14.6602 0)
(-47.6854 3.90239 0)
(-52.9595 -9.65004 0)
(-47.2509 -25.4511 0)
(-34.6577 -33.303 0)
(-20.4922 -32.4841 0)
(-8.08411 -26.4356 0)
(-0.00633673 -17.612 0)
(2.44031 -11.0093 0)
(2.07801 -5.83056 0)
(-21.2286 67.9542 0)
(-25.4711 27.2425 0)
(-8.45862 -11.8736 0)
(35.5081 -59.4243 0)
(94.4799 -86.8891 0)
(158.97 -92.5347 0)
(218.262 -81.8219 0)
(265.084 -59.7154 0)
(298.39 -31.7295 0)
(311.254 3.94007 0)
(300.896 33.1811 0)
(283.946 64.2795 0)
(242.556 80.0991 0)
(191.924 77.1847 0)
(133.133 64.0773 0)
(82.4336 39.5626 0)
(44.2412 14.8784 0)
(21.0511 3.22515 0)
(9.80994 -5.41703 0)
(3.36587 -3.2616 0)
(3.10605 -6.90882 0)
(-0.284625 -6.43628 0)
(3.89845 -9.59772 0)
(10.3852 -6.76594 0)
(16.9379 -5.02746 0)
(23.3404 3.39698 0)
(27.6206 7.12941 0)
(26.0908 20.0218 0)
(18.9633 29.3273 0)
(7.8833 35.4771 0)
(-2.77232 -9.62163 0)
(-14.4129 4.26683 0)
(-33.6024 20.7895 0)
(-58.4371 30.7157 0)
(-83.8108 34.2173 0)
(-108.061 29.589 0)
(-124.846 24.8066 0)
(-136.562 8.11475 0)
(-143.083 3.40813 0)
(-139.797 -13.6964 0)
(-131.502 -17.7153 0)
(-117.963 -26.8338 0)
(-98.972 -32.321 0)
(-77.9251 -33.1472 0)
(-55.6906 -34.8389 0)
(-33.322 -32.89 0)
(-11.4914 -33.3478 0)
(10.9137 -33.8739 0)
(34.1714 -36.3464 0)
(57.6587 -34.3695 0)
(79.9915 -30.0665 0)
(96.4843 -20.4484 0)
(108.571 -6.88864 0)
(113.827 3.45782 0)
(109.79 16.7983 0)
(99.4331 28.7108 0)
(81.7513 37.1049 0)
(58.6384 38.7147 0)
(33.3165 32.6449 0)
(10.5698 21.7919 0)
(4.71324 -16.294 0)
(12.8495 -15.2597 0)
(17.3984 -8.04415 0)
(15.969 2.076 0)
(7.47406 9.75206 0)
(-8.49317 23.5021 0)
(-32.6519 35.8021 0)
(-63.757 45.0331 0)
(-96.3575 48.7606 0)
(-126.301 45.6459 0)
(-149.656 36.6858 0)
(-166.172 23.1866 0)
(-173.217 7.5842 0)
(-170.599 -6.40758 0)
(-161.567 -22.4236 0)
(-141.994 -31.1272 0)
(-117.06 -42.7141 0)
(-87.1606 -46.2091 0)
(-55.0192 -47.4304 0)
(-24.4548 -44.034 0)
(1.77443 -35.7438 0)
(23.2097 -26.1618 0)
(36.6405 -14.7516 0)
(45.1431 -4.0545 0)
(49.0767 2.22505 0)
(47.2031 10.6674 0)
(43.3246 17.3135 0)
(34.2413 21.8358 0)
(22.7764 24.7389 0)
(8.65182 26.8105 0)
(0.692268 -9.62417 0)
(3.21495 -15.2365 0)
(7.2047 -18.8573 0)
(11.5516 -19.8721 0)
(15.7926 -20.3072 0)
(19.514 -18.2334 0)
(22.3341 -14.8928 0)
(24.035 -10.888 0)
(23.9485 -5.66325 0)
(22.713 -2.05055 0)
(19.2882 1.88433 0)
(14.5498 4.03526 0)
(8.80611 5.31695 0)
(2.99432 3.63018 0)
(-5.27116 19.3463 0)
(-15.7755 22.4053 0)
(-26.1491 24.4244 0)
(-35.1756 25.2149 0)
(-42.995 23.7037 0)
(-48.8864 18.281 0)
(-52.975 10.6881 0)
(-53.8337 1.51618 0)
(-51.3451 -7.67957 0)
(-44.9042 -19.5117 0)
(-34.5463 -29.2404 0)
(-21.6639 -37.7061 0)
(-5.60592 -44.5574 0)
(12.9234 -50.7058 0)
(33.5556 -55.9079 0)
(56.0077 -58.9453 0)
(78.9216 -57.5414 0)
(100.657 -52.5206 0)
(118.94 -42.2172 0)
(132.932 -29.4564 0)
(141.178 -13.3397 0)
(142.502 2.45121 0)
(139.331 18.0791 0)
(130.479 33.3234 0)
(116.716 44.5529 0)
(99.131 52.3802 0)
(77.5924 52.5801 0)
(54.4423 46.2609 0)
(30.8176 34.3421 0)
(9.60893 18.183 0)
(-10.1176 37.1015 0)
(-28.5819 39.8522 0)
(-44.5942 38.7084 0)
(-57.1481 31.2182 0)
(-66.335 22.7458 0)
(-70.9609 9.82931 0)
(-71.5194 0.996236 0)
(-68.5364 -12.0829 0)
(-61.7013 -19.7607 0)
(-51.524 -31.8441 0)
(-37.6363 -37.8596 0)
(-20.3023 -46.3238 0)
(0.222856 -54.003 0)
(24.3514 -62.6489 0)
(51.9707 -69.3846 0)
(81.2215 -71.0744 0)
(109.639 -66.6441 0)
(135.353 -57.1385 0)
(156.345 -42.933 0)
(171.465 -26.6819 0)
(180.167 -7.1191 0)
(181.241 11.4149 0)
(176.578 30.9886 0)
(166.203 49.9762 0)
(149.876 67.1049 0)
(128.226 79.4077 0)
(101.34 82.2025 0)
(70.8826 72.5913 0)
(40.1094 52.3458 0)
(12.6884 24.9556 0)
(-13.1652 44.2593 0)
(-39.9077 62.244 0)
(-66.3968 71.1114 0)
(-88.491 68.0576 0)
(-104.582 54.8724 0)
(-114.619 35.405 0)
(-117.877 14.4986 0)
(-114.906 -5.16101 0)
(-106.497 -23.8231 0)
(-93.4361 -41.1943 0)
(-74.3231 -54.2595 0)
(-53.3272 -63.0564 0)
(-31.1687 -65.527 0)
(-6.00854 -65.1266 0)
(17.0938 -61.4023 0)
(40.8239 -61.2152 0)
(67.3652 -65.0968 0)
(95.844 -67.654 0)
(125.049 -66.0301 0)
(152.094 -58.0059 0)
(173.208 -43.0261 0)
(187.494 -22.1932 0)
(192.666 2.14771 0)
(187.043 28.4102 0)
(173.249 52.5012 0)
(151.966 72.6379 0)
(123.95 84.8872 0)
(90.3956 85.2895 0)
(53.2446 72.7207 0)
(17.2652 46.3154 0)
(-9.97056 55.164 0)
(-23.2323 36.5713 0)
(-28.8659 13.6222 0)
(-25.6434 -10.5855 0)
(-13.9627 -32.7873 0)
(5.46892 -57.3705 0)
(32.3551 -80.3181 0)
(65.8887 -99.3625 0)
(104.589 -113.606 0)
(144.697 -113.62 0)
(183.227 -106.325 0)
(214.247 -93.2581 0)
(239.006 -68.9383 0)
(259.47 -46.0679 0)
(264.17 -17.7231 0)
(267.124 8.27262 0)
(258.691 37.5631 0)
(242.937 66.1332 0)
(220.695 93.2537 0)
(194.118 114.224 0)
(160.2 124.314 0)
(120.108 119.581 0)
(77.2285 100.274 0)
(38.0794 70.866 0)
(7.4177 39.2328 0)
(-12.3367 16.1994 0)
(-20.5918 -1.50739 0)
(-20.0199 -15.2392 0)
(-13.2133 -19.7776 0)
(-4.2602 -13.4626 0)
(-9.88849 39.1225 0)
(-28.2153 45.5665 0)
(-45.2315 48.9984 0)
(-60.1207 48.2796 0)
(-71.7672 42.0121 0)
(-80.5784 31.7009 0)
(-85.1717 19.2148 0)
(-85.9236 4.26889 0)
(-80.7183 -8.02379 0)
(-70.4445 -26.2063 0)
(-55.5258 -40.3037 0)
(-34.8669 -54.6144 0)
(-10.6287 -66.0349 0)
(18.1452 -75.6575 0)
(51.0093 -83.0735 0)
(85.2574 -86.5489 0)
(118.246 -84.1269 0)
(149.381 -73.6163 0)
(175.028 -58.5262 0)
(193.355 -40.6871 0)
(204.206 -18.4486 0)
(205.245 4.59993 0)
(199.796 25.7104 0)
(188.726 45.1238 0)
(168.812 64.8901 0)
(144.943 80.7451 0)
(117.672 86.5241 0)
(84.0115 83.2106 0)
(48.5134 65.2796 0)
(15.9266 33.5402 0)
(-12.0834 55.2478 0)
(-32.9863 54.9892 0)
(-49.5785 45.1245 0)
(-59.3685 27.5425 0)
(-61.6724 5.45904 0)
(-54.8185 -15.7538 0)
(-40.6906 -39.2641 0)
(-20.8847 -56.7989 0)
(3.94275 -72.1331 0)
(33.3812 -85.2811 0)
(67.7135 -93.8917 0)
(103.59 -97.2869 0)
(137.227 -95.0646 0)
(170.196 -85.4764 0)
(200.363 -69.3697 0)
(222.1 -54.2886 0)
(238.1 -34.654 0)
(247.748 -11.4188 0)
(247.981 11.4444 0)
(239.243 32.8013 0)
(225.591 54.4119 0)
(205.539 76.1606 0)
(181.818 94.6845 0)
(153.417 105.12 0)
(119.589 103.257 0)
(82.7923 86.7956 0)
(48.685 58.4298 0)
(22.7673 27.2581 0)
(7.33643 3.11321 0)
(0.351569 -15.7794 0)
(0.988132 19.9794 0)
(9.10456 -0.80799 0)
(25.0634 -22.9714 0)
(49.608 -46.8649 0)
(81.199 -69.0825 0)
(118.122 -84.9133 0)
(156.861 -93.1875 0)
(195.271 -92.9251 0)
(231.8 -85.0904 0)
(264.299 -71.8162 0)
(289.233 -52.5409 0)
(306.337 -31.4289 0)
(317.199 -7.94352 0)
(319.389 15.585 0)
(312.526 40.0575 0)
(298.503 64.2902 0)
(278.034 85.6072 0)
(252.399 102.759 0)
(220.588 112.243 0)
(182.39 109.706 0)
(139.959 95.4116 0)
(98.1269 72.6115 0)
(62.4987 47.8897 0)
(35.7727 27.2126 0)
(18.0196 7.41944 0)
(9.86655 -7.76693 0)
(7.80206 -20.0731 0)
(7.94564 -15.9956 0)
(7.34431 -11.0734 0)
(3.06212 0.151929 0)
(4.1297 12.9493 0)
(25.3008 -34.4639 0)
(58.4346 -82.316 0)
(98.359 -112.953 0)
(141.277 -128.649 0)
(180.421 -122.398 0)
(216.499 -113.219 0)
(248.058 -88.7993 0)
(268.721 -66.6179 0)
(288.061 -38.2249 0)
(291.525 -9.35053 0)
(288.62 22.4598 0)
(280.178 51.7002 0)
(261.942 80.3276 0)
(240.276 105.723 0)
(208.168 121.571 0)
(168.809 121.859 0)
(124.003 105.145 0)
(81.5245 80.5432 0)
(44.7669 53.1919 0)
(15.5606 28.6739 0)
(-1.38463 10.1731 0)
(-8.16872 -9.31781 0)
(-5.17572 -26.7292 0)
(4.26899 -33.0291 0)
(12.9206 -30.1209 0)
(17.3092 -20.6484 0)
(18.0603 -6.54035 0)
(11.4521 3.08683 0)
(3.30594 9.30668 0)
(-0.782062 16.3591 0)
(7.06313 -19.2319 0)
(26.1245 -51.983 0)
(56.9946 -90.6256 0)
(95.7828 -120.884 0)
(139.835 -137.662 0)
(185.048 -138.087 0)
(227.909 -126.99 0)
(262.623 -107.9 0)
(291.139 -76.4209 0)
(313.036 -45.3131 0)
(318.341 -8.81142 0)
(313.895 22.6189 0)
(298.421 57.4356 0)
(277.116 91.2068 0)
(241.773 120.601 0)
(198.533 135.396 0)
(143.386 129.678 0)
(85.8857 104.116 0)
(34.9791 67.7109 0)
(-1.69726 35.1818 0)
(-23.921 8.9988 0)
(-31.7211 -13.547 0)
(-29.0042 -39.199 0)
(-19.9212 -52.0503 0)
(-9.45666 -49.5099 0)
(-1.89599 -39.5565 0)
(1.32877 -25.7232 0)
(2.06326 -15.8798 0)
(1.18867 -7.70026 0)
(-1.76655 85.5883 0)
(11.5138 22.2783 0)
(46.0312 -44.3045 0)
(99.7692 -109.63 0)
(158.51 -144.894 0)
(214.73 -147.014 0)
(261.686 -126.952 0)
(297.212 -90.4546 0)
(317.213 -45.8641 0)
(326.443 1.66441 0)
(322.149 48.2009 0)
(303.896 90.1517 0)
(274.039 120.42 0)
(230.12 131.386 0)
(175.359 118.676 0)
(121.024 88.536 0)
(71.3066 49.27 0)
(34.1607 24.9532 0)
(10.784 4.3123 0)
(-4.91186 6.32091 0)
(-13.7799 -5.6385 0)
(-18.5647 -4.14257 0)
(-19.7352 -12.7081 0)
(-18.4591 -7.94818 0)
(-11.4878 -10.8118 0)
(-4.69147 1.54211 0)
(1.96158 9.27317 0)
(6.46444 25.8862 0)
(6.3353 40.403 0)
(2.71449 51.0931 0)
(-6.60703 -1.50099 0)
(-26.4985 21.6707 0)
(-51.6318 42.3139 0)
(-76.7922 52.83 0)
(-100.666 54.903 0)
(-118.145 43.8687 0)
(-137.236 35.8259 0)
(-145.076 13.3766 0)
(-151.082 -1.11286 0)
(-150.168 -18.9801 0)
(-142.18 -34.6091 0)
(-128.775 -44.4779 0)
(-108.494 -54.5427 0)
(-87.4644 -56.2793 0)
(-65.8575 -58.0836 0)
(-43.7456 -55.0466 0)
(-23.4924 -55.0683 0)
(-2.89914 -55.7207 0)
(17.9171 -59.0984 0)
(39.0856 -55.6626 0)
(58.3244 -48.458 0)
(73.2497 -33.5381 0)
(85.4661 -14.0726 0)
(90.487 2.93862 0)
(88.8061 22.1111 0)
(81.7944 40.5199 0)
(69.4967 54.6635 0)
(52.1666 60.5252 0)
(31.5119 55.5572 0)
(10.4079 42.5252 0)
(3.15372 -23.6056 0)
(7.45721 -20.398 0)
(7.97556 -7.49651 0)
(2.17089 9.60616 0)
(-11.198 25.0083 0)
(-32.3011 46.5524 0)
(-59.6561 65.8991 0)
(-89.9941 77.7086 0)
(-118.898 78.9793 0)
(-143.672 70.9569 0)
(-164.146 54.9347 0)
(-176.83 33.9309 0)
(-184.229 10.7787 0)
(-183.07 -11.5869 0)
(-176.512 -35.2632 0)
(-158.07 -52.6231 0)
(-135.551 -69.5575 0)
(-108.678 -77.0397 0)
(-79.2246 -77.4456 0)
(-49.849 -73.4585 0)
(-25.4156 -58.7682 0)
(-4.58134 -44.1483 0)
(9.3757 -25.5565 0)
(18.2445 -10.847 0)
(23.7692 0.0845407 0)
(24.9755 11.9092 0)
(25.106 22.1798 0)
(20.3611 30.2333 0)
(13.8972 36.3325 0)
(5.04442 41.1377 0)
(1.60393 -15.1218 0)
(5.69612 -22.391 0)
(10.2962 -26.7378 0)
(15.2643 -28.0944 0)
(19.9509 -28.4438 0)
(23.7972 -24.4604 0)
(26.014 -20.396 0)
(26.811 -13.7298 0)
(25.8375 -7.75275 0)
(23.5837 -1.43205 0)
(20.123 3.41282 0)
(15.1789 7.44654 0)
(9.04469 9.46537 0)
(2.87995 7.62441 0)
(-4.77207 28.4316 0)
(-13.5835 31.5408 0)
(-22.3752 32.6093 0)
(-29.5628 31.9738 0)
(-35.5915 29.0898 0)
(-39.7656 21.5802 0)
(-41.5458 12.4074 0)
(-42.1853 0.109857 0)
(-38.6443 -12.0666 0)
(-33.122 -27.2138 0)
(-24.488 -40.1187 0)
(-12.9003 -51.4678 0)
(1.22369 -60.3701 0)
(17.8644 -68.9072 0)
(36.7829 -76.1361 0)
(57.3655 -80.2778 0)
(78.4341 -78.5818 0)
(97.8068 -71.4356 0)
(114.63 -57.1361 0)
(127.049 -39.2879 0)
(134.826 -17.192 0)
(136.788 2.37905 0)
(132.732 23.0178 0)
(123.863 42.6528 0)
(111.898 57.4032 0)
(96.9515 69.4882 0)
(77.6027 71.6373 0)
(56.3907 67.5104 0)
(33.1125 54.9752 0)
(10.7865 36.3916 0)
(-8.01578 50.4463 0)
(-21.8495 51.4273 0)
(-33.9398 47.8083 0)
(-42.5323 37.6183 0)
(-47.4796 25.7123 0)
(-50.1685 10.0558 0)
(-50.2114 -2.73222 0)
(-46.8045 -17.3315 0)
(-40.1153 -28.6871 0)
(-30.2005 -43.5021 0)
(-17.8098 -52.4886 0)
(-2.89685 -63.0013 0)
(15.303 -73.597 0)
(37.3379 -85.3089 0)
(62.5607 -94.0445 0)
(88.7643 -95.3961 0)
(113.064 -88.1333 0)
(134.122 -74.755 0)
(150.671 -55.8677 0)
(162.224 -33.7577 0)
(169.249 -7.6175 0)
(170.422 16.8025 0)
(165.508 41.9282 0)
(156.144 65.1853 0)
(142.631 86.5151 0)
(124.407 102.921 0)
(101.607 110.145 0)
(74.596 103.735 0)
(44.4051 83.2828 0)
(14.6796 52.5203 0)
(-11.8748 68.7084 0)
(-34.1602 86.487 0)
(-54.732 92.3036 0)
(-70.3288 83.7042 0)
(-81.2183 65.5213 0)
(-87.114 40.341 0)
(-88.3122 15.0176 0)
(-84.7416 -10.1808 0)
(-75.4267 -34.8111 0)
(-63.771 -55.8482 0)
(-49.4609 -71.3847 0)
(-29.8047 -84.2336 0)
(-10.5307 -89.1354 0)
(9.02562 -86.8301 0)
(30.2511 -84.6676 0)
(52.0344 -86.2269 0)
(77.4306 -92.2551 0)
(106.686 -97.332 0)
(135.792 -94.9771 0)
(161.979 -82.9105 0)
(183.287 -61.6889 0)
(194.689 -31.6332 0)
(197.107 3.6448 0)
(191.344 39.2838 0)
(176.599 71.8867 0)
(155.062 98.8119 0)
(127.531 116.688 0)
(95.0375 122.268 0)
(58.121 112.71 0)
(19.6295 84.8143 0)
(-8.15723 71.2921 0)
(-18.5526 45.3096 0)
(-22.4115 13.6703 0)
(-18.4655 -18.6369 0)
(-6.72757 -49.5985 0)
(12.0801 -81.23 0)
(37.3431 -111.112 0)
(67.8014 -137.657 0)
(103.379 -153.079 0)
(139.511 -153.265 0)
(169.193 -141.288 0)
(197.471 -120.125 0)
(216.245 -87.3172 0)
(229.829 -58.0736 0)
(237.896 -23.3887 0)
(235.935 13.7748 0)
(231.455 48.1881 0)
(221.251 82.1781 0)
(206.049 113.319 0)
(185.073 142.425 0)
(160.687 158.618 0)
(131.051 160.028 0)
(96.3182 141.757 0)
(60.563 109.566 0)
(28.4461 69.3441 0)
(5.54316 35.645 0)
(-7.15852 7.26989 0)
(-10.4 -14.3912 0)
(-8.17286 -23.0304 0)
(-3.63206 -17.0709 0)
(-7.95758 57.2743 0)
(-22.5873 62.3078 0)
(-35.8317 63.515 0)
(-46.1925 60.3384 0)
(-53.7888 51.7094 0)
(-58.5265 38.3739 0)
(-60.4202 22.2939 0)
(-58.57 3.45373 0)
(-52.9503 -14.371 0)
(-43.9481 -36.9668 0)
(-31.1013 -55.7396 0)
(-13.1152 -73.54 0)
(8.70225 -89.4538 0)
(33.9823 -103.323 0)
(62.5178 -114.12 0)
(92.9011 -117.585 0)
(123.133 -112.302 0)
(149.463 -98.8928 0)
(169.619 -78.6207 0)
(184.306 -51.6473 0)
(193.02 -20.6059 0)
(193.77 7.65972 0)
(186.246 36.2178 0)
(174.231 60.9889 0)
(157.804 82.8734 0)
(134.19 104.255 0)
(109.792 114.61 0)
(82.2279 114.052 0)
(48.9867 98.5929 0)
(16.4404 64.8255 0)
(-10.5265 76.7723 0)
(-27.9874 73.1397 0)
(-40.9771 58.0106 0)
(-47.6915 33.5557 0)
(-48.1696 3.35748 0)
(-40.989 -25.6397 0)
(-27.168 -56.07 0)
(-10.2935 -78.442 0)
(11.0945 -97.7529 0)
(37.7362 -114.233 0)
(66.358 -126.77 0)
(95.0259 -132.146 0)
(124.889 -125.664 0)
(153.903 -112.829 0)
(176.311 -95.3615 0)
(196.191 -72.5129 0)
(213.369 -42.1245 0)
(219.992 -14.2554 0)
(219.333 13.8351 0)
(210.813 42.5386 0)
(197.422 71.0378 0)
(182.113 94.6865 0)
(162.603 117.207 0)
(140.8 132.069 0)
(115.792 134.735 0)
(87.1737 119.901 0)
(57.7186 88.7391 0)
(31.6647 48.3869 0)
(13.4825 14.4509 0)
(3.33354 -11.4233 0)
(2.52947 20.5125 0)
(11.8132 -8.22417 0)
(29.3779 -39.5125 0)
(53.8499 -70.5993 0)
(83.7987 -98.464 0)
(117.407 -117.316 0)
(151.249 -126.25 0)
(185.543 -125.219 0)
(217.454 -113.058 0)
(245.057 -94.7976 0)
(267.845 -71.3365 0)
(283.633 -42.6866 0)
(293.449 -10.9728 0)
(295.708 20.9441 0)
(292.047 50.6592 0)
(281.88 80.2646 0)
(265.826 106.932 0)
(245.766 129.311 0)
(220.857 144.565 0)
(190.344 147.337 0)
(155.066 135.938 0)
(117.526 110.997 0)
(82.2771 79.2185 0)
(53.554 48.4467 0)
(33.3795 19.1528 0)
(22.1814 -4.43877 0)
(17.2239 -22.1638 0)
(13.9259 -18.6014 0)
(9.86976 -11.494 0)
(3.7676 1.22998 0)
(10.8771 -4.89891 0)
(38.1088 -65.9169 0)
(73.225 -120.801 0)
(107.828 -153.674 0)
(141.621 -167.758 0)
(172.143 -159.039 0)
(199.48 -143.625 0)
(223.23 -113.905 0)
(237.562 -84.3178 0)
(251.04 -49.8372 0)
(259.228 -13.7205 0)
(259.983 23.7462 0)
(249.146 57.9327 0)
(237.871 95.0724 0)
(224.465 126.537 0)
(202.882 149.854 0)
(174.354 156.813 0)
(141.803 146.903 0)
(103.699 121.041 0)
(64.7513 85.3228 0)
(37.6957 51.6517 0)
(22.4029 20.394 0)
(17.0833 -11.9007 0)
(20.7757 -34.2383 0)
(26.2597 -43.137 0)
(28.9164 -37.5619 0)
(31.1151 -20.0811 0)
(26.3319 -2.80639 0)
(17.8205 10.6945 0)
(7.52865 17.9327 0)
(4.2071 8.85373 0)
(18.1566 -36.2242 0)
(40.0409 -80.8657 0)
(68.5499 -127.988 0)
(102.997 -163.66 0)
(141.248 -182.622 0)
(178.228 -182.017 0)
(210.823 -168.891 0)
(240.785 -134.975 0)
(262.064 -101.242 0)
(277.307 -57.2288 0)
(282.602 -16.9363 0)
(282.251 28.4876 0)
(272.63 70.5112 0)
(251.193 111.964 0)
(228.82 147.286 0)
(194.367 173.686 0)
(155.526 176.017 0)
(108.543 151.274 0)
(61.3791 104.577 0)
(24.6665 59.1524 0)
(1.10534 19.2054 0)
(-10.4961 -14.6093 0)
(-10.6909 -49.0013 0)
(-6.05931 -64.8533 0)
(-0.302477 -60.8758 0)
(3.29325 -46.7052 0)
(4.20043 -29.7977 0)
(3.42559 -18.2953 0)
(1.74928 -8.03633 0)
(11.7492 78.144 0)
(45.6384 -1.47688 0)
(93.4825 -89.9872 0)