/*--------------------------------*- C++ -*----------------------------------*\
| =========                 |                                                 |
| \\      /  F ield         | OpenFOAM: The Open Source CFD Toolbox           |
|  \\    /   O peration     | Version:  2.1.1                                 |
|   \\  /    A nd           | Web:      www.OpenFOAM.org                      |
|    \\/     M anipulation  |                                                 |
\*---------------------------------------------------------------------------*/
FoamFile
{
    version     2.0;
    format      ascii;
    class       volScalarField;
    location    "0.005700000";
    object      omega;
}
// * * * * * * * * * * * * * * * * * * * * * * * * * * * * * * * * * * * * * //

dimensions      [0 0 -1 0 0 0 0];

internalField   nonuniform List<scalar> 
12384
(
12919.4
23741
28360.4
31830.3
34825.1
36954.7
37806.1
36834.8
34429.7
31280.8
27134.6
21890
15026.3
8078.01
24933.9
34146.6
40240.6
44014.5
46479.6
48050.3
49039.8
49918.4
50965
52926.8
57025.5
62147.6
69509.6
75756.5
83141.8
87018.3
91126
90179.2
89693.7
84819.8
83400.2
81821.4
79750.4
76356.5
71506.7
64359
52281.3
34866
19551.2
15653.6
41246.4
48561.6
55148.5
60575.4
64979.3
68806.2
71337.8
71802.3
71204.7
71299.1
73212.3
77657
84062.5
91554.2
99497
106742
111732
112687
109598
105198
101806
99027.6
96034.1
91928.8
85682.5
75979.2
60146.4
40319
25853
27099.8
44732.5
57243
65881.3
70629.8
73395.2
74665
75561.7
79531.2
87172.7
97783.2
109593
122495
133204
143370
146638
149609
144643
143184
141180
138733
134955
129195
121043
110503
97516.1
81869.7
67376
52718.6
43346.4
46390
46028.9
52248.9
61065
73538.6
87204.7
100885
114030
126638
137954
148380
156396
163101
165253
164762
161608
155571
150390
145029
138926
130646
119482
105560
90169.8
77748.1
65176.8
50464
37514.7
33997.5
36146.4
37493.8
28930.9
39715.5
47979.7
53555.9
57822.4
61477.7
63389.8
64334.8
64073.1
65269.5
68635.4
74860.8
83569.9
93623.7
105200
116118
126899
134824
138991
138726
131289
125047
119659
115367
110872
104370
93915
77603.1
56741.2
44322.8
25596.4
30646
36219.5
39926.2
42785.5
46784.9
54026.8
65225.3
77353.6
90260.2
102169
113950
123455
131814
135925
137347
133782
129004
124130
117947
109873
99525.1
86748.3
73458.9
63417.3
58892.6
56090.8
51807
45552.2
39992.4
28988.3
28832.5
35897.8
46880.7
60713.8
75795.7
91549.7
106899
119931
132401
139802
146383
146399
144650
142905
140638
138398
135511
131972
126817
119363
108717
94004
73162.6
57548
51311.1
48253.4
45246.9
44010.7
44752.1
37232.8
55354.4
69867.3
84819.6
100622
116940
132377
146605
157693
165927
168787
167845
161471
154902
150981
145867
141223
134611
126598
115347
100390
79151.1
60325.5
51571
46539
42122
39094.3
36780.7
33483
30120
37561.3
45422.9
62354.6
82471.6
102566
122371
141765
159852
176636
190326
201287
206854
207042
200528
189526
179624
170070
160922
150213
136727
119220
97845.6
76216.9
64763.2
60118.2
57979.4
56957.9
57254.9
57436.4
57191
37361.3
50538.5
76346.7
100762
123332
144874
165420
184242
200109
213629
219157
223060
215383
206063
201189
194391
187466
178884
166691
149617
125933
98553.1
77212.4
67924.9
62478.2
60619.9
61929.3
65029.6
66139.7
62259.4
25044.9
32653.9
45730.2
54330.4
59405.6
62063.3
63668.4
64962.8
66174.3
67030.1
67347.6
66285.3
64392.5
63009.5
63241.9
66002
71015
78082.2
85559.2
93652.4
100061
103933
101833
95968.8
91947.9
87844
81939.6
71154
50030.2
20408.5
6348.97
9890.25
10416
10154.2
12043.8
25538.1
58575
83603.2
97139.4
105986
112466
118023
124020
128926
128966
124029
115489
104366
91281.6
77220.3
64159.6
52298
40942.5
29810.9
19676.3
11597.1
6047.94
3022.2
1869.13
1311.41
21686.8
92467.6
114932
135387
156935
177497
194501
204803
205931
195719
175969
148245
113657
23361.3
26467.1
109710
140942
162039
173990
177767
178349
183954
202137
236823
289556
354287
426742
500617
571381
635421
688529
727592
747962
749798
732278
692782
639131
568650
484179
388856
289892
200960
129147
28345.9
47787.1
210709
264952
296160
306779
301075
287332
274719
270085
280741
308705
353314
411073
479765
555234
633530
707511
771141
814913
822649
798908
746830
672132
579001
472735
361900
259376
179439
131686
44667.2
54941.4
216911
246604
256656
252727
255806
283844
344099
427323
529417
647440
777235
911066
1.03945e+06
1.15302e+06
1.24035e+06
1.29444e+06
1.30513e+06
1.26619e+06
1.19791e+06
1.0989e+06
976666
829273
659073
480335
322733
213938
169021
158916
65051.2
45692.6
174333
270941
366173
459578
553274
647693
741769
833593
920678
1.00036e+06
1.06896e+06
1.12311e+06
1.15702e+06
1.16532e+06
1.14154e+06
1.097e+06
1.02695e+06
939085
832000
703078
554434
396106
270482
219745
211031
202619
186388
166772
50077.7
43926.2
164331
197405
217818
226708
226162
217914
213357
216281
236195
274762
330490
402619
486750
581126
680278
779472
872957
955041
1.01827e+06
1.05179e+06
1.04861e+06
1.00822e+06
935756
831038
697163
537659
373200
235800
64161.9
31295.9
97268.4
115749
127370
150920
202826
279735
365255
451546
538645
625846
712991
797014
875739
944980
999820
1.03313e+06
1.03445e+06
1.00849e+06
954234
875461
776844
658127
517725
365157
240188
178810
156593
139125
54062.9
42772.3
108846
161040
242948
343344
454553
573326
696031
818021
934091
1.03715e+06
1.12046e+06
1.17857e+06
1.20731e+06
1.20215e+06
1.16724e+06
1.10751e+06
1.02686e+06
929941
819336
698406
569884
442286
328322
231628
178621
159980
153913
147768
52600.9
56187.1
215985
297636
391312
496913
611513
730360
850154
964793
1.06994e+06
1.15797e+06
1.22339e+06
1.26021e+06
1.25527e+06
1.22448e+06
1.15714e+06
1.07253e+06
962726
843553
707773
560420
409113
271942
178605
170587
180522
176748
165099
141275
42307.7
48341.1
169736
244028
333866
439214
556141
682815
814926
951665
1.08536e+06
1.21049e+06
1.31776e+06
1.40147e+06
1.45502e+06
1.46832e+06
1.43955e+06
1.36688e+06
1.26716e+06
1.13902e+06
990524
817114
617181
406034
230185
184662
193865
197130
192737
178315
61703.6
47512.7
206883
325315
445997
574552
713454
863589
1.02106e+06
1.18065e+06
1.33624e+06
1.47935e+06
1.59693e+06
1.68334e+06
1.71796e+06
1.70243e+06
1.63312e+06
1.53021e+06
1.3958e+06
1.23533e+06
1.05033e+06
832527
592629
360023
216995
218346
238220
246890
243057
226481
69255.4
39963.4
112060
161426
211166
262698
312489
356160
387497
404770
405624
389863
361990
328149
296015
272911
266745
280618
315625
361737
417005
478045
539212
594031
628604
619251
578701
509492
408498
278620
55379.9
13662.2
65255.2
76732.5
88842.2
147214
272871
395371
503825
596359
670586
724419
755660
760585
734759
686325
623246
551179
475925
400559
327213
257988
204885
166605
143630
125853
107308
88839.1
69602.4
49774.2
1631.18
28409.4
117327
139636
158060
174686
187756
197324
203901
206462
202836
192493
174526
148068
30356
30455.9
141375
165086
175774
179149
181206
189206
209362
245543
296684
356680
417988
475623
529313
577297
620434
655388
683250
701396
708684
700155
677435
641136
591764
529158
451692
361170
266876
179991
39424.8
52168.9
254028
284542
292502
291740
290020
294165
307496
329255
357349
386696
416288
447509
481702
520436
564018
611444
659273
701898
730254
738373
728135
698629
646852
568543
467048
355113
250381
174321
56107.5
60495.8
253340
255870
253079
263596
304519
374072
458990
537846
613548
689825
769095
854148
941788
1.02767e+06
1.10055e+06
1.15469e+06
1.17676e+06
1.17246e+06
1.13977e+06
1.08791e+06
1.02064e+06
929785
804410
642778
467960
312907
208867
179977
74226.4
48058.1
245009
351861
435435
506185
572142
637654
705105
774471
844319
911547
971976
1.02189e+06
1.05792e+06
1.07454e+06
1.0736e+06
1.0548e+06
1.02389e+06
984768
935211
860465
744462
588590
418773
290153
219679
188485
186720
195496
57862.5
52945.7
202009
222519
228060
226577
223813
224822
235785
257177
291727
337080
390748
452587
519668
592837
669715
747455
822082
888936
944806
982541
994164
979948
944474
886538
799553
669925
502554
331135
78162.5
36312
117579
130903
148151
196657
274279
354467
423989
485782
545841
608117
674306
743820
812612
878102
933005
973045
992607
989071
964339
922594
865432
788053
679524
536138
377492
250646
186311
158324
59554.3
51527
139353
220640
322570
429414
534937
637277
736662
832822
923070
1.00523e+06
1.07382e+06
1.12699e+06
1.15877e+06
1.16546e+06
1.14767e+06
1.10858e+06
1.05197e+06
982287
902794
812623
707782
588538
464499
347988
245985
179111
153561
165063
56298
69651.4
274849
378344
485916
591120
691202
785247
875702
962349
1.04259e+06
1.11295e+06
1.16909e+06
1.20584e+06
1.21739e+06
1.20307e+06
1.1649e+06
1.10836e+06
1.03684e+06
953476
851773
724978
574875
420423
276487
186291
161798
163456
175592
167405
46762.2
54742.1
212780
302929
416917
542005
661900
772368
872889
969708
1.06295e+06
1.15168e+06
1.23059e+06
1.29715e+06
1.34658e+06
1.37253e+06
1.36863e+06
1.33841e+06
1.28549e+06
1.21779e+06
1.13329e+06
1.01672e+06
849601
634682
409723
245783
184278
170399
188168
196664
64436.5
55743.7
284625
423621
558278
691840
822331
950071
1.07531e+06
1.1997e+06
1.32044e+06
1.43368e+06
1.52968e+06
1.60269e+06
1.64171e+06
1.64667e+06
1.61248e+06
1.55027e+06
1.46882e+06
1.36845e+06
1.24331e+06
1.07356e+06
851618
596612
363297
243303
219339
224315
250633
263920
73138.6
48403.6
165704
229463
294099
356443
410681
453113
481886
495617
495240
479818
453188
420054
386606
360748
350172
357688
380251
403680
420539
434403
452701
480692
514838
540371
551207
537455
479889
366389
68482
20982.5
80329.7
91223.2
158133
287753
429680
553080
651884
726024
776551
807334
820891
817261
795912
760395
714645
661481
599456
526952
441706
346476
250412
170759
111358
86663.2
81144.2
78356.7
72415.9
61692.3
1697.28
32828.3
140368
163197
179604
189836
192508
190259
189149
190800
193079
193610
188548
175266
35684.9
35610
173172
183707
181940
178850
183839
203395
238574
289347
350946
410047
459678
496287
524731
546375
565134
581166
596240
607663
614423
612689
601950
582552
554984
517778
465594
395355
310077
220568
46428.4
56985.1
289297
291669
281017
276620
285481
310433
348348
391130
430267
459127
476601
486605
491910
494721
497624
504042
517773
543663
576671
606333
630081
641655
632418
591907
515476
413353
303427
211829
62926.9
65904.7
287437
265167
257843
289375
365644
465938
566254
637531
686556
720551
746209
772462
805033
846963
893634
939540
970986
985031
983600
972594
953503
918790
850564
731640
571140
400199
262234
199477
78280.6
52596.4
309532
414575
483480
531763
570390
606903
646776
691251
739964
790220
838778
881931
916093
937211
947086
945781
940132
936979
935966
921081
860045
735307
568439
402037
279484
210598
198100
218003
62155.5
60621.3
232255
236121
228337
222504
223627
235255
259951
296493
343981
395768
447651
497769
546817
596545
646915
695740
743811
789434
831462
865550
881895
883297
873767
854408
813395
725515
579579
404664
87586.5
41351.2
136049
145760
175984
250185
337417
405815
454054
491501
527130
567737
615357
669973
727454
785222
837217
879321
905574
913172
906006
888545
862625
823545
755822
642399
487208
328847
223615
176115
62760.3
56595.5
172946
282143
399331
510576
607182
687821
756116
817026
874159
928565
977296
1.01881e+06
1.04783e+06
1.05901e+06
1.05214e+06
1.02916e+06
992794
947942
898195
842641
773272
681594
569818
448917
332995
233785
177011
183072
58371.4
79618.9
329501
452302
570015
668358
746195
806991
858741
907782
955996
1.00478e+06
1.04788e+06
1.08118e+06
1.09986e+06
1.09865e+06
1.08137e+06
1.05092e+06
1.01071e+06
963694
902138
814043
690160
542818
389274
254452
167890
150095
182261
185994
48989.1
59597.5
243654
354376
492821
630905
745162
831207
892784
941396
986175
1.03069e+06
1.07706e+06
1.12027e+06
1.1583e+06
1.18719e+06
1.2019e+06
1.20151e+06
1.18923e+06
1.17048e+06
1.14508e+06
1.09431e+06
986300
806197
580990
372883
229614
159363
183612
206360
65435.8
64931.3
349495
501842
647066
785283
906742
1.00836e+06
1.09307e+06
1.16971e+06
1.24376e+06
1.31847e+06
1.38683e+06
1.44657e+06
1.48545e+06
1.49824e+06
1.48494e+06
1.45366e+06
1.41096e+06
1.35969e+06
1.29303e+06
1.1878e+06
1.0201e+06
790823
540309
338724
218716
192570
244244
289354
74191.5
58363.7
219912
294799
368099
433823
487637
528502
557323
572342
574756
563278
539426
507218
471161
440084
424934
431354
451571
465608
453956
418745
376163
356620
378069
422717
474789
512976
503650
420859
73995.9
27466.7
93401.4
137596
257114
405833
545256
655288
732143
779785
804367
815202
816526
809440
794037
774918
753928
727615
688258
628088
541188
430827
311653
200741
114784
72553
67141.1
70460.9
71503.8
67060.9
1735.36
35387.9
159202
183217
198293
202429
193935
177883
165977
165989
176270
190236
199768
201416
40006.1
41140.2
206511
201504
186275
177614
188206
219806
266657
327555
393610
445913
478199
492296
494947
489963
481939
474204
469699
471198
477919
486840
492755
494953
491893
481063
455779
409410
339904
256302
50965.2
61856.2
326209
300957
272807
264829
283834
327195
385422
445273
494390
523907
535569
533841
521742
500227
468850
428182
390024
377381
404763
456718
513457
561861
588730
581222
530760
444372
338001
240400
67272.9
72000.6
330011
284842
274647
325987
429535
551525
657975
724277
752616
752979
732670
702654
672551
653295
654047
677945
716737
758235
794309
827100
854742
869989
851964
774195
634857
460825
303670
216296
80394.8
59465.5
362805
461967
517158
546130
562706
575802
591872
611894
635603
660784
686208
712107
738132
762614
784886
805690
828879
859540
899018
933323
924760
838835
686279
511842
355243
253157
218389
233856
64205.1
67787.9
263123
248326
228658
220586
226403
246958
282949
332417
391422
447253
494355
530238
560474
586880
610567
627286
638578
645884
658971
683928
713024
743578
770748
793217
795162
746064
625236
459931
93181.5
46824.2
155197
163934
211544
302481
388784
443579
474491
493720
511965
537116
568904
603603
636384
668277
700486
735607
768249
792511
809551
819069
821556
813898
780935
698313
558124
390259
259851
195112
65203.7
59680.2
208337
339784
470708
586561
672663
729150
761672
779077
791472
805162
824045
847998
874410
894379
904879
904909
895321
878056
857211
833190
797768
737006
644263
527169
402624
288609
211450
197019
59394.5
87663.1
377686
517071
641543
728250
779670
801938
809380
815016
824770
843520
870523
900723
926686
944720
954064
953202
945212
931897
908039
859744
768687
639012
487359
337014
210236
156053
191438
196014
50418.6
65463.3
267099
400957
557930
701722
805733
865687
888331
887385
881695
877049
884992
901933
928009
958972
991553
1.02199e+06
1.05038e+06
1.0783e+06
1.10465e+06
1.11136e+06
1.0622e+06
927004
720452
500049
317206
196251
190649
208294
65693.8
79120.7
402915
563146
717925
861909
973824
1.04709e+06
1.08659e+06
1.10693e+06
1.12336e+06
1.1469e+06
1.18093e+06
1.22188e+06
1.26049e+06
1.29081e+06
1.30224e+06
1.30406e+06
1.30051e+06
1.29435e+06
1.27967e+06
1.23457e+06
1.12662e+06
940015
701028
468120
277542
178777
230200
305047
73901.5
69087.4
270834
353646
431329
497512
550159
590313
619626
636821
643810
640162
625473
598773
560185
518055
489518
489263
508403
520617
496879
430634
332245
250716
252137
318977
409943
490107
517209
460237
74732.4
32765
113151
199078
342266
496816
626162
717194
768369
787572
783799
770427
753501
738640
729373
731682
741795
749039
740171
701185
621163
502764
367030
237077
134575
76072.2
64814.9
68197.7
71399.5
69632.5
1817.48
36888.9
173135
198543
213142
212936
194943
166227
143548
142500
161646
187816
210090
226900
44458.9
46884.1
240078
218834
189680
175978
192600
234095
288085
354563
420839
463139
478187
473614
456615
431659
402925
373824
347899
331094
330326
346553
371812
397044
418456
432661
433072
410245
359434
287971
53809.1
67245.7
364398
313900
268518
255436
281238
338295
412026
486496
546017
578720
588822
582741
564999
535096
488042
417902
332100
260649
261580
332025
417615
493655
545299
558575
527116
455747
356594
260107
69664.2
79539.5
383362
316376
301289
364414
485809
622249
734216
797025
816143
797832
748682
679911
598243
516368
450568
422075
455906
527227
608517
688112
758847
814411
833662
785331
662411
488053
322052
224026
80711.7
70289.7
408527
501883
548757
565720
568236
565598
564868
564053
561623
553926
542720
532202
530384
549617
588663
640564
701929
769989
846307
917862
950874
900043
766408
591696
421669
294515
239435
241989
65217.6
75104.5
296178
261171
230433
220424
230293
258083
303373
364070
431643
488978
528398
550001
563369
571265
572316
560328
532190
487588
446450
450891
507301
586016
663310
730146
769514
749922
649981
498487
94452.7
52780.9
177635
187797
252442
351810
432214
478998
499890
508880
517165
531934
548131
556948
551679
536556
521839
528250
565790
619604
675493
723103
759096
780337
774482
717101
592530
424569
284945
213530
66546.1
62394.6
245718
393112
537246
657976
733404
767415
766428
742669
710571
676512
651402
641164
651938
679931
713792
744877
770685
786845
797051
802026
795778
761589
687720
578637
451184
327325
239869
206972
60235.7
94740.4
416920
571661
701316
775078
801300
786753
753276
715277
680662
659345
658215
679645
717552
759801
801073
835189
861791
881210
890534
877467
818001
708082
561701
404681
258763
184235
206106
199112
51866.9
74796.6
288871
440979
609349
755092
849633
888163
879495
839340
789101
734636
692073
665782
671342
704986
759292
826109
898821
972377
1.04406e+06
1.09736e+06
1.09815e+06
1.00505e+06
822470
601911
401218
250673
210520
208366
65752.5
96855
442760
609549
773979
924494
1.02746e+06
1.07252e+06
1.067e+06
1.02966e+06
985960
946939
931813
943715
980456
1.0293e+06
1.07752e+06
1.12313e+06
1.16279e+06
1.20221e+06
1.23399e+06
1.2413e+06
1.18763e+06
1.04618e+06
829128
587744
361617
204064
217267
308040
73421.7
78890.2
316987
404428
482664
546217
594639
629411
652957
666853
677629
684642
687360
678118
647369
595640
545174
528057
542468
554465
530468
456841
338636
216564
192110
272512
385788
485841
527185
482436
69980.1
37091.5
137159
249053
406405
563245
680086
750147
774456
762588
726047
680523
638724
613863
614784
644682
690832
735568
760193
747484
680524
560420
411460
267956
155137
85110.8
66896.1
68416.2
71060.8
69012.7
1981.44
37550.4
180424
207700
223392
220853
196557
160652
132824
132874
157512
189984
220623
249863
48864.2
53572.7
272770
235005
191741
173008
194435
242502
300390
370337
435566
469026
472200
457770
433717
403650
369585
331879
293093
260148
246412
257663
288577
324466
359720
389004
405665
400198
366934
312247
55491.9
72378.5
401999
329431
267061
246112
273058
338757
423360
511848
582144
620910
631997
625512
608304
581860
538312
469889
378379
282446
240648
293720
381515
463199
519956
538029
514748
453057
360870
269420
69696.9
89273.5
447873
357614
332540
395856
525064
671070
789089
855797
874857
853703
797806
715238
608834
489851
371422
270981
268265
363147
484201
598937
697666
775871
812648
776885
658427
480746
314967
221645
79940.9
89135
455080
547358
593197
605193
599767
587131
575353
560121
537711
502724
455587
398646
342980
327741
382673
478605
585140
690122
796518
892963
951615
924476
807778
636494
459382
321771
255116
242781
65899.3
82938
331152
274644
234374
222888
235111
267603
320337
390647
464316
520729
553065
564057
566432
563799
551941
522010
467770
383809
285255
259751
353941
477287
595022
693189
753329
747377
660662
519439
90210.2
59713.4
202625
215505
296111
397071
474328
518745
535745
540471
543855
552479
557979
546639
507763
444409
364148
299636
337205
438364
543272
630602
697401
741034
751886
709836
596202
432723
297974
230106
66238.3
66750.4
287779
445703
600617
726058
793897
812753
786318
731803
662810
583803
508610
447900
422027
447238
507454
578452
643974
695681
735256
764311
780284
766471
708619
605376
473787
342089
250587
210275
62219
102463
451634
619935
753522
817477
824915
782628
718454
645773
567968
495116
444894
442394
495610
570580
650716
720596
780256
828007
864457
878716
844244
751252
609608
446061
289292
210751
217461
198965
54672.9
87406.5
316511
478454
649768
796092
884964
910505
882635
818907
739237
644135
542644
450680
415391
452815
541060
649966
763413
877508
984967
1.07292e+06
1.10953e+06
1.04756e+06
887177
670661
459421
294505
231868
208444
67060
113806
472047
643436
816138
972602
1.06867e+06
1.09106e+06
1.04995e+06
966098
866550
759904
674594
630655
657810
741098
835685
933236
1.02017e+06
1.10314e+06
1.17525e+06
1.22471e+06
1.2145e+06
1.11203e+06
918075
678577
437706
248807
216514
298887
75072.6
86966.6
356265
446946
523051
580263
617775
636314
639933
639671
647074
665711
698031
722701
715713
665310
590001
546119
550355
562402
542685
477884
376793
274141
238176
298025
399258
489855
524868
475909
64708.4
40302.9
152711
280781
449602
608676
715246
766115
766194
724400
654070
570026
494074
453407
471201
539461
626109
706818
761979
773185
721370
602971
444094
290975
170516
94704.1
69880.5
69225.6
70436.8
66831.2
2848.68
37534.6
181055
210975
228800
225635
199118
164153
140164
142173
165149
196016
231040
271500
54788.7
59763.7
304357
250640
191913
166776
191573
241995
301074
372579
436710
465912
465877
453951
438514
420234
397739
369631
337108
303570
280234
272178
280170
301075
328673
356232
376933
381436
363628
327244
57069.7
77644.3
436851
344644
264015
231928
255979
325204
418963
519176
602739
649623
664386
658065
643213
625462
596582
550849
486573
416335
367558
373015
422328
478221
517734
525726
499030
439320
352816
268244
68852.1
100424
522084
393353
345167
403490
536726
689747
817127
895620
923935
911127
862700
787523
689197
575202
456849
350736
312083
372024
479710
591640
689650
766002
796533
753373
624630
443804
291552
216789
79922.9
121501
519697
612399
658771
667905
657054
638672
621055
600573
570055
525272
463155
387156
302591
245945
280642
395580
524868
649037
769320
874230
938397
920340
813694
645691
466270
326640
257443
237478
65717.5
91732.2
368758
284805
233234
220450
236055
273147
332087
410170
488618
544598
571666
577993
576772
572431
559552
529631
475690
398479
318055
287813
359940
474871
594472
694491
750428
740382
656987
515946
84712.6
68223.6
232516
245397
337587
438752
516933
563261
580649
584634
587074
594608
597937
582250
534401
456096
352322
255424
266803
371137
486742
586241
663499
713501
726601
685146
572165
417942
300690
243014
65463.4
80602.2
352298
505237
660367
787031
853971
867196
827636
757547
671078
569692
463840
358766
275067
266708
344008
454879
554139
632772
692057
736952
765488
763364
713810
611275
473793
336256
245799
219642
72018.7
117393
502383
673843
805025
862606
860088
804092
726204
636289
533696
419585
307597
243348
315103
430732
543628
639642
722038
787873
842343
872322
853170
771066
631306
460378
296438
215446
216800
205977
66419.7
104528
370276
521661
683777
826217
913216
935337
901641
832181
744264
634431
504607
360864
262662
294233
410114
543623
681747
819459
946862
1.05366e+06
1.10527e+06
1.06012e+06
913938
700795
484588
316174
244003
213796
74777.7
128845
498945
667645
842018
1.00282e+06
1.09693e+06
1.10753e+06
1.04588e+06
937193
806036
652782
498091
364431
346322
479876
633490
778904
904287
1.01725e+06
1.11781e+06
1.19548e+06
1.21561e+06
1.14081e+06
965987
731706
488321
290857
232068
287657
80193.5
92910.9
386668
482340
556351
604184
622995
611717
576909
543897
540255
579829
653513
723777
753682
717909
621848
542584
530722
543212
531542
486622
416443
349359
324278
359144
429628
492635
507938
445350
58137.8
41508.1
156558
294290
472059
636137
738571
776118
760076
696870
599999
478534
356893
284183
338827
456667
579711
686712
761564
787648
746480
630712
467564
306760
179922
102315
71946.8
69849.3
71208.2
67232.5
7142.05
36771.2
174615
208183
229655
227253
203192
177540
166687
175535
195974
223437
261270
309336
279561
82824.7
83972.9
295775
334913
267573
195030
160786
184509
233404
291273
363011
427644
458381
463608
463840
466118
466897
461683
447428
424782
395603
366199
340953
324195
318533
323326
333832
345130
350173
344397
331551
264108
70850
86455
386352
469504
363111
264008
218429
234651
300565
396874
506892
605050
663760
684707
679260
666859
656288
643697
623750
593191
557550
524103
506759
512692
527404
534047
518551
477087
410823
328331
263097
223752
90994.3
138457
605502
593156
432862
356723
395286
519332
673711
810959
906463
953805
958498
928471
873777
800680
715634
628896
555104
516304
530091
584973
658983
727598
776387
779398
713397
574109
406902
319312
351364
361440
138745
153067
568418
637627
703827
742707
748300
733696
712886
695116
678576
653242
618041
566825
506988
443104
399827
401213
463969
561987
670008
777960
869256
919315
894490
790117
626012
449497
313861
248672
228503
209883
90519.2
120557
434903
405839
303231
243185
226764
240295
276895
338030
420950
503447
561388
588318
595287
596735
598002
594593
578868
547200
502580
461912
447333
482814
557912
645218
718641
751494
725811
635746
491633
252192
84479.2
99989.7
334008
310097
319123
389288
478717
556309
606380
626880
632132
636628
648288
659056
654681
625262
571190
502490
444452
428221
468039
537110
608177
666198
700613
700120
646902
530141
391349
302474
267661
241641
107083
122892
408581
453363
563174
707348
834979
906781
922888
883713
815918
732109
635448
534087
430649
342419
305529
350210
446113
541877
621238
683087
731008
760927
760370
711210
606624
465282
334742
298385
364371
359789
109695
123022
514859
606399
742047
859461
912404
906694
851346
776675
690454
592801
482978
366809
279346
310620
411504
518253
614335
698678
768616
828493
862257
849170
771742
631506
453784
278684
193549
241208
304504
302857
119762
135889
481607
493489
579005
711074
841876
929619
957972
931512
872577
796032
700688
590981
472867
382375
368729
438759
549630
677687
811547
935777
1.03991e+06
1.08591e+06
1.04345e+06
903003
692894
473197
298759
255463
293194
300179
124636
125865
427033
543897
690305
850840
1.00784e+06
1.10593e+06
1.12021e+06
1.05787e+06
952557
822816
670324
509930
351251
282427
396759
551975
703360
838599
963307
1.07413e+06
1.16423e+06
1.19426e+06
1.13191e+06
967895
743139
508654
322990
263535
296931
308677
77283.6
81376.9
276728
407527
509786
585880
625166
624330
577605
491549
407618
387275
460312
580235
695676
763224
748897
640512
520198
487006
499252
497606
474479
436623
401798
390972
410216
449967
479261
468736
397475
184728
44797.4
44274.7
122186
160086
294409
477816
646154
750572
783571
763187
694129
589034
455452
314506
219879
307217
448052
581192
691897
768927
797733
759307
645831
479573
312486
182067
107161
77820.5
78477
83047.6
81555.6
56083.7
8225.91
2982.96
35363.6
162142
199577
225786
226315
208083
191960
188465
197045
212083
233488
269333
324243
364370
354010
346811
387101
348058
272844
195279
155366
174234
217731
271325
341098
406883
443441
459333
474401
493238
510535
519916
516162
499665
472258
438781
404171
372829
347243
329958
319668
315221
313482
311715
311357
309509
272003
344032
522608
490478
364693
257280
204175
210921
266459
358218
473473
586144
662280
694255
693871
682977
674998
671549
669544
664857
656231
640729
620245
599809
578032
548134
503448
442392
369156
298472
266924
305845
425376
613647
786878
615175
444504
347233
359901
467573
619274
766320
881021
951957
981292
976061
947242
903342
851140
798275
751997
720420
711692
727882
757994
784764
793590
761981
678011
559006
475805
492689
559824
607417
619977
624365
637963
701630
774691
821212
832946
820875
802314
790127
784569
775457
762339
737692
707076
671586
643595
632686
650917
696521
759615
828640
884375
902527
856696
745392
584239
417122
293069
233780
225442
259518
350351
458355
541999
421326
314626
252054
231880
241969
275030
334533
419321
506065
569736
602175
614525
622282
633135
643807
648920
644666
632480
619732
616051
630270
666456
711741
746503
747688
700048
599449
457825
311499
302518
375507
417831
351210
352074
410218
495669
577313
635691
663313
672120
680299
699571
724886
742960
744402
727833
698274
665930
642601
640075
656565
680504
698538
698740
668857
595246
482860
380462
339295
358385
400814
422881
444328
445756
470923
574551
717006
853466
942094
972318
945974
893905
827353
755280
681533
610797
553810
520640
525892
564294
616665
669119
714289
750814
771127
762451
708748
605745
475185
369817
359717
431138
493184
508175
502362
525452
630262
770086
891667
954358
957961
917928
860670
795979
724883
650203
574930
516496
499089
530082
586513
650924
713973
772280
823426
850441
834463
757797
619518
442335
271174
211903
283984
372957
433725
457805
471413
473428
466928
573655
697943
824925
923492
969966
964304
928638
877250
814446
744337
671682
612287
583162
603913
665584
753081
854430
951607
1.02953e+06
1.05303e+06
999341
857523
652328
443007
307765
297774
337255
356894
340311
364856
424793
542918
679743
825883
979824
1.09115e+06
1.1243e+06
1.08358e+06
1.00379e+06
903196
791747
679366
578260
525198
546518
624369
728997
836390
945104
1.04631e+06
1.12832e+06
1.15211e+06
1.08849e+06
923370
706625
489767
339359
306162
332761
334471
279635
266638
336970
438325
541594
616898
650114
638650
570612
442384
294987
263362
379724
530060
667802
757563
760399
646316
485795
425298
435608
443266
438418
426725
416343
416145
426300
440456
439225
404911
328057
193287
126228
122607
130624
161083
289327
472099
642160
752125
791031
777154
719255
629619
521583
423512
383612
438504
540227
645219
733821
793931
809561
762437
645167
476641
306911
177451
107603
78978.9
79296.7
84390.3
82813.6
67829.9
37497.3
2447.19
33527.9
145766
186130
217316
224151
214535
206672
205485
209485
216224
228399
253796
300851
358251
346887
349487
387201
331008
257548
183336
147529
161977
196878
242469
307911
375075
419330
445365
471394
501875
532284
555323
564700
558194
536120
502841
463387
423219
385347
352924
327709
310540
301426
301040
307641
325515
332960
426342
569386
480887
347036
241439
188908
187817
227706
306038
418543
542553
640866
692858
705951
700130
692244
689621
693322
699298
703244
697839
679628
647105
602798
546368
479887
408366
342347
306087
337134
447852
605751
759807
804330
590508
422248
313156
300578
384787
525982
679484
813089
910787
967788
989326
986713
969966
946660
920392
894477
870427
852823
844901
840100
830186
804221
751888
676721
608225
587355
611773
635167
630730
608151
598424
632271
714243
806648
875839
907154
907871
898741
898092
908585
922662
935323
939506
935336
923131
905644
888970
880800
882381
893754
909203
912744
885986
810822
688334
532927
383227
278437
236339
256319
336694
445579
532971
547945