/*--------------------------------*- C++ -*----------------------------------*\
| =========                 |                                                 |
| \\      /  F ield         | OpenFOAM: The Open Source CFD Toolbox           |
|  \\    /   O peration     | Version:  2.1.1                                 |
|   \\  /    A nd           | Web:      www.OpenFOAM.org                      |
|    \\/     M anipulation  |                                                 |
\*---------------------------------------------------------------------------*/
FoamFile
{
    version     2.0;
    format      ascii;
    class       volScalarField;
    location    "0.005700000";
    object      Xi;
}
// * * * * * * * * * * * * * * * * * * * * * * * * * * * * * * * * * * * * * //

dimensions      [0 0 0 0 0 0 0];

internalField   nonuniform List<scalar> 
12384
(
6.55111
10.2724
11.9923
13.1466
13.9781
14.4634
14.6089
14.3455
13.687
12.8341
11.5624
9.72263
6.47838
4.548
27.2133
35.5936
38.803
37.6471
38.1254
37.0534
37.5049
36.1669
36.2387
35.5801
36.9412
37.8027
40.6449
41.9897
44.7392
45.2154
46.6066
45.4567
45.1373
42.7206
42.1228
41.1795
40.3983
39.0423
37.4325
35.6646
32.955
27.0028
18.4339
15.6885
27.0603
31.6854
35.072
37.0196
37.9764
38.7504
38.8519
38.5213
37.8492
38.3671
39.3445
41.7476
45.6004
48.2292
53.9837
55.9255
61.6791
60.5407
62.3408
59.3884
59.0361
57.2047
55.9567
54.4686
53.0475
50.9425
43.2677
33.2066
23.4757
23.9402
31.956
36.3587
42.1015
47.0856
50.1806
52.4842
54.0095
57.1888
62.1604
70.341
75.9696
88.3151
91.9294
105.601
103.574
109.65
104.192
104.962
98.4564
96.0321
90.4986
84.786
77.9446
69.3411
60.944
58.336
51.8004
42.2473
36.0355
37.4643
42.4839
45.6556
49.5331
55.2842
61.3531
68.3947
74.9378
81.5311
86.7745
94.3717
96.9257
102.333
102.065
101.296
99.301
93.4309
90.5486
87.1634
83.5378
78.7129
74.3201
71.4728
65.856
58.1798
52.2139
44.462
35.5823
33.0698
34.3223
35.4581
22.8446
26.4002
31.4648
35.5805
39.4357
41.2845
44.1536
43.6287
44.4902
43.8275
45.8721
47.9337
52.5441
56.7652
62.8395
66.7752
72.8151
75.5095
76.0476
77.2693
69.9594
69.7325
62.9352
61.1289
56.9404
54.0899
50.9804
44.4404
34.8997
29.0951
29.1206
35.1907
46.3721
52.7985
51.2086
49.6482
51.8525
57.8826
65.5589
74.1126
82.479
93.5455
100.736
106.295
115.732
115.014
114.807
109.227
107.913
97.9069
92.2476
84.1526
74.9118
65.2258
70.0244
72.3504
66.6369
60.5959
53.9453
48.5972
30.9286
29.6766
32.6542
37.3258
43.2058
49.8218
56.4643
62.6719
69.8174
74.6475
78.7371
85.6176
84.2335
86.9361
88.0342
86.2083
84.9217
82.8577
80.8523
77.9953
73.5317
68.3976
61.1985
49.5076
40.3207
37.3803
36.8622
35.6457
35.1035
35.7094
33.1992
43.0841
49.2306
55.1072
61.7606
69.148
78.7196
85.2917
91.8363
102.69
102.457
104.157
103.667
97.1169
98.0543
89.4972
87.3353
81.7343
77.4421
74.7577
68.6073
56.1164
43.7037
39.3682
36.0557
33.5384
31.6185
30.404
28.6696
26.7723
33.6763
39.6537
51.0844
62.1854
71.3269
80.0648
89.1152
99.284
107.228
119.364
125.732
135.608
135.402
139.17
130.013
125.909
112.365
104.886
94.7278
86.6123
77.8561
67.2743
56.4303
53.6031
52.0088
51.9282
50.7788
52.094
52.038
52.7631
39.1697
45.0202
58.6653
71.2215
82.6274
93.9254
105.206
116.672
125.301
141.075
141.242
158.447
150.827
152.813
152.365
135.554
130.627
115.414
104.653
94.1283
82.7885
67.5617
55.4986
51.1882
48.7138
48.0254
49.0966
50.6751
51.377
49.3601
35.3898
40.7031
46.4371
51.4603
49.3613
47.9958
49.1452
52.321
53.6804
56.5941
57.0661
57.5945
56.4527
55.3471
55.2003
56.3955
58.8967
62.3932
66.2799
70.6332
74.3612
76.9858
76.4543
73.785
71.9469
69.1254
65.5514
58.6919
48.7658
36.7475
22.2929
30.0955
31.5236
31.8933
36.6064
51.9696
49.6398
50.985
56.9755
60.5991
63.3321
65.6263
68.1171
68.2729
69.2347
64.675
61.5495
55.2076
49.755
43.1496
37.1972
31.6989
26.4595
20.874
15.5069
10.7495
7.05769
4.58937
3.63705
4.06071
11.5867
10.299
10.6548
11.0852
11.7034
12.4225
12.9997
13.3862
13.6517
13.7275
13.411
12.1621
9.31666
8.84859
28.5368
27.1288
28.7586
27.7411
27.8506
26.5899
26.4294
25.665
27.2084
29.5274
34.1782
38.6589
44.0825
48.6864
52.8736
56.2904
58.6712
60.4252
60.6147
60.1075
58.4758
56.3769
53.3872
50.0295
45.6719
40.6587
35.1676
29.4056
22.5869
24.1684
30.4709
30.6997
34.1333
34.0425
32.5979
30.7063
29.123
28.0086
28.2538
29.7673
32.9658
37.0171
43.1744
48.5732
56.4892
62.7749
70.7066
75.3128
80.1674
80.8878
80.0987
77.1108
72.3445
65.8716
58.3572
49.8996
40.2011
29.6895
22.5712
33.6015
37.2085
31.2509
35.5189
37.5187
37.5618
38.6542
42.4725
50.5834
60.032
72.7444
85.2099
101.724
115.859
133.225
142.801
153.72
159.86
159.028
153.782
144.187
135.414
121.753
106.106
86.3844
64.9494
48.7132
37.1353
28.8275
28.6638
46.9052
41.3052
33.9
40.9901
49.1992
57.4912
66.6055
75.1215
85.1595
94.0904
102.671
109.078
116.324
120.449
122.049
120.57
118.731
113.21
107.545
100.842
92.88
83.231
73.6663
61.3501
47.1244
40.6483
38.441
36.1657
34.5186
35.5783
43.1807
30.2922
23.5046
27.7188
30.2682
31.5423
30.9478
30.3108
28.7147
29.002
30.5627
34.5164
39.9102
48.19
56.2789
67.095
75.614
85.6353
92.2725
96.9985
100.642
97.5295
96.9923
88.6542
83.4135
74.558
66.2354
56.7517
45.263
31.5446
36.9965
34.1451
27.0099
31.68
29.4462
28.6278
34.9975
44.8535
56.2563
70.2231
83.4062
101.368
114.836
133.74
142.933
157.442
162.855
167.252
165.49
158.96
148.499
137.143
123.943
108.247
88.1946
73.0394
59.2448
46.2533
41.8403
38.9667
62.9525
34.8739
20.5397
24.3951
32.3019
41.3954
50.5774
61.0713
71.1691
82.0385
90.3589
102.153
106.266
114.745
117.615
116.881
116.174
112.179
106.035
98.8816
90.4821
81.5376
70.859
59.1979
46.7487
35.6683
30.5835
28.664
28.4976
30.9005
41.7096
41.5919
32.3953
36.9812
44.82
54.7079
65.05
78.4823
91.7509
105.429
114.825
130.165
134.678
136.744
133.66
131.408
121.383
114.29
103.164
95.3056
85.4736
74.4282
60.484
42.6539
30.8608
27.3031
27.4483
26.7234
25.9949
25.5489
33.1826
40.9336
32.1858
39.2121
46.7752
55.9998
67.9114
82.8719
98.9312
117.415
139.123
156.911
172.528
189.211
196.488
201.043
187.688
176.006
157.642
139.134
121.728
103.932
84.2258
62.9885
43.947
36.9947
36.908
35.2831
35.4332
36.7181
53.1964
44.9859
37.2605
48.644
61.1593
74.982
89.9348
106.471
125.248
144.477
164.604
184.885
209.497
218.946
220.391
219.237
206.355
189.73
169.968
151.644
130.483
108.305
82.9504
57.2701
38.8749
37.3538
38.8126
39.2817
39.6342
41.025
53.6897
44.0626
28.1317
34.3871
38.831
43.1339
49.2974
56.3629
63.0372
67.2513
69.7632
70.2818
67.8366
64.0515
59.5243
55.3962
53.3343
53.4291
56.0906
59.7912
65.0401
71.4186
78.5948
84.8081
88.9427
88.8033
86.4331
79.7244
68.9529
54.7726
67.518
25.6704
24.2458
27.4432
39.6318
56.5615
60.9898
51.6998
58.069
65.0008
69.573
72.1274
72.4128
71.8935
68.6762
65.5542
59.359
54.5591
48.1319
42.1856
35.7966
29.856
24.928
21.3491
18.5491
14.9824
10.7981
7.2855
4.87771
3.68234
5.33342
14.163
11.2974
10.8302
11.1608
11.9574
12.7436
13.1945
13.1119
12.7494
12.5899
12.6874
12.7508
11.0043
10.64
31.9228
28.2549
27.608
26.307
26.5453
25.445
25.9677
26.6091
30.05
33.923
39.2494
43.4638
47.3135
50.3454
52.0762
53.698
54.5024
55.4331
55.9239
56.0779
55.3942
53.7091
51.1697
48.0748
44.5852
40.7443
36.5668
32.1185
26.6024
30.6183
33.1794
32.8424
33.8546
32.0811
30.3813
29.4244
29.4548
31.0547
33.707
37.0045
40.0829
42.7875
46.3464
48.821
53.9553
57.0969
63.578
66.784
72.2742
73.7526
75.1197
74.0857
71.8987
68.0488
62.373
55.377
46.4931
36.3346
27.1116
40.1718
40.2034
33.418
36.1882
37.2776
39.0191
44.1287
51.9351
61.6714
69.6384
78.9222
86.3201
97.4586
105.938
119.388
126.457
137.536
140.719
143.929
143.054
137.365
130.397
121.877
110.919
97.3394
76.8629
58.3717
43.8226
31.8216
27.9574
50.612
38.9717
38.9622
46.7986
54.7509
62.1587
68.718
75.9961
84.5373
91.0767
97.6014
105.97
111.305
114.052
116.096
115.906
113.048
110.406
105.695
101.564
96.0576
90.0035
83.4925
74.3373
60.5964
45.8564
36.5418
32.3775
32.916
37.4298
47.9156
34.3229
26.0464
29.179
30.3079
30.4991
29.8216
29.7692
30.0671
32.57
35.9379
42.8044
49.4648
59.1833
66.5624
75.3365
82.1006
89.2044
93.6892
97.5347
98.1015
96.3052
94.9066
87.2769
82.0331
73.1712
66.8792
59.5928
51.0482
38.6192
42.9877
39.5517
29.6078
28.8008
26.4849
32.2819
43.232
56.6189
71.4658
87.8768
99.9955
115.798
122.934
135.39
140.043
149.993
152.245
156.561
155.996
151.926
145.956
140.927
132.039
121.117
106.132
87.3603
71.5979
56.0714
45.445
42.1597
69.5273
37.7087
22.9603
29.5011
38.8797
48.8251
57.9262
67.7563
75.617
84.9558
93.595
100.946
106.79
114.779
115.297
118.901
116.032
110.213
105.868
98.0085
91.3591
84.1938
76.8749
67.4788
56.8381
45.7418
36.7581
30.2541
27.4789
31.1658
44.6483
44.5777
35.4534
42.6735
53.0879
64.4851
76.7286
89.3685
102.02
115.202
125.766
134.177
139.855
144.83
140.439
136.759
126.526
118.269
105.964
98.6944
91.3816
82.8764
72.3754
56.3973
39.8583
27.6921
24.4564
24.8927
26.6909
27.5695
35.1922
46.0844
36.8271
41.8655
50.7138
63.5421
79.5246
98.1107
116.359
134.658
156.452
164.861
187.41
196.956
208.7
209.277
208.937
190.88
173.845
156.607
138.694
122.263
104.445
83.4241
61.4015
43.1042
33.671
29.9635
32.9055
36.2292
53.4297
45.8844
44.8664
58.1616
72.8455
87.5755
102.375
117.945
134.501
149.374
169.517
187.558
210.628
215.229
226.741
226.554
211.573
199.983
177.772
163.386
146.038
128.178
105.023
78.5157
53.582
38.4325
34.8271
35.3385
38.7981
43.8228
55.5266
49.0471
33.2131
38.6651
44.6518
52.2837
61.2754
70.1331
75.5907
80.6511
82.6333
82.2346
80.8527
78.6225
75.709
73.3517
71.0527
70.7132
69.2392
67.3364
66.3863
67.4206
70.9942
76.1531
81.0899
83.5133
82.137
79.3744
72.6217
60.9766
71.3804
27.4752
21.5522
27.3005
52.6372
62.338
55.3193
59.2379
66.2175
70.5158
72.6446
73.1416
73.4859
72.1377
70.9168
66.9523
65.0179
59.5234
56.4219
50.8167
44.7215
37.2569
29.366
22.552
16.2463
11.0733
7.63025
5.494
4.15933
3.57279
5.55856
15.2759
11.8696
11.8018
13.0854
14.6961
15.6931
15.5582
14.5888
13.3445
12.3592
12.2729
12.8661
12.4752
12.0591
35.2322
30.4766
27.5153
25.597
24.8846
23.9033
25.3234
27.9827
33.0583
38.6075
43.399
46.5608
47.2841
46.7125
45.3643
44.5426
43.9695
44.2923
44.7349
45.6816
46.1661
46.5934
45.8517
44.4701
42.3305
39.849
36.9749
33.8755
29.7381
34.3388
35.706
35.5513
33.9417
30.8891
29.2177
29.1424
31.2225
34.8734
39.3708
43.2262
45.8241
47.9143
48.5723
50.2859
50.2532
52.7052
53.2112
56.7886
58.5292
62.2507
64.5385
66.9051
67.7347
66.7056
63.9857
58.2903
50.8982
41.2441
31.6636
43.8559
42.9931
37.1399
38.0478
38.4039
42.2685
50.5944
61.0824
71.2016
79.0128
84.4711
88.3762
93.7761
97.9991
103.867
109.888
114.271
120.164
121.936
123.255
121.156
119.602
115.49
109.993
101.908
85.8612
66.6792
50.4685
36.1208
28.4886
51.9861
38.3753
43.9206
52.6291
59.7633
64.887
69.5373
74.9777
78.9639
84.2165
88.6822
94.7459
96.4354
100.05
102.162
101.717
101.823
100.286
99.3633
97.8933
96.7912
93.9039
90.47
84.5549
73.077
57.9286
43.9102
34.8217
33.6907
38.431
50.6603
37.8598
29.1904
30.6488
30.3159
29.8251
29.6158
30.9485
33.1756
38.1977
44.7967
53.8057
59.7723
67.2394
70.044
74.9473
76.8504
79.8822
81.44
82.5201
83.0628
81.9457
81.3849
77.6055
75.1132
69.639
65.2839
60.2757
54.2323
43.992
47.1572
44.4802
31.0846
26.4328
28.8943
39.3816
54.672
71.3018
85.4537
96.6083
102.377
107.027
106.522
107.194
107.497
109.902
111.827
113.868
116.757
118.753
124.699
126.774
125.908
125.825
116.505
98.8146
80.2021
62.7717
48.6694
43.555
71.7827
39.1715
25.4999
34.9807
46.0507
56.436
65.1262
72.6548
77.8406
85.0463
90.6131
94.4925
102.424
103.78
109.455
108.844
108.775
106.484
101.422
95.2218
90.0975
84.9855
79.9302
73.6504
65.3429
54.7762
44.9586
36.2021
29.621
31.7032
45.1502
46.2928
39.5835
49.961
63.0929
75.7957
89.0851
96.3693
108.418
113.178
124.332
127.227
135.564
136.344
138.648
131.981
124.498
119.296
108.056
101.097
93.3756
88.289
80.4554
68.5628
51.4305
35.4014
25.1306
23.3442
27.5744
29.2668
36.9422
50.3254
37.6639
42.9231
55.7625
73.6518
94.106
113.638
128.683
140.768
148.394
160.979
171.31
176.267
181.959
191.701
190.343
189.508
177.23
165.403
151.938
137.024
120.867
101.326
78.6675
58.0752
40.3429
28.6437
31.5084
35.7834
53.2086
50.2574
51.2076
65.2132
82.1799
98.6393
113.372
125.869
138.892
150.837
171.555
186.226
196.558
215.366
217.827
217.114
214.714
200.945
183.483
170.018
155.26
141.969
122.334
97.7481
71.4756
49.6529
34.2157
30.3487
36.645
43.9695
54.7008
54.2582
38.0094
44.3885
52.6124
62.1961
71.2968
76.6358
77.8048
79.5316
77.1827
76.7238
76.5378
77.2949
77.9454
79.937
83.0616
84.5001
81.9732
76.5225
71.244
67.2171
65.3844
67.3018
72.7895
77.1098
78.3003
77.6702
74.6941
66.4454
70.7806
30.1162
21.1504
37.3379
61.0646
57.4354
58.7564
65.4662
70.2851
71.4064
71.0464
70.988
70.6339
70.3495
68.7565
66.2352
66.0601
62.7468
60.8064
56.7966
51.6869
44.1418
35.2438
27.1173
18.9935
11.0664
6.79929
4.95618
4.0359
3.91585
5.82747
15.9776
12.8939
14.137
16.4951
18.0159
17.7728
16.4001
14.6756
13.3006
12.3103
12.1136
13.087
13.7865
13.2446
39.1772
32.8445
27.9052
24.5601
22.8667
22.4095
25.2996
29.8981
36.5865
42.5785
46.3997
46.1221
43.7921
40.1505
37.2107
34.9635
33.519
33.0515
33.1079
34.1378
35.5449
37.192
38.524
39.2705
39.0474
38.1219
36.7346
35.0129
32.4254
36.7258
38.7212
39.4057
34.9236
30.2438
28.2276
29.3892
32.811
38.3373
44.2768
48.731
51.357
52.2543
52.6427
52.3099
51.0843
50.5883
47.8447
47.2481
45.2975
48.9842
53.0179
57.8804
62.3048
64.3587
63.0843
59.5367
52.9277
44.5416
34.7551
46.5362
47.0146
42.4963
41.2544
40.8185
46.6446
57.2814
69.2635
80.5213
86.8921
90.4716
91.6162
93.6704
91.6317
91.8993
89.0749
90.7281
91.5165
96.1476
100.27
102.543
104.951
107.052
105.306
102.34
90.4997
72.8589
54.4496
39.1428
29.3814
52.4025
41.2357
48.2261
56.9007
62.9353
66.2864
69.5025
71.9152
72.3451
75.7275
75.7134
76.3787
75.7833
76.7367
76.8557
78.8905
80.5845
84.1355
87.3467
90.3794
93.5035
94.504
94.4269
90.9015
81.4198
67.4115
51.8396
40.3186
36.5504
39.8231
51.5096
41.6556
32.6321
32.1285
30.2677
29.6045
30.3421
32.9001
36.9554
45.0967
53.0243
61.2029
64.6159
67.5991
66.9124
68.4427
67.1589
68.0237
65.6065
63.833
63.2584
61.3133
63.2713
62.9486
64.7016
63.6431
62.7078
60.1294
55.8409
47.9902
49.864
48.6788
30.7532
26.8265
33.0524
48.1095
66.2483
82.3405
92.3016
97.461
93.5512
88.2982
82.4451
81.8182
81.9617
85.1342
86.9162
89.9474
90.9983
94.0714
96.6177
102.328
113.943
120.662
117.591
106.57
88.0621
66.8614
51.1961
45.6304
73.9592
39.625
28.4065
40.5602
52.7282
63.3437
71.1061
75.4715
78.6645
81.8787
81.6046
86.5654
87.3191
92.1254
93.5717
96.3947
97.9158
96.3475
94.7348
89.798
87.3259
84.0586
80.674
76.9051
70.5607
61.2977
50.8514
41.0032
33.1055
32.2648
45.7494
49.218
43.8007
57.5301
73.3514
85.6087
95.6418
99.3928
106.046
106.311
110.966
115.94
115.038
118.498
119.673
122.677
117.092
113.086
107.495
101.778
95.2538
91.3668
86.1419
76.9173
61.5511
43.9913
30.2152
23.8218
28.4328
29.9589
37.9572
53.0026
35.986
44.6618
61.7864
84.7295
106.646
122.89
130.363
135.854
134.915
140.44
141.582
144.735
151.681
152.831
161.454
164.174
168.228
165.246
159.01
148.841
133.56
115.977
93.6938
71.4495
52.1173
34.6679
32.4669
35.0349
53.2059
57.055
54.8086
70.6497
90.4017
108.65
121.743
131.663
143.95
150.638
167.281
169.008
186.893
188.91
197.755
200.653
195.329
199.928
183.47
175.134
159.835
150.937
134.462
113.464
87.3992
63.0571
41.4614
28.2664
33.8351
43.7625
54.0127
59.5483
42.3746
50.1088
59.8799
69.5144
74.1056
74.1994
73.5485
71.0469
71.4291
72.3097
73.1373
74.3501
76.2649
79.6694
85.4023
92.7205
93.4192
86.7802
78.5464
70.4495
62.6917
55.4231
57.5376
67.8984
74.3985
76.8636
76.9718
71.0401
70.7204
33.0483
23.3
47.7531
64.8288
57.559
63.0375
69.0582
70.794
69.7082
69.0656
67.7909
65.9873
64.0807
63.823
63.7651
63.0825
64.4406
62.7251
60.6668
55.8784
49.1463
39.6002
30.7815
23.3177
12.991
7.07151
4.98839
4.26368
4.69515
6.30423
16.5125
14.2065
16.6712
19.3731
19.6789
18.0649
15.5351
13.2431
12.1483
11.8996
12.1509
13.4565
15.0042
14.2962
42.0278
34.8001
28.0103
23.5261
21.0682
21.4703
25.6238
31.833
39.4893
45.3777
46.8706
44.1437
39.6664
35.9174
32.0438
29.2975
26.6898
25.2045
24.0822
24.6238
25.9368
28.6775
31.0433
33.635
35.1925
35.9434
35.9808
35.7173
34.7303
38.0372
41.1722
42.7525
36.2098
30.4638
27.9618
29.5398
34.0975
41.0001
48.2383
53.7946
56.0856
57.5509
56.1188
56.4554
53.7058
53.3232
47.5865
43.315
34.7587
36.0569
41.8819
50.3784
57.1285
61.276
61.7679
59.2448
54.0998
46.0361
36.8475
47.9022
50.6389
48.6653
45.0902
44.1845
50.7401
63.2113
77.4432
88.1934
94.7593
96.6532
98.935
95.9916
92.4246
82.812
75.0425
66.636
63.9847
68.286
76.3342
83.9846
90.8746
97.9118
99.301
101.23
91.4618
75.625
56.1955
39.5006
29.9534
52.0451
46.59
51.2956
59.8269
64.9296
67.5976
69.1115
69.8695
67.5065
66.471
62.7766
60.1491
55.7263
54.3699
53.2824
54.4641
58.791
64.2548
72.6533
80.3013
87.3879
93.6907
95.5742
93.0634
87.1352
74.279
57.6874
44.1319
38.7985
40.1873
52.0503
45.3153
36.334
33.4768
30.4187
29.9225
31.3432
34.989
41.4414
50.7315
58.1669
64.615
65.0059
65.3994
63.806
63.1383
61.7843
57.8421
52.9952
47.4523
42.9514
41.8165
45.4685
49.4925
54.3137
57.9136
59.8205
59.5835
57.1512
51.0564
50.9251
52.0549
30.8415
29.0613
38.3615
56.234
74.0547
89.7728
96.5484
96.174
85.1575
77.1371
72.2921
72.5828
70.4242
70.9754
68.2044
68.3858
71.2301
74.5391
78.614
86.8656
96.873
108.145
115.929
109.441
91.138
69.2424
51.7232
47.3365
74.9634
40.206
31.8404
45.5849
58.8628
69.3003
76.1194
78.7169
79.167
77.6752
75.9166
74.9174
73.7003
74.0054
74.8423
77.6135
79.9801
83.1421
84.4394
83.3142
82.9037
81.614
80.2572
78.1036
73.5117
65.1603
54.4666
43.7605
35.5937
32.9828
44.4812
52.3338
47.4997
64.9925
81.8405
93.0634
99.825
99.0085
100.581
95.4085
98.7586
94.1855
99.3666
101.103
100.116
104.464
104.758
106.209
101.329
101.185
95.6752
93.3599
89.8846
82.418
68.97
50.8726
35.0136
27.0383
30.1897
30.3312
38.7253
56.0445
34.1351
46.7688
68.0248
93.8296
113.754
126.394
128.188
128.066
123.747
119.583
117.568
118.039
116.299
122.424
126.7
137.363
147.832
158.576
157.561
153.601
143.552
126.878
104.943
81.734
60.6967
41.7913
34.5304
34.7557
52.2936
64.7352
55.9539
74.6428
97.4384
115.76
127.787
138.817
145.352
151.107
154.611
151.149
157.901
153.322
158.282
164.101
170.768
174.777
175.172
173.878
161.959
154.812
141.673
125.47
99.7669
73.9376
50.7445
31.1188
31.6425
42.2825
52.504
64.0002
46.4755
54.9133
65.3694
71.3777
71.0712
69.796
67.1232
66.4627
67.4189
68.5218
69.494
72.2559
74.7859
77.4877
83.4582
94.1892
100.71
93.8921
83.6376
74.6554
64.6431
49.3774
45.7219
59.3204
70.301
76.3492
78.6846
74.2441
67.079
36.2297
26.9836
53.9988
60.3566
60.0141
66.468
69.8892
69.3956
67.167
64.3148
60.0292
57.3301
55.7354
55.6947
57.179
59.8377
62.8189
63.9555
62.8836
59.0156
52.0521
42.7004
32.4341
26.0469
15.6712
7.72926
5.32222
4.82766
6.26972
7.00133
17.2958
15.8863
19.2915
21.2322
20.1333
17.5384
14.6543
12.2321
11.4388
11.7713
12.3947
13.9857
16.1184
15.4636
45.6343
36.8693
28.1522
22.5248
19.8351
20.532
25.8315
33.3196
41.5828
46.4866
46.6998
42.7281
39.1881
35.6746
32.1185
28.5093
25.1585
22.2015
19.9884
19.3037
20.1793
22.8135
25.6966
29.0264
31.6369
33.5877
34.7379
35.7104
36.5442
39.1164
44.2955
46.6697
37.8829
30.2845
27.27
29.1686
34.267
42.0033
50.9933
57.5954
61.1178
61.5815
60.677
59.8157
58.1503
57.2212
52.7162
48.3675
38.253
34.3389
39.0448
47.7969
55.3925
60.0824
60.7575
58.5637
53.6971
46.4433
37.8021
48.2516
57.8894
57.9179
51.8374
48.5034
54.809
68.8314
83.8622
95.5218
101.142
105.107
104.689
104.035
96.205
86.4981
71.4714
57.6878
44.1758
44.7973
57.7189
69.5275
81.7611
89.7839
96.0437
98.1844
91.1024
74.2361
55.0729
38.1042
29.4276
51.8708
55.0831
54.3096
62.0145
67.0695
69.5834
70.4973
69.853
65.4427
61.0833
55.7006
50.5546
44.2531
39.8005
34.663
34.1119
39.4097
49.0067
59.8546
71.08
83.0101
90.6157
93.618
93.806
88.4732
77.4721
61.932
47.8208
39.9226
39.3879
51.0543
49.543
40.2536
35.0204
31.1868
30.618
32.5332
37.4678
45.162
54.0162
61.7839
64.7867
65.3959
63.9682
63.0437
61.3638
58.2112
51.8105
44.5144
37.1086
29.292
26.5436
33.6802
40.3183
48.2894
54.3715
58.1098
59.2568
58.6165
53.4666
49.6628
54.7967
31.7947
31.9093
43.9502
61.2574
80.4368
97.7607
102.679
96.9655
83.195
75.2991
72.0145
71.4221
65.9933
59.4635
49.9449
43.3778
47.5666
56.7409
66.6294
73.8539
83.9459
99.7253
111.481
106.96
90.9634
69.7727
52.003
49.7932
74.7547
41.6321
35.8825
50.3262
64.3025
75.5129
80.5212
83.3758
81.0285
77.364
71.1392
67.7821
61.0916
55.4644
54.4405
57.1487
63.0972
67.9316
74.087
76.6388
77.7536
78.9646
79.137
78.2338
74.328
66.5853
55.7485
44.3903
36.0558
31.7131
43.1192
55.7744
51.7594
71.2504
88.4016
98.2488
102.648
98.3894
97.2797
90.8272
84.5971
80.4381
73.0126
74.4421
78.4599
86.803
89.6783
96.8605
95.8031
97.5551
94.7404
94.3536
91.9873
85.6018
73.9366
54.4947
38.2083
29.9212
31.0323
29.9317
40.0006
58.2303
33.9694
49.5588
72.8238
98.7862
117.626
127.593
128.389
123.591
117.682
107.27
98.2194
85.6483
81.951
85.3748
101.185
113.063
126.611
147.297
154.747
154.455
147.217
133.076
112.58
88.9299
66.9438
47.182
37.4456
34.13
52.9154
69.6731
56.1523
76.9583
101.659
121.645
132.826
143.553
147.115
151.588
140.982
128.202
121.395
115.33
122.026
131.247
139.382
151.81
158.543
168.946
161.538
153.525
146.119
132.39
107.704
81.8696
57.6448
36.9511
31.4158
40.4746
52.9024
67.6988
49.7587
58.7687
67.7663
70.0461
67.4509
64.3369
61.5477
60.8902
61.0347
62.7372
67.9762
72.8189
76.5037
78.8159
80.328
88.3129
100.822
101.262
89.2793
77.2968
67.1525
55.077
51.0044
59.1228
69.3252
76.0349
79.1665
76.4526
65.414
39.9003
28.4572
53.1377
59.5345
62.3484
68.3015
69.9356
67.7075
64.8047
58.8727
53.3765
47.9812
44.4326
45.7007
49.3242
56.5502
59.4448
64.8975
63.7815
61.8983
53.6649
44.8713
33.3546
27.0403
19.2366
9.56067
6.52567
6.65598
9.23631
9.63751
17.6719
17.1107
20.793
21.7608
19.7119
16.9764
14.2535
12.3041
11.8294
12.2963
13.1315
14.8894
17.3751
16.8614
49.8342
39.1933
28.6946
22.1596
18.706
19.4554
25.4687
33.8629
42.0207
46.9888
46.3458
44.0781
41.6616
40.1018
37.532
34.6439
30.8232
27.0201
23.653
21.6692
21.0909
21.9894
23.7495
26.3707
28.8536
31.2631
33.3321
35.6267
38.2169
39.6761
46.5183
49.7233
39.1346
30.5951
26.8419
28.1103
33.5514
41.6294
51.6839
60.8606
65.3028
67.1465
64.8984
64.2824
61.731
61.7631
58.4162
57.4182
50.9771
47.7805
47.664
52.6277
56.7204
59.8594
59.7559
57.5844
53.1969
45.8941
38.0572
47.8998
62.8707
65.5518
55.0849
49.5278
55.9955
70.1175
86.4333
99.1067
108.174
109.595
111.639
109.873
106.417
95.0719
83.9303
68.9333
56.4101
50.1619
56.9729
68.2773
79.7494
88.0144
94.8303
96.2659
88.0668
70.755
51.0113
35.6667
29.5181
51.4575
66.3987
56.7374
64.8095
70.0197
73.2866
73.9987
71.8375
66.8518
60.2279
55.4064
49.1477
43.4751
37.4459
30.7282
26.3694
30.6054
41.2254
53.7542
67.3816
79.3055
87.2884
92.3463
92.4328
87.2098
76.1593
61.1665
47.5916
40.501
38.1923
50.0568
53.507
43.503
35.7068
31.0798
30.6378
33.4643
39.0286
47.3385
55.8233
62.8821
64.9529
65.8466
64.482
64.2077
61.7482
57.865
50.97
43.7275
36.9502
30.1744
27.8632
32.6308
39.2978
47.6595
53.9056
57.9926
60.2924
60.5907
54.8696
47.4338
58.8467
33.7864
34.6362
47.0925
64.077
86.1778
106.625
110.789
103.311
87.1487
80.5919
76.6612
75.9577
67.7551
59.177
46.1351
36.1003
37.1534
48.5865
58.2584
66.9311
79.8968
95.2203
105.786
102.747
88.3938
66.6259
51.2749
52.7931
75.4014
47.1179
41.3351
54.9699
69.5868
80.7563
86.2748
88.6042
84.2639
80.2709
73.0891
67.0745
56.127
47.5405
38.5699
39.1021
47.471
57.5138
65.93
71.9774
73.5433
77.455
77.8176
77.8995
74.6026
66.8526
55.1927
43.1665
33.8892
31.3803
45.5925
61.197
57.0172
76.9021
94.4058
103.565
106.227
101.571
98.8783
92.3719
81.1708
72.0071
57.3466
49.2559
56.7775
73.7191
78.209
89.1766
90.9044
94.5889
93.2693
94.2568
92.3821
87.8193
75.1014
56.3084
38.7312
30.3969
30.0044
29.2417
43.5694
60.5551
36.327
52.3096
74.4307
100.206
118.293
128.674
128.941
125.22
115.855
107.083
91.9192
74.7737
57.8808
61.34
79.0344
98.4499
116.182
136.221
147.651
152.627
146.984
134.296
115.904
90.8889
67.3765
47.9635
38.1664
35.6388
56.0629
72.5632
56.5544
77.3469
103.714
124.976
136.828
145.206
152.377
150.302
132.433
112.681
93.8406
76.9733
76.492
96.6873
117.766
126.223
147.119
155.85
153.064
150.153
147.604
133.253
111.37
85.8073
61.6923
40.9915
32.9225
38.4485
54.0714
70.2544
51.8698
61.1468
68.5875
68.3909
64.2592
58.9162
55.6829
51.1894
52.4503
56.1352
61.569
68.5211
74.7694
77.6758
78.5413
82.0618
95.4844
99.6718
90.3665
78.5644
69.9355
62.5513
59.2191
63.7362
70.4179
76.2069
78.2264
75.3332
61.1747
47.6654
27.4671
50.7417
59.6101
63.9555
69.522
70.6299
66.8046
62.3749
54.9886
47.3161
37.5607
31.6027
36.6918
43.4859
53.1892
58.4209
64.6895
65.1289
63.4561
55.438
46.0271
34.3119
26.7391
22.6921
13.0036
10.0243
12.3307
16.6994
19.0733
18.2388
18.2029
21.822
21.8118
19.0559
16.4503
14.5794
13.502
13.5128
13.9326
14.8825
16.5116
18.8478
19.5207
28.886
45.7654
51.6692
41.5315
29.7083
22.331
17.4108
18.0542
24.3284
33.0861
41.5519
46.4147
47.4872
46.2753
46.3776
46.3998
46.3206
44.7649
41.7994
37.2742
32.7088
28.7831
26.2675
25.0846
25.0325
25.9528
27.2778
29.2966
31.6385
34.6068
38.4124
39.3825
48.3788
51.9581
53.2816
52.6495
41.2199
30.6892
26.0813
26.6706
31.8386
39.4891
50.552
61.5598
69.6829
72.0835
70.5097
68.6538
65.8589
65.1711
63.5704
64.0176
62.0252
61.4488
59.3788
60.6975
60.9763
60.805
59.3538
56.0705
50.9194
43.5747
37.3262
37.9133
60.199
85.684
89.3889
78.7475
62.7993
52.1487
56.3776
70.6311
87.1847
102.47
110.277
114.413
114.127
115.855
114.561
109.796
97.8003
87.2192
76.3843
71.8221
74.3796
78.0758
85.1605
91.136
95.507
93.4373
82.7692
64.7207
46.6879
38.8334
46.3066
58.4485
72.2488
77.1258
58.8349
64.0224
70.1956
74.8204
78.5871
78.8688
76.0772
70.4649
63.8848
60.4376
54.5891
50.9938
46.4754
41.706
39.0046
40.4384
47.1791
57.489
69.2773
78.373
86.2767
90.3804
89.6287
84.5927
73.9226
58.5191
45.257
38.324
35.2307
35.2943
57.9186
68.7544
62.5583
48.2345
38.1722
32.6504
31.9756
34.5088
40.09
48.1035
56.7364
63.0957
65.6285
67.0865
66.0355
66.0392
63.9546
59.8306
54.3764
48.8277
43.9858
40.4553
38.9989
40.591
45.2114
51.0493
55.6609
59.6675
62.5092
62.0743
53.7881
43.0426
62.4454
74.913
57.3719
40.4315
41.6888
50.4301
65.5926
89.0009
113.21
121.37
114.209
96.7608
89.6685
85.1832
84.5799
77.5348
70.0503
59.6564
53.1135
52.1953
56.0788
61.4265
70.4434
82.6911
94.5268
102.212
98.5159
81.6302
61.3439
53.0763
61.7245
70.6725
58.6335
64.5774
45.8511
48.2171
59.2469
73.322
85.5188
92.3496
92.702
89.7938
86.1985
78.0889
72.8327
64.6301
54.4659
45.5564
42.7376
47.0326
56.7104
64.1818
70.7677
73.0099
76.5499
77.5371
77.8225
74.4239
66.1858
54.1643
40.6796
36.8943
47.1479
54.1308
60.7456
67.0553
57.4652
68.1532
84.846
101.034
109.983
110.63
108.975
104.396
100.043
89.6967
82.6061
66.9996
55.3312
56.3353
70.6732
74.5131
86.8399
87.1822
92.5388
92.0253
93.9491
92.5485
87.6678
75.2645
55.2034
36.4256
27.8442
29.4825
36.0575
44.4863
55.5144
63.0119
50.6781
44.5047
55.4906
74.0114
98.8287
116.968
127.867
130.301
126.499
122.301
112.599
98.9361
90.5654
71.5802
69.665
78.4484
94.4338
114.356
129.567
143.62
145.343
142.003
131.828
113.893
90.4069
66.7776
45.9096
38.6621
43.8123
53.895
70.7476
70.089
50.2475
59.8747
77.893
103.662
125.015
137.725
145.717
153.825
150.567
130.691
112.121
88.8295
71.372
59.136
78.098
100.293
112.871
138.876
140.63
146.042
146.368
142.314
130.08
111.136
86.4549
62.8388
43.7097
35.5907
38.7333
41.7709
51.2523
54.8271
54.0163
54.5385
62.4755
69.1947
68.0152
62.118
54.9565
48.5544
40.8107
40.109
45.1996
55.7191
66.5223
74.4898
78.1584
76.4545
73.122
84.7155
94.2816
91.2198
78.2165
71.3554
66.6644
65.3968
67.5911
71.8095
74.6896
74.8626
71.2975
56.901
63.7802
65.6228
41.0719
29.8186
47.8587
59.8372
65.6036
69.8029
71.5558
66.5187
62.7126
53.7358
46.0648
34.7284
27.184
34.934
44.1216
53.566
59.2905
65.4546
66.083
64.4391
56.7337
46.5689
34.7772
25.9388
24.7591
19.9823
20.3465
24.3733
28.5761
26.9781
7.57613
3.61414
18.19
18.2774
21.5959
21.052
18.1394
16.0554
14.6579
14.0387
14.4507
15.2842
16.113
16.9573
19.0171
21.2814
26.9277
40.8109
52.4508
40.0492
31.0083
23.1142
16.4085
16.4587
22.196
31.0381
39.7568
45.5244
47.7214
48.4165
49.1992
51.1268
52.1747
53.0461
52.2535
48.9725
44.7093
38.6871
34.5032
30.7332
28.6415
27.5755
27.5572
28.4093
30.0794
32.6334
35.9489
40.4845
38.7708
45.4329
57.1363
53.8124
40.9691
30.1163
25.3452
25.4337
29.091
36.4868
46.9252
60.9636
71.5048
77.6879
75.9498
74.6404
70.3168
68.678
66.3973
67.8267
67.6346
68.6199
67.5301
66.1261
64.6856
61.9478
58.0279
53.5164
47.2159
40.6567
37.5424
43.2228
59.7508
87.1337
98.4481
80.6966
62.5703
50.2819
52.1109
64.4886
81.9579
98.7554
111.017
114.777
116.317
115.809
117.462
116.249
113.528
105.711
100.789
96.4362
93.4981
93.5087
96.3182
97.4201
95.7364
89.3375
76.3679
61.3291
52.325
53.6971
58.8872
63.2503
64.3093
62.5076
62.7598
67.1869
73.3947
78.8762
83.4285
84.5595
81.466
76.3726
70.9841
68.9288
65.1805
63.1614
61.0799
58.911
58.2543
60.026
63.4011
69.6906
75.7892
82.0154
87.1359
88.759
86.7693
81.1248
69.8473
55.1244
42.4065
35.3869
32.873
37.1614
48.3036
59.66
63.1094
49.1856
39.2621
33.8307
32.648
34.9668
39.9956
47.7585
55.861
62.9368
66.2301
68.4261
68.2634
68.8556
68.511
66.5007
61.9136
57.2921
53.103
50.3142
49.3057
50.0198
53.0117
56.3407
59.7792
63.4115
65.1221
61.1708
51.3766
44.6534
50.3047
58.0123
54.2552
42.9584
43.3708
49.7663
62.5256
85.2148
115.573
127.668
127.663
110.599
102.663
96.5461
97.1287
92.6297
89.0834
82.8889
77.3075
73.6302
73.6861
77.3653
83.2912
91.176
97.7687
99.4239
89.7579
72.9986
60.5106
64.643
75.585
64.7292
48.1623
49.0143
45.46
47.8884
58.8173
73.8302
88.0379
95.5677
97.4611
95.9717
92.9138
85.7207
82.1127
78.1992
71.902
65.9137
62.3232
64.0855
67.096
70.3215
73.6831
75.1886
77.512
78.7598
78.5207
74.8314
66.9111
55.1245
42.9655
41.1925
48.2264
54.5071
55.3818
54.6971
56.8668
69.1728
86.7005
104.501
114.542
116.012
116.889
112.9
110.184
104.458
100.477
90.684
85.9891
79.8283
83.3658
82.423
88.8255
87.385
92.6621
91.0215
93.2732
90.753
88.0716
73.524
53.3816
35.5769
27.0716
29.1302
35.2757
40.6446
42.3983
42.8963
40.2803
40.4083
51.8012
68.1647
92.1412
112.412
125.044
130.285
128.578
125.63
122.702
118.153
108.801
104.139
101.038
103.768
111.771
121.71
131.279
138.398
136.568
137.352
124.397
107.619
84.2897
61.7903
45.2674