/*--------------------------------*- C++ -*----------------------------------*\
| =========                 |                                                 |
| \\      /  F ield         | OpenFOAM: The Open Source CFD Toolbox           |
|  \\    /   O peration     | Version:  2.1.1                                 |
|   \\  /    A nd           | Web:      www.OpenFOAM.org                      |
|    \\/     M anipulation  |                                                 |
\*---------------------------------------------------------------------------*/
FoamFile
{
    version     2.0;
    format      ascii;
    class       volScalarField;
    location    "0.000950000";
    object      c;
}
// * * * * * * * * * * * * * * * * * * * * * * * * * * * * * * * * * * * * * //

dimensions      [0 0 0 0 0 0 0];

internalField   nonuniform List<scalar> 
12384
(
0.0201393
0.00847045
0.00142419
7.22341e-05
3.75841e-06
1.71418e-07
5.60395e-09
2.09514e-10
2.51541e-12
2.28474e-14
2.44087e-16
2.95893e-18
4.09936e-20
6.62711e-22
1.18845e-28
1.52282e-29
3.20577e-32
4.64523e-35
6.11568e-38
1.00888e-40
3.11614e-43
1.36235e-45
6.43004e-48
3.10691e-50
1.49501e-52
7.11684e-55
3.36055e-57
1.57161e-59
7.27841e-62
3.35391e-64
1.52051e-66
6.74694e-69
2.8935e-71
1.18626e-73
4.7092e-76
1.84029e-78
7.22704e-81
2.88094e-83
1.16497e-85
4.67669e-88
1.8304e-90
6.81416e-93
2.41872e-95
8.26482e-98
4.05792e-105
1.52675e-106
6.09213e-109
2.19982e-111
7.72031e-114
2.68765e-116
9.36501e-119
3.25639e-121
1.13462e-123
3.91899e-126
1.36207e-128
4.70143e-131
1.64694e-133
5.82944e-136
2.13406e-138
8.186e-141
3.33634e-143
1.47553e-145
6.9316e-148
3.48526e-150
1.79494e-152
9.52477e-155
5.04454e-157
2.69986e-159
1.43613e-161
7.6786e-164
3.2324e-166
1.02757e-170
6.39494e-175
9.41926e-178
6.10889e-187
5.93461e-187
4.04561e-189
1.40298e-191
3.982e-194
9.64066e-197
2.07964e-199
4.14241e-202
7.68843e-205
1.32508e-207
2.09381e-210
3.08736e-213
4.38203e-216
6.15488e-219
7.61447e-222
6.98956e-225
5.46047e-228
3.74723e-231
2.22232e-234
1.18112e-237
5.95638e-241
2.95109e-244
1.43531e-247
6.94603e-251
3.29177e-254
1.57219e-257
7.02648e-261
3.09542e-264
1.35953e-267
1.44903e-271
1.32748e-293
2.0266e-291
5.88596e-294
9.6288e-297
1.13529e-299
1.05434e-302
8.80482e-306
6.5082e-309
4.40235e-312
2.7599e-315
1.63436e-318
2.37152e-322
0
0
0
0
0
0
0
0
0
0
0
0
0
0
0
0
0
0
0
0
0
0
0
0
0
0
0
0
0
0
0
0
0
0
0
0
0
0
0
0
0
0
0
0
0
0
0
0
0
0
0
0
0
0
0
0
0
0
0
0
0
0
0
0
0
0
0
0
0
0
0
0
0
0
0
0
0
0
0
0
0
0
0
0
0
0
0
0
0
0
0
0
0
0
0
0
0
0
0
0
0
0
0
0
0
0
0
0
0
0
0
0
0
0
0
0
0
0
0
0
0
0
0
0
0
0
0
0
0
0
0
0
0
0
0
0
0
0
0
0
0
0
0
0
0
0
0
0
0
0
0
0
0
0
0
0
0
0
0
0
0
0
0
0
0
0
0
0
0
0
0
0
0
0
0
0
0
0
0
0
0
0
0
0
0
0
0
0
0
0
0
0
0
0
0
0
0
0
0
0
0
0
0
0
0
0
0
0
0
0
0
0
0
0
0
0
0
0
0
0
0
0
0
0
0
0
0
0
0
0
0
0
0
0
0
0
0
0
0
0
0
0
0
0
0
0
0
0
0
0
0
0
0
0
0
0
0
0
0.154194
0.0883101
0.0241604
0.00175232
0.000160121
1.2562e-05
4.22118e-07
2.26711e-08
2.66101e-10
1.59791e-12
8.12588e-15
4.52089e-17
3.02296e-19
2.5137e-21
1.41998e-25
2.32806e-26
4.9125e-29
6.66326e-32
7.47249e-35
7.56394e-38
9.96689e-41
1.94275e-43
5.77693e-46
2.14353e-48
8.65692e-51
3.87004e-53
1.81196e-55
8.87102e-58
4.40787e-60
2.21761e-62
1.15092e-64
5.70524e-67
2.7355e-69
1.16175e-71
4.64362e-74
1.87391e-76
7.69008e-79
3.2789e-81
1.40665e-83
5.90979e-86
2.37246e-88
8.55597e-91
2.89715e-93
9.42278e-96
1.40934e-102
5.07636e-104
1.55859e-106
5.07813e-109
1.73845e-111
6.14271e-114
2.16944e-116
7.62387e-119
2.65424e-121
9.09781e-124
3.12585e-126
1.05912e-128
3.62033e-131
1.23571e-133
4.27317e-136
1.50669e-138
5.41527e-141
2.03236e-143
7.8835e-146
3.25061e-148
1.39893e-150
6.3808e-153
3.02936e-155
1.50123e-157
7.6664e-160
4.03128e-162
2.15879e-164
3.63565e-167
2.68542e-171
5.59128e-174
4.21907e-183
9.51191e-184
6.64195e-186
2.46473e-188
7.51226e-191
1.96845e-193
4.63451e-196
1.01554e-198
2.08201e-201
3.96305e-204
6.83942e-207
1.07277e-209
1.53535e-212
1.98651e-215
2.28013e-218
2.20296e-221
1.79638e-224
1.26686e-227
7.96908e-231
4.52898e-234
2.40639e-237
1.23398e-240
6.21239e-244
3.07936e-247
1.50256e-250
7.2184e-254
3.33903e-257
1.4961e-260
6.64194e-264
1.26043e-267
2.41553e-289
1.19709e-287
3.39913e-290
5.36689e-293
6.20252e-296
5.75699e-299
4.76673e-302
3.51232e-305
2.38171e-308
1.4886e-311
8.82495e-315
5.09843e-318
2.01579e-321
0
0
0
0
0
0
0
0
0
0
0
0
0
0
0
0
0
0
0
0
0
0
0
0
0
0
0
0
0
0
0
0
0
0
0
0
0
0
0
0
0
0
0
0
0
0
0
0
0
0
0
0
0
0
0
0
0
0
0
0
0
0
0
0
0
0
0
0
0
0
0
0
0
0
0
0
0
0
0
0
0
0
0
0
0
0
0
0
0
0
0
0
0
0
0
0
0
0
0
0
0
0
0
0
0
0
0
0
0
0
0
0
0
0
0
0
0
0
0
0
0
0
0
0
0
0
0
0
0
0
0
0
0
0
0
0
0
0
0
0
0
0
0
0
0
0
0
0
0
0
0
0
0
0
0
0
0
0
0
0
0
0
0
0
0
0
0
0
0
0
0
0
0
0
0
0
0
0
0
0
0
0
0
0
0
0
0
0
0
0
0
0
0
0
0
0
0
0
0
0
0
0
0
0
0
0
0
0
0
0
0
0
0
0
0
0
0
0
0
0
0
0
0
0
0
0
0
0
0
0
0
0
0
0
0
0
0
0
0
0
0
0
0
0
0
0
0
0
0
0
0
0
0
0
0
0
0
0.32527
0.266109
0.143744
0.0558246
0.0124424
0.00262035
6.27384e-05
4.06591e-06
5.03435e-08
1.98199e-10
5.01338e-13
1.02745e-15
2.28454e-18
8.12998e-21
4.3175e-22
1.09307e-22
2.38162e-25
3.14646e-28
3.29047e-31
2.69415e-34
2.00103e-37
9.88942e-41
1.12696e-43
3.01114e-46
9.71712e-49
3.7764e-51
1.52976e-53
6.51609e-56
2.72235e-58
1.37047e-60
8.42507e-63
5.06489e-65
3.77904e-67
1.49472e-69
5.73322e-72
2.38764e-74
1.00083e-76
4.46e-79
1.91999e-81
7.89973e-84
3.12443e-86
8.73744e-89
2.34714e-91
6.01481e-94
6.09869e-100
2.11142e-101
4.85031e-104
1.62274e-106
5.72483e-109
2.02016e-111
6.96991e-114
2.38793e-116
7.99238e-119
2.66505e-121
8.83949e-124
2.90357e-126
9.69358e-129
3.18765e-131
1.08353e-133
3.62547e-136
1.2659e-138
4.42147e-141
1.62117e-143
6.09682e-146
2.38255e-148
9.65723e-151
4.03394e-153
1.74367e-155
7.72219e-158
3.517e-160
1.6545e-162
8.03396e-165
3.78423e-167
5.06664e-170
3.43652e-179
9.37871e-181
5.43789e-183
2.08257e-185
6.37747e-188
1.68534e-190
4.05684e-193
9.1083e-196
1.92803e-198
3.80754e-201
6.89383e-204
1.12788e-206
1.63845e-209
2.00227e-212
1.99559e-215
1.70482e-218
1.2909e-221
8.5025e-225
5.04408e-228
2.86514e-231
1.60867e-234
8.8828e-238
4.82023e-241
2.55252e-244
1.31714e-247
6.54261e-251
3.10657e-254
1.43972e-257
6.53605e-261
1.19714e-264
3.82744e-285
3.85578e-284
9.89551e-287
1.41585e-289
1.49361e-292
1.29172e-295
9.93709e-299
6.87662e-302
4.40235e-305
2.61185e-308
1.46978e-311
7.93945e-315
4.34892e-318
1.51678e-321
0
0
0
0
0
0
0
0
0
0
0
0
0
0
0
0
0
0
0
0
0
0
0
0
0
0
0
0
0
0
0
0
0
0
0
0
0
0
0
0
0
0
0
0
0
0
0
0
0
0
0
0
0
0
0
0
0
0
0
0
0
0
0
0
0
0
0
0
0
0
0
0
0
0
0
0
0
0
0
0
0
0
0
0
0
0
0
0
0
0
0
0
0
0
0
0
0
0
0
0
0
0
0
0
0
0
0
0
0
0
0
0
0
0
0
0
0
0
0
0
0
0
0
0
0
0
0
0
0
0
0
0
0
0
0
0
0
0
0
0
0
0
0
0
0
0
0
0
0
0
0
0
0
0
0
0
0
0
0
0
0
0
0
0
0
0
0
0
0
0
0
0
0
0
0
0
0
0
0
0
0
0
0
0
0
0
0
0
0
0
0
0
0
0
0
0
0
0
0
0
0
0
0
0
0
0
0
0
0
0
0
0
0
0
0
0
0
0
0
0
0
0
0
0
0
0
0
0
0
0
0
0
0
0
0
0
0
0
0
0
0
0
0
0
0
0
0
0
0
0
0
0
0
0
0
0
1
1
1
0.574595
0.221811
0.112748
0.0277057
0.00258953
4.33153e-05
2.14694e-07
5.94883e-10
9.07911e-13
1.75643e-15
6.8006e-18
5.97714e-18
1.77357e-18
4.15911e-21
6.15908e-24
7.08017e-27
5.88409e-30
4.451e-33
3.45317e-36
4.22583e-39
1.05131e-41
3.69862e-44
1.41723e-46
5.55123e-49
2.18523e-51
8.51648e-54
3.343e-56
1.27062e-58
4.81896e-61
1.71093e-63
5.99625e-66
2.09087e-68
7.88599e-71
3.19285e-73
1.32081e-75
5.34415e-78
2.08802e-80
7.49029e-83
2.18975e-85
5.4309e-88
1.34607e-90
3.63174e-96
1.14847e-97
2.79916e-100
9.35937e-103
3.29085e-105
1.16966e-107
3.98942e-110
1.36752e-112
4.5607e-115
1.51279e-117
4.99528e-120
1.62889e-122
5.39112e-125
1.75065e-127
5.87172e-130
1.92311e-132
6.64143e-135
2.23561e-137
8.09151e-140
2.87662e-142
1.109e-144
4.25121e-147
1.75102e-149
7.25879e-152
3.16271e-154
1.3883e-156
6.34474e-159
2.90545e-161
1.41223e-163
6.99231e-166
5.16051e-175
1.36472e-177
4.32894e-180
1.44737e-182
4.011e-185
9.81824e-188
2.20688e-190
4.68994e-193
9.48689e-196
1.82986e-198
3.32981e-201
5.66043e-204
8.72664e-207
1.1461e-209
1.20338e-212
1.04225e-215
8.04367e-219
5.71889e-222
3.81183e-225
2.40721e-228
1.45107e-231
8.39419e-235
4.68058e-238
2.52427e-241
1.32081e-244
6.72187e-248
3.33516e-251
1.61631e-254
7.50187e-258
1.66771e-261
6.76339e-281
1.21781e-280
2.81917e-283
3.68737e-286
3.62202e-289
2.97389e-292
2.15265e-295
1.41653e-298
8.63962e-302
4.94628e-305
2.68206e-308
1.38623e-311
6.86433e-315
3.26797e-318
6.42285e-322
0
0
0
0
0
0
0
0
0
0
0
0
0
0
0
0
0
0
0
0
0
0
0
0
0
0
0
0
0
0
0
0
0
0
0
0
0
0
0
0
0
0
0
0
0
0
0
0
0
0
0
0
0
0
0
0
0
0
0
0
0
0
0
0
0
0
0
0
0
0
0
0
0
0
0
0
0
0
0
0
0
0
0
0
0
0
0
0
0
0
0
0
0
0
0
0
0
0
0
0
0
0
0
0
0
0
0
0
0
0
0
0
0
0
0
0
0
0
0
0
0
0
0
0
0
0
0
0
0
0
0
0
0
0
0
0
0
0
0
0
0
0
0
0
0
0
0
0
0
0
0
0
0
0
0
0
0
0
0
0
0
0
0
0
0
0
0
0
0
0
0
0
0
0
0
0
0
0
0
0
0
0
0
0
0
0
0
0
0
0
0
0
0
0
0
0
0
0
0
0
0
0
0
0
0
0
0
0
0
0
0
0
0
0
0
0
0
0
0
0
0
0
0
0
0
0
0
0
0
0
0
0
0
0
0
0
0
0
0
0
0
0
0
0
0
0
0
0
0
0
0
0
0
0
0
1
1
1
1
1
1
0.416334
0.121464
0.0189013
0.000264094
1.02372e-06
2.22032e-09
3.86281e-12
1.70106e-14
3.41461e-14
8.66681e-15
2.09483e-17
3.70922e-20
4.81215e-23
5.00838e-26
3.98236e-29
3.03358e-32
2.50897e-35
3.5104e-38
9.82191e-41
3.71731e-43
1.51162e-45
6.21453e-48
2.52917e-50
1.0204e-52
4.00581e-55
1.5402e-57
5.66902e-60
2.00145e-62
7.07058e-65
2.6386e-67
1.05548e-69
4.32556e-72
1.75941e-74
6.70324e-77
2.40806e-79
7.5461e-82
1.94505e-84
4.74375e-87
1.41807e-92
4.32009e-94
1.18014e-96
3.96233e-99
1.41586e-101
5.13337e-104
1.8189e-106
6.3061e-109
2.17685e-111
7.26038e-114
2.44836e-116
8.00692e-119
2.67191e-121
8.68278e-124
2.90602e-126
9.4698e-129
3.22963e-131
1.06932e-133
3.78191e-136
1.3036e-138
4.87282e-141
1.79202e-143
7.17452e-146
2.84476e-148
1.21401e-150
5.11481e-153
2.2816e-155
9.99818e-158
4.59515e-160
2.13646e-162
1.10281e-170
1.11468e-173
4.09328e-177
7.90622e-180
1.85369e-182
4.04841e-185
8.39666e-188
1.66765e-190
3.21923e-193
6.0004e-196
1.07484e-198
1.83504e-201
2.94185e-204
4.25568e-207
5.16543e-210
4.9822e-213
4.01712e-216
2.90826e-219
1.94913e-222
1.22877e-225
7.36155e-229
4.21989e-232
2.32704e-235
1.23936e-238
6.39758e-242
3.20951e-245
1.56888e-248
7.48746e-252
3.42472e-255
7.6895e-259
1.19021e-276
3.38925e-277
6.49346e-280
7.35233e-283
6.41119e-286
4.75544e-289
3.15149e-292
1.91918e-295
1.09288e-298
5.88441e-302
3.01876e-305
1.48334e-308
7.01117e-312
3.19816e-315
1.41127e-318
0
0
0
0
0
0
0
0
0
0
0
0
0
0
0
0
0
0
0
0
0
0
0
0
0
0
0
0
0
0
0
0
0
0
0
0
0
0
0
0
0
0
0
0
0
0
0
0
0
0
0
0
0
0
0
0
0
0
0
0
0
0
0
0
0
0
0
0
0
0
0
0
0
0
0
0
0
0
0
0
0
0
0
0
0
0
0
0
0
0
0
0
0
0
0
0
0
0
0
0
0
0
0
0
0
0
0
0
0
0
0
0
0
0
0
0
0
0
0
0
0
0
0
0
0
0
0
0
0
0
0
0
0
0
0
0
0
0
0
0
0
0
0
0
0
0
0
0
0
0
0
0
0
0
0
0
0
0
0
0
0
0
0
0
0
0
0
0
0
0
0
0
0
0
0
0
0
0
0
0
0
0
0
0
0
0
0
0
0
0
0
0
0
0
0
0
0
0
0
0
0
0
0
0
0
0
0
0
0
0
0
0
0
0
0
0
0
0
0
0
0
0
0
0
0
0
0
0
0
0
0
0
0
0
0
0
0
0
0
0
0
0
0
0
0
0
0
0
0
0
0
0
0
0
0
1
1
1
1
1
1
1
1
0.325972
0.0609744
0.000914866
3.16427e-06
7.13218e-09
4.78744e-11
7.4669e-11
1.42863e-11
3.34326e-14
6.3936e-17
1.05826e-19
1.36701e-22
1.44631e-25
1.22043e-28
1.00846e-31
9.43067e-35
1.54467e-37
4.79731e-40
1.94489e-42
8.42391e-45
3.59558e-47
1.52962e-49
6.36587e-52
2.49877e-54
9.49232e-57
3.42998e-59
1.23069e-61
4.67798e-64
1.86603e-66
7.80985e-69
3.23823e-71
1.26955e-73
4.66783e-76
1.5498e-78
4.26741e-81
1.05348e-83
2.68393e-89
7.92811e-91
2.40727e-93
8.30292e-96
2.99955e-98
1.11523e-100
4.05382e-103
1.47295e-105
5.16934e-108
1.79903e-110
6.09179e-113
2.05269e-115
6.82289e-118
2.26684e-120
7.4953e-123
2.48474e-125
8.2817e-128
2.76641e-130
9.46747e-133
3.23617e-135
1.16494e-137
4.16573e-140
1.60876e-142
6.137e-145
2.54744e-147
1.03564e-149
4.50905e-152
1.91685e-154
8.50223e-157
3.73795e-159
2.92033e-166
1.12782e-169
1.88715e-173
6.53289e-177
8.96439e-180
1.66219e-182
3.11417e-185
5.74028e-188
1.03505e-190
1.8275e-193
3.1404e-196
5.24645e-199
8.38004e-202
1.25127e-204
1.6696e-207
1.83804e-210
1.61957e-213
1.21816e-216
8.29654e-220
5.25437e-223
3.14069e-226
1.78868e-229
9.77115e-233
5.1454e-236
2.62221e-239
1.2974e-242
6.2491e-246
2.93671e-249
1.32376e-252
3.00069e-256
2.06283e-272
9.30544e-274
1.41448e-276
1.3516e-279
1.02827e-282
6.80432e-286
4.09013e-289
2.28897e-292
1.21043e-295
6.10413e-299
2.95307e-302
1.37605e-305
6.19485e-309
2.70119e-312
1.14334e-315
4.69486e-319
0
0
0
0
0
0
0
0
0
0
0
0
0
0
0
0
0
0
0
0
0
0
0
0
0
0
0
0
0
0
0
0
0
0
0
0
0
0
0
0
0
0
0
0
0
0
0
0
0
0
0
0
0
0
0
0
0
0
0
0
0
0
0
0
0
0
0
0
0
0
0
0
0
0
0
0
0
0
0
0
0
0
0
0
0
0
0
0
0
0
0
0
0
0
0
0
0
0
0
0
0
0
0
0
0
0
0
0
0
0
0
0
0
0
0
0
0
0
0
0
0
0
0
0
0
0
0
0
0
0
0
0
0
0
0
0
0
0
0
0
0
0
0
0
0
0
0
0
0
0
0
0
0
0
0
0
0
0
0
0
0
0
0
0
0
0
0
0
0
0
0
0
0
0
0
0
0
0
0
0
0
0
0
0
0
0
0
0
0
0
0
0
0
0
0
0
0
0
0
0
0
0
0
0
0
0
0
0
0
0
0
0
0
0
0
0
0
0
0
0
0
0
0
0
0
0
0
0
0
0
0
0
0
0
0
0
0
0
0
0
0
0
0
0
0
0
0
0
0
0
0
0
0
0
1
1
1
1
1
1
1
1
1
1
0.0946506
0.0024809
6.66775e-06
8.55089e-08
7.28784e-08
1.28174e-08
2.87061e-11
5.33554e-14
9.74003e-17
1.5126e-19
1.95013e-22
2.17846e-25
2.02463e-28
1.8988e-31
2.0376e-34
3.71181e-37
1.23726e-39
5.35679e-42
2.45001e-44
1.10981e-46
4.95163e-49
2.09495e-51
8.31688e-54
3.14399e-56
1.14869e-58
4.48967e-61
1.83628e-63
7.93421e-66
3.41217e-68
1.38816e-70
5.3405e-73
1.82391e-75
5.39142e-78
1.39484e-80
2.48543e-86
6.93783e-88
2.3743e-90
8.58998e-93
3.24584e-95
1.24198e-97
4.75441e-100
1.77374e-102
6.60105e-105
2.35125e-107
8.37854e-110
2.85546e-112
9.81689e-115
3.27199e-117
1.10585e-119
3.66237e-122
1.23104e-124
4.10104e-127
1.38852e-129
4.71843e-132
1.64485e-134
5.80616e-137
2.13919e-139
7.99923e-142
3.16046e-144
1.25776e-146
5.25193e-149
2.18843e-151
9.41309e-154
4.08418e-156
3.62214e-163
2.43575e-165
2.91668e-169
3.3709e-173
1.06635e-176
6.90758e-180
1.02378e-182
1.68769e-185
2.80964e-188
4.63132e-191
7.55728e-194
1.21044e-196
1.88667e-199
2.80985e-202
3.90945e-205
4.83679e-208
4.91103e-211
4.01942e-214
2.83623e-217
1.82229e-220
1.09296e-223
6.20553e-227
3.3656e-230
1.75461e-233
8.83349e-237
4.30989e-240
2.04381e-243
9.44345e-247
4.18449e-250
9.6008e-254
3.57278e-268
2.54067e-270
2.87158e-273
2.2371e-276
1.45301e-279
8.45307e-283
4.56221e-286
2.32921e-289
1.13765e-292
5.35127e-296
2.43376e-299
1.07289e-302
4.59203e-306
1.91113e-309
7.74226e-313
3.05921e-316
1.16659e-319
0
0
0
0
0
0
0
0
0
0
0
0
0
0
0
0
0
0
0
0
0
0
0
0
0
0
0
0
0
0
0
0
0
0
0
0
0
0
0
0
0
0
0
0
0
0
0
0
0
0
0
0
0
0
0
0
0
0
0
0
0
0
0
0
0
0
0
0
0
0
0
0
0
0
0
0
0
0
0
0
0
0
0
0
0
0
0
0
0
0
0
0
0
0
0
0
0
0
0
0
0
0
0
0
0
0
0
0
0
0
0
0
0
0
0
0
0
0
0
0
0
0
0
0
0
0
0
0
0
0
0
0
0
0
0
0
0
0
0
0
0
0
0
0
0
0
0
0
0
0
0
0
0
0
0
0
0
0
0
0
0
0
0
0
0
0
0
0
0
0
0
0
0
0
0
0
0
0
0
0
0
0
0
0
0
0
0
0
0
0
0
0
0
0
0
0
0
0
0
0
0
0
0
0
0
0
0
0
0
0
0
0
0
0
0
0
0
0
0
0
0
0
0
0
0
0
0
0
0
0
0
0
0
0
0
0
0
0
0
0
0
0
0
0
0
0
0
0
0
0
0
0
0
1
1
1
1
1
1
1
1
1
1
0.314947
0.0435371
0.00226615
8.42208e-05
4.16805e-05
9.56337e-06
2.90237e-08
3.84213e-11
7.0645e-14
1.12942e-16
1.53708e-19
1.85039e-22
2.07584e-25
2.09228e-28
2.18459e-31
2.53937e-34
4.6802e-37
1.56188e-39
6.94595e-42
3.28729e-44
1.56288e-46
7.25119e-49
3.11277e-51
1.25501e-53
4.64042e-56
1.86315e-58
8.053e-61
3.62598e-63
1.63117e-65
7.04351e-68
2.84894e-70
1.04703e-72
3.3928e-75
9.70791e-78
1.10517e-83
2.67511e-85
9.97686e-88
4.02057e-90
1.65162e-92
6.61267e-95
2.62612e-97
1.01222e-99
3.86093e-102
1.43017e-104
5.22696e-107
1.85006e-109
6.45369e-112
2.20513e-114
7.48808e-117
2.52068e-119
8.47123e-122
2.84056e-124
9.56172e-127
3.23295e-129
1.10687e-131
3.84644e-134
1.36714e-136
4.99553e-139
1.87781e-141
7.29152e-144
2.89423e-146
1.17737e-148
4.91116e-151
2.08893e-153
2.12119e-160
1.1905e-162
5.7046e-165
4.90123e-169
1.59824e-172
1.53701e-176
4.08632e-180
4.73348e-183
7.06225e-186
1.07924e-188
1.64591e-191
2.48496e-194
3.67157e-197
5.24549e-200
7.14309e-203
9.05141e-206
1.01287e-208
9.35554e-212
7.09922e-215
4.7045e-218
2.85571e-221
1.62424e-224
8.76918e-228
4.53065e-231
2.25011e-234
1.07736e-237
4.9882e-241
2.24278e-244
9.66614e-248
2.32342e-251
6.07982e-264
6.63828e-267
5.04608e-270
3.0616e-273
1.65473e-276
8.33582e-280
4.00411e-283
1.85467e-286
8.32826e-290
3.63862e-293
1.54998e-296
6.44644e-300
2.61741e-303
1.03836e-306
4.01553e-310
1.52016e-313
5.63459e-317
1.93278e-320
0
0
0
0
0
0
0
0
0
0
0
0
0
0
0
0
0
0
0
0
0
0
0
0
0
0
0
0
0
0
0
0
0
0
0
0
0
0
0
0
0
0
0
0
0
0
0
0
0
0
0
0
0
0
0
0
0
0
0
0
0
0
0
0
0
0
0
0
0
0
0
0
0
0
0
0
0
0
0
0
0
0
0
0
0
0
0
0
0
0
0
0
0
0
0
0
0
0
0
0
0
0
0
0
0
0
0
0
0
0
0
0
0
0
0
0
0
0
0
0
0
0
0
0
0
0
0
0
0
0
0
0
0
0
0
0
0
0
0
0
0
0
0
0
0
0
0
0
0
0
0
0
0
0
0
0
0
0
0
0
0
0
0
0
0
0
0
0
0
0
0
0
0
0
0
0
0
0
0
0
0
0
0
0
0
0
0
0
0
0
0
0
0
0
0
0
0
0
0
0
0
0
0
0
0
0
0
0
0
0
0
0
0
0
0
0
0
0
0
0
0
0
0
0
0
0
0
0
0
0
0
0
0
0
0
0
0
0
0
0
0
0
0
0
0
0
0
0
0
0
0
0
1
1
1
1
1
1
1
1
1
1
1
1
0.324924
0.0535144
0.0192955
0.0236145
0.021761
0.0064227
6.83136e-05
3.82744e-08
5.05098e-11
7.71776e-14
1.00882e-16
1.20676e-19
1.31746e-22
1.42004e-25
1.44252e-28
1.55468e-31
1.75152e-34
2.58896e-37
6.08238e-40
2.24557e-42
1.01444e-44
4.81589e-47
2.36413e-49
1.2031e-51
6.20695e-54
3.21257e-56
1.67394e-58
8.38696e-61
4.09823e-63
1.88769e-65
8.23513e-68
3.33253e-70
1.24659e-72
4.10838e-75
1.79264e-77
1.56078e-79
3.05292e-81
2.65911e-83
1.71044e-85
9.16355e-88
4.22108e-90
1.86642e-92
7.64915e-95
3.11864e-97
1.20831e-99
4.6788e-102
1.73899e-104
6.43986e-107
2.29533e-109
8.11691e-112
2.79788e-114
9.58072e-117
3.27395e-119
1.0969e-121
3.76493e-124
1.24981e-126
4.35094e-129
1.46002e-131
5.17598e-134
1.80996e-136
6.61647e-139
2.44722e-141
9.30218e-144
3.61998e-146
1.47108e-148
6.20697e-151
2.80915e-153
1.3239e-155
8.07398e-158
3.99065e-160
1.9092e-162
8.46392e-165
4.51893e-168
2.39974e-172
1.37227e-176
1.98814e-180
1.83618e-183
2.09343e-186
2.82075e-189
3.57313e-192
4.85828e-195
6.3038e-198
8.32634e-201
1.0442e-203
1.24252e-206
1.2986e-209
1.12767e-212
8.08584e-216
5.06537e-219
2.91097e-222
1.56972e-225
8.03145e-229
3.89312e-232
1.77046e-235
7.53244e-239
3.05809e-242
1.184e-245
4.58394e-249
1.063e-252
8.49799e-257
3.04775e-260
1.51845e-263
6.95017e-267
3.10202e-270
1.35418e-273
5.82266e-277
2.4789e-280
1.04247e-283
4.29611e-287
1.73222e-290
6.85405e-294
2.66911e-297
1.02149e-300
3.8454e-304
1.40881e-307
5.07939e-311
1.80749e-314
6.2964e-318
1.44267e-321
0
0
0
0
0
0
0
0
0
0
0
0
0
0
0
0
0
0
0
0
0
0
0
0
0
0
0
0
0
0
0
0
0
0
0
0
0
0
0
0
0
0
0
0
0
0
0
0
0
0
0
0
0
0
0
0
0
0
0
0
0
0
0
0
0
0
0
0
0
0
0
0
0
0
0
0
0
0
0
0
0
0
0
0
0
0
0
0
0
0
0
0
0
0
0
0
0
0
0
0
0
0
0
0
0
0
0
0
0
0
0
0
0
0
0
0
0
0
0
0
0
0
0
0
0
0
0
0
0
0
0
0
0
0
0
0
0
0
0
0
0
0
0
0
0
0
0
0
0
0
0
0
0
0
0
0
0
0
0
0
0
0
0
0
0
0
0
0
0
0
0
0
0
0
0
0
0
0
0
0
0
0
0
0
0
0
0
0
0
0
0
0
0
0
0
0
0
0
0
0
0
0
0
0
0
0
0
0
0
0
0
0
0
0
0
0
0
0
0
0
0
0
0
0
0
0
0
0
0
0
0
0
0
0
0
0
0
0
0
0
0
0
0
0
0
0
0
0
0
0
0
0
0
0
0
0
0
0
0
0
0
0
0
0
0
0
0
0
0
1
1
1
1
1
1
1
1
1
1
1
1
1
1
1
1
0.565554
0.0984384
0.00857029
2.03775e-05
3.19724e-08
4.71858e-11
5.89182e-14
6.74649e-17
6.88556e-20
6.89353e-23
6.74021e-26
6.55862e-29
6.65912e-32
7.06312e-35
8.40536e-38
1.14918e-40
1.87547e-43
3.91294e-46
1.15002e-48
4.88447e-51
2.65789e-53
1.58589e-55
9.80218e-58
5.9775e-60
3.57142e-62
2.0843e-64
1.18446e-66
6.5772e-69
3.575e-71
1.84186e-73
1.04158e-75
6.00438e-78
3.23473e-80
1.67901e-82
8.31242e-85
4.01038e-87
1.86311e-89
8.59186e-92
3.85589e-94
1.71881e-96
7.46943e-99
3.22437e-101
1.35812e-103
5.66697e-106
2.30887e-108
9.27968e-111
3.66633e-113
1.43347e-115
5.57717e-118
2.15125e-120
8.3272e-123
3.21054e-125
1.25037e-127
4.8912e-130
1.94502e-132
7.84802e-135
3.23273e-137
1.36114e-139
5.84953e-142
2.57086e-144
1.1479e-146
5.21806e-149
2.40123e-151
1.1201e-153
5.22324e-156
2.45366e-158
1.15518e-160
5.46762e-163
2.52706e-165
9.66567e-170
4.06129e-174
3.58261e-178
2.16734e-181
2.36789e-184
2.7936e-187
3.41434e-190
4.26193e-193
5.35401e-196
6.69866e-199
8.16192e-202
9.42595e-205
9.90512e-208
9.03615e-211
6.96123e-214
4.56934e-217
2.66049e-220
1.42437e-223
7.13571e-227
3.38716e-230
1.53348e-233
6.66159e-237
2.83758e-240
1.18884e-243
4.88437e-247
2.01447e-250
8.27125e-254
3.28521e-257
1.26459e-260
4.81542e-264
1.8107e-267
6.72392e-271
2.4954e-274
9.27982e-278
3.45168e-281
1.2761e-284
4.6751e-288
1.6962e-291
6.09446e-295
2.16662e-298
7.62508e-302
2.63704e-305
9.02006e-309
3.0583e-312
1.01876e-315
3.33203e-319
0
0
0
0
0
0
0
0
0
0
0
0
0
0
0
0
0
0
0
0
0
0
0
0
0
0
0
0
0
0
0
0
0
0
0
0
0
0
0
0
0
0
0
0
0
0
0
0
0
0
0
0
0
0
0
0
0
0
0
0
0
0
0
0
0
0
0
0
0
0
0
0
0
0
0
0
0
0
0
0
0
0
0
0
0
0
0
0
0
0
0
0
0
0
0
0
0
0
0
0
0
0
0
0
0
0
0
0
0
0
0
0
0
0
0
0
0
0
0
0
0
0
0
0
0
0
0
0
0
0
0
0
0
0
0
0
0
0
0
0
0
0
0
0
0
0
0
0
0
0
0
0
0
0
0
0
0
0
0
0
0
0
0
0
0
0
0
0
0
0
0
0
0
0
0
0
0
0
0
0
0
0
0
0
0
0
0
0
0
0
0
0
0
0
0
0
0
0
0
0
0
0
0
0
0
0
0
0
0
0
0
0
0
0
0
0
0
0
0
0
0
0
0
0
0
0
0
0
0
0
0
0
0
0
0
0
0
0
0
0
0
0
0
0
0
0
0
0
0
0
0
0
0
0
0
0
0
0
0
0
0
0
0
0
0
0
0
0
0
1
1
1
1
1
1
1
1
1
1
1
1
1
1
1
1
1
0.375432
0.0468554
0.000612929
4.03892e-07
3.75642e-10
4.12167e-13
4.35193e-16
4.21115e-19
4.01883e-22
3.72075e-25
3.55795e-28
3.56283e-31
3.75459e-34
4.38134e-37
5.39378e-40
7.29438e-43
1.09547e-45
1.84277e-48
3.66997e-51
9.76808e-54
3.77644e-56
1.99443e-58
1.21207e-60
7.8743e-63
5.16316e-65
3.36952e-67
2.15109e-69
1.34756e-71
8.50007e-74
4.66538e-76
2.3682e-78
1.08264e-80
4.72381e-83
2.03522e-85
8.92517e-88
3.86935e-90
1.69858e-92
7.35696e-95
3.20803e-97
1.37994e-99
5.93524e-102
2.5125e-104
1.05643e-106
4.35493e-109
1.77026e-111
7.05261e-114
2.77554e-116
1.07917e-118
4.16388e-121
1.60177e-123
6.1394e-126
2.36845e-128
9.17105e-131
3.60817e-133
1.43964e-135
5.88528e-138
2.45934e-140
1.05738e-142
4.66415e-145
2.10179e-147
9.73584e-150
4.52245e-152
2.13352e-154
1.00873e-156
4.82435e-159
2.31433e-161
1.11795e-163
4.69024e-166
1.27108e-170
3.14412e-175
1.56239e-179
1.00374e-182
1.18736e-185
1.46177e-188
1.83595e-191
2.33898e-194
2.99352e-197
3.81147e-200
4.78186e-203
5.81772e-206
6.71633e-209
7.0776e-212
6.4591e-215
4.91611e-218
3.17138e-221
1.82863e-224
9.77324e-228
4.9329e-231
2.35632e-234
1.06783e-237
4.70888e-241
2.0356e-244
8.48132e-248
3.54273e-251
1.49517e-254
5.97991e-258
2.31337e-261
9.01827e-265
3.4778e-268
1.33275e-271
5.12824e-275
1.96605e-278
7.43067e-282
2.75161e-285
1.00026e-288
3.58076e-292
1.26555e-295
4.42257e-299
1.52867e-302
5.21339e-306
1.76133e-309
5.90598e-313
1.9565e-316
6.24301e-320
0
0
0
0
0
0
0
0
0
0
0
0
0
0
0
0
0
0
0
0
0
0
0
0
0
0
0
0
0
0
0
0
0
0
0
0
0
0
0
0
0
0
0
0
0
0
0
0
0
0
0
0
0
0
0
0
0
0
0
0
0
0
0
0
0
0
0
0
0
0
0
0
0
0
0
0
0
0
0
0
0
0
0
0
0
0
0
0
0
0
0
0
0
0
0
0
0
0
0
0
0
0
0
0
0
0
0
0
0
0
0
0
0
0
0
0
0
0
0
0
0
0
0
0
0
0
0
0
0
0
0
0
0
0
0
0
0
0
0
0
0
0
0
0
0
0
0
0
0
0
0
0
0
0
0
0
0
0
0
0
0
0
0
0
0
0
0
0
0
0
0
0
0
0
0
0
0
0
0
0
0
0
0
0
0
0
0
0
0
0
0
0
0
0
0
0
0
0
0
0
0
0
0
0
0
0
0
0
0
0
0
0
0
0
0
0
0
0
0
0
0
0
0
0
0
0
0
0
0
0
0
0
0
0
0
0
0
0
0
0
0
0
0
0
0
0
0
0
0
0
0
0
0
0
0
0
0
0
0
0
0
0
0
0
0
0
0
0
0
1
1
1
1
1
1
1
1
1
1
1
1
1
1
1
1
1
0.305658
0.0384125
0.00023608
2.06604e-07
2.62749e-10
3.03299e-13
3.14755e-16
3.04444e-19
2.92588e-22
2.86674e-25
2.94758e-28
3.17219e-31
3.57635e-34
4.17875e-37
5.08358e-40
6.46523e-43
8.66948e-46
1.22559e-48
1.83448e-51
2.93517e-54
5.30303e-57
1.21398e-59
4.01557e-62
1.82768e-64
9.99588e-67
5.75698e-69
3.79965e-71
2.68045e-73
2.33759e-75
1.14958e-77
4.80478e-80
1.94279e-82
7.98694e-85
3.37457e-87
1.45824e-89
6.29545e-92
2.74967e-94
1.18245e-96
5.1335e-99
2.18321e-101
9.30988e-104
3.89426e-106
1.61697e-108
6.58051e-111
2.63722e-113
1.03777e-115
4.03726e-118
1.55894e-120
5.98427e-123
2.29727e-125
8.83821e-128
3.42563e-130
1.34346e-132
5.3604e-135
2.18275e-137
9.12235e-140
3.90485e-142
1.71985e-144
7.73493e-147
3.56146e-149
1.66275e-151
7.88061e-154
3.76492e-156
1.80635e-158
8.74167e-161
4.23764e-163
1.9887e-165
7.74258e-170
2.67735e-174
1.19453e-178
4.80052e-182
5.84234e-185
7.63e-188
1.01226e-190
1.35332e-193
1.82508e-196
2.46029e-199
3.29775e-202
4.34166e-205
5.5658e-208
6.82485e-211
7.72523e-214
7.66224e-217
6.32977e-220
4.33654e-223
2.60053e-226
1.43426e-229
7.44274e-233
3.67941e-236
1.7477e-239
8.03152e-243
3.58736e-246
1.56246e-249
6.66464e-253
2.78961e-256
1.14663e-259
4.63941e-263
1.85055e-266
7.2824e-270
2.83011e-273
1.08679e-276
4.12473e-280
1.54712e-283
5.73532e-287
2.10181e-290
7.61621e-294
2.72964e-297
9.67768e-301
3.39476e-304
1.17829e-307
4.04781e-311
1.37638e-314
4.6303e-318
7.41098e-322
0
0
0
0
0
0
0
0
0
0
0
0
0
0
0
0
0
0
0
0
0
0
0
0
0
0
0
0
0
0
0
0
0
0
0
0
0
0
0
0
0
0
0
0
0
0
0
0
0
0
0
0
0
0
0
0
0
0
0
0
0
0
0
0
0
0
0
0
0
0
0
0
0
0
0
0
0
0
0
0
0
0
0
0
0
0
0
0
0
0
0
0
0
0
0
0
0
0
0
0
0
0
0
0
0
0
0
0
0
0
0
0
0
0
0
0
0
0
0
0
0
0
0
0
0
0
0
0
0
0
0
0
0
0
0
0
0
0
0
0
0
0
0
0
0
0
0
0
0
0
0
0
0
0
0
0
0
0
0
0
0
0
0
0
0
0
0
0
0
0
0
0
0
0
0
0
0
0
0
0
0
0
0
0
0
0
0
0
0
0
0
0
0
0
0
0
0
0
0
0
0
0
0
0
0
0
0
0
0
0
0
0
0
0
0
0
0
0
0
0
0
0
0
0
0
0
0
0
0
0
0
0
0
0
0
0
0
0
0
0
0
0
0
0
0
0
0
0
0
0
0
0
0
0
0
0
0
0
0
0
0
0
0
0
0
0
0
0
0
1
1
1
1
1
1
1
1
1
1
1
1
1
1
1
1
1
0.264497
0.0317233
7.10771e-05
1.16467e-07
1.53889e-10
1.70101e-13
1.62481e-16
1.44257e-19
1.25823e-22
1.12456e-25
1.05622e-28
1.03273e-31
1.05949e-34
1.1072e-37
1.19551e-40
1.32654e-43
1.51452e-46
1.79143e-49
2.19225e-52
2.77269e-55
3.69457e-58
5.42869e-61
1.01056e-63
2.99885e-66
1.33781e-68
7.11681e-71
3.99177e-73
2.28234e-75
1.41045e-77
7.59322e-80
3.71071e-82
1.70894e-84
7.56835e-87
3.30948e-89
1.43764e-91
6.18703e-94
2.65715e-96
1.12534e-98
4.7904e-101
1.99885e-103
8.37858e-106
3.43191e-108
1.39975e-110
5.58415e-113
2.19667e-115
8.52806e-118
3.27318e-120
1.2564e-122
4.79331e-125
1.84212e-127
7.11364e-130
2.78404e-132
1.10815e-134
4.50355e-137
1.8765e-139
8.02349e-142
3.51927e-144
1.58329e-146
7.25928e-149
3.39622e-151
1.60668e-153
7.69318e-156
3.70861e-158
1.79439e-160
8.74167e-163
4.18572e-165
2.02854e-169
8.86048e-174
4.10744e-178
1.06636e-181
1.29887e-184
1.80512e-187
2.53767e-190
3.58041e-193
5.03411e-196
7.12478e-199
1.00798e-201
1.41473e-204
1.94516e-207
2.59996e-210
3.34333e-213
4.02634e-216
4.3811e-219
4.04935e-222
3.04342e-225
1.92915e-228
1.10587e-231
5.91606e-235
3.0038e-238
1.46248e-241
6.87667e-245
3.13905e-248
1.39673e-251
6.07633e-255
2.59131e-258
1.08565e-261
4.4751e-265
1.81729e-268
7.27752e-272
2.87621e-275
1.12253e-278
4.32827e-282
1.64943e-285
6.21427e-289
2.31528e-292
8.53266e-296
3.11128e-299
1.12272e-302
4.01036e-306
1.41834e-309
4.96788e-313
1.72374e-316
5.72968e-320
0
0
0
0
0
0
0
0
0
0
0
0
0
0
0
0
0
0
0
0
0
0
0
0
0
0
0
0
0
0
0
0
0
0
0
0
0
0
0
0
0
0
0
0
0
0
0
0
0
0
0
0
0
0
0
0
0
0
0
0
0
0
0
0
0
0
0
0
0
0
0
0
0
0
0
0
0
0
0
0
0
0
0
0
0
0
0
0
0
0
0
0
0
0
0
0
0
0
0
0
0
0
0
0
0
0
0
0
0
0
0
0
0
0
0
0
0
0
0
0
0
0
0
0
0
0
0
0
0
0
0
0
0
0
0
0
0
0
0
0
0
0
0
0
0
0
0
0
0
0
0
0
0
0
0
0
0
0
0
0
0
0
0
0
0
0
0
0
0
0
0
0
0
0
0
0
0
0
0
0
0
0
0
0
0
0
0
0
0
0
0
0
0
0
0
0
0
0
0
0
0
0
0
0
0
0
0
0
0
0
0
0
0
0
0
0
0
0
0
0
0
0
0
0
0
0
0
0
0
0
0
0
0
0
0
0
0
0
0
0
0
0
0
0
0
0
0
0
0
0
0
0
0
0
0
0
0
0
0
0
0
0
0
0
0
0
0
0
0
0
1
1
1
1
1
1
1
1
1
1
1
1
1
1
1
1
0.378475
0.0699124
0.00303909
2.31781e-06
1.92622e-09
1.96026e-12
2.06808e-15
2.13631e-18
2.05661e-21
1.99497e-24
1.94463e-27
1.96658e-30
2.03628e-33
2.17039e-36
2.31301e-39
2.55417e-42
2.84384e-45
3.23989e-48
3.77216e-51
4.4827e-54
5.40821e-57
6.7459e-60
8.89705e-63
1.43965e-65
3.65358e-68
1.48051e-70
7.56069e-73
4.03647e-75
2.16349e-77
1.16861e-79
6.06039e-82
3.03375e-84
1.43159e-86
6.5158e-89
2.86769e-91
1.247e-93
5.31773e-96
2.24657e-98
9.39209e-101
3.88738e-103
1.59673e-105
6.50421e-108
2.61352e-110
1.03869e-112
4.05468e-115
1.56449e-117
5.98826e-120
2.27495e-122
8.6848e-125
3.30421e-127
1.27617e-129
4.95446e-132
1.96923e-134
7.95121e-137
3.30673e-139
1.40648e-141
6.16043e-144
2.75881e-146
1.2643e-148
5.89579e-151
2.7871e-153
1.33544e-155
6.4277e-158
3.12309e-160
1.51916e-162
7.35654e-165
3.75336e-169
1.86856e-173
9.25153e-178
1.58084e-181
1.83971e-184
2.70842e-187
4.05995e-190
6.04565e-193
9.00718e-196
1.32931e-198
1.97919e-201
2.94124e-204
4.3561e-207
6.32894e-210
8.97031e-213
1.22242e-215
1.5708e-218
1.83212e-221
1.82462e-224
1.45963e-227
9.65017e-231
5.70975e-234
3.13709e-237
1.63104e-240
8.11717e-244
3.89642e-247
1.81414e-250
8.22748e-254
3.6465e-257
1.5836e-260
6.7532e-264
2.83262e-267
1.17018e-270
4.76614e-274
1.91551e-277
7.60147e-281
2.98017e-284
1.15481e-287
4.42466e-291
1.67688e-294
6.28812e-298
2.33388e-301
8.57652e-305
3.12149e-308
1.12558e-311
4.02254e-315
1.42211e-318
0
0
0
0
0
0
0
0
0
0
0
0
0
0
0
0
0
0
0
0
0
0
0
0
0
0
0
0
0
0
0
0
0
0
0
0
0
0
0
0
0
0
0
0
0
0
0
0
0
0
0
0
0
0
0
0
0
0
0
0
0
0
0
0
0
0
0
0
0
0
0
0
0
0
0
0
0
0
0
0
0
0
0
0
0
0
0
0
0
0
0
0
0
0
0
0
0
0
0
0
0
0
0
0
0
0
0
0
0
0
0
0
0
0
0
0
0
0
0
0
0
0
0
0
0
0
0
0
0
0
0
0
0
0
0
0
0
0
0
0
0
0
0
0
0
0
0
0
0
0
0
0
0
0
0
0
0
0
0
0
0
0
0
0
0
0
0
0
0
0
0
0
0
0
0
0
0
0
0
0
0
0
0
0
0
0
0
0
0
0
0
0
0
0
0
0
0
0
0
0
0
0
0
0
0
0
0
0
0
0
0
0
0
0
0
0
0
0
0
0
0
0
0
0
0
0
0
0
0
0
0
0
0
0
0
0
0
0
0
0
0
0
0
0
0
0
0
0
0
0
0
0
0
0
0
0
0
0
0
0
0
0
0
0
0
0
0
0
0
0
0
1
1
1
1
0.341194
0.211998
0.15689
0.124105
0.0959943
0.0763974
0.0861444
0.12834
0.151374
0.164548
0.132806
0.0838682
0.030938
0.00282719
4.31084e-06
4.93323e-09
5.4544e-12
6.09849e-15
6.38932e-18
6.77959e-21
6.89611e-24
7.27012e-27
7.82501e-30
8.6381e-33
9.68245e-36
1.08714e-38
1.20998e-41
1.38068e-44
1.57677e-47
1.84444e-50
2.21982e-53
2.7365e-56
3.45743e-59
4.5362e-62
6.48015e-65
1.20373e-67
3.54478e-70
1.52414e-72
7.70867e-75
3.99529e-77
2.06482e-79
1.05655e-81
5.26055e-84
2.57011e-86
1.204e-88
5.46804e-91
2.40673e-93
1.0382e-95
4.40034e-98
1.82741e-100
7.54107e-103
3.05208e-105
1.23062e-107
4.88127e-110
1.91623e-112
7.43123e-115
2.84649e-117
1.0832e-119
4.10023e-122
1.55099e-124
5.89097e-127
2.24875e-129
8.73112e-132
3.4278e-134
1.38565e-136
5.69182e-139
2.42303e-141
1.05048e-143
4.70327e-146
2.14126e-148
9.96012e-151
4.70276e-153
2.23991e-155
1.08201e-157
5.22931e-160
2.55265e-162
1.23923e-164
6.28856e-169
3.25676e-173
1.67784e-177
1.97271e-181
1.99023e-184
3.12291e-187
4.92926e-190
7.81075e-193
1.22413e-195
1.92134e-198
2.98971e-201
4.6684e-204
7.23398e-207
1.11586e-209
1.68743e-212
2.48043e-215
3.49419e-218
4.64263e-221
5.60344e-224
5.74392e-227
4.66513e-230
3.11755e-233
1.8587e-236
1.0287e-239
5.38823e-243
2.7019e-246
1.3071e-249
6.13452e-253
2.80498e-256
1.25354e-259
5.48955e-263
2.36094e-266
9.98793e-270
4.16147e-273
1.70945e-276
6.92889e-280
2.7731e-283
1.09649e-286
4.28541e-290
1.65622e-293
6.33216e-297
2.39586e-300
8.97446e-304
3.32926e-307
1.22361e-310
4.45715e-314
1.60943e-317
4.42683e-321
0
0
0
0
0
0
0
0
0
0
0
0
0
0
0
0
0
0
0
0
0