/*--------------------------------*- C++ -*----------------------------------*\
| =========                 |                                                 |
| \\      /  F ield         | OpenFOAM: The Open Source CFD Toolbox           |
|  \\    /   O peration     | Version:  2.1.1                                 |
|   \\  /    A nd           | Web:      www.OpenFOAM.org                      |
|    \\/     M anipulation  |                                                 |
\*---------------------------------------------------------------------------*/
FoamFile
{
    version     2.0;
    format      ascii;
    class       volScalarField;
    location    "0.000950000";
    object      cSound;
}
// * * * * * * * * * * * * * * * * * * * * * * * * * * * * * * * * * * * * * //

dimensions      [0 1 -1 0 0 0 0];

internalField   nonuniform List<scalar> 
12384
(
447.387
428.974
418.793
416.434
417.668
416.884
418.054
419.289
420.43
418.579
418.642
416.321
417.296
416.996
415.374
414.261
414.551
414.958
415.183
415.437
415.917
415.95
415.533
415.573
415.161
415.034
415.199
415.075
414.832
414.809
413.904
414.104
413.917
413.839
413.906
413.862
413.842
413.748
413.891
413.975
414.28
414.557
414.66
414.778
408.222
408.3
408.193
408.215
408.156
408.07
407.966
407.92
407.773
407.612
407.637
407.344
407.386
407.037
407.178
406.743
406.846
406.672
406.443
406.526
406.247
406.35
406.101
406.197
406.001
406.073
405.949
405.99
405.925
405.958
405.221
405.201
405.198
405.181
405.183
405.164
405.164
405.145
405.147
405.129
405.133
405.119
405.117
405.113
405.107
405.109
405.107
405.11
405.111
405.112
405.111
405.113
405.113
405.114
405.115
405.116
405.116
405.117
405.118
405.136
405.136
405.118
405.117
405.116
405.117
405.116
405.114
405.114
405.113
405.112
405.112
405.111
405.108
405.106
405.106
405.105
405.107
405.108
405.111
405.112
405.112
405.113
405.114
405.114
405.115
405.116
405.116
405.117
405.118
405.136
405.136
405.118
405.117
405.116
405.116
405.115
405.114
405.114
405.113
405.111
405.112
405.11
405.109
405.107
405.106
405.106
405.107
405.109
405.11
405.112
405.111
405.112
405.113
405.114
405.115
405.116
405.116
405.117
405.118
405.136
405.136
405.118
405.117
405.116
405.116
405.115
405.114
405.114
405.113
405.112
405.112
405.111
405.108
405.107
405.105
405.105
405.106
405.109
405.11
405.112
405.112
405.113
405.114
405.115
405.116
405.117
405.117
405.117
405.117
405.136
405.136
405.118
405.117
405.116
405.117
405.115
405.114
405.113
405.113
405.112
405.112
405.111
405.108
405.107
405.105
405.105
405.107
405.109
405.11
405.112
405.111
405.112
405.113
405.114
405.114
405.116
405.116
405.117
405.118
405.136
405.136
405.118
405.117
405.116
405.116
405.115
405.114
405.113
405.113
405.112
405.112
405.111
405.108
405.107
405.105
405.105
405.107
405.109
405.11
405.112
405.111
405.112
405.113
405.114
405.115
405.116
405.116
405.117
405.118
405.136
405.137
405.118
405.117
405.116
405.116
405.115
405.114
405.113
405.112
405.111
405.111
405.11
405.109
405.107
405.106
405.105
405.107
405.108
405.111
405.111
405.112
405.113
405.114
405.114
405.115
405.117
405.117
405.117
405.118
405.136
405.136
405.118
405.117
405.116
405.116
405.115
405.114
405.113
405.113
405.112
405.112
405.111
405.108
405.107
405.105
405.105
405.106
405.109
405.111
405.112
405.111
405.113
405.114
405.114
405.115
405.116
405.116
405.117
405.118
405.136
405.136
405.118
405.117
405.116
405.117
405.115
405.114
405.113
405.112
405.111
405.111
405.111
405.109
405.107
405.105
405.105
405.107
405.108
405.111
405.112
405.112
405.112
405.113
405.114
405.115
405.117
405.116
405.117
405.118
405.136
405.135
405.117
405.117
405.115
405.116
405.114
405.114
405.113
405.112
405.112
405.112
405.112
405.109
405.108
405.107
405.107
405.108
405.11
405.11
405.111
405.112
405.113
405.114
405.115
405.116
405.117
405.117
405.117
405.118
405.137
517.57
483.918
422.899
397.822
397.762
394.374
396.091
398.649
402.063
408.409
410.736
412.507
412.744
413.361
389.518
386.931
387.531
388.27
389.146
390.197
391.354
392.719
394.543
396.273
398.158
400.163
401.742
403.504
405.071
406.248
407.374
408.06
409.087
409.873
410.3
410.822
411.25
411.572
412.011
412.411
412.973
412.973
413.577
413.786
399.688
399.462
399.651
400.153
400.789
401.433
402.12
402.479
403.157
403.191
403.783
403.726
404.099
404.038
404.185
404.263
404.1
404.442
404.095
404.343
404.134
404.236
404.161
404.229
404.192
404.267
404.192
404.252
404.215
405.186
404.398
403.327
403.289
403.258
403.229
403.194
403.128
403.084
403.013
402.971
402.908
402.878
402.795
402.715
402.641
402.656
402.714
402.799
402.839
402.883
402.903
402.959
402.989
403.047
403.088
403.135
403.17
403.208
403.263
404.433
404.442
403.258
403.217
403.172
403.14
403.112
403.055
403.015
402.96
402.926
402.879
402.852
402.775
402.692
402.659
402.644
402.716
402.787
402.852
402.875
402.921
402.954
403.008
403.048
403.106
403.138
403.166
403.213
403.257
404.442
404.441
403.264
403.219
403.172
403.145
403.095
403.059
403.004
402.973
402.916
402.887
402.838
402.776
402.706
402.642
402.655
402.715
402.797
402.84
402.884
402.905
402.96
402.991
403.047
403.088
403.136
403.169
403.207
403.262
404.435
404.441
403.257
403.212
403.165
403.139
403.102
403.044
403.005
402.95
402.917
402.87
402.849
402.788
402.73
402.658
402.646
402.684
402.774
402.835
402.891
402.932
402.993
403.023
403.075
403.11
403.159
403.186
403.225
403.27
404.44
404.442
403.257
403.207
403.169
403.126
403.093
403.034
403
402.947
402.919
402.876
402.853
402.785
402.717
402.642
402.647
402.704
402.792
402.839
402.884
402.905
402.959
402.989
403.046
403.086
403.134
403.167
403.206
403.262
404.435
404.44
403.274
403.213
403.176
403.129
403.096
403.039
403.007
402.954
402.926
402.882
402.858
402.789
402.717
402.642
402.649
402.705
402.791
402.837
402.883
402.904
402.958
402.989
403.047
403.087
403.135
403.168
403.207
403.263
404.434
404.436
403.264
403.212
403.166
403.133
403.082
403.045
402.988
402.96
402.909
402.889
402.846
402.806
402.728
402.667
402.637
402.69
402.77
402.856
402.9
402.931
402.978
403.013
403.068
403.104
403.154
403.18
403.226
403.265
404.443
404.432
403.267
403.206
403.168
403.122
403.091
403.034
403.001
402.949
402.924
402.881
402.859
402.794
402.725
402.647
402.645
402.698
402.786
402.836
402.883
402.906
402.961
402.993
403.049
403.09
403.137
403.171
403.208
403.264
404.435
404.441
403.255
403.209
403.175
403.135
403.099
403.04
403.002
402.946
402.915
402.869
402.846
402.778
402.715
402.641
402.642
402.71
402.781
402.85
402.874
402.919
402.948
403.003
403.039
403.097
403.13
403.169
403.205
403.254
404.441
404.434
403.264
403.202
403.164
403.112
403.082
403.023
402.993
402.94
402.919
402.876
402.859
402.797
402.737
402.657
402.642
402.693
402.784
402.836
402.879
402.902
402.957
402.989
403.048
403.087
403.135
403.173
403.209
403.265
404.433
517.815
519.317
452.147
406.534
384.458
379.937
378.408
378.258
378.491
379.276
380.59
384.141
388.414
391.219
372.547
373.225
373.224
372.918
372.522
372.089
371.936
372.188
372.242
372.091
371.801
371.256
370.995
370.56
370.573
370.083
370.169
369.56
369.879
369.836
370.122
370.643
370.848
371.298
371.878
372.314
373.541
374.029
374.737
374.933
364.106
364.69
364.653
364.678
364.67
364.557
364.658
364.47
364.565
364.318
364.392
364.177
364.163
364.053
363.952
363.934
363.666
363.771
363.44
363.596
363.296
363.37
363.174
363.174
363.054
363.026
362.999
362.979
362.959
362.04
361.354
362.343
362.406
362.411
362.456
362.463
362.522
362.539
362.59
362.611
362.65
362.668
362.728
362.797
362.855
362.843
362.786
362.718
362.677
362.65
362.63
362.595
362.567
362.527
362.491
362.459
362.434
362.406
362.361
361.259
361.259
362.357
362.4
362.433
362.457
362.475
362.519
362.553
362.59
362.62
362.648
362.673
362.733
362.808
362.83
362.847
362.788
362.722
362.672
362.651
362.623
362.594
362.558
362.524
362.481
362.457
362.438
362.403
362.359
361.259
361.259
362.348
362.399
362.434
362.455
362.487
362.519
362.556
362.585
362.622
362.647
362.678
362.735
362.793
362.848
362.842
362.784
362.718
362.675
362.649
362.629
362.593
362.566
362.527
362.492
362.46
362.435
362.407
362.361
361.259
361.259
362.359
362.404
362.44
362.455
362.484
362.527
362.56
362.597
362.626
362.654
362.674
362.719
362.774
362.831
362.847
362.81
362.739
362.684
362.647
362.613
362.569
362.541
362.506
362.474
362.444
362.424
362.393
362.343
361.258
361.26
362.36
362.402
362.437
362.467
362.493
362.535
362.565
362.598
362.623
362.649
362.671
362.723
362.787
362.847
362.848
362.793
362.723
362.676
362.648
362.629
362.594
362.567
362.529
362.493
362.461
362.437
362.408
362.361
361.259
361.259
362.349
362.401
362.434
362.462
362.49
362.528
362.559
362.591
362.618
362.644
362.668
362.721
362.788
362.847
362.846
362.792
362.724
362.678
362.649
362.629
362.595
362.567
362.528
362.492
362.46
362.436
362.407
362.36
361.259
361.259
362.357
362.404
362.439
362.462
362.495
362.531
362.567
362.593
362.625
362.644
362.671
362.71
362.772
362.83
362.852
362.812
362.741
362.67
362.636
362.613
362.58
362.55
362.513
362.48
362.448
362.428
362.394
362.348
361.259
361.259
362.358
362.407
362.44
362.468
362.495
362.532
362.563
362.595
362.619
362.645
362.667
362.716
362.781
362.844
362.849
362.798
362.728
362.679
362.65
362.629
362.593
362.565
362.526
362.49
362.458
362.433
362.406
362.36
361.259
361.259
362.362
362.404
362.43
362.46
362.487
362.53
362.563
362.599
362.627
362.654
362.677
362.728
362.787
362.851
362.849
362.792
362.726
362.674
362.65
362.624
362.597
362.562
362.531
362.489
362.463
362.437
362.407
362.362
361.259
361.259
362.358
362.409
362.443
362.473
362.501
362.539
362.569
362.6
362.624
362.648
362.668
362.713
362.772
362.836
362.854
362.804
362.73
362.68
362.655
362.632
362.597
362.568
362.528
362.492
362.458
362.432
362.405
362.361
361.26
816.203
862.226
824.157
658.311
501.891
454.383
403.208
383.725
379.593
377.562
377.356
375.811
377.616
379.514
378.46
384.66
385.527
383.724
383.088
380.17
379.45
378.174
377.408
376.802
376.094
375.203
374.482
373.602
373.092
372.639
372.217
371.699
371.203
371.133
370.936
370.849
370.826
370.761
370.664
370.698
370.61
370.794
370.794
370.874
367.149
367.058
366.928
366.647
366.509
366.32
366.027
365.953
365.633
365.599
365.249
365.274
364.909
364.983
364.612
364.719
364.373
364.447
364.195
364.163
364.076
363.908
363.955
363.781
363.819
363.69
363.737
363.639
363.681
363.468
362.856
363.038
363.027
363.047
363.02
363.032
363.004
363.013
362.987
362.994
362.974
362.98
362.968
362.973
362.966
362.968
362.963
362.965
362.961
362.963
362.96
362.962
362.959
362.961
362.958
362.96
362.959
362.958
362.95
362.754
362.753
362.95
362.96
362.959
362.96
362.96
362.959
362.962
362.96
362.963
362.96
362.963
362.961
362.964
362.963
362.962
362.964
362.961
362.963
362.96
362.962
362.959
362.962
362.959
362.96
362.959
362.959
362.96
362.95
362.753
362.753
362.951
362.96
362.958
362.961
362.958
362.961
362.959
362.962
362.96
362.963
362.961
362.962
362.964
362.962
362.964
362.962
362.964
362.96
362.962
362.959
362.962
362.959
362.961
362.958
362.96
362.959
362.958
362.95
362.754
362.753
362.95
362.96
362.959
362.959
362.96
362.959
362.962
362.959
362.962
362.96
362.963
362.961
362.964
362.962
362.965
362.961
362.964
362.961
362.963
362.96
362.962
362.96
362.961
362.958
362.961
362.958
362.96
362.951
362.753
362.753
362.951
362.958
362.96
362.959
362.961
362.959
362.962
362.959
362.962
362.96
362.963
362.961
362.964
362.962
362.965
362.962
362.964
362.96
362.962
362.959
362.962
362.959
362.961
362.958
362.96
362.958
362.958
362.949
362.754
362.754
362.951
362.957
362.96
362.958
362.961
362.959
362.962
362.959
362.962
362.96
362.963
362.961
362.964
362.962
362.964
362.962
362.963
362.96
362.962
362.959
362.962
362.959
362.961
362.958
362.96
362.959
362.958
362.949
362.754
362.755
362.951
362.959
362.958
362.961
362.959
362.961
362.959
362.962
362.96
362.962
362.96
362.964
362.961
362.964
362.962
362.964
362.961
362.963
362.961
362.96
362.962
362.959
362.961
362.958
362.961
362.958
362.96
362.951
362.753
362.755
362.95
362.958
362.96
362.958
362.961
362.959
362.961
362.959
362.962
362.96
362.963
362.961
362.964
362.962
362.965
362.962
362.964
362.96
362.962
362.96
362.962
362.959
362.961
362.958
362.96
362.958
362.958
362.95
362.754
362.752
362.95
362.96
362.959
362.959
362.961
362.959
362.962
362.959
362.962
362.96
362.963
362.961
362.964
362.962
362.962
362.964
362.961
362.963
362.96
362.962
362.959
362.962
362.959
362.961
362.959
362.96
362.96
362.95
362.753
362.754
362.95
362.957
362.96
362.958
362.96
362.958
362.961
362.959
362.962
362.96
362.963
362.961
362.964
362.962
362.964
362.962
362.964
362.961
362.963
362.961
362.963
362.96
362.963
362.959
362.961
362.959
362.958
362.95
362.754
984.986
995.62
986.295
931.194
869.118
825.223
642.589
489.795
406.779
385.515
381.984
380.853
379.081
378.605
390.465
402.759
406.22
405.663
400.988
396.85
391.308
388.865
386.31
384.684
383.422
382.313
381.205
380.255
379.62
378.921
378.393
377.871
377.08
376.598
376.479
376.105
375.993
375.706
375.48
375.105
374.747
374.406
374.18
373.882
373.418
373.556
373.144
372.818
372.261
372.009
371.72
371.348
371.218
370.914
370.694
370.581
370.269
370.269
369.927
369.937
369.672
369.587
369.493
369.251
369.324
369.072
369.097
368.949
368.932
368.826
368.858
368.748
368.787
368.722
368.161
368.164
368.168
368.133
368.143
368.108
368.118
368.083
368.091
368.06
368.068
368.042
368.05
368.034
368.041
368.03
368.035
368.028
368.031
368.026
368.031
368.025
368.03
368.025
368.031
368.027
368.029
368.03
368.026
368.016
368.013
368.027
368.025
368.029
368.027
368.026
368.029
368.025
368.03
368.025
368.031
368.025
368.031
368.028
368.028
368.031
368.026
368.031
368.025
368.03
368.025
368.03
368.025
368.029
368.026
368.027
368.03
368.026
368.027
368.013
368.013
368.026
368.025
368.03
368.025
368.03
368.025
368.03
368.025
368.03
368.026
368.03
368.028
368.028
368.031
368.026
368.031
368.026
368.03
368.025
368.03
368.025
368.03
368.026
368.03
368.027
368.029
368.03
368.026
368.016
368.013
368.027
368.026
368.03
368.028
368.026
368.029
368.025
368.03
368.025
368.03
368.024
368.031
368.026
368.031
368.027
368.031
368.026
368.031
368.027
368.031
368.026
368.03
368.025
368.03
368.026
368.03
368.026
368.027
368.013
368.013
368.026
368.027
368.026
368.03
368.025
368.03
368.024
368.03
368.025
368.031
368.025
368.031
368.027
368.031
368.027
368.031
368.026
368.03
368.025
368.03
368.025
368.03
368.025
368.031
368.027
368.029
368.03
368.026
368.016
368.016
368.025
368.03
368.026
368.031
368.026
368.03
368.025
368.03
368.025
368.031
368.025
368.031
368.027
368.031
368.027
368.031
368.026
368.03
368.025
368.03
368.025
368.03
368.025
368.031
368.027
368.029
368.03
368.026
368.016
368.016
368.027
368.029
368.03
368.026
368.03
368.025
368.03
368.025
368.03
368.025
368.031
368.026
368.031
368.027
368.031
368.027
368.031
368.027
368.029
368.03
368.027
368.03
368.025
368.03
368.025
368.03
368.025
368.027
368.013
368.017
368.026
368.031
368.026
368.03
368.026
368.03
368.025
368.031
368.025
368.031
368.025
368.031
368.027
368.031
368.027
368.031
368.027
368.03
368.025
368.031
368.025
368.03
368.026
368.031
368.027
368.029
368.03
368.026
368.016
368.013
368.027
368.027
368.028
368.028
368.026
368.03
368.025
368.03
368.025
368.031
368.025
368.031
368.027
368.031
368.031
368.028
368.032
368.025
368.031
368.025
368.03
368.025
368.03
368.026
368.03
368.028
368.027
368.027
368.013
368.016
368.025
368.03
368.025
368.031
368.025
368.03
368.024
368.03
368.024
368.031
368.025
368.032
368.027
368.032
368.028
368.033
368.028
368.032
368.026
368.032
368.026
368.031
368.026
368.031
368.027
368.03
368.03
368.025
368.017
1004.15
1004.85
1003.97
996.029
973.043
945.696
939.013
895.683
640.876
456.627
392.035
386.909
383.841
380.907
403.317
419.86
425.818
429.505
427.972
419.929
411.947
403.747
399.532
395.841
393.592
391.735
390.254
388.995
387.851
387.085
386.277
385.503
384.564
383.502
383.101
382.622
382.239
381.826
381.36
380.838
380.173
379.653
378.8
378.462
382.175
382.771
381.662
380.709
380.089
379.25
378.753
378.241
377.706
377.525
376.979
376.918
376.407
376.412
375.937
375.98
375.556
375.602
375.271
375.172
375.111
374.864
374.925
374.653
374.752
374.498
374.589
374.433
374.447
374.217
373.737
373.901
373.862
373.878
373.83
373.837
373.798
373.802
373.768
373.772
373.743
373.747
373.727
373.733
373.721
373.725
373.718
373.72
373.715
373.716
373.715
373.714
373.714
373.714
373.713
373.714
373.715
373.714
373.705
373.483
373.485
373.703
373.714
373.714
373.714
373.713
373.713
373.714
373.714
373.715
373.714
373.715
373.715
373.717
373.714
373.716
373.716
373.715
373.714
373.714
373.714
373.713
373.714
373.713
373.713
373.713
373.714
373.714
373.703
373.485
373.484
373.702
373.713
373.714
373.714
373.712
373.713
373.714
373.714
373.714
373.715
373.715
373.715
373.717
373.716
373.716
373.715
373.715
373.714
373.714
373.714
373.714
373.714
373.714
373.713
373.714
373.714
373.714
373.705
373.483
373.485
373.703
373.715
373.714
373.713
373.713
373.713
373.714
373.713
373.714
373.714
373.714
373.715
373.715
373.715
373.716
373.715
373.715
373.715
373.715
373.715
373.714
373.714
373.714
373.713
373.714
373.713
373.714
373.703
373.484
373.485
373.703
373.713
373.713
373.713
373.713
373.713
373.714
373.713
373.714
373.714
373.715
373.716
373.716
373.716
373.717
373.716
373.715
373.714
373.714
373.714
373.714
373.714
373.714
373.713
373.714
373.714
373.714
373.705
373.483
373.484
373.704
373.714
373.715
373.714
373.713
373.713
373.714
373.714
373.714
373.714
373.715
373.716
373.716
373.716
373.716
373.716
373.715
373.714
373.714
373.714
373.714
373.714
373.714
373.713
373.714
373.715
373.714
373.705
373.483
373.483
373.705
373.715
373.714
373.714
373.713
373.713
373.714
373.713
373.714
373.714
373.714
373.715
373.715
373.716
373.716
373.716
373.716
373.716
373.715
373.715
373.715
373.714
373.713
373.712
373.714
373.713
373.713
373.702
373.485
373.483
373.705
373.714
373.715
373.714
373.713
373.713
373.714
373.714
373.714
373.714
373.715
373.716
373.716
373.716
373.716
373.716
373.716
373.714
373.714
373.714
373.714
373.714
373.714
373.713
373.714
373.715
373.714
373.705
373.483
373.485
373.703
373.715
373.714
373.712
373.713
373.713
373.714
373.714
373.714
373.715
373.715
373.716
373.716
373.716
373.717
373.717
373.716
373.715
373.715
373.714
373.714
373.714
373.713
373.714
373.713
373.715
373.715
373.704
373.485
373.482
373.704
373.714
373.714
373.714
373.713
373.713
373.714
373.714
373.714
373.715
373.716
373.717
373.718
373.719
373.718
373.718
373.719
373.718
373.716
373.716
373.716
373.715
373.715
373.714
373.714
373.715
373.714
373.704
373.483
1003.87
1003.69
1003.69
1007.76
1012.01
1009.37
1004.97
981.954
970.308
925.478
504.238
400.353
391.08
385.134
414.252
420.553
426.588
436.13
444.768
444.708
435.296
424.892
415.663
410.93
406.833
404.52
402.557
401.043
399.914
398.99
398.171
397.267
396.45
395.371
394.157
393.981
393.158
392.655
392.129
391.095
390.163
388.706
387.247
385.587
396.053
396.585
394.845
393.227
391.698
390.902
389.905
389.375
388.909
388.375
388.143
387.731
387.523
387.194
387.035
386.72
386.634
386.341
386.281
386.007
386.016
385.734
385.787
385.526
385.574
385.366
385.383
385.243
385.189
385.2
384.815
384.731
384.706
384.649
384.648
384.602
384.601
384.561
384.561
384.523
384.524
384.491
384.491
384.476
384.467
384.466
384.462
384.459
384.46
384.457
384.458
384.457
384.456
384.457
384.457
384.458
384.459
384.458
384.461
384.539
384.542
384.458
384.459
384.458
384.458
384.457
384.457
384.456
384.457
384.456
384.456
384.456
384.456
384.456
384.456
384.455
384.456
384.456
384.456
384.456
384.456
384.457
384.456
384.457
384.457
384.457
384.459
384.459
384.458
384.541
384.54
384.459
384.459
384.459
384.458
384.457
384.456
384.456
384.456
384.457
384.456
384.456
384.456
384.457
384.455
384.456
384.455
384.456
384.456
384.456
384.456
384.456
384.456
384.456
384.457
384.458
384.459
384.458
384.461
384.539
384.541
384.458
384.459
384.459
384.457
384.457
384.457
384.456
384.457
384.456
384.456
384.456
384.455
384.456
384.455
384.456
384.455
384.456
384.456
384.457
384.457
384.457
384.456
384.457
384.457
384.458
384.459
384.459
384.46
384.54
384.541
384.459
384.458
384.459
384.458
384.457
384.456
384.456
384.457
384.456
384.456
384.456
384.456
384.456
384.456
384.457
384.456
384.456
384.456
384.456
384.456
384.456
384.456
384.456
384.457
384.458
384.459
384.458
384.461
384.539
384.54
384.46
384.459
384.459
384.458
384.457
384.457
384.456
384.457
384.456
384.456
384.456
384.456
384.456
384.456
384.457
384.455
384.456
384.456
384.456
384.456
384.456
384.456
384.456
384.457
384.458
384.459
384.459
384.461
384.539
384.54
384.461
384.459
384.459
384.458
384.457
384.456
384.456
384.456
384.456
384.456
384.456
384.456
384.455
384.456
384.456
384.456
384.456
384.456
384.456
384.456
384.457
384.457
384.457
384.457
384.458
384.459
384.458
384.459
384.541
384.539
384.46
384.459
384.459
384.458
384.457
384.456
384.456
384.457
384.456
384.456
384.456
384.456
384.456
384.456
384.457
384.455
384.456
384.456
384.456
384.457
384.457
384.456
384.457
384.457
384.458
384.459
384.459
384.461
384.539
384.542
384.459
384.459
384.458
384.457
384.457
384.456
384.456
384.457
384.456
384.456
384.456
384.456
384.456
384.456
384.456
384.456
384.456
384.456
384.456
384.456
384.457
384.456
384.457
384.457
384.457
384.459
384.46
384.459
384.542
384.539
384.46
384.459
384.459
384.458
384.457
384.457
384.456
384.457
384.456
384.457
384.456
384.457
384.457
384.456
384.457
384.456
384.456
384.456
384.456
384.456
384.456
384.456
384.456
384.456
384.457
384.458
384.458
384.459
384.538
1003.65
1003.57
1011.26
1027.15
1038.24
1035.24
1029.75
1023
1013.46
999.597
694.66
455.862
399.704
387.692
408.408
409.232
414.035
427.51
445.711
457.299
455.487
444.753
434.878
426.848
422.801
418.928
416.497
414.675
412.991
411.807
410.802
409.719
408.602
407.526
405.673
405.04
404.073
403.18
402.176
401.062
399.719
397.942
395.439
393.29
409.901
411.808
409.72
406.875
404.839
402.904
401.918
400.699
400.151
399.302
398.999
398.345
398.153
397.588
397.473
397.019
396.873
396.533
396.437
396.085
396.087
395.77
395.728
395.548
395.458
395.309
395.221
395.106
394.95
394.929
394.938
394.672
394.606
394.567
394.508
394.502
394.457
394.45
394.414
394.405
394.374
394.373
394.349
394.339
394.34
394.326
394.331
394.325
394.324
394.325
394.321
394.322
394.32
394.32
394.318
394.316
394.313
394.305
394.3
394.364
394.366
394.299
394.306
394.312
394.317
394.319
394.32
394.321
394.321
394.321
394.321
394.322
394.321
394.321
394.32
394.321
394.321
394.321
394.321
394.321
394.321
394.321
394.32
394.32
394.318
394.316
394.313
394.306
394.299
394.366
394.364
394.299
394.306
394.312
394.317
394.318
394.32
394.32
394.321
394.321
394.322
394.321
394.321
394.322
394.32
394.321
394.32
394.321
394.321
394.321
394.32
394.32
394.32
394.32
394.318
394.317
394.312
394.305
394.3
394.364
394.366
394.299
394.306
394.313
394.315
394.318
394.32
394.32
394.32
394.321
394.321
394.321
394.32
394.321
394.32
394.321
394.32
394.321
394.321
394.322
394.322
394.321
394.321
394.32
394.318
394.317
394.312
394.306
394.299
394.364
394.365
394.299
394.305
394.313
394.316
394.319
394.32
394.32
394.32
394.321
394.321
394.322
394.321
394.321
394.321
394.321
394.321
394.321
394.321
394.321
394.32
394.32
394.32
394.32
394.318
394.317
394.313
394.306
394.3
394.364
394.365
394.3
394.305
394.313
394.316
394.319
394.319
394.32
394.32
394.321
394.321
394.322
394.321
394.321
394.321
394.321
394.321
394.321
394.321
394.321
394.32
394.32
394.32
394.32
394.318
394.317
394.313
394.306
394.3
394.364
394.363
394.3
394.306
394.312
394.317
394.317
394.32
394.319
394.32
394.32
394.321
394.32
394.321
394.32
394.321
394.32
394.321
394.321
394.322
394.322
394.322
394.321
394.32
394.32
394.318
394.317
394.312
394.305
394.298
394.364
394.364
394.3
394.305
394.313
394.316
394.318
394.319
394.32
394.32
394.321
394.321
394.322
394.321
394.321
394.321
394.321
394.321
394.321
394.321
394.322
394.321
394.321
394.32
394.32
394.318
394.317
394.313
394.306
394.3
394.364
394.366
394.299
394.306
394.312
394.315
394.318
394.32
394.32
394.32
394.321
394.321
394.321
394.321
394.321
394.321
394.321
394.321
394.321
394.322
394.321
394.321
394.32
394.321
394.32
394.319
394.316
394.314
394.307
394.299
394.366
394.364
394.298
394.304
394.312
394.315
394.318
394.32
394.321
394.321
394.322
394.321
394.323
394.322
394.323
394.323
394.323
394.322
394.322
394.322
394.323
394.322
394.322
394.321
394.32
394.318
394.314
394.309
394.297
394.283
394.342
1008.02
1020.39
1041.43
1058.9
1062.58
1054.36
1045.9
1041.66
1038.16
1031.5
1032.48
1018.33
693.182
452.673
418.358
422.34
428.034
411.052
411.088
424.316
445.202
463.046
468.062
461.685
451.629
445.178
439.409
436.648
433.201
431.422
429.603
428.457
427.559
426.618
425.768
424.602
423.255
421.813
421.014
419.519
418.692
417.191
415.303
412.533
409.359
404.289
407.88
413.319
420.807
426.572
426.395
423.668
420.953
419.664
418.043
417.476
416.425
415.985
415.393
415.016
414.584
414.27
413.988
413.619
413.525
413.081
413.106
412.66
412.69
412.377
412.327
412.08
412.1
411.811
411.763
411.623
411.422
411.458
411.832
411.849
411.696
411.276
411.173
411.068
411.054
410.971
410.981
410.912
410.917
410.863
410.854
410.824
410.814
410.785
410.785
410.77
410.761
410.763
410.756
410.757
410.754
410.755
410.753
410.753
410.75
410.748
410.745
410.744
410.762
411.12
411.429
411.429
411.121
410.761
410.746
410.744
410.748
410.751
410.752
410.753
410.753
410.753
410.752
410.753
410.753
410.754
410.753
410.753
410.754
410.753
410.753
410.752
410.753
410.752
410.753
410.752
410.751
410.748
410.744
410.746
410.761
411.121
411.429
411.429
411.12
410.761
410.745
410.745
410.748
410.75
410.753
410.752
410.753
410.752
410.754
410.753
410.754
410.754
410.753
410.753
410.753
410.753
410.752
410.753
410.751
410.753
410.752
410.752
410.75
410.748
410.745
410.744
410.762
411.12
411.429
411.429
411.121
410.761
410.746
410.744
410.747
410.751
410.752
410.753
410.752
410.752
410.752
410.753
410.753
410.753
410.752
410.753
410.753
410.754
410.753
410.753
410.753
410.754
410.753
410.753
410.75
410.748
410.745
410.745
410.761
411.12
411.429
411.429
411.12
410.761
410.745
410.745
410.747
410.75
410.752
410.753
410.752
410.752
410.752
410.753
410.752
410.753
410.752
410.753
410.753
410.753
410.752
410.753
410.751
410.753
410.752
410.752
410.75
410.748
410.745
410.744
410.762
411.12
411.429
411.429
411.12
410.762
410.744
410.745
410.747
410.75
410.752
410.753
410.752
410.752
410.752
410.753
410.752
410.754
410.752
410.753
410.753
410.753
410.752
410.753
410.751
410.753
410.752
410.752
410.75
410.748
410.745
410.744
410.762
411.12
411.429
411.429
411.12
410.762
410.745
410.745
410.747
410.749
410.752
410.752
410.753
410.751
410.753
410.752
410.753
410.753
410.753
410.753
410.754
410.753
410.754
410.753
410.753
410.753
410.753
410.753
410.75
410.748
410.745
410.746
410.761
411.121
411.429
411.429
411.119
410.762
410.745
410.745
410.746
410.75
410.752
410.753
410.752
410.752
410.752
410.753
410.752
410.753
410.752
410.753
410.753
410.753
410.752
410.753
410.752
410.753
410.752
410.753
410.75
410.748
410.745
410.745
410.762
411.12
411.429
411.429
411.121
410.761
410.745
410.744
410.747
410.75
410.752
410.753
410.752
410.752
410.752
410.753
410.752
410.753
410.752
410.752
410.753
410.753
410.753
410.752
410.752
410.752
410.753
410.752
410.751
410.748
410.746
410.746
410.762
411.122
411.429
411.429
411.119
410.762
410.744
410.745
410.746
410.75
410.752
410.753
410.751
410.752
410.751
410.752
410.752
410.752
410.752
410.753
410.753
410.754
410.754
410.754
410.753
410.753
410.753
410.752
410.75
410.75
410.748
410.748
410.764
411.12
411.413
411.136
1045.62
1059.18
1078.24
1086.85
1085.08
1071.75
1059.44
1051.14
1049.12
1043.95
1045.27
1046.97
1045.88
995.323
973.373
1011.2
860.454
554.467
438.942
433.839
452.469
470.616
477.05
474.787
466.93
461.628
457.07
453.273
450.579
447.377
445.557
444.228
442.997
442.064
441.072
439.793
438.621
436.544
435.443
434.114
432.762
431.78
429.953
428.48
426.62
421.757
424.277
427.725
434.42
439.991
439.787
437.965
435.39
434.365
432.793
431.931
430.84
430.394
429.477
429.267
428.474
428.406
427.686
427.631
427.132
426.899
426.664
426.337
426.293
425.923
425.955
425.59
425.636
425.32
425.252
425.056
424.936
424.754
424.995
425.055
424.77
424.735
424.583
424.553
424.493
424.436
424.435
424.368
424.375
424.324
424.324
424.277
424.293
424.246
424.259
424.235
424.241
424.228
424.233
424.227
424.228
424.225
424.225
424.224
424.22
424.218
424.216
424.216
424.221
424.219
424.593
424.593
424.22
424.222
424.218
424.216
424.218
424.221
424.223
424.224
424.224
424.224
424.224
424.225
424.225
424.226
424.225
424.225
424.226
424.225
424.225
424.224
424.224
424.224
424.225
424.223
424.221
424.218
424.215
424.217
424.221
424.22
424.593
424.593
424.22
424.221
424.218
424.216
424.218
424.22
424.224
424.224
424.225
424.224
424.225
424.225
424.226
424.226
424.225
424.225
424.225
424.225
424.225
424.224
424.224
424.225
424.224
424.223
424.22
424.217
424.216
424.216
424.221
424.219
424.593
424.593
424.22
424.221
424.217
424.216
424.218
424.221
424.223
424.224
424.224
424.224
424.224
424.225
424.225
424.225
424.225
424.225
424.225
424.225
424.225
424.224
424.224
424.225
424.224
424.224
424.22
424.218
424.216
424.217
424.221
424.22
424.593
424.593
424.22
424.221
424.217
424.216
424.217
424.221
424.223
424.224
424.224
424.224
424.224
424.225
424.225
424.226
424.225
424.225
424.225
424.225
424.225
424.224
424.224
424.225
424.224
424.223
424.22
424.218
424.216
424.216
424.222
424.22
424.593
424.593
424.22
424.221
424.217
424.216
424.217
424.221
424.223
424.224
424.224
424.224
424.224
424.225
424.225
424.226
424.225
424.225
424.225
424.225
424.225
424.224
424.224
424.224
424.224
424.223
424.22
424.217
424.216
424.216
424.222
424.22
424.593
424.593
424.219
424.222
424.217
424.216
424.217
424.22
424.223
424.224
424.224
424.224
424.224
424.225
424.225
424.225
424.225
424.225
424.226
424.225
424.225
424.225
424.224
424.225
424.224
424.223
424.22
424.218
424.216
424.218
424.221