/*--------------------------------*- C++ -*----------------------------------*\
| =========                 |                                                 |
| \\      /  F ield         | OpenFOAM: The Open Source CFD Toolbox           |
|  \\    /   O peration     | Version:  2.1.1                                 |
|   \\  /    A nd           | Web:      www.OpenFOAM.org                      |
|    \\/     M anipulation  |                                                 |
\*---------------------------------------------------------------------------*/
FoamFile
{
    version     2.0;
    format      ascii;
    class       volScalarField;
    location    "0.000950000";
    object      H2O2;
}
// * * * * * * * * * * * * * * * * * * * * * * * * * * * * * * * * * * * * * //

dimensions      [0 0 0 0 0 0 0];

internalField   nonuniform List<scalar> 
12384
(
5.64116e-09
2.29027e-09
3.69961e-10
1.79812e-11
8.90893e-13
4.34667e-14
1.42845e-15
4.92748e-17
5.27119e-19
4.63676e-21
4.85029e-23
5.44582e-25
7.58234e-27
1.30213e-28
2.84787e-35
3.96622e-36
8.23562e-39
1.15248e-41
1.48351e-44
2.37577e-47
7.08806e-50
2.95582e-52
1.31663e-54
6.17229e-57
2.87699e-59
1.34752e-61
6.34652e-64
2.89767e-66
1.36802e-68
6.29218e-71
2.81783e-73
1.25486e-75
5.36822e-78
2.19985e-80
8.59806e-83
3.41083e-85
1.33821e-87
5.25242e-90
2.16071e-92
8.54295e-95
3.40984e-97
1.25132e-99
4.52573e-102
1.52103e-104
7.27029e-112
2.74217e-113
1.09223e-115
3.93599e-118
1.38285e-120
4.79874e-123
1.67325e-125
5.80505e-128
2.02183e-130
6.95685e-133
2.42193e-135
8.31802e-138
2.91655e-140
1.02754e-142
3.76653e-145
1.43785e-147
5.85719e-150
2.58996e-152
1.20997e-154
6.10223e-157
3.12555e-159
1.6628e-161
8.76747e-164
4.70153e-166
2.49254e-168
1.33465e-170
5.60585e-173
1.78364e-177
1.10871e-181
1.63131e-184
1.04664e-193
1.01848e-193
6.94374e-196
2.4075e-198
6.83395e-201
1.65421e-203
3.56891e-206
7.10774e-209
1.31945e-211
2.2738e-214
3.59354e-217
5.2985e-220
7.52167e-223
1.05678e-225
1.30753e-228
1.20025e-231
9.3745e-235
6.43208e-238
3.81391e-241
2.02686e-244
1.022e-247
5.06308e-251
2.4622e-254
1.19142e-257
5.64556e-261
2.69626e-264
1.20496e-267
5.30788e-271
2.331e-274
2.47951e-278
2.27154e-300
3.47454e-298
1.00928e-300
1.65122e-303
1.94699e-306
1.80826e-309
1.51023e-312
1.11645e-315
7.55258e-319
4.74303e-322
0
0
0
0
0
0
0
0
0
0
0
0
0
0
0
0
0
0
0
0
0
0
0
0
0
0
0
0
0
0
0
0
0
0
0
0
0
0
0
0
0
0
0
0
0
0
0
0
0
0
0
0
0
0
0
0
0
0
0
0
0
0
0
0
0
0
0
0
0
0
0
0
0
0
0
0
0
0
0
0
0
0
0
0
0
0
0
0
0
0
0
0
0
0
0
0
0
0
0
0
0
0
0
0
0
0
0
0
0
0
0
0
0
0
0
0
0
0
0
0
0
0
0
0
0
0
0
0
0
0
0
0
0
0
0
0
0
0
0
0
0
0
0
0
0
0
0
0
0
0
0
0
0
0
0
0
0
0
0
0
0
0
0
0
0
0
0
0
0
0
0
0
0
0
0
0
0
0
0
0
0
0
0
0
0
0
0
0
0
0
0
0
0
0
0
0
0
0
0
0
0
0
0
0
0
0
0
0
0
0
0
0
0
0
0
0
0
0
0
0
0
0
0
0
0
0
0
0
0
0
0
0
0
0
0
0
0
0
0
0
0
0
0
0
0
0
0
0
0
0
0
0
0
0
0
0
0
0
0
0
9.8732e-09
1.06908e-08
3.08782e-09
1.98571e-10
2.27311e-11
1.12461e-12
4.30705e-14
3.03891e-15
5.12956e-17
4.48738e-19
2.42837e-21
1.28144e-23
8.08803e-26
6.59245e-28
9.13699e-33
9.71478e-34
2.2093e-36
3.51333e-39
4.47646e-42
5.20341e-45
8.13639e-48
1.94809e-50
7.24769e-53
3.30901e-55
1.59326e-57
8.45941e-60
4.39626e-62
2.34608e-64
1.23405e-66
6.32701e-69
3.27285e-71
1.59287e-73
7.43573e-76
3.0254e-78
1.18534e-80
4.63108e-83
1.84648e-85
7.58738e-88
3.12981e-90
1.28424e-92
5.01221e-95
1.8352e-97
6.10452e-100
1.92665e-102
3.71914e-109
1.33519e-110
4.11587e-113
1.35149e-115
4.64915e-118
1.62942e-120
5.69554e-123
1.98892e-125
6.73407e-128
2.2705e-130
7.62369e-133
2.53457e-135
8.58752e-138
2.86096e-140
9.94109e-143
3.34474e-145
1.2335e-147
4.40548e-150
1.72669e-152
6.97121e-155
2.99219e-157
1.3578e-159
6.35869e-162
3.15101e-164
1.58772e-166
8.33068e-169
4.44922e-171
7.45371e-174
5.50891e-178
1.04525e-180
7.86567e-190
1.95964e-190
1.3727e-192
5.10794e-195
1.56019e-197
4.09587e-200
9.69365e-203
2.12971e-205
4.39129e-208
8.38027e-211
1.45382e-213
2.28437e-216
3.29264e-219
4.28623e-222
4.95228e-225
4.77526e-228
3.87671e-231
2.71218e-234
1.70139e-237
9.62426e-241
5.10886e-244
2.60504e-247
1.30905e-250
6.45037e-254
3.13864e-257
1.50055e-260
6.92171e-264
3.09193e-267
1.36522e-270
2.31974e-274
4.43906e-296
2.46224e-294
7.01399e-297
1.11274e-299
1.28878e-302
1.1993e-305
9.98561e-309
7.37827e-312
5.03133e-315
3.1516e-318
1.87745e-321
0
0
0
0
0
0
0
0
0
0
0
0
0
0
0
0
0
0
0
0
0
0
0
0
0
0
0
0
0
0
0
0
0
0
0
0
0
0
0
0
0
0
0
0
0
0
0
0
0
0
0
0
0
0
0
0
0
0
0
0
0
0
0
0
0
0
0
0
0
0
0
0
0
0
0
0
0
0
0
0
0
0
0
0
0
0
0
0
0
0
0
0
0
0
0
0
0
0
0
0
0
0
0
0
0
0
0
0
0
0
0
0
0
0
0
0
0
0
0
0
0
0
0
0
0
0
0
0
0
0
0
0
0
0
0
0
0
0
0
0
0
0
0
0
0
0
0
0
0
0
0
0
0
0
0
0
0
0
0
0
0
0
0
0
0
0
0
0
0
0
0
0
0
0
0
0
0
0
0
0
0
0
0
0
0
0
0
0
0
0
0
0
0
0
0
0
0
0
0
0
0
0
0
0
0
0
0
0
0
0
0
0
0
0
0
0
0
0
0
0
0
0
0
0
0
0
0
0
0
0
0
0
0
0
0
0
0
0
0
0
0
0
0
0
0
0
0
0
0
0
0
0
0
0
0
0
0
0
0
1.05063e-09
1.59463e-09
2.99454e-10
8.73492e-11
2.52346e-11
7.91925e-12
1.91031e-13
1.09793e-14
1.62025e-16
7.8226e-19
3.62248e-21
1.91843e-23
8.0473e-26
4.79977e-28
3.74988e-31
1.39542e-31
3.14931e-34
3.23037e-37
3.09574e-40
2.41658e-43
1.70409e-46
7.96129e-50
9.21348e-53
2.36714e-55
6.90506e-58
2.51549e-60
1.03732e-62
4.20468e-65
1.81037e-67
8.74764e-70
5.79838e-72
3.3994e-74
2.7996e-76
1.14406e-78
4.80301e-81
2.37319e-83
1.16183e-85
6.42557e-88
3.29842e-90
1.52993e-92
9.31284e-95
2.84097e-97
8.96741e-100
2.39221e-102
2.8551e-109
1.26326e-110
2.98699e-113
1.00448e-115
3.65688e-118
1.2847e-120
4.6175e-123
1.59061e-125
5.40873e-128
1.83166e-130
6.10059e-133
2.03751e-135
6.80915e-138
2.28287e-140
7.76706e-143
2.64418e-145
9.03463e-148
3.22708e-150
1.14698e-152
4.47346e-155
1.69392e-157
7.00294e-160
2.87492e-162
1.23623e-164
5.46206e-167
2.45886e-169
1.16175e-171
5.65529e-174
2.64504e-176
2.36171e-179
1.51777e-188
6.57033e-190
3.8995e-192
1.50493e-194
4.67934e-197
1.24723e-199
3.06309e-202
6.95835e-205
1.49888e-207
2.99526e-210
5.49363e-213
9.06773e-216
1.34276e-218
1.67934e-221
1.7036e-224
1.451e-227
1.07974e-230
6.96201e-234
4.07738e-237
2.29585e-240
1.28103e-243
6.99091e-247
3.75857e-250
1.96438e-253
1.00151e-256
4.91944e-260
2.31515e-263
1.06258e-266
4.74606e-270
5.26339e-274
1.68278e-294
2.7968e-293
7.28807e-296
1.05506e-298
1.12209e-301
9.76808e-305
7.62541e-308
5.33657e-311
3.4587e-314
2.07265e-317
1.17736e-320
4.94066e-324
0
0
0
0
0
0
0
0
0
0
0
0
0
0
0
0
0
0
0
0
0
0
0
0
0
0
0
0
0
0
0
0
0
0
0
0
0
0
0
0
0
0
0
0
0
0
0
0
0
0
0
0
0
0
0
0
0
0
0
0
0
0
0
0
0
0
0
0
0
0
0
0
0
0
0
0
0
0
0
0
0
0
0
0
0
0
0
0
0
0
0
0
0
0
0
0
0
0
0
0
0
0
0
0
0
0
0
0
0
0
0
0
0
0
0
0
0
0
0
0
0
0
0
0
0
0
0
0
0
0
0
0
0
0
0
0
0
0
0
0
0
0
0
0
0
0
0
0
0
0
0
0
0
0
0
0
0
0
0
0
0
0
0
0
0
0
0
0
0
0
0
0
0
0
0
0
0
0
0
0
0
0
0
0
0
0
0
0
0
0
0
0
0
0
0
0
0
0
0
0
0
0
0
0
0
0
0
0
0
0
0
0
0
0
0
0
0
0
0
0
0
0
0
0
0
0
0
0
0
0
0
0
0
0
0
0
0
0
0
0
0
0
0
0
0
0
0
0
0
0
0
0
0
0
0
0
0
0
5.71451e-08
9.75283e-08
3.72619e-08
6.75726e-09
9.87402e-10
7.44521e-10
2.54516e-10
1.99077e-11
1.98264e-13
5.09245e-16
1.05493e-18
9.12263e-22
3.43618e-24
2.43844e-26
4.49922e-26
4.94433e-26
1.32164e-28
1.58482e-31
1.4406e-34
7.36531e-38
4.28745e-41
2.35352e-44
2.2377e-47
4.39773e-50
1.26819e-52
3.92908e-55
1.19882e-57
4.25399e-60
1.50696e-62
5.48737e-65
1.92476e-67
6.83466e-70
2.23058e-72
7.53717e-75
2.53665e-77
9.14295e-80
3.62173e-82
1.46587e-84
5.28658e-87
2.09571e-89
7.28184e-92
2.18796e-94
5.32259e-97
1.27542e-99
5.64274e-105
1.77985e-106
4.20565e-109
1.35201e-111
4.4843e-114
1.54174e-116
4.8775e-119
1.64681e-121
5.13988e-124
1.6988e-126
5.31603e-129
1.7333e-131
5.51337e-134
1.78718e-136
5.85422e-139
1.89751e-141
6.51237e-144
2.15198e-146
7.82051e-149
2.72771e-151
1.05808e-153
4.00492e-156
1.55795e-158
6.82371e-161
2.8024e-163
1.23013e-165
5.62837e-168
2.56392e-170
1.24919e-172
5.8671e-175
4.30972e-184
1.26369e-186
4.00448e-189
1.34419e-191
3.70628e-194
9.11163e-197
2.03863e-199
4.35009e-202
8.76988e-205
1.69763e-207
3.08217e-210
5.25556e-213
8.08967e-216
1.06499e-218
1.11648e-221
9.68489e-225
7.46023e-228
5.31233e-231
3.5339e-234
2.23542e-237
1.34485e-240
7.79314e-244
4.33746e-247
2.34298e-250
1.22397e-253
6.23654e-257
3.09231e-260
1.49719e-263
6.92044e-267
1.38445e-270
5.61334e-290
1.12364e-289
2.61506e-292
3.4165e-295
3.36028e-298
2.75912e-301
1.995e-304
1.31499e-307
8.00738e-311
4.59269e-314
2.48637e-317
1.28754e-320
4.94066e-324
0
0
0
0
0
0
0
0
0
0
0
0
0
0
0
0
0
0
0
0
0
0
0
0
0
0
0
0
0
0
0
0
0
0
0
0
0
0
0
0
0
0
0
0
0
0
0
0
0
0
0
0
0
0
0
0
0
0
0
0
0
0
0
0
0
0
0
0
0
0
0
0
0
0
0
0
0
0
0
0
0
0
0
0
0
0
0
0
0
0
0
0
0
0
0
0
0
0
0
0
0
0
0
0
0
0
0
0
0
0
0
0
0
0
0
0
0
0
0
0
0
0
0
0
0
0
0
0
0
0
0
0
0
0
0
0
0
0
0
0
0
0
0
0
0
0
0
0
0
0
0
0
0
0
0
0
0
0
0
0
0
0
0
0
0
0
0
0
0
0
0
0
0
0
0
0
0
0
0
0
0
0
0
0
0
0
0
0
0
0
0
0
0
0
0
0
0
0
0
0
0
0
0
0
0
0
0
0
0
0
0
0
0
0
0
0
0
0
0
0
0
0
0
0
0
0
0
0
0
0
0
0
0
0
0
0
0
0
0
0
0
0
0
0
0
0
0
0
0
0
0
0
0
0
0
0
0
3.84092e-07
3.4586e-07
3.73985e-07
2.28212e-07
7.76686e-08
3.43112e-08
1.44936e-08
4.63562e-09
6.59812e-10
4.97688e-12
8.18964e-15
9.23228e-18
8.57489e-21
3.00112e-23
2.09362e-21
2.01172e-21
5.71975e-24
1.00072e-26
1.02989e-29
7.39712e-33
3.48728e-36
1.80849e-39
1.04209e-42
1.05416e-45
2.3222e-48
6.85823e-51
2.36804e-53
7.93378e-56
2.92531e-58
1.0608e-60
3.74487e-63
1.37903e-65
4.56439e-68
1.46945e-70
5.01801e-73
1.75726e-75
6.80872e-78
2.60229e-80
9.97647e-83
3.50564e-85
1.13185e-87
3.08697e-90
7.29282e-93
1.67016e-95
1.49447e-100
4.65289e-102
1.18615e-104
3.65784e-107
1.23089e-109
4.14329e-112
1.41348e-114
4.53527e-117
1.54766e-119
4.67481e-122
1.57657e-124
4.95991e-127
1.66023e-129
5.22606e-132
1.76175e-134
5.5704e-137
1.9257e-139
6.17528e-142
2.22266e-144
7.44836e-147
2.82124e-149
1.02167e-151
4.09032e-154
1.62043e-156
6.85302e-159
2.89477e-161
1.2848e-163
5.61305e-166
2.57942e-168
1.19368e-170
6.16202e-179
6.22e-182
2.28848e-185
4.40318e-188
1.03427e-190
2.24879e-193
4.67531e-196
9.2492e-199
1.78972e-201
3.32486e-204
5.96965e-207
1.01648e-209
1.63319e-212
2.35817e-215
2.86741e-218
2.76071e-221
2.22968e-224
1.61095e-227
1.08163e-230
6.80432e-234
4.08506e-237
2.33682e-240
1.29139e-243
6.86518e-247
3.55015e-250
1.77872e-253
8.70117e-257
4.15511e-260
1.89756e-263
4.25228e-267
6.5719e-285
1.87882e-285
3.59661e-288
4.07876e-291
3.55282e-294
2.63455e-297
1.74822e-300
1.06297e-303
6.06383e-307
3.25848e-310
1.67505e-313
8.21459e-317
3.89027e-320
1.97626e-323
0
0
0
0
0
0
0
0
0
0
0
0
0
0
0
0
0
0
0
0
0
0
0
0
0
0
0
0
0
0
0
0
0
0
0
0
0
0
0
0
0
0
0
0
0
0
0
0
0
0
0
0
0
0
0
0
0
0
0
0
0
0
0
0
0
0
0
0
0
0
0
0
0
0
0
0
0
0
0
0
0
0
0
0
0
0
0
0
0
0
0
0
0
0
0
0
0
0
0
0
0
0
0
0
0
0
0
0
0
0
0
0
0
0
0
0
0
0
0
0
0
0
0
0
0
0
0
0
0
0
0
0
0
0
0
0
0
0
0
0
0
0
0
0
0
0
0
0
0
0
0
0
0
0
0
0
0
0
0
0
0
0
0
0
0
0
0
0
0
0
0
0
0
0
0
0
0
0
0
0
0
0
0
0
0
0
0
0
0
0
0
0
0
0
0
0
0
0
0
0
0
0
0
0
0
0
0
0
0
0
0
0
0
0
0
0
0
0
0
0
0
0
0
0
0
0
0
0
0
0
0
0
0
0
0
0
0
0
0
0
0
0
0
0
0
0
0
0
0
0
0
0
0
0
0
0
3.00417e-07
2.9679e-07
3.1691e-07
3.64023e-07
3.35084e-07
2.09055e-07
1.96681e-07
1.19087e-07
3.39826e-08
5.60755e-09
4.72405e-11
7.79921e-14
6.75766e-17
1.92257e-19
1.74813e-17
2.48823e-18
2.39178e-21
2.63315e-24
5.21577e-27
1.9785e-29
4.20279e-32
3.16274e-35
2.00052e-38
1.39716e-41
1.80291e-44
4.60547e-47
1.53851e-49
5.70811e-52
2.0842e-54
7.8991e-57
2.88141e-59
1.03985e-61
3.59893e-64
1.19253e-66
3.99821e-69
1.39586e-71
5.2396e-74
2.02559e-76
7.81953e-79
2.79717e-81
9.02232e-84
2.77005e-86
6.69018e-89
1.46261e-91
1.53998e-96
5.01264e-98
1.29153e-100
4.04035e-103
1.2514e-105
4.34619e-108
1.43879e-110
5.02019e-113
1.61928e-115
5.52769e-118
1.69221e-120
5.65682e-123
1.79915e-125
5.94942e-128
1.90152e-130
6.28109e-133
2.04533e-135
6.77956e-138
2.29622e-140
7.71718e-143
2.79237e-145
9.74486e-148
3.80864e-150
1.41945e-152
5.95548e-155
2.37847e-157
1.04199e-159
4.381e-162
1.94181e-164
8.16846e-167
6.4484e-174
2.58879e-177
4.30382e-181
1.49312e-184
2.0359e-187
3.78032e-190
7.05208e-193
1.30159e-195
2.33983e-198
4.13693e-201
7.0952e-204
1.18674e-206
1.89381e-209
2.83067e-212
3.77533e-215
4.15834e-218
3.66241e-221
2.75507e-224
1.87562e-227
1.18802e-230
7.09955e-234
4.04375e-237
2.2086e-240
1.16331e-243
5.92727e-247
2.93347e-250
1.41319e-253
6.64037e-257
2.9879e-260
6.4793e-264
4.457e-280
2.09931e-281
3.19829e-284
3.05564e-287
2.32472e-290
1.53823e-293
9.24499e-297
5.17498e-300
2.73608e-303
1.38009e-306
6.67598e-310
3.11125e-313
1.40074e-316
6.11011e-320
2.47033e-323
0
0
0
0
0
0
0
0
0
0
0
0
0
0
0
0
0
0
0
0
0
0
0
0
0
0
0
0
0
0
0
0
0
0
0
0
0
0
0
0
0
0
0
0
0
0
0
0
0
0
0
0
0
0
0
0
0
0
0
0
0
0
0
0
0
0
0
0
0
0
0
0
0
0
0
0
0
0
0
0
0
0
0
0
0
0
0
0
0
0
0
0
0
0
0
0
0
0
0
0
0
0
0
0
0
0
0
0
0
0
0
0
0
0
0
0
0
0
0
0
0
0
0
0
0
0
0
0
0
0
0
0
0
0
0
0
0
0
0
0
0
0
0
0
0
0
0
0
0
0
0
0
0
0
0
0
0
0
0
0
0
0
0
0
0
0
0
0
0
0
0
0
0
0
0
0
0
0
0
0
0
0
0
0
0
0
0
0
0
0
0
0
0
0
0
0
0
0
0
0
0
0
0
0
0
0
0
0
0
0
0
0
0
0
0
0
0
0
0
0
0
0
0
0
0
0
0
0
0
0
0
0
0
0
0
0
0
0
0
0
0
0
0
0
0
0
0
0
0
0
0
0
0
0
0
3.10906e-07
3.22863e-07
3.22054e-07
3.06857e-07
2.97002e-07
3.14288e-07
2.80136e-07
2.75904e-07
2.66295e-07
1.96877e-07
1.71587e-08
2.82336e-10
3.27748e-13
1.10437e-15
2.00479e-14
2.19229e-15
2.04472e-18
1.03504e-21
6.83183e-25
9.91264e-28
3.05942e-30
1.47168e-32
4.18142e-35
5.43706e-38
5.8453e-41
1.00799e-43
3.10038e-46
1.24173e-48
5.25239e-51
2.23357e-53
9.38253e-56
3.69923e-58
1.40237e-60
5.02113e-63
1.73808e-65
6.55219e-68
2.53612e-70
1.04492e-72
4.23666e-75
1.54793e-77
5.45633e-80
1.60981e-82
3.91922e-85
8.28957e-88
5.67318e-93
1.64761e-94
5.12869e-97
1.66386e-99
5.79254e-102
2.04377e-104
7.44738e-107
2.65096e-109
9.64909e-112
3.29409e-114
1.1671e-116
3.76072e-119
1.2955e-121
4.18738e-124
1.42178e-126
4.59411e-129
1.54996e-131
5.07258e-134
1.71946e-136
5.77077e-139
2.01303e-141
7.02895e-144
2.59633e-146
9.59642e-149
3.81221e-151
1.498e-153
6.28997e-156
2.59166e-158
1.11605e-160
4.84721e-163
4.34716e-170
2.88678e-172
3.45483e-176
3.97624e-180
1.25776e-183
8.12244e-187
1.20408e-189
1.98014e-192
3.29796e-195
5.42578e-198
8.85778e-201
1.41672e-203
2.20878e-206
3.28757e-209
4.57416e-212
5.6585e-215
5.74576e-218
4.70184e-221
3.31816e-224
2.13159e-227
1.27873e-230
7.25879e-234
3.93744e-237
2.0526e-240
1.03351e-243
5.04282e-247
2.39178e-250
1.10509e-253
4.89765e-257
1.13284e-260
4.21616e-275
2.97303e-277
3.35998e-280
2.61784e-283
1.7001e-286
9.88947e-290
5.3372e-293
2.72465e-296
1.3309e-299
6.2597e-303
2.84719e-306
1.25496e-309
5.37153e-313
2.23557e-316
9.05573e-320
3.45846e-323
0
0
0
0
0
0
0
0
0
0
0
0
0
0
0
0
0
0
0
0
0
0
0
0
0
0
0
0
0
0
0
0
0
0
0
0
0
0
0
0
0
0
0
0
0
0
0
0
0
0
0
0
0
0
0
0
0
0
0
0
0
0
0
0
0
0
0
0
0
0
0
0
0
0
0
0
0
0
0
0
0
0
0
0
0
0
0
0
0
0
0
0
0
0
0
0
0
0
0
0
0
0
0
0
0
0
0
0
0
0
0
0
0
0
0
0
0
0
0
0
0
0
0
0
0
0
0
0
0
0
0
0
0
0
0
0
0
0
0
0
0
0
0
0
0
0
0
0
0
0
0
0
0
0
0
0
0
0
0
0
0
0
0
0
0
0
0
0
0
0
0
0
0
0
0
0
0
0
0
0
0
0
0
0
0
0
0
0
0
0
0
0
0
0
0
0
0
0
0
0
0
0
0
0
0
0
0
0
0
0
0
0
0
0
0
0
0
0
0
0
0
0
0
0
0
0
0
0
0
0
0
0
0
0
0
0
0
0
0
0
0
0
0
0
0
0
0
0
0
0
0
0
0
0
3.3801e-07
3.32186e-07
2.82467e-07
1.85469e-07
1.30645e-07
1.69016e-07
2.07359e-07
2.24151e-07
2.46202e-07
2.65746e-07
8.62305e-08
8.9897e-09
2.62907e-10
2.22714e-12
1.18909e-11
2.77357e-12
8.35367e-15
2.43184e-18
4.7843e-22
2.14777e-25
3.05397e-28
1.05038e-30
3.3095e-33
8.98792e-36
1.59136e-38
3.08763e-41
7.71313e-44
3.18692e-46
1.64889e-48
8.56562e-51
4.30002e-53
2.06642e-55
8.9303e-58
3.63124e-60
1.31644e-62
5.23914e-65
2.22952e-67
9.86813e-70
4.29538e-72
1.7864e-74
6.81338e-77
2.26987e-79
6.24129e-82
1.48363e-84
1.75027e-90
3.52645e-92
1.6516e-94
8.74064e-97
4.12329e-99
1.73778e-101
6.97933e-104
2.70176e-106
1.02737e-108
3.76236e-111
1.36842e-113
4.8008e-116
1.66938e-118
5.66228e-121
1.91823e-123
6.4219e-126
2.15188e-128
7.18851e-131
2.38658e-133
8.04165e-136
2.74321e-138
9.49065e-141
3.36845e-143
1.2246e-145
4.60704e-148
1.77692e-150
7.06341e-153
2.85599e-155
1.18964e-157
5.04253e-160
5.17934e-167
2.89328e-169
1.38067e-171
1.18608e-175
3.85805e-179
3.71097e-183
9.85172e-187
1.14122e-189
1.70101e-192
2.5996e-195
3.96169e-198
5.98194e-201
8.83475e-204
1.2621e-206
1.71873e-209
2.17761e-212
2.43701e-215
2.25092e-218
1.70798e-221
1.13189e-224
6.87021e-228
3.90757e-231
2.1096e-234
1.08994e-237
5.41274e-241
2.59145e-244
1.1997e-247
5.39262e-251
2.32375e-254
5.59843e-258
1.46507e-270
1.59575e-273
1.21332e-276
7.36319e-280
3.98039e-283
2.00525e-286
9.63278e-290
4.46185e-293
2.00359e-296
8.75381e-300
3.72897e-303
1.5509e-306
6.29688e-310
2.49812e-313
9.66017e-317
3.65707e-320
1.4822e-323
0
0
0
0
0
0
0
0
0
0
0
0
0
0
0
0
0
0
0
0
0
0
0
0
0
0
0
0
0
0
0
0
0
0
0
0
0
0
0
0
0
0
0
0
0
0
0
0
0
0
0
0
0
0
0
0
0
0
0
0
0
0
0
0
0
0
0
0
0
0
0
0
0
0
0
0
0
0
0
0
0
0
0
0
0
0
0
0
0
0
0
0
0
0
0
0
0
0
0
0
0
0
0
0
0
0
0
0
0
0
0
0
0
0
0
0
0
0
0
0
0
0
0
0
0
0
0
0
0
0
0
0
0
0
0
0
0
0
0
0
0
0
0
0
0
0
0
0
0
0
0
0
0
0
0
0
0
0
0
0
0
0
0
0
0
0
0
0
0
0
0
0
0
0
0
0
0
0
0
0
0
0
0
0
0
0
0
0
0
0
0
0
0
0
0
0
0
0
0
0
0
0
0
0
0
0
0
0
0
0
0
0
0
0
0
0
0
0
0
0
0
0
0
0
0
0
0
0
0
0
0
0
0
0
0
0
0
0
0
0
0
0
0
0
0
0
0
0
0
0
0
0
0
3.0556e-07
2.29639e-07
8.5793e-08
2.43532e-08
2.2937e-08
4.78665e-08
8.88503e-08
1.04584e-07
9.7134e-08
1.05242e-07
1.05034e-07
1.99046e-07
8.64685e-08
6.45868e-09
2.47496e-09
3.39382e-09
4.20214e-09
1.56816e-09
2.03974e-11
2.9718e-15
3.57622e-19
9.46934e-23
6.91593e-26
1.33211e-28
3.46767e-31
7.55917e-34
1.27679e-36
1.88483e-39
2.58103e-42
5.19354e-45
1.49016e-47
6.27271e-50
3.17414e-52
1.85138e-54
1.06662e-56
6.09338e-59
3.46924e-61
1.94492e-63
1.10056e-65
6.01018e-68
3.48184e-70
2.03346e-72
1.14733e-74
5.96833e-77
2.98547e-79
1.13239e-81
3.87665e-84
1.84719e-86
9.57802e-89
4.44774e-91
2.82347e-93
2.1578e-95
1.22719e-97
6.99665e-100
3.30779e-102
1.51814e-104
6.23129e-107
2.58918e-109
9.90525e-112
3.83071e-114
1.39045e-116
5.05107e-119
1.76566e-121
6.14529e-124
2.12206e-126
7.19071e-129
2.48571e-131
8.33742e-134
2.90688e-136
9.87595e-139
3.48828e-141
1.23602e-143
4.49891e-146
1.68482e-148
6.38915e-151
2.52003e-153
1.0262e-155
4.28313e-158
1.83895e-160
8.67423e-163
5.22591e-165
2.718e-167
1.30118e-169
5.83097e-172
3.10813e-175
1.65943e-179
9.48101e-184
1.37803e-187
1.27244e-190
1.45371e-193
1.95831e-196
2.48358e-199
3.37695e-202
4.38397e-205
5.79162e-208
7.26461e-211
8.64403e-214
9.03391e-217
7.84467e-220
5.62501e-223
3.52411e-226
2.02507e-229
1.0921e-232
5.5876e-236
2.70927e-239
1.23224e-242
5.24423e-246
2.12918e-249
8.22855e-253
3.07094e-256
6.89223e-260
5.50996e-264
2.04141e-267
1.0554e-270
4.83807e-274
2.15976e-277
9.4252e-281
4.05136e-284
1.72471e-287
7.25196e-291
2.98889e-294
1.20506e-297
4.76843e-301
1.85673e-304
7.1065e-308
2.67507e-311
9.80108e-315
3.53388e-318
1.25493e-321
0
0
0
0
0
0
0
0
0
0
0
0
0
0
0
0
0
0
0
0
0
0
0
0
0
0
0
0
0
0
0
0
0
0
0
0
0
0
0
0
0
0
0
0
0
0
0
0
0
0
0
0
0
0
0
0
0
0
0
0
0
0
0
0
0
0
0
0
0
0
0
0
0
0
0
0
0
0
0
0
0
0
0
0
0
0
0
0
0
0
0
0
0
0
0
0
0
0
0
0
0
0
0
0
0
0
0
0
0
0
0
0
0
0
0
0
0
0
0
0
0
0
0
0
0
0
0
0
0
0
0
0
0
0
0
0
0
0
0
0
0
0
0
0
0
0
0
0
0
0
0
0
0
0
0
0
0
0
0
0
0
0
0
0
0
0
0
0
0
0
0
0
0
0
0
0
0
0
0
0
0
0
0
0
0
0
0
0
0
0
0
0
0
0
0
0
0
0
0
0
0
0
0
0
0
0
0
0
0
0
0
0
0
0
0
0
0
0
0
0
0
0
0
0
0
0
0
0
0
0
0
0
0
0
0
0
0
0
0
0
0
0
0
0
0
0
0
0
0
0
0
0
0
0
0
0
0
0
0
0
0
0
0
0
0
0
0
0
0
0
0
6.68952e-08
2.46259e-08
5.48441e-09
2.37239e-09
3.05653e-09
9.03156e-09
2.46006e-08
4.57979e-08
3.80052e-08
4.8328e-08
3.41544e-08
2.28395e-08
2.40736e-08
2.79964e-07
2.718e-07
2.67146e-07
1.03357e-07
1.37784e-08
6.37244e-10
3.69631e-13
9.22395e-17
2.80426e-20
1.73872e-23
2.36093e-26
4.06734e-29
6.54169e-32
1.01449e-34
1.24098e-37
1.78069e-40
2.23376e-43
3.02707e-46
5.16111e-49
9.88313e-52
2.33798e-54
7.57897e-57
3.4715e-59
2.03332e-61
1.46031e-63
9.87239e-66
6.66857e-68
4.30916e-70
2.76694e-72
1.74179e-74
1.24452e-76
8.41422e-79
7.18894e-81
2.78788e-83
8.73038e-86
2.10128e-88
5.79526e-91
2.83076e-93
1.77021e-95
1.00915e-97
5.10305e-100
2.49198e-102
1.17213e-104
5.70838e-107
2.64375e-109
1.1904e-111
5.16622e-114
2.20604e-116
9.0711e-119
3.70217e-121
1.47178e-123
5.8309e-126
2.28792e-128
8.92513e-131
3.50232e-133
1.36563e-135
5.42405e-138
2.15844e-140
8.8014e-143
3.63351e-145
1.54326e-147
6.65193e-150
2.94874e-152
1.3177e-154
6.07371e-157
2.66084e-159
1.24393e-161
5.78572e-164
2.7719e-166
1.29986e-168
6.21907e-171
2.86549e-173
1.1032e-177
4.62502e-182
4.09868e-186
2.47547e-189
2.71273e-192
3.19604e-195
3.91322e-198
4.87967e-201
6.1353e-204
7.6711e-207
9.34972e-210
1.07924e-212
1.13408e-215
1.03434e-218
7.9678e-222
5.23021e-225
3.04521e-228
1.63049e-231
8.16864e-235
3.87852e-238
1.75645e-241
7.63094e-245
3.25031e-248
1.36106e-251
5.59306e-255
2.21851e-258
9.10854e-262
3.76145e-265
1.44777e-268
5.51517e-272
2.07433e-275
7.7011e-279
2.85714e-282
1.06229e-285
3.95091e-289
1.46065e-292
5.35092e-296
1.94145e-299
6.97557e-303
2.47985e-306
8.72699e-310
3.01835e-313
1.03243e-316
3.50046e-320
9.88131e-324
0
0
0
0
0
0
0
0
0
0
0
0
0
0
0
0
0
0
0
0
0
0
0
0
0
0
0
0
0
0
0
0
0
0
0
0
0
0
0
0
0
0
0
0
0
0
0
0
0
0
0
0
0
0
0
0
0
0
0
0
0
0
0
0
0
0
0
0
0
0
0
0
0
0
0
0
0
0
0
0
0
0
0
0
0
0
0
0
0
0
0
0
0
0
0
0
0
0
0
0
0
0
0
0
0
0
0
0
0
0
0
0
0
0
0
0
0
0
0
0
0
0
0
0
0
0
0
0
0
0
0
0
0
0
0
0
0
0
0
0
0
0
0
0
0
0
0
0
0
0
0
0
0
0
0
0
0
0
0
0
0
0
0
0
0
0
0
0
0
0
0
0
0
0
0
0
0
0
0
0
0
0
0
0
0
0
0
0
0
0
0
0
0
0
0
0
0
0
0
0
0
0
0
0
0
0
0
0
0
0
0
0
0
0
0
0
0
0
0
0
0
0
0
0
0
0
0
0
0
0
0
0
0
0
0
0
0
0
0
0
0
0
0
0
0
0
0
0
0
0
0
0
0
0
0
0
0
0
0
0
0
0
0
0
0
0
0
0
0
0
2.40533e-09
1.08261e-09
4.13786e-10
2.87622e-10
5.38894e-10
1.61613e-09
4.59421e-09
9.72716e-09
1.56253e-08
1.18752e-08
1.12958e-08
1.17605e-08
1.04403e-08
1.94273e-08
1.64778e-08
1.85612e-08
1.187e-08
3.95185e-09
2.75229e-10
1.96399e-12
3.61854e-16
1.00739e-19
5.80528e-23
5.61096e-26
6.9387e-29
8.69888e-32
1.12862e-34
1.34196e-37
1.56211e-40
2.08824e-43
2.81719e-46
3.78986e-49
5.56194e-52
8.98982e-55
1.61442e-57
3.36469e-60
1.06451e-62
4.378e-65
2.4639e-67
1.61956e-69
1.11205e-71
7.91939e-74
5.56505e-76
3.84717e-78
2.79388e-80
2.35758e-82
1.06122e-84
3.63088e-87
1.06091e-89
3.41295e-92
1.41788e-94
6.60577e-97
3.04197e-99
1.39407e-101
6.24745e-104
3.03881e-106
1.37152e-108
6.18618e-111
2.70837e-113
1.17324e-115
4.96088e-118
2.05121e-120
8.33357e-123
3.31336e-125
1.3075e-127
5.07832e-130
1.97388e-132
7.60023e-135
2.95883e-137
1.14601e-139
4.553e-142
1.81327e-144
7.4868e-147
3.11874e-149
1.35391e-151
5.95807e-154
2.7034e-156
1.25472e-158
5.82303e-161
2.7405e-163
1.27648e-165
6.14694e-168
2.94233e-170
1.42997e-172
5.99232e-175
1.63174e-179
4.03433e-184
2.01117e-188
1.29216e-191
1.531e-194
1.8861e-197
2.37072e-200
3.02192e-203
3.86959e-206
4.92824e-209
6.18528e-212
7.52678e-215
8.69067e-218
9.15846e-221
8.35808e-224
6.36098e-227
4.10339e-230
2.36588e-233
1.26435e-236
6.38037e-240
3.047e-243
1.38053e-246
6.08647e-250
2.63033e-253
1.09587e-256
4.58671e-260
1.93578e-263
7.72646e-267
2.98927e-270
1.16555e-273
4.49625e-277
1.72334e-280
6.63252e-284
2.54338e-287
9.61308e-291
3.56007e-294
1.2942e-297
4.63328e-301
1.63757e-304
5.72255e-308
1.97794e-311
6.74541e-315
2.27895e-318
7.65802e-322
0
0
0
0
0
0
0
0
0
0
0
0
0
0
0
0
0
0
0
0
0
0
0
0
0
0
0
0
0
0
0
0
0
0
0
0
0
0
0
0
0
0
0
0
0
0
0
0
0
0
0
0
0
0
0
0
0
0
0
0
0
0
0
0
0
0
0
0
0
0
0
0
0
0
0
0
0
0
0
0
0
0
0
0
0
0
0
0
0
0
0
0
0
0
0
0
0
0
0
0
0
0
0
0
0
0
0
0
0
0
0
0
0
0
0
0
0
0
0
0
0
0
0
0
0
0
0
0
0
0
0
0
0
0
0
0
0
0
0
0
0
0
0
0
0
0
0
0
0
0
0
0
0
0
0
0
0
0
0
0
0
0
0
0
0
0
0
0
0
0
0
0
0
0
0
0
0
0
0
0
0
0
0
0
0
0
0
0
0
0
0
0
0
0
0
0
0
0
0
0
0
0
0
0
0
0
0
0
0
0
0
0
0
0
0
0
0
0
0
0
0
0
0
0
0
0
0
0
0
0
0
0
0
0
0
0
0
0
0
0
0
0
0
0
0
0
0
0
0
0
0
0
0
0
0
0
0
0
0
0
0
0
0
0
0
0
0
0
0
0
0
1.28263e-10
1.03518e-10
8.18788e-11
8.02994e-11
9.33511e-11
2.43528e-10
4.58196e-10
1.28257e-09
2.09868e-09
4.44173e-09
4.45767e-09
4.72759e-09
4.2525e-09
3.71569e-09
3.95613e-09
3.54113e-09
3.48585e-09
5.31695e-10
4.9071e-11
1.45903e-13
4.83949e-17
2.80619e-20
2.24415e-23
2.03303e-26
2.12071e-29
2.39044e-32
2.66732e-35
3.22461e-38
4.52152e-41
5.69715e-44
7.15066e-47
9.30652e-50
1.25537e-52
1.77274e-55
2.65087e-58
4.92027e-61
8.32715e-64
1.59144e-66
3.80122e-69
1.30554e-71
6.2033e-74
3.54431e-76
2.11969e-78
1.45415e-80
1.03137e-82
9.58983e-85
4.43472e-87
1.63175e-89
5.28414e-92
1.59688e-94
6.51458e-97
2.84276e-99
1.38061e-101
6.23116e-104
2.82944e-106
1.2834e-108
5.68098e-111
2.50706e-113
1.0798e-115
4.5722e-118
1.90742e-120
7.72609e-123
3.09939e-125
1.20931e-127
4.76283e-130
1.82133e-132
7.11419e-135
2.7252e-137
1.0703e-139
4.18244e-142
1.68594e-144
6.83666e-147
2.8845e-149
1.22872e-151
5.45429e-154
2.44588e-156
1.13093e-158
5.27374e-161
2.5016e-163
1.19229e-165
5.68223e-168
2.76013e-170
1.33183e-172
6.28606e-175
2.43946e-179
8.47527e-184
3.77369e-188
1.52139e-191
1.84944e-194
2.41904e-197
3.20808e-200
4.29186e-203
5.78675e-206
7.80214e-209
1.04572e-211
1.37663e-214
1.76485e-217
2.1638e-220
2.44923e-223
2.42885e-226
2.00646e-229
1.37459e-232
8.24314e-236
4.5458e-239
2.35869e-242
1.16583e-245
5.53662e-249
2.54376e-252
1.13602e-255
4.9485e-259
2.11339e-262
8.84614e-266
3.6316e-269
1.46914e-272
5.86094e-276
2.30696e-279
8.96707e-283
3.44408e-286
1.30731e-289
4.90391e-293
1.81795e-296
6.66227e-300
2.41409e-303
8.65213e-307
3.06743e-310
1.07596e-313
3.73453e-317
1.28309e-320
4.94066e-324
0
0
0
0
0
0
0
0
0
0
0
0
0
0
0
0
0
0
0
0
0
0
0
0
0
0
0
0
0
0
0
0
0
0
0
0
0
0
0
0
0
0
0
0
0
0
0
0
0
0
0
0
0
0
0
0
0
0
0
0
0
0
0
0
0
0
0
0
0
0
0
0
0
0
0
0
0
0
0
0
0
0
0
0
0
0
0
0
0
0
0
0
0
0
0
0
0
0
0
0
0
0
0
0
0
0
0
0
0
0
0
0
0
0
0
0
0
0
0
0
0
0
0
0
0
0
0
0
0
0
0
0
0
0
0
0
0
0
0
0
0
0
0
0
0
0
0
0
0
0
0
0
0
0
0
0
0
0
0
0
0
0
0
0
0
0
0
0
0
0
0
0
0
0
0
0
0
0
0
0
0
0
0
0
0
0
0
0
0
0
0
0
0
0
0
0
0
0
0
0
0
0
0
0
0
0
0
0
0
0
0
0
0
0
0
0
0
0
0
0
0
0
0
0
0
0
0
0
0
0
0
0
0
0
0
0
0
0
0
0
0
0
0
0
0
0
0
0
0
0
0
0
0
0
0
0
0
0
0
0
0
0
0
0
0
0
0
0
0
0
0
1.77518e-11
2.23009e-11
2.56833e-11
2.87488e-11
4.30691e-11
5.1258e-11
8.8794e-11
1.26852e-10
3.24994e-10
5.71735e-10
9.27878e-10
1.89598e-09
1.28928e-09
1.4465e-09
1.21525e-09
1.22655e-09
1.09986e-09
1.53167e-10
1.07709e-11
9.50447e-15
9.18324e-18
8.62089e-21
7.47675e-24
6.68884e-27
5.88764e-30
5.27156e-33
4.8418e-36
4.67163e-39
5.7107e-42
5.23415e-45
6.38518e-48
7.09533e-51
8.15323e-54
9.57248e-57
1.18167e-59
1.48545e-62
1.91072e-65
2.61923e-68
3.87368e-71
7.24107e-74
2.23532e-76
1.00806e-78
5.48847e-81
3.13756e-83
1.78286e-85
1.12845e-87
5.80131e-90
2.64601e-92
1.11949e-94
4.60851e-97
1.97209e-99
8.49191e-102
3.70554e-104
1.58309e-106
6.86531e-109
2.93388e-111
1.23838e-113
5.27349e-116
2.16496e-118
8.97708e-121
3.58259e-123
1.4258e-125
5.54988e-128
2.1355e-130
8.27926e-133
3.13847e-135
1.22105e-137
4.67877e-140
1.84758e-142
7.31994e-145
2.99269e-147
1.24313e-149
5.33861e-152
2.33492e-154
1.0542e-156
4.82063e-159
2.26375e-161
1.06437e-163
5.11863e-166
2.4614e-168
1.18695e-170
5.79684e-173
2.7695e-175
1.34556e-179
5.86913e-184
2.72724e-188
7.07775e-192
8.63032e-195
1.20014e-197
1.68718e-200
2.38334e-203
3.34984e-206
4.74626e-209
6.71278e-212
9.43021e-215
1.29629e-217
1.7337e-220
2.22913e-223
2.6853e-226
2.92178e-229
2.70052e-232
2.02962e-235
1.28653e-238
7.37485e-242
3.94511e-245
2.00297e-248
9.75153e-252
4.58502e-255
2.09322e-258
9.30488e-262
4.05321e-265
1.72857e-268
7.23258e-272
2.9841e-275
1.21167e-278
4.85238e-282
1.91788e-285
7.48551e-289
2.88644e-292
1.09998e-295
4.14416e-299
1.54401e-302
5.69042e-306
2.07497e-309
7.48799e-313
2.67479e-316
9.46037e-320
3.45846e-323
0
0
0
0
0
0
0
0
0
0
0
0
0
0
0
0
0
0
0
0
0
0
0
0
0
0
0
0
0
0
0
0
0
0
0
0
0
0
0
0
0
0
0
0
0
0
0
0
0
0
0
0
0
0
0
0
0
0
0
0
0
0
0
0
0
0
0
0
0
0
0
0
0
0
0
0
0
0
0
0
0
0
0
0
0
0
0
0
0
0
0
0
0
0
0
0
0
0
0
0
0
0
0
0
0
0
0
0
0
0
0
0
0
0
0
0
0
0
0
0
0
0
0
0
0
0
0
0
0
0
0
0
0
0
0
0
0
0
0
0
0
0
0
0
0
0
0
0
0
0
0
0
0
0
0
0
0
0
0
0
0
0
0
0
0
0
0
0
0
0
0
0
0
0
0
0
0
0
0
0
0
0
0
0
0
0
0
0
0
0
0
0
0
0
0
0
0
0
0
0
0
0
0
0
0
0
0
0
0
0
0
0
0
0
0
0
0
0
0
0
0
0
0
0
0
0
0
0
0
0
0
0
0
0
0
0
0
0
0
0
0
0
0
0
0
0
0
0
0
0
0
0
0
0
0
0
0
0
0
0
0
0
0
0
0
0
0
0
0
0
0
0
1.62338e-11
1.92851e-11
2.26552e-11
2.29771e-11
2.38278e-11
2.49652e-11
2.61025e-11
3.62296e-11
5.11988e-11
8.39818e-11
1.06597e-10
1.39133e-10
2.59164e-10
4.06517e-10
4.93799e-10
3.22762e-10
8.70889e-11
1.01097e-11
2.32477e-13
1.05123e-16
8.10937e-20
7.94702e-23
7.94919e-26
8.271e-29
7.52204e-32
7.56538e-35
7.28701e-38
7.42683e-41
7.67757e-44
8.37203e-47
8.65249e-50
9.70831e-53
1.07297e-55
1.23325e-58
1.44562e-61
1.72596e-64
2.08758e-67
2.61268e-70
3.35325e-73
5.46221e-76
1.37743e-78
5.53189e-81
2.84867e-83
1.50808e-85
8.09104e-88
4.34687e-90
2.22142e-92
1.11244e-94
5.12162e-97
2.33588e-99
1.00916e-101
4.41168e-104
1.85946e-106
7.84603e-109
3.28813e-111
1.34524e-113
5.56465e-116
2.24441e-118
9.04549e-121
3.58785e-123
1.39544e-125
5.40105e-128
2.0562e-130
7.82394e-133
2.98057e-135
1.13042e-137
4.37477e-140
1.68821e-142
6.73975e-145
2.70277e-147
1.12814e-149
4.77292e-152
2.09479e-154
9.3415e-157
4.28839e-159
1.99152e-161
9.42507e-164
4.5053e-166
2.1655e-168
1.05249e-170
5.10673e-173
2.47517e-175
1.26067e-179
6.27934e-184
3.10705e-188
5.30734e-192
6.18122e-195
9.08798e-198
1.36416e-200
2.02856e-203
3.02607e-206
4.46034e-209
6.64837e-212
9.86912e-215
1.46299e-217
2.12397e-220
3.01197e-223
4.10325e-226
5.27396e-229
6.15039e-232
6.12592e-235
4.89977e-238
3.23969e-241
1.91672e-244
1.05312e-247
5.4754e-251
2.72503e-254
1.30809e-257
6.09059e-261
2.76168e-264
1.22429e-267
5.31677e-271
2.2668e-274
9.50985e-278
3.92851e-281
1.60002e-284
6.43035e-288
2.55176e-291
1.00042e-294
3.8766e-298
1.4853e-301
5.62915e-305
2.1109e-308
7.83482e-312
2.87915e-315
1.04787e-318
3.7549e-322
0
0
0
0
0
0
0
0
0
0
0
0
0
0
0
0
0
0
0
0
0
0
0
0
0
0
0
0
0
0
0
0
0
0
0
0
0
0
0
0
0
0
0
0
0
0
0
0
0
0
0
0
0
0
0
0
0
0
0
0
0
0
0
0
0
0
0
0
0
0
0
0
0
0
0
0
0
0
0
0
0
0
0
0
0
0
0
0
0
0
0
0
0
0
0
0
0
0
0
0
0
0
0
0
0
0
0
0
0
0
0
0
0
0
0
0
0
0
0
0
0
0
0
0
0
0
0
0
0
0
0
0
0
0
0
0
0
0
0
0
0
0
0
0
0
0
0
0
0
0
0
0
0
0
0
0
0
0
0
0
0
0
0
0
0
0
0
0
0
0
0
0
0
0
0
0
0
0
0
0
0
0
0
0
0
0
0
0
0
0
0
0
0
0
0
0
0
0
0
0
0
0
0
0
0
0
0
0
0
0
0
0
0
0
0
0
0
0
0
0
0
0
0
0
0
0
0
0
0
0
0
0
0
0
0
0
0
0
0
0
0
0
0
0
0
0
0
0
0
0
0
0
0
0
0
0
0
0
0
0
0
0
0
0
0
0
0
0
0
0
0
0
0
2.10918e-11
2.35502e-11
2.41281e-11
2.47099e-11
8.40841e-12
5.275e-12
4.00994e-12
3.33934e-12
3.52204e-12
3.4217e-12
4.54173e-12
7.68209e-12
9.82025e-12
1.35634e-11
8.9667e-12
5.33424e-12
2.32162e-12
1.51647e-13
1.7066e-16
1.92543e-19
2.09031e-22
2.3814e-25
2.36445e-28
2.57811e-31
2.48258e-34
2.68637e-37
2.87027e-40
3.15075e-43
3.52705e-46
3.99711e-49
4.37461e-52