/*--------------------------------*- C++ -*----------------------------------*\
| =========                 |                                                 |
| \\      /  F ield         | OpenFOAM: The Open Source CFD Toolbox           |
|  \\    /   O peration     | Version:  2.1.1                                 |
|   \\  /    A nd           | Web:      www.OpenFOAM.org                      |
|    \\/     M anipulation  |                                                 |
\*---------------------------------------------------------------------------*/
FoamFile
{
    version     2.0;
    format      ascii;
    class       volScalarField;
    location    "0.000950000";
    object      O;
}
// * * * * * * * * * * * * * * * * * * * * * * * * * * * * * * * * * * * * * //

dimensions      [0 0 0 0 0 0 0];

internalField   nonuniform List<scalar> 
12384
(
8.42826e-06
3.62649e-06
6.10081e-07
3.0447e-08
1.50906e-09
7.3192e-11
2.37545e-12
8.23708e-14
8.94569e-16
8.05595e-18
8.45921e-20
1.01338e-21
1.39167e-23
2.32188e-25
4.9049e-32
6.58743e-33
1.3811e-35
1.97523e-38
2.54976e-41
4.10034e-44
1.22873e-46
5.17953e-49
2.37122e-51
1.12048e-53
5.28687e-56
2.49049e-58
1.17211e-60
5.44556e-63
2.53873e-65
1.16836e-67
5.2933e-70
2.35085e-72
1.00782e-74
4.13377e-77
1.63277e-79
6.40902e-82
2.51562e-84
9.9881e-87
4.0579e-89
1.6212e-91
6.37353e-94
2.36239e-96
8.42139e-99
2.86613e-101
1.414e-108
5.32412e-110
2.12458e-112
7.6595e-115
2.69201e-117
9.36133e-120
3.26779e-122
1.13518e-124
3.96119e-127
1.36748e-129
4.75675e-132
1.64226e-134
5.75349e-137
2.03892e-139
7.45751e-142
2.86659e-144
1.16662e-146
5.16873e-149
2.42614e-151
1.22111e-153
6.28706e-156
3.33772e-158
1.76782e-160
9.46262e-163
5.03417e-165
2.69191e-167
1.13318e-169
3.60268e-174
2.24202e-178
3.29829e-181
2.14271e-190
2.08466e-190
1.42129e-192
4.92917e-195
1.39914e-197
3.38766e-200
7.30844e-203
1.45596e-205
2.70257e-208
4.65855e-211
7.36176e-214
1.08565e-216
1.54115e-219
2.1652e-222
2.6791e-225
2.45921e-228
1.92091e-231
1.31801e-234
7.81553e-238
4.1535e-241
2.09438e-244
1.03758e-247
5.04597e-251
2.44168e-254
1.15703e-257
5.52588e-261
2.46953e-264
1.08785e-267
4.77746e-271
5.0834e-275
4.657e-297
7.12129e-295
2.06851e-297
3.38415e-300
3.99027e-303
3.70589e-306
3.09508e-309
2.28799e-312
1.54779e-315
9.70449e-319
5.73116e-322
0
0
0
0
0
0
0
0
0
0
0
0
0
0
0
0
0
0
0
0
0
0
0
0
0
0
0
0
0
0
0
0
0
0
0
0
0
0
0
0
0
0
0
0
0
0
0
0
0
0
0
0
0
0
0
0
0
0
0
0
0
0
0
0
0
0
0
0
0
0
0
0
0
0
0
0
0
0
0
0
0
0
0
0
0
0
0
0
0
0
0
0
0
0
0
0
0
0
0
0
0
0
0
0
0
0
0
0
0
0
0
0
0
0
0
0
0
0
0
0
0
0
0
0
0
0
0
0
0
0
0
0
0
0
0
0
0
0
0
0
0
0
0
0
0
0
0
0
0
0
0
0
0
0
0
0
0
0
0
0
0
0
0
0
0
0
0
0
0
0
0
0
0
0
0
0
0
0
0
0
0
0
0
0
0
0
0
0
0
0
0
0
0
0
0
0
0
0
0
0
0
0
0
0
0
0
0
0
0
0
0
0
0
0
0
0
0
0
0
0
0
0
0
0
0
0
0
0
0
0
0
0
0
0
0
0
0
0
0
0
0
0
0
0
0
0
0
0
0
0
0
0
0
0
0
0
0
0
0
1.85744e-06
4.02817e-06
1.28467e-06
7.54497e-08
1.08594e-08
3.32215e-10
1.39358e-11
1.31189e-12
3.40719e-14
4.9224e-16
3.36833e-18
2.00653e-20
1.32218e-22
1.09704e-24
2.016e-30
1.38629e-31
3.38793e-34
6.21336e-37
9.21385e-40
1.16505e-42
2.29048e-45
6.7097e-48
3.13752e-50
1.79393e-52
1.06784e-54
7.0243e-57
4.24906e-59
2.60139e-61
1.5423e-63
8.61456e-66
4.83858e-68
2.49564e-70
1.21394e-72
5.096e-75
2.02589e-77
8.10716e-80
3.29384e-82
1.36314e-84
5.66451e-87
2.33285e-89
9.13596e-92
3.33001e-94
1.10873e-96
3.51956e-99
5.33048e-106
1.89835e-107
5.9415e-110
2.02734e-112
7.16219e-115
2.60242e-117
9.48264e-120
3.39343e-122
1.18071e-124
4.03267e-127
1.37571e-129
4.64448e-132
1.58242e-134
5.37651e-137
1.86012e-139
6.48237e-142
2.34868e-144
8.56943e-147
3.36723e-149
1.36123e-151
5.86485e-154
2.65994e-156
1.25146e-158
6.1951e-161
3.13363e-163
1.64347e-165
8.79176e-168
1.4737e-170
1.08947e-174
2.09206e-177
1.59066e-186
3.90985e-187
2.7379e-189
1.01837e-191
3.11025e-194
8.16314e-197
1.9311e-199
4.24128e-202
8.74052e-205
1.66749e-207
2.89132e-210
4.54201e-213
6.54167e-216
8.50913e-219
9.82379e-222
9.47506e-225
7.69651e-228
5.38998e-231
3.38243e-234
1.91447e-237
1.01639e-240
5.18636e-244
2.60682e-247
1.28549e-250
6.25724e-254
2.99338e-257
1.38129e-260
6.17264e-264
2.72742e-267
4.70499e-271
9.00546e-293
4.9186e-291
1.40053e-293
2.22051e-296
2.57108e-299
2.39177e-302
1.99001e-305
1.46987e-308
1.0016e-311
6.2722e-315
3.73413e-318
2.15907e-321
0
0
0
0
0
0
0
0
0
0
0
0
0
0
0
0
0
0
0
0
0
0
0
0
0
0
0
0
0
0
0
0
0
0
0
0
0
0
0
0
0
0
0
0
0
0
0
0
0
0
0
0
0
0
0
0
0
0
0
0
0
0
0
0
0
0
0
0
0
0
0
0
0
0
0
0
0
0
0
0
0
0
0
0
0
0
0
0
0
0
0
0
0
0
0
0
0
0
0
0
0
0
0
0
0
0
0
0
0
0
0
0
0
0
0
0
0
0
0
0
0
0
0
0
0
0
0
0
0
0
0
0
0
0
0
0
0
0
0
0
0
0
0
0
0
0
0
0
0
0
0
0
0
0
0
0
0
0
0
0
0
0
0
0
0
0
0
0
0
0
0
0
0
0
0
0
0
0
0
0
0
0
0
0
0
0
0
0
0
0
0
0
0
0
0
0
0
0
0
0
0
0
0
0
0
0
0
0
0
0
0
0
0
0
0
0
0
0
0
0
0
0
0
0
0
0
0
0
0
0
0
0
0
0
0
0
0
0
0
0
0
0
0
0
0
0
0
0
0
0
0
0
0
0
0
0
0
0
1.14997e-08
2.97838e-08
1.69397e-09
3.92746e-10
1.56498e-10
7.20857e-11
1.74922e-12
8.19584e-14
1.61506e-15
9.61332e-18
8.40941e-20
1.17778e-21
8.72861e-24
9.27193e-26
8.75391e-31
5.10298e-31
1.21075e-33
8.30211e-37
7.60948e-40
5.7947e-43
3.95514e-46
1.76814e-49
2.38031e-52
5.90795e-55
1.38678e-57
4.78455e-60
2.01914e-62
7.83518e-65
3.48244e-67
1.62708e-69
1.16258e-71
6.7309e-74
6.02122e-76
2.52705e-78
1.12778e-80
6.12475e-83
3.90471e-85
2.86108e-87
1.70852e-89
8.57506e-92
8.84952e-94
2.91414e-96
1.03343e-98
2.82597e-101
4.46357e-109
2.82483e-110
6.90766e-113
2.33501e-115
8.77867e-118
3.07859e-120
1.14834e-122
3.99087e-125
1.3741e-127
4.73787e-130
1.58181e-132
5.37611e-135
1.79899e-137
6.1361e-140
2.09314e-142
7.22166e-145
2.43794e-147
8.84101e-150
3.0857e-152
1.23383e-154
4.58534e-157
1.92159e-159
7.81166e-162
3.34524e-164
1.47834e-166
6.59748e-169
3.12933e-171
1.5268e-173
7.10372e-176
3.99503e-179
2.37984e-188
1.78589e-189
1.0775e-191
4.18182e-194
1.31359e-196
3.52225e-199
8.76268e-202
2.00592e-204
4.36739e-207
8.79154e-210
1.62473e-212
2.69585e-215
4.03552e-218
5.11169e-221
5.23426e-224
4.45132e-227
3.2818e-230
2.09155e-233
1.2161e-236
6.81333e-240
3.78795e-243
2.05296e-246
1.09763e-249
5.69112e-253
2.87988e-256
1.40464e-259
6.57264e-263
2.99756e-266
1.32442e-269
8.21176e-274
2.62548e-294
7.79894e-293
2.05317e-295
2.99512e-298
3.2021e-301
2.7992e-304
2.20526e-307
1.55401e-310
1.01463e-313
6.11636e-317
3.49255e-320
1.97626e-323
0
0
0
0
0
0
0
0
0
0
0
0
0
0
0
0
0
0
0
0
0
0
0
0
0
0
0
0
0
0
0
0
0
0
0
0
0
0
0
0
0
0
0
0
0
0
0
0
0
0
0
0
0
0
0
0
0
0
0
0
0
0
0
0
0
0
0
0
0
0
0
0
0
0
0
0
0
0
0
0
0
0
0
0
0
0
0
0
0
0
0
0
0
0
0
0
0
0
0
0
0
0
0
0
0
0
0
0
0
0
0
0
0
0
0
0
0
0
0
0
0
0
0
0
0
0
0
0
0
0
0
0
0
0
0
0
0
0
0
0
0
0
0
0
0
0
0
0
0
0
0
0
0
0
0
0
0
0
0
0
0
0
0
0
0
0
0
0
0
0
0
0
0
0
0
0
0
0
0
0
0
0
0
0
0
0
0
0
0
0
0
0
0
0
0
0
0
0
0
0
0
0
0
0
0
0
0
0
0
0
0
0
0
0
0
0
0
0
0
0
0
0
0
0
0
0
0
0
0
0
0
0
0
0
0
0
0
0
0
0
0
0
0
0
0
0
0
0
0
0
0
0
0
0
0
0
0
0
1.174e-05
3.19992e-05
4.18174e-06
2.1929e-07
1.2494e-08
1.37722e-08
6.99647e-09
4.76607e-10
2.70743e-12
3.4941e-15
5.72067e-18
2.63749e-21
2.03881e-23
2.71727e-25
1.01564e-24
4.70418e-24
1.4114e-26
1.36179e-29
9.81946e-33
2.88231e-36
1.33326e-39
4.95735e-43
3.7149e-46
5.86434e-49
1.43556e-51
3.3191e-54
7.01574e-57
2.35745e-59
7.85448e-62
2.70791e-64
8.8767e-67
2.97022e-69
8.8485e-72
2.84847e-74
9.13701e-77
3.06424e-79
1.16822e-81
4.54265e-84
1.36132e-86
5.43334e-89
1.8589e-91
5.65396e-94
1.36191e-96
3.20192e-99
3.35398e-104
1.05764e-105
2.43339e-108
7.56489e-111
2.36441e-113
7.84543e-116
2.26724e-118
7.4974e-121
2.12927e-123
6.99431e-126
2.00953e-128
6.53648e-131
1.94573e-133
6.25547e-136
1.97711e-138
6.21514e-141
2.1383e-143
6.71824e-146
2.49995e-148
8.31344e-151
3.29207e-153
1.21635e-155
4.83551e-158
2.07515e-160
8.69193e-163
3.82092e-165
1.74832e-167
7.951e-170
3.87674e-172
1.77162e-174
1.30762e-183
3.84808e-186
1.21707e-188
4.12372e-191
1.12361e-193
2.79212e-196
6.18118e-199
1.3326e-201
2.66671e-204
5.20917e-207
9.41196e-210
1.61733e-212
2.4811e-215
3.28588e-218
3.4322e-221
2.98909e-224
2.29166e-227
1.63825e-230
1.0845e-233
6.88891e-237
4.12398e-240
2.40015e-243
1.32975e-246
7.21192e-250
3.75229e-253
1.91769e-256
9.49312e-260
4.58497e-263
2.09665e-266
4.19109e-270
1.69908e-289
3.40603e-289
8.03635e-292
1.04695e-294
1.03308e-297
8.48342e-301
6.11729e-304
4.04916e-307
2.45564e-310
1.41491e-313
7.62943e-317
3.96834e-320
1.97626e-323
0
0
0
0
0
0
0
0
0
0
0
0
0
0
0
0
0
0
0
0
0
0
0
0
0
0
0
0
0
0
0
0
0
0
0
0
0
0
0
0
0
0
0
0
0
0
0
0
0
0
0
0
0
0
0
0
0
0
0
0
0
0
0
0
0
0
0
0
0
0
0
0
0
0
0
0
0
0
0
0
0
0
0
0
0
0
0
0
0
0
0
0
0
0
0
0
0
0
0
0
0
0
0
0
0
0
0
0
0
0
0
0
0
0
0
0
0
0
0
0
0
0
0
0
0
0
0
0
0
0
0
0
0
0
0
0
0
0
0
0
0
0
0
0
0
0
0
0
0
0
0
0
0
0
0
0
0
0
0
0
0
0
0
0
0
0
0
0
0
0
0
0
0
0
0
0
0
0
0
0
0
0
0
0
0
0
0
0
0
0
0
0
0
0
0
0
0
0
0
0
0
0
0
0
0
0
0
0
0
0
0
0
0
0
0
0
0
0
0
0
0
0
0
0
0
0
0
0
0
0
0
0
0
0
0
0
0
0
0
0
0
0
0
0
0
0
0
0
0
0
0
0
0
0
0
0
0
0.000876687
0.000822231
0.000764884
0.000182825
1.84955e-05
3.52787e-06
1.50154e-06
5.28123e-07
7.08287e-08
3.00516e-10
2.01323e-13
1.16079e-16
5.53631e-20
1.57911e-22
4.31997e-19
1.70741e-18
6.2587e-21
1.07306e-23
8.2375e-27
3.83965e-30
1.03929e-33
3.63339e-37
1.45118e-40
1.03385e-43
1.80443e-46
4.11086e-49
1.22071e-51
3.14415e-54
1.08416e-56
3.61276e-59
1.14876e-61
4.04875e-64
1.17277e-66
3.32812e-69
1.11187e-71
3.73563e-74
1.41351e-76
5.10971e-79
1.85754e-81
6.01318e-84
1.69859e-86
3.73115e-89
8.35184e-92
1.8332e-94
6.36926e-99
2.01904e-100
4.8491e-103
1.37077e-105
4.32547e-108
1.31556e-110
4.2405e-113
1.18914e-115
3.96802e-118
1.19818e-120
4.05143e-123
1.23771e-125
4.17185e-128
1.27865e-130
4.3592e-133
1.3429e-135
4.71606e-138
1.47289e-140
5.39024e-143
1.76928e-145
6.77156e-148
2.42903e-150
9.72065e-153
3.85724e-155
1.61845e-157
6.86474e-160
3.031e-162
1.32298e-164
6.07406e-167
2.80174e-169
1.4616e-177
1.47365e-180
5.43063e-184
1.04189e-186
2.4508e-189
5.31033e-192
1.10624e-194
2.18194e-197
4.23063e-200
7.83991e-203
1.41046e-205
2.39685e-208
3.8584e-211
5.56326e-214
6.77497e-217
6.51323e-220
5.26807e-223
3.79956e-226
2.55525e-229
1.60444e-232
9.65054e-236
5.51043e-239
3.05095e-242
1.6193e-245
8.387e-249
4.19732e-252
2.05459e-255
9.81661e-259
4.47691e-262
1.00151e-265
1.54577e-283
4.43462e-284
8.4828e-287
9.63335e-290
8.38317e-293
6.21495e-296
4.12879e-299
2.50699e-302
1.43236e-305
7.68357e-309
3.95693e-312
1.93714e-315
9.19056e-319
4.19956e-322
0
0
0
0
0
0
0
0
0
0
0
0
0
0
0
0
0
0
0
0
0
0
0
0
0
0
0
0
0
0
0
0
0
0
0
0
0
0
0
0
0
0
0
0
0
0
0
0
0
0
0
0
0
0
0
0
0
0
0
0
0
0
0
0
0
0
0
0
0
0
0
0
0
0
0
0
0
0
0
0
0
0
0
0
0
0
0
0
0
0
0
0
0
0
0
0
0
0
0
0
0
0
0
0
0
0
0
0
0
0
0
0
0
0
0
0
0
0
0
0
0
0
0
0
0
0
0
0
0
0
0
0
0
0
0
0
0
0
0
0
0
0
0
0
0
0
0
0
0
0
0
0
0
0
0
0
0
0
0
0
0
0
0
0
0
0
0
0
0
0
0
0
0
0
0
0
0
0
0
0
0
0
0
0
0
0
0
0
0
0
0
0
0
0
0
0
0
0
0
0
0
0
0
0
0
0
0
0
0
0
0
0
0
0
0
0
0
0
0
0
0
0
0
0
0
0
0
0
0
0
0
0
0
0
0
0
0
0
0
0
0
0
0
0
0
0
0
0
0
0
0
0
0
0
0
0
0.000743756
0.000733039
0.000770868
0.000802217
0.000460318
0.000146848
0.000129252
4.44129e-05
1.11628e-05
1.63693e-06
7.31013e-09
5.81792e-12
1.87478e-15
2.34982e-18
1.47637e-14
4.44717e-15
4.25977e-18
4.03957e-21
8.56458e-24
3.51714e-26
6.37928e-29
3.26764e-32
1.44975e-35
7.30947e-39
7.27024e-42
1.52238e-44
4.19251e-47
1.30236e-49
4.13828e-52
1.38853e-54
4.34419e-57
1.46994e-59
4.69524e-62
1.43133e-64
4.39972e-67
1.40122e-69
5.0203e-72
1.81098e-74
6.51843e-77
2.09332e-79
5.78946e-82
1.67746e-84
3.61405e-87
6.83192e-90
3.68988e-94
1.25159e-95
2.89049e-98
8.08342e-101
2.16252e-103
7.10465e-106
2.12846e-108
7.10214e-111
2.04534e-113
6.76828e-116
1.96506e-118
6.51762e-121
2.0069e-123
6.59659e-126
2.05579e-128
6.75454e-131
2.16357e-133
7.10304e-136
2.39337e-138
7.91132e-141
2.88104e-143
9.83044e-146
3.88933e-148
1.41879e-150
6.01577e-153
2.36488e-155
1.04174e-157
4.33634e-160
1.91959e-162
7.6627e-165
6.2134e-172
2.60899e-175
4.30845e-179
1.49775e-182
2.02904e-185
3.77275e-188
7.00812e-191
1.29525e-193
2.32189e-196
4.11132e-199
7.03995e-202
1.17899e-204
1.88036e-207
2.8136e-210
3.75173e-213
4.13446e-216
3.64e-219
2.73852e-222
1.86363e-225
1.18058e-228
7.05351e-232
4.01798e-235
2.19413e-238
1.15599e-241
5.88871e-245
2.91527e-248
1.4047e-251
6.59967e-255
2.96359e-258
6.09682e-262
4.19716e-278
2.08106e-279
3.17856e-282
3.03629e-285
2.31006e-288
1.52839e-291
9.18437e-295
5.14228e-298
2.71827e-301
1.37141e-304
6.63337e-308
3.09181e-311
1.3921e-314
6.07452e-318
2.56914e-321
0
0
0
0
0
0
0
0
0
0
0
0
0
0
0
0
0
0
0
0
0
0
0
0
0
0
0
0
0
0
0
0
0
0
0
0
0
0
0
0
0
0
0
0
0
0
0
0
0
0
0
0
0
0
0
0
0
0
0
0
0
0
0
0
0
0
0
0
0
0
0
0
0
0
0
0
0
0
0
0
0
0
0
0
0
0
0
0
0
0
0
0
0
0
0
0
0
0
0
0
0
0
0
0
0
0
0
0
0
0
0
0
0
0
0
0
0
0
0
0
0
0
0
0
0
0
0
0
0
0
0
0
0
0
0
0
0
0
0
0
0
0
0
0
0
0
0
0
0
0
0
0
0
0
0
0
0
0
0
0
0
0
0
0
0
0
0
0
0
0
0
0
0
0
0
0
0
0
0
0
0
0
0
0
0
0
0
0
0
0
0
0
0
0
0
0
0
0
0
0
0
0
0
0
0
0
0
0
0
0
0
0
0
0
0
0
0
0
0
0
0
0
0
0
0
0
0
0
0
0
0
0
0
0
0
0
0
0
0
0
0
0
0
0
0
0
0
0
0
0
0
0
0
0
0
0.000744417
0.000779704
0.000781057
0.00070981
0.000596291
0.000535628
0.000370971
0.0003094
0.000279175
0.000136691
1.02506e-05
1.04091e-07
5.11684e-11
4.44586e-14
3.20446e-11
3.92541e-12
3.63799e-15
1.46004e-18
8.73287e-22
1.25002e-24
4.60735e-27
2.62043e-29
7.50966e-32
8.40922e-35
7.74549e-38
1.15814e-40
3.10359e-43
1.11797e-45
4.2674e-48
1.68236e-50
6.50628e-53
2.39334e-55
8.68318e-58
2.94525e-60
9.67096e-63
3.482e-65
1.28646e-67
5.05781e-70
1.91643e-72
6.21367e-75
2.0242e-77
5.06589e-80
1.02688e-82
1.75051e-85
6.08931e-90
1.79903e-91
5.02664e-94
1.4492e-96
4.49765e-99
1.48882e-101
5.15312e-104
1.7206e-106
6.08487e-109
1.95116e-111
6.86241e-114
2.19251e-116
7.58709e-119
2.37908e-121
8.13246e-124
2.56821e-126
8.6999e-129
2.80546e-131
9.5154e-134
3.1661e-136
1.10334e-138
3.82473e-141
1.41499e-143
5.17943e-146
2.07102e-148
8.03196e-151
3.39848e-153
1.38229e-155
5.97141e-158
2.59612e-160
2.39432e-167
1.5648e-169
1.87143e-173
2.14464e-177
6.78117e-181
4.36558e-184
6.47218e-187
1.06191e-189
1.76944e-192
2.90623e-195
4.74682e-198
7.58376e-201
1.18276e-203
1.75964e-206
2.44885e-209
3.02906e-212
3.07629e-215
2.51704e-218
1.77656e-221
1.14111e-224
6.84708e-228
3.8859e-231
2.10831e-234
1.09897e-237
5.53452e-241
2.70064e-244
1.28118e-247
5.91928e-251
2.62397e-254
6.13131e-258
2.28223e-272
1.5924e-274
1.79947e-277
1.40218e-280
9.10468e-284
5.29546e-287
2.8577e-290
1.4587e-293
7.126e-297
3.3512e-300
1.52446e-303
6.7181e-307
2.87567e-310
1.19684e-313
4.84759e-317
1.91549e-320
4.94066e-324
0
0
0
0
0
0
0
0
0
0
0
0
0
0
0
0
0
0
0
0
0
0
0
0
0
0
0
0
0
0
0
0
0
0
0
0
0
0
0
0
0
0
0
0
0
0
0
0
0
0
0
0
0
0
0
0
0
0
0
0
0
0
0
0
0
0
0
0
0
0
0
0
0
0
0
0
0
0
0
0
0
0
0
0
0
0
0
0
0
0
0
0
0
0
0
0
0
0
0
0
0
0
0
0
0
0
0
0
0
0
0
0
0
0
0
0
0
0
0
0
0
0
0
0
0
0
0
0
0
0
0
0
0
0
0
0
0
0
0
0
0
0
0
0
0
0
0
0
0
0
0
0
0
0
0
0
0
0
0
0
0
0
0
0
0
0
0
0
0
0
0
0
0
0
0
0
0
0
0
0
0
0
0
0
0
0
0
0
0
0
0
0
0
0
0
0
0
0
0
0
0
0
0
0
0
0
0
0
0
0
0
0
0
0
0
0
0
0
0
0
0
0
0
0
0
0
0
0
0
0
0
0
0
0
0
0
0
0
0
0
0
0
0
0
0
0
0
0
0
0
0
0
0
0.000814203
0.000800344
0.00068123
0.000388819
0.0002284
0.000310018
0.000389449
0.000348305
0.000370677
0.000381186
9.48704e-05
6.39509e-06
9.93482e-08
1.85607e-10
1.54841e-08
3.43988e-09
1.2985e-11
4.20702e-15
6.03441e-19
2.10323e-22
3.04555e-25
1.28501e-27
5.0028e-30
1.552e-32
2.95228e-35
5.67155e-38
1.43918e-40
5.78415e-43
2.9121e-45
1.43653e-47
6.93177e-50
3.16711e-52
1.318e-54
5.13105e-57
1.79956e-59
6.97191e-62
2.81467e-64
1.19783e-66
4.94461e-69
1.92718e-71
6.75252e-74
1.95638e-76
4.43835e-79
8.56918e-82
3.47265e-87
6.67979e-89
3.27648e-91
1.65346e-93
7.26934e-96
2.93084e-98
1.11922e-100
4.17613e-103
1.55648e-105
5.54074e-108
1.97005e-110
6.78447e-113
2.31515e-115
7.78912e-118
2.58805e-120
8.66524e-123
2.84991e-125
9.56118e-128
3.1768e-130
1.07519e-132
3.62966e-135
1.25472e-137
4.44817e-140
1.60302e-142
6.0733e-145
2.3096e-147
9.25617e-150
3.69163e-152
1.54146e-154
6.47063e-157
6.91196e-164
3.84056e-166
1.81845e-168
1.56135e-172
5.0595e-176
4.86558e-180
1.28938e-183
1.49345e-186
2.22373e-189
3.39926e-192
5.1777e-195
7.81955e-198
1.15479e-200
1.65007e-203
2.24714e-206
2.84794e-209
3.18731e-212
2.94447e-215
2.23408e-218
1.48065e-221
8.98655e-225
5.11116e-228
2.75933e-231
1.42566e-234
7.07895e-238
3.3888e-241
1.56841e-244
7.04639e-248
3.03532e-251
7.34605e-255
1.92265e-267
2.08414e-270
1.58546e-273
9.62578e-277
5.20543e-280
2.62262e-283
1.26e-286
5.83629e-290
2.62085e-293
1.14508e-296
4.87795e-300
2.02875e-303
8.23666e-307
3.26786e-310
1.26353e-313
4.7838e-317
1.7732e-320
4.94066e-324
0
0
0
0
0
0
0
0
0
0
0
0
0
0
0
0
0
0
0
0
0
0
0
0
0
0
0
0
0
0
0
0
0
0
0
0
0
0
0
0
0
0
0
0
0
0
0
0
0
0
0
0
0
0
0
0
0
0
0
0
0
0
0
0
0
0
0
0
0
0
0
0
0
0
0
0
0
0
0
0
0
0
0
0
0
0
0
0
0
0
0
0
0
0
0
0
0
0
0
0
0
0
0
0
0
0
0
0
0
0
0
0
0
0
0
0
0
0
0
0
0
0
0
0
0
0
0
0
0
0
0
0
0
0
0
0
0
0
0
0
0
0
0
0
0
0
0
0
0
0
0
0
0
0
0
0
0
0
0
0
0
0
0
0
0
0
0
0
0
0
0
0
0
0
0
0
0
0
0
0
0
0
0
0
0
0
0
0
0
0
0
0
0
0
0
0
0
0
0
0
0
0
0
0
0
0
0
0
0
0
0
0
0
0
0
0
0
0
0
0
0
0
0
0
0
0
0
0
0
0
0
0
0
0
0
0
0
0
0
0
0
0
0
0
0
0
0
0
0
0
0
0
0.000750191
0.000523391
0.000171706
4.20524e-05
3.4549e-05
7.33576e-05
0.00017044
0.000156376
0.000149053
0.000167265
0.000166005
0.000312844
8.92237e-05
2.53554e-06
1.10216e-06
1.74417e-06
2.80868e-06
1.47309e-06
2.96226e-08
5.31574e-12
4.53524e-16
7.83963e-20
5.1996e-23
1.07265e-25
3.60135e-28
9.05249e-31
1.76883e-33
2.79225e-36
3.97861e-39
8.35187e-42
2.48668e-44
1.06554e-46
5.45501e-49
3.16493e-51
1.87534e-53
1.09639e-55
6.36183e-58
3.62741e-60
2.06956e-62
1.14457e-64
6.51066e-67
3.84819e-69
2.18711e-71
1.14853e-73
5.37313e-76
1.71253e-78
7.2761e-81
3.64714e-83
1.74218e-85
6.04699e-88
3.82346e-90
3.56544e-92
2.20585e-94
1.0843e-96
5.65404e-99
2.71256e-101
1.1515e-103
4.89218e-106
1.89749e-108
7.44235e-111
2.72301e-113
9.98844e-116
3.50707e-118
1.23146e-120
4.25691e-123
1.45528e-125
5.0269e-128
1.69988e-130
5.92133e-133
2.02366e-135
7.14676e-138
2.54523e-140
9.25209e-143
3.48377e-145
1.3213e-147
5.22683e-150
2.13417e-152
8.89792e-155
3.78913e-157
1.787e-159
1.07784e-161
5.65826e-164
2.71167e-166
1.21797e-168
6.49127e-172
3.47121e-176
1.98257e-180
2.88506e-184
2.66353e-187
3.04568e-190
4.10308e-193
5.20626e-196
7.07968e-199
9.19492e-202
1.21473e-204
1.52399e-207
1.8136e-210
1.89533e-213
1.64597e-216
1.18022e-219
7.39459e-223
4.24911e-226
2.29158e-229
1.17246e-232
5.68522e-236
2.58585e-239
1.10056e-242
4.46837e-246
1.72632e-249
6.40014e-253
1.42759e-256
1.14128e-260
4.25438e-264
2.21423e-267
1.0153e-270
4.53254e-274
1.97788e-277
8.50131e-281
3.61905e-284
1.52167e-287
6.27167e-291
2.52857e-294
1.00057e-297
3.89593e-301
1.49117e-304
5.61307e-308
2.05657e-311
7.41523e-315
2.63838e-318
9.18962e-322
0
0
0
0
0
0
0
0
0
0
0
0
0
0
0
0
0
0
0
0
0
0
0
0
0
0
0
0
0
0
0
0
0
0
0
0
0
0
0
0
0
0
0
0
0
0
0
0
0
0
0
0
0
0
0
0
0
0
0
0
0
0
0
0
0
0
0
0
0
0
0
0
0
0
0
0
0
0
0
0
0
0
0
0
0
0
0
0
0
0
0
0
0
0
0
0
0
0
0
0
0
0
0
0
0
0
0
0
0
0
0
0
0
0
0
0
0
0
0
0
0
0
0
0
0
0
0
0
0
0
0
0
0
0
0
0
0
0
0
0
0
0
0
0
0
0
0
0
0
0
0
0
0
0
0
0
0
0
0
0
0
0
0
0
0
0
0
0
0
0
0
0
0
0
0
0
0
0
0
0
0
0
0
0
0
0
0
0
0
0
0
0
0
0
0
0
0
0
0
0
0
0
0
0
0
0
0
0
0
0
0
0
0
0
0
0
0
0
0
0
0
0
0
0
0
0
0
0
0
0
0
0
0
0
0
0
0
0
0
0
0
0
0
0
0
0
0
0
0
0
0
0
0
0
0
0
0
0
0
0
0
0
0
0
0
0
0
0
0
0
0.00014216
4.32081e-05
7.13267e-06
2.51146e-06
3.18156e-06
1.25849e-05
3.73659e-05
8.34863e-05
5.66921e-05
7.71315e-05
5.01376e-05
3.40188e-05
3.59356e-05
0.000367853
0.000321027
0.000365623
0.000172147
2.16769e-05
1.11664e-06
4.94452e-10
9.5547e-14
1.9428e-17
1.03955e-20
1.52292e-23
2.93945e-26
5.55638e-29
9.49663e-32
1.26572e-34
1.9823e-37
2.59443e-40
3.59077e-43
6.41951e-46
1.27218e-48
3.07382e-51
1.01216e-53
4.7021e-56
2.78562e-58
2.10275e-60
1.45324e-62
1.00266e-64
6.58781e-67
4.28287e-69
2.7398e-71
2.0601e-73
1.43972e-75
1.32693e-77
4.89191e-80
1.39138e-82
2.90413e-85
7.07449e-88
3.4858e-90
2.0369e-92
1.31796e-94
6.92256e-97
3.52058e-99
1.68773e-101
7.16782e-104
3.46397e-106
1.64284e-108
7.25088e-111
3.20202e-113
1.3257e-115
5.54138e-118
2.21405e-120
8.88971e-123
3.51901e-125
1.3797e-127
5.47063e-130
2.13312e-132
8.55956e-135
3.40188e-137
1.39956e-139
5.77176e-142
2.46927e-144
1.06575e-146
4.7472e-149
2.12524e-151
9.84768e-154
4.26373e-156
1.99245e-158
9.30471e-161
4.47558e-163
2.10239e-165
1.00818e-167
4.64672e-170
1.79271e-174
7.51197e-179
6.66964e-183
4.0264e-186
4.41823e-189
5.20388e-192
6.37882e-195
7.95019e-198
1.00054e-200
1.25057e-203
1.52491e-206
1.75987e-209
1.84973e-212
1.68683e-215
1.29953e-218
8.53015e-222
4.96679e-225
2.65941e-228
1.33238e-231
6.32685e-235
2.86545e-238
1.24496e-241
5.30262e-245
2.22013e-248
9.12385e-252
3.57608e-255
1.46821e-258
6.13578e-262
2.36155e-265
8.99725e-269
3.38425e-272
1.25633e-275
4.66059e-279
1.7327e-282
6.44418e-286
2.38239e-289
8.72744e-293
3.16655e-296
1.13773e-299
4.04467e-303
1.42336e-306
4.92301e-310
1.68391e-313
5.70903e-317
1.90166e-320
4.94066e-324
0
0
0
0
0
0
0
0
0
0
0
0
0
0
0
0
0
0
0
0
0
0
0
0
0
0
0
0
0
0
0
0
0
0
0
0
0
0
0
0
0
0
0
0
0
0
0
0
0
0
0
0
0
0
0
0
0
0
0
0
0
0
0
0
0
0
0
0
0
0
0
0
0
0
0
0
0
0
0
0
0
0
0
0
0
0
0
0
0
0
0
0
0
0
0
0
0
0
0
0
0
0
0
0
0
0
0
0
0
0
0
0
0
0
0
0
0
0
0
0
0
0
0
0
0
0
0
0
0
0
0
0
0
0
0
0
0
0
0
0
0
0
0
0
0
0
0
0
0
0
0
0
0
0
0
0
0
0
0
0
0
0
0
0
0
0
0
0
0
0
0
0
0
0
0
0
0
0
0
0
0
0
0
0
0
0
0
0
0
0
0
0
0
0
0
0
0
0
0
0
0
0
0
0
0
0
0
0
0
0
0
0
0
0
0
0
0
0
0
0
0
0
0
0
0
0
0
0
0
0
0
0
0
0
0
0
0
0
0
0
0
0
0
0
0
0
0
0
0
0
0
0
0
0
0
0
0
0
0
0
0
0
0
0
0
0
0
0
0
2.44818e-06
9.14126e-07
2.6308e-07
1.55897e-07
3.91882e-07
1.50842e-06
4.8406e-06
1.17634e-05
2.32655e-05
1.60994e-05
1.51605e-05
1.59242e-05
1.34951e-05
2.78928e-05
2.333e-05
2.81753e-05
1.51911e-05
5.33974e-06
3.26065e-07
2.1327e-09
2.94354e-13
5.63211e-17
2.86782e-20
2.67521e-23
3.77182e-26
5.10523e-29
7.02913e-32
9.07759e-35
1.13182e-37
1.65331e-40
2.29942e-43
3.16683e-46
4.71451e-49
7.68988e-52
1.39427e-54
2.92688e-57
9.74731e-60
4.15048e-62
2.36784e-64
1.58961e-66
1.1115e-68
8.00057e-71
5.71446e-73
3.98956e-75
3.08027e-77
2.75961e-79
1.2016e-81
3.74299e-84
1.00497e-86
2.88948e-89
1.18298e-91
5.67988e-94
2.69772e-96
1.25584e-98
5.75413e-101
2.41462e-103
1.15644e-105
5.36948e-108
2.43141e-110
1.06884e-112
4.62625e-115
1.92825e-117
7.97183e-120
3.18169e-122
1.27389e-124
4.95241e-127
1.95013e-129
7.50939e-132
2.9497e-134
1.14471e-136
4.5753e-139
1.82496e-141
7.57418e-144
3.16135e-146
1.37742e-148
6.08184e-151
2.76501e-153
1.28975e-155
5.98192e-158
2.81978e-160
1.3087e-162
6.31446e-165
3.02665e-167
1.47379e-169
6.18038e-172
1.68561e-176
4.16998e-181
2.08139e-185
1.33766e-188
1.58688e-191
1.95503e-194
2.46021e-197
3.13608e-200
4.01875e-203
5.11911e-206
6.42748e-209
7.82257e-212
9.03422e-215
9.52124e-218
8.68936e-221
6.61337e-224
4.26612e-227
2.45974e-230
1.31447e-233
6.6329e-237
3.16733e-240
1.43494e-243
6.32581e-247
2.73347e-250
1.13881e-253
4.77006e-257
2.01316e-260
8.02918e-264
3.10648e-267
1.21134e-270
4.67346e-274
1.79138e-277
6.89487e-281
2.64421e-284
9.99433e-288
3.70137e-291
1.34559e-294
4.81734e-298
1.70263e-301
5.94988e-305
2.05648e-308
7.01319e-312
2.36944e-315
7.94502e-319
2.61855e-322
0
0
0
0
0
0
0
0
0
0
0
0
0
0
0
0
0
0
0
0
0
0
0
0
0
0
0
0
0
0
0
0
0
0
0
0
0
0
0
0
0
0
0
0
0
0
0
0
0
0
0
0
0
0
0
0
0
0
0
0
0
0
0
0
0
0
0
0
0
0
0
0
0
0
0
0
0
0
0
0
0
0
0
0
0
0
0
0
0
0
0
0
0
0
0
0
0
0
0
0
0
0
0
0
0
0
0
0
0
0
0
0
0
0
0
0
0
0
0
0
0
0
0
0
0
0
0
0
0
0
0
0
0
0
0
0
0
0
0
0
0
0
0
0
0
0
0
0
0
0
0
0
0
0
0
0
0
0
0
0
0
0
0
0
0
0
0
0
0
0
0
0
0
0
0
0
0
0
0
0
0
0
0
0
0
0
0
0
0
0
0
0
0
0
0
0
0
0
0
0
0
0
0
0
0
0
0
0
0
0
0
0
0
0
0
0
0
0
0
0
0
0
0
0
0
0
0
0
0
0
0
0
0
0
0
0
0
0
0
0
0
0
0
0
0
0
0
0
0
0
0
0
0
0
0
0
0
0
0
0
0
0
0
0
0
0
0
0
0
0
6.63824e-08
4.9469e-08
3.77273e-08
3.46272e-08
4.19578e-08
1.39654e-07
3.03107e-07
1.103e-06
2.03162e-06
5.0841e-06
5.14909e-06
5.28972e-06
4.59193e-06
3.78142e-06
4.24399e-06
3.90224e-06
4.00352e-06
4.79802e-07
4.01039e-08
1.02869e-10
2.84663e-14
1.34037e-17
9.61448e-21
8.32353e-24
9.0835e-27
1.08308e-29
1.25693e-32
1.43487e-35
2.52951e-38
3.27456e-41
4.1955e-44
5.53983e-47
7.52943e-50
1.06837e-52
1.60721e-55
3.2466e-58
5.59085e-61
1.0929e-63
2.63341e-66
9.19946e-69
4.41409e-71
2.54375e-73
1.53384e-75
1.05829e-77
7.54652e-80
7.07041e-82
3.25974e-84
1.18021e-86
3.67465e-89
1.01159e-91
4.00134e-94
1.79698e-96
7.36842e-99
3.51455e-101
1.67451e-103
7.84754e-106
3.62378e-108
1.62213e-110
7.1976e-113
3.07224e-115
1.30765e-117
5.31879e-120
2.16661e-122
8.48055e-125
3.37436e-127
1.29373e-129
5.10049e-132
1.95272e-134
7.74454e-137
3.01777e-139
1.22822e-141
4.96392e-144
2.11213e-146
8.97698e-149
4.01058e-151
1.79726e-153
8.34051e-156
3.89713e-158
1.8487e-160
8.83111e-163
4.19958e-165
2.04352e-167
9.86342e-170
4.66259e-172
1.80951e-176
6.29632e-181
2.80342e-185
1.13141e-188
1.37543e-191
1.80071e-194
2.38783e-197
3.19711e-200
4.31034e-203
5.81491e-206
7.79262e-209
1.02633e-211
1.31556e-214
1.61345e-217
1.82606e-220
1.8111e-223
1.49605e-226
1.02499e-229
6.14651e-233
3.3896e-236
1.75867e-239
8.69226e-243
4.12772e-246
1.8963e-249
8.46819e-253
3.68893e-256
1.57618e-259
6.59753e-263
2.70726e-266
1.09513e-269
4.36913e-273
1.71991e-276
6.68563e-280
2.56798e-283
9.74803e-287
3.65673e-290
1.35561e-293
4.96792e-297
1.80011e-300
6.45165e-304
2.28728e-307
8.02289e-311
2.78465e-314
9.56602e-318
3.25095e-321
0
0
0
0
0
0
0
0
0
0
0
0
0
0
0
0
0
0
0
0
0
0
0
0
0
0
0
0
0
0
0
0
0
0
0
0
0
0
0
0
0
0
0
0
0
0
0
0
0
0
0
0
0
0
0
0
0
0
0
0
0
0
0
0
0
0
0
0
0
0
0
0
0
0
0
0
0
0
0
0
0
0
0
0
0
0
0
0
0
0
0
0
0
0
0
0
0
0
0
0
0
0
0
0
0
0
0
0
0
0
0
0
0
0
0
0
0
0
0
0
0
0
0
0
0
0
0
0
0
0
0
0
0
0
0
0
0
0
0
0
0
0
0
0
0
0
0
0
0
0
0
0
0
0
0
0
0
0
0
0
0
0
0
0
0
0
0
0
0
0
0
0
0
0
0
0
0
0
0
0
0
0
0
0
0
0
0
0
0
0
0
0
0
0
0
0
0
0
0
0
0
0
0
0
0
0
0
0
0
0
0
0
0
0
0
0
0
0
0
0
0
0
0
0
0
0
0
0
0
0
0
0
0
0
0
0
0
0
0
0
0
0
0
0
0
0
0
0
0
0
0
0
0
0
0
0
0
0
0
0
0
0
0
0
0
0
0
0
0
0
0
4.99083e-09
6.80466e-09
8.10679e-09
9.33681e-09
1.60988e-08
1.9885e-08
3.94721e-08
6.2437e-08
2.04049e-07
4.1853e-07
7.47202e-07
1.81772e-06
1.09818e-06
1.24155e-06
1.02232e-06
1.07011e-06
9.68366e-07
1.09825e-07
6.59166e-09
4.51124e-12
3.99733e-15
3.16815e-18
2.82303e-21
2.50843e-24
2.22003e-27
1.99857e-30
1.84822e-33
1.79702e-36
2.51231e-39
1.90153e-42
2.88427e-45
3.23043e-48
3.7366e-51
4.4056e-54
5.46506e-57
6.90452e-60
8.93169e-63
1.23198e-65
1.83574e-68
3.4612e-71
1.07227e-73
4.86849e-76
2.65857e-78
1.52672e-80
8.68809e-83
5.51311e-85
2.83269e-87
1.27689e-89
5.35761e-92
2.18016e-94
8.46004e-97
3.64975e-99
1.60728e-101
6.95457e-104
3.04018e-106
1.321e-108
5.62929e-111
2.41885e-113
1.00363e-115
4.17661e-118
1.6839e-120
6.71106e-123
2.63397e-125
1.01581e-127
3.95624e-130
1.50495e-132
5.87129e-135
2.25607e-137
8.94068e-140
3.54448e-142
1.45602e-144
6.04141e-147
2.6086e-149
1.13854e-151
5.17024e-154
2.35948e-156
1.11295e-158
5.23087e-161
2.52112e-163
1.2126e-165
5.85298e-168
2.85929e-170
1.36776e-172
6.64671e-177
2.90194e-181
1.34893e-185
3.50345e-189
4.27331e-192
5.94576e-195
8.36241e-198
1.18178e-200
1.66177e-203
2.3553e-206
3.33266e-209
4.68285e-212
6.43966e-215
8.61335e-218
1.10777e-220
1.33454e-223
1.45224e-226
1.34227e-229
1.00884e-232
6.39483e-236
3.6658e-239
1.96098e-242
9.95583e-246
4.847e-249
2.27895e-252
1.04047e-255
4.62353e-259
2.01495e-262
8.59328e-266
3.59382e-269
1.4833e-272
6.02252e-276
2.41186e-279
9.53291e-283
3.72079e-286
1.43478e-289
5.46774e-293
2.05994e-296
7.67488e-300
2.82858e-303
1.03143e-306
3.72221e-310
1.32962e-313
4.70289e-317
1.64721e-320
4.94066e-324
0
0
0
0
0
0
0
0
0
0
0
0
0
0
0
0
0
0
0
0
0
0
0
0
0
0
0
0
0
0
0
0
0
0
0
0
0
0
0
0
0
0
0
0
0
0
0
0
0
0
0
0
0
0
0
0
0
0
0
0
0
0
0
0
0
0
0
0
0
0
0
0
0
0
0
0
0
0
0
0
0
0
0
0
0
0
0
0
0
0
0
0
0
0
0
0
0
0
0
0
0
0
0
0
0
0
0
0
0
0
0
0
0
0
0
0
0
0
0
0
0
0
0
0
0
0
0
0
0
0
0
0
0
0
0
0
0
0
0
0
0
0
0
0
0
0
0
0
0
0
0
0
0
0
0
0
0
0
0
0
0
0
0
0
0
0
0
0
0
0
0
0
0
0
0
0
0
0
0
0
0
0
0
0
0
0
0
0
0
0
0
0
0
0
0
0
0
0
0
0
0
0
0
0
0
0
0
0
0
0
0
0
0
0
0
0
0
0
0
0
0
0
0
0
0
0
0
0
0
0
0
0
0
0
0
0
0
0
0
0
0
0
0
0
0
0
0
0
0
0
0
0
0
0
0
0
0
0
0
0
0
0
0
0
0
0
0
0
0
0
0
4.50382e-09
5.68814e-09
6.97272e-09
7.17278e-09
7.53107e-09
7.9812e-09
8.37056e-09
1.30397e-08
2.02488e-08
3.84615e-08
5.16904e-08
7.08017e-08
1.5066e-07
2.54191e-07
3.30097e-07
2.03451e-07
5.10706e-08
4.8214e-09
9.81816e-11
3.97181e-14
2.99485e-17
2.91528e-20
2.91496e-23
3.02219e-26
2.75778e-29
2.77991e-32
2.67881e-35
2.73475e-38
2.83673e-41
3.23575e-44
3.36489e-47
3.77253e-50
4.17676e-53
4.80009e-56
5.62193e-59
6.71271e-62
8.12564e-65
1.01743e-67
1.31213e-70
2.13693e-73
5.40094e-76
2.1735e-78
1.11865e-80
5.93264e-83
3.18234e-85
1.71213e-87
8.75661e-90
4.38173e-92
2.02075e-94
9.20187e-97
4.00843e-99
1.74752e-101
7.41079e-104
3.13045e-106
1.31392e-108
5.40676e-111
2.2359e-113
9.06466e-116
3.65631e-118
1.4527e-120
5.66798e-123
2.19182e-125
8.3774e-128
3.18508e-130
1.21692e-132
4.61774e-135
1.78952e-137
6.91559e-140
2.76168e-142
1.10946e-144
4.63289e-147
1.96265e-149
8.62085e-152
3.84831e-154
1.76791e-156
8.21946e-159
3.89277e-161
1.86156e-163
8.96207e-166
4.35323e-168
2.11602e-170
1.02474e-172
5.228e-177
2.60185e-181
1.28902e-185
2.20076e-189
2.56487e-192
3.77088e-195
5.66205e-198
8.42085e-201
1.25641e-203
1.85236e-206
2.76129e-209
4.10012e-212
6.07821e-215
8.82653e-218
1.25173e-220
1.7055e-223
2.19223e-226
2.55669e-229
2.54654e-232
2.03689e-235
1.34677e-238
7.96818e-242
4.37802e-245
2.27626e-248
1.13287e-251
5.43817e-255
2.53208e-258
1.14807e-261
5.0899e-265
2.21041e-268
9.42341e-272
3.95361e-275
1.63321e-278
6.65175e-282
2.67326e-285
1.06082e-288
4.15897e-292
1.61158e-295
6.17466e-299
2.34014e-302
8.7754e-306
3.2571e-309
1.19692e-312
4.3562e-316
1.57083e-319
5.43472e-323
0
0
0
0
0
0
0
0
0
0
0
0
0
0
0
0
0
0
0
0
0
0
0
0
0
0
0
0
0
0
0
0
0
0
0
0
0
0
0
0
0
0
0
0
0
0
0
0
0
0
0
0
0
0
0
0
0
0
0
0
0
0
0
0
0
0
0
0
0
0
0
0
0
0
0
0
0
0
0
0
0
0
0
0
0
0
0
0
0
0
0
0
0
0
0
0
0
0
0
0
0
0
0
0
0
0
0
0
0
0
0
0
0
0
0
0
0
0
0
0
0
0
0
0
0
0
0
0
0
0
0
0
0
0
0
0
0
0
0
0
0
0
0
0
0
0
0
0
0
0
0
0
0
0
0
0
0
0
0
0
0
0
0
0
0
0
0
0
0
0
0
0
0
0
0
0
0
0
0
0
0
0
0
0
0
0
0
0
0
0
0
0
0
0
0
0
0
0
0
0
0
0
0
0
0
0
0
0
0
0
0
0
0
0
0
0
0
0
0
0
0
0
0
0
0
0
0
0
0
0
0
0
0
0
0
0
0
0
0
0
0
0
0
0
0
0
0
0
0
0
0
0
0
0
0
0
0
0
0
0
0
0
0
0
0
0
0
0
0
0
0
0
6.28359e-09
7.31121e-09
7.49917e-09
7.86498e-09
2.68287e-09
1.70148e-09
1.28915e-09
1.0836e-09
1.28707e-09
1.31672e-09
1.81897e-09
3.14179e-09
4.04987e-09
5.86238e-09
3.62327e-09
2.13545e-09
9.84344e-10
5.24196e-11
6.20512e-14
6.93862e-17
7.49859e-20
8.61589e-23
8.60845e-26
9.37263e-29
9.05141e-32
9.78852e-35