/*--------------------------------*- C++ -*----------------------------------*\
| =========                 |                                                 |
| \\      /  F ield         | OpenFOAM: The Open Source CFD Toolbox           |
|  \\    /   O peration     | Version:  2.1.1                                 |
|   \\  /    A nd           | Web:      www.OpenFOAM.org                      |
|    \\/     M anipulation  |                                                 |
\*---------------------------------------------------------------------------*/
FoamFile
{
    version     2.0;
    format      ascii;
    class       volScalarField;
    location    "0.000950000";
    object      O2;
}
// * * * * * * * * * * * * * * * * * * * * * * * * * * * * * * * * * * * * * //

dimensions      [0 0 0 0 0 0 0];

internalField   nonuniform List<scalar> 
12384
(
0.222442
0.224799
0.226187
0.226441
0.226381
0.226477
0.226465
0.226351
0.226213
0.2262
0.226179
0.22616
0.226154
0.226192
0.226425
0.226545
0.226513
0.226471
0.22644
0.226401
0.226356
0.226304
0.226253
0.226222
0.226196
0.226182
0.226178
0.226174
0.226178
0.226176
0.226176
0.226177
0.226177
0.226177
0.226176
0.226177
0.226176
0.226176
0.226177
0.226175
0.226176
0.226175
0.226176
0.226175
0.226177
0.226178
0.226178
0.226176
0.226178
0.226176
0.226178
0.226177
0.226178
0.226177
0.226178
0.226177
0.226178
0.226178
0.226177
0.226179
0.226177
0.226179
0.226177
0.226179
0.226177
0.226178
0.226178
0.226178
0.226178
0.226178
0.226178
0.226178
0.226178
0.226176
0.226176
0.226178
0.226178
0.226178
0.226178
0.226178
0.226179
0.226179
0.226179
0.226179
0.226179
0.226179
0.226179
0.22618
0.22618
0.22618
0.22618
0.22618
0.226179
0.226179
0.226179
0.226179
0.226179
0.226179
0.226179
0.226179
0.226179
0.226178
0.226178
0.226176
0.226176
0.226178
0.226178
0.226179
0.226179
0.226179
0.226179
0.226179
0.226179
0.226179
0.226179
0.226179
0.22618
0.22618
0.22618
0.22618
0.22618
0.22618
0.226179
0.226179
0.226179
0.226179
0.226179
0.226179
0.226179
0.226179
0.226179
0.226178
0.226178
0.226176
0.226176
0.226178
0.226178
0.226178
0.226179
0.226179
0.226179
0.226179
0.226179
0.226179
0.226179
0.226179
0.22618
0.22618
0.22618
0.22618
0.22618
0.22618
0.226179
0.226179
0.226179
0.226179
0.226179
0.226179
0.226179
0.226179
0.226179
0.226178
0.226178
0.226176
0.226176
0.226178
0.226178
0.226179
0.226179
0.226179
0.226179
0.226179
0.226179
0.226179
0.226179
0.226179
0.226179
0.22618
0.22618
0.22618
0.22618
0.22618
0.226179
0.226179
0.226179
0.226179
0.226179
0.226179
0.226179
0.226179
0.226178
0.226178
0.226178
0.226176
0.226176
0.226178
0.226178
0.226178
0.226179
0.226179
0.226179
0.226179
0.226179
0.226179
0.226179
0.226179
0.22618
0.22618
0.22618
0.22618
0.22618
0.22618
0.226179
0.226179
0.226179
0.226179
0.226179
0.226179
0.226179
0.226179
0.226179
0.226178
0.226178
0.226176
0.226176
0.226178
0.226178
0.226179
0.226179
0.226179
0.226179
0.226179
0.226179
0.226179
0.226179
0.226179
0.22618
0.22618
0.22618
0.22618
0.22618
0.22618
0.226179
0.226179
0.226179
0.226179
0.226179
0.226179
0.226179
0.226179
0.226179
0.226178
0.226178
0.226176
0.226176
0.226178
0.226178
0.226178
0.226179
0.226179
0.226179
0.226179
0.226179
0.226179
0.226179
0.226179
0.226179
0.22618
0.22618
0.22618
0.22618
0.22618
0.226179
0.226179
0.226179
0.226179
0.226179
0.226179
0.226179
0.226179
0.226178
0.226178
0.226178
0.226176
0.226176
0.226178
0.226178
0.226179
0.226179
0.226179
0.226179
0.226179
0.226179
0.226179
0.226179
0.226179
0.226179
0.22618
0.22618
0.22618
0.22618
0.22618
0.226179
0.226179
0.226179
0.226179
0.226179
0.226179
0.226179
0.226179
0.226179
0.226178
0.226178
0.226176
0.226176
0.226178
0.226178
0.226178
0.226179
0.226179
0.226179
0.226179
0.226179
0.226179
0.226179
0.226179
0.22618
0.22618
0.22618
0.22618
0.22618
0.22618
0.226179
0.226179
0.226179
0.226179
0.226179
0.226179
0.226179
0.226179
0.226179
0.226178
0.226178
0.226176
0.226176
0.226178
0.226178
0.226179
0.226179
0.226179
0.226179
0.226179
0.226179
0.226179
0.226179
0.226179
0.226179
0.22618
0.22618
0.22618
0.22618
0.22618
0.226179
0.226179
0.226179
0.226179
0.226179
0.226179
0.226179
0.226179
0.226178
0.226178
0.226178
0.226176
0.20937
0.215636
0.225081
0.228532
0.228539
0.228993
0.228901
0.228641
0.228194
0.227477
0.227026
0.226744
0.226625
0.22659
0.229228
0.229527
0.229475
0.229376
0.229285
0.229187
0.229051
0.228876
0.228659
0.228432
0.228191
0.227928
0.22773
0.227518
0.227311
0.227151
0.226977
0.226852
0.226742
0.226642
0.226596
0.226523
0.226481
0.226433
0.226383
0.226353
0.226316
0.226332
0.226307
0.226272
0.227202
0.227218
0.227191
0.227121
0.227044
0.226964
0.226872
0.226817
0.226734
0.226698
0.226638
0.226601
0.226576
0.226529
0.226537
0.226477
0.2265
0.226444
0.226464
0.226433
0.226434
0.226425
0.226411
0.226409
0.226394
0.22639
0.226389
0.226381
0.226383
0.226265
0.226274
0.2264
0.226405
0.226408
0.226411
0.226414
0.226421
0.226425
0.226433
0.226436
0.226444
0.226446
0.226456
0.226464
0.226474
0.226471
0.226465
0.226454
0.22645
0.226444
0.226442
0.226435
0.226432
0.226424
0.22642
0.226414
0.22641
0.226406
0.226399
0.22626
0.226258
0.2264
0.226404
0.22641
0.226413
0.226417
0.226424
0.226428
0.226435
0.226438
0.226445
0.226447
0.226457
0.226466
0.226471
0.226473
0.226464
0.226456
0.226447
0.226446
0.226439
0.226436
0.226429
0.226425
0.226417
0.226413
0.226411
0.226404
0.2264
0.226258
0.226258
0.226399
0.226403
0.22641
0.226412
0.226419
0.226423
0.22643
0.226433
0.226441
0.226443
0.22645
0.226457
0.226465
0.226473
0.226471
0.226465
0.226454
0.22645
0.226443
0.226442
0.226434
0.226432
0.226424
0.22642
0.226414
0.22641
0.226406
0.226399
0.22626
0.226258
0.2264
0.226404
0.226411
0.226414
0.226418
0.226425
0.226429
0.226437
0.226439
0.226446
0.226448
0.226456
0.226462
0.226471
0.226472
0.226468
0.226457
0.22645
0.226443
0.226439
0.226431
0.226428
0.226421
0.226418
0.226411
0.226409
0.226403
0.226398
0.226258
0.226258
0.226399
0.226405
0.22641
0.226416
0.226418
0.226427
0.22643
0.226437
0.226439
0.226446
0.226447
0.226456
0.226463
0.226473
0.226472
0.226466
0.226454
0.22645
0.226443
0.226442
0.226434
0.226432
0.226424
0.22642
0.226414
0.22641
0.226406
0.226399
0.22626
0.226259
0.226397
0.226405
0.226409
0.226415
0.226418
0.226426
0.226429
0.226436
0.226438
0.226445
0.226447
0.226456
0.226463
0.226473
0.226472
0.226466
0.226455
0.22645
0.226443
0.226442
0.226434
0.226432
0.226424
0.22642
0.226414
0.22641
0.226406
0.226399
0.22626
0.226259
0.226399
0.226405
0.226411
0.226414
0.226421
0.226424
0.226432
0.226434
0.226442
0.226443
0.226449
0.226453
0.226463
0.226469
0.226474
0.226467
0.226458
0.226447
0.226442
0.226439
0.226432
0.226429
0.226421
0.226418
0.226411
0.226409
0.226403
0.226399
0.226258
0.22626
0.226398
0.226406
0.22641
0.226416
0.226419
0.226427
0.226429
0.226437
0.226439
0.226445
0.226446
0.226455
0.226462
0.226473
0.226472
0.226467
0.226455
0.22645
0.226443
0.226442
0.226434
0.226432
0.226424
0.22642
0.226413
0.22641
0.226406
0.226399
0.22626
0.226258
0.2264
0.226405
0.226409
0.226414
0.226418
0.226426
0.226429
0.226437
0.22644
0.226446
0.226448
0.226457
0.226464
0.226473
0.226473
0.226464
0.226457
0.226447
0.226446
0.226439
0.226437
0.226429
0.226426
0.226418
0.226415
0.22641
0.226405
0.2264
0.226258
0.22626
0.226398
0.226407
0.22641
0.226417
0.22642
0.226428
0.22643
0.226438
0.226439
0.226446
0.226446
0.226455
0.226461
0.226472
0.226473
0.226467
0.226455
0.22645
0.226444
0.226443
0.226435
0.226432
0.226424
0.22642
0.226414
0.22641
0.226406
0.226399
0.22626
0.20706
0.208055
0.220052
0.226927
0.22991
0.230506
0.230701
0.230739
0.230686
0.230613
0.23039
0.229985
0.22965
0.229318
0.23102
0.230931
0.230922
0.23096
0.230992
0.231007
0.231024
0.231043
0.231057
0.231067
0.231078
0.231093
0.231087
0.231098
0.231091
0.231099
0.23108
0.231084
0.231058
0.231049
0.231022
0.230964
0.230944
0.230889
0.230835
0.230793
0.230676
0.230646
0.230584
0.230567
0.231137
0.231084
0.231076
0.231075
0.231067
0.231067
0.231056
0.231054
0.23105
0.231044
0.231043
0.231038
0.231037
0.231031
0.23103
0.231025
0.23103
0.231024
0.231032
0.231021
0.23103
0.231024
0.231029
0.23103
0.23103
0.231034
0.231032
0.231031
0.231033
0.231129
0.231136
0.23103
0.231023
0.231021
0.231017
0.231014
0.231008
0.231004
0.230998
0.230995
0.23099
0.230987
0.230981
0.230973
0.230967
0.230968
0.230974
0.230981
0.230986
0.230988
0.230991
0.230994
0.230997
0.231001
0.231005
0.231009
0.231011
0.231014
0.231019
0.231137
0.231137
0.23102
0.231015
0.231012
0.231009
0.231007
0.231002
0.230999
0.230995
0.230992
0.230989
0.230986
0.23098
0.230972
0.230969
0.230967
0.230974
0.230981
0.230986
0.230988
0.230991
0.230994
0.230998
0.231002
0.231006
0.231009
0.231011
0.231015
0.231019
0.231137
0.231137
0.231021
0.231015
0.231012
0.231009
0.231006
0.231002
0.230999
0.230995
0.230991
0.230989
0.230985
0.230979
0.230973
0.230967
0.230968
0.230974
0.230981
0.230986
0.230989
0.230991
0.230995
0.230997
0.231002
0.231005
0.231009
0.231011
0.231014
0.231019
0.231137
0.231137
0.231019
0.231015
0.231011
0.231009
0.231006
0.231002
0.230998
0.230994
0.230991
0.230988
0.230986
0.230981
0.230975
0.230969
0.230967
0.230971
0.230979
0.230985
0.230989
0.230992
0.230997
0.231
0.231004
0.231007
0.23101
0.231013
0.231016
0.231021
0.231137
0.231137
0.231019
0.231015
0.231011
0.231008
0.231005
0.231001
0.230998
0.230994
0.230991
0.230989
0.230986
0.230981
0.230974
0.230967
0.230967
0.230973
0.230981
0.230986
0.230989
0.230991
0.230994
0.230997
0.231001
0.231005
0.231009
0.231011
0.231014
0.231019
0.231137
0.231137
0.231021
0.231015
0.231011
0.231008
0.231005
0.231001
0.230998
0.230995
0.230992
0.230989
0.230986
0.230981
0.230974
0.230967
0.230967
0.230973
0.230981
0.230985
0.230989
0.230991
0.230994
0.230997
0.231002
0.231005
0.231009
0.231011
0.231014
0.231019
0.231137
0.231137
0.23102
0.231015
0.231011
0.231008
0.231005
0.231001
0.230997
0.230995
0.230991
0.230989
0.230986
0.230982
0.230975
0.230969
0.230967
0.230971
0.230979
0.230986
0.23099
0.230992
0.230996
0.230999
0.231003
0.231007
0.23101
0.231012
0.231016
0.231021
0.231137
0.231137
0.23102
0.231014
0.231011
0.231008
0.231005
0.231001
0.230998
0.230994
0.230992
0.230989
0.230987
0.230981
0.230974
0.230968
0.230967
0.230973
0.23098
0.230985
0.230988
0.230991
0.230995
0.230998
0.231002
0.231005
0.231009
0.231012
0.231014
0.231019
0.231137
0.231137
0.231019
0.231015
0.231012
0.231009
0.231006
0.231001
0.230998
0.230994
0.230991
0.230988
0.230986
0.23098
0.230974
0.230967
0.230967
0.230973
0.23098
0.230986
0.230988
0.230991
0.230994
0.230998
0.231001
0.231006
0.231008
0.231011
0.231014
0.231019
0.231137
0.231137
0.23102
0.231014
0.23101
0.231007
0.231004
0.231
0.230997
0.230994
0.230991
0.230989
0.230987
0.230982
0.230975
0.230969
0.230967
0.230972
0.23098
0.230985
0.230988
0.23099
0.230994
0.230997
0.231002
0.231005
0.231009
0.231012
0.231015
0.231019
0.231137
0.112789
0.0933154
0.111682
0.174283
0.211959
0.220342
0.227776
0.230142
0.230549
0.230761
0.230866
0.231009
0.230835
0.230653
0.230337
0.229765
0.229684
0.229798
0.229925
0.230129
0.230262
0.230388
0.230494
0.230576
0.230651
0.230708
0.230757
0.230796
0.23083
0.230854
0.230878
0.230895
0.230916
0.230926
0.230934
0.230944
0.230949
0.230954
0.230966
0.23096
0.230972
0.230963
0.23097
0.230983
0.230834
0.230834
0.230844
0.230856
0.230874
0.230883
0.230903
0.230907
0.230922
0.230923
0.230935
0.230935
0.230943
0.230943
0.230947
0.23095
0.230949
0.230954
0.230952
0.230956
0.230954
0.230956
0.230956
0.230956
0.230957
0.230957
0.230957
0.230958
0.230957
0.230976
0.230975
0.230955
0.230955
0.230955
0.230956
0.230955
0.230956
0.230955
0.230955
0.230955
0.230955
0.230954
0.230955
0.230954
0.230955
0.230954
0.230955
0.230954
0.230955
0.230954
0.230955
0.230954
0.230955
0.230954
0.230955
0.230955
0.230955
0.230955
0.230956
0.230977
0.230977
0.230956
0.230955
0.230955
0.230955
0.230955
0.230955
0.230954
0.230955
0.230954
0.230955
0.230954
0.230955
0.230954
0.230954
0.230955
0.230954
0.230955
0.230954
0.230955
0.230954
0.230955
0.230954
0.230955
0.230955
0.230955
0.230955
0.230955
0.230956
0.230977
0.230977
0.230956
0.230955
0.230955
0.230955
0.230955
0.230954
0.230955
0.230954
0.230955
0.230954
0.230955
0.230954
0.230954
0.230955
0.230954
0.230955
0.230954
0.230955
0.230954
0.230955
0.230954
0.230955
0.230954
0.230955
0.230955
0.230955
0.230955
0.230956
0.230977
0.230977
0.230956
0.230955
0.230955
0.230955
0.230955
0.230955
0.230954
0.230955
0.230954
0.230955
0.230954
0.230955
0.230954
0.230955
0.230954
0.230955
0.230954
0.230955
0.230954
0.230955
0.230954
0.230955
0.230954
0.230955
0.230955
0.230955
0.230955
0.230956
0.230977
0.230977
0.230956
0.230955
0.230955
0.230955
0.230954
0.230955
0.230954
0.230955
0.230954
0.230955
0.230954
0.230955
0.230954
0.230955
0.230954
0.230955
0.230954
0.230955
0.230954
0.230955
0.230954
0.230955
0.230954
0.230955
0.230955
0.230955
0.230955
0.230956
0.230977
0.230977
0.230956
0.230955
0.230955
0.230955
0.230954
0.230955
0.230954
0.230955
0.230954
0.230955
0.230954
0.230955
0.230954
0.230955
0.230954
0.230955
0.230954
0.230955
0.230954
0.230955
0.230954
0.230955
0.230954
0.230955
0.230955
0.230955
0.230955
0.230956
0.230977
0.230977
0.230956
0.230955
0.230955
0.230954
0.230955
0.230954
0.230955
0.230954
0.230955
0.230954
0.230955
0.230954
0.230955
0.230954
0.230955
0.230954
0.230955
0.230954
0.230955
0.230955
0.230954
0.230955
0.230954
0.230955
0.230955
0.230955
0.230955
0.230956
0.230977
0.230977
0.230956
0.230955
0.230955
0.230955
0.230954
0.230955
0.230954
0.230955
0.230954
0.230955
0.230954
0.230955
0.230954
0.230955
0.230954
0.230955
0.230954
0.230955
0.230954
0.230955
0.230954
0.230955
0.230954
0.230955
0.230955
0.230955
0.230955
0.230956
0.230977
0.230977
0.230956
0.230955
0.230955
0.230955
0.230954
0.230955
0.230954
0.230955
0.230954
0.230955
0.230954
0.230955
0.230954
0.230955
0.230955
0.230954
0.230955
0.230954
0.230955
0.230954
0.230955
0.230954
0.230955
0.230954
0.230955
0.230955
0.230955
0.230956
0.230977
0.230977
0.230956
0.230955
0.230955
0.230955
0.230954
0.230955
0.230954
0.230955
0.230954
0.230955
0.230954
0.230955
0.230954
0.230955
0.230954
0.230955
0.230954
0.230955
0.230954
0.230955
0.230954
0.230955
0.230954
0.230955
0.230954
0.230955
0.230955
0.230956
0.230977
0.0173712
0.0119993
0.0191224
0.0579883
0.0936238
0.113758
0.181226
0.215104
0.227506
0.229965
0.230351
0.2306
0.230794
0.230874
0.229277
0.227881
0.227507
0.22754
0.227993
0.228491
0.228967
0.229275
0.229515
0.229702
0.229847
0.229964
0.230048
0.230118
0.230171
0.230222
0.230269
0.230284
0.230322
0.23034
0.230358
0.230387
0.230402
0.230432
0.230456
0.230486
0.230522
0.230551
0.230589
0.230615
0.230164
0.230152
0.230188
0.230228
0.230253
0.230284
0.230298
0.230325
0.230329
0.230353
0.230352
0.230371
0.230368
0.230383
0.230378
0.230392
0.230385
0.230399
0.23039
0.230402
0.230396
0.230402
0.230402
0.230402
0.230405
0.230404
0.230406
0.230407
0.230407
0.230409
0.230406
0.230406
0.230405
0.230407
0.230406
0.230408
0.230407
0.230408
0.230407
0.230409
0.230408
0.230409
0.230408
0.230408
0.230408
0.230408
0.230408
0.230409
0.230408
0.230409
0.230408
0.230409
0.230408
0.230409
0.230408
0.230408
0.230408
0.230408
0.230408
0.230409
0.23041
0.230408
0.230409
0.230408
0.230408
0.230409
0.230408
0.230409
0.230408
0.230409
0.230408
0.230409
0.230408
0.230408
0.230408
0.230408
0.230409
0.230408
0.230409
0.230408
0.230409
0.230408
0.230409
0.230408
0.230409
0.230408
0.230408
0.230409
0.230408
0.23041
0.23041
0.230408
0.230409
0.230408
0.230409
0.230408
0.230409
0.230408
0.230409
0.230408
0.230409
0.230408
0.230408
0.230408
0.230408
0.230409
0.230408
0.230409
0.230408
0.230409
0.230408
0.230409
0.230408
0.230409
0.230408
0.230408
0.230408
0.230408
0.230408
0.230409
0.23041
0.230408
0.230409
0.230408
0.230408
0.230408
0.230408
0.230409
0.230408
0.230409
0.230408
0.230409
0.230408
0.230409
0.230408
0.230409
0.230408
0.230409
0.230408
0.230409
0.230408
0.230409
0.230408
0.230409
0.230408
0.230409
0.230408
0.230408
0.230408
0.23041
0.23041
0.230408
0.230408
0.230408
0.230408
0.230409
0.230408
0.230409
0.230408
0.230409
0.230408
0.230409
0.230408
0.230409
0.230408
0.230408
0.230408
0.230409
0.230408
0.230409
0.230408
0.230409
0.230408
0.230409
0.230408
0.230408
0.230408
0.230408
0.230408
0.230409
0.230409
0.230408
0.230408
0.230408
0.230408
0.230409
0.230408
0.230409
0.230408
0.230409
0.230408
0.230409
0.230408
0.230409
0.230408
0.230408
0.230408
0.230409
0.230408
0.230409
0.230408
0.230409
0.230408
0.230409
0.230408
0.230408
0.230408
0.230408
0.230408
0.230409
0.230409
0.230408
0.230408
0.230408
0.230409
0.230408
0.230409
0.230408
0.230409
0.230408
0.230409
0.230408
0.230409
0.230408
0.230409
0.230408
0.230408
0.230408
0.230408
0.230408
0.230408
0.230409
0.230408
0.230409
0.230408
0.230409
0.230408
0.230409
0.230408
0.23041
0.230409
0.230408
0.230408
0.230408
0.230408
0.230409
0.230408
0.230409
0.230408
0.230409
0.230408
0.230409
0.230408
0.230409
0.230408
0.230408
0.230408
0.230409
0.230408
0.230409
0.230408
0.230409
0.230408
0.230409
0.230408
0.230408
0.230408
0.230408
0.230408
0.230409
0.23041
0.230408
0.230408
0.230408
0.230408
0.230409
0.230408
0.230409
0.230408
0.230409
0.230408
0.230409
0.230408
0.230408
0.230408
0.230408
0.230408
0.230408
0.230409
0.230408
0.230409
0.230408
0.230409
0.230408
0.230409
0.230408
0.230408
0.230408
0.230408
0.23041
0.230409
0.230409
0.230408
0.230409
0.230408
0.230409
0.230408
0.230409
0.230408
0.230409
0.230408
0.230409
0.230408
0.230409
0.230408
0.230408
0.230408
0.230408
0.230408
0.230409
0.230408
0.230409
0.230408
0.230408
0.230408
0.230408
0.230408
0.230408
0.230408
0.230409
0.00806463
0.00785918
0.00843692
0.0140864
0.033911
0.0557739
0.0592817
0.0807487
0.181726
0.22042
0.229318
0.229863
0.230305
0.230614
0.22788
0.226065
0.225383
0.224922
0.22505
0.225896
0.226833
0.227614
0.228108
0.22846
0.228707
0.228904
0.22906
0.229184
0.22929
0.229375
0.229445
0.229506
0.229567
0.229616
0.229655
0.229691
0.229731
0.229779
0.229819
0.229867
0.22992
0.229965
0.230031
0.230088
0.229222
0.229169
0.229277
0.22935
0.229433
0.229482
0.229548
0.229574
0.229624
0.229636
0.229674
0.22968
0.229707
0.229711
0.22973
0.229733
0.229745
0.229751
0.229755
0.229765
0.229761
0.229774
0.229768
0.22978
0.229774
0.229783
0.22978
0.229785
0.229786
0.229811
0.2298
0.229778
0.229782
0.229781
0.229784
0.229784
0.229786
0.229785
0.229787
0.229786
0.229787
0.229786
0.229787
0.229786
0.229786
0.229786
0.229786
0.229786
0.229786
0.229786
0.229786
0.229786
0.229786
0.229786
0.229786
0.229786
0.229786
0.229786
0.229787
0.229812
0.229811
0.229787
0.229786
0.229786
0.229786
0.229786
0.229786
0.229786
0.229786
0.229786
0.229786
0.229786
0.229786
0.229786
0.229786
0.229786
0.229786
0.229786
0.229786
0.229786
0.229786
0.229786
0.229786
0.229786
0.229786
0.229786
0.229786
0.229786
0.229787
0.229811
0.229811
0.229787
0.229786
0.229786
0.229786
0.229786
0.229786
0.229786
0.229786
0.229786
0.229786
0.229786
0.229786
0.229786
0.229786
0.229786
0.229786
0.229786
0.229786
0.229786
0.229786
0.229786
0.229786
0.229786
0.229786
0.229786
0.229786
0.229786
0.229787
0.229812
0.229811
0.229787
0.229786
0.229786
0.229786
0.229786
0.229786
0.229786
0.229786
0.229786
0.229786
0.229786
0.229786
0.229786
0.229786
0.229786
0.229786
0.229786
0.229786
0.229786
0.229786
0.229786
0.229786
0.229786
0.229786
0.229786
0.229786
0.229786
0.229787
0.229812
0.229811
0.229787
0.229786
0.229786
0.229786
0.229786
0.229786
0.229786
0.229786
0.229786
0.229786
0.229786
0.229786
0.229786
0.229786
0.229786
0.229786
0.229786
0.229786
0.229786
0.229786
0.229786
0.229786
0.229786
0.229786
0.229786
0.229786
0.229786
0.229787
0.229812
0.229811
0.229787
0.229786
0.229786
0.229786
0.229786
0.229786
0.229786
0.229786
0.229786
0.229786
0.229786
0.229786
0.229786
0.229786
0.229786
0.229786
0.229786
0.229786
0.229786
0.229786
0.229786
0.229786
0.229786
0.229786
0.229786
0.229786
0.229786
0.229787
0.229812
0.229812
0.229787
0.229786
0.229786
0.229786
0.229786
0.229786
0.229786
0.229786
0.229786
0.229786
0.229786
0.229786
0.229786
0.229786
0.229786
0.229786
0.229786
0.229786
0.229786
0.229786
0.229786
0.229786
0.229786
0.229786
0.229786
0.229786
0.229786
0.229787
0.229811
0.229812
0.229787
0.229786
0.229786
0.229786
0.229786
0.229786
0.229786
0.229786
0.229786
0.229786
0.229786
0.229786
0.229786
0.229786
0.229786
0.229786
0.229786
0.229786
0.229786
0.229786
0.229786
0.229786
0.229786
0.229786
0.229786
0.229786
0.229786
0.229787
0.229812
0.229811
0.229787
0.229786
0.229786
0.229786
0.229786
0.229786
0.229786
0.229786
0.229786
0.229786
0.229786
0.229786
0.229786
0.229786
0.229786
0.229786
0.229786
0.229786
0.229786
0.229786
0.229786
0.229786
0.229786
0.229786
0.229786
0.229786
0.229786
0.229787
0.229811
0.229812
0.229787
0.229786
0.229786
0.229786
0.229786
0.229786
0.229786
0.229786
0.229786
0.229786
0.229786
0.229786
0.229786
0.229786
0.229786
0.229786
0.229786
0.229786
0.229786
0.229786
0.229786
0.229786
0.229786
0.229786
0.229786
0.229786
0.229786
0.229787
0.229812
0.00831827
0.00888944
0.00879057
0.00830339
0.0102754
0.0158972
0.0202164
0.0320612
0.0365663
0.0581149
0.212556
0.22845
0.229441
0.230164
0.226655
0.226046
0.225374
0.22423
0.223169
0.223085
0.224098
0.225334
0.226261
0.226819
0.227187
0.22745
0.227667
0.227831
0.227963
0.228069
0.228164
0.228246
0.228305
0.228369
0.228425
0.228456
0.228519
0.228573
0.228638
0.228732
0.22882
0.228949
0.229105
0.229248
0.227701
0.227639
0.227821
0.227998
0.228128
0.228224
0.228288
0.228351
0.228377
0.228428
0.228434
0.228477
0.228473
0.228508
0.228502
0.228528
0.228524
0.228541
0.22854
0.228551
0.228551
0.228561
0.228559
0.228569
0.228563
0.228576
0.228569
0.228581
0.228579
0.228578
0.228558
0.228572
0.228573
0.228577
0.228577
0.22858
0.22858
0.228583
0.228582
0.228584
0.228583
0.228585
0.228584
0.228585
0.228585
0.228585
0.228585
0.228585
0.228585
0.228585
0.228585
0.228585
0.228585
0.228585
0.228585
0.228585
0.228584
0.228584
0.228584
0.228575
0.228575
0.228584
0.228585
0.228584
0.228585
0.228585
0.228585
0.228585
0.228585
0.228585
0.228585
0.228585
0.228585
0.228585
0.228585
0.228585
0.228585
0.228585
0.228585
0.228585
0.228585
0.228585
0.228585
0.228585
0.228585
0.228585
0.228584
0.228585
0.228584
0.228575
0.228575
0.228584
0.228584
0.228584
0.228585
0.228585
0.228585
0.228585
0.228585
0.228585
0.228585
0.228585
0.228585
0.228585
0.228585
0.228585
0.228585
0.228585
0.228585
0.228585
0.228585
0.228585
0.228585
0.228585
0.228585
0.228585
0.228584
0.228584
0.228584
0.228575
0.228575
0.228584
0.228584
0.228584
0.228585
0.228585
0.228585
0.228585
0.228585
0.228585
0.228585
0.228585
0.228585
0.228585
0.228585
0.228585
0.228585
0.228585
0.228585
0.228585
0.228585
0.228585
0.228585
0.228585
0.228585
0.228585
0.228584
0.228584
0.228584
0.228575
0.228575
0.228584
0.228585
0.228584
0.228585
0.228585
0.228585
0.228585
0.228585
0.228585
0.228585
0.228585
0.228585
0.228585
0.228585
0.228585
0.228585
0.228585
0.228585
0.228585
0.228585
0.228585
0.228585
0.228585
0.228585
0.228585
0.228584
0.228584
0.228584
0.228575
0.228575
0.228584
0.228584
0.228584
0.228584
0.228585
0.228585
0.228585
0.228585
0.228585
0.228585
0.228585
0.228585
0.228585
0.228585
0.228585
0.228585
0.228585
0.228585
0.228585
0.228585
0.228585
0.228585
0.228585
0.228585
0.228585
0.228584
0.228584
0.228584
0.228575
0.228575
0.228584
0.228584
0.228584
0.228585
0.228585
0.228585
0.228585
0.228585
0.228585
0.228585
0.228585
0.228585
0.228585
0.228585
0.228585
0.228585
0.228585
0.228585
0.228585
0.228585
0.228585
0.228585
0.228585
0.228585
0.228585
0.228584
0.228585
0.228584
0.228575
0.228575
0.228584
0.228584
0.228584
0.228584
0.228585
0.228585
0.228585
0.228585
0.228585
0.228585
0.228585
0.228585
0.228585
0.228585
0.228585
0.228585
0.228585
0.228585
0.228585
0.228585
0.228585
0.228585
0.228585
0.228585
0.228585
0.228584
0.228584
0.228584
0.228575
0.228575
0.228584
0.228584
0.228585
0.228585
0.228585
0.228585
0.228585
0.228585
0.228585
0.228585
0.228585
0.228585
0.228585
0.228585
0.228585
0.228585
0.228585
0.228585
0.228585
0.228585
0.228585
0.228585
0.228585
0.228585
0.228585
0.228584
0.228584
0.228584
0.228575
0.228575
0.228584
0.228584
0.228584
0.228584
0.228585
0.228585
0.228585
0.228585
0.228585
0.228585
0.228585
0.228585
0.228585
0.228585
0.228585
0.228585
0.228585
0.228585
0.228585
0.228585
0.228585
0.228585
0.228585
0.228585
0.228585
0.228584
0.228585
0.228584
0.228575
0.0095677
0.00925347
0.00696729
0.00330203
0.00182581
0.00372699
0.00555196
0.00890503
0.011375
0.0165246
0.166193
0.220624
0.228457
0.229813
0.22724
0.22729
0.226758
0.225249
0.223115
0.221628
0.221725
0.222926
0.224123
0.224941
0.225425
0.225766
0.226045
0.226259
0.226445
0.226602
0.226729
0.226861
0.226958
0.227063
0.227152
0.227209
0.22731
0.227379
0.227479
0.227587
0.227717
0.227913
0.228162
0.228398
0.226069
0.225869
0.226115
0.226413
0.226658
0.226828
0.226945
0.22704
0.227106
0.227167
0.227208
0.227248
0.227279
0.227301
0.22733
0.227338
0.227366
0.227366
0.227391
0.22739
0.227406
0.227412
0.227415
0.22743
0.227422
0.227444
0.227434
0.227455
0.227454
0.227468
0.227413
0.227425
0.227438
0.227439
0.227445
0.227445
0.227449
0.227449
0.227451
0.227451
0.227452
0.227452
0.227452
0.227452
0.227452
0.227452
0.227452
0.227452
0.227452
0.227452
0.227452
0.227452
0.227452
0.227452
0.227452
0.227452
0.227453
0.227454
0.227454
0.227447
0.227447
0.227454
0.227454
0.227453
0.227452
0.227452
0.227452
0.227452
0.227452
0.227452
0.227452
0.227452
0.227452
0.227452
0.227452
0.227452
0.227452
0.227452
0.227452
0.227452
0.227452
0.227452
0.227452
0.227452
0.227452
0.227452
0.227453
0.227453
0.227454
0.227447
0.227447
0.227454
0.227453
0.227453
0.227452
0.227452
0.227452
0.227452
0.227452
0.227452
0.227452
0.227452
0.227452
0.227452
0.227452
0.227452
0.227452
0.227452
0.227452
0.227452
0.227452
0.227452
0.227452
0.227452
0.227452
0.227452
0.227453
0.227454
0.227454
0.227447
0.227447
0.227454
0.227453
0.227453
0.227452
0.227452
0.227452
0.227452
0.227452
0.227452
0.227452
0.227452
0.227452
0.227452
0.227452
0.227452
0.227452
0.227452
0.227452
0.227452
0.227452
0.227452
0.227452
0.227452
0.227452
0.227452
0.227453
0.227454
0.227454
0.227447
0.227447
0.227454
0.227454
0.227453
0.227452
0.227452
0.227452
0.227452
0.227452
0.227452
0.227452
0.227452
0.227452
0.227452
0.227452
0.227452
0.227452
0.227452
0.227452
0.227452
0.227452
0.227452
0.227452
0.227452
0.227452
0.227452
0.227453
0.227454
0.227454
0.227447
0.227447
0.227454
0.227454
0.227453
0.227452
0.227452
0.227452
0.227452
0.227452
0.227452
0.227452
0.227452
0.227452
0.227452
0.227452
0.227452
0.227452
0.227452
0.227452
0.227452
0.227452
0.227452
0.227452
0.227452
0.227452
0.227452
0.227453
0.227454
0.227454
0.227447
0.227447
0.227454
0.227454
0.227453
0.227452
0.227452
0.227452
0.227452
0.227452
0.227452
0.227452
0.227452
0.227452
0.227452
0.227452
0.227452
0.227452
0.227452
0.227452
0.227452
0.227452
0.227452
0.227452
0.227452
0.227452
0.227452
0.227453
0.227454
0.227454
0.227447
0.227447
0.227454
0.227454
0.227453
0.227452
0.227452
0.227452
0.227452
0.227452
0.227452
0.227452
0.227452
0.227452
0.227452
0.227452
0.227452
0.227452
0.227452
0.227452
0.227452
0.227452
0.227452
0.227452
0.227452
0.227452
0.227452
0.227453
0.227454
0.227454
0.227447
0.227447
0.227454
0.227453
0.227453
0.227452
0.227452
0.227452
0.227452
0.227452
0.227452
0.227452
0.227452
0.227452
0.227452
0.227452
0.227452
0.227452
0.227452
0.227452
0.227452
0.227452
0.227452
0.227452
0.227452
0.227452
0.227452
0.227453
0.227453
0.227454
0.227447
0.227447
0.227454
0.227454
0.227453
0.227452
0.227452
0.227452
0.227452
0.227452
0.227452
0.227452
0.227452
0.227452
0.227452
0.227452
0.227452
0.227452
0.227452
0.227452
0.227452
0.227452
0.227452
0.227452
0.227452
0.227452
0.227453
0.227453
0.227454
0.227456
0.227449
0.0078565
0.00427908
0.000704648
0.000103245
9.26601e-05
0.00025634
0.00101229
0.00152153
0.00151413
0.00190769
0.001884
0.00637326
0.165564
0.220755
0.225751
0.224833
0.224561
0.226603
0.226902
0.225457
0.223166
0.220996
0.220226
0.220914
0.222016
0.222855
0.223409
0.223747
0.224036
0.224259
0.224455
0.224604
0.224746
0.224874
0.224982
0.225077
0.225168
0.225252
0.225337
0.225441
0.225554
0.225703
0.225907
0.226169
0.2265
0.226997
0.226393
0.225803
0.224828
0.224162
0.224154
0.224476
0.224733
0.224898
0.225006
0.225098
0.225154
0.225219
0.22525
0.225295
0.225316
0.225347
0.225362
0.225384
0.225394
0.225412
0.225418
0.225435
0.225435
0.225453
0.225448
0.225466
0.22546
0.225478
0.225475
0.225492
0.225496
0.225484
0.225424
0.225425
0.225414
0.225472
0.225473
0.225486
0.225485
0.225491
0.22549
0.225495
0.225494
0.225497
0.225497
0.225499
0.225499
0.2255
0.2255
0.2255
0.2255
0.2255
0.2255
0.2255
0.2255
0.2255
0.2255
0.2255
0.225501
0.225501
0.225501
0.225501
0.225499
0.225456
0.225419
0.225419
0.225456
0.225499
0.225501
0.225501
0.225501
0.225501
0.2255
0.2255
0.2255
0.2255
0.2255
0.2255
0.2255
0.2255
0.2255
0.2255
0.2255
0.2255
0.2255
0.2255
0.2255
0.2255
0.2255
0.2255
0.225501
0.225501
0.225501
0.225501
0.225499
0.225456
0.225419
0.225419
0.225456
0.225499
0.225501
0.225501
0.225501
0.225501
0.2255
0.2255
0.2255
0.2255
0.2255
0.2255
0.2255
0.2255
0.2255
0.2255
0.2255
0.2255
0.2255
0.2255
0.2255
0.2255
0.2255
0.2255
0.225501
0.225501
0.225501
0.225501
0.225499
0.225456
0.225419
0.225419
0.225456
0.225499
0.225501
0.225501
0.225501
0.225501
0.225501
0.2255
0.2255
0.2255
0.2255
0.2255
0.2255
0.2255
0.2255
0.2255
0.2255
0.2255
0.2255
0.2255
0.2255
0.2255
0.2255
0.2255
0.225501
0.225501
0.225501
0.225501
0.225499
0.225456
0.225419
0.225419
0.225456
0.225499
0.225501
0.225501
0.225501
0.225501
0.225501
0.2255
0.2255
0.2255
0.2255
0.2255
0.2255
0.2255
0.2255
0.2255
0.2255
0.2255
0.2255
0.2255
0.225501
0.2255
0.2255
0.2255
0.225501
0.225501
0.225501
0.225501
0.225499
0.225456
0.225419
0.225419
0.225456
0.225499
0.225501
0.225501
0.225501
0.225501
0.225501
0.2255
0.2255
0.2255
0.2255
0.2255
0.2255
0.2255
0.2255
0.2255
0.2255
0.2255
0.2255
0.2255
0.225501
0.2255
0.2255
0.2255
0.225501
0.225501
0.225501
0.225501
0.225499
0.225456
0.225419
0.225419
0.225456
0.225499
0.225501
0.225501
0.225501
0.225501
0.2255
0.225501
0.2255