/*--------------------------------*- C++ -*----------------------------------*\
| =========                 |                                                 |
| \\      /  F ield         | OpenFOAM: The Open Source CFD Toolbox           |
|  \\    /   O peration     | Version:  2.1.1                                 |
|   \\  /    A nd           | Web:      www.OpenFOAM.org                      |
|    \\/     M anipulation  |                                                 |
\*---------------------------------------------------------------------------*/
FoamFile
{
    version     2.0;
    format      ascii;
    class       volScalarField;
    location    "0.000950000";
    object      omega;
}
// * * * * * * * * * * * * * * * * * * * * * * * * * * * * * * * * * * * * * //

dimensions      [0 0 -1 0 0 0 0];

internalField   nonuniform List<scalar> 
12384
(
647.172
632.269
623.501
623.954
622.577
627.233
624.299
625.803
626.019
621.859
621.569
624.43
619.69
615.414
615.951
618.634
619.192
620.827
622.1
623.312
625.011
626.203
627.46
627.725
627.765
627.851
627.644
627.285
626.737
626.473
626.328
625.952
625.551
625.34
625.095
624.236
623.798
622.914
622.231
621.571
620.152
619.403
617.883
617.105
619.723
619.856
620.262
620.45
620.561
620.72
620.703
620.854
620.798
621.029
620.797
621.044
620.878
621.018
620.899
620.967
620.995
620.767
621.112
620.724
621.022
620.74
620.928
620.73
620.837
620.675
620.78
620.619
620.652
620.548
620.911
620.931
620.93
620.948
620.941
620.956
620.949
620.966
620.958
620.973
620.966
620.978
620.974
620.976
620.978
620.978
620.978
620.979
620.978
620.979
620.976
620.978
620.975
620.977
620.973
620.974
620.972
620.97
620.967
620.968
620.961
620.971
620.976
620.975
620.975
620.977
620.976
620.979
620.977
620.979
620.978
620.981
620.978
620.977
620.982
620.981
620.98
620.978
620.981
620.978
620.979
620.977
620.979
620.975
620.976
620.977
620.975
620.976
620.971
620.961
620.961
620.971
620.976
620.975
620.978
620.976
620.977
620.976
620.978
620.977
620.98
620.98
620.978
620.979
620.979
620.98
620.978
620.98
620.978
620.98
620.976
620.978
620.975
620.976
620.973
620.973
620.971
620.97
620.967
620.968
620.96
620.97
620.975
620.976
620.977
620.976
620.975
620.978
620.977
620.979
620.978
620.981
620.978
620.981
620.978
620.981
620.977
620.98
620.978
620.979
620.976
620.977
620.976
620.977
620.975
620.977
620.974
620.977
620.971
620.961
620.961
620.972
620.975
620.976
620.976
620.978
620.976
620.979
620.977
620.979
620.979
620.981
620.978
620.98
620.977
620.981
620.978
620.98
620.978
620.98
620.976
620.978
620.975
620.976
620.973
620.973
620.972
620.971
620.967
620.968
620.968
620.967
620.969
620.972
620.973
620.975
620.975
620.977
620.976
620.978
620.978
620.98
620.978
620.98
620.977
620.981
620.978
620.98
620.978
620.98
620.976
620.978
620.975
620.976
620.973
620.973
620.971
620.97
620.967
620.968
620.968
620.968
620.971
620.971
620.975
620.973
620.976
620.976
620.978
620.976
620.979
620.978
620.98
620.978
620.98
620.977
620.98
620.976
620.979
620.978
620.976
620.978
620.977
620.977
620.975
620.978
620.974
620.976
620.972
620.961
620.97
620.967
620.969
620.972
620.973
620.975
620.974
620.977
620.976
620.978
620.978
620.98
620.978
620.98
620.977
620.981
620.978
620.98
620.979
620.98
620.976
620.978
620.975
620.976
620.973
620.973
620.972
620.971
620.967
620.968
620.961
620.971
620.975
620.976
620.977
620.978
620.975
620.978
620.976
620.978
620.977
620.98
620.978
620.979
620.981
620.981
620.978
620.977
620.98
620.978
620.978
620.976
620.978
620.976
620.978
620.977
620.976
620.974
620.972
620.961
620.97
620.968
620.97
620.973
620.976
620.976
620.979
620.978
620.979
620.979
620.98
620.98
620.979
620.98
620.98
620.981
620.979
620.981
620.978
620.978
620.976
620.978
620.976
620.977
620.974
620.975
620.972
620.97
620.968
620.969
801.9
4953.38
4787.7
4824.91
5299.28
6701.92
7914.03
8581.01
8838.74
8166.71
6541.27
4996.55
3754.55
622.479
606.454
2475.23
3264.85
4564.63
6236.18
8087.14
9964.29
11711.6
13270.9
14563.3
15573.2
16309.4
16740
16835.7
16622.4
16147.7
15476.5
14663.6
13690.3
12577.4
11304.2
9927.32
8502.74
7061.55
5628.18
4251.09
2921
1724.82
809.205
617.326
615.553
276.087
324.189
390.06
461.051
524.612
571.162
595.709
601.386
593.14
574.853
545.422
508.529
467.097
423.821
381.254
340.639
302.738
267.537
236.032
208.443
184.404
163.352
145.069
129.383
116.319
105.508
97.2264
93.4635
620.084
620.364
90.0704
87.6843
87.6871
87.6868
87.6828
87.6935
87.7119
87.7363
87.7713
87.8015
87.836
87.8926
87.9874
88.0451
88.0409
87.9815
87.9212
87.8669
87.8387
87.8057
87.7709
87.7373
87.7071
87.6824
87.677
87.6725
87.6665
90.1581
620.47
620.453
90.1026
87.6531
87.6748
87.6836
87.6839
87.7068
87.7346
87.7655
87.8042
87.8349
87.8736
87.9356
88.0186
88.0303
88.0439
87.9938
87.9222
87.8685
87.8329
87.8029
87.765
87.7344
87.7059
87.6833
87.68
87.6825
87.6588
90.1076
620.453
620.463
90.086
87.6474
87.6698
87.6822
87.6935
87.7133
87.7399
87.773
87.8115
87.847
87.8731
87.9297
87.9923
88.0428
88.0394
87.9798
87.92
87.8645
87.8372
87.8047
87.7703
87.7387
87.7108
87.6865
87.6802
87.6732
87.6643
90.1544
620.471
620.453
90.1097
87.664
87.6891
87.6773
87.6798
87.7031
87.7333
87.7658
87.8045
87.8342
87.8676
87.9129
87.9763
88.0249
88.0407
88.0008
87.9324
87.8689
87.833
87.7929
87.754
87.7267
87.7013
87.6807
87.6709
87.661
87.6484
90.0963
620.467
620.454
90.1098
87.6444
87.6578
87.6763
87.6899
87.7157
87.745
87.7755
87.8107
87.8372
87.87
87.9196
87.9899
88.0441
88.0458
87.9885
87.9231
87.8641
87.8359
87.8041
87.7707
87.7388
87.7114
87.6883
87.682
87.6735
87.6623
90.1527
620.471
620.473
90.1209
87.6433
87.6684
87.6831
87.6983
87.7175
87.7447
87.7717
87.8064
87.8322
87.8659
87.9169
87.9906
88.0444
88.0442
87.9885
87.9247
87.8658
87.8367
87.8043
87.7703
87.7374
87.7088
87.6856
87.6802
87.6733
87.6639
90.1551
620.47
620.472
90.1212
87.6436
87.6613
87.6788
87.6925
87.7192
87.7456
87.7777
87.8088
87.8402
87.8659
87.9164
87.9721
88.0303
88.0414
88.0009
87.9149
87.8561
87.8271
87.806
87.7765
87.7478
87.7172
87.6931
87.6784
87.6635
87.6374
90.0869
620.457
620.469
90.1255
87.6475
87.6745
87.6875
87.7026
87.7211
87.75
87.7779
87.8119
87.8365
87.8682
87.915
87.9851
88.0413
88.0456
87.9921
87.9256
87.8642
87.8354
87.8027
87.7679
87.7359
87.7071
87.683
87.6768
87.6709
87.6647
90.1539
620.471
620.454
90.1179
87.6652
87.6667
87.6701
87.6766
87.7019
87.7342
87.7685
87.8063
87.8359
87.8709
87.9233
87.9918
88.0447
88.0454
87.9966
87.9254
87.8709
87.8356
87.807
87.7705
87.7387
87.7093
87.6872
87.6807
87.6712
87.6598
90.1145
620.453
620.471
90.1204
87.6426
87.668
87.6841
87.6992
87.7136
87.7385
87.7611
87.7915
87.8152
87.8537
87.9057
87.9807
88.0331
88.0448
87.9938
87.9278
87.8696
87.8429
87.8049
87.7691
87.7321
87.7008
87.6763
87.6693
87.6682
87.6679
90.1625
620.47
858.181
7320.9
5129.07
4147.19
4205.68
6176.1
6689.89
6992.31
7161.51
6678.21
5616.71
4504.98
4130.78
611.143
601.344
4925.32
5607.8
6613.64
7849.09
9140.26
10369.7
11407
12149.1
12621.8
12870.1
12923.8
12779
12484.2
12028.8
11465.9
10781.6
10028.2
9258.66
8473.61
7604.45
6702.07
5750.78
4777.31
3826.71
2916.5
2067.96
1318.94
729.328
601.523
600.001
490.012
482.78
494.125
508.533
517.066
516.009
506.169
489.263
467.284
441.845
413.092
382.721
351.766
321.187
291.276
262.341
234.7
209.603
187.702
168.762
152.187
137.616
125.207
114.739
105.921
98.5233
92.6942
90.1642
599.503
599.618
87.5537
85.8199
85.7481
85.6883
85.6349
85.5966
85.5649
85.5478
85.5325
85.5285
85.5206
85.5156
85.5037
85.4991
85.4977
85.5087
85.5145
85.5234
85.5231
85.5287
85.5302
85.538
85.5415
85.552
85.5587
85.5672
85.5815
87.3389
599.601
599.636
87.3395
85.5779
85.5688
85.5607
85.5549
85.5473
85.5379
85.535
85.5274
85.5273
85.5205
85.5159
85.5037
85.5002
85.4989
85.5052
85.5174
85.5205
85.5266
85.5262
85.5338
85.5364
85.5459
85.5528
85.5604
85.5679
85.5777
87.3408
599.637
599.632
87.3221
85.5772
85.5685
85.5599
85.5552
85.5452
85.5418
85.5338
85.5314
85.5251
85.5228
85.5126
85.5044
85.4985
85.4967
85.508
85.5142
85.5234
85.5233
85.529
85.5307
85.5387
85.5421
85.5525
85.5591
85.567
85.5807
87.3383
599.603
599.638
87.3404
85.5783
85.568
85.5608
85.5511
85.5449
85.5357
85.5331
85.5254
85.5257
85.5197
85.5175
85.5066
85.5012
85.4957
85.504
85.5106
85.5212
85.5239
85.5316
85.5363
85.5447
85.5482
85.5578
85.5629
85.5712
85.5804
87.3073
599.616
599.636
87.3408
85.5773
85.5624
85.5584
85.5486
85.5443
85.5354
85.534
85.5269
85.5273
85.5207
85.5169
85.5046
85.4991
85.496
85.5068
85.5132
85.523
85.5232
85.5289
85.5305
85.5384
85.5419
85.5523
85.5588
85.5664
85.58
87.3398
599.602
599.61
87.3229
85.5801
85.565
85.5615
85.551
85.5465
85.5375
85.5356
85.528
85.528
85.5212
85.517
85.5047
85.4991
85.4961
85.5069
85.5132
85.5228
85.523
85.5288
85.5304
85.5382
85.5418
85.5522
85.5588
85.5668
85.5807
87.3396
599.601
599.603
87.339
85.5766
85.5653
85.5572
85.5523
85.5422
85.5394
85.5316
85.5306
85.5248
85.5247
85.5159
85.5104
85.4986
85.4977
85.5
85.5125
85.5204
85.5283
85.532
85.5366
85.5448
85.5484
85.5579
85.5622
85.5699
85.5775
87.3253
599.636
599.601
87.3455
85.5784
85.5633
85.5603
85.5502
85.546
85.5369
85.5353
85.5281
85.5286
85.5219
85.518
85.5059
85.4998
85.4955
85.5057
85.5123
85.5223
85.5228
85.5288
85.5306
85.5386
85.5422
85.5525
85.5593
85.5677
85.5812
87.3367
599.603
599.638
87.3418
85.5791
85.5673
85.559
85.5489
85.544
85.5349
85.5329
85.5255
85.526
85.5195
85.5164
85.5048
85.4979
85.4983
85.5049
85.5168
85.5203
85.5269
85.5263
85.5338
85.5355
85.5447
85.5494
85.5595
85.5649
85.5771
87.3422
599.635
599.602
87.3467
85.577
85.5615
85.5584
85.5481
85.5439
85.5342
85.5327
85.5254
85.5264
85.5207
85.5188
85.5076
85.5013
85.4949
85.5047
85.5127
85.5227
85.5225
85.5283
85.5296
85.5374
85.541
85.5512
85.5584
85.5676
85.5822
87.337
599.602
3285.33
17196.1
9993.94
8215.39
8339.27
10907.1
10569.9
9793.2
9146.48
8131.98
6958.46
6167.07
5750.54
600.572
606.649
8712.96
10028.3
11118.4
12117.7
13128.8
14030.5
14724.9
15118.2
15191.4
15022.7
14645.6
14194.5
13652.6
12992.9
12206.2
11359.8
10516.3
9688.82
8810.16
7890.23
6947.47
5975.96
4994.07
4012.52
3071.27
2213.11
1485.71
928.52
600.467
601.579
870.385
797.469
764.81
736.805
704.51
670.009
633.231
593.721
551.407
507.751
463.387
420.115
378.475
339.326
303.66
271.742
243.259
217.657
194.709
174.08
156.031
140.512
127.346
116.13
106.763
99.2766
93.462
91.6228
599.989
600.07
88.7042
85.9543
85.8281
85.7237
85.6334
85.5615
85.509
85.4745
85.4536
85.4421
85.4362
85.4336
85.4323
85.4319
85.4319
85.4318
85.4322
85.4325
85.4329
85.4332
85.4331
85.4333
85.4335
85.4338
85.4328
85.4349
85.4502
88.1805
600.068
600.044
88.1899
85.4498
85.436
85.434
85.4324
85.4343
85.4334
85.4333
85.433
85.4329
85.4325
85.4324
85.4317
85.4311
85.4334
85.4321
85.4324
85.4326
85.4329
85.433
85.4332
85.4334
85.434
85.4325
85.434
85.436
85.4495
88.1921
600.044
600.044
88.1945
85.4504
85.4357
85.4345
85.4339
85.4337
85.4335
85.4332
85.433
85.4326
85.4327
85.4318
85.4308
85.4323
85.4323
85.4321
85.4323
85.4326
85.433
85.4333
85.4331
85.4332
85.4334
85.4337
85.433
85.4351
85.4505
88.1819
600.068
600.043
88.1943
85.4494
85.4361
85.4343
85.4329
85.434
85.4334
85.4334
85.4332
85.4331
85.4328
85.4324
85.4322
85.4321
85.4323
85.4321
85.4322
85.4325
85.4327
85.4328
85.433
85.4334
85.4339
85.4342
85.4348
85.4364
85.4514
88.1986
600.046
600.042
88.1997
85.4494
85.4355
85.4349
85.4339
85.4337
85.4334
85.4334
85.4331
85.4328
85.4324
85.432
85.4317
85.4315
85.4318
85.4317
85.4321
85.4324
85.4328
85.4331
85.433
85.4332
85.4333
85.4335
85.4329
85.4352
85.4504
88.1818
600.068
600.065
88.185
85.4496
85.4349
85.4338
85.4333
85.4333
85.4332
85.4332
85.433
85.4327
85.4323
85.432
85.4317
85.4315
85.4318
85.4317
85.4321
85.4324
85.4328
85.4331
85.433
85.4332
85.4333
85.4336
85.4328
85.4352
85.4503
88.1809
600.069
600.067
88.1847
85.4496
85.4364
85.4339
85.4336
85.4335
85.4333
85.4332
85.4332
85.4329
85.4326
85.4323
85.432
85.4321
85.4319
85.4321
85.4322
85.4319
85.4335
85.4339
85.433
85.4334
85.4338
85.4342
85.4348
85.4362
85.4506
88.1979
600.044
600.069
88.1816
85.4496
85.4348
85.4337
85.4332
85.4333
85.4331
85.4331
85.4329
85.4327
85.4323
85.432
85.4317
85.4315
85.4318
85.4317
85.4321
85.4324
85.4326
85.433
85.4329
85.4332
85.4334
85.4337
85.433
85.435
85.4504
88.1823
600.068
600.041
88.1981
85.4488
85.4353
85.4352
85.4337
85.4338
85.4333
85.4332
85.433
85.4328
85.4324
85.4321
85.4316
85.4329
85.4326
85.4314
85.4319
85.4323
85.4326
85.4329
85.4331
85.4332
85.4334
85.4335
85.4348
85.4348
85.4487
88.1954
600.043
600.068
88.1848
85.4495
85.4348
85.4338
85.4333
85.4334
85.4334
85.4335
85.4333
85.4332
85.4328
85.4323
85.4318
85.4313
85.4314
85.4311
85.4312
85.4315
85.4322
85.4325
85.4325
85.4328
85.4328
85.4335
85.4323
85.4345
85.4498
88.1812
600.069
5756.94
23330.2
23775.4
19068
16148.5
17926.2
17772.7
16527.1
14684.2
12317.7
10400
9366.32
8905.56
608.677
613.092
14215.9
17784.8
19375.9
19800.9
19869.2
19923.4
19925.5
19727.6
19264.2
18586.8
17739.4
16827
15895.7
14932.3
13936
12883.7
11819.1
10766.1
9778.93
8823.76
7846.19
6826.56
5765.09
4698.67
3674.73
2736.93
1938.78
1339.87
601.911
604.429
1495.76
1296.68
1182.21
1090.93
1000.15
914.929
835.01
758.181
685.387
616.711
552.652
493.152
438.009
387.424
342.393
302.651
267.978
237.209
210.504
187.248
166.525
148.396
133.265
120.711
110.143
101.243
94.5538
92.2607
602.225
602.379
89.3843
86.4301
86.1982
86.0066
85.84
85.7016
85.604
85.5335
85.494
85.4669
85.4571
85.448
85.4481
85.444
85.4469
85.4438
85.4477
85.4446
85.4484
85.4448
85.4482
85.4446
85.4478
85.4445
85.448
85.4465
85.4577
88.2236
602.34
602.373
88.2244
85.4616
85.4451
85.4472
85.448
85.4446
85.4478
85.4445
85.4481
85.4446
85.4481
85.4442
85.447
85.4453
85.4434
85.4475
85.4444
85.4483
85.4446
85.4484
85.4446
85.4479
85.4447
85.4478
85.4468
85.4451
85.4616
88.2244
602.372
602.364
88.2302
85.4619
85.4454
85.4481
85.4447
85.4479
85.4446
85.448
85.4446
85.4477
85.4439
85.4469
85.447
85.4436
85.4472
85.444
85.4479
85.4447
85.4484
85.4449
85.4482
85.4447
85.4478
85.4445
85.4479
85.4465
85.458
88.2253
602.341
602.372
88.2246
85.4614
85.4451
85.4461
85.4479
85.4447
85.448
85.4447
85.4485
85.4448
85.4485
85.4444
85.4477
85.444
85.4474
85.4441
85.4476
85.4445
85.4472
85.4446
85.4473
85.4446
85.4478
85.4449
85.4481
85.4455
85.4614
88.2343
602.361
602.371
88.2263
85.46
85.4484
85.4447
85.448
85.4446
85.4483
85.4447
85.4485
85.4444
85.4481
85.444
85.447
85.4435
85.4469
85.4437
85.4477
85.4445
85.4482
85.4448
85.4482
85.4446
85.4477
85.4445
85.4478
85.4462
85.4578
88.2248
602.341
602.349
88.2255
85.4584
85.4483
85.4448
85.448
85.4446
85.4482
85.4447
85.4484
85.4444
85.4479
85.444
85.447
85.4435
85.4469
85.4438
85.4478
85.4446
85.4482
85.4448
85.4481
85.4446
85.4477
85.4445
85.4479
85.4462
85.4578
88.2237
602.341
602.344
88.2254
85.4596
85.4454
85.448
85.4446
85.4482
85.4448
85.4485
85.445
85.4484
85.4448
85.448
85.4441
85.4473
85.4439
85.4472
85.4441
85.4472
85.4449
85.4449
85.4474
85.4446
85.4479
85.4449
85.4482
85.4456
85.4621
88.2288
602.369
602.341
88.226
85.4579
85.4481
85.4446
85.448
85.4445
85.4482
85.4447
85.4485
85.4445
85.448
85.444
85.4471
85.4435
85.4469
85.4438
85.4476
85.4445
85.4482
85.4447
85.448
85.4446
85.4477
85.4445
85.4478
85.4465
85.458
88.2259
602.341
602.372
88.2262
85.4613
85.4458
85.4456
85.4479
85.4445
85.448
85.4446
85.4484
85.4446
85.4482
85.4442
85.4472
85.4434
85.4439
85.447
85.444
85.448
85.4443
85.4483
85.4444
85.448
85.4444
85.4479
85.4448
85.4466
85.4609
88.2257
602.372
602.343
88.227
85.4579
85.4484
85.4448
85.4482
85.4446
85.4485
85.4448
85.4488
85.4448
85.4485
85.4442
85.4471
85.4432
85.4462
85.443
85.4464
85.4437
85.4476
85.4442
85.4477
85.444
85.4471
85.444
85.4473
85.4462
85.4575
88.2226
602.341
5942.7
26295.8
30528.6
32942.8
31955.2
34207.1
28497.5
24085.8
22987.3
20190.3
16835.6
14917.9
13987.3
615.105
621.482
22067.4
31103.6
34884.8
34131.6
31724.8
29473.7
27643.2
26060.7
24578.5
23119.5
21673.8
20269.9
18919.5
17592
16270.3
14907
13553.7
12254.8
11038.1
9906.73
8828.96
7742.12
6643.39
5563.66
4522.87
3546.29
2689.61
2067.37
604.308
608.917
2515.2
2065.18
1788.91
1585.24
1398.45
1234.33
1088.82
961.267
848.898
748.408
658.379
578.315
507.912
445.526
390.131
341.576
299.104
261.968
230.415
202.735
178.615
157.864
140.109
125.577
114.045
104.622
96.8173
93.4342
604.701
604.896
90.2516
87.133
86.7208
86.3858
86.1055
85.883
85.7214
85.6101
85.5405
85.4961
85.4742
85.4607
85.4569
85.4536
85.4547
85.4531
85.4554
85.4543
85.4562
85.4546
85.4561
85.4543
85.4556
85.4541
85.4549
85.4537
85.4656
88.1673
604.821
604.824
88.166
85.4674
85.4537
85.4549
85.4557
85.4542
85.4555
85.4543
85.4561
85.4543
85.456
85.4538
85.4542
85.4553
85.4533
85.4552
85.454
85.4564
85.4545
85.4563
85.4544
85.4558
85.4543
85.4556
85.4551
85.4535
85.4672
88.1664
604.824
604.827
88.1593
85.468
85.4536
85.4553
85.4543
85.4559
85.4542
85.4559
85.4543
85.4556
85.4541
85.4551
85.4544
85.4535
85.4552
85.4536
85.4558
85.4545
85.4563
85.4546
85.4561
85.4543
85.4555
85.454
85.4547
85.4539
85.4659
88.1666
604.821
604.823
88.1667
85.4669
85.4534
85.4551
85.4556
85.4543
85.4558
85.4546
85.4565
85.4547
85.4566
85.4543
85.4555
85.4539
85.4554
85.4537
85.4556
85.4541
85.4551
85.4534
85.4553
85.454
85.4556
85.4543
85.4553
85.4538
85.4677
88.1597
604.826
604.824
88.168
85.4669
85.4553
85.4541
85.4559
85.4543
85.4563
85.4545
85.4565
85.4543
85.4559
85.4536
85.4547
85.4531
85.4547
85.4532
85.4555
85.4543
85.4561
85.4544
85.4561
85.4543
85.4555
85.454
85.4547
85.4537
85.4658
88.167
604.821
604.82
88.1619
85.4664
85.4549
85.4535
85.4558
85.4542
85.4561
85.4544
85.4562
85.4541
85.4558
85.4536
85.4547
85.4531
85.4548
85.4533
85.4555
85.4543
85.4562
85.4545
85.4561
85.4543
85.4555
85.454
85.4547
85.4535
85.4656
88.1672
604.821
604.819
88.1688
85.4669
85.4537
85.4549
85.454
85.456
85.4545
85.4564
85.4546
85.4562
85.4544
85.4557
85.4536
85.4553
85.4536
85.4549
85.4536
85.455
85.4543
85.454
85.4553
85.454
85.4559
85.4544
85.4555
85.4538
85.4683
88.1617
604.823
604.821
88.1673
85.4659
85.4546
85.4534
85.4558
85.4542
85.4562
85.4544
85.4563
85.4542
85.4559
85.4537
85.4547
85.4531
85.4547
85.4532
85.4554
85.4542
85.456
85.4544
85.4559
85.4541
85.4553
85.454
85.4547
85.4539
85.4658
88.1663
604.821
604.823
88.1669
85.4667
85.454
85.4546
85.4556
85.4542
85.4561
85.4545
85.4563
85.4543
85.4561
85.4538
85.4547
85.4533
85.4534
85.4543
85.4536
85.4558
85.4541
85.4562
85.4543
85.456
85.4539
85.4554
85.4539
85.454
85.4666
88.1676
604.822
604.822
88.1658
85.466
85.455
85.4536
85.456
85.4542
85.4564
85.4546
85.4567
85.4546
85.4561
85.4535
85.4547
85.4525
85.454
85.4522
85.4543
85.4533
85.4554
85.4538
85.4553
85.4536
85.4548
85.4535
85.4549
85.4537
85.4656
88.1665
604.821
5933.9
29360.9
33434.3
36780.8
41074.7
45368.5
46100.8
47019
37349.4
30660.8
29662.5
25305.9
22780
633.163
646.997
37126
56252.5
63671.1
60649.9
52933.1
45462.2
39813.8
35557.9
32182.5
29419.7
27025.9
24879.9
22978.1
21233.7
19544.9
17894
16263.7
14648
13146.6
11808.3
10573.7
9401.04
8254.1
7132.56
6046.33
5023.4
4052.48
3396.79
609.228
616.571
4066.28
3304.07
2712.4
2285.43
1950.01
1673.9
1445.34
1254.56
1089.65
945.578
820.714
711.127
614.603
530.182
457.829
396.087
343.665
298.998
260.4
226.853
197.998
173.425
152.591
135.449
121.382
109.514
100.556
95.3739
609.766
610.14
92.1615
88.2908
87.5618
86.9993
86.543
86.1936
85.9333
85.7499
85.6267
85.5491
85.5048
85.4805
85.4689
85.4642
85.4629
85.4623
85.4629
85.4634
85.4638
85.4636
85.464
85.4635
85.4632
85.4631
85.4629
85.4619
85.4742
88.2468
610.016
610.023
88.2265
85.4745
85.4618
85.4625
85.4637
85.4631
85.4634
85.4635
85.4638
85.4635
85.4636
85.463
85.4623
85.4641
85.4624
85.463
85.463
85.4639
85.4636
85.464
85.4637
85.4636
85.4632
85.4637
85.463
85.4616
85.4745
88.2268
610.022
610.019
88.2279
85.475
85.4617
85.4626
85.4633
85.4636
85.4635
85.4639
85.4634
85.4634
85.4631
85.4633
85.4624
85.4627
85.463
85.4629
85.4634
85.4638
85.464
85.4638
85.464
85.4635
85.4633
85.4631
85.4627
85.4621
85.4744
88.2462
610.016
610.022
88.2268
85.4743
85.4615
85.4632
85.4636
85.4632
85.4637
85.4639
85.4642
85.4638
85.4641
85.4634
85.4633
85.4631
85.4631
85.4628
85.4631
85.4633
85.4629
85.4627
85.4635
85.4632
85.4635
85.4632
85.4627
85.4619
85.4748
88.2317
610.019
610.023
88.2252
85.4749
85.4627
85.4623
85.4632
85.4632
85.464
85.4638
85.4642
85.4635
85.4636
85.4628
85.4626
85.4625
85.4626
85.4626
85.4631
85.4635
85.4639
85.4637
85.464
85.4635
85.4632
85.463
85.4625
85.4618
85.4743
88.2465
610.016
610.019
88.2316
85.4745
85.4617
85.4621
85.4634
85.4633
85.4639
85.4638
85.4641
85.4634
85.4635
85.4628
85.4626
85.4625
85.4627
85.4627
85.4631
85.4636
85.4639
85.4637
85.464
85.4635
85.4632
85.463
85.4626
85.4618
85.4741
88.2464
610.016
610.016
88.2428
85.4745
85.4618
85.4623
85.463
85.4636
85.4637
85.4644
85.464
85.4641
85.4636
85.4634
85.4629
85.463
85.4628
85.4627
85.4627
85.463
85.4634
85.463
85.4635
85.4631
85.4636
85.4633
85.4626
85.4619
85.4752
88.222
610.022
610.016
88.2432
85.4741
85.4617
85.462
85.4634
85.4633
85.464
85.4638
85.4641
85.4635
85.4636
85.4628
85.4626
85.4625
85.4626
85.4626
85.4631
85.4635
85.4638
85.4635
85.4638
85.4633
85.4631
85.4629
85.4626
85.462
85.4743
88.2457
610.016
610.023
88.2269
85.4742
85.4622
85.4631
85.4632
85.4631
85.4638
85.4637
85.4641
85.4635
85.4638
85.4629
85.4628
85.4623
85.4623
85.4625
85.4628
85.4636
85.4633
85.4639
85.4636
85.4637
85.4629
85.4629
85.4622
85.4614
85.4741
88.228
610.023
610.017
88.2382
85.4742
85.4618
85.4621
85.4636
85.4632
85.4641
85.4637
85.4642
85.4634
85.4636
85.4624
85.4623
85.4617
85.4618
85.4618
85.4625
85.4628
85.463
85.4629
85.4633
85.4632
85.4629
85.4626
85.4632
85.462
85.4745
88.2427
610.016
5772.41
31347.3
35054
37607
40909.4
44875.1
48780
59390.1
50206
39658.7
34557
30082.2
30421.1
651.603
1202.1
80325.4
107866
112323
101659
84100.1
67824.1
56083.6
47884.1
41817.1
37238.4
33653.1
30636.1
28049.3
25737.7
23597.6
21516.6
19481.1
17482.5
15595.5
13912.3
12426.2
11053.2
9699.77
8372.52
7097
5915.44
5064.67
5086.71
616.234
625.973
7226.45
5618.07
4185.34
3235.18
2593.73
2140.42
1810.92
1554.58
1338.19
1150.63
988.679
849.344
729.448
626.538
538.079
462.141
396.916
341.3
293.421
252.606
218.215
189.687
165.952
145.757
129.042
115.464
103.884
97.6777
614.858
615.236
94.6054
89.8462
88.5449
87.6915
87.0491
86.5618
86.1896
85.9202
85.7323
85.6143
85.5445
85.5066
85.487
85.4789
85.4754
85.4748
85.4745
85.4747
85.4745
85.4745
85.4747
85.4744
85.4739
85.4737
85.4733
85.4723
85.4842
88.1571
615.032
615.032
88.1527
85.4844
85.4724
85.4728
85.4738
85.4739
85.4741
85.4744
85.4744
85.4745
85.4747
85.4749
85.4744
85.4757
85.4744
85.4749
85.4749
85.475
85.4747
85.4746
85.4747
85.4744
85.4739
85.474
85.4733
85.4723
85.4843
88.1528
615.032
615.033
88.15
85.4846
85.4721
85.473
85.4738
85.474
85.4743
85.4746
85.4743
85.4743
85.4746
85.475
85.4743
85.4748
85.4748
85.4751
85.475
85.4751
85.4748
85.4746
85.4748
85.4744
85.4739
85.4737
85.4731
85.4723
85.4844
88.1556
615.032
615.032
88.153
85.4841
85.4721
85.4737
85.4739
85.474
85.4744
85.4748
85.4748
85.4748
85.4752
85.4753
85.4752
85.4751
85.4748
85.4749
85.4747
85.4745
85.4739
85.4735
85.4742
85.4739
85.4739
85.4737
85.473
85.4723
85.4846
88.1505
615.033
615.031
88.153
85.4847
85.4726
85.4731
85.4738
85.474
85.4746
85.4746
85.4747
85.4745
85.4747
85.4747
85.4746
85.4746
85.4744
85.4747
85.4747
85.4749
85.4746
85.4745
85.4747
85.4744
85.4738
85.4736
85.473
85.4721
85.4842
88.1565
615.033
615.031
88.1521
85.4845
85.472
85.4729
85.4738
85.474
85.4746
85.4746
85.4746
85.4745
85.4746
85.4747
85.4746
85.4745
85.4744
85.4749
85.4748
85.4749
85.4747
85.4746
85.4747
85.4744
85.4738
85.4736
85.4731
85.4721
85.4841
88.157
615.032
615.033
88.1564
85.4845
85.4722
85.4729
85.4737
85.4743
85.4746
85.475
85.4748
85.4749
85.4749
85.475
85.4751
85.4747
85.4747
85.4746
85.4746
85.4742
85.4744
85.474
85.4741
85.4741
85.474
85.4738
85.4729
85.4722
85.4849
88.1493
615.031
615.032
88.1553
85.484
85.4721
85.4728
85.4739
85.4741
85.4746
85.4747
85.4747
85.4745
85.4747
85.4747
85.4746
85.4746
85.4744
85.4748
85.4747
85.4748
85.4745
85.4744
85.4745
85.4742
85.4737
85.4735
85.4729
85.4722
85.4842
88.1554
615.033
615.032
88.1535
85.484
85.4725
85.4736
85.4738
85.474
85.4745
85.4747
85.4747
85.4746
85.475
85.4748
85.4748
85.4745
85.4744
85.4746
85.4747
85.4747
85.4744
85.4744
85.4744
85.4743
85.4737
85.4734
85.4728
85.4717
85.4838
88.153
615.031
615.032
88.155
85.4841
85.4724
85.473
85.4742
85.4741
85.4747
85.4746
85.4748
85.4746
85.4746
85.4741
85.4741
85.4739
85.4739
85.474
85.474
85.4739
85.4735
85.4735
85.4735
85.4735
85.4733
85.4729
85.4728
85.4719
85.4841
88.1436
615.022
5844.81
33565.7
37778
41988.1
45837
48691.3
52446.1
63343.4
71466.2
70778.9
65299.7
68126.7
98547.8
116152
1595.54
1358.03
142240
184946
188443
172829
145696
114775
89363.9
72120.8
60753.8
52723.5
46650.6
41950.2
38104.7
34829.3
31966.6
29326.8
26764.9
24211.3
21776.7
19531.2
17474
15699.3
14211.9
12935.7
11947.4
11343.2
11384.1
12631.8
15889
21616.5
629.71
630.292
19328.5
17052.6
12106.5
8074.91
5588.13
4110.88
3188.18
2565.42
2111.35
1765.18
1491.01
1264.85
1073.8
911.576
774.291
658.646
560.611
477.26
406.625
346.496
295.607
252.908
217.226
187.611
163.615
144.378
129.595
120.203
116.534
126.084
624.518
624.468
123.398
103.088
95.6146
91.5906
89.3625
88.0493
87.1817
86.58
86.1676
85.8943
85.7208
85.6126
85.548
85.5121
85.4947
85.4863
85.4836
85.4824
85.4827
85.4826
85.4832
85.4836
85.4842
85.4848
85.4868
85.4895
85.4937
85.5006
85.5434
91.0442
624.493
624.495
91.0292
85.5439
85.5006
85.4941
85.4891
85.4867
85.4848
85.4839
85.4835
85.4831
85.4829
85.4827
85.4828
85.4824
85.4834
85.4825
85.4827
85.4828
85.483
85.4831
85.4833
85.4837
85.4841
85.4849
85.4869
85.4895
85.4939
85.5005
85.5437
91.0306
624.494
624.494
91.0308
85.5441
85.5006
85.494
85.4894
85.4868
85.4848
85.4842
85.4835
85.4831
85.4827
85.4828
85.4827
85.4823
85.4827
85.4826
85.4828
85.4828
85.4831
85.483
85.4834
85.4838
85.4843
85.4848
85.4868
85.4894
85.4939
85.5006
85.5435
91.0427
624.493
624.495
91.0298
85.5437
85.5005
85.4936
85.4898
85.4868
85.485
85.4842
85.4839
85.4835
85.4832
85.4832
85.483
85.4829
85.483
85.4827
85.4828
85.4826
85.4827
85.4822
85.4826
85.4832
85.4838
85.4849
85.4868
85.4893
85.4942
85.5007
85.5441
91.0295
624.494
624.494
91.0331
85.5436
85.5008
85.4942
85.4896
85.4867
85.485
85.4842
85.4838
85.4834
85.483
85.4828
85.4827
85.4825
85.4826
85.4824
85.4827
85.4826
85.483
85.483
85.4834
85.4836
85.4843
85.4847
85.4867
85.4893
85.4938
85.5006
85.5436
91.0448
624.493
624.493
91.0424
85.5437
85.5007
85.4936
85.4894
85.4866
85.485
85.4842
85.4838
85.4833
85.483
85.4827
85.4827
85.4825
85.4826
85.4825
85.4828
85.4826
85.4831
85.483
85.4834
85.4838
85.4843
85.4847
85.4868
85.4894
85.4939
85.5007
85.5438
91.047
624.493
624.493
91.0415
85.5432
85.5006
85.494
85.4893
85.487
85.4851
85.4845
85.4838
85.4837
85.4832
85.4831
85.4828
85.4829
85.4826
85.4826
85.4825
85.4826
85.4824
85.4828
85.4828
85.4832
85.4839
85.4848
85.4868
85.4893
85.4942
85.501
85.5442
91.0298
624.495
624.492
91.0424
85.5436
85.5007
85.4936
85.4894
85.4867
85.485
85.4842
85.4839
85.4835
85.4831
85.4828
85.4827
85.4825
85.4826
85.4824
85.4826
85.4826
85.483
85.4829
85.4832
85.4835
85.4841
85.4846
85.4868
85.4893
85.4939
85.5007
85.5436
91.0449
624.493
624.495
91.0296
85.5436
85.5002
85.4938
85.4899
85.4866
85.4849
85.4842
85.4838
85.4833
85.4831
85.4829
85.4828
85.4827
85.4824
85.4824
85.4826
85.4827
85.4828
85.4829
85.4831
85.4836
85.484
85.4848
85.4865
85.4895
85.4936
85.5004
85.5439
91.031
624.495
624.493
91.0566
85.5437
85.5008
85.4943
85.4899
85.487
85.4851
85.4843
85.4837
85.4833
85.4833
85.4828
85.4827
85.4824
85.4819
85.4815
85.4818
85.4821
85.4824
85.4822
85.4824
85.4828
85.4839
85.4854
85.488
85.492
85.4974
85.5075
85.5523
90.8831
624.491
624.348
6250.42
35287.9
39547.5
42805.1
43663.9
45196.4
47429.8
50663.8
63146.6
75986.7
78595.4
95845.3
116784
160942
234248
275317
297914
284363
244634
203789
164412
128214
100579
82374.6
70517.5
62137.4
55453.4
49990.5
45426.8
41486.3
38074
34997.5
32008.1
29079.7
26233.8
23524.2
21042.9
18895.5
17108.4
15639
14475.6
13694.6
13511.8
14405.2
16901.9
22615.1
23206.9
22457.6
21542.6
16476.4
11376.7
7835.14
5730.86
4427.88
3560.09
2935.03
2454.3
2069.48
1750.29
1487.75
1266.62
1077.79
915.438
775.994
655.902
554.303
468.567
396.807
337.017
287.193
245.488
210.459
181.754
158.9
141.291
128.615
120.827
119.11
118.746
115.691
111.069
100.477
94.8197
91.6527
89.7449
88.4668
87.5635
86.9037
86.4189
86.0718
85.8342
85.6809
85.5881
85.5354
85.5079
85.4948
85.4897
85.4878
85.4876
85.4876
85.4885
85.4886
85.4891
85.489
85.4906
85.4928
85.4942
85.4961
85.4975
85.5424
88.435
88.4347
85.542
85.4977
85.4961
85.4944
85.4924
85.4904
85.489
85.4888
85.4886
85.4883
85.4879
85.4873
85.4874
85.4871
85.4876
85.487
85.4872
85.4874
85.4874
85.4879
85.4885
85.4888
85.4889
85.4891
85.4906
85.4927
85.4944
85.4961
85.4976
85.5421
88.4348
88.4341
85.5421
85.498
85.4959
85.4942
85.4926
85.4907
85.4891
85.4891
85.4885
85.4883
85.4875
85.4871
85.4874
85.4869
85.4872
85.4871
85.4873
85.4873
85.4876
85.4878
85.4887
85.4888
85.4892
85.4891
85.4907
85.4927
85.4942
85.4961
85.4976
85.5424
88.435
88.4347
85.5421
85.4976
85.496
85.4942
85.4928
85.4906
85.4891
85.489
85.4889
85.4885
85.4881
85.4877
85.4876
85.4874
85.4874
85.4872
85.4873
85.4873
85.4873
85.4873
85.4879
85.4882
85.4886
85.489
85.4906
85.4926
85.4944
85.496
85.4979
85.5422
88.4343
88.4354
85.5421
85.4976
85.4961
85.4945
85.4928
85.4905
85.4892
85.489
85.4888
85.4884
85.4878
85.4873
85.4874
85.4871
85.4871
85.4869
85.4872
85.4873
85.4875
85.4878
85.4885
85.4886
85.4891
85.4891
85.4907
85.4926
85.4941
85.4961
85.4975
85.5423
88.4345
88.4352
85.5421
85.4977
85.4961
85.4941
85.4928
85.4906
85.4892
85.4891
85.4888
85.4884
85.4878
85.4873
85.4874
85.4871
85.4871
85.4871
85.4872
85.4873
85.4875
85.4878
85.4886
85.4887
85.4892
85.4891
85.4907
85.4926
85.4941
85.496
85.4974
85.5421
88.4353
88.4346
85.5423
85.4972
85.4958
85.4943
85.4927
85.4909
85.4893
85.4892
85.4888
85.4888
85.488
85.4876
85.4874
85.4873
85.4871
85.4872
85.4872
85.4873
85.4871
85.4874
85.488
85.4882
85.4887
85.489
85.4907
85.4927
85.4944
85.4961
85.498
85.5422