/*--------------------------------*- C++ -*----------------------------------*\
| =========                 |                                                 |
| \\      /  F ield         | OpenFOAM: The Open Source CFD Toolbox           |
|  \\    /   O peration     | Version:  2.1.1                                 |
|   \\  /    A nd           | Web:      www.OpenFOAM.org                      |
|    \\/     M anipulation  |                                                 |
\*---------------------------------------------------------------------------*/
FoamFile
{
    version     2.0;
    format      ascii;
    class       volScalarField;
    location    "0.000950000";
    object      omegaC_burn;
}
// * * * * * * * * * * * * * * * * * * * * * * * * * * * * * * * * * * * * * //

dimensions      [1 -3 -1 0 0 0 0];

internalField   nonuniform List<scalar> 
12384
(
49.3107
24.1411
6.1318
0.502902
0.0389884
0.00284153
0.000101279
5.32246e-06
7.81077e-08
6.69675e-10
5.4687e-12
5.38621e-14
6.5843e-16
8.94619e-18
2.85231e-23
4.50375e-24
9.95535e-27
1.43918e-29
1.72225e-32
1.93209e-35
2.90975e-38
7.73388e-41
3.11648e-43
1.43165e-45
6.77202e-48
3.23601e-50
1.54305e-52
7.28188e-55
3.40451e-57
1.58666e-59
7.2755e-62
3.34276e-64
1.49327e-66
6.38258e-69
2.60916e-71
1.03705e-73
4.07893e-76
1.6204e-78
6.56357e-81
2.67812e-83
1.08074e-85
4.18125e-88
1.53445e-90
5.37191e-93
2.60166e-100
9.4035e-102
4.02625e-104
1.46366e-106
5.16972e-109
1.8155e-111
6.34444e-114
2.21565e-116
7.68994e-119
2.6539e-121
9.15316e-124
3.13429e-126
1.07895e-128
3.72179e-131
1.31028e-133
4.70328e-136
1.7713e-138
7.04199e-141
3.00727e-143
1.38079e-145
6.74856e-148
3.43347e-150
1.79455e-152
9.47062e-155
5.03353e-157
2.67918e-159
1.45189e-161
0
0
0
0
0
0
0
0
0
0
0
0
0
0
0
0
0
0
0
0
0
0
0
0
0
0
0
0
0
0
0
0
0
0
0
0
0
0
0
0
0
0
0
0
0
0
0
0
0
0
0
0
0
0
0
0
0
0
0
0
0
0
0
0
0
0
0
0
0
0
0
0
0
0
0
0
0
0
0
0
0
0
0
0
0
0
0
0
0
0
0
0
0
0
0
0
0
0
0
0
0
0
0
0
0
0
0
0
0
0
0
0
0
0
0
0
0
0
0
0
0
0
0
0
0
0
0
0
0
0
0
0
0
0
0
0
0
0
0
0
0
0
0
0
0
0
0
0
0
0
0
0
0
0
0
0
0
0
0
0
0
0
0
0
0
0
0
0
0
0
0
0
0
0
0
0
0
0
0
0
0
0
0
0
0
0
0
0
0
0
0
0
0
0
0
0
0
0
0
0
0
0
0
0
0
0
0
0
0
0
0
0
0
0
0
0
0
0
0
0
0
0
0
0
0
0
0
0
0
0
0
0
0
0
0
0
0
0
0
0
0
0
0
0
0
0
0
0
0
0
0
0
0
0
0
0
0
0
0
0
0
0
0
0
0
0
0
0
0
0
0
0
0
0
0
0
0
0
0
0
0
0
0
0
0
0
0
0
0
0
0
0
0
0
0
0
0
0
0
0
0
0
0
177.175
107.679
34.387
7.02702
1.55181
0.266094
0.00690165
0.000496642
7.88606e-06
5.8412e-08
3.21719e-10
1.64494e-12
9.17232e-15
6.09784e-17
3.50466e-20
7.30796e-21
1.64324e-23
2.30472e-26
2.55629e-29
2.25906e-32
1.87757e-35
1.38614e-38
2.48729e-41
7.9091e-44
3.10675e-46
1.35617e-48
6.31834e-51
3.09779e-53
1.56789e-55
8.05611e-58
4.28224e-60
2.30749e-62
1.28375e-64
5.9341e-67
2.48423e-69
1.01369e-71
4.15144e-74
1.75071e-76
7.54577e-79
3.22506e-81
1.34951e-83
5.10451e-86
1.80556e-88
6.03754e-91
9.34889e-98
3.22218e-99
1.07652e-101
3.4992e-104
1.20955e-106
4.28126e-109
1.5173e-111
5.31819e-114
1.84806e-116
6.3091e-119
2.15325e-121
7.24849e-124
2.45538e-126
8.25942e-129
2.81711e-131
9.65547e-134
3.37167e-136
1.21033e-138
4.46378e-141
1.72476e-143
6.94346e-146
2.94148e-148
1.30483e-150
6.05903e-153
2.92676e-155
1.46596e-157
7.5672e-160
3.90526e-162
0
0
0
0
0
0
0
0
0
0
0
0
0
0
0
0
0
0
0
0
0
0
0
0
0
0
0
0
0
0
0
0
0
0
0
0
0
0
0
0
0
0
0
0
0
0
0
0
0
0
0
0
0
0
0
0
0
0
0
0
0
0
0
0
0
0
0
0
0
0
0
0
0
0
0
0
0
0
0
0
0
0
0
0
0
0
0
0
0
0
0
0
0
0
0
0
0
0
0
0
0
0
0
0
0
0
0
0
0
0
0
0
0
0
0
0
0
0
0
0
0
0
0
0
0
0
0
0
0
0
0
0
0
0
0
0
0
0
0
0
0
0
0
0
0
0
0
0
0
0
0
0
0
0
0
0
0
0
0
0
0
0
0
0
0
0
0
0
0
0
0
0
0
0
0
0
0
0
0
0
0
0
0
0
0
0
0
0
0
0
0
0
0
0
0
0
0
0
0
0
0
0
0
0
0
0
0
0
0
0
0
0
0
0
0
0
0
0
0
0
0
0
0
0
0
0
0
0
0
0
0
0
0
0
0
0
0
0
0
0
0
0
0
0
0
0
0
0
0
0
0
0
0
0
0
0
0
0
0
0
0
0
0
0
0
0
0
0
0
0
0
0
0
0
0
0
0
0
0
0
0
0
0
0
0
0
0
0
0
0
0
0
0
0
0
0
0
0
0
0
0
0
202.048
154.666
60.288
19.8237
6.52704
3.29
0.777807
0.0693626
0.00123245
6.74409e-06
2.3578e-08
5.53995e-11
1.3918e-13
6.02229e-16
1.00415e-16
3.28819e-17
7.75081e-20
1.08281e-22
1.17796e-25
9.28511e-29
5.80013e-32
5.50606e-36
0
0
0
0
0
0
0
0
2.18986e-91
2.57517e-61
1.85525e-62
8.53109e-65
3.4249e-67
1.41658e-69
5.89231e-72
2.61847e-74
1.13576e-76
4.68349e-79
1.93391e-81
5.88384e-84
1.57078e-86
3.97654e-89
4.58521e-95
1.57107e-96
3.87339e-99
1.29558e-101
4.60495e-104
1.63127e-106
5.65377e-109
1.93646e-111
6.50344e-114
2.16201e-116
7.15646e-119
2.34145e-121
7.75038e-124
2.53161e-126
8.48225e-129
2.7969e-131
9.54398e-134
3.24701e-136
1.15618e-138
4.18039e-141
1.58601e-143
6.1378e-146
2.50492e-148
1.03728e-150
4.50828e-153
1.97078e-155
9.01841e-158
4.13452e-160
1.99585e-162
0
0
0
0
0
0
0
0
0
0
0
0
0
0
0
0
0
0
0
0
0
0
0
0
0
0
0
0
0
0
0
0
0
0
0
0
0
0
0
0
0
0
0
0
0
0
0
0
0
0
0
0
0
0
0
0
0
0
0
0
0
0
0
0
0
0
0
0
0
0
0
0
0
0
0
0
0
0
0
0
0
0
0
0
0
0
0
0
0
0
0
0
0
0
0
0
0
0
0
0
0
0
0
0
0
0
0
0
0
0
0
0
0
0
0
0
0
0
0
0
0
0
0
0
0
0
0
0
0
0
0
0
0
0
0
0
0
0
0
0
0
0
0
0
0
0
0
0
0
0
0
0
0
0
0
0
0
0
0
0
0
0
0
0
0
0
0
0
0
0
0
0
0
0
0
0
0
0
0
0
0
0
0
0
0
0
0
0
0
0
0
0
0
0
0
0
0
0
0
0
0
0
0
0
0
0
0
0
0
0
0
0
0
0
0
0
0
0
0
0
0
0
0
0
0
0
0
0
0
0
0
0
0
0
0
0
0
0
0
0
0
0
0
0
0
0
0
0
0
0
0
0
0
0
0
0
0
0
0
0
0
0
0
0
0
0
0
0
0
0
0
0
0
0
0
0
0
0
0
0
0
0
0
0
0
0
0
0
0
0
0
0
0
0
0
0
0
0
0
0
0
2075.36
2320.3
1852.2
572.21
123.129
72.417
24.1319
5.25524
0.629479
0.00692255
2.39443e-05
4.29438e-08
9.44166e-11
5.03713e-13
1.24465e-12
4.99186e-13
1.27649e-15
2.04465e-18
2.4398e-21
2.11191e-24
1.514e-27
1.02878e-30
7.79731e-34
1.03161e-36
2.70604e-39
9.57471e-42
3.66121e-44
1.42207e-46
5.52946e-49
2.15524e-51
8.17898e-54
3.0544e-56
1.08773e-58
3.79586e-61
1.32403e-63
4.87259e-66
1.93676e-68
7.88738e-71
3.15765e-73
1.21268e-75
4.2903e-78
1.36664e-80
3.49633e-83
8.41592e-86
2.73204e-91
8.28901e-93
2.24507e-95
7.38857e-98
2.58106e-100
9.23358e-103
3.17973e-105
1.0964e-107
3.69209e-110
1.22987e-112
4.06354e-115
1.3296e-117
4.36647e-120
1.41997e-122
4.69896e-125
1.52944e-127
5.18438e-130
1.71049e-132
6.03712e-135
2.07105e-137
7.74786e-140
2.83599e-142
1.13628e-144
4.49721e-147
1.9176e-149
8.06981e-152
3.60483e-154
1.57462e-156
7.25144e-159
3.2881e-161
0
0
0
0
0
0
0
0
0
0
0
0
0
0
0
0
0
0
0
0
0
0
0
0
0
0
0
0
0
0
0
0
0
0
0
0
0
0
0
0
0
0
0
0
0
0
0
0
0
0
0
0
0
0
0
0
0
0
0
0
0
0
0
0
0
0
0
0
0
0
0
0
0
0
0
0
0
0
0
0
0
0
0
0
0
0
0
0
0
0
0
0
0
0
0
0
0
0
0
0
0
0
0
0
0
0
0
0
0
0
0
0
0
0
0
0
0
0
0
0
0
0
0
0
0
0
0
0
0
0
0
0
0
0
0
0
0
0
0
0
0
0
0
0
0
0
0
0
0
0
0
0
0
0
0
0
0
0
0
0
0
0
0
0
0
0
0
0
0
0
0
0
0
0
0
0
0
0
0
0
0
0
0
0
0
0
0
0
0
0
0
0
0
0
0
0
0
0
0
0
0
0
0
0
0
0
0
0
0
0
0
0
0
0
0
0
0
0
0
0
0
0
0
0
0
0
0
0
0
0
0
0
0
0
0
0
0
0
0
0
0
0
0
0
0
0
0
0
0
0
0
0
0
0
0
0
0
0
0
0
0
0
0
0
0
0
0
0
0
0
0
0
0
0
0
0
0
0
0
0
0
0
0
0
0
0
0
0
0
0
0
0
0
0
0
0
0
0
0
0
4534.56
4775.59
4384.25
3011.06
2172.24
1801.78
522.234
146.391
29.0445
3.53881
0.0384405
0.000105602
1.90547e-07
1.11429e-09
6.13428e-09
2.06529e-09
5.51191e-12
1.05414e-14
1.50322e-17
1.63054e-20
1.35761e-23
9.77573e-27
6.95382e-30
5.80272e-33
8.75178e-36
2.52245e-38
9.5366e-41
3.87413e-43
1.5765e-45
6.37953e-48
2.53995e-50
9.76829e-53
3.5549e-55
1.25595e-57
4.43953e-60
1.6348e-62
6.42747e-65
2.61107e-67
1.05726e-69
4.01921e-72
1.42392e-74
4.58948e-77
1.2208e-79
2.93552e-82
1.03169e-87
3.07352e-89
9.18286e-92
3.03993e-94
1.06704e-96
3.8562e-99
1.38112e-101
4.87424e-104
1.70241e-106
5.77513e-109
1.95013e-111
6.45639e-114
2.13987e-116
7.01852e-119
2.31703e-121
7.58958e-124
2.53506e-126
8.35187e-129
2.87601e-131
9.69342e-134
3.51179e-136
1.24529e-138
4.81075e-141
1.83336e-143
7.58171e-146
3.08479e-148
1.34117e-150
5.69246e-153
2.52685e-155
1.10911e-157
0
0
0
0
0
0
0
0
0
0
0
0
0
0
0
0
0
0
0
0
0
0
0
0
0
0
0
0
0
0
0
0
0
0
0
0
0
0
0
0
0
0
0
0
0
0
0
0
0
0
0
0
0
0
0
0
0
0
0
0
0
0
0
0
0
0
0
0
0
0
0
0
0
0
0
0
0
0
0
0
0
0
0
0
0
0
0
0
0
0
0
0
0
0
0
0
0
0
0
0
0
0
0
0
0
0
0
0
0
0
0
0
0
0
0
0
0
0
0
0
0
0
0
0
0
0
0
0
0
0
0
0
0
0
0
0
0
0
0
0
0
0
0
0
0
0
0
0
0
0
0
0
0
0
0
0
0
0
0
0
0
0
0
0
0
0
0
0
0
0
0
0
0
0
0
0
0
0
0
0
0
0
0
0
0
0
0
0
0
0
0
0
0
0
0
0
0
0
0
0
0
0
0
0
0
0
0
0
0
0
0
0
0
0
0
0
0
0
0
0
0
0
0
0
0
0
0
0
0
0
0
0
0
0
0
0
0
0
0
0
0
0
0
0
0
0
0
0
0
0
0
0
0
0
0
0
0
0
0
0
0
0
0
0
0
0
0
0
0
0
0
0
0
0
0
0
0
0
0
0
0
0
0
0
0
0
0
0
0
0
0
0
0
0
0
0
0
0
0
0
4936.37
5001.45
5093.2
4771.79
3742.16
3029.91
2864.61
2411.49
517.911
131.609
9.42046
0.161173
0.000315877
2.69358e-06
1.093e-05
2.81054e-06
7.42647e-09
1.51007e-11
2.73528e-14
3.91778e-17
4.35716e-20
3.86809e-23
3.01911e-26
2.40146e-29
2.29649e-32
3.85487e-35
1.19735e-37
4.83191e-40
2.06708e-42
8.86828e-45
3.76878e-47
1.52767e-49
5.78723e-52
2.09549e-54
7.45595e-57
2.81908e-59
1.11723e-61
4.64837e-64
1.93701e-66
7.61367e-69
2.80746e-71
9.30196e-74
2.6195e-76
6.53371e-79
1.82398e-84
5.24265e-86
1.77658e-88
6.04989e-91
2.16752e-93
7.97103e-96
2.925e-98
1.06869e-100
3.83048e-103
1.35348e-105
4.67132e-108
1.58708e-110
5.31762e-113
1.77072e-115
5.86358e-118
1.9414e-120
6.42811e-123
2.13727e-125
7.1762e-128
2.42057e-130
8.44849e-133
2.94893e-135
1.09184e-137
4.04102e-140
1.60396e-142
6.33535e-145
2.65361e-147
1.10153e-149
4.73803e-152
2.02155e-154
1.74594e-161
0
0
0
0
0
0
0
0
0
0
0
0
0
0
0
0
0
0
0
0
0
0
0
0
0
0
0
0
0
0
0
0
0
0
0
0
0
0
0
0
0
0
0
0
0
0
0
0
0
0
0
0
0
0
0
0
0
0
0
0
0
0
0
0
0
0
0
0
0
0
0
0
0
0
0
0
0
0
0
0
0
0
0
0
0
0
0
0
0
0
0
0
0
0
0
0
0
0
0
0
0
0
0
0
0
0
0
0
0
0
0
0
0
0
0
0
0
0
0
0
0
0
0
0
0
0
0
0
0
0
0
0
0
0
0
0
0
0
0
0
0
0
0
0
0
0
0
0
0
0
0
0
0
0
0
0
0
0
0
0
0
0
0
0
0
0
0
0
0
0
0
0
0
0
0
0
0
0
0
0
0
0
0
0
0
0
0
0
0
0
0
0
0
0
0
0
0
0
0
0
0
0
0
0
0
0
0
0
0
0
0
0
0
0
0
0
0
0
0
0
0
0
0
0
0
0
0
0
0
0
0
0
0
0
0
0
0
0
0
0
0
0
0
0
0
0
0
0
0
0
0
0
0
0
0
0
0
0
0
0
0
0
0
0
0
0
0
0
0
0
0
0
0
0
0
0
0
0
0
0
0
0
0
0
0
0
0
0
0
0
0
0
0
0
0
0
0
0
0
4996.35
5110.13
5190.86
5142.98
4653.99
4236.84
3698.58
3276.72
3105.42
2704.9
215.099
12.6935
0.272993
0.00410851
0.00844562
0.0021136
7.09265e-06
1.17458e-08
2.20842e-11
3.66589e-14
5.16833e-17
6.0662e-20
5.9284e-23
5.23361e-26
4.76073e-29
5.08981e-32
9.02122e-35
2.91503e-37
1.23944e-39
5.60374e-42
2.53712e-44
1.12561e-46
4.67994e-49
1.81582e-51
6.52333e-54
2.52533e-56
1.03298e-58
4.45145e-61
1.93612e-63
7.98583e-66
3.10195e-68
1.07661e-70
3.25773e-73
8.65281e-76
1.50868e-81
3.723e-83
1.59404e-85
5.78135e-88
2.19219e-90
8.39244e-93
3.21037e-95
1.20628e-97
4.52481e-100
1.63896e-102
5.94072e-105
2.06296e-107
7.16447e-110
2.40822e-112
8.16476e-115
2.70927e-117
9.10184e-120
3.01732e-122
1.01505e-124
3.40201e-127
1.16493e-129
4.0192e-132
1.4303e-134
5.19592e-137
1.95794e-139
7.57341e-142
3.01624e-144
1.22577e-146
5.11346e-149
2.17955e-151
2.01371e-158
1.17221e-160
0
0
0
0
0
0
0
0
0
0
0
0
0
0
0
0
0
0
0
0
0
0
0
0
0
0
0
0
0
0
0
0
0
0
0
0
0
0
0
0
0
0
0
0
0
0
0
0
0
0
0
0
0
0
0
0
0
0
0
0
0
0
0
0
0
0
0
0
0
0
0
0
0
0
0
0
0
0
0
0
0
0
0
0
0
0
0
0
0
0
0
0
0
0
0
0
0
0
0
0
0
0
0
0
0
0
0
0
0
0
0
0
0
0
0
0
0
0
0
0
0
0
0
0
0
0
0
0
0
0
0
0
0
0
0
0
0
0
0
0
0
0
0
0
0
0
0
0
0
0
0
0
0
0
0
0
0
0
0
0
0
0
0
0
0
0
0
0
0
0
0
0
0
0
0
0
0
0
0
0
0
0
0
0
0
0
0
0
0
0
0
0
0
0
0
0
0
0
0
0
0
0
0
0
0
0
0
0
0
0
0
0
0
0
0
0
0
0
0
0
0
0
0
0
0
0
0
0
0
0
0
0
0
0
0
0
0
0
0
0
0
0
0
0
0
0
0
0
0
0
0
0
0
0
0
0
0
0
0
0
0
0
0
0
0
0
0
0
0
0
0
0
0
0
0
0
0
0
0
0
0
0
0
0
0
0
0
0
0
0
0
0
0
0
0
0
0
0
5247.96
5229.14
5326.7
5115.76
4612.25
4379.63
4128.27
3611.05
3498.21
3482.77
808.894
170.039
37.844
3.36063
3.74894
1.117
0.0125818
1.07726e-05
1.57307e-08
2.50436e-11
3.57615e-14
4.67026e-17
5.41612e-20
5.68684e-23
5.56178e-26
5.59531e-29
6.28317e-32
1.08253e-34
3.3597e-37
1.43742e-39
6.64438e-42
3.08148e-44
1.40209e-46
5.97564e-49
2.40857e-51
9.56539e-54
4.13626e-56
1.87987e-58
8.60638e-61
3.79889e-63
1.58613e-65
6.03653e-68
2.0522e-70
6.15205e-73
5.7981e-79
5.68144e-81
6.02074e-83
2.44736e-85
1.01e-87
4.14417e-90
1.64202e-92
6.44171e-95
2.45459e-97
9.26286e-100
3.40769e-102
1.23613e-104
4.36655e-107
1.51685e-109
5.18606e-112
1.75433e-114
5.92853e-117
1.97683e-119
6.69761e-122
2.222e-124
7.63751e-127
2.56812e-129
9.02434e-132
3.16289e-134
1.15561e-136
4.28108e-139
1.64086e-141
6.41042e-144
2.6014e-146
1.08905e-148
1.11891e-155
6.22841e-158
3.08868e-160
0
0
0
0
0
0
0
0
0
0
0
0
0
0
0
0
0
0
0
0
0
0
0
0
0
0
0
0
0
0
0
0
0
0
0
0
0
0
0
0
0
0
0
0
0
0
0
0
0
0
0
0
0
0
0
0
0
0
0
0
0
0
0
0
0
0
0
0
0
0
0
0
0
0
0
0
0
0
0
0
0
0
0
0
0
0
0
0
0
0
0
0
0
0
0
0
0
0
0
0
0
0
0
0
0
0
0
0
0
0
0
0
0
0
0
0
0
0
0
0
0
0
0
0
0
0
0
0
0
0
0
0
0
0
0
0
0
0
0
0
0
0
0
0
0
0
0
0
0
0
0
0
0
0
0
0
0
0
0
0
0
0
0
0
0
0
0
0
0
0
0
0
0
0
0
0
0
0
0
0
0
0
0
0
0
0
0
0
0
0
0
0
0
0
0
0
0
0
0
0
0
0
0
0
0
0
0
0
0
0
0
0
0
0
0
0
0
0
0
0
0
0
0
0
0
0
0
0
0
0
0
0
0
0
0
0
0
0
0
0
0
0
0
0
0
0
0
0
0
0
0
0
0
0
0
0
0
0
0
0
0
0
0
0
0
0
0
0
0
0
0
0
0
0
0
0
0
0
0
0
0
0
0
0
0
0
0
0
0
0
0
0
0
0
0
0
0
5355.45
5537.46
5519.13
5136.55
4659.33
4527.86
4509.51
4184.03
4041.51
4117.79
4087.91
4196.57
898.908
147.713
121.344
125.705
89.0185
20.1163
2.13388
0.0160228
1.22427e-05
1.61679e-08
2.16069e-11
2.75342e-14
3.2209e-17
3.53387e-20
3.67675e-23
3.71683e-26
3.8938e-29
4.36804e-32
6.33536e-35
1.47166e-37
5.41645e-40
2.43472e-42
1.1492e-44
5.57075e-47
2.79417e-49
1.4145e-51
7.26964e-54
3.71462e-56
1.84463e-58
8.83814e-61
3.9694e-63
1.65704e-65
6.34397e-68
2.1362e-70
7.81965e-73
3.81782e-75
3.51993e-77
6.81866e-79
5.90461e-81
3.74427e-83
1.9715e-85
9.00583e-88
3.9061e-90
1.59516e-92
6.41852e-95
2.47501e-97
9.51962e-100
3.51859e-102
1.29685e-104
4.59723e-107
1.62171e-109
5.5536e-112
1.90247e-114
6.45367e-117
2.16719e-119
7.3881e-122
2.45929e-124
8.52643e-127
2.86968e-129
1.01509e-131
3.57409e-134
1.30637e-136
4.8711e-139
1.86472e-141
7.32379e-144
3.01225e-146
1.28728e-148
5.85431e-151
2.75244e-153
1.62311e-155
7.97378e-158
3.80621e-160
0
0
0
0
0
0
0
0
0
0
0
0
0
0
0
0
0
0
0
0
0
0
0
0
0
0
0
0
0
0
0
0
0
0
0
0
0
0
0
0
0
0
0
0
0
0
0
0
0
0
0
0
0
0
0
0
0
0
0
0
0
0
0
0
0
0
0
0
0
0
0
0
0
0
0
0
0
0
0
0
0
0
0
0
0
0
0
0
0
0
0
0
0
0
0
0
0
0
0
0
0
0
0
0
0
0
0
0
0
0
0
0
0
0
0
0
0
0
0
0
0
0
0
0
0
0
0
0
0
0
0
0
0
0
0
0
0
0
0
0
0
0
0
0
0
0
0
0
0
0
0
0
0
0
0
0
0
0
0
0
0
0
0
0
0
0
0
0
0
0
0
0
0
0
0
0
0
0
0
0
0
0
0
0
0
0
0
0
0
0
0
0
0
0
0
0
0
0
0
0
0
0
0
0
0
0
0
0
0
0
0
0
0
0
0
0
0
0
0
0
0
0
0
0
0
0
0
0
0
0
0
0
0
0
0
0
0
0
0
0
0
0
0
0
0
0
0
0
0
0
0
0
0
0
0
0
0
0
0
0
0
0
0
0
0
0
0
0
0
0
0
0
0
0
0
0
0
0
0
0
0
0
0
0
0
0
0
0
0
0
0
0
0
0
0
0
0
0
0
0
0
0
0
0
0
0
0
0
0
0
0
0
0
0
0
0
5677.4
5580.33
5154.18
4649.64
4396.13
4481.28
4573.8
4710.3
4137.58
4125.81
4368.99
4680.47
5304.77
6071.94
7294.18
9595.01
4653.29
400.15
40.6124
2.25417
0.00495692
7.12131e-06
9.82888e-09
1.24019e-11
1.43923e-14
1.5207e-17
1.54685e-20
1.51538e-23
1.48685e-26
1.50059e-29
1.60912e-32
1.93941e-35
2.69199e-38
4.46999e-41
9.46039e-44
2.79905e-46
1.19688e-48
6.41723e-51
3.81257e-53
2.34434e-55
1.41643e-57
8.46212e-60
4.88154e-62
2.75701e-64
1.51659e-66
7.95608e-69
4.15317e-71
2.35291e-73
1.345e-75
7.15503e-78
3.68812e-80
1.83878e-82
8.80693e-85
4.10049e-87
1.87527e-89
8.40759e-92
3.72141e-94
1.62e-96
6.93937e-99
2.92925e-101
1.21311e-103
4.95366e-106
1.97589e-108
7.81593e-111
3.04095e-113
1.18078e-115
4.54698e-118
1.75374e-120
6.76603e-123
2.62345e-125
1.02806e-127
4.06885e-130
1.6453e-132
6.75151e-135
2.84332e-137
1.21982e-139
5.35612e-142
2.3895e-144
1.08353e-146
4.99175e-149
2.31894e-151
1.08339e-153
5.07633e-156
2.39209e-158
1.13028e-160
0
0
0
0
0
0
0
0
0
0
0
0
0
0
0
0
0
0
0
0
0
0
0
0
0
0
0
0
0
0
0
0
0
0
0
0
0
0
0
0
0
0
0
0
0
0
0
0
0
0
0
0
0
0
0
0
0
0
0
0
0
0
0
0
0
0
0
0
0
0
0
0
0
0
0
0
0
0
0
0
0
0
0
0
0
0
0
0
0
0
0
0
0
0
0
0
0
0
0
0
0
0
0
0
0
0
0
0
0
0
0
0
0
0
0
0
0
0
0
0
0
0
0
0
0
0
0
0
0
0
0
0
0
0
0
0
0
0
0
0
0
0
0
0
0
0
0
0
0
0
0
0
0
0
0
0
0
0
0
0
0
0
0
0
0
0
0
0
0
0
0
0
0
0
0
0
0
0
0
0
0
0
0
0
0
0
0
0
0
0
0
0
0
0
0
0
0
0
0
0
0
0
0
0
0
0
0
0
0
0
0
0
0
0
0
0
0
0
0
0
0
0
0
0
0
0
0
0
0
0
0
0
0
0
0
0
0
0
0
0
0
0
0
0
0
0
0
0
0
0
0
0
0
0
0
0
0
0
0
0
0
0
0
0
0
0
0
0
0
0
0
0
0
0
0
0
0
0
0
0
0
0
0
0
0
0
0
0
0
0
0
0
0
0
0
0
0
0
0
0
0
0
0
0
0
0
0
0
0
0
0
0
0
0
0
4903.83
4647.58
4222.86
3826.75
3865.73
4100.56
4310.93
4459.19
4493.18
4323.83
4574.7
4731.74
5420.42
6678.12
7567.54
7946.85
9766.65
1960.94
182.231
12.5911
0.137577
8.11497e-05
7.30792e-08
7.96259e-11
8.35944e-14
8.38434e-17
8.07363e-20
7.59007e-23
7.29519e-26
7.23775e-29
7.79989e-32
9.12766e-35
1.13949e-37
1.57132e-40
2.39178e-43
4.05995e-46
8.18976e-49
2.15197e-51
8.44566e-54
4.46939e-56
2.6919e-58
1.77054e-60
1.15321e-62
7.59064e-65
4.8054e-67
3.0318e-69
1.88677e-71
9.99524e-74
4.956e-76
2.19508e-78
9.53444e-81
4.1181e-83
1.80315e-85
7.85065e-88
3.41686e-90
1.49107e-92
6.44594e-95
2.7835e-97
1.19069e-99
5.05517e-102
2.11587e-104
8.73285e-107
3.53528e-109
1.40987e-111
5.5237e-114
2.15134e-116
8.25579e-119
3.18073e-121
1.21559e-123
4.68261e-126
1.81238e-128
7.11734e-131
2.84094e-133
1.15844e-135
4.84826e-138
2.0776e-140
9.17944e-143
4.12408e-145
1.91131e-147
8.86118e-150
4.16997e-152
1.97388e-154
9.42313e-157
4.52419e-159
2.20002e-161
0
0
0
0
0
0
0
0
0
0
0
0
0
0
0
0
0
0
0
0
0
0
0
0
0
0
0
0
0
0
0
0
0
0
0
0
0
0
0
0
0
0
0
0
0
0
0
0
0
0
0
0
0
0
0
0
0
0
0
0
0
0
0
0
0
0
0
0
0
0
0
0
0
0
0
0
0
0
0
0
0
0
0
0
0
0
0
0
0
0
0
0
0
0
0
0
0
0
0
0
0
0
0
0
0
0
0
0
0
0
0
0
0
0
0
0
0
0
0
0
0
0
0
0
0
0
0
0
0
0
0
0
0
0
0
0
0
0
0
0
0
0
0
0
0
0
0
0
0
0
0
0
0
0
0
0
0
0
0
0
0
0
0
0
0
0
0
0
0
0
0
0
0
0
0
0
0
0
0
0
0
0
0
0
0
0
0
0
0
0
0
0
0
0
0
0
0
0
0
0
0
0
0
0
0
0
0
0
0
0
0
0
0
0
0
0
0
0
0
0
0
0
0
0
0
0
0
0
0
0
0
0
0
0
0
0
0
0
0
0
0
0
0
0
0
0
0
0
0
0
0
0
0
0
0
0
0
0
0
0
0
0
0
0
0
0
0
0
0
0
0
0
0
0
0
0
0
0
0
0
0
0
0
0
0
0
0
0
0
0
0
0
0
0
0
0
0
0
0
0
0
0
0
0
0
0
0
0
0
0
0
0
0
0
0
3750.12
3673.58
3341.41
3211.81
3167.8
3463.5
3659.45
3901.94
4001.28
4234.83
4395.21
4866.77
5315.81
6234.6
6896.08
7257.49
7664.23
1638.14
163.371
9.72648
0.0459284
4.01747e-05
4.8949e-08
5.46203e-11
5.58857e-14
5.4934e-17
5.3545e-20
5.3148e-23
5.4698e-26
5.93763e-29
6.66451e-32
7.80916e-35
9.62671e-38
1.245e-40
1.69529e-43
2.42164e-46
3.63414e-49
5.76902e-52
1.05291e-54
2.40511e-57
8.15206e-60
3.81338e-62
2.11963e-64
1.24123e-66
8.04056e-69
5.66573e-71
4.69023e-73
2.25916e-75
9.30434e-78
3.67203e-80
1.51493e-82
6.3558e-85
2.77004e-87
1.18653e-89
5.18329e-92
2.23634e-94
9.63708e-97
4.1278e-99
1.7478e-101
7.33568e-104
3.03371e-106
1.23624e-108
4.93615e-111
1.93971e-113
7.54967e-116
2.9041e-118
1.11502e-120
4.27414e-123
1.64101e-125
6.36615e-128
2.48887e-130
9.94413e-133
4.03981e-135
1.68876e-137
7.21949e-140
3.17914e-142
1.42887e-144
6.56848e-147
3.06784e-149
1.44934e-151
6.91476e-154
3.31734e-156
1.60119e-158
7.77706e-161
0
0
0
0
0
0
0
0
0
0
0
0
0
0
0
0
0
0
0
0
0
0
0
0
0
0
0
0
0
0
0
0
0
0
0
0
0
0
0
0
0
0
0
0
0
0
0
0
0
0
0
0
0
0
0
0
0
0
0
0
0
0
0
0
0
0
0
0
0
0
0
0
0
0
0
0
0
0
0
0
0
0
0
0
0
0
0
0
0
0
0
0
0
0
0
0
0
0
0
0
0
0
0
0
0
0
0
0
0
0
0
0
0
0
0
0
0
0
0
0
0
0
0
0
0
0
0
0
0
0
0
0
0
0
0
0
0
0
0
0
0
0
0
0
0
0
0
0
0
0
0
0
0
0
0
0
0
0
0
0
0
0
0
0
0
0
0
0
0
0
0
0
0
0
0
0
0
0
0
0
0
0
0
0
0
0
0
0
0
0
0
0
0
0
0
0
0
0
0
0
0
0
0
0
0
0
0
0
0
0
0
0
0
0
0
0
0
0
0
0
0
0
0
0
0
0
0
0
0
0
0
0
0
0
0
0
0
0
0
0
0
0
0
0
0
0
0
0
0
0
0
0
0
0
0
0
0
0
0
0
0
0
0
0
0
0
0
0
0
0
0
0
0
0
0
0
0
0
0
0
0
0
0
0
0
0
0
0
0
0
0
0
0
0
0
0
0
0
0
0
0
0
0
0
0
0
0
0
0
0
0
0
0
0
0
0
2940.82
2905.42
2850.76
2862.7
2955.82
3060.02
3296.79
3495.72
3724.16
3877.72
4222.11
4713.49
5354.47
6177.69
6544.98
6950.41
7298.29
1051.42
103.8
6.63271
0.0136924
2.17111e-05
2.76844e-08
2.93557e-11
2.73637e-14
2.43452e-17
2.13104e-20
1.91184e-23
1.77501e-26
1.75696e-29
1.75172e-32
1.83588e-35
1.99668e-38
2.23317e-41
2.58574e-44
3.07514e-47
3.75803e-50
4.76892e-53
6.2897e-56
9.14122e-59
1.76432e-61
5.43828e-64
2.53404e-66
1.4023e-68
8.29001e-71
5.65721e-73
3.07604e-75
1.51301e-77
6.89908e-80
3.07739e-82
1.34394e-84
5.83448e-87
2.53451e-89
1.08149e-91
4.67264e-94
1.96799e-96
8.36287e-99
3.50553e-101
1.45829e-103
6.01696e-106
2.43306e-108
9.75421e-111
3.81531e-113
1.48051e-115
5.69336e-118
2.17248e-120
8.32641e-123
3.18185e-125
1.23114e-127
4.80874e-130
1.91299e-132
7.77759e-135
3.23517e-137
1.38501e-139
6.06141e-142
2.72962e-144
1.25027e-146
5.83418e-149
2.76176e-151
1.32028e-153
6.34511e-156
3.07313e-158
1.4924e-160
0
0
0
0
0
0
0
0
0
0
0
0
0
0
0
0
0
0
0
0
0
0
0
0
0
0
0
0
0
0
0
0
0
0
0
0
0
0
0
0
0
0
0
0
0
0
0
0
0
0
0
0
0
0
0
0
0
0
0
0
0
0
0
0
0
0
0
0
0
0
0
0
0
0
0
0
0
0
0
0
0
0
0
0
0
0
0
0
0
0
0
0
0
0
0
0
0
0
0
0
0
0
0
0
0
0
0
0
0
0
0
0
0
0
0
0
0
0
0
0
0
0
0
0
0
0
0
0
0
0
0
0
0
0
0
0
0
0
0
0
0
0
0
0
0
0
0
0
0
0
0
0
0
0
0
0
0
0
0
0
0
0
0
0
0
0
0
0
0
0
0
0
0
0
0
0
0
0
0
0
0
0
0
0
0
0
0
0
0
0
0
0
0
0
0
0
0
0
0
0
0
0
0
0
0
0
0
0
0
0
0
0
0
0
0
0
0
0
0
0
0
0
0
0
0
0
0
0
0
0
0
0
0
0
0
0
0
0
0
0
0
0
0
0
0
0
0
0
0
0
0
0
0
0
0
0
0
0
0
0
0
0
0
0
0
0
0
0
0
0
0
0
0
0
0
0
0
0
0
0
0
0
0
0
0
0
0
0
0
0
0
0
0
0
0
0
0
0
0
0
0
0
0
0
0
0
0
0
0
0
0
0
0
0
0
0
0
2696.22
2698.58
2784.88
2793.69
2823.83
2975.24
3115.67
3267.14
3499.52
3670.41
3981.34
4602.92
5502.67
6152.22
6702.08
6626.7
1517
206.929
16.6019
0.551669
0.000407793
3.38096e-07
3.36896e-10
3.60099e-13
3.54054e-16
3.47486e-19
3.33531e-22
3.26173e-25
3.27888e-28
3.36856e-31
3.46795e-34
3.74424e-37
4.09912e-40
4.59528e-43
5.27531e-46
6.16268e-49
7.32405e-52
8.85451e-55
1.0735e-57
1.43197e-60
2.3488e-63
6.23539e-66
2.67175e-68
1.37871e-70
7.48805e-73
4.1358e-75
2.20615e-77
1.1281e-79
5.41844e-82
2.53658e-84
1.12587e-86
4.97031e-89
2.13004e-91
9.07933e-94
3.83595e-96
1.5903e-98
6.61842e-101
2.70135e-103
1.10218e-105
4.43026e-108
1.75242e-110
6.8684e-113
2.63478e-115
1.01071e-117
3.83261e-120
1.45984e-122
5.56545e-125
2.13988e-127
8.34186e-130
3.30007e-132
1.33696e-134
5.54257e-137
2.362e-139
1.03204e-141
4.62956e-144
2.11558e-146
9.87442e-149
4.66227e-151
2.22852e-153
1.07407e-155
5.19681e-158
2.53271e-160
0
0
0
0
0
0
0
0
0
0
0
0
0
0
0
0
0
0
0
0
0
0
0
0
0
0
0
0
0
0
0
0
0
0
0
0
0
0
0
0
0
0
0
0
0
0
0
0
0
0
0
0
0
0
0
0
0
0
0
0
0
0
0
0
0
0
0
0
0
0
0
0
0
0
0
0
0
0
0
0
0
0
0
0
0
0
0
0
0
0
0
0
0
0
0
0
0
0
0
0
0
0
0
0
0
0
0
0
0
0
0
0
0
0
0
0
0
0
0
0
0
0
0
0
0
0
0
0
0
0
0
0
0
0
0
0
0
0
0
0
0
0
0
0
0
0
0
0
0
0
0
0
0
0
0
0
0
0
0
0
0
0
0
0
0
0
0
0
0
0
0
0
0
0
0
0
0
0
0
0
0
0
0
0
0
0
0
0
0
0
0
0
0
0
0
0
0
0
0
0
0
0
0
0
0
0
0
0
0
0
0
0
0
0
0
0
0
0
0
0
0
0
0
0
0
0
0
0
0
0
0
0
0
0
0
0
0
0
0
0
0
0
0
0
0
0
0
0
0
0
0
0
0
0
0
0
0
0
0
0
0
0
0
0
0
0
0
0
0
0
0
0
0
0
0
0
0
0
0
0
0
0
0
0
0
0
0
0
0
0
0
0
0
0
0
0
0
0
0
0
0
0
0
0
0
0
0
0
0
0
0
0
0
0
0
0
0
0
2639.37
2559.89
2603.73
2620.87
706.398
426.079
350.93
304.325
259.801
242.547
262.889
338.2
410.423
451.437
393.351
284.096
104.984
16.028
0.744734
0.000868779
9.37022e-07
1.02841e-09
1.08834e-12
1.16223e-15
1.16817e-18
1.20772e-21
1.26039e-24
1.34867e-27
1.48547e-30
1.61549e-33
1.7821e-36
1.98703e-39
2.23543e-42
2.57058e-45
3.03365e-48
3.66382e-51
4.52014e-54
5.67193e-57
7.27138e-60
1.05585e-62
1.98535e-65
6.1156e-68
2.72395e-70
1.3852e-72
7.25248e-75
3.74026e-77
1.91666e-79
9.48335e-82
4.54225e-84
2.11958e-86
9.41748e-89
4.15711e-91
1.76676e-93
7.47741e-96
3.09891e-98
1.26593e-100
5.1618e-103
2.05917e-105
8.21731e-108
3.21152e-110
1.24575e-112
4.76646e-115
1.81046e-117
6.86017e-120
2.58631e-122
9.84725e-125
3.74746e-127
1.45541e-129
5.72367e-132
2.30471e-134
9.51273e-137
4.03159e-139
1.75551e-141
7.82805e-144
3.57571e-146
1.658e-148
7.82538e-151
3.73415e-153
1.79607e-155
8.69946e-158
4.23285e-160
0
0
0
0
0
0
0
0
0
0
0
0
0
0
0
0
0
0
0
0
0
0
0
0
0
0
0
0
0
0
0
0
0
0
0
0
0
0
0
0
0
0
0
0
0
0
0
0
0
0
0
0
0
0
0
0
0
0
0
0
0
0
0
0
0
0
0
0
0
0
0
0
0
0
0
0
0
0
0
0
0
0
0
0
0
0
0
0
0
0
0
0
0
0
0
0
0
0
0
0
0
0
0
0
0
0
0
0
0
0
0
0
0
0
0
0
0
0
0
0
0
0
0
0
0
0
0
0
0
0
0
0
0
0
0
0
0
0
0
0
0
0
0
0
0
0
0
0
0
0
0
0
0
0
0
0
0
0
0
0
0
0
0
0
0
0
0
0
0
0
0
0
0
0
0
0
0
0
0
0
0
0
0
0
0
0
0
0
0
0
0
0
0
0
0
0
0
0
0
0
0
0
0
0
0
0
0
0
0
0
0
0
0
0
0
0
0
0
0
0
0
0
0
0
0
0
0
0
0
0
0
0
0
0
0
0
0
0
0
0
0
0
0
0
0
0
0
0
0
0
0
0
0
0
0
0
0
0
0
0
0
0
0
0
0
0
0
0
0
0
0
0
0
0
0
0
0
0
0
0
0
0
0
0
0
0
0
0
0
0
0
0
0
0
0
0
0
0
0
0
0
0
0
0
0
0
0
0
0
0
0
0
0
0
0
0
0
0
0
574.438
357.799
231.002
194.204
68.0523
42.5803
30.3934
22.8395
17.0138
13.6528
15.845
24.1822
29.1603
31.9771
25.4062
16.1005
5.89429
0.515191
0.00101609
1.42368e-06
1.79629e-09
2.12308e-12
2.3721e-15
2.64668e-18
2.89073e-21
3.24069e-24
3.71626e-27
4.3686e-30
5.10079e-33
5.91351e-36
6.89475e-39
7.79051e-42
9.01617e-45
1.06849e-47
1.30598e-50
1.65178e-53
2.14932e-56
2.85463e-59
4.00612e-62
6.66135e-65
1.5662e-67
5.79178e-70
2.70876e-72
1.3671e-74
6.91956e-77
3.45364e-79
1.70715e-81
8.15576e-84
3.86082e-86
1.75569e-88
7.79435e-91
3.3965e-93
1.43413e-95
6.00443e-98
2.4362e-100
9.83411e-103
3.91856e-105
1.53653e-107
5.98611e-110
2.29619e-112
8.76209e-115
3.30303e-117
1.24582e-119
4.66686e-122
1.76243e-124
6.68285e-127
2.56455e-129
1.00438e-131
4.00904e-134
1.63828e-136
6.91985e-139
2.98179e-141
1.32554e-143
6.0108e-146
2.7799e-148
1.30775e-150
6.20419e-153
2.98543e-155
1.44104e-157
7.00206e-160
3.21504e-162
0
0
0
0
0
0
0
0
0
0
0
0
0
0
0
0
0
0
0
0
0
0
0
0
0
0
0
0
0
0
0
0
0
0
0
0
0
0
0
0
0
0
0
0
0
0
0
0
0
0
0
0
0
0
0
0
0
0
0
0
0
0
0
0
0
0
0
0
0
0
0
0
0
0
0
0
0
0
0
0
0
0
0
0
0
0
0
0
0
0
0
0
0
0
0
0
0
0
0
0
0
0
0
0
0
0
0
0
0
0
0
0
0
0
0
0
0
0
0
0
0
0
0
0
0
0
0
0
0
0
0
0
0
0
0
0
0
0
0
0
0
0
0
0
0
0
0
0
0
0
0
0
0
0
0
0
0
0
0
0
0
0
0
0
0
0
0
0
0
0
0
0
0
0
0
0
0
0
0
0
0
0
0
0
0
0
0
0
0
0
0
0
0
0
0
0
0
0
0
0
0
0
0
0
0
0
0
0
0
0
0
0
0
0
0
0
0
0
0
0
0
0
0
0
0
0
0
0
0
0
0
0
0
0
0
0
0
0
0
0
0
0
0
0
0
0
0
0
0
0
0
0
0
0
0
0
0
0
0
0
0
0
0
0
0
0
0
0
0
0
0
0
0
0
0
0
0
0
0
0
0
0
0
0
0
0
0
0
0
0
0
0
0
0
0
0
0
0
0
0
0
0
0
0
0
0
0
0
0
0
0
0
0
0
0
0
0
0
0
49.0083
22.833
5.82156
0.517955
0.0363866
0.00448253
0.000144601
1.3326e-05
1.53461e-07
1.26034e-09
9.04334e-12
7.45318e-14
7.79784e-16
1.03616e-17
8.07513e-23
1.87894e-23
4.75866e-26
7.80394e-29
9.87089e-32
1.08668e-34
1.18948e-37
1.67434e-40
4.10344e-43
1.56322e-45
7.02667e-48
3.28962e-50
1.55096e-52
7.28304e-55
3.39187e-57
1.5632e-59
7.24409e-62
3.29139e-64
1.46473e-66
6.25901e-69
2.56585e-71
1.02096e-73
4.03496e-76
1.60749e-78
6.50196e-81
2.66764e-83
1.07749e-85
4.16648e-88
1.53214e-90
5.35088e-93
2.60759e-100
1.09179e-101
4.61778e-104
1.61216e-106
5.48512e-109
1.86908e-111
6.44935e-114
2.23644e-116
7.77241e-119
2.69432e-121
9.26098e-124
3.18578e-126
1.09134e-128
3.77691e-131
1.31807e-133
4.75369e-136
1.77507e-138
7.05513e-141
3.01035e-143
1.38243e-145
6.74276e-148
3.43902e-150
1.7931e-152
9.48414e-155
5.03294e-157
2.68133e-159
1.45393e-161
0
0
0
0
0
0
0
0
0
0
0
0
0
0
0
0
0
0
0
0
0
0
0
0
0
0
0
0
0
0
0
0
0
0
0
0
0
0
0
0
0
0
0
0
0
0
0
0
0
0
0
0
0
0
0
0
0
0
0
0
0
0
0
0
0
0
0
0
0
0
0
0
0
0
0
0
0
0
0
0
0
0
0
0
0
0
0
0
0
0
0
0
0
0
0
0
0
0
0
0
0
0
0
0
0
0
0
0
0
0
0
0
0
0
0
0
0
0
0
0
0
0
0
0
0
0
0
0
0
0
0
0
0
0
0
0
0
0
0
0
0
0
0
0
0
0
0
0
0
0
0
0
0
0
0
0
0
0
0
0
0
0
0
0
0
0
0
0
0
0
0
0
0
0
0
0
0
0
0
0
0
0
0
0
0
0
0
0
0
0
0
0
0
0
0
0
0
0
0
0
0
0
0
0
0
0
0
0
0
0
0
0
0
0
0
0
0
0
0
0
0
0
0
0
0
0
0
0
0
0
0
0
0
0
0
0
0
0
0
0
0
0
0
0
0
0
0
0
0
0
0
0
0
0
0
0
0
0
0
0
0
0
0
0
0
0
0
0
0
0
0
0
0
0
0
0
0
0
0
0
0
0
0
0
0
0
0
0
0
0
0
0
0
0
0
0
0
0
0
0
0
0
0
189.017
115.727
35.6294
6.40638
1.53689
0.376537
0.0095838
0.00124288
1.33724e-05
9.04629e-08
4.84935e-10
2.44653e-12
1.32672e-14
8.18363e-17
8.76346e-20
2.71151e-20
7.11986e-23
1.15023e-25
1.34751e-28
1.28046e-31
1.06525e-34
7.27444e-38
5.2598e-41
9.91168e-44
3.31557e-46
1.37583e-48
6.31537e-51
3.06873e-53
1.54707e-55
7.99818e-58
4.15397e-60
2.32125e-62
1.20818e-64
5.71888e-67
2.43768e-69
9.92898e-72
4.10919e-74
1.73518e-76
7.43144e-79
3.22255e-81
1.33361e-83
5.10567e-86
1.79809e-88
6.04017e-91
9.30439e-98
3.81294e-99
1.24362e-101
3.86123e-104
1.27199e-106
4.3792e-109
1.5318e-111
5.36987e-114
1.85724e-116
6.39925e-119
2.16782e-121
7.36263e-124
2.47403e-126
8.38553e-129
2.83325e-131
9.73301e-134
3.39452e-136
1.21003e-138
4.48486e-141
1.7215e-143
6.95141e-146
2.93707e-148
1.30433e-150
6.05377e-153
2.92689e-155
1.4644e-157
7.56643e-160
3.90076e-162
0
0
0
0
0
0
0
0
0
0
0
0
0
0
0
0
0
0
0
0
0
0
0
0
0
0
0
0
0
0
0
0
0
0
0
0
0
0
0
0
0
0
0
0
0
0
0
0
0
0
0
0
0
0
0
0
0
0
0
0
0
0
0
0
0
0
0
0
0
0
0
0
0
0
0
0
0
0
0
0
0
0
0
0
0
0
0
0
0
0
0
0
0
0
0
0
0
0
0
0
0
0
0
0
0
0
0
0
0
0
0
0
0
0
0
0
0
0
0
0
0
0
0
0
0
0
0
0
0
0
0
0
0
0
0
0
0
0
0
0
0
0
0
0
0
0
0
0
0
0
0
0
0
0
0
0
0
0
0
0
0
0
0
0
0
0
0
0
0
0
0
0
0
0
0
0
0
0
0
0
0
0
0
0
0
0
0
0
0
0
0
0
0
0
0
0
0
0
0
0
0
0
0
0
0
0
0
0
0
0
0
0
0
0
0
0
0
0
0
0
0
0
0
0
0
0
0
0
0
0
0
0
0
0
0
0
0
0
0
0
0
0
0
0
0
0
0
0
0
0
0
0
0
0
0
0
0
0
0
0
0
0
0
0
0
0
0
0
0
0
0
0
0
0
0
0
0
0
0
0
0
0
0
0
0
0
0
0
0
0
0
0
0
0
0
0
0
0
0
0
0
0
212.996
160.471
60.4612
19.8437
6.83315
3.31842
1.10915
0.161587
0.00172777
1.4702e-05
5.12758e-08
1.05677e-10
2.13759e-13
5.90308e-16
2.22439e-16
1.03804e-16
3.00313e-19
5.127e-22
5.93084e-25
5.28688e-28
3.75231e-31
1.36032e-34
0
0
0
0
0
0
0
0
0
1.02265e-60
1.12983e-62
8.4772e-65
3.4566e-67
1.34766e-69
5.96361e-72
2.57276e-74
1.10579e-76
4.78384e-79
1.85957e-81
6.04765e-84
1.61527e-86
3.90764e-89
4.55954e-95
1.83328e-96
4.49054e-99
1.39071e-101
4.75018e-104
1.64813e-106
5.70076e-109
1.94351e-111
6.54901e-114
2.18392e-116
7.1936e-119
2.37659e-121
7.7688e-124
2.5809e-126
8.44858e-129
2.84828e-131
9.48668e-134
3.29158e-136
1.14953e-138
4.21163e-141
1.574e-143
6.18481e-146
2.47782e-148
1.04597e-150
4.45694e-153
1.98783e-155
8.91169e-158
4.17018e-160
1.99769e-162
0
0
0
0
0
0
0
0
0
0
0
0
0
0
0
0
0
0
0
0
0
0
0
0
0
0
0
0
0
0
0
0
0
0
0
0
0
0
0
0
0
0
0
0
0
0
0
0
0
0
0
0
0
0
0
0
0
0
0
0
0
0
0
0
0
0
0
0
0
0
0
0
0
0
0
0
0
0
0
0
0
0
0
0
0
0
0
0
0
0
0
0
0
0
0
0
0
0
0
0
0
0
0
0
0
0
0
0
0
0
0
0
0
0
0
0
0
0
0
0
0
0
0
0
0
0
0
0
0
0
0
0
0
0
0
0
0
0
0
0
0
0
0
0
0
0
0
0
0
0
0
0
0
0
0
0
0
0
0
0
0
0
0
0
0
0
0
0
0
0
0
0
0
0
0
0
0
0
0
0
0
0
0
0
0
0
0
0
0
0
0
0
0
0
0
0
0
0
0
0
0
0
0
0
0
0
0
0
0
0
0
0
0
0
0
0
0
0
0
0
0
0
0
0
0
0
0
0
0
0
0
0
0
0
0
0
0
0
0
0
0
0
0
0
0
0
0
0
0
0
0
0
0
0
0
0
0
0
0
0
0
0
0
0
0
0
0
0
0
0
0
0
0
0
0
0
0
0
0
0
0
0
0
0
0
0
0
0
0
0
0
0
0
0
0
0
0
0
0
0
0
2176.22
2207.44
1789.15
535.086
127.556
72.9397
28.9226
7.40677
0.891261
0.0197255
6.31011e-05
1.13619e-07
1.27208e-10
4.19035e-13
2.56939e-12
1.44375e-12
4.87031e-15
8.91447e-18
1.1056e-20
1.06352e-23
7.9075e-27
5.4062e-30
3.76169e-33
3.19434e-36
4.50445e-39
1.13869e-41
3.82697e-44
1.41839e-46
5.44562e-49
2.08039e-51
7.93178e-54
2.94672e-56
1.07744e-58
3.75574e-61
1.29529e-63
4.80473e-66
1.91582e-68
7.88639e-71
3.17029e-73
1.20565e-75
4.3165e-78
1.33898e-80
3.58602e-83
8.2246e-86
2.73018e-91
1.0053e-92
2.59352e-95
7.91279e-98
2.67777e-100
9.24098e-103
3.22419e-105
1.09948e-107
3.72152e-110
1.24082e-112
4.0902e-115
1.34595e-117
4.38801e-120