/*--------------------------------*- C++ -*----------------------------------*\
| =========                 |                                                 |
| \\      /  F ield         | OpenFOAM: The Open Source CFD Toolbox           |
|  \\    /   O peration     | Version:  2.1.1                                 |
|   \\  /    A nd           | Web:      www.OpenFOAM.org                      |
|    \\/     M anipulation  |                                                 |
\*---------------------------------------------------------------------------*/
FoamFile
{
    version     2.0;
    format      ascii;
    class       volScalarField;
    location    "0.000950000";
    object      p;
}
// * * * * * * * * * * * * * * * * * * * * * * * * * * * * * * * * * * * * * //

dimensions      [1 -1 -2 0 0 0 0];

internalField   nonuniform List<scalar> 
12384
(
132740
130066
129346
128321
129658
129222
131932
132526
131844
128204
127901
122355
124138
124107
125324
125322
125334
125491
125506
125426
125460
124519
122595
122149
120832
120335
120600
120249
119856
119772
117921
118357
117970
117818
117914
117848
117793
117597
117913
118048
118693
119229
119459
119692
106938
107112
106908
106890
106828
106618
106484
106356
106126
105796
105870
105315
105400
104772
105008
104252
104395
104129
103664
103857
103320
103533
103062
103251
102885
103026
102792
102873
102751
102789
101473
101466
101462
101433
101437
101406
101409
101376
101382
101352
101360
101338
101338
101337
101328
101331
101326
101327
101324
101325
101323
101324
101323
101324
101322
101323
101323
101323
101323
101323
101323
101322
101323
101323
101324
101324
101323
101324
101323
101324
101324
101325
101324
101325
101325
101325
101325
101324
101325
101324
101324
101323
101324
101323
101324
101323
101322
101323
101322
101323
101323
101322
101323
101322
101323
101323
101324
101323
101324
101323
101325
101324
101326
101325
101325
101326
101325
101325
101324
101325
101323
101324
101323
101324
101323
101323
101323
101323
101323
101323
101323
101322
101323
101323
101323
101323
101323
101324
101323
101324
101324
101325
101324
101325
101325
101326
101325
101325
101324
101325
101323
101324
101323
101324
101323
101323
101322
101323
101322
101323
101323
101323
101323
101323
101323
101324
101323
101324
101323
101324
101324
101325
101324
101325
101325
101326
101325
101325
101324
101325
101323
101324
101323
101324
101322
101323
101322
101322
101323
101322
101322
101323
101322
101323
101322
101323
101323
101324
101323
101324
101324
101325
101324
101325
101325
101326
101325
101325
101324
101325
101323
101324
101323
101324
101322
101323
101322
101322
101323
101323
101323
101323
101323
101322
101323
101323
101324
101323
101324
101323
101325
101324
101325
101325
101326
101325
101325
101324
101325
101324
101324
101324
101323
101324
101323
101323
101322
101323
101322
101323
101323
101323
101322
101323
101322
101323
101323
101324
101323
101324
101324
101325
101324
101326
101325
101326
101325
101325
101324
101325
101323
101324
101323
101324
101323
101323
101323
101323
101323
101323
101322
101322
101323
101323
101322
101323
101323
101324
101323
101324
101323
101325
101324
101326
101325
101325
101326
101324
101325
101324
101324
101323
101324
101323
101324
101323
101324
101323
101323
101323
101322
101322
101321
101322
101322
101323
101322
101323
101323
101324
101324
101325
101325
101326
101326
101327
101326
101327
101325
101326
101324
101325
101323
101324
101323
101324
101323
101323
101323
101323
132733
132569
129681
129023
129481
130150
131756
131855
130779
129703
127237
125611
123821
123248
123847
123855
123895
123713
123852
124152
124023
123549
123311
122582
121760
121235
120667
120499
120014
119404
118815
117784
118106
117849
117853
117837
117772
117707
117732
117933
118452
118812
119400
119485
107240
107058
107112
106923
106856
106766
106539
106379
106258
105818
105905
105291
105496
104764
105008
104410
104240
104251
103696
103868
103345
103520
103074
103228
102903
103004
102814
102828
102778
102752
101461
101462
101448
101460
101431
101435
101400
101401
101370
101371
101347
101350
101332
101334
101326
101325
101322
101323
101320
101321
101319
101320
101318
101319
101318
101319
101318
101318
101318
101318
101319
101318
101319
101318
101318
101319
101318
101320
101318
101320
101319
101320
101320
101320
101320
101320
101321
101319
101320
101319
101320
101318
101319
101318
101319
101318
101318
101319
101318
101318
101318
101318
101319
101318
101319
101318
101319
101318
101320
101319
101320
101319
101320
101320
101320
101321
101320
101320
101319
101320
101318
101320
101318
101319
101318
101319
101318
101318
101318
101318
101318
101318
101319
101318
101318
101319
101318
101319
101318
101320
101319
101320
101319
101321
101320
101321
101320
101320
101319
101320
101319
101320
101318
101319
101318
101319
101318
101319
101318
101318
101318
101318
101318
101319
101318
101319
101318
101320
101318
101320
101319
101321
101319
101321
101320
101321
101320
101320
101319
101320
101318
101320
101318
101319
101318
101318
101317
101318
101318
101318
101318
101318
101318
101319
101318
101319
101318
101319
101318
101320
101319
101321
101320
101321
101320
101321
101320
101320
101319
101320
101318
101320
101318
101319
101318
101318
101317
101318
101318
101318
101319
101318
101319
101318
101319
101318
101319
101318
101320
101318
101320
101319
101320
101320
101321
101320
101320
101319
101320
101319
101319
101319
101318
101319
101318
101319
101318
101319
101318
101318
101318
101318
101318
101319
101318
101319
101318
101320
101318
101320
101319
101321
101320
101321
101320
101321
101320
101320
101319
101320
101319
101320
101318
101319
101318
101319
101318
101318
101318
101318
101318
101318
101318
101318
101318
101319
101318
101319
101318
101320
101319
101320
101319
101320
101320
101320
101321
101320
101320
101319
101320
101318
101320
101318
101319
101318
101319
101319
101318
101318
101317
101317
101317
101318
101317
101319
101317
101320
101318
101320
101319
101321
101320
101322
101321
101322
101321
101322
101320
101321
101319
101321
101319
101320
101318
101319
101318
101318
101318
101319
131539
130673
129924
129587
129475
130733
131160
131098
130177
130076
127615
127904
128968
129483
123487
123025
122895
122912
122652
122007
122061
123067
123522
123459
123025
122048
121356
120561
120425
119446
119291
117901
118131
117790
117846
117825
117778
117702
117763
117866
118177
118573
118861
118895
107154
107346
107071
107083
106933
106690
106723
106272
106390
105775
105897
105357
105304
104966
104732
104608
104146
104268
103712
103868
103382
103451
103123
103162
102921
102933
102845
102790
102790
102742
101514
101494
101500
101458
101470
101428
101436
101396
101399
101366
101369
101348
101350
101339
101341
101335
101336
101332
101334
101331
101332
101330
101332
101330
101331
101329
101330
101330
101329
101330
101329
101330
101328
101330
101330
101329
101331
101330
101332
101330
101332
101331
101332
101331
101332
101332
101331
101333
101331
101332
101330
101332
101330
101331
101329
101330
101330
101328
101330
101329
101329
101330
101328
101330
101329
101331
101329
101331
101330
101332
101330
101332
101331
101331
101333
101331
101333
101331
101332
101331
101332
101330
101331
101330
101331
101329
101330
101330
101329
101330
101329
101330
101329
101330
101330
101329
101331
101330
101332
101330
101332
101331
101333
101331
101333
101331
101333
101331
101332
101330
101332
101330
101331
101329
101331
101329
101330
101328
101330
101329
101329
101330
101330
101329
101331
101329
101331
101330
101332
101330
101332
101331
101333
101331
101333
101331
101333
101331
101332
101331
101332
101330
101331
101329
101331
101329
101330
101330
101329
101330
101330
101329
101330
101329
101331
101329
101331
101330
101332
101330
101332
101331
101332
101331
101333
101331
101333
101331
101332
101331
101332
101330
101331
101329
101331
101329
101330
101330
101329
101330
101330
101330
101329
101331
101329
101331
101329
101331
101330
101332
101330
101332
101331
101333
101331
101333
101331
101332
101331
101332
101332
101330
101331
101329
101331
101329
101330
101328
101330
101329
101330
101329
101330
101329
101331
101329
101331
101330
101332
101330
101332
101331
101333
101331
101333
101331
101333
101331
101332
101331
101332
101330
101331
101330
101331
101329
101330
101330
101329
101330
101329
101330
101328
101329
101330
101329
101331
101329
101332
101330
101332
101331
101333
101331
101333
101333
101331
101333
101331
101332
101330
101332
101330
101331
101329
101331
101329
101329
101330
101329
101329
101328
101329
101328
101330
101328
101331
101329
101332
101330
101333
101331
101333
101332
101334
101332
101334
101332
101333
101331
101333
101331
101332
101330
101332
101330
101331
101331
101330
101330
128018
129738
130851
131751
130935
131052
131047
130839
130622
129820
131168
130690
131308
131328
121882
123642
124209
122189
123909
121381
122686
122451
122982
123450
123447
122674
122049
120888
120435
119946
119519
118680
118020
118039
117794
117828
117866
117859
117816
117855
117842
118131
118257
118684
107523
107314
107264
106945
106970
106803
106523
106504
106087
106092
105539
105642
105000
105197
104487
104772
104058
104290
103744
103749
103546
103242
103342
102985
103087
102818
102916
102734
102817
102729
101491
101494
101471
101502
101457
101475
101425
101436
101388
101396
101357
101364
101339
101345
101332
101333
101327
101330
101324
101328
101323
101327
101322
101326
101321
101324
101322
101321
101324
101322
101324
101322
101326
101322
101324
101326
101322
101327
101323
101327
101323
101327
101323
101327
101325
101324
101327
101323
101327
101323
101327
101322
101326
101322
101325
101323
101322
101326
101322
101323
101323
101322
101326
101322
101326
101322
101326
101322
101327
101323
101327
101324
101326
101327
101324
101328
101324
101327
101323
101327
101322
101326
101322
101326
101321
101324
101322
101321
101324
101322
101323
101322
101326
101322
101323
101325
101322
101326
101322
101327
101323
101327
101323
101328
101324
101328
101323
101327
101323
101327
101323
101326
101322
101326
101322
101326
101322
101326
101322
101323
101323
101323
101322
101325
101322
101326
101322
101326
101322
101327
101323
101327
101323
101327
101324
101327
101323
101327
101323
101327
101322
101326
101322
101325
101321
101324
101321
101321
101323
101322
101323
101324
101321
101325
101321
101325
101322
101326
101322
101327
101323
101327
101323
101327
101324
101327
101323
101327
101323
101327
101322
101326
101322
101325
101321
101325
101321
101321
101323
101322
101323
101323
101325
101322
101326
101322
101326
101322
101326
101322
101327
101323
101327
101323
101327
101324
101327
101323
101327
101323
101323
101326
101322
101326
101322
101326
101322
101326
101322
101323
101323
101324
101321
101325
101321
101325
101322
101326
101322
101327
101323
101327
101323
101327
101324
101327
101323
101327
101323
101327
101322
101326
101322
101326
101321
101324
101322
101321
101324
101322
101323
101322
101325
101323
101322
101326
101322
101326
101322
101326
101322
101327
101323
101327
101324
101324
101327
101323
101327
101323
101327
101322
101327
101322
101327
101323
101326
101325
101323
101324
101322
101323
101320
101324
101320
101325
101321
101326
101322
101327
101323
101328
101324
101328
101325
101328
101324
101328
101324
101328
101323
101327
101322
101326
101322
101325
101322
101322
101324
101323
129008
130402
131224
131802
132147
131917
132939
131925
130235
131342
131488
133415
133562
134288
126607
125762
125907
125470
123832
125108
122131
123185
122424
122665
122826
122788
122088
121430
121158
120609
120344
119616
118561
117873
118011
117747
117829
117828
117818
117644
117559
117423
117695
117592
107679
107701
107551
107542
106939
106922
106714
106357
106293
106009
105648
105676
105075
105273
104580
104764
104197
104181
103940
103582
103688
103257
103310
103033
103035
102826
102913
102717
102804
102706
101544
101547
101553
101498
101516
101469
101480
101431
101437
101390
101396
101358
101363
101339
101343
101331
101333
101329
101327
101327
101326
101325
101325
101324
101324
101324
101323
101323
101323
101323
101323
101323
101323
101323
101324
101324
101324
101324
101325
101325
101325
101325
101325
101326
101325
101325
101326
101325
101325
101325
101325
101325
101324
101324
101324
101324
101323
101323
101323
101323
101323
101323
101323
101324
101323
101324
101324
101324
101324
101325
101325
101325
101325
101326
101325
101326
101325
101325
101325
101325
101325
101325
101324
101324
101324
101324
101323
101323
101323
101323
101323
101323
101323
101323
101324
101324
101324
101324
101325
101325
101325
101325
101325
101326
101325
101326
101325
101325
101325
101325
101325
101325
101324
101324
101324
101324
101324
101323
101323
101323
101323
101323
101323
101324
101324
101324
101324
101324
101324
101325
101325
101325
101325
101326
101325
101326
101325
101325
101325
101325
101325
101325
101324
101324
101324
101324
101324
101323
101323
101323
101323
101323
101324
101323
101324
101324
101324
101324
101325
101325
101325
101325
101325
101326
101326
101326
101326
101326
101325
101325
101325
101325
101324
101324
101324
101324
101324
101323
101323
101323
101323
101324
101324
101323
101324
101324
101324
101324
101325
101325
101325
101325
101325
101326
101326
101326
101326
101325
101325
101325
101325
101325
101324
101324
101324
101324
101324
101323
101323
101323
101323
101323
101324
101324
101324
101324
101324
101324
101325
101325
101325
101325
101325
101326
101326
101326
101325
101326
101325
101325
101325
101325
101324
101324
101324
101324
101323
101323
101323
101323
101323
101323
101323
101323
101324
101324
101324
101324
101324
101325
101325
101325
101326
101326
101326
101326
101326
101326
101325
101325
101325
101325
101324
101324
101324
101324
101324
101324
101323
101323
101322
101323
101323
101323
101323
101323
101324
101324
101325
101325
101325
101326
101326
101326
101327
101327
101327
101326
101326
101326
101326
101325
101325
101325
101325
101324
101324
101324
101324
101324
131729
131845
132757
133302
133479
133409
132519
131632
130468
129050
132526
132638
133723
133382
127241
127887
127956
127787
126841
125095
125807
122685
123316
122140
122133
121969
121866
121588
121164
121227
120906
120479
119538
118187
118157
117782
117809
117851
117638
117528
117079
116978
116427
116878
107870
108129
107838
107339
107551
106839
106906
106486
106177
106202
105630
105777
105113
105308
104629
104825
104181
104360
103824
103743
103635
103314
103373
103019
103130
102787
102911
102703
102739
102714
101609
101563
101526
101559
101508
101525
101475
101483
101431
101437
101388
101393
101355
101361
101337
101342
101331
101335
101328
101329
101327
101327
101325
101326
101325
101325
101325
101324
101325
101324
101325
101324
101325
101325
101325
101326
101325
101326
101325
101327
101326
101327
101326
101327
101327
101326
101327
101326
101327
101326
101327
101325
101326
101325
101326
101325
101324
101325
101324
101325
101325
101324
101325
101324
101325
101325
101326
101325
101326
101326
101327
101326
101327
101327
101327
101327
101326
101327
101326
101327
101326
101326
101325
101326
101325
101325
101325
101324
101325
101324
101325
101324
101325
101325
101325
101326
101325
101326
101325
101327
101326
101327
101326
101327
101327
101327
101326
101327
101326
101327
101326
101326
101325
101326
101325
101326
101324
101325
101324
101325
101324
101325
101325
101325
101324
101326
101325
101326
101325
101327
101326
101327
101326
101327
101327
101327
101326
101327
101326
101327
101326
101326
101325
101326
101325
101325
101325
101324
101325
101324
101324
101325
101324
101325
101324
101326
101325
101326
101325
101327
101326
101327
101326
101327
101327
101327
101326
101327
101326
101327
101326
101326
101325
101326
101325
101325
101324
101324
101325
101324
101325
101325
101325
101324
101326
101325
101326
101325
101326
101326
101327
101326
101327
101326
101327
101327
101327
101326
101327
101326
101326
101326
101325
101326
101325
101326
101324
101325
101324
101325
101324
101325
101324
101325
101324
101326
101325
101326
101325
101327
101326
101327
101326
101327
101327
101327
101327
101327
101326
101327
101326
101326
101325
101326
101325
101325
101325
101324
101325
101324
101325
101324
101325
101325
101324
101326
101325
101326
101325
101327
101326
101327
101326
101327
101327
101327
101327
101326
101327
101326
101327
101325
101326
101325
101326
101325
101326
101326
101325
101325
101324
101324
101323
101325
101324
101325
101324
101326
101325
101327
101326
101328
101327
101328
101327
101328
101327
101328
101327
101328
101326
101327
101326
101327
101325
101326
101325
101325
101325
101324
131956
133644
133415
133610
133789
133874
132718
130647
129053
126662
130387
133006
133232
133494
126721
127428
128187
128800
129303
128038
125758
125947
122814
123298
121433
121454
121336
121172
121286
121352
121369
121024
120407
119345
117766
118093
117553
117439
117600
117130
116881
116243
116093
115394
108563
108528
108426
108183
107479
107550
106751
106704
106392
106049
105912
105613
105401
105100
104961
104534
104546
104059
104114
103626
103759
103297
103419
103062
103083
102879
102826
102735
102613
102631
101568
101618
101615
101549
101572
101518
101530
101477
101484
101428
101436
101384
101386
101362
101345
101343
101336
101331
101332
101327
101328
101326
101325
101326
101324
101324
101324
101323
101324
101323
101324
101324
101324
101324
101324
101324
101325
101325
101325
101325
101325
101326
101326
101326
101326
101326
101326
101325
101326
101325
101325
101325
101325
101325
101324
101324
101324
101324
101324
101324
101324
101323
101324
101324
101324
101324
101324
101325
101325
101325
101325
101325
101326
101326
101326
101326
101326
101326
101325
101325
101325
101325
101325
101324
101324
101324
101324
101323
101324
101323
101324
101324
101324
101323
101324
101324
101325
101325
101325
101325
101325
101326
101325
101326
101326
101326
101326
101326
101325
101325
101325
101325
101325
101324
101324
101324
101324
101324
101323
101324
101324
101324
101324
101324
101324
101324
101325
101325
101325
101325
101325
101326
101325
101326
101326
101326
101326
101326
101325
101325
101325
101325
101325
101324
101324
101324
101324
101323
101324
101323
101323
101324
101324
101324
101324
101324
101324
101325
101325
101325
101325
101326
101325
101326
101326
101326
101326
101326
101325
101325
101325
101325
101325
101324
101324
101324
101324
101323
101324
101323
101324
101324
101324
101324
101324
101324
101324
101325
101325
101325
101325
101325
101326
101326
101326
101326
101326
101326
101326
101325
101325
101325
101325
101325
101324
101324
101324
101324
101324
101324
101323
101324
101324
101324
101324
101324
101324
101325
101325
101325
101325
101326
101326
101326
101326
101326
101326
101326
101325
101326
101325
101325
101325
101325
101324
101324
101324
101323
101324
101324
101324
101323
101324
101324
101324
101324
101324
101325
101325
101325
101325
101326
101326
101326
101326
101326
101326
101326
101326
101325
101325
101325
101325
101325
101324
101324
101324
101324
101324
101324
101323
101323
101323
101323
101324
101324
101324
101324
101325
101325
101326
101326
101326
101327
101326
101327
101326
101327
101326
101326
101326
101326
101325
101325
101325
101324
101324
101324
101323
101323
135820
134797
134630
133551
132764
132301
131758
131084
130389
128280
130084
130657
132757
131783
120501
125162
127147
128823
129928
129729
127852
125511
125588
122760
123097
121008
120891
120972
120815
121095
121393
121489
120941
120557
118292
118141
117815
117308
117088
116739
116396
116159
115518
115486
107680
108642
108542
108204
108243
107338
107348
106608
106598
106032
106097
105529
105658
104972
105206
104512
104652
104069
104231
103622
103821
103378
103315
103235
102950
102999
102718
102806
102533
102674
101796
101595
101589
101597
101543
101573
101518
101526
101479
101472
101425
101426
101386
101367
101367
101339
101347
101334
101333
101333
101328
101330
101327
101327
101327
101326
101326
101326
101325
101325
101325
101325
101325
101326
101326
101326
101326
101327
101327
101327
101327
101327
101327
101327
101327
101327
101327
101327
101327
101327
101327
101327
101327
101326
101326
101326
101326
101325
101325
101325
101325
101325
101326
101325
101326
101326
101327
101326
101327
101327
101327
101327
101327
101327
101327
101327
101327
101327
101327
101327
101327
101327
101326
101327
101326
101326
101325
101326
101325
101325
101325
101325
101325
101326
101326
101326
101326
101327
101327
101327
101327
101327
101327
101327
101327
101327
101327
101327
101327
101327
101327
101327
101326
101327
101326
101326
101326
101326
101325
101325
101325
101325
101325
101326
101326
101326
101326
101327
101327
101327
101327
101327
101327
101327
101327
101327
101327
101327
101327
101327
101327
101327
101326
101327
101326
101326
101326
101326
101325
101325
101325
101325
101325
101326
101326
101326
101326
101327
101327
101327
101327
101327
101327
101327
101328
101328
101327
101327
101327
101327
101327
101327
101326
101327
101326
101326
101325
101326
101325
101325
101325
101325
101326
101325
101326
101326
101326
101326
101327
101327
101327
101327
101327
101327
101327
101327
101327
101327
101327
101327
101327
101327
101327
101326
101326
101326
101326
101326
101325
101325
101325
101325
101325
101326
101326
101326
101326
101327
101327
101327
101327
101327
101327
101327
101328
101327
101327
101327
101327
101327
101327
101327
101326
101327
101326
101326
101325
101326
101325
101325
101325
101325
101325
101326
101326
101326
101326
101327
101327
101327
101327
101327
101327
101328
101328
101328
101328
101327
101327
101327
101327
101327
101327
101326
101326
101326
101326
101326
101326
101326
101325
101325
101325
101325
101325
101326
101326
101327
101327
101327
101327
101328
101328
101328
101328
101328
101328
101328
101328
101328
101327
101327
101327
101326
101326
101325
101325
101325
101325
101325
135779
136351
134931
134021
132693
132652
133266
132426
130909
128822
129356
131545
130458
128095
123265
120605
128031
124109
128585
130505
131411
130753
129088
127368
124699
125307
122635
122841
120549
120732
120319
120506
121137
121396
121489
120684
119611
118076
117909
116657
116842
116351
116093
114944
114222
112411
109437
110525
109439
109853
109595
109270
108310
108363
107066
107356
106389
106430
105983
105796
105511
105220
105127
104609
104758
104083
104342
103681
103840
103445
103390
103112
103166
102812
102769
102703
102445
102327
102109
102141
101754
101802
101694
101656
101638
101565
101587
101513
101530
101467
101458
101423
101411
101371
101375
101353
101338
101342
101330
101333
101328
101328
101326
101325
101325
101324
101324
101324
101324
101324
101324
101324
101324
101324
101324
101324
101324
101325
101325
101325
101325
101325
101325
101326
101326
101326
101326
101326
101326
101326
101326
101325
101325
101325
101325
101325
101325
101324
101324
101324
101324
101324
101324
101324
101324
101323
101324
101324
101324
101324
101325
101325
101325
101325
101326
101325
101326
101326
101326
101326
101326
101326
101326
101326
101325
101325
101325
101325
101324
101324
101324
101324
101324
101324
101324
101324
101324
101324
101324
101324
101324
101324
101325
101325
101325
101325
101325
101326
101326
101326
101326
101326
101326
101326
101325
101326
101325
101325
101325
101325
101324
101324
101324
101324
101324
101324
101324
101324
101324
101324
101324
101324
101324
101324
101325
101325
101325
101325
101325
101326
101326
101326
101326
101326
101326
101326
101325
101326
101325
101325
101325
101325
101324
101324
101324
101324
101324
101324
101324
101324
101324
101324
101324
101324
101324
101324
101325
101325
101325
101325
101325
101326
101326
101326
101326
101326
101326
101326
101326
101326
101325
101325
101325
101325
101324
101324
101324
101324
101324
101324
101324
101324
101324
101324
101324
101324
101324
101324
101325
101325
101325
101325
101325
101325
101326
101326
101326
101326
101326
101326
101326
101325
101325
101325
101325
101325
101325
101324
101324
101324
101324
101324
101324
101324
101324
101324
101324
101324
101324
101324
101325
101325
101325
101325
101325
101326
101326
101326
101326
101326
101326
101326
101326
101326
101325
101325
101325
101325
101325
101324
101324
101324
101324
101324
101324
101324
101324
101324
101324
101324
101324
101324
101325
101325
101325
101325
101325
101326
101326
101326
101326
101326
101326
101326
101326
101325
101326
101325
101325
101325
101325
101324
101324
101324
101324
101324
101324
101324
101324
101323
101324
101324
101324
101324
101324
101325
101325
101325
101326
101326
101326
101326
101326
101326
101326
101326
101326
101326
101325
101325
101325
101325
101324
101324
101323
101324
101323
101323
101323
101323
137532
136277
135784
132894
133357
133137
132849
133266
130978
129606
129934
129630
130681
131973
124586
140817
126316
135303
130785
132055
130958
131227
128963
128629
125040
125294
124464
122830
122275
120113
120008
120137
120475
121142
121436
120843
120557
118279
117614
116925
115935
116067
115044
114867
114445
112639
112297
111114
109953
110037
109400
109573
108356
108427
107388
107202
106448
106603
105823
106056
105325
105575
104843
104996
104497
104319
104140
103806
103841
103410
103545
103068
103239
102824
102811
102602
102471
102364
102042
102128
101701
101895
101627
101723
101603
101596
101578
101530
101529
101487
101475
101421
101439
101373
101388
101353
101358
101336
101341
101331
101334
101328
101329
101328
101326
101327
101325
101326
101325
101325
101325
101325
101325
101325
101326
101326
101326
101326
101327
101327
101327
101327
101327
101327
101328
101327
101328
101328
101327
101328
101327
101327
101327
101327
101327
101327
101326
101326
101325
101326
101325
101325
101325
101325
101325
101325
101325
101326
101326
101326
101326
101327
101327
101327
101327
101327
101327
101328
101328
101328
101328
101327
101327
101327
101327
101327
101327
101326
101326
101326
101326
101325
101325
101325
101325
101325
101325
101325
101326
101325
101326
101326
101326
101327
101327
101327
101327
101327
101328
101327
101328
101327
101328
101327
101327
101327
101327
101327
101327
101326
101326
101326
101326
101325
101325
101325
101325
101325
101325
101325
101326
101326
101326
101326
101327
101327
101327
101327
101327
101327
101327
101327
101328
101328
101328
101327
101327
101327
101327
101327
101327
101326
101326
101326
101326
101325
101326
101325
101325
101325
101325
101325
101326
101325
101326
101326
101327
101327
101327
101327
101327
101327
101328
101327
101328
101328
101328
101327
101327
101327
101327
101327
101327
101326
101326
101326
101326
101325
101325
101325
101325
101325
101325
101325
101325
101326
101326
101326
101326
101327
101327
101327
101327
101327
101327
101328
101328
101328
101328
101328
101327
101327
101327
101327
101327
101326
101326
101326
101326
101325
101325
101325
101325
101325
101325
101325
101326
101325
101326
101326
101326
101327
101327
101327
101327
101327
101328
101327
101328
101328
101328
101327
101327
101327
101327
101327
101327
101326
101326
101326
101326
101325
101326
101325
101325
101325
101325
101325
101325
101325
101326
101326
101326
101327
101327
101327
101327
101327
101328
101328
101328
101328
101328
101328
101327
101327
101327
101327
101327
101327
101326
101326
101326
101326
101325
101325
101325
101325
101325
101325
101325
101325
101326
101326
101326
101326
101327
101327
101328
101328
101328
101328
101328
101328
101328
101328
101328
101327
101327
101327
101327
101326
101326
101325
101325
101324
101324
101324
101324
101324
138185
136013
134762
132444
132761
133501
133259
132259
130188
129218
129482
129220
132930
129946
126468
120744
139954
125596
130535
130212
132984
131097
130060
128380
124690
126144
124627
124355
122900
119870
120754
119516
119770
120761
121072
121012
121095
117871
118205
117009
115295
116084
114697
115073
113611
113126
112557
110733
111201
109947
109813
109438
108669
108642
107331
107757
106513
106689
105891
106059
105418
105481
104938
105016
104460
104612
103968
104125
103716
103564
103417
103215
103129
102848
102880
102504
102576
102198
102233
101997
101814
101869
101676
101713
101612
101633
101567
101564
101541
101484
101504
101426
101444
101393
101387
101363
101358
101343
101337
101335
101329
101330
101326
101326
101325
101324
101324
101324
101323
101324
101323
101323
101324
101324
101324
101324
101324
101324
101324
101325
101325
101325
101325
101325
101325
101326
101326
101326
101326
101326
101326
101325
101325
101325
101325
101324
101324
101324
101324
101324
101324
101323
101323
101323
101324
101323
101324
101324
101324
101324
101325
101325
101325
101325
101325
101325
101326
101326
101326
101326
101326
101326
101325
101325
101325
101325
101325
101325
101324
101324
101324
101324
101323
101324
101323
101323
101323
101324
101324
101324
101324
101324
101324
101325
101325
101325
101325
101326
101326
101326
101326
101326
101326
101326
101325
101325
101325
101325
101325
101325
101324
101324
101324
101324
101323
101324
101323
101323
101323
101324
101324
101324
101324
101324
101324
101325
101325
101325
101325
101326
101325
101326
101326
101326
101326
101326
101325
101325
101325
101325
101325
101325
101324
101324
101324
101324
101323
101324
101323
101323
101323
101324
101324
101324
101324
101324
101324
101325
101325
101325
101325
101326
101326
101326
101326
101326
101326
101326
101325
101325
101325
101325
101325
101325
101324
101324
101324
101324
101323
101324
101323
101323
101324
101323
101324
101324
101324
101324
101325
101325
101325
101325
101325
101325
101326
101326
101326
101326
101326
101326
101326
101325
101325
101325
101325
101325
101324
101324
101324
101324
101323
101324
101323
101323
101323
101324
101324
101324
101324
101324
101324
101325
101325
101325
101325
101326
101326
101326
101326
101326
101326
101326
101325
101325
101325
101325
101325
101325
101324
101324
101324
101324
101323
101324
101323
101323
101323
101324
101323
101324
101324
101324
101324
101325
101325
101325
101325
101326
101326
101326
101326
101326
101326
101326
101326
101325
101325
101325
101325
101325
101325
101324
101324
101323
101324
101323
101323
101323
101323
101323