/*--------------------------------*- C++ -*----------------------------------*\
| =========                 |                                                 |
| \\      /  F ield         | OpenFOAM: The Open Source CFD Toolbox           |
|  \\    /   O peration     | Version:  2.1.1                                 |
|   \\  /    A nd           | Web:      www.OpenFOAM.org                      |
|    \\/     M anipulation  |                                                 |
\*---------------------------------------------------------------------------*/
FoamFile
{
    version     2.0;
    format      ascii;
    class       volScalarField;
    location    "0.000950000";
    object      rho;
}
// * * * * * * * * * * * * * * * * * * * * * * * * * * * * * * * * * * * * * //

dimensions      [1 -3 0 0 0 0 0];

internalField   nonuniform List<scalar> 
12384
(
0.92577
0.988331
1.03222
1.0359
1.04049
1.04088
1.05669
1.05519
1.0441
1.02442
1.0217
0.988506
0.998164
0.999347
1.01698
1.02243
1.0211
1.02038
1.0194
1.01752
1.01545
1.0077
0.994189
0.990399
0.981723
0.978297
0.979668
0.977408
0.975375
0.974795
0.963998
0.96661
0.964336
0.963461
0.963932
0.963599
0.96324
0.962089
0.963994
0.964703
0.968522
0.97158
0.972963
0.974297
0.899083
0.900192
0.898961
0.898711
0.898451
0.897076
0.896403
0.895537
0.894249
0.892185
0.892701
0.889313
0.889842
0.886085
0.887462
0.882976
0.883737
0.88225
0.87932
0.88059
0.877252
0.878607
0.875707
0.876885
0.874636
0.875516
0.874077
0.874584
0.873828
0.874007
0.86601
0.866031
0.866017
0.86584
0.865861
0.865679
0.865704
0.865506
0.865545
0.865373
0.86542
0.865293
0.865302
0.865307
0.865258
0.86528
0.865238
0.865239
0.865215
0.865216
0.865202
0.865204
0.865188
0.865192
0.86518
0.86518
0.865178
0.865171
0.865171
0.86509
0.865092
0.865163
0.865178
0.865177
0.865182
0.865187
0.865186
0.865198
0.865194
0.865209
0.865202
0.865218
0.865225
0.865241
0.865244
0.865241
0.865239
0.865222
0.865217
0.865202
0.865209
0.865193
0.865197
0.865186
0.865187
0.865179
0.865176
0.865177
0.865163
0.865092
0.865092
0.865166
0.865177
0.865173
0.865181
0.865183
0.865192
0.865189
0.865203
0.865202
0.865213
0.865212
0.865231
0.865239
0.865238
0.865246
0.865232
0.865229
0.865211
0.865212
0.865201
0.865203
0.865188
0.865191
0.865179
0.86518
0.865178
0.865172
0.865171
0.865091
0.865092
0.865164
0.865178
0.865178
0.865178
0.865186
0.865185
0.865197
0.865193
0.865209
0.865201
0.865217
0.865221
0.865237
0.865239
0.865246
0.865234
0.86523
0.865211
0.865211
0.8652
0.865201
0.865187
0.865191
0.865179
0.865181
0.865172
0.865177
0.865167
0.865091
0.865091
0.865166
0.865171
0.86518
0.865173
0.865188
0.865187
0.865198
0.865194
0.865209
0.865202
0.865218
0.865222
0.865239
0.865241
0.865247
0.865233
0.865229
0.86521
0.865212
0.865201
0.865203
0.865188
0.865191
0.865181
0.86518
0.865173
0.86517
0.865171
0.86509
0.865088
0.865171
0.865167
0.865181
0.865172
0.865188
0.865186
0.865197
0.865193
0.865208
0.865201
0.865217
0.865222
0.865239
0.865241
0.865246
0.865233
0.865229
0.865211
0.865212
0.865201
0.865203
0.865188
0.865191
0.865181
0.86518
0.865176
0.86517
0.865171
0.865091
0.865091
0.865168
0.865176
0.865175
0.865181
0.86518
0.865192
0.865189
0.865203
0.865201
0.865212
0.86521
0.865228
0.865231
0.865244
0.865238
0.86524
0.865222
0.865216
0.865204
0.865205
0.865203
0.865189
0.865192
0.865182
0.865178
0.865172
0.865175
0.865163
0.865091
0.865091
0.865171
0.865168
0.865181
0.865173
0.865188
0.865187
0.865198
0.865194
0.865209
0.865202
0.865218
0.865222
0.865238
0.865241
0.865247
0.865234
0.86523
0.865208
0.865212
0.865201
0.865203
0.865188
0.865191
0.865181
0.86518
0.865176
0.865172
0.865171
0.865091
0.86509
0.865163
0.865173
0.865179
0.865171
0.865185
0.865184
0.865196
0.865194
0.865208
0.865203
0.865217
0.865219
0.865239
0.865242
0.865242
0.86524
0.865224
0.865219
0.865203
0.86521
0.865197
0.865198
0.865187
0.865189
0.865174
0.865183
0.865176
0.865166
0.865094
0.865085
0.865165
0.865162
0.865175
0.865168
0.865184
0.86518
0.865194
0.865192
0.865208
0.865202
0.865219
0.865223
0.865242
0.865241
0.865252
0.865236
0.865237
0.86522
0.865222
0.865207
0.865207
0.865191
0.865195
0.865181
0.865182
0.865178
0.865173
0.865172
0.86509
0.683118
0.785172
1.01239
1.14075
1.14539
1.17106
1.17519
1.16105
1.13223
1.0884
1.05584
1.0335
1.01768
1.00993
1.1425
1.15783
1.15463
1.14858
1.14471
1.14131
1.13342
1.1213
1.10887
1.09278
1.07525
1.05998
1.04678
1.03625
1.02415
1.01308
1.00257
0.990575
0.988313
0.982405
0.9804
0.977786
0.975222
0.973169
0.971303
0.971067
0.972675
0.975625
0.977567
0.977285
0.940409
0.939886
0.939472
0.935475
0.931939
0.928178
0.923058
0.920044
0.915922
0.911993
0.910075
0.905076
0.905166
0.89918
0.90061
0.895171
0.894429
0.893025
0.889804
0.890193
0.886638
0.887693
0.884209
0.885229
0.882615
0.883154
0.881861
0.881709
0.881447
0.877018
0.869424
0.874042
0.874086
0.874325
0.874202
0.874384
0.874371
0.874569
0.874612
0.874804
0.874866
0.875028
0.875233
0.875596
0.875845
0.875777
0.875496
0.875136
0.874937
0.874757
0.874645
0.874419
0.874267
0.874028
0.873837
0.873643
0.873485
0.873318
0.873081
0.868053
0.868021
0.873104
0.873295
0.873479
0.873618
0.873748
0.873984
0.874172
0.874396
0.874561
0.874751
0.874885
0.875208
0.875575
0.875718
0.875781
0.875473
0.875157
0.874882
0.874768
0.874581
0.874423
0.874197
0.874012
0.873772
0.873621
0.873501
0.873308
0.873108
0.868019
0.868021
0.873078
0.873285
0.873474
0.873607
0.873812
0.873977
0.874206
0.874355
0.874591
0.87473
0.874935
0.87521
0.875515
0.875791
0.875742
0.875473
0.875121
0.874924
0.874742
0.874635
0.874407
0.874261
0.874025
0.873838
0.873639
0.873488
0.873325
0.873086
0.868047
0.868021
0.873109
0.873313
0.873508
0.87362
0.873788
0.874028
0.87421
0.874439
0.874598
0.874789
0.874896
0.875151
0.875413
0.875718
0.875778
0.875605
0.875223
0.874946
0.874712
0.874522
0.874268
0.874125
0.873909
0.873744
0.873545
0.873416
0.873258
0.87305
0.868028
0.868016
0.87311
0.873322
0.873495
0.873674
0.873826
0.874075
0.874236
0.874454
0.874588
0.874767
0.87488
0.875163
0.875469
0.875787
0.875774
0.875517
0.875143
0.874929
0.87474
0.874638
0.874412
0.874267
0.87403
0.873845
0.873645
0.873495
0.873327
0.873086
0.868047
0.868027
0.873037
0.873297
0.873467
0.87366
0.873814
0.874053
0.874205
0.874423
0.874557
0.874741
0.87486
0.875149
0.875471
0.875787
0.875767
0.875514
0.875149
0.874935
0.874745
0.874641
0.874416
0.874266
0.874027
0.873841
0.873644
0.873491
0.873321
0.873082
0.868052
0.868047
0.873079
0.873311
0.873499
0.873652
0.873864
0.874039
0.874273
0.874408
0.874619
0.874719
0.8749
0.875081
0.875413
0.875686
0.87581
0.875587
0.875228
0.874867
0.874662
0.87453
0.874329
0.874165
0.873938
0.873768
0.873565
0.87344
0.873256
0.873075
0.868015
0.868059
0.87307
0.873329
0.873502
0.873693
0.87384
0.874073
0.87423
0.874445
0.87457
0.874746
0.874855
0.875128
0.875435
0.875768
0.875783
0.875545
0.87517
0.874939
0.874746
0.874634
0.874403
0.874253
0.874018
0.87383
0.873633
0.873478
0.87332
0.873081
0.868048
0.868018
0.873115
0.87332
0.873466
0.873634
0.873802
0.874046
0.874224
0.874456
0.874603
0.874792
0.874907
0.875194
0.875477
0.875796
0.875792
0.875499
0.875183
0.874891
0.874774
0.874592
0.87445
0.874225
0.874054
0.873815
0.873661
0.873499
0.873341
0.873123
0.868025
0.868043
0.873074
0.873339
0.873514
0.873727
0.873873
0.874117
0.874265
0.87448
0.874595
0.874766
0.87486
0.875119
0.875394
0.875734
0.875807
0.875578
0.875187
0.874953
0.874776
0.87466
0.87443
0.874276
0.874033
0.873845
0.873647
0.873475
0.873321
0.873079
0.868058
0.672833
0.665218
0.881695
1.0936
1.22462
1.26684
1.28146
1.28184
1.27131
1.26508
1.23272
1.21289
1.19616
1.18388
1.24498
1.23585
1.23456
1.23675
1.23676
1.23315
1.2347
1.24314
1.24736
1.24774
1.24531
1.23909
1.23383
1.22866
1.22719
1.22049
1.21835
1.20818
1.20845
1.20525
1.20397
1.20038
1.19859
1.19492
1.19182
1.19008
1.18541
1.18625
1.18466
1.18376
1.13165
1.13006
1.1274
1.12736
1.12585
1.12399
1.12372
1.12015
1.1208
1.11587
1.11669
1.11233
1.11186
1.10898
1.10714
1.10594
1.10269
1.10335
1.09948
1.10019
1.09688
1.09716
1.09487
1.09528
1.09346
1.09375
1.09299
1.09253
1.09265
1.09768
1.08873
1.08259
1.08228
1.08181
1.08167
1.08119
1.08092
1.08039
1.08012
1.07965
1.07945
1.07911
1.07879
1.07825
1.07794
1.07794
1.07829
1.07866
1.07891
1.07905
1.07918
1.07936
1.07954
1.07976
1.07999
1.08016
1.08032
1.08049
1.08075
1.08733
1.08732
1.08077
1.0805
1.08032
1.08018
1.08006
1.07982
1.07961
1.07941
1.07922
1.07907
1.0789
1.07857
1.07811
1.07799
1.0779
1.07823
1.07864
1.07891
1.07905
1.0792
1.07938
1.07958
1.0798
1.08003
1.08018
1.08029
1.08048
1.08076
1.08732
1.08732
1.08082
1.08051
1.08032
1.08018
1.08001
1.0798
1.07961
1.07942
1.07922
1.07905
1.07889
1.07855
1.0782
1.07789
1.07791
1.07827
1.07864
1.07891
1.07905
1.07918
1.07937
1.07955
1.07976
1.07999
1.08016
1.08031
1.08048
1.08075
1.08733
1.08732
1.08076
1.08048
1.08028
1.0802
1.08001
1.07978
1.07957
1.07937
1.07918
1.07903
1.0789
1.07866
1.07831
1.07799
1.07788
1.07811
1.07851
1.07885
1.07906
1.07928
1.07951
1.07969
1.07988
1.08009
1.08024
1.08038
1.08054
1.08086
1.08733
1.08732
1.08076
1.08051
1.08029
1.08013
1.07996
1.07973
1.07954
1.07936
1.0792
1.07906
1.07892
1.07863
1.07823
1.07789
1.07788
1.07822
1.07861
1.0789
1.07905
1.07918
1.07937
1.07954
1.07975
1.07998
1.08015
1.0803
1.08047
1.08075
1.08733
1.08733
1.08082
1.08052
1.0803
1.08015
1.07998
1.07977
1.07957
1.0794
1.07923
1.07909
1.07893
1.07864
1.07823
1.07789
1.07789
1.07822
1.07861
1.0789
1.07905
1.07918
1.07936
1.07954
1.07975
1.07998
1.08015
1.08031
1.08048
1.08075
1.08733
1.08733
1.08078
1.08049
1.0803
1.08014
1.07996
1.07974
1.07954
1.07937
1.07921
1.07907
1.07894
1.07869
1.07834
1.07798
1.07786
1.07809
1.07852
1.07892
1.07914
1.07927
1.07945
1.07964
1.07984
1.08005
1.08022
1.08036
1.08054
1.08083
1.08732
1.08733
1.08076
1.08048
1.08027
1.08013
1.07995
1.07975
1.07955
1.07938
1.07922
1.07909
1.07894
1.07867
1.07827
1.07792
1.07787
1.07818
1.07858
1.07889
1.07904
1.07918
1.07937
1.07956
1.07977
1.07999
1.08017
1.08033
1.08049
1.08075
1.08733
1.08732
1.08074
1.08048
1.08033
1.08017
1.07999
1.07976
1.07955
1.07935
1.07917
1.07903
1.07888
1.0786
1.07823
1.07787
1.07788
1.07821
1.07861
1.0789
1.07906
1.07919
1.07937
1.07955
1.07976
1.07998
1.08015
1.08029
1.08047
1.08075
1.08732
1.08731
1.08075
1.08046
1.08024
1.08008
1.0799
1.0797
1.07951
1.07935
1.07919
1.07907
1.07894
1.0787
1.07833
1.07797
1.07785
1.07816
1.07858
1.0789
1.07902
1.07917
1.07936
1.07955
1.07976
1.07999
1.08017
1.08034
1.0805
1.08075
1.08733
0.246066
0.221876
0.246414
0.403291
0.716048
0.881097
1.1255
1.24297
1.26831
1.27408
1.2886
1.29447
1.28821
1.27558
1.19089
1.16949
1.16958
1.16145
1.18164
1.17542
1.19249
1.19824
1.20828
1.21674
1.22129
1.21944
1.21792
1.21206
1.21083
1.20886
1.20731
1.20221
1.19874
1.19939
1.19818
1.19908
1.19962
1.19996
1.20015
1.20034
1.20077
1.20252
1.20378
1.20758
1.11685
1.11524
1.1155
1.1139
1.11499
1.11441
1.11328
1.11354
1.11112
1.11139
1.10773
1.10867
1.10416
1.10577
1.10058
1.10291
1.09752
1.09951
1.09529
1.09553
1.09392
1.09172
1.0925
1.08978
1.09063
1.08857
1.08932
1.08798
1.08861
1.08896
1.07952
1.07847
1.07829
1.0785
1.07819
1.07831
1.07795
1.07801
1.07765
1.0777
1.0774
1.07744
1.07724
1.07728
1.07718
1.07719
1.07715
1.07717
1.07713
1.07716
1.07712
1.07715
1.07712
1.07714
1.07712
1.07714
1.07712
1.07712
1.07719
1.07834
1.07836
1.07718
1.07716
1.07712
1.07714
1.07716
1.07712
1.07715
1.07712
1.07715
1.07713
1.07715
1.07712
1.07714
1.07713
1.07712
1.07715
1.07712
1.07715
1.07712
1.07715
1.07712
1.07715
1.07712
1.07715
1.07713
1.07712
1.07715
1.07717
1.07835
1.07835
1.07717
1.07716
1.07712
1.07715
1.07712
1.07715
1.07712
1.07715
1.07712
1.07715
1.07712
1.07714
1.07715
1.07712
1.07715
1.07712
1.07715
1.07713
1.07715
1.07712
1.07715
1.07712
1.07714
1.07712
1.07714
1.07712
1.07712
1.07719
1.07834
1.07835
1.07717
1.07715
1.07712
1.07713
1.07715
1.07712
1.07715
1.07712
1.07715
1.07712
1.07715
1.07713
1.07715
1.07712
1.07715
1.07712
1.07715
1.07712
1.07715
1.07712
1.07715
1.07712
1.07715
1.07712
1.07715
1.07713
1.07716
1.07717
1.07836
1.07835
1.07718
1.07713
1.07715
1.07712
1.07715
1.07712
1.07715
1.07712
1.07715
1.07712
1.07715
1.07712
1.07715
1.07712
1.07715
1.07712
1.07715
1.07712
1.07715
1.07712
1.07715
1.07712
1.07715
1.07711
1.07714
1.07712
1.07712
1.07719
1.07834
1.07834
1.07719
1.07712
1.07714
1.07711
1.07715
1.07712
1.07715
1.07712
1.07715
1.07712
1.07715
1.07712
1.07715
1.07712
1.07715
1.07712
1.07715
1.07712
1.07715
1.07712
1.07715
1.07712
1.07714
1.07711
1.07714
1.07712
1.07712
1.07719
1.07834
1.07835
1.07718
1.07715
1.07712
1.07715
1.07712
1.07715
1.07712
1.07715
1.07712
1.07715
1.07712
1.07715
1.07712
1.07715
1.07712
1.07715
1.07712
1.07715
1.07712
1.07713
1.07715
1.07712
1.07715
1.07712
1.07715
1.07712
1.07716
1.07717
1.07835
1.07834
1.07719
1.07712
1.07714
1.07711
1.07715
1.07712
1.07715
1.07712
1.07715
1.07712
1.07715
1.07712
1.07715
1.07712
1.07715
1.07712
1.07715
1.07712
1.07715
1.07712
1.07715
1.07712
1.07714
1.07712
1.07714
1.07712
1.07712
1.07719
1.07834
1.07836
1.07717
1.07715
1.07713
1.07712
1.07715
1.07712
1.07715
1.07712
1.07715
1.07712
1.07715
1.07712
1.07715
1.07712
1.07712
1.07714
1.07712
1.07715
1.07712
1.07715
1.07712
1.07715
1.07712
1.07716
1.07713
1.07715
1.07715
1.07718
1.07836
1.07833
1.07718
1.07711
1.07714
1.07711
1.07715
1.07711
1.07715
1.07712
1.07715
1.07712
1.07716
1.07713
1.07716
1.07713
1.07716
1.07713
1.07716
1.07713
1.07716
1.07712
1.07715
1.07712
1.07715
1.07712
1.07714
1.07712
1.07712
1.07719
1.07834
0.166407
0.16449
0.168748
0.191362
0.222267
0.247804
0.430309
0.760977
1.09942
1.23648
1.26078
1.28668
1.30011
1.31042
1.16217
1.08525
1.06812
1.06735
1.07811
1.11194
1.11648
1.14022
1.14821
1.16017
1.16931
1.17573
1.17584
1.17537
1.17667
1.17567
1.17637
1.17252
1.16709
1.16331
1.1654
1.16512
1.16661
1.16838
1.16969
1.1703
1.17169
1.17246
1.17658
1.17742
1.08134
1.08076
1.08164
1.08343
1.08061
1.0819
1.08148
1.08003
1.08014
1.07902
1.07665
1.07758
1.07328
1.07529
1.07023
1.07203
1.06779
1.06812
1.0662
1.06393
1.0646
1.06164
1.06204
1.06005
1.06017
1.05864
1.05935
1.05796
1.05863
1.058
1.04927
1.04929
1.04933
1.04896
1.0491
1.0488
1.04887
1.04855
1.04858
1.04827
1.04828
1.04804
1.04804
1.04788
1.04789
1.04783
1.04782
1.04781
1.04778
1.04781
1.04777
1.04779
1.04777
1.04778
1.04776
1.04777
1.04776
1.04775
1.04777
1.04783
1.04784
1.04777
1.04777
1.04775
1.04778
1.04778
1.04776
1.04779
1.04776
1.04779
1.04776
1.0478
1.04777
1.04779
1.04778
1.04777
1.04779
1.04776
1.0478
1.04776
1.04779
1.04776
1.04779
1.04776
1.04778
1.04777
1.04775
1.04777
1.04777
1.04785
1.04784
1.04777
1.04777
1.04775
1.04778
1.04776
1.04779
1.04776
1.04779
1.04776
1.04779
1.04777
1.04778
1.04779
1.04777
1.04779
1.04777
1.04779
1.04777
1.04779
1.04776
1.04779
1.04776
1.04778
1.04776
1.04777
1.04776
1.04775
1.04777
1.04783
1.04785
1.04777
1.04777
1.04775
1.04777
1.04778
1.04776
1.04779
1.04776
1.04779
1.04776
1.0478
1.04777
1.04779
1.04777
1.04779
1.04777
1.04779
1.04777
1.04779
1.04776
1.04778
1.04776
1.04778
1.04776
1.04778
1.04776
1.04777
1.04776
1.04784
1.04784
1.04777
1.04776
1.04777
1.04776
1.04778
1.04776
1.04779
1.04776
1.04779
1.04776
1.0478
1.04776
1.04779
1.04776
1.04779
1.04776
1.04779
1.04777
1.04779
1.04776
1.04779
1.04776
1.04778
1.04775
1.04777
1.04776
1.04775
1.04777
1.04783
1.04782
1.04777
1.04775
1.04777
1.04775
1.04778
1.04776
1.04779
1.04776
1.04779
1.04776
1.04779
1.04776
1.04779
1.04776
1.04779
1.04777
1.04779
1.04777
1.04779
1.04776
1.04779
1.04776
1.04778
1.04775
1.04777
1.04776
1.04775
1.04777
1.04783
1.04783
1.04777
1.04776
1.04775
1.04778
1.04776
1.04779
1.04776
1.04779
1.04776
1.04779
1.04777
1.04779
1.04777
1.04779
1.04777
1.04779
1.04777
1.04779
1.04777
1.04776
1.04778
1.04776
1.04779
1.04776
1.04778
1.04775
1.04778
1.04777
1.04784
1.04782
1.04777
1.04775
1.04777
1.04775
1.04778
1.04776
1.04779
1.04776
1.04779
1.04776
1.0478
1.04776
1.04779
1.04776
1.04779
1.04776
1.04779
1.04777
1.04779
1.04776
1.04779
1.04776
1.04778
1.04775
1.04777
1.04776
1.04775
1.04777
1.04783
1.04785
1.04777
1.04777
1.04776
1.04776
1.04778
1.04776
1.04779
1.04776
1.04779
1.04776
1.0478
1.04776
1.04779
1.04777
1.04777
1.04779
1.04776
1.0478
1.04776
1.04779
1.04776
1.04779
1.04776
1.04778
1.04776
1.04777
1.04777
1.04777
1.04785
1.04782
1.04777
1.04774
1.04777
1.04774
1.04778
1.04775
1.04779
1.04776
1.0478
1.04777
1.0478
1.04777
1.0478
1.04777
1.04779
1.04777
1.04779
1.04777
1.0478
1.04777
1.04779
1.04776
1.04779
1.04776
1.04777
1.04776
1.04775
1.04778
1.04783
0.163271
0.163186
0.164615
0.167979
0.176586
0.187518
0.189092
0.207652
0.426623
0.860908
1.20645
1.23971
1.2697
1.28597
1.09493
1.01567
0.988044
0.969936
0.969677
0.993284
1.0379
1.05368
1.08148
1.09122
1.10363
1.11259
1.12008
1.12477
1.12746
1.13251
1.13424
1.13478
1.13145
1.12491
1.12698
1.12622
1.12874
1.13157
1.13228
1.13432
1.13395
1.13609
1.13585
1.14226
1.03431
1.03357
1.03679
1.03717
1.0426
1.0403
1.04367
1.04241
1.04232
1.04358
1.04097
1.04276
1.03905
1.04095
1.03687
1.03856
1.03454
1.03605
1.03258
1.03231
1.03158
1.02975
1.03001
1.02798
1.02854
1.02653
1.02726
1.02605
1.02633
1.02733
1.01894
1.0176
1.01744
1.01768
1.01743
1.01757
1.01727
1.01733
1.017
1.01704
1.01671
1.01673
1.01646
1.01649
1.01631
1.01635
1.01627
1.0163
1.01626
1.01627
1.01625
1.01626
1.01624
1.01625
1.01624
1.01624
1.01623
1.01623
1.01628
1.01748
1.01747
1.01629
1.01624
1.01623
1.01624
1.01624
1.01624
1.01625
1.01624
1.01625
1.01624
1.01625
1.01624
1.01624
1.01625
1.01624
1.01625
1.01624
1.01625
1.01624
1.01625
1.01624
1.01625
1.01624
1.01624
1.01624
1.01623
1.01624
1.01629
1.01747
1.01748
1.01629
1.01624
1.01623
1.01624
1.01624
1.01625
1.01624
1.01625
1.01624
1.01625
1.01624
1.01625
1.01624
1.01624
1.01625
1.01624
1.01625
1.01624
1.01625
1.01624
1.01625
1.01624
1.01625
1.01624
1.01624
1.01623
1.01623
1.01628
1.01748
1.01747
1.01629
1.01623
1.01623
1.01624
1.01625
1.01624
1.01625
1.01624
1.01625
1.01624
1.01626
1.01624
1.01625
1.01624
1.01625
1.01624
1.01625
1.01624
1.01625
1.01623
1.01625
1.01624
1.01625
1.01624
1.01624
1.01623
1.01624
1.01629
1.01748
1.01747
1.01629
1.01623
1.01624
1.01624
1.01625
1.01624
1.01625
1.01624
1.01625
1.01624
1.01625
1.01624
1.01624
1.01624
1.01624
1.01624
1.01625
1.01624
1.01625
1.01624
1.01625
1.01624
1.01625
1.01624
1.01624
1.01623
1.01623
1.01628
1.01748
1.01748
1.01629
1.01623
1.01623
1.01623
1.01625
1.01624
1.01625
1.01624
1.01625
1.01624
1.01625
1.01624
1.01624
1.01624
1.01624
1.01624
1.01625
1.01624
1.01625
1.01624
1.01625
1.01624
1.01625
1.01624
1.01624
1.01623
1.01623
1.01628
1.01748
1.01748
1.01628
1.01623
1.01623
1.01624
1.01623
1.01625
1.01624
1.01625
1.01624
1.01625
1.01624
1.01625
1.01624
1.01625
1.01624
1.01625
1.01624
1.01625
1.01624
1.01624
1.01624
1.01624
1.01625
1.01624
1.01624
1.01623
1.01624
1.01629
1.01747
1.01748
1.01628
1.01622
1.01623
1.01623
1.01625
1.01624
1.01625
1.01624
1.01625
1.01624
1.01625
1.01624
1.01624
1.01624
1.01624
1.01624
1.01625
1.01624
1.01625
1.01624
1.01625
1.01623
1.01625
1.01624
1.01624
1.01623
1.01623
1.01628
1.01748
1.01747
1.01629
1.01623
1.01623
1.01624
1.01624
1.01624
1.01625
1.01624
1.01625
1.01624
1.01625
1.01624
1.01624
1.01624
1.01624
1.01624
1.01624
1.01625
1.01624
1.01625
1.01624
1.01625
1.01624
1.01625
1.01624
1.01624
1.01624
1.01629
1.01748
1.01748
1.01628
1.01622
1.01623
1.01622
1.01624
1.01623
1.01625
1.01624
1.01625
1.01624
1.01625
1.01624
1.01624
1.01623
1.01624
1.01624
1.01624
1.01623
1.01625
1.01624
1.01625
1.01624
1.01624
1.01624
1.01624
1.01623
1.01623
1.01629
1.01748
0.163641
0.16581
0.165528
0.164347
0.163035
0.163986
0.164004
0.169518
0.1717
0.186251
0.710061
1.16088
1.2189
1.25905
1.03381
1.00866
0.986213
0.948161
0.915348
0.906692
0.92945
0.976878
0.995337
1.02233
1.02727
1.0392
1.04831
1.05479
1.06173
1.06722
1.07175
1.07357
1.07253
1.06891
1.06132
1.0652
1.06479
1.06647
1.0708
1.07216
1.07499
1.07716
1.08387
1.08665
0.969455
0.96655
0.97417
0.97998
0.981233
0.985863
0.983574
0.985808
0.985302
0.984823
0.984739
0.984045
0.983145
0.982001
0.981523
0.979128
0.979687
0.976609
0.977434
0.974251
0.975448
0.972536
0.973416
0.971391
0.971341
0.970469
0.969892
0.969742
0.968861
0.968978
0.960905
0.961797
0.961886
0.961554
0.961777
0.961492
0.961612
0.961318
0.961382
0.961045
0.961109
0.960786
0.960804
0.960651
0.960543
0.960522
0.960477
0.960444
0.960452
0.960417
0.960424
0.960407
0.9604
0.960403
0.96039
0.960386
0.960376
0.960375
0.960367
0.959975
0.959964
0.960378
0.960379
0.960379
0.960387
0.960391
0.960397
0.9604
0.9604
0.960403
0.960404
0.960409
0.96041
0.96041
0.960413
0.960412
0.96041
0.96041
0.96041
0.960405
0.960405
0.960399
0.960401
0.960396
0.96039
0.960389
0.960376
0.960378
0.960377
0.959966
0.959969
0.960371
0.960375
0.960378
0.960384
0.960392
0.960395
0.960399
0.960401
0.960401
0.960405
0.960408
0.960411
0.960408
0.960414
0.960411
0.960412
0.960411
0.960409
0.960407
0.960402
0.960401
0.9604
0.960396
0.960393
0.960381
0.960377
0.960376
0.960367
0.959975
0.959966
0.960377
0.960377
0.960376
0.96039
0.96039
0.960395
0.960401
0.9604
0.960405
0.960405
0.960411
0.96041
0.960412
0.960414
0.96041
0.960412
0.960409
0.960408
0.960404
0.960398
0.9604
0.960398
0.960395
0.96039
0.960383
0.960378
0.96038
0.960369
0.95997
0.959966
0.960377
0.960382
0.960379
0.960385
0.960392
0.960397
0.960401
0.960398
0.960405
0.960404
0.960409
0.960408
0.96041
0.960412
0.960409
0.960411
0.960411
0.960408
0.960407
0.960402
0.960401
0.9604
0.960396
0.960393
0.960381
0.960376
0.960375
0.960367
0.959975
0.959971
0.96037
0.960375
0.960375
0.960385
0.960391
0.960396
0.960401
0.960399
0.960405
0.960404
0.960409
0.960409
0.96041
0.96041
0.960409
0.960412
0.960411
0.960409
0.960408
0.960403
0.960401
0.9604
0.960396
0.960393
0.960381
0.960376
0.960375
0.960367
0.959975
0.959974
0.960368
0.960375
0.960376
0.960383
0.960392
0.960396
0.960399
0.960401
0.960403
0.960408
0.960408
0.96041
0.960412
0.96041
0.960413
0.960412
0.960411
0.960407
0.960407
0.960402
0.960399
0.960397
0.960397
0.960391
0.960385
0.960379
0.96038
0.960375
0.959966
0.959975
0.960371
0.960374
0.960375
0.960384
0.960392
0.960396
0.960402
0.960399
0.960405
0.960405
0.960409
0.960409
0.960411
0.960412
0.960409
0.960413
0.960412
0.960408
0.960407
0.960402
0.9604
0.9604
0.960396
0.960393
0.960381
0.960376
0.960375
0.960367
0.959975
0.959963
0.960376
0.960377
0.960379
0.960388
0.96039
0.960396
0.9604
0.960398
0.960403
0.960404
0.96041
0.960408
0.960411
0.96041
0.960411
0.960409
0.960409
0.96041
0.960405
0.960405
0.960399
0.960401
0.960397
0.960391
0.96039
0.960378
0.960378
0.960377
0.959966
0.959972
0.960366
0.960371
0.960372
0.960379
0.960389
0.960392
0.9604
0.960397
0.960406
0.960403
0.960412
0.960409
0.960415
0.960416
0.960415
0.960417
0.96042
0.960412
0.960412
0.960407
0.960409
0.960405
0.960405
0.960398
0.960391
0.96038
0.960384
0.960372
0.959976
0.168534
0.16729
0.164474
0.157974
0.153533
0.153832
0.154811
0.156052
0.15827
0.160253
0.359726
0.87565
1.16256
1.22671
1.01137
1.04616
1.0383
0.986856
0.915864
0.868837
0.863137
0.888702
0.929993
0.943576
0.964312
0.965592
0.975918
0.985153
0.991901
0.999886
1.00724
1.01335
1.01432
1.01644
1.00654
1.0084
1.01043
1.01056
1.0137
1.01631
1.02013
1.02715
1.03444
1.04546
0.897885
0.897533
0.905853
0.915696
0.925235
0.926347
0.930967
0.930206
0.932655
0.931667
0.933647
0.931722
0.933746
0.93034
0.932945
0.928941
0.930861
0.927283
0.929168
0.925406
0.927164
0.924703
0.924337
0.924463
0.922338
0.923466
0.921374
0.922691
0.920983
0.922339
0.91445
0.913883
0.914129
0.914387
0.914173
0.914467
0.914181
0.914292
0.914032
0.91401
0.913731
0.913748
0.913499
0.91338
0.913375
0.913185
0.913229
0.913142
0.913137
0.913134
0.913109
0.913119
0.913103
0.9131
0.91311
0.91311
0.913129
0.913159
0.91318
0.912889
0.91288
0.913189
0.913156
0.913131
0.913106
0.913104
0.913097
0.913099
0.913098
0.913099
0.9131
0.9131
0.913105
0.913102
0.913109
0.913105
0.913105
0.913105
0.913102
0.913101
0.913101
0.913099
0.913101
0.913098
0.913105
0.913111
0.913128
0.913155
0.913188
0.912879
0.912886
0.913187
0.913155
0.913126
0.913112
0.913104
0.9131
0.913102
0.9131
0.9131
0.913097
0.913102
0.913103
0.913101
0.913107
0.913105
0.913107
0.913104
0.913105
0.913101
0.913103
0.913103
0.913101
0.913101
0.913105
0.913112
0.913125
0.91316
0.913182
0.912888
0.91288
0.913188
0.913154
0.913127
0.913114
0.913105
0.913098
0.913102
0.913101
0.913103
0.913103
0.913104
0.913107
0.913106
0.913109
0.913105
0.913107
0.913103
0.913101
0.913095
0.913096
0.913098
0.913097
0.913099
0.913104
0.913112
0.913129
0.913159
0.913189
0.912889
0.912881
0.913187
0.913159
0.913128
0.913112
0.913104
0.913099
0.913101
0.913102
0.913101
0.913101
0.913099
0.913103
0.913102
0.913106
0.913103
0.913106
0.913103
0.913103
0.9131
0.913102
0.913102
0.9131
0.913099
0.913104
0.913111
0.913124
0.913159
0.913182
0.912887
0.912884
0.913184
0.913157
0.913125
0.913112
0.913105
0.913102
0.913102
0.913103
0.913101
0.913101
0.913099
0.913104
0.913103
0.913106
0.913103
0.913106
0.913103
0.913104
0.9131
0.913102
0.913102
0.913101
0.9131
0.913104
0.913111
0.913125
0.913159
0.913181
0.912887
0.91289
0.91318
0.913158
0.913128
0.913112
0.913107
0.913102
0.913103
0.913103
0.913105
0.913102
0.913105
0.913105
0.913108
0.913105
0.913107
0.913103
0.913104
0.913096
0.913098
0.913098
0.913097
0.913099
0.913098
0.913104
0.913111
0.913128
0.91316
0.91319
0.912885
0.912888
0.913184
0.913157
0.913125
0.913112
0.913106
0.9131
0.913102
0.913103
0.913102
0.913102
0.9131
0.913104
0.913103
0.913106
0.913103
0.913106
0.913103
0.913104
0.9131
0.913101
0.913101
0.9131
0.913099
0.913104
0.913111
0.913125
0.913159
0.913181
0.912888
0.91288
0.913188
0.913151
0.91313
0.913114
0.913104
0.913097
0.9131
0.913099
0.913101
0.913101
0.913101
0.913104
0.913104
0.913106
0.913106
0.913104
0.913104
0.9131
0.913101
0.9131
0.913102
0.9131
0.9131
0.913103
0.913112
0.913125
0.913153
0.91319
0.91288
0.912883
0.913188
0.913159
0.913127
0.913112
0.913103
0.913097
0.913099
0.913098
0.913101
0.913103
0.913099
0.913103
0.913099
0.913102
0.913099
0.913106
0.913105
0.913104
0.913098
0.913099
0.913096
0.913099
0.913099
0.913107
0.913117
0.913141
0.91319
0.913258
0.912982
0.166984
0.163573
0.155409
0.149465
0.146873
0.148881
0.151885
0.152028
0.151328
0.150893
0.151222
0.158086
0.362155
0.870173
0.983766
0.94423
0.975737
1.02757
1.06526
1.01493
0.928432
0.854097
0.825343
0.837004
0.856366
0.885577
0.889634
0.902404
0.899753
0.908547
0.913115
0.919411
0.928085
0.934154
0.938592
0.937516
0.935132
0.929496
0.931701
0.928422
0.933556
0.936338
0.942758
0.946013
0.954696
0.963271
0.921521
0.906378
0.865944
0.845917
0.844643
0.852999
0.856458
0.86213
0.858462
0.863106
0.859689
0.861828
0.860671
0.860718
0.860194
0.859127
0.859543
0.856847
0.858456
0.854776
0.85679
0.853226
0.854402
0.85246
0.852218
0.85095
0.85131
0.849591
0.849438
0.84947
0.848175
0.847053
0.843724
0.843919
0.841365
0.843471
0.843
0.843112
0.843028
0.842764
0.842907
0.842572
0.842698
0.842397
0.842357
0.84219
0.842132
0.841917
0.841952
0.841833
0.841746
0.841769
0.841702
0.841717
0.841693
0.84169
0.841683
0.841674
0.841685
0.841687
0.8417
0.841699
0.841626
0.840168
0.838909
0.83891
0.84016
0.841629
0.841691
0.841701
0.841685
0.841677
0.841673
0.841671
0.841674
0.841677
0.841678
0.841676
0.841679
0.841675
0.841679
0.84168
0.841676
0.841679
0.841677
0.841679
0.841678
0.841675
0.841672
0.841674
0.841678
0.841687
0.841701
0.841692
0.84163
0.840161
0.838909
0.838909
0.840163
0.841628
0.841694
0.841698
0.841687
0.841681
0.841672
0.841674
0.841674
0.841678
0.841674
0.841677
0.841675
0.841675
0.84168
0.841677
0.841679
0.841677
0.841679
0.841678
0.841681
0.841676
0.841674
0.841673
0.841682
0.841687
0.841697
0.841699
0.841625
0.840169
0.838909
0.83891
0.84016
0.841629
0.841692
0.8417
0.841689
0.841677
0.841674
0.841672
0.841676
0.841679
0.84168
0.841677
0.841679
0.841677
0.84168
0.841677
0.841678
0.841675
0.841676
0.841675
0.841676
0.841672
0.841673
0.841672
0.841681
0.841687
0.841697
0.841695
0.841627
0.840165
0.838909
0.83891
0.840162
0.841629
0.841697
0.841696
0.841692
0.841679
0.841675
0.841671
0.841675
0.841679
0.841679
0.841677
0.841679
0.841678
0.841681
0.841677
0.84168
0.841678
0.841679
0.841678
0.84168
0.841676
0.841674
0.841673
0.841682
0.841687
0.841699
0.841699
0.841625
0.840167
0.838909
0.83891
0.840164
0.841625
0.841698
0.841695
0.841692
0.841678
0.841675
0.841674
0.841676
0.841679
0.84168
0.841677
0.84168
0.841676
0.841681
0.841677
0.84168
0.841678
0.841679
0.841678
0.841681
0.841676
0.841674
0.841672
0.841682
0.841686
0.841699
0.841699
0.841624
0.840167
0.838909
0.838909
0.840167
0.841624
0.841695
0.841698
0.841688
0.841684
0.841673
0.841675
0.841676
0.841681
0.841678
0.841679
0.841678
0.841679
0.841677
0.84168
0.841676
0.841677
0.841672
0.841676
0.841677
0.841672
0.841672
0.841672
0.84168
0.841686
0.841699
0.841692
0.841628
0.840162
0.838909
0.838909
0.840168
0.841625
0.841698
0.841696
0.841693
0.841679
0.841675
0.841672
0.841676
0.841679
0.84168
0.841678
0.84168
0.841678
0.841681
0.841677
0.841679
0.841678
0.841679
0.841678
0.84168
0.841675
0.841674
0.841673
0.841681
0.841686
0.841696
0.841698
0.841623
0.840167
0.838909
0.83891
0.840161
0.84163
0.841693
0.8417
0.841689
0.841678
0.841674
0.841672
0.841676
0.841679
0.841681
0.841678
0.841681
0.841677
0.841681
0.841681
0.841676
0.84168
0.841678
0.841681
0.84168
0.841678
0.841673
0.841675
0.841678
0.84169
0.841695
0.841691
0.841626
0.840156
0.838909
0.838907
0.840166
0.841621
0.841697
0.841695
0.841692
0.841677
0.841674
0.841672
0.841681
0.841682
0.841688
0.841685
0.841687
0.841685
0.841687
0.841681
0.841681
0.841678
0.841677
0.841676
0.841675
0.841674
0.841674
0.841673
0.841677
0.841677
0.841681
0.841682
0.841612
0.840162
0.838963
0.840091
0.157234
0.152115
0.146706
0.141514
0.14235
0.145213
0.147953
0.150563
0.148452
0.148317
0.148426
0.147734
0.149219
0.166381
0.164607
0.171735
0.220196
0.607825
0.949334
0.982629
0.895938
0.8299
0.793822
0.799346
0.803462
0.823649
0.834575
0.837498
0.843708
0.840734
0.846862
0.852839
0.859972
0.868362
0.874367
0.875171
0.877767
0.86946
0.868957
0.869179
0.867235
0.872165
0.87186
0.876506
0.880914
0.887124
0.873996
0.850999
0.816444
0.796555
0.79269
0.800553
0.801068