/*--------------------------------*- C++ -*----------------------------------*\
| =========                 |                                                 |
| \\      /  F ield         | OpenFOAM: The Open Source CFD Toolbox           |
|  \\    /   O peration     | Version:  2.1.1                                 |
|   \\  /    A nd           | Web:      www.OpenFOAM.org                      |
|    \\/     M anipulation  |                                                 |
\*---------------------------------------------------------------------------*/
FoamFile
{
    version     2.0;
    format      ascii;
    class       volScalarField;
    location    "0.001400000";
    object      O;
}
// * * * * * * * * * * * * * * * * * * * * * * * * * * * * * * * * * * * * * //

dimensions      [0 0 0 0 0 0 0];

internalField   nonuniform List<scalar> 
12384
(
6.01123e-05
3.7215e-05
1.48807e-05
2.29222e-06
1.18723e-07
1.70854e-08
3.17688e-09
6.55444e-10
4.86499e-11
1.06843e-12
1.44323e-14
2.88255e-16
2.52173e-18
2.12662e-20
9.26017e-19
8.94914e-17
7.30496e-15
2.22285e-13
2.03232e-12
5.85908e-12
1.08551e-11
9.77043e-12
5.67211e-12
1.91929e-12
2.864e-13
7.73119e-15
7.29885e-17
1.87852e-19
2.27064e-22
3.61151e-25
5.74215e-28
9.22723e-31
1.51344e-33
2.38436e-36
4.37705e-39
7.90724e-42
1.59475e-44
3.11616e-47
5.78894e-50
1.08968e-52
1.78782e-55
2.96247e-58
4.75746e-61
7.55376e-64
9.3823e-78
2.73067e-78
1.96135e-80
1.81992e-82
1.29645e-84
4.22192e-87
8.20057e-90
1.15813e-92
9.85884e-96
7.89626e-99
6.44654e-102
5.23654e-105
4.33723e-108
3.60057e-111
3.00328e-114
2.51267e-117
2.0875e-120
1.73113e-123
1.41595e-126
1.64666e-129
2.36262e-132
2.96832e-135
3.17604e-138
3.19595e-141
3.07431e-144
2.88182e-147
2.65471e-150
2.36879e-153
2.03153e-156
1.72427e-159
5.40645e-169
4.45803e-171
1.51384e-176
1.33882e-181
9.83792e-186
1.3588e-189
2.07339e-193
2.6171e-197
2.20276e-201
1.29995e-205
5.79804e-210
2.24336e-214
5.57004e-218
1.00774e-220
1.91219e-223
3.58834e-226
6.2377e-229
1.06833e-231
1.7264e-234
2.7791e-237
4.31679e-240
6.65495e-243
1.01308e-245
1.59075e-248
2.45784e-251
3.90271e-254
6.35279e-257
1.16668e-259
2.59679e-262
4.63332e-265
8.35206e-283
3.36488e-282
3.73421e-284
1.34882e-286
4.39799e-289
1.2064e-291
2.87393e-294
6.2781e-297
1.29695e-299
2.57124e-302
4.98224e-305
9.44282e-308
1.72232e-310
2.96843e-313
4.81865e-316
7.57877e-319
1.15611e-321
0
0
0
0
0
0
0
0
0
0
0
0
0
0
0
0
0
0
0
0
0
0
0
0
0
0
0
0
0
0
0
0
0
0
0
0
0
0
0
0
0
0
0
0
0
0
0
0
0
0
0
0
0
0
0
0
0
0
0
0
0
0
0
0
0
0
0
0
0
0
0
0
0
0
0
0
0
0
0
0
0
0
0
0
0
0
0
0
0
0
0
0
0
0
0
0
0
0
0
0
0
0
0
0
0
0
0
0
0
0
0
0
0
0
0
0
0
0
0
0
0
0
0
0
0
0
0
0
0
0
0
0
0
0
0
0
0
0
0
0
0
0
0
0
0
0
0
0
0
0
0
0
0
0
0
0
0
0
0
0
0
0
0
0
0
0
0
0
0
0
0
0
0
0
0
0
0
0
0
0
0
0
0
0
0
0
0
0
0
0
0
0
0
0
0
0
0
0
0
0
0
0
0
0
0
0
0
0
0
0
0
0
0
0
0
0
0
0
0
0
0
0
0
0
0
0
0
0
0
0
0
0
0
0
0
0
0
0
0
0
0
0
0
0
0
0
0
0
0
0
0
0
0
8.96448e-06
2.42272e-05
7.54205e-06
1.20748e-06
3.11765e-07
2.42451e-08
2.75251e-09
9.88104e-10
2.10843e-10
1.34819e-11
1.10796e-12
4.21502e-14
3.74758e-16
2.13098e-18
1.15057e-18
5.67358e-17
1.42881e-14
1.61699e-12
5.64805e-11
2.16577e-10
4.06921e-10
3.82388e-10
1.55149e-10
3.9488e-11
4.16816e-12
3.26568e-14
1.93092e-16
1.82781e-19
2.7142e-23
1.8847e-25
3.82131e-28
1.75871e-30
1.85531e-33
3.46323e-36
8.03358e-39
1.51112e-41
2.83875e-44
4.46458e-47
6.7983e-50
9.35089e-53
1.23447e-55
1.6571e-58
2.40798e-61
3.90158e-64
9.58105e-77
1.0145e-77
5.7284e-80
6.31076e-82
6.3936e-84
2.82264e-86
7.34169e-89
1.69533e-91
8.20179e-95
6.45558e-98
5.32513e-101
7.13003e-104
8.46216e-107
1.0734e-109
1.3092e-112
1.57871e-115
1.92369e-118
2.238e-121
2.62534e-124
1.09573e-126
2.23504e-129
3.38197e-132
3.33214e-135
3.1562e-138
2.74056e-141
2.42928e-144
2.05146e-147
1.68969e-150
1.30502e-153
9.368e-157
6.10745e-166
8.15772e-168
4.24784e-171
3.70708e-176
2.64159e-180
3.27204e-184
4.28981e-188
5.35414e-192
4.5562e-196
2.74151e-200
1.26953e-204
4.48299e-209
1.31216e-213
1.56207e-217
2.34239e-220
4.26095e-223
7.04693e-226
1.17382e-228
1.82664e-231
2.91601e-234
4.46506e-237
6.98083e-240
1.06301e-242
1.66653e-245
2.56239e-248
4.04907e-251
6.51842e-254
1.16052e-256
2.42161e-259
3.66872e-262
2.2232e-279
4.04706e-279
4.68089e-281
1.76518e-283
6.15229e-286
1.80635e-288
4.58301e-291
1.06296e-293
2.3138e-296
4.80669e-299
9.64867e-302
1.86999e-304
3.44371e-307
5.92616e-310
9.53697e-313
1.47071e-315
2.18598e-318
3.12249e-321
0
0
0
0
0
0
0
0
0
0
0
0
0
0
0
0
0
0
0
0
0
0
0
0
0
0
0
0
0
0
0
0
0
0
0
0
0
0
0
0
0
0
0
0
0
0
0
0
0
0
0
0
0
0
0
0
0
0
0
0
0
0
0
0
0
0
0
0
0
0
0
0
0
0
0
0
0
0
0
0
0
0
0
0
0
0
0
0
0
0
0
0
0
0
0
0
0
0
0
0
0
0
0
0
0
0
0
0
0
0
0
0
0
0
0
0
0
0
0
0
0
0
0
0
0
0
0
0
0
0
0
0
0
0
0
0
0
0
0
0
0
0
0
0
0
0
0
0
0
0
0
0
0
0
0
0
0
0
0
0
0
0
0
0
0
0
0
0
0
0
0
0
0
0
0
0
0
0
0
0
0
0
0
0
0
0
0
0
0
0
0
0
0
0
0
0
0
0
0
0
0
0
0
0
0
0
0
0
0
0
0
0
0
0
0
0
0
0
0
0
0
0
0
0
0
0
0
0
0
0
0
0
0
0
0
0
0
0
0
0
0
0
0
0
0
0
0
0
0
0
0
0
5.17068e-08
2.5188e-07
6.81966e-08
9.9009e-09
1.77658e-09
1.06258e-09
1.0928e-09
7.38618e-10
1.25993e-10
3.76517e-12
1.09186e-13
8.75016e-15
1.0416e-15
1.22544e-17
1.1305e-18
2.57944e-14
3.58873e-10
8.07111e-08
2.02843e-06
4.70444e-06
7.65191e-06
7.37588e-06
5.23903e-06
2.83018e-06
1.04146e-06
3.75801e-08
4.33994e-10
3.8631e-13
2.44917e-18
3.62101e-22
8.06047e-26
7.03685e-30
5.03945e-34
3.23443e-37
2.62093e-40
1.79677e-43
2.2122e-46
2.99246e-50
1.54035e-50
1.44928e-53
4.50041e-54
8.59178e-57
2.0366e-59
4.33333e-62
7.56847e-77
1.58876e-76
3.16986e-78
4.51984e-80
2.85652e-82
6.26378e-85
8.38735e-88
7.04196e-91
2.79837e-95
1.41772e-98
9.8897e-102
6.35962e-105
4.65099e-108
3.44658e-111
2.785e-114
2.43374e-117
2.09999e-120
2.162e-123
1.85386e-126
4.31732e-129
7.12876e-132
2.84093e-134
2.5945e-137
6.96432e-140
6.05547e-143
1.65754e-145
2.32278e-148
3.52027e-151
2.78223e-154
1.34593e-157
4.16874e-168
9.22128e-170
8.00375e-173
5.90269e-176
4.28339e-180
4.31661e-184
4.50621e-188
5.67354e-192
4.24731e-196
2.39299e-200
1.08032e-204
4.00494e-209
1.1674e-213
2.91277e-218
1.36947e-222
1.61524e-225
2.2228e-228
3.5144e-231
4.84961e-234
7.71889e-237
1.08848e-239
1.77502e-242
2.5761e-245
4.18151e-248
6.12566e-251
9.97854e-254
1.5934e-256
2.89315e-259
5.89991e-262
4.11995e-265
1.03042e-281
1.5332e-281
1.51591e-283
6.47457e-286
2.37418e-288
7.12234e-291
2.00797e-293
5.08426e-296
1.23824e-298
2.75531e-301
5.97184e-304
1.23721e-306
2.5508e-309
4.85036e-312
7.88763e-315
1.19042e-317
1.56668e-320
1.97626e-323
0
0
0
0
0
0
0
0
0
0
0
0
0
0
0
0
0
0
0
0
0
0
0
0
0
0
0
0
0
0
0
0
0
0
0
0
0
0
0
0
0
0
0
0
0
0
0
0
0
0
0
0
0
0
0
0
0
0
0
0
0
0
0
0
0
0
0
0
0
0
0
0
0
0
0
0
0
0
0
0
0
0
0
0
0
0
0
0
0
0
0
0
0
0
0
0
0
0
0
0
0
0
0
0
0
0
0
0
0
0
0
0
0
0
0
0
0
0
0
0
0
0
0
0
0
0
0
0
0
0
0
0
0
0
0
0
0
0
0
0
0
0
0
0
0
0
0
0
0
0
0
0
0
0
0
0
0
0
0
0
0
0
0
0
0
0
0
0
0
0
0
0
0
0
0
0
0
0
0
0
0
0
0
0
0
0
0
0
0
0
0
0
0
0
0
0
0
0
0
0
0
0
0
0
0
0
0
0
0
0
0
0
0
0
0
0
0
0
0
0
0
0
0
0
0
0
0
0
0
0
0
0
0
0
0
0
0
0
0
0
0
0
0
0
0
0
0
0
0
0
0
0
7.80553e-07
3.53495e-06
3.50564e-06
9.26299e-07
1.54549e-07
1.69844e-07
1.45006e-07
1.11171e-07
4.67468e-08
3.84991e-09
3.40888e-11
2.59008e-13
9.26485e-16
8.95792e-18
7.82131e-15
2.12464e-09
1.63679e-06
5.34734e-06
6.07863e-06
5.6994e-06
3.69796e-06
2.55567e-06
2.01061e-06
1.36335e-06
1.02807e-06
7.13545e-07
3.83557e-07
3.1663e-08
2.66359e-10
3.93167e-14
3.82252e-18
1.68779e-22
5.5639e-27
1.57624e-30
5.22433e-34
1.3698e-37
2.8048e-41
1.17387e-45
6.6278e-49
2.36302e-52
7.66597e-54
1.27324e-56
1.16858e-58
1.24886e-60
8.2758e-71
8.90533e-70
2.52005e-71
5.59915e-73
5.14555e-75
1.04651e-77
7.074e-81
3.08524e-84
1.07502e-87
3.93433e-91
1.35219e-94
5.53435e-98
2.31322e-101
1.4194e-104
6.1148e-108
4.32741e-111
3.16456e-114
2.57373e-117
1.92337e-120
1.57619e-123
1.05352e-126
8.60426e-130
4.99505e-133
3.9709e-136
2.50814e-139
1.83767e-142
9.1091e-146
5.80932e-149
2.79065e-152
1.02565e-155
1.28317e-162
1.37392e-164
8.72095e-168
5.77807e-171
3.52242e-174
3.02212e-178
3.13029e-182
3.92696e-186
2.17462e-190
8.85233e-195
3.46005e-199
1.15803e-203
3.37955e-208
7.89826e-213
1.47574e-217
3.11151e-222
1.14798e-225
1.88713e-228
2.83168e-231
4.66138e-234
6.98716e-237
1.11904e-239
1.67974e-242
2.6442e-245
3.99363e-248
6.27255e-251
1.00769e-253
1.69959e-256
3.17738e-259
4.00691e-262
7.28626e-278
1.38053e-278
1.0286e-280
4.44896e-283
1.42024e-285
3.96368e-288
9.44733e-291
2.12055e-293
4.34149e-296
8.69094e-299
1.63065e-301
3.00714e-304
5.25595e-307
9.0238e-310
1.48769e-312
2.38627e-315
3.67405e-318
5.37049e-321
9.88131e-324
0
0
0
0
0
0
0
0
0
0
0
0
0
0
0
0
0
0
0
0
0
0
0
0
0
0
0
0
0
0
0
0
0
0
0
0
0
0
0
0
0
0
0
0
0
0
0
0
0
0
0
0
0
0
0
0
0
0
0
0
0
0
0
0
0
0
0
0
0
0
0
0
0
0
0
0
0
0
0
0
0
0
0
0
0
0
0
0
0
0
0
0
0
0
0
0
0
0
0
0
0
0
0
0
0
0
0
0
0
0
0
0
0
0
0
0
0
0
0
0
0
0
0
0
0
0
0
0
0
0
0
0
0
0
0
0
0
0
0
0
0
0
0
0
0
0
0
0
0
0
0
0
0
0
0
0
0
0
0
0
0
0
0
0
0
0
0
0
0
0
0
0
0
0
0
0
0
0
0
0
0
0
0
0
0
0
0
0
0
0
0
0
0
0
0
0
0
0
0
0
0
0
0
0
0
0
0
0
0
0
0
0
0
0
0
0
0
0
0
0
0
0
0
0
0
0
0
0
0
0
0
0
0
0
0
0
0
0
0
0
0
0
0
0
0
0
0
0
0
0
0
0.000614102
0.000816938
0.00110176
0.000696776
0.000170433
4.52084e-05
4.23689e-05
2.68442e-05
8.61762e-06
1.28811e-06
1.38397e-07
5.55083e-09
1.74457e-12
2.16509e-16
5.91712e-11
7.62272e-07
6.65471e-06
4.62439e-05
0.000135154
0.000183532
0.000121392
7.40667e-05
2.31949e-05
7.8532e-06
3.25863e-06
7.07361e-07
1.79325e-07
1.20932e-07
2.36744e-08
3.88352e-10
4.55398e-13
1.11609e-16
2.98807e-20
1.0622e-23
3.78118e-27
9.8967e-31
1.40436e-34
3.10931e-39
8.46106e-43
1.8337e-46
3.57494e-50
1.35792e-54
1.17914e-57
1.36076e-59
9.52176e-66
3.60496e-65
2.79321e-67
1.905e-69
2.16963e-71
2.67633e-73
1.36742e-75
1.25169e-78
5.40248e-82
2.01534e-85
7.75318e-89
3.17894e-92
1.52599e-95
6.92862e-99
4.52169e-102
2.88508e-105
1.95059e-108
1.58408e-111
1.23955e-114
9.34466e-118
6.52519e-121
4.89479e-124
3.36238e-127
2.4262e-130
1.21601e-133
7.36992e-137
2.79102e-140
1.44085e-143
5.96326e-147
2e-150
1.23469e-156
1.34752e-158
8.01322e-162
4.08132e-165
2.44412e-168
1.43499e-171
3.42917e-175
2.94736e-179
1.3778e-183
4.35607e-188
1.32285e-192
4.30294e-197
1.35157e-201
3.59347e-206
7.61235e-211
1.33485e-215
1.98024e-220
2.06159e-224
2.84086e-227
4.45689e-230
6.78777e-233
1.04302e-235
1.57606e-238
2.40053e-241
3.65818e-244
5.58447e-247
8.74864e-250
1.4185e-252
2.49469e-255
3.62918e-258
9.00478e-273
3.93559e-274
2.19869e-276
8.1452e-279
2.41022e-281
5.98006e-284
1.35671e-286
2.79678e-289
5.57107e-292
1.04624e-294
1.92703e-297
3.38332e-300
5.82837e-303
9.66931e-306
1.57507e-308
2.49635e-311
3.81027e-314
5.66118e-317
8.00683e-320
1.08694e-322
0
0
0
0
0
0
0
0
0
0
0
0
0
0
0
0
0
0
0
0
0
0
0
0
0
0
0
0
0
0
0
0
0
0
0
0
0
0
0
0
0
0
0
0
0
0
0
0
0
0
0
0
0
0
0
0
0
0
0
0
0
0
0
0
0
0
0
0
0
0
0
0
0
0
0
0
0
0
0
0
0
0
0
0
0
0
0
0
0
0
0
0
0
0
0
0
0
0
0
0
0
0
0
0
0
0
0
0
0
0
0
0
0
0
0
0
0
0
0
0
0
0
0
0
0
0
0
0
0
0
0
0
0
0
0
0
0
0
0
0
0
0
0
0
0
0
0
0
0
0
0
0
0
0
0
0
0
0
0
0
0
0
0
0
0
0
0
0
0
0
0
0
0
0
0
0
0
0
0
0
0
0
0
0
0
0
0
0
0
0
0
0
0
0
0
0
0
0
0
0
0
0
0
0
0
0
0
0
0
0
0
0
0
0
0
0
0
0
0
0
0
0
0
0
0
0
0
0
0
0
0
0
0
0
0
0
0
0
0
0
0
0
0
0
0
0
0
0
0
0
0.0011211
0.00115278
0.00112226
0.0011207
0.000976751
0.000614295
0.000287209
0.000201378
0.000108434
6.78335e-05
1.11342e-05
2.75858e-06
1.00163e-08
6.49878e-13
6.76622e-09
6.41456e-06
7.33437e-05
0.000274669
0.000359161
0.000331154
0.000341149
0.000314928
8.63692e-05
1.56708e-05
3.77388e-06
1.09261e-06
4.13797e-07
7.40004e-08
3.61735e-08
5.88744e-09
4.42659e-11
7.30086e-13
9.23305e-16
5.04871e-19
2.65844e-22
1.19522e-25
5.27324e-29
1.91292e-32
4.08794e-36
8.34809e-40
4.42948e-44
4.32352e-49
4.93981e-54
1.58581e-56
1.00161e-61
1.00869e-62
4.9124e-65
2.98209e-67
1.71118e-69
6.87171e-72
3.84352e-74
4.89679e-76
5.75727e-78
8.19068e-81
5.1218e-84
3.0171e-87
1.67149e-90
1.06186e-93
6.12531e-97
4.9346e-100
3.36432e-103
2.94356e-106
2.11427e-109
1.7437e-112
1.27897e-115
9.3789e-119
5.96483e-122
4.24221e-125
2.40105e-128
1.39009e-131
6.50072e-135
3.2729e-138
9.96062e-142
3.44717e-145
3.06013e-151
3.5273e-153
2.04529e-156
1.03441e-159
5.08502e-163
2.85936e-166
1.64203e-169
9.66942e-173
3.76278e-177
1.04854e-181
2.54817e-186
6.15748e-191
1.84345e-195
5.06716e-200
1.26103e-204
2.41076e-209
3.86276e-214
4.87955e-219
1.64767e-223
1.70752e-226
2.46225e-229
3.68891e-232
5.22648e-235
7.79888e-238
1.11007e-240
1.64375e-243
2.41215e-246
3.72294e-249
6.06973e-252
7.52499e-255
3.51306e-268
6.25197e-270
2.16218e-272
6.89613e-275
1.74465e-277
4.01958e-280
8.25491e-283
1.626e-285
3.01709e-288
5.46509e-291
9.48714e-294
1.61104e-296
2.65277e-299
4.28693e-302
6.74118e-305
1.03579e-307
1.53829e-310
2.22118e-313
3.09229e-316
4.16483e-319
5.38532e-322
0
0
0
0
0
0
0
0
0
0
0
0
0
0
0
0
0
0
0
0
0
0
0
0
0
0
0
0
0
0
0
0
0
0
0
0
0
0
0
0
0
0
0
0
0
0
0
0
0
0
0
0
0
0
0
0
0
0
0
0
0
0
0
0
0
0
0
0
0
0
0
0
0
0
0
0
0
0
0
0
0
0
0
0
0
0
0
0
0
0
0
0
0
0
0
0
0
0
0
0
0
0
0
0
0
0
0
0
0
0
0
0
0
0
0
0
0
0
0
0
0
0
0
0
0
0
0
0
0
0
0
0
0
0
0
0
0
0
0
0
0
0
0
0
0
0
0
0
0
0
0
0
0
0
0
0
0
0
0
0
0
0
0
0
0
0
0
0
0
0
0
0
0
0
0
0
0
0
0
0
0
0
0
0
0
0
0
0
0
0
0
0
0
0
0
0
0
0
0
0
0
0
0
0
0
0
0
0
0
0
0
0
0
0
0
0
0
0
0
0
0
0
0
0
0
0
0
0
0
0
0
0
0
0
0
0
0
0
0
0
0
0
0
0
0
0
0
0
0
0.00109088
0.00109763
0.00102334
0.000809077
0.00069071
0.000657705
0.000393408
0.000345735
0.000324361
0.000259797
0.000133418
6.51202e-05
4.83795e-07
2.07237e-10
3.32789e-07
2.75753e-05
0.000310684
0.000223908
0.00016958
0.000171307
0.000221429
0.000323941
0.000324946
4.88768e-05
6.3099e-06
1.45609e-06
4.39431e-07
1.5115e-07
3.29916e-08
1.34975e-08
1.12601e-09
1.09528e-11
1.32308e-13
1.08066e-15
1.97261e-18
1.90838e-21
1.50095e-24
8.74097e-28
3.97581e-31
1.08491e-34
1.87318e-38
1.11778e-42
2.91059e-48
2.66394e-52
1.56289e-58
8.80287e-60
1.04936e-61
1.10522e-63
2.47097e-66
2.82413e-69
3.22192e-72
1.16719e-74
1.27353e-76
1.29743e-78
9.17837e-81
1.94484e-83
2.19303e-86
2.09304e-89
1.78975e-92
1.68285e-95
1.56643e-98
1.51472e-101
1.3849e-104
1.2722e-107
1.08933e-110
9.2694e-114
7.12063e-117
5.32666e-120
3.57921e-123
2.13323e-126
1.17831e-129
5.16719e-133
1.7003e-136
4.29357e-140
1.3272e-146
1.31398e-148
9.32272e-152
5.22396e-155
2.91969e-158
1.77481e-161
1.18502e-164
8.9261e-168
7.28808e-171
1.75575e-175
3.58944e-180
6.60973e-185
1.54502e-189
4.564e-194
1.31141e-198
3.13815e-203
5.83541e-208
8.58488e-213
1.01486e-217
1.70761e-222
1.06598e-225
1.51569e-228
2.14342e-231
3.04877e-234
4.3245e-237
6.2105e-240
8.99813e-243
1.33383e-245
2.08111e-248
2.69059e-251
2.62256e-263
3.05045e-265
3.3872e-268
7.87415e-271
1.75137e-273
3.50414e-276
6.67708e-279
1.19964e-281
2.1119e-284
3.56119e-287
5.89206e-290
9.43435e-293
1.49024e-295
2.29781e-298
3.48953e-301
5.18474e-304
7.51544e-307
1.06248e-309
1.45523e-312
1.93753e-315
2.50341e-318
3.15214e-321
4.94066e-324
0
0
0
0
0
0
0
0
0
0
0
0
0
0
0
0
0
0
0
0
0
0
0
0
0
0
0
0
0
0
0
0
0
0
0
0
0
0
0
0
0
0
0
0
0
0
0
0
0
0
0
0
0
0
0
0
0
0
0
0
0
0
0
0
0
0
0
0
0
0
0
0
0
0
0
0
0
0
0
0
0
0
0
0
0
0
0
0
0
0
0
0
0
0
0
0
0
0
0
0
0
0
0
0
0
0
0
0
0
0
0
0
0
0
0
0
0
0
0
0
0
0
0
0
0
0
0
0
0
0
0
0
0
0
0
0
0
0
0
0
0
0
0
0
0
0
0
0
0
0
0
0
0
0
0
0
0
0
0
0
0
0
0
0
0
0
0
0
0
0
0
0
0
0
0
0
0
0
0
0
0
0
0
0
0
0
0
0
0
0
0
0
0
0
0
0
0
0
0
0
0
0
0
0
0
0
0
0
0
0
0
0
0
0
0
0
0
0
0
0
0
0
0
0
0
0
0
0
0
0
0
0
0
0
0
0
0
0
0
0
0
0
0
0
0
0
0
0.00102063
0.000766607
0.000352206
0.00022596
0.000304362
0.000356681
0.000274484
0.000341931
0.000351946
0.000349376
0.000258718
6.99504e-05
9.47159e-07
2.68865e-09
3.35917e-06
8.95107e-05
3.37286e-05
0.000107999
0.000134069
0.000165286
0.000202594
0.000274344
0.000352121
0.000135776
1.29117e-05
2.00683e-06
3.81397e-07
1.52293e-07
5.84156e-08
1.15936e-08
5.742e-09
2.42714e-10
1.8237e-12
1.97745e-14
1.37822e-16
6.09307e-19
2.12922e-21
3.80729e-24
3.83773e-27
2.40064e-30
7.51119e-34
1.06275e-37
2.15187e-42
6.01502e-48
8.23953e-56
1.24296e-57
1.9125e-59
5.50608e-61
4.95834e-63
2.99295e-66
1.36477e-69
1.40547e-72
5.26752e-75
5.00479e-77
3.68221e-79
1.54741e-81
4.45887e-84
9.20248e-87
1.91618e-89
3.20636e-92
4.80255e-95
6.64539e-98
7.81348e-101
8.83198e-104
8.86079e-107
8.56128e-110
7.46752e-113
6.26408e-116
4.91769e-119
3.53763e-122
2.26847e-125
1.18359e-128
4.41122e-132
1.2771e-135
1.54222e-143
6.47377e-146
5.60519e-149
8.01253e-152
9.1231e-155
8.63564e-158
7.44386e-161
6.60887e-164
6.29983e-167
6.06002e-170
1.12841e-174
1.54845e-179
2.15214e-184
4.11312e-189
1.12098e-193
3.24741e-198
7.60151e-203
1.34885e-207
1.86654e-212
2.0495e-217
2.52764e-222
9.57053e-226
1.30334e-228
1.74706e-231
2.38069e-234
3.2388e-237
4.56789e-240
6.55059e-243
1.00465e-245
1.24464e-248
4.02946e-259
2.13791e-261
1.26131e-264
1.85e-267
3.15236e-270
5.49286e-273
9.1822e-276
1.52612e-278
2.44621e-281
3.8625e-284
5.91052e-287
8.96718e-290
1.33503e-292
1.97232e-295
2.86179e-298
4.10376e-301
5.72783e-304
7.83486e-307
1.03903e-309
1.34814e-312
1.70132e-315
2.09479e-318
2.48515e-321
0
0
0
0
0
0
0
0
0
0
0
0
0
0
0
0
0
0
0
0
0
0
0
0
0
0
0
0
0
0
0
0
0
0
0
0
0
0
0
0
0
0
0
0
0
0
0
0
0
0
0
0
0
0
0
0
0
0
0
0
0
0
0
0
0
0
0
0
0
0
0
0
0
0
0
0
0
0
0
0
0
0
0
0
0
0
0
0
0
0
0
0
0
0
0
0
0
0
0
0
0
0
0
0
0
0
0
0
0
0
0
0
0
0
0
0
0
0
0
0
0
0
0
0
0
0
0
0
0
0
0
0
0
0
0
0
0
0
0
0
0
0
0
0
0
0
0
0
0
0
0
0
0
0
0
0
0
0
0
0
0
0
0
0
0
0
0
0
0
0
0
0
0
0
0
0
0
0
0
0
0
0
0
0
0
0
0
0
0
0
0
0
0
0
0
0
0
0
0
0
0
0
0
0
0
0
0
0
0
0
0
0
0
0
0
0
0
0
0
0
0
0
0
0
0
0
0
0
0
0
0
0
0
0
0
0
0
0
0
0
0
0
0
0
0
0
0
0.000147142
7.16596e-05
2.35684e-05
3.50623e-05
7.64685e-05
0.00012253
0.00014565
0.000222422
0.0002398
0.000214323
0.00034603
0.000224971
5.73387e-05
1.84759e-07
4.14438e-07
1.03361e-06
8.40038e-06
0.000137876
2.74198e-05
3.88719e-05
0.000141334
0.000298354
0.000342245
0.00035451
0.000319888
9.80318e-05
1.34985e-05
2.07695e-06
4.54688e-07
1.52788e-07
6.24573e-08
2.41964e-08
4.92459e-09
2.77851e-09
8.57258e-11
5.13448e-13
2.79319e-15
1.33001e-17
5.13688e-20
1.79761e-22
6.33858e-25
2.20289e-27
3.94028e-30
1.85447e-33
1.52465e-37
6.73325e-44
1.91765e-48
1.86064e-51
1.02469e-54
2.55955e-56
1.67904e-56
8.31116e-58
1.38407e-60
7.31845e-64
5.20028e-67
3.32762e-70
5.91938e-73
2.7071e-75
1.56725e-77
6.38079e-80
1.81983e-82
3.7824e-85
9.13911e-88
1.73736e-90
3.37971e-93
5.987e-96
8.73189e-99
1.17786e-101
1.50821e-104
2.02294e-107
2.40984e-110
2.80452e-113
3.23514e-116
4.20677e-119
4.90728e-122
5.40151e-125
4.5224e-128
2.09775e-131
2.49851e-134
2.32932e-137
7.51413e-141
2.24408e-144
1.93928e-147
3.0268e-150
5.51374e-153
7.66121e-156
8.83804e-159
9.49646e-162
1.18776e-164
1.51617e-167
1.7484e-170
1.92145e-175
1.88819e-180
2.15233e-185
3.52335e-190
8.37696e-195
2.26053e-199
5.10517e-204
8.69713e-209
1.14251e-213
1.19033e-218
1.86416e-223
9.88791e-227
1.18032e-229
1.41241e-232
1.74468e-235
2.17684e-238
2.85053e-241
3.72857e-244
5.23456e-247
5.96809e-250
4.25984e-253
9.71391e-256
8.89028e-259
1.0013e-261
1.02745e-264
1.25547e-267
1.42904e-270
1.81723e-273
2.19274e-276
2.8665e-279
3.6187e-282
4.82623e-285
6.28144e-288
8.52815e-291
1.12921e-293
1.53634e-296
2.04616e-299
2.73066e-302
3.55211e-305
4.57339e-308
5.73492e-311
7.13947e-314
8.59548e-317
1.02553e-319
1.18576e-322
0
0
0
0
0
0
0
0
0
0
0
0
0
0
0
0
0
0
0
0
0
0
0
0
0
0
0
0
0
0
0
0
0
0
0
0
0
0
0
0
0
0
0
0
0
0
0
0
0
0
0
0
0
0
0
0
0
0
0
0
0
0
0
0
0
0
0
0
0
0
0
0
0
0
0
0
0
0
0
0
0
0
0
0
0
0
0
0
0
0
0
0
0
0
0
0
0
0
0
0
0
0
0
0
0
0
0
0
0
0
0
0
0
0
0
0
0
0
0
0
0
0
0
0
0
0
0
0
0
0
0
0
0
0
0
0
0
0
0
0
0
0
0
0
0
0
0
0
0
0
0
0
0
0
0
0
0
0
0
0
0
0
0
0
0
0
0
0
0
0
0
0
0
0
0
0
0
0
0
0
0
0
0
0
0
0
0
0
0
0
0
0
0
0
0
0
0
0
0
0
0
0
0
0
0
0
0
0
0
0
0
0
0
0
0
0
0
0
0
0
0
0
0
0
0
0
0
0
0
0
0
0
0
0
0
0
0
0
0
0
0
0
0
0
0
0
0
0
0
0
0
0
0
0
0
0
0
0
0
0
0
0
0
0
3.19241e-06
3.15293e-06
1.81492e-06
1.96569e-06
6.20888e-06
2.45586e-05
5.78284e-05
4.81183e-05
3.03961e-05
2.58828e-05
2.62776e-05
7.61387e-05
0.000310012
9.13173e-06
7.64576e-05
0.000139045
3.14826e-05
2.33819e-05
3.02819e-05
0.000208728
0.00022701
8.30917e-05
9.34131e-05
9.88817e-05
6.83794e-05
1.50402e-05
4e-06
9.40146e-07
2.78372e-07
1.12175e-07
5.53746e-08
2.39506e-08
1.29018e-08
2.46578e-09
1.23121e-09
2.01329e-11
6.26328e-14
2.28533e-16
8.37764e-19
2.86835e-21
9.25638e-24
3.16664e-26
1.19435e-28
4.79783e-31
1.44405e-33
1.79831e-37
1.08109e-42
2.24055e-46
2.90502e-49
7.38561e-51
3.65145e-52
4.08335e-55
1.16573e-58
5.43932e-62
8.71029e-65
7.28288e-68
1.00478e-70
2.39813e-73
8.55801e-76
2.80362e-78
6.88248e-81
1.61787e-83
2.96348e-86
5.42873e-89
9.15529e-92
1.33933e-94
1.93291e-97
2.91941e-100
4.02557e-103
5.34349e-106
6.45824e-109
9.32052e-112
1.32964e-114
1.62155e-117
2.13495e-120
2.95103e-123
3.64332e-126
7.66025e-129
5.74092e-132
2.55964e-135
7.74627e-139
2.77931e-142
2.21816e-145
2.83002e-148
3.74513e-151
5.23732e-154
5.84419e-157
6.76719e-160
7.15272e-163
7.40776e-166
7.59016e-169
5.65036e-172
3.51683e-177
1.90793e-182
9.95434e-188
5.67933e-193
4.3351e-198
4.07772e-203
3.95784e-208
3.46385e-213
2.83352e-218
3.59979e-223
1.98903e-226
2.50071e-229
3.25176e-232
4.25388e-235
5.70703e-238
7.73429e-241
1.07564e-243
1.5076e-246
1.83848e-249
2.24797e-252
2.46457e-255
3.05295e-258
3.98569e-261
5.43648e-264
7.33181e-267
9.95696e-270
1.31871e-272
1.74659e-275
2.28434e-278
3.00626e-281
3.94781e-284
5.1963e-287
6.78349e-290
8.8071e-293
1.1357e-295
1.45484e-298
1.84207e-301
2.30391e-304
2.83058e-307
3.41209e-310
4.03393e-313
4.66767e-316
5.26373e-319
5.78057e-322
0
0
0
0
0
0
0
0
0
0
0
0
0
0
0
0
0
0
0
0
0
0
0
0
0
0
0
0
0
0
0
0
0
0
0
0
0
0
0
0
0
0
0
0
0
0
0
0
0
0
0
0
0
0
0
0
0
0
0
0
0
0
0
0
0
0
0
0
0
0
0
0
0
0
0
0
0
0
0
0
0
0
0
0
0
0
0
0
0
0
0
0
0
0
0
0
0
0
0
0
0
0
0
0
0
0
0
0
0
0
0
0
0
0
0
0
0
0
0
0
0
0
0
0
0
0
0
0
0
0
0
0
0
0
0
0
0
0
0
0
0
0
0
0
0
0
0
0
0
0
0
0
0
0
0
0
0
0
0
0
0
0
0
0
0
0
0
0
0
0
0
0
0
0
0
0
0
0
0
0
0
0
0
0
0
0
0
0
0
0
0
0
0
0
0
0
0
0
0
0
0
0
0
0
0
0
0
0
0
0
0
0
0
0
0
0
0
0
0
0
0
0
0
0
0
0
0
0
0
0
0
0
0
0
0
0
0
0
0
0
0
0
0
0
0
0
0
0
0
0
0
0
0
0
0
0
0
0
0
0
0
0
0
0
4.67084e-08
1.26332e-07
1.35435e-07
1.87119e-07
3.06022e-07
3.57786e-07
1.81467e-06
4.17822e-06
5.6303e-06
3.8581e-06
2.99709e-06
2.06649e-06
2.07242e-06
8.02767e-06
3.72939e-06
4.23775e-06
5.0497e-05
0.00014901
0.000200316
1.12264e-05
5.05602e-06
6.08396e-06
9.52907e-06
9.97895e-06
5.59321e-06
2.14251e-06
6.54806e-07
2.61297e-07
1.20948e-07
5.50761e-08
3.21837e-08
2.07997e-08
1.44007e-08
5.45045e-09
9.91455e-10
2.87561e-10
1.36986e-12
1.9421e-15
3.52194e-18
1.06246e-20
3.4142e-23
1.05719e-25
3.32305e-28
1.22136e-30
4.19217e-33
2.12734e-35
9.41075e-38
1.23284e-40
1.07658e-43
7.30575e-47
2.85188e-50
1.18272e-53
6.01167e-57
2.68665e-60
1.39504e-63
8.30719e-67
7.06673e-70
8.58789e-73
1.39198e-75
3.11714e-78
5.59125e-81
1.07746e-83
1.71763e-86
2.65267e-89
3.72373e-92
5.62819e-95
7.93235e-98
1.04764e-100
1.35234e-103
1.70927e-106
2.10109e-109
2.90342e-112
3.94305e-115
5.46388e-118
6.81681e-121
9.94197e-124
1.22837e-126
1.85805e-129
1.78253e-132
1.14327e-135
5.66292e-139
2.92081e-142
2.29216e-145
2.29852e-148
2.55871e-151
2.62464e-154
2.69425e-157
2.68436e-160
2.72814e-163
2.67888e-166
2.59005e-169
2.4547e-172
1.81665e-177
1.23538e-182
8.19945e-188
5.26218e-193
3.49327e-198
2.23985e-203
1.27469e-208
6.51846e-214
3.1376e-219
1.51565e-224
1.07906e-228
1.30536e-231
1.65545e-234
2.11226e-237
2.73513e-240
3.56199e-243
4.89531e-246
7.39482e-249
7.78214e-252
9.98725e-255
1.20399e-257
1.66154e-260
2.30831e-263
3.2012e-266
4.29897e-269
5.74569e-272
7.49227e-275
9.76944e-278
1.25549e-280
1.62323e-283
2.09716e-286
2.73716e-289
3.59282e-292
4.73963e-295
6.23745e-298
8.14146e-301
1.04955e-303
1.33708e-306
1.67615e-309
2.06196e-312
2.47546e-315
2.89232e-318
3.29542e-321
4.94066e-324
0
0
0
0
0
0
0
0
0
0
0
0
0
0
0
0
0
0
0
0
0
0
0
0
0
0
0
0
0
0
0
0
0
0
0
0
0
0
0
0
0
0
0
0
0
0
0
0
0
0
0
0
0
0
0
0
0
0
0
0
0
0
0
0
0
0
0
0
0
0
0
0
0
0
0
0
0
0
0
0
0
0
0
0
0
0
0
0
0
0
0
0
0
0
0
0
0
0
0
0
0
0
0
0
0
0
0
0
0
0
0
0
0
0
0
0
0
0
0
0
0
0
0
0
0
0
0
0
0
0
0
0
0
0
0
0
0
0
0
0
0
0
0
0
0
0
0
0
0
0
0
0
0
0
0
0
0
0
0
0
0
0
0
0
0
0
0
0
0
0
0
0
0
0
0
0
0
0
0
0
0
0
0
0
0
0
0
0
0
0
0
0
0
0
0
0
0
0
0
0
0
0
0
0
0
0
0
0
0
0
0
0
0
0
0
0
0
0
0
0
0
0
0
0
0
0
0
0
0
0
0
0
0
0
0
0
0
0
0
0
0
0
0
0
0
0
0
0
0
0
0
0
0
0
0
0
0
0
0
0
0
0
0
0
4.49404e-09
5.63444e-09
6.91354e-09
8.32176e-09
1.46216e-08
2.17128e-08
4.42622e-08
8.29848e-08
1.53276e-07
2.22705e-07
2.34415e-07
2.22119e-07
1.93289e-07
4.07939e-07
3.59859e-07
4.35715e-07
1.74378e-06
6.58236e-06
1.01905e-06
7.73354e-07
8.47116e-07
1.05708e-06
1.09662e-06
1.04927e-06
7.76725e-07
3.73641e-07
1.70963e-07
9.60632e-08
4.89985e-08
2.63279e-08
1.85878e-08
1.39808e-08
1.16816e-08
8.72524e-09
2.14148e-09
3.92438e-10
3.83323e-12
8.61317e-15
1.51157e-17
2.10251e-20
7.21618e-23
1.22071e-25
4.31429e-28
9.95539e-31
2.87079e-33
8.03246e-36
1.90869e-38
3.63727e-41
3.95375e-44
2.91056e-47
1.5986e-50
8.33041e-54
4.23139e-57
2.71429e-60
1.60312e-63
1.19747e-66
9.19655e-70
9.07871e-73
1.14603e-75
1.63826e-78
2.25848e-81
3.08659e-84
3.77195e-87
5.88683e-90
7.81457e-93
1.00438e-95
1.27254e-98
1.52587e-101
1.84149e-104
2.14272e-107
2.78042e-110
4.03233e-113
4.23288e-116
5.39587e-119
6.23501e-122
6.79917e-125
7.31054e-128
8.16233e-131
7.93826e-134
6.80451e-137
4.71843e-140
2.58875e-143
2.06835e-146
1.83478e-149
1.73975e-152
1.58134e-155
1.47799e-158
1.35608e-161
1.27038e-164
1.18434e-167
1.1557e-170
8.15317e-174
3.81015e-179
1.47048e-184
5.57592e-190
2.20855e-195
1.15888e-200
7.81217e-206
5.37263e-211
3.19923e-216
1.59743e-221
6.86804e-227
2.4833e-231
2.94051e-234
3.85049e-237
5.03127e-240
6.61481e-243
8.71791e-246
1.15953e-248
1.56803e-251
2.04988e-254
2.78326e-257
3.67883e-260
5.21115e-263
7.24475e-266
9.99199e-269
1.34286e-271
1.80788e-274
2.38014e-277
3.14807e-280
4.09505e-283
5.36092e-286
6.95791e-289
9.10216e-292
1.19136e-294
1.57548e-297
2.09036e-300
2.77867e-303
3.66801e-306
4.79738e-309
6.16399e-312
7.76849e-315
9.56979e-318
1.15315e-320
1.4822e-323
0
0
0
0
0
0
0
0
0
0
0
0
0
0
0
0
0
0
0
0
0
0
0
0
0
0
0
0
0
0
0
0
0
0
0
0
0
0
0
0
0
0
0
0
0
0
0
0
0
0
0
0
0
0
0
0
0
0
0
0
0
0
0
0
0
0
0
0
0
0
0
0
0
0
0
0
0
0
0
0
0
0
0
0
0
0
0
0
0
0
0
0
0
0
0
0
0
0
0
0
0
0
0
0
0
0
0
0
0
0
0
0
0
0
0
0
0
0
0
0
0
0
0
0
0
0
0
0
0
0
0
0
0
0
0
0
0
0
0
0
0
0
0
0
0
0
0
0
0
0
0
0
0
0
0
0
0
0
0
0
0
0
0
0
0
0
0
0
0
0
0
0
0
0
0
0
0
0
0
0
0
0
0
0
0
0
0
0
0
0
0
0
0
0
0
0
0
0
0
0
0
0
0
0
0
0
0
0
0
0
0
0
0
0
0
0
0
0
0
0
0
0
0
0
0
0
0
0
0
0
0
0
0
0
0
0
0
0
0
0
0
0
0
0
0
0
0
0
0
0
0
0
0
0
0
0
0
0
0
0
0
0
0
0
0
4.43181e-09
5.2718e-09
6.09748e-09
6.56278e-09
6.70678e-09
6.96946e-09
7.35907e-09
7.77508e-09
9.41616e-09
1.20855e-08
1.54792e-08
2.03721e-08
2.29307e-08
5.34639e-08
6.15384e-08
9.94828e-08
1.69168e-07
2.45788e-07
1.5514e-07
1.51169e-07
1.57136e-07
1.61807e-07
1.73378e-07
1.71727e-07
1.43852e-07
9.73691e-08
5.52268e-08
3.22804e-08
2.11062e-08
1.51458e-08
1.09093e-08
9.1379e-09
8.08497e-09
7.97565e-09
1.80428e-09
3.47586e-10
1.13473e-12
1.22716e-15
2.73086e-18
3.84195e-21
5.0772e-24
1.1037e-26
2.39962e-29
4.67947e-32
8.20318e-35
2.006e-37
3.43957e-40
4.55332e-43
5.12761e-46
4.66695e-49
3.68751e-52
2.6155e-55
2.06868e-58
1.5578e-61
1.17766e-64
1.08835e-67
1.0508e-70
1.0484e-73
1.07713e-76
1.10681e-79
1.19116e-82
1.24937e-85
1.30114e-88
1.49391e-91
1.50956e-94
1.73923e-97
1.79833e-100
1.90264e-103
2.00796e-106
2.09871e-109
2.19257e-112
2.65543e-115
2.74745e-118
2.84254e-121
2.99471e-124
3.0758e-127
3.10945e-130
3.13921e-133
2.8605e-136
2.37579e-139
1.81619e-142
1.40037e-145
1.07352e-148
8.75336e-152
7.29426e-155
5.96304e-158
5.01482e-161
3.72773e-164
3.15352e-167
2.54881e-170
2.07662e-173
1.34075e-178
8.38362e-184
4.99406e-189
2.9413e-194
1.7341e-199
1.03696e-204
5.66256e-210
2.52288e-215
9.91973e-221
3.54376e-226
2.73472e-231
2.09354e-234
2.80653e-237
3.75565e-240
5.02438e-243
6.73357e-246
9.13342e-249
1.2327e-251
1.68961e-254
2.26055e-257
3.14829e-260
4.36587e-263
6.28948e-266
8.85628e-269
1.22559e-271
1.67114e-274
2.24477e-277
2.98906e-280
3.94579e-283
5.1986e-286
6.84681e-289
9.04284e-292
1.20337e-294
1.61841e-297
2.19805e-300
2.99076e-303
4.05919e-306
5.47567e-309
7.29228e-312
9.52718e-315
1.21832e-317
1.52913e-320
1.97626e-323
0
0
0
0
0
0
0
0
0
0
0
0
0
0
0
0
0
0
0
0
0
0
0
0
0
0
0
0
0
0
0
0
0
0
0
0
0
0
0
0
0
0
0
0
0
0
0
0
0
0
0
0
0
0
0
0
0
0
0
0
0
0
0
0
0
0
0
0
0
0
0
0
0
0
0
0
0
0
0
0
0
0
0
0
0
0
0
0
0
0
0
0
0
0
0
0
0
0
0
0
0
0
0
0
0
0
0
0
0
0
0
0
0
0
0
0
0
0
0
0
0
0
0
0
0
0
0
0
0
0
0
0
0
0
0
0
0
0
0
0
0
0
0
0
0
0
0
0
0
0
0
0
0
0
0
0
0
0
0
0
0
0
0
0
0
0
0
0
0
0
0
0
0
0
0
0
0
0
0
0
0
0
0
0
0
0
0
0
0
0
0
0
0
0
0
0
0
0
0
0
0
0
0
0
0
0
0
0
0
0
0
0
0
0
0
0
0
0
0
0
0
0
0
0
0
0
0
0
0
0
0
0
0
0
0
0
0
0
0
0
0
0
0
0
0
0
0
0
0
0
0
0
0
0
0
0
0
0
0
0
0
0
0
0
0
0
5.74468e-09
6.12063e-09
6.45118e-09
6.43065e-09
6.41261e-09
6.29182e-09
6.01623e-09
5.77064e-09
5.38641e-09
5.0416e-09
5.39987e-09
6.7764e-09
9.67845e-09
1.48856e-08
1.87594e-08
2.05973e-08
2.82026e-08
2.94429e-08
2.13559e-08
2.09621e-08
2.27678e-08
2.31758e-08
2.96137e-08
3.42637e-08
3.48293e-08
2.32411e-08
1.91262e-08
1.50207e-08
1.12799e-08
9.19675e-09
7.76643e-09
7.44248e-09
7.30292e-09
7.07408e-09
2.84301e-09
5.29909e-10
1.89421e-11
1.70354e-14
1.41237e-17
1.6608e-20
2.17375e-23
2.8141e-26
3.3382e-29
4.01521e-32
4.79564e-35
5.67641e-38
7.24408e-41
7.4096e-44
6.00986e-47
6.28328e-50
5.29491e-53
4.94627e-56
4.08311e-59
3.43615e-62
2.92526e-65
2.5497e-68
2.22207e-71
1.9384e-74
1.68555e-77
1.45925e-80
1.26743e-83
1.07621e-86
9.48703e-90
8.08106e-93
7.03037e-96
6.36352e-99
5.43782e-102
4.972e-105
4.35818e-108
3.94297e-111
3.5207e-114
3.17929e-117
2.98394e-120
2.64244e-123
2.33935e-126
2.00221e-129
1.75916e-132
1.46103e-135
1.25387e-138
1.01045e-141
8.30879e-145
6.5979e-148
5.19104e-151
4.14641e-154
3.20131e-157
2.51398e-160
1.91906e-163
1.48172e-166
1.13704e-169
8.58575e-173
5.68583e-178
3.82434e-183
2.59306e-188
1.73322e-193
1.16239e-198
7.59652e-204
4.33389e-209
2.00506e-214
7.75396e-220
2.64133e-225
1.01782e-230
2.99492e-234
4.12652e-237
5.78606e-240
7.96044e-243
1.1008e-245
1.5117e-248
2.1045e-251
2.91076e-254
4.09286e-257
5.65222e-260
8.07704e-263
1.15062e-265
1.67862e-268
2.37474e-271
3.3409e-274
4.5883e-277
6.28277e-280
8.45791e-283
1.13977e-285
1.52042e-288
2.03826e-291
2.7219e-294
3.66813e-297
4.95747e-300
6.76589e-303
9.24714e-306
1.26703e-308
1.72913e-311
2.34239e-314
3.12842e-317
4.09877e-320
5.43472e-323
0
0
0
0
0
0
0
0
0
0
0
0
0
0
0
0
0
0
0
0
0
0
0
0
0
0
0
0
0
0
0
0
0
0
0
0
0
0
0
0
0
0
0
0
0
0
0
0
0
0
0
0
0
0
0
0
0
0
0
0
0
0
0
0
0
0
0
0
0
0
0
0