/*--------------------------------*- C++ -*----------------------------------*\
| =========                 |                                                 |
| \\      /  F ield         | OpenFOAM: The Open Source CFD Toolbox           |
|  \\    /   O peration     | Version:  2.1.1                                 |
|   \\  /    A nd           | Web:      www.OpenFOAM.org                      |
|    \\/     M anipulation  |                                                 |
\*---------------------------------------------------------------------------*/
FoamFile
{
    version     2.0;
    format      ascii;
    class       volScalarField;
    location    "0.001400000";
    object      p;
}
// * * * * * * * * * * * * * * * * * * * * * * * * * * * * * * * * * * * * * //

dimensions      [1 -1 -2 0 0 0 0];

internalField   nonuniform List<scalar> 
12384
(
180533
178826
185379
182567
183815
171185
169746
167085
161390
164078
161245
162645
161939
162063
173863
176960
173388
171292
166170
164425
162068
160110
158706
161343
164183
167606
169461
168954
167983
166614
164132
163663
160407
155005
156178
148913
162523
158993
172506
179617
183045
180365
178419
175642
134472
134200
134799
134757
134820
133655
132895
132934
131613
130520
130873
129338
129882
129410
129837
129866
129831
129563
127920
127412
126703
124251
124898
123576
123164
123460
123285
123387
123578
123682
109498
109310
109225
108975
109009
108622
108377
108395
107759
107884
107081
107273
106529
106372
105936
106022
105252
105584
104755
105111
104382
104493
104322
103973
104046
103923
103729
103821
103671
103719
101648
101598
101625
101594
101595
101559
101553
101521
101521
101481
101489
101448
101460
101419
101431
101393
101405
101372
101382
101355
101362
101341
101347
101332
101337
101327
101331
101325
101327
101323
101322
101322
101323
101322
101323
101322
101323
101322
101323
101323
101323
101323
101323
101323
101323
101323
101323
101323
101323
101323
101323
101323
101322
101323
101322
101323
101322
101322
101322
101322
101322
101322
101323
101322
101322
101323
101322
101323
101322
101323
101323
101323
101323
101323
101323
101323
101323
101323
101323
101323
101323
101323
101322
101323
101322
101323
101322
101323
101322
101322
101322
101322
101322
101323
101322
101323
101322
101323
101322
101323
101323
101323
101323
101323
101323
101323
101323
101323
101323
101323
101323
101323
101322
101323
101322
101323
101322
101322
101322
101322
101322
101322
101322
101323
101322
101323
101322
101323
101323
101323
101323
101323
101323
101323
101323
101323
101323
101323
101323
101323
101323
101323
101322
101323
101322
101323
101322
101322
101322
101322
101322
101322
101322
101322
101323
101322
101323
101322
101323
101323
101323
101323
101323
101323
101323
101323
101323
101323
101323
101323
101323
101323
101322
101323
101322
101323
101322
101323
101322
101322
101322
101322
101322
101323
101322
101323
101322
101323
101322
101323
101323
101323
101323
101323
101323
101323
101323
101323
101323
101323
101323
101323
101323
101323
101322
101323
101322
101322
101323
101322
101322
101322
101322
101322
101322
101323
101322
101323
101323
101323
101323
101323
101323
101324
101323
101323
101324
101323
101324
101323
101324
101323
101323
101323
101323
101322
101323
101323
101322
101322
101322
101322
101322
101323
101322
101323
101323
101323
101323
101324
101323
101324
101324
101324
101324
101324
101324
101324
101324
101324
101324
101324
101323
101324
101323
101323
101322
101323
101323
101323
177808
151648
175347
184020
174122
176619
166632
162256
163079
160146
161422
161884
161693
161497
174922
166364
165319
161066
160522
158470
157370
158799
160727
161145
162719
163261
164271
165873
165344
163360
164357
161420
159359
156443
155629
151733
163035
157343
172549
177903
181240
181235
178113
174857
133407
134083
134293
134546
135202
134768
134648
133822
133378
131766
130296
130941
129433
129984
129593
129818
129402
128744
128857
126631
126584
125469
123778
124406
123082
123129
123175
123263
123371
123443
109274
109303
109241
109276
108884
108902
108390
108391
107990
107590
107542
106822
107013
106105
106376
105677
105589
105335
104999
104905
104479
104510
104183
104156
103896
103961
103751
103762
103686
103649
101613
101662
101620
101629
101586
101588
101552
101541
101517
101495
101486
101458
101458
101424
101431
101396
101405
101373
101378
101356
101356
101342
101340
101331
101332
101323
101326
101321
101322
101321
101318
101318
101319
101318
101319
101318
101319
101318
101319
101318
101319
101319
101319
101319
101319
101319
101318
101319
101318
101319
101318
101319
101318
101319
101318
101319
101318
101318
101318
101318
101318
101317
101318
101318
101318
101319
101318
101319
101318
101319
101318
101319
101318
101319
101319
101319
101319
101319
101318
101319
101318
101319
101318
101319
101318
101319
101318
101319
101318
101318
101318
101318
101317
101318
101318
101319
101318
101319
101318
101319
101318
101319
101318
101319
101319
101319
101318
101319
101318
101319
101318
101319
101318
101319
101318
101319
101318
101318
101318
101318
101318
101318
101318
101319
101318
101319
101318
101319
101318
101319
101318
101319
101318
101319
101319
101319
101318
101319
101318
101319
101318
101319
101318
101319
101318
101319
101318
101318
101318
101318
101318
101318
101319
101318
101319
101318
101319
101318
101319
101318
101319
101318
101319
101318
101319
101319
101319
101319
101319
101319
101318
101319
101318
101319
101318
101319
101318
101319
101318
101318
101318
101318
101318
101319
101318
101319
101318
101319
101318
101319
101318
101319
101318
101319
101319
101319
101319
101319
101318
101319
101318
101319
101318
101319
101318
101319
101318
101318
101318
101318
101318
101317
101318
101318
101318
101319
101318
101319
101318
101319
101318
101319
101319
101319
101319
101319
101320
101319
101319
101319
101319
101319
101319
101318
101319
101318
101319
101318
101318
101318
101318
101318
101318
101319
101318
101319
101318
101320
101319
101320
101319
101320
101319
101320
101320
101320
101320
101320
101319
101320
101319
101320
101319
101320
101318
101319
101318
101319
101318
101318
168148
161565
169093
169080
175934
170265
165899
161530
159509
159883
159743
160470
160779
160634
165705
161549
152652
152668
152116
152292
153365
156787
158890
160425
159945
159503
161979
162246
161000
163728
161477
160027
159591
157562
158258
156090
162747
158334
172107
174683
180711
179992
178141
174600
133592
132916
133847
134591
134811
136008
135795
135463
134321
133694
132448
130775
131206
129736
130012
129287
128684
128899
128056
127201
125970
126207
123710
124388
123296
123029
123089
123059
123076
123232
109725
109678
109546
109183
109239
108756
108686
108249
108187
107549
107662
106879
107007
106271
106290
105732
105698
105181
105119
104801
104506
104541
104106
104212
103844
103897
103749
103675
103676
103639
101716
101650
101689
101623
101638
101578
101587
101532
101541
101489
101500
101453
101465
101421
101435
101395
101407
101373
101384
101356
101365
101346
101347
101343
101335
101337
101333
101332
101332
101331
101328
101329
101328
101329
101328
101329
101328
101329
101328
101329
101328
101329
101328
101328
101329
101328
101329
101328
101329
101328
101329
101328
101329
101328
101329
101328
101329
101329
101329
101329
101328
101329
101328
101329
101329
101328
101329
101328
101329
101328
101329
101328
101329
101328
101329
101328
101329
101328
101329
101328
101329
101328
101329
101328
101329
101328
101329
101328
101329
101328
101329
101329
101329
101328
101329
101328
101329
101328
101329
101328
101330
101328
101329
101328
101329
101328
101329
101328
101329
101328
101329
101328
101329
101328
101329
101328
101329
101329
101329
101329
101329
101328
101329
101328
101329
101328
101329
101328
101329
101328
101329
101328
101329
101328
101329
101328
101329
101328
101329
101328
101329
101328
101329
101328
101329
101328
101329
101329
101329
101329
101329
101329
101328
101329
101328
101329
101328
101329
101328
101330
101328
101329
101328
101329
101328
101329
101328
101329
101328
101329
101329
101328
101329
101328
101329
101328
101329
101328
101329
101328
101329
101328
101329
101328
101329
101328
101329
101328
101329
101328
101329
101328
101329
101328
101329
101328
101329
101328
101330
101328
101330
101328
101330
101328
101329
101328
101329
101329
101329
101329
101328
101328
101328
101327
101329
101328
101329
101328
101330
101328
101330
101328
101330
101328
101329
101329
101328
101330
101328
101330
101328
101330
101328
101330
101328
101330
101328
101329
101329
101329
101328
101328
101329
101328
101329
101328
101330
101328
101330
101329
101330
101329
101330
101329
101330
101329
101330
101329
101330
101329
101330
101329
101330
101329
101330
101328
101330
101329
101329
101329
165363
171126
170604
173831
168521
161637
163727
162167
160183
158804
158939
159796
160215
160484
163030
154464
153449
166802
154737
156175
157661
157515
156865
156642
156903
158174
157126
157531
161629
159569
160135
160588
158863
159043
159433
160262
162983
160035
169245
172163
177417
178493
177631
174791
131198
132316
132996
133820
135663
136223
137279
137335
137099
135529
134433
132766
130766
131142
128996
129055
128707
127848
127441
127640
126029
126339
124555
124175
123494
123449
122723
123053
122886
122627
109510
109555
109369
109587
109090
109119
108493
108540
108076
107558
107722
106883
107108
106262
106470
105655
105812
105241
104994
104903
104480
104530
104056
104263
103777
103953
103681
103649
103641
103586
101649
101720
101653
101698
101611
101635
101570
101578
101521
101526
101479
101482
101446
101447
101417
101417
101392
101393
101369
101371
101350
101354
101338
101336
101334
101329
101330
101328
101326
101326
101323
101322
101325
101321
101325
101322
101325
101322
101325
101322
101325
101322
101324
101325
101322
101325
101322
101325
101322
101325
101321
101324
101321
101324
101321
101324
101321
101322
101323
101322
101323
101322
101324
101322
101322
101324
101321
101325
101321
101325
101322
101325
101322
101325
101322
101325
101322
101325
101322
101325
101322
101325
101322
101325
101321
101325
101321
101325
101322
101323
101322
101322
101321
101324
101321
101324
101321
101325
101321
101325
101322
101325
101322
101325
101322
101325
101322
101325
101322
101325
101321
101324
101321
101324
101321
101324
101321
101322
101323
101323
101322
101323
101321
101324
101321
101324
101321
101325
101321
101325
101322
101325
101322
101325
101322
101325
101322
101325
101322
101325
101321
101324
101321
101324
101321
101324
101321
101322
101323
101323
101323
101323
101324
101321
101324
101321
101325
101321
101325
101322
101325
101322
101325
101322
101325
101322
101325
101322
101325
101322
101322
101324
101321
101325
101321
101325
101321
101325
101322
101323
101322
101323
101321
101324
101321
101324
101321
101324
101321
101325
101322
101325
101322
101325
101322
101325
101322
101325
101322
101325
101321
101324
101321
101324
101321
101324
101321
101322
101323
101322
101323
101322
101323
101324
101321
101325
101322
101325
101322
101325
101322
101325
101322
101325
101322
101322
101325
101322
101325
101322
101325
101322
101325
101322
101325
101321
101324
101322
101322
101322
101322
101323
101321
101324
101321
101324
101321
101325
101322
101325
101322
101325
101322
101326
101322
101326
101322
101326
101322
101325
101322
101325
101322
101325
101321
101324
101321
101322
101323
101322
169000
168389
170101
166559
166854
165443
163240
163135
160235
160619
158313
159036
159503
159306
155733
151197
164199
158410
175231
149046
152777
152093
151637
152675
154404
157129
154298
154884
160389
162369
159629
160531
160089
159893
161269
160606
164297
161987
168862
168298
174349
175337
175749
175742
130042
129220
130885
133137
134553
136856
137868
138616
138268
137856
136019
134576
132391
130241
130369
127939
128349
127372
127553
126944
126478
126416
124632
125069
123026
123759
122717
122401
121916
122227
110054
110094
110103
109565
109565
109025
109056
108345
108476
107665
107702
107227
106756
106753
106038
106120
105450
105568
104916
105106
104391
104698
103997
104275
103810
103818
103737
103614
103517
103568
101847
101762
101792
101684
101715
101622
101637
101565
101573
101509
101517
101466
101473
101433
101438
101407
101410
101384
101387
101365
101361
101349
101349
101336
101339
101330
101332
101328
101327
101326
101324
101323
101323
101323
101323
101323
101323
101323
101323
101323
101323
101323
101323
101323
101323
101323
101323
101323
101323
101323
101323
101323
101323
101323
101323
101323
101323
101323
101323
101323
101323
101323
101323
101323
101323
101323
101323
101323
101323
101323
101323
101323
101323
101323
101323
101323
101323
101323
101323
101323
101323
101323
101323
101323
101323
101323
101323
101323
101323
101323
101323
101323
101323
101323
101323
101323
101323
101323
101323
101323
101323
101323
101323
101323
101323
101323
101323
101323
101324
101323
101324
101323
101323
101323
101323
101323
101323
101323
101323
101323
101323
101323
101323
101323
101323
101323
101323
101323
101323
101323
101323
101323
101323
101323
101323
101323
101324
101323
101324
101323
101324
101323
101323
101323
101323
101323
101323
101323
101323
101323
101323
101323
101323
101323
101323
101323
101323
101323
101323
101323
101323
101323
101323
101324
101323
101323
101323
101324
101323
101323
101323
101323
101323
101323
101323
101323
101323
101323
101323
101323
101323
101323
101323
101323
101323
101323
101323
101323
101323
101323
101323
101323
101323
101323
101323
101323
101324
101323
101324
101324
101324
101323
101324
101323
101323
101323
101323
101323
101323
101323
101323
101322
101323
101323
101323
101323
101323
101323
101323
101323
101323
101323
101324
101324
101324
101324
101324
101324
101323
101324
101323
101323
101323
101323
101323
101323
101323
101323
101323
101323
101322
101323
101323
101323
101323
101323
101324
101323
101324
101324
101324
101324
101324
101324
101324
101324
101324
101324
101324
101324
101324
101324
101324
101324
101324
101323
101323
101323
101323
101323
163696
168104
167050
168927
166944
165210
164799
163415
160768
161769
160705
161019
160806
161985
152088
150060
151058
176006
149163
154219
154435
154034
155561
153366
154471
156451
154251
153424
155061
162575
164507
161080
161828
161403
161028
161015
164217
163859
167367
168340
170664
174626
175004
172027
125843
127102
129029
130804
133615
135843
138343
139537
139853
138846
137830
135712
133719
131904
128897
129598
127077
127744
126856
127015
126620
125991
125483
124697
123706
122918
123104
121896
122082
121749
109825
110206
109942
110003
109699
109513
108910
108943
108184
108302
107457
107587
106941
106667
106415
105988
105841
105264
105392
104751
104728
104487
104116
104208
103784
103830
103714
103522
103510
103416
101783
101851
101746
101808
101692
101719
101622
101635
101555
101562
101496
101504
101454
101461
101422
101429
101397
101402
101377
101381
101359
101363
101344
101349
101335
101338
101330
101333
101329
101329
101324
101324
101325
101324
101325
101324
101325
101324
101325
101324
101325
101324
101325
101325
101324
101325
101324
101325
101324
101325
101324
101325
101324
101325
101324
101324
101324
101324
101324
101324
101324
101324
101324
101324
101324
101325
101324
101325
101324
101325
101324
101325
101324
101325
101324
101325
101324
101325
101324
101325
101324
101325
101324
101325
101324
101325
101324
101325
101324
101324
101324
101324
101324
101325
101324
101325
101324
101325
101324
101325
101324
101325
101324
101325
101324
101325
101324
101325
101324
101325
101324
101325
101324
101325
101324
101325
101324
101324
101324
101324
101324
101324
101324
101325
101324
101325
101324
101325
101324
101325
101324
101325
101324
101325
101324
101325
101324
101325
101324
101325
101324
101325
101324
101325
101324
101324
101324
101324
101324
101324
101324
101324
101324
101324
101325
101324
101325
101324
101325
101324
101325
101324
101325
101324
101325
101324
101325
101324
101325
101324
101324
101325
101324
101325
101324
101325
101324
101325
101324
101324
101324
101324
101324
101324
101324
101325
101324
101325
101324
101325
101324
101325
101324
101325
101324
101325
101324
101325
101324
101325
101324
101325
101324
101325
101324
101325
101324
101324
101324
101324
101324
101324
101324
101324
101324
101325
101324
101325
101324
101325
101324
101325
101324
101325
101324
101324
101325
101324
101325
101324
101325
101324
101325
101324
101325
101324
101324
101324
101324
101324
101324
101324
101323
101324
101324
101325
101324
101325
101324
101325
101324
101325
101325
101325
101325
101325
101325
101325
101325
101325
101324
101325
101324
101325
101324
101325
101324
101324
101324
101324
165286
165971
167646
167900
165829
166756
162839
163400
161579
161181
161155
161182
162262
161396
151026
150162
152913
147465
152307
153012
154450
156645
155969
155008
155699
154781
153773
154919
151844
161026
164582
164942
162229
162812
161994
160467
163807
163189
167114
167387
168959
167741
169429
171310
125819
123424
125394
129083
131826
135670
138089
139902
140430
139930
138269
137276
134221
133349
128966
129722
127656
126885
127096
126705
126283
125997
125777
124060
124758
122113
123123
121235
120733
120162
110578
110599
110604
110277
110016
109699
109420
108711
108789
107973
108047
107332
107160
106881
106259
106462
105535
105652
105310
104735
104887
104367
104305
104031
103981
103605
103768
103396
103508
103351
102036
101906
101952
101799
101824
101697
101721
101610
101633
101537
101557
101479
101497
101441
101452
101413
101419
101391
101395
101372
101377
101357
101353
101347
101340
101334
101335
101330
101331
101328
101325
101324
101324
101324
101324
101324
101324
101324
101324
101324
101324
101324
101324
101324
101324
101324
101324
101324
101324
101324
101324
101324
101324
101324
101324
101324
101324
101324
101324
101324
101324
101323
101324
101324
101324
101324
101324
101324
101324
101324
101324
101324
101324
101324
101324
101324
101324
101324
101324
101324
101324
101324
101324
101324
101324
101324
101324
101324
101323
101324
101324
101323
101324
101324
101324
101324
101324
101324
101324
101324
101324
101324
101324
101324
101324
101324
101324
101324
101324
101324
101324
101324
101324
101324
101324
101324
101323
101324
101324
101324
101324
101324
101324
101324
101324
101324
101324
101324
101324
101324
101324
101324
101324
101324
101324
101324
101324
101324
101324
101324
101324
101324
101324
101324
101324
101324
101323
101324
101324
101324
101324
101324
101324
101324
101324
101324
101324
101324
101324
101324
101324
101324
101324
101324
101324
101324
101324
101324
101324
101324
101324
101324
101324
101324
101324
101324
101324
101324
101323
101324
101324
101324
101323
101324
101324
101324
101324
101324
101324
101324
101324
101324
101324
101324
101324
101324
101324
101324
101324
101324
101324
101324
101324
101324
101324
101324
101324
101324
101324
101324
101323
101323
101324
101323
101324
101324
101324
101324
101324
101324
101324
101324
101324
101324
101324
101324
101324
101324
101324
101324
101324
101324
101324
101324
101324
101324
101324
101324
101323
101323
101323
101323
101323
101323
101323
101324
101324
101324
101324
101324
101324
101324
101324
101324
101324
101324
101324
101324
101324
101324
101324
101324
101324
101324
101324
101323
101323
101323
101323
101323
167486
167620
167048
166808
166872
164817
164435
162246
161084
161249
161259
161812
162470
163573
153223
155566
150392
150543
152492
151315
156739
157846
158180
158814
156167
155887
154990
154212
150460
150735
168631
166067
163803
163221
163122
162034
161969
163215
165878
167668
168460
169723
167385
161583
118018
120814
123160
127103
130514
134847
137904
140047
140403
140226
139382
137253
135601
133515
130758
129905
127280
127968
126219
126769
126098
126013
125548
124359
124497
122372
123188
120829
121601
119874
110830
110465
110583
110742
110407
109876
109721
109031
108753
108259
107859
107691
107009
107186
106210
106538
105658
105723
105193
105035
104781
104361
104444
103899
104080
103545
103761
103360
103505
103278
101828
102052
101820
101945
101791
101809
101693
101698
101601
101606
101534
101522
101480
101471
101440
101433
101413
101405
101391
101382
101375
101365
101356
101354
101341
101343
101334
101337
101331
101333
101326
101326
101326
101326
101326
101325
101326
101325
101326
101325
101325
101325
101325
101325
101325
101325
101325
101325
101325
101326
101325
101325
101325
101325
101325
101325
101325
101325
101325
101325
101326
101326
101326
101325
101325
101325
101325
101326
101325
101326
101325
101325
101325
101325
101325
101325
101325
101325
101325
101325
101325
101325
101325
101325
101325
101325
101325
101326
101325
101325
101326
101326
101325
101325
101325
101325
101325
101326
101325
101326
101325
101325
101325
101325
101325
101325
101325
101325
101325
101325
101325
101325
101325
101325
101325
101325
101325
101325
101325
101326
101325
101325
101325
101325
101325
101325
101325
101325
101325
101325
101325
101325
101325
101325
101325
101325
101325
101325
101325
101325
101325
101325
101325
101325
101325
101325
101325
101325
101325
101326
101326
101326
101326
101325
101325
101325
101325
101325
101325
101325
101326
101325
101326
101325
101325
101325
101325
101325
101325
101325
101325
101325
101325
101325
101325
101325
101325
101326
101325
101326
101325
101325
101325
101325
101325
101325
101325
101325
101325
101325
101325
101325
101325
101325
101325
101325
101325
101325
101325
101326
101325
101326
101325
101325
101325
101325
101325
101325
101325
101325
101325
101325
101325
101325
101325
101325
101325
101326
101325
101326
101325
101326
101325
101326
101326
101326
101326
101325
101326
101325
101326
101325
101325
101325
101325
101325
101325
101325
101325
101325
101325
101325
101325
101325
101325
101325
101325
101326
101325
101326
101325
101326
101325
101326
101325
101326
101325
101325
101325
101325
101325
101325
101325
101325
101325
101325
101325
101325
101325
101325
167362
167728
167796
166956
165034
165173
163040
163102
161083
161887
161387
161829
163150
162305
160276
159182
158224
157249
157110
154064
152308
150132
152366
158352
161499
160471
160349
158831
158612
155065
155686
151102
159849
172857
165560
162748
163508
162590
162163
162349
164895
166505
166226
162959
158152
149251
94644.8
111211
116742
118178
121976
127197
132129
134926
138104
139688
140696
140216
139800
138061
135595
135150
131862
129174
129437
126847
126409
126531
125798
125757
124922
125053
123061
123219
121079
120567
117934
116122
113353
114124
110692
112459
111564
111432
111023
110655
109757
109477
108910
108299
108405
107435
107598
106873
106537
106458
105736
105945
105066
105344
104631
104577
104281
104069
103847
103719
103431
103439
103060
103079
102597
102691
102358
102122
102227
101902
101962
101801
101806
101669
101689
101583
101595
101509
101526
101453
101476
101417
101438
101395
101408
101377
101386
101366
101360
101358
101345
101345
101335
101337
101330
101332
101329
101330
101326
101326
101326
101325
101325
101325
101325
101325
101324
101325
101324
101324
101324
101324
101324
101324
101324
101324
101324
101324
101324
101325
101325
101325
101325
101324
101324
101325
101324
101325
101325
101325
101325
101325
101325
101325
101325
101325
101325
101325
101325
101324
101324
101324
101324
101324
101324
101324
101324
101324
101324
101324
101324
101324
101324
101324
101325
101325
101325
101325
101325
101325
101325
101325
101325
101325
101325
101325
101325
101325
101325
101325
101325
101324
101324
101324
101324
101324
101324
101324
101324
101324
101324
101324
101324
101324
101325
101325
101325
101325
101325
101325
101324
101325
101325
101325
101325
101325
101324
101325
101325
101325
101325
101324
101324
101324
101324
101324
101324
101324
101324
101324
101324
101324
101324
101324
101324
101324
101325
101325
101325
101325
101325
101325
101325
101325
101325
101325
101325
101325
101325
101325
101325
101325
101325
101325
101324
101324
101324
101324
101324
101324
101324
101324
101324
101324
101324
101324
101324
101324
101325
101325
101325
101325
101325
101325
101325
101325
101325
101325
101325
101324
101324
101324
101324
101325
101325
101324
101324
101324
101324
101324
101324
101324
101324
101324
101324
101324
101324
101324
101325
101324
101325
101325
101325
101325
101325
101325
101324
101325
101325
101325
101325
101325
101325
101324
101325
101324
101325
101325
101325
101324
101325
101324
101325
101324
101324
101324
101324
101324
101324
101324
101324
101324
101324
101324
101324
101324
101324
101324
101324
101325
101325
101325
101325
101324
101324
101324
101324
101324
101324
101325
101325
101325
101325
101324
101325
101324
101324
101324
101324
101324
101324
101324
101324
101324
101324
101324
101324
101324
101324
101324
101324
101324
101325
101325
168099
167426
166242
164392
164780
163420
163123
163482
162098
161499
162438
162176
162730
163750
161950
163135
161067
161176
157609
159095
155903
157076
154331
157462
160685
161312
160939
161670
161388
164006
158914
161910
158170
170997
173159
163603
162510
162804
162251
162717
163542
165165
164922
163064
157430
148130
118394
124112
123692
125496
125988
128333
132566
135079
137489
139618
140519
140819
139822
138282
136967
134907
133001
129067
130384
127100
126464
126476
125473
125686
124787
124573
122865
123363
120324
121340
117822
118085
115225
113193
113819
112025
111958
111820
110854
111005
109618
110163
108562
108795
108134
107592
107572
106787
107014
106054
106222
105591
105328
105154
104634
104763
104089
104309
103681
103849
103319
103509
102982
103178
102551
102706
102262
102217
102143
101959
102004
101811
101834
101722
101657
101653
101554
101577
101487
101494
101474
101427
101438
101401
101413
101382
101389
101369
101368
101357
101353
101345
101343
101335
101337
101331
101333
101329
101330
101328
101328
101327
101327
101327
101326
101326
101326
101326
101326
101326
101326
101326
101326
101326
101326
101326
101326
101326
101326
101326
101326
101326
101326
101326
101326
101326
101326
101327
101327
101327
101327
101326
101326
101326
101326
101326
101326
101326
101326
101326
101326
101326
101326
101326
101326
101326
101326
101326
101326
101326
101326
101326
101326
101326
101326
101326
101326
101326
101326
101327
101327
101327
101327
101326
101326
101326
101326
101326
101326
101326
101326
101326
101326
101326
101326
101326
101326
101326
101326
101326
101326
101326
101326
101326
101326
101326
101326
101326
101326
101326
101326
101327
101327
101327
101327
101326
101326
101326
101326
101326
101326
101326
101326
101326
101326
101326
101326
101326
101326
101326
101326
101326
101326
101326
101326
101326
101326
101326
101326
101326
101326
101326
101326
101327
101327
101327
101327
101326
101326
101326
101326
101326
101326
101326
101326
101326
101326
101326
101326
101326
101326
101326
101326
101326
101326
101326
101326
101326
101326
101326
101326
101326
101326
101326
101326
101327
101327
101327
101327
101326
101326
101326
101326
101326
101326
101326
101326
101326
101326
101326
101326
101326
101326
101326
101326
101326
101326
101326
101326
101326
101326
101326
101326
101326
101326
101326
101326
101327
101327
101327
101327
101326
101326
101326
101326
101326
101326
101326
101326
101326
101326
101326
101326
101326
101326
101326
101326
101326
101326
101326
101326
101326
101326
101326
101326
101326
101326
101326
101326
101326
101326
101326
101326
101326
101326
101326
101326
101326
101326
101326
101326
101326
101326
101326
101326
101326
101326
101326
101326
101326
101326
101326
101326
101326
101326
101326
101326
101326
101326
101326
101326
101326
101326
101326
167493
166018
164609
163288
161757
161156
162422
162484
163003
162843
163179
162968
163253
162915
164944
161992
165753
165471
162544
157903
159575
158797
161254
156510
159638
160476
160117
160641
162797
162939
169932
170267
155148
199691
174965
165055
164668
162004
162152
162081
163295
163231
163097
160824
158639
148086
132644
134810
130987
127971
129952
130513
133093
134720
137540
139213
140612
140605
140633
138471
137119
136620
131670
132562
129057
126977
127880
125613
125970
124869
124897
123728
123532
122046
121001
120531
117635
118709
114323
114818
113541
112245
112871
111433
111779
110669
110223
109869
108932
109078
107934
108307
107139
107253
106725
106267
106244
105504
105726
104861
105019
104453
104306
104130
103716
103855
103276
103499
102947
103155
102570
102740
102265
102417
102079
102128
101991
101846
101878
101711
101751
101599
101605
101576
101501
101490
101478
101434
101447
101404
101414
101390
101387
101374
101371
101359
101358
101345
101348
101335
101338
101332
101330
101330
101328
101328
101326
101327
101326
101326
101325
101325
101325
101325
101325
101325
101325
101325
101325
101325
101325
101325
101325
101325
101325
101325
101325
101325
101325
101325
101325
101325
101325
101326
101325
101325
101326
101325
101325
101325
101325
101325
101325
101325
101325
101325
101325
101325
101325
101325
101325
101325
101325
101325
101325
101325
101325
101325
101325
101325
101325
101325
101325
101325
101325
101326
101325
101325
101325
101325
101325
101325
101325
101325
101325
101325
101325
101325
101325
101325
101325
101325
101325
101325
101325
101325
101325
101325
101325
101325
101325
101325
101325
101325
101325
101325
101325
101326
101325
101325
101325
101325
101325
101325
101325
101325
101325
101325
101325
101325
101325
101325
101325
101325
101325
101325
101325
101325
101325
101325
101325
101325
101325
101325
101325
101325
101325
101325
101325
101326
101325
101325
101326
101325
101325
101325
101325
101325
101325
101325
101325
101325
101325
101325
101325
101325
101325
101325
101325
101325
101325
101325
101325
101325
101325
101325
101325
101325
101325
101325
101325
101326
101325
101325
101325
101325
101325
101325
101325
101325
101325
101325
101325
101325
101325
101325
101325
101325
101325
101325
101325
101325
101325
101325
101325
101325
101325
101325
101325
101325
101325
101325
101325
101325
101325
101325
101326
101325
101325
101325
101325
101325
101325
101325
101325
101325
101325
101325
101325
101325
101325
101325
101325
101325
101325
101325
101325
101325
101325
101325
101325
101325
101325
101325
101325
101325
101325
101325
101325
101325