/*--------------------------------*- C++ -*----------------------------------*\
| =========                 |                                                 |
| \\      /  F ield         | OpenFOAM: The Open Source CFD Toolbox           |
|  \\    /   O peration     | Version:  2.1.1                                 |
|   \\  /    A nd           | Web:      www.OpenFOAM.org                      |
|    \\/     M anipulation  |                                                 |
\*---------------------------------------------------------------------------*/
FoamFile
{
    version     2.0;
    format      ascii;
    class       volScalarField;
    location    "0.001400000";
    object      rhoEu;
}
// * * * * * * * * * * * * * * * * * * * * * * * * * * * * * * * * * * * * * //

dimensions      [1 -1 -2 0 0 0 0];

internalField   nonuniform List<scalar> 
12384
(
-115756
-110313
-97203.3
-92949
-92302.4
-96569.5
-97000.5
-97811.3
-99319.7
-98661.5
-99359.3
-99011.6
-99096.3
-98785.7
-95540.4
-94146.3
-95211
-95773.2
-97783.3
-98417.5
-99188.3
-99724.6
-99947.9
-98897.8
-97662.1
-96046.8
-95078.5
-95052.9
-95553.1
-96350.1
-96972.3
-97205
-97970
-99267.4
-99087.6
-100900
-97445.3
-98451.4
-95680.2
-93204.1
-92644.6
-93552.8
-94283.9
-95285.8
-105439
-105467
-105369
-105339
-105274
-105305
-105313
-105242
-105288
-105303
-105180
-105243
-105112
-105072
-104927
-104862
-104856
-104957
-105214
-105480
-105716
-106093
-106169
-106403
-106531
-106604
-106690
-106760
-106786
-106812
-107609
-107605
-107600
-107593
-107583
-107575
-107571
-107563
-107560
-107559
-107557
-107560
-107561
-107562
-107567
-107569
-107565
-107574
-107563
-107574
-107565
-107571
-107571
-107565
-107572
-107569
-107568
-107571
-107569
-107572
-107502
-107499
-107501
-107499
-107498
-107498
-107497
-107496
-107495
-107494
-107493
-107492
-107494
-107492
-107492
-107491
-107492
-107490
-107489
-107487
-107489
-107487
-107489
-107488
-107488
-107487
-107488
-107488
-107487
-107488
-107488
-107487
-107488
-107487
-107486
-107488
-107488
-107487
-107487
-107488
-107487
-107487
-107488
-107487
-107487
-107488
-107488
-107488
-107486
-107487
-107488
-107487
-107487
-107488
-107487
-107487
-107487
-107487
-107488
-107488
-107488
-107487
-107488
-107488
-107487
-107488
-107487
-107488
-107487
-107487
-107486
-107487
-107488
-107488
-107488
-107488
-107488
-107488
-107486
-107487
-107488
-107487
-107487
-107488
-107487
-107487
-107487
-107488
-107487
-107488
-107488
-107487
-107487
-107488
-107486
-107488
-107488
-107488
-107487
-107487
-107486
-107487
-107488
-107488
-107488
-107488
-107488
-107488
-107486
-107487
-107488
-107487
-107487
-107488
-107488
-107487
-107487
-107487
-107488
-107488
-107487
-107488
-107487
-107487
-107486
-107488
-107488
-107488
-107487
-107487
-107486
-107487
-107488
-107488
-107488
-107488
-107488
-107488
-107486
-107487
-107488
-107487
-107487
-107488
-107488
-107486
-107487
-107487
-107488
-107488
-107487
-107487
-107488
-107487
-107486
-107487
-107488
-107487
-107487
-107488
-107487
-107486
-107488
-107488
-107488
-107487
-107488
-107488
-107487
-107487
-107488
-107488
-107487
-107488
-107488
-107486
-107487
-107488
-107487
-107488
-107488
-107488
-107487
-107488
-107486
-107488
-107488
-107488
-107487
-107487
-107486
-107487
-107488
-107488
-107488
-107488
-107488
-107488
-107486
-107487
-107488
-107487
-107487
-107488
-107488
-107486
-107487
-107487
-107488
-107488
-107488
-107487
-107487
-107488
-107486
-107488
-107488
-107487
-107488
-107487
-107486
-107487
-107487
-107488
-107488
-107487
-107488
-107488
-107487
-107486
-107487
-107488
-107487
-107487
-107488
-107486
-107488
-107487
-107487
-107488
-107488
-107488
-107487
-107487
-107486
-107488
-107487
-107488
-107488
-107488
-107487
-107487
-107488
-107488
-107486
-107487
-107486
-107487
-107488
-107488
-107488
-107488
-107487
-107488
-107487
-107486
-107487
-107487
-107487
-107487
-126273
-141540
-108613
-93341.7
-96270.7
-94538.7
-97592.6
-98971.6
-98835.4
-99635.6
-99488.7
-99323.1
-99191.8
-99263.9
-94688.1
-97339.3
-97682.3
-99221.5
-99428.7
-100203
-100350
-99982.3
-99487.3
-99347.1
-98559.9
-97813.7
-97098.5
-96328.2
-96503.8
-97155.8
-96901
-98104.2
-98305.9
-98886.4
-98930.8
-100282
-97344.5
-98748.5
-95557.3
-93370.3
-92973.5
-93064.3
-94015.4
-95283
-105615
-105423
-105311
-105239
-105075
-105042
-104934
-104905
-104916
-105074
-105178
-105077
-105144
-105035
-104995
-104938
-104956
-105084
-105166
-105512
-105696
-105966
-106226
-106314
-106495
-106605
-106665
-106759
-106788
-106832
-107609
-107603
-107596
-107588
-107580
-107574
-107564
-107562
-107554
-107557
-107556
-107557
-107565
-107557
-107572
-107561
-107572
-107567
-107571
-107569
-107569
-107570
-107568
-107569
-107567
-107570
-107569
-107567
-107571
-107567
-107500
-107500
-107503
-107498
-107500
-107499
-107496
-107499
-107494
-107497
-107492
-107496
-107491
-107494
-107492
-107490
-107493
-107488
-107493
-107486
-107492
-107486
-107491
-107486
-107489
-107488
-107485
-107490
-107486
-107487
-107487
-107486
-107490
-107485
-107490
-107484
-107490
-107485
-107490
-107485
-107490
-107486
-107489
-107489
-107486
-107490
-107485
-107490
-107485
-107490
-107485
-107490
-107484
-107490
-107484
-107489
-107486
-107485
-107488
-107486
-107487
-107486
-107490
-107485
-107488
-107489
-107485
-107490
-107485
-107490
-107485
-107491
-107485
-107490
-107486
-107490
-107486
-107490
-107485
-107490
-107485
-107490
-107485
-107490
-107485
-107489
-107485
-107490
-107486
-107487
-107487
-107487
-107487
-107489
-107485
-107490
-107485
-107490
-107484
-107490
-107485
-107490
-107485
-107490
-107486
-107490
-107485
-107490
-107485
-107490
-107485
-107490
-107484
-107490
-107484
-107489
-107486
-107485
-107487
-107486
-107486
-107488
-107485
-107490
-107484
-107490
-107484
-107490
-107485
-107490
-107485
-107490
-107485
-107490
-107486
-107490
-107485
-107490
-107485
-107490
-107485
-107490
-107484
-107490
-107484
-107489
-107486
-107485
-107487
-107486
-107487
-107487
-107488
-107485
-107489
-107485
-107490
-107485
-107490
-107484
-107490
-107485
-107490
-107485
-107489
-107485
-107490
-107485
-107489
-107486
-107486
-107489
-107485
-107490
-107485
-107489
-107485
-107490
-107486
-107487
-107486
-107488
-107484
-107490
-107484
-107489
-107484
-107490
-107485
-107490
-107485
-107490
-107485
-107490
-107486
-107490
-107485
-107490
-107485
-107490
-107485
-107490
-107484
-107490
-107484
-107489
-107486
-107485
-107487
-107486
-107487
-107486
-107489
-107487
-107485
-107489
-107485
-107490
-107485
-107490
-107485
-107490
-107485
-107489
-107486
-107486
-107489
-107485
-107491
-107485
-107490
-107485
-107490
-107485
-107489
-107485
-107488
-107489
-107486
-107487
-107486
-107487
-107484
-107490
-107484
-107490
-107484
-107490
-107484
-107491
-107484
-107491
-107485
-107490
-107484
-107490
-107485
-107490
-107484
-107490
-107485
-107490
-107484
-107490
-107484
-107489
-107487
-107485
-107487
-107486
-78804.5
-96845.8
-74606.8
-77133.5
-85805.5
-93880.5
-97217.2
-98897.6
-99538.5
-99577.4
-99705.5
-99497.3
-99253.3
-99534.4
-97668.4
-98856.6
-101320
-100246
-99959.3
-100489
-101264
-100296
-99297.8
-98595.9
-97932.1
-98294.5
-97852.5
-97401.5
-97385.2
-97009.3
-97746.1
-98470.7
-98510.2
-98804.7
-98399.3
-99278.5
-97434.8
-98841.3
-95622.5
-94490.6
-93407.4
-93402.6
-93953.1
-95069.5
-105552
-105526
-105260
-104985
-104774
-104463
-104360
-104374
-104464
-104612
-104770
-105018
-104972
-105122
-105112
-105173
-105273
-105278
-105447
-105627
-105909
-106014
-106347
-106393
-106561
-106670
-106719
-106793
-106829
-106848
-107598
-107590
-107591
-107588
-107583
-107580
-107580
-107580
-107579
-107582
-107586
-107586
-107593
-107590
-107598
-107593
-107601
-107593
-107602
-107595
-107597
-107596
-107592
-107596
-107592
-107593
-107592
-107592
-107594
-107593
-107527
-107525
-107526
-107524
-107523
-107522
-107522
-107519
-107519
-107517
-107519
-107516
-107518
-107515
-107515
-107514
-107513
-107514
-107513
-107513
-107511
-107511
-107510
-107512
-107511
-107510
-107512
-107511
-107512
-107512
-107511
-107512
-107510
-107511
-107510
-107512
-107510
-107511
-107509
-107512
-107510
-107512
-107510
-107510
-107510
-107509
-107511
-107510
-107512
-107510
-107512
-107509
-107511
-107510
-107512
-107510
-107511
-107512
-107511
-107512
-107511
-107512
-107510
-107512
-107510
-107511
-107511
-107510
-107510
-107510
-107512
-107511
-107512
-107510
-107511
-107510
-107511
-107510
-107511
-107509
-107511
-107509
-107511
-107510
-107512
-107509
-107511
-107510
-107511
-107511
-107511
-107511
-107511
-107511
-107511
-107511
-107511
-107510
-107511
-107510
-107512
-107511
-107512
-107510
-107511
-107510
-107511
-107510
-107512
-107510
-107512
-107509
-107511
-107510
-107512
-107510
-107511
-107511
-107511
-107512
-107511
-107510
-107511
-107510
-107511
-107511
-107511
-107510
-107511
-107510
-107512
-107510
-107511
-107510
-107511
-107510
-107511
-107510
-107512
-107510
-107512
-107509
-107511
-107510
-107512
-107510
-107511
-107512
-107511
-107512
-107511
-107511
-107510
-107511
-107510
-107512
-107510
-107511
-107509
-107512
-107510
-107512
-107510
-107511
-107509
-107511
-107510
-107511
-107510
-107511
-107512
-107509
-107511
-107510
-107512
-107510
-107511
-107510
-107511
-107511
-107512
-107510
-107512
-107510
-107511
-107510
-107511
-107510
-107511
-107511
-107512
-107510
-107512
-107510
-107511
-107510
-107511
-107510
-107512
-107510
-107512
-107509
-107511
-107510
-107512
-107510
-107511
-107512
-107511
-107512
-107511
-107512
-107511
-107511
-107511
-107511
-107511
-107510
-107511
-107510
-107512
-107510
-107512
-107510
-107511
-107511
-107510
-107512
-107510
-107512
-107511
-107511
-107510
-107511
-107511
-107511
-107510
-107511
-107512
-107511
-107511
-107511
-107512
-107510
-107511
-107510
-107511
-107510
-107511
-107510
-107511
-107510
-107511
-107510
-107511
-107509
-107511
-107509
-107511
-107510
-107512
-107510
-107510
-107510
-107512
-107509
-107510
-107512
-107510
-107511
-9187.79
-18755.5
-21107.1
-37281.6
-78497.8
-108170
-98882.5
-105633
-105228
-100333
-99691.6
-99769.9
-99439.3
-98885.2
-98241.9
-100840
-99944
-106291
-124229
-126395
-132298
-131555
-128744
-122254
-116435
-104014
-97207
-97432.7
-97202.6
-97635.2
-97639.3
-97873.4
-98407
-98280.6
-98032.1
-97870.9
-96931.7
-98427.7
-96277.3
-95368.8
-93852.9
-93504.1
-93364.9
-94268.7
-105924
-105626
-105199
-104786
-104240
-103929
-103609
-103458
-103494
-103791
-104115
-104451
-104801
-104826
-105098
-105182
-105260
-105389
-105506
-105566
-105837
-105939
-106229
-106375
-106519
-106609
-106732
-106767
-106821
-106863
-107558
-107535
-107543
-107541
-107545
-107551
-107552
-107562
-107560
-107570
-107573
-107577
-107583
-107584
-107592
-107587
-107597
-107592
-107593
-107596
-107590
-107596
-107587
-107597
-107586
-107594
-107588
-107587
-107590
-107589
-107523
-107524
-107525
-107523
-107522
-107524
-107518
-107521
-107515
-107519
-107514
-107517
-107512
-107515
-107512
-107512
-107513
-107510
-107512
-107509
-107511
-107508
-107512
-107508
-107512
-107510
-107508
-107511
-107508
-107509
-107509
-107508
-107511
-107507
-107511
-107508
-107511
-107507
-107510
-107507
-107510
-107507
-107510
-107510
-107506
-107510
-107506
-107510
-107507
-107511
-107506
-107510
-107507
-107511
-107508
-107510
-107507
-107507
-107509
-107509
-107509
-107508
-107510
-107507
-107508
-107511
-107507
-107511
-107507
-107510
-107507
-107511
-107507
-107510
-107506
-107510
-107507
-107511
-107507
-107510
-107507
-107510
-107507
-107511
-107508
-107511
-107507
-107511
-107508
-107510
-107509
-107508
-107507
-107511
-107507
-107511
-107507
-107511
-107507
-107511
-107507
-107511
-107506
-107510
-107506
-107510
-107506
-107510
-107507
-107510
-107506
-107510
-107507
-107511
-107508
-107510
-107507
-107507
-107509
-107509
-107509
-107509
-107506
-107510
-107507
-107511
-107507
-107511
-107506
-107511
-107507
-107510
-107506
-107510
-107507
-107510
-107506
-107510
-107507
-107510
-107506
-107510
-107507
-107511
-107508
-107510
-107507
-107507
-107509
-107509
-107509
-107509
-107510
-107507
-107511
-107507
-107511
-107507
-107510
-107506
-107511
-107507
-107510
-107506
-107510
-107506
-107510
-107507
-107509
-107507
-107507
-107510
-107507
-107511
-107508
-107511
-107507
-107511
-107508
-107509
-107509
-107509
-107506
-107511
-107507
-107511
-107507
-107511
-107506
-107511
-107507
-107510
-107506
-107510
-107506
-107510
-107506
-107510
-107507
-107510
-107506
-107510
-107507
-107511
-107508
-107510
-107508
-107507
-107509
-107509
-107509
-107508
-107510
-107510
-107507
-107512
-107507
-107511
-107506
-107510
-107506
-107510
-107506
-107510
-107507
-107507
-107510
-107506
-107511
-107506
-107511
-107507
-107511
-107508
-107512
-107507
-107510
-107510
-107508
-107510
-107509
-107509
-107506
-107511
-107507
-107512
-107507
-107511
-107506
-107510
-107506
-107511
-107507
-107511
-107507
-107511
-107507
-107511
-107507
-107511
-107506
-107510
-107507
-107511
-107507
-107510
-107507
-107507
-107509
-107509
47650.2
44092.2
51362.9
27946.4
-6496.82
-43638.3
-76168.5
-109952
-128722
-119015
-105173
-100108
-99529.3
-99171.1
-100410
-100445
-109116
-131437
-146567
-150099
-154131
-153010
-152582
-148139
-148067
-135556
-119228
-102553
-95379
-96543.8
-97479.9
-97451.5
-97612.4
-97722.1
-97215.9
-97297.8
-96230.3
-97485.8
-95973.6
-96363.2
-94490.6
-93683.1
-93006.5
-92517.4
-105973
-105984
-105339
-104543
-103799
-103159
-102759
-102558
-102606
-102794
-103248
-103748
-104249
-104704
-104811
-105182
-105221
-105367
-105426
-105537
-105700
-105827
-106125
-106207
-106482
-106508
-106673
-106760
-106856
-106851
-107519
-107449
-107472
-107490
-107494
-107506
-107517
-107527
-107539
-107542
-107556
-107560
-107569
-107575
-107578
-107585
-107584
-107590
-107587
-107593
-107584
-107594
-107583
-107592
-107582
-107586
-107585
-107585
-107583
-107585
-107525
-107524
-107523
-107521
-107521
-107518
-107519
-107516
-107516
-107513
-107514
-107511
-107512
-107510
-107511
-107510
-107509
-107509
-107508
-107508
-107506
-107507
-107506
-107507
-107506
-107506
-107506
-107505
-107506
-107505
-107506
-107506
-107504
-107506
-107504
-107506
-107505
-107507
-107504
-107506
-107504
-107506
-107505
-107505
-107506
-107505
-107506
-107505
-107507
-107504
-107506
-107504
-107507
-107505
-107506
-107505
-107506
-107506
-107505
-107505
-107505
-107506
-107505
-107506
-107505
-107505
-107506
-107505
-107506
-107504
-107506
-107505
-107506
-107505
-107506
-107505
-107507
-107505
-107507
-107505
-107506
-107504
-107507
-107505
-107506
-107505
-107506
-107505
-107506
-107505
-107505
-107506
-107506
-107505
-107506
-107505
-107507
-107505
-107506
-107504
-107506
-107505
-107506
-107505
-107506
-107505
-107507
-107505
-107507
-107504
-107506
-107504
-107507
-107505
-107506
-107505
-107506
-107506
-107506
-107505
-107506
-107505
-107506
-107504
-107506
-107504
-107507
-107505
-107506
-107504
-107506
-107505
-107506
-107505
-107507
-107505
-107507
-107505
-107507
-107504
-107506
-107504
-107507
-107505
-107506
-107505
-107506
-107506
-107506
-107505
-107506
-107506
-107505
-107506
-107505
-107507
-107505
-107508
-107504
-107506
-107504
-107507
-107505
-107507
-107505
-107507
-107505
-107507
-107505
-107506
-107505
-107505
-107507
-107505
-107506
-107504
-107506
-107504
-107506
-107505
-107505
-107505
-107506
-107505
-107507
-107504
-107507
-107506
-107507
-107504
-107506
-107505
-107506
-107505
-107507
-107505
-107507
-107505
-107507
-107504
-107506
-107504
-107507
-107505
-107506
-107505
-107505
-107506
-107506
-107505
-107505
-107506
-107505
-107505
-107506
-107504
-107507
-107505
-107506
-107504
-107506
-107505
-107506
-107505
-107506
-107506
-107505
-107506
-107505
-107506
-107504
-107506
-107505
-107506
-107504
-107506
-107505
-107505
-107506
-107505
-107506
-107505
-107507
-107505
-107506
-107504
-107507
-107506
-107508
-107505
-107507
-107505
-107507
-107505
-107507
-107505
-107507
-107505
-107507
-107505
-107506
-107504
-107507
-107506
-107507
-107505
-107506
-107506
-107506
-107506
56422.4
61493.1
60303.8
58551.4
38419.8
6522.36
-33297.6
-84219.5
-116271
-130686
-143108
-119857
-100334
-98626.9
-101357
-104100
-128446
-134980
-139290
-141163
-143780
-145303
-145273
-144834
-143924
-145005
-145821
-130153
-104223
-94658.5
-96125.2
-97023.2
-96612.3
-96704.4
-96849.7
-96873.3
-95918.4
-96443.1
-95670
-95710.7
-94767.2
-93113
-92342.5
-92324
-106072
-105851
-105050
-103945
-102950
-102222
-101710
-101473
-101500
-101791
-102271
-102883
-103661
-104123
-104774
-104851
-105217
-105246
-105392
-105444
-105578
-105745
-105925
-106132
-106326
-106495
-106553
-106738
-106748
-106769
-107500
-107351
-107376
-107403
-107430
-107450
-107473
-107491
-107506
-107525
-107531
-107550
-107551
-107565
-107567
-107578
-107578
-107581
-107587
-107582
-107586
-107585
-107580
-107587
-107578
-107583
-107582
-107578
-107580
-107578
-107522
-107522
-107521
-107521
-107518
-107518
-107516
-107515
-107513
-107513
-107510
-107511
-107508
-107509
-107507
-107507
-107506
-107506
-107506
-107505
-107505
-107504
-107504
-107504
-107504
-107503
-107503
-107504
-107503
-107504
-107503
-107503
-107503
-107503
-107504
-107503
-107504
-107502
-107504
-107502
-107503
-107502
-107503
-107503
-107503
-107503
-107502
-107503
-107502
-107503
-107502
-107503
-107502
-107504
-107503
-107503
-107503
-107503
-107503
-107503
-107503
-107503
-107503
-107503
-107503
-107503
-107503
-107503
-107502
-107503
-107502
-107503
-107502
-107503
-107502
-107503
-107502
-107503
-107502
-107503
-107502
-107504
-107502
-107504
-107502
-107504
-107503
-107503
-107503
-107503
-107503
-107503
-107503
-107503
-107503
-107503
-107503
-107503
-107502
-107503
-107502
-107503
-107502
-107503
-107502
-107503
-107502
-107503
-107502
-107503
-107502
-107503
-107502
-107504
-107503
-107504
-107503
-107503
-107503
-107503
-107503
-107503
-107502
-107504
-107503
-107504
-107502
-107503
-107503
-107503
-107502
-107503
-107502
-107503
-107502
-107503
-107502
-107503
-107502
-107503
-107502
-107504
-107502
-107504
-107503
-107504
-107503
-107503
-107503
-107503
-107503
-107503
-107503
-107502
-107504
-107502
-107504
-107502
-107504
-107502
-107503
-107502
-107503
-107502
-107503
-107502
-107503
-107502
-107503
-107503
-107502
-107504
-107502
-107504
-107503
-107503
-107503
-107503
-107503
-107503
-107503
-107503
-107502
-107504
-107502
-107504
-107502
-107503
-107502
-107503
-107502
-107503
-107502
-107503
-107502
-107503
-107502
-107503
-107502
-107503
-107502
-107503
-107502
-107504
-107503
-107503
-107503
-107503
-107503
-107503
-107503
-107503
-107503
-107503
-107503
-107504
-107503
-107503
-107502
-107503
-107502
-107503
-107502
-107503
-107503
-107503
-107503
-107502
-107503
-107502
-107503
-107502
-107503
-107503
-107503
-107503
-107503
-107503
-107503
-107503
-107503
-107503
-107502
-107503
-107502
-107503
-107502
-107503
-107503
-107503
-107502
-107504
-107502
-107503
-107503
-107504
-107503
-107503
-107502
-107503
-107502
-107503
-107503
-107504
-107503
-107503
-107502
-107502
-107504
-107503
57503.3
58306.4
57128.1
48108.6
33845.8
20325.8
-19993.1
-74777.7
-110351
-122239
-131028
-141468
-106873
-98562
-101514
-113747
-139056
-139393
-138476
-138304
-140685
-143332
-141897
-140740
-140168
-141178
-145709
-148240
-130568
-100861
-93826.2
-95784.4
-96244.8
-95764.6
-95991.1
-96523
-95664.3
-95739.4
-94815.6
-94536.1
-93821.6
-93373.4
-92301.2
-88649.8
-105763
-105194
-103454
-101829
-100951
-100362
-100254
-100280
-100436
-100774
-101362
-101956
-102936
-103515
-104406
-104607
-104991
-105182
-105241
-105359
-105459
-105614
-105730
-106022
-106071
-106401
-106414
-106634
-106694
-106665
-107333
-107135
-107196
-107278
-107331
-107384
-107412
-107448
-107470
-107488
-107512
-107516
-107540
-107543
-107555
-107566
-107563
-107575
-107575
-107572
-107580
-107573
-107576
-107575
-107576
-107569
-107575
-107567
-107573
-107569
-107521
-107519
-107519
-107516
-107516
-107513
-107512
-107509
-107509
-107506
-107507
-107504
-107504
-107502
-107502
-107501
-107501
-107500
-107500
-107500
-107499
-107498
-107498
-107498
-107498
-107497
-107496
-107496
-107497
-107497
-107497
-107497
-107496
-107497
-107496
-107497
-107497
-107497
-107496
-107497
-107497
-107497
-107497
-107497
-107497
-107497
-107497
-107497
-107497
-107497
-107497
-107496
-107497
-107497
-107497
-107496
-107496
-107497
-107496
-107497
-107497
-107497
-107496
-107496
-107497
-107497
-107497
-107497
-107496
-107497
-107497
-107497
-107497
-107497
-107497
-107497
-107497
-107497
-107498
-107497
-107497
-107496
-107497
-107497
-107497
-107496
-107497
-107496
-107497
-107497
-107497
-107497
-107497
-107496
-107497
-107497
-107497
-107497
-107496
-107497
-107497
-107497
-107497
-107497
-107497
-107497
-107497
-107497
-107497
-107497
-107497
-107496
-107498
-107497
-107497
-107496
-107496
-107497
-107496
-107497
-107498
-107497
-107497
-107496
-107497
-107497
-107498
-107497
-107497
-107497
-107498
-107497
-107497
-107497
-107497
-107497
-107497
-107497
-107497
-107497
-107497
-107496
-107498
-107497
-107497
-107496
-107496
-107497
-107496
-107497
-107497
-107497
-107497
-107497
-107496
-107498
-107497
-107498
-107496
-107497
-107497
-107497
-107497
-107497
-107497
-107497
-107497
-107497
-107497
-107497
-107497
-107496
-107497
-107497
-107498
-107497
-107497
-107497
-107497
-107497
-107497
-107497
-107497
-107496
-107498
-107496
-107498
-107497
-107497
-107497
-107498
-107497
-107497
-107497
-107497
-107497
-107498
-107497
-107497
-107497
-107497
-107496
-107497
-107497
-107497
-107496
-107496
-107497
-107496
-107497
-107497
-107497
-107496
-107496
-107497
-107497
-107497
-107497
-107496
-107497
-107497
-107497
-107497
-107497
-107497
-107497
-107496
-107497
-107496
-107497
-107496
-107496
-107497
-107497
-107497
-107497
-107496
-107496
-107496
-107497
-107497
-107497
-107497
-107496
-107498
-107496
-107497
-107496
-107497
-107496
-107497
-107496
-107497
-107496
-107497
-107496
-107497
-107497
-107497
-107496
-107498
-107496
-107498
-107497
-107498
-107497
-107498
-107497
-107498
-107497
57289.9
52096.2
39529.6
28709.8
22063.5
5009.12
-48211
-100459
-120224
-125905
-132572
-138897
-107623
-98226.8
-101242
-129964
-136730
-134795
-132685
-130991
-131179
-133593
-136688
-138192
-138842
-140196
-142210
-145087
-149049
-126458
-95876.7
-93104.5
-95564.4
-95320.3
-94974.1
-95422.2
-95457.6
-95062.7
-93988
-93240.7
-92712.6
-91941.3
-90582
-86669.8
-102423
-100622
-98863.1
-97680.4
-97245.3
-97442.4
-98199.5
-98828
-99498.8
-99968.9
-100496
-101303
-102121
-102965
-103785
-104268
-104763
-104888
-105133
-105215
-105326
-105468
-105606
-105873
-105991
-106296
-106352
-106546
-106443
-106458
-106703
-106584
-106843
-107041
-107177
-107278
-107343
-107394
-107428
-107455
-107482
-107498
-107516
-107529
-107537
-107552
-107553
-107565
-107562
-107570
-107568
-107569
-107572
-107565
-107571
-107563
-107569
-107562
-107566
-107560
-107513
-107513
-107513
-107514
-107512
-107511
-107508
-107507
-107505
-107503
-107501
-107500
-107500
-107499
-107498
-107498
-107497
-107496
-107495
-107495
-107494
-107494
-107494
-107493
-107493
-107494
-107492
-107492
-107492
-107492
-107492
-107492
-107492
-107492
-107493
-107493
-107492
-107493
-107493
-107492
-107492
-107492
-107493
-107493
-107493
-107493
-107493
-107493
-107492
-107492
-107492
-107493
-107493
-107492
-107493
-107493
-107492
-107492
-107492
-107492
-107492
-107492
-107492
-107492
-107493
-107493
-107492
-107493
-107493
-107492
-107492
-107492
-107493
-107493
-107493
-107493
-107493
-107493
-107492
-107492
-107492
-107493
-107493
-107492
-107493
-107493
-107492
-107492
-107492
-107492
-107492
-107492
-107492
-107492
-107493
-107493
-107492
-107493
-107493
-107492
-107492
-107492
-107493
-107493
-107493
-107493
-107493
-107493
-107492
-107492
-107492
-107493
-107493
-107492
-107493
-107493
-107492
-107492
-107492
-107492
-107492
-107492
-107492
-107492
-107493
-107493
-107492
-107493
-107493
-107492
-107492
-107492
-107493
-107493
-107493
-107493
-107493
-107493
-107492
-107492
-107492
-107493
-107493
-107492
-107493
-107493
-107492
-107492
-107492
-107492
-107492
-107492
-107492
-107492
-107493
-107493
-107492
-107493
-107493
-107492
-107492
-107492
-107493
-107493
-107493
-107493
-107493
-107493
-107492
-107492
-107492
-107493
-107493
-107492
-107493
-107493
-107492
-107492
-107492
-107492
-107492
-107492
-107492
-107492
-107493
-107493
-107492
-107493
-107493
-107492
-107492
-107492
-107493
-107493
-107493
-107493
-107493
-107493
-107492
-107492
-107492
-107493
-107493
-107492
-107493
-107493
-107492
-107492
-107492
-107492
-107492
-107492
-107492
-107492
-107492
-107493
-107492
-107493
-107493
-107492
-107492
-107492
-107493
-107493
-107493
-107493
-107493
-107493
-107492
-107492
-107492
-107493
-107493
-107492
-107493
-107493
-107492
-107492
-107492
-107492
-107492
-107492
-107492
-107492
-107492
-107492
-107492
-107493
-107492
-107492
-107493
-107493
-107493
-107493
-107493
-107493
-107493
-107493
-107492
-107492
-107493
-107493
-107492
-107492
-107492
-107492
-107492
-107493
-107493
-107492
40207.7
34643.5
24498.7
19279.8
14791.3
-4958.64
-47840.3
-86193.9
-102749
-107992
-116474
-126660
-127115
-109230
-118851
-117406
-106993
-142143
-136357
-130247
-126245
-125103
-125247
-125867
-129148
-134824
-137622
-138805
-139623
-141896
-144549
-148330
-125865
-93740.8
-92934.5
-95152.4
-94511.3
-94462.7
-94581.7
-94373.9
-93104.1
-91805.5
-90948.3
-89852.3
-87581.8
-73368.5
-82926
-90735.2
-93296.6
-92347.2
-91850.9
-92475.3
-93116.6
-94550.6
-96093.7
-97509.2
-98454.5
-99224.1
-99783.8
-100603
-101465
-102289
-103123
-103957
-104242
-104729
-104933
-105038
-105172
-105276
-105423
-105562
-105817
-105903
-106066
-105953
-105628
-104327
-105164
-105823
-105736
-106026
-106374
-106693
-106974
-107118
-107239
-107322
-107366
-107418
-107439
-107467
-107489
-107502
-107520
-107531
-107539
-107549
-107548
-107560
-107554
-107559
-107558
-107557
-107555
-107554
-107549
-107549
-107539
-107533
-107520
-107527
-107504
-107510
-107513
-107507
-107507
-107504
-107503
-107499
-107499
-107496
-107496
-107493
-107493
-107491
-107491
-107489
-107490
-107488
-107489
-107487
-107488
-107487
-107486
-107486
-107485
-107485
-107485
-107485
-107485
-107484
-107484
-107484
-107484
-107484
-107484
-107484
-107484
-107485
-107485
-107485
-107485
-107485
-107485
-107485
-107485
-107485
-107485
-107485
-107485
-107485
-107485
-107485
-107485
-107485
-107485
-107484
-107484
-107484
-107484
-107484
-107485
-107484
-107484
-107484
-107484
-107484
-107484
-107484
-107484
-107484
-107484
-107485
-107485
-107485
-107485
-107485
-107485
-107485
-107485
-107485
-107485
-107485
-107485
-107485
-107485
-107485
-107485
-107485
-107485
-107484
-107484
-107484
-107485
-107484
-107484
-107484
-107484
-107484
-107484
-107484
-107484
-107484
-107484
-107485
-107485
-107485
-107485
-107485
-107485
-107485
-107485
-107485
-107485
-107485
-107485
-107485
-107485
-107485
-107485
-107484
-107484
-107484
-107485
-107484
-107485
-107484
-107484
-107484
-107484
-107485
-107484
-107484
-107484
-107484
-107485
-107485
-107485
-107485
-107485
-107485
-107485
-107485
-107485
-107485
-107485
-107485
-107485
-107485
-107485
-107485
-107485
-107484
-107484
-107484
-107485
-107484
-107485
-107484
-107484
-107484
-107484
-107485
-107484
-107484
-107484
-107484
-107484
-107485
-107485
-107485
-107485
-107485
-107485
-107485
-107485
-107485
-107485
-107485
-107485
-107485
-107485
-107485
-107485
-107485
-107484
-107484
-107484
-107484
-107485
-107484
-107484
-107484
-107484
-107485
-107484
-107484
-107484
-107484
-107485
-107485
-107485
-107485
-107485
-107485
-107485
-107485
-107485
-107485
-107485
-107485
-107485
-107485
-107485
-107485
-107485
-107484
-107484
-107484
-107484
-107484
-107485
-107484
-107484
-107484
-107484
-107484
-107484
-107484
-107484
-107484
-107484
-107485
-107485
-107485
-107485
-107485
-107485
-107485
-107485
-107485
-107485
-107485
-107485
-107485
-107485
-107485
-107485
-107485
-107484
-107484
-107484
-107484
-107484
-107484
-107484
-107484
-107484
-107485
-107484
-107485
-107485
-107484
-107485
-107485
-107485
-107485
-107485
-107485
-107485
-107485
-107485
-107485
-107485
-107485
-107485
-107485
-107485
-107485
-107485
-107485
-107485
-107484
-107485
-107485
-107484
-107485
-107485
-107484
22346.7
21767.4
16723.8
11935.7
12868.9
13516
9364.24
-14047.4
-41594.8
-59911.9
-79113.7
-95791.6
-114170
-130605
-125029
-124283
-133785
-135899
-130425
-124758
-123275
-122194
-123245
-124401
-127832
-135082
-139194
-138921
-138166
-139265
-143051
-144683
-147969
-123088
-91739.6
-93205.9
-94247.7
-93624.3
-93393.3
-92944.8
-91986.7
-90526
-89223.3
-87774.7
-85698.5
-74460.7
-74752.5
-79500.8
-79784.6
-81507.7
-84266.4
-87688.7
-90799.3
-93344.2
-95348.1
-96583.7
-97524.7
-98308.6
-99015.6
-99844.5
-100682
-101718
-102585
-103533
-103788
-104409
-104691
-104837
-105010
-105089
-105284
-105395
-105655
-105690
-105905
-105793
-105679
-104848
-104870
-105191
-105377
-105892
-106424
-106773
-107009
-107112
-107231
-107273
-107343
-107381
-107420
-107446
-107470
-107486
-107506
-107511
-107531
-107530
-107543
-107544
-107548
-107552
-107546
-107553
-107544
-107550
-107538
-107546
-107530
-107535
-107514
-107522
-107503
-107510
-107508
-107503
-107504
-107498
-107499
-107495
-107493
-107494
-107490
-107490
-107487
-107487
-107486
-107484
-107485
-107483
-107484
-107483
-107483
-107481
-107481
-107481
-107481
-107480
-107480
-107480
-107480
-107479
-107480
-107480
-107479
-107480
-107480
-107479
-107479
-107480
-107479
-107479
-107480
-107480
-107480
-107480
-107480
-107480
-107480
-107480
-107480
-107480
-107480
-107480
-107480
-107480
-107479
-107479
-107480
-107479
-107479
-107480
-107480
-107479
-107480
-107480
-107479
-107480
-107480
-107479
-107479
-107480
-107479
-107479
-107479
-107480
-107480
-107480
-107480
-107480
-107480
-107480
-107480
-107480
-107480
-107480
-107480
-107479
-107479
-107479
-107480
-107479
-107479
-107480
-107480
-107479
-107480
-107480
-107479
-107480
-107480
-107479
-107479
-107480
-107479
-107479
-107480
-107480