/*--------------------------------*- C++ -*----------------------------------*\
| =========                 |                                                 |
| \\      /  F ield         | OpenFOAM: The Open Source CFD Toolbox           |
|  \\    /   O peration     | Version:  2.1.1                                 |
|   \\  /    A nd           | Web:      www.OpenFOAM.org                      |
|    \\/     M anipulation  |                                                 |
\*---------------------------------------------------------------------------*/
FoamFile
{
    version     2.0;
    format      ascii;
    class       volScalarField;
    location    "0.001400000";
    object      rhoUnburned;
}
// * * * * * * * * * * * * * * * * * * * * * * * * * * * * * * * * * * * * * //

dimensions      [1 -3 0 0 0 0 0];

internalField   nonuniform List<scalar> 
12384
(
1.74161
1.71698
1.47
1.36949
1.3598
1.29191
1.28789
1.27144
1.22755
1.23034
1.20789
1.21177
1.2073
1.21031
1.31813
1.36479
1.37139
1.36914
1.34117
1.33533
1.32232
1.31263
1.30355
1.32012
1.33315
1.347
1.34857
1.33124
1.31263
1.28581
1.25912
1.24382
1.21666
1.17904
1.18279
1.13936
1.21128
1.19299
1.26393
1.30201
1.31865
1.30512
1.29553
1.28139
1.07528
1.08221
1.08752
1.08681
1.08634
1.07727
1.07005
1.06649
1.05496
1.04514
1.04421
1.03327
1.03481
1.03118
1.03293
1.03297
1.03261
1.0312
1.0217
1.01891
1.01482
1.0008
1.00443
0.996946
0.994431
0.996243
0.995128
0.995777
0.99683
0.997427
0.914381
0.913312
0.912846
0.911324
0.911523
0.909217
0.907741
0.907879
0.90405
0.90483
0.900002
0.901184
0.896695
0.895792
0.893158
0.893707
0.889042
0.891063
0.886034
0.888196
0.883783
0.884459
0.883416
0.881314
0.881741
0.881004
0.879818
0.880387
0.879469
0.879656
0.867083
0.866907
0.867077
0.866894
0.866901
0.866686
0.866659
0.866467
0.866481
0.866237
0.866299
0.866062
0.866154
0.865922
0.866004
0.865777
0.865844
0.865631
0.865677
0.865502
0.865545
0.865407
0.865442
0.865342
0.865367
0.865299
0.865324
0.865277
0.865281
0.8651
0.865094
0.865248
0.865262
0.865264
0.865271
0.86528
0.865289
0.865291
0.865301
0.865307
0.865315
0.865322
0.865345
0.865354
0.865361
0.865364
0.865352
0.865342
0.865321
0.865317
0.865308
0.865302
0.865292
0.86529
0.865278
0.865274
0.865266
0.865262
0.865257
0.865096
0.865096
0.865249
0.865265
0.865269
0.865267
0.86528
0.865281
0.865295
0.865296
0.865308
0.86531
0.865325
0.86534
0.865354
0.865361
0.865366
0.865356
0.865345
0.865319
0.865313
0.865303
0.865296
0.865287
0.865286
0.865275
0.865271
0.865263
0.865263
0.86525
0.865094
0.865094
0.86525
0.865256
0.86527
0.865268
0.865283
0.865288
0.865298
0.865299
0.86531
0.865311
0.865326
0.865341
0.865356
0.865364
0.865367
0.865354
0.865343
0.865321
0.865316
0.865308
0.865302
0.865292
0.86529
0.86528
0.865275
0.865266
0.865262
0.865255
0.865095
0.865096
0.865255
0.865256
0.865269
0.865268
0.865284
0.865287
0.865297
0.865297
0.865308
0.865309
0.865324
0.86534
0.865356
0.865363
0.865366
0.865354
0.865343
0.865322
0.865316
0.865308
0.865301
0.865292
0.86529
0.86528
0.865272
0.865265
0.865262
0.865255
0.865095
0.865096
0.86525
0.865261
0.865265
0.865273
0.86528
0.865292
0.865293
0.865303
0.865309
0.865317
0.86532
0.865342
0.865351
0.865364
0.865362
0.865359
0.865341
0.865323
0.865311
0.865307
0.865302
0.865289
0.865287
0.865279
0.865269
0.865263
0.86526
0.865246
0.865094
0.865097
0.865254
0.865257
0.865271
0.865268
0.865284
0.865287
0.865298
0.865298
0.865309
0.86531
0.865324
0.86534
0.865355
0.865363
0.865367
0.865355
0.865344
0.865322
0.865317
0.865308
0.865302
0.865292
0.86529
0.865279
0.865272
0.865266
0.865262
0.865258
0.865097
0.865093
0.865249
0.865259
0.865267
0.865264
0.865279
0.865284
0.865294
0.8653
0.86531
0.865314
0.865328
0.865341
0.865358
0.865367
0.865364
0.86536
0.865344
0.865329
0.865314
0.865312
0.865302
0.865297
0.865286
0.865285
0.865269
0.865273
0.865262
0.865252
0.865096
0.865096
0.865254
0.865256
0.86527
0.865271
0.865287
0.865287
0.8653
0.865303
0.865313
0.865315
0.865327
0.865342
0.865358
0.865362
0.86537
0.865355
0.865348
0.865334
0.865327
0.865315
0.865309
0.865295
0.865294
0.86528
0.865275
0.865267
0.865265
0.865257
0.865096
1.88384
1.5806
1.81723
1.61525
1.47067
1.47971
1.4298
1.39667
1.3883
1.34316
1.29442
1.27332
1.24002
1.22977
1.46951
1.45471
1.44732
1.40607
1.38785
1.3678
1.36001
1.36929
1.39028
1.40266
1.428
1.45011
1.46453
1.48314
1.47658
1.45205
1.45321
1.40494
1.37502
1.33191
1.29638
1.24948
1.28839
1.23507
1.30086
1.30886
1.31753
1.31133
1.29284
1.27675
1.21768
1.24279
1.24827
1.25001
1.25139
1.24466
1.23761
1.22296
1.21103
1.18569
1.1661
1.15488
1.13413
1.12541
1.11181
1.10323
1.08991
1.07722
1.06819
1.04659
1.03816
1.02584
1.01163
1.0132
1.00345
1.00277
1.00199
1.00203
1.00235
0.999489
0.96872
0.969784
0.968109
0.964336
0.958122
0.953413
0.94609
0.942081
0.935998
0.930456
0.927483
0.920828
0.920172
0.91348
0.913838
0.909008
0.906787
0.904842
0.901175
0.90059
0.896875
0.897019
0.894251
0.893958
0.891727
0.891932
0.890189
0.890167
0.889406
0.883558
0.872586
0.878962
0.878832
0.878928
0.878646
0.878629
0.878684
0.878647
0.878802
0.878722
0.87899
0.878969
0.879562
0.879787
0.880058
0.879926
0.879671
0.879153
0.878718
0.878484
0.878205
0.878068
0.877743
0.877592
0.877255
0.877094
0.877039
0.876734
0.876601
0.869338
0.86933
0.876539
0.876686
0.876983
0.877028
0.877346
0.877424
0.877757
0.877825
0.87818
0.878292
0.878696
0.879086
0.87948
0.879789
0.879668
0.879493
0.878993
0.878736
0.878375
0.878285
0.877937
0.87787
0.87753
0.87742
0.877108
0.876994
0.876829
0.876501
0.869508
0.869325
0.876574
0.876728
0.87701
0.877083
0.877238
0.877594
0.877701
0.878045
0.878136
0.878492
0.878611
0.879084
0.879366
0.879709
0.879695
0.879608
0.879054
0.878679
0.878229
0.878073
0.877703
0.877645
0.877328
0.877256
0.876953
0.87692
0.87666
0.876515
0.869339
0.86933
0.876596
0.876839
0.876963
0.877267
0.877343
0.877698
0.877772
0.878096
0.878158
0.878493
0.878611
0.879109
0.879423
0.879782
0.879701
0.879538
0.879022
0.878741
0.878372
0.878286
0.87794
0.877875
0.877534
0.877428
0.877116
0.877004
0.876829
0.876502
0.869509
0.869483
0.876419
0.876793
0.876885
0.877191
0.877267
0.877607
0.877675
0.877994
0.878057
0.878391
0.878539
0.879064
0.879421
0.879779
0.879692
0.879533
0.879034
0.878754
0.878384
0.87829
0.877941
0.877872
0.877529
0.877421
0.877111
0.876999
0.876825
0.876498
0.869512
0.869517
0.876505
0.87677
0.87707
0.877154
0.877478
0.877569
0.877898
0.877948
0.878268
0.878333
0.878686
0.878926
0.879437
0.879613
0.879798
0.87952
0.879159
0.878555
0.878283
0.878123
0.877778
0.877685
0.877359
0.877283
0.876972
0.876937
0.876649
0.876525
0.869325
0.869525
0.876457
0.876827
0.876925
0.877228
0.877301
0.877638
0.877711
0.878029
0.878086
0.878413
0.878547
0.879048
0.879389
0.879763
0.879709
0.879563
0.879063
0.878765
0.878391
0.878288
0.877935
0.877863
0.877521
0.877412
0.8771
0.876983
0.876826
0.876499
0.869509
0.869324
0.876592
0.876769
0.876906
0.877177
0.877271
0.877633
0.877729
0.878074
0.878158
0.878512
0.878643
0.879136
0.879435
0.87977
0.879768
0.87946
0.879128
0.878626
0.878487
0.878141
0.878062
0.877727
0.877643
0.87729
0.877214
0.876927
0.876794
0.876586
0.869334
0.869511
0.876468
0.876861
0.876963
0.877298
0.877366
0.877719
0.877777
0.878105
0.878133
0.878462
0.878552
0.879019
0.879333
0.879732
0.879725
0.879589
0.8791
0.878795
0.878428
0.878322
0.877963
0.877891
0.877537
0.877432
0.877114
0.876979
0.876828
0.876494
0.869517
1.8932
1.79183
1.88616
1.71511
1.71344
1.64251
1.56009
1.49906
1.46486
1.46326
1.45628
1.44463
1.38344
1.34734
1.50239
1.42664
1.29199
1.24049
1.22728
1.22383
1.23124
1.24329
1.2458
1.25595
1.2578
1.28137
1.34729
1.4063
1.44891
1.49332
1.49356
1.49068
1.49332
1.48107
1.48456
1.4681
1.49777
1.46224
1.50254
1.50812
1.46435
1.41931
1.36982
1.33388
1.31466
1.29627
1.29597
1.3
1.30507
1.31784
1.32096
1.32225
1.31651
1.31501
1.30703
1.29696
1.30017
1.29032
1.29204
1.28692
1.28308
1.28366
1.27859
1.27108
1.26336
1.26147
1.2421
1.24011
1.22808
1.21731
1.21152
1.20302
1.19851
1.19832
1.14987
1.14571
1.14279
1.14001
1.1401
1.13636
1.13556
1.13187
1.13128
1.12607
1.12682
1.12052
1.1214
1.11501
1.11511
1.11031
1.11083
1.10662
1.1071
1.10397
1.10257
1.10209
1.09956
1.09975
1.09765
1.09765
1.09688
1.09608
1.09629
1.10319
1.08942
1.08092
1.08073
1.08015
1.07993
1.07941
1.07908
1.07844
1.07817
1.07754
1.07732
1.07662
1.0761
1.07511
1.07502
1.07457
1.07492
1.07514
1.07565
1.07565
1.0759
1.0759
1.07613
1.07628
1.07652
1.07664
1.07673
1.07693
1.07723
1.08646
1.08644
1.07729
1.07693
1.0767
1.07655
1.07636
1.07616
1.07595
1.07574
1.07551
1.07526
1.07495
1.07437
1.07393
1.07365
1.07366
1.074
1.07447
1.07491
1.07518
1.07541
1.07564
1.07584
1.07605
1.07629
1.07649
1.07669
1.07688
1.07719
1.08644
1.08644
1.07721
1.07689
1.07665
1.07661
1.07637
1.0761
1.07587
1.07564
1.07542
1.07518
1.07492
1.0745
1.07403
1.07374
1.07364
1.07386
1.07438
1.07494
1.07531
1.07561
1.07587
1.07606
1.07626
1.07645
1.07663
1.07677
1.07697
1.07733
1.08644
1.08643
1.07718
1.07689
1.07663
1.07642
1.07623
1.07599
1.0758
1.07561
1.07541
1.07519
1.07492
1.07446
1.07396
1.07366
1.07363
1.07395
1.07443
1.07491
1.07519
1.07541
1.07564
1.07583
1.07605
1.07628
1.07648
1.07669
1.07688
1.07719
1.08644
1.08643
1.0773
1.07694
1.07669
1.07652
1.07632
1.07611
1.07591
1.07572
1.07552
1.07531
1.07499
1.07451
1.07395
1.07366
1.07364
1.07395
1.07442
1.07489
1.07517
1.07541
1.07563
1.07584
1.07605
1.07629
1.07649
1.07669
1.07688
1.07719
1.08644
1.08644
1.07721
1.07686
1.07661
1.07642
1.07623
1.07601
1.07581
1.07563
1.07544
1.07523
1.07497
1.07455
1.07407
1.07373
1.07363
1.07383
1.07437
1.07499
1.07537
1.07553
1.0758
1.07602
1.07622
1.07642
1.07661
1.07676
1.07697
1.07731
1.08644
1.08643
1.07723
1.07689
1.07665
1.07648
1.07628
1.07607
1.07587
1.07569
1.07549
1.07528
1.07499
1.07453
1.074
1.07368
1.07362
1.07392
1.07439
1.07488
1.07516
1.07541
1.07564
1.07584
1.07606
1.0763
1.07651
1.07671
1.07689
1.07719
1.08644
1.08643
1.07717
1.07687
1.07674
1.07652
1.07631
1.07606
1.07584
1.07562
1.07541
1.07517
1.07488
1.07445
1.07396
1.07364
1.07365
1.07394
1.07446
1.07491
1.07521
1.07543
1.07564
1.07585
1.07606
1.0763
1.07648
1.07668
1.07687
1.07718
1.08643
1.08642
1.07722
1.07686
1.07661
1.07641
1.07622
1.07601
1.07581
1.07563
1.07545
1.07526
1.075
1.0746
1.07408
1.07373
1.07361
1.0739
1.07436
1.07486
1.07513
1.07539
1.07562
1.07583
1.07605
1.07629
1.0765
1.07672
1.07689
1.07718
1.08644
1.29713
1.45344
1.47754
1.79748
1.87869
1.80063
1.81092
1.7897
1.64065
1.47735
1.45948
1.47951
1.47626
1.45245
1.45163
1.26185
1.18609
1.34551
1.36101
1.35391
1.33997
1.31968
1.31383
1.30824
1.31402
1.20121
1.13872
1.17421
1.27275
1.34006
1.39552
1.42856
1.43518
1.45053
1.46462
1.47864
1.50245
1.48901
1.54911
1.57013
1.58812
1.56413
1.51286
1.46239
1.2447
1.19784
1.17669
1.16955
1.18729
1.21166
1.24303
1.2647
1.27927
1.28048
1.28278
1.27794
1.2707
1.27631
1.2659
1.268
1.26844
1.26408
1.26333
1.26583
1.25624
1.25893
1.24766
1.24506
1.24084
1.24042
1.23541
1.2379
1.2365
1.23629
1.12801
1.12801
1.1281
1.13083
1.12845
1.12969
1.12614
1.12733
1.12455
1.12139
1.12294
1.11715
1.1191
1.11298
1.11487
1.10873
1.11025
1.10585
1.10428
1.10349
1.10051
1.10082
1.0974
1.09892
1.09534
1.09668
1.09465
1.09446
1.09446
1.09542
1.08046
1.07963
1.07914
1.0794
1.07884
1.07898
1.07853
1.07856
1.07816
1.07815
1.07783
1.07781
1.07754
1.07751
1.07729
1.07728
1.07708
1.0771
1.07691
1.07693
1.07676
1.07681
1.07667
1.07667
1.07664
1.07662
1.07663
1.07661
1.07669
1.07829
1.07827
1.07666
1.07659
1.07657
1.07658
1.07657
1.07657
1.07656
1.07656
1.07655
1.07655
1.07654
1.07653
1.07653
1.07651
1.07652
1.07652
1.07653
1.07654
1.07655
1.07655
1.07655
1.07655
1.07656
1.07656
1.07657
1.07657
1.07658
1.07667
1.07825
1.07827
1.07666
1.07658
1.07657
1.07657
1.07657
1.07656
1.07656
1.07655
1.07655
1.07654
1.07654
1.07653
1.07653
1.07651
1.07651
1.07652
1.07653
1.07654
1.07655
1.07655
1.07656
1.07656
1.07657
1.07657
1.07658
1.07658
1.07659
1.07666
1.07827
1.07826
1.07666
1.07658
1.07658
1.07656
1.07657
1.07656
1.07656
1.07655
1.07655
1.07654
1.07654
1.07653
1.07652
1.07651
1.07651
1.07652
1.07653
1.07654
1.07655
1.07654
1.07655
1.07655
1.07656
1.07656
1.07657
1.07657
1.07658
1.07667
1.07825
1.07825
1.07667
1.07658
1.07658
1.07656
1.07657
1.07656
1.07656
1.07655
1.07655
1.07654
1.07654
1.07653
1.07652
1.07651
1.07651
1.07652
1.07653
1.07654
1.07655
1.07654
1.07655
1.07655
1.07656
1.07656
1.07657
1.07657
1.07658
1.07668
1.07825
1.07824
1.07667
1.07658
1.07657
1.07657
1.07657
1.07657
1.07656
1.07656
1.07655
1.07655
1.07654
1.07654
1.07652
1.07651
1.07651
1.07652
1.07653
1.07654
1.07655
1.07655
1.07656
1.07656
1.07657
1.07657
1.07658
1.07657
1.07659
1.07666
1.07827
1.07825
1.07667
1.07658
1.07658
1.07656
1.07657
1.07656
1.07656
1.07655
1.07655
1.07654
1.07654
1.07653
1.07652
1.07651
1.07651
1.07652
1.07653
1.07654
1.07655
1.07655
1.07655
1.07655
1.07656
1.07656
1.07657
1.07657
1.07658
1.07667
1.07825
1.07827
1.07666
1.07658
1.07658
1.07657
1.07657
1.07656
1.07657
1.07655
1.07655
1.07654
1.07654
1.07653
1.07652
1.07651
1.07651
1.07652
1.07653
1.07655
1.07655
1.07655
1.07655
1.07657
1.07656
1.07657
1.07657
1.07658
1.07657
1.07666
1.07826
1.07825
1.07667
1.07658
1.07657
1.07656
1.07657
1.07656
1.07656
1.07655
1.07655
1.07655
1.07655
1.07654
1.07653
1.07652
1.07652
1.07652
1.07654
1.07654
1.07655
1.07655
1.07656
1.07655
1.07657
1.07656
1.07657
1.07657
1.07658
1.07668
1.07825
0.733581
0.725795
0.674598
0.804638
1.17936
1.70128
1.68112
1.69627
1.6999
1.72687
1.55237
1.44324
1.46305
1.48363
1.34214
1.17336
1.38821
1.43244
1.5947
1.36241
1.38405
1.35663
1.30833
1.27423
1.25134
1.23819
1.20349
1.0968
1.11247
1.20155
1.27071
1.3365
1.36827
1.38982
1.41655
1.42911
1.46589
1.46834
1.52286
1.52969
1.57572
1.58438
1.58317
1.56727
1.17167
1.07243
1.04064
1.02852
1.03014
1.06073
1.11118
1.16248
1.19827
1.22178
1.22828
1.23276
1.22781
1.2222
1.22823
1.21676
1.22337
1.21993
1.22409
1.22258
1.22173
1.22305
1.21349
1.21822
1.20713
1.21485
1.21043
1.21119
1.21028
1.2151
1.09134
1.09022
1.09288
1.09226
1.09447
1.09321
1.0951
1.09182
1.09385
1.08923
1.09025
1.0875
1.08474
1.08499
1.08039
1.08109
1.0767
1.07758
1.07318
1.07458
1.06961
1.07187
1.06692
1.06901
1.0657
1.06588
1.06536
1.06457
1.06399
1.06451
1.05121
1.05059
1.05078
1.05015
1.05033
1.04979
1.04983
1.04944
1.04942
1.04905
1.04905
1.04876
1.04875
1.04851
1.04854
1.04829
1.04837
1.04812
1.04822
1.04799
1.04803
1.04787
1.04794
1.04778
1.04786
1.04778
1.04776
1.04778
1.04774
1.0479
1.04788
1.04771
1.04775
1.04769
1.04775
1.04769
1.04775
1.04769
1.04775
1.04768
1.04775
1.04769
1.04773
1.04774
1.04768
1.04775
1.04768
1.04775
1.04769
1.04775
1.04769
1.04775
1.04768
1.04774
1.04768
1.04773
1.04769
1.04769
1.04774
1.04781
1.04787
1.04771
1.04774
1.04769
1.04771
1.04774
1.04769
1.04775
1.04769
1.04776
1.04769
1.04776
1.04769
1.04775
1.04768
1.04774
1.04768
1.04775
1.04769
1.04775
1.04768
1.04775
1.04769
1.04775
1.04768
1.04775
1.04769
1.04775
1.04771
1.04787
1.04786
1.04772
1.0477
1.04774
1.04768
1.04775
1.04768
1.04776
1.04769
1.04776
1.04768
1.04775
1.04768
1.04774
1.04768
1.04774
1.04768
1.04775
1.04769
1.04775
1.04768
1.04775
1.04768
1.04774
1.04768
1.04773
1.04768
1.04769
1.04774
1.04781
1.04782
1.04774
1.04768
1.04774
1.04768
1.04775
1.04768
1.04775
1.04768
1.04775
1.04768
1.04775
1.04768
1.04774
1.04768
1.04774
1.04768
1.04775
1.04769
1.04775
1.04768
1.04775
1.04768
1.04774
1.04768
1.04773
1.04768
1.04769
1.04774
1.04781
1.04783
1.04774
1.04773
1.04768
1.04774
1.04768
1.04775
1.04769
1.04775
1.04769
1.04775
1.04769
1.04775
1.04768
1.04774
1.04768
1.04774
1.04768
1.04773
1.0477
1.04769
1.04774
1.04768
1.04775
1.04769
1.04775
1.04768
1.04775
1.04771
1.04787
1.04781
1.04775
1.04768
1.04774
1.04768
1.04775
1.04768
1.04775
1.04769
1.04775
1.04768
1.04775
1.04768
1.04774
1.04768
1.04774
1.04768
1.04775
1.04769
1.04775
1.04769
1.04775
1.04768
1.04774
1.04768
1.04773
1.04769
1.04769
1.04774
1.04781
1.04788
1.04771
1.04773
1.04773
1.04769
1.04775
1.04769
1.04775
1.04769
1.04775
1.04768
1.04775
1.04768
1.04774
1.04769
1.04769
1.04774
1.04768
1.04775
1.04769
1.04776
1.04769
1.04776
1.04769
1.04775
1.04769
1.04774
1.04773
1.04772
1.04788
1.04781
1.04774
1.04767
1.04774
1.04768
1.04775
1.04768
1.04776
1.04769
1.04776
1.04769
1.04776
1.04769
1.04775
1.04768
1.04774
1.04768
1.04774
1.04769
1.04775
1.04769
1.04775
1.04769
1.04775
1.04768
1.04773
1.04769
1.04769
1.04775
1.04782
0.596636
0.597188
0.595274
0.612476
0.704553
0.951539
1.59616
1.60957
1.61744
1.64782
1.69767
1.70057
1.45658
1.48595
1.2829
1.20153
1.39778
1.63698
1.42104
1.48094
1.47813
1.43801
1.39519
1.31238
1.25678
1.22193
1.16296
1.1302
1.0673
1.08264
1.15959
1.21331
1.27533
1.3121
1.33686
1.35938
1.40027
1.41689
1.46097
1.48639
1.52571
1.56651
1.58001
1.56677
1.08156
0.995637
0.988653
0.97718
0.962353
0.951059
0.973013
1.02967
1.09125
1.13247
1.15784
1.16561
1.16977
1.16939
1.16101
1.17135
1.16257
1.17108
1.17107
1.17569
1.17807
1.1773
1.17872
1.17621
1.17446
1.17187
1.17849
1.17371
1.18079
1.18286
1.03453
1.032
1.03713
1.04418
1.04819
1.05125
1.05129
1.05437
1.0518
1.05467
1.05035
1.05291
1.04917
1.04872
1.04725
1.04544
1.04455
1.04127
1.04245
1.03821
1.03858
1.03681
1.03481
1.03536
1.03286
1.03323
1.03276
1.03151
1.03185
1.03258
1.01939
1.01847
1.01811
1.01844
1.01801
1.01814
1.01767
1.01773
1.0173
1.01733
1.01694
1.01699
1.01666
1.0167
1.01647
1.01648
1.01629
1.01631
1.01615
1.01617
1.01602
1.01604
1.01591
1.01593
1.01584
1.01587
1.01579
1.01582
1.01587
1.01742
1.01739
1.01584
1.01577
1.01575
1.01577
1.01576
1.01577
1.01575
1.01577
1.01575
1.01576
1.01575
1.01576
1.01575
1.01574
1.01576
1.01574
1.01576
1.01575
1.01576
1.01575
1.01577
1.01575
1.01576
1.01575
1.01575
1.01574
1.01574
1.01583
1.0174
1.01738
1.01584
1.01576
1.01574
1.01576
1.01576
1.01575
1.01576
1.01575
1.01577
1.01575
1.01577
1.01575
1.01576
1.01574
1.01576
1.01574
1.01576
1.01575
1.01576
1.01574
1.01576
1.01575
1.01577
1.01575
1.01576
1.01575
1.01576
1.01584
1.01739
1.01738
1.01584
1.01576
1.01576
1.01575
1.01576
1.01575
1.01577
1.01575
1.01577
1.01575
1.01576
1.01574
1.01575
1.01574
1.01575
1.01574
1.01576
1.01575
1.01576
1.01575
1.01576
1.01575
1.01576
1.01575
1.01575
1.01574
1.01574
1.01583
1.0174
1.01739
1.01583
1.01574
1.01575
1.01574
1.01576
1.01575
1.01576
1.01575
1.01576
1.01575
1.01576
1.01574
1.01575
1.01574
1.01575
1.01574
1.01576
1.01575
1.01576
1.01575
1.01577
1.01575
1.01576
1.01575
1.01575
1.01574
1.01574
1.01583
1.0174
1.0174
1.01584
1.01575
1.01574
1.01576
1.01575
1.01577
1.01575
1.01577
1.01575
1.01576
1.01575
1.01576
1.01574
1.01575
1.01574
1.01575
1.01574
1.01575
1.01575
1.01575
1.01576
1.01575
1.01577
1.01575
1.01576
1.01575
1.01577
1.01584
1.01738
1.0174
1.01583
1.01574
1.01575
1.01574
1.01576
1.01575
1.01577
1.01575
1.01576
1.01575
1.01576
1.01574
1.01575
1.01574
1.01575
1.01574
1.01576
1.01575
1.01576
1.01575
1.01576
1.01575
1.01576
1.01575
1.01575
1.01574
1.01574
1.01583
1.0174
1.01738
1.01584
1.01575
1.01576
1.01576
1.01577
1.01575
1.01577
1.01575
1.01577
1.01575
1.01576
1.01574
1.01575
1.01574
1.01574
1.01575
1.01574
1.01576
1.01575
1.01577
1.01575
1.01577
1.01575
1.01576
1.01575
1.01575
1.01576
1.01584
1.01738
1.0174
1.01583
1.01574
1.01575
1.01574
1.01576
1.01575
1.01577
1.01576
1.01577
1.01575
1.01576
1.01574
1.01575
1.01573
1.01575
1.01573
1.01575
1.01574
1.01575
1.01574
1.01576
1.01575
1.01576
1.01574
1.01576
1.01574
1.01574
1.01584
1.0174
0.597126
0.597532
0.605932
0.63856
0.700174
0.802494
1.33777
1.55802
1.55186
1.57021
1.61129
1.64337
1.59087
1.4599
1.23165
1.43421
1.42629
1.44858
1.5118
1.51821
1.5171
1.50663
1.45887
1.3698
1.29438
1.21919
1.1626
1.12706
1.08885
1.04036
1.0599
1.11588
1.16072
1.21613
1.2492
1.26918
1.31158
1.33361
1.38142
1.41076
1.44952
1.47646
1.51685
1.55073
1.03142
1.00025
1.02953
1.03042
0.991443
0.942901
0.909938
0.92344
0.976584
1.03336
1.06862
1.09094
1.09311
1.10231
1.08852
1.10184
1.09648
1.09772
1.10489
1.1064
1.10926
1.11098
1.11442
1.10768
1.11762
1.10631
1.12014
1.11642
1.12373
1.13112
0.966074
0.958283
0.967674
0.978043
0.98583
0.991086
0.994102
0.993747
0.996712
0.994064
0.996041
0.993001
0.992992
0.992091
0.988917
0.990812
0.98535
0.98656
0.984662
0.981216
0.982541
0.979281
0.97922
0.977537
0.977509
0.9752
0.976606
0.97441
0.975716
0.974644
0.963039
0.963135
0.963571
0.962924
0.963135
0.962558
0.962713
0.962164
0.962284
0.961785
0.96189
0.961462
0.961566
0.961239
0.961331
0.96107
0.961151
0.960949
0.961014
0.96084
0.960905
0.960747
0.960758
0.960695
0.960661
0.960618
0.960599
0.960586
0.960577
0.960074
0.960052
0.960529
0.960551
0.960527
0.960553
0.960538
0.960561
0.960542
0.960563
0.960542
0.960562
0.96055
0.960558
0.960555
0.960553
0.960564
0.960551
0.960565
0.960548
0.960565
0.960544
0.960561
0.96054
0.960556
0.960533
0.960542
0.960529
0.960529
0.960528
0.960049
0.960042
0.960529
0.960542
0.960528
0.96055
0.960554
0.96054
0.960563
0.960543
0.960566
0.960547
0.960568
0.96055
0.960565
0.960552
0.960562
0.96055
0.960562
0.960545
0.960558
0.960538
0.960558
0.96054
0.960559
0.960536
0.96055
0.960529
0.960547
0.960522
0.960047
0.960039
0.960535
0.960544
0.960541
0.96053
0.960556
0.96054
0.960564
0.960542
0.960565
0.960545
0.960564
0.960547
0.960561
0.960548
0.960559
0.960548
0.960563
0.960546
0.960564
0.960543
0.960561
0.96054
0.960556
0.960532
0.960541
0.960524
0.960529
0.960527
0.960048
0.96005
0.960527
0.960524
0.960538
0.960527
0.960555
0.960538
0.960563
0.960542
0.960564
0.960544
0.960563
0.960547
0.960561
0.960548
0.96056
0.960549
0.960563
0.960547
0.960565
0.960543
0.960561
0.96054
0.960556
0.960532
0.960542
0.960526
0.960528
0.960527
0.960048
0.960057
0.960531
0.960536
0.960526
0.960548
0.960537
0.96056
0.960543
0.960563
0.960545
0.960566
0.960548
0.960564
0.96055
0.960561
0.960549
0.960559
0.960547
0.960552
0.960554
0.960549
0.960557
0.960539
0.960559
0.960536
0.960551
0.960525
0.96055
0.960528
0.960042
0.960053
0.96053
0.960523
0.960538
0.960528
0.960554
0.960539
0.960564
0.960542
0.960564
0.960545
0.960563
0.960547
0.960561
0.960549
0.960559
0.960549
0.960563
0.960547
0.960564
0.960542
0.960559
0.96054
0.960555
0.960533
0.960542
0.960529
0.960529
0.960527
0.960048
0.960043
0.96053
0.960537
0.960541
0.960539
0.960555
0.960539
0.960563
0.960541
0.960564
0.960545
0.960566
0.960547
0.960561
0.96055
0.960553
0.960558
0.960548
0.960565
0.960545
0.960563
0.960541
0.960564
0.96054
0.960556
0.960535
0.960537
0.960539
0.960533
0.960041
0.960049
0.960528
0.960519
0.960539
0.960523
0.960553
0.960532
0.960563
0.960537
0.960567
0.960542
0.960568
0.960545
0.960564
0.960546
0.96056
0.960549
0.960565
0.960549
0.960568
0.960545
0.960566
0.960543
0.960562
0.960534
0.960551
0.960538
0.960536
0.960538
0.96005
0.604448
0.61597
0.653254
0.7068
0.759968
0.917542
1.52714
1.52534
1.5275
1.53649
1.57239
1.6471
1.57584
1.44416
1.2501
1.51005
1.55647
1.51573
1.52526
1.50333
1.54447
1.53412
1.49684
1.44295
1.32455
1.24074
1.16442
1.12199
1.05868
1.05085
1.01905
1.03107
1.06392
1.10774
1.15256
1.18151
1.20946
1.24348
1.28753
1.32839
1.37045
1.421
1.46354
1.48352
1.00778
1.05601
1.07925
1.073
1.02823
0.96739
0.903279
0.876436
0.89439
0.941822
0.985279
1.0067
1.02023
1.02461
1.02384
1.02895
1.02387
1.03467
1.032
1.04076
1.04364
1.04843
1.05264
1.05096
1.05862
1.05244
1.06668
1.06328
1.08483
1.08954
0.905949
0.888148
0.893061
0.909539
0.922464
0.92944
0.935892
0.936937
0.939542
0.939637
0.94002
0.940916
0.938675
0.941089
0.936403
0.939462
0.934806
0.936102
0.933228
0.933008
0.931662
0.929744
0.930404
0.927618
0.928962
0.926238
0.927944
0.926179
0.927733
0.926864
0.91248
0.914359
0.914233
0.915047
0.91478
0.914876
0.914524
0.914519
0.914145
0.914145
0.913831
0.913732
0.91356
0.913469
0.91336
0.913258
0.913199
0.913103
0.913067
0.912967
0.912968
0.912864
0.912843
0.912794
0.91274
0.912747
0.912709
0.912752
0.912751
0.912337
0.912307
0.91272
0.912692
0.912658
0.912642
0.91263
0.912621
0.912622
0.91262
0.912615
0.912614
0.912616
0.912616
0.912616
0.912619
0.912621
0.91262
0.91262
0.912617
0.912618
0.912618
0.912623
0.912621
0.91262
0.912626
0.912639
0.912657
0.912686
0.912709
0.912309
0.912294
0.912714
0.912688
0.912653
0.912649
0.912633
0.912618
0.912625
0.912621
0.912621
0.912617
0.91262
0.912621
0.912622
0.912622
0.91262
0.91262
0.912618
0.912613
0.912609
0.912609
0.912617
0.912617
0.91262
0.91263
0.91264
0.912658
0.912692
0.912714
0.912304
0.912295
0.912715
0.912697
0.912656
0.912639
0.91263
0.91262
0.912624
0.912622
0.912619
0.912615
0.912615
0.912616
0.912617
0.912617
0.912617
0.912618
0.912618
0.912615
0.912616
0.912616
0.912622
0.912621
0.912619
0.912625
0.912637
0.912653
0.912685
0.912709
0.912307
0.912303
0.912707
0.912686
0.912652
0.912638
0.91263
0.91262
0.912623
0.912621
0.912618
0.912614
0.912614
0.912617
0.912617
0.912618
0.912617
0.912618
0.912618
0.912616
0.912616
0.912617
0.912622
0.912621
0.912619
0.912625
0.912638
0.912655
0.912686
0.912709
0.912308
0.912315
0.91271
0.912688
0.912656
0.912639
0.912631
0.912623
0.912625
0.912624
0.912621
0.912619
0.912617
0.91262
0.912621
0.91262
0.912618
0.912618
0.912614
0.912611
0.912612
0.912614
0.912616
0.912619
0.912619
0.912629
0.912639
0.912656
0.912693
0.912718
0.912297
0.912312
0.91271
0.912684
0.912652
0.912638
0.912631
0.91262
0.912624
0.912622
0.912619
0.912615
0.912615
0.912617
0.912617
0.912618
0.912617
0.912618
0.912618
0.912615
0.912616
0.912616
0.912621
0.912619
0.912618
0.912625
0.912637
0.912656
0.912685
0.912708
0.912308
0.912294
0.912714
0.912683
0.91266
0.912641
0.912631
0.912617
0.912623
0.91262
0.912618
0.912615
0.912617
0.912617
0.912618
0.912618
0.912618
0.912618
0.912616
0.912616
0.912614
0.912616
0.912618
0.912621
0.912616
0.912628
0.912636
0.91265
0.912685
0.912717
0.912294
0.912301
0.912705
0.912682
0.912652
0.912636
0.912625
0.912617
0.91262
0.912619
0.912616
0.912618
0.912616
0.912614
0.912614
0.912613
0.912613
0.912614
0.912616
0.912612
0.912612
0.912613
0.912615
0.912612
0.912618
0.912623
0.912644
0.912679
0.912759
0.912873
0.912469
0.632693
0.646889
0.685933
0.726188
0.777906
1.01487
1.48425
1.50206
1.48699
1.48881
1.52213
1.58743
1.66757
1.67129
1.7351
1.70215
1.47064
1.5709
1.63331
1.58995
1.5207
1.45382
1.45866
1.50751
1.51063
1.44714
1.36379
1.26674
1.20284
1.12886
1.10042
1.03513
1.08498
1.00707
0.997487
1.0163
1.05327
1.0836
1.11164
1.14022
1.18174
1.22374
1.26088
1.29533
1.33194
1.34114
0.96492
1.06452
1.09081
1.09043
1.08395
1.06068
1.01758
0.954574
0.89676
0.854137
0.849572
0.873766
0.909736
0.932214
0.940928
0.954371
0.949919
0.946898
0.956193
0.949943
0.953548
0.959837
0.961004
0.965837
0.966415
0.972882
0.968454
0.97803
0.976058
0.987958
0.988727
1.00365
0.965397
0.94267
0.881092
0.852717
0.836489
0.846178
0.857654
0.865058
0.865749
0.868936
0.868779
0.868449
0.87096
0.867442
0.869769
0.866794
0.866049
0.866248
0.863063
0.864651
0.860322
0.86223
0.858625
0.858634
0.857293
0.85637
0.855468
0.855052
0.853912
0.854538
0.853323
0.852964
0.846199
0.846662
0.843018
0.844358
0.845416
0.844214
0.844638
0.844065
0.844101
0.843558
0.843656
0.843209
0.843263
0.842877
0.84297
0.842609
0.842763
0.842449
0.84259
0.842355
0.842463
0.842286
0.842366
0.842253
0.842241
0.842225
0.842175
0.84219
0.842137
0.842142
0.841995
0.84005
0.838365
0.838376
0.840017
0.841973
0.842086
0.84208
0.842073
0.842058
0.842051
0.842046
0.842045
0.842045
0.842041
0.842042
0.842039
0.842037
0.842042
0.842041
0.842042
0.842041
0.842043
0.842045
0.842046
0.842047
0.842046
0.842048
0.842057
0.842068
0.842084
0.842079
0.841962
0.84002
0.838347
0.838347
0.840009
0.841967
0.842077
0.842081
0.842078
0.842057
0.842049
0.842048
0.842046
0.842048
0.842045
0.842043
0.842042
0.842041
0.842043
0.842042
0.842041
0.842039
0.84204
0.84204
0.842041
0.842041
0.842043
0.842049
0.842059
0.842069
0.84208
0.84208
0.841964
0.840012
0.838347
0.838347
0.840012
0.841968
0.842086
0.842081
0.842071
0.84206
0.84205
0.842048
0.842047
0.842047
0.842044
0.842041
0.842041
0.84204
0.842042
0.84204
0.842041
0.84204
0.842042
0.842044
0.842046
0.842047
0.842047
0.842048
0.842058
0.842068
0.842083
0.842077
0.841961
0.840018
0.838346
0.838346
0.840015
0.841959
0.842077
0.842079
0.842071
0.842059
0.84205
0.842048
0.842046
0.842046
0.842044
0.842041
0.842042
0.842039
0.842042
0.842041
0.842041
0.842041
0.842042
0.842044
0.842047
0.842047
0.842047
0.842049
0.842058
0.842068
0.842083
0.842078
0.841961
0.840017
0.838346
0.838346
0.840022
0.841962
0.842077
0.842081
0.84207
0.842061
0.84205
0.842049
0.842048
0.842049
0.842045
0.842043
0.842041
0.842042
0.842041
0.842041
0.84204
0.842039
0.842034
0.842043
0.842043
0.842042
0.842041
0.842049
0.842055
0.842071
0.842079
0.84208
0.841966
0.840009
0.838346
0.838346
0.840021
0.841961
0.842077
0.842079
0.842073
0.84206
0.84205
0.842048
0.842047
0.842047
0.842044
0.842042
0.842042
0.84204
0.842043
0.842041
0.842041
0.842041
0.842042
0.842044
0.842045
0.842046
0.842045
0.842048
0.842056
0.842066
0.842083
0.842077
0.841959
0.840017
0.838346
0.838347
0.840009
0.841969
0.842075
0.842084
0.842071
0.842058
0.842047
0.842048
0.842045
0.842047
0.842045
0.842043
0.842042
0.842041
0.842041
0.842042
0.84204
0.842041
0.842042
0.842043
0.842047
0.842044
0.842047
0.842047
0.842057
0.842068
0.842075
0.842072
0.841962
0.840004
0.838344
0.838344
0.840013
0.841956
0.842072
0.842081
0.842069
0.842058
0.842044
0.842048
0.842047
0.842052
0.842047
0.842049
0.842046
0.842045
0.842045
0.842042
0.84204
0.842038
0.842037
0.842041
0.842041
0.842045
0.842043
0.842052
0.842057
0.842063
0.842079
0.842071
0.841955
0.840022
0.838439
0.839909
0.650571
0.650953
0.666393
0.697982
0.720445
0.74529
0.80743
1.12366
1.41323
1.4005
1.4096
1.45028
1.56958
1.73501
1.64495
1.62864
1.66907
1.6804
1.63495
1.56565
1.43545
1.40735
1.38769
1.42248
1.43223
1.38164
1.31361
1.25557
1.20025
1.18226
1.11802
1.11179
1.05761
1.13932
0.980374
0.958817
0.971429
0.993871
1.01868
1.0484
1.07931
1.11734
1.15105
1.18615
1.20611
1.22496
1.09388
1.13466
1.12012
1.09546
1.04442
0.994766
0.951557
0.903297
0.861372
0.832142
0.820044
0.829949
0.848511
0.865689
0.878128
0.883076
0.885724
0.877373
0.892105
0.883492
0.88674
0.892765
0.893314
0.899955
0.901166
0.905594
0.902884
0.911224
0.90283
0.916744
0.907162
0.931015
0.908274
0.876819