/*--------------------------------*- C++ -*----------------------------------*\
| =========                 |                                                 |
| \\      /  F ield         | OpenFOAM: The Open Source CFD Toolbox           |
|  \\    /   O peration     | Version:  2.1.1                                 |
|   \\  /    A nd           | Web:      www.OpenFOAM.org                      |
|    \\/     M anipulation  |                                                 |
\*---------------------------------------------------------------------------*/
FoamFile
{
    version     2.0;
    format      ascii;
    class       volScalarField;
    location    "0.001400000";
    object      sL;
}
// * * * * * * * * * * * * * * * * * * * * * * * * * * * * * * * * * * * * * //

dimensions      [0 1 -1 0 0 0 0];

internalField   nonuniform List<scalar> 
12384
(
1.2825
1.32282
1.88661
2.08731
2.15673
2.11104
2.06966
2.07846
2.17579
2.29599
2.34666
2.3864
2.38921
2.36384
2.01037
1.74331
1.49291
1.39721
1.37194
1.32853
1.31718
1.29661
1.30109
1.29821
1.33793
1.40111
1.48808
1.62156
1.74168
1.91935
2.0333
2.15182
2.22598
2.27859
2.30897
2.31117
2.38928
2.36285
2.43682
2.44566
2.47591
2.45967
2.44917
2.4368
2.08727
1.99909
1.98273
1.98712
1.99665
2.01521
2.04066
2.07878
2.11235
2.14288
2.17336
2.18751
2.20549
2.21225
2.22108
2.22234
2.22369
2.22128
2.21414
2.20999
2.20725
2.19376
2.19796
2.19014
2.18908
2.1897
2.1897
2.18973
2.19108
2.1917
2.11269
2.11101
2.11001
2.109
2.10918
2.10694
2.10555
2.10532
2.10191
2.10222
2.09783
2.09845
2.09452
2.09293
2.09064
2.09071
2.08657
2.08824
2.08368
2.08553
2.08148
2.08181
2.08117
2.07887
2.07946
2.07864
2.07762
2.07801
2.07724
2.07869
2.06614
2.06445
2.06452
2.06431
2.06425
2.06401
2.06387
2.06362
2.06352
2.06322
2.06316
2.0628
2.06262
2.06221
2.06219
2.06192
2.06204
2.06196
2.06214
2.06208
2.06217
2.06212
2.06221
2.06219
2.06231
2.06232
2.06235
2.06239
2.0625
2.06416
2.06416
2.06248
2.0624
2.06233
2.06229
2.06219
2.06214
2.06207
2.06201
2.06191
2.06185
2.06175
2.06156
2.06144
2.06134
2.06134
2.06144
2.06158
2.06174
2.06183
2.0619
2.06199
2.06205
2.06212
2.06219
2.06226
2.06231
2.06237
2.06244
2.06415
2.06416
2.06247
2.06237
2.06228
2.0623
2.06223
2.06217
2.06208
2.06201
2.06192
2.06185
2.06175
2.06157
2.06146
2.06135
2.06133
2.0614
2.06156
2.06177
2.06188
2.06196
2.06205
2.06211
2.06217
2.06223
2.0623
2.06234
2.06239
2.06246
2.06416
2.06416
2.06249
2.06241
2.06232
2.06227
2.06219
2.06211
2.06204
2.06198
2.06191
2.06184
2.06174
2.06156
2.06144
2.06132
2.06133
2.06143
2.06157
2.06174
2.06184
2.06191
2.06199
2.06205
2.06212
2.06218
2.06226
2.06231
2.06238
2.06245
2.06415
2.06417
2.06247
2.06241
2.06232
2.06227
2.06219
2.06212
2.06205
2.062
2.06193
2.06187
2.06176
2.06158
2.06144
2.06132
2.06134
2.06143
2.06157
2.06173
2.06183
2.06191
2.06199
2.06205
2.06212
2.06218
2.06227
2.06231
2.06238
2.06245
2.06415
2.06417
2.06251
2.06241
2.06232
2.06227
2.06218
2.0621
2.06204
2.06198
2.0619
2.06184
2.06175
2.06159
2.06146
2.06136
2.06133
2.06141
2.06156
2.06177
2.06187
2.06192
2.06201
2.06208
2.06215
2.0622
2.0623
2.06234
2.06242
2.0625
2.06416
2.06416
2.06247
2.0624
2.0623
2.06226
2.06218
2.06211
2.06204
2.06199
2.06192
2.06186
2.06175
2.06158
2.06145
2.06133
2.06132
2.06141
2.06157
2.06173
2.06183
2.06191
2.06199
2.06206
2.06213
2.0622
2.06228
2.06231
2.06237
2.06244
2.06416
2.06415
2.06246
2.06238
2.06233
2.0623
2.06223
2.06215
2.06208
2.06199
2.06192
2.06184
2.06173
2.06157
2.06144
2.06132
2.06133
2.06143
2.06156
2.06173
2.06185
2.06192
2.06199
2.06207
2.06214
2.0622
2.06228
2.06231
2.06239
2.06247
2.06416
2.06416
2.06246
2.06239
2.0623
2.06225
2.06216
2.06212
2.06205
2.062
2.06193
2.06188
2.06178
2.06162
2.06148
2.06137
2.06134
2.06144
2.06158
2.06171
2.06182
2.06191
2.062
2.06208
2.06214
2.06222
2.06228
2.06232
2.06237
2.06245
2.06417
0.548664
0.687902
0.710591
0.806458
0.886067
0.794065
0.688047
0.719555
0.822282
1.0336
1.54019
1.76687
2.07229
2.16604
0.767328
0.519612
0.522028
0.606753
0.699559
0.748431
0.751496
0.750775
0.691754
0.629325
0.537066
0.434337
0.394958
0.356113
0.372587
0.429909
0.459047
0.636304
0.751321
0.940481
1.19969
1.41073
1.69216
1.87905
2.10359
2.30395
2.39846
2.44959
2.45635
2.43867
0.661423
0.519088
0.493016
0.493753
0.512002
0.536973
0.579364
0.64419
0.712683
0.82932
0.916221
1.05448
1.15983
1.28004
1.39236
1.49507
1.60681
1.69552
1.79896
1.87735
1.96314
2.01725
2.05497
2.07824
2.09367
2.10275
2.11399
2.11918
2.12273
2.15643
1.49625
1.48643
1.50117
1.54544
1.58618
1.64039
1.68519
1.72997
1.76918
1.80115
1.83163
1.85181
1.87461
1.8805
1.89856
1.89857
1.91906
1.91963
1.93791
1.93537
1.94722
1.94606
1.95424
1.95419
1.96087
1.96248
1.96704
1.9676
1.97087
2.03149
2.00391
1.93681
1.93532
1.93466
1.93483
1.93501
1.93188
1.93132
1.9279
1.92705
1.92337
1.92158
1.91486
1.90985
1.90724
1.90615
1.90961
1.91316
1.91832
1.91932
1.92243
1.92295
1.92642
1.92749
1.93127
1.93246
1.93326
1.93628
1.93785
2.01797
2.01788
1.93824
1.93664
1.93331
1.93282
1.92926
1.9284
1.92466
1.92391
1.91991
1.91868
1.91415
1.90975
1.9053
1.90186
1.90322
1.90517
1.91081
1.91367
1.91772
1.91873
1.92264
1.92338
1.9272
1.92841
1.93191
1.93317
1.93504
1.93864
2.01603
2.01794
1.93781
1.93614
1.93298
1.9322
1.93047
1.92648
1.92529
1.92142
1.92041
1.91641
1.91511
1.90977
1.90661
1.90274
1.90291
1.90388
1.91013
1.91432
1.91938
1.92112
1.92528
1.92592
1.92947
1.93026
1.93366
1.93401
1.93694
1.9385
2.01778
2.01791
1.93761
1.9349
1.93351
1.93013
1.92928
1.92531
1.92448
1.92085
1.92017
1.91639
1.9151
1.90949
1.90597
1.90193
1.90285
1.90466
1.91048
1.91361
1.91776
1.91872
1.9226
1.92333
1.92715
1.92832
1.93182
1.93306
1.93503
1.93863
2.01604
2.01631
1.93959
1.93543
1.93441
1.93097
1.93014
1.92634
1.92558
1.922
1.92131
1.91755
1.91591
1.91
1.906
1.90196
1.90295
1.90472
1.91035
1.91347
1.91763
1.91868
1.9226
1.92336
1.92721
1.9284
1.93187
1.93312
1.93507
1.93866
2.016
2.01592
1.9386
1.93568
1.93234
1.93139
1.92777
1.92677
1.92308
1.92252
1.91892
1.9182
1.91425
1.91157
1.9058
1.90382
1.90175
1.90488
1.90893
1.91572
1.9188
1.92058
1.92442
1.92547
1.92913
1.92996
1.93343
1.93382
1.93705
1.93837
2.01793
2.01585
1.93915
1.93503
1.93395
1.93056
1.92975
1.92596
1.92517
1.9216
1.92098
1.9173
1.91581
1.91018
1.90635
1.90214
1.90276
1.90439
1.91003
1.91334
1.91756
1.9187
1.92267
1.92347
1.9273
1.92851
1.932
1.93331
1.93508
1.93867
2.01602
2.01792
1.93762
1.93564
1.93413
1.93114
1.9301
1.92604
1.92499
1.92111
1.92019
1.9162
1.91476
1.90922
1.90585
1.90209
1.90212
1.90558
1.90932
1.91497
1.91651
1.92039
1.92126
1.92502
1.92595
1.9299
1.93073
1.93392
1.93537
1.93771
2.01782
2.016
1.93902
1.93465
1.93354
1.9298
1.92908
1.9251
1.9245
1.9208
1.92052
1.91682
1.91584
1.91056
1.90705
1.90253
1.90265
1.90417
1.90966
1.91307
1.91721
1.91839
1.92242
1.9232
1.92717
1.92832
1.9319
1.93339
1.93509
1.93874
2.01595
0.205462
0.279085
0.247994
0.215869
0.177266
0.180841
0.217576
0.23818
0.255575
0.264494
0.293906
0.369936
0.751674
1.02521
0.264525
0.502566
1.05984
1.52141
1.71778
1.86555
1.97885
2.03717
2.03623
1.94672
1.82747
1.53292
1.08406
0.658597
0.367609
0.253016
0.197797
0.175153
0.158405
0.153902
0.157311
0.162364
0.213071
0.234692
0.463702
0.518885
1.08029
1.41855
1.76718
1.91076
0.152113
0.199432
0.226355
0.231403
0.217161
0.200423
0.183582
0.17085
0.162838
0.153116
0.15008
0.143892
0.143561
0.141151
0.141941
0.14155
0.140186
0.143038
0.140026
0.143968
0.140308
0.151983
0.156219
0.180969
0.196803
0.233606
0.261788
0.302299
0.326603
0.33363
0.117906
0.130191
0.136526
0.136719
0.137769
0.138049
0.138978
0.140223
0.140701
0.141928
0.142387
0.143554
0.143997
0.146674
0.147041
0.14886
0.146247
0.146974
0.143809
0.14602
0.143299
0.14564
0.14309
0.145054
0.142696
0.143989
0.142803
0.143583
0.142922
0.11834
0.114813
0.142123
0.143867
0.144193
0.14536
0.145628
0.147083
0.147902
0.149171
0.150016
0.151193
0.152457
0.154832
0.157301
0.158066
0.15864
0.157626
0.155769
0.154114
0.153306
0.152606
0.152079
0.151225
0.150542
0.149412
0.148978
0.148572
0.147781
0.146664
0.114776
0.114758
0.146356
0.147673
0.148556
0.14908
0.149865
0.150569
0.151419
0.152121
0.153082
0.153961
0.155228
0.15742
0.159131
0.160251
0.160139
0.15889
0.157024
0.155373
0.154297
0.153468
0.152538
0.151841
0.150982
0.150131
0.149298
0.148595
0.147904
0.146756
0.114782
0.114774
0.146677
0.14783
0.148763
0.148885
0.149762
0.150842
0.151657
0.152553
0.153359
0.154325
0.155297
0.156971
0.158715
0.159897
0.160262
0.159453
0.157374
0.155239
0.153782
0.152706
0.151631
0.150968
0.150187
0.149507
0.148775
0.148312
0.147506
0.146206
0.114757
0.114813
0.146783
0.147856
0.14879
0.149618
0.150292
0.151238
0.151929
0.152711
0.153406
0.15429
0.15529
0.157099
0.158997
0.16024
0.160274
0.159085
0.157153
0.155371
0.154265
0.15345
0.15254
0.151843
0.150986
0.150149
0.149346
0.148628
0.147904
0.146746
0.114781
0.114788
0.146313
0.147695
0.148557
0.149267
0.149964
0.150807
0.151507
0.152265
0.152989
0.15386
0.154999
0.156927
0.159012
0.160242
0.160242
0.15907
0.157208
0.155439
0.154325
0.153473
0.152544
0.151837
0.150966
0.150119
0.149314
0.148604
0.14789
0.14675
0.114781
0.114764
0.146654
0.147925
0.148916
0.149562
0.150368
0.151138
0.151932
0.152569
0.153355
0.154091
0.155129
0.156715
0.158621
0.159888
0.160346
0.159518
0.157457
0.155028
0.153605
0.152994
0.15191
0.151148
0.15032
0.149623
0.148855
0.14835
0.147515
0.146291
0.114761
0.114795
0.146581
0.147868
0.148712
0.149403
0.150092
0.150934
0.151657
0.152403
0.153095
0.15394
0.155018
0.156831
0.15885
0.16016
0.160315
0.159206
0.15734
0.155497
0.154359
0.153478
0.152522
0.151809
0.150941
0.15009
0.149252
0.148528
0.147879
0.146744
0.114781
0.114784
0.146799
0.147902
0.148356
0.149234
0.149985
0.150994
0.151763
0.152643
0.153426
0.15437
0.155428
0.15717
0.158998
0.160311
0.160283
0.159088
0.157142
0.155336
0.154257
0.153336
0.152576
0.151731
0.151001
0.150053
0.149393
0.148588
0.147928
0.146772
0.114795
0.114801
0.146614
0.147983
0.148872
0.149647
0.15034
0.151192
0.151899
0.152639
0.153265
0.154049
0.155001
0.156602
0.158567
0.159973
0.160399
0.159318
0.157477
0.155602
0.154503
0.153572
0.152622
0.151881
0.150982
0.15014
0.149271
0.148495
0.147873
0.146763
0.114784
0.482127
0.605508
0.588181
0.376796
0.250944
0.256713
0.292156
0.304479
0.3295
0.308778
0.255637
0.203097
0.225896
0.324011
0.41265
1.44004
2.17329
2.16965
1.96876
2.02793
2.08663
2.1237
2.12628
2.13284
2.12655
2.544
2.75598
2.44222
1.75589
1.03488
0.643957
0.459723
0.36679
0.301165
0.253537
0.221736
0.202642
0.181373
0.187075
0.179851
0.236
0.36173
0.604704
0.823633
0.386066
0.760529
0.979813
1.09352
1.03958
0.858365
0.666556
0.519
0.419973
0.35385
0.303702
0.271623
0.241587
0.228703
0.209272
0.202305
0.191129
0.184404
0.176586
0.172657
0.165528
0.163912
0.158203
0.157681
0.155076
0.155482
0.154398
0.154274
0.15475
0.149237
0.191203
0.192462
0.186504
0.181923
0.176617
0.172534
0.168046
0.164817
0.162061
0.159247
0.158046
0.155975
0.155077
0.153931
0.152848
0.152533
0.151422
0.15156
0.150448
0.150752
0.149874
0.150104
0.149411
0.149619
0.1491
0.14912
0.14891
0.148712
0.148499
0.143443
0.143727
0.148796
0.148773
0.148988
0.148659
0.148818
0.148586
0.14875
0.148571
0.14874
0.148613
0.148765
0.148703
0.148856
0.148832
0.148865
0.148901
0.148829
0.148883
0.148818
0.148906
0.148813
0.148921
0.14879
0.148887
0.148814
0.148774
0.148822
0.148435
0.142531
0.142538
0.148446
0.148821
0.148747
0.148867
0.148776
0.148897
0.148809
0.148933
0.148849
0.148975
0.148895
0.149002
0.149044
0.148998
0.149095
0.14896
0.149021
0.148887
0.148968
0.148848
0.148933
0.148817
0.148897
0.148784
0.148854
0.14876
0.148729
0.148428
0.142598
0.142528
0.148431
0.148823
0.148763
0.14879
0.14887
0.148792
0.148916
0.148829
0.148952
0.148865
0.148987
0.148916
0.149054
0.148984
0.149093
0.148974
0.149028
0.148891
0.148967
0.148848
0.148925
0.148806
0.148888
0.148771
0.14886
0.148741
0.148814
0.148453
0.142534
0.14253
0.14846
0.148734
0.148835
0.148767
0.148885
0.148798
0.14892
0.14883
0.148954
0.148867
0.148989
0.148921
0.149062
0.148996
0.149095
0.148965
0.149021
0.148888
0.148968
0.148849
0.148933
0.148818
0.148897
0.148785
0.148856
0.148758
0.148737
0.148427
0.1426
0.142591
0.148454
0.148709
0.148841
0.148767
0.14888
0.148798
0.148915
0.148829
0.148948
0.148864
0.148984
0.14892
0.149062
0.148997
0.149093
0.148965
0.149022
0.148889
0.148968
0.148849
0.148933
0.148817
0.148897
0.148784
0.148855
0.14876
0.148737
0.148424
0.142601
0.142619
0.148429
0.148801
0.148746
0.148869
0.148784
0.148901
0.148814
0.148934
0.148846
0.148967
0.148884
0.149014
0.148954
0.149084
0.148998
0.14907
0.14893
0.148976
0.148877
0.148851
0.148926
0.148808
0.14889
0.148772
0.14886
0.14874
0.148815
0.148447
0.142536
0.142609
0.148441
0.148711
0.148845
0.14877
0.148884
0.148801
0.148917
0.148831
0.148949
0.148865
0.148984
0.148918
0.149058
0.148995
0.149095
0.148968
0.149024
0.14889
0.148968
0.14885
0.148933
0.148818
0.148896
0.148785
0.148852
0.148761
0.148729
0.148429
0.142598
0.142535
0.148436
0.148818
0.148821
0.148768
0.148884
0.148796
0.148919
0.14883
0.148952
0.148865
0.148987
0.14892
0.149058
0.149004
0.149006
0.14906
0.14892
0.148985
0.148865
0.148952
0.14883
0.14892
0.148799
0.148888
0.14877
0.148839
0.148793
0.148447
0.14254
0.142604
0.148449
0.148712
0.148846
0.148767
0.148888
0.148799
0.148922
0.148829
0.148955
0.14886
0.148986
0.148912
0.149055
0.148989
0.149098
0.148975
0.149031
0.1489
0.14898
0.148864
0.148949
0.148831
0.148912
0.148798
0.148861
0.148774
0.148737
0.148428
0.142602
4.29277
4.89054
6.32602
4.10322
1.70809
0.779991
0.770597
0.696151
0.551203
0.460568
0.453641
0.400002
0.254599
0.175391
0.811424
2.12546
2.01333
1.80746
1.73143
1.75061
1.80471
1.90106
2.05187
2.14569
2.18328
2.18638
2.19205
2.73512
2.97412
2.45721
1.66759
1.11589
0.836135
0.672207
0.557082
0.458459
0.392204
0.308816
0.271382
0.230183
0.209885
0.202595
0.215498
0.273333
0.848722
1.77941
2.20838
2.44725
2.50709
2.36327
1.93345
1.46012
1.09405
0.864114
0.714955
0.610139
0.541623
0.482067
0.449162
0.416644
0.394372
0.374994
0.358868
0.343928
0.330942
0.321498
0.306083
0.297614
0.280659
0.268755
0.254321
0.240738
0.229108
0.21831
0.406569
0.41609
0.399041
0.378539
0.364637
0.348822
0.338743
0.32765
0.321462
0.313795
0.309658
0.305279
0.301514
0.299658
0.29618
0.295287
0.292417
0.292092
0.28984
0.289749
0.287885
0.287979
0.286466
0.286365
0.285464
0.284816
0.284326
0.283676
0.282861
0.282109
0.284101
0.284088
0.284185
0.283389
0.283485
0.282716
0.283036
0.282331
0.28265
0.28205
0.28238
0.281905
0.282197
0.281918
0.281957
0.28205
0.281727
0.281985
0.28162
0.281935
0.281573
0.281906
0.281577
0.281886
0.281595
0.281667
0.281862
0.281578
0.281737
0.280837
0.28086
0.281741
0.281523
0.281877
0.281516
0.281875
0.281513
0.281884
0.28151
0.281883
0.281534
0.281879
0.281633
0.281627
0.281896
0.281563
0.281902
0.281548
0.281883
0.28152
0.28189
0.281532
0.281913
0.281572
0.281924
0.281634
0.281865
0.281869
0.281587
0.281171
0.280852
0.281747
0.281579
0.281862
0.281737
0.281575
0.281878
0.281528
0.281878
0.281502
0.281878
0.281507
0.281888
0.281551
0.281898
0.281573
0.281907
0.281565
0.281899
0.28156
0.281912
0.281546
0.281895
0.281528
0.281881
0.281524
0.281872
0.281545
0.281757
0.280858
0.280924
0.281693
0.281774
0.281574
0.28189
0.281533
0.281893
0.281517
0.281883
0.281505
0.281891
0.28153
0.28191
0.281581
0.281923
0.281595
0.281922
0.281564
0.2819
0.281534
0.281897
0.28154
0.281915
0.281575
0.281926
0.281626
0.28189
0.281855
0.281595
0.281175
0.281125
0.28156
0.281917
0.281581
0.281925
0.281554
0.281904
0.281536
0.281894
0.281521
0.281902
0.28155
0.281916
0.281589
0.281926
0.281594
0.28192
0.281563
0.281899
0.281533
0.281895
0.281539
0.281914
0.281574
0.281926
0.281632
0.281888
0.281865
0.28159
0.281175
0.281074
0.281602
0.281656
0.281887
0.281551
0.281891
0.281526
0.281891
0.28151
0.281881
0.281517
0.28189
0.28155
0.281909
0.281581
0.281916
0.281596
0.28192
0.281644
0.281818
0.281849
0.281572
0.281908
0.281534
0.281882
0.281528
0.281879
0.281514
0.281751
0.280861
0.281151
0.281552
0.281928
0.281579
0.281923
0.281551
0.281907
0.281532
0.281893
0.281517
0.281899
0.281544
0.281913
0.281588
0.281926
0.281596
0.281923
0.281571
0.281901
0.281539
0.281899
0.281548
0.281917
0.281579
0.281929
0.281638
0.281865
0.281875
0.281589
0.281171
0.280827
0.281709
0.281619
0.281647
0.281822
0.281524
0.281883
0.28152
0.281883
0.281509
0.281894
0.281535
0.281916
0.2816
0.281897
0.281881
0.281619
0.281923
0.281542
0.281896
0.281508
0.28188
0.281512
0.281881
0.28152
0.281856
0.281603
0.281648
0.281692
0.280837
0.281144
0.281553
0.281931
0.28157
0.281932
0.281544
0.281924
0.281526
0.281906
0.281499
0.281906
0.281521
0.28193
0.281579
0.281947
0.281614
0.281956
0.281605
0.281936
0.281553
0.28192
0.281554
0.281936
0.281588
0.281942
0.281635
0.281865
0.281883
0.281576
0.281166
8.21898
8.58572
8.58881
8.20765
6.04553
3.3158
1.27401
1.13571
0.962263
0.859488
0.58088
0.582445
0.422512
0.230419
1.10893
2.08035
1.66067
1.5782
1.4354
1.36269
1.38934
1.5882
1.8603
2.07691
2.17917
2.18657
2.16539
2.13666
2.63154
3.12768
2.86393
2.29424
1.74944
1.37893
1.13866
0.95124
0.792159
0.660494
0.525365
0.421356
0.306746
0.248548
0.21034
0.191263
1.45286
2.40471
2.56118
2.71927
2.87786
2.96211
2.95249
2.73593
2.25112
1.77925
1.45704
1.24707
1.08569
0.979778
0.878839
0.828335
0.761705
0.728016
0.680978
0.653366
0.615351
0.589045
0.554233
0.533086
0.498688
0.478713
0.444812
0.421034
0.386371
0.360191
0.847037
0.895481
0.829755
0.7689
0.715047
0.677095
0.641578
0.617817
0.595346
0.579009
0.565416
0.552913
0.545648
0.534392
0.531281
0.522152
0.520362
0.51387
0.511792
0.508734
0.504746
0.504694
0.499679
0.500382
0.496154
0.495798
0.493081
0.491866
0.488813
0.478356
0.487512
0.497856
0.495032
0.495669
0.492794
0.493045
0.491388
0.491489
0.490428
0.490513
0.489891
0.489934
0.489624
0.489706
0.489356
0.489556
0.489312
0.489406
0.489213
0.489327
0.489193
0.489314
0.48923
0.48933
0.489274
0.489237
0.489384
0.489284
0.488677
0.477184
0.477118
0.48862
0.489235
0.489315
0.48925
0.489265
0.489228
0.489276
0.489236
0.489303
0.489275
0.489333
0.489297
0.489348
0.48937
0.489311
0.489359
0.489291
0.489305
0.489247
0.489294
0.489241
0.489296
0.489272
0.489321
0.489317
0.48934
0.489366
0.488702
0.477061
0.477189
0.488665
0.489296
0.489351
0.48922
0.489241
0.489282
0.489241
0.489274
0.489234
0.48929
0.489237
0.489326
0.489289
0.489345
0.489305
0.489358
0.489303
0.489334
0.489308
0.489355
0.489266
0.489294
0.489241
0.489272
0.48925
0.4893
0.489245
0.488645
0.477091
0.477187
0.488682
0.489244
0.489262
0.489303
0.489247
0.489282
0.489229
0.489274
0.489236
0.489309
0.489276
0.489366
0.489339
0.489395
0.489347
0.489385
0.489307
0.489326
0.489262
0.489306
0.489245
0.489298
0.489275
0.489329
0.48932
0.489361
0.489374
0.488707
0.477067
0.477083
0.488699
0.489331
0.489318
0.489336
0.489256
0.489286
0.489238
0.489279
0.489248
0.48932
0.489286
0.489367
0.489344
0.489395
0.489342
0.489378
0.489306
0.489324
0.489257
0.489304
0.489243
0.489296
0.489274
0.489328
0.48932
0.489366
0.489379
0.488705
0.477064
0.477044
0.488647
0.489317
0.489333
0.489278
0.489295
0.489235
0.489274
0.489221
0.489283
0.489247
0.489315
0.489294
0.489358
0.489317
0.489375
0.48933
0.489384
0.489344
0.489313
0.489324
0.489267
0.489308
0.489242
0.489271
0.489254
0.489314
0.489221
0.488623
0.477179
0.47702
0.488709
0.489358
0.489324
0.489342
0.489256
0.48929
0.489235
0.48928
0.489241
0.489311
0.489284
0.489368
0.489343
0.489392
0.489344
0.489381
0.489309
0.489329
0.489265
0.48931
0.489257
0.48931
0.48928
0.489326
0.48932
0.489345
0.489369
0.488705
0.477064
0.477165
0.488649
0.4893
0.489285
0.489238
0.489239
0.489281
0.489237
0.489281
0.489247
0.489319
0.489272
0.489369
0.489347
0.489387
0.48939
0.489362
0.48938
0.489278
0.489324
0.489244
0.489283
0.489235
0.489281
0.489247
0.489283
0.489307
0.489256
0.488649
0.477159
0.477024
0.488702
0.489354
0.489319
0.489341
0.489262
0.489297
0.48925
0.48929
0.48925
0.489318
0.489293
0.489396
0.489382
0.489467
0.489414
0.489471
0.489394
0.489412
0.489337
0.489361
0.489309
0.489351
0.48932
0.489362
0.489301
0.489339
0.489362
0.48866
0.477037
8.41493
8.44643
8.4691
7.89694
6.5483
5.06795
1.90679
1.40473
1.34824
1.23114
1.01348
0.852543
0.561787
0.323846
1.54175
1.41433
1.59747
1.17976
1.08662
1.08912
1.17205
1.34471
1.57002
1.94371
2.14457
2.19189
2.17019
2.1114
2.09264
2.74036
3.19298
3.07366
2.77389
2.35906
2.00817
1.73022
1.51997
1.28283
1.07997
0.861164
0.658731
0.451774
0.309189
0.218864
1.9811
2.12292
1.93041
2.17161
2.66694
2.97779
3.02224
3.03444
2.98316
2.72815
2.37144
2.10171
1.88885
1.73715
1.59228
1.50302
1.42165
1.35644
1.29833
1.25627
1.20084
1.1646
1.11715
1.0722
1.0218
0.961747
0.897145
0.817172
0.725281
0.633999
1.62371
1.71078
1.60634
1.46696
1.36079
1.28033
1.22684
1.17955
1.15302
1.12254
1.1066
1.08722
1.07483
1.06392
1.05254
1.04701
1.03733
1.03298
1.02798
1.0224
1.01946
1.01574
1.01187
1.00949
1.00618
1.00287
1.00004
0.995865
0.990535
0.990122
1.01454
1.00463
1.00287
0.998948
0.998113
0.99524
0.995082
0.992927
0.993073
0.991474
0.991679
0.990546
0.990669
0.990024
0.989847
0.989708
0.989344
0.989382
0.988962
0.989135
0.988766
0.988934
0.988605
0.98881
0.988655
0.988643
0.988876
0.988671
0.988835
0.9939
0.993866
0.988828
0.98862
0.988807
0.988562
0.988717
0.988487
0.988669
0.988451
0.988664
0.988473
0.988581
0.988512
0.988539
0.98856
0.988451
0.988576
0.988444
0.988606
0.98844
0.988655
0.988457
0.988685
0.988528
0.988752
0.988649
0.988755
0.98878
0.988802
0.993795
0.993899
0.988777
0.988662
0.98877
0.988579
0.988548
0.988678
0.988462
0.988641
0.988434
0.988622
0.98841
0.988587
0.988441
0.988564
0.988473
0.98859
0.988471
0.988632
0.988508
0.988702
0.988495
0.988685
0.988499
0.988722
0.988578
0.988781
0.988609
0.988851
0.993827
0.993919
0.988716
0.988635
0.988658
0.98877
0.988527
0.988689
0.988446
0.988653
0.988435
0.988637
0.988449
0.98862
0.988477
0.988603
0.988499
0.988605
0.988461
0.98862
0.988449
0.988659
0.988458
0.988686
0.988528
0.988763
0.988663
0.988797
0.988788
0.988809
0.993803
0.9938
0.988817
0.988842
0.988682
0.988805
0.988537
0.988704
0.98846
0.988653
0.98845
0.988645
0.988458
0.988617
0.988481
0.988605
0.988493
0.988594
0.988456
0.988617
0.988442
0.988656
0.988454
0.988684
0.988525
0.98876
0.988653
0.988788
0.988794
0.988806
0.993799
0.993716
0.988774
0.988716
0.988812
0.988602
0.988726
0.988484
0.988657
0.988437
0.988634
0.98843
0.988612
0.988452
0.988589
0.988479
0.988598
0.988492
0.988618
0.988567
0.988553
0.988603
0.988515
0.988696
0.988498
0.988727
0.988578
0.988812
0.988584
0.988791
0.993892
0.993742
0.988771
0.988851
0.988682
0.988807
0.988531
0.988697
0.988447
0.988648
0.988442
0.988641
0.988455
0.988618
0.988481
0.988604
0.988499
0.988598
0.988465
0.988622
0.988452
0.98867
0.988477
0.988695
0.988537
0.98876
0.988657
0.988762
0.988789
0.988809
0.993801
0.99387
0.988744
0.988701
0.988632
0.988677
0.988532
0.988698
0.98846
0.988664
0.988454
0.988653
0.988434
0.988636
0.988496
0.988587
0.988559
0.988509
0.988625
0.988442
0.988652
0.988454
0.988664
0.988454
0.988692
0.988526
0.988726
0.988686
0.988676
0.988719
0.993882
0.99376
0.988784
0.988873
0.988666
0.988852
0.988529
0.988762
0.988451
0.988714
0.988422
0.988681
0.988419
0.988651
0.988465
0.988645
0.988497
0.988605
0.988445
0.988619
0.988424
0.988654
0.988421
0.988677
0.988467
0.988745
0.988579
0.988699
0.98871
0.988713
0.993758
8.49873
8.50709
7.93248
6.92788
6.0284
4.09076
1.60703
1.51805
1.45267
1.41339
1.22343
0.865124
0.654404
0.478554
1.66336
1.27025
0.743926
0.968741
1.02148
1.08007
1.14174
1.25649
1.47404
1.77126
2.09588
2.18779
2.1591
2.11448
2.05665
2.03422
2.82936
3.2065
3.17098
3.0625
2.85942
2.61201
2.37415
2.13084
1.86248
1.57847
1.24181
0.894136
0.508408
0.245974
1.61662
1.2549
1.19757
1.58274
2.28715
2.89058
3.01697
2.97601
3.00851
3.0325
2.93609
2.78683
2.63465
2.5007
2.36023
2.2627
2.1539
2.08765
2.00356
1.9474
1.87365
1.81642
1.74116
1.6772
1.60584
1.52437
1.43026
1.30242
1.13459
0.978064
2.27539
2.41869
2.38457
2.24183
2.08978
1.97837
1.89725
1.83507
1.78593
1.74773
1.71387
1.69065
1.6649
1.65055
1.62988
1.61993
1.6057
1.59613
1.58778
1.5786
1.57393
1.56403
1.56222
1.55256
1.55064
1.54084
1.5375
1.52704
1.51995
1.5127
1.56595
1.55996
1.54457
1.54395
1.53574
1.53549
1.53083
1.53087
1.52792
1.52802
1.52615
1.52623
1.52503
1.52528
1.52421
1.52472
1.52387
1.52429
1.52366
1.52406
1.52356
1.5239
1.52351
1.52389
1.52351
1.52358
1.52328
1.52299
1.52258
1.52749
1.52735
1.52255
1.52284
1.52323
1.52343
1.52354
1.52364
1.52363
1.52366
1.52369
1.52371
1.52367
1.5237
1.5237
1.52366
1.52365
1.52365
1.52366
1.52366
1.52366
1.52365
1.52362
1.52363
1.52364
1.52357
1.52343
1.52319
1.52285
1.52259
1.52725
1.52744
1.52254
1.52286
1.52324
1.52331
1.52351
1.52365
1.52361
1.52363
1.52363
1.52366
1.52364
1.52364
1.52364
1.52362
1.52366
1.52365
1.52368
1.52371
1.52376
1.52375
1.52369
1.52367
1.52364
1.52353
1.52343
1.52318
1.5228
1.52254
1.5273
1.52742
1.52254
1.52273
1.52321
1.52343
1.52354
1.52362
1.52362
1.52363
1.52365
1.52368
1.5237
1.52369
1.52369
1.52368
1.5237
1.52367
1.52368
1.52368
1.52368
1.52366
1.52364
1.52364
1.52365
1.52358
1.52346
1.52324
1.52287
1.5226
1.52727
1.52733
1.52262
1.52286
1.52326
1.52344
1.52354
1.52362
1.52362
1.52363
1.52366
1.52369
1.5237
1.52368
1.52369
1.52367
1.52369
1.52367
1.52368
1.52367
1.52368
1.52365
1.52363
1.52363
1.52365
1.52358
1.52344
1.52323
1.52286
1.52259
1.52727
1.52719
1.5226
1.52285
1.52321
1.52344
1.52351
1.5236
1.52359
1.52361
1.52362
1.52365
1.52366
1.52366
1.52364
1.52367
1.52367
1.52368
1.52372
1.52374
1.52372
1.52369
1.5237
1.52366
1.52365
1.52354
1.52344
1.5232
1.52279
1.5225
1.52739
1.52721
1.52259
1.52287
1.52326
1.52343
1.52353
1.52362
1.52361
1.52362
1.52365
1.52368
1.52369
1.52368
1.52369
1.52367
1.52369
1.52368
1.52368
1.52368
1.52369
1.52368
1.52365
1.52365
1.52366
1.52359
1.52345
1.5232
1.52287
1.52261
1.52726
1.52742
1.52253
1.52289
1.52316
1.52338
1.52353
1.52365
1.52363
1.52365
1.52367
1.52369
1.52368
1.52369
1.5237
1.52369
1.52369
1.5237
1.5237
1.52369
1.5237
1.52368
1.52367
1.52365
1.52366
1.52356
1.52345
1.52327
1.52287
1.5225
1.52742
1.52731
1.52262
1.52288
1.52325
1.52343
1.52358
1.52364
1.52367
1.52366
1.5237
1.52368
1.52372
1.52373
1.52375
1.52374
1.52375
1.52372
1.52371
1.52372
1.52373
1.52372
1.52371
1.52369
1.52364
1.52355
1.52333
1.52291
1.52201
1.5207
1.52537
8.50864
8.12565
7.11656
6.53132
5.80415
3.60144
1.74986
1.67043
1.6577
1.68275
1.49466
1.17235
0.830522
0.419629
0.416813
0.497295
1.12136
1.02565
0.702929
0.762513
1.03676
1.29979
1.39145
1.42567
1.5585
1.81563
2.07637
2.17881
2.15955
2.11082
2.05335
1.99172
1.94601
2.77552
3.1623
3.17168
3.17326
3.11896
3.02362
2.90375
2.73591
2.47929
2.13279
1.62086
1.01444
0.436602
0.299704
0.386899
0.558183
0.707513
1.07775
1.73549
2.48332
2.93356
3.01041
2.92117
2.90073
2.96892
3.02569
3.01819
2.97613
2.93753
2.87767
2.81493
2.77928
2.72232
2.69359
2.65925
2.62
2.58319
2.539
2.49355
2.42542
2.34865
2.23981
2.0884
1.90002
1.59432
1.81793
2.12645
2.49009
2.72316
2.76056
2.71972
2.65037
2.60114
2.55769
2.52242
2.49556
2.46714
2.45241
2.42932
2.4186
2.40363
2.39111
2.38472
2.3712
2.36913
2.35638
2.3555
2.34584
2.34244
2.33694
2.3326
2.32744
2.32343
2.31648
2.31106
2.29926
2.30348
2.33631
2.33778
2.35034
2.32454
2.32091
2.31244
2.31195
2.30755
2.30738
2.30413
2.30432
2.30202
2.30217
2.30055
2.30066
2.29951
2.2995
2.29879
2.29872
2.29825
2.2981
2.29777
2.29759
2.29743
2.29719
2.29716
2.29685
2.29672
2.29655
2.29663
2.29759
2.31568
2.33081
2.33081
2.31562
2.29755
2.29648
2.29646
2.29656
2.29667
2.29675
2.29678
2.29678
2.29679
2.29682
2.29681
2.29683
2.29685
2.2968
2.29681
2.29681
2.29682
2.29681
2.29678
2.29677
2.29677
2.29678
2.29675
2.29667
2.29657
2.29641
2.29646
2.29756
2.31552
2.33078
2.33078
2.31563
2.29752
2.29649
2.29645
2.29647
2.29667
2.29675
2.29676
2.29678
2.29676
2.29679
2.2968
2.29681
2.29681
2.29679
2.29681
2.29681
2.29683
2.29683
2.29683
2.29682
2.29682
2.2968
2.29675
2.29666
2.29656
2.29645
2.29645
2.29754
2.31559
2.33078
2.33078
2.31559
2.29751
2.2964
2.29645
2.29654
2.29665
2.29674
2.29676
2.29678
2.29676
2.29679
2.29682
2.29682
2.29683
2.29681
2.29682
2.29682
2.29682
2.29681
2.29679
2.29677
2.29677
2.29678
2.29675
2.29667
2.29657
2.29644
2.29648
2.29757
2.31554
2.33079
2.33079
2.31556
2.29758
2.29648
2.29646
2.29654
2.29666
2.29675
2.29677
2.29678
2.29677
2.29679
2.29681
2.29681
2.29683
2.2968
2.29681
2.29681
2.29681
2.29681
2.29679
2.29677
2.29677
2.29677
2.29675
2.29667
2.29657
2.29643
2.29647
2.29756
2.31555
2.33078
2.33078
2.31551
2.29756
2.29649
2.29645
2.29655
2.29664
2.29674
2.29675
2.29676
2.29675
2.29678
2.29681
2.29682
2.29681
2.29682
2.29681
2.29683
2.29683
2.29688
2.29679
2.2968
2.29681
2.29682
2.29675
2.29669
2.29654
2.29646
2.29646
2.29753
2.31561
2.33078
2.33078
2.31551
2.29756
2.29648
2.29646
2.29652
2.29665
2.29674
2.29676
2.29677
2.29676
2.29679
2.29681
2.29681
2.29682
2.2968
2.29682
2.29682
2.29682
2.29682
2.2968
2.29679
2.29678
2.29679
2.29676
2.29668
2.29659
2.29642
2.29648
2.29758
2.31554
2.33078
2.33078
2.31561
2.29749
2.2965
2.29641
2.29654
2.29666
2.29676
2.29676
2.29679
2.29677
2.29679
2.29681
2.29682
2.29682
2.29682
2.29681
2.29683
2.29682
2.29682
2.2968
2.29677
2.29679
2.29676
2.29676
2.29666
2.29656
2.29649
2.29651
2.29754
2.31565
2.33078
2.33078
2.31556
2.2976
2.29651
2.29644
2.29655
2.29665
2.29679
2.29676
2.29677
2.29673
2.29676
2.29675
2.29678
2.29678
2.29679
2.29681
2.29683
2.29684
2.29685
2.29681
2.29682
2.29677
2.29679
2.29671
2.29666
2.29659
2.29645
2.29652
2.2976
2.31548
2.32993
2.31655
6.65426
6.61861
6.06113
5.6801
5.90248
5.99267
5.33043
3.00743
1.98986
2.01324
2.00792
1.86235
1.31141
0.557567
0.882559
1.02372
0.724133
0.677154
0.719261
1.14975
1.68718
1.86244
1.84826
1.81286
1.88407
2.05264
2.15782
2.16983
2.12882
2.07096
2.03285
1.9695
1.91422
1.87127
2.75798
3.08673
3.10943
3.14478
3.16936
3.17188
3.14413
3.07359
2.92819
2.62322
2.15199
1.34744
0.814145
0.789722
0.878285
1.2328
1.82605
2.4722
2.89133
3.00332
2.95033
2.85086
2.79803
2.83314
2.9045
2.95837
2.98521
2.99014
2.98657
2.96088
2.96748
2.94063
2.928
2.91982
2.90197
2.89127
2.86928
2.85146
2.81756
2.79888
2.74312
2.70613
2.6359