/*--------------------------------*- C++ -*----------------------------------*\
| =========                 |                                                 |
| \\      /  F ield         | OpenFOAM: The Open Source CFD Toolbox           |
|  \\    /   O peration     | Version:  2.1.1                                 |
|   \\  /    A nd           | Web:      www.OpenFOAM.org                      |
|    \\/     M anipulation  |                                                 |
\*---------------------------------------------------------------------------*/
FoamFile
{
    version     2.0;
    format      ascii;
    class       volScalarField;
    location    "0.001400000";
    object      T;
}
// * * * * * * * * * * * * * * * * * * * * * * * * * * * * * * * * * * * * * //

dimensions      [0 0 0 1 0 0 0];

internalField   nonuniform List<scalar> 
12384
(
810.809
627.092
440.147
360.19
346.992
339.679
339.693
337.837
334.827
336.369
334.54
335.565
335.37
335.291
342.362
343.681
341.68
340.844
337.326
336.236
334.735
333.501
332.774
334.712
336.319
338.497
339.276
339.068
338.675
337.674
336.547
336.333
333.996
331.292
331.247
326.954
335.92
332.826
341.893
344.576
347.212
345.494
344.473
342.881
317.849
317.498
317.865
317.841
317.956
317.213
316.751
316.683
315.735
315.097
315.186
314.241
314.58
314.247
314.564
314.551
314.553
314.341
313.234
312.846
312.36
310.601
311.091
310.111
309.851
310.034
309.928
309.99
310.14
310.202
299.584
299.44
299.356
299.174
299.2
298.894
298.705
298.709
298.219
298.304
297.682
297.819
297.24
297.101
296.765
296.819
296.214
296.47
295.812
296.09
295.508
295.591
295.459
295.17
295.235
295.129
294.977
295.046
294.928
294.965
293.266
293.226
293.246
293.223
293.223
293.193
293.187
293.161
293.162
293.128
293.137
293.102
293.11
293.077
293.087
293.056
293.065
293.038
293.047
293.026
293.03
293.013
293.017
293.005
293.009
293.002
293.004
292.999
293.001
292.997
292.997
292.996
292.997
292.997
292.998
292.997
292.997
292.998
292.997
292.997
292.998
292.998
292.998
292.997
292.998
292.997
292.997
292.997
292.998
292.998
292.997
292.997
292.998
292.997
292.998
292.998
292.996
292.998
292.997
292.997
292.997
292.997
292.997
292.997
292.998
292.997
292.997
292.997
292.998
292.997
292.999
292.998
292.997
292.997
292.997
292.997
292.997
292.997
292.998
292.998
292.997
292.997
292.998
292.997
292.998
292.998
292.997
292.997
292.996
292.997
292.997
292.997
292.997
292.997
292.998
292.997
292.997
292.997
292.998
292.997
292.999
292.998
292.997
292.997
292.997
292.997
292.997
292.997
292.998
292.998
292.997
292.997
292.998
292.997
292.997
292.998
292.997
292.998
292.997
292.997
292.998
292.997
292.997
292.997
292.999
292.997
292.997
292.997
292.998
292.997
292.999
292.998
292.997
292.997
292.997
292.997
292.997
292.997
292.998
292.998
292.997
292.997
292.998
292.997
292.997
292.998
292.996
292.998
292.997
292.997
292.998
292.998
292.997
292.997
292.998
292.998
292.997
292.998
292.997
292.997
292.998
292.998
292.997
292.997
292.997
292.998
292.997
292.997
292.998
292.998
292.997
292.997
292.998
292.997
292.997
292.999
292.997
292.997
292.997
292.997
292.997
292.997
292.997
292.997
292.998
292.997
292.997
292.997
292.998
292.997
292.999
292.998
292.997
292.997
292.997
292.997
292.997
292.997
292.999
292.998
292.997
292.997
292.998
292.997
292.997
292.998
292.997
292.998
292.997
292.997
292.996
292.997
292.997
292.997
292.998
292.997
292.997
292.997
292.997
292.997
292.999
292.999
292.998
292.998
292.998
292.997
292.998
292.998
292.999
292.999
292.998
292.998
292.998
292.997
292.997
292.999
292.997
292.998
292.997
292.997
292.997
292.996
292.997
292.997
292.999
292.997
292.998
292.998
292.998
292.998
292.999
292.999
292.998
292.998
293
292.999
293
292.998
292.998
292.998
292.998
292.998
292.999
292.998
292.998
292.998
292.998
292.998
292.998
292.998
1832.62
1857.2
783.835
457.567
365.192
347.274
338.411
334.782
335.689
334.009
334.23
334.526
334.606
335.812
343.08
338.059
337.066
333.811
332.663
330.849
330.419
331.097
332.017
332.164
333.815
335.129
336.032
337.377
337.162
335.611
336.983
334.463
333.736
332.02
331.245
329.327
335.189
333.094
340.186
345.067
346.399
346.31
344.746
342.79
316.632
317.523
317.736
317.968
318.129
317.814
317.681
317.15
317.014
315.687
315.108
315.136
314.398
314.627
314.437
314.501
314.318
313.76
313.932
312.259
312.385
311.337
310.429
310.6
309.86
309.74
309.879
309.865
309.986
310.039
299.4
299.413
299.428
299.388
299.107
299.086
298.73
298.685
298.416
298.052
298.077
297.408
297.697
296.793
297.218
296.427
296.601
296.147
296.114
295.814
295.678
295.516
295.412
295.251
295.158
295.116
295.017
294.983
294.958
294.876
293.235
293.27
293.241
293.239
293.213
293.199
293.194
293.161
293.162
293.126
293.134
293.098
293.108
293.073
293.08
293.06
293.051
293.044
293.027
293.03
293.007
293.02
292.994
293.01
292.99
292.991
293
292.98
292.994
292.982
292.981
292.991
292.977
292.997
292.978
292.998
292.979
292.997
292.979
292.997
292.979
292.995
292.983
292.984
292.996
292.981
292.996
292.98
292.997
292.979
292.998
292.979
292.998
292.979
292.998
292.981
292.994
292.995
292.985
292.993
292.98
292.991
292.977
292.995
292.99
292.98
292.997
292.979
292.998
292.978
292.997
292.98
292.997
292.981
292.996
292.981
292.996
292.981
292.997
292.979
292.997
292.979
292.997
292.979
292.997
292.978
292.997
292.978
292.991
292.981
292.983
292.987
292.991
292.979
292.997
292.978
292.998
292.979
292.998
292.978
292.997
292.979
292.997
292.981
292.997
292.981
292.997
292.98
292.997
292.979
292.998
292.979
292.998
292.979
292.998
292.981
292.995
292.994
292.986
292.993
292.993
292.984
292.999
292.978
292.998
292.978
292.998
292.979
292.998
292.979
292.998
292.979
292.997
292.981
292.997
292.981
292.997
292.98
292.997
292.979
292.998
292.979
292.998
292.979
292.998
292.981
292.994
292.995
292.986
292.993
292.988
292.988
292.982
292.996
292.979
292.998
292.979
292.998
292.979
292.998
292.979
292.997
292.98
292.997
292.981
292.997
292.981
292.997
292.982
292.993
292.996
292.98
292.997
292.979
292.997
292.978
292.997
292.977
292.991
292.98
292.992
292.984
292.999
292.979
292.998
292.979
292.999
292.978
292.998
292.979
292.997
292.979
292.997
292.981
292.997
292.981
292.997
292.98
292.997
292.979
292.998
292.979
292.998
292.979
292.998
292.981
292.994
292.995
292.986
292.993
292.979
292.989
292.978
292.984
292.995
292.978
292.997
292.979
292.998
292.979
292.998
292.98
292.998
292.982
292.995
292.995
292.982
292.998
292.98
292.998
292.979
292.998
292.979
292.998
292.979
292.996
292.981
292.982
292.988
292.979
292.992
292.984
293
292.979
292.999
292.978
292.999
292.978
293
292.978
293
292.979
292.999
292.981
292.998
292.982
292.998
292.981
292.998
292.98
292.999
292.98
293
292.979
292.999
292.981
292.993
292.996
292.986
292.994
1407.74
1505.75
917.382
640.006
511.864
438.636
384.512
353.475
335.585
333.426
334.028
334.611
334.932
334.147
337.369
334.9
327.874
329.015
344.281
358.57
375.723
376.36
363.386
350.881
340.278
331.474
332.306
333.795
334.627
336.153
334.737
333.543
333.499
332.29
332.593
331.499
335.31
333.077
340.25
343.336
344.734
345.195
343.952
342.07
317.104
316.637
317.154
317.808
317.946
318.748
318.625
318.357
317.567
317.127
316.238
315.104
315.389
314.393
314.555
314.073
313.7
313.807
313.283
312.624
311.822
311.951
310.216
310.695
309.919
309.712
309.778
309.706
309.785
309.88
299.744
299.727
299.602
299.338
299.369
298.994
298.938
298.584
298.549
298.033
298.133
297.498
297.617
297.007
297.049
296.574
296.582
296.127
296.125
295.817
295.635
295.609
295.308
295.35
295.087
295.102
295.003
294.929
294.94
294.902
293.328
293.276
293.302
293.257
293.262
293.217
293.22
293.181
293.184
293.143
293.15
293.113
293.121
293.086
293.097
293.064
293.074
293.044
293.055
293.031
293.04
293.023
293.027
293.02
293.015
293.016
293.013
293.013
293.011
293.014
293.012
293.009
293.01
293.01
293.009
293.008
293.011
293.01
293.01
293.009
293.009
293.009
293.009
293.009
293.01
293.01
293.009
293.009
293.009
293.01
293.009
293.01
293.01
293.01
293.008
293.01
293.01
293.01
293.01
293.011
293.012
293.009
293.009
293.009
293.01
293.009
293.01
293.011
293.01
293.009
293.01
293.009
293.009
293.009
293.009
293.01
293.009
293.009
293.009
293.01
293.009
293.011
293.01
293.01
293.008
293.01
293.01
293.01
293.009
293.011
293.011
293.01
293.009
293.01
293.009
293.009
293.01
293.011
293.01
293.009
293.01
293.009
293.009
293.009
293.009
293.009
293.009
293.009
293.009
293.01
293.009
293.01
293.01
293.011
293.009
293.01
293.01
293.01
293.01
293.011
293.01
293.011
293.01
293.01
293.01
293.009
293.01
293.011
293.01
293.009
293.009
293.009
293.009
293.009
293.009
293.009
293.009
293.009
293.009
293.01
293.009
293.01
293.01
293.011
293.008
293.01
293.01
293.01
293.01
293.011
293.011
293.01
293.01
293.01
293.01
293.008
293.011
293.01
293.01
293.009
293.01
293.009
293.009
293.009
293.01
293.009
293.009
293.009
293.01
293.011
293.009
293.011
293.01
293.01
293.008
293.009
293.01
293.01
293.009
293.012
293.01
293.011
293.01
293.01
293.009
293.009
293.01
293.011
293.01
293.009
293.009
293.009
293.009
293.009
293.01
293.009
293.009
293.009
293.009
293.01
293.009
293.01
293.01
293.01
293.009
293.01
293.01
293.01
293.01
293.011
293.011
293.009
293.009
293.009
293.009
293.008
293.01
293.011
293.01
293.009
293.01
293.01
293.009
293.009
293.01
293.01
293.009
293.009
293.01
293.01
293.009
293.01
293.011
293.01
293.009
293.009
293.01
293.009
293.009
293.012
293.011
293.01
293.01
293.01
293.009
293.01
293.01
293.011
293.01
293.01
293.011
293.01
293.01
293.01
293.011
293.01
293.01
293.011
293.01
293.01
293.01
293.01
293.011
293.01
293.009
293.011
293.011
293.01
293.011
293.012
1501.81
1690.67
1699.31
1653.59
1520.06
1492.83
962.169
687.782
481.273
362.825
333.54
333.19
334.225
334.261
336.103
329.738
341.414
449.335
709.684
819.542
933.216
963.112
835.522
720.654
599.451
432.436
354.763
331.672
332.802
333.265
334.13
334.198
333.225
333.229
333.396
333.886
335.528
333.891
339.108
341.167
343.822
344.281
344.015
342.102
315.465
316.182
316.864
317.364
318.556
318.876
319.516
319.586
319.435
318.383
317.671
316.475
315.23
315.361
313.982
313.948
313.711
313.115
312.866
312.961
311.878
312.067
310.824
310.534
310.044
309.998
309.48
309.732
309.606
309.455
299.587
299.601
299.487
299.636
299.265
299.27
298.791
298.818
298.456
298.047
298.178
297.511
297.697
297.015
297.195
296.524
296.668
296.19
296.007
295.917
295.588
295.618
295.243
295.403
295.013
295.154
294.933
294.911
294.9
294.857
293.271
293.327
293.274
293.307
293.239
293.253
293.207
293.208
293.166
293.164
293.132
293.129
293.104
293.1
293.078
293.079
293.056
293.059
293.036
293.041
293.02
293.028
293.01
293.013
293.005
293.004
293.007
293.001
293.003
293.001
292.998
293
292.998
293
292.998
293
292.999
293.001
292.999
293.001
292.999
293.001
292.999
293
293.002
292.999
293.002
292.999
293.001
292.998
293.001
292.999
293.001
292.999
293
292.999
293
293.001
292.999
293
292.998
293
292.998
293
292.999
292.998
293.001
292.999
293.001
292.999
293.001
292.998
293.001
292.999
293.002
293
293.001
292.999
293.001
292.999
293.001
292.999
293.001
292.999
293
292.998
293
292.998
293
292.998
292.998
292.999
293
292.998
293.001
292.998
293.001
292.999
293.001
292.998
293.001
292.998
293.002
292.999
293.002
293
293.002
292.999
293.001
292.998
293.001
292.999
293.001
292.998
293
292.999
293
293.001
292.999
293.001
293
292.999
293.001
292.998
293.001
292.998
293.001
292.999
293.001
292.998
293.001
292.999
293.002
292.999
293.001
292.999
293.002
292.999
293.001
292.998
293.001
292.999
293.001
292.999
293
292.999
293
293.001
292.999
293
292.999
293
292.999
293
292.998
293.001
292.998
293.001
292.999
293.001
292.998
293.001
292.999
293.001
292.999
293.001
293
293.001
293
293.001
293.001
292.999
293.001
292.999
293
292.998
293.001
292.998
292.999
292.998
293
292.999
293.001
292.998
293
292.998
293.001
292.998
293.001
292.998
293.001
292.998
293.002
292.999
293.002
293
293.002
292.999
293.001
292.998
293.001
292.999
293.001
292.999
293
292.999
293
293.001
292.999
293
292.997
293
292.998
292.999
293
292.998
293.001
292.999
293.001
292.999
293.002
292.999
293.002
292.999
293.002
293.001
293
293.002
292.999
293.002
292.999
293.001
292.999
293.001
292.998
293.001
292.998
292.998
292.999
292.997
293
292.999
293.001
292.998
293.001
292.997
293.001
292.999
293.002
292.999
293.002
292.999
293.002
292.999
293.001
292.999
293.001
292.999
293.001
292.999
293.002
292.999
293.002
292.999
293
292.999
293
293.001
292.999
293
2160.31
2258.26
2344.46
2298.38
2174.9
2089.24
2072.95
1991.13
1824.33
868.049
443.8
347.395
333.092
333.992
331.282
334.474
489.707
1336.05
2504.5
2423.99
2421.08
2398.23
2347.94
2303.24
2255.07
1302.6
677.129
410.747
336.72
332.322
333.025
334.369
334.109
333.875
334.647
334.306
336.258
335.304
339.048
338.605
341.88
342.856
343.438
343.246
314.513
314.433
315.426
316.922
318.059
319.322
320.063
320.501
320.205
319.9
318.707
317.787
316.237
314.861
314.885
313.219
313.489
312.82
312.922
312.523
312.203
312.097
310.912
311.155
309.744
310.261
309.48
309.286
308.883
309.155
299.964
300.073
300.034
299.647
299.603
299.221
299.216
298.681
298.768
298.135
298.17
297.773
297.43
297.388
296.859
296.883
296.384
296.447
295.944
296.082
295.515
295.756
295.191
295.416
295.036
295.048
294.978
294.878
294.8
294.844
293.424
293.366
293.378
293.306
293.316
293.252
293.253
293.204
293.202
293.157
293.157
293.119
293.121
293.092
293.094
293.066
293.074
293.047
293.054
293.031
293.034
293.018
293.022
293.008
293.014
293.005
293.006
293.005
293.002
293.004
293.001
292.997
293.002
292.997
293.002
292.997
293.001
292.996
293.002
292.997
293.002
292.997
293.001
293.001
292.997
293.002
292.997
293.002
292.996
293.002
292.997
293.002
292.996
293.001
292.996
293.001
292.998
292.998
293
292.996
293.001
292.998
293.002
292.998
292.999
293.001
292.997
293.001
292.997
293.002
292.997
293.001
292.997
293.001
292.997
293.001
292.997
293.001
292.996
293.002
292.997
293.002
292.997
293.001
292.997
293.002
292.997
293.002
292.997
293
293
292.999
292.998
293.001
292.997
293.002
292.996
293.001
292.997
293.002
292.997
293.002
292.997
293.001
292.997
293.001
292.997
293.002
292.996
293.002
292.997
293.002
292.996
293.001
292.997
293.001
292.997
292.998
293
292.996
292.997
293.001
292.996
293.001
292.997
293.002
292.996
293.001
292.997
293.002
292.997
293.001
292.997
293.001
292.997
293.001
292.997
293.002
292.996
293.002
292.997
293.002
292.996
293.001
292.997
293.001
292.997
292.998
293
292.996
292.997
292.999
293
292.997
293.002
292.996
293.001
292.996
293.002
292.997
293.002
292.997
293.002
292.997
293.001
292.997
293.001
292.997
293
292.998
292.998
293.002
292.997
293.001
292.997
293.002
292.997
293.002
292.997
293.001
292.996
293
292.996
293.001
292.996
293.002
292.996
293.001
292.997
293.002
292.997
293.002
292.997
293.001
292.997
293.001
292.997
293.002
292.996
293.002
292.997
293.002
292.996
293.001
292.997
293.001
292.998
292.998
293
292.996
293.001
292.998
293.001
293
292.998
293.002
292.996
293.001
292.997
293.002
292.997
293.001
292.997
293.001
292.997
292.998
293.002
292.997
293.001
292.997
293.002
292.997
293.001
292.997
293.002
292.998
293.001
293
292.999
293.001
292.996
293
292.996
293.001
292.996
293.002
292.996
293.001
292.996
293.002
292.997
293.002
292.997
293.002
292.997
293.002
292.997
293.002
292.997
293.002
292.997
293.002
292.996
293.001
292.997
293
292.998
292.997
292.999
292.996
2378.25
2386.41
2387.78
2400.47
2428.37
2453.94
2443.61
2339.1
2190.45
2093.32
1820.82
735.551
352.268
334.992
328.77
368.565
976.875
2532.67
2375.75
2353.79
2359.78
2440.12
2441.17
2361.92
2269.25
2201.82
2127.56
991.847
428.566
335.469
332.906
333.368
334.868
334.797
334.491
334.461
336.411
336.08
338.175
338.651
340.161
342.048
342.225
340.907
312.089
312.941
314.519
315.599
317.313
319.008
320.461
321.145
321.252
320.543
319.911
318.468
317.232
315.893
313.999
314.26
312.708
313.017
312.487
312.56
312.291
311.823
311.516
310.869
310.271
309.605
309.833
308.857
309.056
308.756
299.849
300.163
299.958
299.951
299.751
299.557
299.139
299.12
298.562
298.63
297.969
298.08
297.541
297.365
297.116
296.821
296.661
296.231
296.312
295.801
295.792
295.576
295.302
295.352
295.026
295.051
294.963
294.8
294.8
294.719
293.395
293.425
293.364
293.387
293.315
293.318
293.253
293.251
293.197
293.193
293.146
293.146
293.11
293.111
293.082
293.086
293.06
293.065
293.043
293.048
293.028
293.034
293.016
293.021
293.008
293.013
293.005
293.007
293.004
293.004
293
293
293
293.001
293
293.001
293
293.001
293
293.001
293
293.001
293.001
293
293
293
293
293
293
293
293.001
293
293.002
292.999
293
292.999
293
293
292.999
293.001
292.999
293
293
293
293.001
293
293
293.001
293.001
293.001
293
293
293
293
293
293
293
293
293
293
293.001
293
293.001
293
293.001
293
293
293
293
293
293
293
293
293
293
293
293.001
293.001
293.001
293
293
293
293
293
293
293
293
293
293
293
293.001
293
293.002
292.999
293
292.999
293
293
293
293.001
293.001
292.999
293
292.999
293
292.999
293.001
293.001
293.001
293
293
293
293
293
293
293
293
293
293
293
293.001
293
293.002
292.999
293
292.999
293
293
292.999
293.001
293
293
293
293.001
293
293.001
293
293.001
293
293.001
293
293
293
293
293
293
293
293
293
293
293
293.001
293.001
293
293.001
293
293
293
293
292.999
293.001
292.999
293
292.999
293.001
292.999
293.001
293.001
293.001
293
293
293
293
293
293
293
293
293
293
293
293.001
293
293.002
292.999
293
292.999
293
293
293
293.001
292.999
293
293
293
293
293
293.001
293.001
293.002
293.001
293.001
293
293
293
293
293.001
293.001
293.001
293
293.001
293
293.002
293.001
293.001
293
293
293
293
293
292.999
293.001
292.999
293
292.999
293.001
293
293.001
293
293.001
293
293.001
293
293.002
293.001
293.002
293
293
293.001
293.002
293
293.001
293
293.001
292.999
293
292.999
293
293
292.999
293.002
2386.31
2388
2406.87
2446.86
2492.32
2533.43
2546.66
2495.41
2445.31
2361.89
2200.47
2047.27
467.182
336.079
330.513
508.632
2449.35
2225.74
2187.14
2191.78
2243.73
2346.51
2451.17
2429.24
2325.2
2219.72
2133.11
2059.09
905.647
413.406
334.266
333.238
334.308
335.658
335.101
334.378
336.142
335.978
337.997
338.305
338.903
338.49
338.882
340.482
312.057
311.385
313.648
315.81
316.776
318.901
320.237
321.335
321.668
321.272
320.234
319.551
317.586
316.892
314.01
314.457
313.061
312.428
312.702
312.275
312.107
311.824
311.72
310.489
311.003
309.084
309.802
308.481
308.068
307.749
300.645
300.553
300.462
300.23
299.962
299.754
299.492
298.997
298.996
298.409
298.425
297.881
297.742
297.5
297.033
297.162
296.444
296.53
296.243
295.799
295.907
295.493
295.441
295.219
295.176
294.875
295.006
294.699
294.797
294.662
293.558
293.5
293.497
293.409
293.398
293.32
293.317
293.246
293.247
293.183
293.186
293.132
293.139
293.098
293.104
293.073
293.079
293.054
293.059
293.038
293.044
293.026
293.025
293.019
293.013
293.009
293.008
293.006
293.004
293.004
293
292.999
293.001
292.998
293.001
292.998
293.001
292.998
293.001
292.998
293
292.998
292.999
292.999
292.998
293
292.998
293
292.998
293
292.998
293.001
292.998
293
292.998
293
292.999
292.998
292.999
292.998
293
292.999
293
292.999
292.999
293
292.999
293
292.999
293
292.998
293
292.998
293
292.998
293
292.998
293
292.997
293
292.998
293.001
292.998
293
292.998
293.001
292.998
293
292.998
292.999
292.999
292.999
292.999
293
292.998
293
292.998
293.001
292.999
293.001
292.998
293
292.998
293
292.998
293
292.998
293
292.998
293
292.998
293.001
292.998
293
292.998
293
292.998
292.998
292.999
292.998
292.998
292.999
292.998
293
292.997
293
292.997
293
292.998
293
292.998
293
292.998
293
292.999
293
292.998
293
292.998
293
292.998
293.001
292.998
293
292.998
293
292.999
292.998
292.999
292.998
292.998
292.999
292.999
292.999
293.001
292.997
293
292.998
293.001
292.998
293
292.998
293
292.998
293
292.998
292.999
292.998
292.999
292.999
292.998
293
292.998
293
292.998
293
292.998
293
292.998
292.999
292.998
292.999
292.998
293
292.997
293
292.997
293
292.998
293
292.998
293
292.998
293
292.998
293
292.998
293
292.998
293
292.998
293.001
292.998
293
292.998
293
292.999
292.998
292.999
292.998
293
292.999
293
293
292.999
293
292.998
293
292.999
293.001
292.998
293
292.998
293
292.999
292.999
293
292.998
293.001
292.998
293.001
292.999
293.001
292.998
293
292.998
293
292.999
292.999
292.999
292.998
292.999
292.997
293
292.997
293
292.997
293.001
292.998
293.001
292.998
293.001
292.998
293.001
292.998
293
292.998
293
292.998
293.001
292.998
293.001
292.997
293
292.997
293
292.998
292.998
292.999
292.997
2406.19
2431.12
2467.21
2502.82
2538.06
2560.84
2581.98
2528.84
2485.23
2457.57
2331.04
2067.47
465.737
337.348
354.766
1007.5
1943.88
2109.13
2160.54
2202.2
2262.07
2329.2
2437.31
2486.35
2366.62
2244.33
2131.35
2068.11
1989
772.429
398.805
334.096
332.874
335.036
335.948
335.29
335.227
335.905
337.453
338.209
338.917
339.188
337.942
334.883
309.719
312.848
314.188
315.527
316.355
318.49
320.164
321.517
321.639
321.473
320.92
319.489
318.541
316.971
315.332
314.492
312.913
313.159
312.138
312.321
312.012
311.81
311.593
310.666
310.84
309.235
309.898
308.106
308.739
307.304
300.917
300.601
300.537
300.533
300.316
299.85
299.782
299.19
299.027
298.589
298.322
298.138
297.639
297.743
296.99
297.242
296.526
296.606
296.14
296.058
295.803
295.517
295.53
295.139
295.24
294.847
294.983
294.692
294.774
294.624
293.494
293.544
293.452
293.483
293.411
293.384
293.323
293.297
293.241
293.225
293.181
293.159
293.134
293.117
293.1
293.087
293.076
293.064
293.058
293.046
293.045
293.033
293.029
293.024
293.016
293.016
293.01
293.011
293.007
293.008
293.003
293.003
293.002
293.002
293.002
293.002
293.001
293.002
293.001
293.001
293.002
293.002
293.001
293.001
293.001
293.001
293.001
293.001
293.001
293.001
293.001
293.001
293.002
293.001
293.002
293.002
293.002
293.002
293.002
293.002
293.002
293.002
293.002
293.002
293.002
293.002
293.002
293.002
293.002
293.001
293.001
293.001
293.001
293.001
293.001
293.001
293.001
293.001
293.001
293.001
293.001
293.002
293.002
293.002
293.002
293.002
293.002
293.002
293.002
293.002
293.001
293.002
293.002
293.002
293.002
293.002
293.002
293.002
293.002
293.001
293.001
293.001
293.001
293.001
293.001
293.001
293.001
293.001
293.001
293.001
293.001
293.001
293.002
293.002
293.002
293.002
293.002
293.002
293.002
293.002
293.001
293.002
293.002
293.002
293.002
293.002
293.001
293.001
293.001
293.001
293.001
293.001
293.001
293.001
293.001
293.001
293.001
293.001
293.001
293.001
293.001
293.001
293.002
293.001
293.002
293.002
293.002
293.002
293.002
293.002
293.002
293.002
293.002
293.002
293.002
293.002
293.002
293.002
293.001
293.001
293.001
293.001
293.001
293.001
293.001
293.001
293.001
293.001
293.002
293.001
293.002
293.001
293.002
293.002
293.002
293.002
293.002
293.002
293.002
293.001
293.002
293.002
293.002
293.002
293.002
293.002
293.002
293.002
293.001
293.001
293.001
293.001
293.001
293.001
293.001
293.001
293.001
293.001
293.001
293.001
293.001
293.001
293.002
293.002
293.002
293.002
293.002
293.002
293.002
293.002
293.002
293.002
293.002
293.002
293.002
293.002
293.002
293.002
293.002
293.001
293.002
293.001
293.001
293.001
293.001
293.001
293.001
293.001
293.002
293.001
293.001
293.002
293.002
293.001
293.002
293.002
293.002
293.002
293.002
293.002
293.001
293.001
293.001
293.001
293.002
293.001
293.002
293.001
293.002
293.001
293.002
293.001
293.002
293.002
293.002
293.002
293.001
293.001
293.001
293.001
293.001
293.001
293.001
293.001
293.001
293.001
293.001
293.001
293.001
293.002
2427.97
2406.64
2393.41
2440.4
2500.02
2548.52
2575.9
2568.3
2558.67
2556.28
2498.55
2305.02
2064.43
493.89
628.85
646.225
466.727
2152.37
1928.64
1984.32
2192.42
2354.22
2413.45
2450.75
2507.95
2499.16
2389.05
2262.27
2169.03
2078.09
2023.3
1949.65
784.311
399.111
334.207
332.863
335.568
335.74
335.361
335.308
336.705
337.79
337.401
336.216
333.343
330.687
300.866
309.705
312.624
312.726
313.381
314.423
316.788
318.247
320.347
321.351
321.927
321.514
321.283
320.111
318.554
318.177
315.965
314.147
314.282
312.459
312.228
312.184
311.804
311.632
311.192
311.146
309.792
309.923
308.294
308.137
306.165
305.188
303.111
303.286
300.847
301.97
301.186
301.152
300.738
300.529
299.744
299.634
299.073
298.699
298.683
297.987
298.079
297.5
297.267
297.151
296.629
296.742
296.078
296.274
295.709
295.669
295.42
295.255
295.072
294.965
294.736
294.728
294.446
294.421
294.048
294.143
293.806
293.696
293.715
293.5
293.509
293.408
293.384
293.298
293.291
293.222
293.215
293.158
293.161
293.109
293.123
293.077
293.092
293.057
293.069
293.041
293.05
293.033
293.03
293.027
293.018
293.017
293.008
293.01
293.004
293.006
293.006
293.008
293
293.001
293
293
293.001
293
293
293
293
292.999
293
292.999
292.999
292.999
292.999
292.999
292.999
292.999
292.999
292.999
292.999
292.999
293
293
293
293
293
292.999
292.999
293
293.004
293.004
293
293
292.999
293
293
293
293
293
292.999
292.999
292.999
292.999
292.999
292.999
292.999
292.999
292.999
292.999
292.999
292.999
292.999
293
292.999
293
293
293
293
293
292.999
292.999
293.004
293.004
293
293
292.999
293
293
293
293
293
292.999
292.999
292.999
292.999
292.999
292.999
292.999
292.999
292.999
292.999
292.999
292.999
292.999
292.999
293
293
293
293
292.999
292.999
292.999
293
293.004
293.004
293
292.999
292.999
293
293
293
293
292.999
292.999
292.999
292.999
292.999
292.999
292.999
292.999
292.999
292.999
292.999
292.999
292.999
292.999
292.999
293
293
293
293
292.999
292.999
292.999
292.999
293.004
293.004
293
292.999
292.999
293
293
293
293
293
292.999
292.999
292.999
292.999
292.999
292.999
292.999
292.999
292.999
293
292.999
293
292.999
293
292.999
293
292.999
293
293
293
292.999
293
293.004
293.004
293
292.999
293
293
293
293
293
293
292.999
292.999
292.999
292.999
292.999
292.999
292.999
292.999
292.999
292.999
292.999
292.999
292.999
292.999
293
293
293
293
293
292.999
292.999
293
293.004
293.004
292.999
293
292.999
292.999
293
293
293
293
292.999
292.999
292.999
292.999
292.999
292.999
292.999
292.999
292.999
292.999
292.999
292.999
292.999
292.999
293
293
293
293
292.999
292.999
292.999
292.999
293.003
293.003
292.999
292.999
292.999
293
292.999
293
292.999
293
292.999
293
292.998
292.999
292.999
292.999
292.999
292.999
292.999
292.999
292.999
292.999
292.999
292.999
292.998
292.999
292.998
292.999
292.999
292.999
292.999
292.999
293.003
293.004
2244.92
2248.22
2231.59
2256.46
2329.1
2408.76
2466.36
2516.92
2515.13
2501.69
2501.2
2543.55
2407.34
1837.31
2114.21
2220.53
1967.03
1921.64
1959.55
2291.27
2529.81
2523.47
2518.16
2530.41
2505.25
2416.05
2312.96
2222.19
2144.97
2092.97
2028.02
1988.21
1926.92
785.172
387.532
332.315
332.85
335.259
335.693
335.834
336.162
336.984
336.748
335.561
332.575
328.163
309.643
313.255
313.307
313.239
312.345
313.677
316.416
318.409
320.029
321.344
321.857
321.941
321.251
320.313
319.406
318.084
316.751
314.09
315.009
312.628
312.276
312.171
311.552
311.6
311.083
310.815
309.702
309.968
307.832
308.522
305.964
306.313
304.193
302.607
303.033
301.691
301.642
301.391
300.693
300.745
299.719
300.101
298.864
299.051
298.502
298.103
298.063
297.449
297.633
296.843
297.023
296.445
296.324
296.081
295.762
295.773
295.308
295.42
294.962
295.058
294.655
294.788
294.374
294.527
294.003
294.152
293.746
293.758
293.666
293.536
293.559
293.405
293.424
293.327
293.279
293.269
293.192
293.208
293.136
293.142
293.123
293.087
293.094
293.064
293.074
293.047
293.054
293.037
293.038
293.027
293.025
293.017
293.017
293.009
293.012
293.006
293.008
293.004
293.005
293.003
293.003
293.003
293.003
293.003
293.003
293.002
293.002
293.001
293.001
293.002
293.002
293.002
293.002
293.002
293.002
293.002
293.002
293.001
293.001
293.002
293.002
293.003
293.002
293.003
293.003
293.002
293.002
293.002
293.002
293.002
293.002
293.002
293.002
293.003
293.003
293.003
293.002
293.002
293.002
293.001
293.001
293.002
293.002
293.002
293.002
293.002
293.002
293.002
293.002
293.001
293.001
293.002
293.002
293.003
293.002
293.003
293.002
293.002
293.002
293.002
293.002
293.002
293.002
293.002
293.002
293.003
293.003
293.003
293.002
293.002
293.002
293.001
293.001
293.002
293.002
293.002
293.002
293.002
293.002
293.002
293.002
293.001
293.001
293.002
293.002
293.003
293.003
293.003
293.003
293.002
293.002
293.002
293.003
293.002
293.002
293.002
293.002
293.003
293.002
293.003
293.002
293.002
293.002
293.001
293.001
293.002
293.002
293.002
293.002
293.002
293.002
293.002
293.002
293.001
293.001
293.002
293.002
293.003
293.003
293.003
293.003
293.002
293.002
293.002
293.003
293.002
293.002
293.002
293.002
293.002
293.003
293.002
293.003
293.002
293.002
293.001
293.001
293.002
293.002
293.002
293.002
293.002
293.002
293.002
293.002
293.001
293.001
293.002
293.002
293.002
293.003
293.003
293.003
293.002
293.002
293.002
293.002
293.002
293.002
293.003
293.002
293.003
293.002
293.003
293.002
293.003
293.002
293.001
293.001
293.002
293.002
293.002
293.002
293.002
293.002
293.002
293.002
293.001
293.001
293.002
293.002
293.003
293.003
293.003
293.003
293.002
293.002
293.002
293.002
293.002
293.002
293.002
293.002
293.003
293.003
293.003
293.003
293.003
293.002
293.001
293.001
293.002
293.002
293.002
293.002
293.002
293.002
293.002
293.002
293.001
293.001
293.002
293.002
293.002
293.002
293.002
293.002
293.002
293.002
293.002
293.001
293.002
293.002
293.002
293.001
293.002
293.002
293.002
293.002
293.002
293.002
293.002
293.002
293.002
293.001
293.002
293.002
293.002
293.002
293.002
293.002
293.002
293.002
293.002
293.002
293.002
293.002
293.001
293.002
293.001
293.002
293.002
293.002
293.003
2064.83
2087.21
2088.48
2114.15
2160.45
2221.45
2307.54
2351.83
2392.93
2396.82
2381.57
2347.72
2346.96
2437.63
2387.9
2383.37
2532.26
2238.01
2546.23
2420.92
2379.31
2388.81
2419.62
2395.57
2359.03
2282.01
2194.75
2138.04
2097.03
2050.65
2034.58
2004.47
1929.29
2000.11
582.022
349.402
332.8
333.22
335.13
335.581
336.022
336.01
335.812
334.622
332.865
327.201
316.709
318.129
315.909
313.653
314.482
314.882
316.912
318.204
320.105
321.182
321.987
321.904
321.832
320.401
319.54
319.222
315.93
316.472
314.095
312.604
313.237
311.614
311.903