/*--------------------------------*- C++ -*----------------------------------*\
| =========                 |                                                 |
| \\      /  F ield         | OpenFOAM: The Open Source CFD Toolbox           |
|  \\    /   O peration     | Version:  2.1.1                                 |
|   \\  /    A nd           | Web:      www.OpenFOAM.org                      |
|    \\/     M anipulation  |                                                 |
\*---------------------------------------------------------------------------*/
FoamFile
{
    version     2.0;
    format      ascii;
    class       volScalarField;
    location    "0.003750000";
    object      cSound;
}
// * * * * * * * * * * * * * * * * * * * * * * * * * * * * * * * * * * * * * //

dimensions      [0 1 -1 0 0 0 0];

internalField   nonuniform List<scalar> 
12384
(
1129.3
1160.37
1170.63
1173.83
1167.76
1156.06
1133.6
1104.83
1074.98
1049.49
1038.89
1044.18
1056.19
1055.09
983.899
1023.1
1062.24
1089.28
1103.72
1116.13
1119.58
1124.57
1126.69
1123.65
1118.63
1110.34
1099.34
1090.31
1082.18
1077.11
1071.22
1069.47
1065.24
1058.16
1049.13
1044.55
1018.45
996.427
983.854
970.6
964.105
987.526
1017.17
1027.51
1078.77
1076.44
1072.26
1068.29
1064.38
1060.84
1057.39
1053.87
1048.94
1050.15
1045.48
1047.13
1057.51
1063.1
1062.67
1078.48
1089.06
1112.35
1144.8
1164.39
1171.17
1172.32
1170.58
1166.76
1161.3
1153.22
1134.81
1091.23
1041.74
1029.27
1091.46
1092.31
1094.27
1096.89
1098.17
1099.39
1099.34
1099.2
1099.04
1098.56
1098.22
1097.32
1098.38
1096.3
1101.35
1101.66
1102.44
1098.31
1096.43
1091.45
1091.71
1089.38
1082.36
1070.63
1066.52
1080.46
1075.04
1054.79
1042.12
1033.16
1047.4
1048.63
1050.64
1052.94
1053.43
1053.63
1053.45
1053.93
1056.89
1055.72
1060.85
1058.14
1062.08
1059.03
1058.27
1057.82
1054.47
1053.65
1054.63
1054.4
1054.2
1060.59
1066.38
1079.27
1090.41
1088.23
1079.26
1063.39
1037.06
1026.84
986.616
1002.78
1030.22
1048.37
1073.03
1101.25
1122.16
1132.18
1133.86
1134.51
1134.31
1134.57
1135.36
1135.69
1135.72
1135.14
1133.36
1131.31
1128.35
1126.29
1125.28
1123.74
1125.53
1126.86
1128.24
1131.02
1134.31
1120.18
998.455
965.097
1009.19
994.883
995.158
1018.05
1060.58
1089.55
1086.48
1020.23
972.391
969.113
1008.62
1054.42
1082.38
1095.88
1105.45
1110.91
1112.69
1113.09
1112.24
1110.55
1106.9
1099.45
1094.75
1081.83
1058
1007.71
945.087
896.028
887.371
920.541
958.281
970
979.152
996.496
994.309
989.034
969.135
1023.5
1105.84
1130.47
1136.84
1130.47
1132.91
1127.23
1130.29
1125.78
1132.43
1134.08
1135.75
1140.26
1131
1128.71
1131.66
1126.24
1139.63
1138.74
1147.07
1137.38
1085.46
977.249
1032.77
1020.77
1017.04
1027.05
1024.02
1014.49
1010.23
1006.46
1013.67
1021.84
1045.13
1068.94
1093.57
1109.58
1117.69
1123.76
1124.22
1126.09
1126.83
1124.5
1119.7
1109.63
1082.78
1039.62
1001.34
979.156
971.192
970.34
986.815
1032.45
934.938
933.309
943.455
958.235
981.897
991.571
995.253
991.082
950.095
931.844
922.106
932.438
945.787
968.317
972.237
978.277
977.614
980.668
982.066
996.832
1035.22
1080.2
1114.1
1134.75
1143.99
1145.1
1135.48
1108.14
1023.05
1010.27
924.903
934.419
946.68
969.97
999.948
1011.86
1011.45
1003.34
989.909
980.987
970.673
959.376
952.808
938.473
948.907
933.37
942.434
935.171
940.485
942.42
940.925
941.924
947.276
940.611
948.679
942.951
953.019
956.94
974.147
999.986
933.61
946.526
973.31
1001.25
1012.6
1010.23
1005.09
995.374
995.683
991.766
994.873
989.137
995.74
991.037
1006.74
1009.16
1019.48
1028.95
1021.64
1019.28
1005.34
1005.06
988.667
992.928
990.901
995.441
1000.19
1014.93
1027.71
1035.91
952.074
963.873
978.654
997.837
1004.94
999.766
996.907
977.224
956.133
965.644
960.658
952.131
960.894
962.061
960.636
966.795
962.565
968.361
964.738
973.542
975.037
984.046
985.654
986.655
981.231
980.865
976.128
992.771
995.97
1010.27
1239.08
1239.81
1233.6
1232.2
1238.42
1245.28
1246.33
1232.4
1198.79
1145.49
1087.03
1052.68
1045.58
1050.36
991.331
1055.44
1097.22
1120.38
1131.22
1137.71
1140.58
1148.03
1151.5
1157.9
1161.77
1161.12
1154.41
1140.15
1119.59
1097.88
1083.09
1074.11
1069.27
1062.95
1056.3
1054.11
1041.59
1015.39
992.627
976.275
964.167
985.06
1016.74
1028.22
1077.62
1074.85
1067.81
1060.96
1056.11
1053.07
1050.87
1049
1044.9
1044.74
1040.85
1038.14
1047.71
1046.44
1050.68
1062.17
1072.25
1094.07
1121.36
1150.45
1168.81
1177.97
1181.66
1182.45
1177.47
1164.09
1139.23
1094.19
1043.27
1030.8
1093.47
1100.19
1103.31
1101.87
1098.85
1095
1090.88
1087.17
1083.67
1080.6
1077.03
1075.9
1075.52
1077.96
1081.39
1088.51
1090.42
1092.71
1090.87
1091.37
1091
1090.08
1088.66
1079.75
1068.53
1074.18
1080.53
1077.66
1069.9
1045.73
1049.8
1057.29
1063
1066.11
1066.88
1066.04
1063.98
1060.96
1061.57
1056.17
1053.45
1053.07
1048.17
1040.7
1034.13
1024.83
1019.68
1008.92
1009.05
1006.26
1007.46
1017.27
1035.02
1056.04
1081.3
1090.59
1089.64
1081.7
1058.37
1031.05
997.977
1018.92
1049.57
1085.9
1117.02
1134.61
1139.2
1130.78
1125.42
1123.47
1122.79
1122.37
1123.3
1124.6
1125.29
1125.84
1126.08
1125.01
1122.6
1120.8
1119.81
1120.47
1121.38
1122.48
1124.43
1125.21
1131.2
1130.41
1088.44
986.827
1056.89
1041.28
1035.77
1035.67
1071.59
1092.6
1074.98
1009.22
1001.21
1055.26
1100.45
1127.97
1141.72
1151.23
1150.23
1146.85
1139.47
1130.29
1123.38
1118.63
1117.66
1119.71
1116.36
1108.36
1095.38
1062.32
982.148
910.011
886.797
917.582
965.371
991.318
1001.74
1010.7
997.473
979.396
996.55
1088.13
1122.45
1129.98
1124.72
1116.24
1112.6
1104.25
1107.16
1103.68
1107.21
1107.51
1104.85
1103.86
1096.07
1092.21
1098.14
1101.15
1128.96
1144.5
1153.53
1142.92
1098.07
984.851
1030.94
1022.42
1027.47
1025.12
1016.12
1005.68
1011.48
1033.45
1066.65
1108.7
1124.31
1136.8
1145.28
1153
1155.99
1155.65
1153.28
1155.25
1159.37
1164.73
1169.38
1171.47
1168.43
1154.38
1129.36
1101.05
1037.14
967.84
938.97
980.754
934.916
933.869
946.914
969.742
983.363
995.466
983.041
971.018
939.74
925.639
920.33
923.356
934.55
943.586
949.795
948.293
951.074
960.612
1018.94
1098.06
1133.67
1154.6
1164.46
1171.36
1176.63
1179.53
1174.44
1168.5
1131.21
985.485
926.332
936.521
953.097
982.841
1001.41
1007.71
1006.78
1001.91
998.601
992.453
969.933
961.264
942.453
922.868
915.601
897.425
893.624
879.454
878.17
867.286
865.903
870.447
862.903
878.839
874.091
880.534
875.575
876.409
877.135
885.308
937.649
952.056
976.871
1001.3
1013.28
1017.01
1016.32
1013.51
1019.92
1035.96
1061.71
1096.99
1130.2
1157.49
1173.25
1191.85
1205.57
1208.48
1209.63
1209.55
1200.2
1190.45
1170.54
1131.66
1067.89
1026.14
985.071
957.908
951.219
969.885
953.156
966.35
987.273
1001.01
1014.75
1009.71
1020.41
993.63
973.475
976.588
969.04
979.261
975.287
977.215
980.884
975.308
983.301
992.853
998.689
994.717
1002.82
1002.02
1001.96
994.308
981.6
963.563
949.367
954.798
970.335
983.902
1238.68
1195.98
1162.81
1153.53
1164.52
1196.1
1233.24
1260.75
1261.01
1235.57
1180.47
1108.66
1056.77
1039.76
1011.8
1069.54
1106.88
1121.8
1121.33
1118.46
1116.14
1120.75
1130.7
1146.59
1160.09
1170.82
1171.54
1165.84
1149.21
1124.82
1098.96
1083.66
1073.62
1068.4
1064.75
1063.27
1059.24
1036.19
999.195
981.803
966.456
984.904
1018.96
1035.84
1071.4
1057.36
1043.11
1033.58
1028.15
1025.72
1024.71
1023.59
1025.76
1027.27
1028.09
1031.98
1036.63
1035.2
1044.23
1052.15
1063.26
1081.8
1110.58
1138.41
1160.09
1173.77
1185.38
1192.47
1189.75
1174.38
1141.92
1087.24
1041.59
1034.03
1098.45
1103.52
1097.91
1090.32
1081.19
1069.99
1057.58
1048.56
1043.21
1039.25
1036.85
1035.64
1038.88
1039.2
1046.64
1050.08
1064.1
1073.08
1082.82
1086.01
1089.49
1090.84
1091.36
1087.62
1075.95
1070.43
1077.99
1083.76
1080.78
1058.83
1060.69
1072.71
1076.78
1076.61
1073.87
1070.2
1067.08
1063.35
1062.28
1059.67
1059.16
1054.22
1048.62
1041.31
1031.81
1021.52
1010.37
1002.25
990.715
989.561
990.088
993.232
1008.33
1032.45
1060.3
1085.88
1091.78
1086.35
1067.74
1034.75
1011.59
1049.88
1093.35
1125.13
1140.65
1138.61
1129.39
1124.59
1119.59
1117.42
1115.96
1115.8
1117.37
1120.5
1125.65
1130.3
1133.19
1133.94
1131.96
1130.3
1127.83
1124.28
1122.51
1122.07
1120.19
1121.78
1126.57
1131.08
1110.85
1014.12
1083.07
1073.54
1063.1
1059.58
1082.58
1086.2
1057.74
1025.31
1077.31
1107.55
1140.57
1160.54
1164.92
1163.83
1153.36
1133.31
1113.7
1095.13
1074.69
1065.32
1082.52
1101.68
1113.91
1118.42
1111.88
1088.16
1015.39
920.243
888.489
915.564
979.032
1012.7
1026.16
1022.4
1000.1
983.247
1047.89
1108.62
1134.18
1123.91
1119.2
1111.11
1113.51
1108.36
1113.82
1110.91
1115.16
1110.28
1107
1099.19
1088.19
1075.16
1078.16
1082.27
1117.25
1148.4
1160.52
1146.52
1103.1
983.807
1030.89
1026.12
1031.78
1018.09
1007.76
1012.15
1046.44
1105.35
1127.13
1141.59
1151.74
1150.47
1146.47
1139.37
1132.62
1127.34
1127.53
1126.5
1133.63
1143.19
1157.21
1171.38
1182.87
1187.49
1180.9
1163.27
1134.41
1100.85
1001.58
919.032
929.467
935.171
951.379
972.545
985.137
978.895
967.386
950.833
931.455
922.612
918.507
912.658
918.174
928.853
935.411
955.795
980.233
1046.4
1106.32
1136.76
1149.96
1150.37
1153.72
1159.43
1161.5
1158.3
1154.52
1154.91
1156.49
1049.93
923.827
935.174
950.644
972.747
990.848
1001.36
1014.28
1030.63
1042.86
1047.28
1023.18
1003.59
982.721
961.27
958.105
954.298
947.571
958.073
953.217
961.35
963.529
977.747
988.084
988.162
1003.52
993.417
979.825
951.212
902.764
870.258
938.541
953.857
975.95
1001.8
1025.72
1046.99
1059.22
1071.45
1103.59
1146.79
1177.69
1202.04
1220.31
1230.28
1243.08
1251.49
1256.58
1260.53
1264.11
1269.72
1270.05
1274.26
1265.71
1257.68
1236.81
1209.14
1167.94
1067.26
980.575
940.314
950.508
971.78
991.763
1012.58
1041.19
1055.29
1082.18
1087.84
1063.18
1078.47
1073.42
1091.74
1082.77
1093.02
1092.45
1106.37
1103.13
1127.67
1127.59
1137.89
1148.25
1155.95
1154.2
1155.06
1139.26
1087.76
1034.53
971.124
940.512
950.373
1189.4
1134.09
1106.15
1099.73
1103.27
1124.55
1172.97
1222.92
1261.73
1265.87
1243.26
1183.81
1096.04
1039.64
1073.19
1106.89
1118.6
1113.03
1099.37
1087.15
1081.38
1085.03
1098.11
1121.5
1148
1166.45
1175.21
1172.63
1160.57
1135.8
1107.12
1088.17
1077.27
1071.8
1073.97
1076.21
1071.26
1046.65
999.369
975.57
964.978
982.404
1021.41
1036.57
1046.08
1034.16
1025.53
1021.01
1018.51
1017.14
1015.1
1015.93
1018.73
1020.14
1025.68
1032.54
1036.57
1040.38
1050.27
1056.22
1066.25
1082.57
1105.72
1131.63
1149.67
1166.08
1186.33
1195.8
1189.59
1167.12
1125.33
1073.92
1039.8
1038.07
1104.72
1096.36
1086.68
1078.1
1066.36
1054.99
1046.78
1041.02
1036.06
1033.21
1031.87
1032.04
1032.02
1035.91
1034.7
1039.51
1043.61
1054.49
1067.03
1080.05
1086.35
1091.36
1093.21
1091.84
1083.18
1071.71
1072.51
1080.08
1082.9
1066.45
1073.62
1076.32
1071.41
1064.83
1059.94
1056.6
1054.94
1054.65
1054.72
1055.44
1056.11
1056.95
1055.86
1051.05
1043.31
1033.07
1019.78
1003.71
992.343
982.027
981.345
983.013
993.33
1017.93
1048.27
1077.8
1091.71
1086.79
1067.09
1036.18
1033
1091.4
1130.81
1148.68
1147.53
1135.51
1125.61
1120.19
1119.33
1115.62
1111.34
1107.9
1110.54
1119.03
1131.02
1140.41
1146.8
1146.84
1144.09
1139.72
1133.38
1131.25
1127.01
1121.29
1119.82
1119.16
1122.39
1130.09
1118.8
1027.87
1101.96
1092.93
1079.25
1085.93
1090.69
1078.77
1053.63
1067.16
1110.5
1136.27
1163.91
1173.01
1175.63
1168.69
1143.92
1115.02
1087.68
1049.58
1023.79
1023.64
1050.68
1091.84
1109.47
1117.46
1114.76
1093.82
1025.92
923.24
890.314
912.679
993.318
1023.97
1034.24
1029.73
1005.99
1002.18
1090.13
1126.3
1133.96
1123.74
1119.46
1120.16
1120.96
1125.32
1129.74
1129.38
1130.39
1127.86
1121.63
1110.11
1092.29
1077.41
1065.15
1066.82
1099.16
1145.71
1168.68
1153.89
1103.1
991.981
1029.33
1030.97
1029.78
1013.54
1003.02
1041.2
1108.19
1132.92
1146.8
1156.08
1150.06
1138.34
1125.16
1117.28
1111.15
1108.9
1104.64
1109.37
1113.96
1124.4
1139.08
1158.63
1176.78
1187.92
1193.24
1190.04
1178.63
1157.02
1113.13
938.85
943.621
937.959
953.504
967.338
976.895
972.045
962.045
949.309
939.551
930.775
918.878
910.089
914.157
927.457
956.401
995.214
1060.65
1101.51
1130.19
1142.12
1141.88
1140
1147.93
1152.48
1151.63
1144.22
1135.25
1127.31
1138.73
1101.81
921.359
930.827
944.226
964.509
980.885
999.59
1034.91
1076.43
1117.71
1124.38
1114.78
1107.23
1090.75
1088.31
1097.03
1094.74
1102.93
1105.34
1106.49
1111.68
1111.51
1111.78
1113.75
1109.1
1106.6
1114.96
1108.4
1110.06
1090.75
1018.6
937.405
952.314
971.867
1005.29
1050.29
1102.03
1132.38
1152.89
1174.72
1197.69
1219.56
1230.29
1231.55
1235.9
1229.42
1235.34
1232.16
1239.06
1244.39
1253.25
1263.42
1278.92
1284.81
1287.85
1283.82
1270.91
1243.81
1194.51
1050.4
948.047
951.646
971.681
1005.15
1040.67
1113.4
1151.02
1180.44
1184.48
1176.04
1183.51
1169.48
1178.79
1176.48
1182.78
1186.76
1183.11
1193.76
1195.99
1204.84
1210.89
1219.85
1222.16
1229.95
1228.2
1215.77
1197.54
1163.12
1069.94
960.198
931.779
1184.62
1135.4
1115.19
1121.8
1107.95
1108.63
1138.66
1191.19
1236.59
1264.34
1263.42
1231.25
1147.82
1049.16
1116.16
1115.59
1108.19
1093.7
1076.85
1067.78
1065.94
1072.37
1087.63
1113.91
1143.3
1164.69
1172.08
1168.54
1152.88
1127.72
1101.41
1085.66
1076.9
1077.07
1087.18
1092.56
1077.72
1040.83
987.946
953.239
946.709
970.24
1015.41
1040.36
1026.96
1024.48
1024.31
1025.42
1026.04
1025.79
1027.35
1027.9
1030.56
1035.95
1044.44
1050.22
1063.73
1073.06
1076.76
1078.13
1080.61
1091.23
1109.19
1125.56
1140.92
1167.46
1186.9
1185.79
1164.84
1130.13
1087.5
1051.7
1035.67
1041.55
1104.42
1090.59
1085.71
1080.48
1073.4
1063.17
1052.96
1043.77
1039.19
1037.56
1037.93
1038.42
1039.97
1038.96
1040.83
1039.94
1043.61
1046.04
1058.67
1075
1085.34
1092.8
1096.34
1096.29
1090.98
1078.58
1070.81
1073.95
1081.08
1069.78
1079.07
1066.76
1054.91
1048.75
1045.71
1046.15
1048.3
1049.04
1051.91
1056.39
1060.57
1061.2
1059.88
1057.98
1055.12
1048.38
1035.43
1013.59
992.882
983.321
977.037
981.581
991.174
1010.71
1048.07
1077.75
1085.22
1080.5
1057.54
1028.38
1056.7
1120.43
1150.16
1154.14
1143.81
1134.16
1126.56
1121.74
1118.44
1114.94
1107.69
1101.58
1103.45
1118.21
1137.32
1147.48
1154.05
1145.36
1137.9
1133.27
1131.41
1128.18
1125.55
1121.35
1117.53
1116.54
1121.49
1130.31
1119
1030.78
1101.7
1103.34
1105.14
1093.36
1087.62
1070
1061.77
1098.8
1133.01
1157.03
1175.81
1183.71
1183.2
1165.4
1135.06
1103.88
1075.75
1032.81
1008.67
1009.59
1037.33
1082.63
1100.45
1107.74
1102.31
1082.59
1008.34
920.475
892.895
906.796
1004.38
1024.62
1031.48
1037.29
1012.73
1021.99
1110.07
1139.41
1135.8
1128.02
1126.23
1130.91
1135.44
1134.45
1144.01
1141.27
1141.59
1139.74
1134.98
1122.48
1105.08
1082.98
1068.55
1060.35
1080.26
1128.56
1171.47
1155.42
1108.73
992.963
1028.31
1031
1026.67
1012.08
1014.41
1085.45
1125.18
1145.38
1154.82
1151.62
1138
1123.63
1111.66
1103.53
1101.46
1096.82
1097.22
1094.81
1102.8
1111.65
1128.94
1151.54
1172.78
1186.68
1190.41
1190.32
1189.78
1183.57
1154.01
1023.17
935.579
938.228
951.835
971.061
974.438
963.03
958.322
953.619
951.375
945.43
931.391
914.77
919.579
945.12
990.827
1060.8
1096.65
1121.23
1139.17
1142.29
1135.22
1140.58
1144.77
1147.37
1143.85
1135.15
1114.99
1104.59
1117.34
1122.46
915.47
925.353
934.619
948.026
967.128
996.114
1048.75
1115.25
1141.83
1147.52
1152.56
1144.02
1148.9
1144.74
1150.06
1146.49
1153.48
1147.89
1148.58
1148.95
1144.62
1140.22
1131.34
1136.49
1127.02
1135.13
1139.91
1140.08
1141.35
1132.1
936.039
948.939
966.206
1003.47
1070.06
1148.03
1171.87
1190.02
1206.51
1220.28
1230.16
1222.55
1216.93
1201.18
1202.16
1188.33
1196.82
1195.52
1205.53
1223.39
1234.56
1258.29
1280.67
1290.49
1295.76
1288.72
1277.27
1244.66
1171.58
969.361
946.307
977.328
1026.91
1100.25
1176.85
1202.13
1222.58
1233.31
1219.73
1230.48
1211.91
1223.04
1217.38
1225.85
1220.95
1228.03
1227.49
1233.75
1232.63
1243.81
1247.74
1255.52
1257.86
1257.96
1248.52
1235.31
1209.9
1180.84
1038.11
934.386
1197.99
1162.21
1162.44
1161.07
1130.76
1106.85
1117.09
1156.1
1199.67
1235.17
1254.74
1247.11
1189.94
1072.11
1113.35
1100.91
1093.63
1083.21
1073.22
1068.36
1071.39
1079.71
1096.55
1120.74
1145.44
1157.81
1158.63
1146.94
1127.16
1103.7
1087.74
1080.98
1082.19
1093.61
1105.1
1092.83
1059.65
1002.3
952.306
924.462
912.517
940.327
997.616
1037.4
1027.89
1029.62
1033.51
1037.56
1036.25
1042.59
1044.62
1049.23
1055.9
1058.55
1069.12
1090.23
1107.72
1117.09
1111.93
1100.76
1094.8
1099.05
1110.47
1123.69
1151.66
1180.32
1180.23
1147.13
1117.99
1096.1
1071.27
1047.71
1036.21
1045.32
1102.57
1094.57
1090.86
1081.85
1068.44
1055.37
1047.5
1040.78
1040.9
1042.37
1043.07
1042.7
1043.24
1043.8
1041.53
1042.14
1043.3
1050.69
1061.29
1077.25
1087.19
1095.72
1099.83
1100.38
1095.51
1085.02
1071.31
1068.1
1075.73
1070.49
1075.29
1052.23
1039.91
1037.83
1039.99
1044.35
1051.31
1061.54
1070.78
1076.91
1079.5
1078.41
1074.39
1068.55
1062.52
1058
1049.18
1023.34
993.224
983.098
984.279
984.734
1002.92
1025.25
1057.2
1081.82
1085.31
1070.16
1047.52
1028.68
1083.04
1140.34
1156.37
1151
1141.5
1133.08
1129.1
1125.5
1121.3
1114.08
1106.54
1095.32
1095.57
1112.38
1141.57
1147.68
1148.09
1133.64
1122.67
1122.16
1121.38
1124.21
1119.51
1117.6
1112.92
1115.69
1121.19
1132.98
1119.94
1019.3
1114.73
1124.8
1112.79
1102.9
1091.29
1074.29
1087.95
1123.95
1153.19
1166.52
1182.94
1188.7
1187.99
1169.79
1136.64
1102.64
1075.92
1028.36
1000.46
991.944
1005.62
1035.05
1066.82
1077.84
1072.06
1042.28
973.761
914.061
893.471
900.9
1022.02
1025.13
1022.09
1033.3
1021.2
1034.84
1119.51
1150.74
1150.74
1137.18
1136.79
1140.68
1144.87
1144.22
1145.6
1151.73
1145.18
1144.65
1138.06
1133.34
1116.17
1095.8
1077.8
1062.5
1063.46
1106.42
1165.25
1165.27
1116.68
1006.64
1029.42
1028.55
1024.66
1016.23
1027.54
1114.62
1133.42
1151.74
1150.37
1143.16
1128.49
1111.69
1102.49
1097.78
1092.74
1089.94
1083.89
1090.31
1096.05
1105.87
1120.84
1146.36
1173.32
1183.94
1176.29
1162.12
1160.04
1170.39
1169.67
1102.24
944.294
938.19
944.428
954.885
963.502
962.888
964.607
972.226
975.883
977.37
959.348
936.855
935.689
970.601
1036.71
1088.06
1109.59
1123.31
1134.72
1132.85
1136.19
1137.05
1140.93
1138.25
1134.63
1124.31
1115.24
1079.15
1081.05
1118.91
908.058
919.575
930.438
939.644
953.544
980.645
1044.2
1120.15
1148.61
1164.39
1171.58
1174.68
1172.8
1175.61
1170.28
1173.87
1163.78
1165.83
1153.53
1151.97
1138.97
1135.34
1126.4
1125.5
1130.32
1124.62
1139.33
1139.04
1148.92
1154.5
935.07
945.116
958.935
994.788
1077.06
1162.37
1193.18
1210.12
1219
1225.11
1219.15
1206.02
1191.02
1185.53
1170.97
1180.85
1175.11
1183.42
1193.03
1193.63
1213.97
1235.89
1261.98
1290.37
1296.94
1299.23
1286.68
1261.28
1209.87
1008.06
949.346
984.461
1066.83
1160.76
1213.53
1232.51
1248.13
1247.27
1238.94
1245.17
1229.62
1238.85
1239.83
1244.29
1247.26
1244.13
1251.29
1253.56
1252.3
1259.09
1263.3
1267.93
1271.94
1267.77
1261.33
1233.8
1218
1203.04
1133.01
957.866
1212.03
1181.47
1181.7
1170.8
1125.54
1097.05
1100.36
1119.76
1149.76
1180.25
1215.02
1235.28
1205.13
1098.74
1093.01
1087.83
1088.62
1084.22
1080.77
1079.7
1081.21
1086.12
1094.95
1107.92
1119.48
1124.63
1118.96
1106.86
1092.74
1085.62
1085.2
1091.73
1104.59
1104.1
1089.75
1040.4
985.793
945.481
917.22
907.564
900.776
920.656
976.827
1028.01
1033.42
1040.55
1044.03
1039.61
1047.09
1051.79
1058.97
1064.19
1068.48
1071.18
1085.7
1115.03
1133.5
1134.07
1125.78
1110.44
1100.68
1105.31
1112.93
1139.75
1171
1175.72
1130.5
1104.77
1119.77
1122.59
1117.56
1100.07
1065.1
1050.64
1103.7
1099.26
1086.57
1067.16
1053.24
1045.85
1042.71
1044.24
1046.3
1046.86
1045.34
1044.46
1043.36
1042.04
1043.85
1047.16
1055.74
1064.02
1076.11
1084.71
1093.53
1099.12
1102.48
1102.65
1098.22
1089.34
1072.3
1064.31
1071.96
1070.73
1071.1
1041.12
1032.43
1039.17
1050.59
1064.51
1080.77
1094.89
1101.77
1102.93
1101.36
1098.02
1093.19
1085.81
1076.87
1066.75
1055.02
1021.8
995.079
990.14
997.174
1002.23
1022.51
1048.11
1070.95
1074.44
1066.24
1050.21
1029.52
1018.86
1100.86
1149.74
1154.85
1146.23
1138.73
1133.86
1130.53
1128.16
1124.68
1116.85
1107.39
1093.61
1081.18
1104.53
1133.87
1147.03
1142.46
1124.25
1119.14
1112.27
1108.21
1110.07
1109.75
1108.56
1110.16
1117.02
1128.47
1135.47
1104.79
1005.41
1129.98
1128.51
1118.79
1106.27
1085.58
1086.33
1116.42
1148.8
1164.38
1172.84
1177.39
1189.04
1192.77
1179.67
1143.95
1108.12
1079.31
1028.18
997.463
981.003
979.749
983.96
991.602
993.521
990.784
968.556
937.507
907.889
894.018
896.417
1034.21
1026.64
1007.56
1030.43
1028.56
1038.81
1123.42
1160.8
1162.57
1156.16
1149.65
1150.6
1151.27
1152.01
1149.34
1153.8
1152.71
1147.01
1138.89
1132.28
1127.47
1108.61
1088.05
1072.93
1061.64
1089.99
1145.64
1167.13
1125.54
1019.45
1033.59
1022.61
1025.56
1013.62
1046.18
1115.76
1139.68
1146.41
1148.54
1138.88
1121.36
1109.05
1096.08
1093.64
1088.89
1076.65
1078.96
1080.65
1090.11
1099.29
1116.03
1144.54
1175.4
1183.87
1159.29
1119.97
1099.1
1118.82
1157.82
1121.18
945.092
942.087
943.699
954.282
961.488
962.203
966.23
983.014
999.523
1012.89
1005.19
978.856
971.964
1006.55
1071.39
1098.19
1111.38
1129.31
1133.91
1133.08
1130.49
1138.59
1139.65
1141.56
1140.04
1130.68
1122.36
1093.2
1050.18
1097.97
905.129
918.998
927.382
931.961
939.149
963.301
1021.64
1111.03
1149.08
1163.84
1178.36
1177.41
1180.72
1173.71
1175.1
1168.29
1160.41
1157.57
1141.29
1138.39
1123.32
1121.36
1116.39
1112.67
1122.81
1120.05
1131.14
1136.19
1146.25
1155.93
930.13
946.782
959.68
983.189
1057.75
1162.92
1201.85
1216.34
1221.24
1219.14
1202.18
1189.22
1174.52
1169.26
1172.76
1166.52
1175.14
1177.67
1181.51
1189.9
1194.17
1220.92
1247.75
1278.65
1301.08
1298.38
1291.71
1257.24
1230.58
1050.36
946.727
1001.43
1121.03
1197.12
1235.41
1250.16
1252.61
1256.77
1242.92
1246.76
1245.05
1250.32
1246.32
1255.53
1258.86
1262.42
1262.2
1267.81
1265.93
1269.53
1272.69
1276.55
1277.42
1278.31
1265.33
1230.38
1202.85
1194.03
1164.59
984.886
1221.12
1187.1
1184.65
1157.9
1106.71
1092.94
1099.93
1107.49
1118.92
1134.4
1167.31
1206.61
1197.91
1112.83
1077.4
1082.26
1087.22
1087.46
1086.93
1086.81
1086.52
1086.57
1087.74
1088.16
1088.49
1088.33
1088.02
1087.66
1090.84
1096.29
1102.5
1105.57
1090.55
1049.23
1004.16
968.443
951.066
946.565
937.235
928.451
914.605
927.9
975.701
1018.23
1045.84
1047.01
1039.75
1045.99
1050.49
1059.69
1070.45
1073.5
1072.2
1074.28
1095.4
1126.73
1137.19
1136.12
1123.21
1109.74
1105.93
1111.52
1134.97
1164.58
1172.58
1129.22
1101.01
1127.83
1136.91
1137.95
1133.27
1127.36
1103.97
1077.94
1108.1
1099.1
1070.74
1053.05
1045
1044.01
1046.04
1047.88
1047.97
1045.99
1044.21
1043.27
1044.21
1048.12
1057.46
1068.34
1075.84
1081.36
1086.87
1092.36
1097.63
1100.5
1102.19
1101.03
1096.16
1087.24
1069.66
1061.58
1070.57
1067.96
1064.69
1036.31
1032.78
1052.58
1073.58
1092
1105.33
1108.44
1108.1
1104.43
1102
1099.96
1099.12
1094.91
1087.67
1073.44
1054.73
1019.45
1000.12
1003.71
1015.63
1026.29
1047.12
1059.64
1064.2
1062.29
1043.86
1033.5
1024.53
1022.62
1111.12
1150.74
1150.1
1142.45
1138.11
1134.44
1134.02
1130.37
1125.43
1118.32
1109.72
1094.15
1071.95
1081.82
1122.09
1138.02
1143.95
1126.59
1113.3
1108.31
1097.61
1099.58
1102.28
1106.46
1115.47
1127.22
1135.66
1125.44
1059.55
998.797
1132.69
1129.55
1118.04
1096.2
1088.34
1105.1
1135.53
1156.18
1160.89
1164.7
1167.68
1182.19
1198.19
1191.14
1159.23
1120.3
1085.36
1036.96
998.913
981.308
972.654
967.558
961.354
958.7
951.993
946.366
932.647
917.737
901.03
895.589
1034.26
1014.91
997.485
1022.33
1031.6
1028.82
1112.2
1161.05
1170.46
1165.41
1163.97
1158.43
1156.55
1156.78
1152.18
1154.78
1155.79
1152.44
1140.59
1128.15
1130.01
1121.79
1099.44
1081.68
1069.37
1071.46
1124.07
1168.73
1140.65
1038.9
1041.45
1034.32
1017.2
1022.2
1045.84
1119.44
1133.56
1145.3
1145.34
1134.98
1123.97
1105.81
1098.52
1090.31
1081.56
1076.96
1078.2
1078.17
1087
1097.22
1112.31
1143.34
1179.9
1186.88
1150.42
1095.52
1026.85
1058.38
1133.62
1130.56
945.715
936.245
935.242
941.854
949.103
956.588
969.68
996.268
1027.24
1052.9
1059.85
1042.31
1028.05
1051.47
1087.22
1101.79
1115.15
1124.48
1131.44
1128.42
1131.34
1135.88
1137.29
1141.69
1139.53
1140.3
1131.66
1108.35
1034.05
939.576
897.024
922.163
940.702
944.707
949.447
953.654
988.857
1069.67
1137.85
1160.61
1173.73
1176.39
1176.22
1172.34
1164.11
1160.98
1147.27
1144.88
1128
1125.95
1113.35
1115.79
1113.87
1119.09
1120.62
1122.4
1135.04
1132.77
1149.71
1135.24
929.233
958.393
986.541
994.778
1027.04
1135.38
1197.89
1216.01
1218.18
1208.74
1196.07
1175.16
1171.86
1164.81
1168.44
1171.26
1168.14
1164.9
1178.94
1178
1190.56
1203.1
1241.57
1274.78
1296.69
1301.85
1272.39
1237.05
1215.13
1083.1
948.697
1029.17
1165.14
1220.23
1245.04
1251.01
1256.04
1251.07
1240.98
1245.92
1239.77
1246.67
1241.41
1258.07
1260.28
1272.61
1275.45
1276.64
1274.66
1275.58
1279.5
1281.59
1283.56
1283.37
1272
1232.79
1179.18
1171.51
1158.96
1003.33
1224.23
1183.63
1174.89
1137.2
1098.78
1098.72
1105.78
1104.03
1104.15
1119.85
1152.93
1179.78
1161.15
1106.83
1102.23
1094.53
1067.02
1078.94
1084.82
1086.48
1087.34
1088.08
1088.54
1089.55
1090.24
1093.19
1094.94
1097.03
1099.12
1101.99
1102.99
1100.33
1086.95
1055.21
1016.37
988.818
983.216
989.878
1002.8
1001.2
987.191
964.475
947.487
967.077
1005.81
1030.47
1036.93
1049.34
1048.95
1039.19
1044.2
1050.6
1062.57
1075.41
1079.65
1077.8
1075.93
1081.38
1106.54
1130.79
1135.58
1129.86
1121.85
1114.15
1118.72
1139.43
1160.31
1164.69
1132.04
1095.29
1124.5
1136.8
1136.57
1133.93
1133.8
1135.64
1135.29
1135.02
1130.06
1109.61
1093.96
1065.15
1052.06
1044.2
1043.27
1045.21
1047.31
1047.71
1047.2
1045.75
1045.29
1047.07
1052.16
1059.68
1068.8
1075.79
1081.02
1085.91
1089.42
1092.43
1095.11
1096.6
1095.46
1092.9
1087.31
1076.97
1062.3
1059.12
1067.49
1061.97
1064.83
1083.66
1061.79
1032.98
1044.3
1070.34
1089.28
1102.51
1106.9
1105.77
1100.02
1092.5
1089.45
1090.71
1093.84
1095.99
1089.95
1073.27
1049.83
1017.75
1008.13
1016.91
1030.15
1039.8
1048.37
1052.27
1042.89
1036.11
1023.16
1019.59
1031.54
1063.81
1087.4
1103.6
1119.57
1148.66
1143.69
1140.79
1137.53
1136.65
1137.58
1135.66
1126.43
1120.43
1113.19
1099.05
1071.87
1059.36
1095.53
1126.34
1136.41
1129.34
1116.2
1110.93
1102.74
1104.94
1110.44
1118.55
1126.83
1130.26
1118.62
1074.88
1034.39
1082.5
1111.37
1133.49
1133.23
1128.16
1104.27
1091.25
1096.36
1121.05
1147.98
1158.63
1157.24
1151.11
1157.51
1173.38
1192.32
1200
1178.91
1138.52
1098.9
1051.61
1008.28
984.893
976.879
972.137
971.627
972.34
978.768
977.026
971.164
951.952
924.033
899.551
955.811
1009.71
1025.92
1010.91
993.567
1017.33
1029.86
1022.57
1088.91
1150.25
1169.43
1167.59
1164.28
1164.06
1161.42
1154.61
1154.11
1155.19
1155.87
1153.1
1140.4
1123.23
1123.09
1126.75
1112.54
1090.28
1077.91
1052.17
1097.02
1152.01
1150.22
1076.73
1115.56
1096.54
1055.74
1038.79
1020.12
1015.64
1048.84
1109.8
1130
1138.96
1138.97
1137.85
1122.24
1113.89
1097.21
1093.41
1079.54
1081.14
1079.07
1078.88
1085.88
1096.38
1110.61
1141.35
1184.99
1193.36
1154.38
1097.22
1015.2
995.157
1095.21
1125.14
1106.28
1052.38
954.269
937.169
936.69
938.826
942.819
949.53
964.899
999.233
1041.11
1079.45
1089.15
1089.7
1084.51
1087.04
1097.41
1106.78
1112.97
1121.25
1127.42
1127.41
1130.53
1133.41
1140.38
1139.97
1143.02
1141.22
1136.32
1134.81
1110.56
1003.12
927.527
896.385
916.823
960.519
993.989
1006.55
992.002
971.78
972.737
1010.73
1102.23
1143.51
1166.54
1168.22
1174.53
1163.97
1155.98
1151.27
1136.31
1133.21
1118.1
1118.19
1110.19
1112.69
1114.91
1120.28
1118.25
1129.81
1131.85
1146.75
1146.78
1136.42
1120.37
973.999
933.396
1023.83
1097.67
1085.91
1054.03
1078.8
1160.21
1207.08
1211.52
1208.58
1186.7
1180.04
1163.03
1169.52
1167.15
1168.58
1167.86
1172.31
1168.28
1178.74
1179.27
1202.83
1228.65
1275.06
1288.47
1283.53
1233.17
1187.17
1162.06
1103.39
1080.95
1043.63
960.998
1072.77
1190.56
1232.89
1243.65
1251.75
1246.65
1240.29
1229.35
1220.22
1207.91
1215.74
1220.16
1224.5
1246.13
1264.81
1276.15
1285.48
1287
1283.62
1282.65
1283.6
1286.35
1286.38
1283.44
1252.44
1193.67
1151.73
1120.47
1104.96
1230.88
1260.8
1223.88
1172.14
1156.68
1114.67
1093.48
1101.11
1104.27
1102.61
1103.76
1117.5
1139.25
1148.28
1124.57
1084.16
1063.46
1058.46
1062.4
1075.87
1079.92
1079.89
1078.09
1076.74
1076.76
1079.84
1083.58
1086.58
1090.61
1092.52
1092.56
1087.62
1075.37
1054.76
1028.09
1004.93
998.906
1008.46
1025.11
1026.64
1024.25
1015.92
1000.2
988.148
984.667
1002.68
1029.67
1046.87
1052.55
1052.22
1043.09
1043.89
1048.93
1058.6
1070.83
1077.7
1081.58
1081.72
1081.61
1093.1
1114.97
1129.49
1131.68
1127.83
1126.76
1134.86
1146.48
1155.63
1152.2
1121.88
1084.69
1108.71
1129.68
1134.21
1132.75
1132.77
1134.29
1134.89
1132.57
1126.93
1116.01
1102.05
1081.69
1064.11
1051.72
1043.83
1043.96
1044.12
1045.24
1047.8
1050.12
1052.45
1055.38
1058.81
1060.99
1064.39
1068.58
1072.26
1076.14
1077.97
1079.72
1082.5
1082.96
1083.56
1082.46
1079.47
1072.73
1063.44
1057.93
1059.52
1066.86
1064.15
1077.26
1079.31
1041.62
1028.97
1055.47
1077.05
1090.85
1101
1104.16
1099.88
1090.17
1082.73
1081.61
1084.31
1089.56
1092.16
1086.05
1068.65
1044.5
1020.31
1015.22
1021.45
1030.34
1031.4
1032.52
1026.32
1015.76
1013.69
1016.25
1042.26
1087.33
1106.77
1112
1113.97
1131.5
1144.6
1140.57
1139.58
1138.88
1141.68
1147.9
1146.29
1134.5
1121
1117.3
1106.3
1082.68
1051.56
1055.59
1089.06
1116.45
1117.34
1110.08
1115.52
1109.85
1116.16
1117.36
1118.94
1115.91
1096.95
1058.48
1051.93
1090.72
1119.17
1130.47
1131.58
1124.67
1106.8
1090.51
1089.52
1103.83
1131.39
1151.31
1155.85
1152.27
1148.79
1146.8
1156.22
1172.52
1195.9
1197.3
1165.2
1121.3
1079.68
1028.85
997.562
987.711
992.413
1000.99
1015.74
1024.44
1033.36
1028.88
1007.06
971.161
934.775
1002.56
1027.96
1016.38
998.073
997.57
1018.94
1024.33
1015.11
1059.1
1134.47
1161.52
1166
1161.45
1163.89
1158.27
1155.58
1153.5
1152.79
1152.81
1146.24
1130.54
1113.87
1110.42
1122.41
1119.27
1098.51
1083.24
1067.14
1053.35
1118.04
1145.83
1123.73
1133.51
1130.31
1100.93
1065.71
1019.6
1013.13
1032.51
1092.08
1122.78
1131.16
1135.03
1130.78
1129.44
1113.6
1107.41
1092.9
1087.58
1082.97
1082.65
1083.28
1088.04
1098.55
1109.8
1139.61
1189.65
1200.83
1164.19
1108.16
1038.11
1002.18
1017.75
1105.2
1046.54
956.125
938.983
935.846
934.379
933.87
932.075
936.999
952.468
987.472
1040.38
1087.98
1099.22
1102.28
1103.99
1103.26
1106.48
1112.41
1115.52
1122.1
1123.27
1125.86
1126.73
1136.33
1136.67
1143.56
1145.59
1148.41
1145.73
1148.09
1148.72
1126.58
1074.04
1014.58
1029.85
1099.84
1113.75
1122.13
1117.05