/*--------------------------------*- C++ -*----------------------------------*\
| =========                 |                                                 |
| \\      /  F ield         | OpenFOAM: The Open Source CFD Toolbox           |
|  \\    /   O peration     | Version:  2.1.1                                 |
|   \\  /    A nd           | Web:      www.OpenFOAM.org                      |
|    \\/     M anipulation  |                                                 |
\*---------------------------------------------------------------------------*/
FoamFile
{
    version     2.0;
    format      ascii;
    class       volScalarField;
    location    "0.003750000";
    object      HO2;
}
// * * * * * * * * * * * * * * * * * * * * * * * * * * * * * * * * * * * * * //

dimensions      [0 0 0 0 0 0 0];

internalField   nonuniform List<scalar> 
12384
(
2.57318e-05
1.62246e-05
1.2105e-05
1.10552e-05
1.23596e-05
1.61802e-05
2.33565e-05
2.96149e-05
3.13211e-05
2.70857e-05
1.72826e-05
7.59825e-06
6.22241e-06
5.30917e-06
3.66403e-06
6.37699e-06
9.40267e-06
1.1285e-05
1.10595e-05
1.17378e-05
1.06462e-05
1.18073e-05
1.12101e-05
1.21839e-05
1.26783e-05
1.28045e-05
1.26239e-05
1.22015e-05
1.15538e-05
1.12409e-05
1.06061e-05
1.06423e-05
1.0557e-05
1.01232e-05
1.01683e-05
1.13208e-05
8.70701e-06
5.51624e-06
4.06955e-06
2.85069e-06
3.45313e-06
5.06772e-06
4.92825e-06
2.6499e-06
5.77126e-06
6.29197e-06
6.27185e-06
6.14854e-06
5.99811e-06
5.84044e-06
5.68677e-06
5.65003e-06
5.60296e-06
5.63198e-06
5.57381e-06
5.62943e-06
6.63739e-06
7.14496e-06
7.25565e-06
9.19144e-06
1.01596e-05
1.24159e-05
1.2504e-05
8.54109e-06
6.94437e-06
6.25237e-06
5.97374e-06
5.97668e-06
5.96826e-06
5.56781e-06
6.93315e-06
1.03289e-05
1.01928e-05
9.41466e-06
1.50206e-06
1.483e-06
1.33519e-06
1.10036e-06
9.20376e-07
7.94729e-07
7.42141e-07
7.36355e-07
7.46586e-07
7.13438e-07
7.64457e-07
7.55163e-07
8.21286e-07
9.43877e-07
7.9143e-07
8.07494e-07
7.64522e-07
7.63735e-07
8.6584e-07
9.09413e-07
1.10406e-06
1.40496e-06
2.67512e-06
4.39576e-06
4.69286e-06
1.97404e-06
1.94614e-06
4.3986e-06
5.40956e-06
5.71583e-06
2.30442e-06
2.22507e-06
2.01841e-06
1.76604e-06
1.5211e-06
1.46389e-06
1.46388e-06
1.41118e-06
1.45141e-06
1.52409e-06
1.46691e-06
2.23488e-06
2.02806e-06
2.8728e-06
3.92143e-06
5.16377e-06
5.61288e-06
7.8444e-06
8.42247e-06
8.59148e-06
8.86409e-06
8.22725e-06
6.87516e-06
5.15111e-06
2.2833e-06
2.09454e-06
3.18828e-06
6.80193e-06
9.20485e-06
9.14929e-06
5.73204e-06
6.00603e-06
5.49744e-06
3.92943e-06
1.48817e-06
5.91603e-07
1.3013e-07
4.26795e-08
2.32513e-08
1.57874e-08
1.5052e-08
1.51978e-08
1.54575e-08
1.57012e-08
1.83273e-08
2.22117e-08
2.53725e-08
2.77797e-08
2.99642e-08
3.20891e-08
4.29919e-08
4.85387e-08
8.11013e-08
1.00752e-07
9.08295e-08
5.42769e-08
3.54429e-08
2.41746e-07
6.1247e-06
5.458e-06
3.98616e-06
4.90295e-06
5.16943e-06
4.45243e-06
1.97739e-07
1.39418e-08
3.05343e-08
5.14779e-06
4.86607e-06
4.79245e-06
5.94011e-06
6.13322e-06
2.05732e-06
7.50144e-07
2.66324e-07
1.3911e-07
9.91173e-08
7.40627e-08
3.44041e-08
6.88141e-08
9.26872e-08
1.49217e-07
1.82049e-07
1.10305e-06
3.90894e-06
5.99235e-06
3.9273e-06
2.392e-06
2.29897e-06
3.03118e-06
6.35552e-06
6.3118e-06
5.60937e-06
5.88531e-06
5.76164e-06
5.52036e-06
4.41588e-06
5.58704e-06
5.48779e-08
1.84983e-09
1.03971e-09
1.08741e-09
1.17249e-09
1.16863e-09
1.65256e-09
1.71125e-09
1.9579e-09
2.71459e-09
3.25609e-09
3.91338e-09
4.20154e-09
3.85276e-09
3.46233e-09
1.84472e-09
1.41941e-09
7.59206e-10
7.10246e-10
3.1132e-09
2.56845e-06
3.09212e-06
1.2257e-05
1.08433e-05
9.8817e-06
9.55184e-06
7.82375e-06
6.53904e-06
6.22454e-06
5.41837e-06
5.62245e-06
5.70428e-06
6.35041e-06
5.9282e-06
3.39837e-06
8.15741e-07
1.68617e-07
4.76028e-08
3.05513e-08
2.04002e-08
1.47266e-08
2.62924e-08
4.86606e-08
4.32659e-07
4.12701e-06
5.8912e-06
4.52806e-06
3.2758e-06
3.07477e-06
3.00018e-06
3.83082e-06
5.74192e-06
3.48062e-06
3.27801e-06
3.52772e-06
4.08216e-06
4.79363e-06
5.09978e-06
5.20065e-06
4.99157e-06
3.28004e-06
2.36957e-06
2.02427e-06
2.24596e-06
2.98584e-06
3.75052e-06
4.06263e-06
3.94447e-06
4.7707e-06
6.65074e-06
7.39714e-06
8.40173e-06
9.60013e-06
7.74105e-06
3.66857e-06
1.69999e-06
1.56275e-06
1.42932e-06
1.58468e-06
4.66002e-06
1.07321e-05
1.04721e-05
2.65708e-06
3.05884e-06
3.97412e-06
5.55319e-06
7.62899e-06
8.12622e-06
8.19709e-06
7.36516e-06
6.19014e-06
5.16921e-06
3.77175e-06
2.9411e-06
2.56632e-06
2.28629e-06
2.71632e-06
2.433e-06
2.75095e-06
2.73613e-06
2.85751e-06
3.0493e-06
2.99241e-06
2.95885e-06
3.1882e-06
2.71215e-06
3.06548e-06
2.6154e-06
2.87885e-06
3.06348e-06
3.89067e-06
5.45991e-06
2.89627e-06
2.89972e-06
3.84313e-06
5.84695e-06
7.31111e-06
6.94714e-06
6.67407e-06
5.72016e-06
6.02778e-06
5.63968e-06
6.10996e-06
5.78498e-06
6.58761e-06
6.20192e-06
7.80899e-06
8.12848e-06
9.23525e-06
1.00663e-05
9.05187e-06
9.15369e-06
7.95444e-06
8.43723e-06
7.03681e-06
7.66981e-06
7.78546e-06
8.33768e-06
8.78135e-06
1.0295e-05
1.16202e-05
1.25146e-05
2.98807e-06
3.61665e-06
4.45808e-06
6.55258e-06
7.78189e-06
7.42009e-06
7.23041e-06
4.79823e-06
2.78965e-06
3.79113e-06
3.41318e-06
3.04114e-06
3.80449e-06
3.92927e-06
3.90959e-06
4.78556e-06
4.35528e-06
5.42554e-06
5.15718e-06
6.15864e-06
6.55845e-06
7.89486e-06
7.91058e-06
7.9881e-06
6.67387e-06
5.83074e-06
4.6715e-06
5.79126e-06
5.25909e-06
6.65e-06
1.43506e-06
1.03198e-06
1.04715e-06
1.06567e-06
1.01238e-06
8.79789e-07
1.07224e-06
1.81772e-06
5.92935e-06
2.00425e-05
2.62156e-05
1.50937e-05
7.54011e-06
6.49691e-06
3.86991e-06
9.06457e-06
1.15075e-05
1.11841e-05
1.05468e-05
9.9548e-06
9.98311e-06
8.97269e-06
8.94118e-06
8.17792e-06
7.32126e-06
6.90143e-06
7.20808e-06
8.76848e-06
1.09897e-05
1.17089e-05
1.12148e-05
1.05341e-05
1.04869e-05
1.03027e-05
1.0147e-05
1.11139e-05
1.10255e-05
7.63067e-06
4.97474e-06
3.1875e-06
3.27489e-06
4.84084e-06
5.26243e-06
2.64666e-06
5.47147e-06
5.56282e-06
5.62176e-06
5.64433e-06
5.66209e-06
5.67296e-06
5.67843e-06
5.66528e-06
5.61564e-06
5.61336e-06
5.55943e-06
5.56227e-06
6.88192e-06
6.94883e-06
7.48076e-06
8.4673e-06
8.79237e-06
1.09161e-05
1.24692e-05
1.10379e-05
8.15968e-06
5.25069e-06
4.45885e-06
3.9835e-06
3.98009e-06
5.33464e-06
7.0533e-06
1.07464e-05
9.98523e-06
9.61948e-06
1.55155e-06
8.24353e-07
2.13203e-07
1.88e-07
2.01805e-07
4.25273e-07
7.95918e-07
1.16437e-06
1.46393e-06
2.1581e-06
2.58344e-06
2.88003e-06
2.88738e-06
2.80622e-06
2.4565e-06
1.50149e-06
1.22832e-06
1.0469e-06
7.90875e-07
8.30549e-07
8.14068e-07
1.10127e-06
1.51605e-06
3.22616e-06
4.60433e-06
3.69303e-06
1.83603e-06
1.88632e-06
3.0357e-06
5.37132e-06
2.20112e-06
1.53055e-06
1.13968e-06
8.42151e-07
7.33636e-07
7.72693e-07
9.3615e-07
1.16706e-06
1.41253e-06
2.21757e-06
3.23494e-06
3.81369e-06
5.01969e-06
6.07651e-06
7.08843e-06
7.42919e-06
8.09147e-06
7.65951e-06
8.15764e-06
7.96326e-06
7.73149e-06
7.89321e-06
8.2136e-06
7.4631e-06
4.70373e-06
2.31377e-06
2.12815e-06
3.22448e-06
7.71583e-06
9.36164e-06
5.92157e-06
5.9721e-06
4.24464e-06
1.16004e-06
1.57497e-07
4.04431e-08
1.36321e-08
1.02355e-08
1.21467e-08
1.58852e-08
2.98217e-08
4.00699e-08
4.89836e-08
7.35685e-08
1.14924e-07
1.18878e-07
1.00788e-07
1.0016e-07
1.07444e-07
9.87835e-08
1.03153e-07
1.03843e-07
9.09507e-08
8.83612e-08
8.70528e-08
5.59111e-08
3.78045e-08
7.06446e-08
2.23738e-06
5.84784e-06
4.1396e-08
2.23975e-07
1.85432e-06
2.09116e-06
7.42572e-08
1.14356e-08
1.08635e-07
5.73645e-06
5.78645e-06
3.43843e-06
8.13375e-08
2.57569e-08
1.19988e-08
1.10353e-08
9.82358e-09
9.99819e-09
1.43072e-08
2.0206e-08
3.53299e-08
4.36002e-08
3.74422e-08
2.26967e-08
1.93926e-08
2.67118e-08
1.15204e-07
2.69306e-06
5.38337e-06
2.88684e-06
2.30004e-06
2.9938e-06
6.54433e-06
6.86436e-06
5.88321e-06
5.8672e-06
5.78186e-06
4.9304e-06
5.0829e-06
1.17704e-06
5.74176e-09
1.03833e-09
7.73894e-10
1.19924e-09
1.39693e-09
1.85803e-09
1.92813e-09
2.99111e-09
3.42886e-09
4.00386e-09
7.65694e-09
2.09873e-08
1.76114e-08
3.7395e-08
3.07812e-08
1.3009e-08
2.7838e-09
6.64942e-10
5.22959e-10
1.6504e-09
7.43627e-07
3.45887e-06
1.22158e-05
1.10949e-05
1.08518e-05
9.05952e-06
7.11409e-06
5.65675e-06
5.91994e-06
6.98275e-06
7.03609e-06
1.58399e-06
8.66642e-08
8.72637e-09
1.64888e-09
5.43775e-10
2.38458e-10
1.79745e-10
1.69672e-10
1.40271e-10
8.87533e-11
7.89617e-11
7.20322e-11
7.50659e-11
1.26904e-10
4.02486e-10
4.23552e-09
1.55643e-07
5.86533e-06
3.12172e-06
1.80937e-06
3.62629e-06
3.42874e-06
3.23965e-06
3.544e-06
4.46862e-06
4.80641e-06
5.13979e-06
4.73757e-06
4.03692e-06
2.68192e-06
2.06296e-06
1.79197e-06
1.92246e-06
2.27635e-06
2.70378e-06
2.79238e-06
2.66674e-06
3.55011e-06
5.38424e-06
9.33264e-06
2.33039e-06
1.9713e-07
1.11574e-07
1.39558e-07
1.57219e-07
1.61507e-07
1.12077e-07
9.95224e-08
6.39332e-08
1.35921e-07
7.85201e-06
2.69679e-06
3.03402e-06
4.13346e-06
6.12842e-06
7.20367e-06
7.47926e-06
7.2821e-06
6.75801e-06
6.20629e-06
5.48259e-06
3.56861e-06
2.92866e-06
1.975e-06
1.55947e-06
1.30618e-06
1.0617e-06
9.81937e-07
7.989e-07
7.67215e-07
6.50997e-07
6.40484e-07
6.63737e-07
5.82219e-07
7.61937e-07
6.69123e-07
7.0406e-07
5.63956e-07
6.3239e-07
6.51701e-07
8.27522e-07
2.99129e-06
3.08266e-06
4.17515e-06
6.21005e-06
7.57517e-06
7.93223e-06
7.77536e-06
7.36158e-06
7.87786e-06
8.9544e-06
1.0252e-05
1.0603e-05
5.80675e-06
7.39961e-07
1.8504e-07
7.10577e-08
4.00911e-08
2.61406e-08
2.73173e-08
3.23822e-08
4.53373e-08
1.71348e-07
9.50395e-07
1.18576e-05
1.5149e-05
1.22119e-05
8.063e-06
5.74737e-06
4.99402e-06
6.49193e-06
3.00117e-06
3.78982e-06
5.41561e-06
7.03457e-06
9.22012e-06
8.63988e-06
9.9519e-06
6.58546e-06
4.02732e-06
4.64913e-06
3.90985e-06
4.97385e-06
4.63212e-06
5.04505e-06
5.80047e-06
5.33325e-06
6.4426e-06
7.24714e-06
8.18018e-06
8.08656e-06
9.57129e-06
9.7094e-06
9.92131e-06
8.81818e-06
7.00417e-06
4.92527e-06
3.65461e-06
3.79069e-06
4.23825e-06
5.09357e-06
5.84839e-07
2.74617e-06
1.00577e-05
1.23987e-05
9.57315e-06
2.96358e-06
7.78445e-07
4.20616e-07
6.01885e-07
1.64739e-06
9.5327e-06
2.21869e-05
1.16315e-05
7.3377e-06
5.69845e-06
1.07697e-05
1.23622e-05
1.22676e-05
1.29654e-05
1.42721e-05
1.47167e-05
1.49678e-05
1.40339e-05
1.12222e-05
8.12911e-06
5.16793e-06
4.61485e-06
4.50245e-06
6.49503e-06
9.9979e-06
1.12862e-05
1.08254e-05
1.02331e-05
1.02854e-05
1.05471e-05
1.09793e-05
1.22315e-05
1.0125e-05
5.74364e-06
3.63643e-06
3.27086e-06
4.76905e-06
5.453e-06
2.75533e-06
5.52596e-06
5.62231e-06
5.66155e-06
5.60764e-06
5.54817e-06
5.51878e-06
5.50153e-06
5.48253e-06
5.50207e-06
5.51104e-06
5.51823e-06
5.92494e-06
6.76177e-06
6.73526e-06
7.60218e-06
7.82535e-06
8.24654e-06
9.38112e-06
1.16043e-05
1.18064e-05
9.22578e-06
7.226e-06
4.18823e-06
2.60133e-06
2.52722e-06
3.59517e-06
7.3682e-06
1.08412e-05
1.00157e-05
9.73684e-06
1.06768e-06
1.59275e-07
1.67789e-07
4.48573e-07
1.27136e-06
3.10504e-06
4.64455e-06
5.34995e-06
5.63915e-06
5.76281e-06
5.76243e-06
5.7524e-06
5.7592e-06
5.73313e-06
5.72345e-06
5.49737e-06
4.82988e-06
3.13622e-06
1.50054e-06
9.17276e-07
7.65838e-07
8.35102e-07
1.11911e-06
1.9381e-06
3.92594e-06
4.40242e-06
3.02033e-06
1.94284e-06
2.14607e-06
4.50094e-06
1.4177e-06
2.27587e-07
1.10706e-07
5.50705e-08
5.51626e-08
9.74502e-08
1.40937e-07
1.97542e-07
4.69632e-07
1.01979e-06
1.52437e-06
3.36758e-06
5.13385e-06
6.66357e-06
7.68904e-06
8.06333e-06
7.91241e-06
7.72241e-06
6.50492e-06
6.33156e-06
6.00102e-06
5.98284e-06
6.87235e-06
7.8449e-06
7.22178e-06
3.91019e-06
2.02544e-06
2.30487e-06
5.77984e-06
8.32844e-06
6.0606e-06
4.81885e-06
1.06184e-06
1.08232e-07
2.63178e-08
1.0845e-08
9.41284e-09
1.38303e-08
3.12551e-08
4.63442e-08
1.0422e-07
1.62272e-07
2.40576e-07
2.87717e-07
2.90007e-07
2.59502e-07
2.23155e-07
1.69045e-07
1.59959e-07
1.7016e-07
1.68888e-07
1.54718e-07
1.52218e-07
1.25472e-07
6.84642e-08
5.19698e-08
3.60488e-08
4.17495e-08
3.0069e-07
6.43002e-06
1.84414e-09
1.08746e-08
1.04217e-07
1.49303e-07
1.70431e-08
2.0366e-08
1.16846e-06
5.22056e-06
1.11327e-06
2.40973e-08
7.09074e-09
5.70659e-09
5.07038e-09
6.0338e-09
8.74224e-09
1.89675e-08
8.80118e-08
1.12875e-06
4.27054e-06
5.11512e-06
3.03371e-06
2.10121e-07
3.18357e-08
1.21421e-08
1.43946e-08
1.60651e-07
5.95643e-06
3.2619e-06
2.36338e-06
2.98496e-06
7.16343e-06
6.9106e-06
5.76152e-06
5.66629e-06
5.74121e-06
4.85973e-06
5.56768e-06
3.50117e-08
1.47022e-09
6.61376e-10
7.17131e-10
7.72681e-10
7.73065e-10
7.82304e-10
1.00466e-09
9.77857e-10
1.06827e-09
1.83172e-09
4.0604e-09
1.06041e-08
2.41908e-08
7.35517e-08
1.40152e-07
8.24385e-08
5.78522e-09
6.16747e-10
2.73334e-10
1.20793e-09
2.28988e-07
3.52721e-06
1.22285e-05
1.14805e-05
1.10647e-05
8.13452e-06
6.37836e-06
5.97762e-06
6.72453e-06
2.60892e-06
5.19547e-08
5.49997e-09
1.04135e-09
3.56625e-10
2.3833e-10
2.23215e-10
2.20632e-10
2.29693e-10
2.10101e-10
1.98866e-10
1.54587e-10
8.49509e-11
5.89916e-11
2.89499e-11
2.35428e-11
2.31939e-11
3.99042e-11
9.15841e-11
1.19206e-09
5.19856e-08
4.91151e-06
1.33889e-06
3.3401e-06
3.20978e-06
3.79457e-06
4.49693e-06
4.85863e-06
4.56598e-06
4.00782e-06
3.06288e-06
2.31647e-06
1.90713e-06
1.64962e-06
1.52156e-06
1.65872e-06
1.95119e-06
2.2724e-06
3.01123e-06
4.99915e-06
7.78998e-06
5.46716e-07
1.23923e-07
1.1866e-07
2.49448e-07
2.80768e-07
2.26696e-07
1.5289e-07
1.06506e-07
8.28572e-08
6.51321e-08
1.91504e-08
8.11292e-06
2.48692e-06
2.79509e-06
3.75918e-06
4.84959e-06
5.86817e-06
6.52781e-06
7.35929e-06
8.33427e-06
8.7889e-06
7.85736e-06
6.76554e-06
4.73385e-06
3.85993e-06
3.15561e-06
2.80365e-06
3.05297e-06
2.76813e-06
3.3437e-06
3.13457e-06
3.57023e-06
3.68135e-06
4.28644e-06
4.71599e-06
4.74582e-06
5.10208e-06
4.51751e-06
3.86815e-06
2.49063e-06
1.07414e-06
5.62818e-07
2.94374e-06
3.12378e-06
4.33711e-06
6.57531e-06
8.7305e-06
1.03591e-05
1.07516e-05
1.07585e-05
9.6241e-06
1.63037e-06
8.84651e-08
1.62363e-08
6.05847e-09
2.3526e-09
1.71489e-09
1.1627e-09
1.46705e-09
1.33569e-09
9.41601e-10
1.19588e-09
8.2723e-10
1.52823e-09
2.02115e-09
6.46524e-09
2.45061e-08
1.85267e-07
5.55512e-06
1.71518e-05
7.98993e-06
4.50871e-06
2.83613e-06
4.25459e-06
5.90311e-06
8.19102e-06
1.09658e-05
1.27764e-05
1.37728e-05
1.24807e-05
8.63411e-06
9.74644e-06
8.15651e-06
8.67236e-06
8.86325e-06
9.49505e-06
1.04616e-05
9.78733e-06
1.10297e-05
9.14478e-06
9.06154e-06
8.60407e-06
7.84177e-06
6.47277e-06
7.19489e-06
6.56998e-06
8.37757e-06
1.33089e-05
9.16063e-06
5.21576e-06
3.06305e-06
3.71478e-06
3.61371e-06
1.73821e-05
2.12856e-05
2.18234e-05
2.16066e-05
1.94267e-05
6.87722e-06
1.09843e-06
3.58059e-07
4.83976e-07
1.21384e-06
8.07996e-06
1.74127e-05
7.39249e-06
1.10058e-05
1.3077e-05
1.30301e-05
1.4494e-05
1.50842e-05
1.46438e-05
1.42308e-05
1.45832e-05
1.57273e-05
1.51734e-05
1.07263e-05
5.66989e-06
4.10948e-06
3.79206e-06
4.99794e-06
7.90879e-06
1.06992e-05
1.06451e-05
1.02287e-05
1.02427e-05
1.11261e-05
1.1885e-05
1.26727e-05
1.15042e-05
5.88697e-06
3.3461e-06
3.13202e-06
4.74e-06
5.43348e-06
2.87414e-06
5.62559e-06
5.62416e-06
5.53936e-06
5.49425e-06
5.46506e-06
5.44288e-06
5.41423e-06
5.41964e-06
5.44386e-06
5.45703e-06
5.54076e-06
6.35925e-06
6.5576e-06
6.81262e-06
7.43486e-06
7.44837e-06
7.84418e-06
8.79562e-06
1.0508e-05
1.18923e-05
1.10321e-05
8.04112e-06
3.65097e-06
2.09223e-06
2.25109e-06
3.55974e-06
9.12317e-06
1.08205e-05
9.73468e-06
9.99532e-06
1.87902e-07
1.6192e-07
5.95812e-07
1.4615e-06
3.42146e-06
4.74774e-06
5.38099e-06
5.67183e-06
5.7672e-06
5.77197e-06
5.7711e-06
5.76669e-06
5.74744e-06
5.76964e-06
5.72922e-06
5.91928e-06
5.88717e-06
5.62573e-06
3.73766e-06
1.48394e-06
8.65826e-07
6.24539e-07
7.96495e-07
1.20044e-06
2.689e-06
4.27465e-06
4.06239e-06
3.03052e-06
2.47924e-06
4.07231e-06
2.23728e-07
5.44865e-08
4.36977e-08
4.72789e-08
5.31007e-08
9.05429e-08
1.29946e-07
1.71614e-07
2.13934e-07
5.49089e-07
1.16151e-06
2.00617e-06
3.43316e-06
4.84447e-06
6.38059e-06
7.47383e-06
7.96921e-06
7.53801e-06
6.75693e-06
5.29529e-06
5.05538e-06
4.96758e-06
5.63291e-06
7.26627e-06
7.8441e-06
4.58486e-06
2.20568e-06
2.30206e-06
5.63636e-06
7.93481e-06
5.84533e-06
1.27594e-06
9.42365e-08
2.30316e-08
9.93564e-09
8.30004e-09
1.34688e-08
3.19196e-08
4.44425e-08
7.4811e-08
1.58906e-07
4.72747e-07
9.24866e-07
6.36801e-07
2.56908e-07
9.67e-08
7.09187e-08
5.27383e-08
4.88014e-08
7.4755e-08
1.10471e-07
1.63134e-07
1.69379e-07
1.22864e-07
7.67045e-08
4.3254e-08
3.17218e-08
3.20141e-08
2.16393e-07
6.21237e-06
4.53946e-10
1.37943e-09
1.12174e-08
1.43691e-08
9.78647e-09
5.04244e-08
2.20232e-06
1.34652e-06
2.53325e-08
4.43032e-09
5.69791e-09
4.56886e-09
4.94104e-09
6.13152e-09
9.1898e-09
4.77861e-08
1.15282e-06
5.78461e-06
6.2181e-06
6.00539e-06
5.86535e-06
1.15115e-06
4.24819e-08
1.24493e-08
1.29263e-08
9.05496e-08
5.68036e-06
3.52535e-06
2.45427e-06
2.93048e-06
7.37195e-06
6.853e-06
5.73643e-06
5.53512e-06
5.76414e-06
5.31222e-06
1.85883e-06
4.71787e-09
6.38551e-10
5.95481e-10
6.2143e-10
5.86814e-10
5.56444e-10
4.89292e-10
4.70593e-10
4.83798e-10
6.42959e-10
1.0258e-09
1.46834e-09
3.0941e-09
6.9841e-09
5.04769e-08
2.0639e-07
5.11286e-07
4.26175e-08
9.92316e-10
2.21153e-10
7.51114e-10
1.92031e-07
3.73966e-06
1.22835e-05
1.19922e-05
1.0534e-05
8.02235e-06
5.69e-06
6.98189e-06
1.38017e-06
1.5968e-08
2.02082e-09
6.88967e-10
2.82175e-10
2.43979e-10
3.31929e-10
4.13378e-10
4.5917e-10
4.79419e-10
4.47201e-10
3.66617e-10
2.47473e-10
1.89858e-10
8.30245e-11
4.12358e-11
2.02756e-11
1.43665e-11
1.49734e-11
2.17655e-11
3.0011e-11
1.37572e-10
1.46255e-08
1.78702e-06
3.52041e-06
3.07634e-06
3.59715e-06
4.23492e-06
4.43073e-06
3.99549e-06
3.47827e-06
2.86775e-06
2.42252e-06
2.07874e-06
1.64851e-06
1.34252e-06
1.46496e-06
1.98321e-06
3.04191e-06
4.94904e-06
4.9639e-06
2.42127e-07
7.53883e-08
1.20705e-07
3.07092e-07
4.29522e-07
2.59908e-07
1.74622e-07
8.52906e-08
5.02676e-08
5.62427e-08
7.48446e-08
2.57733e-08
1.86697e-07
2.32885e-06
2.45504e-06
3.14005e-06
4.02232e-06
5.04442e-06
6.11461e-06
8.43107e-06
8.63226e-06
2.38495e-06
9.64054e-07
2.08056e-06
1.19718e-06
3.44102e-06
1.47717e-06
1.37069e-06
2.00327e-07
1.54397e-07
3.5623e-08
2.4201e-08
9.61984e-09
7.69923e-09
5.17358e-09
5.77968e-09
1.18181e-08
2.38901e-08
4.11465e-08
8.11645e-08
1.84948e-07
2.70384e-06
5.28763e-06
2.8773e-06
3.07996e-06
4.24574e-06
7.07977e-06
1.05277e-05
1.17394e-05
6.29145e-06
1.59517e-06
1.50929e-07
1.55886e-08
3.76725e-09
2.74794e-09
1.64097e-09
2.29537e-09
2.35715e-09
5.22904e-09
6.36356e-09
6.95853e-09
4.97343e-09
2.64018e-09
1.11696e-09
1.09896e-09
7.76467e-10
1.08975e-09
1.74069e-09
4.15616e-09
3.11173e-08
1.69612e-06
1.58767e-05
5.33819e-06
2.8818e-06
4.25791e-06
7.08171e-06
1.02266e-05
1.21743e-05
5.05985e-06
6.98186e-07
1.0778e-07
6.88665e-08
2.49911e-08
1.48347e-08
1.79074e-08
1.84025e-08
2.18022e-08
2.71805e-08
2.8114e-08
4.51606e-08
3.03761e-08
4.10128e-08
3.214e-08
2.8615e-08
2.62443e-08
2.58537e-08
1.96328e-08
2.98796e-08
6.30173e-08
5.593e-07
1.10018e-05
4.19268e-06
2.99359e-06
4.87732e-06
1.71566e-05
2.05496e-05
1.96508e-05
2.10529e-05
2.13487e-05
1.67131e-05
3.66976e-06
6.93333e-07
3.62033e-07
5.03572e-07
1.68913e-06
1.34155e-05
7.94302e-06
1.28085e-05
1.39521e-05
1.49561e-05
1.52154e-05
1.35512e-05
1.21973e-05
1.18734e-05
1.26758e-05
1.42563e-05
1.47524e-05
1.0364e-05
5.22634e-06
3.95357e-06
3.88932e-06
5.51872e-06
9.04408e-06
1.05875e-05
1.02527e-05
1.02693e-05
1.05944e-05
1.15914e-05
1.33345e-05
1.30824e-05
1.10448e-05
5.07754e-06
2.41027e-06
2.46398e-06
4.16299e-06
5.61972e-06
3.34538e-06
5.56847e-06
5.56536e-06
5.58794e-06
5.61887e-06
5.62779e-06
5.62262e-06
5.62307e-06
5.60912e-06
5.62053e-06
5.69742e-06
6.24449e-06
6.31432e-06
6.96872e-06
7.06684e-06
7.32721e-06
7.5752e-06
7.74186e-06
8.55565e-06
1.02777e-05
1.17982e-05
1.1871e-05
6.33501e-06
2.33073e-06
2.08467e-06
3.04552e-06
7.42243e-06
1.04295e-05
9.58771e-06
9.31552e-06
9.77296e-06
1.3292e-07
2.07658e-07
7.60753e-07
1.28991e-06
2.49183e-06
3.94944e-06
4.96971e-06
5.49447e-06
5.73926e-06
5.74508e-06
5.74374e-06
5.74005e-06
5.74115e-06
5.70601e-06
5.73408e-06
5.74319e-06
6.05565e-06
5.74328e-06
4.78015e-06
2.35869e-06
1.0219e-06
5.25445e-07
4.94635e-07
7.68944e-07
1.4124e-06
3.6837e-06
4.47079e-06
4.28532e-06
3.3601e-06
4.02142e-06
5.59084e-08
5.31599e-08
1.12071e-07
1.64785e-07
2.00583e-07
2.20441e-07
2.58818e-07
4.28946e-07
6.31068e-07
8.74153e-07
1.18999e-06
1.50912e-06
1.96667e-06
2.38426e-06
2.80311e-06
4.24405e-06
6.32883e-06
7.25483e-06
6.20545e-06
5.26029e-06
4.39839e-06
4.71206e-06
5.12212e-06
6.28033e-06
7.33179e-06
3.94732e-06
1.73881e-06
2.07203e-06
5.41314e-06
6.86573e-06
4.76802e-06
1.63879e-07
3.34517e-08
1.04852e-08
6.96366e-09
1.04837e-08
2.23462e-08
3.7151e-08
4.43663e-08
7.32275e-08
1.74413e-07
9.64877e-07
1.39226e-06
7.66992e-07
1.26209e-07
4.1687e-08
3.24139e-08
2.56013e-08
3.03289e-08
4.08545e-08
7.44249e-08
9.87663e-08
1.00096e-07
8.10909e-08
4.36783e-08
3.2469e-08
3.1119e-08
3.2455e-08
1.96242e-07
6.40204e-06
2.53478e-10
5.55294e-10
2.01074e-09
5.33679e-09
1.24899e-08
1.96045e-07
1.28451e-06
5.19356e-08
5.35767e-09
3.69102e-09
6.23564e-09
6.82986e-09
6.14492e-09
5.98142e-09
1.16218e-08
4.28754e-08
2.17657e-06
6.28218e-06
6.0643e-06
5.76763e-06
6.08811e-06
2.09969e-06
1.17854e-07
3.08124e-08
3.61276e-08
2.1336e-07
5.93359e-06
3.53989e-06
2.55197e-06
2.80085e-06
7.19771e-06
6.776e-06
6.34526e-06
5.85107e-06
5.85438e-06
5.73852e-06
2.17502e-07
1.83753e-09
5.39638e-10
5.1837e-10
4.87364e-10
4.18041e-10
3.81161e-10
4.14152e-10
4.30706e-10
4.9357e-10
7.17905e-10
1.05942e-09
1.3842e-09
1.32528e-09
2.31974e-09
8.8196e-09
1.13694e-07
1.32786e-06
3.8334e-07
4.36244e-09
2.03725e-10
6.57958e-10
1.52042e-07
3.9221e-06
1.20448e-05
1.17034e-05
1.00779e-05
7.68393e-06
6.02601e-06
6.02731e-06
3.79607e-08
1.64618e-09
5.61318e-10
3.05606e-10
2.69757e-10
3.55626e-10
4.61978e-10
5.71952e-10
6.08934e-10
6.16645e-10
5.60466e-10
5.43246e-10
4.09716e-10
2.48273e-10
1.49367e-10
4.98188e-11
1.95291e-11
9.80616e-12
1.35313e-11
1.96493e-11
2.33009e-11
2.65942e-11
1.7806e-10
5.66542e-06
3.30715e-06
2.89501e-06
3.50669e-06
4.03177e-06
4.0811e-06
3.5585e-06
3.32487e-06
3.09888e-06
2.96196e-06
2.71009e-06
2.05862e-06
1.51989e-06
1.64959e-06
2.62525e-06
4.82438e-06
4.21556e-06
1.09021e-07
4.43442e-08
5.93579e-08
2.51109e-07
6.31518e-07
5.03361e-07
3.02456e-07
1.79212e-07
5.06909e-08
1.79041e-08
5.17471e-08
1.91065e-07
8.12637e-08
7.28817e-09
1.96342e-06
2.02498e-06
2.34794e-06
2.93918e-06
3.75038e-06
5.38353e-06
7.89809e-06
2.03261e-06
9.45261e-08
1.57939e-08
9.34572e-09
5.32073e-09
3.64666e-09
1.60957e-09
7.13847e-10
4.78681e-10
2.40338e-10
2.01223e-10
1.70866e-10
1.3583e-10
2.16497e-10
4.06169e-10
7.68866e-10
1.81846e-09
4.36381e-09
7.58397e-09
1.08091e-08
1.15792e-08
1.18553e-08
1.26592e-08
2.80712e-06
2.99127e-06
3.8826e-06
6.95515e-06
1.14891e-05
4.04927e-06
2.87183e-07
7.38006e-08
1.7105e-08
3.94345e-09
3.08021e-09
3.27613e-09
8.35237e-09
1.62168e-08
5.36255e-08
9.53993e-08
1.11188e-07
1.60344e-07
8.32742e-08
4.00369e-08
1.17009e-08
3.25314e-09
1.22616e-09
7.20471e-10
1.15204e-09
1.43714e-09
3.81769e-09
3.99865e-08
1.02263e-05
7.35117e-06
2.5816e-06
4.71068e-06
8.73148e-06
1.1958e-05
5.0772e-07
8.14139e-08
1.64248e-08
6.45688e-09
9.36168e-10
1.2077e-09
2.7939e-10
5.29817e-10
4.89045e-10
1.03823e-09
9.08205e-10
2.27766e-09
2.21263e-09
3.36985e-09
3.10815e-09
3.23069e-09
2.73718e-09
2.03757e-09
1.62242e-09
1.80252e-09
2.60758e-09
7.23171e-09
1.68399e-08
1.91351e-07
9.68722e-06
3.13263e-06
2.6624e-06
1.04074e-05
1.03771e-05
1.01148e-05
1.71404e-05
2.02772e-05
1.93746e-05
1.11077e-05
2.70861e-06
8.2341e-07
5.4127e-07
8.44234e-07
5.35799e-06
1.00648e-05
1.44055e-05
1.58428e-05
1.56346e-05
1.43763e-05
1.26579e-05
1.17136e-05
1.18157e-05
1.24343e-05
1.35641e-05
1.30247e-05
9.23195e-06
6.26921e-06
5.57045e-06
6.16363e-06
8.98357e-06
1.03179e-05
1.01394e-05
1.03276e-05
1.06381e-05
1.17032e-05
1.25786e-05
1.36505e-05
1.25454e-05
7.01574e-06
2.76675e-06
1.43436e-06
1.46874e-06
2.79942e-06
5.47188e-06
4.13371e-06
5.63025e-06
5.6165e-06
5.60857e-06
5.62631e-06
5.59964e-06
5.66597e-06
5.68593e-06
5.76916e-06
5.94355e-06
5.97874e-06
6.31812e-06
6.29725e-06
5.63345e-06
5.15956e-06
5.87306e-06
6.52214e-06
7.40512e-06
8.47677e-06
1.04088e-05
1.21628e-05
8.63241e-06
3.06667e-06
2.47063e-06
4.39973e-06
5.8169e-06
6.95247e-06
8.16543e-06
8.62787e-06
9.2011e-06
9.97287e-06
1.33567e-07
1.75619e-07
6.52635e-07
1.45382e-06
3.30389e-06
4.69952e-06
5.41922e-06
5.72956e-06
5.74229e-06
5.74311e-06
5.73379e-06
5.72154e-06
5.7227e-06
5.71963e-06
5.68272e-06
5.82367e-06
5.68676e-06
5.42683e-06
4.27389e-06
1.94512e-06
8.58059e-07
2.24367e-07
2.01796e-07
3.46195e-07
9.51586e-07
2.50926e-06
4.4286e-06
4.91385e-06
4.2699e-06
4.22076e-06
4.8188e-08
1.87849e-07
8.32659e-07
1.06306e-06
1.06837e-06
1.05556e-06
1.0169e-06
9.74935e-07
1.00111e-06
9.98633e-07
9.29851e-07
9.89997e-07
1.01236e-06
1.16376e-06
1.48269e-06
1.97958e-06
3.69524e-06
7.03992e-06
5.80939e-06
4.79532e-06
4.73877e-06
4.55234e-06
5.59449e-06
6.14901e-06
5.30581e-06
2.81734e-06
2.19663e-06
3.55503e-06
5.8517e-06
6.24366e-06
2.48277e-06
5.02431e-08
1.68669e-08
6.98115e-09
6.96503e-09
1.30157e-08
2.87644e-08
3.8248e-08
4.32923e-08
6.19386e-08
1.83351e-07
1.23502e-06
2.61846e-06
1.15755e-06
1.15578e-07
3.45576e-08
2.68169e-08
2.89351e-08
3.44778e-08
4.41472e-08
4.36064e-08
5.97662e-08
4.81777e-08
3.94937e-08
3.19879e-08
3.01338e-08
3.37724e-08
4.38489e-08
2.98511e-07
6.6026e-06
1.96779e-10
2.49757e-10
1.18124e-09
4.05323e-09
3.75651e-08
5.55223e-07
1.56465e-07
1.1184e-08
4.03183e-09
4.64455e-09
9.89865e-09
1.21956e-08
8.70424e-09
5.72395e-09
1.12373e-08
5.30676e-08
1.47848e-06
6.46726e-06
6.08499e-06
5.46537e-06
5.75637e-06
6.00145e-06
3.0745e-06
9.61288e-07
1.11937e-06
4.43595e-06
5.44762e-06
3.29858e-06
2.59571e-06
2.69226e-06
7.16971e-06
7.02296e-06
6.7186e-06
5.99563e-06
6.04791e-06
5.96039e-06
1.45271e-07
1.27925e-09
4.08959e-10
4.35272e-10
3.8585e-10
2.68037e-10
2.66748e-10
2.82186e-10
4.22693e-10
6.11369e-10
7.60105e-10
1.50308e-09
2.3369e-09
1.5643e-09
9.47023e-10
2.35125e-09
2.28399e-08
1.13982e-06
2.8665e-06
5.20316e-08
4.62265e-10
5.7194e-10
5.15646e-08
4.46127e-06
1.17779e-05
1.13651e-05
9.56465e-06
7.93284e-06
6.53073e-06
1.273e-06
7.36857e-09
6.77171e-10
3.63712e-10
2.47747e-10
3.87892e-10
4.57985e-10
6.29758e-10
6.88947e-10
7.35099e-10
7.12296e-10
6.72348e-10
5.8258e-10
5.01473e-10
3.72041e-10
1.90998e-10
5.70673e-11
1.84544e-11
1.42299e-11
4.86485e-11
2.1672e-10
3.6024e-10
1.31359e-10
5.79591e-11
1.28494e-07
3.38563e-06
2.73338e-06
2.82906e-06
3.26802e-06
3.50513e-06
3.3729e-06
3.39164e-06
3.70476e-06
3.93627e-06
4.07783e-06
3.21077e-06
2.24148e-06
2.24295e-06
3.81686e-06
5.62641e-06
2.22626e-07
2.36639e-08
1.54794e-08
5.01941e-08
3.17834e-07
7.32108e-07
4.9517e-07
3.41393e-07
1.46993e-07
5.31193e-08
1.75247e-08
4.08388e-08
7.03783e-07
1.28294e-06
1.14656e-09
1.74938e-06
1.7237e-06
2.0791e-06
2.42864e-06
3.13021e-06
4.35032e-06
7.62164e-06
1.30144e-06
2.32125e-08
3.03758e-09
7.59864e-10
3.74909e-10
1.90145e-10
1.12555e-10
8.02807e-11
6.20633e-11
7.81285e-11
6.56978e-11
1.35436e-10
2.16655e-10
5.95875e-10
1.53094e-09
4.78001e-09
1.2943e-08
2.40861e-08
4.41885e-08
4.35258e-08
3.55016e-08
1.52944e-08
4.99381e-09
2.77478e-06
2.79827e-06
3.50311e-06
6.06275e-06
1.16061e-05
9.05244e-07
9.06217e-08
2.33839e-08
8.5687e-09
4.97498e-09
7.57757e-09
1.86888e-08
4.6518e-08
1.37617e-07
2.57557e-07
4.22996e-07
7.4847e-07
5.45715e-07
5.76296e-07
3.55392e-07
1.13197e-07
2.4331e-08
2.43815e-09
1.19869e-09
8.25672e-10
1.2765e-09
2.24242e-09
1.41429e-08
4.14151e-07
1.1775e-05
2.7662e-06
5.17457e-06
1.12763e-05
1.46835e-06
3.87713e-08
9.88257e-09
2.64585e-09
1.20561e-09
2.88406e-10
3.23476e-10
8.88212e-11
1.66565e-10
1.52088e-10
2.98678e-10
2.4454e-10
4.08339e-10
6.87953e-10
9.17984e-10
1.02525e-09
1.36153e-09
1.36654e-09
1.40659e-09
1.0863e-09
7.76543e-10
1.64725e-09
5.94657e-09
2.70631e-08
5.62047e-08
5.74339e-06
4.65264e-06
1.53549e-06
5.81179e-06
5.71537e-06
6.6783e-06
1.60554e-05
1.75836e-05
1.72904e-05
1.63846e-05
1.05441e-05
4.6464e-06
1.43401e-06
1.1077e-06
3.39263e-06
1.15116e-05
1.62405e-05
1.59388e-05
1.52811e-05
1.41629e-05
1.308e-05
1.23902e-05
1.19976e-05
1.20532e-05
1.21614e-05
1.20589e-05
1.08689e-05
1.00356e-05
1.00278e-05
1.06291e-05
1.04221e-05
1.01863e-05
1.04812e-05
1.10281e-05
1.16921e-05
1.29753e-05
1.34866e-05
1.07085e-05
5.23469e-06
2.31909e-06
1.22864e-06
1.18807e-06
1.21406e-06
2.07255e-06
4.78974e-06
5.23292e-06
5.60935e-06
5.58117e-06
5.55897e-06
5.57855e-06
5.66035e-06
5.59288e-06
5.5708e-06
5.61919e-06
5.94523e-06
5.89417e-06
5.91065e-06
4.23379e-06
3.27221e-06
2.98092e-06
4.06819e-06
5.77373e-06
7.21385e-06
9.16774e-06
1.03751e-05
9.06918e-06
3.06642e-06
2.3394e-06
5.62209e-06
5.402e-06
1.00394e-06
3.81023e-07
9.62779e-07
3.80159e-06
8.65748e-06
9.2556e-06
1.14721e-07
1.75591e-07
1.47918e-06
4.09413e-06
5.19172e-06
5.56262e-06
5.74031e-06
5.74304e-06
5.73987e-06
5.73879e-06
5.71846e-06
5.72699e-06
5.70939e-06
5.69146e-06
5.66558e-06
5.23916e-06
4.45992e-06
3.38075e-06
1.76545e-06
8.94387e-07
2.14235e-07
1.6305e-07
1.52092e-07
1.80477e-07
5.89877e-07
1.54847e-06
4.29512e-06
5.24799e-06
4.76608e-06
4.38298e-06
6.80595e-08
1.07182e-06
2.11624e-06
1.85242e-06
1.53547e-06
1.3768e-06
1.18601e-06
8.37887e-07
5.02321e-07
5.26551e-07
5.47933e-07
5.56248e-07
5.6208e-07
5.96391e-07
6.25203e-07
1.10629e-06
2.34577e-06
6.6638e-06
5.6969e-06
4.83867e-06
5.04716e-06
5.27819e-06
5.7923e-06
5.47667e-06
3.70517e-06
2.50616e-06
3.5048e-06
5.20308e-06
5.86392e-06
5.8913e-06
9.45462e-07
2.03792e-08
7.56641e-09
5.3253e-09
7.56745e-09
1.4393e-08
3.32198e-08
4.17928e-08
4.62055e-08
5.75697e-08
1.64496e-07
1.36338e-06
4.2892e-06
2.37968e-06
2.20341e-07
5.72301e-08
3.43535e-08
3.10017e-08
4.82059e-08
3.57638e-08
3.84746e-08
3.5532e-08
3.19688e-08
2.70294e-08
2.91561e-08
2.66535e-08
3.46557e-08
6.34366e-08
1.34772e-06
6.29749e-06
2.08343e-10
2.38961e-10
1.13039e-09
9.08949e-09
1.1579e-07
3.1386e-07
4.0867e-08
6.1595e-09
4.56981e-09
8.90831e-09
1.55509e-08
2.25523e-08
1.15175e-08
6.9112e-09
8.1228e-09
4.34144e-08
1.30202e-06
6.78924e-06
6.55019e-06
5.49318e-06
5.02252e-06
5.18572e-06
5.49264e-06
5.69377e-06
5.72167e-06
5.17239e-06
4.04573e-06
3.06408e-06
2.59043e-06
2.54239e-06
7.00688e-06
7.15267e-06
6.56183e-06
6.72318e-06
6.52997e-06
6.04301e-06
1.87781e-07
1.29872e-09
3.52851e-10
3.35009e-10
2.62445e-10
2.53915e-10
2.5794e-10