/*--------------------------------*- C++ -*----------------------------------*\
| =========                 |                                                 |
| \\      /  F ield         | OpenFOAM: The Open Source CFD Toolbox           |
|  \\    /   O peration     | Version:  2.1.1                                 |
|   \\  /    A nd           | Web:      www.OpenFOAM.org                      |
|    \\/     M anipulation  |                                                 |
\*---------------------------------------------------------------------------*/
FoamFile
{
    version     2.0;
    format      ascii;
    class       volScalarField;
    location    "0.003750000";
    object      p;
}
// * * * * * * * * * * * * * * * * * * * * * * * * * * * * * * * * * * * * * //

dimensions      [1 -1 -2 0 0 0 0];

internalField   nonuniform List<scalar> 
12384
(
844930
846488
838211
837943
826990
827134
824264
824257
825718
834070
837388
843419
845748
850533
775105
797446
790651
819501
809659
842265
828849
868935
865987
889273
888216
887162
870693
861559
845677
843243
817641
820072
812177
779045
740827
763683
691326
635294
650004
617165
556790
587417
549640
557537
599229
600326
602027
603957
604967
605272
604129
602205
591141
617646
599474
623216
709036
748392
751748
849858
865477
880094
925847
942378
947172
950097
949898
945895
940448
936412
930719
917072
914772
909505
671614
673424
675371
678026
677953
680392
679680
679642
680590
675644
677065
669843
681605
676355
700194
697846
700810
668435
665998
633245
644709
640740
643823
653012
652110
651384
650197
638249
645314
644033
593865
594199
591453
589125
581909
576303
570700
565815
585543
572308
602656
606154
618864
628094
652667
681663
676312
739548
760704
771396
787125
798623
791395
816401
815509
824464
824307
828670
828072
828641
754310
754183
758351
744700
719040
717462
705230
714613
715557
731173
734509
742642
749733
750967
749353
746059
735039
722293
703497
691549
691539
683953
696792
702845
692754
690003
655380
665591
650722
656815
548952
533621
563954
618208
608668
648025
682623
638829
735745
700621
759190
838852
842071
845072
856009
854230
854346
853087
852028
846740
840793
812579
810616
786831
769649
744600
752123
720917
731357
718298
778146
760622
697066
698098
644663
656723
599541
595283
577397
549733
569912
553081
594533
568465
637456
617558
692921
708304
744861
741319
713440
634183
649985
549929
589147
543391
565377
576166
582335
586774
1.24512e+06
1.18891e+06
1.10649e+06
1.03351e+06
940245
903529
899870
868285
872335
841827
834081
814226
804228
808395
813684
804794
786008
777130
773971
768980
769163
762033
755197
745670
725135
729559
693733
686522
684004
663849
449063
443222
451223
461819
485852
488407
520181
519523
538249
543635
550900
585250
567741
619056
604607
668308
670161
726455
734386
750738
761335
803805
857554
921847
972282
975772
941545
896278
826173
811851
1.05718e+06
1.04876e+06
1.05395e+06
1.04144e+06
1.03854e+06
1.02303e+06
1.02397e+06
1.01626e+06
988939
950665
871495
807604
756949
664477
690388
601146
628433
565403
588862
557966
561715
572329
556825
612911
588033
648115
653200
683757
693936
706117
1.22153e+06
1.24807e+06
1.30964e+06
1.34151e+06
1.32003e+06
1.25578e+06
1.22505e+06
1.15084e+06
1.17766e+06
1.15132e+06
1.1877e+06
1.16986e+06
1.22863e+06
1.2059e+06
1.28252e+06
1.29122e+06
1.32773e+06
1.32815e+06
1.29775e+06
1.31919e+06
1.29346e+06
1.36639e+06
1.34233e+06
1.39249e+06
1.4401e+06
1.46628e+06
1.48104e+06
1.50492e+06
1.50217e+06
1.50068e+06
1.26571e+06
1.29903e+06
1.2793e+06
1.34782e+06
1.34794e+06
1.39454e+06
1.27764e+06
1.1433e+06
895652
1.00597e+06
986319
966038
1.03801e+06
1.06665e+06
1.05216e+06
1.18206e+06
1.14339e+06
1.26946e+06
1.2614e+06
1.37901e+06
1.42035e+06
1.54142e+06
1.55441e+06
1.55334e+06
1.41234e+06
1.30277e+06
1.12242e+06
1.16313e+06
1.01491e+06
1.07568e+06
845999
846587
841735
833983
834063
823253
826386
823227
827796
829046
835465
839735
843683
845932
777102
798190
795892
814331
813688
833817
834551
859468
866227
878114
881058
872580
867338
852638
844255
832623
823458
804919
803982
786439
744750
737636
716848
647279
635700
630166
563425
585810
564354
551354
594661
597398
598942
601041
602775
603183
602130
602506
596296
621286
624225
638859
739833
741051
776728
830590
840731
885070
893844
918905
930030
933153
932905
931625
930505
925784
919070
922282
905243
910482
676682
678657
678061
677581
679285
677942
679488
679304
674583
673100
667548
670043
662272
677574
674916
692528
677554
676565
641379
646548
635622
637390
648227
654912
656093
652559
651166
642351
648113
654826
593550
593579
590693
586141
581473
577174
571176
564407
584370
572252
603682
615100
640760
653651
672708
670134
699068
677999
717641
733417
740573
755605
772547
776512
814138
817248
819457
830188
831989
833694
778908
764851
749030
750403
751110
739502
730170
714882
720238
728218
736456
737068
739555
740610
738096
730610
722196
710628
695099
685322
675752
681757
686209
688265
692698
675975
666265
664971
655559
653412
547332
528158
592613
588586
628711
655212
668803
655113
741552
710564
777849
827034
829991
848674
844250
848219
847356
847685
845279
838996
824902
813233
803593
769033
779708
742139
748714
726010
731906
720094
773021
765251
700744
710756
649426
660787
612949
588618
580054
552317
556277
558498
573926
571751
618023
624346
674394
704443
733900
741559
709442
647494
642688
554282
582025
553194
565562
575063
582827
595590
1.24379e+06
1.18493e+06
1.1204e+06
1.00746e+06
949051
885920
880803
870042
855597
842495
819804
818611
795054
800667
798320
788888
770704
768771
757751
759855
753567
749590
742074
730330
729086
708598
701560
685293
677833
666791
454769
455171
467180
481276
488655
523077
519876
537458
553041
552618
565977
571143
594287
591441
627677
641711
688856
704674
735451
731468
743099
772586
824746
873717
918968
931965
892511
843988
786460
809685
1.06361e+06
1.04568e+06
1.02789e+06
1.03185e+06
1.01355e+06
1.0098e+06
994008
974200
956277
925410
846711
810513
754403
673577
681263
618816
621910
579168
589352
561391
557879
581916
556971
600989
602865
641266
659323
690547
701542
709205
1.25431e+06
1.26645e+06
1.32408e+06
1.3396e+06
1.30789e+06
1.25749e+06
1.21007e+06
1.16309e+06
1.17149e+06
1.16874e+06
1.16508e+06
1.18825e+06
1.17916e+06
1.22494e+06
1.2266e+06
1.28131e+06
1.29339e+06
1.29268e+06
1.29968e+06
1.32348e+06
1.27526e+06
1.36325e+06
1.33076e+06
1.41559e+06
1.40392e+06
1.46778e+06
1.46879e+06
1.49124e+06
1.48753e+06
1.51082e+06
1.26097e+06
1.2573e+06
1.29352e+06
1.29885e+06
1.34723e+06
1.3366e+06
1.28351e+06
1.15656e+06
922960
997598
928254
988291
992753
1.00768e+06
1.09799e+06
1.08047e+06
1.17562e+06
1.19166e+06
1.26326e+06
1.30304e+06
1.40924e+06
1.43262e+06
1.4894e+06
1.44916e+06
1.37605e+06
1.24093e+06
1.14229e+06
1.12615e+06
1.04108e+06
1.0454e+06
850239
844083
844467
833124
833227
824239
823479
823526
823160
828328
829518
836324
838704
842131
789820
799055
799566
816109
814828
829610
833649
848618
858937
868351
866506
864661
852606
846153
831808
827361
814064
803544
786247
783570
753803
715251
717891
677883
618855
645868
571350
589176
580971
578434
593174
594066
596524
597956
599710
601808
601968
598950
613440
634510
643044
700714
741615
739806
789168
810325
831351
847633
879153
883962
897409
906825
910195
912350
911159
914223
918879
907446
911083
904407
677964
678381
680823
680384
678092
678512
676332
671812
671884
666381
660153
651792
658598
647336
669980
659053
677794
651567
653102
631629
640589
640336
650297
656140
662417
660609
658238
655486
656096
655186
592476
593041
588332
585525
579558
575904
571599
565618
582644
588062
616967
639208
663096
681359
684815
681891
671514
684331
654160
678615
697206
713752
742502
766324
781328
815576
814754
811132
811186
807636
786727
788022
783907
771503
748738
741301
731809
742502
733038
728957
729950
734452
731524
727705
723880
719152
709120
697912
682789
678838
671979
662274
665379
678446
666960
667738
664058
657906
654627
664067
542957
557151
607542
587963
628310
657539
659280
663174
748152
719732
793722
825842
826481
837209
846220
839339
841331
840062
838693
827755
825577
799774
793323
769124
766478
739389
746596
726161
732478
722170
782827
751793
725676
707410
679323
642031
641885
571914
597939
545946
561586
545526
579326
561543
615294
606636
668297
680325
725879
725607
713434
648536
649330
565527
584057
560195
565049
568949
589672
583819
1.23795e+06
1.1827e+06
1.11659e+06
995762
930549
886597
854739
865440
845274
829357
816831
788034
790850
785565
785426
762582
764370
730614
742155
734841
739980
733632
730111
724560
709938
703140
695687
679684
681877
663342
437662
451339
469913
487460
509719
506176
523915
541399
545582
557101
577597
568688
587278
610656
605682
657179
665219
709194
709791
721067
715606
730800
764973
810003
845100
844712
815445
781303
745327
729013
1.04179e+06
1.03217e+06
1.01019e+06
984751
977678
966822
960420
949888
932121
862049
872522
755329
787529
650542
695448
618453
609495
596245
584927
569226
563665
572908
577886
572887
625218
655883
655701
701694
702891
703366
1.26055e+06
1.28099e+06
1.32275e+06
1.33405e+06
1.29481e+06
1.26186e+06
1.20807e+06
1.17204e+06
1.16919e+06
1.15476e+06
1.16828e+06
1.15572e+06
1.17982e+06
1.14879e+06
1.20393e+06
1.20199e+06
1.25106e+06
1.26223e+06
1.25561e+06
1.30559e+06
1.26834e+06
1.3623e+06
1.32318e+06
1.41296e+06
1.3943e+06
1.44169e+06
1.46634e+06
1.47721e+06
1.49676e+06
1.50174e+06
1.21442e+06
1.24777e+06
1.24776e+06
1.28465e+06
1.28072e+06
1.30962e+06
1.23652e+06
1.20247e+06
955034
1.02398e+06
918420
974305
962374
1.01812e+06
1.05148e+06
1.10088e+06
1.10992e+06
1.21222e+06
1.2013e+06
1.29051e+06
1.32459e+06
1.40667e+06
1.39846e+06
1.40324e+06
1.31114e+06
1.26924e+06
1.14126e+06
1.18911e+06
1.07639e+06
1.10263e+06
847267
844328
840222
836368
826721
826832
818401
818737
821029
821276
826528
826842
831468
833986
796940
807669
809989
819451
818318
825985
831752
838588
846954
850703
854456
846557
841680
829128
825527
811522
803121
793089
779910
769669
758319
719745
697288
703168
621436
645817
599988
579833
583416
570617
585654
589564
590461
593672
596691
603027
598796
614857
635152
653524
685827
734480
733493
748008
776612
788042
807364
826894
838502
863746
873264
882123
890626
893237
897193
898752
893676
903749
899764
899983
683061
685657
682027
681244
679386
673762
672600
668436
663210
656141
649585
644528
633623
647497
630516
657046
638997
655781
635219
639182
637662
646117
654239
660676
662635
660574
656381
656729
659962
665635
590979
589005
586338
581039
577315
572894
573842
580818
587965
603391
633668
662791
687610
689576
684045
669575
656277
642440
656038
635382
656255
674714
701959
748831
770793
779878
808607
813386
808877
814019
802532
796333
800160
792682
788333
767892
750115
738909
744525
734223
729322
722190
720075
715572
711041
703199
696005
684957
670400
665723
648550
663245
663625
647920
655374
653407
651312
656632
665251
657698
592434
576386
586544
641909
636673
671174
677574
702548
746048
729586
820318
815432
837672
855903
841294
838560
832589
832574
829705
823005
814125
794385
778128
762560
756293
739374
734478
732262
726467
727207
777392
756880
733232
715633
702407
670309
644692
604848
580945
557270
550862
557643
555069
570173
599073
604371
643549
676056
699490
715655
697046
668555
629911
584894
599960
581386
582019
595886
582581
608908
1.23726e+06
1.17617e+06
1.09471e+06
1.00414e+06
890122
894781
840939
851581
827636
832361
793014
779253
763892
773368
750679
752927
704284
722790
708895
719197
713483
718327
711097
701119
699977
695406
682748
684883
676276
676757
521731
513529
517314
499501
523196
551347
562492
567526
575863
579380
577460
582072
598057
592930
630492
625684
674473
670745
696148
673865
679720
669467
698146
727220
748239
739632
729507
695599
664313
659392
1.02955e+06
1.00121e+06
985630
976736
955191
944447
933861
909778
869866
874470
824697
781174
749921
665316
699084
614857
627862
604258
577887
585960
566778
565548
589643
586948
598992
669550
647980
692306
710866
712739
1.26051e+06
1.29489e+06
1.32005e+06
1.32709e+06
1.28238e+06
1.26557e+06
1.20134e+06
1.18237e+06
1.17966e+06
1.13743e+06
1.12189e+06
1.14098e+06
1.10827e+06
1.15404e+06
1.10834e+06
1.18873e+06
1.18245e+06
1.22762e+06
1.2526e+06
1.26042e+06
1.25562e+06
1.34117e+06
1.34291e+06
1.37857e+06
1.4195e+06
1.44393e+06
1.44874e+06
1.50532e+06
1.48639e+06
1.53849e+06
1.21163e+06
1.19325e+06
1.22542e+06
1.23136e+06
1.26454e+06
1.24833e+06
1.24668e+06
1.15347e+06
1.01822e+06
1.03216e+06
896722
969577
940309
1.00111e+06
1.04933e+06
1.05138e+06
1.14971e+06
1.13476e+06
1.23859e+06
1.23184e+06
1.31329e+06
1.32624e+06
1.37877e+06
1.32164e+06
1.28815e+06
1.216e+06
1.18141e+06
1.15577e+06
1.1068e+06
1.14294e+06
846722
844426
834952
835767
823631
820241
816852
814011
812341
816331
817401
823007
823145
827022
808516
814267
815354
818509
822121
828394
826260
831775
832956
835821
827271
826899
819662
818961
807433
801272
790236
778555
773072
757133
741084
739322
687462
708177
637241
643475
603827
610545
594802
596477
581722
582529
586739
590839
594995
598617
611904
635993
654392
701119
723806
720166
736607
743645
749065
772170
783945
798442
817143
827891
843611
853554
860542
871900
876257
877259
885489
881167
884332
885945
691297
691953
688091
680968
680101
673409
669923
662190
655943
648264
640759
634518
634533
619504
636590
623374
646266
633538
642808
643108
647366
655883
662592
669606
670214
670943
668403
668264
669319
671091
588381
587054
581352
578774
573369
579164
591180
596041
614815
640943
672166
679397
682758
676867
662136
647759
634702
621476
624290
636890
622610
651533
672107
693105
748676
754510
747832
756792
759431
752458
806348
806328
809849
816435
801803
795211
774319
751863
738682
740301
726534
727699
711947
714043
703782
694901
696840
676656
656237
654520
646675
630604
627364
630121
628669
635878
654044
659038
657111
672408
568621
584063
654008
623134
640878
665414
668190
727560
732588
770090
828012
847575
859876
845272
842649
837162
831247
832549
827312
813289
808776
783356
774125
749007
745015
731584
733677
727195
728193
726446
762714
754533
760223
766299
734944
709243
678735
647968
584341
568974
550353
556913
559974
550238
600565
596838
627230
658028
688543
688459
694420
651126
646535
614618
606061
589226
595613
585882
607249
591214
1.22879e+06
1.15816e+06
1.07799e+06
993591
869465
892630
829527
833801
823904
807898
771565
771161
758313
730362
731646
690483
695506
655554
679195
680836
702061
698682
696678
694614
691869
683016
686458
679516
679677
678154
487138
495172
512214
554517
555911
548235
557187
559247
571828
574580
588831
584830
595155
603898
610778
641558
638691
679052
677073
679018
636941
647608
651792
670587
666467
652717
618783
645905
650430
652872
990378
962686
929849
907383
896746
887505
873226
858796
875849
826471
828762
754787
761657
685610
680831
623882
636960
593060
584911
580835
570473
573308
558813
614405
581422
640462
667034
675564
707895
700655
1.25069e+06
1.29018e+06
1.3135e+06
1.30605e+06
1.27046e+06
1.26097e+06
1.19518e+06
1.1983e+06
1.17349e+06
1.12821e+06
1.13845e+06
1.09089e+06
1.12017e+06
1.04873e+06
1.11075e+06
1.03072e+06
1.08801e+06
1.11276e+06
1.15298e+06
1.2483e+06
1.24792e+06
1.30483e+06
1.36517e+06
1.36618e+06
1.42453e+06
1.42649e+06
1.47459e+06
1.49599e+06
1.53316e+06
1.54469e+06
1.15479e+06
1.18945e+06
1.19293e+06
1.22923e+06
1.2205e+06
1.24613e+06
1.19064e+06
1.1838e+06
997059
1.05202e+06
887620
968752
931592
1.02508e+06
996071
1.09445e+06
1.09066e+06
1.17795e+06
1.17019e+06
1.25875e+06
1.2745e+06
1.30371e+06
1.29068e+06
1.30315e+06
1.25362e+06
1.24583e+06
1.15451e+06
1.18952e+06
1.16928e+06
1.12801e+06
846133
841493
835953
825340
821489
815025
809146
804932
805409
806464
810356
810286
814721
817004
817509
821003
822039
827045
828168
827390
827026
822885
823870
822561
827508
818807
815199
799556
793753
782750
774788
772605
756033
748352
742010
726779
694781
702041
639840
662527
609542
618143
614346
603929
583941
579728
583649
598116
585879
617952
629096
663181
705314
715478
719890
728071
720493
734319
737375
742906
763650
777892
792883
815357
835737
850626
863013
860298
849974
847883
850269
863075
873235
892154
705583
700597
693255
687513
678290
667572
669483
652508
648039
641388
632547
624845
624354
626877
616431
630777
625053
638730
641609
648173
656985
667213
673937
676796
678482
675409
672642
671228
673137
677074
584103
581556
578669
580818
586140
595348
606789
632594
653209
665511
673289
671552
664398
649648
639036
629181
624336
626417
612491
615200
636462
618772
676874
681913
699334
748989
773178
761254
769714
774144
805135
809530
816678
816564
818149
799484
788971
764879
748250
730796
731562
719862
730871
712986
727880
704246
685429
691943
646797
660704
623827
625963
608427
613044
612227
642787
648867
669470
685626
685455
628805
679186
652683
676726
733630
726853
736277
757519
781177
787017
865093
874513
884452
880526
883108
858172
843456
835293
826348
808178
800789
779781
766604
737674
739564
733767
727560
728618
723542
724420
767410
778722
783688
770682
770919
762141
732982
691216
658555
593055
567166
558005
565516
554413
572823
613402
608008
650876
667882
689428
667329
656275
655363
625663
621592
620290
608312
626054
614242
620302
1.19609e+06
1.14293e+06
1.05261e+06
993441
848424
894262
822726
845018
797572
782537
771880
736661
732795
717490
688239
690375
639292
670504
667551
682698
678964
687793
687148
690178
682368
687004
681172
682299
676585
682694
553984
573385
568105
561339
573038
583394
593114
600375
595575
597604
591845
598350
596738
596176
619252
618086
644555
627346
629646
614520
630487
600809
617172
597069
593023
575531
608493
541816
556579
551096
936836
927892
919187
906816
895115
881974
869149
863087
825100
830768
784823
782194
715796
720623
649970
667096
610046
620275
576212
592631
557410
573259
557571
578152
608166
588993
673682
666534
697866
703502
1.24744e+06
1.26332e+06
1.29041e+06
1.28305e+06
1.26759e+06
1.22068e+06
1.21135e+06
1.20441e+06
1.16974e+06
1.15084e+06
1.12093e+06
1.09356e+06
1.04251e+06
1.05463e+06
950281
1.02714e+06
1.00707e+06
1.06654e+06
1.16748e+06
1.15163e+06
1.2611e+06
1.31461e+06
1.31697e+06
1.40148e+06
1.38789e+06
1.44707e+06
1.47321e+06
1.51881e+06
1.53117e+06
1.57376e+06
1.1751e+06
1.16593e+06
1.19385e+06
1.18524e+06
1.20855e+06
1.19964e+06
1.1939e+06
1.12293e+06
1.00595e+06
1.01923e+06
906911
959843
952775
1.01573e+06
1.03091e+06
1.04641e+06
1.12359e+06
1.16639e+06
1.17934e+06
1.23925e+06
1.26926e+06
1.30435e+06
1.322e+06
1.27243e+06
1.2786e+06
1.19794e+06
1.20407e+06
1.18433e+06
1.15643e+06
1.18875e+06
842983
835839
834155
821286
808747
803446
797086
798145
795639
796612
799289
807846
810542
813142
822985
826337
829899
831363
831347
829169
822956
821222
813002
813021
806102
804641
796107
794608
780525
771310
765694
751885
746307
747553
724456
732609
690959
702565
644509
667036
618835
637733
617112
621202
581285
585688
602916
585479
623676
635194
660738
693671
711322
720793
718031
714407
722263
712890
727639
734239
737704
773359
767713
809740
816725
836203
839774
838220
835719
832441
832158
830944
861608
871358
714051
706410
699627
689928
673832
665410
654534
648639
642182
637970
626002
628703
621991
621761
624832
621430
631549
635153
645702
654506
665622
672444
679221
683099
682917
680828
677063
677330
676865
678992
587467
584288
586556
587240
599731
616142
642017
658977
666481
664446
656752
645772
632312
625298
619550
618190
616278
613003
621800
611337
637092
624190
653320
683379
706659
700237
715412
718186
712095
706366
797830
807062
813883
817912
814232
806036
786977
765824
758725
743190
738590
736674
729639
743281
725062
739931
703767
685984
668425
645349
594070
594777
594021
601243
621875
646577
668388
680787
692257
693948
698860
683284
698222
743020
736651
756048
785264
792193
805771
841507
857513
900314
909851
926499
909076
887066
879278
847304
834212
806991
796792
768716
768962
735443
743638
725709
729853
723057
722006
722244
770396
786006
786540
799353
803384
792930
781192
755181
709319
668471
597767
575719
568042
569877
560048
604103
614147
638683
666091
671843
668380
662297
660148
649866
646613
631194
633781
620249
628571
648086
1.15149e+06
1.08147e+06
1.06356e+06
913639
929316
842516
858117
810094
801441
782118
739079
744702
696762
701906
687598
621752
636197
625636
657181
660245
679751
684941
690058
687722
686071
682133
681034
675423
677320
675232
569702
576518
591189
597046
600946
597628
592733
588190
594599
592403
599445
597053
604597
604127
603994
622158
615663
637777
620458
623791
588488
608412
608518
622879
621369
582687
618029
605555
588568
603627
901451
878218
859501
845645
822165
818336
822921
814764
824723
793054
797365
756382
738182
689837
676167
654062
611738
627477
568420
593944
552225
570024
562513
549739
598977
578423
642372
665118
686449
708765
1.17358e+06
1.23889e+06
1.25995e+06
1.26134e+06
1.23294e+06
1.20894e+06
1.20728e+06
1.20356e+06
1.17604e+06
1.1584e+06
1.08256e+06
1.06289e+06
1.00586e+06
970649
996337
907096
973370
1.0245e+06
1.07621e+06
1.17645e+06
1.19435e+06
1.31222e+06
1.32323e+06
1.34472e+06
1.42324e+06
1.39694e+06
1.50013e+06
1.5016e+06
1.55215e+06
1.55665e+06
1.14156e+06
1.16414e+06
1.16295e+06
1.19438e+06
1.18537e+06
1.1981e+06
1.13349e+06
1.123e+06
985891
984442
956238
987507
940610
1.02247e+06
1.04968e+06
1.0969e+06
1.12026e+06
1.19941e+06
1.20161e+06
1.23925e+06
1.27356e+06
1.29917e+06
1.29124e+06
1.29845e+06
1.25707e+06
1.22311e+06
1.23717e+06
1.17956e+06
1.21183e+06
1.16659e+06
842283
832265
827424
822545
802067
793865
788823
783795
790882
792184
790042
791735
801534
804400
832357
833819
835292
836190
833638
829048
820457
815303
808044
792804
784267
779891
776132
766755
764161
759929
748800
745311
745614
732511
730933
719294
694987
692457
649058
663948
626328
635481
627672
610003
608745
610404
596499
634541
627774
645567
688029
708556
708688
712860
714796
707981
705742
716299
703728
715352
731655
743154
768745
789513
817940
831582
851338
849574
832277
813754
787125
822432
833756
878958
738090
722152
704525
687196
667569
656187
647584
642434
640071
632308
627418
626583
627468
626810
627114
632422
633390
642882
645758
657636
667202
672802
679506
681575
682101
681398
680367
678688
678782
677523
578558
590167
586894
601569
618879
646881
665006
670019
665313
651822
635400
618719
612082
607765
609145
611322
615858
616960
619653
617967
639454
624944
670679
662511
692724
710365
708599
729198
733738
725076
787916
797717
809540
812311
812143
798704
792127
765757
757691
745107
744611
747496
748662
749860
759879
740683
740712
701651
624254
644371
572432
585948
591913
606991
634844
662470
682581
703091
705080
703348
710154
717449
760842
763761
781418
807352
810115
808178
806385
848214
850030
891289
951863
951798
949784
939828
913891
887529
852376
822146
793183
781954
755543
757840
735481
747165
732526
737642
729292
738215
786011
788574
796643
807792
810567
808304
799267
789563
752655
705114
661758
598674
576687
582348
576349
593317
618822
641434
667859
676620
677921
667401
664371
660417
653767
656588
649683
648983
663180
664043
1.04803e+06
1.08872e+06
988162
975669
867211
892480
833347
826396
804597
753048
759291
704229
706721
678985
639627
623678
633613
629742
653070
667136
678661
691554
691773
690784
687906
685714
678318
679182
676745
678272
594505
599350
603699
616536
622316
625767
626787
622728
623494
613905
611614
606996
604282
609895
606120
606288
622905
612452
610548
592012
598947
595220
592957
630033
609898
653769
634527
603601
553265
480057
834430
855831
861147
843732
844694
840488
825270
811778
791485
798637
765741
768466
710845
719116
650611
673289
602342
631532
564965
591672
543590
561890
544947
566669
566612
579689
650175
625397
701197
550553
1.16532e+06
1.173e+06
1.21851e+06
1.22359e+06
1.20966e+06
1.21781e+06
1.22577e+06
1.19684e+06
1.186e+06
1.12809e+06
1.10748e+06
1.01965e+06
1.01939e+06
927132
912409
928960
912358
902011
1.07661e+06
1.08293e+06
1.19996e+06
1.21622e+06
1.32378e+06
1.32402e+06
1.36289e+06
1.42996e+06
1.42515e+06
1.51015e+06
1.51773e+06
1.55969e+06
1.15203e+06
1.17007e+06
1.17042e+06
1.16287e+06
1.17789e+06
1.14763e+06
1.14296e+06
1.06129e+06
974583
991596
940073
985686
946903
1.06971e+06
1.05015e+06
1.14032e+06
1.15934e+06
1.20747e+06
1.23603e+06
1.26261e+06
1.30001e+06
1.31078e+06
1.30749e+06
1.29346e+06
1.25586e+06
1.26284e+06
1.21349e+06
1.23628e+06
1.18747e+06
1.242e+06
836544
836263
820021
818170
805854
783129
786418
776822
772148
777870
784449
792308
801996
810514
816761
836823
834190
837495
839542
838331
832942
826300
813123
802110
790257
795653
788872
783299
771996
765869
757630
747879
743790
743019
727942
730576
720309
713625
687352
695407
649255
667861
635396
650365
636701
632505
628118
625563
613374
606460
639908
634792
656377
696050
696877
697829
709423
706134
705283
708401
699430
697537
709409
705584
714974
739614
756106
779330
808123
831896
846370
852161
840713
822821
809849
830189
853050
866140
824975
757083
726170
701769
682983
663199
653853
647641
642283
639485
639242
634012
636097
630198
632038
633928
635011
633614
638477
640823
648825
650943
659728
666760
668699
671737
673608
675882
674249
672969
661696
652114
613407
624585
604817
598191
605684
617943
643626
664254
676990
673816
657915
630308
607373
594779
587259
593414
598529
605824
611903
617678
622898
626875
641699
627816
664378
665293
672066
699904
706109
699190
702420
707584
700593
688101
753238
778405
797359
809980
804329
799213
784244
776638
755084
761531
749425
756275
770396
776913
780164
779594
723056
717716
596979
618059
556560
578089
596461
615684
645842
670424
693720
702757
713131
708925
719243
722498
713052
761554
756877
775550
798763
803970
805700
805976
803935
790758
833749
880300
930361
963021
977880
972338
965150
931334
895085
844973
810527
777506
767641
744356
763390
732394
730757
722083
735350
746930
755455
800867
795572
796487
802172
799379
803792
800026
798450
776498
758583
715480
671507
634064
609960
572904
580738
602047
618773
646362
665307
679146
678453
665637
666424
659248
664691
659583
656037
672518
694057
727342
809038
610040
971369
951332
997564
911796
926784
865405
853210
827682
779457
780478
716615
726350
665054
677769
615658
634702
632304
630298
652539
669986
687452
693991
698244
696585
689053
685332
679111
671188
666944
655342
622619
642765
604329
621760
625905
629328
636144
634629
632967
629115
623256
619110
617655
620733
613133
609428
612417
605729
597867
591590
597881
584079
597419
582662
630744
626496
662796
652801
673194
696095
721987
706006
784835
689346
799241
814603
808218
819305
797487
788857
785637
792703
795321
770205
771743
738730
735691
699333
651959
673628
601353
627093
561091
581398
538853
548454
541775
570791
540860
623545
612648
713800
703585
722119
858189
720086
1.01742e+06
1.10007e+06
1.17921e+06
1.19003e+06
1.19198e+06
1.23844e+06
1.204e+06
1.21876e+06
1.15556e+06
1.14883e+06
1.06053e+06
1.05981e+06
959525
966625
891037
901616
907680
974610
969924
1.12618e+06
1.11326e+06
1.22612e+06
1.21523e+06
1.31121e+06
1.29352e+06
1.35844e+06
1.4031e+06
1.39799e+06
1.41836e+06
1.33848e+06
1.19719e+06
1.20343e+06
1.19894e+06
1.16308e+06
1.16438e+06
1.16263e+06
1.147e+06
1.15997e+06
1.0991e+06
1.04676e+06
997794
956943
923508
994355
1.01657e+06
1.02937e+06
1.1297e+06
1.1898e+06
1.19618e+06
1.24282e+06
1.28445e+06
1.29291e+06
1.30829e+06
1.30606e+06
1.31463e+06
1.29588e+06
1.29824e+06
1.27701e+06
1.29651e+06
1.2566e+06
1.30594e+06
1.28215e+06
1.29384e+06
1.37616e+06
836716
835341
825285
803696
805507
786609
772319
778187
775231
771337
779474
784495
797822
807969
816126
833983
835930
840022
840527
836523
828543
818429
801920
793568
782949
768547
768097
758004
757680
750210
742997
740601
738650
723866
728695
718138
719213
710008
697608
688288
651194
661858
639786
644417
636631
630295
629580
626639
618848
642904
642575
664972
698296
687655
690820
705938
703531
710010
702737
704839
700587
694052
691061
706032
710872
720394
753085
768743
797772
826380
838294
843963
838060
828840
834796
853664
864841
862309
827598
783480
736012
700436
680539
647955
649219
642969
637981
642986
641918
642090
637098
637752
633766
634927
637730
639896
636240
636480
636298
643044
643791
652888
657029
660844
664283
665802
667619
665270
662904
660071
633459
628488
612340
607421
608250
632079
652955
670494
678766
669675
645109
613631
588691
581074
580771
584609
596040
605906
613411
622834
630935
630721
646588
628374
662278
657691
668454
694012
700581
709452
715634
703599
724800
714280
772632
772261
799297
803268
805327
794649
784949
773834
767707
758406
766574
772994
780469
800373
794403
778546
725222
699355
570278
622663
553405
591968
591244
621786
647825
670671
685184
703617
702544
701442
706236
713859
714840
739780
747952
779780
784777
800445
802460
797597
788903
796024
791897
829248
870155
951864
976667
994615
993199
984133
943658
891038
833588
816258
793192
795614
757640
773637
775179
782321
780041
814083
812110
822812
805555
807734
793073
791159
785417
784962
773836
762288
738280
712897
662329
658215
609722
598335
595086
598621
621568
639327
659745
664127
657691
656399
650687
652905
651356
649312
677941
679017
679633
795212
807659
851198
926657
966729
918499
943055
887319
886114
853709
811993
795101
738685
747698
682351
684990
636842
631490
626158
634424
642615
659292
682449
695257
704787
706017
703389
695024
688350
678598
674122
666526
672905
658132
647771
616787
625635
620819
628568
628515
637973
643492
643152
644321
640261
631296
623335
626046
616049
609824
611102
598301
603432
581206
580277
573325
623403
622793
669938
686145
734604
758656
774962
777856
794250
850965
828936
845227
832001
822653
817457
809884
805724
798518
788786
767923
774820
742788
748080
702235
713542
649474
670926
597751
623640
552018
583822
524768
549513
555603
528482
584824
567106
671710
686270
806007
813812
942287
919882
1.08697e+06
1.08192e+06
1.19861e+06
1.19431e+06
1.27454e+06
1.23197e+06
1.27536e+06
1.20576e+06
1.20381e+06
1.10621e+06
1.11928e+06
1.01023e+06
1.02686e+06
933914
961962
923943
925558
990901
1.03516e+06
1.08948e+06
1.17e+06
1.15595e+06
1.24124e+06
1.21575e+06
1.29546e+06
1.26141e+06
1.29514e+06
1.31198e+06
1.25421e+06
1.31511e+06
1.24615e+06
1.19185e+06
1.21259e+06
1.17849e+06
1.16215e+06
1.14952e+06
1.15737e+06