/*--------------------------------*- C++ -*----------------------------------*\
| =========                 |                                                 |
| \\      /  F ield         | OpenFOAM: The Open Source CFD Toolbox           |
|  \\    /   O peration     | Version:  2.1.1                                 |
|   \\  /    A nd           | Web:      www.OpenFOAM.org                      |
|    \\/     M anipulation  |                                                 |
\*---------------------------------------------------------------------------*/
FoamFile
{
    version     2.0;
    format      ascii;
    class       volScalarField;
    location    "0.003750000";
    object      rhoEu;
}
// * * * * * * * * * * * * * * * * * * * * * * * * * * * * * * * * * * * * * //

dimensions      [1 -1 -2 0 0 0 0];

internalField   nonuniform List<scalar> 
12384
(
857981
840316
818216
804061
795309
788678
791915
789565
773997
709390
466469
-6760.68
-78006.6
-78409
-162715
-26775.3
56186.2
138655
169569
244995
244892
313388
306396
314382
290993
260664
218948
188992
157041
145339
121108
125135
118455
107785
126332
191492
134460
42438.2
-12683
-119181
-171343
-155351
-166853
-165661
-76194.7
-58381.4
-60788.7
-66472.1
-72123.9
-76940.3
-82154.8
-88496.1
-102953
-93972.3
-110716
-107269
-46628.9
-28610.6
-38723.4
35021.9
86932.9
207912
373866
435465
438213
424683
404369
375658
333461
253753
180224
121811
101139
75784.6
-163862
-167928
-170928
-171029
-171131
-168327
-167054
-162091
-155425
-149476
-141860
-131737
-111730
-97455.6
-72390.8
-44229.6
-27627.5
-30316.6
-15082.9
-35381.9
-50167.7
-76229.2
-105554
-124154
-145517
-151023
-153926
-162177
-157561
-158894
-176971
-174681
-173018
-169266
-166120
-160727
-154047
-148824
-129853
-122804
-96199.2
-82482.1
-66904.9
-45543.7
-12185.1
29723.5
32157.3
101379
123345
118643
114586
89505.9
42726.1
36936.4
24989.6
42836.2
49948.5
52298.2
50436
40756.5
-184578
-200857
-192520
-233334
-254438
-241056
-179148
-164258
-191927
-194890
-186243
-162230
-128517
-90982.4
-52471.7
-14839.7
15423.8
44133.3
67646.9
88234.6
113558
121588
144011
137482
92729.7
18535.7
-49749.9
-53896.4
-83301
-85253.4
-221792
-231036
-220234
-192593
-193938
-170265
-162209
-202594
-140112
-148978
-97786.7
-19950.9
-1948.14
-605.476
-2106.83
-22989.3
-48222.9
-84140.1
-114547
-139366
-174185
-221303
-288473
-359063
-415174
-428043
-425402
-424090
-423029
-409202
-24182.3
-63122.1
-132408
-160877
-200883
-209033
-255246
-259889
-257766
-216123
-175116
-159655
-161583
-187712
-186093
-208064
-179572
-168012
-162203
-134530
-173257
-202080
-199795
-238006
-219763
-226544
-209954
-168310
-163849
-106975
410748
393702
329747
212576
102215
58408.3
53983.1
7738.09
3510.13
-25342.6
-34983.6
-64267
-101430
-126157
-129499
-144542
-175482
-181060
-208496
-219881
-232349
-240648
-238161
-205197
-184635
-145736
-162890
-154628
-176011
-231120
-212133
-213112
-213608
-210843
-204429
-208749
-200578
-210584
-214261
-213591
-202302
-163565
-175098
-147848
-163350
-109036
-46512.4
67724.6
115424
133485
139606
163595
202634
254991
283434
281761
241030
181886
150506
152953
-117555
-88064.2
-34652.3
15196.3
68894
71144
96780.2
81388.9
73639.6
32690.8
-50602.3
-80822.3
-128680
-165971
-155580
-194989
-192048
-218127
-216058
-225814
-219113
-209980
-196951
-166677
-163060
-130361
-117386
-103874
-107478
-82380.5
-103227
-137877
-115647
20141.4
144991
180489
202585
176212
232655
227399
275141
288502
357608
363007
414784
428286
447525
435660
403986
388256
370502
396078
390214
409483
449647
465858
455334
448643
434235
442530
-76476.9
-52232.9
-25416.7
112261
205862
244374
256145
111234
3658.36
125458
89301.7
86245.1
131199
151889
144885
258228
217586
337497
318713
406730
434888
556296
543824
543049
368934
237183
62709.2
80088.5
-21456.9
39371
812067
745709
696078
692606
722033
760132
810645
812581
798509
749812
626528
326017
-30877.7
-81264.9
-126173
52945.8
159416
250110
305593
356679
389337
436455
467234
490859
495860
468852
415820
327284
247336
182803
145680
119791
117664
109992
113593
157193
173356
88791.9
20080.4
-83949.3
-166449
-155857
-159593
-167572
-88622.2
-91003.7
-104231
-115711
-120154
-119939
-117071
-113220
-117363
-102482
-104690
-102376
-31059.5
-30375.1
-21879.7
17653.7
23397.6
119461
244001
388170
465489
486489
489460
483076
447889
355023
215158
139529
92969.8
81817.9
-190245
-192557
-195665
-195850
-193867
-192546
-188272
-183479
-179687
-168060
-158889
-138983
-124349
-100569
-77013.3
-50190
-29175.5
-5075.28
-16767.9
-15417.3
-26069.5
-50730
-75549
-103606
-129793
-149830
-151442
-157742
-152261
-146520
-162298
-156473
-152216
-148599
-145082
-141178
-136532
-134169
-116572
-110758
-92143.7
-66553.7
-45065.2
-23241
6021.03
19625.6
53904.5
45921.3
76495.9
78572
60424.1
47741.9
36120.1
17578.9
32142.7
32967.6
38063.8
48292.1
51187
53597.6
-175489
-189187
-204058
-212004
-179767
-152071
-193658
-261878
-268271
-227706
-178408
-138816
-101455
-66810.4
-36526.9
-11456.9
12441
34218.6
53772.2
75432.9
95594.5
118594
137197
137739
112753
39899.6
-22057.3
-46477.8
-76444.2
-87405.7
-225595
-236097
-206790
-204198
-182561
-162969
-168233
-175974
-124393
-140664
-72227.4
-8068.97
651.158
8491.57
-18647.1
-43867.8
-74437.2
-101817
-120609
-140864
-164429
-195758
-264964
-331207
-373653
-419956
-417075
-420670
-421310
-413918
-27224.6
-61947.8
-128163
-149012
-194218
-203597
-250352
-270457
-222400
-176924
-143300
-140342
-148870
-159479
-152033
-150869
-130405
-113231
-102484
-65818.5
-109825
-119896
-141696
-181192
-180568
-194565
-188337
-156283
-158690
-101946
427453
404465
328540
190150
127246
61115.9
41942.3
12638.9
-15994.5
-51476.9
-51561.7
-67656.7
-87456.2
-97736.5
-109580
-130976
-150153
-166929
-185895
-196942
-208397
-214429
-217287
-229929
-241037
-252120
-234217
-188068
-138609
-179588
-209213
-209489
-204950
-201016
-200346
-189931
-201436
-203670
-204794
-203812
-187060
-168409
-153591
-162486
-143618
-110201
-16912
70045
112699
117144
176682
219228
259960
287295
304833
289354
249878
214154
111294
127378
-114942
-86608
-34949.3
34672.2
60041
70753.8
73066.4
54115.3
42155.2
11420.6
-57511.9
-81349.9
-121169
-160403
-144624
-167897
-160687
-176532
-170235
-178049
-174228
-167319
-175244
-165274
-156292
-137604
-117528
-101596
-103925
-95701.6
-85165.9
-117954
-53329.6
87063
193268
227375
234200
226936
249875
251114
257692
277775
263386
295112
341163
408079
449123
439671
433425
423338
349894
348965
273985
335321
427254
535871
577117
589563
551842
547454
-73202.9
-33533.9
65191.6
172910
286571
306744
334702
220186
78443.1
159642
121216
170194
181323
192445
255165
243115
309480
320574
372312
399460
509055
529087
571178
527716
433859
279381
177265
136985
48229.8
64910
627056
537128
510535
498240
511965
547336
632551
726950
792786
791713
718779
532384
170470
-67835.7
-27921.4
114920
233701
311550
337995
359596
362335
384226
420133
468253
507498
530187
509083
448156
337711
238023
164317
129048
107639
110865
118800
137129
190295
139784
36412.9
-62292.8
-161995
-152930
-152193
-150846
-109500
-143717
-166132
-173859
-174562
-171991
-168741
-165597
-148798
-128306
-115307
-75039.2
-34533
-44686.1
-14896.7
-10513
1749.9
46899.8
178158
318987
432721
483973
508524
522420
506343
420530
249881
128371
99861.1
79434.9
-212600
-224299
-225317
-224957
-223300
-215788
-207185
-196413
-183751
-169520
-155526
-140000
-116147
-97559.7
-74043.5
-53382.6
-29994.2
-25802.5
-13290.7
-16818
-19657.3
-34528.9
-56909.5
-89836
-117516
-138803
-146109
-143436
-135087
-132866
-138226
-127595
-124189
-123083
-122626
-121723
-117600
-117289
-103398
-89995.1
-73407.4
-43197.2
-18473.9
6300.21
24281.6
34858.8
35084.1
48553.9
15007.2
15788.6
4702.96
-4648.41
5405.36
16769.7
18204.4
34116.6
27170.3
22497.7
14099.7
7827.49
-165475
-177509
-170418
-149518
-146849
-209896
-264459
-256437
-212377
-169282
-128318
-96416
-66846.3
-46169.2
-25476.5
-7919.99
6457.1
22709.1
37635.2
58605.3
76783.1
90849.8
106265
115262
82220
35665.5
-16340.7
-46792.6
-64314.2
-79282.2
-219338
-211553
-192173
-199906
-179227
-165808
-173742
-163432
-129830
-105312
-40643.5
-3544.07
-4277.94
-15036
-42449.4
-80106.8
-104454
-126686
-134859
-143589
-161835
-193082
-258356
-308178
-335393
-384548
-408776
-421731
-419628
-413297
-19099.6
-69651.8
-111871
-145641
-178303
-217270
-251654
-261198
-181061
-154175
-121390
-124804
-118901
-130447
-113028
-118933
-89128
-81197.7
-51373.6
-29730.6
-52518.7
-68269.9
-90103.7
-132899
-139496
-156292
-162694
-145368
-145563
-110262
433373
411062
324554
193703
126394
43928.3
-29039.9
-61369.7
-37790.2
-26432.5
-26832.3
-53525.8
-68274.5
-84579.9
-101269
-110709
-113911
-138202
-151454
-174071
-189589
-201367
-199779
-191383
-196857
-229586
-257055
-262698
-191581
-106845
-217062
-212421
-203269
-195504
-188989
-196081
-197601
-200565
-204062
-193119
-173515
-167109
-154816
-148899
-148952
-91925.1
-33508.3
29545.3
88612.7
148609
170795
182684
195770
207838
212756
194563
155033
120304
112844
24635.2
-134519
-101758
-50800.2
-10784.5
27963.5
35268.3
46775.2
39747.4
27325.6
-28562.6
-35815.2
-113541
-94169.4
-171347
-134259
-176735
-169614
-183503
-188699
-196298
-197647
-201238
-195242
-185606
-155365
-126227
-126907
-100936
-100336
-94348
-79968.2
-86929.5
-3275.35
135328
211029
244553
232787
226747
219007
203964
303115
381445
442396
454833
505465
518463
551458
554585
542538
558995
504403
554994
477219
515938
463156
437509
411164
540120
649212
621758
-87451.3
21209.3
106842
204871
239445
298157
260807
199821
55895.3
121158
40681.8
64348.1
70464.5
97803.7
133429
129023
156773
183721
175925
218211
276649
303225
313007
299686
218363
225506
128589
226133
144933
185822
544261
508144
498754
501661
496361
506484
520831
608379
710621
774371
771067
658947
357317
-45663.8
120607
255913
322821
338049
307883
276538
259159
269970
310152
367277
440334
495242
505635
469326
379884
251881
165104
121741
103637
106551
137173
165511
194862
175589
36845.9
-68880.8
-148373
-157956
-149922
-154037
-167288
-178650
-181104
-178388
-176035
-171680
-172748
-162381
-145833
-131652
-104716
-65039.6
-56048
-53663.7
-30891
-34587.3
-22981.3
23690.5
129621
287167
392351
445533
490257
514267
489880
372378
205118
119491
85741.9
79831.4
-247794
-252671
-250861
-243190
-231304
-220070
-207837
-193824
-180876
-166020
-149909
-131266
-117644
-93247.6
-81579.8
-57769.6
-46702.8
-26358.2
-28991.3
-22735.6
-22215.6
-32946.7
-51563.1
-81213.9
-115091
-134750
-143179
-137824
-127175
-121303
-111215
-102924
-100857
-102674
-105178
-105822
-102306
-93590.2
-85320
-69109
-47886
-14181.7
14166.5
28052.9
36322.9
34371.3
27213.4
10149.7
6215
-40695.7
-46919.6
-49845.2
-33532
1275.56
17006.6
7857.52
18992.9
5179.98
-7314.44
-15472.4
-160264
-155114
-111650
-107691
-168033
-240002
-249445
-206828
-154327
-118829
-91052.5
-73275.4
-47058.8
-35279.8
-18170.9
-8492.46
2896.81
8701.39
17931.4
32007.2
41355.6
68881.8
78988.6
62027.9
45560.7
8798.06
-29012
-48701.8
-50461.9
-82137.1
-195004
-202404
-196782
-170302
-169127
-161865
-158944
-151388
-105450
-88982.6
-16941.4
-579.345
5359.05
-14184.5
-65232.8
-95324.5
-123955
-124696
-126988
-137048
-157861
-200163
-260364
-304495
-321627
-364629
-398121
-419305
-418104
-409628
-23941.3
-68323.1
-104078
-144286
-164495
-218826
-256012
-234160
-165437
-132456
-107120
-103240
-108455
-102633
-93436.5
-93299.7
-73888.7
-55026.5
-35868.3
-16349.1
-37684
-37028.3
-78153.2
-100573
-101128
-123331
-129403
-115598
-140037
-96793.9
461593
411710
310696
218447
89740.7
5611.41
-99481.4
-53262.2
-32904.5
-7684.65
-34341.5
-52546.2
-69416.5
-77901.9
-85758.1
-82914.6
-103401
-95758.2
-109515
-127100
-154279
-180046
-199909
-196596
-170804
-170168
-196926
-218051
-235692
-133790
-176337
-178048
-178953
-187800
-179917
-172547
-175361
-181636
-181256
-174371
-165781
-156075
-140548
-148730
-123260
-108798
-56874.5
23265.7
108432
121314
130363
112479
122960
140384
159862
151130
108697
44091.8
29137.3
18376.5
-146231
-127518
-77988
-26027.5
3120.26
10507.8
25155.9
5943.21
-12316.6
-20991.5
-30047.4
-110488
-131343
-198943
-169169
-221808
-194093
-214965
-206202
-202733
-183931
-162535
-137885
-117912
-112644
-81477
-113332
-112466
-142241
-131566
-68738.1
-51525
34378.2
166645
210041
240782
200058
218178
279805
330545
402309
449238
445329
479337
439182
517326
502881
532548
529296
519483
493805
548690
530406
544002
555648
546825
521181
505767
594964
705464
-64478.2
33114.6
144755
182094
214102
202302
261888
170606
131172
135406
51723.2
97922.8
84408.3
108269
136451
115457
195236
173663
250357
268744
325830
337686
398367
353690
298738
224382
108015
110931
165482
262222
539317
506737
503008
506613
494640
500877
513074
555742
637754
720022
760655
726785
481744
-14894.7
278720
334073
337103
299004
237698
199413
184396
203103
244687
310553
376663
447008
463414
431669
326296
211649
135176
100349
101232
114170
162758
233859
205559
173291
27775.9
-89656.5
-148964
-145485
-143493
-140287
-185453
-176456
-167059
-162534
-162170
-163430
-159153
-150409
-138168
-111722
-82663.3
-85576.6
-54531.3
-45439.2
-35157.4
-27968.4
-20382.6
25117.9
134265
252923
340506
397738
451944
445454
339664
205231
122231
74667.3
70409.6
70861
-264304
-264805
-253707
-241483
-224274
-210964
-196669
-186496
-173838
-161648
-144921
-129415
-108585
-103795
-84445.2
-77649.9
-60186.6
-49132.4
-36134.5
-31430.4
-30419.6
-35351.2
-54648.4
-81877.8
-112599
-126972
-130017
-123745
-115042
-108657
-94597.1
-93430
-96145.4
-98090.4
-101500
-95587
-86079.7
-77685.4
-59724.4
-31606.2
-1708.08
13811.6
24173.6
30868.4
28627.8
23898.1
11432
-14602.8
-43918.2
-55875.8
-88616.6
-76036.3
-68613.9
-45201
-13608.9
-19995.6
-46194
-51620.3
-65990.6
-66711.4
-158862
-122314
-80100.2
-121110
-202651
-224506
-199265
-159791
-120388
-86807.6
-68659.1
-50136
-37792.5
-25499.4
-12558.5
-10932.1
2960.07
-7269.36
-6568.12
2139.72
15857.9
15576.2
18309.7
11601.9
-8027.35
-27990.2
-36090.9
-47323.6
-56610.9
-75884.4
-197443
-192165
-157761
-175593
-166691
-156433
-153855
-120152
-104524
-60166.4
14255.7
45125.1
35266.9
-24016.6
-74199
-106260
-128683
-116962
-118647
-131078
-150069
-197247
-254543
-304504
-338677
-372205
-396917
-414283
-412493
-403421
-47323.3
-73700.7
-94804.3
-107428
-150950
-201404
-234095
-206015
-157455
-118476
-95078
-88844.6
-88751.3
-100239
-76284.1
-80680.3
-65045.4
-48193.8
-28598.6
-25276.3
-24998.7
-48977.2
-56156.9
-72761.8
-87794.2
-99588.4
-105242
-110460
-114272
-114989
462814
402255
314074
216600
50081.1
-44604.5
-96218.5
-57345
-30256.5
-29349.4
-45057.2
-51117.8
-74132.4
-91341.4
-92830.6
-96287.7
-84677.1
-96645.7
-83533
-93199.8
-112980
-142822
-174928
-183994
-175197
-166957
-162776
-173167
-205260
-206129
-192280
-188434
-180218
-159788
-161201
-172548
-172938
-175318
-171197
-166713
-151047
-146126
-135048
-129742
-123470
-109704
-58274.8
54310.4
102355
115772
74244.8
73971
79950.8
107710
127378
131976
111028
23135.5
-16628.5
17691.1
-173073
-154115
-123259
-88238.5
-49268.8
-39574
-30880.5
-50179.5
-26279.6
-70241.6
-63584.4
-109588
-102483
-151639
-149461
-181924
-166111
-190836
-183383
-176004
-158314
-137248
-126149
-87570.1
-98435
-71957
-57394.1
-68434.5
-69017.8
-107218
-52720.3
-26805.2
54476.3
165356
200507
225363
244061
319958
361266
384064
434238
401459
429979
379340
435808
357103
397927
409719
457932
516210
483303
504684
548420
538477
584824
558401
573733
557436
586389
742974
-71223.6
79750.1
155124
181623
216341
279586
288851
295880
154797
221587
84781.9
154910
116948
180820
142710
211487
198624
259348
241405
318869
326215
361673
354829
367659
325115
316504
204207
171235
136636
249794
554832
527415
537271
522603
486884
465467
472359
502652
569033
646617
712954
723617
587709
78533.2
340703
345064
315890
261760
206043
173017
169443
178238
223335
283119
354388
388148
375103
293482
201824
128149
91964.2
97072.6
111158
172704
243435
246474
193847
101432
-28184.9
-112141
-153776
-146453
-134157
-135809
-167061
-161660
-156765
-147091
-155558
-142709
-141662
-129884
-100753
-102559
-83721.9
-48276.8
-1592.92
32536.6
22489.5
-7070.89
-2768.59
46900.2
143485
243536
323247
401414
405148
232740
90531.8
25295.4
12743.2
29481.5
56029.1
80082.4
-264892
-257718
-235765
-218995
-207273
-198966
-185905
-182017
-167135
-152743
-137944
-126379
-111555
-100379
-100790
-86957.8
-80641
-66403.3
-54764.3
-49479.5
-45437.8
-52021.8
-69962.2
-93496.8
-110587
-120899
-118702
-112912
-103983
-96072.8
-92507.7
-97869.4
-99282.8
-95601.8
-88916
-79838.5
-66227.2
-41440.4
-17697.7
-1611.97
9773.88
16769.9
19750.8
19396.9
21827.4
18303.5
-215.74
-24894
-66552
-91938.5
-92717
-108076
-78902.4
-69180.3
-72180.9
-59201
-73575.1
-103567
-103021
-112578
-149902
-96325.7
-85114.8
-152072
-197860
-196538
-157005
-123667
-94670
-75139.9
-53025.3
-41822.4
-22322.7
-24667.2
7709.59
-11288.1
-6618.13
-8439.69
-22083.5
-9639.87
-21486.8
-14181.4
-31806.6
-33317.6
-50391.2
-42416.3
-47659.6
-44839.4
-41656.2
-71370.7
-162841
-137109
-150253
-143355
-111739
-122788
-122038
-106079
-74145.1
-33847.9
56688.4
90526.6
72430
4660.25
-50700.6
-89624.6
-115173
-101472
-101844
-121020
-138348
-178390
-249456
-302712
-353640
-379229
-391881
-401979
-402892
-397965
-58093.7
-69069.8
-86413.6
-112900
-128912
-171916
-213610
-189308
-138455
-108854
-89781.2
-82590.2
-81783.8
-88770.8
-84719.9
-58114.5
-69528.9
-44208.3
-35400.6
-21562.1
-44588.9
-46837.6
-52652.2
-65736.6
-67491.7
-77061
-84184.8
-79584.9
-88257.4
-103090
442071
412600
294189
229518
29499
-54691.5
-91193.3
-56655.3
-67201.2
-50163.2
-55509.8
-75501.5
-89107.3
-102768
-102008
-97677.5
-107523
-82703.6
-75244
-76108
-91807.6
-122541
-150028
-170534
-177681
-176220
-180946
-174521
-183952
-223955
-153103
-145838
-149123
-157575
-152442
-151494
-153881
-149209
-147221
-142499
-136165
-128611
-124408
-122072
-113569
-108087
-42441
15152.7
53281.9
53997.3
58318.2
28271.7
44609.5
68829.3
110294
128352
138282
14223.9
-82947.5
-46929.4
-202125
-178370
-132313
-96723.2
-68677.6
-55084.2
-41304.1
-77485.8
-61564
-76341.8
-95565.2
-100047
-124114
-124741
-155964
-149307
-170523
-166984
-175712
-158253
-153437
-130389
-123176
-107559
-86688.1
-97022.5
-46470.8
-56038.5
-48092.5
-84357.5
-22636.9
-12425.5
60862.9
150411
194894
214755
311223
367263
383604
409824
405393
376430
338288
341662
252048
317390
303885
376217
448604
422239
500774
529298
494761
577649
559502
610608
598113
592176
528048
752233
-27534.7
101612
173442
172494
302029
320398
327676
264813
185786
209927
113236
167991
160493
195820
199887
192776
248954
278860
281548
338284
364556
398943
415062
362867
372386
286906
285405
239021
78099.8
289102
583907
563080
569857
523446
414758
360587
356525
391784
434434
494623
591964
686023
628244
173122
338688
318996
295114
251356
211811
182469
165071
165191
174246
201067
216645
219681
185777
145749
104500
88658.4
100017
133403
199231
250071
231463
161760
50397.6
-53322.8
-125226
-127833
-151029
-140154
-137144
-127416
-154905
-149343
-138059
-148369
-126498
-121190
-108356
-102753
-89145.8
-94552.5
-71691.6
-11732.5
72788.3
71164.4
48184
11622
13420.4
89661.3
150216
250695
325304
361699
141039
660.156
-35727.9
-20301.8
-18615.2
-7776.67
41219.9
59414.6
-258975
-238422
-208381
-195527
-193332
-186116
-177301
-162575
-146655
-133765
-127405
-119006
-113427
-112670
-105183
-106332
-100447
-92044
-85108.3
-75628.7
-74752.2
-83147.9
-94310
-103740
-109259
-111764
-106507
-97751.3
-90672.9
-85721.4
-91682.4
-103079
-96694.9
-91495.9
-78021.1
-58831.3
-29576.3
-5542.76
8225.12
13315.6
10266.3
6132.18
5297.63
10556.3
12202.8
12710.9
-14604.3
-46045
-75991.9
-108510
-114545
-122700
-119336
-102729
-117842
-139949
-159544
-155806
-160886
-159654
-135045
-88108.1
-106724
-165739
-189238
-171047
-140484
-109209
-76939.1
-58588.7
-41382.9
-32367.5
-23395.9
-15661.9
-5871.49
6580.35
-1287.69
-22178.5
-4951.33
-29511.9
-52423.3
-52924.8
-56573.2
-60021.7
-55955.8
-46917.3
-41926.9
-40130.4
-53495.7
-81013.3
-107328
-118512
-117464
-91474.6
-102021
-89892.3
-70467.4
-61699.5
-40316.3
9468.57
53964.2
115449
101563
47869.1
-27224.8
-57083.4
-72570
-76261.2
-83675.2
-108203
-124830
-157615
-199486
-257010
-309529
-348467
-367946
-379589
-382583
-381791
-63252.9
-62049.6
-88056
-87396
-100545
-141788
-178820
-162694
-136350
-86536.8
-83914.6
-79780.6
-81310.1
-81957.1
-86921.5
-67385.7
-58600
-49709.2
-32720.3
-35995.5
-46439
-51315
-56368.7
-58608.8
-52442.6
-68920.7
-61728.7
-70048
-71511.5
-72489.3
430084
370710
331066
155805
92396.3
-57752.8
-53610.6
-83726.4
-85585.7
-82163.9
-92126.4
-91297.9
-120071
-117777
-120761
-146765
-126158
-111755
-84593.1
-83209.6
-81746.5
-104359
-132694
-155517
-168078
-178184
-176569
-175961
-172221
-190440
-144131
-143986
-137639
-136970
-139518
-142608
-147533
-147016
-134281
-130322
-116161
-115379
-105964
-102750
-115473
-90438.8
-63048.3
5797.72
32271.9
49691.7
12955.7
23964.9
32511
86071.9
124802
139094
139450
58883.4
-53435.3
-97358.8
-200971
-194667
-166667
-146440
-133716
-126346
-118451
-143781
-106966
-116281
-90943
-116317
-114671
-148502
-142433
-161394
-169457
-163234
-175334
-153366
-149658
-126315
-118050
-122363
-91117.3
-103630
-59489.7
-28315.5
-4894.49
-51573.8
-25063.4
30007.9
91552.8
154234
165746
203040
325915
370498
377999
383457
315714
307154
259974
244623
270256
200928
262036
300443
347463
431039
433830
526321
517895
512767
612707
564093
640072
576519
601462
692523
-7687.18
135684
148421
279539
333529
352222
280644
285413
171934
197853
180921
210749
168090
227547
239238
269342
274639
334583
320784
354481
391595
418201
411268
415211
364406
317418
310108
239752
168016
237270
604845
574676
566549
461965
296291
232974
236192
253728
294340
343362
432550
581000
584894
227258
302438
297131
278412
247571
219818
196213
177373
163446
152907
134057
121667
113243
106569
100360
116400
146159
182227
222473
219730
135240
45499.5
-62069.8
-96952.7
-106759
-127115
-125555
-143010
-135514
-131435
-131021
-134350
-131479
-137043
-111543
-111869
-100978
-77681.2
-77401.6
-84798.9
-91378.3
-56932.4
23859.5
78797.1
80794.4
31524.3
21957.4
52558
109104
183643
269858
326623
134720
-28758.6
-19101.9
54265.1
64090.2
34908.5
38042.1
34029.1
65145.8
-242885
-202501
-178382
-176511
-174632
-162732
-149018
-133462
-122303
-120246
-119831
-118172
-116309
-118398
-118400
-118256
-117317
-112427
-110183
-106382
-103967
-107194
-107840
-107977
-104188
-100905
-92153.6
-85213.2
-76841.8
-74576.1
-112907
-106349
-99180.4
-81091.9
-58347.6
-24609
6989.7
23177.3
26894.6
15409.9
3064.85
-6290.29
1012.57
8767.06
14347.3
8406.52
-26234.9
-51601
-92020.7
-128265
-141992
-156678
-154187
-161728
-180668
-178761
-191827
-176716
-173319
-174989
-117372
-90649.4
-124761
-163871
-168520
-152778
-121355
-101210
-73787.4
-53435.5
-39049.2
-28336.2
-18768.6
-22413.5
-8660.16
-8774.47
21813.3
-17163.1
-33710.5
-29597.6
-68558.6
-63209.7
-63086.7
-62362.6
-50556.2
-42353.4
-34477.7
-42430.5
-70024.4
-91866
-95085.1
-95588
-68714.7
-73403.9
-63782.2
-60368.2
-62105.7
-59789.2
-49682.4
-11409.4
16630.2
87361.7
146553
91835.2
23120.5
-5497.76
-27337.6
-37345.3
-56559.2
-87490.7
-109184
-127897
-162966
-196450
-243939
-275951
-312520
-332738
-346054
-349031
-76237.8
-86149.1
-92545.4
-89808.7
-94428.3
-122409
-164113
-143105
-140369
-111716
-80529.6
-88427.6
-91136.8
-83853.2
-93559
-74804.8
-60215.6
-43606.7
-32086.4
-33023.6
-45153.6
-56810.3
-65771.5
-62181.2
-54725.6
-43494.9
-39198.8
-39558.1
-25125
-61207.4
386763
389377
267976
222044
66858.9
-9812.96
-47401.9
-63057
-93335.9
-122533
-109546
-137390
-134730
-149715
-163521
-165391
-143418
-136310
-105722
-88210.7
-82535.1
-93524.9
-119156
-140440
-157518
-180725
-155933
-167947
-155668
-154202
-129635
-131653
-135904
-133046
-131882
-130697
-125598
-123079
-107037
-108503
-100517
-101948
-97916.3
-95862.8
-97022.8
-89598.3
-64470.5
-37540.9
586.793
8977.12
9339.14
3230.68
10681.6
63284.6
100370
152692
148898
68763.7
-50392.8
-156943
-212053
-193036
-162400
-153945
-145521
-139624
-127202
-156780
-120014
-121533
-108042
-111169
-127208
-137718
-156377
-154542
-171074
-160607
-171477
-155358
-154072
-136951
-132563
-113149
-110572
-97264.7
-49637.9
-23008.2
37631.8
-50870.5
54965.3
68361.4
120234
140722
163932
156811
315321
347327
356003
307362
294987
214689
237321
161587
170535
180430
176568
165568
339570
334139
428064
436426
525084
513519
548952
609756
549145
553965
510849
685962
37688.8
167167
216270
333162
352769
322526
304771
238598
171550
203548
156863
206017
166712
264275
246827
323363
335392
367066
372115
387474
427616
445531
450165
434803
383825
357448
280864
265393
165351
322620
605623
569198
518876
356356
213986
175938
203999
200120
196384
242101
371545
491454
415699
256416
298884
324425
267988
265910
240467
209822
190447
183042
174697
169134
162428
172487
172756
174600
176361
188541
200824
201656
184210
112146
9116.06
-75989.6
-84197.4
-94806.4
-90242.1
-98270.4
-109739
-113652
-126659
-116415
-112846
-110908
-117429
-121948
-128437
-128965
-100473
-89670.4
-67735.5
-42233.7
-52344.7
-68132.2
-74877.4
-77784.4
-29562.7
51506.8
77057
59575
54837.1
53003.6
88677.6
153133
223660
263439
134157
-19069.9
-38236.6
94559
126747
123720
96124.7
70795.3
42986.5
-404.598
-75067
-126771
-147120
-146493
-152042
-154080
-143354
-131513
-121544
-113503
-109885
-110350
-109394
-114916
-116719
-119117
-122200
-126535
-124794
-123639
-122121
-121332
-117971
-114045
-113579
-108315
-101321
-92285.7
-84390.2
-77145.5
-77289.7
-78597.5
-109541
-101033
-109284
-102763
-85445.9
-65209.9
-31195.6
2672.45
31880.6
45980.6
40806
18143.4
-1697
-6435.68
-1974.33
12647.8
15831
2751.07
-34612.3
-63712.9
-110977
-151381
-174449
-195124
-199231
-206309
-222141
-211461
-209440
-202820
-191745
-167982
-143095
-124583
-110165
-100949
-133811
-151232
-152799
-136354
-108056
-80296.3
-72778.2
-48410.5
-38663.3
-32605.3
-17561.2
-19780.1
-22428.2
-13070.8
-1195.01
-9283.65
-44259.3
-45374.1
-68702
-58624.8
-58329.8
-54745
-47521.5
-44451.8
-59534.6
-80803
-90417.5
-112379
-75058.3
-48364.5
-82413.3
-46947.6
-57364.3
-50113.4
-46677.7
-51341.8
-51637.6
-45815
-44683.9
-53827.8
-20759.5
45040
122020
133779
78811.7
39176.1
29586.8
2632.63
-19227.4
-60362.8
-88560.1
-112962
-134369
-157052
-168931
-207752
-237773
-276787
-299650
-313649
-241691
-141007
-95651.3
-83109.2
-87109.6
-88651.2
-86052.5
-103194
-139875
-135891
-139559
-142271
-119521
-104733
-103220
-112816
-99318.5
-82349.5
-61490.7
-40726.3
-29839.1
-32099.3
-45560.4
-68150.8
-71080.8
-75404.2
-65608.1
-38240
-52238.8
-10010.8
590.978
11238.4
146777
45020.1
388934
264646
278449
175710
130005
-5527.21
-14881.1
-50075.7
-100313
-111186
-146027
-140192
-171410
-164564
-193219
-171939
-169805
-158392
-131678
-107328
-90973.1
-94229.6
-110045
-127947
-153242
-183190
-156041
-156225
-178286
-144611
-184642
-177321
-129070
-111625
-122279
-129415
-129373
-130529
-120983
-117234
-99866.6
-99985.7
-90452.7
-82859.7
-90115.3
-87294.2
-79662.1
-81475.1
-78511.7
-60953.9
-32547.8
-19887.2
-10156.6
-12061.3
7973.35
44114.3
100050
125586
134871
104432
9359.29
-77237
-120436
-193514
-159094
-176315
-184221
-179425
-186903
-182163
-175099
-170043
-183636
-149330
-109546
-126197
-110308
-146584
-153352
-155387
-167271
-162205
-166161
-158969
-152080
-142382
-129235
-113302
-119283
-87950.7
-55036.5
21897.4
41375.4
2934.96
-124556
-171852
57982.8
61606.6
77913.2
83424
124204
169124
184705
325531
293919
301989
214906
228422
151039
170858
125024
144617
154832
225332
211997
363777
342970
444855
439647
519199
494685
517059
458053
334076
333564
473735
321972
304421
115832
186274
297476
372954
340638
348609
270467
233845
190086
160296
128884
182481
197161
204729
291117
356125
369908
422745
457223
449593
449125
448091
465922
453482
444159
394116
363716
294924
308700
256387
384638
498171
605119
541770
450592
257397
182463
176193
188841
193268
192058
233267
318841
356332
292307
241650
255572
258716
233214
212487
158595
105723
78292.6
72731.5
74215.8
90801.6
110590
125973
147964
154470
160271
147333
114876
60845.7
-14831.8
-84656
-97167.3
-99344.1
-75368.9
-91156.4
-72940.1
-98018.9
-102744
-107485
-112988
-108623
-106425
-106282
-108386
-112622
-114601
-92066.8
-70873.8
-36179.9
-842.49
-12596.8
-29681.3
-42463.1
-60285.2
-48159
2305.86
60666.7
77095.1
68255.1
72343.2
107079
146576
180742
184099
74076.7
-23605.4
-79128.4
11876.2
112831
144439
151339
143664
123710
95972
60372.8
12363.2
-34846.8
-82571.8
-101966
-110099
-120960
-111762
-112470
-109082
-103644
-102642
-102438
-107828
-111711
-119033
-123031
-123828
-124610
-127462
-129956
-130033
-128542
-126572
-120002
-114660
-108645
-98063.8
-88764.9
-80031.6
-77574.9
-72726
-72672.4
-99414.2
-108093
-112853
-96378.8
-81197.1
-50574.7
-18413.4
14824.2
47301.9
67388.8
67567.2
42769
18884.1
13422.6
18563.3
20906.9
19657.3
873.683
-37339.2
-77776.3
-130004
-173939
-197038
-214331
-219907
-223387
-228514
-210407
-202861
-185702
-168391
-132047
-101143
-105855
-92862.1
-110873
-125000
-137153
-132553
-105766
-61665.3
-40427.3
-49464.4
-55448.9
-35331.8
-27859.1
-34974.1
-17857.7
-31341
-50612.6
-25844
-42143
-58507.2
-38378.6
-69867.6
-52540.8
-62171.6
-60911.6
-67987.7
-85321.7
-93506.5
-106554
-114917
-97278.1
-84185.1
-73091.6
-68462.6
-60844
-56978.3
-45367.2
-54495.3
-55281.6
-55739.7
-58921.3
-63426.4
-65539.6
-75580
-41472.3
17924.7
120307
113338
72421.1
62198.5
46508.3
24747.2
-17257.1
-58829.2
-76070.3
-89930
-102543
-132546
-141528
-161910
-190453
-225765
-252256
-168577
-115886
-102709
-87593.9
-86811.7
-82750.8
-86211.3
-93465.7
-117000
-120886
-131245
-144274
-148023
-127274
-129645
-126207
-111829
-94483.2
-69717.9
-46861.2
-34351.2
-37802.3
-61470.8
-74233.9
-86300.1
-86232.6
-74623.3
-59401.5
-11749.6
-2330.88
5888.75
89695.2
157884
242919
340618
278799
208668
212276
120837
48004.7
2190.16
-38221.5
-81690.9
-125870
-126499
-164272
-162739
-190473
-190741
-196577
-187139
-172843
-152278
-122344
-104072
-99498.4
-105564
-116915
-141734
-174896
-164495
-155787
-161671
-162221
-173811
-128144
-129190
-131966
-142513
-143300
-142814
-134824
-119680
-109476
-89349.6
-84641.2
-78518.8
-78226.3
-69497.7
-73935.5
-74942
-71332
-73306.7
-58191.9
-53612
-39305.3
-41071.1
-8211.65
-9030.64