/*--------------------------------*- C++ -*----------------------------------*\
| =========                 |                                                 |
| \\      /  F ield         | OpenFOAM: The Open Source CFD Toolbox           |
|  \\    /   O peration     | Version:  2.1.1                                 |
|   \\  /    A nd           | Web:      www.OpenFOAM.org                      |
|    \\/     M anipulation  |                                                 |
\*---------------------------------------------------------------------------*/
FoamFile
{
    version     2.0;
    format      ascii;
    class       volScalarField;
    location    "0.003750000";
    object      rhoUnburned;
}
// * * * * * * * * * * * * * * * * * * * * * * * * * * * * * * * * * * * * * //

dimensions      [1 -3 0 0 0 0 0];

internalField   nonuniform List<scalar> 
12384
(
1.58603
1.53139
1.5064
1.5138
1.50741
1.54557
1.59123
1.67002
1.77797
1.9819
2.54596
5.53944
6.53221
6.50992
7.89888
5.60088
4.35596
3.72482
3.42727
3.1553
3.09927
2.9752
2.99277
3.07081
3.19024
3.36583
3.55474
3.72915
3.89101
3.98473
4.05306
4.03238
4.03539
3.94254
3.57736
3.26689
3.28853
3.78241
4.56994
6.3522
5.66993
5.82122
5.23459
5.20477
5.28955
4.84247
4.93591
5.14654
5.39676
5.65608
5.88452
5.87273
5.7706
6.03481
5.8597
6.09304
5.6742
5.39193
5.49072
4.96448
4.43228
3.50619
2.84683
2.63752
2.61939
2.66737
2.73993
2.84098
3.00588
3.39215
3.8754
4.4053
4.75305
4.97883
6.21494
6.22917
6.22761
6.22113
6.19691
6.20283
6.18952
6.18842
6.19839
6.14904
6.16857
6.10154
6.21736
6.18535
6.38306
6.36378
6.38508
6.08981
5.64477
5.65792
5.68508
5.9168
6.00719
6.17367
6.18252
6.04516
6.03287
6.03597
6.1781
6.21225
5.52766
5.52742
5.49337
5.46138
5.38648
5.32807
5.27623
5.22519
5.41211
5.29789
5.57222
5.63853
5.74714
5.32806
4.869
4.44898
4.3213
4.04217
3.94699
4.02094
4.12948
4.32543
4.58632
4.59339
4.55814
4.41208
4.40526
4.48863
4.60384
4.72175
7.41762
7.33992
7.23907
6.99869
6.65216
6.5133
6.26816
6.22572
6.13883
6.239
6.25485
6.32801
6.39414
6.40925
6.01153
5.52773
5.24044
4.97192
4.74085
4.49912
4.12109
3.91918
3.46402
3.23192
3.26493
3.78389
4.47697
4.74702
5.57744
5.64952
5.17949
5.08358
5.39194
5.85182
5.46384
5.49094
5.886
6.087
7.34931
7.00045
7.41254
6.03586
5.63375
5.36193
5.21164
5.34779
5.63937
6.251
6.97386
7.46569
7.44254
7.2586
7.28124
7.22071
7.2285
7.25523
7.62752
7.48495
7.60839
7.38113
5.40576
5.91567
6.85765
6.79311
6.26457
6.46261
6.01605
5.81428
5.06609
4.39745
4.46881
4.34015
4.68038
4.47178
5.08516
4.93136
5.57907
5.73559
6.06502
6.06971
5.85208
5.17588
5.28952
4.39839
4.66608
4.2443
4.40267
4.66654
5.43174
6.01072
4.84969
4.69321
4.56357
4.77786
5.14765
5.55363
5.73219
6.31661
6.54444
7.05629
7.52885
7.81744
7.53574
7.37406
7.29263
7.05257
6.79214
6.66021
6.5912
6.62023
6.74108
6.89538
7.10915
7.28431
7.2848
7.46583
7.12063
7.05469
6.93879
6.48187
4.54407
4.50323
4.56165
4.6281
4.8055
4.8021
5.1276
5.14382
5.4954
5.63358
5.74883
6.08297
5.82476
6.28033
6.10565
6.76445
5.47023
4.3151
4.03878
4.05895
4.06661
4.00303
3.73376
3.49013
3.4254
3.38501
3.47366
3.7729
3.93683
3.81041
9.02546
8.49981
7.68016
6.83694
6.07865
5.9015
5.65746
5.79038
5.74948
5.98422
6.63906
6.93721
7.83241
6.90812
7.13069
6.22648
6.48046
5.82622
6.05718
5.71721
5.76176
5.87505
5.69157
6.32323
6.02643
6.70175
6.72321
6.74997
6.69553
6.02706
9.86034
10.7644
10.8901
9.10388
7.78283
7.46705
7.25789
7.32137
7.01904
7.00311
6.79718
6.71264
6.53473
6.50009
6.47252
6.35935
6.26389
6.24599
6.3496
6.29389
6.19962
6.24862
6.13391
6.1791
6.18537
6.18489
6.24498
6.27138
6.20849
6.07794
9.76538
9.57435
8.97366
7.70194
6.8485
6.90298
6.22478
6.77346
7.14418
6.56262
6.58422
6.54937
6.35847
6.3129
6.24661
6.02922
6.09452
5.94418
5.9602
6.08726
6.11885
6.15362
6.27181
6.27086
6.3652
6.51743
6.84409
6.84292
7.06604
6.61837
1.36465
1.43796
1.50274
1.48725
1.4348
1.3429
1.29617
1.31916
1.43034
1.63379
2.0187
2.96381
5.87489
6.62578
7.69556
4.4661
3.41715
2.94249
2.68368
2.58518
2.48455
2.41682
2.34748
2.29664
2.27743
2.31351
2.46667
2.76612
3.1752
3.58612
3.86087
3.98955
3.9981
3.96187
3.69316
3.30607
3.10652
3.37414
4.02236
5.7929
5.75559
5.83301
5.40582
5.14712
5.65273
5.74663
5.78059
5.81884
5.84975
5.8637
5.86132
5.87234
5.82064
6.07602
6.11547
6.26886
5.64744
5.49203
5.47703
5.18485
5.08889
4.25834
3.35345
2.74679
2.4848
2.40482
2.3814
2.39127
2.50546
2.84818
3.58138
4.29439
4.77072
4.92185
6.26847
6.19086
6.11014
6.07943
6.10931
6.13297
6.19474
6.24129
6.23736
6.25431
6.22305
6.26035
6.18848
6.32678
6.28531
6.40853
6.23362
5.80678
5.84647
5.71557
5.72791
5.84813
6.00015
6.13592
6.21463
6.12922
6.0368
5.95774
6.06371
6.26212
5.5204
5.49568
5.4238
5.34837
5.2937
5.25883
5.22204
5.18529
5.3968
5.32391
5.65863
5.78777
5.3294
5.01849
4.71576
4.57574
4.3696
4.41389
4.32209
4.41102
4.61358
4.80177
4.91732
4.95252
4.70981
4.53226
4.43153
4.43427
4.53736
4.62548
7.6196
7.36954
7.0598
6.8944
6.71197
6.43448
6.19275
6.00364
6.08162
6.21513
6.35366
6.41099
6.47918
6.13005
5.70148
5.42974
5.20889
5.03554
4.85951
4.60523
4.24003
3.84678
3.52215
3.29027
3.27607
3.68443
4.21187
4.54665
5.39508
5.6908
4.74722
4.75639
5.49726
5.47002
5.5291
5.51337
5.91927
6.31019
7.26941
6.66536
6.55286
5.23504
4.9853
4.78824
5.02238
5.34051
5.84621
6.48256
7.02875
7.334
7.17319
6.98755
6.88567
6.62295
6.92113
6.92001
7.41433
7.48036
7.614
7.40469
5.39505
5.89584
6.80908
6.86342
6.31927
6.58587
6.07881
5.409
4.80672
4.32878
4.35114
4.39558
4.54135
4.5772
4.96249
5.05753
5.49011
5.78336
5.68226
5.08424
5.96027
5.60945
5.53833
4.67407
4.70132
4.29209
4.34423
4.57967
5.30714
6.06919
4.78203
4.61735
4.6215
4.87678
5.2312
5.7367
6.05111
6.32364
6.82482
7.64063
7.24664
6.8623
6.3677
6.19832
6.04505
5.89801
5.74652
5.6969
5.56924
5.55072
5.47998
5.46081
5.47962
5.58527
5.98466
6.32598
6.79685
7.02711
7.10915
6.78517
4.60724
4.63102
4.72479
4.80313
4.83362
5.16329
5.17546
5.42066
5.70315
5.76227
5.93109
5.97362
6.174
6.10052
6.46795
6.6287
5.29168
4.31304
3.94916
3.69398
3.21607
3.06532
3.04
3.03191
3.06423
3.11543
3.04912
2.90628
3.3808
4.15579
9.03567
8.47637
7.52888
6.54908
6.06909
5.89731
5.75168
5.81003
5.83404
6.02001
6.60874
6.93013
7.63283
7.10533
7.22352
6.60441
6.65297
6.22771
6.34536
6.06978
6.03407
6.2897
6.03439
6.47264
6.51584
6.92383
7.15517
6.80092
6.73495
6.49243
9.81974
10.6158
10.0448
8.4089
7.30306
6.90786
6.76078
6.71392
6.63815
6.57767
6.48401
6.32971
6.38257
6.05045
5.52289
5.01775
4.65062
4.61879
4.58155
4.61363
4.76194
5.10001
5.4993
5.74348
5.5372
5.61974
5.7141
5.96601
6.13277
6.1298
9.69804
9.03147
7.93543
6.87373
6.23871
6.08877
5.61795
5.80718
6.10391
5.91743
5.82658
5.61476
5.51255
5.54024
5.46603
5.42794
5.46627
5.38351
5.45163
5.5181
5.51722
5.54573
5.67914
5.69894
5.80803
5.95778
6.13518
6.28675
6.49562
6.26553
1.61012
1.8826
2.05466
2.06767
2.00031
1.79189
1.53488
1.34308
1.27242
1.34946
1.58553
2.14503
3.72805
6.44603
5.60729
3.85818
2.99443
2.70429
2.62288
2.63511
2.66432
2.63078
2.51859
2.34966
2.18765
2.08644
2.08421
2.23055
2.58195
3.10491
3.59437
3.86376
3.97199
3.9264
3.67428
3.29256
2.95558
3.10676
3.7126
5.39567
5.83792
5.87619
5.58179
5.40325
5.70403
5.74467
5.80218
5.83879
5.86977
5.89769
5.90305
5.87659
6.02141
6.23369
6.32029
6.4282
5.6695
5.74182
5.45859
5.47696
5.3532
4.78924
3.7088
2.89026
2.47866
2.32856
2.23782
2.18579
2.23087
2.53634
3.38606
4.3473
4.76259
4.89338
6.21627
6.05694
6.08777
6.15807
6.24426
6.34996
6.40648
6.41739
6.45384
6.42619
6.38124
6.30813
6.36654
6.25621
6.44648
6.31671
6.13025
6.0183
5.77651
5.77283
5.76213
5.84236
5.96888
6.08733
6.23422
6.24516
6.15726
6.08156
6.09656
6.20013
5.47231
5.34976
5.20233
5.13875
5.08615
5.08008
5.07885
5.07386
5.2752
5.38599
5.67992
5.09222
4.72644
4.49424
4.33693
4.25948
4.26614
4.26487
4.53109
4.68943
4.96257
5.19545
5.21581
5.09702
4.96204
4.67384
4.58443
4.59526
4.79452
4.97334
7.63657
7.4621
7.1876
6.83919
6.44325
6.23944
6.13358
6.30247
6.33108
6.37142
6.46214
6.56679
6.11967
5.7112
5.34704
5.09717
4.91672
4.73264
4.54885
4.29149
4.02534
3.74894
3.44705
3.29035
3.38429
3.69948
4.18968
4.53806
4.99309
5.56767
4.3419
4.67075
5.36789
5.23286
5.36798
5.6217
6.05768
6.32052
6.86692
6.179
5.58969
4.98346
4.96286
5.04636
5.48305
6.23175
6.96303
7.7172
7.89402
7.85448
7.71295
7.21759
6.8633
6.50166
6.52021
6.60972
7.22225
7.43261
7.61046
7.42745
5.32451
5.92226
6.83276
6.78868
6.64159
6.40415
6.16467
4.9381
4.74285
4.23414
4.37489
4.26546
4.53405
4.39579
4.82592
4.75399
5.15105
4.84545
4.53678
4.34381
4.70845
4.87248
5.39255
4.97523
4.84207
4.33197
4.28263
4.47993
5.32035
5.94109
4.73712
4.57839
4.65069
4.92426
5.36008
6.04366
7.16595
7.93162
6.75769
6.17367
6.00936
6.01611
5.98713
5.92702
5.92281
5.75758
5.74764
5.47539
5.51199
5.38445
5.33556
5.20356
5.12457
5.08151
5.05499
5.16908
5.49344
5.96189
6.80448
6.55464
4.44017
4.59446
4.74339
4.86297
5.05913
5.05307
5.285
5.54469
5.6599
5.82752
6.07367
5.99727
6.17495
6.38639
6.29392
6.57372
5.331
4.47818
3.6554
3.19762
3.0939
3.149
3.2002
3.34277
3.60496
3.88928
3.89533
3.41415
2.92009
4.4449
9.28214
8.63932
7.62279
6.83942
6.23674
6.02119
5.75313
5.6659
5.62677
5.9298
6.21475
7.2206
7.0261
6.663
7.17206
6.34291
6.28108
6.08772
5.98704
5.78666
5.71884
5.75778
5.76811
5.71411
6.20088
6.57799
6.64378
6.9715
6.74496
6.48302
9.9094
10.2937
9.3476
7.82449
6.89628
6.47049
6.35195
6.35413
6.43117
6.36319
5.24685
4.53444
4.17757
3.94364
3.7936
3.62279
3.60059
3.55555
3.49179
3.47233
3.41928
3.47603
3.54297
3.77105
4.02071
4.56537
5.17436
5.31388
5.57592
6.00022
9.72694
8.29222
7.25933
6.50019
5.99864
5.69051
5.38677
5.64692
6.04778
5.96335
6.35761
6.1286
6.00348
5.89168
5.59556
5.77846
5.52011
5.63591
5.58274
5.63234
5.30533
5.49895
5.40961
5.51742
5.68402
5.72502
6.07728
5.93344
5.98389
5.778
1.90475
2.15856
2.25516
2.25062
2.2092
2.11629
1.89831
1.58538
1.351
1.27533
1.34881
1.65545
2.64728
6.05165
3.77352
2.91141
2.63038
2.65988
2.84015
3.0652
3.1996
3.14657
2.94418
2.64388
2.33355
2.09482
2.02189
2.06717
2.34603
2.88543
3.46715
3.81818
3.93575
3.85595
3.51074
3.07971
2.77783
2.98987
3.73475
5.54115
6.14305
5.78529
5.60294
5.33542
5.68391
5.74971
5.77714
5.8198
5.85717
5.9269
5.89002
6.05421
6.25609
6.44296
6.75864
6.15934
5.87307
5.84644
5.55558
5.64437
5.53179
4.91716
3.83459
2.95043
2.53818
2.36227
2.20724
2.12604
2.22521
2.67028
3.60309
4.48552
4.8463
4.84739
6.12902
6.12539
6.19193
6.29867
6.37349
6.38861
6.42845
6.42569
6.40735
6.36102
6.31308
6.27229
6.16901
6.29618
6.12717
6.12897
5.83879
5.51963
5.69497
5.68903
5.71885
5.86296
5.96447
6.07465
6.1825
6.23739
6.18596
6.14367
6.14783
6.27265
5.32743
5.16724
5.09923
5.06709
5.05785
5.04741
5.08958
5.18843
5.29084
5.13883
4.84419
4.45493
4.20321
4.06334
3.97062
3.96251
4.04167
4.26204
4.47591
5.09477
5.34855
5.54837
5.46739
5.21293
4.9735
4.91835
4.70714
4.87683
5.10304
5.35374
7.69694
7.33473
6.84787
6.54481
6.62571
6.4219
6.36174
6.38552
6.49961
6.46841
6.51668
6.39415
5.78326
5.47556
5.03635
4.76221
4.4573
4.32223
4.14255
3.97214
3.8134
3.54152
3.40894
3.41898
3.53706
3.87847
4.31152
4.57721
4.72819
5.60309
4.5308
4.55819
4.92512
5.44427
5.33036
5.87872
6.29788
6.47997
6.41415
5.99881
5.20018
4.88504
4.86936
5.15374
6.0174
6.85244
7.64904
7.89609
7.87689
8.05215
7.80733
7.2975
6.78713
6.45072
6.40547
6.53166
7.04196
7.4736
7.53385
7.48705
5.33046
5.921
6.66601
6.84733
6.87184
6.62875
5.97811
4.97058
4.5018
4.30237
4.2601
4.3024
4.27279
4.36956
4.58817
4.63398
4.65268
4.29996
4.07836
4.00435
4.30226
4.42989
5.10257
5.30018
5.21461
4.55459
4.3647
4.65812
5.22261
6.17739
4.64832
4.5585
4.69462
4.93142
5.61273
6.78407
7.76312
7.06242
6.0199
5.47105
5.75979
5.90436
5.81754
5.9261
5.76761
5.79381
5.39969
5.51209
5.36472
5.37789
5.21834
5.11991
4.9576
4.83253
4.82981
4.85981
4.84548
5.06071
5.74461
7.10144
5.30336
5.25557
5.25116
5.01524
5.23799
5.56679
5.72628
5.83463
5.96394
6.04157
6.07243
6.15977
6.31736
6.19586
6.46855
6.22563
5.60661
3.98667
3.21952
3.10859
3.13959
3.20536
3.21498
3.40867
3.87361
4.6267
5.40559
4.9848
3.32074
3.74311
9.45289
8.95486
7.91881
7.02517
6.42546
6.16089
5.71999
5.5989
5.39325
5.45374
5.40181
7.00569
7.03225
6.15333
6.45128
5.52281
5.59626
5.22359
4.94777
4.89825
4.71073
4.66153
4.88894
4.9363
5.12978
5.82071
5.70667
6.20998
6.63066
7.0635
9.92305
9.94379
8.89763
7.42033
6.60196
6.12147
6.12256
5.92616
5.33019
4.65959
4.0856
3.89371
3.82812
3.7809
3.84047
3.77309
3.79565
3.73013
3.70089
3.6115
3.49015
3.39051
3.31211
3.309
3.4191
3.61127
3.94003
4.69335
5.24077
5.84761
9.53809
7.90497
6.75208
6.20895
5.6455
5.38502
4.75291
4.78637
4.75875
4.81287
5.15278
4.87052
4.858
4.77386
4.67279
4.8443
4.58524
4.56986
4.48666
4.27947
4.27127
4.23786
4.14859
4.09683
4.30603
4.54767
5.61302
6.08322
5.91679
5.63716
1.93474
2.16289
2.19746
2.16623
2.18641
2.15339
2.01673
1.75499
1.48361
1.32199
1.28588
1.42195
2.08391
5.51421
2.76023
2.6008
2.64698
2.87899
3.26198
3.54184
3.61031
3.47159
3.17346
2.78243
2.39832
2.12159
2.02761
2.11923
2.45572
3.04641
3.60052
3.88923
3.87485
3.66866
3.16542
2.73789
2.6458
3.05291
3.96922
6.01787
6.25051
6.15546
5.7496
5.59619
5.68153
5.69056
5.72868
5.76361
5.8035
5.84225
5.97707
6.22581
6.41273
6.87607
6.31436
6.31837
5.66069
5.47193
5.28014
5.29837
5.24382
4.65557
3.64818
2.94558
2.6132
2.37644
2.18404
2.25715
2.70786
3.53329
4.37838
4.91142
4.94419
4.84293
6.14597
6.23076
6.26861
6.27323
6.33504
6.33776
6.36594
6.34546
6.3241
6.27454
6.21773
6.1667
6.17041
6.02051
6.17719
5.9625
5.66408
5.51008
5.44031
5.54399
5.60459
5.76852
6.00268
6.10114
6.19015
6.29935
6.32202
6.30975
6.27662
6.32046
5.16765
5.14442
5.14122
5.16409
5.14676
5.21694
5.23735
5.10557
4.85502
4.5062
4.2074
4.03588
3.90833
3.7968
3.75007
3.75754
3.90204
4.26228
4.85464
5.20796
5.83551
5.74739
5.79888
5.602
5.22883
5.17032
5.40037
5.47734
5.84223
5.86226
7.6294
7.21996
5.93491
6.87699
6.68569
6.69473
6.64614
6.52663
6.44735
6.52074
6.37657
6.06895
5.74253
5.36308
4.81383
4.58059
4.14246
4.13202
3.95129
3.83283
3.67703
3.62215
3.55847
3.64403
3.87367
4.18115
4.40164
4.56478
4.80021
5.54956
4.29152
4.49926
5.26712
5.1501
5.40723
5.97699
6.1547
6.38763
6.07201
5.80353
4.72648
4.4239
4.53723
5.30511
6.33933
7.32528
7.71506
7.79777
7.72895
7.94725
7.82055
7.26911
6.87401
6.46887
6.4611
6.59841
7.10295
7.41932
7.53736
7.49632
5.56616
5.99564
6.53884
6.95899
7.18295
6.94932
6.12049
5.19433
4.49606
4.36914
4.21455
4.24444
4.25652
4.19174
4.58667
4.57825
4.39436
4.14234
3.96591
3.94485
4.04577
4.40566
4.75052
5.07642
5.24188
4.82552
4.45174
4.54731
5.40905
5.97737
4.66544
4.56785
4.70416
4.97859
5.99924
7.85521
7.21736
6.67111
5.75091
5.57296
5.68104
5.70978
5.79665
5.65502
5.68039
5.35779
5.37516
5.05482
5.18982
5.14922
5.20285
5.00362
4.8482
4.7698
4.76011
4.75234
4.81001
4.79045
5.06431
6.64709
4.95599
5.06731
5.20671
5.59542
5.6048
5.57201
5.68635
5.72546
5.86959
5.92443
6.14342
6.16891
6.2596
6.23895
6.09035
6.05641
5.10233
3.48838
3.11245
3.08061
3.18992
3.16794
3.19254
3.36321
3.94114
5.16798
5.41963
5.79509
4.43466
3.38106
9.91701
9.36698
8.48539
7.61966
6.81258
6.50188
6.04174
5.9821
5.32095
5.59447
5.38389
6.01096
5.82013
5.46985
5.31966
4.78395
4.80332
4.43023
4.34013
4.27817
4.27233
4.3672
4.36968
4.91887
4.76042
5.33088
5.60418
5.68971
5.5598
5.92226
9.85146
9.7293
8.74267
7.30555
6.46078
5.84038
5.26861
4.80204
4.40779
4.06013
3.85391
3.92705
4.01436
4.17102
4.06898
4.17002
3.99848
4.03329
3.97309
3.87674
3.79699
3.59324
3.39655
3.26401
3.26498
3.36411
3.57467
3.9834
4.70095
5.61297
9.63137
7.48182
6.40528
5.88779
4.93134
4.40225
3.90075
3.75932
3.86887
3.75826
4.02927
3.81821
3.92702
3.80953
3.90387
3.85236
3.86146
3.86703
3.89086
3.81825
3.79859
3.71349
3.66209
3.67215
3.71535
3.85861
4.20641
4.93675
6.09692
5.6023
1.86
2.0204
1.97378
1.964
2.12275
2.22277
2.1465
1.93697
1.67609
1.45916
1.33932
1.34896
1.71191
4.25065
2.57838
2.65319
2.81429
3.12539
3.46964
3.67809
3.66531
3.52506
3.1855
2.79316
2.45423
2.26342
2.28542
2.54382
3.02953
3.55524
3.88238
3.85107
3.63046
3.10994
2.65361
2.60974
2.80144
3.64929
4.82433
6.66921
6.43889
6.36771
6.03635
5.70059
5.69088
5.63141
5.65033
5.78266
5.6621
5.96853
6.07975
6.41323
6.65954
6.71896
6.18481
5.34744
4.43152
4.03186
4.1938
4.68831
4.78656
4.23341
3.43539
2.93211
2.59572
2.29981
2.34956
3.18637
4.35151
5.22842
5.48598
5.34504
5.04526
4.80069
6.27507
6.27496
6.30142
6.35564
6.35752
6.32781
6.4042
6.28772
6.27024
6.22116
6.14462
6.07633
6.07197
6.08936
5.97291
5.86521
5.71837
5.52045
5.48179
5.60727
5.67577
5.95545
6.06067
6.11255
6.20582
6.29243
6.35916
6.37486
6.35426
6.18433
5.06518
5.20958
5.2791
5.32446
5.27433
5.10533
4.90343
4.60639
4.34907
4.17353
4.01129
3.86871
3.75094
3.65605
3.57523
3.57874
3.83322
4.32278
5.08953
5.73222
5.8971
6.19643
6.02317
5.9883
6.09117
5.86442
6.13523
6.82773
6.80889
7.06638
7.49167
6.4455
6.04739
6.8115
6.82469
6.77949
6.80818
6.64722
6.52683
6.42391
6.14435
6.03769
5.64307
5.48366
4.57959
4.55446
4.05462
4.03343
3.88219
3.78973
3.80321
3.74425
3.9561
4.03366
4.34702
4.39418
4.52552
4.54822
4.69342
5.5373
4.69764
5.13785
5.14572
5.53915
6.36775
6.5936
6.57697
6.38434
5.95332
5.27786
4.35542
4.08623
4.3021
5.07867
6.08015
7.01085
7.80267
7.46972
7.3808
7.71397
7.89493
7.5102
7.16757
6.74904
6.78892
6.92986
7.18949
7.45322
7.48232
7.48956
5.75345
6.05034
6.47705
7.09962
7.5092
7.434
6.53443
5.46885
5.02892
4.52987
4.31336
4.2235
4.2803
4.20868
4.36924
4.09252
4.27444
4.08226
4.0748
3.96704
4.11444
4.23539
4.58228
5.01443
5.01173
4.8216
4.36772
4.6222
5.37863
6.22298
4.67081
4.55258
4.74835
4.97631
6.17249
8.10099
6.87147
6.5588
6.09386
5.81106
5.63133
5.67113
5.64286
5.53301
5.38672
5.39502
4.97428
5.18708
5.13336
5.20297
5.07285
4.94622
4.77079
4.75447
4.88102
5.16205
5.18674
5.03471
4.86667
6.06406
5.64768
5.90955
5.84472
5.73447
5.83207
5.95208
6.05044
6.09327
6.02058
6.03222
6.05041
6.22089
6.20379
6.03897
5.95981
5.57326
4.58896
3.61427
3.26402
3.22258
3.13637
3.21608
3.26833
3.43196
3.97852
4.91751
5.28218
4.92937
5.12588
3.51518
9.8675
9.77818
8.69581
7.82569
7.16814
6.76204
6.21134
6.52529
5.47352
5.46155
5.37537
5.35854
5.35219
5.30219
4.73709
4.80932
4.43519
4.47601
4.24313
4.44123
4.30331
4.55117
4.57892
4.87745
5.20933
5.12477
5.8686
5.76812
5.64485
5.44771
9.70444
9.58833
8.70554
7.42197
6.46881
5.51822
4.64711
4.2959
4.09977
3.94265
3.9779
4.12072
4.26621
4.22923
4.28767
3.99863
4.00465
3.95211
3.95644
4.0276
3.96889
3.81482
3.55884
3.3131
3.19362
3.23941
3.43727
3.81716
4.5618
5.49284
9.37994
7.26366
6.11772
5.3823
4.06651
3.74859
3.54827
3.50517
3.53049
3.46691
3.65522
3.50158
3.47146
3.46316
3.43288
3.51865
3.49779
3.51341
3.55338
3.52263
3.51036
3.49481
3.4782
3.48556
3.54726
3.79612
3.98471
4.25673
6.02064
5.60456
1.75263
1.86698
1.8414
1.91611
2.27151
2.50625
2.47535
2.30283
2.07746
1.84464
1.57323
1.41643
1.59021
3.39119
2.69218
2.82722
2.95246
3.18592
3.41215
3.57513
3.63407
3.58918
3.43508
3.21171
3.03685
2.98903
3.15381
3.45419
3.75006
3.86352
3.73131
3.36483
2.8755
2.64001
2.66134
3.27102
4.10309
5.70345
6.84687
7.02584
6.57534
6.65595
6.15927
5.93332
5.63462
5.63958
5.79955
5.63878
6.00416
6.10633
6.34231
6.65506
6.29762
6.45822
5.83397
4.53717
3.48898
3.44486
3.8074
4.36148
4.40445
3.77399
3.24423
2.81047
2.41875
2.36563
3.70259
5.39086
5.84922
5.38705
5.33427
5.30674
5.00858
4.89429
6.33101
6.32757
6.4712
6.50018
6.41661
6.38397
6.31439
6.27545
6.22371
6.18964
6.07989
6.10977
6.04029
6.02117
6.017
5.93587
5.97659
5.95878
5.98312
5.97918
5.99791
6.00723
6.0571
6.12158
6.19924
6.30648
6.39245
6.45606
6.33726
6.03048
5.107
5.35728
5.45215
5.42272
5.16836
4.89042
4.54594
4.29008
4.12037
3.97022
3.85794
3.77772
3.67215
3.55482
3.50409
3.50791
3.90858
4.54443
5.31795
6.09385
6.32814
6.16592
6.36383
6.54047
6.63228
6.52226
6.71369
6.8282
6.8709
6.862
7.29746
6.25126
6.64093
6.79283
6.80275
6.8628
6.81502
6.6743
6.45699
6.14753
5.92231
5.93445
5.76454
5.52971
4.85542
4.45131
4.05483
4.20825
3.78446
4.02547
4.16344
4.2282
4.33073
4.45288
4.50226
4.47214
4.46621
4.52298
5.03483
5.8036
4.81592
5.15688
5.50539
5.67909
6.50253
6.60523
6.15168
5.78844
5.38014
4.84016
4.44094
4.04873
4.143
4.74658
5.76973
6.40779
6.96794
6.98537
7.06597
7.45917
7.81168
7.65037
7.60285
7.23247
7.30984
7.21323
7.38376
7.42632
7.46706
7.47663
5.84794
5.94477
6.52793
6.5829
7.04676
7.72867
7.02055
5.98831
5.40164
5.0788
4.5244
4.34655
4.29137
4.31451
4.24502
3.98097
3.92046
4.05311
4.10735
4.18167
4.16822
4.19312
4.44099
4.87207
4.89322
4.97664
4.23887
4.35119
5.23085
6.22406
4.62752
4.56515
4.67543
5.13608
5.78212
7.63772
6.82957
6.30118
6.11693
5.95443
5.66548
5.76453
5.4465
5.5158
5.4272
4.91374
5.0011
4.87813
5.0716
5.05891
5.11163
4.93875
4.76608
4.7585
5.18874
5.82071
6.17175
5.76266
5.07757
5.60595
5.81365
5.94073
6.10729
6.13223
6.14902
6.11211
6.0389
5.91333
5.90302
5.81196
5.9178
6.01401
6.12161
5.95967
5.61612
5.44459
4.84096
3.74512
3.44062
3.26585
3.34833
3.24434
3.31318
3.36095
3.61575
4.78416
5.29553
5.46745
5.60375
5.40994
9.50367
9.24831
9.03288
8.69027
8.17023
7.96932
7.72395
7.53818
6.43801
6.1082
5.28496
5.54094
5.33311
5.06195
4.93864
4.79297
4.53715
4.72079
4.43251
4.76768
4.63703
4.91193
4.96887
4.91784
5.36722
5.17043
5.72655
5.82904
5.36521
5.23657
9.84771
9.13219
8.30814
7.43519
6.73052
5.52805
4.39908
4.1445
4.0221
4.00972
4.17782
4.26444
4.30633
4.16203
3.91302
3.85282
3.76233
3.80012
3.89533
4.00919
4.0736
3.95289
3.69827
3.38413
3.18335
3.18156
3.4
3.835
4.22013
5.38576
9.39163
7.00589
6.01364
4.41313
3.67742
3.50441
3.4498
3.37635
3.44421
3.37733
3.37268
3.31216
3.33092
3.26022
3.24426
3.25142
3.29254
3.3206
3.37317
3.37481
3.36422
3.35221
3.33866
3.35291
3.4643
3.84433
4.1938
4.33497
5.26753
5.6275
1.68795
1.81578
1.81473
2.1
2.70534
2.99428
2.92037
2.78039
2.60117
2.37674
2.00355
1.59492
1.64918
2.98329
2.94117
2.97016
3.05221
3.21346
3.35374
3.46626
3.53475
3.59357
3.60948
3.64676
3.67963
3.71179
3.73722
3.72546
3.55899
3.28959
2.97539
2.73084
2.80134
3.38335
4.33092
5.93132
6.51107
6.66805
6.75339
6.90686
6.58067
6.60044
6.27344
5.88513
5.85927
5.86187
5.74871
6.11921
6.03599
6.18226
6.0934
6.05028
6.20576
6.3993
5.52977
4.0134
3.36418
3.41333
3.91964
4.17138
3.91643
3.43519
2.97282
2.53053
2.41402
3.69398
6.03134
5.63683
4.3776
4.09305
4.14639
4.30938
4.62934
4.70979
6.53083
6.5816
6.65038
6.56945
6.42436
6.33612
6.26086
6.21657
6.19923
6.13032
6.08153
6.0621
6.04623
5.99315
5.92709
5.90114
5.84261
5.87038
5.83655
5.8879
5.93313
5.97
6.03815
6.09144
6.18671
6.31366
6.43483
6.48364
6.08983
5.90007
5.17338
5.4804
5.49506
5.27964
4.94481
4.54625
4.23316
4.07696
3.93905
3.87711
3.78381
3.73078
3.57515
3.45843
3.40499
3.50435
4.10028
4.72541
5.82413
6.09896
6.26051
6.05435
6.41075
6.25572
6.51854
6.69947
6.76886
7.03008
7.12138
7.04226
7.11566
6.4397
6.72713
6.72447
6.79196
6.82648
6.88942
6.70152
6.41381
6.02019
5.81327
5.8398
5.78051
5.73954
5.17565
4.76861
4.04884
4.37736
4.17146
4.37729
4.81456
4.76627
4.70823
4.73815
4.5767
4.51527
4.45471
4.80631
5.59325
6.12481
4.64304
4.90547
5.08335
5.75915
6.0228
6.04601
5.81263
5.60965
5.42735
5.10578
4.83861
4.27932
3.97146
4.38487
5.18787
5.72258
6.22537
6.46048
6.68373
7.15329
7.55584
7.8582
7.61176
7.64142
7.42445
7.56416
7.45788
7.56448
7.53367
7.64738
6.22402
6.47742
6.69311
6.70113
6.93658
7.92569
7.3575
6.34904
5.72837
5.34252
4.83692
4.51376
4.35378
4.19008
4.26868
3.94921
3.90206
3.92007
4.11537
4.27548
4.26021
4.21012
4.36046
4.66427
4.97006
4.76005
4.24252
3.92592
4.29887
5.82056
4.59564
4.52585
4.74268
4.92105
5.78591
6.76351
6.52225
6.40382
6.14818
5.72672
5.81558
5.45628
5.52328
5.34761
5.06933
4.95365
5.0197
4.93682
5.05897
5.12598
5.13597
4.99815
4.73661
4.75802
5.36017
6.28323
6.63178
6.47617
5.4468
5.40363
6.0875
6.20744
6.27916
6.3984
6.43379
6.44228
6.39281
6.22197
6.07964
5.84193
5.77485
5.81629
5.85216
5.7995
5.47123
5.19751
4.93571
4.38412
3.82668
3.63
3.47495
3.42545
3.44152
3.34624
3.45539
3.90292
5.17749
5.28898
5.28797
4.90857
8.80405
9.00527
9.00276
8.80667
8.68595
8.47752
8.01846
7.79339
6.89476
6.40709
5.55887
5.5757
5.29755
5.3875
4.91257
5.1372
4.71702
5.04125
4.7103
5.04899
4.82358
5.02141
4.91767
5.12263
5.11599
5.21397
5.32173
5.50696
4.76334
4.59881
9.36367
8.52568
7.69926
7.37924
6.90337
6.28568
4.5128
4.10839
4.07255
4.14423
4.25436
4.42002
4.18864
4.09025
3.83585
3.7198
3.70479
3.92283
3.90973
4.11778
4.14535
4.06781
3.76224
3.38283
3.1645
3.18616
3.5199
4.13133
4.52852
5.31674
9.15538
6.79381
5.26016
3.8733
3.54977
3.45486
3.41442
3.38994
3.47265
3.39552
3.45375
3.36558
3.4213
3.27885
3.21653
3.14673
3.12843
3.18066
3.27282
3.31436
3.30602
3.28608
3.25322
3.25131
3.36346
3.84416
4.49264
4.72735
5.20589
5.45635
1.65928
1.84951
1.91025
2.45304
3.13933
3.23225
3.0587
3.03189
3.02328
2.76212
2.19828
1.84589
2.11948
2.90423
2.76546
2.78934
3.14419
3.14108
3.27038
3.44111
3.53213
3.54003
3.51945
3.48549
3.45451
3.40067
3.3432
3.27766
3.17716
3.04986
2.9248
2.87072
2.98731
3.5765
4.6555
6.15269
6.25588
6.43016
6.12736
6.35845
6.41538
6.61122
6.52397
6.56963
6.25212
6.14611
6.09808
6.01202
5.88137
5.85098
6.1787
6.10678
6.13901
5.5469
5.68923
5.97536
6.14777
6.22262
5.04426
3.7631
3.42669
3.61552
3.76445
3.7807
3.45194
3.00318
2.60073
2.51367
3.55786
5.76627
6.16742
4.38486
4.27116
4.43496
4.66989
4.82577
4.9712
5.40338
6.6687
6.86974
6.72535
6.65974
6.54109
6.38775
6.3135
6.25696
6.20441
6.17909
6.1798
6.12663
6.13434
6.04607
6.01931
5.97975
5.92132
5.83801
5.82116
5.79071
5.82436
5.81287
5.87736
5.94652
5.98921
6.07944
6.18664
6.32437
6.4146
6.31014
6.21521
6.18567
5.75868
5.66905
5.50146
5.60647
5.33392
5.03728
4.63358
4.34216
4.1496
4.01189
3.86974
3.75674
3.66691
3.58076
3.4814
3.35883
3.36897
3.61349
4.34605
5.15782
6.12325
6.12604
6.2082
6.01142
6.33096
6.31591
6.41588
6.73103
6.85105
6.79994
6.78965
6.70036
6.51212
6.23988
6.65046
6.50678
6.59489
6.68474
6.74349
6.86489
6.83894
6.34774
6.39074
5.8898
5.67865
5.8182
5.76095
5.81549
5.61645
5.18968
4.46089
4.65189
4.81909
5.05239
4.76069
4.94198
5.09488
4.94462
4.80853
4.78323
5.2673
5.90162
6.14307
6.3749
4.90474
4.14708
4.50117
4.52046
5.1811
5.57052
5.72875
5.64517
5.43373
5.2504
5.23922
5.47365
5.2487
4.6421
4.09342
4.0574
4.61569
5.18374
5.56333
6.04725
6.31258
6.80824
7.26754
7.75797
7.66598
7.42389
7.59538
7.28073
7.29147
7.28073
7.52945
7.7399
7.64188
7.88755
6.78327
6.47188
6.61842
6.64256
6.72544
7.3635
7.52842
6.4229
5.83199
5.4149
5.07277
4.78369
4.60616
4.33567
4.39644
4.24825
4.04827
3.99357
4.13827
4.381
4.39291
4.38552
4.30563
4.52881
5.00786
4.77141
4.8444
3.80433
3.93457
4.72711
3.45398
4.02031
4.32788
4.52259
4.69361
4.9583
5.30482
6.50814
5.91492
5.97009
5.96486
5.93297
5.4759
5.60489
5.18559
5.32378
4.8693
5.04225
5.01861
4.96204
5.06281
5.15486
5.22894
5.03583
4.73735
4.73988
5.29812
6.25199
6.71113
6.72509
6.03175
5.24916
5.23405
6.13416
6.18581
6.45065
6.51852
6.55958
6.61836
6.5732
6.48324
6.27639
5.97168
5.74372
5.49239
5.3791
5.58533
5.51711
5.3642
5.11192
4.94794
4.8659
4.44155
4.1319
3.88195
3.62659
3.60501
3.36839
3.43225
3.5546
4.33526
5.90064
6.46947
6.99806
8.20256
7.28649
8.38503
8.38247
8.14535
8.19719
8.05972
8.08576
8.05667
7.93522
7.4146
6.4855
5.87003
5.69429
5.48248
5.35964
5.11054
5.35051
4.95566
5.24852
4.91822
5.12718
4.88883
4.97373
4.92937
5.18573
4.90611
5.60041
4.90477
4.34673
4.67686
6.27106
7.74026
7.26459
9.21408
8.19825
7.27298
7.25116
6.93135
6.65056
5.64255
4.30422
4.14901
4.1366
4.41744
4.31599
4.32389
4.03821
3.87103
3.74993
3.79475
3.85726
4.16794
4.22965
4.33123
4.14095
3.8077
3.36179
3.17011
3.31375
4.10505
5.02967
5.4397
5.2362
4.97512
5.12637
8.61589
6.53452
4.53038
3.67284
3.55719
3.46225
3.48237
3.51426
3.62372
3.75172
3.95673
3.83014
3.77994
3.74812
3.51911
3.32542
3.17837
3.10257
3.13229
3.20098
3.2586
3.24776
3.21791
3.19387
3.25555
3.59982
4.36604
4.84226
5.20848
5.50149
3.85966
3.55987
1.66157
1.93443
2.14404
2.84922
3.33721
3.24121
3.0781
3.09043
3.07689
2.79154
2.40349
2.27106
2.63772
3.05428
3.10636
3.20834
3.35512
3.45779
3.81525
4.23801
4.47473
4.47728
4.36013
4.12615
3.85602
3.61469
3.41172
3.2877
3.23577
3.28385
3.51143
4.04505
5.04968
6.29887
6.56862
6.49536
5.89478
6.21523
5.71294
6.27576
6.24351
6.47422
6.39773
6.36169
6.18727
6.07459
6.04047
6.00096
5.95862
6.20562
6.18722
5.71933
5.1882
5.32156
5.53927
5.76978
6.16045
5.7928
4.62824
3.77109
3.54033
3.60027
3.52121
3.22686
2.88518
2.67435
2.83485
3.91445
5.70444
7.29142
5.30632
4.35453
4.39922
4.64508
4.93117
5.28804
5.53473
5.79979
6.28791
7.1465
6.9289
6.66497
6.5275
6.24024
6.26366
6.20705
6.15734
6.19856
6.17436
6.15368
6.07714
6.05528
5.9928
5.97828
5.97591
5.96483
5.89638
5.86519
5.8462
5.88349
5.89179
5.98542
6.05516
6.13473
6.22951
6.31275
6.30825
6.20952
6.01184
5.96333
5.8814
5.61013
5.69289
5.56209
5.28525
4.85587
4.54419
4.36504
4.21198
3.98701
3.70577
3.4952
3.41855
3.37437
3.31635
3.33384
3.4402
3.80871
4.65285
5.89493
6.16803
6.13642
6.24988
6.05035
6.38129
6.36004
6.50673
6.78193
6.83907
6.82427
6.65508
6.36583
6.52258
6.37181
6.65425
6.3967
6.587
6.63217
6.79512
6.54125
5.5765
5.31994
5.75479
5.99857
5.54284
5.5375
5.9775
5.83401
5.94743
6.11589
5.25912
5.60833
5.00299
5.41907
4.79196
5.11494
5.11785
5.44096
5.76689
6.18882
6.41014
6.64669
6.09912
5.06442
4.64707
4.48191
4.59732
5.05016
5.48868
5.62086
5.76179
5.57817
5.38173
5.3237
5.36233
5.51223
5.81899
5.51031
4.82846
4.08345
4.18351
4.7246
5.11934
5.59588
5.8921
6.31576
6.80794
7.06641
7.23632
7.43099
7.29393
7.42656
7.48208
7.67627
7.82673
8.34055
8.02233
7.52741
7.00651
6.65742
6.56958
6.49974
6.67739
7.0567
7.44616
6.56698
5.78019
5.41881
4.99757
4.96554
4.60371
4.5203
4.49394
4.51625
4.56993
4.3837
4.44524
4.58056
4.72764
4.55708
4.51103
4.42911
4.67343
5.07566
4.50307
4.07949
3.82823
4.05989
3.39422
3.37782
3.80583
4.17834
4.61481
4.7837
5.15396
5.70352
5.669
5.60852
6.10291
5.60827
5.68833
5.2371
5.31357
4.97523
4.97296
4.94784
5.01841
5.05325
5.11153
5.24776
5.31046
5.14073
4.72856
4.71467
5.20137
6.10015
6.58616
6.73115
6.5655
5.8997
6.32482
6.65731
6.38603
6.50792
6.48086
6.57379
6.58323
6.66682
6.65621
6.43417
5.78945
5.47889
5.08867
5.0016
4.89175
5.05789
5.13744
5.08956
4.93054
4.9648
4.84798
4.73699
4.50291
3.94464
3.80947
3.58639
3.43045
3.42449
3.69629
4.29749