/*--------------------------------*- C++ -*----------------------------------*\
| =========                 |                                                 |
| \\      /  F ield         | OpenFOAM: The Open Source CFD Toolbox           |
|  \\    /   O peration     | Version:  2.1.1                                 |
|   \\  /    A nd           | Web:      www.OpenFOAM.org                      |
|    \\/     M anipulation  |                                                 |
\*---------------------------------------------------------------------------*/
FoamFile
{
    version     2.0;
    format      ascii;
    class       volScalarField;
    location    "0.003750000";
    object      sL;
}
// * * * * * * * * * * * * * * * * * * * * * * * * * * * * * * * * * * * * * //

dimensions      [0 1 -1 0 0 0 0];

internalField   nonuniform List<scalar> 
12384
(
18.0015
21.3676
22.1909
22.1364
21.5998
20.0806
17.5332
14.1565
10.8302
7.75144
4.86739
1.56654
1.47842
1.53832
0.625556
1.32122
2.30682
3.45179
4.12853
5.21474
5.33627
6.1924
6.14175
6.02573
5.5413
4.90101
4.19831
3.68324
3.24376
3.04334
2.78271
2.78397
2.733
2.65028
2.73863
3.17142
2.48327
1.55525
1.08948
0.593485
0.673347
0.840121
1.10897
1.229
1.21088
1.38954
1.33249
1.23097
1.12505
1.02896
0.945837
0.938981
0.935766
0.921756
0.926282
0.915683
1.2601
1.43583
1.46657
2.16561
2.69488
4.46301
7.57911
9.45134
9.88218
9.6827
9.21822
8.53699
7.57157
5.97405
4.53297
3.1949
2.39543
2.13377
1.23199
1.23358
1.24995
1.27542
1.29509
1.30754
1.31345
1.31417
1.31267
1.31816
1.31225
1.31616
1.30449
1.29362
1.30033
1.29958
1.3026
1.31507
1.5119
1.38273
1.39433
1.25546
1.19609
1.11569
1.09935
1.22441
1.22561
1.11944
1.04181
0.995508
1.22983
1.23316
1.24321
1.25495
1.26637
1.27587
1.27866
1.28704
1.27331
1.27064
1.26392
1.22855
1.23284
1.41217
1.7431
2.06913
2.2036
2.78016
2.95763
2.93502
2.88011
2.74369
2.51413
2.74093
2.91298
3.18687
3.10162
2.86387
2.50463
2.36187
0.846393
0.91016
1.02681
1.12111
1.2172
1.31441
1.4138
1.48215
1.51984
1.52666
1.53008
1.525
1.52012
1.518
1.68716
1.9449
2.09192
2.23474
2.3392
2.48561
2.90739
3.11061
3.96651
4.52369
4.31261
3.31532
2.27957
2.07533
1.12023
1.00157
1.16769
1.11485
1.07761
1.12239
1.41345
1.57744
1.5213
1.07313
0.753605
0.760267
0.888095
1.6889
2.08161
2.4185
2.65728
2.55084
2.33301
1.94486
1.60127
1.39211
1.37934
1.35324
1.33127
1.23672
1.11705
0.905185
0.658253
0.525416
0.512727
0.585597
1.33766
1.18684
0.856799
0.925014
0.948474
0.865374
0.755499
0.932335
1.51997
1.69891
1.68795
1.69826
1.67402
1.6889
1.64989
1.65969
1.61914
1.60939
1.58972
1.58748
1.59793
1.64233
1.63474
1.69927
1.67806
1.70346
1.68942
1.67742
1.22236
0.628972
2.81734
2.59697
2.44184
2.27094
1.82339
1.47543
1.38381
1.12524
1.11296
0.992018
0.984183
0.977241
1.12053
1.26001
1.33912
1.42759
1.47178
1.49792
1.51298
1.48876
1.44036
1.31398
1.10854
0.889048
0.72078
0.608382
0.59616
0.591224
0.668974
0.912857
0.744741
0.719931
0.750426
0.805612
0.885752
0.924511
0.895836
0.866892
0.660849
0.567796
0.524033
0.541743
0.623869
0.6823
0.71441
0.686077
0.993024
1.67229
1.91953
2.11828
2.53201
3.27516
4.45407
5.85532
6.63535
6.83632
6.10229
4.5791
2.78843
2.74234
0.619584
0.700375
0.895176
1.18997
1.60674
1.70405
1.7828
1.62367
1.46864
1.23533
0.899279
0.699053
0.54118
0.5267
0.560376
0.559272
0.580493
0.597384
0.603388
0.633918
0.626405
0.619483
0.649335
0.580668
0.626126
0.560461
0.587304
0.630438
0.720128
1.00087
0.662527
0.606129
0.705085
1.0867
1.42481
1.40445
1.39593
1.2139
1.32363
1.26747
1.39408
1.34883
1.53394
1.47112
1.73311
1.80894
2.0152
2.12831
1.951
1.98906
1.83138
1.92121
1.734
1.84127
1.86513
1.95232
2.01878
2.24109
2.4472
2.63566
0.706482
0.798288
0.936499
1.3822
1.69014
1.66901
1.70193
1.18774
0.728886
0.997876
0.955932
0.887677
1.06623
1.09572
1.10578
1.35184
1.25337
1.4956
1.44645
1.61838
1.68416
1.9039
1.89158
1.90464
1.65614
1.47389
1.14194
1.3184
1.08483
1.3867
25.4485
23.1336
21.6693
21.7634
22.7697
24.3146
25.9799
26.3027
24.3771
17.3305
9.24025
4.26
1.48376
1.41362
0.666905
2.17007
3.9414
5.67828
6.91368
7.79646
8.4329
9.46228
10.174
11.0134
11.3765
10.909
9.4861
7.24487
5.24176
3.8623
3.17807
2.81891
2.75841
2.69474
2.73357
3.14753
3.17671
2.15246
1.36702
0.721491
0.651775
0.810205
1.06651
1.23102
1.06725
1.0281
1.00638
0.985939
0.969938
0.958866
0.950594
0.942589
0.93428
0.914902
0.904779
0.888113
1.32727
1.35241
1.51473
1.85869
1.99793
3.07195
5.07743
8.14018
10.4571
11.4339
11.779
11.7167
10.6944
8.24068
5.12896
3.36346
2.34817
2.19037
1.22444
1.30511
1.36445
1.38438
1.37296
1.34637
1.30792
1.26801
1.23574
1.20934
1.19267
1.17917
1.18124
1.1801
1.19596
1.22457
1.2612
1.46235
1.32324
1.40793
1.35796
1.29127
1.2393
1.16846
1.1033
1.1549
1.23009
1.2308
1.17904
1.04573
1.23444
1.26028
1.30721
1.34253
1.35658
1.35427
1.33925
1.31622
1.27848
1.24198
1.1848
1.15843
1.37166
1.53206
1.72834
1.75142
1.94572
1.75677
1.94835
1.86863
1.75526
1.76387
1.86737
2.04301
2.62783
2.95198
3.12638
3.10493
2.76011
2.46752
0.872718
0.968444
1.10375
1.24384
1.37418
1.47531
1.53981
1.56522
1.55327
1.52727
1.49633
1.47759
1.45344
1.59382
1.79591
1.92861
2.04223
2.12102
2.18887
2.35538
2.67059
3.2085
3.77847
4.24412
4.29881
3.36888
2.59459
2.28186
1.50446
1.04873
1.57808
1.43793
1.25
1.24229
1.4869
1.58971
1.44623
1.00027
0.868936
1.14368
1.55903
2.49801
2.70683
2.99357
2.74001
2.49873
2.15245
1.81242
1.57101
1.42337
1.44433
1.47732
1.48709
1.48766
1.39014
1.16599
0.804394
0.568694
0.512706
0.581252
1.36493
1.2837
0.933184
0.969264
0.938377
0.784294
0.827238
1.30425
1.6525
1.69834
1.69607
1.69525
1.68608
1.68505
1.65793
1.64986
1.62143
1.61112
1.79262
2.22118
1.56276
1.52433
1.54128
1.63887
1.67603
1.69534
1.68303
1.68524
1.35433
0.659768
2.82259
2.66252
2.598
2.13527
1.71096
1.31698
1.2577
1.3024
1.31559
1.23554
1.39238
1.52573
1.57749
1.57367
1.56193
1.55461
1.56035
1.55377
1.54961
1.54122
1.53798
1.54189
1.56118
1.59719
1.58972
1.3934
0.951653
0.603684
0.474818
0.653417
0.736405
0.706913
0.742517
0.826913
0.883389
0.885863
0.830846
0.739576
0.595484
0.528779
0.497046
0.507386
0.542649
0.58609
0.584821
0.567861
0.926117
1.44828
2.39911
3.57867
4.99342
5.73745
6.43728
7.06337
7.48159
7.38509
7.13063
6.99057
4.95301
2.02741
0.624792
0.699469
0.913275
1.30254
1.52685
1.60169
1.61173
1.50413
1.42145
1.26452
0.85296
0.702973
0.500147
0.443927
0.41564
0.388826
0.376569
0.355606
0.347975
0.330502
0.329081
0.329664
0.321101
0.344905
0.327657
0.328468
0.302701
0.348063
0.362438
0.420476
0.693621
0.640577
0.818643
1.21956
1.54643
1.62933
1.60982
1.53246
1.62545
1.78204
2.03819
2.49935
2.73619
3.49098
4.2325
5.27771
5.92698
5.89224
6.02539
6.14594
5.61873
5.70457
4.71399
4.1223
3.27406
2.66304
1.97586
1.56116
1.43918
1.68969
0.711448
0.847078
1.18446
1.57764
2.02359
1.97276
2.24388
1.62729
1.04746
1.22069
1.10511
1.32496
1.32498
1.36642
1.55496
1.48179
1.69714
1.85296
2.01384
1.9913
2.2508
2.25957
2.27614
2.0915
1.79636
1.40254
1.1318
1.12588
1.09256
1.24874
19.1436
15.5113
12.4992
11.7665
12.9346
16.323
20.0688
22.7467
25.0954
25.4842
20.0927
9.27164
3.08219
1.34799
1.22998
2.92236
5.15599
6.6277
6.93717
6.95817
6.78691
7.20977
8.19779
9.98735
11.8463
13.2237
13.0149
11.2908
8.13886
5.38403
3.74157
3.06653
2.74474
2.74398
2.91217
3.20771
3.715
2.90893
1.59171
0.851861
0.648356
0.798859
1.04162
1.21574
1.03159
0.995652
0.957458
0.932015
0.916254
0.907603
0.903483
0.900784
0.893329
0.883109
0.877741
0.97403
1.27886
1.26345
1.5471
1.60498
1.77601
2.31973
4.0537
6.80669
9.72316
11.4759
12.7438
13.4937
12.9729
10.1707
5.68258
3.12781
2.35604
2.23951
1.27915
1.40535
1.39811
1.34296
1.2564
1.1667
1.09648
1.04721
1.01311
0.990315
0.977468
0.972151
0.97762
0.982511
1.00314
1.03058
1.19843
1.21918
1.36384
1.3137
1.3663
1.31912
1.28424
1.22384
1.13966
1.11377
1.17682
1.22413
1.21522
1.10935
1.27418
1.39653
1.48645
1.51634
1.51957
1.50226
1.4755
1.4365
1.38387
1.32272
1.25195
1.54056
1.81714
2.00902
2.07406
2.03865
1.89554
1.82938
1.46014
1.41931
1.30503
1.26242
1.42483
1.70733
2.09012
2.71748
2.89284
2.85003
2.48212
2.0876
0.918549
1.06543
1.2423
1.39867
1.49848
1.55112
1.56285
1.5334
1.49415
1.46534
1.41948
1.37758
1.52087
1.70396
1.91139
2.07461
2.18046
2.29194
2.37893
2.61471
2.89724
3.2007
3.73661
4.16265
3.84086
3.27
2.6207
2.25312
1.83181
1.20427
1.70293
1.64781
1.48054
1.46126
1.56942
1.5547
1.27673
1.06261
1.24985
1.51723
2.07851
2.60258
2.63304
2.65244
2.36841
1.91139
1.57144
1.21752
1.08595
1.04276
1.13102
1.31315
1.46594
1.53052
1.51824
1.37622
0.948858
0.607522
0.519674
0.57979
1.47855
1.32597
1.03582
1.00862
0.900108
0.783699
1.02311
1.57103
1.67309
1.69852
1.69197
1.70246
1.68216
1.69257
1.66262
1.66628
1.71189
1.98625
2.5115
2.77359
2.37902
1.91227
1.61445
1.51746
1.65025
1.68938
1.67501
1.6894
1.39723
0.670912
2.82811
2.74521
2.6324
1.99911
1.54224
1.27673
1.10763
1.18286
1.68572
1.85668
1.77851
1.57122
1.56456
1.56412
1.56342
1.57478
1.56982
1.58167
1.56766
1.55534
1.53223
1.51078
1.49559
1.49627
1.52612
1.57318
1.62281
1.47344
0.771387
0.458966
0.730753
0.70423
0.754261
0.827849
0.854253
0.816771
0.742143
0.640895
0.560618
0.508985
0.475481
0.460672
0.47406
0.50141
0.538931
0.620916
1.04607
2.06579
3.6432
4.80669
5.01944
5.05617
5.2858
5.32818
4.97921
4.36516
4.1214
4.81538
5.54916
2.18127
0.575756
0.654817
0.845072
1.06947
1.30888
1.41966
1.60093
1.75547
1.84974
1.55272
1.30969
0.770332
0.768058
0.617298
0.568951
0.614713
0.588559
0.647585
0.634526
0.680957
0.694798
0.752932
0.796452
0.801637
0.823449
0.74679
0.68213
0.573147
0.436874
0.358169
0.683793
0.680142
0.901085
1.348
1.76499
2.0891
2.17076
2.20204
2.43826
2.85411
4.29067
5.12151
5.59175
5.47679
5.90993
6.0603
6.47414
6.5147
6.49872
6.91499
6.60274
7.41683
7.15873
7.9426
7.92087
7.51359
5.78298
3.64556
1.98318
1.34174
0.667116
0.977451
1.32477
1.78851
2.32258
2.73244
3.12668
2.87463
1.70878
2.05232
1.60165
1.9586
1.91861
2.23462
2.51465
2.65929
2.88419
3.42638
3.41921
3.87104
4.54735
4.77877
4.81742
4.70327
3.88142
3.0438
1.90925
1.42674
1.03508
1.1789
15.2628
10.3215
8.44638
8.17411
8.4526
9.98512
14.1432
19.3481
22.1423
24.3564
24.8287
18.5815
6.2077
1.40212
3.03247
5.46846
6.81065
6.60816
5.5421
4.65036
4.2315
4.46302
5.35398
7.14684
9.92024
12.591
13.5477
12.7043
9.83219
6.18796
4.00833
3.12092
2.78913
2.79407
3.26245
3.84436
4.19438
3.38819
1.60652
0.785938
0.629214
0.798001
1.04391
1.21356
0.975121
0.942617
0.921477
0.908021
0.898525
0.888599
0.88457
0.873255
0.866555
0.855687
0.848958
1.11434
1.2042
1.27968
1.49741
1.49982
1.64432
2.15601
3.57445
6.22784
8.66264
10.5375
12.6858
13.6956
12.7357
8.95543
4.69485
2.81678
2.25032
2.32529
1.38192
1.39992
1.32751
1.23357
1.15236
1.09125
1.04352
1.00937
0.97974
0.960156
0.946596
0.939796
0.939849
0.943805
0.952851
1.03642
1.11001
1.33569
1.27482
1.35242
1.36383
1.34428
1.31772
1.27106
1.18988
1.12093
1.13369
1.17666
1.19958
1.1307
1.40091
1.51592
1.54659
1.54052
1.52667
1.50861
1.48131
1.44811
1.41213
1.49179
1.7662
2.16768
2.4958
2.59841
2.60293
2.43343
2.14605
1.76916
1.50962
1.08418
1.02949
0.99241
1.13765
1.51296
1.91605
2.25803
2.73864
2.54964
2.20195
1.86384
0.986634
1.21554
1.47127
1.5885
1.53419
1.54987
1.53201
1.49135
1.46315
1.43562
1.38219
1.37302
1.61465
1.77238
2.08965
2.29902
2.54858
2.63669
2.74051
2.94226
3.02257
3.55154
3.77874
3.61513
3.44436
2.92229
2.42091
2.22305
2.10204
1.21522
1.66652
1.68918
1.62817
1.58085
1.6088
1.48255
1.20674
1.23795
1.50394
1.5883
2.42253
2.61956
2.77799
2.63708
2.01403
1.62049
1.21732
1.02358
0.924353
0.86232
0.9844
1.22922
1.45245
1.53189
1.53169
1.42328
1.00624
0.623536
0.53118
0.572906
1.5253
1.36857
1.11691
1.0236
0.890683
0.831013
1.23132
1.64893
1.67957
1.69014
1.69559
1.69046
1.6908
1.67863
1.6625
1.6596
1.85237
2.29772
2.6761
2.94691
2.58623
2.40375
1.70036
1.37858
1.5415
1.68164
1.65496
1.67274
1.43064
0.684354
2.87971
2.83281
2.51308
1.95414
1.34925
1.24172
1.19019
1.57616
1.85691
2.06866
1.72011
1.57035
1.57983
1.57947
1.59121
1.59092
1.61078
1.59904
1.59945
1.58451
1.56255
1.52463
1.49187
1.47607
1.47904
1.50244
1.53335
1.58714
1.56037
0.472204
0.693557
0.652628
0.703913
0.779978
0.792008
0.728934
0.673718
0.611224
0.564641
0.523535
0.475198
0.439156
0.447041
0.508644
0.610925
0.803168
1.38446
2.89123
4.46465
4.53988
4.52817
4.22837
4.53571
4.34825
3.63095
2.60567
1.95637
2.08905
3.89028
3.10402
0.543484
0.577745
0.735035
0.953346
1.14081
1.30953
1.73457
2.07962
2.37326
2.43552
2.18126
1.27407
1.13205
1.23875
1.23752
1.40567
1.43665
1.54906
1.59149
1.63676
1.6569
1.66813
1.64643
1.6276
1.57744
1.50794
1.47399
1.37887
1.17451
0.807258
0.67715
0.712904
0.939588
1.47727
2.09914
2.8768
3.02247
3.35076
4.2277
4.80374
5.28076
5.57107
5.33564
5.83347
5.43322
6.41778
6.43992
6.89846
6.96394
6.83498
6.57266
7.20089
7.15972
7.57968
7.88358
8.21421
8.69264
7.64967
3.39093
1.48339
0.68697
0.994894
1.54506
2.10773
3.42501
4.12149
5.58541
4.90018
3.99281
4.01243
2.87423
3.57883
3.41848
3.92313
4.29484
4.13755
5.16657
5.03911
5.94555
6.28153
6.82432
7.00657
7.56198
7.14315
6.56307
5.71359
3.80878
2.28432
1.23453
1.08577
14.7235
10.323
9.11644
9.63599
8.76772
8.9406
11.3091
16.6238
20.5449
22.5536
24.1613
23.4531
11.1761
1.62098
6.20088
6.94446
6.51959
5.29951
3.98037
3.3461
3.1998
3.54956
4.41974
6.20154
8.88362
11.8404
12.9047
11.8602
8.63103
5.37058
3.59821
2.91569
2.82627
3.04948
3.93848
5.13619
4.63184
3.21041
1.42335
0.617738
0.562674
0.723493
0.998148
1.1825
0.935853
0.934166
0.936206
0.940717
0.940508
0.935102
0.925944
0.905717
0.893395
0.875591
1.0686
1.08689
1.42018
1.54335
1.68437
1.74509
1.81048
2.33239
3.79111
5.79357
7.63523
10.0182
12.3281
11.9066
8.47079
4.84356
2.96683
2.18467
2.11836
2.33781
1.41782
1.36249
1.30811
1.2532
1.19279
1.13558
1.0796
1.03072
0.994797
0.972676
0.958827
0.95078
0.947423
0.955796
0.960238
1.00302
1.18932
1.23942
1.36421
1.39745
1.44149
1.42338
1.34548
1.31462
1.24346
1.1509
1.10812
1.11849
1.15815
1.13222
1.51199
1.52087
1.48946
1.45373
1.42926
1.41032
1.42456
1.50285
1.72138
2.08771
2.53013
2.75283
2.92531
3.01665
2.94161
2.75737
2.36892
1.76738
1.27692
1.05866
0.806847
0.898379
0.949242
1.1808
1.71748
1.94007
1.86444
1.84263
1.53785
1.37713
1.06494
1.34562
1.95955
1.51916
1.54132
1.52873
1.49461
1.47703
1.46633
1.43437
1.42591
1.50322
1.57596
1.81962
2.27144
2.41355
2.90069
2.7952
2.87454
3.01912
3.18675
3.15531
3.22849
3.07302
2.76613
2.45922
2.36328
2.22421
2.01061
1.29562
1.67111
1.67319
1.63942
1.63575
1.5904
1.3857
1.25999
1.45116
1.58026
1.78133
2.86999
3.3115
3.24277
2.43802
1.85968
1.42841
1.16484
0.999051
0.903753
0.834638
0.936368
1.17989
1.39084
1.48764
1.48217
1.33973
0.947211
0.626469
0.541844
0.559717
1.42572
1.31797
1.195
1.10116
0.889018
0.879289
1.36217
1.64516
1.67359
1.6821
1.69175
1.68328
1.68095
1.68652
1.65918
1.66537
1.97486
2.36673
2.71345
2.70901
2.73405
2.29097
2.00389
1.55911
1.4906
1.66075
1.64465
1.67647
1.44636
0.710392
2.82789
2.77924
2.41699
1.89594
1.27356
1.15654
1.44044
1.57342
1.86063
1.87572
1.65989
1.67663
1.62577
1.60301
1.60392
1.62281
1.61935
1.63693
1.62029
1.61196
1.5827
1.53984
1.49492
1.47287
1.47664
1.50061
1.51102
1.52428
1.59871
0.885144
0.697955
0.657672
0.696374
0.732334
0.73726
0.687754
0.659395
0.638909
0.619806
0.591562
0.518522
0.456709
0.471283
0.574018
0.793256
1.12862
1.74732
3.74369
4.54725
4.68718
3.87877
4.07018
4.07923
3.94191
2.94496
1.77073
1.5076
1.39863
2.31038
3.54116
0.467371
0.491076
0.575511
0.698376
0.891373
1.09891
1.55083
1.93371
2.66887
2.22112
2.3524
1.67179
1.75193
1.62692
1.62884
1.65053
1.63129
1.6445
1.6439
1.63669
1.66127
1.67491
1.69431
1.66215
1.66707
1.61213
1.58825
1.57771
1.78169
1.55941
0.670407
0.716746
0.922296
1.4696
2.33918
3.63718
4.40131
5.12075
5.47425
5.39948
5.69984
5.29475
5.63582
5.08619
6.00651
5.29173
6.14445
6.26117
6.68232
7.5036
7.13509
7.26916
7.38665
7.40291
7.9259
7.88924
8.3862
9.05081
7.1747
1.83374
0.619621
1.10358
1.81285
2.9558
5.0965
6.33175
6.65733
6.51965
4.44928
4.97593
3.34637
4.19308
3.80248
4.72396
4.36206
5.30665
5.2497
5.89931
5.80901
6.53984
6.5251
6.73014
6.62777
6.7367
6.54774
6.75278
5.68695
4.86567
2.00977
1.11183
15.9023
12.7678
13.2353
13.0983
10.1678
8.40043
9.22205
12.7226
17.6952
21.0639
22.9619
23.6909
17.3073
2.64494
7.05232
6.42889
5.57941
4.45535
3.56965
3.17239
3.23336
3.55573
4.53359
6.2331
8.59744
10.2281
10.0416
7.84704
5.34309
3.66379
2.9266
2.89107
3.14406
4.2123
5.69339
5.442
3.93946
1.97947
0.858832
0.462211
0.445229
0.588946
0.887442
1.14305
0.949164
0.971585
0.991566
0.996157
1.00249
0.995578
0.989423
0.974228
0.98519
0.993915
1.19279
1.64855
2.3493
2.92817
2.68539
2.18488
2.1422
2.70045
4.03756
5.64761
7.93127
10.9537
10.8733
6.00299
3.20254
2.20058
1.89186
1.87347
2.04788
2.45915
1.41085
1.38298
1.31747
1.2321
1.15777
1.09547
1.03921
0.998979
0.974918
0.961288
0.954293
0.950031
0.949488
0.956424
0.975551
1.06675
1.12479
1.27745
1.35885
1.39512
1.4519
1.39153
1.37553
1.35468
1.29181
1.19369
1.10959
1.08251
1.11811
1.19214
1.55978
1.43464
1.34691
1.3202
1.36016
1.46445
1.62388
1.9535
2.28226
2.54085
2.79311
2.98094
3.09994
3.12556
3.14317
3.01343
2.51806
1.81747
1.12435
0.866182
0.849067
0.764612
0.974996
1.0698
1.24379
1.59605
1.5474
1.21326
1.1645
1.03871
1.15868
1.70356
1.91753
1.53479
1.53412
1.51277
1.47542
1.46855
1.46359
1.44518
1.53589
1.47091
1.65552
1.74272
2.60038
2.53721
2.90484
3.00341
2.89721
3.11
2.8472
2.90092
2.51092
2.47673
2.17074
2.31222
2.20437
2.30578
2.21983
1.26699
1.62479
1.61386
1.64781
1.61583
1.48566
1.31576
1.38025
1.54195
1.71584
2.1724
3.55934
3.99842
3.70323
2.829
2.12822
1.59785
1.17852
1.07526
0.964397
0.827821
0.820749
0.967334
1.14346
1.26871
1.2512
1.09586
0.822082
0.610734
0.547843
0.549148
1.42699
1.35487
1.20367
1.05305
0.90089
0.894864
1.39091
1.62714
1.63053
1.66364
1.67754
1.67875
1.67309
1.683
1.67315
2.11134
1.97104
2.44767
2.55914
2.73467
2.4012
2.31664
2.20174
1.65276
1.566
1.87056
1.84297
1.78806
1.51037
0.751349
2.76404
2.71516
2.29756
1.94419
1.2676
1.23803
1.53004
1.59327
1.56728
1.63415
1.72178
1.61565
1.66391
1.63885
1.62686
1.62429
1.64821
1.63094
1.62949
1.61663
1.60136
1.55077
1.49531
1.47962
1.54545
1.60312
1.61664
1.58685
1.55654
1.42517
0.666477
0.594484
0.606556
0.652533
0.673188
0.655047
0.653809
0.684003
0.710211
0.718868
0.640629
0.537356
0.538011
0.69678
1.01744
1.38684
2.1513
3.07184
3.77044
3.68318
3.94193
3.50945
3.60047
3.13864
2.39863
1.59833
1.54101
1.37891
1.30637
2.36557
0.423087
0.421337
0.521614
0.630379
0.764686
0.945787
1.42989
1.71684
2.31944
2.22831
1.95424
1.89439
1.58624
1.5664
1.58743
1.56431
1.60408
1.58852
1.63954
1.64889
1.69148
1.68731
1.67834
1.62248
1.57606
1.54282
1.4986
1.51802
1.69676
1.77391
0.677528
0.693926
0.8691
1.33296
2.40644
4.06337
5.51586
5.95803
5.8124
5.81848
5.69913
5.54413
5.11642
5.32874
4.41188
5.57004
5.31417
6.06517
7.0024
6.6447
7.72369
7.88839
7.34828
7.70518
7.6809
8.21413
8.41322
9.04271
8.31119
2.55474
0.668889
1.17567
2.3479
4.0436
6.70364
6.87804
6.59795
5.90401
4.52316
4.73969
3.56304
4.19064
4.1573
4.69428
4.77454
4.91954
5.59102
5.90082
6.00528
6.51194
6.71341
6.95575
6.9484
6.46597
6.7889
6.46788
6.68711
6.11339
2.91694
1.3923
17.3895
15.2928
15.6578
14.0147
8.75866
6.52112
6.68557
8.19556
10.8744
14.5686
19.1979
22.4758
19.6043
4.19457
6.114
5.50145
5.08952
4.37334
3.83248
3.51929
3.41491
3.549
3.91237
4.63437
5.29209
5.53784
4.8766
3.97008
3.1972
2.90759
3.06138
3.68228
4.98104
5.78653
5.17156
3.01676
1.47715
0.712618
0.410065
0.401136
0.412372
0.508556
0.786005
1.06465
0.984403
1.02542
1.02695
1.02467
1.0142
1.02077
1.02195
1.01468
1.15379
1.13544
1.37607
2.28222
3.82018
3.86273
3.27726
2.48648
2.38995
3.29518
4.25452
6.37044
9.28414
10.228
4.297
2.13709
1.99184
2.33623
2.35605
2.20067
2.29364
2.36199
1.41977
1.38045
1.22489
1.12398
1.06548
1.0225
0.991322
0.975332
0.966294
0.960427
0.957475
0.952974
0.959353
0.977382
1.01188
1.06379
1.11728
1.16772
1.23434
1.3068
1.36957
1.40538
1.41016
1.38759
1.32801
1.22372
1.11595
1.05877
1.11806
1.24668
1.54415
1.31772
1.24085
1.25616
1.41814
1.65378
2.04085
2.38143
2.63126
2.81403
2.91899
2.9632
3.01488
3.13038
3.15384
3.0984
2.43612
1.6049
1.06847
0.795653
0.811665
0.850729
0.931174
1.03175
1.14219
1.18613
1.13794
1.06172
0.973967
0.933561
1.24999
1.78816
1.61057
1.54017
1.53327
1.50137
1.46552
1.46005
1.51663
1.61168
1.6767
1.58262
1.52084
1.77191
2.30972
2.79666
3.0817
2.71281
3.17488
2.72497
2.22455
2.15415
2.07372
2.01941
2.09957
2.24506
2.36524
2.38253
1.89349
1.13723
1.78646
1.61218
1.62115
1.81546
1.41054
1.39157
1.73177
1.90522
2.22775
2.81044
3.38743
4.31928
4.1887
3.38574
2.39828
1.9776
1.56876
1.25535
1.06806
0.859392
0.764164
0.769813
0.80971
0.850269
0.851118
0.786243
0.676955
0.587725
0.547589
0.542074
1.43773
1.39634
1.12883
1.25694
1.09253
0.892046
1.33865
1.59655
1.60548
1.62223
1.6542
1.66633
1.6713
1.6712
1.67721
2.15896
2.26592
2.38766
2.59276
2.52644
2.35682
2.28925
2.25718
1.93502
1.70323
1.72705
2.27046
1.90098
1.67341
0.830569
2.78241
2.46124
2.3852
1.67033
1.72459
1.27907
1.64214
1.57112
1.56711
1.57107
1.59412
1.61384
1.62115
1.62116
1.62592
1.65998
1.65405
1.6562
1.63591
1.63096
1.60727
1.55592
1.48456
1.48892
1.60904
1.54708
1.33662
1.55076
1.60585
1.6013
0.656683
0.595242
0.577062
0.610748
0.633287
0.636969
0.661665
0.746963
0.825973
0.903165
0.860656
0.732295
0.697699
0.864229
1.23113
1.50781
1.80045
2.91013
3.30316
3.6255
3.14026
3.52491
3.40042
3.50064
3.08487
1.70695
1.56701
1.38724
1.09633
1.42217
0.421443
0.429536
0.44189
0.472548
0.514073
0.596489
0.838756
1.1861
1.74301
1.68789
2.02692
1.65073
1.62641
1.57739
1.57823
1.59131
1.6286
1.63354
1.68872
1.67249
1.64872
1.57847
1.50442
1.45693
1.42492
1.4472
1.42652
1.46436
1.7947
1.95579
0.598133
0.731045
0.905286
1.21943
2.02475
3.99088
5.94183
6.17476
6.05087
6.01466
5.38975
5.25013
4.78567
4.76757
5.45223
4.81612
5.67879
6.08138
6.24203
6.85528
6.90744
8.10843
7.79919
7.40694
7.99943
7.7963
8.67607
9.01704
9.41883
3.42133
0.633124
1.35535
2.85591
5.96543
6.82246
6.77482
5.8091
5.71616
4.40961
4.42057
4.21388
4.53024
4.05347
4.92064
5.08195
5.50804
5.7096
6.3441
6.19145
6.49886
6.85796
6.98151
6.82571
6.75461
6.57648
6.83434
6.85232
6.03318
4.3536
1.63682
18.2358
16.1222
15.9548
11.5983
6.05026
4.7348
5.04555
5.60761
6.6226
8.14408
12.1071
18.7244
18.0781
5.37222
4.98651
4.98533
4.82918
4.41524
4.08008
3.8269
3.64866
3.52717
3.48101
3.34507
3.25688
3.18495
3.1306
3.10063
3.37512
3.92398
4.688
5.446
4.95412
2.98149
1.60641
0.808356
0.613652
0.606264
0.52445
0.498124
0.472576
0.536894
0.774481
1.00516
1.02026
1.03477
1.01674
1.00023
1.02236
1.04043
1.19316
1.25268
1.20192
1.15425
1.54491
2.85381
4.0146
3.97306
2.94095
2.58703
2.88348
3.69481
5.32069
8.06895
9.48885
4.23662
1.79063
2.2704
3.45903
3.76137
3.4909
3.42422
2.8627
2.78885
1.41832
1.29373
1.10833
1.03778
1.00276
0.985301
0.979956
0.975893
0.97084
0.966639
0.969613
0.981856
1.00687
1.0556
1.12644
1.20004
1.26411
1.31421
1.36367
1.40178
1.42692
1.43333
1.42473
1.39999
1.33228
1.22179
1.10441
1.04456
1.19833
1.28345
1.44425
1.24478
1.19845
1.35224
1.62329
2.0705
2.49783
2.73265
2.8863
2.87053
2.87518
2.82851
3.00159
3.14101
3.23367
3.07153
2.21751
1.48307
0.920777
0.857606
0.903399
0.974457
1.04388
1.12047
1.12986
1.11272
1.03657
0.974102
0.932139
0.930134
1.31402
1.6609
1.5424
1.54638
1.53229
1.49539
1.45588
1.44608
1.52441
1.67197
1.75769
1.66643
1.56231
1.57678
2.1613
2.48897
3.29589
2.68481
2.36992
2.29176
1.6243
1.72686
1.78582
1.84407
2.10385
2.29244
2.4711
2.21898
1.44965
1.0497
1.9261
1.93401
2.21729
1.85268
1.7744
1.87585
1.99847
2.06834
2.21052
2.63214
2.86737
3.93551
4.8414
3.97838
3.04729
2.62712
2.08371
1.60171
1.24982
0.974351
0.796162
0.707841
0.697527
0.692055
0.689065
0.669608
0.638365
0.594681
0.5533
0.53579
1.32874
1.17306
1.06889
1.19763
1.15557
0.854324
1.21743
1.57864
1.58403
1.60322
1.71285
1.64984
1.66521
1.81571
1.74732
2.08655
2.27875
2.49251
2.60383
2.54558
2.41915
2.28804
2.2048
2.15625
1.73392
1.82128
2.49377
2.49024
2.47928
1.04753
2.67283
2.71173
2.05059
2.005
1.57675
1.74129
1.72483
1.56926
1.56469
1.58298
1.58481
1.61486
1.61781
1.63051
1.64891
1.66121
1.65384
1.65535
1.63972
1.62926
1.61318
1.55623
1.46826
1.47936
1.62468
1.2793
0.900817
1.05579
1.62805
1.63054
0.630183
0.559995
0.533989
0.544838
0.566388
0.591134
0.647727
0.777708
0.933531
1.08976
1.13832
1.04875
0.982791
1.09558
1.38728
1.5722
1.77304
2.13314
2.69462
2.82542
3.02425
3.07018
3.0376
3.57837
3.22922
2.91121
1.67038
1.51277
1.08413
0.666558
0.423863
0.43601
0.469755
0.480349
0.500332
0.526744
0.680861
0.978513
1.4511
1.59994
1.76178
1.7118
1.58488
1.58608
1.62541
1.62175
1.67011
1.6536
1.6531
1.59208
1.49618
1.45524
1.41845
1.39909
1.40595
1.41641
1.65146
1.48439
2.28623
1.6619
0.627781
0.810103
1.14454
1.28399
1.63858
2.95135
5.88261
6.24774
6.15315
5.70114
5.59759
4.69032
5.03038
4.50186
4.97282
5.35224
5.08912
4.62299
6.21307
5.70443
6.70618
7.05226
7.97951
7.37806
7.51603
7.97529
8.4202
8.93834
8.20258
4.20635
0.674337
1.64521
4.2017
6.59403
6.65272
6.1639
5.83965
5.18577
4.23311
4.51679
4.00506
4.47795
4.15407
5.29403
5.14564
6.00117
6.13108
6.54074
6.615
6.71544
7.03802
7.14133
7.12705
6.89672
6.57726
7.27235
5.85685
5.40091
4.21659
2.0269
18.4219
15.6782
14.2266
8.21013
4.62706
4.23049
4.77679
4.75839
4.76843
5.90002
9.79717
14.4113
11.1131
5.53612
5.98341
5.90818
4.26582
4.4926
4.29262
3.94903
3.75607
3.71324
3.67968
3.68846
3.68456
3.85991
3.95449
4.10337
4.28583
4.59105
4.90172
4.93492
4.34804
2.84054
1.51895
0.875677
0.846042
0.86491
0.944829
0.902165
0.755567
0.672677
0.605299
0.702451
0.884644
0.952701
0.9594
1.02422
1.043
1.00636
0.99056
1.01613
1.08708
1.43569
1.38268
1.28362
1.24221
1.20919
1.82648
3.24025
3.79875
3.40746
3.13792
2.98774
3.59421
5.06513
7.18169
8.15354
4.36169
1.81493
1.90474
3.58468
3.68727
3.34002
2.96863
2.88875
2.82595
2.48348
1.57268
1.30368
1.20909
1.07802
1.02804
0.998791
0.98615
0.984357
0.986754
0.985801
0.982665
0.986962
0.998995
1.03322
1.07826
1.13564
1.20276
1.27028
1.32377
1.36682
1.39444
1.41651
1.42247
1.41516
1.39599
1.34683
1.2721
1.16843
1.0711
1.07561
1.10915
1.09618
1.172
1.35244
1.35009
1.18786
1.31537
1.5453
1.9707
2.37639
2.68913
2.84651
2.91233
2.84447
2.80067
2.82734
2.928
3.17808
3.19818
2.84028
1.93642
1.25816
0.881845
0.918449
0.978045
1.04707
1.06442
1.08794
1.05078
0.997336
0.941541
0.928416
0.965388
1.0883
1.19734
1.33053
1.42012
1.54611
1.55299
1.55068
1.53124
1.48301
1.45184
1.63328
1.539
1.7987
1.87125
1.75643
1.64792
1.54619
1.77775
2.24605
2.67183
2.44067
1.71779
1.68586
1.60639
1.59536
1.58738
1.75128
1.9863
2.13612
1.83738
1.36709
1.20726
1.36198
2.20701
2.62241
2.13833
2.60096
2.19957
2.03636
2.01123
2.11121
2.21866
2.31717
2.31708
2.11917
2.49518
3.32271
4.442
4.62445
3.81477
3.24205
2.85471
2.03105
1.54937
1.14243
0.919575
0.752251
0.748588
0.761363
0.772527
0.784099
0.761332
0.698836
0.603988
0.533005
0.673501
0.827269
1.12476
1.1753
1.07719
1.17942
1.20354
0.947147
1.08682
1.56094
1.58758
1.59575
1.61543
1.63366
1.64449
1.6684
1.66406
1.87994
2.1333
2.42487
2.56716
2.49241
2.40732
2.15724
2.1635
2.11653
1.90423
1.71957
1.92114
2.97767
2.97995
2.02593
4.52589
2.16819
2.93643
2.41932
2.14723
1.76263
1.97991
1.71693
2.10647
1.85657
1.57651
1.57143
1.60239
1.60346
1.63628
1.63092
1.66351
1.65405
1.65431
1.65575
1.64084
1.6283
1.613
1.56061
1.44854
1.45454
1.61859
1.30214
0.833068
0.748286
1.35211
1.64039
1.60698
1.06187
0.630154
0.545612
0.522621
0.517309
0.526994
0.553365
0.620506
0.785862
1.01525
1.23825
1.40793
1.48199
1.33841
1.37162
1.50933
1.60862
1.64408
1.65577
2.02011
2.20418
2.50035
2.67398
3.10667
3.44798
3.75921
3.4553
2.57208
1.5806
1.3729
0.808185
0.480175
0.430983
0.457917
0.56308
0.685982
0.727666
0.671098
0.589265
0.587066
0.729569
1.15106
1.53701
1.71183
1.59788
1.64663
1.61121
1.64436
1.63312
1.64806
1.61286
1.53383
1.50055
1.3954
1.39228
1.37837
1.37293
1.39536
1.40258
1.72167
2.75906
2.38649
1.48729
1.29745
0.695733
0.560295
1.10763
1.97505
1.91389
1.81549
2.27389
3.80452
6.18109
5.85625
5.95504
4.95103
5.19726
4.29554
4.93134
4.69131
5.01627
4.95709
5.30993
4.71059
5.83472
5.51364
6.9003
7.01668
7.30355
6.96085
7.63498
7.8011
6.05758
5.03233
3.96041
3.32349
2.67496
0.829741
2.102
5.48446
6.66784
6.21276
6.23936
5.6326
5.11895
4.8161
4.39443
4.0651
4.89432
4.94773
5.04665
6.0027
6.35258
6.4146
6.87919
7.30956
7.26521
7.18441
7.13635
7.24715
7.07673
6.95799
7.30215
6.94814
4.92348
4.12857
3.48552
7.76615
8.36534
18.4097
14.1414
11.2429
5.76667
4.071
4.28441
4.61705
4.62985
4.6538
5.68581
7.97763
9.18073
6.77358
4.64176
4.18934
3.97845
3.75668
3.78518
3.254
2.71087
2.43326
2.38836
2.43241
2.65427
2.96326
3.27695
3.66771
3.86401
3.9683
3.75845
3.16189
2.28778
1.42883
0.894275
0.857673
0.934475
1.18484
1.07123
1.18283
0.966298
0.844071
0.785528
0.768397
0.848812
0.950282
1.00514
1.03339
1.04625
1.01477
0.991632
1.0078
1.243
1.60446
1.51759
1.45939
1.39642
1.23158
1.41572
2.14472
3.18338
3.53791
3.33594
3.43314
4.187
5.31441
6.41982
6.13846
3.33677
1.66456
1.27543
2.49113
3.57639
3.48763
3.11634
2.83044
2.5651
2.37666
2.12664
1.68226
1.19501
1.11448
1.06289
1.01924
1.004
0.992604
0.990396
0.993603
0.999186
1.01358
1.036
1.06681
1.09481
1.12097
1.14615
1.17355
1.20318
1.23758
1.26864
1.28476
1.30453
1.30282
1.28961
1.26017
1.21887
1.15972
1.09421
1.06936
1.09073
1.17749
1.1921
1.22817
1.42825
1.22919
1.19799
1.36123
1.73152
2.10451
2.40775
2.63395
2.82855
3.00274
3.03538
2.94577
2.98774
3.09327
3.11362
3.03826
2.5446
1.67997
1.01434
0.914893
0.945591
0.982006
1.01216
0.99674
0.976467
0.93121
0.899912
0.90475
0.993707
1.18969
1.33567
1.35232
1.39428
1.48612
1.56135
1.55636
1.5528
1.51968
1.60702
2.07627
2.20616
1.90582
1.72842
2.02903
2.03155
1.6485
1.57694
1.4857
1.48792
1.89949
1.66969
1.52692
1.52658
1.57323
1.55907
1.55352
1.50792
1.43369
1.24791
1.11031
1.10268
1.4969
1.87331
2.07328
2.22048
2.19518
2.1994
1.98713
1.99592
1.96455
2.13979
2.22294
2.21903
2.15284
2.09009
1.90723
2.21075
3.03376
4.56207
4.41862
3.81306
3.48555
2.749
2.02696
1.49171
1.1491
1.0531
0.987424
0.995541
0.9753
0.988102
0.955321
0.854006
0.71801
0.588586
0.806572
0.994919
1.05417
1.08883
1.10255
1.2179
1.15393
0.971031
0.97387
1.48908
1.6026
1.59987
1.61832
1.62126
1.64587
1.65219