/*--------------------------------*- C++ -*----------------------------------*\
| =========                 |                                                 |
| \\      /  F ield         | OpenFOAM: The Open Source CFD Toolbox           |
|  \\    /   O peration     | Version:  2.1.1                                 |
|   \\  /    A nd           | Web:      www.OpenFOAM.org                      |
|    \\/     M anipulation  |                                                 |
\*---------------------------------------------------------------------------*/
FoamFile
{
    version     2.0;
    format      ascii;
    class       volScalarField;
    location    "0.003750000";
    object      Xi;
}
// * * * * * * * * * * * * * * * * * * * * * * * * * * * * * * * * * * * * * //

dimensions      [0 0 0 0 0 0 0];

internalField   nonuniform List<scalar> 
12384
(
2.1322
3.63038
4.42931
4.90375
5.2575
5.27602
5.42174
5.69945
5.93645
6.24448
6.86369
10.702
8.50418
6.0291
27.3893
37.7682
42.195
41.5218
42.6889
40.1186
41.7621
38.8462
39.3618
38.8148
40.32
42.7379
45.8437
47.922
49.6685
48.9576
48.3989
44.667
41.2053
38.1018
34.0996
29.6656
32.1661
39.7169
46.1115
59.4356
44.4737
31.8747
18.848
9.88571
39.3798
51.1172
63.3312
76.7343
91.1285
104.191
115.71
118.695
120.584
120.352
116.186
111.444
88.1717
77.2492
72.678
54.7356
45.8044
32.1204
23.0896
19.7891
18.5132
18.0259
17.5029
17.2663
17.6435
18.5369
19.6776
19.5378
17.6249
11.7589
47.1197
60.2055
69.4418
79.8214
90.4725
101.935
112.568
123.605
133.807
142.442
150.591
156.545
158.317
164.129
157.008
158.369
156.038
151.897
137.258
141.552
136.895
138.665
130.088
116.337
92.0841
62.4543
49.2008
44.5687
36.6417
19.8483
51.0172
66.0138
74.9984
83.1367
91.1126
99.1279
107.458
115.539
125.15
133.861
142.649
153.546
159.327
152.341
136.456
126.68
120.053
105.234
96.6325
88.6275
83.0667
76.1144
72.6607
61.6383
51.502
41.2497
35.8713
29.5934
23.9188
15.0852
35.6813
52.4988
62.2757
67.874
75.8331
86.2684
97.1133
104.654
110.658
115.575
119.242
122.575
126.865
132.141
130.369
125.379
126.003
124.959
124.239
119.303
108.007
101.405
84.1598
72.3898
66.8539
67.4846
66.4914
46.2349
36.0627
21.8547
32.5489
48.3256
60.2543
69.3805
67.1475
67.885
73.7791
91.7537
116.423
114.338
106.441
73.7091
66.1602
63.188
62.288
66.7145
73.1835
84.5428
97.9174
108.678
109.277
105.031
103.127
96.5529
94.307
89.5664
87.8357
70.9167
49.5728
26.4368
16.7807
30.6733
45.3651
42.6456
40.6191
37.8747
30.8655
21.9235
13.3911
12.9801
19.1869
29.232
44.4763
63.275
84.7635
100.368
114.06
124.295
124.272
123.461
113.89
102.557
91.9499
74.1818
60.2015
45.1579
32.1448
20.6064
13.8732
9.51199
3.14949
4.37447
5.16454
6.1372
8.19323
11.3384
15.5125
23.4807
30.5214
39.663
44.623
45.9069
44.1982
47.7294
50.082
68.9111
60.3125
67.6645
58.0651
53.2056
44.5082
37.0846
28.5223
21.1727
14.3425
11.1189
8.81473
7.10756
5.64595
3.39816
3.43431
3.99326
4.20159
4.54315
4.85725
5.81565
7.12676
9.11797
11.4227
13.8072
14.2937
13.6887
11.9943
10.7684
9.94592
10.6709
10.119
9.18725
9.37478
9.54462
9.35454
11.6175
13.7521
16.5711
19.2303
21.647
21.3679
15.2149
7.64999
2.89104
4.2698
4.23024
4.04465
3.71337
3.46264
4.55062
5.91319
7.42263
9.42738
12.7333
10.5603
16.4228
12.629
15.223
10.8392
10.6185
8.76171
8.15457
8.1049
7.88583
7.4886
7.96123
7.2002
8.14345
7.53981
7.32326
6.40992
5.59944
4.50655
3.03723
4.56942
5.42875
5.60188
5.29609
5.51405
6.70536
7.81114
9.32466
9.44758
9.7923
9.25732
8.72246
7.82987
7.81478
7.76952
8.94825
10.8161
11.3327
10.1586
8.91993
7.87665
6.36521
5.58636
4.90491
4.37852
3.97726
3.72132
3.27696
2.96699
2.39281
4.41317
4.5839
4.38468
4.05596
4.53671
5.92106
8.49746
10.6524
14.6537
12.0838
12.3662
12.5141
8.90237
9.3954
6.9598
6.52962
5.59728
5.17571
5.16207
4.83591
4.71689
4.36882
4.22462
4.0578
4.09105
3.96146
4.23812
3.6987
3.6214
2.85601
2.73806
4.68498
6.02316
6.92361
7.55635
7.69019
7.65131
7.59611
7.64331
8.35427
9.9298
12.0581
15.5645
14.4419
44.1274
33.9909
35.0159
35.4591
36.7222
38.3829
39.8693
39.4876
38.8219
36.8611
35.067
34.2199
34.9306
38.142
42.9092
47.7202
50.1618
50.6134
48.6226
46.6453
43.468
37.4845
34.9992
41.0279
50.4749
69.3349
64.2271
46.7312
28.3743
19.5155
57.103
62.0919
80.2308
101.754
123.01
142.06
158.472
172.108
182.676
193.714
198.996
203.808
159.572
152.746
136.312
111.698
95.1153
62.9607
39.2073
25.7856
20.2681
18.2396
17.3614
16.9937
17.4761
19.4124
23.8389
26.3844
25.0963
21.2842
60.4449
61.6935
73.5197
90.2082
108.721
127.505
146.89
166.185
184.625
202.351
218.37
233.096
244.248
254.081
257.178
254.058
242.555
211.853
212.94
191.708
179.002
164.803
147.806
132.119
117.047
94.6771
68.9837
52.8959
44.5693
39.2407
64.8239
64.5212
73.578
85.4032
99.362
114.004
128.69
142.824
158.47
171.363
186.745
197.142
182.611
173.048
163.26
163.491
155.475
165.951
157.238
160.387
163.706
158.257
144.985
125.658
93.7219
72.1647
57.2578
47.0805
38.6717
32.8158
62.1608
65.2299
75.5715
80.9118
85.5094
88.8256
90.4178
90.2736
91.9467
95.1971
101.92
110.923
123.843
130.186
135.017
143.295
151.12
158.487
162.409
159.283
146.987
127.776
109.764
94.6098
84.8793
86.6507
86.9018
77.674
73.6225
65.5618
45.2983
49.9949
60.5611
66.3576
65.5274
68.1657
79.6825
104.496
119.035
103.238
87.7614
65.4011
60.7885
56.1103
58.2616
61.4651
68.3888
78.2249
89.3665
99.1778
101.686
102.479
102.959
101.265
102.558
106.127
115.114
107.483
77.5099
53.0942
33.3663
45.4053
66.5395
69.3644
72.9488
81.0204
77.6117
61.7903
61.3361
76.298
96.7335
112.973
123.643
129.948
134.665
135.376
136.025
133.472
118.846
97.5021
110.97
101.943
91.9484
78.5296
71.2665
63.8754
55.0307
39.3518
24.4963
22.798
4.83869
4.18309
6.15246
11.5147
22.7755
41.5926
59.8883
76.2143
94.1794
117.02
123.504
126.957
130.034
132.507
131.194
124.88
113.338
100.123
85.0213
71.7074
58.6082
45.7846
32.2643
19.5979
9.90231
5.50948
4.42546
4.1711
3.9739
4.47282
5.17774
3.92992
5.01492
6.24052
7.8234
10.2987
13.1679
17.3591
22.5168
26.7302
29.5836
30.4958
31.0076
31.1527
32.7686
34.6479
26.9489
21.7973
17.6782
15.0582
13.2914
14.0598
16.9469
22.1673
27.9219
33.95
34.301
23.5766
9.7483
8.24406
6.23443
3.61118
4.34511
5.0388
6.33199
8.1279
10.3896
13.0664
15.6267
18.4216
23.9651
27.6686
32.8123
33.5083
32.4622
30.5567
28.0262
25.6302
23.1659
21.0471
18.6291
16.4515
14.0313
11.5456
9.66306
7.78619
6.45133
4.87858
3.99688
5.02911
6.55091
4.53351
5.77898
6.61863
7.92274
9.96883
12.36
15.0704
16.9477
18.2732
18.8111
18.1197
17.9418
15.6819
13.5657
11.3046
9.87031
9.09307
7.80179
6.49665
5.39725
4.14045
3.36219
2.80567
2.50955
2.34054
2.30169
2.26106
2.18566
3.10485
8.62213
5.30264
6.43645
7.54079
8.44153
10.0429
10.9065
13.6986
17.4361
14.8018
13.7145
10.6289
8.74538
7.32298
5.67623
4.86326
3.91171
3.31813
2.94339
2.79694
2.56732
2.44416
2.337
2.29764
2.27519
2.28999
2.30336
2.20133
2.12385
3.25482
4.30993
9.2456
11.8423
13.3087
13.558
12.3774
11.0112
9.94706
9.0547
8.545
8.86012
11.3634
16.2876
24.5255
44.1568
40.3335
39.3072
39.5929
41.6228
43.454
45.3795
44.7639
41.8901
36.974
32.3225
28.8306
27.3938
27.9814
31.8992
38.4616
45.215
48.3291
49.2222
46.8735
42.7663
37.8081
32.694
35.3498
46.8602
64.2325
66.7884
50.4754
33.8124
24.981
65.3433
83.354
105.897
125.98
143.165
157.93
170.567
181.112
190.822
198.682
202.528
191.559
159.524
155.341
131.441
120.161
102.568
76.7211
47.1508
30.1611
22.3321
19.3689
17.8439
16.8905
16.8164
18.521
24.0881
29.6816
28.3534
24.0163
65.6538
68.8617
81.443
95.9234
111.509
127.703
143.508
158.787
174.162
189.143
203.544
216.769
229.138
237.879
245.324
245.074
224.489
218.301
199.772
196.813
181.648
170.58
156.089
142.693
131.949
117.106
92.5287
67.9293
52.6107
50.535
70.9494
72.9375
78.0086
85.2986
94.1218
104.301
115.124
126.61
139.793
152.884
167.259
152.329
140.708
133.709
131.841
133.236
139.466
142.859
163.41
166.675
174.649
176.3
160.956
138.576
112.226
82.6537
66.2767
55.4869
48.8984
47.2327
81.3686
75.5066
83.2237
88.9695
94.6965
98.1961
99.5928
101.373
104.786
111.033
121.443
132.112
131.351
128.11
125.432
125.756
128.733
131.802
133.941
130.089
122.745
113.667
100.003
89.2842
87.7265
89.2641
91.8653
87.1575
77.9774
80.4103
56.2561
55.5247
63.3852
68.3203
70.9831
77.9521
95.1086
110.995
105.285
93.8028
77.7286
67.1884
65.942
65.3329
70.49
81.1295
92.8666
109.758
118.399
121.734
116.289
105.86
98.3144
95.3576
94.9821
97.5197
110.668
118.669
103.745
72.6977
48.5264
63.8264
82.3389
86.7542
95.1266
102.721
88.1145
69.4686
76.9599
94.0037
115.155
129.75
142.335
146.914
152.372
150.744
148.104
131.23
110.661
99.402
102.24
106.882
106.84
94.1779
76.0196
64.6531
59.4862
48.7417
35.2568
31.3907
6.73266
6.11046
9.05557
16.3612
29.1492
46.7429
69.8558
88.3222
87.7153
97.5822
114.902
136.668
147.137
152.908
154.965
150.184
143.048
131.394
121.708
110.884
99.6482
84.9926
66.4292
44.3841
22.818
8.8801
4.8301
3.8172
4.26218
6.42856
5.67303
4.20192
4.99139
6.08593
7.88143
10.5231
14.1783
19.0743
24.1847
29.0079
32.9779
35.613
37.2295
38.1111
38.4066
38.5762
31.6779
25.239
21.5683
21.4824
24.4959
30.0043
37.9622
50.2346
67.5777
86.9154
91.7076
64.483
21.5333
16.2604
6.96898
3.78983
4.40497
5.30271
6.49561
8.31529
10.3026
12.3528
14.3715
18.3011
21.6568
31.8791
32.7212
36.8068
37.7447
33.6242
31.3142
27.0241
24.5159
21.2983
18.872
16.0613
13.2563
11.3194
9.36437
8.03814
6.63531
5.93126
5.29055
6.31492
7.13739
4.71459
5.42745
5.97221
7.00769
8.66041
11.3949
15.1664
18.9621
21.9667
20.437
20.3339
20.2808
20.2929
18.552
16.9146
15.3412
14.2017
12.6588
10.5803
8.59439
6.04312
4.20498
2.97214
2.42506
2.17823
2.10283
2.09711
2.2175
3.86287
10.8758
6.32198
7.75831
9.01581
10.2841
11.6525
13.1639
15.3971
20.5609
17.2639
16.9614
12.3673
9.84983
7.19356
5.32341
4.28427
3.44719
2.84624
2.56323
2.30739
2.10009
1.99536
1.91996
1.86326
1.87511
1.89733
2.04284
2.12279
2.28022
3.59284
6.6527
15.1534
17.534
18.1656
18.0118
16.7879
14.1046
11.7246
10.4748
9.70415
9.28107
10.2115
16.0398
36.918
35.6083
36.0536
38.8655
42.8145
48.0034
52.2053
53.4528
50.5786
44.691
37.4334
30.3245
25.6366
23.619
23.5288
26.2834
33.3266
41.6234
46.6532
48.2077
46.3081
40.3029
34.5282
30.7969
32.9066
47.0317
68.108
70.3486
54.2118
39.8907
29.3923
74.8955
107.687
124.351
136.005
145.234
154.057
161.582
170.527
177.977
184.853
189.849
161.272
151.503
142.492
124.673
117.686
102.856
78.5069
50.929
32.5796
24.9325
21.6181
19.2509
18.1037
18.5371
21.9649
29.6117
35.3051
34.2689
27.7776
68.754
76.2319
90.7527
103.239
113.114
120.867
128.162
135.39
143.861
153.028
163.111
173.298
182.812
192.523
199.391
197.442
194.773
178.41
186.536
180.452
175.179
167.987
157.714
147.596
140.112
131.379
111.905
85.5805
63.4607
62.7683
74.35
79.8798
84.3406
88.695
93.556
99.3522
106.599
115.245
124.651
127.577
120.733
110.277
103.104
100.955
100.513
103.85
111.402
124.453
136.517
166.196
171.587
176.535
164.078
137.346
112.878
91.5519
70.0807
62.4624
58.2363
59.4795
98.1858
82.8293
88.225
96.2112
107.35
109.47
109.56
111.073
117.278
127.54
140.62
148.292
137.394
130.212
117.807
110.683
103.477
101.005
98.8092
95.9589
95.3742
87.7643
84.3426
85.574
86.4315
92.2572
97.4775
92.707
79.0361
88.8105
68.3122
60.3249
66.354
74.6586
79.5872
92.0413
110.6
112.402
100.379
95.6391
73.2778
68.4885
66.1919
69.3195
83.5799
97.6812
117.273
129.41
135.674
138.996
125.338
106.689
94.1601
91.0224
91.5249
94.8622
109.294
126.888
123.642
93.1679
61.1168
74.2655
88.3302
97.156
110.288
120.011
98.879
86.2798
95.2268
112.307
129.218
142.202
149.839
154.411
156.487
155.938
145.681
125.9
112.831
103.479
107.11
104.989
117.114
114.971
89.9001
69.3526
65.5916
61.5622
51.825
42.7855
9.81094
9.33658
13.9256
22.5467
38.5085
55.7964
76.8846
83.091
91.478
101.302
129.149
150.328
159.204
165.984
166.843
164.558
157.339
153.727
148.894
144.328
135.699
122.859
103.128
76.9736
47.0912
19.4765
8.52471
5.29208
4.29456
8.34289
6.51854
5.17388
5.77148
6.95529
9.32809
13.5079
18.6003
25.1938
31.6644
38.129
44.5377
50.1578
53.4757
52.8818
52.8685
51.9661
45.6787
35.5205
32.7875
37.4407
42.5377
51.5693
60.278
79.1755
113.208
164.882
207.991
172.93
60.2725
21.2159
8.23828
4.58802
5.27578
6.41103
8.26503
10.8133
13.1043
15.8603
18.379
21.4218
25.4103
38.5823
43.8719
42.1669
42.4389
37.7077
35.4704
31.8474
28.7414
26.0486
23.1458
20.4954
18.0588
15.5797
13.4708
11.7138
9.52823
8.64477
7.4602
7.0847
7.99474
5.36661
5.89319
6.31523
7.5182
9.55015
14.0207
19.2825
22.7873
26.059
27.9371
29.1118
30.348
28.4395
28.5171
25.1833
24.6576
23.0669
21.6458
19.4517
16.2153
11.3998
7.18608
4.3145
3.18165
2.75265
2.48107
2.25535
2.29656
4.39434
14.0232
9.13096
11.0502
13.5152
14.2984
15.8761
15.4918
17.5951
19.379
17.5018
17.7313
12.5513
9.95922
7.03856
5.23566
4.24305
3.20405
2.78826
2.35092
2.13948
1.98273
1.89763
1.79405
1.74574
1.71439
1.70775
1.82883
2.04119
2.38672
4.24422
8.66693
17.5431
18.5894
17.603
17.7799
17.2861
15.3399
12.6659
11.2039
10.56
10.1738
10.3609
14.9037
47.5293
30.5265
36.6804
42.2972
48.4275
54.9655
56.5371
52.9193
45.938
38.3753
31.2995
25.615
21.9265
20.7611
21.646
25.7384
33.7216
42.1247
47.0619
47.057
43.7457
36.0464
29.3474
29.045
33.8186
50.1187
77.8962
76.4054
62.8161
49.7878
39.5374
88.2171
121.787
128.319
130.529
132.045
134.375
138.107
143.861
149.147
155.356
139.543
139.4
118.261
111.631
103.212
97.3679
89.5791
70.4731
47.2707
33.4738
27.1793
23.074
20.5843
21.1589
26.0499
35.4593
43.6697
46.3237
41.314
33.6184
75.8686
83.4059
98.1208
106.482
111.683
115.06
118.176
121.212
124.908
128.639
132.398
135.59
138.688
141.092
146.884
150.98
146.923
153.645
154.389
158.377
157.02
154.615
152.812
146.248
142.347
138.695
125.446
100.352
74.403
71.7768
80.0784
89.0731
92.8521
94.726
95.9401
98.3362
100.904
101.971
98.9972
92.6552
86.1723
83.7497
81.4775
79.6087
79.7456
81.5942
88.2401
104.027
125.357
139.708
166.075
160.528
161.452
143.501
111.249
94.1953
85.3147
77.01
77.7493
80.3333
112.986
91.6541
85.201
112.522
117.365
117.684
116.768
118.15
126.345
140.601
151.413
152.845
149.512
135.168
115.281
106.418
89.5034
84.0868
75.803
69.8147
67.9835
72.3745
75.5684
81.6924
90.0205
98.0813
99.0357
95.5432
85.4187
85.4684
78.4333
66.5002
74.5639
81.6833
91.3424
107.869
118.461
110.948
101.701
91.7883
66.5238
59.9702
61.7215
75.7688
92.9304
112.601
128.036
139.583
145.382
148.732
134.844
112.621
98.0502
92.0485
91.7758
96.1671
112.393
132.712
140.06
108.05
75.4512
83.5437
90.1389
100.466
123.069
134.638
112.752
107.095
115.596
128.062
138.475
146.726
150.101
149.475
152.544
152.235
138.955
125.565
115.585
113
109.158
115.703
116.282
118.703
103.077
78.5844
71.4198
73.4994
73.3164
54.6318
13.6991
14.3402
20.5394
30.6802
50.1466
71.1788
79.6208
91.9868
98.2224
113.087
135.558
144.215
152.267
155.947
157.728
156.428
157.928
157.541
161.705
162.207
159.062
148.2
130.271
105.85
75.4235
38.9257
16.489
8.87696
6.12247
9.035
7.29954
6.61417
7.45468
9.80512
13.6396
19.9548
27.3067
35.7146
43.796
51.8142
62.0752
71.5738
75.0493
72.3468
68.2668
66.5771
61.8572
46.1603
47.045
50.4209
59.4569
63.1553
73.8933
96.1661
146.677
241.145
286.716
286.429
140.945
18.5823
10.3813
6.21271
7.40051
9.56319
12.4645
16.2467
19.1704
22.9847
23.6184
30.5973
33.5948
45.8303
48.262
52.7566
54.0003
53.0638
52.3414
49.5877
46.532
43.4461
39.8066
36.1035
31.2974
27.4818
22.802
20.1118
17.4322
16.7269
13.9855
11.3577
9.16449
6.69434
7.3154
7.82233
8.99832
10.9039
14.7492
19.3973
24.4406
29.49
32.0524
35.6597
35.7275
38.5497
35.7128
39.2069
36.9842
37.6588
35.7801
31.3522
28.1323
21.0582
13.1134
6.91851
4.29558
3.67717
3.41624
2.95967
2.41473
5.20886
19.9355
13.6242
16.4173
18.2265
17.4726
17.6551
18.174
18.2398
21.327
17.9782
18.6369
12.9774
10.3299
6.96735
5.56521
4.03556
3.35199
2.76736
2.48798
2.21071
2.09687
2.00442
1.94302
1.86105
1.81597
1.75418
1.76821
1.82198
2.3624
4.83058
9.97773
16.897
16.0466
15.4285
16.6129
17.6332
16.5705
14.2383
12.2129
11.3049
10.9767
11.1481
13.6522
45.0176
34.8265
41.0662
46.2586
51.705
55.3954
54.1126
47.6568
40.3475
32.4354
26.6341
22.6565
21.2324
21.983
25.7488
32.539
40.8991
46.76
47.01
44.1388
36.2509
28.9811
28.0722
31.1955
43.1795
65.1946
90.4282
89.4045
77.7699
64.0601
51.8429
104.934
123.56
122
120.159
117.174
117.158
116.962
118.9
119.453
118.951
106.572
88.1343
71.7922
63.8256
67.5231
75.7948
73.7009
59.6765
42.8951
32.8137
26.2979
22.0757
22.9781
34.2467
51.8571
64.3993
65.0099
57.4159
47.9321
39.3682
90.2522
90.7016
106.895
116.342
120.646
122.349
123.572
123.919
124.916
125.439
124.571
121.013
114.731
107.279
102.231
103.388
114.242
121.305
130.523
138.87
140.567
144.446
142.267
139.247
139.213
139.074
131.457
110.251
85.3105
77.3123
90.429
99.9926
102.783
101.867
97.8825
92.9646
88.4578
81.8953
78.0451
76.5539
74.7675
72.9524
71.1274
69.161
66.4618
65.5916
70.9029
84.8129
111.836
132.208
139.625
157.554
145.955
141.238
125.792
100.252
93.6292
101.185
97.0598
102.865
125.781
92.4249
97.4884
121.858
124.251
121.241
118.981
121.606
132.694
148.109
153.489
163.57
152.953
146.205
111.781
107.893
91.0123
79.4073
69.3089
57.1537
56.7477
61.4251
75.5558
84.8159
99.2554
100.258
103.695
95.072
82.2778
80.3813
90.7727
75.5214
82.1266
93.3728
109.37
124.116
123.123
112.744
100.843
82.2133
58.8358
54.3632
58.3325
71.5755
89.0654
110.077
134.492
141.023
148.074
158.171
154.134
134.028
115.763
103.543
100.354
105.187
119.964
140.461
156.949
127.105
93.9881
87.2075
93.3079
109.359
135.057
151.763
129.57
128.17
137.957
142.229
144.365
143.899
141.851
136.982
136.123
120.707
131.373
120.959
120.605
114.675
120.333
118.145
115.849
124.061
109.284
81.0239
70.8862
79.2672
90.9395
68.9419
21.1508
21.8472
28.8442
38.4352
60.8102
79.5369
84.4662
97.2213
112.236
121.998
126.669
136.093
135.001
136.473
138.087
142.053
144.594
154.232
163.014
169.811
169.212
161.619
145.724
124.292
97.3009
62.5566
27.4533
13.7568
9.11348
10.4605
9.01631
9.3479
10.7691
14.0061
19.6088
28.3216
37.9158
46.8995
54.6542
62.2091
73.5514
88.7106
95.5783
90.7296
84.4175
82.7263
73.0868
65.4247
62.5628
64.5344
61.4966
68.3816
78.5368
109.687
167.528
261.631
298.254
317.413
262.845
48.44
13.2839
9.04565
10.0033
12.6369
16.5058
21.1843
23.9751
29.5606
30.4531
36.4835
44.6688
50.8496
62.1929
68.1547
70.6613
74.2558
73.3603
73.1965
69.029
66.0108
59.9854
55.546
48.5341
42.6578
37.1557
33.3106
32.1332
33.0037
29.685
22.8125
11.0124
9.54921
9.97208
10.4451
10.8542
11.8761
14.275
18.8344
24.5769
29.41
33.4647
36.7118
40.6178
41.9066
49.4
46.0809
50.3372
49.5477
47.7231
48.7639
41.8036
33.6876
23.0206
11.3476
6.14832
4.82934
4.65077
4.15157
3.18451
6.17443
26.6669
20.5253
21.54
21.5795
18.7044
19.497
20.0605
20.7978
23.0453
20.5869
20.6129
14.6875
10.7092
7.26531
5.30908
4.10191
3.21147
2.72134
2.43907
2.20626
2.09133
2.01936
1.96562
1.95852
1.91083
1.92931
1.8547
1.84665
2.41158
4.87345
10.7723
15.9237
15.0586
15.1744
18.3181
20.3962
19.5515
17.656
15.6118
13.9379
12.4584
12.0645
14.1186
40.3536
44.3265
45.4348
47.5789
50.7807
52.6201
52.2969
49.6885
45.328
40.491
35.7625
33.0518
32.6555
35.6501
40.6658
46.4054
49.1381
47.423
42.0407
34.3123
30.3738
30.3867
38.5665
53.1296
75.7995
98.6189
97.8043
98.2919
93.8772
79.5494
66.4607
123.669
118.801
116.589
115.134
116.118
113.864
111.179
108.393
97.1994
94.9722
82.8299
60.6858
45.3358
46.8131
53.5647
63.8628
63.1688
48.9245
38.8486
29.3572
23.5381
23.1155
41.5954
68.875
77.0036
70.3562
64.4685
57.3459
49.7987
48.7795
107.746
101.774
125.073
137.176
140.873
141.288
140.052
138.625
137.897
137.367
134.793
129.745
120.265
108.346
97.5439
93.1992
99.204
110.747
120.839
127.25
130.046
130.344
130.163
130.863
133.412
135.708
131.587
115.704
94.1154
82.158
109.281
110.516
110.216
106.736
97.6987
89.442
80.695
76.8165
75.2289
74.2988
72.6546
71.0125
68.489
64.2416
60.6941
58.0553
63.8798
80.1196
103.589
129.471
138.671
144.172
146.124
139.871
126.825
115.054
111.189
110.903
111.636
116.116
136.033
102.921
119.997
128.962
126.58
120.831
116.991
121.159
131.314
141.591
149.563
161.275
165.631
150.95
126.777
109.414
96.368
95.904
77.3207
75.5998
77.9629
80.5621
89.1831
98.9127
103.602
103.497
99.9892
92.7916
90.2706
83.955
95.8706
83.2938
93.0725
97.3305
123.097
129.621
113.859
102.463
87.5759
71.3417
61.3731
53.0837
55.1553
65.197
84.2044
99.093
117.267
134.536
147.384
164.997
172.464
164.634
152.133
138.168
129.133
126.641
134.676
151.724
177.736
147.587
111.206
89.5646
101.102
106.236
132.893
168.274
147.222
144.745
153.002
155.196
147.495
138.622
127.796
118.543
113.825
102.168
108.701
115.89
116.772
119.856
121.817
119.456
115.989
118.997
112.005
91.9888
65.588
78.0417
97.5207
86.646
34.8064
34.2905
36.6683
51.1388
59.8622
87.218
87.0143
100.138
110.994
119.356
121.769
121.579
117.528
115.669
115.94
117.305
126.466
138.973
155.994
167.496
172.829
167.539
153.439
133.172
111.164
87.3438
50.0517
20.1571
12.5026
12.8535
13.0639
12.6297
15.0056
19.6964
27.0246
36.6148
46.3983
53.5395
60.2148
65.8197
76.5136
93.464
105.387
103.731
95.535
96.4965
95.1184
76.0288
72.4448
66.2813
66.6717
61.0155
71.5663
93.1722
133.424
237.246
289.722
328.123
340.347
141.742
20.1865
15.8238
16.2414
19.5294
25.24
32.0721
36.2536
39.3751
38.5823
45.4946
46.6742
60.4413
69.6792
78.9198
85.8409
89.6848
90.0373
91.1882
86.703
84.2729
78.3516
74.2615
66.8841
59.6319
55.3358
53.0134
54.2582
58.5417
50.5985
42.9597
18.3985
17.5307
15.115
14.2524
14.0371
13.1945
14.1134
18.2349
23.1364
27.5266
32.8107
35.9343
40.5719
43.8557
44.4744
51.9375
51.6865
55.7354
61.2925
61.432
60.0056
48.0462
34.9286
18.468
8.74934
6.67675
6.24333
5.92564
4.44215
8.71124
37.2058
28.3387
27.3253
21.4349
20.6309
20.82
22.6719
23.6199
28.2141
26.9628
24.0444
17.9373
13.3835
8.18581
5.49781
3.89971
3.07003
2.5255
2.28152
2.09603
1.99535
1.96404
1.95152
1.96167
2.01144
2.05789
2.02125
2.0234
2.38833
5.23199
11.518
15.8141
15.0397
17.0136
23.0361
25.421
24.0325
22.8376
21.3886
19.8655
16.7787
14.3292
16.4979
41.272
56.3669
46.7636
47.5568
50.5513
53.1643
54.8713
55.4973
55.3859
54.4317
54.4803
54.3562
54.4275
54.3055
53.7868
50.2029
44.883
39.2451
34.8899
35.5326
45.6205
61.1781
86.0206
93.481
88.4564
92.1545
95.8527
102.872
103.402
91.6253
84.4578
144.498
115.329
118.654
126.324
126.304
122.986
107.129
96.0801
92.2468
89.5868
73.2484
50.2958
42.0588
44.2088
54.7576
59.169
53.2552
43.1239
32.9983
25.4353
23.7631
41.0484
76.788
76.5392
68.7251
72.2438
73.9361
62.6914
54.8434
57.0412
130.479
121.665
151.532
165.167
168.881
167.989
165.111
163.085
162.693
162.452
160.759
156.318
148.63
138.366
128.518
121.168
117.027
116.27
116.666
118.095
119.548
120.921
122.035
123.762
127.072
130.375
128.895
119.154
100.84
90.2612
135.828
115.303
113.228
106.272
97.5436
87.9083
82.791
83.505
83.2833
83.1852
78.4308
74.4312
67.4465
61.4958
56.874
55.8731
66.0777
84.6961
118.405
133.059
140.257
141.251
140.459
132.208
126.21
120.608
120.295
121.078
119.019
128.036
148.643
122.221
132.515
132.497
125.944
117.427
113.261
118.277
128.154
136.596
144.99
157.359
164.952
165.014
138.199
126.455
104.293
114.129
114.95
110.941
127.796
119.443
117.344
117.526
110.932
105.818
97.7849
94.7853
102.14
94.2952
100.026
82.721
84.5464
104.15
114.143
113.36
106.984
98.7534
88.2068
74.5229
68.9048
57.4702
51.8149
59.267
72.3316
83.5296
100.594
120.607
141.222
164.473
183.205
191.874
184.518
174.218
160.571
152.532
153.607
171.022
205.137
182.547
132.584
103.695
112.763
121.041
141.168
184.964
163.413
151.988
159.664
159.193
143.823
132.417
114.938
95.9192
91.4257
87.4048
95.7007
103.449
110.302
115.923
118.004
117.624
115.788
112.697
116.574
95.7741
65.8427
65.3497
81.6099
89.4021
62.5488
49.6834
49.5256
53.4382
70.4563
78.8756
88.068
101.847
108.802
111.609
112.396
106.755
100.665
94.5864
91.2083
94.5957
106.081
123.104
145.272
163.18
171.579
168.857
155.475
135.896
117.527
111.474
81.5047
35.2178
18.8337
19.1773
41.1468
19.9303
21.1534
27.0877
35.5206
45.5813
54.8161
60.1029
63.9959
67.2818
74.9169
89.5162
103.27
108.344
104.257
105.731
105.166
97.1813
83.6926
75.675
63.7144
56.5915
63.1986
77.9688
112.528
152.306
253.65
294.412
353.733
283.195
48.5003
43.7119
32.2075
30.2859
33.0604
39.4677
43.7723
45.6181
44.0933
48.174
52.0803
62.4286
77.4902
90.1697
95.9482
100.517
98.1008
98.3505
93.55
90.961
85.1918
79.5767
73.7393
72.2413
73.0803
79.6052
75.1898
86.6915
65.5044
79.2224
46.0313
43.4267
27.7133
22.029
19.7003
17.4091
14.7346
17.9866
22.0965
26.6427
29.728
35.1626
36.0785
40.4678
39.8376
41.7331
51.3255
67.3416
69.5972
80.3718
74.5567
66.5986
47.6636
27.1385
12.9459
8.81795
8.53713
8.43487
7.29544
13.5014
57.102
37.023
29.2024
23.6691
22.947
23.7355
26.193
31.2867
37.8997
35.0749
32.9594
24.3895
18.0965
10.7848
7.12577
4.41575
3.15153
2.49091
2.17805
1.98927
1.88231
1.85607
1.85364
1.91119
2.02331
2.09628
2.29785
2.39417
2.93013
6.80656
12.1212
16.1192
15.9262
20.6414
27.8655
29.6356
28.8039
30.7581
32.6816
30.1343
23.164
19.8242
25.5611
42.6034
51.6072
52.7835
48.7031
47.2731
50.5317
55.8008
59.6424
61.3711
62.1955
61.9172
61.1081
58.4267
56.2788
53.7031
50.8025
47.2163
43.866
42.2188
43.9583
54.8594
76.6415
103.812
101.282
97.0829
87.9765
88.264
96.2507
104.631
113.664
110.826
103.484
105.655
127.381
134.597
113.661
122.228
136.175
143.586
142.372
117.602
111.21
104.55
97.5403
94.0489
72.8401
52.1386
48.7598
53.02
55.8364
55.8529
47.6937
37.1018
29.2335
27.2297
41.3471
76.0198
86.9056
76.6866
98.3753
123.18
141.176
142.829
135.763
135.62
208.549
252.67
209.865
200.659
200.742
202.219
200.782
197.373
193.89
192.57
193.743
194.891
195.54
191.587
185.724
177.403
167.806
157.84
148.921
140.959
134.378
128.734
125.165
123.058
121.576
122.844
125.072
128.681
130.741
125.652
121.69
126.349
163.181
168.223
120.803
117.23
110.697
106.033
97.5068
94.0136
94.7002
98.6825
99.4787
96.1959
86.2851
76.3557
67.6149
59.9534
57.0399
60.5534
78.0886
106.345
140.851
147.295
150.395
146.992
145.794
138.537
134.25
132.494
131.913
128.603
121.237
114.852
162.62
173.261
158.848
141.305
138.585
133.703
123.778
113.894
108.635
105.787
122.546
125.593
135.159
150.014
159.126
167.336
158.055
141.991
129.328
137.561
164.809
161.597
157.491
152.69
148.614
136.699
123.5
113.611
115.853
120.402
108.083
86.8838
97.0478
89.8413
86.3273
76.614
91.6544
103.506
109.054
106.505
100.163
91.4147
84.5843
83.803
75.3231
64.5286
55.1327
53.9159
61.5115
71.3698
82.3252
106.036
128.584
157.515
180.592
201.769
196.652
184.935
173.307
161.409
161.316
175.114
210.599
223.283
211.867
187.43
128.163
116.333
128.527
136.804
148.234
179.842
176.116
152.127
157.549
156.539
145.21
128.238
110.374
95.1633
90.151
88.9158
93.2024
97.5645
103.541
111.131
113.784
118.022
113.107
110.479
111.973
104.033
82.0595
56.6289
71.0181
96.5325
61.0318
92.5208
74.6595
73.1574
60.9792
65.2913
67.7966
84.7673
80.8441
92.2886
104.75
107.64
103.831
99.098
88.6614
81.3543
74.187
76.9289
88.4478
109.37
135.076
156.34
167.613
165.774
153.635
134.286
116.519
114.576
98.6742
56.4223
29.8898
41.5535
35.9679
55.6857
110.606
56.1691
34.652
37.8199
47.1755
57.4482
65.1886
68.0387
68.7889
70.9679
75.289
83.4689
99.133
107.556
110.067
112.662
116.044
117.701
102.47
90.2938
74.5125
63.6267
62.2973
73.0159
90.7184
116.73
164.1
245.269
263.73
253.717
169.48
153.216
146.481
87.1441
60.0482
49.8675
48.0801
52.7018
58.9848
60.7314
54.8233
52.1202
56.1387
69.769
84.3688
98.6454
104.416
107.095
103.542
100.88
95.7837
88.7108
82.1772
79.549
84.0173
94.4564
102.533
115.533
103.063
77.732
79.3252
94.4456
60.4377
94.5855
127.765
71.1001
40.8491
33.4763
29.333
25.6382
22.1963
19.7658
24.007
27.4311
35.1859
39.04
50.3417
47.7545
45.6009
42.1798
54.2958
68.395
89.522
88.0566
92.6995
77.833
62.826
36.826
18.6292
11.7432
12.0156
14.6439
15.0942
23.6532
31.6816
61.1608
213.917
48.2767
31.5979
27.0034
26.0826
25.8987
31.0346
37.9014
42.1534
43.1115
40.7112
30.3181
23.0444
16.8932
10.583
6.52485
4.03651
2.72801
2.19339
1.95088
1.82456
1.77346
1.76204
1.81856
1.92216
2.02899
2.27161
3.09913
4.71471
7.84051
3.77652
2.19719
12.6466
16.8225
17.8761
25.0736
30.913
31.5623
32.6564
35.7564
38.2435
35.3354
29.6027
28.119
35.0528
43.535
40.636
42.1172
49.083
51.9226
61.4923
73.4692
82.3994
85.9522
86.1719
81.7809
75.5019
69.5084
63.2999
59.5036
56.7249
56.6607
60.878
71.8887
93.297
121.957
123.68
117.895
101.571
107.912
99.3487
111.496
119.514
125.331
126.472
119.787
111.179
106.553
105.895
112.222
126.813
143.3
157.077
149.454
132.846
135.444
129.702
121.153
119.33
103.627
79.7463
63.6119
60.5021
62.5697
60.3088
51.3082
42.1733
36.0186
36.3301
52.764
83.2662
108.469
89.0608
96.3379
124.748
154.506
176.779
194.436
204.756
215.619
240.884
280.718
255.758
241.106
238.721
233.76
230.271
225.681
221.962
221.381
222.047
223.367
223.209
221.941
218.395
212.631
205.049
195.266
183.384
171.63
160.843
150.696
143.145
138.097
135.262
135.004
137.442
141.448
141.881
137.93
129.67
129.434
121.464
109.032
114.447
119.317
117.526
109.163
104.393
105.833
111.439
116.065
113.71
104.828
92.2591
78.4164
67.9145
63.3935
63.2346
72.5796
98.1646
142.129
160.584
165.664
167.098
162.742
161.102
154.921
151.715
150.097
145.704
134.642
116.462
105.94
117.775
149.131
164.755
147.017
141.511
132.604
121.764
104.57
83.618
84.5238
102.927
121.13
121.124
131.663
156.291
163.67
173.662
182.525
163.898
183.419
190.524
190.757
177.763
173.301
165.077
160.745
156.579
157.277
149.795
130.29
91.0836
67.4633
64.944
75.4828
88.3604
90.6395
102.038
106.63
110.278
104.364
97.6496
90.819
84.6828
80.8152
85.2094
80.7681
68.8147
53.7448
53.9685
61.0373
69.5203
86.7081
109.745
136.782
163.675
174.301
179.829
175.446
170.514
164.047
163.384
173.829
196.393
225.967
163.979
143.402
142.158
139.11
145.312
146.967
158.194
177.342
183.331
151.303
150.035
149.986
140.257
128.517
113.762
105.053
103.088
108.03
111.182
106.164
105.306
109.467
116.97
115.818
114.172
107.146
103.061
111.046
86.1174
60.6458
61.1856
73.1394
52.1711
54.9995
69.094
64.9369
70.3566
69.2603
76.5799
79.9921
78.7522
86.9216
101.386
102.147
101.376
94.6486
87.5156
78.6333
73.2041
73.5992
84.5703
104.622
127.987
149.36
160.9
159.998
147.757
129.91
111.596
105.949
97.1211
69.6918
54.8793
46.0233
60.8172
90.0223
102.706
58.3556
47.9168
52.6333
63.9548
76.4913
84.6289
85.0707
76.723
75.9545
77.2121
85.2443
91.0809
103.104
113.721
119.842
123.219
126.534
126.536
121.445
111.575
88.1105
88.4153
81.8807
85.9575
90.8308
104.801
125.541
167.379