/*--------------------------------*- C++ -*----------------------------------*\
| =========                 |                                                 |
| \\      /  F ield         | OpenFOAM: The Open Source CFD Toolbox           |
|  \\    /   O peration     | Version:  2.1.1                                 |
|   \\  /    A nd           | Web:      www.OpenFOAM.org                      |
|    \\/     M anipulation  |                                                 |
\*---------------------------------------------------------------------------*/
FoamFile
{
    version     2.0;
    format      ascii;
    class       volScalarField;
    location    "0.004000000";
    object      O;
}
// * * * * * * * * * * * * * * * * * * * * * * * * * * * * * * * * * * * * * //

dimensions      [0 0 0 0 0 0 0];

internalField   nonuniform List<scalar> 
12384
(
0.00164059
0.00115542
0.000903023
0.000825188
0.000858544
0.000863494
0.00101452
0.00114703
0.00162753
0.00256794
0.00240079
0.000944803
0.000267549
0.000216848
0.000135859
0.000348363
0.000587244
0.00071284
0.000789754
0.000805042
0.000862877
0.000832235
0.000868122
0.000846635
0.000866297
0.00084579
0.000861987
0.000836263
0.000862891
0.000858371
0.000853667
0.000767408
0.000615159
0.000409937
0.000341447
0.000338444
0.000340093
0.000254519
0.00018283
9.00105e-05
6.31508e-05
8.63649e-05
0.000206363
0.00026645
0.000214641
0.000205899
0.000195094
0.000184969
0.000177872
0.000175613
0.00017694
0.000171987
0.000169006
0.000165233
0.000164092
0.000161459
0.000158173
0.000155208
0.000150856
0.000146275
0.000140403
0.00013965
0.000128782
0.000141766
0.000198349
0.000382618
0.000413575
0.000405642
0.000323453
0.000339713
0.000334757
0.000356371
0.000397983
0.000238084
8.19132e-05
6.21257e-05
7.90755e-05
9.71138e-05
0.000107921
0.000108258
0.000106611
9.92005e-05
9.43858e-05
9.12476e-05
8.45218e-05
7.33153e-05
7.41548e-05
6.81699e-05
7.33621e-05
6.71565e-05
6.48532e-05
6.67608e-05
5.74698e-05
5.65621e-05
5.91219e-05
6.36087e-05
6.6591e-05
8.59131e-05
0.000175053
0.000184425
0.000194199
0.000199692
0.000200632
0.000203981
0.000121562
0.00010472
9.38563e-05
8.50104e-05
7.98667e-05
6.98055e-05
6.66282e-05
5.8998e-05
5.26162e-05
5.00804e-05
4.58264e-05
3.81787e-05
4.48147e-05
4.91191e-05
4.12737e-05
4.59764e-05
3.99309e-05
4.10466e-05
3.60041e-05
5.54876e-05
4.93353e-05
8.57272e-05
0.000100341
0.00016167
0.000246887
0.000374146
0.000340093
0.000342003
0.000336209
0.000317971
0.000126227
0.000183126
1.47585e-05
5.18996e-06
5.80103e-06
7.82976e-06
8.75272e-06
1.51794e-05
2.06033e-05
2.90395e-05
4.14474e-05
6.48354e-05
7.04017e-05
7.89707e-05
8.89883e-05
6.71695e-05
8.01509e-05
5.67318e-05
6.54421e-05
5.32751e-05
4.64077e-05
4.15521e-05
5.37035e-05
3.55939e-05
2.94265e-05
2.76343e-05
1.76163e-05
1.85539e-05
0.00021618
0.000160002
0.000128878
0.000174601
0.000111665
5.57931e-05
0.000194672
0.000172521
0.00019027
5.40232e-05
1.02251e-05
6.81254e-06
4.30653e-06
5.2078e-06
5.50748e-06
5.19484e-06
3.72801e-06
6.05103e-06
7.54389e-06
1.02339e-05
1.36472e-05
2.02334e-05
2.20152e-05
2.45155e-05
2.09141e-05
2.82021e-05
2.21407e-05
2.08294e-05
9.8091e-06
1.69503e-05
0.00015008
2.53917e-05
0.000170921
0.000178229
0.00019325
0.000145333
0.000165128
1.93618e-05
1.39757e-06
1.65055e-06
1.95561e-06
1.31843e-06
1.38272e-06
1.45718e-06
1.50536e-06
1.45179e-06
1.85146e-06
2.19503e-06
2.77261e-06
3.85959e-06
5.06771e-06
8.3538e-06
1.11157e-05
1.49213e-05
1.41011e-05
1.84415e-05
1.62212e-05
1.8788e-05
2.06221e-05
1.82949e-05
1.55606e-05
6.58796e-06
0.000200362
0.000167871
0.000187609
0.000309191
2.86143e-06
1.7667e-07
1.81448e-07
1.29107e-07
7.00524e-08
4.83879e-08
2.97362e-08
2.94357e-08
2.40311e-08
2.18681e-08
2.0811e-08
1.96841e-08
1.98827e-08
2.12257e-08
2.45287e-08
3.1174e-08
4.13341e-08
7.90597e-08
1.98204e-07
1.55199e-06
2.38785e-05
0.000141428
5.19554e-05
2.55929e-05
3.46794e-05
7.40264e-05
4.25858e-05
4.34143e-05
5.97131e-05
9.97124e-05
0.000115929
8.29435e-05
4.4966e-05
7.44953e-05
7.95974e-05
1.48681e-05
1.24184e-05
1.07994e-05
6.38628e-06
9.06325e-06
7.50507e-06
5.07784e-06
9.25635e-06
1.04976e-05
1.71475e-05
2.1348e-05
2.74434e-05
6.31913e-05
8.55371e-05
0.000107028
0.000134561
0.000160812
0.000160626
0.000117503
0.000141487
0.000133854
4.45221e-05
0.000115933
0.000104277
9.78055e-05
0.000289211
0.000128973
1.30811e-05
8.67591e-06
8.80975e-06
1.19072e-05
1.02473e-05
1.02186e-05
1.24986e-05
2.54416e-05
2.7689e-05
3.39186e-05
3.71477e-05
4.09826e-05
4.61377e-05
5.61777e-05
4.76425e-05
1.96038e-05
6.51296e-05
6.90584e-05
9.81472e-05
0.00011809
0.000109649
0.000110965
0.000144814
0.000222858
2.00365e-05
4.63206e-05
0.000203111
3.01277e-05
1.12218e-05
6.63061e-06
5.63521e-06
2.05617e-06
3.78872e-06
2.82202e-06
3.64985e-06
3.78963e-06
4.1469e-06
4.27291e-06
4.04131e-06
3.44876e-06
3.02135e-06
2.77756e-06
2.6675e-06
3.29509e-06
5.23769e-06
2.88363e-05
0.000185401
8.46754e-05
4.61952e-05
2.47352e-05
1.96439e-05
1.86088e-05
2.51808e-05
4.55063e-05
6.55632e-06
1.27551e-05
2.46284e-05
2.67895e-05
2.50902e-05
2.6422e-05
2.94653e-05
2.97641e-05
3.77863e-05
3.98422e-05
4.29001e-05
4.69329e-05
6.16458e-05
6.91676e-05
9.67122e-05
7.9825e-05
9.23341e-05
7.67393e-05
8.18947e-05
8.73581e-05
9.39507e-05
9.31413e-05
8.55096e-05
6.73533e-05
4.53317e-05
2.27882e-05
2.06069e-05
2.00041e-05
2.75786e-05
4.42735e-05
0.000228531
0.000264422
0.000381935
0.000632106
0.000861992
0.00100129
0.00101203
0.000748156
0.000648589
0.000945632
0.00210747
0.00189529
0.000418748
0.000222342
0.000196143
0.000681391
0.000832678
0.000827122
0.000858641
0.000817116
0.000840828
0.000795857
0.000798139
0.000738251
0.000725904
0.000704354
0.000707586
0.00072145
0.000761022
0.000827559
0.000858276
0.000839599
0.000728812
0.00057238
0.000394987
0.000310823
0.000345784
0.00034641
0.00027052
0.000175434
8.84424e-05
7.6153e-05
0.000165607
0.000265994
0.000185394
0.000190327
0.000194338
0.000197005
0.000196744
0.000195594
0.000193304
0.000189011
0.000186252
0.000179637
0.000170586
0.000165185
0.000158244
0.000152926
0.000147654
0.000144878
0.000140262
0.000136625
0.000135124
0.000129067
0.000150086
0.000220442
0.000366587
0.000484672
0.000470778
0.000394356
0.000391397
0.000342855
0.000431997
0.000239612
4.77479e-05
0.000118862
0.000180168
0.000186977
0.000183251
0.000185672
0.000189685
0.000191681
0.000189703
0.000191626
0.000192747
0.000193759
0.00019381
0.000189682
0.000171087
0.000153259
0.000132708
0.000115029
9.67508e-05
8.29562e-05
7.44645e-05
7.46864e-05
7.4935e-05
7.87304e-05
0.000118248
0.000168609
0.000162817
0.000155356
0.000169065
0.000191081
5.46457e-05
5.37846e-05
7.11222e-05
6.94253e-05
6.64319e-05
6.43067e-05
5.87871e-05
5.89703e-05
5.21531e-05
5.27311e-05
5.0735e-05
5.18268e-05
5.28738e-05
5.43387e-05
5.44397e-05
4.95441e-05
5.05144e-05
4.74578e-05
4.7271e-05
4.98078e-05
5.05883e-05
5.76125e-05
7.75581e-05
0.000132386
0.000199438
0.000335182
0.000371404
0.00036254
0.000336499
0.000338145
0.000145511
8.50744e-05
8.72811e-06
6.16321e-06
9.51599e-06
2.03683e-05
4.85621e-05
0.00010903
0.000184045
0.00019452
0.000209995
0.000199595
0.000173568
0.000128049
8.37393e-05
3.88605e-05
3.36127e-05
2.96504e-05
2.14439e-05
1.85621e-05
1.4965e-05
1.65365e-05
2.46112e-05
3.01148e-05
3.07341e-05
2.72225e-05
2.17746e-05
1.43289e-05
5.31183e-05
0.000215239
2.25605e-05
0.00010591
7.24972e-05
8.12093e-05
0.00019346
0.000181249
2.2829e-05
3.50747e-06
1.5223e-06
1.27888e-06
1.30686e-06
1.49721e-06
3.5343e-06
7.5392e-06
2.42318e-05
8.92083e-05
0.000170056
0.000175933
0.000163813
0.000151925
0.000139207
0.000141745
0.00015754
0.00019629
0.00019057
0.000121609
3.90724e-05
1.71185e-05
0.000131618
3.66629e-05
0.000152174
0.000185701
0.000157937
0.00018137
2.65635e-05
2.83973e-06
1.62855e-06
1.81234e-06
1.60524e-06
1.1208e-06
1.4132e-06
1.61654e-06
1.7465e-06
2.05329e-06
2.14355e-06
2.3738e-06
3.08184e-06
3.794e-06
5.84674e-06
9.76206e-06
1.56353e-05
2.72808e-05
3.49991e-05
3.00137e-05
2.20545e-05
2.19214e-05
2.85126e-05
3.93322e-05
2.60031e-05
7.34211e-06
0.000176666
0.000155565
0.000301424
7.06233e-06
4.52468e-07
1.71733e-07
1.2509e-07
1.20319e-07
9.48371e-08
4.65408e-08
3.74496e-08
3.4732e-08
2.96103e-08
3.04216e-08
2.70893e-08
2.45045e-08
2.19972e-08
2.00815e-08
2.02769e-08
2.13546e-08
2.29768e-08
2.11223e-08
1.59557e-08
1.60535e-08
4.30724e-08
2.23491e-07
1.06388e-05
0.000150692
3.68544e-05
4.1153e-05
4.15089e-05
5.11218e-05
7.98019e-05
8.49259e-05
5.96559e-05
3.51459e-05
4.7495e-05
0.000256472
2.39982e-05
1.1776e-05
8.53237e-06
9.43553e-06
7.82019e-06
6.76865e-06
7.07824e-06
6.26326e-06
9.0474e-06
9.71905e-06
1.49624e-05
1.82532e-05
2.23634e-05
3.07806e-05
3.8838e-05
5.13798e-05
7.51013e-05
0.000134247
0.000174037
0.000140501
0.000110911
0.000122423
5.88902e-05
0.000125473
9.09593e-05
0.000153901
0.000292908
7.6297e-05
1.93979e-05
1.59771e-05
5.71449e-06
6.24284e-06
5.3645e-06
3.87747e-06
6.52746e-06
7.4234e-06
8.42182e-06
9.34258e-06
1.10382e-05
1.41573e-05
2.05461e-05
3.11249e-05
1.35318e-05
0.000102328
0.000170532
0.000185858
0.000168515
0.000171941
0.000176271
0.000178952
0.000166886
0.000215886
3.09985e-05
0.000124639
0.000212198
1.76929e-05
1.16479e-05
9.08242e-06
1.02219e-05
5.023e-06
4.82942e-06
4.94854e-06
7.67215e-06
8.21981e-06
7.71077e-06
7.11056e-06
5.77072e-06
3.9378e-06
2.46665e-06
1.66793e-06
9.10145e-07
5.37696e-07
3.59547e-07
2.12804e-07
2.98293e-07
4.71796e-07
2.80259e-06
9.56331e-05
0.000117708
2.81325e-05
1.15149e-05
2.01327e-05
7.44937e-06
1.64807e-05
2.85361e-05
2.86979e-05
3.32883e-05
4.39698e-05
8.30711e-05
0.00016483
0.0003169
0.000139118
2.30371e-05
5.14847e-06
2.39678e-06
1.3825e-06
1.31461e-06
1.32654e-06
1.80805e-06
2.19437e-06
2.45216e-06
2.90218e-06
3.25342e-06
4.03186e-06
4.97014e-06
1.1073e-05
5.41218e-05
0.000190144
8.32999e-05
2.59988e-05
2.31885e-05
2.93512e-05
0.00029417
0.000384774
0.000583809
0.00087034
0.00120372
0.00137322
0.001395
0.0013848
0.00102069
0.000558652
0.000911781
0.0020395
0.000813662
0.000222884
0.00063415
0.000783624
0.000557392
0.000474391
0.00051857
0.000515872
0.000621021
0.000616323
0.000651629
0.000609245
0.000619509
0.000568722
0.000561007
0.000549313
0.000623265
0.000721945
0.000849819
0.00086919
0.00081828
0.000700179
0.000480375
0.000357016
0.000321523
0.000390213
0.000368768
0.00028938
0.000127576
7.4887e-05
0.000138166
0.00026288
0.000204803
0.000205603
0.000194648
0.000191751
0.000195299
0.000199562
0.000203313
0.000200833
0.000198083
0.000192593
0.000185384
0.000174803
0.000164459
0.000156443
0.000147565
0.000141847
0.000137473
0.000134124
0.00013043
0.000128188
0.000126495
0.000158729
0.000226147
0.000401149
0.000556322
0.00055983
0.00045946
0.000394824
0.000431228
0.000268681
0.000119669
0.000182675
0.00019341
0.000190131
0.000172766
0.000158878
0.000146782
0.000175258
0.000182178
0.000190883
0.000195
0.000195414
0.000193828
0.000192812
0.00019698
0.000202748
0.000202555
0.000192154
0.000175278
0.0001352
0.000112106
0.000102005
9.60834e-05
8.85488e-05
9.92868e-05
0.000130612
0.000147901
0.000153238
0.000160339
0.000181736
5.43876e-05
6.66418e-05
6.55551e-05
5.96863e-05
6.20967e-05
6.65664e-05
7.39608e-05
7.16475e-05
6.93869e-05
6.82353e-05
6.3475e-05
6.0658e-05
6.35443e-05
6.07531e-05
6.33693e-05
6.35142e-05
6.16104e-05
6.06679e-05
5.39239e-05
5.61947e-05
5.37443e-05
6.22313e-05
6.29756e-05
0.000102907
0.000175261
0.000279081
0.000389807
0.000389275
0.000321588
0.000330848
0.000173631
2.61058e-05
6.95166e-06
8.23509e-06
2.07277e-05
4.59288e-05
0.000154755
0.000184349
0.000202289
0.000207901
0.000204271
0.000133407
5.39155e-05
4.34104e-05
2.04905e-05
2.44229e-05
1.72894e-05
1.97224e-05
1.56618e-05
1.62168e-05
1.42046e-05
1.36165e-05
1.49648e-05
1.66418e-05
1.9211e-05
2.16165e-05
1.9257e-05
1.50118e-05
2.10944e-05
9.48157e-05
4.00026e-06
3.15121e-05
5.08739e-05
9.86233e-05
0.000133213
1.80682e-05
2.19292e-06
9.6007e-07
8.68993e-07
1.30566e-06
2.48861e-06
7.15756e-06
3.08339e-05
0.000143282
0.000169972
0.000144115
0.000110471
9.55667e-05
8.33294e-05
7.70678e-05
7.39831e-05
9.11464e-05
9.6698e-05
0.000154201
0.000190906
0.000205559
8.94903e-05
2.07346e-05
6.42253e-05
4.44231e-05
0.000174185
0.000183285
0.000182287
2.15223e-05
3.01723e-06
1.96388e-06
1.73616e-06
1.6942e-06
2.05074e-06
1.50613e-06
2.0085e-06
2.49755e-06
2.95655e-06
3.31831e-06
3.69201e-06
3.69973e-06
5.11139e-06
5.68622e-06
5.81712e-06
8.4888e-06
1.75675e-05
4.44436e-05
8.03479e-05
5.18418e-05
1.48699e-05
7.92136e-06
8.27604e-06
2.6567e-05
3.06905e-05
8.0104e-06
0.000149235
0.000163071
0.00028124
1.81159e-06
2.48203e-07
1.32962e-07
1.30499e-07
1.42155e-07
1.18775e-07
1.05047e-07
1.0246e-07
1.06522e-07
1.03175e-07
9.80224e-08
9.04152e-08
7.90704e-08
6.86711e-08
5.96166e-08
5.61611e-08
6.71895e-08
9.2098e-08
1.33082e-07
1.4752e-07
6.93973e-08
1.8607e-08
1.47591e-08
8.91401e-08
2.2641e-06
0.000160452
2.63488e-05
4.20574e-05
6.15535e-05
7.66404e-05
4.58303e-05
2.1319e-05
2.85001e-05
0.000121108
0.000140379
1.94936e-05
9.49468e-06
1.15129e-05
1.12169e-05
1.06395e-05
1.08114e-05
1.59963e-05
1.2552e-05
2.28558e-05
2.17962e-05
2.4584e-05
2.34333e-05
1.98555e-05
9.98482e-06
2.24629e-05
2.4298e-05
2.72085e-05
3.83237e-05
0.000105706
9.33409e-05
8.77166e-05
6.76526e-05
6.93406e-05
0.000115052
8.38652e-05
0.000217452
0.000200614
6.95067e-05
1.65832e-05
1.60375e-05
8.66085e-06
1.07142e-05
8.04866e-06
7.08352e-06
8.07985e-06
4.52752e-06
5.54544e-06
5.29261e-06
5.78836e-06
7.88261e-06
1.04559e-05
9.52571e-06
8.14435e-05
0.000181919
0.000151921
0.000111197
0.000101895
9.27995e-05
0.00010227
0.000140989
0.00018203
0.000194929
4.25972e-05
0.000275664
3.74816e-05
1.40668e-05
1.5558e-05
1.63352e-05
1.92777e-05
9.40837e-06
9.55232e-06
6.37135e-06
8.36785e-06
8.11242e-06
7.2973e-06
6.60652e-06
5.2469e-06
3.59307e-06
2.79871e-06
1.80863e-06
1.2019e-06
8.39596e-07
5.28527e-07
2.54995e-07
1.60871e-07
8.04784e-08
8.7141e-08
2.46345e-07
3.21061e-06
0.000236158
2.81464e-05
7.23237e-06
8.82832e-06
2.23874e-05
3.38001e-05
3.85112e-05
6.42932e-05
0.00013008
0.000364841
3.31251e-05
3.60242e-06
8.46435e-07
3.39306e-07
1.68572e-07
1.62469e-07
1.05809e-07
1.11415e-07
1.34332e-07
1.30547e-07
1.57462e-07
1.71412e-07
1.9513e-07
2.17886e-07
2.5658e-07
4.13173e-07
7.27043e-07
1.52545e-06
3.4927e-06
2.26977e-05
0.000133192
2.98944e-05
1.84742e-05
0.000229974
0.00031175
0.000446891
0.000634879
0.000853304
0.00115591
0.00140821
0.00147287
0.00147779
0.000733045
0.000523788
0.00117782
0.00137553
0.000249673
0.000988444
0.000524652
0.000315529
0.000288828
0.000310832
0.00042816
0.000562491
0.000633809
0.000661593
0.000717635
0.000733695
0.000726258
0.000640708
0.000579262
0.000556385
0.000669961
0.000826669
0.000912998
0.000876499
0.000744442
0.000580873
0.000413117
0.000323131
0.000415135
0.000462744
0.000371945
0.000155541
6.96925e-05
0.000116175
0.000260581
0.000204335
0.000205726
0.00019162
0.000180658
0.000193161
0.000199667
0.000203372
0.00020194
0.000200075
0.000196387
0.00019027
0.000182451
0.000171707
0.000160298
0.000149186
0.000140565
0.000133904
0.000129978
0.000125543
0.000121704
0.000121968
0.000128953
0.000164115
0.000262359
0.000463759
0.0006563
0.000549567
0.000440248
0.000446052
0.000291643
0.000195793
0.000189994
0.000115178
2.78276e-05
1.60128e-05
1.47984e-05
2.02259e-05
2.79951e-05
5.45506e-05
9.20035e-05
0.000135336
0.000178313
0.000198912
0.000201781
0.000191359
0.000188032
0.000184519
0.000189768
0.000197287
0.000190167
0.000174904
0.000151424
0.000131034
0.000112642
0.000101479
0.000110288
0.00012984
0.000149803
0.000168451
0.000184115
9.14291e-05
5.39193e-05
6.02475e-05
8.55268e-05
0.0001238
0.000154528
0.000151048
0.000149137
0.000126524
0.000122003
0.000114472
0.000102555
9.63702e-05
8.2618e-05
7.90193e-05
7.70822e-05
7.42663e-05
7.16435e-05
6.45273e-05
6.42925e-05
6.32856e-05
6.56972e-05
7.20161e-05
0.000116642
0.00018443
0.000290085
0.000383626
0.000422568
0.000350776
0.000331272
0.000182187
1.0962e-05
7.02941e-06
8.85513e-06
3.19931e-05
0.000125239
0.000184691
0.000194208
0.000214753
0.000182296
0.000119675
5.47147e-05
4.17774e-05
2.92988e-05
1.85909e-05
2.15452e-05
2.01349e-05
2.09132e-05
1.93748e-05
1.73805e-05
1.71007e-05
1.49282e-05
1.2471e-05
1.22784e-05
1.50221e-05
1.6425e-05
1.93118e-05
1.53081e-05
1.42836e-05
4.08991e-05
1.5597e-06
2.26027e-05
5.32012e-05
8.19676e-05
2.4052e-05
2.47269e-06
8.49826e-07
7.07786e-07
1.06258e-06
1.84597e-06
7.22374e-06
3.65897e-05
0.000178125
0.000162037
0.000140406
0.000126996
0.000115713
0.000119017
0.000115366
0.000106161
0.000109749
9.53337e-05
0.000120216
0.000162178
0.000186279
0.000149472
3.38191e-05
1.26222e-05
8.66592e-05
4.25214e-05
0.000142226
0.000165938
0.000146049
4.96241e-06
1.61958e-06
1.47173e-06
1.9847e-06
2.23117e-06
1.78892e-06
1.44439e-06
1.30843e-06
1.18513e-06
1.13291e-06
1.28523e-06
1.65721e-06
3.14223e-06
5.09253e-06
7.59864e-06
7.02508e-06
5.70299e-06
1.1536e-05
6.35766e-05
0.000235417
0.000186424
2.22119e-05
2.75278e-06
2.59749e-06
1.32056e-05
2.50955e-05
8.21226e-06
0.000125851
0.000130503
0.000131233
8.25013e-07
1.7285e-07
1.45687e-07
1.48712e-07
1.4141e-07
1.91563e-07
1.93154e-07
1.97134e-07
2.06148e-07
1.97014e-07
1.78571e-07
1.59746e-07
1.27472e-07
1.0813e-07
9.43538e-08
8.42624e-08
7.96685e-08
9.70756e-08
2.33867e-07
6.76873e-07
1.23991e-06
4.39249e-07
7.85278e-08
1.40736e-08
6.98941e-08
1.08281e-05
3.92723e-05
4.25828e-05
6.27052e-05
5.76384e-05
2.31499e-05
1.40069e-05
4.07657e-05
0.000242891
5.22582e-05
1.65383e-05
1.02589e-05
1.38584e-05
1.70237e-05
2.28676e-05
2.88524e-05
4.82721e-05
3.3323e-05
4.52968e-05
4.17665e-05
3.48309e-05
4.5988e-05
3.60089e-05
1.80934e-05
8.37918e-06
1.57648e-05
1.05141e-05
9.40527e-06
4.52592e-05
9.17059e-05
6.41352e-05
6.54144e-05
7.11659e-05
0.000115622
7.30888e-05
0.000184519
0.000206626
3.38164e-05
2.06293e-05
2.03805e-05
2.09463e-05
2.45631e-05
3.00582e-05
2.36243e-05
2.07371e-05
1.03139e-05
4.47242e-06
2.87191e-06
1.174e-06
4.10896e-06
6.88147e-06
2.21137e-05
0.000177788
0.000135448
9.38419e-05
8.1116e-05
7.93111e-05
7.75223e-05
7.77856e-05
0.000101596
0.000166551
0.000180312
5.54768e-05
0.00033057
2.36239e-05
1.48534e-05
2.32811e-05
2.47475e-05
2.01867e-05
1.01106e-05
6.28654e-06
6.62185e-06
6.37255e-06
6.44571e-06
5.81114e-06
5.11544e-06
3.43111e-06
2.20833e-06
1.4001e-06
9.0105e-07
7.8237e-07
5.78214e-07
5.26503e-07
4.07965e-07
3.25738e-07
1.58015e-07
9.51218e-08
4.61019e-08
1.19989e-07
1.61899e-06
0.000188963
6.8962e-06
1.08755e-05
2.85685e-05
4.32512e-05
6.83149e-05
0.000176601
0.000348757
1.40293e-05
1.31478e-06
3.78046e-07
2.81556e-07
2.28617e-07
1.81073e-07
1.85126e-07
2.09104e-07
1.76986e-07
1.96411e-07
1.32895e-07
1.53558e-07
1.25002e-07
1.38228e-07
1.64323e-07
1.7391e-07
2.57582e-07
7.24901e-07
1.9092e-06
2.42217e-06
3.67884e-06
7.60665e-05
5.87155e-05
1.64281e-05
0.000225675
0.000355634
0.000563104
0.00072163
0.000846691
0.00101687
0.00129534
0.00144532
0.0014888
0.000939448
0.000412525
0.000696681
0.00152358
0.000298146
0.000841035
0.000450073
0.000248701
0.000205665
0.000241662
0.000399408
0.000578883
0.000698555
0.000781796
0.000860691
0.000952243
0.000965047
0.000871913
0.00068413
0.000626953
0.000710335
0.000895166
0.000966217
0.000874514
0.00074105
0.000631645
0.000408983
0.000358314
0.000487925
0.00051936
0.000351733
0.000109374
4.27408e-05
8.06222e-05
0.000246977
0.000213332
0.000211983
0.000201865
0.000186341
0.000190639
0.000199308
0.000201049
0.000198101
0.000196591
0.000194983
0.0001898
0.000184459
0.000175484
0.000161807
0.000148081
0.000136928
0.000127964
0.000122019
0.000118529
0.000110895
0.000110961
0.000126417
0.000148923
0.000207244
0.000342801
0.000654971
0.000682428
0.000473904
0.000432239
0.000307019
0.000187773
9.07866e-05
8.58471e-06
4.28102e-06
5.82117e-06
7.98977e-06
8.72599e-06
1.88567e-05
3.00271e-05
5.18119e-05
8.4669e-05
0.000111946
0.000148587
0.00018613
0.000199595
0.000194956
0.000182424
0.000180836
0.000179349
0.000188758
0.000195394
0.000189297
0.000185141
0.000152578
0.000116681
0.000106112
0.000112768
0.000130651
0.000164265
0.000184754
0.000114712
0.000110723
0.000151541
0.000200162
0.000221948
0.000204215
0.000162246
0.000143022
0.000134618
0.000144316
0.000167086
0.000166699
0.000149421
0.000122826
0.000102353
9.64612e-05
9.12252e-05
7.9577e-05
8.04563e-05
7.32396e-05
7.677e-05
7.6604e-05
0.000118925
0.000163952
0.000248819
0.00034305
0.000417941
0.000424837
0.000371232
0.00031842
0.000146238
8.84779e-06
6.45083e-06
1.81348e-05
7.40769e-05
0.000173727
0.000185706
0.000182468
0.000164544
0.000110365
6.23799e-05
3.96075e-05
2.77949e-05
1.82348e-05
1.66698e-05
1.84201e-05
1.8089e-05
2.12611e-05
1.90728e-05
1.84654e-05
1.36367e-05
1.32362e-05
1.06586e-05
9.55871e-06
1.26912e-05
1.30818e-05
1.38599e-05
1.47892e-05
1.05605e-05
3.06316e-05
1.10167e-06
1.31741e-05
4.03412e-05
2.99779e-05
5.03667e-06
1.01498e-06
6.81103e-07
7.92603e-07
1.37286e-06
3.19702e-06
1.72059e-05
0.000111102
0.000189706
0.000160415
0.000152255
0.000173368
0.000197932
0.000203629
0.000196044
0.000192783
0.000154269
0.000132889
0.000141784
0.000167046
5.81425e-05
2.23275e-05
6.75565e-06
7.26382e-06
0.000129043
3.51074e-05
0.000167857
0.000180827
5.00416e-05
1.8149e-06
1.44509e-06
1.73175e-06
1.71723e-06
1.67676e-06
9.2117e-07
6.07239e-07
3.53928e-07
2.41104e-07
2.15277e-07
2.29478e-07
2.88341e-07
6.25337e-07
2.32303e-06
8.12779e-06
1.16787e-05
5.69672e-06
7.33895e-06
4.56916e-05
0.00029839
0.00026927
0.000163915
2.17513e-06
8.62566e-07
5.40805e-06
1.4937e-05
7.84489e-06
9.39747e-05
0.000141334
8.88912e-05
5.41049e-07
1.41973e-07
1.72331e-07
1.13985e-07
1.86159e-07
2.45492e-07
2.49037e-07
2.52842e-07
2.4239e-07
2.29634e-07
2.12456e-07
1.89507e-07
1.67121e-07
1.60526e-07
1.34252e-07
1.09775e-07
9.47667e-08
8.10356e-08
1.0148e-07
4.52914e-07
3.09414e-06
6.86545e-06
1.59171e-06
7.68612e-08
3.05301e-08
1.4156e-06
7.57865e-05
4.22493e-05
5.81481e-05
4.08271e-05
1.46388e-05
1.1143e-05
5.14296e-05
0.00028143
3.52588e-05
1.32843e-05
1.28146e-05
2.19768e-05
3.21724e-05
4.25926e-05
5.46958e-05
6.28711e-05
5.17473e-05
5.41333e-05
4.34733e-05
6.31285e-05
6.96833e-05
4.8457e-05
3.22376e-05
1.06438e-05
1.47322e-05
4.92796e-06
2.061e-06
1.33421e-05
9.33301e-05
7.03922e-05
6.72063e-05
6.77834e-05
0.000117177
5.77406e-05
0.000111247
0.000308868
5.15461e-05
2.36773e-05
3.01504e-05
3.02688e-05
5.36956e-05
7.95871e-05
8.6867e-05
6.41625e-05
2.28394e-05
4.68918e-06
2.35842e-06
1.6875e-06
2.92596e-06
6.23574e-06
3.74428e-05
0.00018717
0.000102555
7.04359e-05
7.95037e-05
9.2833e-05
9.46521e-05
8.09103e-05
8.90468e-05
0.000152708
0.000180028
6.19293e-05
0.000179581
1.72664e-05
1.58125e-05
2.87694e-05
3.31062e-05
1.4508e-05
1.53816e-05
1.17814e-05
8.38368e-06
9.87098e-06
7.42536e-06
6.20563e-06
4.40264e-06
3.28707e-06
1.65671e-06
9.34684e-07
6.51554e-07
5.59311e-07
5.78719e-07
6.9865e-07
8.78687e-07
8.62913e-07
5.33784e-07
2.75504e-07
8.09263e-08
4.40666e-08
1.52126e-07
1.75283e-05
1.12018e-05
1.32739e-05
3.63401e-05
6.38998e-05
0.000146622
0.000375652
1.97338e-05
1.42093e-06
4.9214e-07
4.60046e-07
5.76332e-07
8.38484e-07
1.28151e-06
1.48459e-06
1.66212e-06
1.28929e-06
1.00056e-06
5.99469e-07
3.4835e-07
1.87499e-07
1.57322e-07
1.59694e-07
1.81129e-07
1.87899e-07
4.95702e-07
4.15212e-06
1.32019e-05
8.21678e-06
8.92646e-06
0.000214502
1.68844e-05
0.000261664
0.000574404
0.000815002
0.000912339
0.000895949
0.000932005
0.00103856
0.00121622
0.0014412
0.00108156
0.000356807
0.000486437
0.00117895
0.000417441
0.00070149
0.000431443
0.000228852
0.000167747
0.000220865
0.000391855
0.000613266
0.000768926
0.000851428
0.000915974
0.000931852
0.00104536
0.00107015
0.000914842
0.000866535
0.000943643
0.00101992
0.000951274
0.000800386
0.000710927
0.000577673
0.000396644
0.00048961
0.000569151
0.000464973
0.000155163
3.28813e-05
1.95104e-05
5.16537e-05
0.000225399
0.000214807
0.000215207
0.000222504
0.000202311
0.0001881
0.000193614
0.00020335
0.000193673
0.000188944
0.000188739
0.000185778
0.000179221
0.000167615
0.000153564
0.000139889
0.000128146
0.000119792
0.000113238
0.000110589
0.000114049
0.000127964
0.000173669
0.000197301
0.000272619
0.000373165
0.00060729
0.000727219
0.000513348
0.000449746
0.000316032
0.000133515
9.12458e-06
3.09346e-06
3.9224e-06
7.15165e-06
1.32867e-05
2.52014e-05
3.35496e-05
4.45806e-05
5.86804e-05
6.89255e-05
8.38898e-05
9.7613e-05
0.00012579
0.000172723
0.000198718
0.000188285
0.000176892
0.00016927
0.00017499
0.000181019
0.00018974
0.000194313
0.000187185
0.000145053
0.00011272
0.000105795
0.000119781
0.00016703
0.000187179
0.000153398
0.000196686
0.000223037
0.000265545
0.000234474
0.000171634
0.000126605
0.000118657
0.000126407
0.000145707
0.000175679
0.000179617
0.00016347
0.000145272
0.000120042
9.34589e-05
9.00968e-05
8.28433e-05
8.09765e-05
9.9926e-05
0.000111787
0.00014196
0.000184409
0.000269258
0.000345006
0.000411149
0.000417116
0.000421432
0.00037327
0.00031323
0.000109419
7.83556e-06
1.02746e-05
2.98958e-05
9.39613e-05
0.000169095
0.000165026
0.000116591
6.97631e-05
3.69486e-05
3.38156e-05
2.16983e-05
9.70796e-06
1.02815e-05
9.27267e-06
1.19443e-05
1.50357e-05
2.02865e-05
1.8228e-05
1.43469e-05
9.5583e-06
9.32516e-06
8.26901e-06
9.14632e-06
9.15397e-06
1.1053e-05
1.054e-05
1.28603e-05
9.98359e-06
2.21119e-05
9.62873e-07
1.57292e-05
3.04578e-05
9.91834e-06
1.58134e-06
6.85007e-07
6.68335e-07
8.33997e-07
1.41924e-06
3.77423e-06
1.39651e-05
6.94295e-05
0.000162702
0.000186625
0.000185468
0.000189533
0.000182418
0.000174905
0.000189658
0.000196121
0.000211706
0.000171178
0.000156866
0.000152464
1.40205e-05
5.53166e-06
5.20266e-06
1.54535e-05
0.000147336
2.43356e-05
0.000138874
0.000175042
2.79301e-05
1.52997e-06
1.31491e-06
1.75763e-06
1.85552e-06
1.25821e-06
4.68136e-07
2.40132e-07
1.52754e-07
1.60705e-07
1.63442e-07
1.58285e-07
1.82033e-07
1.96045e-07
5.77641e-07
4.27593e-06
1.49217e-05
6.28822e-06
4.7137e-06
1.97343e-05
0.000258763
0.000169089
0.000236676
7.35884e-06
6.03152e-07
2.11796e-06
8.33531e-06
5.963e-06
9.48393e-05
0.000116666
8.03133e-05
6.30093e-07
1.64133e-07
8.47064e-08
1.76265e-07
2.5101e-07
2.77802e-07
3.2736e-07
3.10698e-07
2.82906e-07
2.5402e-07
2.26289e-07
1.95322e-07
1.75094e-07
1.63121e-07
1.64806e-07
1.63215e-07
1.45039e-07
1.04032e-07
7.81549e-08
1.2554e-07
1.27382e-06
9.76417e-06
1.04477e-05
1.11491e-06
1.24032e-07
5.5737e-07
0.000192974
4.09581e-05
5.17227e-05
3.27356e-05
1.33128e-05
9.93575e-06
3.89678e-05
0.000274507
2.76378e-05
1.46969e-05
1.4192e-05
2.5582e-05
3.84969e-05
7.60798e-05
9.44131e-05
9.44396e-05
6.7246e-05
4.15972e-05
3.91657e-05
5.78286e-05
9.32151e-05
9.55931e-05
4.54861e-05
2.08266e-05
5.84296e-06
5.15558e-06
2.07617e-06
3.79125e-06
5.73359e-05
0.000144378
0.000106174
6.15766e-05
0.000125114
6.99742e-05
5.40031e-05
0.000191186
0.000102528
3.9414e-05
3.37107e-05
4.96696e-05
6.60609e-05
8.0778e-05
0.000109637
0.000116529
6.13471e-05
9.6222e-06
1.27525e-06
1.37808e-06
2.40421e-06
7.81926e-06
6.69472e-05
0.000166529
9.75888e-05
7.8924e-05
8.90213e-05
0.000118654
0.000103645
9.32712e-05
9.9001e-05
0.000148228
0.000179112
6.23332e-05
0.000105484
1.30053e-05
1.76951e-05
3.58547e-05
3.73324e-05
3.2086e-05
4.03798e-05
4.03695e-05
2.89178e-05
2.20269e-05
1.17803e-05
6.27503e-06
4.16369e-06
3.17481e-06
1.56332e-06
7.00234e-07
5.39208e-07
5.99393e-07
1.33966e-06
3.79498e-06
7.33214e-06
7.55248e-06
3.74819e-06
1.34364e-06
2.86004e-07
6.96717e-08
4.61402e-08
1.31388e-06
3.6995e-05
1.52983e-05
5.02796e-05
0.000109377
0.00032088
5.17737e-05
2.86805e-06
7.0233e-07
6.34541e-07
1.18358e-06
2.71944e-06
5.80331e-06
9.16363e-06
1.11902e-05
9.32e-06
6.54147e-06
5.54068e-06
3.52753e-06
1.73329e-06
7.04933e-07
2.3509e-07
1.48672e-07
1.82354e-07
1.77207e-07
3.29721e-07
4.91329e-06
4.76486e-05
2.67948e-05
1.27797e-05
0.000270611
3.05823e-05
0.000359407
0.000908189
0.000863732
0.000711502
0.000672065
0.000679326
0.000749947
0.00101372
0.00135576
0.000891729
0.000326699
0.000385161
0.000777559
0.000553119
0.000670503
0.000403325
0.000204485
0.000150484
0.000209087
0.000379318
0.00062137
0.000770825
0.000875672
0.000888184
0.000855705
0.000851725
0.00097135
0.00105417
0.0010355
0.00101436
0.000887268
0.000794322
0.000751024
0.000648089
0.000560085
0.000475913
0.000600593
0.000436103
0.000144375
2.68704e-05
1.62542e-05
2.09087e-05
4.63336e-05
0.000208336
0.000206868
0.000200078
0.000206479
0.000226825
0.000200236
0.000188978
0.000195655
0.000196451
0.000185106
0.00017924
0.000173203
0.00016435
0.000152222
0.000139455
0.000127694
0.000117285
0.000111889
0.00012146
0.000181617
0.000212231
0.000152585
0.000137068
0.000134798
0.000194035
0.000296028
0.000487212
0.000624843
0.000507305
0.000444765
0.000312107
2.72849e-05
2.97476e-06
2.67784e-06
5.75227e-06
1.72915e-05
3.81658e-05
4.77043e-05
4.45999e-05
4.97933e-05
5.16431e-05
5.75607e-05
6.75849e-05
8.93698e-05
0.000113724
0.000155249
0.00019501
0.000189562
0.000172243
0.000160628
0.000161048
0.000165809
0.000174688
0.000184944
0.000193066
0.000163373
0.000114363
9.97749e-05
0.000120646
0.000176757
0.000186608
0.000192656
0.000172541
0.00020473
0.000255138
0.000218693
0.000163966
0.000128832
0.000111814
0.00011343
0.000121728
0.000127334
0.000127337
0.000121507
0.000110882
8.87249e-05
9.01235e-05
7.71556e-05
0.000107501
0.000127028
0.000186138
0.000194102
0.000267529
0.000300594
0.000401271
0.000416927
0.000426486
0.000390965
0.000402621
0.000357529
0.000301639
7.7216e-05
6.59846e-06
1.39073e-05
3.9395e-05
8.7848e-05
9.79367e-05
5.87105e-05
3.06224e-05
2.73657e-05
2.22653e-05
1.21616e-05
1.05251e-05
7.04659e-06
4.4059e-06
3.69462e-06
5.88249e-06
1.21097e-05
1.95472e-05
1.63538e-05
1.12452e-05
8.10378e-06
7.13035e-06
6.97615e-06
6.74667e-06
7.4377e-06
9.85962e-06
1.22947e-05
1.10377e-05
8.58039e-06
2.25116e-05
1.10822e-06
1.41026e-05
1.93909e-05
3.80164e-06
1.08071e-06
6.73492e-07
6.53821e-07
7.41642e-07
1.2444e-06
2.35205e-06
5.23104e-06
9.96964e-06
2.86726e-05
7.46583e-05
0.000101748
9.05629e-05
7.83961e-05
8.32866e-05
0.000104892
0.000153984
0.000189348
0.000202639
0.000157299
0.000165856
1.60852e-05
5.73656e-06
6.14751e-06
0.000131306
5.90014e-05
2.11072e-05
0.000147785
0.000186073
1.83669e-05
1.30799e-06
1.25438e-06
1.64764e-06
1.61066e-06
8.91158e-07
3.36636e-07
1.96847e-07
1.55017e-07
2.27073e-07
2.83382e-07
3.05469e-07
2.28721e-07