/*--------------------------------*- C++ -*----------------------------------*\
| =========                 |                                                 |
| \\      /  F ield         | OpenFOAM: The Open Source CFD Toolbox           |
|  \\    /   O peration     | Version:  2.1.1                                 |
|   \\  /    A nd           | Web:      www.OpenFOAM.org                      |
|    \\/     M anipulation  |                                                 |
\*---------------------------------------------------------------------------*/
FoamFile
{
    version     2.0;
    format      ascii;
    class       volScalarField;
    location    "0.004000000";
    object      omegaC_burn;
}
// * * * * * * * * * * * * * * * * * * * * * * * * * * * * * * * * * * * * * //

dimensions      [1 -3 -1 0 0 0 0];

internalField   nonuniform List<scalar> 
12384
(
64311.7
143596
175044
200276
208204
198611
188024
168521
160071
136710
106568
83826.1
83928.6
67292.5
230512
420836
593625
684746
774544
802203
863065
871270
903612
890076
878584
823689
777800
716150
670656
618989
584571
542909
508618
457543
413048
368096
334689
294843
275335
253260
234805
206306
171803
105693
293690
537739
556342
484944
397970
380762
396307
401541
378025
373935
370076
366056
395725
402449
442316
450606
449270
448079
432605
444236
423193
391467
356731
348457
331399
322719
300891
274806
224901
144591
435560
678983
787169
792321
756132
692870
641837
594195
557187
492995
481642
429737
425908
382417
387579
393935
414625
429215
522395
560994
599239
673725
730234
770400
653158
496515
400294
350678
306887
203311
410306
558963
647240
730245
812824
873602
914993
900880
788975
833490
743360
785676
807975
789734
815275
754853
699686
717646
570122
826024
736722
956588
908077
910728
758396
601506
484599
378951
298154
219598
250880
388245
517675
623499
733621
817752
865815
871077
871262
845728
819983
791561
750799
718521
621042
619037
490902
487018
392326
394000
415691
407430
442835
501633
580684
682579
831856
737688
358581
229583
272881
359517
426114
489443
502668
466977
559314
581021
703625
687092
777801
797150
827531
842781
864572
874884
896355
883275
898831
898276
872430
983635
925074
1.03675e+06
987926
943553
832165
726533
500865
242318
185591
301600
374563
383007
371867
361418
381645
452213
590972
650486
733296
672612
625547
615660
741177
825782
971540
1.05109e+06
1.0565e+06
1.04443e+06
1.0119e+06
982232
923311
902673
826893
772381
685185
568121
417071
237249
58944
87795.9
145979
306366
409311
482048
555021
683319
725191
738130
733157
501474
459188
385981
353905
369600
389126
452327
521033
589541
611344
530622
404401
303028
174358
102957
54222.4
37530.5
30510
23899.8
18210.3
23895.3
28526.4
40791.1
49103
58929.9
63895.1
85093.6
203210
380230
587695
807208
948032
1.06459e+06
877619
628932
1.3136e+06
1.52028e+06
1.68219e+06
1.80121e+06
1.88246e+06
1.92926e+06
1.96162e+06
1.95672e+06
1.8915e+06
1.7529e+06
1.6327e+06
1.44741e+06
1.24981e+06
899349
33524.4
40349.4
49907.7
70364.1
106701
183851
265223
416718
578714
813997
1.05693e+06
1.35315e+06
1.59558e+06
1.87668e+06
1.9342e+06
1.98081e+06
1.94912e+06
1.91754e+06
1.86646e+06
1.82351e+06
1.68573e+06
1.25964e+06
448294
432561
361860
345108
460212
650829
925467
561543
35619.2
47039.2
112317
306756
497978
663892
867665
968433
1.19522e+06
1.41046e+06
1.67685e+06
1.85323e+06
1.95567e+06
1.93354e+06
1.83243e+06
1.66342e+06
1.4643e+06
1.2506e+06
1.03924e+06
824792
610236
404185
186235
88751
53654
39813.6
34082
30879.8
28990.1
25471.8
30387.9
40241.6
41347.4
56076.2
74579.7
90409.3
101407
104496
110504
112423
112658
117990
118310
120966
122952
106159
94521.9
80758.5
73123.8
66047.9
62734.6
57673.6
53496.1
48510.8
43300.8
34440.5
33104.1
29461.8
27794.3
25471.5
100422
200989
242080
285885
317557
347236
375087
372646
359650
321161
279490
199005
152756
155812
314992
466595
590823
649199
716251
751358
810260
836913
886074
883155
895389
876493
871863
891848
893134
876173
806820
716616
625556
563877
505262
445650
407854
363767
319477
298239
269911
253571
231288
193222
424578
41316.7
9296.63
2950.28
930.965
317.228
127.418
66.7508
42.4015
33.3725
32.1437
34.4416
44.9703
64.3155
103.103
150.302
262.257
371.54
766.362
857.66
6618.51
88799.1
516901
617285
550980
498922
447648
394942
332332
262706
544310
257458
65799.9
21805.1
9263.42
3927.96
1998.08
933.197
538.274
288.105
168.393
109.554
79.4569
63.4858
63.8383
72.7327
101.163
199.938
493.2
1151.28
3063.73
7644.35
20779.5
59548.7
139563
276521
357737
370359
364186
329660
476236
503646
556898
569410
488089
370393
212302
144040
78482.6
55514.9
40354.3
40910.2
49265.2
56571.9
56761.1
49176.3
46271.7
34397.3
35062.1
63841.9
75814.5
160466
162319
305626
447275
688894
657220
519578
386110
397653
425230
436112
460988
380243
300043
298097
253522
203983
180889
149415
184904
152333
156980
167260
82155.5
104370
33182.4
41468.6
11541.1
14417.7
8088.78
15163.1
14201.5
18158.3
8882.37
6708.26
16893.9
136898
437527
574034
420325
346017
359255
327693
179400
180963
327951
375156
401736
405121
435979
460655
416461
393963
239027
126370
55880.2
17896.3
7778.66
4030.05
1994.49
1830.45
2435.84
25730.2
97268.7
384911
645436
724752
371090
455472
305476
377531
295399
227196
382369
242979
367755
174791
77456.3
6062.47
3837.99
3839.59
5270.58
7807.78
25597.8
69847.9
264160
474638
681056
738485
752168
740625
720745
682751
635304
576174
491014
457205
463666
610418
104486
132115
379840
820071
783667
384760
190540
54536.8
19517
319.664
197.928
18.1697
24.5896
29.9002
55.8392
118.584
274.633
751.82
2229.31
7341.25
24254
74632.6
182206
276925
212575
145826
83125.4
41245.2
22107.8
29220.1
28746.4
21852.7
34859.5
55180.8
80869.1
114434
167340
438286
724165
398225
105046
33791.9
9396.05
5644.08
8181.84
5365.33
81838.6
188548
624434
948139
1.27981e+06
1.43796e+06
1.50368e+06
1.51243e+06
1.47378e+06
1.32694e+06
1.15738e+06
1.15506e+06
1.24247e+06
1.2529e+06
87576
102108
195718
363569
604435
976510
356680
179741
27621.5
19324
28490.5
121396
305193
621155
887469
1.07753e+06
1.17195e+06
1.14143e+06
978358
566568
158957
2165.13
243.974
26.9449
5.78205
3.41891
7.29144
56.5847
705.862
751288
159151
288315
949803
1.6661e+06
1.8977e+06
955499
608069
79740.7
77233.9
82974
200845
402601
680906
975337
1.20146e+06
1.33259e+06
1.33316e+06
1.2019e+06
994882
770350
561837
371652
215780
119210
74171.9
48113.2
29361.7
18692.7
14411
25827.5
74182.8
66562.9
104173
144623
187474
224970
295688
371687
456668
486557
468417
394502
333154
262413
216725
169134
133616
104579
86419.5
74996.9
66611.6
60548.5
55917.6
50617.4
45839.3
31129.1
24974.1
18535.6
16683.7
27075.9
153649
278079
306265
322260
340334
352898
368915
386903
410292
374690
342064
288803
219073
225178
434819
612475
730556
748047
772287
751779
780700
771741
803652
792402
814148
778890
777129
750684
786788
807465
792226
724235
645724
585198
525006
475550
428317
392237
342123
315437
281250
256952
256913
230507
552009
32834.1
9653.56
3746.91
1798
772.259
334.686
179.462
102.405
71.0304
54.1137
47.631
52.5233
59.0542
73.4516
104.352
145.05
203.795
279.13
422.015
739.392
9153.97
85501.6
570962
648054
566930
497915
440371
385925
324208
644523
51042.4
30123.2
21212.3
20889.8
16942.4
12867.5
5871.99
3038.18
1214.49
544.392
208.742
99.4141
50.7238
38.774
33.5848
47.7164
103.805
233.488
661.311
1575.43
3346.01
7094.57
17908.1
47115.7
122401
269085
349230
365069
423782
542782
566914
563477
467718
337394
204833
174461
124059
101711
93258.9
76501.6
82681.9
107142
141112
153130
171277
146468
154950
104826
180894
173544
266551
261473
310866
427873
544321
695897
634207
490012
522443
569939
393787
351864
276495
298237
245277
111109
48583.8
71319.2
93170.6
210012
276388
399509
459435
406493
426420
280041
309509
171309
182992
127768
107450
136589
93854.2
57116.9
19948
7636.39
31729.9
256416
755055
514271
369370
330261
246509
184594
306476
350377
367333
369864
379621
393547
367303
255562
130928
51711.1
38534.3
14583.9
6250.37
3321.02
2126.33
1085.47
4083.64
1660.7
35663.5
57223.9
227138
530266
674138
310137
487385
429378
371252
191945
337262
301298
339610
306859
120399
59405.8
5560.6
3299.69
3993.01
5303.38
7932
12307.9
22333.3
99545.1
348734
605362
734453
775750
765472
667462
678483
619751
603366
585128
486781
356813
625591
153153
200130
514139
825368
499647
177240
50935.4
28252
2665.33
440.643
63.2087
50.599
56.0016
73.4306
111.203
194.159
347.506
674.041
1464.68
3761
11611.1
37813.3
109954
224041
279460
221409
128959
78386.2
37894.7
35970.3
33015.7
25301.9
40126.4
59771.8
80806.7
113183
248100
559689
579804
246972
93813.6
63951.3
34695.1
30800.2
101701
49721.6
464536
492932
986384
1.11827e+06
1.29739e+06
1.36508e+06
1.41437e+06
1.42233e+06
1.3935e+06
1.33526e+06
1.13398e+06
853469
1.11365e+06
1.11706e+06
103486
114325
209801
398874
602381
959346
299048
434268
64957.6
151929
171293
389185
630133
781327
876855
910646
834103
720241
480025
184716
4667.49
109.741
8.68538
0.62384
0.376001
0.1389
0.334794
2.84392
43.0295
297573
259712
532928
1.34885e+06
1.82806e+06
1.71127e+06
694677
485049
47823
124827
118878
225496
429390
627732
814626
961170
1.11011e+06
1.21852e+06
1.23636e+06
1.16027e+06
991599
803528
597981
395614
215850
117149
74924.3
60378
41006.4
19971.4
25880.6
108112
90755
135535
186531
263199
367230
548121
655034
622906
564541
490692
413705
356562
298043
261433
227236
168018
108255
73975.2
62185.5
55921.8
52603
51043
49016.7
48267.4
43769.2
40299.9
26804.2
18992.5
28012.8
202344
327168
337403
346781
344617
354814
354581
372025
397332
416234
381715
361078
302354
297977
580362
736798
732830
659886
677042
733518
719736
708247
692351
697734
691698
700353
700694
706526
702760
733134
733461
699820
643763
581763
534560
497895
437937
407780
357098
322849
288230
256154
279749
266285
662064
72558
38304.2
8975.96
5588.48
3184.43
1634.73
851.053
462.357
294.694
197.188
160.983
138.556
136.414
140.464
148.482
169.812
196.593
229.95
227.982
419.206
905.091
10558.1
157360
657757
670707
580602
504433
456096
380157
709049
31532.3
33377.2
71578.5
94232.8
93281.5
77064.5
52851.4
30503
16295.5
6815.57
3012.96
946.757
427.476
157.11
94.0387
93.3541
111.015
212.429
536.665
1196.11
2127.07
3772.74
7533.87
19469.5
58975.2
160724
268210
311435
490192
627307
526228
357753
187951
121834
171928
186255
263612
221991
214412
204915
191404
245243
259488
312682
315469
341951
325595
295309
323243
361688
346620
387753
428850
452457
553796
631924
683026
564570
605887
657695
282753
241226
353961
215601
71131.4
28688.7
32165.8
84345.4
104283
305671
296114
416472
391480
358646
414242
394986
472731
443604
457211
383375
391382
266244
233991
123836
55339.3
13386.1
17669.4
135963
811932
574984
361188
273117
206847
257998
334735
330694
350251
357021
359609
320537
223547
88749.3
28665.2
37154.1
36459.2
25108.9
28991.4
21087.8
13619.2
16004.8
4947.09
11301
35367
121006
319285
573997
527586
198547
451133
479572
161307
185049
255107
371174
364480
258294
168231
31587.2
10937.3
4113.07
4974.55
6809.83
9714.56
14378.1
18840.1
23094.8
111699
426629
643834
733903
623090
484823
540631
575916
526368
516600
536477
249339
596511
206263
267121
632918
624769
217851
52932.2
29312.5
2327.05
1369.89
252.926
169.107
140.153
143.128
193.655
261.59
396.601
566.382
856.406
1298.44
2312.05
5409.82
18258.7
62189.1
173590
336295
333973
178791
104467
64748.5
52411.1
38492.9
32355.9
47852.4
70570.3
43905.6
124708
355741
614347
491842
229267
156007
157646
137458
128023
434847
237699
906449
886169
1.16766e+06
1.19793e+06
1.31282e+06
1.33465e+06
1.28318e+06
1.22749e+06
1.14493e+06
1.14272e+06
1.17521e+06
986854
1.05839e+06
963451
126622
139163
228572
390686
639442
920109
523480
487635
254689
287262
527563
774309
914032
986166
830682
620867
472401
377224
257771
24034.8
459.686
1.64503
0.243722
0.158957
0.188933
0.312215
0.247611
0.445035
3.53048
100500
375759
819937
1.60509e+06
1.80558e+06
1.47427e+06
604188
424266
162224
181800
324729
442681
656902
816943
889687
933647
977919
1.03436e+06
1.09285e+06
1.10611e+06
1.03253e+06
926878
787404
627609
400750
222845
114192
78615.8
70787.6
42395.7
31185.3
145673
135872
199009
282512
445021
665681
795041
758952
701906
680914
641789
587608
563695
570117
562077
540429
399301
242432
108167
65132.9
56765.7
53505.7
53288.6
54874.6
55580.7
48833.8
45369.2
38529.1
24275.5
29775.6
247123
359704
363377
352108
347205
340602
341231
353905
380642
431785
410512
403501
383415
368372
702651
792716
555859
387904
536757
713033
683996
639298
613860
577895
553228
532919
552642
588456
631398
663305
680554
659503
621476
568314
537714
494332
442608
406919
355749
322034
281324
177131
232883
322981
744393
125976
105749
48467.2
22112.3
19910.2
13562.4
7193.47
3400.95
1856.83
1138.99
769.134
597.449
506.915
435.491
393.747
379.969
349.476
285.559
193.644
128.415
762.455
2464.62
29330.9
344485
784832
676490
588095
534655
461277
698516
39362.9
86387.4
137986
176459
197893
122619
106343
70958.1
57958.5
38689.7
25250.6
13317.7
6626.71
2507.95
982.921
504.611
371.187
419.706
641.123
1099.18
1668.98
2262.45
4212.78
11174.4
37556.3
118932
224077
270031
561498
727394
207980
52927.9
49125.2
150762
309943
458078
532693
485871
495595
499896
476045
479376
505824
488405
526196
542799
482312
540344
467115
520484
473907
541534
480402
573560
540970
626581
668823
618600
659990
779059
167473
184511
252321
167956
45173.3
23902.6
16511.5
69648.2
100900
227759
189559
206102
216467
182883
300440
328066
503776
512629
587979
567643
529516
501067
327041
219598
72728.8
10959.5
12446.8
59820.1
815228
625365
332293
223509
212082
283455
317181
311089
343284
330325
324898
247288
119188
43454
17557.9
21985.2
46819.1
85368.6
101782
85667.8
75972.5
29894.1
23875.3
21614.9
70232.3
157320
411672
529869
237133
129194
342375
566194
144269
204665
286852
379741
330272
270871
183828
20476.6
10664.5
5635.81
6156.84
7722.98
10357.7
12643.1
17910.8
21381.4
20464.1
137438
465665
594987
555622
224995
188337
425543
512666
450457
457956
189194
564215
273137
349375
572348
336180
92619.2
72097.2
4577.34
3176.79
1167.29
779.611
558.495
512.014
525.939
640.585
816.836
1048.66
1318.35
1612.21
1885.79
2372.68
3405.18
7722.21
29843.5
89360
213570
416188
284670
142068
92507.8
77982.9
46864.3
42289.5
60339.7
45024.7
14034.8
117841
418080
643428
438469
245537
272754
271487
317008
363217
721655
629405
915630
957593
1.17201e+06
1.16565e+06
1.2989e+06
1.3373e+06
1.24564e+06
1.15899e+06
1.0035e+06
852067
922004
1.06113e+06
996790
792435
152918
177685
211988
266907
582247
960257
644305
764316
297778
533467
653004
1.00898e+06
1.09129e+06
1.0738e+06
873006
562883
330624
251427
138177
9361.81
38.597
0.285835
0.024803
0.192325
0.640756
4.29564
1.36685
0.158676
0.443362
80893.2
472081
1.02103e+06
1.68294e+06
1.66073e+06
1.20421e+06
745112
519389
349600
478273
632178
878916
903306
1.01131e+06
980354
919873
874799
897672
953308
1.02584e+06
1.03291e+06
1.02661e+06
980116
869229
665640
425914
220600
121962
95678.9
87204.8
48309.2
199760
195695
285207
442465
706147
894505
853480
834761
854881
905630
946816
1.02194e+06
1.03204e+06
1.11414e+06
1.06291e+06
1.06635e+06
862009
575967
262040
92022.4
57337.9
53887
53352.6
58762.5
65207.8
60570.7
51004.5
45118.4
34620.5
33947.9
294904
402324
382617
366139
344183
330282
323070
328665
368314
434438
432638
433220
452329
440381
787457
792760
361971
200076
434368
706684
667776
630288
589629
559147
516464
500834
509804
540423
592731
625339
638102
628979
596226
558972
537723
480476
442441
384733
342706
304387
136252
46625.3
111433
383403
784725
157856
235763
191480
100261
87627.7
81901.6
54247.7
27714.8
13326.6
6972.88
4212.03
2859.54
2034.13
1612.54
1432.85
1304.29
980.251
577.269
303.023
351.824
3358.47
6591.75
70180.6
359145
846335
772162
668449
610061
526423
650008
84593.8
103728
199445
228358
253679
129664
101054
73519
82982.5
94978.9
94389.1
94343.4
71527.4
41481.1
16676.3
5858.15
2409.52
1354.34
1218.26
1254.3
1429.94
1711.2
2726.22
7663.43
31087.1
110183
201186
225616
585729
764040
6728.26
6992.21
56243.5
269559
512576
600831
614939
602936
597758
606738
599952
626002
610949
626594
614051
600979
574526
561243
592424
575117
644575
620996
667272
614228
611672
586547
651666
649678
698872
802317
83604.9
251418
270775
52311.2
22830.1
18867.1
60183.2
122009
90530.5
190433
95892.7
116387
74272.5
72186.5
176991
223976
439142
442791
483479
510580
518509
481144
415580
191426
57375.1
10120.6
10880.5
59627.3
753580
663680
263054
179319
225216
275815
287131
299310
314086
309248
282384
220260
121305
56821.3
29432.3
23724.2
61539.4
106200
132548
132888
95143.3
97605.8
31452.7
23215.5
83893.8
245104
279372
264830
213547
38968.1
238868
528961
56972.2
172665
226828
352588
324174
259214
135361
41924.8
14814.1
19284.4
57540.3
62838.2
62851.3
49129.8
11702.1
17205.7
18845.8
16258.2
203974
539427
417688
91456.1
56018.7
156721
477685
441080
270988
47472.4
497805
356299
354886
232159
197395
129315
16660.6
13755.2
4969.69
3843.41
2854.8
2554.04
2430.14
2778.67
3198.54
3348.04
3306.81
3371.23
3362.78
3501.42
3677.07
4000.93
5127.35
13665.6
56814
122630
297690
393573
204549
127268
129102
60659
56647.4
73315.3
21588.6
3208.75
55003
422840
641715
430953
298847
284255
367620
513121
659218
721356
713062
708403
893927
1.08955e+06
1.19943e+06
1.31505e+06
1.37379e+06
1.37339e+06
1.22046e+06
934761
465720
244930
635605
894448
677059
192005
233815
230762
74586.9
240233
779941
976802
872782
864679
946092
977597
1.01505e+06
1.03714e+06
1.16053e+06
1.0694e+06
627528
229547
245670
159810
3391.04
16.5795
0.387503
0.0150338
0.14611
1.43089
22.5849
5.48094
0.120365
0.137051
129528
563563
1.09042e+06
1.57124e+06
1.35673e+06
998807
669647
774785
610738
884195
804478
1.25536e+06
1.22917e+06
1.12452e+06
1.02633e+06
898323
789720
764545
855005
949693
1.08397e+06
1.10978e+06
1.04536e+06
999967
980846
730848
431248
226027
143267
136126
85728.4
262550
248905
400496
663836
920081
941459
908642
977220
1.09673e+06
1.26853e+06
1.32657e+06
1.45104e+06
1.31067e+06
1.2813e+06
1.31098e+06
1.40248e+06
1.29114e+06
1.04677e+06
597667
204936
63639.8
52317.8
51707.7
57127
70728.7
68101.9
56201.9
49962.1
43638.9
41114.1
334218
408047
386330
359288
336737
316209
304537
317499
356983
434538
446053
457481
515524
503530
829103
784655
229429
138187
402274
692247
686941
653160
638080
620532
600625
587858
590411
604262
620369
638718
632086
611648
595014
557925
528279
463700
419811
359425
316522
99158.5
23116.7
19417.9
30571
456702
756319
126072
226225
331631
266680
148130
151308
124856
76305.4
41998.3
22033
12338
7629.75
5554.87
4906.9
4831.71
4971.19
4963.82
16975.7
45149.7
55803.2
145619
89167.7
355066
538345
907103
843700
734552
671763
569149
739883
139155
213694
241776
213764
132701
114314
35294.6
44603
63352.3
86241.3
118626
150634
191882
195586
135899
49258.6
14609.5
4551.51
2316.05
1506.28
1174.66
1183.96
2125.76
7719.34
39634.6
139617
204265
196736
615454
369053
492.069
2082.37
42141.1
217466
403925
518964
585374
603502
586210
581322
589754
579540
594687
570204
579723
553343
566536
552910
582226
580835
621737
619279
662859
604898
585949
533499
611673
664749
718923
797937
53679.6
277274
224847
50630.7
28780.9
49607.1
71734.3
179616
171260
142372
73159.7
67862.4
41144
25910.5
107614
150653
325499
336563
258275
346045
433358
411872
247924
105131
20415
6946.31
10274.3
38540.6
653359
704752
190608
160079
215468
246521
268303
281455
288300
281053
267433
226697
180247
119011
71988.8
50954
48596.5
61374.8
56430.8
50349.3
59325.2
44636.9
73480.7
15584.4
56133.7
219188
264123
227906
83037.4
2490.07
131625
546584
50454.9
161305
143923
288112
292068
243565
123917
51763.4
67304.3
114550
286404
355693
312815
138668
48658.3
11719
19090.8
13146.9
60663.4
353931
293906
66240.5
14213.4
18804.5
230175
405005
161374
39663.7
531493
480198
169116
68411.7
215721
59375.7
32919.8
13685.3
12041.3
10684.9
11118.3
12039.2
15425.2
18182.2
19548.7
15758.6
11400.5
8327.45
6776.44
6270.56
6229.43
6186.21
6336.91
9139.57
35570.3
95985.7
205291
418538
282088
181550
198654
97168.2
78979.6
72021.4
16231.4
1463.43
8768.96
257786
605152
527586
266695
262212
340026
428935
536379
668144
732957
809442
911520
1.1525e+06
1.22151e+06
1.35473e+06
1.4823e+06
1.48843e+06
1.36383e+06
721484
99084.6
1994.1
5299.35
540234
945566
277179
327255
214241
59204.7
22283
403100
752984
951053
846621
941755
1.04833e+06
1.02694e+06
1.05311e+06
1.16437e+06
1.13371e+06
799353
391854
368444
278334
4017.43
31.8831
1.75364
0.00853714
0.0532813
0.242476
2.4322
1.85747
0.0815728
0.174943
185934
649321
678406
1.09316e+06
1.01188e+06
657756
766704
718465
1.01421e+06
1.03701e+06
1.06492e+06
1.26644e+06
1.32674e+06
1.33373e+06
1.02628e+06
807913
716509
686910
776471
960708
869834
458199
170586
277325
505370
919645
720273
407799
242094
212604
159245
329812
282209
568937
895786
999138
962268
994965
1.15435e+06
1.35574e+06
1.54284e+06
1.49902e+06
1.4764e+06
1.36094e+06
1.35996e+06
1.25102e+06
1.4095e+06
1.41678e+06
1.38369e+06
1.04447e+06
467218
107342
50224.9
48583.1
52544.7
68465.7
71419.6
59664.3
54701.1
52379.3
48255.5
379058
419121
388428
366764
348271
330276
321539
318066
360817
436297
456602
508547
594541
584800
855702
575864
146069
116097
329016
673524
712735
704311
703276
708672
712173
707858
699165
690849
682627
663121
647518
619062
596535
546334
504731
446080
408533
294064
97225
27267.6
58322.4
34833.9
32418.7
616539
486948
157029
346505
404236
441688
322383
168896
114756
81906.5
47448.7
25126.9
13719.3
8582.65
6457.29
7161.41
25850.4
171238
273203
132889
88927.3
65506.2
109342
126126
382142
650156
927968
882179
777039
725073
607878
777939
156432
243627
227154
150535
67075.4
42526.5
32987.3
16439.2
24110.8
28999.9
32856.7
43995.1
63308.7
92183.6
98054.9
54485.8
18898.1
5222.66
1773.12
902.528
660.9
843.496
2311.82
11848
65324.6
156710
164475
173198
662179
131333
175.467
289.233
3375.19
26091.2
95229
223071
336933
387125
393923
411429
469762
453347
534634
501326
494066
462996
454728
413375
459954
431792
515794
501067
569576
489806
466733
449206
612519
668133
748200
727210
54646.3
204141
172805
143687
237132
356191
326275
213499
196947
203827
65736
35243.3
42331.8
22824.2
37528.4
149323
201260
230244
179600
99107.7
176162
125054
99547.1
19971.3
9944.54
7933.8
13129.5
70128.8
601656
719456
130332
139271
190304
224344
241017
268704
265323
268406
254145
236925
210973
176149
137965
91041.5
69553.4
55202.5
40452.1
24026.7
13325.2
16683.3
21071.3
22073.9
30584
120227
135724
30408.6
1634.75
217.02
70536.8
385936
29421.1
132661
118520
266219
269116
249627
139521
87644.2
87061.4
248807
411154
462727
416454
227166
45272.9
11473.6
17576
15386.7
23612.6
201371
300093
42412.3
2065.96
5137.79
21619
290952
117538
27657.9
559465
639800
42591.1
25785.6
165906
91076.7
31848.1
22068.3
19682.5
23358.9
29818.1
43667.6
60491.8
79709.9
75879.5
50743.6
27645.3
16347.4
11838.8
10535.8
10296.1
10219.1
9980.09
10410.4
25787.7
94801.2
178841
370930
350893
313208
427913
217021
33906.4
57356.3
24866.7
2990.11
726.461
18240.3
406269
574190
335957
299754
402630
592812
634241
754623
931636
964113
980666
1.1674e+06
1.23424e+06
1.40686e+06
1.52609e+06
1.61608e+06
1.42119e+06
411243
1525.76
1.53841
1.9931
1538.66
1.16766e+06
478587
298656
306237
82320.8
32062.2
28951
246718
746957
953235
1.04521e+06
1.07424e+06
1.04967e+06
1.05273e+06
1.12251e+06
1.3316e+06
1.03877e+06
570132
616209
454504
12037
83.1702
3.92656
0.00493902
0.0138418
0.0323089
0.139855
0.251051
0.211714
0.812259
260815
723199
263108
702130
543196
582280
520685
982066
888477
1.06269e+06
1.01112e+06
1.0847e+06
1.20641e+06
1.40341e+06
1.03873e+06
740069
655981
655904
774699
871540
256325
70604.7
71694.4
69025.2
154750
416156
888029
603149
366348
315726
267468
442281
325318
783171
1.03709e+06
1.02e+06
990629
1.08766e+06
1.32078e+06
1.51897e+06
1.62694e+06
1.48114e+06
1.47448e+06
1.33341e+06
1.38246e+06
1.39679e+06
1.32534e+06
1.43644e+06
1.38965e+06
1.34656e+06
864296
239107
55914
44470.4
47927
62713.5
73545.8
66362.1
68553.4
71460.9
96166.5
398069
399613
380687
369832
367545
376033
370220
375001
411173
462415
518510
659295
757729
690109
761677
831008
713374
299509
132345
85980.5
255145
539348
705304
738034
748986
764692
779233
785363
779898
757014
729830
696971
664575
625124
590162
545449
514594
449310
194068
55477.8
90324.6
109243
156210
66906.1
42234
74767.2
627267
816742
40705.1
90185.6
349332
471023
405032
376474
222378
112877
46958.7
24358.8
12134.8
6131.26
4247.67
6897.54
45755.5
125506
151299
103925
59079.5
42032.6
53037.5
287825
336088
458527
692039
916458
890007
800816
768548
441668
714410
796680
282002
341446
361976
229835
125656
72400.1
22334.4
13943
8833.97
5381.17
5181.84
5589.25
2798.04
3120.3
3866.54
4693.5
3535.71
1838.18
726.955
343.627
249.402
326.45
815.263
3339.17
15901.8
47031.1
154157
276067
380094
342034
621330
288676
248.154
81.9475
105.842
192.716
343.159
672.073
2966.37
6587.34
8331.36
9537.19
7989.21
9106.93
6468.36
5501.94
4640.74
4463.99
4038.34
13967.5
14766.9
66326.5
82427.7
229861
228443
335872
323560
332968
450737
621177
646758
608287
869971
454867
5893.37
54125.3
233413
305287
385828
531956
572192
567541
505962
232790
123908
119412
66385
22737
20332.6
55887.2
68825.7
219297
153944
111455
55422.1
13982.1
21197.9
13986.2
11662.3
9232.89
10722.2
21431.9
163195
435125
695082
718423
130694
88227.4
118478
161907
202555
228342
252136
268440
267387
264777
244056
228358
205176
178469
139663
98962.2
70470.4
46861.6
26445.4
11271.7
6222.65
5277.12
5538.36
12221.7
23585.6
8130.31
208.17
50.2773
2379.98
43083.4
777046
485871
7347.15
20334.6
115404
91548.3
157553
231292
226368
201186
126531
141705
228246
328394
391525
359751
181873
47770.4
12472.3
20383.5
17226.8
25829.5
173882
323120
32582.3
2397.26
693.14
1526.87
201509
108859
22005.1
53150.7
508394
409016
39042
20551.5
723.615
71196.1
118912
50334.8
26945.5
26459.1
29919
42703.5
64135
89245.5
107087
94413.6
60856.2
35114.2
20513.1
16363.7
15684
16382.8
16453.1
16775.4
16438.9
24418.3
99434.5
173300
309792
358259
201591
30591.1
214241
80847.8
639.052
2625.71
19307.6
29368.8
13047.5
1229.41
597.74
18767.2
200359
343302
371276
477565
460709
613525
694874
667791
927825
795668
944211
1.22874e+06
1.40785e+06
1.53365e+06
1.60653e+06
1.26184e+06
136729
23.3785
0.035395
0.0958537
2.00428
919.107
3297.87
12549
17.2705
95629
336309
342157
112978
51329.6
51546
175790
501191
854653
1.07071e+06
1.13856e+06
1.10466e+06
1.21381e+06
1.24343e+06
1.21891e+06
700455
942788
713828
23888
92.2702
0.323686
0.00322981
0.0119641
0.0164672
0.0511177
0.233804
0.945596
4.43447
13301.7
83701.5
279.516
0.407704
4264.08
129940
347127
307411
655594
731008
1.02072e+06
982864
880864
954183
1.10203e+06
1.32845e+06
1.05644e+06
755350
658428
677043
895597
539390
92405.3
53921.8
47397.3
49780.3
75841.8
196456
658706
771940
504774
478522
806780
939479
483761
7413.03
407543
1.0081e+06
1.09186e+06
1.01146e+06
1.01746e+06
1.15733e+06
1.43133e+06
1.55848e+06
1.61006e+06
1.38163e+06
1.29299e+06
1.10082e+06
1.11717e+06
1.25879e+06
1.35158e+06
1.45747e+06
1.22798e+06
1.40649e+06
1.21322e+06
491137
94432.6
43428.6
42043.1
51962.9
72879.1
82259.7
115277
164351
266223
77478.9
49361.5
428056
389403
375321
380286
406323
422883
434717
438591
462142
485896
501688
578572
682600
732687
662577
659221
566649
317544
104507
88158.2
154141
329537
530814
651087
712073
736892
748946
762473
770650
776127
752203
715214
685141
633167
600342
521078
331912
99354.2
59878.8
129588
265459
204111
188109
160124
117792
142815
207725
249831
34672.2
33192.8
142568
404269
505416
393254
270650
108150
31257.8
9788.99
4455.12
5932.81
12043.1
34003.1
57627.8
72295
60792
40962.4
22581.1
14768
44970
241787
491552
473602
772809
900638
874938
811360
722295
286671
322966
418950
396479
415015
344973
238316
111030
46717.5
26875.3
8751.75
4084.35
5096.79
941.517
1488.56
273.083
118.709
109.756
112.24
98.1319
76.4959
62.442
66.6542
110.18
281.229
969.758
3524.61
49648.3
179573
221732
136196
22589.8
4457.47
2214.95
680.87
70.0582
30.2555
29.4512
42.8191
60.4087
68.0214
62.5093
50.8046
39.9919
31.0138
28.6078
31.8955
43.8097
60.6345
90.3641
111.519
123.811
118.295
287.979
3237.7
5907.76
51465.1
61420.7
173074
254796
352382
546995
641110
592758
414600
181863
6934.8
1375.16
73161.4
299068
525338
790255
910930
930796
809985
605884
454280
236798
81903.4
43926.4
92376.6
34524.7
51374.4
91181.1
109175
175853
73248.6
59041.9
6478.91
7368.72
8817.57
10100.9
12543
20330.3
82699.6
251611
227177
300901
161104
67994.9
68592.5
107688
145631
186005
229693
256570
290565
302695
300805
350373
303879
322670
214054
184605
144445
102839
67100.8
36814.4
15651.1
5128.39
4388.98
1726.05
3427.49
5209.17
1267.44
66.3879
8.83351
15.4348
3537.49
5024.38
2681.94
3456.76
21374.6
98716
112692
140500
197899
235638
220239
165791
189177
235359
296569
287072
241437
156336
52330.8
16164.9
24443.4
20792.7
33823.8
169956
363780
71021.3
1940.93
412.035
129.467
14464.6
120518
27419.2
11045.6
23535.6
110556
158524
23111.3
2926.32
3060.72
85107.3
79504.5
39776.4
28030.2
30023.3
35310.1
47384.7
57947.2
58802.9
49167.8
36631.8
25392.1
19403.2
19011.4
21284.6
23784.5
25238.9
27525.4
29036.2
29390.5
108928
195415
297611
317055
101919
475.544
59.8566
46.5184
43.3982
853.816
9598
21447.7
16685.9
6020
579.218
1009.86
4988.19
67803.7
253123
389605
480753
444765
478842
356646
519281
331839
867130
1.15191e+06
1.40262e+06
1.47777e+06
1.50838e+06
840113
55942.4
1.55163
0.186759
0.654254
0.179138
0.226105
0.0517055
0.587698
527.332
136455
716863
750025
651493
364095
161089
119912
193436
414564
752486
945570
1.10382e+06
1.142e+06
1.14668e+06
1.18982e+06
1.01505e+06
1.13516e+06
946268
42253.8
20.649
0.00178814
0.00135489
0.00757241
0.0262425
0.0842566
0.361153
2.14528
49.5147
172.014
0.248356
0.00153745
1.12911
9417.4
240851
254883
404244
415563
834874
904254
966467
898874
1.03065e+06
1.12055e+06
1.15783e+06
1.02897e+06
798155
711509
799178
1.04889e+06
323760
116091
86862.2
41856.3
29826.6
66726
120672
580015
830990
613870
601971
943691
750784
58822.4
3279.38
552666
1.16302e+06
1.08947e+06
1.00248e+06
1.02994e+06
1.16819e+06
1.4561e+06
1.55861e+06
1.50663e+06
1.29442e+06
1.04352e+06
805821
879817
1.13249e+06
1.27944e+06
1.47583e+06
1.19487e+06
1.24683e+06
1.38616e+06
814522
208561
55917
39320.8
40876.9
56022.2
66703.1
96930.7
135626
129426
41496