/*--------------------------------*- C++ -*----------------------------------*\
| =========                 |                                                 |
| \\      /  F ield         | OpenFOAM: The Open Source CFD Toolbox           |
|  \\    /   O peration     | Version:  2.1.1                                 |
|   \\  /    A nd           | Web:      www.OpenFOAM.org                      |
|    \\/     M anipulation  |                                                 |
\*---------------------------------------------------------------------------*/
FoamFile
{
    version     2.0;
    format      ascii;
    class       volScalarField;
    location    "0.004000000";
    object      Xi;
}
// * * * * * * * * * * * * * * * * * * * * * * * * * * * * * * * * * * * * * //

dimensions      [0 0 0 0 0 0 0];

internalField   nonuniform List<scalar> 
12384
(
2.25084
4.99814
6.14068
7.17842
7.2817
7.03542
6.18613
5.50337
4.95152
4.83484
5.19409
5.78674
7.91376
6.89582
20.4775
28.6261
34.2154
38.5084
41.0388
44.27
45.5887
48.4095
48.6475
49.5591
48.1358
46.3543
43.1969
40.4522
36.8089
33.9275
31.0933
30.4107
32.4204
36.3913
35.6607
32.7584
29.9262
30.2852
30.9767
35.439
36.5123
30.3032
20.2673
10.2856
41.6367
80.8054
100.734
115.974
126.145
126.487
120.228
117.21
114.36
115.08
114.447
112.733
110.617
105.476
100.505
94.8003
89.0319
83.1318
81.3422
75.0622
60.2185
37.4109
27.3103
20.7442
19.672
17.619
16.7292
15.7832
16.0245
13.9567
50.2148
77.4425
96.8421
110.388
121.555
129.925
137.397
143.836
149.85
153.567
154.59
151.612
151.582
148.871
150.067
148.97
147.902
145.841
147.063
144.277
140.49
137.303
128.016
112.239
83.3165
65.9358
53.2469
46.11
40.6882
26.8137
47.0248
60.0858
66.2045
72.2302
80.5494
90.1086
97.7772
108.13
119.915
117.333
123.46
118.151
114.023
116.024
113.802
120.613
126.175
126.664
137.43
120.639
125.131
106.144
102.329
81.6803
64.1382
47.0692
37.6414
32.5364
26.0057
19.568
38.7598
50.849
55.4959
64.9186
77.2071
88.4819
98.0058
103.296
107.039
111.234
114.725
119.358
123.612
130.81
137.19
144.608
152.241
160.029
166.11
170.189
170.411
169.919
170.972
165.186
157.903
145.714
122.329
73.2509
46.2124
32.4815
38.1588
51.7579
58.362
64.0056
78.1611
88.8289
86.7655
79.2492
79.3974
78.9573
74.654
67.4652
66.156
71.4489
74.235
85.7484
91.9449
99.731
102.232
107.676
108.902
105.75
109.958
85.9662
75.155
66.7102
57.536
62.0661
58.3887
43.7027
18.8612
31.9097
39.5729
48.6153
51.5091
37.8879
39.3954
44.3433
55.0992
82.9864
95.1083
111.138
125.619
131.088
126.375
119.733
107.613
93.792
83.9635
75.7771
70.7674
66.6422
68.4365
65.895
70.9034
66.4957
60.9343
52.7868
41.6189
26.9121
4.137
6.80165
11.1118
20.2785
27.4372
35.1453
38.535
50.5152
63.8542
84.894
95.7376
112.888
122.61
127.738
131.966
131.203
127.919
120.377
111.292
97.7949
83.5116
65.6448
47.138
33.0947
20.1297
16.1158
10.6208
8.35515
6.3295
4.17096
4.23159
5.46861
6.24651
6.89833
7.7336
9.21555
10.8833
12.8692
17.7425
28.2207
47.1593
63.2692
94.3204
107.345
130.478
152.618
120.094
110.978
102.372
93.318
85.5806
80.0325
76.2527
73.8969
71.7908
69.8112
67.6183
64.9202
52.7406
36.5793
3.27262
3.23767
4.39046
6.44094
8.38188
9.87979
18.5045
26.2357
59.9225
62.8228
92.4939
97.0348
92.2673
94.3522
90.1106
87.7281
85.3407
86.3213
89.9938
96.8092
114.388
144.948
184.262
193.126
180.589
179.455
173.947
154.825
107.614
56.4161
4.26072
4.53542
7.2918
12.0823
17.6245
27.661
36.4738
64.3989
61.1673
77.2093
85.4284
88.2132
88.1694
83.9906
78.9102
72.5576
65.611
58.0273
50.362
42.4059
34.022
27.8678
16.8523
9.80906
6.653
5.7797
5.17592
4.77901
4.17021
3.19753
6.37707
6.88766
5.72173
7.38164
9.82579
11.6147
12.608
12.9011
12.9302
13.2348
13.3535
14.0146
13.2894
13.2829
12.1357
11.073
9.08892
8.02768
6.97201
6.09199
5.59463
5.13701
4.89511
4.81918
4.84425
4.78154
4.72839
4.4865
3.9196
3.25907
3.66193
7.58776
9.63177
11.7567
13.9416
15.4424
15.402
14.0211
11.5935
9.78911
8.95721
9.94984
12.2046
16.1576
25.2182
25.6682
30.2089
34.6728
37.7348
41.8666
44.5641
49.1657
52.4327
57.3249
60.3522
62.974
63.2033
61.0653
57.4144
51.4343
44.4801
38.5319
36.7612
38.2506
41.6011
41.7444
36.6356
33.022
32.8321
34.4483
39.4927
39.5962
29.3486
19.3072
66.8781
111.347
129.269
145.061
161.189
175.579
187.115
196.051
198.792
200.903
201.177
197.857
195.423
191.343
185.76
178.927
172.69
165.449
157.765
153.949
132.698
99.9761
67.5503
44.1996
31.8987
25.4918
21.7039
20.3342
21.8193
25.3935
60.8287
86.9437
107.457
121.865
135.29
147.014
159.236
169.87
180.354
188.017
194.518
198.519
201.585
203.524
206.029
207.386
202.991
199.292
193.149
179.071
167.451
153.661
137.003
117.171
96.6621
74.6434
61.3131
53.411
48.5226
42.237
44.1431
46.8165
54.0818
64.0099
75.538
86.8626
99.6938
108.52
118.709
124.698
129.327
129.433
126.561
124.474
123.607
124.792
124.86
128.107
127.308
120.336
117.455
107.702
106.889
95.6318
84.9791
66.1145
53.0978
39.1622
30.0966
33.6543
64.4027
62.6519
71.744
79.7291
85.334
84.6934
85.8757
87.7855
87.8768
89.8811
87.328
92.1687
94.3947
99.0157
112.127
115.257
133.844
136.405
155.6
156.465
165.648
159.397
159.768
157.044
166.842
169.069
150.282
109.66
72.851
69.892
52.2615
50.9556
55.9459
62.9147
73.9538
74.9053
68.1927
63.594
63.172
63.2853
66.0355
68.4459
75.4188
80.6807
90.5899
100.44
110.989
123.351
132.168
141.136
149.916
157.072
158.869
134.316
122.973
100.455
88.1364
81.3614
88.3688
84.9705
36.623
44.3305
63.9823
76.1153
78.067
94.8371
89.3654
104.107
116.577
149.035
154.124
151.139
147.492
139.181
125.796
109.871
89.463
75.9979
63.8569
57.7197
53.7612
53.1608
53.8948
57.4677
62.3758
68.9146
75.3944
78.3437
75.937
69.8697
7.93895
10.682
25.3162
50.7345
74.7674
94.7424
111.211
129.046
146.34
193.231
203.279
220.534
219.841
206.952
197.297
184.578
169.672
154.643
138.044
121.356
103.661
84.775
64.5369
45.305
26.5601
16.4624
9.17351
6.23109
4.5709
5.85336
6.78996
4.95086
6.97746
10.2576
15.5054
21.8956
32.5492
52.4414
76.9073
107.01
137.229
157.881
176.204
185.916
179.476
181.075
141.662
127.161
103.444
90.9401
79.4866
72.0007
67.2039
64.799
63.3752
59.8502
53.6872
54.9469
57.4454
53.7194
7.92992
7.96976
17.9602
30.5921
49.5134
64.1197
105.52
131.098
164.024
170.646
164.127
141.814
124.706
109.217
99.2132
91.741
87.0011
86.0501
90.0722
103.403
128.321
190.748
215.097
236.011
265.509
272.483
268.727
251.076
214.741
153.858
16.9372
21.4729
43.2726
61.4303
82.7365
114.492
129.847
166.355
168.674
165.796
148.703
133.156
118.813
105.619
93.5819
81.6564
69.9128
58.75
48.5734
39.258
30.0082
21.1591
12.1661
6.75233
4.27218
3.67286
2.96482
2.60052
2.4803
3.88106
15.2766
10.6141
13.5682
18.8448
23.6735
27.2694
28.7005
29.327
28.629
28.6098
25.1707
21.9207
17.6456
14.4172
11.3566
8.63269
6.5649
4.92416
3.89823
3.26327
2.81361
2.51687
2.3426
2.2668
2.26275
2.53738
2.51403
2.62534
2.40848
3.77842
6.07865
11.1619
12.5542
14.0795
15.6067
17.5024
18.76
18.5369
15.436
12.063
10.0651
10.285
14.3151
23.266
24.2121
31.9336
43.0174
49.4235
49.186
50.6228
48.0884
49.831
50.5898
54.1096
55.7058
59.4113
60.5085
61.2842
57.9156
52.6482
45.3909
38.9546
34.8457
35.274
39.9743
41.948
40.136
34.1894
31.7982
31.1901
36.6378
40.8086
34.6933
23.8291
81.6181
121.029
133.858
145
153.87
163.853
173.897
182.141
186.671
190.271
192.203
192.146
191.773
188.084
185.393
181.76
177.389
172.463
168.225
162.751
156.746
129.577
101.997
66.4631
43.2567
29.2513
22.591
19.8201
22.3746
29.6907
77.6165
113.491
118.754
123.994
127.654
130.171
136.394
144.372
154.583
162.634
172.925
180.271
188.249
195.073
200.066
201.738
202.89
200.781
190.734
179.981
169.389
158.819
147.017
132.78
115.343
94.3384
73.1423
61.9301
57.9682
57.1215
49.6052
55.8046
65.5279
78.0736
89.9821
101.066
105.428
111.756
114.951
117.103
119.661
118.603
114.14
109.525
107.011
104.477
105.376
104.656
109.043
102.873
102.201
96.9402
96.3795
93.5889
85.9833
76.807
61.8605
49.0349
36.0007
42.6512
78.9844
74.9177
82.0067
86.5016
84.3297
87.4441
98.0735
106.539
100.751
98.5794
88.7859
86.5943
80.6483
80.2726
83.6102
86.1787
94.7067
96.828
107.431
109.523
116.573
119.501
117.247
122.61
130.887
145.555
156.327
130.787
89.4608
82.1568
60.8235
55.4535
61.8677
69.9333
75.1618
69.3644
64.7457
63.9628
64.1542
65.4207
68.9599
74.2628
83.8413
94.6693
104.152
105.803
113.958
121.652
128.473
132.587
140.207
131.979
144.85
119.257
116.999
103.197
89.2752
83.0145
95.4942
94.8426
47.0539
58.9798
81.1171
82.8944
89.097
89.6757
94.5939
109.847
120.828
154.668
156.134
154.517
149.465
143.352
136.859
130.965
109.104
87.5512
72.923
65.5692
61.9538
61.3177
62.5186
56.7808
54.8606
53.728
58.8262
70.6814
79.4192
72.0245
12.7082
16.4281
35.6738
57.0473
81.9795
104.579
125.241
139.613
174.36
201.466
223.786
220.758
216.471
208.448
198.14
188.548
177.098
165.633
153.575
140.58
126.298
110.127
91.1684
70.06
47.3913
29.5456
15.2463
8.34083
5.62327
8.00124
7.85965
5.48244
7.96876
13.0054
21.4813
27.9761
39.2118
61.1725
84.9089
112.78
132.9
140
149.679
151.981
134.564
140.403
106.587
101.718
86.6828
81.1874
76.8245
76.2435
76.8387
77.7824
77.5469
72.7179
55.7908
40.7596
52.3696
51.9724
9.00884
9.17251
19.9221
30.4677
49.3934
60.343
98.1214
104.193
136.874
128.604
125.228
112.996
103.59
98.8448
96.1347
95.8574
98.5996
103.249
113.519
134.315
189.994
232.693
256.422
262.725
274.373
279.984
280.338
269.505
245.025
199.685
25.6124
31.1993
51.3801
71.6416
91.658
122.048
135.328
173.221
158.643
156.7
144.544
130.605
120.356
111.237
102.675
92.4658
81.5104
70.5252
59.6519
50.4644
41.5477
33.3494
22.7203
13.8531
7.36393
4.46128
3.53278
3.26985
2.78285
4.93288
20.9075
13.171
16.9051
22.9864
28.0007
31.4881
31.5755
30.4116
27.0147
27.1217
25.739
24.159
20.4878
18.0401
15.5338
12.8125
9.53647
5.8008
3.88107
3.14318
2.77222
2.53732
2.37983
2.23239
2.0967
2.02935
2.22683
2.5302
2.54171
4.2745
7.69553
12.2674
12.9731
13.3867
14.0891
14.9695
17.0603
18.4054
17.9049
14.3905
11.57
10.9259
15.4621
28.5872
27.8034
44.421
62.4796
66.9829
62.7477
53.2861
46.5404
43.146
42.2328
41.0228
41.021
41.8278
46.0381
49.7537
51.9925
49.245
43.5907
37.0715
32.6544
32.7395
36.7151
40.4277
41.769
34.5135
30.6389
29.9445
35.5991
43.3647
41.283
28.7122
89.6184
111.967
116.807
132.451
135.959
140.346
148
156.332
164.129
170.519
174.994
178.321
179.462
178.785
177.917
175.084
173.049
170.312
170.405
170.595
165.008
157.036
132.232
96.1716
62.7717
38.5336
25.6462
21.3071
23.8087
33.8868
93.6351
121.66
124.197
115.239
110.553
109.442
112.256
115.975
122.443
130.55
137.881
148.342
156.454
167.39
176.317
181.983
189.106
187.106
182.85
174.915
166.609
159.218
152.796
142.441
127.088
107.125
85.3626
70.6283
64.4844
67.8286
60.4124
70.5853
85.0776
100.694
108.361
103.69
101.792
96.1969
98.7149
98.9053
99.7036
100.422
97.1117
95.1176
91.9958
90.4497
88.9219
88.4111
90.8018
88.8559
87.7117
88.0994
87.029
84.7425
83.3379
76.9566
68.2189
54.9059
41.5138
47.553
92.0522
88.2163
91.7254
84.3443
92.0751
105.153
114.483
113.362
102.953
102.182
87.1793
88.6655
82.3432
85.1247
86.5685
84.7837
84.8582
81.7035
82.2942
82.8538
86.9587
88.3109
95.6449
100.305
111.856
126.005
145.943
138.754
102.416
87.0111
67.9337
60.7334
69.2094
75.3057
72.8202
67.5394
65.2068
65.3574
66.3231
68.8511
73.3374
82.6043
94.4677
106.502
103.393
102.982
107.905
107.438
111.015
115.744
114.689
126.816
124.994
116.671
108.145
96.1466
87.1143
90.398
104.402
107.362
66.7034
78.7487
87.561
90.9004
86.5897
90.7157
98.7291
107.62
129.914
148.901
152.775
149.391
144.452
139.137
136.213
134.08
133.498
110.91
85.8029
73.1918
68.6305
73.0745
74.7574
68.9101
57.096
45.8423
49.8189
63.3353
85.3529
70.1247
18.6815
25.0004
46.4487
69.5569
93.6973
116.768
132.541
170.509
183.945
205.56
210.377
207.722
202.941
197.085
188.733
182.177
173.49
166.319
157.788
149.064
138.402
126.027
111.337
92.3059
68.0025
44.3678
23.851
12.5322
7.13288
10.7424
9.20334
6.88581
10.4434
18.4414
29.0895
34.3005
43.7466
63.5705
87.8605
110.622
119.354
119.873
121.538
121.385
101.95
106.775
82.1166
79.2482
73.1321
73.0897
73.4474
76.0424
80.9788
84.5689
85.8082
82.678
70.3848
48.2168
50.8608
45.9717
11.0888
11.2504
23.5361
35.6396
51.0174
60.1922
85.1651
94.9938
109.109
108.979
100.545
91.7234
89.671
89.0289
94.3163
102.877
111.665
118.883
129.665
173.57
228.442
288.9
289.866
272.791
253.693
252.596
259.443
276.425
276.086
234.136
35.0912
41.1325
59.5026
80.6142
99.6744
124.631
134.149
147.23
143.421
131.524
123.897
115.506
109.607
105.73
101.236
94.7069
85.7323
75.5922
65.3756
56.8423
49.0386
42.7015
34.4106
24.2437
13.7923
7.65775
4.92944
3.9623
3.76106
6.10062
26.3508
18.3105
23.6756
30.5969
34.9315
38.2138
33.0919
33.3898
34.1266
34.6276
34.6431
34.0485
31.9146
31.8474
32.7527
28.9773
22.8903
12.9555
5.86729
3.38593
2.89261
2.70668
2.58506
2.49259
2.36242
2.17368
2.02574
2.42181
2.72468
4.63047
9.25621
13.798
14.1914
14.4742
14.591
15.0948
16.1753
17.5905
18.3854
15.7731
12.7181
12.0585
15.9869
33.4633
36.3848
52.0939
76.3915
82.545
71.0474
53.794
42.7751
37.7226
33.7507
29.8024
25.9437
26.1047
30.8236
37.9134
42.5763
42.9529
38.4194
33.1763
29.2465
29.856
34.6242
40.9199
40.2649
32.5953
29.3488
30.482
39.7651
52.1087
52.5921
37.1882
94.6679
103.182
101.577
108.241
114.814
111.459
114.982
122.565
132.516
142.23
150.929
155.346
158.377
160.36
161.032
160.251
160.053
160.63
163.928
172.768
178.086
164.091
151.247
122.174
85.966
50.1197
31.1566
24.0942
25.8616
39.7436
116.665
124.456
113.753
104.324
99.3816
97.2081
102.884
104.669
106.852
109.805
111.924
116.983
122.475
131.498
140.654
151.226
161.049
164.28
167.316
163.582
159.43
156.499
153.598
148.31
135.628
115.333
93.381
77.6776
70.5662
78.8246
73.1783
97.2621
118.817
119.47
103.191
90.0563
81.1346
76.6781
77.1632
75.2974
74.7593
75.8881
76.4768
75.7479
76.2171
74.6131
73.1618
75.8033
73.9718
77.0095
75.6392
77.7853
75.5712
78.3976
75.2162
75.3937
68.9266
59.6291
45.337
52.162
105.056
104.522
101.036
91.6099
97.5034
114.66
121.361
126.007
110.154
106.828
95.4075
99.5183
97.3951
98.3651
99.7501
91.6369
88.0757
78.1675
73.8055
66.648
63.567
66.6912
73.6127
85.5005
97.3532
117.805
146.162
142.727
115.378
85.1029
75.4562
66.0144
75.3147
77.3249
71.946
68.8337
66.5158
67.7764
68.7004
72.8209
79.419
90.0702
101.395
111.141
110.157
104.561
100.87
99.911
102.711
103.705
112.958
116.287
119.255
110.667
107.826
93.5581
89.8054
107.126
110.622
119.141
69.9111
86.3049
92.129
90.1567
87.1548
92.525
98.2531
107.349
135.636
142.384
144.187
138.571
133.965
132.307
130.446
133.319
134.786
139.182
109.276
83.7168
75.4968
78.9646
89.1268
85.7909
68.7387
48.5515
49.4194
67.4409
93.5907
65.4833
28.2886
35.0793
61.3184
83.1599
100.492
111.875
149.986
161.78
174.482
183.09
184.811
184.864
180.112
175.3
170.736
166.902
162.517
159.238
154.548
149.953
143.054
133.667
121.743
108.813
89.533
61.349
34.7332
18.2102
10.0824
14.5358
11.156
9.29275
14.4234
26.0777
39.5193
42.5806
47.895
63.4414
88.7983
105.595
105.822
104.507
98.9937
93.9926
78.4344
75.2573
64.4594
64.6859
63.0154
69.5611
72.1807
74.9473
81.5453
86.6385
89.2018
90.808
85.6398
57.608
47.9928
38.8827
13.7901
14.5131
29.9684
45.1387
57.8602
61.7328
81.0103
84.9769
101.655
92.1375
85.0737
74.3765
74.7771
81.3555
90.1613
103.529
119.682
128.692
143.094
193.687
264.08
310.015
306.398
268.596
213.193
196.193
222.021
276.537
305.037
233.784
44.3518
51.1085
68.8685
88.9395
105.899
118.304
123.357
126.791
118.57
112.292
103.249
101.898
99.7573
100.59
100.699
97.3307
89.2052
79.6136
70.2157
62.9234
57.5933
53.592
47.5096
36.949
24.6637
14.1927
8.21928
5.84123
5.3551
8.40723
33.1071
26.5404
32.652
38.0883
40.4707
38.1223
36.7573
38.5799
41.1702
43.2024
46.7481
50.1103
55.4578
57.4597
58.8214
52.2062
43.301
28.5962
13.5629
4.77421
2.94567
2.73157
2.69325
2.7083
2.70713
2.4944
2.1673
2.14682
2.74411
5.20661
10.8951
16.0236
17.1963
17.9978
18.6342
18.4775
18.0261
18.023
18.1676
16.4869
13.6061
12.8818
16.3194
35.3521
44.4051
56.5827
87.391
94.64
76.0051
53.7196
41.2045
35.1053
30.6171
24.8599
21.2972
20.6286
23.9858
30.0878
33.9371
34.2515
31.1116
27.7523
26.4955
29.6618
36.2999
41.1833
34.7394
29.9029
29.6108
37.1938
54.2846
66.304
66.2451
46.6388
104.906
99.2382
88.9826
88.0209
91.7383
89.1924
85.1684
90.8276
102.168
113.235
122.862
130.786
136.098
138.805
139.544
139.608
139.893
143.835
153.149
166.025
170.593
151.747
144.592
117.202
89.986
58.4405
37.1226
27.3478
28.6521
45.1709
137.124
114.113
108.351
98.0449
96.3443
95.0351
103.682
104.535
105.656
100.785
96.8973
93.6257
93.3263
95.008
102.539
112.774
126.149
137.099
145.12
149.119
150.573
151.752
153.258
149.421
137.28
116.597
93.6694
79.2903
73.9579
86.8289
104.614
145.284
141.669
115.303
91.3388
76.7454
70.0263
66.1006
62.5321
59.0199
57.0487
57.8498
58.5092
60.6974
60.3546
61.2055
62.4032
63.743
65.6454
63.3376
65.8113
62.4771
64.8173
64.2823
68.0088
69.1652
69.0698
61.8183
48.7396
55.2053
118.9
120.511
99.4594
94.9739
115.819
124.731
127.102
116.427
108.331
112.105
100.946
111.288
108.164
115.627
114.205
102.004
95.5642
82.3418
78.3969
71.8528
60.7891
53.0436
64.0783
75.9766
95.9523
119.962
147.519
145.613
116.057
80.3434
82.9554
74.0664
81.2724
78.4749
73.1816
70.2106
68.534
69.6777
71.9427
76.2556
83.0769
91.9707
101.047
109.356
114.621
107.136
103.605
103.169
103.875
107.884
105.473
116.118
121.646
109.869
101.841
100.992
104.151
107.735
121.393
129.952
93.8179
98.1314
95.2534
95.7099
88.3544
92.8252
98.6937
109.145
123.597
129.932
119.451
105.228
101.292
103.408
110.136
131.85
135.492
140.016
142.397
100.067
78.1552
86.1141
100.784
96.2872
84.6812
57.1842
51.8116
76.8648
113.315
61.0368
39.6706
48.4151
84.6429
90.0766
97.6671
124.092
132.745
144.642
152.197
154.74
156.302
154.126
151.74
148.911
147.27
146.976
147.788
147.598
147.242
145.847
142.639
136.407
126.219
114.901
102.352
78.0172
46.6438
24.5439
14.305
18.3399
14.6433
12.9634
19.1158
32.8683
50.4953
52.1028
51.0906
62.1916
86.9365
100.696
101.687
93.3751
82.8336
71.5825
60.3366
48.768
51.5246
54.1862
59.3679
66.8157
70.3431
72.9099
77.5988
85.3297
91.857
106.91
119.863
87.918
46.2932
32.7556
18.1367
19.4025
35.1622
58.686
70.9387
70.5171
72.6484
79.5736
81.2264
76.7946
68.5377
60.7382
64.7574
72.3166
81.929
99.6858
126.961
129.493
142.773
213.127
273.392
306.084
311.731
272.827
203.859
175.276
202.46
277.587
326.138
205.078
54.9871
62.031
79.5927
97.7861
110.876
116.474
109.758
109.576
98.7863
98.1498
86.7678
87.2308
91.5754
96.6981
100.713
99.9163
92.8167
82.9006
75.9408
73.3472
74.5492
76.0688
71.1219
56.4819
41.1769
25.224
14.7927
9.57577
7.67937
11.136
41.5625
35.9552
41.142
42.939
40.8929
39.2104
40.7863
44.3652
49.0009
53.8536
62.7477
68.3747
77.2046
79.7114
76.8941
68.8681
60.46
46.2551
26.8244
10.1822
3.28304
2.65761
2.63769
2.75569
2.90201
2.87586
2.38878
2.21425
3.03355
5.30673
12.8065
19.8667
21.9753
23.6596
22.8099
21.4456
19.9048
18.3696
17.9328
15.8392
13.9608
13.8766
18.2244
36.1742
48.0255
61.003
95.8467
99.3441
77.7541
55.3478
42.016
36.6512
32.5355
27.9127
23.7498
22.3548
22.887
25.2701
27.2763
27.086
26.3991
26.0422
27.8022
34.1077
36.9875
37.0431
30.5405
31.4859
39.9263
58.9493
72.2395
79.0935
85.1273
60.2957
120.203
102.643
88.2202
76.835
77.1211
81.3528
77.1202
76.3711
83.498
93.8487
103.982
112.333
118.071
121.078
121.461
120
119.261
122.4
117.493
115.59
118.148
110.24
117.881
98.2731
85.5827
61.4531
41.7625
30.5725
31.8374
49.6993
143.078
103.828
96.3485
96.4714
101.18
107.768
109.363
121.984
115.899
107.253
98.3949
91.8654
82.9859
76.6006
72.7696
78.8781
94.0003
111.528
125.923
136.254
144.004
149.696
153.229
150.447
136.322
112.103
89.1425
78.9009
77.418
94.9497
150.212
171.692
153.878
118.186
94.4753
81.7643
73.6744
66.5703
59.5841
55.7119
54.9193
55.4658
56.5825
56.5576
55.9643
54.263
52.4105
50.2383
49.4832
48.2856
50.8973
51.2349
55.6301
57.0164
63.4083
66.9101
69.3847
63.7785
51.1855
58.8083
135.022
133.402
101.011
100.75
121.378
128.277
122.795
116.826
103.099
105.85
107.394
115.929
116.256
124.174
127.838
110.236
103.236
89.9223
87.685
88.3636
77.6092
68.198
70.6888
84.9329
104.877
132.083
149.606
143.372
120.871
72.487
91.91
82.0989
85.8239
80.17
75.1735
72.2394
71.0512
72.0651
74.3469
78.1565
82.8971
88.564
95.8857
102.887
109.232
113.161
113.853
117.795
122.069
119.633
120.863
110.788
126.462
115.268
104.059
102.308
106.429
118.456
143.288
149.767
104.964
104.384
98.8618
101.842
91.3615
94.0377
97.8537
107.558
114.34
105.647
90.9293
74.2068
69.6404
76.0084
93.1715
112.422
135.374
138.834
143.24
119.373
86.0458
90.5238
104.13
109.865
99.8471
76.4782
59.005
86.0634
117.372
63.0189
55.4986
68.5811
99.0979
92.9193
103.32
113.376
123.785
129.335
129.075
128.696
125.551
123.222
118.964
117.383
120.338
126.712
131.815
135.487
137.923
139.242
138.525
135.102
127.153
116.309
106.856
88.0339
57.8676
31.9521
20.6443
25.0716
24.0242
19.4308
23.8145
36.9572
56.5055
63.3749
58.1554
60.0597
80.7189
101.379
101.836
94.9474
86.0796
75.0398
62.7731
51.6379
50.7036
58.8886
61.4069
67.2916
68.9369
68.3824
73.5428
81.9686
99.7165
144.686
198.965
159.321
80.4556
52.6437
29.3176
28.8934
42.5289
64.6439
87.8452
80.2998
82.904
79.2354
81.6546
74.9335
63.6324
54.3287
56.0168
64.7509
76.987
92.3999
119.13
121.298
134.251
213.904
263.833
288.492
326.044
300.77
235.302
209.77
231.922
287.095
325.377
186.891
75.3965
83.1139
94.4773
107.766
118.493
111.078
104.756
91.7289
83.9627
77.6877
73.3323
76.2995
81.7388
93.5195
102.224
102.155
94.6804
86.0407
83.6297
94.4314
109.951
119.901
107.375
92.8193
64.9035
40.8287
24.8298
16.1307
12.0197
16.0865
48.1185
46.7688
47.4068
45.9446
40.913
41.8226
45.1671
49.9976
55.8224
62.0062
71.3248
77.0246
81.4329
80.8354
81.2758
75.1839
69.6354
59.0453
41.8171
20.2501
5.31226
2.57418
2.47322
2.63846
2.89748
3.20805
2.83294
2.48516
3.41423
6.17844
14.4935
22.7109
25.7237
25.0657
23.2887
21.8448
20.0845
18.8878
17.3077
15.012
14.2559
15.9822
25.4911
39.0034
51.5114
74.8411
101.08
101.399
81.3522
59.355
46.9032
41.0659
38.3604
35.8676
32.5242
29.4535
27.8531
27.3467
27.2148
27.2961
27.4684
29.3078
32.7151
36.9338
35.2371
34.9386
37.1225
49.9897
65.91
80.2988
79.9873
91.461
100.529
83.4897
149.742
102.364
82.2764
73.5985
67.4104
71.9642
78.8135
82.4762
84.998
91.9425
100.975
108.781
114.199
116.589
114.099
100.991
81.4565
81.0281
96.3428
105.274
109.771
106.622
105.853
92.4206
80.0732
61.7613
44.4466
33.2925
36.1233
57.0007
141.508
98.1211
94.7142
101.066
110.498
122.74
126.365
130.028
133.397
127.076
119.027
113.8
105.671
96.3105
86.5046
82.2352
89.5844
105.906
123.299
138.141
149.65
156.519
157.907
149.825
130.111
103.593
85.1587
82.0138
82.6341
101.872
189.077
180.548
174.881
148.559
124.779
107.555
94.2208
86.2788
81.8647
80.0698
78.1347
73.26
71.3147
63.4723
60.4382
57.0117
55.2502
53.8891
56.031
53.0942
56.2803
53.2077
57.6746
58.2067
65.4116
69.392
71.516
63.5512
53.551
64.851
151.012
137.738
109.902
108.852
111.138
102.39
94.8386
97.1064
103.031
103.217
103.942
119.586
123.972
122.711
129.824
122.698
104.858
99.9823
96.1244
99.815
104.422
94.2926
98.9981
104.237
128.804
142.725
147.897
139.943
112.514
65.2326
102.004
90.6267
89.7087
82.7724
78.102
74.007
73.5143
73.146
75.4255
78.1514
81.5438
85.7725
90.1185
96.1512
102.573
108.263
114.548
122.991
132.532
141.651
136.1
131.192
126.4
122.374
111.761
112.725
128.914
151.073
166.697
179.274
126.061
111.347
100.129
104.771
92.7515
94.0404
95.9872
102.978
104.708
97.4331
75.0589
59.6372
56.6017
67.0577
84.6355
112.148
135.972
135.892
141.141
131.642
93.3828
88.1409
112.568
123.429
109.647
97.7801
70.7983
87.3886
120.273
70.9646
77.4235
86.9541
110.961
95.0581
100.344
108.252
115.492
115.789
114.988
108.877
103.867
96.1967
91.9236
91.8406
99.7368
110.698
119.949
125.675
129.942
131.988
132.721
130.659
124.411
114.649
105.699
91.7588
65.467
41.4551
36.4193
51.4819
54.2951
40.7953
30.5621
38.4005
56.1
75.075
75.4217
67.0748
74.9666
95.1898
100.366
95.4334
85.3662
80.8465
73.5187
65.9558
66.0574
70.9807
71.1141
70.5762
66.5488
64.392
68.5101
80.5223
115.15
219.957
265.446
225.373
150.471
100.927
51.3168
55.731
51.3335
68.5743
86.1165
100.199
94.2559
87.1649
82.8146
76.78
68.6132
61.5877
58.3388
64.1294
65.0391
83.4128
109.418
109.544
124.454
198.1
252.796
281.655
344.93
336.285
286.637
272.39
273.043
296.152
306.326
170.785
100.381
113.633
109.056
120.947
120.718
115.784
94.6792
86.947
70.9118
61.719
59.0082
69.3931
76.4167
91.1345
102.911
103.176
94.3894
87.7065
96.686
126.215
134.943
124.233
117.91
104.973
90.9868
57.9964
35.4531
23.3891
18.6194
22.7929
61.8251
58.0328
52.6155
44.4482
41.9929
44.571
48.635
53.5153
59.6374
63.9796
71.2439
71.1216
72.3821
70.0252
68.9253
73.4091
69.26
67.0657
55.0164
33.0422
10.472
2.87141
2.26282
2.39326
2.69182
3.2679
3.40006
3.41719
4.84218
10.8407
16.335
25.7273
26.8805
25.3354
23.8077
22.6019
22.2312
20.7224
17.8113
14.9617
16.1046
23.2533
36.8789
41.6737
45.5575
65.8341
63.7401
90.7313
102.463
105.134
87.191
69.5907
56.8655
50.0527
47.1825
46.112
44.1863
41.2207
38.0472
35.0708
33.8936
33.1945
34.3874
36.0722
38.4549
39.3828
41.8819
49.2823
67.1837
84.1997
87.5754
90.9048
90.0299
101.112
107.32
110.11
123.662
120.521
127.08
107.603
81.2363
70.8648
71.0582
70.7662
79.8486
87.5777
97.8576
104.788
111.986
119.352
123.91
120.345
103.113
94.4462
93.0339
100.182
108.916
114.3
109.788
83.8338
80.8203
81.7374
74.4514
61.0385
44.699
35.5077
46.0237
78.535
144.083
150.783
90.2595
86.0581
91.0181
104.607
116.789
127.048
142.284
145.53
150.461
152.206
147.561
144.641
144.753
140.147
132.332
128.482
130.16
140.036
152.106
163.467
170.718
171.691
164.507
148.658
127.489
110.014
93.1384
85.9778
84.2131
96.0915
143.169
179.932
173.611
184.007
183.494
179.518
176.029
170.674
154.825
145.466
142.831
140.183
140.223
135.847
134.74
132.165
128.688
125.013
120.849
107.558
102.118
87.0728
82.5623
71.551
71.9126
69.3341
71.5951
74.2536
70.654
61.8516
52.1936
60.6465
112.657
175.04
192.467
142.02
111.575
102.262
94.8498
86.0519
83.3982
84.4672
89.1466
103.161
110.372
111.24
119.541
129.086
127.598
118.141
115.185
100.158
105.437
109.022
120.462
134.09
129.932
134.48
139.193
143.001
141.678
131.149
97.7426
74.001
106.622
114.875
102.404
100.014
94.1662
85.8449
80.6669
76.3734
74.6436
74.5698
75.2042
77.5536
79.9254
83.0199
86.2932
90.1211
96.2592
102.37
109.597
118.519
131.259
144.864
152.427
148.463
146.279
134.723
126.239
139.726
169.617
186.656
148.105
122.11
105.868
122.551
130.064
116.508
102.147
106.832
99.2052
95.4893
95.8609
96.456
98.7346
91.197
77.9796
67.5508
65.0113
72.5496
88.6771
111.939
133.653
134.235
136.19
126.996
94.3249
85.0085
114.756
122.749
124.716
115.186
81.5043
89.8703
120.602
127.151
126.755
124.006
100.065
99.6257
135.041
107.005
98.0882
104.102
108.467
110.081
106.606
101.473
94.2736
87.2583
84.2761
86.8218
94.829
106.02
114.313
120.436
124.154
126.148
126.438
124.474
118.551
110.149
101.172
92.2157
72.2061
58.9413
72.1604
98.7246
108.719
120.704
115.803
78.8436
50.0345
43.9642
53.9946
75.2238
91.6267
90.3846
90.6662
92.976
96.9986
93.5859
93.6175
87.7488
84.2115
85.2169
81.4611
84.8303
82.6917
71.947
64.6981
61.1461
66.4844
83.6334
140.664
267.254
283.365
243.72
198.82
141.542
214.177
207.323
199.845
100.92
71.3484
68.2169
82.1065
94.323
102.81
100.681
94.1325
85.0808
74.4903
65.1001
61.1839
55.981
58.9946
75.0729
102.505
96.3958
113.387
186.735
255.134
313.888
362.927
351.939
321.638
309.802
295.546
285.641
271.591
162.253
195.416
306.413
273.139
192.367
138.135
129.265
130.856
110.782
97.6638
78.0651
63.2948
52.1831
50.5811
68.4207
77.2851
89.5901
101.475
100.885
91.4066
88.6401
114.773
138.902
136.17
125.849
115.541
105.87
94.4733
76.0154
43.5985
31.2535
27.6734
71.0442
66.8274
125.572
136.074
68.4694
56.1959
43.4915
43.3312
46.3201
50.2654
54.5198
60.3053
61.6472
64.3276
58.2409
54.3994
53.313
58.0933
66.643
66.1903
71.7827
63.6421
46.9235
18.9944
4.60764
2.179
2.11746
2.36122
3.13371
4.58483
6.88282
10.3496
14.3787
3.81969
2.41228
17.549
24.8065
25.9698
24.9788
24.015
24.0111
22.8808
21.5239
18.4741
15.5547
15.6718
18.564
26.0199
33.334
38.5769
48.6012
67.6773
87.734
105.196
106.712
97.0861
83.1481
71.9282
65.0123
61.438
60.2851
59.9548
58.7912
57.0005
53.5159
51.5667
49.6319
48.7735
49.6835
51.1759
55.6303
66.5053
83.4211
94.8274
92.5222
88.3827
93.5553
95.4057
96.4506
99.4794
96.4156
89.9204
88.51
121.38
120.052
97.5236
75.9977
68.1602
72.3063
78.7596
92.341
106.237
118.72
127.5
126.487
122.318
115.612
112.095
109.265
111.98
118.676
127.254
132.164
117.844
90.5709
75.1847
78.8521
67.9373
56.3655
42.8261
39.1281
57.497
79.5722
83.0566
79.7184
79.553
83.3282
93.0115
106.497
122.892
136.711
145.331
159.46
165.094
162.004
177.977
168.189
184.536
187.852
185.686
184.352
184.763
189.156
193.904
196.528
194.368
186.153
172.31
155.856
119.897
100.221
98.5894
108.474
134.451
152.547
154.365
163.126
184.111
193.941
195.446
194.702
194.512
196.479
199.923
204.459
209.072
211.355
211.179
206.636
200.934
193.426
186.753
180.675
175.87
172.667
157.195
129.856
118.675
96.8624
92.2383
82.2641
77.5925
74.3848
66.4785
57.3993
55.0099
69.9425
106.69
179.193
210.951
138.848
107.897
91.1704
75.2935
65.6463
64.6762
73.2722
83.1895
91.9274
104.566
119.193
124.166
113.981
124.397
115.942
112.34
110.368
105.1
117.256
121.72
149.008
146.731
144.494
141.894
138.251
131.561
108.847
85.5098
81.8997
76.241
91.7009
106.978
104.834
96.7251
88.3612
82.0812
78.0705
74.7277
73.594
73.667
75.3089
73.1617
76.866
77.1495
85.0993
88.8079
95.0895
102.044
111.177
123.257
139.616
155.103
156.372
159.12
146.03
138.501
145.324
169.719
187.979
193.763
143.746
134.205
135.975
132.169
112.822
100.909
102.903
100.653
96.533
94.4206
94.8956
95.9701
90.2781
84.0431
78.9161
80.2565
85.1054
95.1353
113.255
133.224
131.259
132.327
122.12
93.7127
78.66
107.554
124.54
129.632
130.1
106.731
89.6043
118.454
143.583
137.019
101.56
91.0397
101.175
119.562
129.444
106.866
101.377
106.04
106.634
106.013
101.726
97.6311
94.3191
93.9569
97.0232
103.41
109.767
115.128
118.91
121.42
122.135
121.178
117.934
111.512
102.7
93.6801
88.5168
73.8569
66.7661
87.3256
125.738
132.264
133.056
135.029
88.3609
59.7859
50.9406
59.1597
74.399
96.6
106.131
114.272
110.695
103.186
99.094
96.9506
98.1967
96.9968
103.336
97.2163
101.479
82.4403
72.2184
61.3005
59.8034
67.1413
91.9627
160.365
284.901
263.181
244.144
258.553
262.44
302.365
302.602
199.424
114.176