/*--------------------------------*- C++ -*----------------------------------*\
| =========                 |                                                 |
| \\      /  F ield         | OpenFOAM: The Open Source CFD Toolbox           |
|  \\    /   O peration     | Version:  2.1.1                                 |
|   \\  /    A nd           | Web:      www.OpenFOAM.org                      |
|    \\/     M anipulation  |                                                 |
\*---------------------------------------------------------------------------*/
FoamFile
{
    version     2.0;
    format      ascii;
    class       volScalarField;
    location    "0.003700000";
    object      cSound;
}
// * * * * * * * * * * * * * * * * * * * * * * * * * * * * * * * * * * * * * //

dimensions      [0 1 -1 0 0 0 0];

internalField   nonuniform List<scalar> 
12384
(
1101.07
1129.57
1141.73
1145.89
1139.92
1126.69
1101.98
1079.78
1055.14
1034.67
1028.58
1037.13
1049.76
1047.97
992.671
1029.32
1069.32
1091.31
1102.82
1108.78
1108.68
1105.07
1098.68
1090.31
1077.73
1076.18
1062.9
1062.26
1053.13
1055.08
1051.36
1050.39
1046.67
1044.99
1042.57
1035.33
1019.95
1004.47
986.336
977.197
977.565
996.832
1030.54
1043.44
1098.28
1094.69
1086.99
1080.59
1074.46
1067.95
1062.16
1056.87
1054.35
1050.77
1049.74
1052.58
1055.48
1061.06
1069.71
1083.68
1105.07
1127.32
1138.68
1140.4
1138.85
1134.66
1132.2
1128.41
1123.28
1109.82
1079.11
1032.19
1000.19
1001.43
1100.88
1105.3
1107.14
1112.04
1116.71
1119.22
1121.01
1120.51
1117.24
1108.76
1110.73
1093.13
1100.93
1086.42
1094.12
1090.18
1090.01
1091.19
1091.64
1089.91
1089.13
1083.84
1076.5
1072.94
1076.67
1091.59
1086.32
1068.03
1052.42
1042.48
1064.24
1065.6
1068.15
1069.52
1071.13
1070.13
1069.84
1065
1065.24
1057.85
1057.35
1049.89
1047.54
1042.67
1036.86
1030.56
1045.4
1033.25
1053.87
1050.26
1055.01
1062.47
1068.9
1072.94
1072.01
1066.57
1057.24
1045.01
1012.33
1003.51
993.145
1011.18
1034.13
1059.37
1084.72
1114.65
1146.8
1161.46
1168.54
1161.61
1143.28
1144.08
1126.59
1129.63
1110.93
1116.13
1097.83
1103.99
1089.42
1098.34
1093.1
1103.82
1104.94
1113.28
1118.36
1125.14
1130.02
1104.1
981.018
957.83
1034.53
1026.15
1018.39
1033.85
1072.23
1105.74
1111.66
1084.98
994.325
961.762
977.083
1003.72
1028.76
1050.92
1068.9
1078.96
1077.74
1096.59
1096.17
1107.44
1114.12
1113.32
1125.88
1113.79
1100.37
1030.01
981.33
932.293
927.829
962.786
935.94
955.741
956.031
988.824
998.207
1020.7
1025.41
982.599
984.198
1065.93
1159.72
1173.06
1166.21
1151.73
1155.96
1155.23
1161.29
1162.99
1164.38
1165.53
1167.93
1172.52
1174.73
1174.52
1177.48
1171.08
1139.98
1101.45
997.978
976.325
995.296
986.808
982.061
979.832
996.409
1015.6
1015.21
1014.14
1012.92
1010.59
1004.4
994.622
995.869
998.138
1013.89
1023.09
1031.94
1059.78
1076.78
1081.1
1088.97
1085.47
1071.41
1049.18
1025.12
1007.02
995.245
994.055
1012.37
1059.3
966.99
965.691
978.816
996.122
1013.94
1025.14
1024.51
1004
972.847
949.082
944.416
941.692
954.428
970.106
979.318
980.469
986.067
971.458
971.383
946.974
950.553
945.2
949.561
955.611
965.101
967.4
963.082
953.138
951.272
979.171
914.814
921.672
925.79
936.786
951.363
978.574
979.857
988.717
976.913
973.94
964.337
960.632
957.174
953.621
952.711
952.113
952.468
954.752
955.917
959.048
960.459
969.808
977.195
974.264
983.5
979.362
982.685
993.959
998.385
1011.55
918.123
929.207
933.55
957.116
970.369
998.992
1011.94
1017.53
1017.64
1016.52
1011
1007.03
1007.03
999.481
987.284
977.503
997.6
982.179
992.947
990.603
997.087
998.484
992.291
989.329
991.88
999.909
1007.9
1018.41
1026.72
1024.97
946.662
951.077
971.312
990.271
1006.52
1009.82
1017.51
1011.41
1017.29
1012.8
1019.34
1019.97
1022.46
998.66
994.141
959.094
975.87
955.361
959.24
952.593
955.043
958.799
957.354
966.85
969.5
983.624
992.755
1010.84
1027.58
1039.07
1219.69
1234.66
1237.41
1238.2
1241.84
1238.52
1230.65
1204.11
1167.22
1113.61
1065.15
1039.96
1039.34
1044.97
1002.01
1077.5
1117.45
1134.85
1143.49
1147.76
1151.04
1153.06
1154.62
1151.29
1143.09
1130.88
1111.1
1093.1
1074.02
1066.11
1059.7
1057.87
1052.37
1049.83
1048.96
1048.48
1040.75
1023.07
999.167
981.918
977.678
994.923
1028.9
1045.42
1097.48
1095.15
1090.19
1083.86
1076.89
1068.48
1059.18
1049.69
1041.61
1036.32
1034.44
1035.83
1040.08
1047.1
1058.08
1072.3
1093.02
1117.38
1135.61
1144.76
1146.16
1149.61
1146.89
1141.57
1129.3
1112.69
1081.93
1033.53
1002.32
1001.81
1109.92
1112.59
1121.87
1121.31
1122.17
1119.51
1116.18
1112.46
1106
1100.95
1097.74
1089.68
1089.84
1085.37
1089.58
1089.77
1091.72
1093.22
1092.17
1095.15
1095.39
1091.15
1087.74
1078.08
1072.95
1090.24
1094.31
1093.53
1083.17
1052.33
1062.22
1067.29
1072.61
1074.92
1074.2
1071.52
1063.23
1058.16
1045.63
1038.36
1024.07
1017.12
1004.6
995.604
988.523
984.627
986.426
990.181
994.415
1002.18
1015.63
1035.05
1055.57
1069.92
1072.43
1068.9
1061.34
1048.63
1021.74
1001.09
1003.87
1028.07
1059.55
1094.42
1134.85
1160.99
1175.04
1173.78
1163.67
1149.65
1133.92
1132.1
1117.65
1121.91
1103.69
1111.52
1090.51
1100.81
1084.13
1093.16
1088.92
1100.12
1100.7
1109.48
1114.04
1119.97
1128.31
1117.64
1044.8
967.948
1094.62
1083.7
1067.03
1066.9
1089.21
1111.22
1102.85
1063.31
998.271
1021.65
1077
1101.98
1111.6
1120.79
1124.93
1132.62
1128.96
1137.42
1133.04
1133.83
1130.19
1140.82
1151.06
1160.62
1158.19
1132.72
1045.2
954.939
925.636
960.458
944.953
972.983
995.922
1012.53
1023.18
1034.08
1009.42
968.811
1027.82
1147.48
1185.42
1173.49
1153.76
1134.56
1136.19
1133.69
1128.78
1127.43
1124.8
1122.66
1123.87
1128.46
1140.38
1165.22
1182.44
1178.79
1158.57
1115.03
1027.46
975.359
991.726
984.524
979.434
987.928
1003.99
1010.45
1001.56
996.202
1001.18
1007.04
1016.92
1037.17
1069.23
1106.35
1118.31
1131.45
1143.59
1152.81
1161.12
1167.18
1174.5
1179.42
1178.14
1169.71
1151.86
1130.05
1080.35
999.285
955.492
973.272
965.802
965.936
979.052
1001.7
1012.44
1014.29
1003.39
977.411
957.951
943.745
935.702
934.091
925.665
937.506
931.999
950.154
940.288
945.692
924.915
924.366
944.999
976.543
1037.76
1069.62
1080.51
1084.85
1079.63
1060.38
969.957
893.275
915.829
923.508
926.831
941.148
955.096
974.385
977.992
981.847
976.057
974.006
969.908
966.254
962.215
954.395
946.271
937.472
926.855
915.209
907.537
900.24
899.086
893.752
888.538
888.697
886.022
884.999
883.022
880.871
892.02
902.575
919.21
932.047
935.361
957.459
969.594
990.906
1008.24
1023.22
1033.91
1043.61
1051.73
1056
1062.4
1069.39
1089.15
1105.23
1121.93
1116.06
1124.69
1116.35
1105.42
1079.96
1041.19
1003.7
963.8
950.089
936.67
935.172
947.079
960.128
942.908
959.187
970.413
997.529
1005.48
1018.24
1026.18
1045.63
1039.62
1050.19
1048.28
1044.25
1019.33
1029.79
996.415
976.373
971.988
966.227
962.356
962.196
960.575
962.174
959.057
962.757
963.141
963.895
966.476
967.568
988.519
1005.89
1249.79
1220.25
1199.64
1196.14
1206.69
1230.49
1253.65
1257.32
1246.49
1208.43
1152.6
1082.49
1043.39
1033.12
1019.02
1086.25
1121.05
1136.59
1141.89
1144.08
1146.52
1151.71
1158.56
1162.31
1163.7
1157.44
1144.31
1127.79
1101.27
1083.21
1071.32
1065.85
1059.72
1056.34
1057.07
1062.3
1059.15
1038.38
1007.91
983.963
978.938
994.012
1029.6
1048.36
1092.88
1082.48
1071.27
1063
1056.37
1049.95
1042.18
1035.43
1028.33
1026.16
1024.81
1027.51
1033.04
1040.6
1051.13
1065.5
1084.34
1108.29
1129.35
1142.01
1152.34
1155.7
1157.22
1152.96
1142.56
1118.51
1075.26
1028.14
1001.07
1007.51
1112.31
1126.23
1123.02
1116.42
1102.71
1088.34
1076.6
1065.27
1067.11
1054.06
1060.08
1047.86
1059.3
1057.54
1068.86
1076.8
1082.87
1086.44
1093.9
1097.63
1099.06
1101.33
1099.98
1089.19
1075.93
1077.53
1087.47
1090.3
1085.45
1062.38
1066.7
1076.52
1083.22
1083.58
1081.53
1074.74
1068.47
1056.77
1046.25
1032.07
1022.04
1006.36
994.921
986.66
979.121
971.212
972.372
975.183
975.356
979.273
987.177
1003.76
1031.49
1059.46
1073.54
1076.97
1071.36
1062.47
1038.37
1011.9
1016.72
1063.52
1107.75
1143.8
1165.13
1169.43
1167.1
1158.97
1152.62
1141.55
1128.51
1128.3
1115.83
1121.77
1107.89
1114.26
1099.08
1105.53
1094.16
1098.49
1094.74
1100.52
1101.06
1107.61
1108.97
1115.14
1123.78
1124.25
1084.78
986.899
1117.32
1111.9
1097.54
1093.28
1107.11
1109.36
1086
1040.07
1047.73
1095.82
1118.14
1136.5
1143.93
1144.64
1145.78
1144.45
1137.67
1126.92
1111.95
1101.36
1094.9
1106.8
1131.21
1152.72
1163.78
1150.09
1086.2
963.377
933.585
956.439
959.294
998.165
1018.25
1036.93
1047.16
1033.95
996.104
977.666
1106.65
1174.64
1187.43
1166.5
1146.8
1132.74
1132.24
1131.91
1128.01
1119.77
1112.18
1103.76
1095.16
1094.33
1106.05
1126.2
1155.24
1185.33
1174.69
1136.83
1067.97
987.637
989.541
978.548
983.057
996.704
1005.26
1001.5
987.085
987.079
1009.75
1053.33
1113.14
1129.18
1139.49
1146.04
1152.7
1154.17
1157.43
1161.12
1161.23
1170.44
1179.66
1190.27
1201.47
1207.86
1204.57
1190.3
1171.45
1140.59
1083.73
923.583
962.451
962.376
978.255
996.112
1003.25
994.609
983.21
967.326
956.888
943.915
935.574
924.466
914.453
925.669
927.868
957.359
974.895
1009.76
1047.96
1068.45
1086.32
1087.7
1103.4
1111.56
1118.05
1121.31
1120.67
1112.62
1090.72
984.161
915.141
923.594
926.042
939.754
948.36
965.122
972.315
979.498
985.931
996.427
1004.83
1013.3
1014.36
1010.72
1005.41
1004.5
1011.89
1024.46
1034.61
1044.55
1048.26
1042.28
1030.44
1014.98
968.99
927.43
901.222
873.412
859.23
858.099
919.977
927.739
935.975
950.916
970.625
995.757
1031.16
1076.48
1112.69
1148.17
1173.46
1184.2
1189.94
1193.88
1200.92
1193.49
1216.41
1215.53
1234.88
1240.54
1245.32
1240.38
1224.44
1202.15
1164.81
1084.91
1007.49
959.585
934.276
932.087
947.802
955.188
984.707
1006.79
1037.45
1077.54
1129.29
1164.15
1177.15
1189.08
1191.03
1192.81
1170.45
1154.06
1111.25
1063.84
1074.08
1049.29
1050.17
1048.59
1046.1
1041.99
1046.64
1059.73
1067.45
1065.03
1050.19
1003.74
961.466
960.571
1200.54
1150.45
1109.42
1101.07
1117.16
1159.76
1204.62
1243.64
1262.22
1255.94
1222.28
1157.97
1073.09
1030.38
1057.46
1101.63
1126.36
1131.7
1126.41
1117.96
1115.92
1125.61
1141.29
1156.43
1163.26
1163.81
1156.55
1140.96
1116.69
1092.05
1077.59
1069.79
1065.09
1062.36
1068.72
1077.04
1073.61
1047.11
1004.36
976.454
970.373
990.533
1031.14
1049.56
1073.86
1060.62
1048.42
1040.18
1035.6
1031.54
1028.35
1024.6
1024.41
1024.53
1029.65
1036.93
1044.93
1052.41
1059.97
1068.61
1082.59
1101.7
1121.46
1139.24
1151.31
1163.43
1168.68
1164.97
1147.47
1116.61
1062.05
1018.73
1004.98
1013.25
1126.44
1129.09
1113.1
1088.99
1068.98
1056.63
1052.22
1044.59
1044.42
1039.18
1041.31
1032.3
1037.52
1034.25
1044.71
1054.87
1067.62
1080.3
1090.78
1096.72
1105.15
1108.42
1105.33
1099.01
1083.54
1073.97
1076.89
1083.74
1087.42
1067.68
1073.58
1087.44
1088.04
1083.61
1076.16
1070.33
1063
1058.79
1048.37
1039.83
1027.43
1017.09
1006.27
994.123
983.453
972.33
971.624
972.486
972.48
972.701
977.625
989.752
1016.68
1045.94
1070.56
1074.31
1070.01
1058.96
1036.39
1012.7
1039.2
1102.87
1146.58
1163.87
1165.99
1161.94
1157.54
1153.04
1146.16
1134.48
1125.11
1123.94
1114.87
1119.69
1113.19
1120.48
1106.69
1114.2
1105.47
1105.93
1103.6
1106.4
1104.26
1106.46
1106.39
1110.36
1121.38
1126
1099.53
999.802
1123.44
1122.24
1116.11
1112.77
1112.75
1099.09
1071.37
1057.78
1095.87
1126.33
1143.11
1151.55
1156.83
1158.92
1154.64
1148.35
1128.53
1106.53
1075.82
1041.78
1037.13
1059.54
1101.15
1135.45
1144.12
1135.55
1064.78
965.173
935.101
945.536
979.933
1016.27
1017.16
1035.99
1049
1040.19
987.953
1005.32
1139.85
1185.53
1181.18
1167.1
1154.2
1144.7
1146.38
1140.7
1137.11
1129.94
1117.26
1102.1
1090.11
1079.98
1074.37
1084.59
1122.2
1163
1175.99
1150.57
1102.6
998.943
981.783
975.411
983.467
1000.54
1004.86
991.024
979.063
997.101
1058.84
1118.66
1137.34
1153.6
1160.21
1158.05
1146.12
1138.69
1127.66
1125.39
1129.96
1138.86
1152.15
1167.64
1187.85
1206.97
1218.02
1216.77
1207.91
1195.29
1161.74
995.031
960.179
956.824
969.828
985.552
989.068
982.692
973.896
968.112
964.474
959.94
947.363
927.057
920.698
940.764
965.115
1023.42
1067.97
1093.12
1101.14
1100.93
1112.44
1111.08
1112.61
1112.95
1114.48
1118.72
1124.02
1127.35
1119.97
1087.38
912.83
921.591
924.492
936.216
939.909
957.54
966.99
988.152
1013.39
1047
1081.56
1100.22
1108.54
1112.44
1118.48
1126.47
1138.16
1148.94
1157.53
1163.6
1166.46
1165.4
1161.35
1151.37
1135.58
1112.23
1064.9
967.915
889.162
852.713
918.13
926.121
934.248
947.101
966.23
1007.32
1067.04
1149.19
1185.55
1202.29
1213.7
1217.96
1221.3
1211.66
1212.59
1210.01
1224.03
1233.22
1252.13
1261.53
1274.25
1279.69
1280.37
1270.91
1252.19
1217.44
1174.97
1072.8
976.22
928.78
945.319
962.458
986.224
1048.63
1110.41
1182.83
1221.15
1231.81
1248.99
1255.78
1262.35
1254.61
1252.98
1233.1
1213.37
1192.89
1178.68
1172.24
1168.96
1170.43
1173.82
1177.68
1180.76
1189.67
1194.72
1193.45
1183.58
1133.41
1011.69
947.399
1174.7
1106.56
1082.3
1084
1089.65
1114.67
1165.63
1212.14
1248.06
1261.35
1254.36
1213.51
1129.45
1038.41
1105.67
1120.97
1124.9
1113.42
1092.14
1076.7
1075.23
1086.35
1110.96
1139.67
1156.65
1161.16
1154.42
1137.02
1114.11
1090.05
1077.86
1069.71
1066.87
1072.02
1086.74
1093.78
1077.12
1037.2
984.626
952.275
943.479
966.833
1016.86
1048.83
1050.02
1042.41
1036.11
1033.63
1031.03
1030.34
1029.81
1031.4
1033.87
1044.05
1058.17
1073.71
1083.76
1085.67
1082.59
1081.29
1086.15
1097.87
1116.66
1128.54
1144.64
1160.97
1174.05
1170.38
1144.69
1095.4
1037.45
1010.06
1009.49
1021.66
1135.57
1120.28
1101.3
1089.51
1077.53
1069.05
1059.15
1051.17
1048.02
1041.24
1044.87
1035.92
1040.7
1034.58
1037.64
1044.01
1058.56
1075.63
1087.12
1099.29
1108.2
1110.08
1109.05
1102.19
1089.7
1072.26
1068.14
1071.92
1081.38
1065.62
1074.54
1081.81
1074.88
1064.94
1059.68
1055.34
1055.69
1048.54
1047.52
1040.46
1037.55
1031.75
1024.62
1018.05
1005.46
991.447
975.679
977.384
972.22
974.05
977.91
990.516
1010
1047.89
1075.41
1083.11
1079.26
1066.41
1044.29
1019.5
1061.37
1133.2
1157.98
1163.35
1157
1153.55
1152.03
1147.75
1139.41
1130.21
1120.15
1117.39
1111.27
1122.16
1123.6
1129.45
1122.62
1122.66
1113.75
1111.51
1108.91
1109.6
1107.47
1106.17
1102.76
1108.43
1119.32
1127.02
1107.09
1004.65
1124.21
1128.86
1125.44
1118.92
1106.38
1084.73
1068.88
1089.01
1120.95
1143.62
1156.06
1158.21
1164.65
1167.38
1164.09
1148.86
1119.29
1092.43
1052.43
1018.8
1010.75
1028.38
1062.89
1092.98
1105.51
1068.88
1003.81
945.874
931.808
936.248
1004.65
1020.86
1008.77
1019.4
1048.45
1035.07
988.136
1036.89
1153.03
1183.2
1179.05
1172.12
1163.73
1151.71
1152.78
1151.79
1146.78
1141.25
1131.41
1114.84
1093.69
1074.82
1062.07
1063.97
1077.48
1123.08
1173.57
1165.29
1118.38
998.176
981.222
969.755
978.437
996.119
999.374
989.336
984.329
1020.88
1104.77
1127.96
1145.84
1157.13
1158.89
1145.85
1127.05
1114.72
1110.08
1110.54
1113.74
1119.81
1131.82
1149.22
1173.31
1200.07
1218.71
1221.32
1210.83
1201.2
1183.64
1110.77
957.769
950.375
958.557
972.14
976.742
974.437
974.114
978.192
986.233
989.436
975.714
950.127
952.442
985.375
1038.4
1087.47
1100.96
1109.49
1117.98
1111.88
1117.56
1106.38
1108.84
1107.48
1110.22
1112.95
1117.78
1122.78
1126.32
1110.85
909.734
918.743
923.718
930.427
933.639
952.004
966.929
1002.71
1050.9
1101.95
1123.43
1138.87
1148.08
1155.28
1161.51
1173.9
1182.62
1189.05
1191.37
1192.13
1191.89
1190.39
1187.2
1179.06
1172.22
1154.59
1134.16
1101.51
1014.54
910.384
917.054
921.385
934.631
942.657
962.13
996.915
1078.36
1174.24
1200.62
1213.05
1216.42
1215.6
1211.23
1192.21
1185.39
1182.15
1203.04
1205.54
1228.62
1244.56
1264.76
1278.96
1286.04
1286.33
1280.48
1264.12
1227.59
1169.1
1033.64
942.528
946.857
960.533
1025.59
1120.47
1191.38
1223.76
1243.84
1253.87
1262.38
1268.1
1279.29
1281.24
1277.58
1267.66
1261.55
1233.11
1234.04
1216.02
1218.21
1216.77
1217.96
1227.88
1232.15
1241.6
1244.33
1239.58
1228.94
1205.67
1115.39
961.625
1177.4
1116.13
1109.15
1118.75
1105.82
1105.25
1133.89
1178.23
1213.24
1239.98
1248.96
1237.68
1179.13
1062.02
1120
1122.26
1112.54
1088.23
1066.61
1058.61
1060.66
1073.25
1096.4
1123.22
1142.11
1145.32
1139.39
1118.52
1096.59
1081.48
1071.68
1070.62
1078.75
1094.19
1103.45
1094.04
1046.69
993.16
945.5
917.495
908.296
929.21
985.313
1041.78
1044.68
1039.04
1035.08
1037
1042.73
1044.86
1046.99
1049.85
1057.62
1072.92
1096.3
1116.95
1125.51
1119.63
1106.39
1095.48
1091.61
1099.77
1109.02
1126.43
1148.17
1172.06
1179.01
1167.74
1124.38
1055.97
1013.91
1006.43
1014.44
1025.86
1134.98
1119.56
1114.45
1107.5
1095.43
1079.13
1063.96
1054.48
1047.86
1048.58
1046.17
1045.5
1042.92
1042.32
1040.85
1046.45
1057.56
1076.26
1090.17
1102.32
1107.97
1110.96
1107.32
1100.6
1089.1
1070.94
1061.51
1063.67
1077.44
1065.17
1083.23
1075.17
1060.8
1053.58
1048.17
1048.24
1044.14
1045.69
1041.95
1041.15
1040.49
1036.61
1038.24
1033.22
1032.96
1022.13
1002.63
987.978
979.434
980.638
984.902
995.579
1025.23
1051.75
1077.21
1085.6
1077.66
1062.64
1041.02
1022.17
1086.67
1145.82
1159.71
1151.57
1151.5
1148.8
1148.14
1140.9
1135.29
1127.34
1115.71
1111.3
1108.95
1121.37
1128.73
1142.65
1133.18
1127.54
1112.68
1111.41
1107.15
1107.86
1104.23
1099.03
1099.63
1107.02
1120
1130.4
1107.88
999.023
1124.21
1131.32
1124.28
1113.12
1092.21
1076.09
1079.93
1111.26
1137.67
1153.51
1159.8
1162.91
1167.54
1173.33
1171.33
1150.52
1115.79
1091.51
1057.47
1013.58
995.961
995.31
1005.88
1007.47
1002.99
984.827
953.426
940.497
936.107
933.005
1031.66
1019.85
994.351
1003.49
1039.42
1034.96
989.396
1063.24
1153.04
1180.77
1177.29
1174.8
1168.29
1155.21
1159.34
1152.04
1152.07
1147.84
1139.47
1123.73
1102.1
1082
1068.64
1055.18
1057.6
1083.96
1140.34
1164.61
1119.77
1018.26
990.924
974.581
971.516
989.079
996.951
993.315
994.467
1048.77
1110.55
1130.4
1146.43
1153.05
1147.5
1131.85
1112.52
1104.93
1099.25
1102.51
1107.37
1113.06
1120.55
1135.28
1161.58
1193.63
1212.28
1204.9
1184.01
1161.73
1166.7
1143.55
953.065
945.678
948.056
959.546
965.74
968.855
976.805
996.113
1015.32
1030.03
1023.54
1008.36
1010.87
1053.32
1089.44
1104.53
1111.63
1119.51
1121.19
1115.27
1114.54
1107.5
1110.02
1108.59
1112.02
1112.98
1112.3
1116.66
1122.65
1123.04
906.596
918.331
925.15
929.403
929.682
941.719
964.367
1009.81
1079.43
1119.17
1139.85
1155.03
1166.81
1177.27
1183.81
1183.27
1185.7
1184.42
1180.7
1176.09
1173.23
1169.85
1163.58
1163.47
1158.99
1160.45
1152.2
1140.77
1121.17
1098.48
910.626
936.79
958.439
965.079
968.1
989.067
1044.64
1160.66
1206.91
1210.2
1205.63
1199.73
1185.54
1169.92
1170.26
1164.18
1180.78
1185.4
1202.91
1218.05
1241.07
1266.07
1284.11
1289.35
1287.96
1277.56
1250.13
1200.46
1089.66
954.953
947.143
979.117
1069.74
1177.31
1212.44
1232.69
1234.69
1255.08
1258.73
1275.15
1275
1284.01
1282.13
1283.18
1274.75
1271.1
1256.48
1250.3
1243.19
1243.83
1248.49
1252.43
1260.88
1265.07
1266.05
1257.78
1234.88
1219.34
1175.72
991.934
1188.21
1147.97
1155.46
1159.96
1126.5
1097.53
1105.34
1128.95
1160.51
1187.35
1213.2
1226.58
1201.08
1096.33
1113.43
1105.37
1094.61
1077.18
1065.74
1060.32
1065.1
1075.15
1087.29
1102.47
1115.77
1116.38
1106.43
1091.57
1077.61
1074.31
1078.39
1088.74
1102.48
1106.56
1081.29
1032.26
976.592
934.791
915.713
906.348
904.844
912.767
960.771
1029.31
1043.18
1042.45
1047.89
1051.76
1053.47
1058.66
1061.33
1063.67
1066.92
1078.19
1102.84
1129.74
1139.39
1134.31
1121.85
1104.94
1099.58
1099.89
1114.15
1128.68
1155.71
1177.53
1177.85
1140.45
1069.7
1018.48
1017.53
1032.81
1046.35
1040
1132.92
1126.57
1121.95
1113.34
1094.06
1079.48
1064.39
1055.04
1052.61
1055.22
1050.25
1049.72
1045.44
1044.1
1041.67
1047.41
1066.61
1081.09
1093.79
1102.04
1105.8
1104.5
1100.64
1092.54
1081.93
1064.4
1056.04
1061.06
1074.87
1062.69
1075.72
1057.41
1045.7
1040.64
1040.41
1039.98
1042.85
1043.96
1046.01
1050.97
1048.26
1051.48
1049.65
1046.86
1043.65
1041.11
1031.04
1010.05
990.466
987.718
992.913
1017.06
1036.57
1065.46
1084.32
1086.75
1073.54
1055.94
1039.2
1026.59
1102.5
1149.2
1150.52
1146.07
1144.06
1148.9
1143.2
1138.3
1133.19
1126.1
1113.59
1107.56
1103.47
1111.53
1130.22
1141.76
1137.31
1127.73
1110.52
1098.39
1097.87
1097.07
1097.58
1094.19
1099.78
1109.95
1126.84
1132.02
1094.31
994.712
1126.35
1126.52
1116.82
1097.65
1081.59
1077.72
1098.03
1128.06
1146.8
1154.92
1157
1160.48
1162.42
1178.16
1178.27
1155.69
1121.38
1095.08
1069.54
1017.4
988.327
978.955
976.178
973.99
962.835
956.865
957.986
962.209
963.512
926.942
1031.23
1008.46
983.13
998.358
1036.2
1023.8
994.408
1072.19
1155.86
1174.74
1174.62
1174.65
1166.02
1160.3
1154.88
1152.72
1149.72
1146.47
1138.52
1130.22
1113.67
1091.88
1072.74
1061.8
1049.77
1056.58
1102.61
1160.19
1134.25
1036.04
1030.33
1000.2
970.511
979.94
991.532
996.923
1010.12
1076.51
1113.71
1128.68
1141.04
1145.69
1137.93
1121.27
1107.34
1100.29
1093.87
1093.17
1098.56
1107.76
1116.13
1126.06
1147.8
1187.82
1208.93
1189.17
1134.31
1107.67
1115.76
1134.21
951.728
940.407
942.199
948.447
956.342
964.584
980.097
1013.28
1045.92
1070.47
1078.65
1076.18
1078.62
1092.72
1103.88
1115.8
1118.76
1122.63
1124.58
1114.44
1118.06
1109.71
1115.32
1115.27
1117.02
1112.25
1114.92
1111.36
1114.98
1112.68
907.982
927.513
938.211
943.089
935.204
941.494
959.998
1009.16
1094.05
1137.83
1158.34
1172.28
1183.15
1184
1181.81
1180.95
1171.79
1165.13
1156.63
1150.29
1144.37
1136.52
1136.04
1133.73
1137.68
1134.55
1142.82
1145.17
1147.19
1145.94
906.906
979.734
1042.52
1040.6
1004.49
988.338
1018.23
1110
1187.79
1199.65
1196.42
1182.64
1167.33
1166.26
1164.01
1167.06
1166.8
1178.11
1186.42
1199.51
1216.49
1243.3
1272.36
1291.18
1291.65
1286.97
1264.25
1219.71
1158.3
985.811
955.734
1002.18
1139.9
1192.81
1214.53
1212.29
1234.45
1235.08
1254.27
1255.41
1274.67
1276.4
1288.12
1287.18
1286.26
1279.08
1275.65
1271.57
1268.97
1266.13
1265.73
1268.77
1273.25
1277.14
1279.1
1260.29
1226.1
1200.61
1180.9
1012.2
1202.63
1171.37
1177.99
1172.2
1123.31
1090.26
1090.86
1105.54
1123.4
1135.18
1158.27
1193.87
1195.32
1109.22
1095.26
1091.23
1088.56
1080.27
1072.59
1070.28
1071.32
1073.36
1076.09
1080.83
1084.88
1083.52
1080.24
1080.95
1086.28
1090.96
1100.41
1104.8
1093.66
1057.54
1002.51
959.665
946.396
946.318
951.155
950.224
934.882
932.856
964.268
1020.11
1044.12
1051.94
1056.1
1056.58
1056.64
1057.66
1064.12
1068.16
1068.75
1070.44
1087.85
1121.55
1138.84
1138.4
1128.31
1115.48
1105.79
1112.86
1123.59
1152.88
1177.94
1181.29
1155.09
1087.58
1032.6
1049.06
1094.19
1102.82
1102.43
1088.19
1135.39
1131.51
1126.23
1107.24
1089.39
1073.4
1061.64
1058.36
1057.62
1057.97
1052.53
1053.99
1045.63
1046.52
1045.87
1056.96
1071.31
1086.09
1094.02
1098.05
1097.79
1094.41
1087.42
1080.01
1066.42
1056.05
1053.52
1063.14
1069.61
1052.62
1068.41
1046.46
1037.13
1035.02
1038.86
1043.65
1051.7
1061.47
1067.9
1075.96
1075.4
1071.79
1071.78
1064.81
1061.44
1049.9
1047.95
1033.29
1005.59
994.798
1009.66
1024
1050.19
1071.09
1080.31
1075.96
1059.04
1048.52
1033.51
1028.21
1108.17
1150.51
1142.77
1141.5
1145.27
1140.83
1137.73
1136.73
1133.94
1124.47
1115.3
1106.43
1093.14
1101.44
1117.71
1137.9
1141.9
1130.18
1115.99
1106.14
1097.42
1094.49
1093.77
1099.44
1107.26
1122.29
1132.67
1121.21
1060.21
982.18
1126.9
1120.71
1102.07
1085.74
1075.73
1087.56
1113.19
1138.46
1148.96
1152.2
1150.56
1151.19
1157.96
1177.59
1184.4
1164.97
1130.74
1100.52
1075.19
1027.08
993.024
978
972.78
969.224
965.855
965.495
982.79
1018.05
1017.07
985.87
1023.48
992.6
980.823
996.873
1028.61
1016.64
996.196
1073.6
1145.2
1169.32
1173.24
1170.88
1166.98
1155.35
1157.12
1148.13
1149.18
1144.6
1138.73
1131.91
1122.41
1101.88
1081.58
1066.56
1056.69
1042.96
1080.53
1134.84
1139.92
1048.31
1075.98
1050.04
986.708
969.996
983.911
997.769
1010.89
1084.56
1111.31
1127.3
1137.8
1140.88
1131.85
1117.57
1102.7
1097.78
1088.43
1088.44
1088.61
1099.13
1111.78
1120.55
1138.91
1179.15
1202.62
1170.57
1107.21
1015.04
1046.69
1113.95
944.492
939.187
938.329
941.983
945.833
958.837
981.14
1028.35
1068.24
1090.81
1094.17
1096.8
1098.64
1107.1
1113.18
1120.91
1121.86
1128.15
1122.82
1117.85
1120.73
1117.06
1118.22
1121.2
1117.38
1120.15
1117.96
1118.86
1107.78
1089.15
910.339
948.733
979.648
979.865
965.819
957.662
956.595
988.796
1076.76
1135.59
1162.13
1175.73
1181.9
1182.94
1177.21
1168.2
1160.84
1146.57
1142.22
1138.62
1131.85
1134.08
1133.42
1131.59
1125.59
1131.51
1132.56
1134.6
1142.36
1149.49
1040.22
1125.05
1165.18
1177.4
1152.47
1064.34
1007.5
1037
1146.28
1192.72
1185.35
1170.85
1166.94
1165.08
1164.12
1163
1179.21
1179.06
1186.13
1190.08
1198.54
1222.81
1263.06
1286.97
1292.06
1287.75
1264.2
1218.13
1177.89
1030.59
956.409
1045.89
1167.05
1198.45
1198.6
1210.92
1203.09
1223.62
1213.8
1244.39
1246.03
1272.95
1276.91
1292.11
1293.63
1291.9
1286.84
1280.84
1277.46
1277.01
1278.97
1278.27
1283.61
1286.73
1289.16
1264.26
1202.01
1164.2
1135
1023.2
1214.43
1181.68
1182.87
1168.25
1112.47
1089.76
1102.07
1107.16
1107.32
1109.18
1127.29
1161.51
1170.96
1109.93
1106.66
1107.67
1077.13
1080.8
1084.57
1083.15
1081.4
1080.11
1080.07
1080.06
1081.44
1083.24
1086.28
1093.11
1097.91
1098.26
1102.96
1104.14
1095.67
1074.12
1032.36
989.239
974.398
976.422
993.126
1007.39
1006.18
995.005
976.273
969.637
988.173
1020.24
1029.2
1037.2
1057.5
1061.08
1056.84
1049.8
1050.37
1058.19
1065.55
1071.59
1072.76
1071.72
1077.19
1105.61
1131.98
1136.66
1133.16
1123.27
1122.47
1128.65
1150.53
1170.01
1177.81
1159.01
1094.48
1037.94
1072.29
1117.29
1123.15
1117.43
1113.27
1112.93
1107.05
1099.41
1122.66
1125.85
1116.68
1103.46
1082.13
1067.09
1060.1
1059.36
1059.26
1058.04
1058.95
1052.75
1050.86
1047.24
1051.51
1057.46
1072.69
1081.41
1086.16
1085.2
1081.62
1074.96
1069.14
1063.88
1058.97
1055.43
1057.78
1063.99
1061.35
1049.69
1083.95
1094.53
1066.42
1038.27
1029.83
1035.15
1046.98
1061.48
1073.73
1087.04
1091.87
1092.65
1090.42
1082.52
1080.24
1076.65
1072.3
1068.37
1057.44
1040.72
1031.85
1008.3
1014.25
1029.5
1049.83
1061.52
1062
1051.15
1043.57
1037.45
1031.77
1047.62
1094.87
1107.2
1119
1143.69
1138.57
1137.81
1140.64
1142.48
1140.09
1140.21
1132.3
1125.59
1119.03
1103.9
1092.93
1083.39
1096.45
1120.17
1138.49
1141.6
1128.17
1113.09
1108.75
1106.24
1109.43
1113.42
1124.74
1130.2
1122.79
1087.93
1014.02
1016.85
1093.28
1115.72
1124.19
1112.68
1089.7
1076.09
1079.48
1097.32
1124.76
1141.09
1148.02
1148.57
1141.66
1142.88
1152.21
1173.93
1188.86
1175.3
1142.75
1109.02
1078.89
1042.29
1000.22
982.674
976.228
972.418
974.789
990.918
1016.49
1034.25
1037.93
1012.41
1032.51
1011.73
1006.24
990.031
982.88
1006.46
1023.27
1006.74
994.934
1061.57
1137.17
1166.24
1168.35
1171.19
1160.37
1155.15
1153.03
1146.52
1147.05
1143.07
1131.9
1127.12
1125.77
1113.05
1091.11
1075.1
1063.88
1039.68
1043.87
1094.48
1134.18
1095.62
1081.17
1092.42
1090.62
1065.46
1006.62
970.329
978.162
994.835
1023.36
1084.81
1112.15
1124.19
1132.32
1135.04
1129.07
1115.24
1102.83
1094.74
1086.86
1084.38
1086.12
1092.52
1102.96
1115.93
1140.16
1185.35
1206.8
1174.77
1106.15
1007.45
980.55
1012.59
944.151
937.52
945.493
938.778
940.236
937.473
938.255
949.012
975.942
1032.08
1081.06
1098.73
1105.19
1110.47
1112.97
1117.79
1118.92
1125.05
1124.98
1130.35
1122.32
1123.33
1122.41
1119.83
1123.16
1119.9
1123.44
1119.87
1124.11
1127.55
1135.26
1110.96
1082.01
970.835
925.121
1012.79
1068.67
1090.47
1064.47
1026.17
985.658
991.51
1042.11
1130.8
1162.84
1177.49
1179.82
1178.42
1171.68
1160.33
1149.72
1146.15
1136.23
1135.81
1136
1130.85
1127.01
1125.22
1128.48
1132.54
1131.21
1138.21
1139.36
1146.76
1169.8
1177.52
1179.49
1179.99
1189.05
1195.04
1197.76
1167.55
1088.73
1031.17
1085.87
1155.99
1177.45
1175.74
1165.89
1158.23
1166.07
1168.05
1176.36
1180.21
1182.64
1188.38
1189.04
1207.87
1239.61
1279.7
1290.68
1287.37
1252.9
1197.07
1151.46
1098.33
1065.71
1098.56
977.749
1076.24
1188.65
1198.3
1196.38
1182.63
1191.44
1170.94
1196.84
1175.71
1207.71
1213.13
1260.69
1272.05
1292.2
1297.85
1297.31
1292.48
1288.6
1286.95
1286.18
1289.34
1290.44
1293.87
1293.84
1277.55
1214.07
1169.2
1159.95
1162.05
1232.17
1237.9
1221.44
1179.91
1179.48
1154.93
1102.85
1091.74
1105.95
1107.88
1104.72
1106.66
1113.62
1135.12
1142.29
1102.16
1084.77
1070.72
1058.26
1071.15
1078.55
1081.77
1083.51
1085.44
1087.21
1089.4
1092.08
1094.56
1099.24
1100.59
1102.27
1101.98
1094.52
1080.73
1054.52
1019.82
997.73
991.317
1002.31
1017.18
1020.61
1018.61
1013.26
1005.76
999.316
1001.6
1017.1
1038.56
1050.41
1057.8
1065.66
1059.1
1047.87
1043.9
1047.46
1057.54
1070.66
1076.15
1077.44
1075.34
1075.98
1095.66
1119.38
1132.81
1132.16
1133.92
1137.25
1153.04
1169.54
1175.79
1153
1099.51
1052.73
1061.4
1115.48
1126.74
1122.75
1116.82
1109.27
1108.43
1104.75
1113.2
1124.59
1116.26
1113.22
1104.45
1084.83
1070.18
1060.57
1056.7
1057.01
1061.09
1058.55
1057.58
1052.62
1054.12
1053.2
1060.43
1064.89
1070.74
1075.05
1079.76
1080.35
1082.03
1078.87
1077.21
1073.35
1071.41
1072.15
1073.88
1073.21
1080.58
1086.52
1071.91
1036.07
1021.94
1026.7
1042.01
1059.29
1076.2
1088.43
1095.62
1099.3
1095.84
1084.32
1077.87
1078.77
1071.3
1075.78
1074.04
1066.37
1050.65
1044.12
1029.31
1022.78
1030.38
1038.18
1039.2
1032.99
1028.91
1030.62
1030.29
1040.01
1084.84
1116.12
1123.12
1127.92
1140.15
1133.91
1138.99
1138.84
1140.22
1146.47
1143.08
1133.22
1126.84
1116.75
1110.38
1094.24
1073.23
1065.59
1089.45
1117.82
1131.79
1134.98
1131.98
1126.51
1126.48
1122.62
1124.63
1122.07
1112.18
1086.93
1031.82
1017.34
1077.17
1117.99
1123.36
1126.3
1108.5
1081.94
1073.81
1082.93
1107.72
1129.1
1141.5
1147.4
1145.02
1143.87
1138.09
1146.65
1164.16
1186.82
1183.69
1156.53
1121.24
1089.19
1057.45
1016.55
988.079
977.454
977.2
987.717
1005.84
1030.66
1050.46
1062.13
1068.94
1049.22
1023.32
1010.87
998.401
1004.04
1019.28
1017.64
993.881
988.599
1039.47
1125.26
1158.17
1168.71
1167.31
1161.85
1149.86
1152.56
1144.91
1144.23
1139.71
1128.35
1118.87
1125.25
1121.14
1101.85
1083.22
1070.94
1057.15
1025.62
1066.8
1114.93
1108.76
1104.45
1100.56
1080.03
1030.06
989.39
969.951
971.268
995.366
1021.34
1091.74
1106.53
1124.01
1126.72
1131.07
1127.39
1118.08
1104.1
1095.8
1087.21
1086.3
1083.17
1093.69
1102.24
1111.22
1138.84
1186.37
1208.35
1185.23
1122.9
1051.26
1013.41
997.025
970.743
948.957
949.238
949.678
945.928
942.072
933.112
940.207
960.94
1019.03
1082.63
1100.07
1108.62
1115.78
1118.39
1123.28
1124.8
1128.05
1126.85
1127.37
1127.34
1121.36
1127.17
1120.39
1120.94
1121.74
1120.86
1122.6
1127.24
1132.54
1130.59
1150.28
1150.91
1119.66
1056.6
1121.92
1139.86
1152.96