/*--------------------------------*- C++ -*----------------------------------*\
| =========                 |                                                 |
| \\      /  F ield         | OpenFOAM: The Open Source CFD Toolbox           |
|  \\    /   O peration     | Version:  2.1.1                                 |
|   \\  /    A nd           | Web:      www.OpenFOAM.org                      |
|    \\/     M anipulation  |                                                 |
\*---------------------------------------------------------------------------*/
FoamFile
{
    version     2.0;
    format      ascii;
    class       volScalarField;
    location    "0.003700000";
    object      fH;
}
// * * * * * * * * * * * * * * * * * * * * * * * * * * * * * * * * * * * * * //

dimensions      [0 0 0 0 0 0 0];

internalField   nonuniform List<scalar> 
12384
(
0.0250215
0.0281181
0.0296573
0.0302086
0.0293089
0.0276489
0.0247924
0.0227273
0.0204764
0.0189773
0.0191323
0.0224658
0.0266241
0.0271397
0.0195665
0.0208798
0.0229724
0.0243756
0.0253144
0.0258932
0.0261052
0.0259798
0.0255209
0.0251725
0.0244118
0.0242324
0.0236668
0.0234559
0.0232207
0.0231476
0.0230815
0.0229593
0.0228097
0.0225703
0.0219686
0.021028
0.0199094
0.0190317
0.0183892
0.0184804
0.0195588
0.0219226
0.02601
0.0283415
0.0254164
0.0248946
0.024457
0.0241882
0.0239919
0.0238302
0.0237207
0.0236612
0.0236191
0.023586
0.0236177
0.0236471
0.0237442
0.0239731
0.0242871
0.0248132
0.0260796
0.0282766
0.0301106
0.030794
0.0309914
0.0307691
0.0305075
0.0300334
0.0295082
0.0285809
0.026741
0.0237225
0.0219261
0.0221284
0.0292782
0.0292133
0.0293693
0.0297666
0.0302464
0.0305493
0.0309258
0.0307808
0.0307314
0.0308015
0.0307735
0.0308234
0.0307837
0.0307224
0.0305698
0.0305035
0.0303098
0.0300828
0.0297458
0.0291403
0.0285379
0.0278225
0.0270953
0.0263322
0.0266835
0.0298218
0.0292177
0.02719
0.0258118
0.0249168
0.0286064
0.0287711
0.0289933
0.0292542
0.0294288
0.0295557
0.0294836
0.029332
0.0290607
0.0288368
0.0285029
0.0281794
0.0278278
0.0274305
0.0268988
0.0263638
0.0269579
0.0258783
0.0271103
0.0268904
0.027302
0.0280189
0.028936
0.0301774
0.030813
0.030376
0.0290305
0.0274761
0.0246799
0.0246092
0.0230082
0.0238359
0.0256644
0.0270897
0.0287125
0.0299991
0.0324837
0.0342754
0.0365822
0.0376277
0.0384068
0.0384075
0.0384781
0.0383878
0.0384313
0.0381151
0.0384776
0.0381209
0.038231
0.038129
0.0380836
0.0376732
0.0380444
0.037558
0.0376647
0.0373919
0.0367861
0.031457
0.0227006
0.0215468
0.0271014
0.0262921
0.0257675
0.026706
0.0308157
0.038544
0.041687
0.0338777
0.0229164
0.0203957
0.0213927
0.0233315
0.0255838
0.0275873
0.0295441
0.0312808
0.0314309
0.0328879
0.0329749
0.0329247
0.0333898
0.031954
0.0317736
0.0287072
0.0271286
0.0223865
0.0197241
0.0176712
0.01769
0.0188282
0.0207022
0.0216682
0.0217783
0.0234302
0.0235601
0.0249574
0.024835
0.020929
0.0193344
0.0242207
0.0384962
0.0467546
0.04686
0.0482785
0.0482379
0.0476949
0.0473575
0.0468222
0.046314
0.0457694
0.0460953
0.0465432
0.0476943
0.0490043
0.0493817
0.0466678
0.0404696
0.0297843
0.0203676
0.0186191
0.01873
0.0182306
0.0176452
0.0175895
0.0187232
0.0200286
0.0200595
0.0196638
0.0195943
0.019668
0.0196051
0.0197138
0.0199435
0.0202366
0.0209718
0.0217464
0.0227207
0.0243098
0.0254719
0.025923
0.0262794
0.0258337
0.0245975
0.0228371
0.0210187
0.0197173
0.0188736
0.0188239
0.0200571
0.0238921
0.0202734
0.0198489
0.0204813
0.0216005
0.0226597
0.0231946
0.0229757
0.0213283
0.0191969
0.0176919
0.0173208
0.01767
0.0184492
0.0196209
0.0202015
0.0201367
0.0204958
0.0199138
0.0203219
0.0198164
0.0197012
0.0197957
0.0199535
0.0203304
0.0208782
0.0210212
0.0207605
0.0201646
0.0200674
0.0221976
0.0169995
0.0171369
0.0175262
0.0181523
0.0191162
0.0201206
0.0203297
0.0203979
0.0197815
0.0194092
0.0188887
0.0185924
0.0182834
0.0180358
0.0178966
0.0179039
0.0179319
0.0181553
0.0182081
0.0183906
0.0184004
0.0188694
0.0193389
0.019129
0.0198267
0.0199718
0.0202623
0.0214692
0.0216322
0.022733
0.0168895
0.0168512
0.0171408
0.0177465
0.0183736
0.0191316
0.0194134
0.0193619
0.0192925
0.0191715
0.0188121
0.0185059
0.0185262
0.018594
0.017863
0.0180064
0.0183459
0.017502
0.0174984
0.017002
0.0169082
0.0168363
0.0165823
0.0166128
0.017089
0.0175605
0.0184601
0.0191633
0.0199396
0.0200231
0.0167352
0.0168083
0.0174262
0.0178507
0.0184145
0.0184947
0.0184948
0.0180959
0.0179604
0.0175748
0.0172151
0.0170719
0.0170482
0.0162889
0.0168343
0.0162465
0.0163587
0.0160214
0.0158462
0.0157439
0.0158052
0.0159216
0.0159826
0.0160797
0.0162177
0.0166655
0.0170671
0.0180137
0.0189124
0.019423
0.0438761
0.0476975
0.048518
0.0488668
0.04964
0.0489472
0.0466808
0.0402476
0.0327534
0.025474
0.0212093
0.0207072
0.0232381
0.0261963
0.0197936
0.0233077
0.0261498
0.0279159
0.0290544
0.0299522
0.030704
0.0313076
0.0318773
0.0315292
0.0307956
0.0290336
0.0272842
0.0256634
0.0244955
0.0238311
0.0235007
0.0232814
0.0230579
0.0228367
0.0225807
0.0221286
0.0213005
0.0201037
0.0189521
0.0185268
0.0193163
0.0215943
0.0254986
0.0283382
0.025469
0.0251515
0.0248212
0.0245111
0.0242076
0.0239215
0.0236483
0.0234111
0.0232263
0.0231045
0.0230249
0.0230208
0.0231409
0.0234313
0.0238716
0.0244308
0.0254416
0.0272172
0.0293609
0.0310461
0.0318441
0.0323677
0.0321677
0.0315078
0.0304122
0.0287171
0.0266211
0.0237836
0.0219313
0.0222307
0.0290467
0.0299208
0.0316044
0.032603
0.0326451
0.0320584
0.0314627
0.0307268
0.030251
0.0302102
0.0302514
0.0304592
0.0307086
0.0309612
0.0313115
0.0313313
0.031373
0.0312717
0.0309241
0.0303996
0.0296384
0.0287858
0.0278595
0.0268493
0.0262193
0.0281693
0.0294712
0.0294072
0.0283813
0.0257122
0.0286037
0.0287177
0.0290272
0.0292271
0.0291252
0.0288018
0.0281261
0.0276343
0.0267295
0.0261396
0.0252751
0.0245802
0.0239167
0.0232334
0.0226241
0.0222546
0.0219969
0.0218811
0.0219471
0.0224842
0.0235668
0.0251944
0.0271469
0.0290086
0.0303409
0.0306242
0.0297484
0.0282144
0.0256496
0.0245622
0.023558
0.0250051
0.0272162
0.0292568
0.0329723
0.0354353
0.038141
0.0397908
0.0403604
0.039724
0.038689
0.0384058
0.0375955
0.0375804
0.0370808
0.0374303
0.0373886
0.0376596
0.0379436
0.0380921
0.0382289
0.038246
0.0381345
0.03799
0.0378532
0.0375736
0.0372942
0.0341405
0.0261296
0.0219706
0.0385047
0.0344903
0.0306965
0.0301341
0.0348172
0.0410444
0.0391238
0.0287479
0.0230443
0.0244206
0.0295676
0.0353697
0.0382817
0.0407194
0.0415053
0.0421409
0.0420439
0.0413946
0.0401783
0.0392528
0.0379238
0.0389545
0.0394373
0.0399774
0.0381309
0.0316225
0.0236199
0.0187579
0.0176883
0.0187978
0.0211147
0.0224195
0.0238827
0.0245254
0.0253598
0.0256482
0.0234547
0.0192074
0.0216191
0.034172
0.0476771
0.0501585
0.0497648
0.0490128
0.0479729
0.0470104
0.0456747
0.0440195
0.0422432
0.0405752
0.0395932
0.039727
0.0424853
0.0474134
0.0522768
0.0537027
0.0473518
0.0348294
0.0229228
0.0188103
0.0186775
0.018041
0.0176402
0.0181957
0.0194098
0.0198508
0.018977
0.018527
0.0189081
0.0195266
0.0208119
0.0225001
0.0256646
0.0308726
0.0362812
0.0414633
0.0451288
0.0476232
0.0491835
0.0503339
0.0509882
0.0511798
0.050376
0.0475024
0.0420484
0.0342423
0.0261952
0.0195343
0.0165969
0.0175453
0.0201405
0.019719
0.0204999
0.0218303
0.0225096
0.0222964
0.021378
0.0194334
0.0181643
0.0172421
0.0168627
0.0167879
0.016598
0.0171787
0.016959
0.0178246
0.0175074
0.0179454
0.0173472
0.0180298
0.0193256
0.0221744
0.0268177
0.0313428
0.0339534
0.0348086
0.0335866
0.0291973
0.0213482
0.0161521
0.016965
0.0170422
0.017449
0.0181533
0.0190421
0.0196415
0.0199328
0.0197382
0.019532
0.0192418
0.0190356
0.0187619
0.0183913
0.0178602
0.0172814
0.0167202
0.0160577
0.0153891
0.014851
0.0144754
0.0143333
0.0140212
0.013707
0.0138318
0.0137622
0.0140317
0.0140187
0.0141759
0.0147891
0.0156211
0.016798
0.0167843
0.017032
0.0175033
0.0178177
0.01838
0.0188085
0.0193458
0.0198255
0.020394
0.0209251
0.0212505
0.0218419
0.0229752
0.0248226
0.0266265
0.0271237
0.0269822
0.0265387
0.0252654
0.0237698
0.0216228
0.0189654
0.0168213
0.0148759
0.0142475
0.0138391
0.0140088
0.0147608
0.0154064
0.016665
0.0168549
0.0172675
0.0177659
0.0179156
0.0183865
0.0186164
0.0193296
0.0188219
0.0191025
0.0185084
0.0184874
0.0166148
0.0173575
0.0162689
0.0162545
0.0157115
0.0157904
0.0156634
0.0155906
0.0154463
0.0154156
0.0152355
0.015214
0.0151675
0.0150975
0.0151274
0.0152275
0.0163467
0.0171542
0.0520999
0.0447869
0.0392786
0.0383426
0.0408514
0.0470137
0.0531315
0.0537404
0.0503317
0.0404445
0.0297233
0.0227694
0.0218399
0.0243965
0.0202692
0.023944
0.0265955
0.0281885
0.0289279
0.0293213
0.0299305
0.0310749
0.0325607
0.0336833
0.0343233
0.0333507
0.031431
0.0288832
0.0264857
0.0249323
0.0241234
0.0237119
0.023368
0.0231488
0.023128
0.0231387
0.0225852
0.0211034
0.0194215
0.0186635
0.0193385
0.0214704
0.0252661
0.0282498
0.0252978
0.024847
0.0243788
0.0240074
0.0237539
0.0235152
0.0233128
0.023097
0.0229564
0.0228604
0.0228008
0.0228052
0.0229427
0.0232259
0.0236991
0.0243144
0.0251291
0.0264985
0.0283914
0.0304568
0.0321299
0.0335056
0.0342131
0.0337145
0.0319094
0.0291493
0.0259835
0.0233045
0.0219951
0.0226849
0.0292914
0.0332381
0.0340533
0.0322665
0.0296824
0.0275632
0.0265129
0.025666
0.0257699
0.0254119
0.0258255
0.0258868
0.0265129
0.0272319
0.0282182
0.0293195
0.0303972
0.0311032
0.0316447
0.0315269
0.0311634
0.0303048
0.0292442
0.0279165
0.0265778
0.0268441
0.0280042
0.0286926
0.0286828
0.0268267
0.028903
0.0300105
0.0314131
0.0317797
0.031511
0.0306131
0.029538
0.028314
0.0272129
0.0262219
0.0252647
0.0242842
0.0233452
0.0225956
0.0219261
0.0213074
0.0208767
0.0208491
0.020544
0.0208452
0.0214537
0.0226843
0.0248642
0.0274155
0.0294972
0.030492
0.0300053
0.0286373
0.0262935
0.0245837
0.0244227
0.0272009
0.0309181
0.034182
0.0373118
0.0390496
0.0405689
0.0406112
0.0391135
0.0377038
0.0359858
0.0350994
0.0341396
0.0340713
0.033782
0.0341779
0.0343153
0.0349467
0.0357874
0.0362535
0.0368826
0.0374531
0.0379998
0.0380802
0.0379157
0.0377001
0.0375471
0.0357142
0.0290628
0.0228113
0.0486632
0.0448517
0.0387259
0.0368118
0.0404351
0.0410554
0.0342464
0.0263238
0.026602
0.0331559
0.0391215
0.042281
0.0432747
0.043709
0.0439055
0.0429551
0.0414881
0.0376172
0.0334401
0.0304668
0.0292397
0.0308233
0.0345382
0.0389976
0.0398926
0.0358533
0.0265613
0.0193618
0.0180316
0.0187478
0.0217321
0.0236973
0.0250423
0.0259909
0.0269654
0.0255131
0.0219517
0.0191216
0.027601
0.0434565
0.0509884
0.0502211
0.0495769
0.0494521
0.0494026
0.048578
0.0474797
0.0458631
0.0436151
0.0406368
0.0377348
0.035933
0.0360992
0.0402783
0.0482219
0.0551662
0.0521828
0.0401436
0.0259423
0.019178
0.0185767
0.0177418
0.0179352
0.0190048
0.0197354
0.0192044
0.0181441
0.0182049
0.0197648
0.0232756
0.0291392
0.0368198
0.0444625
0.0493542
0.0523317
0.0539267
0.0541472
0.0543903
0.054387
0.0549782
0.0559386
0.0571646
0.0584356
0.059421
0.058856
0.056078
0.05136
0.0410041
0.0266646
0.014677
0.019918
0.0194662
0.0203492
0.0214506
0.0217036
0.0209087
0.020031
0.0187624
0.018106
0.0173673
0.0169214
0.0162448
0.0158275
0.0164961
0.01674
0.018571
0.0199493
0.0228554
0.0264856
0.0316101
0.0365913
0.0412996
0.0424813
0.0426777
0.0422258
0.0427019
0.0439533
0.0443749
0.0396458
0.0225147
0.0168735
0.0168754
0.0172122
0.0177809
0.018421
0.0188959
0.0194146
0.0195593
0.0201061
0.0206709
0.0212905
0.0217776
0.0218595
0.0215658
0.0212324
0.021214
0.0217429
0.0226406
0.023321
0.0239276
0.0241344
0.0236164
0.0226525
0.0215632
0.0185815
0.0162863
0.0148688
0.0135346
0.0127587
0.0128456
0.0167136
0.0166234
0.0167947
0.0170096
0.0175312
0.0182618
0.0199386
0.0225275
0.0252042
0.0284814
0.0326997
0.0362123
0.0396211
0.0435203
0.047531
0.0501549
0.0505076
0.0525612
0.0525083
0.0530342
0.0517679
0.0491213
0.0442004
0.0379901
0.0297453
0.0221504
0.0170418
0.0145747
0.0134439
0.013393
0.0166656
0.016755
0.0174568
0.0183602
0.01965
0.02211
0.0261075
0.0293414
0.0308195
0.0323793
0.0321865
0.0315465
0.0286532
0.0270008
0.0240581
0.0213777
0.0221196
0.0208409
0.020804
0.020784
0.0206765
0.0202184
0.0205177
0.0213152
0.0217012
0.0212062
0.0200796
0.0170035
0.0145825
0.0143534
0.0395632
0.0296032
0.0250075
0.0242259
0.0257109
0.031045
0.0403801
0.0504435
0.0552771
0.0528198
0.0431511
0.0301055
0.0227432
0.023052
0.0221205
0.0250779
0.027186
0.0276697
0.0269687
0.0261049
0.0260307
0.0271482
0.0294579
0.0321579
0.0339926
0.0345219
0.0333731
0.0308253
0.027766
0.025551
0.0244706
0.0239274
0.0235643
0.0234533
0.0237984
0.0241193
0.0235598
0.0216763
0.019318
0.0184074
0.0190296
0.0213924
0.0252886
0.0280934
0.0245821
0.0240251
0.0235432
0.0232335
0.0230338
0.0229118
0.0228239
0.0227781
0.0227975
0.022879
0.0230883
0.0233778
0.0236575
0.0239302
0.0242744
0.0246883
0.0251948
0.026067
0.0275327
0.0292905
0.0312933
0.0336979
0.035752
0.0358603
0.0330669
0.028834
0.0250274
0.0227588
0.0222852
0.02338
0.0312686
0.0347737
0.0314366
0.02781
0.0257932
0.02486
0.0243951
0.0240556
0.0240312
0.0239465
0.024237
0.0241218
0.0245575
0.0249173
0.0257448
0.0268642
0.0283503
0.0300288
0.031313
0.0322193
0.0323267
0.031913
0.0308009
0.0292817
0.0274821
0.0265589
0.0268603
0.027522
0.0284266
0.0271683
0.0298929
0.0336967
0.0355679
0.0353366
0.0343972
0.033052
0.0316531
0.0301477
0.0287965
0.0275371
0.0266809
0.0257283
0.0247474
0.0237991
0.0226825
0.0216115
0.0211056
0.0207289
0.0204885
0.0203704
0.0206946
0.0216123
0.0235201
0.0261245
0.0286795
0.0300846
0.0299006
0.0286039
0.026354
0.0246811
0.0256221
0.0304435
0.0353356
0.0379478
0.0394996
0.0405934
0.0411419
0.0397319
0.0372401
0.0359198
0.0344244
0.0331773
0.0322754
0.0321317
0.0327308
0.0334281
0.0340104
0.0344932
0.0351053
0.0356971
0.036477
0.036959
0.0376486
0.0378445
0.0378533
0.0377282
0.037643
0.0364316
0.0309015
0.0234888
0.0521149
0.0501202
0.0453714
0.0432702
0.0429393
0.0382971
0.0300381
0.0276482
0.0333488
0.0401734
0.0425713
0.0434238
0.0438867
0.044283
0.0442889
0.0425271
0.0385805
0.032941
0.0278994
0.0249381
0.0243173
0.0259639
0.0302018
0.0348524
0.0366625
0.0330752
0.0253776
0.0196007
0.0182014
0.0182528
0.0225828
0.0244745
0.0246554
0.0257254
0.0269736
0.0257177
0.0210901
0.0206771
0.0340661
0.0489989
0.0511072
0.0509677
0.0510525
0.0521328
0.0516457
0.0513407
0.0504671
0.049251
0.047653
0.0447195
0.0408857
0.0366247
0.0336876
0.033726
0.0405221
0.0516392
0.0551873
0.0466749
0.0307822
0.0201159
0.0184267
0.0176659
0.0182583
0.0195271
0.0197309
0.018838
0.0179793
0.0191505
0.023982
0.0319505
0.040515
0.0478887
0.052158
0.0530553
0.0524277
0.0516851
0.0509064
0.050921
0.051326
0.0521578
0.0536767
0.0557107
0.0587401
0.0614548
0.0628125
0.0624164
0.0610518
0.0597714
0.0506791
0.0195835
0.0197796
0.0190937
0.0197747
0.0206604
0.0207608
0.0200476
0.0194673
0.0189703
0.01889
0.0184951
0.0179241
0.016575
0.0164859
0.0175736
0.0195279
0.0235552
0.0276344
0.0336244
0.0389083
0.0429042
0.0440689
0.0419797
0.0382647
0.0360367
0.0359531
0.0377251
0.0407654
0.0445279
0.0471612
0.0419047
0.0167523
0.0166775
0.0169402
0.0173152
0.0178391
0.0182427
0.0190839
0.0200824
0.0219607
0.024356
0.0272472
0.0295741
0.0310341
0.0320587
0.0336642
0.0364383
0.040268
0.0442656
0.0472636
0.0493115
0.0505455
0.0506145
0.0493014
0.0460771
0.041187
0.0341676
0.0262345
0.0191724
0.0143107
0.0123818
0.016583
0.0164497
0.0164515
0.0166558
0.0172768
0.0189321
0.0222114
0.0286287
0.0347678
0.0400286
0.0445156
0.0478838
0.0505762
0.0512435
0.0528723
0.0546805
0.0544595
0.057449
0.058799
0.0608623
0.0627027
0.0633731
0.0631473
0.0607517
0.0545051
0.0438882
0.0315764
0.0212091
0.0151217
0.0130251
0.0166125
0.0168539
0.0178822
0.0208756
0.0251406
0.0330158
0.0420813
0.0463317
0.0506842
0.0516839
0.0541607
0.050555
0.050324
0.0457655
0.0398573
0.0381966
0.0345612
0.0347774
0.03456
0.0349845
0.0354183
0.0356825
0.0363817
0.0378392
0.0385894
0.0374037
0.033994
0.0265612
0.0175274
0.0136838
0.0335894
0.0246548
0.022572
0.0227033
0.0231549
0.0253861
0.0317952
0.0422852
0.0512973
0.0545859
0.0516424
0.0405237
0.026854
0.0227359
0.0254878
0.0269261
0.0272119
0.0257553
0.0237976
0.0226266
0.0225798
0.0235954
0.0258101
0.0291951
0.0324388
0.0336362
0.0328189
0.0302296
0.0272527
0.0252957
0.0243662
0.0238605
0.0236371
0.0239788
0.0249291
0.0252394
0.0238051
0.0210872
0.018387
0.0172246
0.0176242
0.0198583
0.0241388
0.0276815
0.0238326
0.0235174
0.0231399
0.0229431
0.0228903
0.0228703
0.0228851
0.0229911
0.0231958
0.0237604
0.0245475
0.0253942
0.0259297
0.0259785
0.02574
0.0255487
0.0255446
0.025865
0.0267533
0.028047
0.0301526
0.0333995
0.0367489
0.0368961
0.0324803
0.0269825
0.0234952
0.0223878
0.0229092
0.0242764
0.0333497
0.0324762
0.0288469
0.0275979
0.0267339
0.0259209
0.0253542
0.0247841
0.0244179
0.0242237
0.0241687
0.0242184
0.0243478
0.0246144
0.0251285
0.0259795
0.0272945
0.0290333
0.0310904
0.032566
0.0334107
0.0332771
0.0323149
0.0306161
0.0284414
0.0267049
0.0262534
0.0265676
0.0278123
0.0271735
0.0320546
0.0367877
0.0371073
0.0355962
0.0342066
0.0329671
0.0319932
0.0311405
0.0302392
0.029458
0.0288479
0.0281712
0.0274742
0.0264738
0.0252306
0.0237255
0.0219261
0.0213361
0.0206739
0.0205875
0.0207641
0.0215938
0.0230633
0.0256243
0.0281357
0.0295692
0.0292137
0.0278897
0.0260423
0.0244544
0.0270892
0.0337286
0.0379315
0.0395539
0.0407185
0.0413056
0.0408225
0.0382373
0.0364595
0.0354977
0.0337682
0.0321167
0.0314116
0.0320487
0.0338068
0.0353077
0.0364165
0.0366203
0.0366945
0.036643
0.0370031
0.0373431
0.0376546
0.0377605
0.0377013
0.0376447
0.0377027
0.0367246
0.0318173
0.0236825
0.0538128
0.0533708
0.0495602
0.0460672
0.0413433
0.033824
0.0292446
0.0317991
0.0390418
0.0423276
0.0433725
0.0438366
0.0443587
0.0447978
0.0447618
0.0422056
0.0371932
0.0311275
0.0262236
0.0234508
0.0226671
0.0237751
0.0265025
0.0289952
0.029155
0.0260822
0.0218099
0.0188458
0.0181845
0.0181365
0.023885
0.0245596
0.0237842
0.0245247
0.026669
0.0253703
0.0207261
0.0229819
0.0389809
0.050742
0.0516647
0.0518551
0.0524756
0.0529948
0.0528575
0.0525025
0.0520979
0.0515556
0.0505856
0.0486841
0.0454454
0.0404296
0.0344594
0.0313583
0.0319569
0.041406
0.0546129
0.0510423
0.0353968
0.0202674
0.0185904
0.0176056
0.0181115
0.0194624
0.0197231
0.0188391
0.0184146
0.0213134
0.0292596
0.0392775
0.0474445
0.0516486
0.0528988
0.0516121
0.0503096
0.0496646
0.0497555
0.0498885
0.0502174
0.050806
0.0520351
0.05425
0.0583009
0.062813
0.0655129
0.0644929
0.0616896
0.060341
0.0590837
0.0339087
0.0197131
0.0186409
0.019007
0.0197168
0.0199008
0.0195964
0.0194802
0.0198607
0.0204885
0.0208119
0.0201125
0.0184143
0.018697
0.0207874
0.02517
0.030664
0.0357289
0.040257
0.0434725
0.0421559
0.039216
0.0344476
0.032997
0.0327548
0.0339477
0.0359316
0.0387119
0.0424049
0.0469779
0.0506112
0.0165609
0.0164743
0.0166529
0.0169115
0.0173542
0.0178079
0.0189368
0.0209252
0.0244533
0.0292469
0.0345628
0.0390822
0.0423808
0.0455893
0.049202
0.0532602
0.0567696
0.0591639
0.0603579
0.0606489
0.0604201
0.0598195
0.0589108
0.0570871
0.0545503
0.0493836
0.0426775
0.0318959
0.0223094
0.0155012
0.016426
0.016358
0.0164912
0.0165662
0.0171026
0.0186299
0.0232411
0.0329713
0.0400254
0.0434732
0.0456744
0.0473124
0.0469842
0.0449966
0.0436005
0.0431408
0.0448878
0.0463148
0.0497975
0.0536705
0.0590483
0.0639821
0.0664395
0.0665328
0.0651227
0.0593092
0.0457854
0.0298966
0.0182498
0.0133651
0.0165157
0.0167927
0.0200096
0.0267966
0.0369393
0.0466387
0.0513857
0.0555772
0.0568963
0.0591528
0.0600128
0.0629792
0.0614387
0.0597802
0.0568003
0.0520033
0.0508553
0.0476251
0.0479237
0.0481719
0.0494014
0.0513713
0.0526625
0.0546428
0.0541147
0.0510139
0.0462413
0.0389072
0.0250182
0.0144572
0.0339536
0.025456
0.0248713
0.0258683
0.0246341
0.0244841
0.0274255
0.033967
0.0419882
0.0485626
0.0504038
0.0464815
0.0334635
0.0234463
0.0269239
0.0270712
0.0258478
0.0235984
0.022031
0.0215344
0.0217954
0.0227748
0.0246227
0.0273032
0.029962
0.0309295
0.0298742
0.0277181
0.0256701
0.0244998
0.0239262
0.0237897
0.0243687
0.0254596
0.0260905
0.0251817
0.0218028
0.018726
0.0166351
0.0156353
0.0157979
0.017536
0.0218131
0.0268035
0.0236834
0.0234619
0.0233936
0.0235346
0.023731
0.0238868
0.0239648
0.0240955
0.0244752
0.0253341
0.0267902
0.0283554
0.0290855
0.0285494
0.0274768
0.0265174
0.0259563
0.0257992
0.0261657
0.0272539
0.0296831
0.0346082
0.0376519
0.035771
0.0291946
0.0242523
0.0222925
0.0224116
0.0235163
0.024806
0.0337653
0.0318801
0.0310528
0.0299064
0.0284707
0.0271855
0.026031
0.0251871
0.0245337
0.0243318
0.0241612
0.0241918
0.0243238
0.0245773
0.0250486
0.025858
0.0271787
0.0292479
0.0313144
0.0332867
0.0342129
0.0342226
0.0331468
0.0312878
0.0289644
0.0268983
0.025953
0.0260196
0.027404
0.0271278
0.0350584
0.036927
0.0351855
0.0335176
0.0324562
0.0320374
0.0316672
0.0313983
0.0311722
0.0309753
0.0306888
0.0305346
0.0301006
0.0296263
0.0287013
0.027048
0.0246108
0.0226106
0.0213567
0.0210626
0.0213148
0.0219997
0.0235999
0.0256928
0.0278177
0.0288181
0.0283914
0.0272205
0.0255333
0.0244525
0.0286746
0.0363149
0.0393571
0.0404889
0.0415391
0.0418247
0.0399994
0.0373584
0.0362061
0.0356143
0.0337887
0.0317604
0.0309602
0.0320407
0.0348861
0.0373471
0.0388194
0.0388771
0.038485
0.0380032
0.0377974
0.0377363
0.0376164
0.0374503
0.0374053
0.0376349
0.037807
0.0368322
0.0314958
0.0232889
0.0548261
0.0545864
0.050546
0.0446717
0.0371733
0.0311014
0.0309426
0.0368918
0.0417535
0.0431392
0.0436105
0.0437461
0.0438771
0.0446145
0.0448654
0.042627
0.0375835
0.0321978
0.0270885
0.0234679
0.0220694
0.0220364
0.022641
0.0229781
0.0225861
0.0211947
0.0193347
0.0186565
0.0182515
0.0180349
0.0251066
0.0244512
0.022697
0.0233296
0.0259996
0.0251762
0.0209034
0.0248832
0.0414791
0.0515789
0.0521694
0.0525331
0.0529247
0.0531052
0.0529223
0.0524386
0.051902
0.0514407
0.0512868
0.0509374
0.0489242
0.0449233
0.0387165
0.031759
0.0290457
0.0321606
0.0462876
0.0533565
0.0388545
0.0222907
0.0196249
0.0182659
0.0179258
0.0191541
0.0196701
0.019319
0.0196787
0.0238452
0.0329242
0.0435878
0.0505517
0.052278
0.0520706
0.0502044
0.0495459
0.0487537
0.0487856
0.049078
0.0494888
0.0502538
0.051289
0.0532246
0.0571821
0.063068
0.0666234
0.0627106
0.0538
0.0473626
0.0525835
0.0458757
0.0195245
0.0183142
0.0183005
0.0188528
0.0191264
0.019274
0.0197427
0.0211707
0.0229181
0.0241145
0.0240986
0.0226487
0.0231982
0.0262994
0.0321056
0.0369795
0.0402549
0.0423773
0.0418811
0.0377009
0.0348285
0.0322473
0.0323849
0.0328455
0.0339714
0.0351699
0.0370241
0.0399935
0.0443309
0.0494109
0.0163784
0.0163857
0.0166273
0.0167327
0.0170131
0.0172885
0.0186818
0.021506
0.0266592
0.0330231
0.0393806
0.0450891
0.0495953
0.0530093
0.055129
0.0564911
0.0570846
0.0568577
0.0555621
0.0537595
0.0517445
0.04987
0.048401
0.0486193
0.0487738
0.0497696
0.0478067
0.0439924
0.0379955
0.0319629
0.0164027
0.0166111
0.0173457
0.0174364
0.0174791
0.018325
0.0214223
0.0312853
0.0413674
0.0433686
0.043365
0.0419723
0.0397496
0.037435
0.0361302
0.0357829
0.0364259
0.0375751
0.0398583
0.0437216
0.0502609
0.0588516
0.0658267
0.068098
0.0676487
0.0646117
0.054029
0.0371163
0.0220292
0.0139097
0.0165565
0.0176521
0.0233563
0.035834
0.0465065
0.049587
0.0526245
0.0560411
0.0588267
0.0618853
0.0643226
0.0640561
0.0656824
0.0648409
0.0641581
0.0626455
0.0604684
0.0590315
0.0578058
0.0578758
0.0589969
0.0603109
0.0620396
0.0625206
0.0620722
0.056036
0.0467815
0.041853
0.0316499
0.0161745
0.0361245
0.0289262
0.0301963
0.0309978
0.0266634
0.0239523
0.0245735
0.026963
0.0309226
0.0357082
0.0411566
0.0437178
0.0371895
0.0253775
0.0265705
0.0257585
0.0245069
0.0229405
0.0220961
0.0219044
0.0223482
0.0231252
0.0242016
0.0255022
0.0266311
0.0269219
0.0260587
0.0249283
0.0241559
0.0239593
0.0241709
0.0250116
0.0260855
0.0263731
0.0242968
0.0210334
0.0181188
0.0163374
0.0157259
0.0156027
0.0158051
0.016646
0.0200952
0.0256009
0.0238975
0.0239529
0.0243624
0.0247246
0.0248986
0.0250214
0.0251421
0.0252195
0.0253571
0.0258529
0.0273137
0.0295372
0.0306436
0.0301774
0.0287475
0.027223
0.0262583
0.0258003
0.0261806
0.0274626
0.031377
0.0364838
0.0370362
0.0311284
0.0248005
0.022213
0.0229021
0.0244677
0.0257327
0.0257238
0.0339542
0.0337831
0.0326079
0.0305113
0.028578
0.027164
0.0260555
0.0251112
0.0246194
0.0243627
0.024239
0.0241184
0.0241284
0.0243113
0.0248841
0.0258955
0.0277301
0.0297032
0.0322181
0.0337613
0.0340752
0.0336856
0.0324772
0.0306752
0.0285735
0.0266398
0.0256938
0.0258919
0.027388
0.0269705
0.035801
0.0343654
0.032139
0.0311489
0.0308961
0.0308768
0.0309578
0.031027
0.0311188
0.0312728
0.0314172
0.031585
0.0315711
0.0315143
0.0310432
0.0301609
0.0279789
0.0248614
0.0224325
0.0217572
0.0219407
0.0229403
0.0242022
0.0260897
0.0275184
0.0279579
0.0270506
0.0260245
0.0249164
0.0242229
0.0306066
0.0380845
0.0403254
0.0413047
0.0422229
0.0420199
0.0391913
0.0367244
0.036091
0.0356455
0.0342807
0.0318437
0.0303174
0.0312349
0.0344012
0.0377647
0.0397231
0.0398003
0.0391501
0.0383507
0.0378223
0.0374752
0.0372443
0.0371907
0.0374246
0.0378358
0.0379948
0.0362623
0.0296881
0.0228246
0.0550272
0.0538851
0.0478472
0.0402251
0.0335417
0.0313331
0.0345887
0.0403904
0.04271
0.0434909
0.0434457
0.0427568
0.0424224
0.0439105
0.0452792
0.043648
0.0397228
0.0345944
0.0288231
0.0242719
0.0221243
0.0215477
0.021317
0.0209863
0.0203298
0.0196745
0.0193975
0.0194097
0.0195925
0.0183178
0.0251078
0.0235016
0.022021
0.0230061
0.0257845
0.0244026
0.0212646
0.0260846
0.0423469
0.0511326
0.0525459
0.0526406
0.0528485
0.0527745
0.0526039
0.0523161
0.051703
0.0507881
0.050222
0.0506923
0.0505387
0.0483688
0.0428856
0.0350537
0.0285781
0.0279373
0.0362033
0.0524663
0.0446778
0.0239074
0.0228128
0.0203734
0.0180641
0.0187029
0.0195635
0.019668
0.0208207
0.0266482
0.0369343
0.0463819
0.0514502
0.052517
0.0513316
0.0495192
0.0485739
0.0478764
0.0475327
0.0480067
0.0487678
0.0499924
0.0510197
0.052404
0.0561541
0.0631026
0.0663077
0.0574626
0.0381396
0.0312661
0.0347237
0.0470477
0.0192472
0.0178713
0.017713
0.0181072
0.0184376
0.0189622
0.0201365
0.0226258
0.0254368
0.0281396
0.0293546
0.0289889
0.0298083
0.0330005
0.0377749
0.0410164
0.0421049
0.0416927
0.0391336
0.034473
0.0330437
0.0321466
0.0325883
0.0333966
0.0342032
0.0348819
0.0361096
0.038152
0.0411195
0.0445876
0.0162856
0.0167165
0.017127
0.0172061
0.0170782
0.017205
0.0180898
0.0209535
0.0273883
0.0354394
0.0425763
0.0477923
0.0514468
0.0533161
0.0536406
0.0528632
0.0508512
0.0476034
0.0442756
0.0411598
0.0385265
0.0359202
0.0358544
0.0357007
0.0378455
0.0374865
0.0412291
0.0427366
0.0452845
0.0460489
0.016196
0.019268
0.0228571
0.022504
0.0198182
0.0185832
0.0199952
0.0259589
0.0388979
0.0424856
0.0404178
0.0375601
0.0351581
0.0337073
0.0332276
0.0329879
0.0330036
0.0335726
0.0344656
0.0373869
0.0427364
0.0517678
0.0634677
0.0693897
0.0693639
0.067442
0.0591051
0.0434421
0.0284733
0.0154247
0.0164713
0.0190467
0.0290396
0.042314
0.0461874
0.0491977
0.051401
0.0556491
0.057919
0.0611212
0.063943
0.066888
0.0668547
0.067614
0.0666826
0.0660067
0.065499
0.0647108
0.0637727
0.0634299
0.0635682
0.0641173
0.0650066
0.0662478
0.0654432
0.0565087
0.0430853
0.0354079
0.0325192
0.0174365
0.0392781
0.0325391
0.0339664
0.033125
0.0265124
0.0236443
0.0238809
0.0250728
0.0265962
0.0276719
0.0306601
0.0364126
0.0362742
0.0261221
0.0250134
0.0244988
0.024021
0.0232484
0.0227567
0.0226773
0.0228706
0.0231552
0.0234705
0.0237836
0.024076
0.0240792
0.0240381
0.0240216
0.0243729
0.0249803
0.0257288
0.0261639
0.0252865
0.0226788
0.0196329
0.0177579
0.0175729
0.0180819
0.0185985
0.0187047
0.0178339
0.0179036
0.020317
0.0247968
0.0244405
0.0250804
0.0254219
0.0253405
0.0252375
0.0253413
0.0255967
0.025766
0.0257591
0.0257642
0.026475
0.0287054
0.0305422
0.0304696
0.029311
0.0276832
0.0265621
0.0263319
0.0269918
0.0300146
0.0348903
0.0367322
0.0325963
0.0254977
0.0227091
0.0248005
0.0302961
0.0330668
0.0326011
0.0301169
0.0346735
0.0346723
0.0322157
0.0295601
0.0276768
0.0264909
0.025574
0.0249128
0.024646
0.0245089
0.0243626
0.0241831
0.0240911
0.0243311
0.0248505
0.0262985
0.0282542
0.0303232
0.0319979
0.0326637
0.032516
0.0315125
0.0301364
0.0286741
0.0271579
0.0259392
0.025408
0.0261136
0.0272066
0.0263459
0.0353281
0.0314677
0.0297717
0.0294729
0.0295212
0.0297885
0.0300975
0.030579
0.031036
0.0315969
0.0318452
0.0320548
0.0321204
0.032157
0.0320934
0.0318403
0.0303178
0.0279811
0.0241779
0.02257
0.0227019
0.0233747
0.024747
0.0259866
0.0266924
0.0264978
0.0254721
0.0249841
0.024258
0.0241191
0.0314894
0.0392901
0.0410529
0.0422088
0.0427979
0.0413047
0.0379239
0.0363707
0.0358588
0.035812
0.0348492
0.0325589
0.0298445
0.0296179
0.0321997
0.0363528
0.0393764
0.0398698
0.0393058
0.0383623
0.0377015
0.0374158
0.0373815
0.0375769
0.0378416
0.0380584
0.0374978
0.0336344
0.0266274
0.0222079
0.0548646
0.0518843
0.0431936
0.0359054
0.0318174
0.033038
0.0380208
0.0419989
0.0433388
0.0437771
0.0430044
0.0414736
0.040984
0.042741
0.0453912
0.0451189
0.0422015
0.0372096
0.0308238
0.0257172
0.0231399
0.0220636
0.0215712
0.0210736
0.0206674
0.0207071
0.0217006
0.023718
0.0230646
0.0203446
0.02424
0.0225322
0.0218193
0.0230469
0.0253123
0.0239099
0.0216441
0.0262804
0.0415
0.0510256
0.0526325
0.0526713
0.0526009
0.0524823
0.0524401
0.0524834
0.0520292
0.0504603
0.0487134
0.0492941
0.0508907
0.0504907
0.0470329
0.03927
0.0300042
0.0265524
0.0305398
0.0458061
0.0473653
0.025279
0.02706
0.0244384
0.0194418
0.0181975
0.0191685
0.019973
0.0210778
0.0278137
0.038398
0.0482252
0.0521566
0.0522856
0.0507703
0.0491177
0.0479224
0.0469317
0.0467488
0.0471678
0.0483809
0.0499137
0.0508846
0.0519934
0.0553026
0.0632594
0.0665349
0.0526145
0.030932
0.0221619
0.0248931
0.0384129
0.0188613
0.0176764
0.0174351
0.0174777
0.0177517
0.0185135
0.0202904
0.0236872
0.0277506
0.0318149
0.0342254
0.0354114
0.0363842
0.0386786
0.0413671
0.042481
0.0423307
0.0399959
0.0369994
0.0329724
0.0326729
0.0323725
0.033016
0.0337892
0.0346885
0.0355733
0.0364881
0.0373615
0.039343
0.0399729
0.0162171
0.0175951
0.0190786
0.01917
0.018363
0.0178489
0.0178454
0.0197465
0.0256538
0.0346211
0.0425289
0.0476231
0.050161
0.0508157
0.0493081
0.0464118
0.0431204
0.0395053
0.0366192
0.0345454
0.0328064
0.0327073
0.0319412
0.0325152
0.0320037
0.0334494
0.0348058
0.0360376
0.0395021
0.0442723
0.0237176
0.0312165
0.0414963
0.0435915
0.0346079
0.0236197
0.0198536
0.0216113
0.0313744
0.0407727
0.0397945
0.03575
0.0333132
0.0331392
0.0330694