/*--------------------------------*- C++ -*----------------------------------*\
| =========                 |                                                 |
| \\      /  F ield         | OpenFOAM: The Open Source CFD Toolbox           |
|  \\    /   O peration     | Version:  2.1.1                                 |
|   \\  /    A nd           | Web:      www.OpenFOAM.org                      |
|    \\/     M anipulation  |                                                 |
\*---------------------------------------------------------------------------*/
FoamFile
{
    version     2.0;
    format      ascii;
    class       volScalarField;
    location    "0.003700000";
    object      G;
}
// * * * * * * * * * * * * * * * * * * * * * * * * * * * * * * * * * * * * * //

dimensions      [0 0 0 0 0 0 0];

internalField   nonuniform List<scalar> 
12384
(
1
1
1
1
1
1
1
1
1
1
1
1
1
1
1
1
1
1
1
0.999999
0.999998
0.99999
0.99996
0.999748
0.998678
0.998307
0.988812
0.992579
0.974291
0.992829
0.993605
0.998358
0.999392
0.999951
0.999999
1
1
0.999998
0.999809
0.995246
0.999178
1
1
1
1
1
0.999997
0.999833
0.996805
0.973917
0.888683
0.705545
0.588919
0.577616
0.633927
0.709798
0.799637
0.936459
0.993252
0.999938
1
1
1
1
1
1
1
1
1
1
0.999999
1
1
1
0.999991
0.999408
0.99664
0.986589
0.961404
0.907873
0.835269
0.726311
0.633381
0.542837
0.488208
0.435448
0.425366
0.408294
0.401136
0.397447
0.386814
0.378354
0.372166
0.361589
0.368675
0.401522
0.491575
0.66615
0.920605
0.999329
0.999971
0.999991
1
1
0.999841
0.994821
0.981545
0.957083
0.915227
0.853366
0.763715
0.65855
0.544255
0.439746
0.346013
0.274131
0.220207
0.182358
0.157351
0.118371
0.211426
0.124541
0.335652
0.444944
0.578022
0.721265
0.853304
0.942171
0.98254
0.996192
0.999585
0.999989
1
1
1
0.999446
0.996819
0.99369
0.985113
0.957226
0.998789
0.999705
0.999173
0.969543
0.764326
0.74342
0.710967
0.653832
0.571971
0.505216
0.429935
0.378888
0.343826
0.32507
0.338401
0.385086
0.45727
0.578575
0.736887
0.889271
0.986343
0.999888
0.999988
1
1
0.999656
0.993506
0.982054
0.990611
0.994571
0.991479
0.980874
0.607034
0.31856
0.459545
0.65787
0.820731
0.8797
0.902155
0.912758
0.890057
0.896592
0.880041
0.872931
0.866927
0.87514
0.880422
0.901866
0.892951
0.790372
0.732956
0.838326
0.991668
1
1
0.999994
0.999542
0.999956
0.999969
0.999999
1
1
1
1
1
1
1
0.999999
0.998126
0.97612
0.897567
0.810461
0.787977
0.771816
0.831595
0.877818
0.95591
0.992531
0.999793
1
1
1
1
1
1
1
1
1
1
1
1
1
1
1
1
1
1
1
1
1
1
1
1
1
1
1
1
1
1
1
1
1
1
1
1
1
1
1
1
1
1
1
1
1
1
1
1
1
1
1
1
1
1
1
1
1
1
1
1
1
1
1
1
1
1
1
1
1
1
1
1
1
1
1
1
1
1
1
1
1
1
1
1
1
1
1
1
1
1
1
1
1
1
1
1
1
1
1
1
1
1
1
1
1
1
1
1
1
1
1
1
1
1
1
1
1
1
1
1
1
1
1
1
1
1
1
1
1
1
1
1
1
1
1
1
1
1
1
1
1
1
1
1
1
1
1
1
1
1
1
1
1
1
1
1
1
1
1
1
1
1
1
1
1
1
1
0.999999
1
0.999999
0.999997
0.999998
0.999998
0.999999
0.999998
0.999997
0.999994
0.999988
0.999961
0.999695
0.997146
0.959765
0.856712
0.562682
0.535408
0.488492
0.61213
0.623414
0.763402
0.913426
0.98343
0.99231
0.977217
0.802739
0.28244
0.104177
0.657391
0.999328
1
1
0.99933
0.981924
0.814677
0.419993
0.0968188
0.00691806
0.000360601
0.000138677
6.86127e-05
4.68517e-05
5.03252e-05
9.10665e-05
0.000279447
0.00197045
0.119164
0.82353
0.998206
0.999992
1
1
1
1
1
0.999981
0.991624
0.837672
0.78428
0.880265
1
0.999151
0.829899
0.616926
0.329336
0.131183
0.0441322
0.0146364
0.0047474
0.00165203
0.000697507
0.000331972
0.000164359
0.000102821
7.10452e-05
7.34639e-05
8.59649e-05
0.000131345
0.000229266
0.000426138
0.00089453
0.0018209
0.00346681
0.00621448
0.0100359
0.0219488
0.166154
0.627673
0.886428
0.967884
0.999999
0.994863
0.642324
0.40379
0.207187
0.0821967
0.0276055
0.00742305
0.002103
0.000435264
0.000107623
1.91498e-05
4.08372e-06
7.63047e-07
1.42724e-07
2.95809e-08
9.77213e-09
4.53664e-09
4.03195e-09
6.47307e-09
2.88806e-08
3.02457e-07
5.27407e-06
0.000101534
0.00137814
0.0109225
0.0472596
0.13231
0.301644
0.543726
0.999459
0.996675
0.49945
0.316485
0.259174
0.420463
0.946672
0.954085
0.644338
0.0911934
0.0950932
0.114319
0.148895
0.157139
0.132403
0.0716461
0.0350319
0.0112441
0.00434137
0.00146794
0.000802097
0.000527397
0.000646419
0.00085676
0.00171525
0.00393348
0.0100195
0.0299152
0.0880999
0.13918
0.949838
0.999974
0.903645
0.675518
0.515715
0.580066
0.55764
0.452137
0.147388
0.00882902
0.0197391
0.141159
0.304215
0.365915
0.404825
0.405576
0.370389
0.299737
0.223389
0.148587
0.0967768
0.0628109
0.0518612
0.0500876
0.203917
0.373026
0.110918
0.0116757
0.00120818
0.00777337
0.990826
0.999942
0.371438
0.264289
0.258055
0.289908
0.358607
0.21244
0.00717657
0.0647174
0.66419
0.277515
0.0319437
0.00789872
0.00338765
0.00271442
0.00264871
0.00303812
0.00427011
0.00677043
0.0118082
0.0236281
0.0518618
0.128808
0.283663
0.479456
0.682047
0.932125
0.998862
0.999884
1
1
1
1
1
1
0.999997
0.986359
0.738782
0.370133
0.107003
0.00544972
0.000718487
0.00229749
0.0151487
0.0279729
0.0325152
0.0377755
0.0564499
0.111578
0.2369
0.477854
0.851464
0.993225
0.999995
1
1
1
1
1
1
1
1
1
1
1
1
0.999023
0.651658
0.134357
0.021912
0.00453573
0.00338754
0.000658863
0.00170404
0.000434113
0.00154461
0.00030002
0.000267417
1.39184e-05
3.10941e-05
0.000735923
0.0856254
0.934714
0.999947
0.999999
1
1
1
1
1
1
1
1
1
1
1
0.996887
0.774896
0.398958
0.188784
0.0995839
0.0515304
0.0226304
0.00636081
0.00126168
0.000162958
7.35673e-05
1.37316e-05
1.72321e-05
6.28548e-07
7.10339e-07
5.38844e-11
0
0
1
1
1
1
1
1
1
1
1
1
1
1
1
1
1
1
1
1
1
1
1
1
1
1
1
1
1
1
1
1
1
1
1
1
1
1
1
1
1
1
1
1
1
1
1
1
1
1
1
1
1
1
1
1
1
1
1
1
1
1
1
1
1
1
1
1
1
1
1
1
1
1
1
1
1
1
1
1
1
1
0.999996
0.999713
0.999882
0.999967
0.999981
0.999989
0.999993
0.999997
0.999999
0.999999
0.999999
0.999996
0.999873
0.996592
0.91109
0.755418
0.62052
0.655194
0.678075
0.785996
0.924344
0.992761
0.998558
0.994336
0.902487
0.320389
0.0766059
0.506264
0.989283
1
0.999998
0.832163
0.235028
0.0269953
0.00217851
0.000700799
0.000276443
0.000128349
6.90191e-05
4.57503e-05
3.62533e-05
4.01111e-05
6.94965e-05
0.000184715
0.000713513
0.0148461
0.429824
0.97494
0.999899
0.999999
1
1
1
1
1
0.999217
0.720654
0.622219
0.718202
0.999996
0.99695
0.705453
0.448905
0.196288
0.0572646
0.0138748
0.00425277
0.00130662
0.000738578
0.000255355
0.000168177
6.62432e-05
5.28812e-05
3.86687e-05
4.57623e-05
6.87483e-05
0.000127033
0.000231524
0.000503334
0.000988614
0.00202776
0.00374633
0.00579666
0.00660725
0.00710795
0.0232078
0.1644
0.583731
0.868021
0.99992
0.986954
0.439019
0.325169
0.212491
0.119545
0.054419
0.0215461
0.00664018
0.00185727
0.000438117
9.49196e-05
1.55254e-05
2.31828e-06
4.04711e-07
7.52327e-08
1.42717e-08
5.326e-09
4.03863e-09
2.91944e-09
6.82424e-09
3.31433e-08
3.95803e-07
1.13504e-05
0.000282034
0.00342392
0.0207682
0.0658224
0.150913
0.252545
0.985019
0.955381
0.383068
0.330739
0.682072
0.929884
0.749327
0.159249
0.0603411
0.0501463
0.0467916
0.0429061
0.0416597
0.0352231
0.034509
0.0267338
0.023303
0.0135187
0.00802051
0.00365324
0.00198244
0.00120202
0.00117007
0.00129007
0.00198084
0.00319056
0.00572302
0.0120209
0.0325122
0.0747216
0.797353
0.997255
0.717657
0.628078
0.498065
0.435042
0.344592
0.205321
0.0254807
0.0264574
0.143633
0.221634
0.251254
0.26955
0.275776
0.262991
0.235529
0.193078
0.139012
0.0748728
0.032735
0.0186223
0.0263707
0.0563682
0.155759
0.529658
0.479025
0.0472121
0.000949796
0.0014975
0.846114
0.98153
0.104424
0.0989259
0.128293
0.182291
0.135075
0.0224367
0.000974582
0.229696
0.386848
0.0552382
0.00826192
0.00192037
0.000771139
0.000495237
0.000450758
0.000507397
0.000667254
0.00102623
0.00169009
0.00276208
0.00558672
0.0166379
0.0716178
0.224246
0.429976
0.686844
0.944983
0.967746
1
1
1
1
1
0.999995
0.995363
0.81217
0.401151
0.242904
0.0776887
0.0700412
0.0885645
0.040345
0.0143124
0.00667833
0.00455992
0.00540345
0.00855195
0.0163053
0.0334677
0.064325
0.122255
0.565394
0.957638
0.999973
1
1
1
1
1
1
1
1
1
1
1
0.97133
0.393018
0.0941557
0.0138752
0.00279054
0.000252755
2.9464e-05
9.77002e-05
8.89688e-05
0.0021885
0.0071446
0.0550672
0.203067
0.454832
0.57515
0.629977
0.654517
0.656567
0.66652
0.729504
0.847235
0.984784
1
1
1
1
1
1
1
1
0.984563
0.687644
0.513012
0.441745
0.421918
0.380372
0.270813
0.150396
0.0809181
0.0678496
0.126018
0.319758
0.606689
0.890998
0.989876
0.999703
1
1
1
1
1
1
1
1
1
1
1
1
1
1
1
1
1
1
1
1
1
1
1
1
1
1
1
1
1
1
1
1
1
1
1
1
1
1
1
1
1
1
1
1
1
1
1
1
1
1
1
1
1
1
1
1
1
1
1
1
1
1
1
1
1
1
1
1
1
1
1
1
1
1
1
1
1
1
1
1
1
0.99988
0.999999
0.99939
0.999736
0.999774
0.999633
0.99926
0.999374
0.999901
0.999995
1
1
1
0.999999
0.999927
0.989404
0.876523
0.733781
0.701982
0.772185
0.851785
0.975804
0.998872
0.999807
0.99805
0.875821
0.185384
0.0483216
0.381909
0.942738
1
0.997524
0.0420018
0.00524542
0.00154815
0.000682127
0.000384844
0.000261207
0.000194866
0.000162583
0.000139994
0.000151595
0.000207339
0.000331556
0.000631354
0.00147487
0.0119702
0.259293
0.911363
0.998946
0.999997
1
1
1
1
1
0.999087
0.551786
0.420667
0.523035
0.999961
0.995385
0.540469
0.202813
0.0426854
0.0103326
0.00430245
0.00261973
0.00171316
0.00137588
0.000924692
0.00074696
0.000339514
0.00023608
0.000125619
0.000114304
0.000134242
0.000225331
0.000491118
0.000996966
0.00203142
0.00397822
0.00715035
0.00958597
0.00938215
0.006692
0.0086802
0.0419613
0.259241
0.677025
0.997925
0.977858
0.385854
0.297371
0.223809
0.156135
0.098707
0.0556285
0.0269148
0.0111123
0.00403958
0.00144971
0.000419626
9.69745e-05
1.78486e-05
2.47061e-06
3.20345e-07
9.02968e-08
4.19688e-08
2.59542e-08
2.69313e-08
5.88675e-08
3.31114e-07
6.37409e-06
0.000152411
0.00230831
0.0139745
0.0420759
0.0792998
0.0981278
0.927021
0.868339
0.376868
0.748756
0.881087
0.572259
0.0711589
0.0508527
0.0402084
0.0279273
0.0186452
0.0109973
0.00720606
0.00514034
0.00589175
0.00845952
0.0146016
0.0188325
0.0220985
0.0167956
0.0113044
0.00691913
0.00500374
0.00412824
0.00423272
0.00456018
0.00549425
0.0081044
0.0169875
0.0453307
0.740439
0.973435
0.479447
0.461081
0.365175
0.272491
0.188293
0.0541841
0.0219854
0.0946219
0.160983
0.185243
0.205978
0.215342
0.211524
0.189524
0.165167
0.126738
0.0662818
0.0150907
0.00290534
0.00213869
0.00745907
0.0497563
0.132698
0.249924
0.253182
0.0354308
0.000999509
0.000557861
0.451647
0.888549
0.048819
0.0368486
0.0597724
0.101348
0.0655592
0.00257741
0.00137798
0.263916
0.106267
0.0184516
0.00310049
0.000842035
0.000278976
0.000199375
0.000162367
0.000176297
0.000216099
0.000287228
0.000475528
0.000868462
0.00146119
0.00274655
0.0109021
0.0869998
0.266783
0.465982
0.735175
0.856385
0.999995
1
0.999999
0.999948
0.999029
0.986497
0.784438
0.366763
0.225001
0.0668324
0.246947
0.179343
0.0563316
0.0132579
0.00439402
0.00226997
0.00199134
0.00253227
0.00401556
0.00650519
0.00945797
0.0116448
0.0145079
0.0226649
0.240071
0.914166
0.999999
1
1
1
1
1
1
1
1
1
0.996164
0.649233
0.201126
0.0764654
0.0210864
0.00383553
9.12703e-05
2.74749e-05
0.00017717
0.00248024
0.0633777
0.193503
0.310173
0.236933
0.142505
0.105359
0.0976675
0.0920539
0.0823139
0.0805131
0.0927235
0.127784
0.268702
0.884396
1
1
1
1
1
1
0.836117
0.500632
0.368616
0.489499
0.664673
0.797314
0.810474
0.745234
0.665795
0.640023
0.668044
0.722789
0.759761
0.803673
0.863922
0.93225
0.982905
0.999346
1
1
1
1
1
1
1
1
1
1
1
1
1
1
1
1
1
1
1
0.999999
0.99992
0.999894
0.999822
1
1
1
1
1
1
1
1
1
1
1
1
1
1
1
1
1
1
1
1
1
1
1
1
1
1
1
1
1
1
1
1
1
1
1
1
1
1
1
1
1
1
1
1
1
1
1
1
1
1
1
1
1
1
1
1
1
0.99256
1
0.999825
0.999381
0.996618
0.979181
0.951371
0.97071
0.995283
0.999893
0.999999
1
1
1
0.999942
0.993546
0.882278
0.781272
0.725039
0.812701
0.950977
0.998567
0.999959
0.999935
0.994516
0.619989
0.0343236
0.00891955
0.115744
0.680935
0.999998
0.882924
0.00482124
0.00147404
0.00102035
0.000966717
0.00103489
0.00112846
0.00127598
0.0014312
0.00205167
0.00323852
0.0118042
0.0589647
0.0817523
0.0542366
0.0584058
0.277579
0.841778
0.997612
0.999944
0.999999
1
1
1
1
0.95559
0.308017
0.258834
0.392862
0.999538
0.989844
0.313755
0.0604731
0.019315
0.00944666
0.00598202
0.00465409
0.00403235
0.00389407
0.00400098
0.00452425
0.00450359
0.00431277
0.00308777
0.00217031
0.00154669
0.00154037
0.00214925
0.00379434
0.00648897
0.0110577
0.0165617
0.0203715
0.0169069
0.00964676
0.00678983
0.0193163
0.124885
0.485991
0.990766
0.966514
0.292682
0.20704
0.165294
0.130585
0.0996218
0.07418
0.0502037
0.0326651
0.0199887
0.0126632
0.00727784
0.00371436
0.00144256
0.000374542
5.89786e-05
5.4608e-06
1.87795e-06
6.47059e-07
5.06751e-07
6.0437e-07
1.91892e-06
1.29956e-05
0.000253687
0.00283161
0.0138706
0.0305198
0.0402193
0.0372427
0.81736
0.761168
0.321941
0.767491
0.50482
0.0701123
0.0482874
0.039352
0.0298632
0.0168393
0.00830733
0.00327022
0.00147803
0.000993371
0.0015927
0.0037
0.00932536
0.0198317
0.0413718
0.0640422
0.0694232
0.0495546
0.0275762
0.0155533
0.00978839
0.00677622
0.00563789
0.00606831
0.0109897
0.0297999
0.735704
0.902363
0.298504
0.285866
0.220946
0.158237
0.0761843
0.0231042
0.04523
0.110322
0.143044
0.17115
0.187339
0.340277
0.356476
0.181751
0.124938
0.0888911
0.0346453
0.00529964
0.000861473
0.000602405
0.00253354
0.0206471
0.0742066
0.103475
0.0485233
0.00534602
0.00035906
0.000248759
0.287373
0.775749
0.0266557
0.0142002
0.0222994
0.0572493
0.0240546
0.00041288
0.00256069
0.125759
0.0341495
0.00828694
0.00187258
0.000582117
0.000244688
0.00018465
0.000158801
0.000135403
0.000123988
0.000132759
0.000185659
0.000341469
0.00072707
0.00115404
0.00228126
0.0137045
0.153748
0.301627
0.434343
0.581131
0.995698
1
0.903533
0.885025
0.778473
0.55606
0.372964
0.176092
0.0433452
0.251652
0.30132
0.128432
0.0372352
0.011128
0.00456267
0.00258342
0.00221773
0.00249703
0.00324567
0.00383654
0.0037121
0.00295302
0.00235486
0.00225826
0.00452748
0.288911
0.964416
1
1
1
1
1
1
1
1
0.994725
0.614879
0.220278
0.112987
0.0816957
0.0508729
0.0114753
0.000417375
0.000328646
0.00334819
0.0565434
0.18698
0.18479
0.108808
0.0529211
0.0278394
0.0208061
0.0115354
0.00963157
0.00945268
0.0101696
0.00960859
0.00959396
0.0187345
0.156924
1
1
1
1
1
0.616376
0.169111
0.116081
0.202507
0.50594
0.78281
0.825788
0.732464
0.566082
0.39702
0.261661
0.172559
0.123916
0.173333
0.199108
0.267981
0.368303
0.475935
0.588815
0.822917
0.992372
1
1
1
1
1
1
1
1
1
1
1
1
1
1
1
1
1
0.999996
0.999299
0.998127
0.99824
0.999999
1
1
1
1
1
1
1
1
1
1
1
1
1
1
0.99183
0.999976
1
1
1
1
1
1
1
1
1
1
1
1
1
1
1
1
1
1
1
1
1
1
1
1
1
1
1
1
1
1
1
1
1
1
1
1
1
1
1
1
0.999907
1
0.999739
0.997438
0.964585
0.834646
0.826238
0.920176
0.988756
0.999733
0.999995
1
0.999999
0.999991
0.99734
0.943218
0.80758
0.6862
0.782137
0.9478
0.998503
0.999975
0.999988
0.997058
0.768696
0.0644207
0.000410756
0.000328291
0.00521275
0.171039
0.99957
0.694519
0.00178904
0.00150269
0.00243224
0.00439633
0.0069557
0.00934122
0.0118835
0.0167692
0.0331562
0.377246
0.835455
0.894216
0.790164
0.459515
0.266227
0.407
0.891166
0.992188
0.999922
1
1
1
1
0.999724
0.252216
0.130738
0.166346
0.298346
0.99489
0.960569
0.171898
0.0454115
0.0173093
0.00834696
0.00479781
0.00323918
0.00266892
0.00230961
0.00297191
0.00370209
0.00657829
0.0122476
0.0229154
0.0293395
0.0252404
0.0184083
0.018149
0.0202332
0.0268244
0.0335107
0.0412756
0.0410543
0.0285475
0.0141806
0.00840063
0.0162745
0.0835741
0.332484
0.972918
0.941119
0.196493
0.128934
0.100353
0.0852001
0.0805556
0.0712628
0.0620732
0.0510808
0.0411436
0.0322636
0.0250884
0.0197733
0.0150355
0.0102089
0.00447564
0.000877568
0.000131655
2.76325e-05
1.50292e-05
1.36479e-05
2.09484e-05
0.000107649
0.00071257
0.00455276
0.0138335
0.0212593
0.0206254
0.0142774
0.720118
0.66984
0.480763
0.456843
0.0729603
0.0485307
0.0401494
0.0381881
0.0268344
0.0135574
0.00526531
0.00157099
0.000522865
0.000311358
0.000567066
0.00166992
0.004621
0.0104192
0.0274766
0.06866
0.13523
0.140934
0.079625
0.0331513
0.0138972
0.00727473
0.0048883
0.00469678
0.00860824
0.0202392
0.744895
0.801702
0.195492
0.172942
0.136839
0.0807605
0.0264437
0.023044
0.0644882
0.10299
0.14029
0.192058
0.328935
0.493091
0.613056
0.421988
0.102937
0.073409
0.0342731
0.00608341
0.000618055
0.000237728
0.00039848
0.00133407
0.00323786
0.00457759
0.00250012
0.000466201
0.000220948
0.000125408
0.117336
0.570778
0.0174541
0.00517384
0.0072412
0.0227567
0.00793996
9.853e-05
0.00225577
0.0423758
0.011684
0.0044042
0.00172671
0.000887749
0.000509165
0.000480779
0.000371193
0.000265393
0.000169402
0.000118135
0.000110866
0.000171715
0.000405527
0.00102949
0.00116526
0.00239983
0.036733
0.242141
0.238102
0.285874
0.991934
0.99999
0.229673
0.279406
0.271637
0.216829
0.141003
0.0182638
0.0560936
0.330566
0.273036
0.113828
0.0440308
0.0175145
0.00856646
0.00459459
0.00397349
0.00393283
0.00421603
0.00368412
0.00227344
0.00115504
0.000638065
0.000452107
0.000536468
0.0188694
0.324722
0.971386
1
1
1
1
1
1
0.95061
0.528843
0.184404
0.0888518
0.10811
0.147526
0.141576
0.073599
0.0135449
0.0104917
0.0397788
0.122299
0.109936
0.0648771
0.0340531
0.0190895
0.0109217
0.00749368
0.00429061
0.00534856
0.00591639
0.00488137
0.00259909
0.0014285
0.00178064
0.0120473
0.999936
1
1
1
0.707575
0.138929
0.0251262
0.0308104
0.13483
0.531242
0.745907
0.685058
0.492868
0.276637
0.176386
0.158212
0.0576384
0.0611715
0.0482077
0.0417875
0.0612594
0.102891
0.163103
0.282861
0.494564
0.779767
0.977069
0.999989
1
1
1
1
1
1
1
0.999985
0.999904
1
1
1
1
1
1
0.999994
0.998476
0.999067
0.993153
0.999923
0.999949
0.999998
1
1
1
1
1
1
1
1
1
1
1
1
0.797689
0.996914
1
1
1
1
1
1
1
1
1
1
1
1
1
1
1
1
1
1
1
1
1
1
1
1
1
1
1
1
1
1
1
1
1
1
1
1
1
1
1
1
0.999999
1
0.997814
0.984717
0.912169
0.807442
0.772944
0.871178
0.957303
0.988751
0.997577
0.999312
0.99791
0.984064
0.903691
0.689139
0.657495
0.810646
0.964127
0.998839
0.999919
0.9997
0.962898
0.325567
0.00447806
0.000205749
0.000190707
0.000187579
0.000427884
0.0185658
0.987599
0.440793
0.00193224
0.00404276
0.00770276
0.0113729
0.0153985
0.0202168
0.0276665
0.0394712
0.0697412
0.545254
0.981319
0.996447
0.983345
0.860864
0.573862
0.723619
0.915702
0.997004
0.999886
1
1
1
0.999989
0.607085
0.0638018
0.102763
0.214164
0.349732
0.967578
0.872208
0.100661
0.0219445
0.00652617
0.00254108
0.00144907
0.00103044
0.000765476
0.000718847
0.000779882
0.000887685
0.00132272
0.00248232
0.00666231
0.0180913
0.0367124
0.05767
0.0599936
0.0660392
0.0650928
0.0631892
0.0605047
0.0493552
0.0306894
0.0163268
0.0115066
0.0208103
0.0766163
0.231153
0.940042
0.840402
0.0990994
0.0584557
0.0458386
0.045453
0.0480026
0.0513577
0.0509238
0.0492795
0.0461658
0.0412329
0.0372556
0.0338702
0.0325629
0.0318326
0.0301578
0.0181861
0.00441834
0.000628229
0.000258119
0.000181317
0.000331552
0.000669658
0.00261543
0.00786697
0.0141467
0.0125115
0.00878394
0.00610071
0.591457
0.599374
0.201659
0.0738674
0.0481285
0.0388007
0.0408469
0.0424711
0.0301223
0.0145501
0.00472633
0.00126722
0.000331
0.00013313
0.000202248
0.000712072
0.00178742
0.00366129
0.008266
0.019372
0.0414158
0.0554517
0.0392632
0.0191299
0.008778
0.00500962
0.00373441
0.00426826
0.00826481
0.0120084
0.714758
0.687267
0.132327
0.119768
0.0840412
0.0351868
0.0181698
0.0350355
0.068071
0.104477
0.146205
0.171237
0.304912
0.41394
0.791885
0.657708
0.0928775
0.0707938
0.041
0.00974713
0.000759335
0.000138609
0.000115867
0.000162687
0.000251457
0.00029126
0.000331727
0.000356474
0.000318417
0.000280615
0.0648141
0.319531
0.00708336
0.00219898
0.00311107
0.00803154
0.0013509
3.04123e-05
0.00126307
0.0170336
0.00546611
0.0028036
0.00206659
0.0017965
0.00191251
0.00217138
0.00188388
0.00107462
0.000479158
0.000229188
0.000149259
0.000155582
0.000284835
0.000806001
0.00157172
0.000954291
0.00481555
0.137022
0.170428
0.134577
0.911282
0.989236
0.0211296
0.0383345
0.0433005
0.0290666
0.0485253
0.00880105
0.127463
0.352331
0.241179
0.118567
0.0604875
0.0341256
0.0205894
0.013805
0.01133
0.0104784
0.00870536
0.00518329
0.00203858
0.000706276
0.000309026
0.000175245
0.000149447
0.00341608
0.0597144
0.591401
0.994037
1
1
1
0.949738
0.584299
0.260286
0.097704
0.0504714
0.0558338
0.141291
0.248059
0.299293
0.232718
0.118365
0.0865394
0.0945873
0.0863563
0.0537673
0.0320986
0.0206152
0.0150456
0.00842541
0.00801837
0.00788074
0.0120388
0.0126856
0.00718262
0.00229126
0.000814065
0.000496609
0.0014744
0.912873
1
0.820391
0.825052
0.373967
0.0540731
0.00937647
0.00713177
0.0522242
0.455067
0.677476
0.639581
0.61288
0.552851
0.260299
0.104963
0.0873724
0.0252553
0.0300261
0.0379556
0.0489879
0.0666391
0.0835876
0.14138
0.249587
0.471254
0.735843
0.966755
0.999702
1
1
1
0.999746
1
1
0.999482
0.966579
0.993915
1
1
1
1
1
0.999992
0.999971
0.999753
0.999725
0.998798
0.999723
0.999637
0.999851
0.999941
0.999997
1
1
1
1
1
1
1
1
1
0.482054
0.99916
0.999995
1
0.999999
1
1
1
1
1
1
1
1
1
1
1
1
1
1
1
1
1
1
1
1
1
1
1
1
1
1
1
1
1
1
1
1
1
1
1
1
1
0.999998
0.999971
0.991252
0.979029
0.93047
0.827083
0.762035
0.736547
0.731494
0.738815
0.790785
0.814269
0.757099
0.652087
0.675279
0.79408
0.89076
0.985151
0.997674
0.997903
0.964274
0.350684
0.00216957
0.000875963
0.00340539
0.00902704
0.00914838
0.00171372
0.000828837
0.00730254
0.901703
0.251384
0.0048718
0.00836329
0.00716053
0.00588889
0.00618886
0.00975852
0.0177752
0.0303861
0.0553764
0.108892
0.930834
0.997655
0.996202
0.96131
0.893627
0.882246
0.984628
0.998538
0.999997
1
1
0.999999
0.900532
0.0414003
0.105139
0.324582
0.349315
0.391359
0.94109
0.703761
0.0392228
0.00587551
0.00114779
0.000379604
0.000214848
0.000160592
0.00014204
0.00014638
0.000150433
0.000137165
0.00014834
0.000173369
0.000352833
0.000789278
0.00271302
0.00781852
0.0162077
0.0233002
0.0262413
0.0273109
0.024975
0.0204885
0.0158873
0.0123419
0.0144738
0.026543
0.0652841
0.11099
0.827464
0.588461
0.0366836
0.0213618
0.0171792
0.0169991
0.0190166
0.0221259
0.0260686
0.0294489
0.0328459
0.0339977
0.033062
0.0352601
0.0371555
0.0436409
0.0502192
0.0491692
0.0304702
0.00484691
0.00122436
0.00106053
0.00121811
0.00258976
0.00518135
0.00843421
0.00869838
0.00505005
0.00368165
0.00288951
0.4664
0.482067
0.0490541
0.0420602
0.0345878
0.0355226
0.043753
0.0499555
0.0402531
0.0204063
0.0064121
0.00162844
0.000393134
8.27669e-05
7.40639e-05
0.000236862
0.000756599
0.00135195
0.00209209
0.0033891
0.00507797
0.00592078
0.00556402
0.00415573
0.00318205
0.00261285
0.00283614
0.00424185
0.00781666
0.00461346
0.561184
0.581631
0.0910752
0.0872754
0.046453
0.0174257
0.0203569
0.041683
0.0711579
0.114694
0.162937
0.179377
0.163332
0.327955
0.848289
0.819375
0.104804
0.070209
0.045552
0.0146893
0.00136288
0.00020371
8.81933e-05
7.9739e-05
8.88742e-05
0.000138694
0.000296043
0.000957061
0.00318187
0.00175004
0.0534101
0.150042
0.00199034
0.000837235
0.000924584
0.00164774
0.00024769
1.32745e-05
0.000615035
0.00985838
0.00366232
0.00247029
0.00257325
0.00386211
0.0063418
0.0116433
0.0127024
0.00778849
0.0027424
0.000961476
0.00041017
0.000255956
0.000303184
0.000711474
0.00191891
0.00118038
0.00118993
0.0371008
0.169177
0.0602954
0.86621
0.754817
0.0581166
0.00236635
0.00590268
0.00514563
0.00690548
0.00420246
0.117609
0.290517
0.198347
0.11911
0.0842986
0.0663519
0.0532033
0.0450889
0.0409653
0.0349182
0.0234228
0.00857606
0.00211631
0.000568654
0.000223428
0.000121939
8.17501e-05
0.000357703
0.0195861
0.154741
0.087045
0.957134
1
1
0.0999521
0.0697854
0.0265015
0.0118603
0.0121056
0.0336599
0.153584
0.328344
0.384905
0.300585
0.191825
0.122507
0.082147
0.0537588
0.0346109
0.0256844
0.0224397
0.0203195
0.0151933
0.0248116
0.037031
0.0545335
0.0438007
0.0178608
0.00529737
0.00144133
0.000596959
0.0006311
0.501743
0.986744
0.0477297
0.325217
0.315751
0.0809035
0.0117305
0.00249512
0.00897585
0.213604
0.550862
0.766366
0.685072
0.477074
0.272179
0.129396
0.0681867
0.0657252
0.0307763
0.0358716
0.0420307
0.0490426
0.0769665
0.12744
0.126859
0.15714
0.302722
0.580636
0.857243
0.993818
1
0.999997
0.998271
1
1
1
0.994528
0.670348
0.84505
0.999981
1
1
0.999999
0.999996
0.999961
0.999851
0.999499
0.999949
0.99916
0.997155
0.994085
0.99337
0.998926
0.999981
1
1
1
1
1
1
1
0.999914
0.815385
0.999242
0.999945
0.999895
1
0.999997
1
0.999992
0.999999
1
1
1
1
1
1
1
1
1
1
1
1
1
1
1
1
1
1
1
1
1
1
1
1
1
0.999987
0.999992
0.999988
0.999918
0.999592
0.999953
1
1
0.991276
0.999907
0.99997
0.979903
0.981673
0.97352
0.933797
0.870008
0.79172
0.731871
0.678347
0.669591
0.674114
0.695918
0.82015
0.890259
0.900916
0.962409
0.98315
0.979172
0.919543
0.391064
0.00332661
0.000450822
0.00222087
0.0110964
0.0304466
0.0285673
0.0139029
0.0037357
0.00209855
0.00662687
0.0597592
0.390781
0.324389
0.0108379
0.0105793
0.00505496
0.00168913
0.00102894
0.00127824
0.00275755
0.00740705
0.0167677
0.0314484
0.0496953
0.331453
0.972166
0.989291
0.980433
0.951512
0.978556
0.994791
0.999906
0.999999
1
0.999993
0.886714
0.0134381
0.0561072
0.131151
0.0328709
0.00499936
0.00198188
0.008884
0.265205
0.120819
0.00114238
0.00133261
0.000569402
0.000165161
4.93367e-05
2.52981e-05
2.10671e-05
2.43116e-05
2.94687e-05
3.01233e-05
2.55389e-05
1.80865e-05
1.6293e-05
1.87008e-05
3.63357e-05
8.87629e-05
0.000271342
0.000595998
0.000991888
0.00123733
0.00156235
0.0018911
0.00271702
0.00410669
0.00645264
0.00971742
0.0135496
0.0168831
0.0161864
0.0164773
0.304186
0.27777
0.0217394
0.00837207
0.0049636
0.0041307
0.00455025
0.00582928
0.00796151
0.0104136
0.012379
0.0136128
0.0156051
0.0171254
0.0226182
0.0284857
0.037913
0.0510662
0.0582115
0.0454176
0.0160445
0.00292221
0.00149279
0.00177603
0.00275363
0.00389826
0.00386427
0.00232799
0.00158753
0.00127805
0.00142837
0.0155199
0.276602
0.244993
0.0135371
0.0195369
0.024468
0.0271356
0.0352133
0.0501928
0.0603095
0.0573812
0.0308404
0.0110006
0.00314592
0.000712973
0.000125781
3.52432e-05
5.96087e-05
0.000271063
0.000607049
0.000746481
0.000781266
0.000815324
0.000924087
0.000974013
0.00107051
0.00117649
0.00159626
0.00245259
0.00401107
0.00289159
0.00120728
0.0517228
0.648534
0.564904
0.0605662
0.0656371
0.0584746
0.0236013
0.0152987
0.0257882
0.0473415
0.0814057
0.137914
0.193812
0.200397
0.167885
0.165499
0.813993
0.912959
0.359344
0.0743408
0.0520583
0.0216131
0.00300538
0.00034805
0.000106235
6.61239e-05
6.10399e-05
0.000109507
0.000386499
0.00105088
0.000953927
0.000729466
0.000708873
0.112498
0.101265
0.00085543
0.000275632
0.000160083
0.000307242
0.000382518
4.57025e-05
5.77758e-06
0.000275573
0.00824796
0.00426843
0.00271196
0.00348185
0.00630765
0.0143995
0.0322123
0.0493334
0.0414202
0.018131
0.00562706
0.00178335
0.000717078
0.000551748
0.000846949
0.00229342
0.00297256
0.000609509
0.00310424
0.110966
0.0583293
0.0362824
0.561516
0.681317
0.0222641
0.0125502
0.00186722
0.00114027
0.0015773
0.000861368
0.00414126
0.0773918
0.221511
0.143584
0.10258
0.0932165
0.100102
0.109351
0.121091
0.125463
0.103452
0.0495655
0.0124951
0.00230255
0.000519042
0.000209255
0.00012253
8.61262e-05
0.000558344
0.0152817
0.0938653
0.0116795
0.0127456
0.372665
0.98054
0.631599
9.07594e-05
0.00152409
0.00488742
0.00276865
0.00108259
0.0017337
0.0112762
0.110914
0.313312
0.337077
0.237962
0.145042
0.0883846
0.0553889
0.0375182
0.0289386
0.0265315
0.0280448
0.0331116
0.034458
0.0617545
0.0983542
0.109017
0.0616027
0.0250217
0.00868721
0.00367167
0.00197899
0.00209829
0.0108399
0.986918
0.677471
0.000180837
0.0504477
0.417951
0.666748
0.494338
0.134919
0.0111714
0.0380719
0.152482
0.432362
0.824263
0.757304
0.431419
0.211435
0.13361
0.0671682
0.0394499
0.0965813
0.0409274
0.157628
0.341049
0.264323
0.0662139
0.0460567
0.0427441
0.0617122
0.127418
0.313572
0.698884
0.934892
1
1
0.931763
0.705899
0.861251
0.944142
0.999771
0.999835
0.818324
0.473704
0.862142
0.996649
0.999403
0.996608
0.962489
0.867922
0.958912
0.989065
0.998656
0.99741
0.980494
0.961146
0.937717
0.973892
0.993294
0.999993
1
1
1
1
1
1
1
1
0.000703017
0.734343
0.999698
0.99934
0.99995
0.999875
0.999999
0.99985
0.999996
0.999697
0.99997
0.999998
1
1
1
1
1
1
1
1
1
1
1
1
1
1
1
1
1
1
1
1
1
1
1
1
0.999999
0.999875
0.999959
0.999904
0.999001
0.997225
0.998001
0.999895
0.9999
0.981409
0.994301
0.989766
0.940401
0.957245
0.94237
0.893785
0.826466
0.774752
0.743305
0.74854
0.770781
0.800627
0.873045
0.885437
0.920329
0.932126
0.887185
0.7683
0.365213
0.0106428
0.000119298
0.000250522
0.00126126
0.00386449
0.00515802
0.00421059
0.00295578
0.00188774
0.00148858
0.00207899
0.00605373
0.019997
0.0359461
0.0353339
0.0165954
0.00519649
0.000985034
0.000303205
0.000195066
0.000272967
0.000657964
0.00205788
0.00603066
0.0117746
0.0170717
0.0282905
0.594349
0.927544
0.931714
0.967743
0.985299
0.999226
0.999978
0.999997
0.999811
0.841806
0.0308459
0.0121178
0.0502781
0.0127019
0.000950411
7.91006e-05
1.58734e-05
9.85615e-06
1.13247e-05
3.20844e-05
0.000223584
0.000369912
0.000182313
5.44724e-05
1.4593e-05
6.27527e-06
4.60665e-06
5.21621e-06
6.93743e-06
8.37176e-06
6.50608e-06
4.39286e-06
2.75283e-06
2.70218e-06
3.12746e-06
5.96009e-06
1.05812e-05
1.99151e-05
4.00983e-05
9.48428e-05
0.000206286
0.000482599
0.000907922
0.00148508
0.00176987
0.0017038
0.00173846
0.0020077
0.00266541
0.00549602
0.016811
0.0111358
0.00274093
0.00124562
0.00090213
0.000979853
0.00137267
0.0020049
0.0029066
0.00370298
0.00419507
0.00421409
0.00464951
0.00640586
0.0114897
0.018525
0.0310633
0.0403961
0.0463604
0.0431248
0.0178593
0.00662584
0.00170254
0.00116561
0.00109873
0.000972649
0.000649243
0.00048021
0.000557435
0.000558485
0.00127174
0.0196418
0.0735098
0.0193313
0.00584447
0.0135316
0.0178962
0.0251754
0.0366867
0.0543938
0.246012
0.174024
0.0471361
0.0216312
0.00724198
0.00203097
0.000353792
4.02108e-05
1.54111e-05
4.382e-05
0.000209306
0.000385127
0.000376685
0.000344355
0.000329343
0.000376782
0.000456947
0.000668622
0.00113877
0.00154912
0.00125302
0.000699011
0.0038554
0.263064
0.423324
0.187822
0.0486316
0.0568138
0.034573
0.0142787
0.0156541
0.0314133
0.0552176
0.101366
0.179128
0.249001
0.250069
0.191142
0.14716
0.598606
0.934167
0.67092
0.0875771
0.0629251
0.0339673
0.00727983
0.000811932
0.000139434
6.19121e-05
6.3245e-05
0.00014628
0.000399921
0.000882016
0.00111326
0.00121251
0.000977398
0.000620535
0.00015478
5.84774e-05
4.9104e-05
7.89764e-05
0.00017129
9.32781e-05
1.14327e-05
3.20319e-06
8.79301e-05
0.00819522
0.00746581
0.00469253
0.00512468
0.00863326
0.0173616
0.0381884
0.0602168
0.0657275
0.0484865
0.0240745
0.00823903
0.00279686
0.00152074
0.0015738
0.00283492
0.00661634
0.00173538
0.00056999
0.0197593