/*--------------------------------*- C++ -*----------------------------------*\
| =========                 |                                                 |
| \\      /  F ield         | OpenFOAM: The Open Source CFD Toolbox           |
|  \\    /   O peration     | Version:  2.1.1                                 |
|   \\  /    A nd           | Web:      www.OpenFOAM.org                      |
|    \\/     M anipulation  |                                                 |
\*---------------------------------------------------------------------------*/
FoamFile
{
    version     2.0;
    format      ascii;
    class       volScalarField;
    location    "0.003700000";
    object      omega;
}
// * * * * * * * * * * * * * * * * * * * * * * * * * * * * * * * * * * * * * //

dimensions      [0 0 -1 0 0 0 0];

internalField   nonuniform List<scalar> 
12384
(
2671.98
7390.99
10687.5
12850.7
14094.5
13725.6
13142.2
12620.5
11041
9387.48
7412.56
5395.37
3662.27
2343.37
9490.48
27312.8
49205.2
66715.3
80602.7
89587.3
96797.9
99755.1
100911
99500.5
98374.4
95987.3
93384.1
88823.3
84509.9
78477.9
72264.8
64785.3
57384.5
50814.7
45827.1
43088.8
40837.2
37643.1
34318.8
29096
21904.9
16267.5
9852.28
4444.73
28993.1
46445.9
59070.9
70427.4
81877.7
90759.4
97027.1
99613
100344
96775
91702.8
85045.5
77449.2
71569.6
67372.9
63379.9
60694.8
57805.5
55875.5
52900.9
49596.4
45926.6
41849.6
37704.2
35601.5
30420.6
26692.4
20042
13913
7170.92
35212.2
48764.3
58590.5
70739.6
84654.7
100758
116757
134048
147858
161941
170999
178868
181253
182387
183556
183351
183907
183945
182512
179294
172402
159475
138622
110329
78538.5
50283.1
37733.6
31015.3
22005.5
8976.57
40924.6
58002
69234.5
79999.6
91484.8
103715
117224
130839
145104
158506
171796
182433
191526
197043
197692
204442
183578
195711
159844
140175
126449
113985
100795
88140
74560.7
60235
45457.8
31608.5
20978
10432.6
17087.7
31499.9
43928.3
52780.6
65905.1
84014.2
108772
126455
139901
147066
152348
155977
161260
171520
185189
197964
212050
223787
230490
236588
232250
221421
206458
182928
155131
124548
87399.3
47181.3
21755.4
9165.87
21841.2
36892.2
47843.9
58737
67789.2
75133.9
80485.4
82242.4
83307.9
83254.8
81562.4
82828.8
83410.4
87887
94100.7
98991.1
104744
108829
112951
114513
117686
110823
109732
91459
84565.4
65517.5
50455.4
31840.6
19394
9056.45
7896.75
18120.6
25203.5
24723.9
24418.3
21554.5
15026.4
10836.2
7618.89
5153.78
5818.81
9577.19
16791.9
38159.2
67896.2
93788.1
122290
142521
147734
151685
139533
129290
105136
80485.3
55662.3
34942.3
18909
9249.49
4159.19
2092.43
1410.24
1969.97
2447.13
2768.68
3466.32
4163.23
5025.89
6741.54
9231.95
11517.2
14344.1
11401
10785.6
11112.1
12361.4
13183.3
14675.8
16253.4
17606.5
16916.4
15320
12789.3
9856.99
6839.65
4388.27
2923.22
2198.27
1728.21
1496.62
1307.02
1330.71
1419.05
1497.83
1616.35
1798.74
2094.83
2506.77
3182.5
3458.9
4007.47
3909.07
3738.18
3493.32
3179.64
2935.36
2880.52
3286.63
4385.21
5130.87
4941.73
4840.87
4903.6
5223.01
5360.45
5381.99
4923.7
4169.94
2961.43
1937.18
1554.54
885.84
946.604
990.949
1068.79
1118.27
1180.36
1349.69
1558.86
1902.86
2266.74
2656.89
2925.8
3106.85
3052.08
2810.82
2563.03
2249.79
2086.4
2018.86
2236.98
1826.49
2243.37
1746.43
1953.87
1732.06
1636.61
1480.08
1491.72
1398.5
1378.54
900.144
1009.95
1074.39
1242.24
1456.27
1940.76
2555.14
3142.44
3711.48
3727.24
4186.91
3598.77
3575.37
2736.12
2728.98
2573.37
2362.64
2414.9
2254.1
2104.17
1950.79
1799.73
1603.09
1500.44
1371.82
1284.98
1230.56
1154.59
1107.01
970.503
888.328
987.694
995.259
1042.2
1217.35
1603.61
2244.63
3761.31
4723.2
4306.84
4602.13
4734.83
2705
3281.62
2034.29
2067.63
1691.17
1597.63
1575.38
1586.37
1569.45
1510.28
1464.42
1389.47
1313.66
1193.14
1147.34
1063.12
985.217
875.772
5621.94
106731
146818
177673
203896
220058
227201
220681
204331
180160
152215
124391
94363.5
7135.08
20063.9
184189
296368
387274
456304
513228
562023
601703
627931
633364
623217
597608
568665
534244
502925
471771
443521
416299
389779
365987
344501
325871
308787
290989
271091
243378
206923
163660
114778
11250.1
43858.5
223564
305600
402547
507409
606380
695040
772887
838683
888795
915942
908402
863128
784110
681719
570186
472383
399725
353116
326858
305203
294598
281217
268709
255450
236633
213967
179280
134859
17102.2
50096.9
241852
335234
448129
577084
710297
841798
969254
1.09323e+06
1.21097e+06
1.32584e+06
1.43225e+06
1.52928e+06
1.59415e+06
1.61924e+06
1.58853e+06
1.51675e+06
1.41613e+06
1.2928e+06
1.15879e+06
1.02217e+06
895325
781872
676302
566574
431824
298181
229205
179197
24303.2
57428.6
271721
355749
441936
541693
649648
762302
877534
993981
1.11206e+06
1.23003e+06
1.34806e+06
1.46478e+06
1.57868e+06
1.68553e+06
1.77547e+06
1.8499e+06
1.86401e+06
1.81473e+06
1.71344e+06
1.56601e+06
1.3945e+06
1.19454e+06
985766
788106
622719
480133
352272
238988
34177.6
36723.6
243131
345630
422251
497523
569177
645832
706674
739529
724877
685150
644088
624907
654485
730059
841845
984329
1.14434e+06
1.28906e+06
1.40661e+06
1.46815e+06
1.45679e+06
1.39993e+06
1.29217e+06
1.15176e+06
1.00193e+06
836243
635967
371625
45521.1
45301.7
243909
294479
332644
368314
402154
435688
458536
480692
495047
499376
501771
493573
486606
487629
505169
537685
586632
644749
705949
760078
799771
811838
786255
720743
626759
512365
384683
270740
23614
19983.8
245327
310742
337397
358070
362915
364466
412012
494088
613096
818643
1.03329e+06
1.21069e+06
1.30851e+06
1.34255e+06
1.33507e+06
1.29804e+06
1.23544e+06
1.15068e+06
1.04716e+06
929480
807150
675679
548615
450069
391739
343924
287828
220196
5088.66
2126.44
191308
209331
221561
244757
288960
361471
462306
578609
709227
840754
969483
1.10416e+06
1.22011e+06
1.32745e+06
1.40011e+06
1.42139e+06
1.37297e+06
1.2658e+06
1.12904e+06
978131
825250
678355
544051
429796
336449
267268
219436
166024
1187.55
1692.53
174778
226921
269415
307696
342081
365671
387257
404909
408940
436209
433999
481770
503774
551420
599900
656057
727368
795185
844152
876943
883532
867058
814282
729750
614130
480490
341772
213108
1266.7
1238.87
186277
246805
307743
362862
416140
462994
502433
531357
550596
568180
584452
605858
631548
657578
685569
705369
723290
723605
718316
695100
671984
628345
572066
499301
417345
331519
252144
171002
1113.05
1194.72
199732
239259
281641
323557
381510
441505
508666
576666
658042
755652
863797
986322
1.09142e+06
1.14333e+06
1.12687e+06
1.04514e+06
938003
825913
720454
628528
547726
474639
409729
347988
295578
255461
223296
184036
904.617
1677.59
331204
438951
541063
621932
699796
726787
755102
752680
757231
764372
758463
756922
739978
683684
616728
538238
471920
421799
385311
355557
326384
309511
298296
285114
272382
255397
231880
198112
918.849
9890.82
156858
199541
229508
255660
275743
286545
285412
271965
247298
213819
178127
141064
14490.5
33176.6
282749
436778
531533
574954
590851
598766
607627
615925
617482
609937
594267
572473
546062
519021
492267
466014
439188
414875
390555
368057
346029
326948
307064
284214
257149
223197
185100
143066
15463
50831.3
307326
431917
547774
648455
728343
790415
838004
875512
904105
918868
912052
877406
816090
735787
642640
551297
472842
412699
371058
341475
321096
305634
291317
277617
259231
235392
202176
163438
20525.5
57873.4
320722
420279
519594
613429
694351
766824
835177
907143
982736
1.07208e+06
1.16734e+06
1.27133e+06
1.36663e+06
1.4455e+06
1.48055e+06
1.46747e+06
1.41593e+06
1.33208e+06
1.22548e+06
1.105e+06
986328
883285
798133
715041
603344
443952
308720
232387
35526
65954.7
350972
428670
492961
560126
631055
703471
780294
859966
945102
1.03517e+06
1.13097e+06
1.2315e+06
1.33096e+06
1.42453e+06
1.5052e+06
1.57181e+06
1.60429e+06
1.60155e+06
1.55828e+06
1.48275e+06
1.38865e+06
1.26758e+06
1.10619e+06
918046
737118
584221
454837
342739
49163.4
56540.6
326961
433262
520161
606653
686696
758994
803761
823518
817817
806737
799695
798932
809415
829898
864692
926429
1.02179e+06
1.13559e+06
1.24913e+06
1.32938e+06
1.36018e+06
1.35055e+06
1.2931e+06
1.21125e+06
1.11848e+06
1.00293e+06
829060
544980
66976.3
67987.2
339896
379580
418731
458733
501297
539213
564496
577241
584634
582383
575584
566121
562411
569366
587296
615928
649541
684219
715075
736968
752208
747710
730579
689407
624753
533436
429784
334558
37493.1
37768.4
349827
405339
422777
427004
427221
446696
505003
602252
776889
992234
1.22807e+06
1.40763e+06
1.50549e+06
1.55886e+06
1.57709e+06
1.56084e+06
1.5169e+06
1.44829e+06
1.35458e+06
1.23674e+06
1.09773e+06
940311
759503
576769
451402
410582
378263
315443
9712.79
3253.48
278944
284361
294064
321949
371306
442974
528143
628289
745396
878822
1.03517e+06
1.20136e+06
1.34821e+06
1.45366e+06
1.50861e+06
1.50316e+06
1.44448e+06
1.34333e+06
1.21719e+06
1.08347e+06
947181
805940
657739
517018
400518
321693
269482
208283
1309.73
1809.13
217748
258354
294745
331251
364988
390540
411388
426291
440347
457598
480162
511928
545097
583604
633953
699739
784697
880890
969240
1.03338e+06
1.05834e+06
1.04767e+06
997051
915466
807815
676684
513158
314546
1895.36
1341
214987
273519
333776
390546
441931
484445
517508
539627
556720
575059
603217
644195
694896
748754
798130
836249
866041
882124
881592
859925
809230
737237
649040
551573
459916
369901
289936
207215
1081.46
1288.58
237049
271794
305696
340469
383370
428410
488728
571518
694701
861147
1.0534e+06
1.24174e+06
1.39393e+06
1.46742e+06
1.43571e+06
1.34545e+06
1.2205e+06
1.09622e+06
976770
860405
744395
628157
514731
416271
348401
302316
271459
236364
977.149
2096.99
441982
538800
628947
711526
765534
808656
830484
836272
830953
829132
813949
798880
762860
703155
632667
563782
503359
454481
415595
384606
359466
339620
324022
312546
303290
289880
274847
250961
953.238
15943.1
209611
240482
255634
268240
282725
297210
307515
309343
300767
277486
242598
198596
26995.2
49876.3
390548
561787
634761
637841
606402
571704
549200
540516
539525
538502
536629
526451
511447
492668
473182
452525
431647
412211
392091
371584
351583
331374
310478
285884
259750
230234
200921
169552
19330.1
57633
423935
556791
637622
692238
729476
753324
770224
786128
803382
816513
816376
800438
766685
717370
654248
583122
514009
454469
408004
372097
344297
323363
307159
291742
274043
250909
222959
193090
25526.6
65728.3
393314
501837
584877
640096
670823
688961
701023
718491
741992
780976
835007
908592
995485
1.08638e+06
1.16701e+06
1.22022e+06
1.23334e+06
1.20841e+06
1.14724e+06
1.06235e+06
968445
887459
826962
774033
692931
545747
384107
281960
48629.3
74751.4
424123
493210
533681
572085
611047
651058
694289
739146
787107
837949
897024
966162
1.04332e+06
1.12117e+06
1.19413e+06
1.25518e+06
1.29454e+06
1.30828e+06
1.29491e+06
1.27007e+06
1.23433e+06
1.17693e+06
1.07471e+06
927764
770674
634463
524061
431570
63750
77812.9
404280
512482
609866
703213
778374
829624
862388
896928
936031
979133
1.01244e+06
1.02461e+06
1.00959e+06
969710
920550
882909
876672
913699
979966
1.05543e+06
1.12011e+06
1.15725e+06
1.165e+06
1.15355e+06
1.12607e+06
1.07022e+06
937903
667855
77186.6
88314.3
412231
445412
491226
540980
589298
625213
641933
645538
640128
627481
614340
608217
610719
625400
646996
672198
692402
704194
706715
695467
677635
654371
632835
605570
569061
511077
440183
378283
53547.3
56443
426063
462607
471070
472202
482436
514423
576869
701493
897729
1.11099e+06
1.33089e+06
1.49081e+06
1.60762e+06
1.67264e+06
1.69946e+06
1.70037e+06
1.68075e+06
1.63971e+06
1.56498e+06
1.45598e+06
1.30985e+06
1.13451e+06
938265
729717
534684
445551
434521
398151
16430.5
4885.26
343480
344257
351749
375183
415808
475324
542575
624777
725409
858777
1.0272e+06
1.2118e+06
1.3791e+06
1.49539e+06
1.53721e+06
1.50687e+06
1.43124e+06
1.33988e+06
1.25061e+06
1.17421e+06
1.09426e+06
985421
829037
644551
481642
376993
319096
258118
1730.48
1916.59
252752
279738
309087
340443
371630
395883
414520
431882
452228
474299
506516
538822
575354
617120
675210
755537
857484
971211
1.08107e+06
1.1514e+06
1.17932e+06
1.16414e+06
1.11845e+06
1.06833e+06
1.0153e+06
934965
776232
488914
4404.23
1598.58
232474
286175
341522
393366
440166
477658
507586
531068
556831
595707
650782
722859
805856
888343
960355
1.01748e+06
1.06065e+06
1.08649e+06
1.09261e+06
1.07588e+06
1.03773e+06
978096
890114
778306
631835
472391
352025
252436
1238.33
1529.19
255879
284906
310480
338047
369835
409672
472861
575994
736541
933863
1.1396e+06
1.32935e+06
1.4704e+06
1.52384e+06
1.49386e+06
1.41396e+06
1.31131e+06
1.2086e+06
1.10901e+06
1.01109e+06
909374
802915
688535
580298
479252
392803
335444
286063
1209.45
2953.83
547603
627926
708661
788993
845764
884678
904125
921257
917997
907447
895659
873613
827219
768536
691496
618053
549257
494680
452474
417849
391488
370759
354447
341497
330589
316935
301532
280112
1125.41
23590.3
254164
268538
268200
265379
269517
283215
302097
318331
328443
328072
312579
273887
44674
71574.1
495600
641216
670741
631915
567034
503016
457312
437520
441688
455485
469101
474320
471020
462715
451095
437580
423895
409277
392780
373360
353728
330285
306217
279654
255441
233884
218794
205126
28413.8
67950.9
540708
629872
652147
653421
646989
639848
636417
639210
648138
660988
673228
682053
681209
665961
634524
587364
531976
478039
431146
392024
361218
337572
320371
305065
287899
266332
246098
224979
33497.3
77105.7
460309
586827
667947
702422
706361
694546
672027
652330
632909
621611
616151
629801
665263
727216
811943
901370
969806
1.00004e+06
990259
947622
888705
835724
804423
780358
724421
593345
429935
319984
57708.6
86619
491242
551050
572399
588640
604219
623994
646752
671494
695165
718959
744063
774113
812980
859578
909605
955236
989796
1.00935e+06
1.02563e+06
1.0395e+06
1.04866e+06
1.03818e+06
983603
883005
763061
658627
579329
512417
76598.8
101941
486684
594325
691886
777136
835359
867396
898765
961093
1.05114e+06
1.14636e+06
1.21339e+06
1.23446e+06
1.2055e+06
1.13391e+06
1.03393e+06
923626
819806
749661
734878
780495
868227
955193
1.02995e+06
1.08461e+06
1.11962e+06
1.11529e+06
1.01028e+06
752972
79234.8
109375
477028
511365
567508
625642
672833
700249
706798
691988
668901
646052
631875
633982
645582
666601
691353
712732
727622
726175
713181
683314
644861
605206
571483
543043
512184
476098
439520
407387
62220.5
76593.3
473235
494826
497303
510699
544320
591915
663958
808493
993629
1.17906e+06
1.37111e+06
1.51123e+06
1.60118e+06
1.64817e+06
1.67901e+06
1.71081e+06
1.73917e+06
1.74347e+06
1.70153e+06
1.60623e+06
1.46217e+06
1.27832e+06
1.06825e+06
854656
646067
502467
491512
486568
28554.7
7838.05
397771
392242
395884
414825
446598
493213
545803
612340
702367
823218
979257
1.15178e+06
1.30946e+06
1.41174e+06
1.43667e+06
1.40398e+06
1.34268e+06
1.28823e+06
1.26337e+06
1.2694e+06
1.26947e+06
1.21407e+06
1.06121e+06
828682
600148
452034
377490
309049
2646.01
2190.14
293069
310614
333375
356927
380341
401207
419968
443154
472302
506796
547513
582745
619638
665747
730512
818055
926780
1.04201e+06
1.14021e+06
1.1873e+06
1.20025e+06
1.17785e+06
1.15204e+06
1.15735e+06
1.19185e+06
1.20808e+06
1.09887e+06
741561
14893
1911.69
248247
294216
343905
391989
437780
475494
507623
536287
570590
626682
710261
811228
915332
1.0081e+06
1.08127e+06
1.1304e+06
1.15898e+06
1.17067e+06
1.16924e+06
1.15578e+06
1.12993e+06
1.08369e+06
1.01245e+06
916182
788132
641369
477657
315397
1809.86
1777.05
260652
295292
323883
352556
382833
416856
471838
565367
710704
888859
1.06585e+06
1.21749e+06
1.32827e+06
1.37774e+06
1.36253e+06
1.31158e+06
1.24938e+06
1.19752e+06
1.14254e+06
1.08011e+06
1.00051e+06
901196
795939
705685
622466
531202
432036
337405
1670.17
4345.77
672650
749599
831656
907595
948203
963136
957567
955803
943740
922842
890946
851115
799756
739881
670947
608020
554327
507579
468443
438459
416808
401104
386330
375692
364305
347337
326907
305871
1374.07
31803.9
286010
289672
279367
264511
259179
268022
288220
312554
336370
356282
369429
356525
63741.7
96087.8
572698
662604
653531
598544
527545
456512
403186
378694
388115
411880
435815
450964
456321
456126
451441
443860
433600
418304
399889
375231
348601
317925
289176
264164
247118
239987
243644
250436
40077.5
85814.2
620421
645294
620256
589424
562241
543248
530625
522193
517402
520674
535178
560078
584840
597923
592007
566021
524948
478515
434801
397872
369410
349421
335014
320538
304899
287979
273873
258447
44393.4
95048.3
535942
695704
783066
809193
800619
770849
735457
703564
668587
634667
587744
541375
503412
500051
543080
627347
717218
782726
807698
802117
777554
757197
756001
754893
709293
592591
448081
356087
66778.5
102723
549554
599785
610996
612861
613422
619225
630685
645540
663584
681982
699775
712304
719801
726352
731836
740449
753070
769590
794598
831937
871795
894207
877442
814187
737915
670766
622504
577806
86658.1
126463
580292
678599
766651
832096
861851
869189
903037
991830
1.12331e+06
1.26121e+06
1.35864e+06
1.3949e+06
1.36973e+06
1.29558e+06
1.18802e+06
1.05201e+06
898519
748940
648193
637338
718418
841136
966065
1.06674e+06
1.13984e+06
1.15678e+06
1.05278e+06
795868
75356.6
127861
533547
580767
644545
704405
745743
762400
751466
716320
676149
648319
641031
650687
670303
693650
721557
742424
757049
758134
739980
705641
661705
615776
568318
521795
481912
456886
445769
441780
79227.1
107524
498809
509399
520921
562672
624687
687101
771756
922204
1.08337e+06
1.2247e+06
1.34508e+06
1.42023e+06
1.46092e+06
1.47721e+06
1.51088e+06
1.58217e+06
1.67459e+06
1.74504e+06
1.75157e+06
1.68634e+06
1.55891e+06
1.38063e+06
1.17002e+06
949697
738709
572884
549502
583690
38445.7
16370.2
446653
428568
425947
435292
458548
495119
540220
598154
673894
774943
902910
1.04342e+06
1.17096e+06
1.25741e+06
1.27367e+06
1.24398e+06
1.20946e+06
1.20778e+06
1.26355e+06
1.35715e+06
1.43568e+06
1.43668e+06
1.3006e+06
1.03847e+06
746832
545604
441209
354107
4463.92
2577.16
338616
349058
363357
378233
393093
410241
431100
460519
500882
546316
597491
641124
686572
740529
811963
896285
988848
1.07332e+06
1.13092e+06
1.14351e+06
1.13257e+06
1.10279e+06
1.0946e+06
1.15267e+06
1.27753e+06
1.40534e+06
1.40139e+06
1.05735e+06
50105.3
2471.86
266707
303738
347255
392112
436070
477355
513737
551091
596253
666699
761063
867310
971411
1.05626e+06
1.1168e+06
1.15603e+06
1.17633e+06
1.18039e+06
1.174e+06
1.15439e+06
1.12847e+06
1.08297e+06
1.02256e+06
947256
854455
746093
608531
420428
4038.7
2220.15
269041
320815
356677
387992
418090
446493
486214
554113
661436
782552
893694
990476
1.06558e+06
1.10644e+06
1.11293e+06
1.10902e+06
1.11101e+06
1.13107e+06
1.15282e+06
1.15248e+06
1.10159e+06
1.00328e+06
885094
799548
745163
685941
566311
404834
2522.02
7283.64
833510
913455
1.00035e+06
1.03335e+06
1.02857e+06
1.00186e+06
974930
961745
947868
922430
877546
816897
751285
681876
614798
556498
510791
477725
452827
437363
425337
417351
410287
406558
399568
375363
344814
329486
1573.12
39819.5
307538
304617
288958
266624
254127
256629
272073
295310
324226
358072
397615
427566
82251.9
121702
610801
650882
629618
588711
536610
483252
442181
423108
430147
451215
474165
489533
496687
497155
491879
481786
466278
443117
414206
376427
336209
299304
269524
250181
243764
253446
274600
297953
52559.5
112548
654076
629458
596448
572643
555151
537783
515878
491407
463854
448624
450169
470170
502531
529278
536830
523276
495697
460080
425578
399812
381930
368773
356864
342820
330629
321363
314260
298477
61261.4
120186
646811
842651
940211
960301
938640
896097
855664
823059
796536
766096
720219
660071
587251
530619
511636
538417
596512
653914
692798
708808
710411
713512
722964
717380
659583
555903
451503
392976
75250.7
127742
616024
648995
655815
652414
646399
643327
646297
653220
666385
679873
695642
703349
701744
688323
666448
641453
624476
626192
644195
686746
734581
774455
779309
748211
706505
675634
655557
623991
97589.6
150484
691522
764433
828936
861944
860403
847145
876114
976233
1.13823e+06
1.30956e+06
1.43517e+06
1.49278e+06
1.48447e+06
1.43131e+06
1.34707e+06
1.22929e+06
1.08624e+06
933333
805849
759779
805939
910996
1.02626e+06
1.12429e+06
1.18569e+06
1.17979e+06
1.05076e+06
786276
74358.5
146794
591276
649901
715671
770487
802014
804533
772141
718353
669320
645549
648089
663539
685263
707929
737130
761559
783265
790009
777996
748075
708592
662101
606760
545191
493918
473674
483215
493148
94221
139153
519720
525313
561931
641833
726652
798179
884548
1.02778e+06
1.15916e+06
1.2492e+06
1.28991e+06
1.28417e+06
1.25294e+06
1.21979e+06
1.2343e+06
1.32424e+06
1.47463e+06
1.6188e+06
1.69475e+06
1.67993e+06
1.5874e+06
1.43397e+06
1.24296e+06
1.0308e+06
812681
636803
594675
676957
64484.5
41999.1
491182
461173
450204
452411
471760
502877
542395
590190
651437
729865
822489
917783
1.00049e+06
1.05044e+06
1.06252e+06
1.04537e+06
1.04652e+06
1.10739e+06
1.24282e+06
1.41476e+06
1.54995e+06
1.59148e+06
1.47306e+06
1.20505e+06
879252
640794
503020
386328
7277.88
3565.75
392815
388312
393656
401158
408309
420452
442147
476268
526561
584825
648223
699830
754567
811177
880282
945670
1.00493e+06
1.04421e+06
1.05495e+06
1.02683e+06
983398
941399
950688
1.04898e+06
1.23065e+06
1.44205e+06
1.55123e+06
1.34554e+06
119156
4230.13
294673
325828
363245
401246
440588
480422
523327
568528
621698
695718
789336
888901
978311
1.04829e+06
1.09247e+06
1.11599e+06
1.12331e+06
1.116e+06
1.09498e+06
1.06027e+06
1.02069e+06
971897
922859
869599
812453
745285
659868
511193
10240.2
4290.72
299758
378511
426570
458098
484715
510369
540058
583699
650539
712840
739608
748244
763393
778117
799976
851916
937496
1.05043e+06
1.15611e+06
1.22311e+06
1.22088e+06
1.13356e+06
988186
879016
839919
823446
713284
498650
5815.85
11730
1.01478e+06
1.12189e+06
1.17781e+06
1.15034e+06
1.08111e+06
1.01488e+06
968039
948306
938273
911700
868118
800175
721205
639378
564595
502836
459512
433707
421440
417207
418177
418423
423271
429361
429777
400406
356558
337864
2016.2
46434.2
321058
313849
293775
269625
255963
256514
270589
295105
328792
371741
431126
499103
106232
146425
616080
629586
627943
620823
605297
585871
570287
561959
564961
573772
585464
590595
589521
580916
564103
539879
509553
472535
428315
380904
339887
308135
284170
271167
274779
293376
321868
347523
68756.4
145212
649776
624932
634877
647823
649211
624809
581906
533234
481468
448234
434514
439691
459595
482086
492094
486882
472047
451495
433555
422978
415561
404663
390109
379730
385122
407209
427640
392062
89612.4
154481
803028
1.0272e+06
1.13241e+06
1.15251e+06
1.1237e+06
1.07264e+06
1.0271e+06
993975
975491
960448
939800
903556
855041
809950
780576
768705
772381
783307
790322
784917
770734
750396
722918
677381
600446
522089
472806
453646
89704.9
169804
684784
703303
718799
725009
724417
722200
722694
724278
729328
730591
734168
727887
715732
692021
660464
624993
595246
583874
591335
621540
661383
696740
712025
704330
691199
686296
684528
652687
109734
176196
820936
846749
876524
876208
844227
811219
827024
920600
1.08821e+06
1.2839e+06
1.43991e+06
1.52273e+06
1.53766e+06
1.51539e+06
1.47341e+06
1.40837e+06
1.31893e+06
1.21847e+06
1.13296e+06
1.08762e+06
1.09072e+06
1.1374e+06
1.19439e+06
1.23811e+06
1.24373e+06
1.17753e+06
999068
731342
81097.9
164615
655916
710851
771387
819014
840110
824949
771695
703168
649702
635031
650473
673368
693564
709056
735972
769032
799165
816583
818185
799532
772662
734460
681610
617352
568614
563461
604508
601129
136409
163057
557120
576073
651842
758120
841018
898796
968819
1.08865e+06
1.19412e+06
1.24354e+06
1.22946e+06
1.16035e+06
1.06262e+06
973756
942143
1.0085e+06
1.17592e+06
1.37739e+06
1.52663e+06
1.58312e+06
1.54257e+06
1.42835e+06
1.272e+06
1.08567e+06
880009
693389
627254
768510
78907.7
105708
535165
496997
473065
471435
490144
521373
559784
600772
646787
699224
753173
800298
835492
846910
845401
840713
879877
1.00626e+06
1.21326e+06
1.44087e+06
1.60539e+06
1.66121e+06
1.54266e+06
1.27828e+06
952249
702534
564331
415667
15936.5
6086.61
456599
429907
421675
419968
421676
430753
455045
492328
547584
613035
683870
743982
804118
860029
913477
949741
965350
950928
910847
839733
771990
735279
777247
909248
1.10603e+06
1.32381e+06
1.49575e+06
1.43882e+06
197664
16517.4
338497
368248
398610
425417
454067
489764
534036
585321
643704
717963
806395
900551
985437
1.03899e+06
1.05114e+06
1.036e+06
1.00536e+06
963776
915272
865700
823055
796438
778787
761956
738336
702510
658853
576271
24625.9
21680.4
385748
532153
579412
595410
604219
617685
641841
684288
737039
767084
737793
667839
606898
567335
571889
655053
809397
995670
1.1732e+06
1.28807e+06
1.32653e+06
1.25967e+06
1.09604e+06
952683
918859
939498
856187
620701
14916.8
22422.2
1.20304e+06
1.35472e+06
1.36071e+06
1.25465e+06
1.12985e+06
1.01421e+06
941877
909791
901757
889319
856310
794157
715116
624106
540974
471676
426309
401489
393149
395826
405252
410299
420848
434662
441554
417914
371974
322506
3639.25
51359.1
328294
316126
293509
276889
277118
296584
335411
386957
440894
485670
537766
601318
530884
161609
164286
571953
600062
622306
652951
680097
697861
708598
715338
716889
717097
716111
714317
704716
687956
663158
633188
596583
554059
508217
465757
431182
405422
389424
379983
378642
388036
401825
423304
439091
356596
115882
126392
596930
625940
678585
747869
791664
800727
763793
692659
614981
549276
511738
494822
491916
495387
503311
505505
505353
500631
492523
485841
482048
475153
462519
458558
489787
598054
812634
1.07758e+06
1.21245e+06
987990
250228
312437
1.3314e+06
1.30168e+06
1.31909e+06
1.36592e+06
1.37245e+06
1.33961e+06
1.28395e+06
1.23048e+06
1.19205e+06
1.1773e+06
1.18339e+06
1.19605e+06
1.2026e+06
1.19965e+06
1.19106e+06
1.17519e+06
1.15675e+06
1.13022e+06
1.09532e+06
1.04939e+06
991332
922581
846450
766496
689299
627517
604906
614555
623054
539920
208873
243298
773442
792064
806630
832401
849496
859599
862020
867783
868434
868811
851678
831002
791347
754088
712449
677347
648012
624285
612056
612282
630274
654810
678880
692128
694737
698240
711295
722015
688360
494439
194687
233718
886274
962850
928585
910895
875802
821651
775858
780223
850868
995694
1.18992e+06
1.37136e+06
1.48408e+06
1.52624e+06
1.53055e+06
1.52868e+06
1.52711e+06
1.51668e+06
1.49004e+06
1.45552e+06
1.42413e+06
1.40461e+06
1.39364e+06
1.37813e+06
1.34018e+06
1.26248e+06
1.11737e+06
906484
676852
372033
166459
179776
642758
719788
760738
811335
848911
857765
823141
751025
671827
617782
611540
640610
673989
694500
701535
723114
759275
798890
831141
847132
849510
842254
819641
779875
731816
705639
729297
789118
806767
657853
173674
167163
629132
683657
722466
805753
891738
942486
967788
1.00828e+06
1.09817e+06
1.1768e+06
1.20924e+06
1.1712e+06
1.07262e+06
946834
829861
758453
776224
900335
1.09865e+06
1.29289e+06
1.41227e+06
1.43198e+06
1.36445e+06
1.24858e+06
1.10161e+06
931889
747268
633153
773545
684175
146885
135913
683456
675538
564088
512322
505352
523358
554170
592031
626732
663706
693183
713894
719261
708622
684758
664187
674770
763880
945191
1.1899e+06
1.43936e+06
1.61165e+06
1.65531e+06
1.52192e+06
1.25613e+06
944018
713466
619000
529058
349943
23015.4
42374.9
515389
524594
466384
441372
434006
432851
441093
467987
509379
569614
641964
717463
784527
842793
889818
922209
930435
912057
860817
793426
712655
648562
643282
722697
868665
1.03432e+06
1.18329e+06
1.29823e+06
1.31628e+06
1.02176e+06
66209.7
57613.1
364128
443319
461163
477827
487020
497226
519511
555687
604188
661303
733065
828171
940719
1.04523e+06
1.09281e+06
1.07414e+06
1.01163e+06
923599
822941
725818
649275
648323
695391
747286
786066
790750
759207
711165
645701
566112
32394.9
31266.3
516155
726211
793922
790000
768492
745792
748846
770476
822852
896061
959833
962902
927949
876176
807068
727725
714697
854771
1.04954e+06
1.22936e+06
1.34533e+06
1.39712e+06
1.34058e+06
1.15957e+06
990246
963855
1.02136e+06
985139
798348
681238
30317.8
64642.4
975546
1.41789e+06
1.54636e+06
1.5017e+06
1.34039e+06
1.14131e+06
955376
828556
793036
818590
843587
845241
806328
741758
650580
560170
476532
419250
389121
377619
379635
388339
394934
404532
417551
425328
417828
403824
387981
265868
3029.21
1696.18
54456.3
328996
312670
292026
286027
299019
331624
383469
444685
506639
555442
593010
633852
626170
532747
519791
559364
587724
637138
688455
735134
772942
800257
817935
824033
822159
812571
798966
778109
751878
719863
683341
644602
608602
580688
561928
551568
547090
546304
547131
549905
554988
557089
555259
541007
502105
481441
504284
613450
696555
800706
895400
957317
976397
941016
852459
746230
664878
623029
609638
606118
602821
602140
597046
594113
588268
581070
570925
560639
547567
541836
569446
681596
949526
1.38482e+06
1.86305e+06
2.20356e+06
2.32448e+06
2.24412e+06
2.02753e+06
1.66218e+06
1.51314e+06
1.5288e+06
1.5715e+06
1.58459e+06
1.55853e+06
1.49856e+06
1.43498e+06
1.38778e+06
1.37179e+06
1.38968e+06
1.42873e+06
1.47272e+06
1.50792e+06
1.52452e+06
1.52096e+06
1.49848e+06
1.4596e+06
1.3998e+06
1.31975e+06
1.22513e+06
1.12431e+06
1.02702e+06
949505
904604
893033
900642
907561
898762
881566
900089
919410
904554
911686
944072
978248
1.0029e+06
1.02127e+06
1.03074e+06
1.04314e+06
1.04964e+06
1.04532e+06
1.00933e+06
949857
868000
794597
734513
700497
681771
672971
666205
668104
680175
698268
712134
716204
714517
722281
739571
750659
721171
633354
617411
834875
1.09933e+06
1.0231e+06
974005
925165
866680
795797
743495
736876
783185
885849
1.0495e+06
1.24027e+06
1.38652e+06
1.46027e+06
1.48743e+06
1.5061e+06
1.53723e+06
1.58024e+06
1.6189e+06
1.63902e+06
1.63241e+06
1.60354e+06
1.54911e+06
1.46597e+06
1.34646e+06
1.19137e+06
1.00329e+06
807744
624149
467465
435414
528951
726086
760598
812320
847203
866450
856045
802424
715777
628264
572680
572769
615949
660407
685403
685166
694252
729349
776502
823426
855854
878160
889458
884817
865431
839151
832210
855775
905799
945947
950644
919236
885561
916272
904904
936640
978101
1.00794e+06
1.00933e+06
995888
1.00076e+06
1.05159e+06
1.10044e+06
1.12928e+06
1.10134e+06
1.01683e+06
908686
804966
733422
722838
778996
899916
1.06192e+06
1.20646e+06
1.27376e+06
1.2528e+06
1.1754e+06
1.07597e+06
952654
803970
665690
682991
832968
778687
850739
895410
752589
607661
548933
543439
562998
594153
631415
665406
696275
715146
719070
700137
665011
620018
591780
620359
739219
942021
1.184e+06
1.41721e+06
1.57446e+06
1.58973e+06
1.43716e+06
1.16871e+06
874980
677804