/*--------------------------------*- C++ -*----------------------------------*\
| =========                 |                                                 |
| \\      /  F ield         | OpenFOAM: The Open Source CFD Toolbox           |
|  \\    /   O peration     | Version:  2.1.1                                 |
|   \\  /    A nd           | Web:      www.OpenFOAM.org                      |
|    \\/     M anipulation  |                                                 |
\*---------------------------------------------------------------------------*/
FoamFile
{
    version     2.0;
    format      ascii;
    class       volScalarField;
    location    "0.003700000";
    object      p;
}
// * * * * * * * * * * * * * * * * * * * * * * * * * * * * * * * * * * * * * //

dimensions      [1 -1 -2 0 0 0 0];

internalField   nonuniform List<scalar> 
12384
(
752211
755932
753660
754853
752699
751520
752924
747796
755098
755114
763491
770515
779165
782617
863827
864583
856407
854376
839337
829266
805333
785313
777031
746764
722833
732643
687779
706799
663656
685841
667328
678986
678525
683484
685473
682252
678543
675802
662852
665027
651700
656309
645236
650429
743631
743674
741378
735329
723801
707260
689170
668154
664539
655494
651812
670732
683108
695752
703845
705982
697834
686476
671994
660926
653485
641783
645013
649156
653042
647006
641683
655476
652138
671821
733303
764743
770227
790586
811986
816548
824237
819738
808807
737061
768500
636375
703023
602182
658454
630981
636254
647013
654942
653714
680121
683626
688776
723172
723917
707812
713333
712534
708661
711462
700153
697974
696892
688515
684873
666586
662146
629659
637103
597696
608693
576703
575502
567951
575313
549700
615699
599780
651111
648670
652423
659289
661587
657825
652966
652763
637625
641832
634863
639639
813895
850012
823775
894188
891247
952953
963441
993866
962080
924526
763497
813421
660730
713340
580682
629831
510321
560891
474928
525923
482966
554979
542602
585674
594549
606287
605146
607604
605427
613625
718056
730711
724158
739818
736639
748669
744906
760153
768506
777799
777269
766235
737129
716251
722528
741693
700592
811294
779192
895756
910936
989547
1.08567e+06
1.19166e+06
1.21749e+06
1.19489e+06
1.17079e+06
1.13243e+06
1.14212e+06
1.12467e+06
630648
671432
667544
723804
764842
753452
790620
795277
827763
842499
847833
768800
767600
650132
688545
714789
772175
799975
812507
820777
816344
806816
776073
729332
728616
722703
655714
640343
640302
613922
829756
806405
808986
788328
798500
821126
829052
888909
904867
882451
845907
766218
757293
746154
795119
793727
773804
842264
876501
872431
910466
925849
933003
927777
922061
910086
904265
882427
886877
856022
629253
626891
640082
643183
657134
669488
680236
699450
706183
696720
704056
651861
671492
665970
682359
693214
698552
652483
619990
514327
551827
504173
523432
526843
536928
539105
534656
526339
521161
514421
956614
928464
896728
862492
783058
813887
733510
768334
727487
745200
730389
736696
744847
743300
750828
745947
750515
741600
747822
746368
757088
774041
775841
774307
765462
714558
719584
658794
680193
658601
1.04811e+06
1.11196e+06
1.08933e+06
1.24122e+06
1.22024e+06
1.33996e+06
1.34068e+06
1.35695e+06
1.34125e+06
1.33592e+06
1.31577e+06
1.308e+06
1.28425e+06
1.18298e+06
1.1603e+06
1.02322e+06
1.18283e+06
1.144e+06
1.28516e+06
1.35342e+06
1.46998e+06
1.51348e+06
1.49279e+06
1.44515e+06
1.3689e+06
1.37788e+06
1.28863e+06
1.26729e+06
1.18893e+06
1.13746e+06
1.22274e+06
1.20403e+06
1.37319e+06
1.43799e+06
1.46817e+06
1.45919e+06
1.50317e+06
1.47434e+06
1.5684e+06
1.5683e+06
1.69252e+06
1.76029e+06
1.80673e+06
1.598e+06
1.42444e+06
1.09272e+06
1.22797e+06
1.07359e+06
1.1416e+06
1.09293e+06
1.12568e+06
1.14924e+06
1.14355e+06
1.24563e+06
1.26449e+06
1.35656e+06
1.40204e+06
1.43601e+06
1.43443e+06
1.43845e+06
761319
759018
758259
753631
755043
752903
750689
749872
755832
753989
762146
769508
775802
782599
851192
850554
851870
844808
840007
822697
805400
786595
763865
756902
722956
725955
693941
701516
670243
681001
670960
683171
678452
686960
686291
684062
680456
675951
667591
664382
655095
655155
647793
648521
742164
742488
741685
735696
727208
711646
694418
676413
663256
655500
659786
671215
684137
693931
703902
704461
698717
686138
678645
669886
654299
669359
667510
664564
643502
646795
645956
645113
657534
664458
796284
782374
805712
795537
819105
824638
822550
817674
790836
744004
732822
658301
666174
621555
638736
632997
638692
644943
641308
668462
683279
686814
714611
721921
725288
729827
717515
719078
717428
707275
682950
685798
680524
675253
662301
660102
637933
635900
612589
611089
582087
589219
561718
553109
549868
558484
583238
616333
628375
645636
645130
646691
653519
655482
648911
635248
629764
617765
615782
610267
823829
847601
830896
893780
889669
940583
964817
989519
959195
906375
779307
777720
676813
698299
587929
630114
510387
569987
475358
519846
486995
554992
536687
588487
591888
603943
609412
608246
614826
611639
722840
722537
725129
733462
740169
743824
748893
761724
770765
778644
772549
759121
748812
719130
719394
743243
724876
817579
811854
861680
869771
948883
1.02611e+06
1.12974e+06
1.17973e+06
1.18856e+06
1.16533e+06
1.15344e+06
1.13502e+06
1.14415e+06
628735
682725
671120
749282
739572
773498
778928
805801
842640
858128
880189
781754
725352
637816
683267
703270
709839
743364
763490
768263
767613
742854
709820
715737
697864
643862
650465
622708
622146
604553
795448
798794
781243
786651
786229
795877
840125
873579
893627
888939
839149
835191
790637
775704
762794
779366
804566
826044
855296
870213
903505
929063
930993
928515
916211
902408
884794
886487
856984
861907
630790
634482
632032
646643
646548
664160
678023
692007
697180
697792
673552
674202
647976
662557
670975
680711
676796
656620
606675
531147
543979
500039
522157
523631
532270
537771
534871
531371
520977
521697
960688
942322
892249
866930
784083
803975
737855
765725
726919
741175
730060
731735
742326
742750
748144
747638
747523
742202
756873
751227
765296
771241
777442
763307
757256
711207
704764
667690
681900
660269
1.05152e+06
1.13381e+06
1.08697e+06
1.2189e+06
1.23504e+06
1.29975e+06
1.3436e+06
1.35519e+06
1.35851e+06
1.34309e+06
1.32447e+06
1.29819e+06
1.25214e+06
1.13514e+06
1.09074e+06
1.01499e+06
1.15621e+06
1.1046e+06
1.28735e+06
1.35781e+06
1.4809e+06
1.52066e+06
1.5153e+06
1.43972e+06
1.34325e+06
1.32986e+06
1.28391e+06
1.26945e+06
1.27934e+06
1.25816e+06
1.16181e+06
1.26704e+06
1.31017e+06
1.39405e+06
1.42491e+06
1.4551e+06
1.48245e+06
1.50396e+06
1.49585e+06
1.57987e+06
1.60046e+06
1.65791e+06
1.6736e+06
1.5906e+06
1.39631e+06
1.1487e+06
1.20826e+06
1.12457e+06
1.10938e+06
1.12941e+06
1.14548e+06
1.17969e+06
1.1768e+06
1.24517e+06
1.28983e+06
1.348e+06
1.40128e+06
1.42423e+06
1.43476e+06
1.42427e+06
757343
757977
757823
758904
754085
755559
752036
751347
758700
755239
767034
767920
776223
777106
833555
837190
837318
840942
831659
819835
803711
780553
765823
746807
727290
721214
693950
702632
672899
684629
677488
681029
682773
688538
687539
686517
682941
675568
672659
661042
661218
650477
652038
647442
743885
741678
738220
737127
728245
719727
698557
690691
667339
671650
666867
673340
685981
695234
701910
703373
696632
686981
682435
664583
677114
660558
659818
658150
662369
645272
647566
647817
649044
665735
796805
814025
810309
834653
822037
827763
821035
786812
794733
711689
728815
631977
670937
607828
625534
624708
633664
628429
657520
669553
681991
713240
733148
730686
732006
722109
718906
698992
691840
687905
661648
657061
653489
646366
650772
633805
633082
610840
613925
587996
589890
562005
551372
553685
554133
534564
588630
585620
628880
626064
631836
637264
647536
660350
662268
681168
678640
683021
673828
667753
818096
853196
837540
886609
884812
925113
958956
978799
944275
882893
776905
779283
671923
706120
592847
633494
521828
568913
485465
525291
500437
549411
541551
588471
586688
602761
605886
613817
612130
620929
707567
716613
724888
724344
738507
741535
748331
764411
769646
777690
764626
756672
749017
720325
715805
760821
759726
824729
819470
858503
850070
881305
975493
1.0577e+06
1.14803e+06
1.1746e+06
1.16828e+06
1.15967e+06
1.14899e+06
1.13712e+06
627502
690883
673414
747077
742465
771929
783647
817797
838115
865927
874666
785829
700671
628751
637429
668503
687901
693592
712047
720552
701700
689683
690256
662373
617488
643421
630401
630805
648384
656326
782467
768358
769609
762747
756963
796097
821905
842391
879357
886372
891441
856923
827537
785330
776341
756368
782821
821412
826236
873727
899828
918019
931896
924588
913757
898676
880006
862490
847285
823640
627713
626898
634095
636752
648783
656569
668285
686385
691925
676585
665065
658177
648162
645019
660498
666661
671629
637063
615009
526571
557641
490599
520025
515941
526710
533856
534740
530028
523841
516924
966212
947911
892195
876241
783286
801158
741194
759933
729215
742656
736573
746032
743055
744368
744601
743306
745985
744389
747658
751908
755811
763082
762115
761372
751842
704171
706239
669121
678951
664074
1.07934e+06
1.09888e+06
1.10744e+06
1.17338e+06
1.22049e+06
1.29842e+06
1.319e+06
1.3585e+06
1.35363e+06
1.34973e+06
1.32566e+06
1.29225e+06
1.21479e+06
1.12491e+06
1.07649e+06
948430
1.16422e+06
1.08736e+06
1.29852e+06
1.33812e+06
1.45165e+06
1.5054e+06
1.49505e+06
1.46481e+06
1.43926e+06
1.4007e+06
1.37744e+06
1.35257e+06
1.33742e+06
1.34536e+06
1.21788e+06
1.18977e+06
1.32026e+06
1.29523e+06
1.39669e+06
1.38928e+06
1.42415e+06
1.44562e+06
1.51134e+06
1.48027e+06
1.58494e+06
1.60743e+06
1.63735e+06
1.4931e+06
1.41267e+06
1.18146e+06
1.2552e+06
1.12559e+06
1.17016e+06
1.16872e+06
1.16149e+06
1.19757e+06
1.20655e+06
1.26303e+06
1.29871e+06
1.35449e+06
1.38975e+06
1.42046e+06
1.42438e+06
1.42667e+06
770947
768371
764414
761179
758582
752447
753918
757038
755604
758337
766081
770578
772919
779352
812358
824162
828665
825620
823238
814783
795098
781888
757927
746812
730237
713316
708309
699440
682222
684293
680600
679668
690703
687323
690342
687767
686389
677600
674824
663968
660853
650688
652117
646710
728837
738062
736111
728683
729434
718121
711439
692417
689146
673618
677052
680976
687644
696065
701010
699485
696989
690057
679868
698850
693877
703465
690277
674301
657521
659700
645904
651032
659528
660483
852782
850987
850996
836551
845627
820186
814223
771298
758821
710242
698588
639946
650457
608709
623845
623054
615057
638916
659794
668340
708055
730485
733646
735527
726519
719819
707604
698027
689853
686680
647258
644812
641319
641504
623449
618873
598825
610410
584175
588751
562444
548763
546556
525392
526065
544728
549538
591946
596323
625311
628419
628691
654892
648332
660320
648720
651310
646405
649957
655308
836629
833393
852656
868516
883818
913540
942447
959172
922077
846055
766983
769077
680398
693524
606351
633376
530580
570469
510075
519540
506472
550787
539876
582176
584546
597586
611206
611714
617760
619764
707561
705567
716121
720003
731674
740287
752181
762544
773440
771076
767832
745959
742285
736025
727185
778761
794314
828188
826670
829363
845135
835799
866202
1.00918e+06
1.0691e+06
1.13194e+06
1.14242e+06
1.15439e+06
1.14654e+06
1.1442e+06
650647
702055
693512
746080
747295
787493
781722
821740
835035
863023
858692
766954
700883
605787
640837
626861
653030
673123
672893
670008
675984
664868
636679
603492
630599
601686
605759
628251
641548
663691
739813
746242
735692
740445
757672
761798
783959
822248
847330
865034
877399
878474
845778
819161
768960
773449
753685
771215
806216
846722
883744
899539
907193
905992
897690
880719
862662
842709
823423
830629
628031
624111
628871
636516
638633
657215
659261
671697
663530
668446
647946
642458
624017
635571
641303
652745
648154
629297
607785
527909
543977
496806
503325
508775
516646
525777
530364
531391
526331
518780
967570
950879
887656
892938
774177
812534
735055
758693
729974
736966
730220
725655
735041
737824
747909
747275
748278
743216
745917
752377
753139
752564
756719
747492
720572
705959
702047
682662
682841
677067
1.06113e+06
1.0856e+06
1.10654e+06
1.15466e+06
1.1833e+06
1.25172e+06
1.31076e+06
1.32577e+06
1.35114e+06
1.33129e+06
1.29966e+06
1.23185e+06
1.18396e+06
1.07209e+06
1.03524e+06
964073
1.10808e+06
1.10282e+06
1.28649e+06
1.3315e+06
1.43113e+06
1.47196e+06
1.48628e+06
1.45421e+06
1.43763e+06
1.37532e+06
1.38695e+06
1.36831e+06
1.3936e+06
1.37676e+06
1.17401e+06
1.2153e+06
1.17301e+06
1.29586e+06
1.26013e+06
1.37637e+06
1.37147e+06
1.4068e+06
1.4199e+06
1.50335e+06
1.4652e+06
1.5339e+06
1.50825e+06
1.4481e+06
1.37395e+06
1.27894e+06
1.20326e+06
1.18614e+06
1.14552e+06
1.16738e+06
1.19713e+06
1.22719e+06
1.24577e+06
1.28814e+06
1.32877e+06
1.35905e+06
1.40149e+06
1.40667e+06
1.41823e+06
1.41338e+06
770671
770956
767933
766006
763979
758946
759352
754432
763578
763435
768679
778223
779449
779981
791753
795332
798137
810095
814110
805463
794841
772818
759435
747757
730816
727084
712696
696580
702133
690451
689702
682183
688553
689671
691380
689976
686416
681536
671882
667674
654890
655976
649184
649524
706139
706485
716165
729547
719469
718601
709264
706191
691269
688724
684801
686811
692619
695690
698479
698175
698518
688917
706552
688889
696967
691453
697863
683542
670101
658158
664982
653358
659158
661746
900113
889676
880099
865662
835062
828710
788935
760132
749213
692513
705702
628529
654317
608103
614659
608039
630695
639390
659368
691252
722776
725873
734369
728639
721624
705606
697444
684932
675973
670272
588050
591489
595120
588287
590952
584445
602379
576787
587263
560062
551517
542886
521383
529859
526369
511311
555785
564862
595634
606577
620876
638433
643217
702143
720365
729816
736560
743741
730674
721897
828753
841875
833005
867979
870258
899726
921681
931427
881203
823540
761519
752133
679317
692795
622894
621284
552577
573944
522769
535443
525762
546736
548147
580893
578668
602734
608530
612669
620957
626217
689308
693115
700982
715951
725728
738264
751517
765169
767788
771654
763972
733116
737209
745378
751366
803806
809260
832552
831635
830886
821826
837851
827657
896315
1.01172e+06
1.08011e+06
1.1368e+06
1.13475e+06
1.11695e+06
1.12416e+06
663898
710070
716802
743451
767147
773090
802344
801013
829333
838681
828799
764812
686482
594402
612135
623033
626570
646870
664533
666379
644485
619047
598829
617012
587136
600849
601807
609366
626508
641607
717153
709025
708448
709119
711403
742047
774810
788757
818691
837655
856494
862013
858339
821097
777092
761033
757949
763710
778315
802810
842659
875259
882383
880456
876570
863384
832252
816109
788472
770402
624259
625219
625986
636764
638879
645629
660570
653293
657887
643074
637319
613687
625281
622733
634965
636614
638946
614463
601840
518781
545162
479512
502967
495301
506897
515658
527934
530141
531312
517452
972061
952442
905251
877549
780573
819411
747624
769450
760552
752783
760701
774191
771556
762859
738619
746783
740446
743562
739718
740931
743884
742159
736319
718912
718191
692979
693124
681149
690991
678682
1.06439e+06
1.01914e+06
1.07509e+06
1.09641e+06
1.16016e+06
1.18724e+06
1.26756e+06
1.30902e+06
1.28751e+06
1.30213e+06
1.26152e+06
1.19606e+06
1.1486e+06
1.00801e+06
969807
943275
1.08701e+06
1.10025e+06
1.24345e+06
1.31915e+06
1.40417e+06
1.43699e+06
1.44797e+06
1.44539e+06
1.42842e+06
1.41601e+06
1.40128e+06
1.39949e+06
1.39161e+06
1.41616e+06
1.21146e+06
1.14965e+06
1.20234e+06
1.14315e+06
1.27539e+06
1.22528e+06
1.33893e+06
1.32388e+06
1.38238e+06
1.38929e+06
1.50213e+06
1.46084e+06
1.45973e+06
1.39841e+06
1.39625e+06
1.25145e+06
1.28446e+06
1.1943e+06
1.22574e+06
1.21079e+06
1.19677e+06
1.25776e+06
1.26437e+06
1.31567e+06
1.34508e+06
1.37314e+06
1.39794e+06
1.40851e+06
1.4055e+06
1.40552e+06
780815
778466
776749
771664
765973
767508
760752
768775
761249
766397
771482
773818
773744
777917
793029
799325
803712
802754
797088
799819
786433
771443
762484
744914
731718
718419
730077
702983
701609
703280
686568
692205
691291
692120
690193
690491
684148
682354
667750
669530
652053
657452
648982
652039
709321
698140
684913
689715
711339
706361
709595
704773
702318
693326
692762
692702
693515
697764
696052
701176
694429
710465
700511
734569
748344
739741
713802
712301
693632
681262
663369
671140
661557
667746
924703
923073
896314
873357
842026
808012
779570
764510
731159
723535
674864
663163
623331
633294
615265
633835
631031
647805
676292
707344
712091
725693
718851
714312
701378
695283
683044
673539
670020
663674
610341
606226
597817
599119
587823
593680
574495
584393
563154
552125
548550
516799
526015
496213
507077
512557
538345
554484
584452
607399
621515
634039
705264
713068
741010
757959
755938
745425
744825
728273
817392
818158
839241
831055
872519
873461
897877
884518
847141
807928
745678
736005
686080
687717
620450
643291
572024
581489
532241
552118
533573
557293
550845
571925
582901
606291
603457
622524
636417
634648
670812
689889
685937
712257
715643
738195
747264
760440
764277
764664
749773
739711
745551
760091
781464
815609
824448
836353
829284
815182
804541
799406
826860
819115
883020
952581
1.01027e+06
1.0261e+06
1.06483e+06
1.11186e+06
715218
706005
735778
748559
764637
778389
778963
804980
784049
810582
799780
732036
694414
570449
619447
588028
615305
631150
639401
628695
617335
608301
611585
586149
598602
589660
592265
598643
601282
614993
675558
679539
679718
690015
703944
726065
723465
776188
791318
815752
832777
845528
836389
821452
758972
755435
707250
731641
756195
776333
794632
822734
854416
846694
827594
805981
800737
775343
763795
789774
617470
627810
624137
637173
642407
641858
655050
650669
633068
633493
611264
619881
610880
618673
621170
626969
624026
608110
583994
524628
526978
478191
488524
476499
494887
511559
518396
536281
532323
520369
962277
958558
901658
879282
795403
811552
756139
752162
756958
754037
757175
752703
753170
764006
770258
741495
746454
739553
731198
724860
731698
734881
711143
705745
681576
687696
677956
686910
682645
664583
964364
1.02969e+06
1.02685e+06
1.07866e+06
1.10195e+06
1.15596e+06
1.17186e+06
1.228e+06
1.30182e+06
1.25705e+06
1.19837e+06
1.1617e+06
1.05991e+06
951970
978069
926988
1.06244e+06
1.0869e+06
1.21759e+06
1.28543e+06
1.3634e+06
1.41148e+06
1.42508e+06
1.42712e+06
1.42753e+06
1.41495e+06
1.41705e+06
1.40702e+06
1.40545e+06
1.4067e+06
1.18057e+06
1.17604e+06
1.09435e+06
1.16228e+06
1.10645e+06
1.25459e+06
1.20076e+06
1.33082e+06
1.31077e+06
1.39585e+06
1.3508e+06
1.42356e+06
1.38339e+06
1.41044e+06
1.33984e+06
1.3414e+06
1.25976e+06
1.23735e+06
1.20176e+06
1.21425e+06
1.24278e+06
1.25548e+06
1.30773e+06
1.34049e+06
1.36572e+06
1.41218e+06
1.41028e+06
1.40075e+06
1.39161e+06
1.38975e+06
784554
784096
779837
777914
775254
766735
773895
765061
776787
780727
783811
785325
787213
789847
769476
771592
777818
788294
799231
791261
783846
776407
755705
750067
762976
748261
744503
739066
706460
701926
704772
692981
690495
691347
688170
686384
681649
675903
669030
661608
655526
652090
651453
652961
683659
688540
694945
688895
681742
702737
701743
702728
699293
699735
696252
696887
700013
696379
702545
694938
711843
704194
741962
734396
729538
731506
735696
704715
704482
692649
685760
671831
676696
677478
924871
922771
888916
876614
816647
810434
782928
764844
740520
735539
672598
666886
631574
630937
622342
620958
654973
661189
685691
700635
712911
707591
708509
696902
690832
678264
668391
661169
655692
661165
576564
578448
580512
577525
582611
575226
583660
570059
562828
558117
526356
521447
512339
496552
503064
507261
516196
556413
576602
597264
612700
696553
722326
779923
815308
830189
827131
804163
785756
781400
805831
801462
816117
834740
830178
873982
869172
852781
822604
790329
735995
728914
702836
662361
648167
632992
583566
588730
563539
538130
548292
552798
572920
573619
593565
599438
618682
635129
637697
660307
672733
668216
687053
693299
716897
728685
747490
752008
759075
748393
740221
755442
731201
792130
795696
827369
834216
834295
820393
804275
788171
780556
780490
811572
815450
891450
956971
1.03585e+06
985221
938555
704348
732618
730966
750969
758816
762852
767461
761907
792364
784863
764656
728113
648110
591382
576196
577293
586410
599529
600147
611097
610999
609503
591089
596432
583913
584950
587839
584484
585760
593474
636639
646298
656514
663552
669570
708927
720038
755466
776745
788056
802713
810570
811652
786306
759554
738750
695288
693362
714877
751330
772810
786391
796308
819876
814111
799489
773763
771423
747064
723509
633299
630042
641627
635872
650219
646204
640439
629970
637346
608005
619601
607020
609312
612069
618784
623696
617860
587552
591615
512690
536218
468291
493865
483057
502228
494597
528061
516485
539173
496023
954675
933853
897308
895321
824124
829188
818900
817132
815455
834281
821552
814711
819574
788879
768185
771200
734524
734129
724521
717978
705911
678003
669400
657400
662909
654260
670922
677875
676563
686027
885340
870009
928111
933881
1.0177e+06
1.07817e+06
1.13861e+06
1.19789e+06
1.17532e+06
1.14302e+06
1.15758e+06
1.08427e+06
978683
985512
956918
979020
966308
1.08562e+06
1.17167e+06
1.24848e+06
1.28903e+06
1.3402e+06
1.3625e+06
1.40137e+06
1.4034e+06
1.41895e+06
1.41447e+06
1.40967e+06
1.38473e+06
1.37799e+06
1.28416e+06
1.12857e+06
1.14528e+06
1.04423e+06
1.13934e+06
1.06515e+06
1.22468e+06
1.15799e+06
1.27105e+06
1.22548e+06
1.32932e+06
1.30727e+06
1.39093e+06
1.3642e+06
1.37487e+06
1.32706e+06
1.31418e+06
1.30037e+06
1.2967e+06
1.28521e+06
1.28319e+06
1.30739e+06
1.33375e+06
1.35823e+06
1.3998e+06
1.41362e+06
1.42612e+06
1.41383e+06
1.38038e+06
1.3731e+06
789606
786352
784519
780824
775205
780222
772974
780862
775736
780498
777580
784053
781943
786135
771127
781622
783340
789840
786836
789134
782326
772799
762795
769459
768271
760406
736345
742715
742477
710277
705002
700043
692200
695209
684625
682809
675990
668707
661553
656095
652081
651557
651615
651279
649104
659510
662449
671538
676451
669484
684354
693376
696457
693808
696831
700333
698919
704668
699309
715645
706122
742865
745809
781992
791200
772399
748319
757498
732382
729392
691734
669114
655148
660345
931994
908325
893216
835445
821109
808229
782984
784224
743232
724184
666858
688122
637558
655349
647716
670088
659215
691180
688952
704731
702195
699831
689038
683973
669280
663481
662564
659798
651267
646186
568909
594480
591053
582479
586360
579805
581356
573885
562061
547187
536649
497790
507973
484815
498233
483128
536103
519385
574985
578840
660584
694465
772350
827883
861618
866764
857378
838062
809797
784743
777528
801303
791580
813419
831584
819340
824993
826165
804771
765205
735588
733142
682512
691279
647544
652741
615892
601036
599112
602856
567637
565936
562656
594644
587091
616117
628345
640885
661672
651909
667721
660800
673790
697625
703422
730221
735349
751047
744072
739204
741176
748674
747411
798216
816885
833705
838458
823466
812372
785989
789229
778526
777444
781193
801869
795535
816235
816006
862715
1.00135e+06
756109
733358
742490
734447
747059
740779
735128
757823
743586
740295
753967
686916
670459
562360
599904
549720
575695
588109
606041
607663
607099
597625
597977
591194
590639
587532
581601
585729
582245
581063
600072
623994
633704
645318
656510
686091
693305
736545
749849
779180
793387
804991
788441
775175
736935
736804
680124
690446
674680
702683
747497
760496
757049
749716
766160
752234
758318
726128
723059
719603
623535
641653
639752
656273
649781
654597
634703
639812
614200
613487
606922
600404
602990
608605
613647
612460
607208
597518
578063
517403
534656
481648
486527
495421
483928
522399
518743
550719
511654
443991
927444
913382
914236
883393
866074
858078
829701
808509
826270
822075
839704
836588
824376
815222
793695
768224
766141
715740
714391
703925
663209
666424
659346
647941
620528
653001
658215
660874
685560
672020
878547
914023
899576
979391
969487
1.00463e+06
1.02274e+06
1.04747e+06
1.04836e+06
1.12282e+06
1.04967e+06
995082
993697
952915
911524
875372
1.02787e+06
1.01384e+06
1.1154e+06
1.16329e+06
1.20892e+06
1.2696e+06
1.35615e+06
1.35357e+06
1.37327e+06
1.37556e+06
1.39251e+06
1.37971e+06
1.37815e+06
1.36908e+06
1.3379e+06
1.22277e+06
1.12536e+06
1.0581e+06
997667
1.09963e+06
1.01085e+06
1.17822e+06
1.0888e+06
1.25466e+06
1.25622e+06
1.34298e+06
1.29921e+06
1.37268e+06
1.36179e+06
1.37127e+06
1.35721e+06
1.32932e+06
1.30077e+06
1.29705e+06
1.32162e+06
1.32106e+06
1.3603e+06
1.38677e+06
1.41945e+06
1.43958e+06
1.42419e+06
1.38147e+06
1.35362e+06
1.32087e+06
789378
789143
785727
783579
786814
782921
787682
787018
792598
788210
799377
794313
796952
802684
802569
810668
782501
787346
787272
787769
790611
784318
780938
776995
781583
781307
775603
801349
802080
756355
750341
744187
712459
715484
702956
689724
692301
674210
676238
661780
659678
649807
651310
647149
649332
652209
650402
664914
667406
668665
667263
665420
670247
679753
665934
670698
680617
687497
692238
694779
705358
702961
717248
710374
742266
748818
777137
772697
775302
775312
777188
758334
775480
746997
736698
700372
663345
652630
617340
560314
764426
835228
814130
812656
808400
796880
796617
771614
742581
703691
708166
672334
678976
658105
676774
662298
693777
690557
710442
701589
702932
691360
682534
675432
668602
662558
649955
641474
639169
638576
616898
626374
610918
604407
599784
591547
585814
586282
579673
578334
565874
541314
535183
493552
494338
483156
475583
496734
520216
496942
581755
588559
655176
720513
802612
851522
878590
886576
876269
854580
826277
787939
743623
674411
767876
765777
797286
790149
813488
840544
829880
811511
779272
754348
748137
703197
707563
686751
659875
641022
639288
631703
606883
584313
606558
596191
610839
590859
623405
628710
639724
668467
667363
684273
670841
635884
646395
655388
668643
683812
712945
716292
736916
734550
733207
738398
726444
752620
765280
806893
826027
837451
828844
811610
788214
780797
770484
778657
773408
773277
770941
799516
810928
863521
868182
820338
857252
763166
762326
764201
710533
723809
707668
732554
730424
735739
729892
750431
719664
706853
637923
588354
586534
549487
563460
580530
587588
598649
598092
601923
602251
602656
595191
588058
582930
569257
569502
563745
533617
569322
576757
604867
624074
637938
649101
665266
699381
704657
741914
757773
778069
780294
781942
760586
741400
719771
685936
678764
673001
670547
687425
733011
756609
776043
766201
761465
750353
740672
724086
718008
690089
634830
662943
651862
668006
658394
663986
651294
636937
637723
615312
619824
620549
615194
616687
615116
611677
611242
607490
601439
569176
534103
533030
484099
506264
483562
514547
508382
552684
584707
640381
593487
752105
746902
831058
886886
889432
894759
889669
888180
870892
920955
924934
900682
887709
880514
850985
832192
814387
781769
748232
748949
688647
680749
669342
634634
600603
597989
609934
651177
640182
690862
706221
733701
785139
801820
798916
778600
818887
815142
930328
964013
1.02893e+06
1.05383e+06
1.09355e+06
1.03999e+06
1.02824e+06
1.00178e+06
965901
886889
905202
883355
981823
1.04086e+06
1.05311e+06
1.106e+06
1.13817e+06
1.19374e+06
1.21017e+06
1.29708e+06
1.32481e+06
1.34684e+06
1.33318e+06
1.31545e+06
1.25604e+06
1.18799e+06
952204
1.2236e+06
1.31175e+06
1.24856e+06
1.19867e+06
1.04594e+06
1.04938e+06
950720
1.04622e+06
947797
1.10526e+06
993342
1.09141e+06
1.13528e+06
1.30341e+06
1.29245e+06
1.35201e+06
1.37226e+06
1.37996e+06
1.38188e+06
1.38922e+06
1.38039e+06
1.35174e+06
1.36884e+06
1.37148e+06
1.40811e+06
1.41981e+06
1.43682e+06
1.39942e+06
1.38252e+06
1.33801e+06
1.30599e+06
1.2124e+06
1.20073e+06
789310
786976
786779
788108
786442
791071
794163
797767
793226
806202
792138
798923
801429
804222
803653
807780
793940
788869
789053
787541
784118
784748
780686
784500
783464
783446
810187
799486
811664
806559
758741
749922
740184
710868
710235
702539
685492
685625
666372
663531
655360
651945
647774
649142
648612
650646
650421
663546
659830
662020
662256
659613
658115
656588
669771
657336
660901
677007
680991
697111
695979
715809
711652
740567
745497
779287
806370
847943
829500
829511
800112
792890
787874
784567
746498
714952
661305
649770
624662
692067
746793
731753
759004
785062
784879
800354
781145
758850
726821
732420
703783
708477
679487
695474
680696
707554
703037
717005
704838
713504
691714
693905
671613
670591
657932
656472
649459
653563
644862
653366
637629
641519
617743
609108
596864
594888
588044
589816
585869
573853
571254
554644
508461
493218
495081
463178
483589
468658
521217
483021
583726
571609
682536
734003
810184
846106
874124
880483
877030
861210
839696
810254
776283
740337
753540
767738
769343
797318
792796
797362
799430
794249
764680
763066
714769
722652
702763
687001
676155
674504
669795
657326
642046
640274
622696
632600
605551
628742
617371
635387
672332
670377
693292
685339
688455
669245
684238
674213
670533
689584
703970
725395
725702
729269
735328
726514
742667
735252
784529
803831
827221
822819
811755
788114
780376
772106
776061
769039
772061
767052
776351
766425
783608
775905
778852
865754
810589
802616
798520
738385
698165
681209
707723
685516
710883
710580
731846
728988
733635
694896
660747
578934
600868
556864
566639
581289
601445
596383
609425
609248
610926
606355
605554
594388
584461
573098
570504
565986
563742
571774
577585
600894
605706
637321
629562
671943
657703
715845
705420
757035
753754
784445
774738
777603
736983
726007
683953
694688
658684
675854
681106
693540
723259
742171
739519
749570
758646
750901
742325
740628
690152
670992
677481
685105
671036
681703
663695
660020
632631
639665
619665
613209
612843
615153
613500
620318
623004
618504
609102
590025
589244
533017
553528
506765
502580
513676
507024
536909
561095
642232
621316
734297
765712
813492
882019
891047
899598
909204
941007
918934
946208
924158
917644
927761
909889
886469
877919
846972
820211
795603
759809
728019
707156
676538
627880
642944
598212
614603
598225
640158
647714
680737
717823
730118
786027
776656
794790
823633
812987
862295
824422
911498
914226
934847
945507
940615
951091
966900
907838
884834
877847
939908
998842
1.04258e+06
1.05606e+06
1.12028e+06
1.1333e+06
1.23503e+06
1.25397e+06
1.28358e+06
1.2842e+06
1.26115e+06
1.22276e+06
1.16914e+06
1.13467e+06
1.14335e+06
1.04303e+06
1.11695e+06
1.18687e+06
1.24985e+06
1.16371e+06
1.13837e+06
982233
987301
898592
994064
902418
1.05096e+06