/*--------------------------------*- C++ -*----------------------------------*\
| =========                 |                                                 |
| \\      /  F ield         | OpenFOAM: The Open Source CFD Toolbox           |
|  \\    /   O peration     | Version:  2.1.1                                 |
|   \\  /    A nd           | Web:      www.OpenFOAM.org                      |
|    \\/     M anipulation  |                                                 |
\*---------------------------------------------------------------------------*/
FoamFile
{
    version     2.0;
    format      ascii;
    class       volVectorField;
    location    "0.003700000";
    object      U;
}
// * * * * * * * * * * * * * * * * * * * * * * * * * * * * * * * * * * * * * //

dimensions      [0 1 -1 0 0 0 0];

internalField   nonuniform List<vector> 
12384
(
(8.17167 -4.12226 0)
(28.8578 -5.16926 0)
(52.8086 -7.4756 0)
(72.0716 -4.05053 0)
(87.3411 -2.4128 0)
(92.8831 3.27701 0)
(89.4714 2.11761 0)
(80.9876 6.30936 0)
(72.7374 4.83509 0)
(57.1517 3.6231 0)
(34.5049 9.13256 0)
(18.7881 3.48413 0)
(5.13409 4.88223 0)
(1.49703 -3.30287 0)
(-14.7094 1.0675 0)
(-14.0637 -9.93061 0)
(7.71431 -21.5106 0)
(47.4805 -28.5501 0)
(97.7412 -29.8292 0)
(144.676 -26.3989 0)
(187.596 -17.2057 0)
(216.395 -10.6776 0)
(220.803 -1.38736 0)
(230.767 5.44675 0)
(215.802 4.77701 0)
(194.376 14.3905 0)
(172.947 10.3068 0)
(130.027 15.5212 0)
(98.6464 13.017 0)
(48.9263 12.8993 0)
(6.59179 10.9352 0)
(-32.5802 12.683 0)
(-65.8647 9.05167 0)
(-96.6138 8.99601 0)
(-111.029 8.42002 0)
(-116.437 1.73674 0)
(-113.201 5.58837 0)
(-101.471 2.2334 0)
(-90.9321 1.63748 0)
(-74.0941 4.93687 0)
(-56.2414 1.00308 0)
(-41.1185 3.79492 0)
(-24.9358 3.84225 0)
(-9.85608 3.49321 0)
(-8.06579 17.6258 0)
(1.30652 3.4828 0)
(29.2582 -3.70887 0)
(70.7008 -5.66689 0)
(118.538 -5.99205 0)
(167.836 -4.14033 0)
(220.131 -6.84063 0)
(270.326 -4.93231 0)
(303.388 -6.05057 0)
(337.145 1.4134 0)
(363.903 0.490639 0)
(355.931 4.57478 0)
(344.709 9.74631 0)
(320.927 13.9276 0)
(286.723 18.6424 0)
(241.577 21.5521 0)
(200.537 20.3667 0)
(162.24 16.3505 0)
(134.325 11.3941 0)
(112.374 3.98213 0)
(102.506 4.80413 0)
(84.4901 -16.3641 0)
(68.2171 -3.9611 0)
(73.2635 -8.81453 0)
(75.5427 -17.2468 0)
(63.1671 -33.2389 0)
(49.5237 -18.0637 0)
(46.2385 -15.3706 0)
(40.442 -12.4464 0)
(18.5737 -12.5109 0)
(19.4736 -16.4909 0)
(65.1425 -8.90419 0)
(139.114 -15.8373 0)
(202.965 -24.8214 0)
(270.542 -18.1802 0)
(334.715 -25.4735 0)
(388.294 -18.5181 0)
(434.91 -26.0374 0)
(474.634 -18.1009 0)
(522.776 -30.479 0)
(508.399 -13.1155 0)
(592.223 -25.7216 0)
(527.734 -8.53247 0)
(590.467 -12.6505 0)
(521.93 -3.76527 0)
(518.301 2.49069 0)
(485.681 11.7592 0)
(449.003 19.8527 0)
(390.211 25.4273 0)
(309.948 22.1138 0)
(237.094 27.477 0)
(161.565 17.3171 0)
(76.8455 16.2383 0)
(17.2028 14.9888 0)
(-34.3183 19.7636 0)
(-64.104 10.8288 0)
(-78.6324 -4.28784 0)
(-75.6354 -17.3991 0)
(-51.1544 -23.8061 0)
(-17.0407 -29.5131 0)
(16.6332 -11.3303 0)
(59.6526 -19.2158 0)
(113.422 -21.5135 0)
(165.436 -22.8667 0)
(215.649 -18.3719 0)
(255.797 -27.5704 0)
(285.957 -14.503 0)
(318.67 -29.2778 0)
(336.075 -13.1816 0)
(372.87 -23.964 0)
(383.728 -15.0104 0)
(419.983 -14.9195 0)
(443.702 -18.5765 0)
(466.114 -10.6659 0)
(507.686 -2.29026 0)
(522.407 -27.4284 0)
(486.63 0.37505 0)
(512.791 -30.3457 0)
(458.203 5.3096 0)
(447.575 13.7406 0)
(416.714 26.4323 0)
(358.896 42.7184 0)
(276.834 50.7891 0)
(193.706 43.5 0)
(120.392 35.3779 0)
(69.8983 27.6851 0)
(35.0608 27.7253 0)
(16.1508 25.2956 0)
(7.33491 23.3356 0)
(-1.37068 17.8635 0)
(-7.00386 5.99218 0)
(10.4583 20.3692 0)
(5.94693 10.8537 0)
(4.45955 23.1193 0)
(13.9958 11.7723 0)
(1.27374 18.3745 0)
(7.27308 14.5373 0)
(-0.932509 11.3726 0)
(-29.5894 -11.8998 0)
(-33.677 -8.70314 0)
(-68.2017 -40.6346 0)
(-27.6244 -23.6582 0)
(57.2084 -38.4883 0)
(144.829 -21.7296 0)
(250.574 -29.0293 0)
(327.318 -16.512 0)
(455.102 -16.5038 0)
(463.338 -5.39006 0)
(565.877 -3.56957 0)
(513.121 11.8763 0)
(518.01 9.46371 0)
(430.633 19.1818 0)
(399.359 24.9255 0)
(273.69 30.0468 0)
(206.557 41.0302 0)
(126.485 35.636 0)
(58.1785 31.5537 0)
(9.36108 20.9259 0)
(-9.49381 7.99431 0)
(-5.49538 -1.76126 0)
(16.9728 0.439413 0)
(35.9151 5.85907 0)
(42.6844 5.35492 0)
(49.8873 10.4534 0)
(53.4182 7.75596 0)
(58.8314 14.0425 0)
(62.5772 12.5924 0)
(53.2433 20.3686 0)
(44.6847 17.1739 0)
(30.9429 15.5124 0)
(17.8862 7.10005 0)
(-6.70409 2.82185 0)
(-10.8719 -1.32502 0)
(-11.5382 -7.69493 0)
(-8.09447 -12.7817 0)
(38.3672 -7.74512 0)
(55.704 -27.4807 0)
(84.7004 -22.663 0)
(116.045 -49.7515 0)
(133.217 -25.0393 0)
(173.35 -69.1765 0)
(132.868 -13.8474 0)
(100.529 -25.8515 0)
(31.472 15.7557 0)
(19.898 15.3328 0)
(19.1761 35.1561 0)
(25.4909 37.4752 0)
(14.0499 33.109 0)
(17.2439 27.5406 0)
(14.3994 13.5449 0)
(-50.2892 14.706 0)
(-47.6872 22.4713 0)
(-55.4375 2.84513 0)
(-71.0347 22.7801 0)
(-36.3176 13.5548 0)
(-19.303 17.3625 0)
(22.833 31.705 0)
(46.4996 30.0277 0)
(48.6055 20.0172 0)
(33.6672 32.4255 0)
(-16.216 16.9654 0)
(-260.831 13.315 0)
(-416.611 6.367 0)
(-432.567 -28.8595 0)
(-499.816 -55.1523 0)
(-446.04 -48.2116 0)
(-359.215 -68.6758 0)
(-275.56 -72.2111 0)
(-173.433 -77.4087 0)
(-65.9261 -75.2481 0)
(32.3213 -71.706 0)
(121.612 -61.002 0)
(197.558 -55.3935 0)
(252.725 -35.2207 0)
(273.012 -46.3604 0)
(255.497 -35.5483 0)
(253.18 -28.3453 0)
(208.916 -47.4077 0)
(116.538 -46.71 0)
(34.8329 -44.5856 0)
(11.175 -55.9946 0)
(14.1377 -54.1129 0)
(1.66006 -43.8472 0)
(-1.19999 -37.313 0)
(-23.4667 -36.8029 0)
(-62.9748 -21.5179 0)
(-118.968 -21.4199 0)
(-195.564 -25.1963 0)
(-290.67 -31.455 0)
(-383.646 -32.7902 0)
(-493.776 -34.5889 0)
(-586.406 -17.8889 0)
(-635.258 -4.78521 0)
(-672.773 -5.09972 0)
(-669.094 2.48201 0)
(-702.834 -7.0167 0)
(-701.334 0.162853 0)
(-653.438 -2.49424 0)
(-611.103 -14.761 0)
(-545.424 -19.7716 0)
(-450.566 -23.6261 0)
(-350.798 -23.931 0)
(-256.081 -18.9719 0)
(-176.277 -13.4015 0)
(-112.509 -5.2955 0)
(-67.6141 2.87777 0)
(-33.7243 -4.46255 0)
(-13.561 5.53591 0)
(7.54824 1.81482 0)
(12.8432 13.6431 0)
(18.884 12.7432 0)
(28.9624 5.18847 0)
(46.9902 15.7667 0)
(70.65 0.396111 0)
(81.5807 15.2391 0)
(114.193 5.65796 0)
(141.555 11.8739 0)
(163.49 15.2942 0)
(165.108 15.6359 0)
(149.018 8.10348 0)
(104.706 10.776 0)
(62.581 4.28598 0)
(18.4651 5.04855 0)
(-23.3033 4.40195 0)
(-59.653 8.6124 0)
(-98.3549 4.31106 0)
(-151.908 7.38069 0)
(-221.25 -5.77672 0)
(-276.074 -3.76535 0)
(-419.665 -5.11215 0)
(-416.599 4.43079 0)
(-411.968 -10.6433 0)
(-409.801 -20.2771 0)
(-361.396 -31.1445 0)
(-297.431 -31.5981 0)
(-224.447 -37.6059 0)
(-146.901 -35.6062 0)
(-77.994 -31.9818 0)
(-28.7935 -15.9889 0)
(-5.51292 -1.22773 0)
(-24.7485 15.6756 0)
(-57.0383 14.4074 0)
(-105.078 16.2448 0)
(-133.184 15.6589 0)
(-195.515 19.1686 0)
(-214.042 15.1242 0)
(-242.216 11.7078 0)
(-251.589 15.4461 0)
(-266.75 8.26614 0)
(-275.364 12.3755 0)
(-282.507 4.79595 0)
(-292.532 9.80008 0)
(-301.985 6.98104 0)
(-320.074 8.61854 0)
(-336.198 10.2306 0)
(-359.042 11.0513 0)
(-369.703 11.2399 0)
(-382.548 8.17804 0)
(-372.556 12.28 0)
(-350.94 5.63287 0)
(-321.439 4.24409 0)
(-273.193 0.669538 0)
(-231.679 -2.32661 0)
(-193.399 -7.91249 0)
(-155.717 -12.1665 0)
(-165.089 -21.1795 0)
(-130.713 -20.6174 0)
(-92.7268 -27.1244 0)
(-55.7618 -24.6742 0)
(-11.5548 -20.3196 0)
(-11.073 12.8505 0)
(-12.7932 16.014 0)
(-33.0499 16.3429 0)
(-65.4369 16.6276 0)
(-118.027 14.8009 0)
(-186.076 17.3343 0)
(-240.531 13.3899 0)
(-280.214 18.2471 0)
(-308.492 15.3129 0)
(-332.601 19.5877 0)
(-358.494 21.2933 0)
(-387.197 28.4797 0)
(-425.807 25.4494 0)
(-514.561 23.1532 0)
(-539.767 16.0018 0)
(-617.967 -8.64679 0)
(-518.331 4.73436 0)
(-502.045 -9.61939 0)
(-441 -16.5544 0)
(-357.287 -25.5927 0)
(-282.038 -38.6086 0)
(-225.512 -48.5948 0)
(-182.012 -51.9659 0)
(-140.612 -70.0713 0)
(-140.538 -67.2351 0)
(-118.336 -58.1453 0)
(-81.731 -40.7046 0)
(-50.539 -21.2032 0)
(-14.1814 -25.6003 0)
(-13.8213 -19.3772 0)
(-8.3979 52.3954 0)
(-113.458 1.14722 0)
(-219.666 48.773 0)
(-275.758 13.2271 0)
(-323.043 61.0453 0)
(-368.566 31.7299 0)
(-372.415 54.0172 0)
(-376.008 20.5799 0)
(-325.715 43.8706 0)
(-289.792 9.77082 0)
(-241.787 18.7992 0)
(-163.092 -27.1029 0)
(-126.561 8.80129 0)
(-185.197 -68.0963 0)
(-190.376 2.0091 0)
(-292.545 -36.7218 0)
(-274.016 7.15712 0)
(-233.812 -26.634 0)
(-218.335 -10.7141 0)
(-175.279 -2.95064 0)
(-147.409 1.77413 0)
(-108.34 11.7761 0)
(-75.5133 5.46494 0)
(-46.9978 11.8637 0)
(-4.60634 6.32602 0)
(28.3372 9.76242 0)
(53.6104 3.51211 0)
(57.0523 5.64477 0)
(42.235 9.3581 0)
(14.4868 11.2732 0)
(12.9759 -11.5659 0)
(37.6811 -20.8224 0)
(62.7187 -22.4052 0)
(87.1341 -16.3476 0)
(102.216 -8.49157 0)
(110.865 1.0301 0)
(111.975 7.10807 0)
(101.829 15.3841 0)
(87.1806 11.341 0)
(70.1149 14.3894 0)
(50.8127 13.4773 0)
(38.2403 14.0711 0)
(21.1345 9.37583 0)
(6.69245 2.90555 0)
(-5.27732 6.32957 0)
(9.10495 -34.0672 0)
(46.1475 -68.7501 0)
(92.3783 -85.817 0)
(139.567 -85.6448 0)
(184.821 -70.3148 0)
(219.803 -50.1766 0)
(246.661 -21.7983 0)
(248.857 -5.09162 0)
(248.264 20.2317 0)
(238.178 18.4587 0)
(216.663 39.8288 0)
(186.355 34.7319 0)
(144.435 40.0706 0)
(109.956 40.2929 0)
(56.6172 34.3178 0)
(15.3374 30.2796 0)
(-25.0369 34.6541 0)
(-61.477 24.4391 0)
(-85.7047 25.6884 0)
(-101.55 19.756 0)
(-107.128 10.1279 0)
(-105.507 11.3895 0)
(-96.7093 9.25232 0)
(-83.8602 2.75767 0)
(-69.4047 13.0503 0)
(-52.5325 2.13605 0)
(-37.7771 11.6431 0)
(-22.2128 10.2629 0)
(-8.0001 11.0338 0)
(0.971656 35.8507 0)
(27.9074 -3.80004 0)
(73.7905 -23.1472 0)
(125.118 -26.7492 0)
(177.331 -20.6939 0)
(228.419 -16.9248 0)
(275.081 -11.9573 0)
(318.493 -13.505 0)
(353.818 -10.0464 0)
(376.92 -3.89424 0)
(387.66 0.0618932 0)
(384.422 14.263 0)
(372.823 25.8577 0)
(351.821 38.9529 0)
(324.657 51.8699 0)
(287.619 60.839 0)
(248.993 61.5819 0)
(208.06 52.6864 0)
(169.768 38.5862 0)
(137.008 22.5253 0)
(98.1422 10.5315 0)
(82.8431 -7.80219 0)
(81.4523 -9.6412 0)
(65.8966 -23.9951 0)
(53.5509 -42.3148 0)
(57.4577 -36.1237 0)
(62.7241 -34.766 0)
(54.9167 -25.8178 0)
(35.9915 -23.2407 0)
(14.2296 -17.7446 0)
(32.6894 -20.5489 0)
(83.2938 -42.7461 0)
(135.227 -50.0915 0)
(202.601 -70.3596 0)
(261.523 -59.0442 0)
(316.325 -60.1682 0)
(370.752 -56.3734 0)
(408.342 -54.8055 0)
(453.165 -47.5637 0)
(479.707 -60.1481 0)
(492.547 -39.964 0)
(536.152 -57.369 0)
(520.281 -31.4524 0)
(560.393 -36.5703 0)
(527.923 -6.50167 0)
(528.037 11.9146 0)
(507.09 32.8499 0)
(479.443 53.7573 0)
(428.698 59.1362 0)
(368.924 67.2817 0)
(299.583 65.4453 0)
(216.033 45.6034 0)
(153.529 36.1243 0)
(93.0386 23.9822 0)
(30.9316 19.1301 0)
(-12.677 10.3985 0)
(-37.2698 -14.0652 0)
(-43.6025 -41.1442 0)
(-33.1817 -54.0233 0)
(-13.9285 -56.2435 0)
(20.5281 -19.4881 0)
(66.7342 -44.0951 0)
(116.242 -55.4279 0)
(169.352 -52.9286 0)
(211.873 -58.4954 0)
(250.596 -58.935 0)
(280.883 -58.4932 0)
(306.729 -58.6504 0)
(335 -50.84 0)
(347.307 -50.4655 0)
(375.799 -46.0724 0)
(385.78 -43.1512 0)
(417.08 -39.6554 0)
(443.025 -41.0467 0)
(460.388 -29.2699 0)
(467.486 -40.1939 0)
(467.674 -14.1962 0)
(445.05 -19.9729 0)
(426.994 12.5666 0)
(414.194 38.9 0)
(415.538 69.6413 0)
(394.69 106.763 0)
(348.202 132.708 0)
(292.126 125.23 0)
(234.011 99.2719 0)
(166.392 56.0215 0)
(107.132 34.9657 0)
(57.7307 29.483 0)
(28.8504 17.4793 0)
(9.86283 16.3261 0)
(-8.42791 23.2457 0)
(4.32631 51.3635 0)
(-5.88565 35.4159 0)
(-15.7394 65.2392 0)
(-26.376 51.9638 0)
(-46.9334 62.9049 0)
(-42.0426 46.526 0)
(-41.7576 26.7155 0)
(-62.5655 -31.4414 0)
(-65.2567 -42.656 0)
(-94.0169 -109.14 0)
(-38.6662 -75.8393 0)
(33.8495 -105.282 0)
(130.796 -71.5425 0)
(228.125 -81.8028 0)
(304.854 -48.9773 0)
(427.642 -48.2636 0)
(444.511 -20.2817 0)
(543.535 -12.9214 0)
(512.218 13.2312 0)
(502.763 16.253 0)
(430.803 49.4163 0)
(407.193 60.489 0)
(319.595 84.0167 0)
(269.632 102.918 0)
(197.069 104.534 0)
(133.069 96.9771 0)
(67.7382 71.3051 0)
(23.5518 39.3786 0)
(4.33217 8.68931 0)
(16.2572 1.49196 0)
(30.3821 10.4464 0)
(42.0233 21.6583 0)
(50.4863 31.1602 0)
(50.4607 30.6684 0)
(47.8016 44.1965 0)
(40.2794 45.5791 0)
(33.6893 58.9791 0)
(28.1984 49.668 0)
(19.2232 36.8695 0)
(11.0109 25.9031 0)
(-5.24468 2.74324 0)
(-17.8336 -1.49712 0)
(-10.7926 -26.2681 0)
(-0.335197 -24.0627 0)
(32.7647 -47.1146 0)
(25.7401 -77.4649 0)
(63.3477 -82.4951 0)
(91.4091 -141.425 0)
(113.01 -82.3953 0)
(151.02 -132.892 0)
(162.472 -42.385 0)
(121.029 -35.1871 0)
(38.6723 53.7421 0)
(7.85547 64.3329 0)
(8.63536 106.628 0)
(5.82273 92.1904 0)
(8.39321 87.0374 0)
(18.0333 72.3104 0)
(9.93749 49.9234 0)
(-33.5093 45.6884 0)
(-39.3987 58.4366 0)
(-56.4238 21.9929 0)
(-62.4665 64.3551 0)
(-50.1971 43.3707 0)
(-33.3282 63.0659 0)
(-2.07755 81.953 0)
(1.17667 89.3167 0)
(-3.63808 71.3525 0)
(-41.1202 86.9212 0)
(-125.592 56.109 0)
(-341.802 10.0179 0)
(-495.537 17.0447 0)
(-530.74 -63.8542 0)
(-539.968 -118.266 0)
(-490.229 -128.501 0)
(-425.677 -160.758 0)
(-343.012 -168.491 0)
(-250.289 -181.889 0)
(-162.205 -172.293 0)
(-78.1125 -163.425 0)
(1.55553 -149.513 0)
(68.5871 -130.448 0)
(106.111 -132.053 0)
(157.823 -95.4012 0)
(186.064 -83.9397 0)
(175.078 -58.6785 0)
(157.865 -82.2953 0)
(111.351 -95.1907 0)
(45.0784 -92.0032 0)
(-6.5204 -129.717 0)
(-4.29909 -116.86 0)
(-3.04336 -102.775 0)
(-17.6547 -90.686 0)
(-50.6611 -79.8238 0)
(-112.959 -60.3922 0)
(-188.463 -44.6236 0)
(-267.107 -58.7481 0)
(-347.288 -72.5743 0)
(-419.169 -74.3902 0)
(-497.074 -87.6638 0)
(-567.519 -44.0456 0)
(-667.465 -14.0572 0)
(-738.083 8.59579 0)
(-788.099 16.4241 0)
(-807.015 4.94625 0)
(-796.219 -8.17627 0)
(-755.121 -22.3073 0)
(-688.568 -54.2209 0)
(-602.125 -75.9005 0)
(-492.717 -84.5256 0)
(-375.14 -88.8742 0)
(-267.893 -74.705 0)
(-171.294 -52.0197 0)
(-93.4074 -23.8559 0)
(-40.432 0.971139 0)
(-17.541 7.95389 0)
(-5.31532 16.8508 0)
(-3.29814 19.1242 0)
(-8.2709 46.477 0)
(7.78874 34.1641 0)
(15.1347 22.5047 0)
(25.8897 38.5379 0)
(47.1084 18.1908 0)
(64.9813 36.673 0)
(81.2108 31.4315 0)
(106.88 39.188 0)
(124.605 45.5062 0)
(129.763 37.1695 0)
(119.367 36.1683 0)
(84.1563 25.5256 0)
(23.8277 33.012 0)
(-19.6321 18.2628 0)
(-72.5426 27.0479 0)
(-103.756 24.9111 0)
(-129.725 13.545 0)
(-160.886 8.18146 0)
(-227.613 -6.67446 0)
(-276.384 -15.4538 0)
(-393.595 -1.00665 0)
(-434.116 5.16279 0)
(-450.21 10.4249 0)
(-445.111 -23.4306 0)
(-413.059 -50.7767 0)
(-355.833 -87.8826 0)
(-267.93 -113.044 0)
(-172.518 -112.927 0)
(-77.0118 -84.2792 0)
(-17.4078 -39.1592 0)
(-1.88876 9.45664 0)
(-30.6325 47.8673 0)
(-72.2771 45.1096 0)
(-125.425 46.3366 0)
(-161.356 47.9633 0)
(-231.338 47.7845 0)
(-238.529 46.8997 0)
(-266.239 33.0655 0)
(-270.075 38.4659 0)
(-276.774 24.4518 0)
(-281.97 27.4524 0)
(-279.935 16.3623 0)
(-288.528 21.7729 0)
(-296.243 19.6782 0)
(-310.367 21.9421 0)
(-323.747 27.1505 0)
(-336.219 27.3685 0)
(-338.672 28.9778 0)
(-341.711 22.1516 0)
(-330.53 31.8656 0)
(-312.543 21.1943 0)
(-286.627 19.9416 0)
(-254.245 9.51127 0)
(-222.954 -2.43753 0)
(-195.061 -21.7991 0)
(-166.868 -34.8798 0)
(-172.815 -58.1924 0)
(-135.886 -59.3647 0)
(-94.6539 -79.2677 0)
(-63.2158 -66.0882 0)
(-16.3362 -57.5457 0)
(-23.3488 40.6559 0)
(-28.3269 56.9064 0)
(-56.85 44.2009 0)
(-80.9091 56.2939 0)
(-117.068 36.7052 0)
(-182.151 54.1281 0)
(-208.124 37.4903 0)
(-240.12 44.1984 0)
(-262.316 45.6616 0)
(-292.19 53.0562 0)
(-330.66 63.414 0)
(-377.063 78.059 0)
(-430.196 83.0079 0)
(-535.237 74.7914 0)
(-612.099 67.8167 0)
(-670.569 27.8311 0)
(-590.186 15.3305 0)
(-579.063 -10.1137 0)
(-497.091 -43.0889 0)
(-399.896 -64.0158 0)
(-307.695 -93.4982 0)
(-227.711 -119.544 0)
(-173.656 -135.288 0)
(-138.302 -161.722 0)
(-120.318 -170.512 0)
(-81.0455 -156.961 0)
(-28.5881 -140.563 0)
(-6.26641 -110.309 0)
(8.777 -102.399 0)
(10.7898 -85.7769 0)
(-53.9628 106.599 0)
(-174.864 58.2919 0)
(-268.927 103.17 0)
(-307.302 82.4451 0)
(-348.115 126.228 0)
(-362.104 101.526 0)
(-369.857 111.812 0)
(-361.522 77.3973 0)
(-339.981 99.8548 0)
(-286.825 56.9393 0)
(-235.972 45.6779 0)
(-172.576 5.40718 0)
(-117.57 15.9395 0)
(-165.94 -107.416 0)
(-187.204 -28.2448 0)
(-249.714 -85.7639 0)
(-285.105 -19.3459 0)
(-234.33 -37.5455 0)
(-203.926 -17.5299 0)
(-163.962 -4.51821 0)
(-139.145 0.331254 0)
(-99.8381 23.4185 0)
(-64.5028 15.9067 0)
(-39.2707 26.6263 0)
(-2.91712 24.5186 0)
(21.5596 26.4762 0)
(43.9016 17.48 0)
(47.7983 18.0718 0)
(36.7041 29.5315 0)
(14.8236 31.7681 0)
(10.7543 -28.7829 0)
(36.9209 -41.8887 0)
(63.9951 -40.0882 0)
(87.8461 -29.4421 0)
(106.407 -18.7522 0)
(117.112 -0.893281 0)
(118.88 9.07647 0)
(107.111 21.6525 0)
(97.0899 20.34 0)
(76.0915 25.9167 0)
(57.1023 20.5984 0)
(40.0943 20.0846 0)
(23.7185 15.2746 0)
(10.0461 9.49032 0)
(5.98484 -19.2436 0)
(34.7062 -90.364 0)
(79.1661 -133.435 0)
(122.587 -146.723 0)
(161.788 -134.538 0)
(192.946 -109.214 0)
(218.616 -73.7397 0)
(237.9 -32.6875 0)
(243.211 -7.40308 0)
(244.987 32.2421 0)
(224.171 33.2881 0)
(204.037 62.482 0)
(170.996 59.7277 0)
(134.442 63.8718 0)
(97.6647 66.9293 0)
(45.8759 56.919 0)
(17.4157 55.4639 0)
(-25.4754 48.3306 0)
(-58.7032 45.3379 0)
(-80.0127 37.8329 0)
(-96.7937 32.2342 0)
(-103.273 23.8018 0)
(-102.235 19.2787 0)
(-95.8978 17.1892 0)
(-81.6325 9.93204 0)
(-68.321 15.9174 0)
(-51.1136 13.4308 0)
(-35.3918 15.7335 0)
(-20.5103 25.0192 0)
(-4.35805 20.5747 0)
(13.8443 23.3859 0)
(51.5893 -35.3851 0)
(101.781 -57.5368 0)
(153.838 -57.2227 0)
(202.145 -44.4814 0)
(245.436 -28.4646 0)
(286.461 -20.7731 0)
(323.151 -10.5118 0)
(353.501 -12.0527 0)
(368.139 0.603493 0)
(388.062 9.53681 0)
(380.634 24.2687 0)
(364.524 42.9325 0)
(348.61 61.6494 0)
(322.801 81.2083 0)
(290.78 95.4068 0)
(256.96 100.323 0)
(216.572 89.7711 0)
(182.467 74.1127 0)
(137.347 41.3893 0)
(111.448 29.2305 0)
(91.6295 -6.20141 0)
(63.7267 -27.1602 0)
(56.9119 -42.1392 0)
(60.0771 -48.1324 0)
(57.8603 -45.7946 0)
(50.195 -44.0274 0)
(47.1933 -37.4807 0)
(33.1114 -27.496 0)
(18.0294 -21.0127 0)
(13.9761 -16.3255 0)
(60.25 -56.7377 0)
(120.672 -73.8435 0)
(168.782 -80.5497 0)
(217.114 -82.5157 0)
(248.095 -79.1469 0)
(281.246 -76.4827 0)
(313.13 -80.8323 0)
(331.362 -75.3918 0)
(355.326 -92.0973 0)
(368.719 -78.491 0)
(412.067 -86.3368 0)
(411.657 -65.3989 0)
(462.258 -53.8102 0)
(457.159 -19.2965 0)
(470.6 12.6385 0)
(469.689 53.7707 0)
(452.964 71.656 0)
(411.985 93.9146 0)
(367.219 101.445 0)
(286.999 87.995 0)
(223.649 75.0073 0)
(158.452 56.1861 0)
(104.007 39.427 0)
(64.0289 36.3436 0)
(29.259 29.1318 0)
(-0.358943 3.65252 0)
(-11.0955 -34.5878 0)
(-12.8603 -63.8241 0)
(-7.715 -64.5229 0)
(20.8899 -71.2381 0)
(61.987 -101.201 0)
(107.509 -110.392 0)
(149.502 -106.763 0)
(193.411 -107.405 0)
(227.778 -100.098 0)
(252.903 -95.7758 0)
(282.754 -85.8261 0)
(297.769 -87.293 0)
(322.258 -71.3389 0)
(327.712 -79.0575 0)
(349.832 -63.2675 0)
(362.316 -68.169 0)
(372.954 -64.1248 0)
(398.729 -56.5047 0)
(390.967 -66.8127 0)
(375.673 -49.5507 0)
(376.724 -40.4938 0)
(351.803 -5.78906 0)
(362.488 36.9845 0)
(357.319 89.6365 0)
(356.188 139.747 0)
(335.017 176.653 0)
(295.692 188.605 0)
(235.028 164.76 0)
(178.984 121.357 0)
(130.519 89.4966 0)
(89.6413 66.6685 0)
(51.4138 50.5075 0)
(12.83 44.3418 0)
(-3.92915 56.5403 0)
(-3.96015 82.9162 0)
(-23.6176 75.9362 0)
(-45.0514 112.821 0)
(-64.1003 105.314 0)
(-96.6653 115.033 0)
(-87.8753 76.9633 0)
(-75.8114 27.341 0)
(-89.3386 -57.6421 0)
(-98.9792 -103.444 0)
(-124.449 -152.921 0)
(-84.6282 -152.378 0)
(-15.571 -156.194 0)
(68.8409 -129.823 0)
(164.173 -125.47 0)
(240.138 -85.5178 0)
(351.458 -83.6825 0)
(375.986 -34.8912 0)
(465.743 -29.6527 0)
(442.166 13.9107 0)
(443.348 24.6523 0)
(397.115 70.5427 0)
(367.506 87.9632 0)
(290.356 128.663 0)
(251.587 152.304 0)
(196.766 165.569 0)
(144.182 160.371 0)
(91.4713 136.276 0)
(41.9398 88 0)
(11.215 41.8418 0)
(13.1068 9.46694 0)
(27.4644 16.6922 0)
(39.2309 47.6698 0)
(40.2508 52.4075 0)
(36.0118 67.9198 0)
(30.4472 75.6455 0)
(19.3257 88.6239 0)
(16.6767 93.537 0)
(12.1357 78.2724 0)
(6.00428 55.8977 0)
(5.99408 44.4604 0)
(-11.0865 -1.8991 0)
(-21.5 -7.49317 0)
(-4.94588 -36.7341 0)
(-12.9751 -49.725 0)
(-0.141258 -85.6037 0)
(2.82385 -119.832 0)
(19.8343 -127.038 0)
(45.799 -173.27 0)
(75.2372 -139.932 0)
(107.646 -147.736 0)
(116.569 -77.5366 0)
(87.3883 -61.5741 0)
(5.7367 39.0135 0)
(-35.8382 91.2372 0)
(-45.5194 144.556 0)
(-38.2249 133.758 0)
(-17.7727 127.711 0)
(-7.51481 103.495 0)
(-5.37092 94.377 0)
(-57.9608 81.3689 0)
(-38.2279 113.45 0)
(-47.772 58.4367 0)
(-60.1827 113.087 0)
(-48.4381 82.6192 0)
(-54.5043 112.095 0)
(-34.9607 130.757 0)
(-31.4331 138.493 0)
(-47.6928 141.037 0)
(-92.7823 152.467 0)
(-188.724 94.1457 0)
(-365.031 39.9168 0)
(-527.871 -28.558 0)
(-579.211 -72.1009 0)
(-578.42 -151.442 0)
(-526.19 -184.971 0)
(-459.081 -235.685 0)
(-388.27 -254.137 0)
(-308.143 -267.487 0)
(-224.631 -263.548 0)
(-148.578 -256.379 0)
(-88.6974 -248.479 0)
(-49.4267 -239.84 0)
(18.7002 -200.826 0)
(70.1915 -167.541 0)
(106.396 -130.355 0)
(135.398 -88.2194 0)
(119.434 -86.7732 0)
(96.6259 -80.6794 0)
(49.9329 -91.4455 0)
(-5.85166 -160.434 0)
(-15.9744 -141.421 0)
(-26.4004 -133.336 0)
(-38.9899 -118.508 0)
(-79.8728 -103.088 0)
(-132.853 -65.6779 0)
(-203.63 -52.2032 0)
(-287.355 -67.5193 0)
(-351.113 -84.2475 0)
(-426.626 -94.7693 0)
(-501.893 -85.3214 0)
(-587.364 -58.1424 0)
(-675.085 -21.6469 0)
(-769.095 16.206 0)
(-807.231 25.497 0)
(-832.962 8.58587 0)
(-797.076 -15.0348 0)
(-754.604 -68.1022 0)
(-691.224 -111.631 0)
(-594.509 -146.239 0)
(-487.091 -165.274 0)
(-373.513 -169.76 0)
(-259.566 -156.494 0)
(-158.624 -112.56 0)
(-81.0448 -60.1419 0)
(-29.0863 -13.9807 0)
(-4.52547 3.47167 0)
(8.46258 28.0562 0)
(19.5175 36.7774 0)
(3.59587 60.9492 0)
(12.1792 63.0241 0)
(14.5657 56.1879 0)
(19.2052 61.9697 0)
(31.7691 56.6734 0)
(42.9914 61.8613 0)
(59.8962 64.5628 0)
(84.2568 71.754 0)
(101.291 67.9393 0)
(109.643 58.9549 0)
(108.121 68.0152 0)
(71.8117 37.6431 0)
(14.5143 65.7421 0)
(-27.5138 48.2306 0)
(-66.9603 50.8404 0)
(-95.0551 42.2378 0)
(-119.528 26.1638 0)
(-157.274 15.2246 0)
(-231.778 7.01173 0)
(-287.239 6.18108 0)
(-441.423 27.6556 0)
(-466.056 19.5151 0)
(-523.614 27.0252 0)
(-532.382 -24.2751 0)
(-483.709 -89.4625 0)
(-417.516 -160.999 0)
(-323.006 -211.341 0)
(-212.318 -219.659 0)
(-101.325 -164.827 0)
(-22.2843 -72.4746 0)
(1.35876 25.6696 0)
(-28.4134 80.946 0)
(-67.9586 73.8173 0)
(-125.214 78.5892 0)
(-166.42 70.7089 0)
(-227.838 72.4843 0)
(-237.527 71.8998 0)
(-262.884 54.0531 0)
(-264.142 55.3701 0)
(-273.792 37.5442 0)
(-276.732 39.2652 0)
(-272.798 38.346 0)
(-278.906 40.3098 0)
(-292.194 39.0488 0)
(-312.985 37.7985 0)
(-333.047 43.8238 0)
(-349.264 44.3236 0)
(-356.719 47.6565 0)
(-364.183 42.354 0)
(-361.742 47.7477 0)
(-345.427 42.6857 0)
(-321.489 36.5274 0)
(-287.351 20.3057 0)
(-249.739 -0.520785 0)
(-213.511 -34.2251 0)
(-176.409 -47.2683 0)
(-181.244 -91.8364 0)
(-145.614 -89.8754 0)
(-97.634 -119.203 0)
(-65.9295 -105.481 0)
(-20.9202 -87.0972 0)
(-9.18186 89.7039 0)
(-26.2523 86.9245 0)
(-42.9591 78.1026 0)
(-56.9742 90.9798 0)
(-87.3159 70.0805 0)
(-132.233 74.8041 0)
(-179.474 67.309 0)
(-211.626 68.0524 0)
(-254.202 82.5561 0)
(-299.817 104.083 0)
(-357.868 127.134 0)
(-436.703 142.837 0)
(-526.848 140.28 0)
(-645.296 121.115 0)
(-734.202 81.6354 0)
(-857.522 41.6337 0)
(-699.449 0.295474 0)
(-706.543 -47.9088 0)
(-611.205 -82.4837 0)
(-509.931 -127.669 0)
(-407.953 -162.27 0)
(-309.193 -195.147 0)
(-238.959 -213.56 0)
(-185.338 -227.566 0)
(-116.882 -218.791 0)
(-54.2307 -216.611 0)
(-27.6642 -203.973 0)
(-3.05827 -181.703 0)
(13.2578 -157.274 0)
(6.57717 -117.089 0)
(-33.515 158.574 0)
(-160.551 131.028 0)
(-253.411 147.037 0)
(-312.067 139.547 0)
(-342.407 168.374 0)
(-377.526 150.518 0)
(-395.334 162.436 0)
(-391.701 135.022 0)
(-356.499 137.185 0)
(-325.986 106.642 0)
(-253.687 72.8189 0)
(-185.58 30.9935 0)
(-141.871 7.0815 0)
(-189.96 -99.1521 0)
(-185.095 -37.7816 0)
(-246.746 -115.355 0)
(-245.382 -31.3997 0)
(-210.337 -33.6149 0)
(-199.932 -16.2226 0)
(-166.753 -0.136575 0)
(-142.713 -3.27858 0)
(-97.3494 28.0276 0)
(-59.7547 23.1653 0)
(-26.835 34.873 0)
(11.0726 38.2025 0)
(35.7934 39.2198 0)
(53.4639 35.1127 0)
(56.0962 36.7636 0)
(38.766 52.8221 0)
(12.3828 55.615 0)
(12.1659 -43.4662 0)
(35.11 -56.8114 0)
(54.5018 -55.171 0)
(70.9281 -41.4506 0)
(85.3699 -29.7542 0)
(98.7497 -7.45542 0)
(102.393 5.4044 0)
(99.0928 23.5951 0)
(93.0329 25.8164 0)
(77.2818 29.0117 0)
(60.6331 29.6283 0)
(48.7539 19.1186 0)
(30.3696 22.9223 0)
(12.6193 14.1519 0)
(22.9693 -60.9098 0)
(64.2865 -146.804 0)
(101.899 -189.454 0)
(127.554 -192.569 0)
(143.807 -171.291 0)
(160.387 -131.831 0)
(178.809 -87.6236 0)
(191.102 -44.7837 0)
(201.527 -3.57503 0)
(194.773 29.2496 0)
(186.236 49.1693 0)
(170.569 73.2706 0)
(134.719 72.3363 0)
(109.908 86.0854 0)
(69.4284 80.0536 0)
(22.3937 74.6771 0)
(-5.85744 71.9715 0)
(-42.3234 58.6254 0)
(-67.4948 60.0559 0)
(-88.1686 47.5463 0)
(-102.234 42.8171 0)
(-107.707 35.9711 0)
(-107.186 28.1921 0)
(-99.0257 23.2015 0)
(-84.7328 19.4095 0)
(-67.612 16.1258 0)
(-52.0675 26.1277 0)
(-35.9919 20.9641 0)
(-20.234 39.1636 0)
(-6.29468 32.7098 0)
(24.1891 -6.42808 0)
(73.8199 -81.6512 0)
(118.117 -100.565 0)
(147.844 -88.7818 0)
(182.389 -68.334 0)
(217.366 -46.7107 0)
(250.708 -29.2849 0)
(282.226 -14.136 0)
(311.328 -3.60412 0)
(338.167 8.89198 0)
(345.523 21.0401 0)
(348.791 35.9669 0)
(341.435 59.5186 0)
(326.131 84.6247 0)
(304.643 108.063 0)
(276.232 127.456 0)
(245.308 132.081 0)
(213.199 123.017 0)
(168.95 98.9426 0)
(133.679 66.1615 0)
(91.9323 38.1928 0)
(62.5929 -0.402098 0)
(64.2306 -28.9636 0)
(61.3802 -45.473 0)
(46.8752 -55.286 0)
(51.8883 -56.3468 0)
(58.7778 -56.8786 0)
(49.7293 -47.8631 0)
(37.4599 -29.6163 0)
(13.4426 -19.6085 0)
(16.0806 -23.3218 0)
(46.6876 -52.1529 0)
(84.0397 -71.4219 0)
(116.531 -76.5628 0)
(139.202 -73.6936 0)
(158.805 -84.604 0)
(177.898 -74.6949 0)
(192.011 -102.04 0)
(212.588 -88.0503 0)
(219.985 -118.486 0)
(244.864 -95.3923 0)
(269.363 -117.304 0)
(289.728 -79.4258 0)
(326.467 -71.4443 0)
(343.282 -38.3566 0)
(371.051 8.96552 0)
(381.815 52.3075 0)
(371.081 91.4714 0)
(357.351 118.004 0)
(296.53 114.815 0)
(245.36 110.591 0)
(190.242 95.2068 0)
(142.308 79.4643 0)
(109.712 74.2066 0)
(85.055 71.3954 0)
(62.7473 65.1046 0)
(41.5537 39.8887 0)
(21.2683 -5.95809 0)
(9.14359 -47.0289 0)
(1.329 -58.0277 0)
(22.1692 -112.341 0)
(66.0336 -144.038 0)
(104.478 -152.186 0)
(142.579 -150.905 0)
(167.948 -148.666 0)
(197.592 -133.224 0)
(222.344 -128.084 0)
(240.905 -119.541 0)
(267.899 -110.017 0)
(276.302 -108.865 0)
(295.739 -96.0125 0)
(303.827 -98.0485 0)
(315.102 -87.9914 0)
(332.55 -82.6424 0)
(319.272 -84.9098 0)
(312.35 -77.7673 0)
(302.208 -76.2133 0)
(275.105 -51.7278 0)
(265.204 -18.8689 0)
(271.531 30.5645 0)
(290.134 97.1159 0)
(286.122 149.64 0)
(270.251 202.419 0)
(260.558 214.689 0)
(234.157 196.88 0)
(184.79 157.993 0)
(128.656 119.116 0)
(79.0032 89.4081 0)
(39.7546 76.1234 0)
(15.8982 70.5726 0)
(-12.1922 94.0158 0)
(-25.6868 126.787 0)
(-45.8841 131.881 0)
(-76.1197 165.699 0)
(-105.871 166.062 0)
(-121.409 156.498 0)
(-111.512 95.4847 0)
(-97.2881 15.1306 0)
(-122.554 -94.0398 0)
(-136.305 -151.663 0)
(-180.054 -204.471 0)
(-139.307 -201.94 0)
(-88.2869 -209.121 0)
(-13.5546 -170.666 0)
(65.5509 -171.347 0)
(139.967 -123.318 0)
(243.247 -109.522 0)
(282.458 -67.8874 0)
(345.416 -47.9316 0)
(352.022 9.90919 0)
(327.69 22.4473 0)
(309.908 91.5924 0)
(283.048 111.804 0)
(226.294 164.782 0)
(202.398 194.669 0)
(151.89 213.032 0)
(119.239 217.039 0)
(75.9003 192.018 0)
(37.3855 139.252 0)
(12.7952 77.1431 0)
(4.10719 18.9424 0)
(14.2037 39.515 0)
(23.1803 73.6614 0)
(22.729 84.2464 0)
(17.6792 107.126 0)
(11.3587 116.167 0)
(4.84835 128.036 0)
(2.77244 125.477 0)
(2.83967 104.964 0)
(-0.476151 75.1812 0)
(0.254798 49.2025 0)
(-8.20019 -6.1404 0)
(-14.8404 -13.5301 0)
(-9.88427 -50.8704 0)
(-27.813 -83.1296 0)
(-31.9404 -105.535 0)
(-36.0511 -153.299 0)
(-26.8467 -148.745 0)
(1.28121 -173.296 0)
(22.9023 -155.47 0)
(46.6261 -148.463 0)
(53.5317 -119.975 0)
(18.6461 -69.5126 0)
(-27.6254 0.577104 0)
(-70.1251 88.1689 0)
(-67.6196 137.887 0)
(-39.3834 151.035 0)
(-21.7913 131.411 0)
(-5.52681 125.629 0)
(7.67533 136.367 0)
(-12.0517 128.409 0)
(-20.5724 149.168 0)
(-38.3511 96.207 0)
(-53.3343 149.258 0)
(-48.399 135.272 0)
(-44.2287 157.797 0)
(-47.7515 180.667 0)
(-50.2759 179.654 0)
(-79.8667 209.699 0)
(-144.25 199.731 0)
(-229.119 135.958 0)
(-401.928 52.792 0)
(-488.967 -29.104 0)
(-589.091 -84.92 0)
(-584.355 -164.867 0)
(-537.956 -220.12 0)
(-479.061 -272.126 0)
(-404.346 -310.939 0)
(-329.709 -328.577 0)
(-263.419 -337.619 0)
(-208.34 -335.326 0)
(-166.657 -328.711 0)
(-101.066 -286.55 0)
(-58.6161 -266.022 0)
(-14.8571 -216.699 0)
(32.3741 -162.54 0)
(41.5215 -103.831 0)
(49.5168 -64.5068 0)
(36.2399 -52.751 0)
(23.1799 -48.4501 0)
(-14.645 -158.596 0)
(-29.6061 -151.35 0)
(-43.0612 -138.476 0)
(-67.117 -119.604 0)
(-86.6175 -94.2812 0)
(-128.169 -55.5493 0)
(-197.867 -49.191 0)
(-261.271 -52.5376 0)
(-329.482 -73.336 0)
(-396.297 -75.5883 0)
(-467.347 -61.1972 0)
(-542.579 -44.9647 0)
(-626.054 -27.2661 0)
(-703.276 -0.312242 0)
(-774.645 15.8497 0)
(-770.041 -13.3172 0)
(-752.017 -51.8565 0)
(-701.87 -103.247 0)
(-626.685 -159.317 0)
(-543.655 -209.826 0)
(-451.321 -247.604 0)
(-352.795 -254.93 0)
(-250.214 -229.947 0)
(-153.168 -177.533 0)
(-72.8898 -109.447 0)
(-16.0366 -47.576 0)
(31.3556 -6.80127 0)
(60.2685 16.2585 0)
(35.5975 54.6551 0)
(11.1239 72.9564 0)
(3.03531 100.693 0)
(7.99212 94.5121 0)
(16.3771 97.6439 0)
(30.8525 91.0886 0)
(45.8131 100.005 0)
(66.2993 91.6094 0)
(85.9711 105.704 0)
(107.664 92.0342 0)
(112.141 87.7207 0)
(101.493 83.9846 0)
(68.694 63.4129 0)
(28.1101 81.8676 0)
(-9.03553 77.2476 0)
(-43.8915 73.7553 0)
(-70.5535 62.2252 0)
(-104.375 50.5474 0)
(-152.553 48.5005 0)
(-238.869 46.7715 0)
(-305.333 57.6588 0)
(-458.787 62.6213 0)
(-488.185 50.8583 0)
(-530.269 31.5724 0)
(-550.412 -49.0088 0)
(-504.072 -139.383 0)
(-449.648 -231.394 0)
(-372.504 -307.01 0)
(-273.482 -334.039 0)
(-155.36 -280.547 0)
(-44.5913 -138.939 0)