/*--------------------------------*- C++ -*----------------------------------*\
| =========                 |                                                 |
| \\      /  F ield         | OpenFOAM: The Open Source CFD Toolbox           |
|  \\    /   O peration     | Version:  2.1.1                                 |
|   \\  /    A nd           | Web:      www.OpenFOAM.org                      |
|    \\/     M anipulation  |                                                 |
\*---------------------------------------------------------------------------*/
FoamFile
{
    version     2.0;
    format      ascii;
    class       volScalarField;
    location    "0.003700000";
    object      Xi;
}
// * * * * * * * * * * * * * * * * * * * * * * * * * * * * * * * * * * * * * //

dimensions      [0 0 0 0 0 0 0];

internalField   nonuniform List<scalar> 
12384
(
2.16701
3.58854
4.33838
4.83218
5.18514
5.36689
5.63072
6.06182
6.31921
6.78157
7.73089
14.7408
9.97634
6.8049
24.2091
32.7141
36.6652
38.9826
41.0436
42.1105
45.0827
48.3563
51.5992
56.5311
62.2667
63.1598
71.8166
69.0786
75.9541
67.4456
65.8561
58.8148
54.492
46.2292
37.3912
32.8554
32.7273
35.0645
42.5412
52.2663
47.2191
33.8784
20.0227
10.3913
25.6463
34.1973
43.3223
53.4232
65.3123
78.5576
93.1101
109.248
118.132
117.937
112.965
107.582
100.178
85.3462
68.6181
50.3975
36.6768
28.5126
26.4928
26.2683
26.772
27.5176
27.3979
27.5544
30.9607
40.1037
40.446
36.5976
30.1267
18.5374
48.0991
62.0276
70.9292
81.3244
92.6094
104.819
116.296
129.049
138.504
143.753
151.763
148.146
154.28
148.236
153.449
151.757
153.137
154.77
155.456
155.813
155.578
149.757
138.314
121.24
93.1509
61.0214
50.2267
45.9511
37.2332
19.9432
53.9337
69.4025
78.62
86.6285
95.1224
103.221
113.024
121.283
132.377
139.51
150.267
156.132
163.196
168.175
171.911
176.854
165.686
178.414
151.307
137.95
126.402
114.969
102.467
89.7858
78.0047
67.2422
56.0412
44.8228
36.1967
21.8415
35.7342
54.8971
65.0937
73.0142
82.1505
97.1036
72.4042
66.8869
71.6723
97.6023
123.467
128.091
123.52
132.318
131.819
142.29
140.186
150.655
146.325
153.966
148.12
149.647
140.471
132.034
117.269
100.457
77.7689
53.6993
39.612
22.2124
35.7363
54.1157
66.516
75.6015
75.3342
72.6287
74.3203
82.7549
113.616
128.025
119.994
111.069
101.595
98.2441
98.3964
98.8926
101.071
105.512
106.985
112.885
114.628
115.438
118.192
114.128
113.366
110.883
103.217
81.8524
56.8029
30.1993
20.9191
37.3186
47.2357
44.5865
44.613
38.4971
30.1164
27.9092
23.6442
13.5678
10.7952
15.358
23.1502
40.0952
61.9283
79.8399
99.5132
112.778
116.619
119.584
112.005
105.28
88.9736
71.3036
54.0935
38.808
24.9847
17.1082
13.0999
7.16686
4.00003
5.68882
6.43165
7.18193
8.29232
9.47297
10.9753
12.8599
16.3121
20.2135
25.9095
27.549
28.1388
28.8118
28.7139
30.8946
31.8646
33.1364
34.0624
32.5745
30.3325
25.5054
20.1514
15.1905
10.8897
8.09689
6.51066
5.334
4.47536
3.45799
3.85786
4.50363
4.74011
4.89079
5.39083
6.35605
7.78388
10.487
12.5706
15.3081
15.4397
14.2251
12.9979
11.2597
10.3245
10.2566
11.2278
14.1479
15.334
14.4264
14.6209
14.2755
15.0356
15.0856
14.8147
13.7682
12.2228
9.44507
6.08765
3.0184
4.88499
5.05767
5.03901
5.06242
4.42702
4.43173
4.77238
5.9363
7.40772
8.99535
10.5193
11.605
12.4323
12.4387
11.7999
10.9278
9.81987
9.02318
8.77378
9.46874
7.93815
9.3498
7.21911
8.13832
6.88102
6.14214
5.32665
4.45265
4.01832
3.16796
5.40599
6.28749
6.46533
7.48006
7.82569
6.94186
7.15031
7.5608
8.33314
8.27405
9.03521
8.1201
8.07286
7.40268
7.63023
8.49842
6.51775
6.94408
5.97483
5.56629
5.01198
4.69784
4.4566
4.35799
4.15555
3.84787
3.70336
3.40694
3.17335
2.7123
4.74405
5.01393
4.46424
3.92173
3.96606
4.62723
5.37808
7.64849
8.37621
7.91405
7.5898
7.68426
5.32046
6.63308
5.24035
6.59092
5.04701
5.46728
5.16316
5.43216
5.33951
5.09839
5.07964
4.59228
4.3857
3.82964
3.59533
3.19098
2.79222
2.35993
2.59194
4.02813
5.17055
6.09261
6.81837
7.27728
7.53921
7.89054
8.36268
9.66005
11.5514
14.374
21.1215
16.6552
35.355
26.8506
27.9733
28.5033
28.5404
28.9107
29.5918
30.5158
31.5288
33.2943
36.9543
42.4489
51.6096
58.5476
69.1539
69.1869
69.8132
64.6266
63.4233
57.3669
49.2983
40.9965
37.4359
39.171
47.4014
62.2604
71.4092
51.2547
30.5207
20.645
36.1216
36.9225
45.9097
60.1614
77.8779
100.883
133.056
166.672
177.572
186.276
192.263
193.465
188.307
176.239
153.479
101.329
61.8507
40.0801
29.9889
26.1304
25.3742
23.7802
24.162
25.5399
30.8649
43.032
54.703
52.0905
43.9533
34.7756
64.2955
64.3247
75.0745
91.0188
110.599
130.238
148.44
166.228
180.86
190.959
202.535
206.537
216.669
217.984
221.425
218.345
212.552
203.848
192.536
182.196
169.708
157.299
147.736
137.851
125.219
98.7826
70.3406
55.8078
47.3547
40.1738
68.7453
68.2373
77.1263
89.5055
104.134
120.25
136.527
153.419
170.714
188.625
205.766
226.206
243.07
262.346
282.047
298.939
316.346
325.115
320.669
304.848
277.101
244.256
208.603
173.038
141.195
116.561
98.5631
81.8949
65.1299
51.4454
61.5768
70.589
83.8628
94.0456
87.9008
60.0482
59.6064
81.4754
120.935
117.17
107.858
102.649
96.9373
100.863
104.492
118.742
126.382
146.952
153.326
168.846
171.44
177.753
171.668
167.496
155.707
143.195
127.493
110.861
93.4714
70.6602
49.5079
57.1429
67.2317
74.4205
73.7105
73.7716
79.894
99.0326
122.872
117.359
99.6
87.3535
82.3751
78.4099
78.1954
80.8761
84.8651
95.1538
103.896
115.278
124.993
132.91
137.672
117.005
103.978
128.607
143.989
133.344
91.0048
61.4552
40.3819
56.1824
64.7221
68.4496
67.088
62.944
62.171
73.3806
62.743
52.3149
68.939
97.1193
117.268
127.408
138.831
145.233
149.11
151.329
149.047
143.13
132.97
118.992
100.169
82.6131
67.2681
54.2631
41.7242
27.752
18.0726
16.3127
6.13457
4.81019
5.48556
6.69315
9.34075
14.4679
21.8601
31.9758
43.2247
56.9126
80.5793
99.6545
95.9159
86.4512
79.5746
74.7163
68.8581
61.6623
53.3157
44.921
37.4902
29.2008
22.008
16.0213
10.0395
6.09973
4.70793
3.5814
3.09882
3.78323
5.87782
4.3427
5.58607
6.96942
8.84577
11.6087
15.0779
20.1456
25.0354
29.2647
32.0216
33.4614
35.1608
34.8816
36.0583
34.6414
35.7
35.1603
36.0018
32.2378
28.2073
21.825
17.0948
14.3514
13.6032
13.0655
12.1113
9.76254
6.24045
4.47835
7.10001
4.12821
5.29537
6.71174
8.30738
10.638
13.1359
16.3805
19.0126
21.3849
22.7914
23.8145
24.4362
24.5692
24.3223
23.4254
21.0868
18.9426
16.5552
15.1245
13.1846
11.9366
10.3397
9.17006
7.72065
6.79749
5.61818
4.4421
3.64363
5.03012
7.25799
4.25296
5.09046
5.65135
6.0661
6.2475
6.62083
7.28109
7.99598
8.75349
9.4771
10.0379
10.5002
11.2812
10.9929
10.4723
7.23105
6.60056
4.64249
3.83938
3.26265
3.002
2.87994
2.82376
2.79856
2.58558
2.46737
2.35355
2.1932
3.20597
8.68116
4.41135
5.14318
5.34812
6.13773
6.6779
7.16102
6.96655
7.37337
6.69358
6.28523
5.95422
5.5819
4.85035
4.80954
4.70106
3.93984
3.52736
3.25066
3.05561
2.91544
2.72287
2.60669
2.44876
2.32867
2.20097
2.08023
2.0169
1.85183
2.71532
3.90326
7.57428
9.55424
10.7772
11.3087
10.9167
10.4184
9.87628
9.36058
9.23559
10.3818
13.9197
20.9302
29.5972
39.1552
34.5279
34.6906
33.1059
32.194
31.3324
30.4482
29.4488
28.1682
27.5383
27.4929
29.3629
34.5989
41.9662
54.2781
61.0881
64.7997
62.8604
60.9682
56.2929
48.6308
39.0614
34.3039
35.9537
43.7839
60.6705
73.9738
55.069
36.2008
26.0756
43.4162
60.7599
87.4312
116.812
146.772
160.641
170.434
179.079
184.547
190.475
192.911
192.376
187.053
176.04
160.571
124.694
77.6035
48.2204
33.4438
27.0883
23.3043
21.9125
21.0417
21.6557
24.7029
36.6825
58.3187
56.4886
49.721
39.0178
71.0739
72.1869
83.8351
101.714
120.485
138.934
153.278
165.084
175.061
181.893
192.655
196.545
209.011
209.792
214.259
211.807
205.645
196.541
188.118
177.531
166.21
157.397
149.421
143.719
138.826
122.361
94.6425
69.1152
54.8901
50.8464
74.8315
77.5646
82.2852
89.7728
99.5054
110.14
122.553
135.476
150.826
165.016
182.763
199.551
218.953
239.362
258.75
273.789
296.681
300.361
310.742
299.44
282.319
256.874
223.367
187.877
155.361
129.812
110.285
94.7174
80.5353
69.0517
81.8058
80.3183
87.7698
74.7259
60.4964
73.919
111.407
129.302
132.146
130.54
126.803
127.389
123.108
125.065
120.57
125.549
124.893
137.306
141.155
154.765
158.992
164.706
162.144
160.434
153.112
146.261
136.245
123.117
105.712
91.1284
62.4915
63.9328
69.0041
75.3093
78.1246
82.8965
94.4207
117.763
118.225
101.514
92.8056
88.7553
86.8997
85.1386
85.8213
90.3319
94.983
105.507
116.778
130.628
138.091
137.592
131.949
118.888
91.1808
94.7628
130.177
144.426
120.66
86.652
62.6908
83.3889
86.6919
87.772
82.9072
81.8121
85.9244
91.8473
63.6378
61.5381
88.351
118.114
140.816
154.286
166.37
175.663
179.028
178.541
176.726
172.277
163.901
151.62
134.558
108.577
82.4261
65.7305
53.2354
39.586
28.8303
22.8068
8.66216
7.31878
8.17408
10.0443
13.7068
18.4272
26.3077
36.1545
46.3726
64.0764
75.8529
77.3992
83.0712
88.7449
92.6232
92.2568
89.7482
84.6158
77.4749
71.5427
65.9673
60.1726
43.8015
29.2714
17.0937
8.81313
5.30273
3.95022
3.9059
4.90627
6.44871
4.54693
5.42372
6.62833
8.63217
11.7418
15.6395
20.6889
25.3535
29.8697
33.3758
37.2633
40.1665
39.5246
40.4096
38.0576
38.2858
36.573
35.0765
31.2575
29.9505
27.0163
27.2223
28.4245
30.5849
31.4854
30.2935
24.5659
13.337
4.84449
7.69887
4.25685
5.23726
6.62057
8.2383
10.6686
13.189
16.5207
19.0951
21.5369
23.2924
25.0014
26.6122
27.8995
28.2858
27.158
24.5109
21.3708
18.7084
16.3972
14.5769
13.2424
11.4108
10.0442
8.84346
7.64587
6.11433
5.10245
4.34763
6.65377
7.89504
4.53245
5.19019
5.33268
5.44783
5.61166
6.05924
6.44666
7.38675
8.42386
9.24783
10.3437
11.5597
12.3445
11.7856
12.0806
7.93662
7.05731
5.14251
4.27075
3.47718
2.94485
2.55676
2.33119
2.2327
2.18903
2.24104
2.31435
2.33231
3.79427
9.48976
5.64229
5.79333
6.54574
7.11654
7.59169
7.7702
7.61172
7.49132
6.70099
6.19806
5.23707
4.8819
4.2235
3.98764
3.92194
3.2536
3.07498
2.73658
2.57349
2.46917
2.33533
2.22134
2.08443
1.97147
1.87348
1.83536
1.91743
2.05158
3.25631
6.06143
13.3284
16.5013
17.7058
17.1913
15.1592
12.9168
11.5767
10.8802
10.3488
10.2337
12.3259
20.1959
49.2401
38.2077
37.5604
36.7771
36.6047
37.233
38.1732
37.344
33.761
29.5564
26.1346
24.8408
25.0234
27.2323
33.4343
44.7766
55.5587
60.8237
61.1236
57.7181
53.6618
44.0681
35.2046
31.2639
33.9973
44.9658
65.9088
77.1393
59.4785
42.9156
30.8087
63.6055
114.052
135.548
148.228
157.556
163.414
167.629
169.719
172.425
173.851
174.877
172.924
168.865
162.098
152.295
127.173
86.5205
55.014
37.9691
28.5444
24.4988
21.046
19.4103
19.4827
23.4292
37.0622
63.3389
63.0533
58.2018
44.4098
76.2014
80.6153
100.677
121.407
137.211
144.07
148.272
149.176
151.311
152.483
156.515
161.447
170.706
177.434
185.637
189.109
186.585
182.166
175.243
165.944
158.82
150.142
143.892
141.525
141.407
134.666
112.591
84.7667
64.1845
63.3924
79.6272
81.1007
84.1989
88.9459
93.9363
100.571
107.226
117.294
125.852
137.59
146.984
159.025
174.635
189.644
209.193
231.564
245.855
260.431
265.298
267.806
260.407
244.918
221.756
189.494
158.919
132.713
115.064
102.387
93.9853
82.9152
100.007
84.4323
70.1905
64.2426
81.9217
123.572
130.583
136.59
143.008
146.39
150.095
156.778
153.933
151.851
138.807
132.843
120.67
121.752
121.575
128.312
134.088
142.976
144.415
147.586
146.519
145.306
141.65
131.808
115.115
98.389
75.1807
70.3528
73.4725
79.7565
86.0941
95.2702
114.005
123.579
108.756
98.8058
95.1526
91.9971
90.9944
90.8595
92.3899
98.1916
105.292
118.053
134.748
149.27
152.109
140.538
123.602
115.498
106.652
106.447
128.447
146.152
138.422
116.465
82.205
99.9865
101.951
100.751
95.2014
97.3805
110.703
106.836
72.3658
81.4366
108.459
136.861
157.757
168.535
181.714
185.679
189.897
190.88
188.481
183.612
178.152
170.491
157.375
133.375
102.815
75.8695
61.68
51.3536
41.7213
37.3342
12.6482
11.424
13.2292
15.9691
19.5147
25.9327
34.502
44.0973
64.7753
66.307
73.8245
86.7369
100.722
112.392
118.25
119.889
114.961
109.297
105.448
104.2
104.849
103.235
95.2989
64.0184
34.3567
15.0215
6.86896
4.734
4.06599
6.17673
6.94481
5.31776
6.04714
7.45751
10.0274
14.3721
19.6409
25.9086
31.3736
37.0628
42.3932
49.9851
53.5844
53.1156
51.5232
47.9447
47.803
47.7116
50.1728
51.0338
53.5344
53.107
55.8368
59.8162
63.7226
65.8374
64.8498
56.0777
33.9
7.79137
9.02347
5.00282
6.05649
7.96206
10.2481
14.1635
17.9677
22.7084
25.7402
28.0216
29.3878
30.8844
32.999
34.3601
34.3122
32.6394
29.9794
27.2557
24.7263
22.329
19.9381
17.6072
15.1028
12.5367
9.8632
7.66096
6.10822
5.46307
5.40116
7.55382
9.11584
5.24228
5.78113
5.9902
6.44137
6.725
7.11638
7.36827
8.10212
10.0065
12.0913
14.1779
15.6065
17.3137
16.4998
15.7706
11.6812
9.95615
7.86336
6.60389
5.30632
4.18066
3.31386
2.82282
2.48023
2.30421
2.22159
2.24914
2.41257
4.42877
12.3659
7.64936
9.06054
9.3446
10.3417
9.11712
8.5662
9.00362
8.64119
8.02679
7.21851
6.24673
5.25422
4.53975
3.85529
3.57507
3.16845
2.88847
2.61761
2.38268
2.19114
2.04379
1.94902
1.81276
1.7217
1.66011
1.63934
1.75397
2.0248
3.8421
8.55436
18.3315
20.2445
19.9104
19.1669
17.373
14.5483
12.586
11.7172
11.369
11.1117
11.843
18.2105
66.5119
35.783
36.0756
38.5772
42.5967
47.5723
49.8459
46.5059
40.0957
32.7297
26.756
23.6096
23.4376
25.7021
32.9927
43.0505
54.908
58.9508
60.2237
56.1602
47.7046
36.529
29.998
29.679
35.9076
51.8127
76.6717
85.2538
70.2392
54.7987
41.3773
91.7281
139.958
148.36
151.331
149.997
148.641
146.914
145.989
144.854
143.365
141.148
128.529
110.623
106.637
111.39
109.171
86.0227
59.3158
40.1944
32.2845
26.5396
22.4122
19.4363
19.2347
25.2327
48.4357
70.9671
69.7818
65.3243
52.4397
83.6817
93.5769
120.007
134.456
140.288
143.333
141.914
139.07
137.347
131.957
131.288
125.729
129.055
131.314
139.002
147.243
154.987
156.37
153.555
149.832
144.023
137.409
133.608
134.01
138.097
137.494
121.273
94.1414
71.2615
71.4892
82.3385
83.1441
87.5478
90.5457
93.892
97.0456
101.976
105.459
111.54
115.875
120.84
126.932
132.718
143.522
156.255
171.009
195.761
206.253
218.275
222.142
223.824
218.713
205.559
184.844
159.382
137.935
124.274
116.88
111.883
98.5225
116.39
90.8321
69.9188
84.4369
121.505
129.016
134.15
141.472
150.073
159.505
170.39
181.544
179.466
173.346
154.77
140.212
122.516
112.849
102.588
102.365
107.148
117.351
125.673
134.732
139.916
145.319
145.713
138.568
122.448
99.8687
87.2951
75.8694
79.4699
87.2286
96.5454
111.055
126.116
119.878
105.96
100.272
96.4633
93.3324
84.5959
84.2658
95.2877
104.642
112.357
127.277
144.965
158.214
158.12
145.469
125.656
115.048
114.227
121.927
138.389
151.664
149.379
130.441
98.3563
110.525
113.25
111.427
105.495
112.484
136.589
121.664
91.7409
102.165
124.324
148.309
163.902
170.549
179.387
185.11
189.501
194.351
196.111
192.977
184.868
175.161
166.885
155.012
126.847
91.4092
71.3052
64.5508
59.1151
55.0871
19.0105
18.5989
20.5873
24.743
30.0701
35.4992
44.4481
63.9804
66.0923
69.4552
80.6934
95.7376
111.14
122.732
128.79
130.157
128.597
126.756
128.13
133.519
141.95
146.801
141.692
121.948
63.8449
29.702
12.2491
6.96604
5.42591
6.33422
7.96257
6.92379
7.97681
10.3691
14.5041
21.0317
28.6821
35.884
42.2853
47.5815
55.131
65.1202
69.099
66.4948
62.3592
61.5376
65.6428
71.7469
79.072
83.1568
90.0139
92.7212
96.8446
98.3501
101.707
106.116
108.772
99.9272
70.3895
18.7047
10.5684
6.3041
7.75083
10.661
14.5484
20.8978
26.5826
32.1281
34.3825
35.0242
36.4782
39.2935
42.6142
45.3964
46.8439
47.5132
46.5802
42.1015
38.8767
35.0496
31.7758
28.8906
25.5766
21.3785
16.509
12.0281
8.68279
6.58277
5.79536
9.26484
10.3855
6.18002
7.2167
8.05953
9.0885
9.95931
9.5496
8.51527
9.45062
11.2738
13.7064
16.1683
17.8224
21.2349
22.1918
21.4834
16.2067
15.4242
12.6409
10.7314
8.79926
6.66605
4.78265
3.67846
3.13284
2.84492
2.63166
2.58917
2.63143
5.13273
15.7764
11.8197
12.8195
13.9953
11.549
11.4966
11.353
11.2002
10.4262
9.74293
8.34931
7.38525
5.98945
4.96857
3.97377
3.62171
2.96797
2.75583
2.4254
2.24367
2.1286
1.98691
1.91129
1.80674
1.73051
1.67643
1.64041
1.65538
1.93818
4.18291
10.5401
19.352
19.3817
18.0858
18.0851
17.6358
15.8173
13.6233
12.5244
12.1505
12.1247
12.47
15.9174
50.8453
35.1931
36.8956
41.7006
50.0054
57.6594
56.4962
50.1767
41.8564
33.5966
28.724
25.9907
26.9302
30.3462
40.6341
51.5637
58.7743
62.5613
58.3803
48.9104
37.244
29.7703
28.2357
35.1706
48.3227
70.5071
98.8933
99.36
89.3124
73.1226
54.7494
109.815
150.313
145.482
138.92
133.03
127.007
123.798
121.138
118.329
111.554
81.0107
62.1245
59.2707
65.5791
79.7145
88.6778
79.4614
56.847
43.478
33.0222
26.6305
21.2875
19.3708
20.8003
35.2151
77.0373
79.2808
76.4062
71.5967
63.4934
97.806
106.883
128.882
141.72
148.15
150.245
149.353
147.484
144.347
139.57
132.681
124.356
113.864
107.021
104.274
110.878
119.598
126.465
130.08
129.113
125.951
122.99
121.709
125.488
132.027
134.324
121.783
98.0255
78.07
79.4763
89.7422
90.2366
94.9467
97.7746
98.6107
99.3585
99.5051
101.991
103.41
105.771
109.125
110.623
114.716
115.815
120.832
128.266
142.683
157.663
172.05
179.786
185.166
187.757
185.357
170.179
152.538
138.329
129.453
125.41
124.795
108.394
130.011
82.7029
86.2271
118.87
127.364
130.114
133.73
140.881
152.014
166.565
182.007
197.312
198.86
190.913
168.351
153.644
134.133
119.666
102.135
92.6343
91.1296
101.694
114.373
128.6
139.326
147.869
149.604
143.546
128.994
98.1838
97.0527
81.0937
86.2908
96.2014
109.127
126.369
128.922
115.669
106.099
100.229
94.0047
85.0833
77.9237
73.0334
82.3863
108.473
116.179
128.519
145.696
161.565
164.961
157.273
146.624
135.536
132.282
135.168
145.806
150.041
157.6
156.665
123.59
116.407
122.679
122.252
118.205
130.348
160.74
143.69
115
124.153
137.891
150.042
159.725
158.09
166.373
169.271
179.764
189.873
196.04
194.242
187.383
177.736
169.503
162.655
147.862
112.644
80.5344
74.9114
76.9015
61.6179
37.7568
31.3727
31.6319
35.6649
40.8229
47.3865
64.8598
73.6198
69.0111
73.0774
83.3621
96.4041
109.164
120.565
126.552
130.668
130.352
134.173
140.996
152.118
165.509
175.74
176.376
159.297
103.77
58.4016
27.4468
13.1127
7.63602
8.93151
9.29696
9.21534
10.9621
14.714
20.7956
29.2973
38.6143
45.4584
50.1076
55.0927
60.9881
71.9403
76.8559
76.705
75.6347
81.4557
90.1274
98.8276
106.706
112.745
118.769
120.474
119.815
118.619
125.081
136.805
146.298
144.44
116.899
45.5291
12.9748
8.46246
10.0728
14.0167
19.5195
28.04
34.9487
39.5745
40.3674
40.9141
43.5795
47.5402
52.9415
57.6483
58.483
65.2952
65.1347
65.1679
64.645
60.5675
55.0409
50.1546
42.8092
34.5975
26.8301
19.8831
14.2924
10.2276
7.51781
8.85377
11.9586
8.18287
7.74652
9.02403
11.5515
13.5357
13.6464
10.7416
9.50549
11.3831
13.9096
16.0279
19.4098
25.1602
25.2472
27.8668
23.0318
22.7454
20.3453
17.9581
15.1984
11.2044
7.48811
5.05543
3.95473
3.6289
3.47971
3.36569
3.21595
6.35759
22.8036
17.0647
18.4614
14.8313
14.2433
13.1992
13.5696
11.7083
11.6553
10.8153
10.4729
8.39103
6.77801
5.06862
4.11533
3.35113
2.97628
2.62572
2.40833
2.21136
2.08439
2.01379
1.92539
1.86407
1.82625
1.78279
1.7554
1.72843
1.9156
4.1254
11.6977
17.6805
16.351
15.3161
16.94
18.6656
18.1006
17.1213
15.5892
14.5987
13.7453
13.7373
16.0252
42.8588
40.2248
40.899
46.403
54.065
59.0454
59.645
54.7218
48.4147
43.4783
39.7179
37.4203
40.4641
47.2576
55.3187
64.3159
65.5963
58.7386
48.3799
37.3902
31.9649
32.809
42.4537
61.1222
88.9982
104.087
102.687
104.547
104.908
93.0787
69.5565
132.104
148.12
136.694
128.353
123.182
121.014
117.722
113.517
109.015
102.497
72.7923
48.5745
43.1801
48.9697
61.5543
73.816
66.6041
54.972
41.1621
34.0333
26.6406
21.291
20.6212
30.5257
65.263
89.6337
85.3001
79.1136
75.2593
78.3684
116.026
118.546
142.964
160.192
166.533
169.658
167.692
166.229
162.851
160.722
153.3
146.808
135.603
123.3
111.408
105.212
105.993
110.135
112.836
114.648
115.286
115.063
117.327
122.243
128.234
127.897
116.445
98.0639
84.0362
87.1763
102.765
99.1393
104.127
105.969
105.801
104.301
103.849
103.347
103.545
104.901
104.686
106.352
107.486
107.09
107.663
107.87
111.859
124.103
138.271
146.954
155.28
162.781
163.414
157.664
148.04
139.932
138.184
137.983
137.819
121.876
140.524
101.568
117.932
125.385
127.996
129.478
130.411
136.895
149.135
167.539
185.244
204.468
214.259
204.129
185.474
169.043
151.319
138.551
123.724
110.334
106.831
112.329
124.499
135.98
146.305
152.089
153.271
145.591
135.234
100.169
107.58
86.6734
94.4181
106.148
122.656
132.108
125.297
113.439
105.336
98.6457
95.5959
88.0064
82.2326
65.9962
72.1366
110.355
116.586
126.644
142.805
162.314
171.16
168.47
162.33
156.035
148.622
146.386
147.726
155.529
159.928
166.429
149.087
126.514
129.686
132.772
133.899
153.798
184.834
161.735
136.555
141.89
147.655
150.585
146.711
142.311
140.673
144.864
156.889
173.218
184.683
189.304
186.161
178.506
167.394
162.098
158.851
133.805
93.7953
81.1518
89.4705
83.6835
64.9525
54.0077
46.9893
50.009
56.8923
60.499
80.3882
76.7076
71.8908
75.7904
83.8373
92.9599
102.186
110.209
116.577
121.581
123.775
129.14
140.592
158.276
176.68
189.853
192.736
181.371
131.63
91.6637
50.3949
23.7413
12.1014
12.4341
12.4215
12.7913
15.3579
20.4769
28.4156
37.6832
46.1116
50.8253
54.8594
57.8787
64.0385
72.9406
79.4564
84.1711
89.2169
98.2991
106.891
113.492
121.157
124.638
127.104
121.074
118.937
118.597
129.494
145.623
164.805
170.426
160.302
86.627
19.3569
14.6659
14.6731
18.276
24.5981
34.1793
43.4404
48.3088
46.6611
46.8943
48.5602
48.8452
51.2703
62.3658
74.8261
78.901
91.8853
92.6709
90.8726
87.418
81.1958
75.1288
65.1804
54.4306
43.524
33.9482
24.2928
17.703
12.7828
15.7211
19.2066
13.5911
12.4391
12.1494
14.3099
17.8726
19.0387
15.8116
11.5557
12.279
13.4133
15.9535
20.9303
23.4871
26.5736
28.1461
31.6658
29.81
31.4302
29.1211
25.8709
19.1955
12.5635
7.33218
5.11046
4.49437
4.51786
4.56558
4.45286
9.65615
27.2123
23.9197
21.3134
17.8299
15.7053
16.3344
12.8992
13.7795
13.5752
15.2748
13.493
11.5663
7.9267
5.69126
4.1046
3.30668
2.78411
2.45165
2.21423
2.07836
1.99204
1.93947
1.89475
1.88266
1.88413
1.90407
1.90114
1.90396
2.05922
4.57282
12.184
15.896
14.784
14.5217
18.2971
21.9124
23.3062
22.5396
21.2008
21.0311
19.7475
17.2474
18.9008
43.8979
50.2642
44.2646
47.2076
52.9177
59.0959
62.2218
63.4349
63.8928
63.7477
61.9236
61.764
64.0764
68.2655
68.1243
62.2397
56.3765
46.1281
39.7217
38.5017
45.492
65.9623
104.84
108.224
98.2672
91.7853
91.8081
101.913
109.441
106.072
87.2144
153.85
135.188
128.111
130.784
133.32
132.554
128.277
120.502
113.075
104.232
96.9803
54.8101
41.7569
43.5526
52.8772
58.8542
58.4223
47.3282
39.988
29.8771
23.4306
22.2382
28.2719
54.7137
99.3464
93.5241
84.8916
86.5371
86.0911
91.1069
138.582
135.827
166.963
185.703
196.318
198.898
195.703
194.064
188.587
186.002
180.633
181.013
172.685
165.512
156.476
147.684
138.309
134.092
130.129
129.396
127.772
127.453
127.57
128.306
127.401
121.493
111.678
101.125
96.4227
100.598
127.289
112.621
116.149
117.592
118.189
116.71
115.513
113.998
112.372
110.924
110.037
107.89
107.797
105.319
103.935
100.471
102.947
104.639
120.604
130.869
141.068
146.613
150.089
149.397
146.391
144.924
147.847
148.641
147.563
133.653
153.291
125.858
125.733
129.245
128.795
125.483
125.433
130.062
142.161
160.219
180.98
203.344
218.251
220.606
201.936
185.911
171.377
161.762
153.338
147.985
142.92
143.677
147.434
154.352
156.918
159.405
155.227
146.742
143.839
109.343
116.948
93.8509
102.553
117.398
131.65
132.342
121.793
112.039
102.701
95.9197
94.9492
98.2881
87.9314
63.795
64.6974
107.514
115.7
124.098
139.318
159.525
172.867
176.049
173.697
168.965
160.904
150.987
145.328
143.455
157.266
199.811
176.842
137.247
142.51
149.671
156.089
175.642
199.659
176.504
146.361
148.883
152.489
146.372
139.016
123.933
119.084
115.118
126.379
146.821
166.843
176.909
178.579
173.05
164.377
157.186
160.389
149.06
110.149
86.3684
101.24
91.8637
108.661
73.4061
73.0553
66.6896
73.5966
80.719
93.3156
84.4477
77.7301
80.121
85.217
90.5015
94.4127
98.8392
101.957
106.986
109.34
117.893
132.517
155.639
179.85
194.549
197.21
184.767
156.562
115.153
75.6941
45.0139
23.7994
23.0372
18.9135
19.4195
21.2017
27.9129
36.9456
46.565
53.141
56.2018
57.5159
60.7673
66.5766
74.9853
83.3038
91.9817
99.7055
108.12
113.756
118.547
120.502
120.185
114.45
105.146
100.77
105.602
118.17
140.028
158.499
176.891
178.192
125.689
52.3401
38.572
28.2723
26.6954
30.9072
39.6342
50.3238
57.0395
54.8938
52.4299
47.8476
50.7144
60.6326
74.5881
89.7262
102.049
103.327
112.197
109.123
105.327
98.0078
91.592
82.0504
77.3289
69.8838
58.7533
44.5692
33.5198
23.6224
29.7591
42.2736
25.3729
15.2398
11.4981
13.3371
20.1366
26.669
27.4721
20.3244
14.0588
15.9872
19.3281
22.2436
26.1354
30.0397
33.0446
31.3486
37.1247
41.4752
43.2607
41.1437
31.143
19.4399
10.995
6.71732
5.68096
5.86602
6.50711
6.98292
15.5707
42.2298
25.9975
23.1979
20.0796
19.9588
15.9742
17.1703
16.3896
20.7794
19.1482
18.1924
14.5402
11.1292
6.99421
4.65784
3.34346
2.6922
2.35318
2.14204
1.9853
1.88143
1.8588
1.81905
1.84003
1.90253
1.96107
2.09137
2.33574
2.70364
6.5528
12.4513
15.2653
14.488
15.1184
21.8887
28.5146
28.5003
29.2644
32.4523
35.681
32.5586
25.769
26.5774
50.7052
55.4725
51.8982
47.3699
45.9408
47.8879
52.9705
57.9916
62.5026
65.6864
68.2906
69.0279
69.3959
68.4958
63.7157
59.2376
57.9293
52.2066
47.7382
47.4547
52.8618
71.3413
115.083
129.659
116.788
106.214
98.3971
98.4233
102.858
111.232
116.809
114.978
108.032
133.506
142.768
125.942
125.724
135.086
147.948
154.987
154.388
144.596
131.941
121.016
111.527
106.293
83.1824
51.0834
47.2533
50.0652
54.0186
49.8885
44.6495
35.3392
28.6173
26.0922
30.8441
57.3313
116.154
110.04
108.215
135.366
167.823
181.312
151.582
172.248
197.319
195.983
192.856
201.652
216.767
228.908
231.775
229.753
222.873
216.191
211.102
213.999
214.015
216.079
212.081
208.3
199.323
192.404
183.79
178.769
173.118
167.233
160.113
151.331
142.433
133.538
126.195
121.991
120.956
122.861
132.156
163.072
170.03
129.152
129.076
133.156
135.675
135.672
134.777
131.835
130.166
127.731
125.122
122.415
117.494
113.013
108.795
103.969
101.517
100.221
100.429
114.185
126.638
138.158
144.365
149.163
150.673
152.436
156.841
159.654
160.478
156.757
143.668
173.709
179.816
156.899
138.964
134.634
131.263
128.483
125.462
122.653
123.953
133.183
149.848
171.383
190.931
214.678
227.51
219.053
200.051
188.527
183.336
178.782
175.314
176.192
174.776
174.738
171.228
170.218
164.277
157.494
154.887
147.769
115.173
127.939
124.501
103.983
101.424
111.004
126.644
134.844
128.881
119.057
108.437
98.3942
92.1989
91.8889
97.9922
101.19
66.6387
58.736
86.6735
112.791
120.324
133.904
154.455
171.194
180.617
182.186
179.803
171.634
163.251
159.931
170.346
176.937
173.665
193.85
186.501
165.565
163.475
166.517
170.916
174.325
195.737
211.737
185.214
150.855
151.162
150.333
144.583
130.224
114.967
103.815
95.6029
100.065
117.309
140.229
157.444
163.978
163.942
157.864
150.562
151.733
157.903
133.279
95.806
101.374
122.893
126.283
119.081
126.019
109.194
95.7902
86.5017
89.598
103.811
105.805
94.2501
84.9031
85.9342
89.0237
90.6059
90.8056
90.2661
90.0686
91.2903
94.9965
107.113
126.838
151.049
175.252
193.106
196.599
185.079
150.266
120.815
88.4129
61.8275
47.0393
41.6002
55.7715
84.8338
107.729
37.2314
32.8325
38.7581
49.7297
59.1344
63.8066
64.1036
63.6141
67.917
75.2517
84.0267
92.578
101.153
108.012
113.729
116.351
118.564
114.731
111.474
102.917
92.9866
93.3597
101.241
117.144
132.046
148.95
161.702
166.125
133.832
77.9264
96.8578
109.497
66.245
49.5247
42.102
41.7432
48.1286
59.4144
59.7926
61.0945
61.1032
50.4041
55.1085
72.2086
91.9156
104.721
116.557
124.909
109.537
114.952
95.4623
80.1852
82.1206
100.736
104.473
105.093
97.9361
80.4405
62.7292
43.7191
32.7888
32.9545
31.2479
39.2385
40.0203
32.6167
26.0893
19.0167
20.7881
31.8858
36.0509
33.598
27.2796
26.3131
32.8437
46.3435
59.0319
54.5115
47.3065
41.5862
44.9912
53.8602
57.1166
57.6711
46.5717
31.2407
15.8789
8.72739
6.99383
7.60229
9.80286
13.6134
16.1316
27.5115
34.0135
173.942
34.2324
23.6987
23.3176
20.1615
20.1995
18.041
25.1704
23.4061
29.2512
25.1533
21.3868
14.468
10.1195
6.12199
3.97803
2.85176
2.32898
2.06585
1.90496
1.81182
1.75904
1.74394
1.7661
1.84927
1.92443
2.1182
2.74809
3.81885
5.35647
3.26985
2.24918
12.6762
15.4561
14.6824
16.9565
26.3326
32.2619
31.2326
32.8951
37.7589
40.9546
40.2837
34.4544
34.9327
49.2516
41.62
42.4946
49.501
48.9407
51.652
56.37
61.0669
64.445
66.3651
66.6124
66.031
64.612
61.0477
60.2811
57.9078
56.2791
58.8602
64.6011
78.4928
116.435
156.256
149.105
136.925
129.244
125.978
126.826
128.527
131.094
131.793
129.357
121.603
111.874
104.105
106.508
119.694
134.483
154.043
169.014
176.568
175.019
166.885
150.21
135.093
125.005
120.068
117.602
74.0248
57.3978
57.0594
53.0009
49.6109
40.5205
33.4165
30.4387
37.2146
62.3094
113.3
129.134
125.947
156.412
202.669
246.185
268.754
275.773
269.705
260.684
221.096
206.926
219.08
237.775
251.74
260.09
257.243
249.369
240.003
238.591
239.263
246.222
249.545
253.803
251.646
249.027
242.101
235.871
224.506
212.624
197.595
184.172
170.955
162.235
157.362
157.053
156.378
155.03
150.889
145.222
131.082
136.504
144.254
150.028
153.812
155.608
153.983
152.395
149.319
146.749
145.456
144.204
137.299
130.048
121.689
111.723
106.211
101.913
103.053
100.949
115.425
122.656
142.087
150.906
158.463
162.288
166.704
169.7
169.174
168.838
159.28
133.55
121.28
150.053
164.508
143.795
137.761
133.645
128.223
123.126
98.8183
104.98
124.689
138.656
154.106
175.593
199.486
222.821
231.502
222.763
207.054
198.891
197.473
198.621
197.045
196.212
189.925
186.415
176.325
170.454
167.39
158.556
133.748
87.9931
74.5036
89.4189
105.987
106.604
120.536
134.025
134.749
126.141
115.353
104.028
93.3413
86.4167
87.6516
94.1216
102.837
78.0434
57.2731
71.0762
107.912
114.479
126.696
146.016
166.903
181.261
187.639
185.896
178.737
170.484
168.214
169.794
172.235
181.729
180.056
193.438
200.821
193.423
188.478
183.725
192.768
205.76
216.202
191.414
152.484
144.507
145.272
138.714
127.256
111.34
101.927
92.9601
93.6092
102.483
119.516
136.132
146.98
150.861
148.342
141.554
139.509
151.715
149.364
113.592
94.0956
116.623
115.818
125.584
143.953
140.091
123.042
107.987
117.297
122.246
117.799
104.105
93.5916
93.2741
94.5464
96.1818
93.7565
91.441
87.3646
86.2853
90.1325
105.104
124.733
149.357
171.029
185.774
187.931
175.343
141.662
116.146
84.3604
65.0094
61.8672
73.1856
85.8341
98.8391
100.089
53.4134
48.2595
54.489
67.9116
79.7108
84.2222
81.7298
77.7998
81.6542
89.2255
97.926
105.224
112.48
118.018
121.902
123.181
123.454
122.122
117.905
116.362
112.615
116.833
123.978
133.268
142.008
147.918