/*--------------------------------*- C++ -*----------------------------------*\
| =========                 |                                                 |
| \\      /  F ield         | OpenFOAM: The Open Source CFD Toolbox           |
|  \\    /   O peration     | Version:  2.1.1                                 |
|   \\  /    A nd           | Web:      www.OpenFOAM.org                      |
|    \\/     M anipulation  |                                                 |
\*---------------------------------------------------------------------------*/
FoamFile
{
    version     2.0;
    format      ascii;
    class       volScalarField;
    location    "0.002450000";
    object      c;
}
// * * * * * * * * * * * * * * * * * * * * * * * * * * * * * * * * * * * * * //

dimensions      [0 0 0 0 0 0 0];

internalField   nonuniform List<scalar> 
12384
(
1
1
1
1
1
1
1
1
1
0.14782
0.00710549
5.82196e-05
6.09587e-07
1.3739e-08
0.000119282
0.00247809
0.0305386
0.106946
0.270853
1
1
1
1
1
1
1
1
1
1
1
1
0.407398
0.234292
0.157103
0.0991046
0.0683746
0.0285851
0.00358332
0.000264828
1.92395e-05
1.55688e-06
4.12119e-08
7.59118e-10
1.25119e-11
0.00303479
0.0767845
0.308787
1
1
1
1
1
1
1
1
1
1
1
1
0.291787
0.170071
0.154302
0.143987
0.133573
0.105077
0.0649446
0.0285519
0.00132384
5.75332e-05
5.76289e-07
3.59771e-09
2.15309e-11
1.33218e-13
8.34229e-16
5.92561e-05
0.00950682
0.157286
1
1
1
1
1
1
1
1
1
1
0.188805
0.0649187
0.0447649
0.0314072
0.0074389
0.00113355
0.000191755
9.861e-06
4.26145e-07
6.91676e-09
1.08342e-10
1.74008e-13
2.32701e-16
3.91748e-19
7.68253e-22
1.64179e-24
3.5724e-27
4.7162e-33
1.93033e-31
8.69633e-30
4.46687e-29
1.04381e-28
1.35101e-28
7.76512e-29
3.01294e-29
1.1111e-29
6.07628e-30
8.62959e-31
2.4574e-32
4.86563e-35
1.03962e-37
7.30287e-41
2.62099e-44
5.87428e-48
4.80076e-52
4.48011e-56
4.61753e-60
5.42721e-64
7.06695e-68
1.01861e-71
1.55912e-75
2.52109e-79
4.15825e-83
6.99988e-87
1.18663e-90
2.01415e-94
3.41143e-98
6.55832e-115
3.18712e-116
1.46526e-119
4.99188e-123
1.76999e-126
5.82141e-130
1.40534e-133
2.69809e-137
4.43356e-141
6.6667e-145
9.5457e-149
1.27155e-152
1.73438e-156
2.34277e-160
3.18916e-164
2.45405e-168
6.92295e-175
4.68806e-181
4.03106e-186
5.99809e-191
4.85998e-196
2.99757e-201
1.56146e-206
7.14343e-212
3.33113e-217
1.61825e-222
3.84938e-228
4.84247e-234
4.55942e-240
4.53467e-246
3.36904e-269
4.62796e-272
1.82526e-277
5.45556e-283
1.42235e-288
3.28152e-294
6.63711e-300
1.19196e-305
1.91811e-311
2.82736e-317
9.88131e-324
0
0
0
0
0
0
0
0
0
0
0
0
0
0
0
0
0
0
0
0
0
0
0
0
0
0
0
0
0
0
0
0
0
0
0
0
0
0
0
0
0
0
0
0
0
0
0
0
0
0
0
0
0
0
0
0
0
0
0
0
0
0
0
0
0
0
0
0
0
0
0
0
0
0
0
0
0
0
0
0
0
0
0
0
0
0
0
0
0
0
0
0
0
0
0
0
0
0
0
0
0
0
0
0
0
0
0
0
0
0
0
0
0
0
0
0
0
0
0
0
0
0
0
0
0
0
0
0
0
0
0
0
0
0
0
0
0
0
0
0
0
0
0
0
0
0
0
0
0
0
0
0
0
0
0
0
0
0
0
0
0
0
0
0
0
0
0
0
0
0
0
0
0
0
0
0
0
0
0
0
0
0
0
0
0
0
0
0
0
0
0
0
0
0
0
0
0
0
0
1
1
1
1
1
1
1
1
1
0.104189
0.0178388
0.000771257
1.73875e-05
2.80688e-07
0.00440081
0.064744
0.372126
1
1
1
1
1
1
1
1
1
1
1
1
1
1
1
1
1
1
1
1
0.134013
0.0144057
0.000503619
5.19062e-05
3.46295e-06
9.86217e-08
1.99808e-09
0.0620187
1
1
1
1
1
1
1
1
1
1
1
1
1
1
1
1
1
1
1
1
1
1
0.0963307
0.0142547
0.000122159
5.5643e-07
2.61634e-09
1.65697e-11
1.05135e-13
0.0117692
0.20308
1
1
1
1
1
1
1
1
1
1
1
1
1
1
1
0.280746
0.0916996
0.054606
0.00712479
0.000253782
6.541e-06
1.05613e-07
1.33187e-10
6.5456e-14
4.32632e-17
5.8838e-20
1.41087e-22
4.9033e-25
4.06371e-30
1.76912e-28
1.06054e-26
7.52039e-26
2.34603e-25
3.78362e-25
2.7353e-25
1.26328e-25
4.97427e-26
3.73044e-26
5.63703e-27
3.39989e-28
5.41838e-31
1.41739e-33
9.70596e-37
3.59871e-40
7.45812e-44
9.07865e-49
7.97328e-53
1.76115e-57
3.91547e-62
1.17221e-65
7.14175e-69
6.63386e-73
4.8151e-77
4.9076e-81
6.92453e-85
4.80694e-88
9.5076e-92
1.6743e-95
5.00148e-111
2.55864e-112
1.14901e-115
3.804e-119
1.37847e-122
4.49137e-126
1.00046e-129
1.66999e-133
2.26348e-137
2.74695e-141
3.1175e-145
1.86279e-149
3.65298e-153
3.09877e-157
5.64765e-161
8.23325e-165
1.27415e-170
5.97537e-175
6.53069e-180
8.78699e-185
6.61134e-190
3.95627e-195
1.96421e-200
8.66584e-206
3.90149e-211
1.86611e-216
5.09296e-222
6.09404e-228
4.86955e-234
3.90795e-240
4.33657e-263
6.35077e-266
2.37109e-271
7.0469e-277
1.82599e-282
4.14212e-288
8.11509e-294
1.40387e-299
2.16601e-305
3.05462e-311
3.97567e-317
1.4822e-323
0
0
0
0
0
0
0
0
0
0
0
0
0
0
0
0
0
0
0
0
0
0
0
0
0
0
0
0
0
0
0
0
0
0
0
0
0
0
0
0
0
0
0
0
0
0
0
0
0
0
0
0
0
0
0
0
0
0
0
0
0
0
0
0
0
0
0
0
0
0
0
0
0
0
0
0
0
0
0
0
0
0
0
0
0
0
0
0
0
0
0
0
0
0
0
0
0
0
0
0
0
0
0
0
0
0
0
0
0
0
0
0
0
0
0
0
0
0
0
0
0
0
0
0
0
0
0
0
0
0
0
0
0
0
0
0
0
0
0
0
0
0
0
0
0
0
0
0
0
0
0
0
0
0
0
0
0
0
0
0
0
0
0
0
0
0
0
0
0
0
0
0
0
0
0
0
0
0
0
0
0
0
0
0
0
0
0
0
0
0
0
0
0
0
0
0
0
0
1
1
1
1
1
1
1
1
1
0.465504
0.197477
0.0502548
0.0023413
1.19518e-05
0.0328706
0.367089
1
1
1
1
1
1
1
1
1
1
1
1
1
1
1
1
1
1
1
1
1
0.485576
0.137645
0.0431735
0.00386086
5.34563e-05
1.11564e-06
1.8938e-08
0.0637709
1
1
1
1
1
1
1
1
1
1
1
1
1
1
1
1
1
1
1
1
1
1
1
0.383602
0.0324902
0.00010807
3.51203e-07
1.90018e-09
1.3533e-11
0.040556
1
1
1
1
1
1
1
0.988967
0.989004
0.994779
1
1
1
1
1
1
1
1
1
0.278925
0.0556785
0.00384446
0.000130529
9.50313e-07
2.66081e-10
4.58361e-14
3.49502e-17
6.89021e-20
2.24669e-22
4.44445e-27
2.73658e-25
2.24817e-23
2.18964e-22
6.42141e-22
1.15185e-21
7.73882e-22
3.34704e-22
1.33074e-22
1.01758e-22
1.91368e-23
1.78756e-24
3.09438e-27
9.01622e-30
8.12439e-33
4.5788e-36
1.80448e-39
4.34526e-43
6.36389e-47
1.49897e-51
3.08536e-56
2.84309e-60
2.09939e-64
1.04032e-68
6.39723e-74
1.3015e-78
1.83564e-81
3.00848e-84
3.20066e-88
3.36628e-92
1.30016e-106
7.93587e-108
3.69349e-111
1.22645e-114
4.6016e-118
1.45821e-121
3.12713e-125
4.57768e-129
5.54956e-133
5.59446e-137
5.51262e-141
3.61905e-146
5.3588e-149
7.31308e-154
6.14952e-157
7.72041e-161
8.20352e-165
9.81247e-169
8.38425e-174
1.0159e-178
6.78031e-184
3.73725e-189
1.65162e-194
6.56452e-200
2.58462e-205
1.1048e-210
3.89287e-216
4.82971e-222
3.53192e-228
2.41571e-234
7.36967e-257
1.06653e-259
3.59567e-265
1.01555e-270
2.53525e-276
5.46407e-282
1.01284e-287
1.64619e-293
2.39451e-299
3.18009e-305
3.91413e-311
4.52851e-317
1.4822e-323
0
0
0
0
0
0
0
0
0
0
0
0
0
0
0
0
0
0
0
0
0
0
0
0
0
0
0
0
0
0
0
0
0
0
0
0
0
0
0
0
0
0
0
0
0
0
0
0
0
0
0
0
0
0
0
0
0
0
0
0
0
0
0
0
0
0
0
0
0
0
0
0
0
0
0
0
0
0
0
0
0
0
0
0
0
0
0
0
0
0
0
0
0
0
0
0
0
0
0
0
0
0
0
0
0
0
0
0
0
0
0
0
0
0
0
0
0
0
0
0
0
0
0
0
0
0
0
0
0
0
0
0
0
0
0
0
0
0
0
0
0
0
0
0
0
0
0
0
0
0
0
0
0
0
0
0
0
0
0
0
0
0
0
0
0
0
0
0
0
0
0
0
0
0
0
0
0
0
0
0
0
0
0
0
0
0
0
0
0
0
0
0
0
0
0
0
0
1
1
1
1
1
1
1
1
1
1
0.998277
0.320024
0.0590978
0.000887934
0.120032
1
1
1
1
1
1
1
1
1
1
1
1
1
1
1
1
1
1
1
1
1
1
1
1
0.4453
0.0547615
0.000162675
1.74704e-06
2.88818e-08
0.0634119
1
1
1
1
1
1
1
1
1
1
1
1
1
1
1
1
1
1
1
1
1
1
1
1
0.214369
0.0159025
4.82e-05
2.16504e-07
1.51919e-09
0.0484582
1
1
1
1
1
0.262263
0.0438351
0.0275853
0.0654104
0.185281
0.998598
1
1
1
1
1
1
1
1
1
1
0.238076
0.0420255
0.00078982
3.33076e-06
1.75565e-09
1.11124e-13
7.31399e-17
1.35071e-19
1.0052e-23
7.11351e-22
5.8583e-20
3.76233e-19
8.71655e-19
1.35589e-18
9.8926e-19
4.66569e-19
1.95404e-19
1.83804e-19
4.23531e-20
6.55556e-21
1.18846e-23
3.63622e-26
3.24899e-29
1.73529e-32
7.42522e-36
2.67013e-39
8.28472e-43
1.81315e-46
2.53611e-50
2.71048e-54
2.31034e-58
1.31878e-62
8.65007e-68
2.04037e-72
9.28533e-77
7.74852e-80
3.16143e-84
1.16157e-88
1.14906e-101
5.28126e-103
2.07946e-106
6.74628e-110
2.673e-113
9.69395e-117
2.26646e-120
3.73419e-124
4.65508e-128
5.09882e-132
4.89755e-136
5.12653e-140
4.78164e-144
5.68024e-148
5.40799e-152
7.34907e-156
7.1865e-160
1.07395e-163
1.09497e-167
1.23931e-172
7.4177e-178
3.64827e-183
1.42586e-188
4.87374e-194
1.63623e-199
5.73467e-205
2.224e-210
3.45666e-216
2.48848e-222
1.59751e-228
1.64777e-250
2.3383e-253
7.03226e-259
1.84971e-264
4.43576e-270
9.06096e-276
1.57182e-281
2.38417e-287
3.23409e-293
4.01815e-299
4.63416e-305
5.04277e-311
5.22848e-317
1.4822e-323
0
0
0
0
0
0
0
0
0
0
0
0
0
0
0
0
0
0
0
0
0
0
0
0
0
0
0
0
0
0
0
0
0
0
0
0
0
0
0
0
0
0
0
0
0
0
0
0
0
0
0
0
0
0
0
0
0
0
0
0
0
0
0
0
0
0
0
0
0
0
0
0
0
0
0
0
0
0
0
0
0
0
0
0
0
0
0
0
0
0
0
0
0
0
0
0
0
0
0
0
0
0
0
0
0
0
0
0
0
0
0
0
0
0
0
0
0
0
0
0
0
0
0
0
0
0
0
0
0
0
0
0
0
0
0
0
0
0
0
0
0
0
0
0
0
0
0
0
0
0
0
0
0
0
0
0
0
0
0
0
0
0
0
0
0
0
0
0
0
0
0
0
0
0
0
0
0
0
0
0
0
0
0
0
0
0
0
0
0
0
0
0
0
0
0
0
1
1
1
1
1
1
1
1
1
1
1
0.997912
0.321578
0.0244675
0.205281
1
1
1
1
1
1
1
1
1
1
1
1
1
1
1
1
1
1
1
1
1
1
1
1
1
0.159938
0.00212929
3.07102e-06
3.60532e-08
0.0388217
1
1
1
1
1
1
1
1
1
1
1
1
1
1
1
1
1
1
1
1
1
1
1
1
1
0.118325
0.00479451
1.7847e-05
1.27753e-07
0.0514097
1
1
1
1
1
0.0408105
0.0027485
0.0463585
0.226082
0.378954
0.998052
1
1
1
1
1
1
1
1
1
1
1
1
0.134605
0.00213696
4.56304e-06
1.08184e-09
1.56331e-13
1.05334e-16
4.15723e-20
2.07222e-18
6.74938e-17
3.19205e-16
6.26955e-16
1.2337e-15
1.10444e-15
6.53255e-16
3.43754e-16
4.13003e-16
1.13696e-16
2.65741e-17
4.64458e-20
1.50808e-22
1.22248e-25
6.3122e-29
2.47024e-32
8.41691e-36
2.55438e-39
7.49872e-43
1.93573e-46
3.65111e-50
5.01776e-54
5.33309e-58
4.62329e-62
3.09466e-66
1.58639e-70
5.91018e-75
1.65795e-79
3.5017e-84
4.00994e-97
8.99006e-99
2.59823e-102
7.26074e-106
3.16721e-109
1.42781e-112
4.445e-116
9.75718e-120
1.56919e-123
2.07763e-127
2.44579e-131
2.855e-135
3.18011e-139
3.87751e-143
4.28762e-147
5.6437e-151
6.3415e-155
8.86442e-159
1.03051e-162
1.52112e-166
8.05376e-172
3.57602e-177
1.20556e-182
3.53623e-188
9.94962e-194
2.85201e-199
9.15828e-205
1.71834e-210
1.42272e-216
9.06179e-223
3.86816e-244
5.23999e-247
1.40619e-252
3.26985e-258
7.16944e-264
1.42386e-269
2.36097e-275
3.37523e-281
4.30313e-287
4.99862e-293
5.40002e-299
5.4906e-305
5.33369e-311
4.99217e-317
9.88131e-324
0
0
0
0
0
0
0
0
0
0
0
0
0
0
0
0
0
0
0
0
0
0
0
0
0
0
0
0
0
0
0
0
0
0
0
0
0
0
0
0
0
0
0
0
0
0
0
0
0
0
0
0
0
0
0
0
0
0
0
0
0
0
0
0
0
0
0
0
0
0
0
0
0
0
0
0
0
0
0
0
0
0
0
0
0
0
0
0
0
0
0
0
0
0
0
0
0
0
0
0
0
0
0
0
0
0
0
0
0
0
0
0
0
0
0
0
0
0
0
0
0
0
0
0
0
0
0
0
0
0
0
0
0
0
0
0
0
0
0
0
0
0
0
0
0
0
0
0
0
0
0
0
0
0
0
0
0
0
0
0
0
0
0
0
0
0
0
0
0
0
0
0
0
0
0
0
0
0
0
0
0
0
0
0
0
0
0
0
0
0
0
0
0
0
0
1
1
1
1
1
1
1
1
1
1
1
1
0.996923
0.12428
0.339988
1
1
1
1
1
1
1
1
1
1
1
1
1
1
1
1
1
1
1
1
1
1
1
1
1
0.0474479
0.0328402
0.000937378
2.31736e-06
0.0189455
0.29931
1
1
1
1
1
1
1
1
1
1
1
1
1
1
1
1
1
1
1
1
1
1
1
1
1
0.0706305
0.00143503
8.84186e-06
0.0177719
0.388556
1
1
1
0.183296
0.000908364
0.0724197
0.277212
1
0.999922
1
1
1
1
1
1
1
1
1
1
1
1
1
1
0.12226
0.00225837
2.35562e-06
6.01121e-11
6.04457e-14
1.8008e-16
2.50379e-15
3.92865e-14
1.66456e-13
3.54507e-13
9.65244e-13
1.51298e-12
1.26842e-12
2.46679e-12
3.08768e-12
1.46404e-12
1.85605e-13
2.85199e-16
6.12171e-19
4.68816e-22
2.08299e-25
7.65284e-29
2.4069e-32
6.91741e-36
1.83521e-39
4.85639e-43
1.25361e-46
2.81588e-50
4.90709e-54
6.50188e-58
6.59766e-62
5.04903e-66
2.66462e-70
9.13434e-75
1.77433e-79
6.38784e-93
6.98787e-95
1.43751e-98
3.51677e-102
1.71475e-105
8.11191e-109
2.90215e-112
8.19168e-116
1.81241e-119
3.14588e-123
4.65418e-127
6.52342e-131
8.56688e-135
1.17661e-138
1.46542e-142
2.08661e-146
2.53e-150
3.76504e-154
4.55698e-158
7.06729e-162
8.65163e-166
3.51286e-171
1.0056e-176
2.51241e-182
5.93365e-188
1.38605e-193
3.47536e-199
7.6019e-205
7.74914e-211
4.95562e-217
9.09484e-238
1.16828e-240
2.4885e-246
4.84203e-252
8.97718e-258
1.63962e-263
2.71861e-269
3.82064e-275
4.71228e-281
5.26767e-287
5.42606e-293
5.24879e-299
4.81857e-305
4.25477e-311
3.6403e-317
4.94066e-324
0
0
0
0
0
0
0
0
0
0
0
0
0
0
0
0
0
0
0
0
0
0
0
0
0
0
0
0
0
0
0
0
0
0
0
0
0
0
0
0
0
0
0
0
0
0
0
0
0
0
0
0
0
0
0
0
0
0
0
0
0
0
0
0
0
0
0
0
0
0
0
0
0
0
0
0
0
0
0
0
0
0
0
0
0
0
0
0
0
0
0
0
0
0
0
0
0
0
0
0
0
0
0
0
0
0
0
0
0
0
0
0
0
0
0
0
0
0
0
0
0
0
0
0
0
0
0
0
0
0
0
0
0
0
0
0
0
0
0
0
0
0
0
0
0
0
0
0
0
0
0
0
0
0
0
0
0
0
0
0
0
0
0
0
0
0
0
0
0
0
0
0
0
0
0
0
0
0
0
0
0
0
0
0
0
0
0
0
0
0
0
0
0
0
1
1
1
1
1
1
1
1
1
1
1
1
1
0.204511
1
1
1
1
1
1
1
1
1
1
1
1
1
1
1
1
1
1
1
1
1
1
1
1
1
1
0.155092
0.305243
0.016396
8.41562e-05
0.0141539
0.238431
1
1
1
1
1
1
1
1
1
1
1
1
1
1
1
1
1
1
1
1
1
1
1
1
1
0.181641
0.00787538
6.04864e-05
0.000824627
0.0583331
0.292983
0.233176
0.101105
0.00834064
0.0199012
1
1
1
1
1
1
1
1
1
1
1
1
1
1
1
1
1
1
0.493829
0.060056
0.000560774
5.13471e-07
1.22922e-10
5.42465e-13
2.0507e-12
1.41268e-11
6.41947e-11
1.55924e-10
6.90681e-10
1.49476e-09
3.41868e-09
7.27421e-09
8.07742e-09
4.69278e-09
7.98225e-10
2.1403e-12
2.53132e-15
1.4823e-18
5.91247e-22
1.95139e-25
5.87198e-29
1.59316e-32
4.08214e-36
9.78105e-40
2.35112e-43
5.76188e-47
1.34952e-50
2.75407e-54
4.52418e-58
5.75733e-62
5.26929e-66
2.89903e-70
6.81881e-75
6.32911e-89
4.64695e-91
5.87189e-95
1.51236e-98
8.68307e-102
4.00723e-105
1.31602e-108
3.64279e-112
9.02715e-116
1.98408e-119
3.74588e-123
6.44369e-127
1.0309e-130
1.61178e-134
2.38209e-138
3.59458e-142
5.07469e-146
7.62689e-150
1.0652e-153
1.61136e-157
2.26331e-161
3.44912e-165
8.26585e-171
1.75638e-176
3.46882e-182
6.66244e-188
1.32068e-193
2.87019e-199
3.69254e-205
2.44949e-211
2.07793e-231
2.0171e-234
3.31261e-240
5.10927e-246
7.8677e-252
1.21975e-257
1.90456e-263
2.7576e-269
3.45755e-275
3.8599e-281
3.93704e-287
3.7171e-293
3.31084e-299
2.8062e-305
2.2963e-311
1.82819e-317
0
0
0
0
0
0
0
0
0
0
0
0
0
0
0
0
0
0
0
0
0
0
0
0
0
0
0
0
0
0
0
0
0
0
0
0
0
0
0
0
0
0
0
0
0
0
0
0
0
0
0
0
0
0
0
0
0
0
0
0
0
0
0
0
0
0
0
0
0
0
0
0
0
0
0
0
0
0
0
0
0
0
0
0
0
0
0
0
0
0
0
0
0
0
0
0
0
0
0
0
0
0
0
0
0
0
0
0
0
0
0
0
0
0
0
0
0
0
0
0
0
0
0
0
0
0
0
0
0
0
0
0
0
0
0
0
0
0
0
0
0
0
0
0
0
0
0
0
0
0
0
0
0
0
0
0
0
0
0
0
0
0
0
0
0
0
0
0
0
0
0
0
0
0
0
0
0
0
0
0
0
0
0
0
0
0
0
0
0
0
0
0
0
0
1
1
1
1
1
1
1
1
1
1
1
1
1
0.992747
1
1
1
1
1
1
1
1
1
1
1
1
1
1
1
1
1
1
1
1
1
1
1
1
1
1
0.999915
1
0.0381488
0.0004275
0.00831023
0.174621
1
1
1
1
1
1
1
1
1
1
1
1
1
1
1
1
1
1
1
1
1
1
1
1
1
1
0.047395
0.00121877
5.78314e-07
0.000173449
0.0224549
0.0148966
0.00196521
0.00139256
0.0909199
1
1
1
1
1
1
1
1
1
1
1
1
1
1
1
1
1
1
1
0.407115
0.0419467
0.000165784
1.50769e-07
1.46804e-09
1.1545e-09
3.25926e-09
1.39101e-08
4.28207e-08
2.53989e-07
9.25304e-07
2.09569e-06
5.89865e-06
7.12441e-06
4.17226e-06
9.51665e-07
7.05295e-09
9.18049e-12
4.30922e-15
1.29412e-18
3.75452e-22
1.051e-25
2.82777e-29
6.97038e-33
1.66054e-36
3.70779e-40
8.29289e-44
1.92222e-47
4.45558e-51
9.72678e-55
1.85133e-58
2.7336e-62
2.37661e-66
7.01597e-71
4.89104e-85
3.82701e-87
3.23243e-91
9.89705e-95
5.19268e-98
1.95259e-101
5.72994e-105
1.40113e-108
3.22254e-112
7.1034e-116
1.49823e-119
2.96076e-123
5.58963e-127
1.00702e-130
1.72981e-134
2.89721e-138
4.58969e-142
7.42928e-146
1.12869e-149
1.80515e-153
2.68953e-157
4.28399e-161
6.26484e-165
1.15973e-170
1.90157e-176
2.989e-182
4.75479e-188
7.83241e-194
9.96863e-200
7.64942e-206
4.47573e-225
2.79313e-228
2.63771e-234
2.96961e-240
3.633e-246
4.72472e-252
6.34727e-258
8.86361e-264
1.17524e-269
1.38207e-275
1.45786e-281
1.40335e-287
1.24966e-293
1.05012e-299
8.42212e-306
6.53971e-312
4.9671e-318
0
0
0
0
0
0
0
0
0
0
0
0
0
0
0
0
0
0
0
0
0
0
0
0
0
0
0
0
0
0
0
0
0
0
0
0
0
0
0
0
0
0
0
0
0
0
0
0
0
0
0
0
0
0
0
0
0
0
0
0
0
0
0
0
0
0
0
0
0
0
0
0
0
0
0
0
0
0
0
0
0
0
0
0
0
0
0
0
0
0
0
0
0
0
0
0
0
0
0
0
0
0
0
0
0
0
0
0
0
0
0
0
0
0
0
0
0
0
0
0
0
0
0
0
0
0
0
0
0
0
0
0
0
0
0
0
0
0
0
0
0
0
0
0
0
0
0
0
0
0
0
0
0
0
0
0
0
0
0
0
0
0
0
0
0
0
0
0
0
0
0
0
0
0
0
0
0
0
0
0
0
0
0
0
0
0
0
0
0
0
0
0
0
1
1
1
1
1
1
1
1
1
1
1
1
1
1
1
1
1
1
1
1
1
1
1
1
1
1
1
1
1
1
1
1
1
1
1
1
1
1
1
1
1
1
1
0.99853
0.0174146
0.00151423
0.00111099
0.000525277
0.00585728
0.132446
1
1
1
1
1
1
1
1
1
1
1
1
1
1
1
1
1
1
1
1
1
1
1
1
1
1
0.98777
0.059722
0.0127175
0.00149929
6.1516e-05
8.50255e-05
0.000150118
0.000274862
0.00103421
0.0149287
0.312524
1
1
1
1
1
1
1
1
1
1
1
1
1
1
1
1
1
1
1
1
0.311437
0.0320971
0.000125126
6.39751e-06
2.22719e-06
1.01189e-06
5.74468e-07
5.73681e-07
1.84814e-06
7.84852e-06
5.21984e-05
0.000182021
0.000424286
0.00226886
0.00297437
0.00218842
0.000332474
1.01769e-05
2.15403e-08
1.36021e-11
3.4852e-15
6.71886e-19
1.50901e-22
3.62687e-26
8.88994e-30
2.01604e-33
4.53605e-37
9.67892e-41
2.05229e-44
4.47499e-48
1.00177e-51
2.2116e-55
4.49061e-59
7.09129e-63
3.82905e-67
1.86247e-71
1.01896e-75
5.08177e-81
3.61399e-85
6.63343e-88
8.81962e-91
3.15323e-94
9.27407e-98
2.27786e-101
4.9626e-105
1.0061e-108
2.04356e-112
4.10101e-116
8.20192e-120
1.60075e-123
3.08021e-127
5.76669e-131
1.06354e-134
1.8966e-138
3.35657e-142
5.72654e-146
9.79956e-150
1.6109e-153
2.6698e-157
4.2688e-161
6.8832e-165
9.07076e-171
1.14193e-176
1.42752e-182
1.69901e-188
1.85538e-194
1.78856e-200
1.40058e-206
9.12029e-213
7.43366e-219
7.03444e-225
7.40595e-231
9.22266e-237
1.39163e-242
2.53915e-248
5.62949e-254
1.37169e-259
2.92264e-265
4.90499e-271
6.84411e-277
8.2269e-283
8.78396e-289
8.4994e-295
7.62468e-301
6.42982e-307
5.19306e-313
4.05633e-319
0
0
0
0
0
0
0
0
0
0
0
0
0
0
0
0
0
0
0
0
0
0
0
0
0
0
0
0
0
0
0
0
0
0
0
0
0
0
0
0
0
0
0
0
0
0
0
0
0
0
0
0
0
0
0
0
0
0
0
0
0
0
0
0
0
0
0
0
0
0
0
0
0
0
0
0
0
0
0
0
0
0
0
0
0
0
0
0
0
0
0
0
0
0
0
0
0
0
0
0
0
0
0
0
0
0
0
0
0
0
0
0
0
0
0
0
0
0
0
0
0
0
0
0
0
0
0
0
0
0
0
0
0
0
0
0
0
0
0
0
0
0
0
0
0
0
0
0
0
0
0
0
0
0
0
0
0
0
0
0
0
0
0
0
0
0
0
0
0
0
0
0
0
0
0
0
0
0
0
0
0
0
0
0
0
0
0
0
0
0
0
0
0
0
0
0
0
0
0
0
0
0
0
0
0
0
1
1
1
1
1
1
1
1
1
1
1
1
1
1
1
1
1
1
1
1
1
1
1
1
1
1
1
1
1
1
1
1
1
1
1
1
1
1
1
1
1
1
1
0.985496
0.0334486
0.0269916
0.0181209
0.0106842
0.0122388
0.037878
0.105067
0.249991
1
1
1
1
1
1
1
1
1
1
1
1
1
1
1
1
1
1
1
1
1
1
1
1
1
0.986478
0.190869
0.0349823
0.0124546
0.0120123
0.011272
0.0124711
0.01935
0.0663723
0.989196
1
1
1
1
1
1
1
1
1
1
1
1
1
1
1
1
1
1
1
1
1
0.284354
0.0453797
0.00320647
0.000485338
0.00021872
0.000153043
0.000110605
0.000159377
0.000685734
0.00516995
0.0165577
0.0421993
0.0692536
0.0860243
0.0689125
0.0379714
0.00736143
2.46373e-05
2.46812e-08
8.78534e-12
1.53613e-15
2.33734e-19
4.39649e-23
8.65389e-27
1.88299e-30
3.92521e-34
8.4071e-38
1.74478e-41
3.58685e-45
7.4614e-49
1.58836e-52
3.40306e-56
7.03323e-60
1.22427e-63
1.41671e-67
6.34248e-72
5.34982e-76
6.78372e-80
2.37005e-83
6.46131e-87
1.62355e-90
3.68193e-94
7.64469e-98
1.45851e-101
2.69237e-105
4.84079e-109
8.9353e-113
1.64762e-116
3.08214e-120
5.71863e-124
1.06465e-127
1.95537e-131
3.58621e-135
6.47227e-139
1.15114e-142
2.0421e-146
3.54008e-150
6.12663e-154
1.03814e-157
1.75958e-161
2.91024e-165
3.1556e-171
3.44836e-177
3.66952e-183
3.75103e-189
3.48173e-195
3.08954e-201
2.60793e-207
2.19569e-213
1.8776e-219
1.76752e-225
1.90315e-231
2.41443e-237
3.63005e-243
6.51402e-249
1.30042e-254
2.37134e-260
3.53871e-266
4.50425e-272
5.02149e-278
5.04899e-284
4.6502e-290
4.00774e-296
3.26953e-302
2.56857e-308
1.96006e-314
1.4649e-320
0
0
0
0
0
0
0
0
0
0
0
0
0
0
0
0
0
0
0
0
0
0
0
0
0
0
0
0
0
0
0
0
0
0
0
0
0
0
0
0
0
0
0
0
0
0
0
0
0
0
0
0
0
0
0
0
0
0
0
0
0
0
0
0
0
0
0
0
0
0
0
0
0
0
0
0
0
0
0
0
0
0
0
0
0
0
0
0
0
0
0
0
0
0
0
0
0
0
0
0
0
0
0
0
0
0
0
0
0
0
0
0
0
0
0
0
0
0
0
0
0
0
0
0
0
0
0
0
0
0
0
0
0
0
0
0
0
0
0
0
0
0
0
0
0
0
0
0
0
0
0
0
0
0
0
0
0
0
0
0
0
0
0
0
0
0
0
0
0
0
0
0
0
0
0
0
0
0
0
0
0
0
0
0
0
0
0
0
0
0
0
0
0
0
0
0
0
0
0
0
0
0
0
0
0
1
1
1
1
1
1
1
1
1
1
1
1
1
1
1
1
1
1
1
1
1
1
1
1
1
1
1
1
1
1
1
1
1
1
1
1
1
1
1
1
1
1
1
0.999912
0.998854
0.996818
0.994846
0.987335
0.986297
1
1
1
1
1
1
1
1
1
1
1
1
1
1
1
1
1
1
1
1
1
1
1
1
1
1
1
1
1
0.994479
0.98619
0.976677
0.973383
0.974249
0.976697
0.98419
0.994222
1
1
1
1
1
1
1
1
1
1
1
1
1
1
1
1
1
1
1
1
1
1
0.996999
0.432398
0.160024
0.0684055
0.0380579
0.0277691
0.0158893
0.0152922
0.0327117
0.0739355
0.139775
0.295492
0.43056
0.480755
0.441086
0.247189
0.0960652
0.014624
2.25019e-05
1.16265e-08
2.58071e-12
3.53966e-16
4.54227e-20
7.17514e-24
1.13706e-27
2.17702e-31
4.1854e-35
8.52781e-39
1.70245e-42
3.34402e-46
6.5719e-50
1.31878e-53
2.6852e-57
5.4536e-61
1.09324e-64
2.10904e-68
3.89115e-72
7.50974e-76
1.43236e-79
2.80769e-83
5.35449e-87
9.95706e-91
1.77035e-94
3.05925e-98
5.07349e-102
8.48466e-106
1.39626e-109
2.3659e-113
4.01901e-117
6.94438e-121
1.19983e-124
2.08812e-128
3.61561e-132
6.27933e-136
1.07726e-139
1.8571e-143
3.14554e-147
5.36336e-151
8.9842e-155
1.5131e-158
2.51083e-162
4.15515e-166
4.09704e-172
3.93386e-178
3.70844e-184
3.26427e-190
2.77525e-196
2.23618e-202
1.80181e-208
1.46449e-214
1.28003e-220
1.22767e-226
1.3265e-232
1.63592e-238
2.35719e-244
4.02354e-250
6.95741e-256
1.01877e-261
1.28781e-267
1.43619e-273
1.44771e-279
1.33685e-285
1.15185e-291
9.36311e-298
7.30286e-304
5.51917e-310
4.10428e-316
2.61855e-322
0
0
0
0
0
0
0
0
0
0
0
0
0
0
0
0
0
0
0
0
0
0
0
0
0
0
0
0
0
0
0
0
0
0
0
0
0
0
0
0
0
0
0
0
0
0
0
0
0
0
0
0
0
0
0
0
0
0
0
0
0
0
0
0
0
0
0
0
0
0
0
0
0
0
0
0
0
0
0
0
0
0
0
0
0
0
0
0
0
0
0
0
0
0
0
0
0
0
0
0
0
0
0
0
0
0
0
0
0
0
0
0
0
0
0
0
0
0
0
0
0
0
0
0
0
0
0
0
0
0
0
0
0
0
0
0
0
0
0
0
0
0
0
0
0
0
0
0
0
0
0
0
0
0
0
0
0
0
0
0
0
0
0
0
0
0
0
0
0
0
0
0
0
0
0
0
0
0
0
0
0
0
0
0
0
0
0
0
0
0
0
0
0
0
0
0
0
0
0
0
0
0
0
0
1
1
1
1
1
1
1
1
1
1
1
1
1
1
1
1
1
1
1
1
1
1
1
1
1
1
1
1
1
1
1
1
1
1
1
1
1
1
1
1
1
1
1
1
1
1
1
1
1
1
1
1
1
1
1
1
1
1
1
1
1
1
1
1
1
1
1
1
1
1
1
1
1
1
1
1
1
1
1
1
1
1
1
1
1
1
1
1
1
1
1
1
1
1
1
1
1
1
1
1
1
1
1
1
1
1
1
1
1
0.998316
0.992971
0.990555
0.998012
0.999696
0.361222
0.212234
0.23919
0.362875
0.531453
0.984196
1
1
0.998584
1
0.407252
0.10592
0.0103626
7.34223e-06
2.11949e-09
3.20687e-13
3.64845e-17
3.93105e-21
5.41746e-25
7.44093e-29
1.32256e-32
2.45667e-36
4.90036e-40
9.72189e-44
1.89075e-47
3.60824e-51
6.86068e-55
1.30667e-58
2.53638e-62
4.59847e-66
8.87916e-70
1.62602e-73
3.0423e-77
5.60329e-81
1.01857e-84
1.79176e-88
3.08241e-92
5.11504e-96
8.40694e-100
1.3412e-103
2.14511e-107
3.39812e-111
5.47294e-115
8.79557e-119
1.43336e-122
2.32429e-126
3.80917e-130
6.17449e-134
1.00973e-137
1.62875e-141
2.61801e-145
4.22226e-149
6.71334e-153
1.07466e-156
1.69759e-160
2.69506e-164
1.52195e-168
4.89078e-175
1.7835e-181
7.93896e-188
5.00515e-194
4.13786e-200
4.08576e-206
4.32977e-212
4.96618e-218
6.08277e-224
8.16201e-230
1.19687e-235
1.96635e-241
3.61979e-247
6.46982e-253
9.43322e-259
1.14092e-264
1.17631e-270
1.07595e-276
8.9324e-283
6.95464e-289
5.16948e-295
3.76429e-301
2.71898e-307
1.98428e-313
1.47093e-319
0
0
0
0
0
0
0
0
0
0
0
0
0
0
0
0
0
0
0
0
0
0
0
0
0
0
0
0
0
0
0
0
0
0
0
0
0
0
0
0
0
0
0
0
0
0
0
0
0
0
0
0
0
0
0
0
0
0
0
0
0
0
0
0
0
0
0
0
0
0
0
0
0
0
0
0
0
0
0
0
0
0
0
0
0
0
0
0
0
0
0
0
0
0
0
0
0
0
0
0
0
0
0
0
0
0
0
0
0
0
0
0
0
0
0
0
0
0
0
0
0
0
0
0
0
0
0
0
0
0
0
0
0
0
0
0
0
0
0
0
0
0
0
0
0
0
0
0
0
0
0
0
0
0
0
0
0
0
0
0
0
0
0
0
0
0
0
0
0
0
0
0
0
0
0
0
0
0
0
0
0
0
0
0
0
0
0
0
0
0
0
0
0
0
0
0
0
0
0
0
0
0
0
0
1
1
1
1
1
1
1
1
1
1
1
1
1
1
1
1
1
1
1
1
1
1
1
1
1
1
1
1
1
1
1
1
1
1
1
1
1
1
1
1
1
1
1
1
1
1
1
1
1
1
1
1
1
1
1
1
1
1
1
1
1
1
1
1
1
1
1
1
1
1
1
1
1
1
1
1
1
1
1
1
1
1
1
1
1
1
1
1
1
1
1
1
1
1
1
1
1
1
1
1
1
1
1
1
1
1
1
1
1
1
1
1
1
1
0.997352
1
0.997434
1
0.999907
1
1
1
0.999935
1
1
0.343287
0.064558
0.00217498
5.92884e-07
8.37617e-11
8.01027e-15
7.87313e-19
8.35025e-23
1.24924e-26
1.83228e-30
3.23828e-34
5.71544e-38
1.03012e-41
1.85505e-45
3.41972e-49
6.17271e-53
1.14691e-56
2.094e-60
3.54441e-64
6.30854e-68
1.07623e-71
1.92589e-75
3.53697e-79
6.3948e-83
1.15044e-86
2.01336e-90
3.50022e-94
5.89234e-98
9.88752e-102
1.6018e-105
2.61755e-109
4.17617e-113
6.73415e-117
1.06966e-120
1.70058e-124
2.68618e-128
4.20638e-132
6.53876e-136
1.01331e-139
1.54376e-143
2.36805e-147
3.55601e-151
5.38838e-155
8.00273e-159
1.20017e-162
1.74649e-166
1.76642e-172
1.76387e-178
1.65187e-184
1.50904e-190
1.3025e-196
1.11885e-202
9.44132e-209
8.27844e-215
7.54321e-221
7.47323e-227
8.13293e-233
1.01576e-238
1.45633e-244
2.091e-250
2.59264e-256
2.88471e-262
2.90893e-268
2.72604e-274
2.38581e-280
1.99085e-286
1.59202e-292
1.24337e-298
9.53802e-305
7.30298e-311
5.60187e-317
1.97626e-323
0
0
0
0
0
0
0
0
0
0
0
0
0
0
0
0
0
0
0
0
0
0
0
0
0
0
0
0
0
0
0
0
0
0
0
0
0
0
0
0
0
0
0
0
0
0
0
0
0
0
0
0
0
0
0
0
0
0
0
0
0
0
0
0
0
0
0
0
0
0
0
0
0
0
0
0
0
0
0
0
0
0
0
0
0
0
0
0
0
0
0
0
0
0
0
0
0
0
0
0
0
0
0
0
0
0
0
0
0
0
0
0
0
0
0
0
0
0
0
0
0
0
0
0
0
0
0
0
0
0
0
0
0
0
0
0
0
0
0
0
0
0
0
0
0
0
0
0
0
0
0
0
0
0
0
0
0
0
0
0
0
0
0
0
0
0
0
0
0
0
0
0
0
0
0
0
0
0
0
0
0
0
0
0
0
0
0
0
0
0
0
0
0
0
0
0
0
0
0
0
0
0
0
1
1
1
1
1
1
1
1
1
1
1
1
1
1
1
1
1
1
1
1
1
1
1
1
1
1
1
1
1
1
1
1
1
1
1
1
1
1
1
1
1
1
1
1
1
1
1
1
1
1
1
1
1
1
1
1
1
1
1
1
1
1
1
1
1
1
1
1
1
1
1
1
1
1
1
1
1
1
1
1
1
1
1
1
1
1
1
1
1
1
1
1
1
1
1
1
1
1
1
1
1
1
1
1
1
1
1
1
1
1
1
1
1
1
1
1
0.999999
1
1
1
1
1
1
1
1
0.644471
0.154091
0.0207608
1.84074e-05
5.19054e-09
7.6294e-13
8.5891e-17
1.04861e-20
1.06442e-24
1.39537e-28
1.79241e-32
2.80994e-36
4.76703e-40
8.75474e-44
1.62953e-47
3.01161e-51
5.32635e-55
9.47044e-59
1.39897e-62
2.41366e-66
3.90811e-70
7.17481e-74
1.33769e-77
2.55495e-81
4.76814e-85
8.85235e-89
1.61439e-92
2.92942e-96
5.14728e-100
9.08483e-104
1.54731e-107
2.64677e-111
4.43203e-115
7.372e-119
1.21836e-122
1.97973e-126
3.21949e-130
5.10921e-134
8.1434e-138
1.26512e-141
1.96159e-145
2.98147e-149
4.52874e-153
6.7481e-157
1.00867e-160
1.47747e-164
1.61655e-170
1.83113e-176
2.06037e-182
2.38006e-188
2.71651e-194
3.17564e-200
3.7075e-206
4.49804e-212
5.59545e-218
7.40407e-224
1.03764e-229
1.59528e-235
2.32562e-241
2.8544e-247
2.97475e-253
2.75834e-259
2.31663e-265
1.82956e-271
1.37764e-277
1.01871e-283
7.48004e-290
5.57408e-296
4.23456e-302
3.31798e-308
2.67145e-314
2.21835e-320
0
0
0
0
0
0
0
0
0
0
0
0
0
0
0
0
0
0
0
0
0
0
0
0
0
0
0
0
0
0
0
0
0
0
0
0
0
0
0
0
0
0
0
0
0
0
0
0
0
0
0
0
0
0
0
0
0
0
0
0
0
0
0
0
0
0
0
0
0
0
0
0
0
0
0
0
0
0
0
0
0
0
0
0
0
0
0
0
0
0
0
0
0
0
0
0
0
0
0
0
0
0
0
0
0
0
0
0
0
0
0
0
0
0
0
0
0
0
0
0
0
0
0
0
0
0
0
0
0
0
0
0
0
0
0
0
0
0
0
0
0
0
0
0
0
0
0
0
0
0
0
0
0
0
0
0
0
0
0
0
0
0
0
0
0
0
0
0
0
0
0
0
0
0
0
0
0
0
0
0
0
0
0
0
0
0
0
0
0
0
0
0
0
0
0
0
0
0
0
0
0
0
0
1
1
1
1
1
1
1
1
1
1
1
1
1
1
1
1
1
1
1
1
1
1
1
1
1
1
1
1
1
1
1
1
1
1
1
1
1
1
1
1
1
1
1
1
1
1
1
1
1
1
1
1
1
1
1
1
1
1
1
1
1
1
1
1
1
1
1
1
1
1
1
1
1
1
1
1
1
1
1
1
1
1
1
1
1
1
1
1
1
1
1
1
1
1
1
1
1
1
1
1
1
1
1
1
1
1
1
1
1
1
1
1
1
1
1
1
1
1
1
1
1
1
1
1
1
1
0.277086
0.048847
0.00134741
2.28991e-07
2.31159e-11
1.95217e-15
2.10819e-19
2.84098e-23
5.01027e-27
7.73581e-31
1.27424e-34
2.07385e-38
3.45735e-42
6.01233e-46
1.0339e-49
1.84674e-53
3.18787e-57
5.75595e-61
9.50659e-65
1.64229e-68
3.64162e-72
7.56815e-76
1.76325e-79
3.56744e-83
7.34933e-87
1.35043e-90
2.4787e-94
4.13688e-98
7.06189e-102
1.10134e-105
1.79589e-109
2.75118e-113
4.36052e-117
6.61448e-121
1.02174e-124
1.52302e-128
2.2741e-132
3.30178e-136
4.78611e-140
6.84925e-144
9.71317e-148
1.37584e-151
1.90208e-155
2.65375e-159
3.61265e-163
4.76113e-167
4.55313e-173
3.96114e-179
3.28897e-185
2.55247e-191
1.961e-197
1.47758e-203
1.15762e-209
9.48711e-216
8.65715e-222
8.26069e-228
7.74168e-234
6.8802e-240
5.96642e-246
4.98316e-252
4.05804e-258
3.19173e-264
2.46164e-270
1.85741e-276
1.39218e-282
1.03416e-288
7.69787e-295
5.72299e-301
4.29036e-307
3.23871e-313
2.48317e-319
0
0
0
0
0
0
0
0
0
0
0
0
0
0
0
0
0
0
0
0
0
0
0
0
0
0
0
0
0
0
0
0
0
0
0
0
0
0
0
0
0
0
0
0
0
0
0
0
0
0
0
0
0
0
0
0
0
0
0
0
0
0
0
0
0
0
0
0
0
0
0
0
0
0
0
0
0
0
0
0
0
0
0
0
0
0
0
0
0
0
0
0
0
0
0
0
0
0
0
0
0
0
0
0
0
0
0
0
0
0
0
0
0
0
0
0
0
0
0
0
0
0
0
0
0
0
0
0
0
0
0
0
0
0
0
0
0
0
0
0
0
0
0
0
0
0
0
0
0
0
0
0
0
0
0
0
0
0
0
0
0
0
0
0
0
0
0
0
0
0
0
0
0
0
0
0
0
0
0
0
0
0
0
0
0
0
0
0
0
0
0
0
0
0
0
0
0
0
0
0
0
0
0
1
1
1
1
1
1
1
1
1
1
1
1
1
1
1
1
1
1
1
1
1
1
1
1
1
1
1
1
1
1
1
1
1
1
1
1
1
1
1
1
1
1
1
1
1
1
1
1
1
1
1
1
1
1
1
1
1
1
1
1
1
1
1
1
1
1
1
1
1
1
1
1
1
1
1
1
1
1
1
1
1
1
1
1
1
1
1
1
1
1
1
1
1
1
1
1
1
1
1
1
1
1
1
1
1
1
1
1
1
1
1
1
1
1
1
1
1
1
1
1
1
1
1
1
1
1
0.347414
0.0729291
0.00203516
4.10367e-07
7.32004e-11
1.65016e-14
5.00706e-18
1.37812e-21
3.62561e-25
8.17873e-29
1.75434e-32
3.49962e-36
6.82387e-40
1.30147e-43
2.48835e-47
4.76469e-51
8.76401e-55
1.63359e-58
2.95482e-62
5.10328e-66
8.98131e-70
1.5074e-73
2.57132e-77
4.23995e-81
6.99909e-85
1.11713e-88
1.77433e-92
2.71026e-96
4.1455e-100
6.12635e-104
9.09126e-108
1.31895e-111
1.91682e-115
2.73745e-119
3.9135e-123
5.48061e-127
7.70403e-131
1.05392e-134
1.45081e-138
1.94333e-142
2.5902e-146
3.41988e-150
4.41334e-154
5.70425e-158
7.1837e-162
9.04572e-166
7.63108e-172
6.22351e-178
5.03038e-184
3.86219e-190
2.89819e-196
2.05763e-202
1.42443e-208
9.38474e-215
6.05002e-221
3.74786e-227
2.28579e-233
1.35496e-239
7.97564e-246
4.62496e-252
2.69577e-258
1.5739e-264
9.37991e-271
5.69763e-277
3.57964e-283
2.31606e-289
1.55412e-295
1.07227e-301
7.61993e-308
5.5279e-314
4.08938e-320
0
0
0
0
0
0
0
0
0
0
0
0
0
0
0
0
0
0
0
0
0
0
0
0
0
0
0
0
0
0
0
0
0
0
0
0
0
0
0
0
0
0
0
0
0
0
0
0
0
0
0
0
0
0
0
0
0
0
0
0
0
0
0
0
0
0
0
0
0
0
0
0
0
0
0
0
0
0
0
0
0
0
0
0
0
0
0
0
0
0
0
0
0
0
0
0
0
0
0
0
0
0
0
0
0
0
0
0
0
0
0
0
0
0
0
0
0
0
0
0
0
0
0
0
0
0
0
0
0
0
0
0
0
0
0
0
0
0
0
0
0
0
0
0
0
0
0
0
0
0
0
0
0
0
0
0
0
0
0
0
0
0
0
0
0
0
0
0
0
0
0
0
0
0
0
0
0
0
0
0
0
0
0
0
0
0
0
0
0
0
0
0
0
0
0
0
0
0
0
0
0
0
0
1
1
1
1
1
1
1
1
1
0.180556
0.0116541
0.000105105
9.65325e-07
1.77863e-08
0.000232956
0.00348117
0.0289175
0.0999013
0.30748
1
1
1
1
1
1
1
1
1
1
1
1
0.40157
0.22845
0.143818
0.106601
0.0734386
0.0296514
0.00439805
0.000257277
3.5382e-05
1.87181e-06
7.5672e-08
1.2729e-09
2.13378e-11
0.00246515
0.0728443
0.31674
1
1
1
1
1
1
1
1
1
1
1
1
0.28996
0.16758
0.139713
0.144121
0.128396
0.0935838
0.0639715
0.018491
0.000925327
5.80854e-05
6.85593e-07
4.396e-09
2.75509e-11
1.78598e-13
1.12979e-15
5.06837e-05
0.0071248
0.143895
1
1
1
1
1
1
1
1
1
1
0.178538
0.0644645
0.0500812
0.0305594
0.00952988
0.00127771
0.000152732
1.16075e-05
3.33363e-07
5.03544e-09
5.71287e-11
1.07249e-13
1.55501e-16
2.68066e-19
5.59976e-22
1.23614e-24
2.739e-27
5.27849e-33
1.96141e-31
7.25887e-30
4.61575e-29
1.04681e-28
1.24605e-28
3.78205e-29
1.79236e-29
1.09066e-29
4.23925e-30
1.09964e-30
2.2067e-32
4.67058e-35
1.16333e-37
7.31015e-41
2.68475e-44
6.17236e-48
5.20366e-52
4.88964e-56
5.15921e-60
6.06592e-64
7.97992e-68
1.14604e-71
1.75908e-75
2.81734e-79
4.66598e-83
7.77751e-87
1.31407e-90
2.22367e-94
3.7198e-98
8.7844e-115
3.1748e-116
1.4328e-119
4.77582e-123
1.71397e-126
5.67016e-130
1.40104e-133
2.71514e-137
4.51048e-141
6.8168e-145
9.09071e-149
1.2725e-152
1.71247e-156
2.33806e-160
3.21603e-164
2.46165e-168
7.03434e-175
4.55405e-181
5.51752e-186
6.33172e-191
5.50839e-196
3.48937e-201
1.73528e-206
8.10405e-212
3.79494e-217
1.84059e-222
4.42217e-228
5.61799e-234
5.27644e-240
5.17344e-246
4.75134e-269