/*--------------------------------*- C++ -*----------------------------------*\
| =========                 |                                                 |
| \\      /  F ield         | OpenFOAM: The Open Source CFD Toolbox           |
|  \\    /   O peration     | Version:  2.1.1                                 |
|   \\  /    A nd           | Web:      www.OpenFOAM.org                      |
|    \\/     M anipulation  |                                                 |
\*---------------------------------------------------------------------------*/
FoamFile
{
    version     2.0;
    format      ascii;
    class       volScalarField;
    location    "0.002450000";
    object      HO2;
}
// * * * * * * * * * * * * * * * * * * * * * * * * * * * * * * * * * * * * * //

dimensions      [0 0 0 0 0 0 0];

internalField   nonuniform List<scalar> 
12384
(
9.3651e-06
8.87684e-06
7.73328e-06
5.29271e-06
4.72302e-06
4.68791e-06
4.69839e-06
4.65037e-06
4.50382e-06
7.12447e-07
4.34568e-08
3.44847e-10
2.71918e-12
4.33311e-14
6.07023e-10
1.08065e-08
1.09097e-07
3.27178e-07
6.89899e-07
2.56328e-06
2.49703e-06
2.4603e-06
2.49603e-06
2.4901e-06
2.42216e-06
2.35664e-06
2.28816e-06
2.2035e-06
2.17548e-06
2.1388e-06
2.11411e-06
8.25916e-07
4.70504e-07
3.68515e-07
2.40875e-07
1.69484e-07
7.44959e-08
1.05238e-08
1.11364e-09
1.14084e-10
7.59433e-12
1.12078e-13
1.54329e-15
2.68517e-17
1.96997e-08
4.54185e-07
1.44649e-06
4.68466e-06
4.61604e-06
4.61459e-06
4.49098e-06
4.30203e-06
4.14002e-06
4.08018e-06
3.88922e-06
3.78304e-06
3.73119e-06
3.65387e-06
3.71705e-06
1.07615e-06
6.69337e-07
6.94773e-07
6.71693e-07
6.42905e-07
5.58016e-07
3.69637e-07
1.50954e-07
5.12077e-09
1.72825e-10
2.03987e-12
1.96289e-14
9.48962e-17
3.09817e-19
1.75141e-21
7.21225e-10
9.29595e-08
7.01664e-07
2.2845e-07
6.92416e-07
7.64637e-07
1.04199e-06
1.0947e-06
1.10302e-06
8.08831e-07
8.58581e-07
1.14375e-06
1.5276e-06
4.23293e-07
2.00352e-07
1.69695e-07
1.31389e-07
4.82079e-08
8.54705e-09
1.44806e-09
5.27709e-11
1.69643e-12
1.9926e-14
3.54796e-16
8.58538e-19
1.6094e-21
2.19521e-24
2.36996e-27
4.02602e-30
9.20904e-33
1.77064e-38
8.52583e-37
3.80608e-35
1.66877e-34
3.09577e-34
3.66006e-34
2.01595e-34
7.11403e-35
3.01658e-35
1.25715e-35
2.82764e-36
5.27653e-38
1.5524e-40
2.44565e-43
1.87996e-46
6.51648e-50
1.75878e-53
1.69069e-57
1.96721e-61
2.32833e-65
3.02128e-69
3.88963e-73
5.04013e-77
6.18236e-81
7.71144e-85
1.09586e-88
1.62388e-92
2.75737e-96
4.74618e-100
8.10103e-104
2.11955e-120
1.20253e-121
5.67053e-125
1.95075e-128
6.95442e-132
2.24411e-135
5.17139e-139
9.26801e-143
1.39763e-146
1.84271e-150
2.36389e-154
2.91298e-158
3.51466e-162
4.71141e-166
5.88404e-170
4.53332e-174
1.25489e-180
8.39694e-187
7.07307e-192
1.08222e-196
8.03441e-202
5.33752e-207
2.64281e-212
1.24087e-217
5.67735e-223
2.77098e-228
6.51652e-234
8.25927e-240
7.66912e-246
7.59334e-252
5.21432e-275
7.58239e-278
2.96884e-283
8.97888e-289
2.31969e-294
5.37749e-300
1.08459e-305
1.94566e-311
3.13648e-317
4.44659e-323
0
0
0
0
0
0
0
0
0
0
0
0
0
0
0
0
0
0
0
0
0
0
0
0
0
0
0
0
0
0
0
0
0
0
0
0
0
0
0
0
0
0
0
0
0
0
0
0
0
0
0
0
0
0
0
0
0
0
0
0
0
0
0
0
0
0
0
0
0
0
0
0
0
0
0
0
0
0
0
0
0
0
0
0
0
0
0
0
0
0
0
0
0
0
0
0
0
0
0
0
0
0
0
0
0
0
0
0
0
0
0
0
0
0
0
0
0
0
0
0
0
0
0
0
0
0
0
0
0
0
0
0
0
0
0
0
0
0
0
0
0
0
0
0
0
0
0
0
0
0
0
0
0
0
0
0
0
0
0
0
0
0
0
0
0
0
0
0
0
0
0
0
0
0
0
0
0
0
0
0
0
0
0
0
0
0
0
0
0
0
0
0
0
0
0
0
0
0
0
0
9.98624e-06
9.49866e-06
5.2479e-06
2.37578e-06
1.22625e-06
1.45495e-06
1.48798e-06
1.73087e-06
2.45909e-06
2.44726e-07
5.10988e-08
3.33302e-09
1.0865e-10
1.59642e-12
1.654e-08
1.75591e-07
7.92639e-07
2.47847e-06
2.48785e-06
2.39096e-06
2.32699e-06
2.30688e-06
2.32696e-06
2.36312e-06
2.29655e-06
2.2099e-06
2.12409e-06
2.02342e-06
1.94276e-06
1.89646e-06
1.86969e-06
1.8574e-06
1.85664e-06
1.72328e-06
1.61673e-06
1.38709e-06
1.48634e-06
1.77866e-07
2.82336e-08
1.33926e-09
2.62105e-10
2.00038e-11
2.53122e-13
4.14487e-15
3.74351e-07
4.32153e-06
4.63876e-06
4.71313e-06
4.64089e-06
4.60465e-06
4.5031e-06
4.26873e-06
4.14106e-06
4.07988e-06
3.89246e-06
3.68597e-06
3.55766e-06
3.44437e-06
3.33773e-06
3.23068e-06
3.11022e-06
3.2425e-06
2.31533e-06
1.30947e-06
1.009e-06
2.10727e-06
4.38077e-06
5.33763e-07
5.34452e-08
2.10388e-10
1.27166e-12
1.3894e-14
6.52411e-17
2.19493e-19
1.33066e-07
1.64759e-06
4.1664e-06
2.31835e-07
2.07127e-07
2.07491e-07
1.96306e-07
1.95182e-07
2.18219e-07
5.44679e-07
2.44523e-07
1.67604e-07
2.20868e-07
4.83229e-07
5.58132e-07
6.21103e-07
2.03623e-07
2.70872e-08
4.13587e-09
1.67691e-09
9.14225e-10
3.39891e-10
4.54914e-11
2.09341e-13
6.41251e-17
4.13141e-20
1.20653e-22
3.90529e-25
5.17516e-28
1.1778e-30
1.7444e-35
4.29319e-34
1.68062e-32
7.61588e-32
3.85488e-31
7.50048e-31
9.15625e-31
5.24368e-31
2.24878e-31
1.32116e-31
1.99197e-32
5.86181e-34
1.92964e-36
6.30443e-39
4.89134e-42
9.79745e-46
6.55181e-50
3.12213e-55
1.67979e-59
4.23162e-64
1.05567e-68
4.97406e-72
5.18964e-75
9.45043e-79
1.35637e-82
2.4439e-86
4.03431e-90
2.05502e-93
3.01875e-97
4.98896e-101
3.19078e-117
1.02126e-118
4.01796e-122
1.33119e-125
4.68545e-129
1.78078e-132
4.41182e-136
1.01093e-139
1.70293e-143
3.01112e-147
4.41206e-151
3.69337e-155
8.68849e-159
9.28678e-163
1.8687e-166
3.04915e-170
4.93128e-176
2.40489e-180
2.65158e-185
3.52801e-190
2.59599e-195
1.48246e-200
6.93933e-206
2.95546e-211
1.20205e-216
5.69897e-222
1.44688e-227
1.77046e-233
1.34678e-239
8.86873e-246
1.50996e-268
2.30261e-271
8.62037e-277
2.51265e-282
6.44506e-288
1.42319e-293
2.74642e-299
4.68789e-305
7.09188e-311
9.96256e-317
1.28457e-322
0
0
0
0
0
0
0
0
0
0
0
0
0
0
0
0
0
0
0
0
0
0
0
0
0
0
0
0
0
0
0
0
0
0
0
0
0
0
0
0
0
0
0
0
0
0
0
0
0
0
0
0
0
0
0
0
0
0
0
0
0
0
0
0
0
0
0
0
0
0
0
0
0
0
0
0
0
0
0
0
0
0
0
0
0
0
0
0
0
0
0
0
0
0
0
0
0
0
0
0
0
0
0
0
0
0
0
0
0
0
0
0
0
0
0
0
0
0
0
0
0
0
0
0
0
0
0
0
0
0
0
0
0
0
0
0
0
0
0
0
0
0
0
0
0
0
0
0
0
0
0
0
0
0
0
0
0
0
0
0
0
0
0
0
0
0
0
0
0
0
0
0
0
0
0
0
0
0
0
0
0
0
0
0
0
0
0
0
0
0
0
0
0
0
0
0
0
0
0
1.01267e-05
4.29511e-06
1.64552e-06
7.99041e-07
3.7312e-07
2.63605e-07
2.58781e-07
3.45836e-07
4.27633e-07
8.40353e-08
5.9934e-08
3.1442e-08
3.18407e-09
6.20218e-11
7.70729e-08
4.62411e-07
9.27125e-07
2.40441e-06
2.37758e-06
2.5172e-06
2.65963e-06
2.66544e-06
2.52275e-06
2.45253e-06
2.44442e-06
2.41362e-06
2.51084e-06
2.58592e-06
2.38595e-06
2.15698e-06
1.91674e-06
1.82789e-06
1.73135e-06
1.47456e-06
1.07635e-06
7.44943e-07
6.46853e-07
2.13736e-07
1.01196e-07
2.56804e-08
5.83397e-09
1.99077e-10
5.92981e-12
4.65853e-14
3.84255e-07
4.31228e-06
4.61911e-06
4.56363e-06
4.37677e-06
4.35914e-06
4.46638e-06
4.52799e-06
4.52367e-06
4.54271e-06
4.51753e-06
4.30141e-06
4.09775e-06
4.0306e-06
3.8544e-06
3.78782e-06
3.2918e-06
1.34666e-06
2.54951e-07
4.09974e-08
1.01077e-08
1.65128e-08
6.00188e-08
1.2816e-06
1.71615e-06
9.41196e-08
1.28403e-10
6.00743e-13
1.06096e-14
3.49074e-17
4.46145e-07
6.46632e-06
2.26564e-07
2.21258e-07
1.94316e-07
1.74644e-07
8.08817e-07
2.51882e-06
5.219e-06
5.16732e-06
5.09243e-06
2.59755e-06
2.2866e-07
1.16142e-07
1.08309e-07
6.82105e-08
3.32294e-08
2.21415e-09
2.61275e-09
4.26816e-09
6.64584e-10
1.80815e-10
3.57189e-11
1.63907e-11
6.22976e-12
9.79573e-17
7.76271e-21
3.80636e-23
4.54798e-25
7.9989e-28
3.96464e-33
1.46828e-31
1.27841e-29
5.42315e-28
2.771e-27
2.35209e-27
2.74578e-28
3.66028e-29
1.04011e-29
4.49174e-30
8.42242e-31
8.22028e-32
7.56992e-35
1.28744e-37
7.96052e-41
9.93482e-44
4.71858e-46
2.38764e-48
1.51333e-52
7.86037e-58
5.95023e-63
2.61022e-67
1.2437e-71
4.70877e-76
2.94481e-81
6.99818e-86
2.42924e-88
2.281e-90
9.42797e-94
1.66457e-97
2.64601e-114
3.72457e-115
2.87877e-118
1.03047e-121
3.49946e-125
7.79625e-129
1.35278e-132
1.32987e-136
1.51716e-140
1.22502e-144
1.29764e-148
6.72827e-154
1.30072e-156
1.29379e-161
1.54191e-164
1.47831e-168
2.00201e-172
2.03037e-176
1.88631e-181
2.18283e-186
1.41653e-191
8.33296e-197
3.2369e-202
1.62248e-207
4.96774e-213
2.98984e-218
9.91203e-224
1.91347e-229
1.36851e-235
5.82531e-242
4.48302e-265
1.71708e-267
5.60592e-273
1.94196e-278
4.1654e-284
1.06072e-289
1.74234e-295
3.31071e-301
4.30178e-307
6.59729e-313
7.44107e-319
0
0
0
0
0
0
0
0
0
0
0
0
0
0
0
0
0
0
0
0
0
0
0
0
0
0
0
0
0
0
0
0
0
0
0
0
0
0
0
0
0
0
0
0
0
0
0
0
0
0
0
0
0
0
0
0
0
0
0
0
0
0
0
0
0
0
0
0
0
0
0
0
0
0
0
0
0
0
0
0
0
0
0
0
0
0
0
0
0
0
0
0
0
0
0
0
0
0
0
0
0
0
0
0
0
0
0
0
0
0
0
0
0
0
0
0
0
0
0
0
0
0
0
0
0
0
0
0
0
0
0
0
0
0
0
0
0
0
0
0
0
0
0
0
0
0
0
0
0
0
0
0
0
0
0
0
0
0
0
0
0
0
0
0
0
0
0
0
0
0
0
0
0
0
0
0
0
0
0
0
0
0
0
0
0
0
0
0
0
0
0
0
0
0
0
0
0
0
0
5.42263e-06
3.18323e-06
3.15799e-06
2.90309e-06
1.3127e-06
4.7524e-07
5.36027e-07
3.44544e-07
3.73402e-07
2.07431e-07
2.34551e-08
1.7101e-08
1.26275e-08
1.09741e-09
1.02209e-07
2.79371e-07
2.27984e-06
2.40592e-06
2.87425e-06
3.4103e-06
3.97219e-06
4.22738e-06
3.87603e-06
4.29093e-06
5.02698e-06
5.48705e-06
6.2978e-06
6.44763e-06
6.41353e-06
6.26599e-06
6.38339e-06
6.74725e-06
6.46867e-06
5.50391e-06
3.85602e-06
2.47346e-06
1.22763e-06
2.94132e-07
6.40282e-08
1.67481e-08
1.65045e-08
1.44373e-10
7.9936e-12
1.17891e-13
3.82301e-07
4.39192e-06
4.51401e-06
4.492e-06
4.0122e-06
3.77703e-06
3.66608e-06
3.92861e-06
4.11467e-06
4.07153e-06
4.05916e-06
4.15916e-06
4.43127e-06
4.499e-06
4.47807e-06
4.386e-06
4.56914e-06
4.2988e-06
8.25356e-07
4.16071e-08
1.06595e-08
7.59278e-09
1.53535e-08
3.98691e-08
4.65811e-07
9.44347e-07
2.99537e-08
4.05048e-11
7.77084e-13
5.24612e-15
5.21179e-07
5.33628e-06
1.08006e-06
1.01116e-06
1.1043e-06
9.17254e-07
9.90451e-07
3.17237e-07
1.85107e-07
3.85643e-07
9.07952e-07
4.90139e-06
3.34952e-06
7.10025e-07
6.44532e-08
2.52772e-08
1.14535e-08
1.3341e-08
9.99556e-09
6.39839e-09
9.2945e-10
5.9016e-10
1.22367e-10
5.2159e-11
7.69486e-12
1.66223e-11
1.30932e-15
1.91958e-20
1.51998e-22
8.3173e-25
1.43764e-30
2.12489e-28
1.53585e-25
1.73483e-24
8.3179e-25
5.1395e-25
4.61745e-25
7.56879e-25
7.46296e-25
7.73573e-25
1.75374e-25
2.36525e-26
6.48831e-30
4.28543e-33
4.3403e-37
4.97739e-41
1.38436e-44
8.30028e-48
4.51628e-50
5.93053e-52
1.1275e-55
5.31992e-60
1.88152e-64
5.29561e-69
1.51089e-74
1.75842e-79
4.15201e-84
3.59493e-87
2.97864e-91
2.73013e-95
3.52963e-108
9.2529e-109
6.26064e-112
2.46819e-115
9.03549e-119
2.32922e-122
3.03093e-126
2.54983e-130
1.6195e-134
1.07675e-138
5.88608e-143
4.83861e-147
2.67034e-151
2.98281e-155
1.708e-159
2.7387e-163
1.73824e-167
3.11922e-171
2.28355e-175
3.09357e-180
1.37899e-185
7.99629e-191
2.38646e-196
9.50726e-202
2.43759e-207
9.69814e-213
3.15906e-218
5.45583e-224
3.44268e-230
1.88155e-236
2.84832e-258
3.78994e-261
1.24895e-266
2.80788e-272
7.36405e-278
1.3242e-283
2.46522e-289
3.36828e-295
4.89546e-301
5.52166e-307
6.81513e-313
6.81544e-319
0
0
0
0
0
0
0
0
0
0
0
0
0
0
0
0
0
0
0
0
0
0
0
0
0
0
0
0
0
0
0
0
0
0
0
0
0
0
0
0
0
0
0
0
0
0
0
0
0
0
0
0
0
0
0
0
0
0
0
0
0
0
0
0
0
0
0
0
0
0
0
0
0
0
0
0
0
0
0
0
0
0
0
0
0
0
0
0
0
0
0
0
0
0
0
0
0
0
0
0
0
0
0
0
0
0
0
0
0
0
0
0
0
0
0
0
0
0
0
0
0
0
0
0
0
0
0
0
0
0
0
0
0
0
0
0
0
0
0
0
0
0
0
0
0
0
0
0
0
0
0
0
0
0
0
0
0
0
0
0
0
0
0
0
0
0
0
0
0
0
0
0
0
0
0
0
0
0
0
0
0
0
0
0
0
0
0
0
0
0
0
0
0
0
0
0
0
0
4.53579e-06
9.88073e-06
1.53466e-05
1.367e-05
8.45309e-06
6.20135e-06
8.3178e-06
7.37189e-06
5.44903e-06
5.52029e-06
2.853e-06
9.14033e-08
1.651e-08
6.07997e-09
1.01496e-07
9.45443e-07
3.09837e-06
3.1543e-06
5.92696e-06
6.82301e-06
7.02499e-06
6.37954e-06
4.19571e-06
1.69964e-06
7.71624e-07
7.87004e-07
1.06663e-06
2.06868e-06
2.55856e-06
2.40464e-06
1.84783e-06
1.27403e-06
1.88562e-06
2.28238e-06
3.65818e-06
4.51506e-06
3.13968e-06
8.86184e-07
1.32898e-07
3.18443e-08
1.42042e-08
4.69127e-10
6.12729e-12
2.06212e-13
2.43235e-07
5.26828e-06
4.62768e-06
4.45626e-06
4.18561e-06
3.71064e-06
3.43945e-06
3.30245e-06
3.20111e-06
3.17976e-06
3.05372e-06
3.05935e-06
3.12147e-06
3.5308e-06
3.56474e-06
3.70886e-06
3.81254e-06
4.09908e-06
4.57175e-06
1.08972e-06
9.06969e-08
2.07096e-08
4.73174e-09
4.121e-09
6.65663e-08
2.89615e-07
4.53545e-07
5.52529e-09
3.11425e-11
6.62453e-13
5.57051e-07
3.9977e-06
1.53045e-06
5.54086e-06
5.07221e-06
5.46188e-06
3.70067e-07
2.1625e-08
2.75612e-07
1.03584e-06
1.85382e-06
4.8944e-06
4.86793e-06
6.06243e-07
2.79739e-08
7.48818e-09
6.40583e-09
1.3267e-08
1.91049e-08
8.39738e-09
5.94132e-09
1.92321e-09
4.26288e-10
1.49263e-10
3.81431e-11
1.95197e-11
2.32368e-11
6.09439e-16
5.29927e-20
5.16576e-22
5.01679e-27
3.2273e-24
3.26471e-22
3.55927e-22
5.29531e-22
2.3445e-21
5.06089e-21
2.22419e-21
6.74959e-22
1.10905e-21
2.34268e-22
1.25256e-22
2.43436e-25
1.87668e-28
1.39451e-32
7.61735e-37
4.6383e-41
5.30489e-45
1.32929e-48
2.62813e-51
1.93807e-53
1.4138e-55
2.62677e-59
1.60865e-63
7.356e-68
2.22424e-72
4.6783e-77
7.22556e-82
1.07832e-86
2.05406e-91
8.17779e-103
2.87725e-104
2.49947e-108
2.61961e-112
5.74468e-116
4.63508e-119
9.28217e-122
4.24986e-125
4.91086e-129
4.06297e-133
3.09252e-137
2.41033e-141
1.93393e-145
1.80577e-149
1.45824e-153
1.64722e-157
1.50238e-161
1.78355e-165
1.85809e-169
2.48759e-173
1.17516e-178
4.93626e-184
1.42624e-189
4.08886e-195
9.9929e-201
2.78872e-206
8.02139e-212
1.44888e-217
1.05405e-223
6.53046e-230
4.75357e-251
7.05333e-254
1.61769e-259
3.98755e-265
7.23113e-271
1.54551e-276
2.25282e-282
3.3035e-288
3.90711e-294
4.70758e-300
4.74169e-306
5.03166e-312
4.58322e-318
4.94066e-324
0
0
0
0
0
0
0
0
0
0
0
0
0
0
0
0
0
0
0
0
0
0
0
0
0
0
0
0
0
0
0
0
0
0
0
0
0
0
0
0
0
0
0
0
0
0
0
0
0
0
0
0
0
0
0
0
0
0
0
0
0
0
0
0
0
0
0
0
0
0
0
0
0
0
0
0
0
0
0
0
0
0
0
0
0
0
0
0
0
0
0
0
0
0
0
0
0
0
0
0
0
0
0
0
0
0
0
0
0
0
0
0
0
0
0
0
0
0
0
0
0
0
0
0
0
0
0
0
0
0
0
0
0
0
0
0
0
0
0
0
0
0
0
0
0
0
0
0
0
0
0
0
0
0
0
0
0
0
0
0
0
0
0
0
0
0
0
0
0
0
0
0
0
0
0
0
0
0
0
0
0
0
0
0
0
0
0
0
0
0
0
0
0
0
0
0
1.13541e-05
1.74246e-05
1.28661e-05
1.16486e-05
9.75534e-06
6.68306e-06
4.7698e-06
5.97876e-06
8.66785e-06
6.05483e-06
4.40139e-06
1.55728e-06
3.13511e-08
7.56699e-09
1.93778e-07
1.72135e-06
3.99614e-06
6.25608e-06
5.6497e-06
4.30194e-06
1.74442e-06
3.40258e-07
7.75902e-08
4.29783e-08
4.74162e-08
7.33914e-08
1.13001e-07
1.38841e-07
1.48637e-07
1.42414e-07
1.31312e-07
1.85492e-07
4.86257e-07
1.61702e-06
2.6702e-06
3.55929e-06
4.38221e-06
1.52853e-06
2.78841e-07
1.41869e-07
1.00294e-08
9.63958e-09
8.11441e-10
1.23452e-11
1.09652e-07
1.39778e-06
4.5946e-06
4.69497e-06
4.53246e-06
4.47495e-06
4.2035e-06
3.77426e-06
3.31374e-06
2.85018e-06
2.49524e-06
2.42626e-06
2.84866e-06
3.46863e-06
4.25541e-06
4.58686e-06
4.55503e-06
4.53711e-06
4.44658e-06
4.57656e-06
3.52145e-06
1.3787e-06
5.13662e-08
2.25414e-09
1.03226e-08
5.40718e-07
4.03644e-06
1.33454e-07
1.53199e-09
4.82232e-11
1.88725e-07
1.94108e-06
4.85189e-06
5.27444e-06
5.12729e-06
1.28e-06
7.68148e-09
4.85585e-07
9.9531e-07
4.16969e-06
4.90363e-06
4.80992e-06
4.90445e-06
6.35068e-08
2.18746e-09
2.0512e-09
4.65338e-09
1.17656e-08
1.35508e-08
6.80446e-09
3.79423e-09
2.28373e-09
9.35344e-10
2.46489e-10
5.14456e-11
3.45491e-11
4.32363e-11
1.4695e-11
1.67364e-17
9.9545e-20
6.41515e-23
7.40362e-21
6.95248e-20
6.21196e-20
4.23152e-19
4.70496e-18
6.40091e-18
2.71925e-18
4.11446e-18
5.54333e-18
4.01563e-18
6.69167e-19
1.55143e-21
8.3322e-25
2.7478e-29
2.38741e-33
2.44148e-37
2.24853e-41
1.93763e-45
3.3628e-49
3.68764e-52
1.11078e-54
6.23498e-57
1.93843e-59
3.60313e-63
2.39037e-67
8.89887e-72
1.7056e-76
1.86728e-81
1.2392e-86
2.64584e-98
6.53306e-101
1.28369e-104
1.13451e-108
8.20675e-113
1.09687e-116
3.49267e-120
5.37754e-123
1.93902e-125
1.23828e-128
1.93952e-132
2.29531e-136
2.36981e-140
2.77457e-144
2.5429e-148
3.44802e-152
2.98351e-156
4.61347e-160
3.94785e-164
6.82932e-168
5.89144e-172
2.73949e-177
5.53021e-183
1.65564e-188
2.64921e-194
7.41074e-200
1.30235e-205
3.21831e-211
2.3579e-217
1.50913e-223
7.3823e-244
8.40971e-247
1.83815e-252
2.86696e-258
5.46801e-264
8.55289e-270
1.46424e-275
1.77254e-281
2.31409e-287
2.31375e-293
2.45647e-299
2.2215e-305
2.09686e-311
1.75953e-317
1.4822e-323
0
0
0
0
0
0
0
0
0
0
0
0
0
0
0
0
0
0
0
0
0
0
0
0
0
0
0
0
0
0
0
0
0
0
0
0
0
0
0
0
0
0
0
0
0
0
0
0
0
0
0
0
0
0
0
0
0
0
0
0
0
0
0
0
0
0
0
0
0
0
0
0
0
0
0
0
0
0
0
0
0
0
0
0
0
0
0
0
0
0
0
0
0
0
0
0
0
0
0
0
0
0
0
0
0
0
0
0
0
0
0
0
0
0
0
0
0
0
0
0
0
0
0
0
0
0
0
0
0
0
0
0
0
0
0
0
0
0
0
0
0
0
0
0
0
0
0
0
0
0
0
0
0
0
0
0
0
0
0
0
0
0
0
0
0
0
0
0
0
0
0
0
0
0
0
0
0
0
0
0
0
0
0
0
0
0
0
0
0
0
0
0
0
0
0
1.72654e-05
9.86708e-06
7.30926e-06
3.90986e-06
1.04105e-06
2.86657e-07
3.11047e-07
2.46102e-06
5.58862e-06
1.36675e-06
7.10851e-07
8.25444e-07
2.29714e-07
1.50663e-08
4.16927e-07
2.90266e-06
5.37493e-06
3.20082e-06
1.05565e-06
2.8889e-07
6.12875e-08
1.55669e-08
7.06798e-09
5.36878e-09
7.91898e-09
1.01198e-08
1.53066e-08
1.64657e-08
1.17374e-08
1.38143e-08
2.7331e-08
1.1715e-07
1.01676e-06
3.99144e-06
4.42756e-06
4.24755e-06
4.51979e-06
2.19825e-06
6.1525e-07
2.30329e-07
3.81138e-08
6.79449e-08
8.03162e-09
3.03316e-10
8.01396e-08
1.07136e-06
4.60638e-06
4.26259e-06
4.13245e-06
3.36627e-06
3.24438e-06
4.28666e-06
4.1829e-06
2.90146e-06
2.27649e-06
2.66377e-06
4.24822e-06
3.49128e-06
4.96485e-07
8.96044e-08
6.81767e-08
1.06614e-07
1.25265e-06
4.3129e-06
4.63143e-06
4.58178e-06
4.42779e-06
8.42173e-08
2.58265e-09
4.47436e-09
2.35769e-07
6.06867e-07
9.74918e-09
2.97922e-10
5.5782e-09
4.91202e-07
1.46359e-06
1.66748e-06
7.60556e-07
7.31658e-08
7.8356e-08
1.17226e-06
3.95865e-06
4.92916e-06
4.98398e-06
4.83242e-06
4.99179e-06
2.42148e-08
2.06866e-10
6.60431e-10
2.68093e-09
5.63212e-09
3.67388e-09
9.64368e-10
7.083e-10
6.99226e-10
6.84135e-10
3.13901e-10
9.02712e-11
1.48137e-11
3.01432e-11
4.95008e-11
1.95641e-12
4.35355e-17
4.00114e-19
9.69892e-18
7.25036e-18
2.9557e-17
2.4743e-16
2.00975e-15
7.16085e-15
1.63423e-14
3.12387e-14
3.76729e-14
2.04483e-14
4.38766e-15
5.0487e-18
3.33721e-22
1.88836e-26
1.74318e-30
2.57743e-34
4.05522e-38
5.22429e-42
5.65008e-46
9.42584e-50
4.64042e-53
1.13231e-55
3.5293e-58
1.22493e-60
1.79603e-63
3.22349e-67
1.8976e-71
3.89756e-76
1.40485e-81
1.7617e-94
1.87417e-96
2.37295e-100
5.79355e-104
3.99901e-108
6.90192e-113
3.25506e-117
8.06438e-121
1.07621e-123
2.00327e-126
2.92527e-129
1.40434e-132
3.66648e-136
6.6303e-140
1.0041e-143
1.48562e-147
1.92447e-151
2.82918e-155
3.54499e-159
5.25211e-163
6.69124e-167
9.99908e-171
2.19248e-176
4.60546e-182
8.13164e-188
1.54826e-193
2.69004e-199
5.64868e-205
6.06321e-211
3.5174e-217
6.46133e-237
6.22796e-240
9.11563e-246
1.37733e-251
1.93251e-257
3.00071e-263
4.29863e-269
6.39888e-275
7.44769e-281
8.52797e-287
8.22084e-293
7.99926e-299
6.77471e-305
5.91677e-311
4.64294e-317
3.95253e-323
0
0
0
0
0
0
0
0
0
0
0
0
0
0
0
0
0
0
0
0
0
0
0
0
0
0
0
0
0
0
0
0
0
0
0
0
0
0
0
0
0
0
0
0
0
0
0
0
0
0
0
0
0
0
0
0
0
0
0
0
0
0
0
0
0
0
0
0
0
0
0
0
0
0
0
0
0
0
0
0
0
0
0
0
0
0
0
0
0
0
0
0
0
0
0
0
0
0
0
0
0
0
0
0
0
0
0
0
0
0
0
0
0
0
0
0
0
0
0
0
0
0
0
0
0
0
0
0
0
0
0
0
0
0
0
0
0
0
0
0
0
0
0
0
0
0
0
0
0
0
0
0
0
0
0
0
0
0
0
0
0
0
0
0
0
0
0
0
0
0
0
0
0
0
0
0
0
0
0
0
0
0
0
0
0
0
0
0
0
0
0
0
0
0
7.27237e-06
4.04858e-06
2.42968e-06
4.64328e-07
3.4234e-08
1.24996e-08
6.92432e-08
6.11309e-06
2.10504e-06
7.19226e-07
4.5763e-07
3.84492e-07
2.41e-07
6.70203e-09
1.34754e-06
4.35741e-06
2.23751e-06
4.82516e-07
1.20882e-07
2.90817e-08
8.21131e-09
3.17056e-09
1.84935e-09
1.89019e-09
1.86631e-09
2.42255e-09
2.12521e-09
1.73473e-09
1.80102e-09
6.32656e-09
4.47467e-08
2.80142e-06
3.89309e-06
3.1291e-06
3.8921e-06
4.39495e-06
3.62257e-06
1.41205e-06
4.5867e-07
2.47872e-07
2.58356e-07
4.44588e-07
2.30102e-08
1.11188e-09
4.65683e-08
8.13863e-07
4.28453e-06
3.31645e-06
2.20086e-06
1.19127e-06
8.35977e-07
1.444e-06
4.52077e-06
2.86064e-06
2.2323e-06
3.55537e-06
2.91803e-06
1.25646e-07
2.12152e-08
6.85915e-09
4.43425e-09
4.481e-09
9.55791e-09
4.22637e-08
1.46133e-06
4.63218e-06
4.57866e-06
4.22798e-06
4.41247e-08
1.67448e-09
1.99479e-08
4.58149e-06
9.8921e-08
5.10578e-09
2.55529e-12
1.74168e-09
1.44973e-07
1.13031e-07
1.27806e-08
3.53602e-09
2.21061e-07
5.3749e-06
5.11522e-06
4.89791e-06
4.84221e-06
4.81397e-06
4.7565e-06
6.51695e-09
2.72938e-11
1.33751e-10
6.9031e-10
4.40625e-10
1.63848e-10
3.78462e-11
3.6609e-11
3.70578e-11
7.45441e-11
1.32557e-10
1.09503e-10
2.14439e-11
7.12873e-12
7.89855e-11
4.11771e-10
9.28262e-14
5.45248e-15
5.3954e-15
1.38346e-14
6.50741e-14
1.96881e-13
1.00498e-12
2.40255e-12
2.72231e-12
2.93544e-12
1.13934e-12
3.03039e-13
3.35383e-14
1.38963e-16
4.48825e-20
5.44486e-24
6.42393e-28
1.0879e-31
2.29675e-35
5.41432e-39
8.79949e-43
1.09007e-46
1.92857e-50
8.92446e-54
1.22112e-56
2.71067e-59
5.34202e-62
1.07082e-64
1.36906e-67
9.09131e-72
2.54054e-77
1.87341e-90
9.19504e-93
9.38692e-97
4.10041e-100
5.64596e-104
7.05475e-109
1.24429e-113
7.72829e-118
2.72836e-121
2.97838e-124
2.67112e-127
1.86629e-130
7.75806e-134
3.24912e-137
1.30948e-140
3.20042e-144
8.65411e-148
1.51319e-151
3.37834e-155
5.28487e-159
9.67088e-163
1.50022e-166
2.43258e-170
4.37726e-176
7.47841e-182
1.17356e-187
1.81477e-193
3.01676e-199
3.40326e-205
2.55953e-211
8.65048e-231
6.43925e-234
7.25525e-240
9.90406e-246
1.25166e-251
1.7087e-257
2.31158e-263
3.23914e-269
4.3037e-275
5.07026e-281
5.35646e-287
5.15527e-293
4.5989e-299
3.85958e-305
3.10139e-311
2.40382e-317
1.97626e-323
0
0
0
0
0
0
0
0
0
0
0
0
0
0
0
0
0
0
0
0
0
0
0
0
0
0
0
0
0
0
0
0
0
0
0
0
0
0
0
0
0
0
0
0
0
0
0
0
0
0
0
0
0
0
0
0
0
0
0
0
0
0
0
0
0
0
0
0
0
0
0
0
0
0
0
0
0
0
0
0
0
0
0
0
0
0
0
0
0
0
0
0
0
0
0
0
0
0
0
0
0
0
0
0
0
0
0
0
0
0
0
0
0
0
0
0
0
0
0
0
0
0
0
0
0
0
0
0
0
0
0
0
0
0
0
0
0
0
0
0
0
0
0
0
0
0
0
0
0
0
0
0
0
0
0
0
0
0
0
0
0
0
0
0
0
0
0
0
0
0
0
0
0
0
0
0
0
0
0
0
0
0
0
0
0
0
0
0
0
0
0
0
0
1.84271e-06
1.16114e-06
4.34182e-07
2.89889e-08
2.29387e-09
3.03629e-09
1.25258e-07
5.9181e-06
2.48017e-06
2.89766e-06
3.22116e-06
1.98498e-06
7.44181e-07
4.60177e-07
1.67046e-06
1.7225e-06
2.34232e-06
3.90765e-06
5.62651e-07
1.61294e-07
4.21024e-08
1.34914e-08
5.10649e-09
2.43513e-09
1.72081e-09
7.61544e-10
6.78573e-10
6.35729e-10
4.85659e-10
4.08443e-10
1.60169e-09
2.56702e-08
4.46173e-06
2.1629e-06
1.31355e-06
1.72683e-06
2.84118e-06
3.3256e-06
2.32224e-06
1.16662e-06
7.25531e-07
6.97618e-07
8.73389e-07
1.22291e-06
2.04763e-08
2.4101e-09
1.09681e-09
1.86105e-09
3.29321e-08
6.29825e-07
3.4934e-06
1.48305e-06
1.43605e-06
1.0585e-06
6.94104e-07
1.10738e-06
4.51813e-06
2.56093e-06
2.2192e-06
3.6857e-06
2.91891e-06
2.56496e-07
5.76067e-08
2.62056e-08
1.17476e-08
6.09136e-09
3.047e-09
3.22487e-09
1.13558e-08
1.1922e-07
3.14633e-06
4.64562e-06
2.24512e-06
8.13268e-09
2.61281e-09
1.79577e-06
3.55648e-07
2.07437e-07
3.06579e-08
1.05135e-09
5.39382e-11
6.70758e-10
1.00309e-09
9.10707e-10
2.29095e-09
5.52615e-08
1.34804e-06
3.28499e-06
4.94129e-06
4.90865e-06
5.06523e-06
5.12511e-06
2.47916e-06
9.31976e-10
6.7322e-12
1.23992e-11
2.70944e-11
1.26161e-11
5.09925e-12
2.98918e-12
2.854e-12
3.58326e-12
4.00537e-12
1.29588e-11
3.47629e-11
3.60726e-11
7.89325e-12
5.89134e-12
3.99954e-10
7.32825e-10
1.00449e-11
2.01893e-12
1.49045e-12
1.13359e-12
1.7997e-12
9.19286e-12
1.86786e-11
9.32252e-12
6.52636e-12
4.00647e-12
8.87275e-12
3.21812e-12
1.30954e-12
1.46743e-13
2.96743e-15
3.83881e-18
1.48023e-21
2.80914e-25
4.98233e-29
1.1261e-32
2.84998e-36
6.74275e-40
1.10197e-43
2.01366e-47
3.48432e-51
1.15137e-54
9.96448e-58
1.59109e-60
2.87946e-63
5.42898e-66
1.89991e-68
1.04253e-72
1.36448e-77
1.10961e-81
5.20984e-87
6.76903e-91
2.17784e-93
2.96501e-96
6.80758e-101
1.11885e-105
2.46186e-110
1.29797e-114
1.76164e-118
6.64546e-122
6.16911e-125
3.37991e-128
1.32874e-131
4.3762e-135
1.43283e-138
3.7908e-142
9.76141e-146
2.35476e-149
5.81562e-153
1.08616e-156
2.2904e-160
4.24065e-164
1.06841e-167
1.77559e-171
3.29383e-177
4.21897e-183
9.2418e-189
1.37458e-194
2.60587e-200
4.12838e-206
1.62766e-212
3.60601e-219
1.45954e-225
5.74885e-232
9.16591e-238
1.14956e-243
3.69384e-249
5.95916e-255
1.84923e-260
4.06451e-266
1.05895e-271
1.64841e-277
2.61494e-283
2.97773e-289
3.46267e-295
3.22488e-301
3.06677e-307
2.51635e-313
2.11742e-319
0
0
0
0
0
0
0
0
0
0
0
0
0
0
0
0
0
0
0
0
0
0
0
0
0
0
0
0
0
0
0
0
0
0
0
0
0
0
0
0
0
0
0
0
0
0
0
0
0
0
0
0
0
0
0
0
0
0
0
0
0
0
0
0
0
0
0
0
0
0
0
0
0
0
0
0
0
0
0
0
0
0
0
0
0
0
0
0
0
0
0
0
0
0
0
0
0
0
0
0
0
0
0
0
0
0
0
0
0
0
0
0
0
0
0
0
0
0
0
0
0
0
0
0
0
0
0
0
0
0
0
0
0
0
0
0
0
0
0
0
0
0
0
0
0
0
0
0
0
0
0
0
0
0
0
0
0
0
0
0
0
0
0
0
0
0
0
0
0
0
0
0
0
0
0
0
0
0
0
0
0
0
0
0
0
0
0
0
0
0
0
0
0
0
0
0
0
0
0
0
0
0
0
0
0
0
0
2.66779e-07
2.34393e-07
5.48527e-08
2.78097e-09
4.81502e-10
1.91205e-09
2.00982e-07
7.07922e-06
5.65602e-06
6.99658e-06
6.13894e-06
5.17626e-06
3.44475e-06
3.15993e-06
3.0048e-06
2.84132e-06
4.98568e-06
1.2712e-06
5.10208e-07
1.88805e-07
7.41448e-08
3.19376e-08
1.3211e-08
4.06096e-09
9.64817e-10
4.92261e-10
3.03432e-10
2.00616e-10
1.85096e-10
5.24917e-10
8.62806e-09
3.87247e-06
1.87376e-06
8.29085e-07
8.47973e-07
1.26528e-06
1.71445e-06
1.65154e-06
1.1988e-06
9.26697e-07
9.01468e-07
1.021e-06
1.29858e-06
2.3076e-06
9.23591e-08
1.08306e-07
8.49485e-08
5.68328e-08
6.9551e-08
1.97106e-07
4.1078e-07
5.60591e-07
1.47978e-06
1.20072e-06
1.01767e-06
1.11501e-06
4.35453e-06
2.77885e-06
2.19892e-06
2.94482e-06
4.19744e-06
4.49355e-06
3.78674e-06
3.08622e-06
2.51697e-06
1.49352e-06
1.88787e-07
1.02171e-08
3.01572e-09
4.76872e-09
3.09385e-08
1.32456e-06
4.36249e-06
6.36721e-07
3.51255e-09
2.01782e-08
4.66944e-06
7.63421e-07
3.75139e-07
6.06315e-08
2.17711e-08
6.48185e-08
9.29158e-08
6.82337e-08
1.07586e-07
4.09116e-07
2.36017e-06
4.85284e-06
2.65919e-06
8.27481e-07
4.35915e-07
2.25842e-07
5.39491e-08
8.75262e-10
4.95466e-12
2.60982e-12
1.90045e-12
1.79458e-12
1.76341e-12
1.96467e-12
2.24973e-12
2.13936e-12
2.21944e-12
2.39362e-12
4.1606e-12
1.25867e-11
1.33337e-11
4.05936e-12
1.29764e-11
6.33397e-10
9.38481e-10
2.32044e-10
2.77955e-10
1.37029e-10
1.52439e-11
4.60683e-12
3.76019e-12
4.25627e-12
4.04467e-12
2.64781e-12
1.15619e-12
5.03064e-13
4.87527e-13
9.16834e-13
3.78853e-13
9.33109e-16
6.50187e-19
2.48641e-22
5.38891e-26
8.85045e-30
2.046e-33
3.77387e-37
7.32226e-41
1.25884e-44
2.5301e-48
5.02415e-52
1.6218e-55
9.44942e-59
8.60636e-62
1.05609e-64
1.23532e-67
5.67766e-70
4.98501e-73
2.83781e-77
2.22882e-81
2.38141e-85
2.19852e-89
6.31326e-94
1.89725e-98
6.75671e-103
2.73199e-107
1.58584e-111
1.87017e-115
4.6474e-119
1.81744e-122
5.8202e-126
2.4302e-129
7.44583e-133
2.18699e-136
5.30865e-140
1.5642e-143
3.28094e-147
7.56825e-151
1.54199e-154
3.88899e-158
6.87692e-162
1.51798e-165
2.53887e-169
7.1359e-173
7.38916e-179
1.16576e-184
1.16172e-190
2.07748e-196
2.11119e-202
1.8328e-208
7.12556e-215
3.22435e-221
1.66454e-227
2.05352e-233
2.21569e-239
3.58682e-245
5.18696e-251
1.28252e-256
2.28281e-262
5.52511e-268
7.48544e-274
1.15257e-279
1.18634e-285
1.36729e-291
1.17789e-297
1.12509e-303
8.66808e-310
7.38114e-316
5.38532e-322
0
0
0
0
0
0
0
0
0
0
0
0
0
0
0
0
0
0
0
0
0
0
0
0
0
0
0
0
0
0
0
0
0
0
0
0
0
0
0
0
0
0
0
0
0
0
0
0
0
0
0
0
0
0
0
0
0
0
0
0
0
0
0
0
0
0
0
0
0
0
0
0
0
0
0
0
0
0
0
0
0
0
0
0
0
0
0
0
0
0
0
0
0
0
0
0
0
0
0
0
0
0
0
0
0
0
0
0
0
0
0
0
0
0
0
0
0
0
0
0
0
0
0
0
0
0
0
0
0
0
0
0
0
0
0
0
0
0
0
0
0
0
0
0
0
0
0
0
0
0
0
0
0
0
0
0
0
0
0
0
0
0
0
0
0
0
0
0
0
0
0
0
0
0
0
0
0
0
0
0
0
0
0
0
0
0
0
0
0
0
0
0
0
0
0
0
0
0
0
0
0
0
0
0
0
0
2.67678e-08
3.8204e-08
6.88049e-09
5.7823e-10
2.61316e-10
1.4095e-09
6.83026e-08
5.8214e-06
8.51489e-06
8.63397e-06
7.45605e-06
6.62649e-06
6.39746e-06
6.40338e-06
6.16128e-06
5.96621e-06
4.10193e-06
2.63249e-06
2.24681e-06
1.33519e-06
5.76971e-07
1.67036e-07
3.02118e-08
3.45009e-09
6.77814e-10
2.58659e-10
1.41813e-10
1.3392e-10
1.64218e-10
2.0587e-09
1.04528e-07
3.50789e-06
9.85956e-07
6.54662e-07
7.37903e-07
9.5365e-07
1.02169e-06
9.83756e-07
9.48821e-07
9.64893e-07
1.027e-06
1.22788e-06
1.6559e-06
2.21632e-06
2.6356e-06
3.38352e-06
3.62751e-06
3.93855e-06
4.3648e-06
4.33243e-06
4.09924e-06
3.03429e-06
1.49757e-06
1.20975e-06
1.20328e-06
1.02298e-06
1.30623e-06
4.27904e-06
3.92163e-06
3.84528e-06
4.52744e-06
3.00291e-06
1.108e-06
9.99179e-07
1.73267e-06
3.04206e-06
2.69682e-06
8.70916e-07
3.6195e-08
3.65026e-09
3.59294e-09
3.49534e-08
1.95853e-06
3.23292e-06
6.79982e-08
6.92594e-09
5.10324e-08
4.8403e-06
2.05556e-06
5.81276e-07
8.19033e-08
1.19564e-07
4.02895e-07
1.01057e-06
1.07773e-06
1.05954e-06
2.69378e-06
4.88624e-06
5.40951e-07
4.83561e-08
1.62017e-08
1.13288e-08
8.09044e-09
2.29586e-09
7.95402e-11
7.35891e-12
3.63506e-12
3.70009e-12
6.53363e-12
9.87754e-12
1.12674e-11
8.68196e-12
4.21579e-12
2.88049e-12
2.21384e-12
3.39739e-12
7.01024e-12
6.32895e-12
1.27544e-12
6.76021e-12
3.95574e-11
3.41674e-11
2.27188e-11
1.48971e-11
5.2534e-12
2.19186e-12
1.59036e-12
5.92381e-13
5.21553e-13
3.97202e-13
5.41728e-13
5.85132e-13
6.42025e-13
7.6882e-13
6.00116e-13
3.39597e-13
4.97021e-16
2.39695e-19
5.94064e-23
9.21917e-27
1.20384e-30
1.98127e-34
2.74586e-38
5.19707e-42
8.50347e-46
1.79493e-49
3.49316e-53
9.74141e-57
3.58221e-60
2.23286e-63
1.76448e-66
1.38957e-69
7.90278e-73
3.25685e-76
6.82908e-80
7.68781e-84
7.24472e-88
5.5552e-92
3.88306e-96
2.65491e-100
1.85869e-104
1.43365e-108
1.55147e-112
2.79608e-116
5.71181e-120
1.81214e-123
4.26838e-127
1.20504e-130
2.86706e-134
6.25255e-138
1.34661e-141
3.04365e-145
6.24697e-149
1.22462e-152
2.28825e-156
4.24477e-160
7.61963e-164
1.39576e-167
3.30702e-171
5.96016e-175
6.56452e-181
6.54583e-187
7.19839e-193
6.77396e-199
5.01878e-205
3.33646e-211
1.84118e-217
1.0755e-223
1.0203e-229
9.74105e-236
1.33705e-241
1.59807e-247
2.73991e-253
4.5349e-259
8.88363e-265
1.26112e-270
1.74342e-276
1.8924e-282
2.03299e-288
1.83644e-294
1.65653e-300
1.32281e-306
1.06734e-312
7.95461e-319
0
0
0
0
0
0
0
0
0
0
0
0
0
0
0
0
0
0
0
0
0
0
0
0
0
0
0
0
0
0
0
0
0
0
0
0
0
0
0
0
0
0
0
0
0
0
0
0
0
0
0
0
0
0
0
0
0
0
0
0
0
0
0
0
0
0
0
0
0
0
0
0
0
0
0
0
0
0
0
0
0
0
0
0
0
0
0
0
0
0
0
0
0
0
0
0
0
0
0
0
0
0
0
0
0
0
0
0
0
0
0
0
0
0
0
0
0
0
0
0
0
0
0
0
0
0
0
0
0
0
0
0
0
0
0
0
0
0
0
0
0
0
0
0
0
0
0
0
0
0
0
0
0
0
0
0
0
0
0
0
0
0
0
0
0
0
0
0
0
0
0
0
0
0
0
0
0
0
0
0
0
0
0
0
0
0
0
0
0
0
0
0
0
0
0
0
0
0
0
0
0
0
0
0
0
0
2.84346e-09
4.13019e-09
1.24428e-09
2.65953e-10
1.95039e-10
5.68551e-10
1.81416e-08
1.41481e-06
8.8e-06
9.25301e-06
8.86166e-06
8.06662e-06
7.32541e-06
7.0025e-06
6.99324e-06
6.7098e-06
7.09574e-06
7.94047e-06
8.09174e-06
7.48541e-06
3.09395e-06
2.13915e-07
1.23653e-08
1.20759e-09
3.10097e-10
1.41082e-10
1.19941e-10
1.30608e-10
3.92376e-10
6.3147e-09
2.25552e-06
2.34635e-06
7.43902e-07
5.58673e-07
6.2123e-07
7.41625e-07
8.8248e-07
9.6244e-07
1.06048e-06
1.21368e-06
1.28685e-06
1.35928e-06
1.48991e-06