/*--------------------------------*- C++ -*----------------------------------*\
| =========                 |                                                 |
| \\      /  F ield         | OpenFOAM: The Open Source CFD Toolbox           |
|  \\    /   O peration     | Version:  2.1.1                                 |
|   \\  /    A nd           | Web:      www.OpenFOAM.org                      |
|    \\/     M anipulation  |                                                 |
\*---------------------------------------------------------------------------*/
FoamFile
{
    version     2.0;
    format      ascii;
    class       volScalarField;
    location    "0.002450000";
    object      OH;
}
// * * * * * * * * * * * * * * * * * * * * * * * * * * * * * * * * * * * * * //

dimensions      [0 0 0 0 0 0 0];

internalField   nonuniform List<scalar> 
12384
(
0.00877967
0.00847042
0.00658649
0.00380672
0.00319177
0.00341606
0.00311901
0.00264489
0.0027012
0.000392075
2.84401e-05
2.96681e-07
3.41492e-09
7.20705e-11
3.05608e-07
4.62232e-06
4.1933e-05
0.000126797
0.000260681
0.000965815
0.000934722
0.000939882
0.000952907
0.000945148
0.000901647
0.000841343
0.000806837
0.000747702
0.00074103
0.000725926
0.000728855
0.000277472
0.000154672
0.000122992
8.0928e-05
5.82334e-05
2.58578e-05
3.70135e-06
4.55464e-07
6.5196e-08
8.50096e-09
2.13434e-10
3.65859e-12
6.17269e-14
1.20177e-05
0.000274323
0.00105329
0.00340423
0.0032291
0.00328154
0.00357951
0.00383968
0.00400757
0.00407175
0.00412407
0.00416405
0.00417724
0.00419427
0.00415391
0.00121672
0.000700526
0.000640577
0.000603793
0.00055331
0.000427811
0.000221311
7.34509e-05
1.92552e-06
5.865e-08
8.07989e-10
1.22394e-11
1.15784e-13
6.7393e-16
4.09328e-18
2.62323e-07
3.51848e-05
0.000735776
0.0015667
0.00207924
0.00218545
0.00248133
0.00254565
0.00257875
0.00223348
0.00241656
0.00273245
0.00351963
0.000711754
0.0003144
0.000232434
0.000166904
4.06506e-05
5.72209e-06
8.49087e-07
2.17191e-08
5.34695e-10
5.83201e-12
1.00776e-13
3.06501e-16
8.69082e-19
2.15914e-21
4.01672e-24
8.17887e-27
1.81912e-29
2.48045e-35
9.15959e-34
3.16303e-32
1.0734e-31
1.67141e-31
1.90626e-31
1.01823e-31
3.553e-32
1.49447e-32
5.70435e-33
1.35659e-33
2.17809e-35
6.63658e-38
8.97124e-41
6.92641e-44
2.35061e-47
6.79733e-51
7.2349e-55
9.60899e-59
1.33387e-62
2.10005e-66
3.35043e-70
5.45089e-74
8.54804e-78
1.33179e-81
2.13843e-85
3.54357e-89
5.9997e-93
1.02247e-96
1.7349e-100
3.47821e-117
1.64626e-118
7.41984e-122
2.51612e-125
8.90768e-129
2.98998e-132
7.35323e-136
1.42487e-139
2.3645e-143
3.56771e-147
4.99659e-151
6.56332e-155
8.77941e-159
1.18354e-162
1.59314e-166
1.22619e-170
3.44972e-177
2.33592e-183
2.00199e-188
2.9926e-193
2.40121e-198
1.49372e-203
7.73389e-209
3.55145e-214
1.6492e-219
8.0235e-225
1.90488e-230
2.39975e-236
2.25532e-242
2.24148e-248
1.65933e-271
2.29245e-274
9.03248e-280
2.7047e-285
7.04293e-291
1.62633e-296
3.28838e-302
5.90613e-308
9.50731e-314
1.40102e-319
0
0
0
0
0
0
0
0
0
0
0
0
0
0
0
0
0
0
0
0
0
0
0
0
0
0
0
0
0
0
0
0
0
0
0
0
0
0
0
0
0
0
0
0
0
0
0
0
0
0
0
0
0
0
0
0
0
0
0
0
0
0
0
0
0
0
0
0
0
0
0
0
0
0
0
0
0
0
0
0
0
0
0
0
0
0
0
0
0
0
0
0
0
0
0
0
0
0
0
0
0
0
0
0
0
0
0
0
0
0
0
0
0
0
0
0
0
0
0
0
0
0
0
0
0
0
0
0
0
0
0
0
0
0
0
0
0
0
0
0
0
0
0
0
0
0
0
0
0
0
0
0
0
0
0
0
0
0
0
0
0
0
0
0
0
0
0
0
0
0
0
0
0
0
0
0
0
0
0
0
0
0
0
0
0
0
0
0
0
0
0
0
0
0
0
0
0
0
0
0
0.00839311
0.00530868
0.00199901
0.00066019
0.000289627
0.00039794
0.000399182
0.000513589
0.000778858
7.42863e-05
1.63203e-05
1.28372e-06
5.97041e-08
1.54309e-09
6.91223e-06
6.11725e-05
0.000264364
0.00091636
0.000931121
0.000869842
0.000837443
0.000830484
0.0008475
0.000864942
0.000818022
0.000764157
0.000702604
0.000672305
0.000632625
0.000612115
0.000600822
0.000591416
0.000580447
0.000516488
0.00045983
0.000405576
0.000372132
4.77749e-05
7.83541e-06
4.17457e-07
1.25669e-07
1.72943e-08
5.06139e-10
9.72023e-12
0.000216468
0.0025528
0.00304372
0.00313538
0.002966
0.00315028
0.0035481
0.00386812
0.00400424
0.00406848
0.00412529
0.00417092
0.00419712
0.00419656
0.00422451
0.00420641
0.00421868
0.00416531
0.00391062
0.00335167
0.00288933
0.00391219
0.00363515
0.000341656
2.09753e-05
5.90629e-08
4.12192e-10
8.33392e-12
9.04997e-14
5.14278e-16
4.22157e-05
0.000681568
0.00350527
0.00158302
0.00147246
0.00146401
0.0014403
0.00143449
0.00154244
0.00195978
0.00172346
0.00144861
0.0016781
0.00201437
0.00221456
0.00223838
0.0016387
0.000313271
8.63762e-05
4.34488e-05
1.10687e-05
9.38138e-07
2.39976e-08
5.06496e-11
1.01919e-14
6.7673e-18
3.46629e-20
2.40194e-22
7.63464e-25
2.4189e-27
1.33961e-32
1.99347e-31
6.46892e-30
2.49382e-29
1.54822e-28
3.31867e-28
5.43728e-28
4.14322e-28
2.1143e-28
1.97209e-28
3.01489e-29
1.59092e-30
2.90342e-33
7.4511e-36
3.01347e-39
3.71262e-43
1.51722e-47
5.49518e-53
2.54985e-57
6.5078e-62
1.69096e-66
8.95575e-70
1.10598e-72
2.48451e-76
4.77296e-80
1.23798e-83
3.16669e-87
2.64074e-90
5.05155e-94
8.78101e-98
9.30105e-115
2.5239e-116
9.86636e-120
3.25732e-123
1.13248e-126
4.31915e-130
1.12857e-133
2.80251e-137
5.2813e-141
1.07288e-144
1.73558e-148
1.70764e-152
4.43842e-156
5.53644e-160
1.2099e-163
2.2593e-167
3.94222e-173
2.18527e-177
2.58959e-182
3.85272e-187
3.08178e-192
1.92777e-197
9.95307e-203
4.49714e-208
2.04551e-213
9.80122e-219
2.69097e-224
3.21552e-230
2.57896e-236
2.03199e-242
2.08288e-265
2.90728e-268
1.07413e-273
3.3023e-279
8.65218e-285
2.00907e-290
3.99472e-296
6.97663e-302
1.096e-307
1.54681e-313
2.04558e-319
0
0
0
0
0
0
0
0
0
0
0
0
0
0
0
0
0
0
0
0
0
0
0
0
0
0
0
0
0
0
0
0
0
0
0
0
0
0
0
0
0
0
0
0
0
0
0
0
0
0
0
0
0
0
0
0
0
0
0
0
0
0
0
0
0
0
0
0
0
0
0
0
0
0
0
0
0
0
0
0
0
0
0
0
0
0
0
0
0
0
0
0
0
0
0
0
0
0
0
0
0
0
0
0
0
0
0
0
0
0
0
0
0
0
0
0
0
0
0
0
0
0
0
0
0
0
0
0
0
0
0
0
0
0
0
0
0
0
0
0
0
0
0
0
0
0
0
0
0
0
0
0
0
0
0
0
0
0
0
0
0
0
0
0
0
0
0
0
0
0
0
0
0
0
0
0
0
0
0
0
0
0
0
0
0
0
0
0
0
0
0
0
0
0
0
0
0
0
0
0.0058661
0.00139221
0.000386483
0.00015635
6.0401e-05
4.06654e-05
3.97557e-05
5.34325e-05
7.82431e-05
1.16188e-05
9.53156e-06
5.93528e-06
7.42477e-07
2.64893e-08
2.52384e-05
0.000125903
0.000225186
0.000884483
0.000865124
0.000948907
0.00100526
0.00101363
0.000952295
0.000909874
0.000899112
0.000886986
0.000929475
0.000972681
0.000847754
0.000715819
0.00061806
0.000570088
0.000518435
0.000420527
0.000274719
0.000167366
0.000141967
4.03354e-05
2.1521e-05
4.96438e-06
1.47487e-06
7.80408e-08
5.86959e-09
9.65084e-11
0.000211743
0.00246832
0.00291084
0.00271877
0.00239116
0.00252852
0.00288441
0.00330102
0.00348004
0.00347018
0.0035655
0.00383373
0.00402544
0.00408785
0.00413949
0.00414897
0.00418872
0.00344447
0.00193958
0.000860707
0.000457342
0.00058055
0.00107184
0.00330198
0.000983944
3.35621e-05
3.19815e-08
1.73986e-10
7.31968e-12
6.95485e-14
0.000130403
0.00266549
0.00153239
0.00149175
0.00140496
0.00132529
0.00213537
0.00342122
0.00321924
0.00311646
0.00315034
0.00378583
0.00173111
0.00125659
0.0012224
0.00110586
0.000754163
0.000219207
0.000241006
0.000285976
6.33791e-05
1.62809e-05
1.89635e-06
2.02955e-07
3.09517e-09
1.32439e-14
9.39831e-19
8.10898e-21
2.635e-22
1.21005e-24
1.21657e-30
3.77654e-29
3.43384e-27
2.42364e-25
2.10405e-24
5.75623e-24
2.12168e-24
5.75158e-25
1.90301e-25
1.20313e-25
2.14796e-26
2.07539e-27
2.56729e-30
5.76858e-33
4.48119e-36
3.69208e-39
4.09802e-42
1.96372e-45
5.11908e-50
1.55967e-55
8.70476e-61
3.08589e-65
1.29986e-69
4.5303e-74
2.81757e-79
7.09794e-84
3.12702e-86
4.78026e-88
3.28565e-91
7.79368e-95
2.93362e-112
5.17819e-113
4.43248e-116
1.6398e-119
5.27736e-123
1.11744e-126
1.78984e-130
1.63065e-134
1.83185e-138
1.38042e-142
1.50638e-146
7.17653e-152
1.53588e-154
1.38156e-159
1.85576e-162
1.65833e-166
2.42052e-170
2.3639e-174
2.25544e-179
2.5949e-184
1.67013e-189
1.01029e-194
3.7843e-200
2.0266e-205
5.78211e-211
3.73968e-216
1.23261e-221
2.69752e-227
1.9226e-233
7.1771e-240
4.27322e-263
2.09808e-265
6.79126e-271
2.5e-276
5.14117e-282
1.3727e-287
2.18445e-293
4.32902e-299
5.47048e-305
8.70332e-311
9.62193e-317
1.28457e-322
0
0
0
0
0
0
0
0
0
0
0
0
0
0
0
0
0
0
0
0
0
0
0
0
0
0
0
0
0
0
0
0
0
0
0
0
0
0
0
0
0
0
0
0
0
0
0
0
0
0
0
0
0
0
0
0
0
0
0
0
0
0
0
0
0
0
0
0
0
0
0
0
0
0
0
0
0
0
0
0
0
0
0
0
0
0
0
0
0
0
0
0
0
0
0
0
0
0
0
0
0
0
0
0
0
0
0
0
0
0
0
0
0
0
0
0
0
0
0
0
0
0
0
0
0
0
0
0
0
0
0
0
0
0
0
0
0
0
0
0
0
0
0
0
0
0
0
0
0
0
0
0
0
0
0
0
0
0
0
0
0
0
0
0
0
0
0
0
0
0
0
0
0
0
0
0
0
0
0
0
0
0
0
0
0
0
0
0
0
0
0
0
0
0
0
0
0
0
0.00189338
0.000904229
0.000842262
0.000778605
0.000291639
8.17572e-05
9.52235e-05
5.38951e-05
6.13051e-05
2.9326e-05
1.90086e-06
1.68619e-06
1.69721e-06
2.38766e-07
2.42036e-05
4.6393e-05
0.000810804
0.000886845
0.00116919
0.00151617
0.00187276
0.00203463
0.00184372
0.00220182
0.00297424
0.0036544
0.00451983
0.00452432
0.00392451
0.00359584
0.00376548
0.00446166
0.00440023
0.00332758
0.00190022
0.000903116
0.00031929
4.89474e-05
6.69822e-06
1.55708e-06
2.58522e-06
3.1471e-08
3.66874e-09
1.5895e-10
0.000202574
0.00241455
0.00271739
0.00239808
0.00199845
0.0017852
0.00178712
0.00199112
0.00227478
0.00219009
0.0021584
0.00229741
0.00277515
0.00292368
0.00293221
0.00252285
0.00298348
0.00387821
0.00268605
0.000867118
0.000467954
0.000423404
0.00055531
0.000849955
0.00220019
0.000552166
8.66087e-06
9.06019e-09
3.2378e-10
8.25392e-12
0.00014888
0.00330011
0.00235731
0.00230199
0.00255182
0.00223951
0.00118239
0.000220699
0.00013886
0.000302428
0.00062948
0.00304364
0.00406073
0.00235483
0.00106213
0.000659129
0.000462567
0.000490304
0.000418528
0.000361405
0.000146301
0.000109806
2.50813e-05
7.62166e-06
4.07725e-07
1.85707e-08
2.37696e-13
2.36482e-18
4.11979e-20
6.87116e-22
2.5339e-28
4.29921e-26
6.89654e-23
1.77691e-21
3.1773e-21
3.7939e-21
3.08942e-21
2.19733e-21
1.03555e-21
9.20969e-22
2.23259e-22
3.52585e-23
3.79022e-26
6.02651e-29
2.01136e-32
5.28162e-36
1.76248e-39
8.48719e-43
9.97728e-46
9.72325e-49
5.43374e-53
1.61745e-57
4.17865e-62
9.01177e-67
2.08905e-72
1.96463e-77
3.98812e-82
3.45051e-85
3.36624e-89
4.03117e-93
8.38678e-106
3.98706e-106
3.65884e-109
1.70133e-112
5.6113e-116
1.16298e-119
1.13778e-123
7.58188e-128
3.94185e-132
2.26789e-136
1.05676e-140
8.09981e-145
3.91141e-149
4.33428e-153
2.17619e-157
3.53591e-161
2.10947e-165
3.94154e-169
2.68512e-173
3.80811e-178
1.57742e-183
9.58835e-189
2.65775e-194
1.10938e-199
2.62495e-205
1.08383e-210
3.35465e-216
6.01746e-222
3.62107e-228
1.89984e-234
3.56077e-256
4.64604e-259
1.5725e-264
3.36962e-270
9.09753e-276
1.57032e-281
2.99612e-287
3.95293e-293
5.89074e-299
6.42614e-305
8.13469e-311
7.89709e-317
8.89318e-323
0
0
0
0
0
0
0
0
0
0
0
0
0
0
0
0
0
0
0
0
0
0
0
0
0
0
0
0
0
0
0
0
0
0
0
0
0
0
0
0
0
0
0
0
0
0
0
0
0
0
0
0
0
0
0
0
0
0
0
0
0
0
0
0
0
0
0
0
0
0
0
0
0
0
0
0
0
0
0
0
0
0
0
0
0
0
0
0
0
0
0
0
0
0
0
0
0
0
0
0
0
0
0
0
0
0
0
0
0
0
0
0
0
0
0
0
0
0
0
0
0
0
0
0
0
0
0
0
0
0
0
0
0
0
0
0
0
0
0
0
0
0
0
0
0
0
0
0
0
0
0
0
0
0
0
0
0
0
0
0
0
0
0
0
0
0
0
0
0
0
0
0
0
0
0
0
0
0
0
0
0
0
0
0
0
0
0
0
0
0
0
0
0
0
0
0
0
0.00141024
0.00388066
0.00852169
0.00773082
0.00377892
0.0024712
0.00428122
0.00356597
0.00217176
0.00220961
0.000910233
1.0037e-05
1.58005e-06
8.49707e-07
2.02752e-05
0.00023687
0.00134145
0.00137733
0.00367258
0.00481702
0.00533909
0.00608277
0.00632642
0.00495858
0.00389084
0.0039621
0.00456901
0.00550185
0.00599764
0.00589371
0.00549651
0.00504373
0.00527771
0.00539618
0.00536604
0.00356397
0.0013189
0.000206189
1.7236e-05
2.8065e-06
1.62823e-06
6.80101e-08
1.76634e-09
1.73805e-10
0.000123594
0.00209134
0.0027781
0.00259132
0.00216609
0.00179257
0.00153729
0.00140354
0.00138763
0.00138522
0.00128044
0.00127512
0.00131617
0.00162753
0.00163976
0.00177901
0.00184867
0.00216371
0.00349031
0.00309543
0.00120308
0.000668304
0.000320658
0.00030064
0.0011266
0.00212455
0.000203749
1.36802e-06
9.18181e-09
6.55499e-10
0.000156893
0.00352144
0.00297192
0.00320929
0.00338998
0.00308416
0.000173281
1.25225e-05
0.000237678
0.000843546
0.00129873
0.0031495
0.00328314
0.00220756
0.000690162
0.000407362
0.000365593
0.000483351
0.000596747
0.00038654
0.000344762
0.000196802
8.95368e-05
5.21102e-05
1.09219e-05
1.05445e-06
2.54012e-08
9.21381e-14
7.44921e-18
2.20439e-19
8.11833e-25
1.12268e-21
2.83643e-19
1.21416e-18
2.18011e-18
6.04482e-18
3.95551e-18
1.25912e-18
2.85328e-19
5.07721e-19
9.78285e-20
7.37404e-20
1.88912e-22
5.98922e-25
1.98289e-28
3.66028e-32
5.88986e-36
1.14977e-39
3.38844e-43
2.54141e-46
2.92452e-49
1.99841e-52
1.47147e-56
5.99138e-61
2.05193e-65
4.7022e-70
7.55297e-75
9.16926e-80
1.14799e-84
2.08942e-89
3.87685e-100
4.76228e-101
1.00137e-104
2.02955e-108
6.59904e-112
3.76356e-115
2.2532e-118
3.95518e-122
2.91368e-126
1.83395e-130
1.1352e-134
7.87353e-139
5.49659e-143
4.82619e-147
3.61472e-151
3.86214e-155
3.30282e-159
3.82963e-163
3.90168e-167
5.08239e-171
2.32449e-176
9.55567e-182
2.6929e-187
7.66902e-193
1.80248e-198
5.00432e-204
1.40273e-209
2.51726e-215
1.7625e-221
1.08325e-227
9.88174e-249
1.51562e-251
3.27669e-257
8.26547e-263
1.44223e-268
3.05031e-274
4.44172e-280
6.55028e-286
7.62274e-292
9.26491e-298
9.18709e-304
9.85251e-310
8.84283e-316
8.74496e-322
0
0
0
0
0
0
0
0
0
0
0
0
0
0
0
0
0
0
0
0
0
0
0
0
0
0
0
0
0
0
0
0
0
0
0
0
0
0
0
0
0
0
0
0
0
0
0
0
0
0
0
0
0
0
0
0
0
0
0
0
0
0
0
0
0
0
0
0
0
0
0
0
0
0
0
0
0
0
0
0
0
0
0
0
0
0
0
0
0
0
0
0
0
0
0
0
0
0
0
0
0
0
0
0
0
0
0
0
0
0
0
0
0
0
0
0
0
0
0
0
0
0
0
0
0
0
0
0
0
0
0
0
0
0
0
0
0
0
0
0
0
0
0
0
0
0
0
0
0
0
0
0
0
0
0
0
0
0
0
0
0
0
0
0
0
0
0
0
0
0
0
0
0
0
0
0
0
0
0
0
0
0
0
0
0
0
0
0
0
0
0
0
0
0
0
0
0.00495042
0.0145235
0.0155997
0.013434
0.0107713
0.00936501
0.00832897
0.00833478
0.00652024
0.00274135
0.00158581
0.000402929
2.57923e-06
7.52451e-07
4.01147e-05
0.000539996
0.00215438
0.00483143
0.00700626
0.00698905
0.00532258
0.00297868
0.00161529
0.00119064
0.00123201
0.00149494
0.001813
0.00201305
0.00208859
0.00203792
0.00195899
0.00222873
0.00319894
0.0044459
0.00479615
0.00417634
0.0026181
0.000448174
4.58529e-05
1.90534e-05
1.45858e-06
1.51938e-06
1.8253e-07
6.67361e-09
5.84042e-05
0.000735788
0.00316173
0.00303148
0.00294849
0.00277043
0.00232955
0.00185485
0.00143987
0.00115333
0.00094309
0.00089148
0.00112292
0.00157084
0.00241444
0.00312337
0.00322299
0.0029124
0.00269406
0.00345479
0.00414816
0.00346748
0.000965999
0.000230966
0.000464656
0.00231875
0.00410309
4.05449e-05
3.72816e-07
3.14246e-08
4.92056e-05
0.00137149
0.00349809
0.00201266
0.00133957
0.000427013
3.5634e-06
0.000365186
0.00110646
0.00392848
0.0034165
0.00277947
0.00296899
0.00104986
0.00021745
0.000210581
0.000299795
0.000452806
0.000487296
0.000371992
0.000265287
0.000219931
0.000144755
6.91783e-05
3.10307e-05
1.00748e-05
1.56387e-06
7.11579e-09
2.3941e-15
2.36611e-17
1.39828e-20
3.56125e-18
1.83674e-16
4.45465e-16
1.38682e-15
4.33218e-15
4.02981e-15
1.13201e-15
1.55611e-15
2.25011e-15
1.72508e-15
3.38584e-16
1.30091e-18
2.54181e-21
5.84595e-25
1.21099e-28
2.41016e-32
4.04276e-36
6.20556e-40
1.41724e-43
7.32009e-47
6.61915e-50
5.94365e-53
2.68382e-56
2.2562e-60
9.94331e-65
2.61177e-69
3.38859e-74
2.70651e-79
1.33935e-84
2.37037e-95
2.69152e-97
5.39699e-101
9.35474e-105
2.14428e-108
5.50516e-112
1.86512e-115
1.10621e-118
7.17002e-122
1.57592e-125
1.54519e-129
1.51098e-133
1.27565e-137
1.39541e-141
1.1022e-145
1.45088e-149
1.10713e-153
1.75103e-157
1.34712e-161
2.43593e-165
1.89626e-169
9.18447e-175
1.64878e-180
5.2853e-186
7.49964e-192
2.19164e-197
3.49347e-203
8.98427e-209
5.93801e-215
3.79606e-221
2.77574e-241
2.97335e-244
6.5753e-250
9.74898e-256
1.87822e-261
2.75849e-267
4.79076e-273
5.59859e-279
7.26408e-285
7.20364e-291
7.71763e-297
6.84971e-303
6.52178e-309
5.39352e-315
4.73809e-321
0
0
0
0
0
0
0
0
0
0
0
0
0
0
0
0
0
0
0
0
0
0
0
0
0
0
0
0
0
0
0
0
0
0
0
0
0
0
0
0
0
0
0
0
0
0
0
0
0
0
0
0
0
0
0
0
0
0
0
0
0
0
0
0
0
0
0
0
0
0
0
0
0
0
0
0
0
0
0
0
0
0
0
0
0
0
0
0
0
0
0
0
0
0
0
0
0
0
0
0
0
0
0
0
0
0
0
0
0
0
0
0
0
0
0
0
0
0
0
0
0
0
0
0
0
0
0
0
0
0
0
0
0
0
0
0
0
0
0
0
0
0
0
0
0
0
0
0
0
0
0
0
0
0
0
0
0
0
0
0
0
0
0
0
0
0
0
0
0
0
0
0
0
0
0
0
0
0
0
0
0
0
0
0
0
0
0
0
0
0
0
0
0
0
0
0.0148927
0.0156804
0.0131746
0.00961612
0.00531758
0.00296032
0.00306705
0.00576293
0.00254836
0.000317966
0.00014472
0.000172985
3.32255e-05
1.44072e-06
7.82594e-05
0.00118908
0.00520136
0.00659863
0.00467899
0.00278779
0.00142954
0.000770573
0.0005022
0.000454436
0.000524152
0.00060745
0.00072027
0.000734794
0.000642338
0.000685621
0.00095763
0.00173746
0.00330807
0.00415295
0.00370344
0.00388006
0.00303072
0.000753356
0.000129217
3.56633e-05
5.9602e-06
1.04111e-05
1.52024e-06
1.25381e-07
4.38284e-05
0.000677873
0.0034945
0.00388309
0.00402804
0.00419487
0.00421225
0.00384661
0.00235002
0.00118151
0.000805641
0.00100281
0.00237267
0.00518684
0.00298588
0.00149203
0.00134127
0.00150138
0.00337673
0.00383588
0.00304394
0.00286355
0.00377027
0.00117047
0.00025243
0.000315323
0.00188608
0.000263204
2.47512e-06
1.4503e-07
1.2993e-06
0.000332205
0.00110852
0.000621858
0.000263301
3.25432e-05
0.000105418
0.00263709
0.00382456
0.00348212
0.00291424
0.0025527
0.0029203
0.00064242
6.49378e-05
0.000117875
0.00024685
0.000332217
0.000259316
0.000135387
0.000120103
0.00012094
0.000120152
8.34693e-05
4.26184e-05
1.21836e-05
6.97887e-06
7.77134e-07
6.67475e-10
6.47547e-15
1.05026e-16
9.41646e-15
4.54828e-14
1.9235e-13
6.98735e-13
3.67768e-12
7.0822e-12
1.29422e-11
2.16464e-11
2.6064e-11
1.43277e-11
3.63279e-12
1.11294e-14
4.42003e-18
9.03291e-22
1.76835e-25
3.99553e-29
8.51344e-33
1.56083e-36
2.59218e-40
5.15645e-44
1.91098e-47
1.40391e-50
1.14394e-53
7.74786e-57
2.47124e-60
2.11891e-64
7.80514e-69
9.98901e-74
2.05023e-79
3.39465e-91
2.22682e-93
1.98077e-97
7.85953e-101
2.77243e-104
3.12347e-108
4.06783e-112
1.05197e-115
5.6937e-119
3.27469e-122
1.33466e-125
3.29142e-129
5.40128e-133
7.66725e-137
9.46827e-141
1.27202e-144
1.47525e-148
2.04827e-152
2.41558e-156
3.46249e-160
4.19749e-164
6.18211e-168
1.28491e-173
2.68136e-179
4.47924e-185
8.49371e-191
1.3808e-196
2.82883e-202
2.82498e-208
1.53739e-214
4.88103e-234
4.65404e-237
6.2136e-243
9.21943e-249
1.2136e-254
1.88151e-260
2.58503e-266
3.83518e-272
4.3785e-278
5.07919e-284
4.7608e-290
4.70972e-296
3.8874e-302
3.45282e-308
2.6511e-314
2.19513e-320
0
0
0
0
0
0
0
0
0
0
0
0
0
0
0
0
0
0
0
0
0
0
0
0
0
0
0
0
0
0
0
0
0
0
0
0
0
0
0
0
0
0
0
0
0
0
0
0
0
0
0
0
0
0
0
0
0
0
0
0
0
0
0
0
0
0
0
0
0
0
0
0
0
0
0
0
0
0
0
0
0
0
0
0
0
0
0
0
0
0
0
0
0
0
0
0
0
0
0
0
0
0
0
0
0
0
0
0
0
0
0
0
0
0
0
0
0
0
0
0
0
0
0
0
0
0
0
0
0
0
0
0
0
0
0
0
0
0
0
0
0
0
0
0
0
0
0
0
0
0
0
0
0
0
0
0
0
0
0
0
0
0
0
0
0
0
0
0
0
0
0
0
0
0
0
0
0
0
0
0
0
0
0
0
0
0
0
0
0
0
0
0
0
0
0.0146588
0.0118023
0.00861404
0.00385849
0.00114341
0.00068744
0.00147863
0.00562129
0.000576469
0.00014608
8.22787e-05
6.44092e-05
3.55782e-05
3.95612e-07
0.000377371
0.00267111
0.00566752
0.00357256
0.00193211
0.00102344
0.000551782
0.000335604
0.000264946
0.000266103
0.000255827
0.000289283
0.000272959
0.00025609
0.000262501
0.000466203
0.00106487
0.00425375
0.0019742
0.00133756
0.00197262
0.00272817
0.00174001
0.00040546
8.89668e-05
3.95119e-05
4.20798e-05
8.53531e-05
4.65696e-06
3.80949e-07
2.584e-05
0.000541574
0.00385372
0.00419586
0.00397702
0.00328176
0.00278328
0.00366382
0.00332787
0.00114997
0.000776322
0.00167739
0.00513315
0.00190805
0.000850605
0.000488258
0.000383901
0.000387637
0.000539992
0.00102159
0.00362734
0.00340386
0.00278393
0.00396705
0.000893359
0.00019499
0.000659031
0.00352945
2.9772e-05
2.20956e-06
4.64605e-10
7.13315e-07
0.000128435
8.61045e-05
1.13341e-05
6.50167e-06
0.000406519
0.00320075
0.00282146
0.00275198
0.0023842
0.00223829
0.00362465
0.000363521
2.26301e-05
5.03233e-05
0.000119451
9.20774e-05
5.54362e-05
2.83725e-05
2.80197e-05
2.82304e-05
3.86331e-05
5.77966e-05
5.023e-05
2.02073e-05
7.30846e-06
9.37274e-06
8.38268e-07
1.6438e-11
3.12188e-12
4.11593e-12
1.72288e-11
7.00173e-11
2.24434e-10
1.41189e-09
4.97035e-09
8.95493e-09
1.88019e-08
1.46497e-08
5.81738e-09
9.41888e-10
5.40745e-12
3.5002e-15
8.63425e-19
1.61556e-22
3.43933e-26
8.84219e-30
2.18993e-33
4.21813e-37
7.50797e-41
1.46809e-44
4.6863e-48
2.68628e-51
1.9082e-54
1.17902e-57
5.97766e-61
1.44768e-64
3.79656e-69
4.42278e-75
1.44713e-87
5.01477e-90
5.3831e-94
3.50565e-97
2.05978e-100
2.07371e-104
1.62031e-108
2.00244e-112
5.79329e-116
2.71251e-119
1.20003e-122
3.96035e-126
1.11057e-129
2.67429e-133
6.13754e-137
1.17871e-140
2.2984e-144
3.76829e-148
5.98109e-152
9.59769e-156
1.35984e-159
2.22226e-163
2.90819e-167
5.58858e-173
7.78576e-179
1.29025e-184
1.64855e-190
2.76342e-196
2.5521e-202
1.87116e-208
2.27495e-227
1.46346e-230
1.3898e-236
1.48947e-242
1.77782e-248
2.18824e-254
2.89967e-260
3.85111e-266
5.06956e-272
5.76826e-278
6.02993e-284
5.71888e-290
5.0184e-296
4.21145e-302
3.31508e-308
2.59111e-314
1.93328e-320
0
0
0
0
0
0
0
0
0
0
0
0
0
0
0
0
0
0
0
0
0
0
0
0
0
0
0
0
0
0
0
0
0
0
0
0
0
0
0
0
0
0
0
0
0
0
0
0
0
0
0
0
0
0
0
0
0
0
0
0
0
0
0
0
0
0
0
0
0
0
0
0
0
0
0
0
0
0
0
0
0
0
0
0
0
0
0
0
0
0
0
0
0
0
0
0
0
0
0
0
0
0
0
0
0
0
0
0
0
0
0
0
0
0
0
0
0
0
0
0
0
0
0
0
0
0
0
0
0
0
0
0
0
0
0
0
0
0
0
0
0
0
0
0
0
0
0
0
0
0
0
0
0
0
0
0
0
0
0
0
0
0
0
0
0
0
0
0
0
0
0
0
0
0
0
0
0
0
0
0
0
0
0
0
0
0
0
0
0
0
0
0
0
0.00889335
0.00685823
0.0041131
0.00107348
0.000305599
0.000335796
0.00182951
0.00287757
0.000751423
0.000962673
0.00120398
0.000624002
0.00016225
8.69433e-05
0.000493865
0.000520029
0.000826393
0.00603913
0.00387865
0.00221376
0.00118415
0.000715755
0.000443123
0.000312698
0.000248435
0.000170003
0.00015802
0.00015174
0.00013088
0.000121676
0.000244306
0.000788784
0.00366756
0.000733604
0.000363732
0.000536111
0.00113796
0.00146695
0.00083171
0.000302437
0.000163413
0.000154748
0.000209528
0.000331186
5.29384e-06
6.8332e-07
2.51907e-07
7.3532e-07
1.99071e-05
0.000531883
0.00419754
0.00374649
0.00372277
0.00316101
0.00258533
0.00318135
0.00340108
0.000975395
0.000769465
0.00179495
0.00472212
0.00207355
0.00109516
0.000781933
0.000556503
0.000418515
0.000305997
0.000337946
0.000596701
0.00157697
0.00417501
0.00337361
0.00390599
0.000445103
0.000254754
0.00374595
5.80889e-05
7.48242e-05
8.91646e-06
1.96e-07
9.39685e-09
2.78195e-07
8.7395e-07
1.43751e-06
4.55561e-06
7.77931e-05
0.000504981
0.00106619
0.00342531
0.00346158
0.00330708
0.00332664
0.00359273
0.000143173
1.036e-05
1.59235e-05
2.242e-05
1.6274e-05
8.94369e-06
7.33551e-06
7.07948e-06
8.45214e-06
9.25327e-06
1.69175e-05
2.74944e-05
2.8248e-05
1.21481e-05
5.96569e-06
1.83671e-05
4.48648e-07
3.69261e-09
5.74302e-10
4.88501e-10
4.61526e-10
9.51919e-10
7.36716e-09
4.16915e-08
1.06768e-07
1.87885e-07
2.35813e-07
8.10099e-07
5.78778e-07
3.06133e-07
4.07211e-08
9.81175e-10
1.63777e-12
7.84454e-16
1.69961e-19
3.19158e-23
7.17804e-27
1.77455e-30
4.37082e-34
8.19514e-38
1.60792e-41
3.1188e-45
8.60886e-49
3.72762e-52
2.23286e-55
1.34994e-58
7.45819e-62
3.66957e-65
4.08656e-70
4.59314e-75
4.03711e-79
1.96215e-84
3.06428e-88
1.39e-90
4.70207e-93
7.01088e-97
5.84354e-101
4.56122e-105
4.80796e-109
8.08577e-113
2.3375e-116
9.47037e-120
3.1062e-123
8.53065e-127
2.16352e-130
5.14175e-134
1.13435e-137
2.39535e-141
4.76701e-145
9.78661e-149
1.74612e-152
3.2394e-156
5.51658e-160
1.04741e-163
1.70466e-167
2.62385e-173
3.32932e-179
4.97218e-185
6.32851e-191
8.58502e-197
9.34108e-203
6.01145e-209
2.79487e-215
1.6556e-221
1.09985e-227
1.45459e-233
1.81669e-239
3.53295e-245
6.10272e-251
1.58551e-256
3.67015e-262
8.67253e-268
1.39939e-273
2.0918e-279
2.44284e-285
2.73404e-291
2.59083e-297
2.40208e-303
1.99483e-309
1.6497e-315
1.27469e-321
0
0
0
0
0
0
0
0
0
0
0
0
0
0
0
0
0
0
0
0
0
0
0
0
0
0
0
0
0
0
0
0
0
0
0
0
0
0
0
0
0
0
0
0
0
0
0
0
0
0
0
0
0
0
0
0
0
0
0
0
0
0
0
0
0
0
0
0
0
0
0
0
0
0
0
0
0
0
0
0
0
0
0
0
0
0
0
0
0
0
0
0
0
0
0
0
0
0
0
0
0
0
0
0
0
0
0
0
0
0
0
0
0
0
0
0
0
0
0
0
0
0
0
0
0
0
0
0
0
0
0
0
0
0
0
0
0
0
0
0
0
0
0
0
0
0
0
0
0
0
0
0
0
0
0
0
0
0
0
0
0
0
0
0
0
0
0
0
0
0
0
0
0
0
0
0
0
0
0
0
0
0
0
0
0
0
0
0
0
0
0
0
0
0
0
0
0
0
0
0
0
0
0
0
0
0
0.00371319
0.00342944
0.00155007
0.000338849
0.000133855
0.000263331
0.00213909
0.00419607
0.00251144
0.00407957
0.00454248
0.00305161
0.00144272
0.00127854
0.00118616
0.00107762
0.00339731
0.00514029
0.00367595
0.00239734
0.00157755
0.00107156
0.000698274
0.000386045
0.000189216
0.000132317
0.000105378
8.31552e-05
8.1665e-05
0.00013471
0.000510763
0.004147
0.000605437
0.000190592
0.000198078
0.000344704
0.000530128
0.000497157
0.000315221
0.000224513
0.000215713
0.000259259
0.000366745
0.000823568
3.40232e-05
4.98256e-05
4.3567e-05
3.25306e-05
4.62857e-05
0.000175868
0.00047085
0.00100957
0.00386281
0.00340883
0.00306727
0.00318068
0.00377243
0.00108219
0.000763856
0.00121319
0.00238986
0.00360011
0.0041468
0.00424199
0.00409537
0.00370149
0.0016597
0.000526101
0.000323794
0.000416249
0.000964492
0.00344732
0.00382609
0.00242108
0.000277483
0.000658157
0.00326375
0.00016061
0.000105936
1.51621e-05
4.43107e-06
1.82065e-05
5.18222e-05
6.78866e-05
0.000103598
0.000204749
0.000677077
0.00279139
0.00378373
0.00239522
0.00179077
0.00165078
0.000905342
0.000135768
9.95582e-06
6.33072e-06
5.61252e-06
5.08227e-06
5.13167e-06
5.48636e-06
6.06447e-06
5.94997e-06
6.05481e-06
6.39513e-06
9.50704e-06
1.66967e-05
1.75229e-05
9.48596e-06
9.82882e-06
2.80373e-05
7.50914e-06
1.44129e-06
8.72359e-07
5.33256e-07
2.04354e-07
1.45109e-07
2.91618e-07
9.04292e-07
1.50349e-06
1.79918e-06
1.45734e-06
1.09844e-06
9.54709e-07
9.85105e-07
2.95011e-07
8.09175e-10
7.10688e-13
2.50672e-16
4.71516e-20
7.45304e-24
1.56494e-27
3.11008e-31
6.37915e-35
1.18958e-38
2.4365e-42
5.03346e-46
1.31628e-49
4.65217e-53
2.08605e-56
1.08281e-59
5.06936e-63
3.59593e-66
7.55165e-70
2.62822e-74
2.66948e-78
3.5739e-82
8.93185e-86
1.05774e-89
1.00343e-93
9.38788e-98
8.86358e-102
9.14459e-106
1.31494e-109
2.80636e-113
7.39714e-117
1.96233e-120
5.31524e-124
1.23813e-127
2.96612e-131
6.18896e-135
1.42472e-138
2.81801e-142
5.72919e-146
1.07106e-149
2.23334e-153
3.89849e-157
7.68294e-161
1.28996e-164
2.61909e-168
2.76922e-174
3.68021e-180
3.76809e-186
4.91722e-192
4.71934e-198
4.19614e-204
2.50809e-210
1.66175e-216
1.07592e-222
1.16978e-228
1.2595e-234
1.84932e-240
2.71429e-246
5.48543e-252
1.0457e-257
2.15477e-263
3.07833e-269
4.28502e-275
4.5975e-281
4.94481e-287
4.40585e-293
4.00061e-299
3.17098e-305
2.59687e-311
1.93346e-317
1.4822e-323
0
0
0
0
0
0
0
0
0
0
0
0
0
0
0
0
0
0
0
0
0
0
0
0
0
0
0
0
0
0
0
0
0
0
0
0
0
0
0
0
0
0
0
0
0
0
0
0
0
0
0
0
0
0
0
0
0
0
0
0
0
0
0
0
0
0
0
0
0
0
0
0
0
0
0
0
0
0
0
0
0
0
0
0
0
0
0
0
0
0
0
0
0
0
0
0
0
0
0
0
0
0
0
0
0
0
0
0
0
0
0
0
0
0
0
0
0
0
0
0
0
0
0
0
0
0
0
0
0
0
0
0
0
0
0
0
0
0
0
0
0
0
0
0
0
0
0
0
0
0
0
0
0
0
0
0
0
0
0
0
0
0
0
0
0
0
0
0
0
0
0
0
0
0
0
0
0
0
0
0
0
0
0
0
0
0
0
0
0
0
0
0
0
0
0
0
0
0
0
0
0
0
0
0
0
0.00119849
0.00140908
0.000544115
0.000145988
9.88712e-05
0.00022979
0.00144594
0.00680333
0.00531606
0.00640271
0.00711267
0.00664422
0.00562221
0.00498504
0.00477275
0.00535442
0.00719128
0.0065512
0.00593997
0.0052048
0.00369124
0.00224241
0.00102962
0.000355668
0.000158088
9.53058e-05
7.29702e-05
6.98351e-05
7.68941e-05
0.000264724
0.00133607
0.0016036
0.000247355
0.0001418
0.000167719
0.000235394
0.000260204
0.000245506
0.000232044
0.000237786
0.000261513
0.000331807
0.000517091
0.000794398
0.00103238
0.00156196
0.00179019
0.00205245
0.00272945
0.00378472
0.00401487
0.00428783
0.00383548
0.00340507
0.00333437
0.00307586
0.00347344
0.00383404
0.00204538
0.00192498
0.00313677
0.00425978
0.00317548
0.00300278
0.0037803
0.00422762
0.00414538
0.00277398
0.000948026
0.000361156
0.00035514
0.00101574
0.00381419
0.00416191
0.00113938
0.000396427
0.000952609
0.00317257
0.000622932
9.78503e-05
8.14304e-06
1.21332e-05
6.0105e-05
0.000202115
0.000230732
0.000235628
0.000880691
0.00346298
0.00202262
0.00087902
0.000539385
0.00043807
0.00036947
0.000204583
3.84712e-05
1.11357e-05
8.29255e-06
8.51865e-06
1.04683e-05
1.38357e-05
1.54109e-05
1.28663e-05
9.67452e-06
7.26242e-06
6.0706e-06
8.17776e-06
1.13398e-05
1.08843e-05
5.35364e-06
8.79275e-06
1.25672e-05
8.31185e-06
5.06447e-06
3.58073e-06
1.67784e-06
1.04501e-06
1.20735e-06
1.09466e-06
1.31412e-06
1.69596e-06
2.33571e-06
2.56194e-06
2.66382e-06
2.01675e-06
1.2255e-06
3.78161e-07
5.79758e-10
2.82025e-13
6.62626e-17
9.77515e-21
1.28266e-24
2.08542e-28
3.14327e-32
5.94761e-36
1.05843e-39
2.18872e-43
4.33581e-47
9.88468e-51
2.74479e-54
9.94542e-58
3.77674e-61
1.56943e-64
5.36914e-68
1.48409e-71
3.05137e-75
4.33884e-79
6.02589e-83
7.40884e-87
8.62031e-91
9.58236e-95
1.07436e-98
1.26954e-102
1.63635e-106
2.85576e-110
5.44645e-114
1.1924e-117
2.52899e-121
5.37007e-125
1.12075e-128
2.24566e-132
4.26136e-136
8.3912e-140
1.60034e-143
2.95594e-147
5.37708e-151
9.59621e-155
1.69871e-158
2.94197e-162
5.57626e-166
9.62976e-170
1.02136e-175
9.99825e-182
1.04354e-187
9.56011e-194
7.52196e-200
5.40263e-206
3.60936e-212
2.57502e-218
2.38445e-224
2.27905e-230
2.66644e-236
3.24184e-242
5.0931e-248
8.55636e-254
1.58125e-259
2.27703e-265
3.0239e-271
3.32357e-277
3.47251e-283
3.16846e-289
2.80289e-295
2.25605e-301
1.7951e-307
1.34587e-313
1.01644e-319
0
0
0
0
0
0
0
0
0
0
0
0
0
0
0
0
0
0
0
0
0
0
0
0
0
0
0
0
0
0
0
0
0
0
0
0
0
0
0
0
0
0
0
0
0
0
0
0
0
0
0
0
0
0
0
0
0
0
0
0
0
0
0
0
0
0
0
0
0
0
0
0
0
0
0
0
0
0
0
0
0
0
0
0
0
0
0
0
0
0
0
0
0
0
0
0
0
0
0
0
0
0
0
0
0
0
0
0
0
0
0
0
0
0
0
0
0
0
0
0
0
0
0
0
0
0
0
0
0
0
0
0
0
0
0
0
0
0
0
0
0
0
0
0
0
0
0
0
0
0
0
0
0
0
0
0
0
0
0
0
0
0
0
0
0
0
0
0
0
0
0
0
0
0
0
0
0
0
0
0
0
0
0
0
0
0
0
0
0
0
0
0
0
0
0
0
0
0
0
0
0
0
0
0
0
0.000362636
0.000453546
0.000227828
0.000100706
8.35005e-05
0.000146922
0.000811018
0.00522652
0.00753552
0.00705272
0.00758519
0.00782646
0.00795015
0.00794523
0.00806782
0.00805986
0.00815569
0.00781023
0.00752689
0.00774508
0.00678389
0.00254709
0.00067559
0.000218858
0.000104838
7.21833e-05
6.46336e-05
6.80275e-05
0.000123024
0.00044421
0.00397338
0.000827554
0.000168439
0.000113701
0.000131542
0.000168857
0.00020929
0.000237877
0.000272552
0.000323502
0.000357177
0.00039329
0.000452716
0.000595285
0.000806377
0.00114167
0.00175106
0.00284105
0.00392502
0.00429462
0.00423845
0.00388945
0.00349177
0.00320644
0.00303948
0.00270608
0.00263017
0.00335685
0.00414083
0.00407018
0.00293439
0.00184093
0.001743
0.00210779
0.00280257
0.00292679
0.00202254
0.00111179
0.000835975
0.000416136
0.000206739
0.000286055
0.000956396
0.00391284
0.0036394
0.0010752
0.000575345
0.000837978
0.00365859
0.00384898
0.00176756
0.00103235
0.00124936
0.00198591
0.00241959
0.00360766
0.00357082