/*--------------------------------*- C++ -*----------------------------------*\
| =========                 |                                                 |
| \\      /  F ield         | OpenFOAM: The Open Source CFD Toolbox           |
|  \\    /   O peration     | Version:  2.1.1                                 |
|   \\  /    A nd           | Web:      www.OpenFOAM.org                      |
|    \\/     M anipulation  |                                                 |
\*---------------------------------------------------------------------------*/
FoamFile
{
    version     2.0;
    format      ascii;
    class       volScalarField;
    location    "0.002450000";
    object      T;
}
// * * * * * * * * * * * * * * * * * * * * * * * * * * * * * * * * * * * * * //

dimensions      [0 0 0 1 0 0 0];

internalField   nonuniform List<scalar> 
12384
(
2632.85
2600.96
2570.97
2558.69
2539.99
2569.57
2507.94
2415.94
2270.74
717.198
421.698
408.312
417.952
427.543
398.969
407.976
462.717
594.568
890.852
2064.48
2041.14
2003.77
2017.79
2024.99
2022.79
2030.13
2010.64
2008.65
1999.92
1998.01
1965.06
1091.31
816.316
684.477
574.691
512.245
437.843
403.565
403.174
407.116
401.27
396.173
385.814
388.138
428.78
594.605
1114.32
2454.81
2391.53
2360.75
2339.95
2379.64
2398.07
2413.69
2439.23
2442.97
2442.51
2403.55
2429.05
1043.49
790.379
760.043
739.383
710.422
642.979
552.645
468.213
412.56
406.019
393.1
385.862
378.883
380.919
384.438
565.948
552.873
872.809
2624.39
2647.29
2672.66
2711.07
2694.47
2655.34
2628.66
2509.03
2547.62
2490.21
865.566
566.803
526.287
511.198
473.691
458.533
447.487
429.76
432.066
431.537
435.537
434.328
432.638
427.952
421.524
423.756
426.147
337.657
335.638
333.949
333.796
331.434
332.079
331.483
324.605
338.728
329.19
351.988
346.279
363.929
361.198
371.729
371.627
375.386
376.624
378.911
378.715
381.878
382.305
386.721
387.548
391.746
391.446
395.307
397.438
399.553
401.441
324.813
325.34
325.843
326.498
327.279
327.824
328.088
328.143
327.594
326.559
325.908
324.303
321.504
322.326
318.456
318.522
317.982
315.007
315.514
314.505
312.091
313.118
310.31
310.424
309.963
308.188
308.82
307.906
307.537
307.622
296.343
296.142
296.081
295.982
295.889
295.726
295.632
295.413
295.354
295.092
295.07
294.764
294.807
294.468
294.561
294.221
294.332
294.009
294.128
293.84
293.948
293.704
293.797
293.602
293.672
293.53
293.581
293.487
293.521
293.478
293.06
293.06
293.057
293.055
293.053
293.049
293.046
293.039
293.042
293.031
293.035
293.025
293.029
293.018
293.022
293.013
293.017
293.009
293.015
293.006
293.01
293.003
293.006
293.003
293.003
293.004
293.002
293.003
293.001
293.001
293
292.999
293
292.998
293.001
292.999
293
292.999
293.001
292.999
293.002
293.001
293.001
293
293.001
293
293.001
293
293.002
293.001
293
292.999
293.001
292.999
292.999
293
292.999
293
292.999
292.999
293
293
292.999
292.999
292.999
293
292.999
293.001
292.999
293
293.001
293.002
293
293.001
293
293.001
293
293.001
293.001
293
293
293
293.001
292.999
292.999
293
293
292.998
292.999
292.999
292.999
292.999
293
292.999
293.001
292.999
293
292.999
293.001
292.999
293.001
293.001
293.002
293
293.001
293
293.001
293
293.002
293.001
293
292.999
293.001
292.999
292.999
293
292.999
293
292.999
292.999
292.998
292.999
292.999
292.998
293.001
292.998
292.999
293
293
292.999
293.001
293.001
293.001
293
293.001
293.001
293.001
293.001
293.001
293.002
292.999
293.001
292.999
293
292.998
293
292.998
292.999
292.999
292.999
292.998
292.997
292.998
292.997
293
292.997
293
292.998
293
293
293.001
293
293.001
293
293.003
293.001
293.003
293
293.001
293
293.001
292.999
293.001
292.999
293
293
293
292.999
293
293
2618.49
2460.96
2213.62
2055.47
2035.84
2067.08
2088.11
2002.93
2095.4
594.86
444.961
413.715
417.063
424.941
401.993
515.649
1039.15
2071.74
2093.25
2085.41
2058.75
2064.12
2044.29
2054.03
2056.54
2044.99
2048.25
2054.29
2026.77
2018.66
2004.12
2009.01
2023.69
1990.33
1974.88
1863
2009.13
607.623
426.79
407.275
402.55
400.229
388.134
386.963
559.197
2221.13
2372.73
2427.88
2383.49
2359.96
2354.88
2389.26
2414.99
2440.88
2461.07
2462.21
2459.82
2470.43
2461.09
2498.52
2502.93
2537.38
2560.26
2566.13
2584.31
2503.25
2641.97
623.28
429.208
395.746
390.737
384.038
382.976
384.301
590.668
965.281
2606.24
2610.31
2769.79
2791.96
2721.49
2718.17
2706.7
2637.66
2645.98
2547.65
2555.43
2546.35
2506.05
2518.23
2456.52
1059.07
671.464
578.154
460.043
433.064
430.853
431.51
434.051
431.369
430.384
421.553
422.53
423.22
334.819
336.385
336.909
332.749
333.996
331.301
333.361
328.695
336.698
333.443
351.034
347.049
361.805
364.877
371.174
371.87
376.211
375.453
377.245
379.188
381.207
383.92
386.701
389.556
390.476
392.684
393.515
396.373
399.32
402.084
324.743
325.095
325.615
326.076
326.989
327.221
327.879
327.29
327.412
326.342
325.916
324.125
323.026
321.145
320.397
317.605
318.337
315.471
315.115
314.218
313.138
312.064
310.948
310.494
309.402
308.881
308.193
308.075
307.684
307.318
295.854
296.216
295.936
296.241
295.826
295.931
295.554
295.589
295.254
295.248
294.952
294.922
294.675
294.616
294.448
294.342
294.248
294.093
294.06
293.899
293.894
293.742
293.76
293.615
293.655
293.525
293.571
293.473
293.505
293.468
293.046
293.054
293.057
293.043
293.054
293.032
293.048
293.022
293.042
293.013
293.034
293.006
293.026
293.001
293.02
292.996
293.015
292.991
293.011
292.987
293.007
292.984
293.005
292.981
293.003
292.981
293
292.986
292.988
292.99
292.99
292.983
293
292.977
292.999
292.977
293
292.978
292.999
292.979
293
292.98
293
292.982
293
292.982
293
292.981
292.999
292.979
292.999
292.978
293
292.977
292.999
292.977
292.997
292.984
292.986
292.988
292.983
292.988
292.979
292.997
292.977
292.999
292.978
292.999
292.978
292.999
292.979
292.999
292.981
292.999
292.982
293
292.981
293
292.982
292.993
292.997
292.979
292.999
292.978
292.999
292.976
292.998
292.975
292.993
292.978
292.99
292.982
293
292.977
292.999
292.977
293
292.978
292.999
292.979
293
292.98
293
292.981
293
292.981
292.999
292.98
292.999
292.979
292.999
292.978
292.999
292.977
292.999
292.978
292.997
292.984
292.986
292.988
292.977
292.989
292.985
292.978
292.998
292.976
292.998
292.978
292.999
292.978
293
292.98
293
292.981
292.997
292.997
292.981
292.999
292.979
292.999
292.979
292.999
292.978
292.999
292.978
292.999
292.978
292.992
292.987
292.98
292.988
292.981
292.999
292.976
292.999
292.976
293
292.976
293
292.977
293
292.979
293.001
292.98
293
292.981
293
292.98
292.999
292.979
293
292.979
293
292.977
292.999
292.977
292.997
292.984
292.987
292.988
2506.8
2154.82
1924.08
1820.51
1777.89
1763.8
1735.68
1746.38
1716.86
1008.44
672.17
487.529
422.862
422.406
447.97
971.183
1823.93
2068.54
2092.05
2131.32
2151.85
2151.62
2138.29
2125.78
2137.57
2131.66
2158.57
2178.85
2145.78
2104.74
2069.99
2062.18
2042.31
2005.47
1906.71
1821.07
1740.72
1060.62
601.817
465.362
410.383
401.673
395.896
391.486
565.687
2232.86
2351.17
2345.57
2323.38
2286.02
2308.25
2346.2
2374.15
2388.03
2393.46
2419.93
2432.81
2435.1
2458.5
2456.75
2503.71
2556.49
2540.15
2471.56
2418.93
2479.29
2461.95
2589.45
1189.69
452.711
389.497
389.002
382.664
383.555
653.236
2535.17
2590.05
2820.54
2830.61
2816.79
2811.76
2714.27
2524.89
2442.01
2445.75
2603.17
2599.86
2536.51
2515.06
2465.17
2407.68
2351.52
2392
2344.38
1009.51
557.75
446.534
434.832
430.338
432.652
432.223
426.736
421.666
419.307
342.681
340.624
339.227
341.193
338.053
338.273
332.924
330.464
342.059
332.268
352.342
347.577
361.765
369.413
370.52
377.771
375.433
379.872
378.574
379.295
382.199
384.071
387.673
389.397
390.601
390.731
392.641
393.423
396.992
401.092
324.223
323.897
325.035
325.648
326.491
327.11
327.236
327.257
326.974
326.661
325.428
324.702
323.585
320.853
321.201
317.841
318.183
315.76
315.389
313.717
313.653
311.478
311.359
310.331
308.96
309.338
307.696
308.017
307.534
307.087
296.632
296.46
296.284
296.17
296.019
295.899
295.737
295.571
295.405
295.233
295.069
294.921
294.76
294.657
294.477
294.416
294.245
294.123
294.086
293.917
293.917
293.766
293.774
293.648
293.659
293.561
293.573
293.509
293.514
293.496
293.085
293.081
293.076
293.076
293.068
293.069
293.061
293.061
293.051
293.051
293.042
293.042
293.036
293.038
293.032
293.033
293.028
293.028
293.023
293.025
293.02
293.023
293.02
293.021
293.018
293.018
293.017
293.018
293.016
293.019
293.017
293.016
293.015
293.015
293.014
293.014
293.015
293.016
293.015
293.015
293.015
293.015
293.015
293.016
293.016
293.016
293.016
293.015
293.014
293.015
293.014
293.016
293.016
293.016
293.014
293.014
293.014
293.014
293.014
293.017
293.018
293.014
293.015
293.014
293.015
293.014
293.016
293.016
293.015
293.014
293.015
293.014
293.015
293.016
293.016
293.016
293.016
293.015
293.015
293.017
293.015
293.016
293.016
293.016
293.013
293.015
293.014
293.014
293.014
293.02
293.017
293.016
293.014
293.015
293.015
293.015
293.016
293.016
293.015
293.015
293.015
293.015
293.015
293.016
293.016
293.016
293.015
293.016
293.014
293.015
293.014
293.015
293.015
293.015
293.014
293.015
293.014
293.014
293.014
293.017
293.018
293.014
293.014
293.014
293.014
293.013
293.015
293.016
293.015
293.015
293.015
293.016
293.015
293.015
293.016
293.016
293.015
293.015
293.016
293.016
293.015
293.015
293.016
293.015
293.014
293.014
293.015
293.013
293.015
293.018
293.016
293.014
293.014
293.015
293.013
293.014
293.014
293.016
293.014
293.016
293.016
293.016
293.015
293.016
293.016
293.016
293.016
293.017
293.016
293.016
293.015
293.015
293.015
293.015
293.014
293.015
293.015
293.014
293.014
293.018
2228.14
2052.9
1995.05
2000.01
1913.03
1803.39
1819.37
1760.49
1799.94
1698.3
1433.5
759.812
494.09
420.814
561.551
1605.18
2063.88
2107.76
2179.09
2260.03
2279.46
2291.33
2295.03
2333.17
2393.34
2427.56
2462.58
2447.34
2396.64
2371.07
2383.41
2434.61
2453.31
2415.61
2336.78
2149.4
1946.72
1671.11
1454.7
858.5
470.072
402.197
397.198
393.468
567.741
2244.08
2327.41
2328.51
2242.93
2226.96
2176.12
2218.03
2243.44
2245.81
2255.02
2272.98
2317.75
2338.57
2329.37
2314.11
2359.82
2470.04
2573.49
2492.96
2433.75
2413.19
2449.91
2446.47
2539.48
844.962
417.46
388.047
384.943
383.32
667.632
2408.8
2675.67
2828.44
2757.76
2798.98
1180.42
587.421
526.072
598.531
849.974
2381.22
2548.02
2613.44
2556.29
2509.43
2450.37
2479.34
2466.27
2440.08
2314.88
2248.9
907.105
529.428
436.975
428.858
432.332
430.647
421.658
416.061
345.617
346.111
346.475
344.764
345.649
338.701
340.271
340.261
345.256
343.033
356.979
353.666
374.495
367.557
380.571
374.901
383.367
378.102
382.794
381.258
382.347
385.505
387.598
389.878
390.044
390.47
389.194
391.091
396.706
399.714
322.926
323.664
325.362
324.888
327.098
327.098
327.708
326.725
327.111
326.177
326.332
324.645
324.894
322.364
321.198
320.225
316.96
317.899
314.281
315.198
312.222
313.058
310.152
311.333
308.453
309.637
307.701
307.664
307.588
306.857
296.391
296.411
296.565
296.259
296.289
295.937
295.91
295.563
295.532
295.197
295.181
294.872
294.861
294.58
294.57
294.313
294.313
294.071
294.103
293.882
293.925
293.734
293.776
293.62
293.657
293.536
293.572
293.486
293.513
293.466
293.086
293.077
293.085
293.065
293.073
293.055
293.06
293.045
293.05
293.035
293.041
293.028
293.034
293.022
293.027
293.018
293.023
293.014
293.018
293.01
293.014
293.007
293.011
293.005
293.008
293.004
293.006
293.005
293.003
293.005
293.003
293.001
293.004
293.002
293.005
293.001
293.005
293.002
293.006
293.002
293.006
293.003
293.007
293.005
293.006
293.004
293.007
293.003
293.006
293.002
293.005
293.002
293.005
293.002
293.004
293.001
293.004
293.002
293.001
293.003
293.002
293.002
293.001
293.003
293.001
293.004
293.001
293.005
293.002
293.006
293.002
293.006
293.003
293.006
293.005
293.007
293.004
293.006
293.004
293.005
293.005
293.003
293.005
293.002
293.004
293.001
293.005
293.001
293.003
293.001
293.003
293.001
293.004
293.001
293.005
293.001
293.005
293.002
293.006
293.002
293.006
293.003
293.007
293.003
293.007
293.004
293.007
293.004
293.006
293.002
293.006
293.002
293.005
293.002
293.004
293.001
293.003
293.002
293.001
293.003
292.999
293.003
293.001
293.001
293.004
293
293.005
293.002
293.005
293.002
293.005
293.002
293.006
293.003
293.006
293.006
293.003
293.006
293.002
293.006
293.002
293.005
293.002
293.005
293
293.004
293.001
293.003
293.003
293.001
293.002
293.001
293.003
293
293.003
293
293.005
293.001
293.005
293.002
293.006
293.002
293.006
293.003
293.006
293.003
293.005
293.002
293.006
293.002
293.006
293.002
293.005
293.002
293.005
293.001
293.004
293.002
293.001
293.002
2110.16
2231.42
2426.72
2475.53
2384.28
2356.32
2522.11
2470.46
2339.93
2337.49
2190.18
1579.54
760.518
453.867
675.244
1817.69
2196.22
2226.04
2380.62
2421.03
2459.32
2536.36
2619.45
2642.84
2618.49
2611.78
2619.43
2618.99
2621.47
2618.73
2627.97
2627.24
2631.78
2643.34
2638.58
2537.15
2249.62
1882.57
1550.76
1366.41
574.781
402.739
395.609
392.448
519.642
2478.65
2359.75
2310.56
2278.47
2191.3
2161.98
2144.44
2131.17
2123.57
2126.79
2152.92
2183.54
2225.98
2247.87
2265.98
2280.98
2298.4
2434.38
2578.32
2536.44
2468.5
2381.68
2350.2
2474.35
2521.22
620.674
395.702
384.752
385.82
677.108
2474.94
2654.52
2679.52
2549.54
2464.94
618.335
477.021
554.816
932.516
1250.57
2382.08
2434.99
2636.22
2582.62
2504.75
2486.36
2528.83
2551.9
2503.71
2448.21
2368.54
2313.47
2192.27
716.852
439.431
426.351
430.383
424.484
415.654
348.154
348.572
350.565
351.352
350.887
353.071
349.679
351.673
347.736
362.024
347.821
378.251
370.213
388.003
380.835
388.325
382.152
387.617
381.707
384.586
383.586
384.596
386.926
387.849
388.991
387.587
387.848
390.182
393.138
398.021
322.906
322.872
323.714
326.266
326.087
328.685
327.551
328.195
326.701
326.882
325.871
325.614
324.464
324.246
320.979
321.865
317.536
317.815
315.291
314.563
312.784
312.729
310.275
310.875
308.959
308.73
308.269
307.316
307.38
307.001
296.965
296.977
296.691
296.593
296.322
296.228
295.939
295.817
295.538
295.414
295.156
295.042
294.815
294.714
294.529
294.427
294.291
294.182
294.08
293.978
293.902
293.815
293.736
293.695
293.61
293.595
293.53
293.527
293.482
293.479
293.089
293.09
293.077
293.082
293.066
293.07
293.054
293.057
293.043
293.047
293.033
293.037
293.025
293.029
293.018
293.023
293.013
293.019
293.009
293.015
293.007
293.012
293.003
293.009
293.002
293.008
293.001
293.004
293.003
293.001
292.998
293.002
292.998
293.003
292.998
293.003
292.999
293.004
292.999
293.005
293
293.004
293
293.005
293
293.005
293
293.005
292.999
293.005
292.999
293.004
292.998
293.003
292.999
293.003
292.999
293.001
293.001
292.998
293
293
293.002
292.998
293.003
292.998
293.003
292.998
293.004
292.999
293.005
293
293.005
293
293.004
293
293.004
293
293.003
293.001
293
293.005
292.999
293.003
292.998
293.004
292.999
293.004
292.999
293.002
292.998
293.002
292.998
293.003
292.998
293.003
292.998
293.003
292.999
293.005
293
293.004
293
293.005
293
293.005
293
293.005
292.999
293.005
292.999
293.004
292.998
293.003
292.998
293.003
292.999
293.001
293.001
292.998
293.002
293
293.001
293.003
292.999
293.004
292.998
293.004
293
293.005
293
293.004
293
293.005
293.001
293.001
293.005
293
293.004
293
293.005
292.999
293.003
292.998
293.003
292.999
293.003
293
293
293.001
292.997
293.001
292.996
293.002
292.997
293.003
292.997
293.003
292.998
293.004
292.999
293.005
292.999
293.005
293
293.005
293.001
293.005
292.999
293.004
293
293.005
292.998
293.003
292.998
293.003
292.999
293.001
292.999
292.998
2263.34
2543.38
2661.72
2732.48
2789.64
2850.11
2865.08
2830.4
2671.54
2400.46
2279.37
2067.41
1456.43
548.808
884.446
1987.77
2337.25
2458.93
2556.02
2599.82
2633.73
2591.82
2526.22
2482.87
2480.51
2503.4
2517.56
2526.54
2532.51
2533.94
2532.09
2556.09
2607.83
2646.58
2653.24
2629.24
2422.86
2012.54
1652.34
1530.6
454.098
437.197
391.312
392.85
457.799
1069.96
2358.48
2375.32
2321.21
2316.65
2266.24
2206.45
2138.59
2080.07
2064.78
2106.75
2188.84
2288.83
2398.22
2492.37
2478.78
2438.19
2387.9
2451.29
2538.82
2601.29
2520.41
2343.61
2387.44
2506.7
2435.23
502.511
387.723
379.572
611.537
1421.6
2560.97
2374.32
2501.77
896.501
489.858
648.595
1074.79
2465.49
2421.7
2376.28
2418.89
2618.05
2487.55
2461.43
2499.68
2552.9
2561.14
2531.53
2468.78
2403.49
2337.41
2311.27
2113
677.03
431.231
423.039
424.648
416.741
348.991
351.983
351.392
350.686
356.819
355.607
361.547
355.607
356.325
355.421
370.214
375.06
391.668
387.732
394.615
391.181
394.72
386.376
389.486
384.386
385.703
384.231
384.04
385.295
384.838
385.982
386.908
388.928
391.531
394.015
322.447
320.335
325.684
324.363
328.935
326.731
330.118
328.231
328.457
326.645
326.808
325.277
325.572
323.648
322.306
321.418
318.779
318.273
315.086
315.693
312.511
313.086
310.608
310.856
309.064
308.997
307.839
307.684
306.934
306.736
296.992
297.255
297.084
296.96
296.669
296.461
296.163
295.976
295.683
295.527
295.255
295.11
294.875
294.761
294.578
294.457
294.336
294.184
294.138
293.959
293.962
293.782
293.799
293.678
293.598
293.617
293.513
293.537
293.471
293.47
293.11
293.107
293.103
293.089
293.085
293.071
293.069
293.057
293.055
293.045
293.043
293.034
293.033
293.026
293.025
293.019
293.02
293.014
293.015
293.01
293.013
293.008
293.011
293.005
293.007
293.004
293.005
293.002
293.004
293.003
293.003
293.001
293.002
293.001
293.002
293.001
293.003
293.002
293.003
293.002
293.003
293.002
293.003
293.002
293.003
293.002
293.003
293.002
293.003
293.002
293.003
293.002
293.004
293.001
293.002
293.001
293.001
293.001
293.001
293.001
293.001
293.001
293.001
293.002
293.001
293.002
293.001
293.003
293.002
293.003
293.002
293.003
293.002
293.003
293.002
293.003
293.002
293.003
293.003
293.003
293.003
293.003
293.003
293.001
293.002
293.001
293.002
293.002
293.002
293
293.002
293.001
293.002
293.001
293.002
293.001
293.002
293.002
293.004
293.002
293.002
293.002
293.003
293.002
293.003
293.002
293.003
293.002
293.003
293.002
293.003
293.002
293.004
293.001
293.002
293.001
293.001
293
293.001
293.001
293
293.001
293.001
293.001
293.001
293.001
293.002
293.002
293.004
293.003
293.003
293.002
293.003
293.003
293.003
293.004
293.003
293.004
293.003
293.004
293.002
293.004
293.003
293.002
293.001
293.002
293.001
293.001
293.001
293
293.002
293
293.001
293
293.002
293.001
293.003
293.001
293.003
293.002
293.004
293.002
293.005
293.004
293.004
293.003
293.003
293.003
293.004
293.002
293.003
293.002
293.004
293.001
293.002
293
293.001
293
293.001
293.002
2539.76
2656.81
2755.47
2845.8
2863.97
2807.59
2800.66
2828.25
2410.7
2000.64
1896.45
1949.76
1731.38
649.79
1687.57
2176.1
2535.74
2609.02
2610.3
2580.16
2512.33
2444.51
2395.26
2378.02
2389.77
2403.19
2422.82
2419.07
2405.91
2410.32
2456.22
2549.92
2640.95
2571.95
2534.75
2561.6
2459.88
2087.76
1766.17
1582.3
583.74
771.426
408.515
386.88
440.653
907.131
2409.89
2414.41
2451.3
2484.1
2501.83
2421.97
2262.15
2109.02
2074.24
2175.18
2398.67
2650.96
2657.74
2585.71
2584.81
2622.28
2661.32
2527.92
2429.97
2406.7
2507.52
2551.04
2349.96
2338.3
2468.94
730.544
402.253
398.208
544.662
699.254
1163.6
1005.7
726.776
519.693
538.758
2642.63
2652.83
2572.53
2467.32
2411.19
2462.09
2601.05
2384.58
2420.51
2485.23
2529.52
2529.11
2455.85
2409.08
2350.67
2309.7
2263.09
2190.27
1287.19
537.37
419.767
417.224
420.135
349.47
347.039
347.504
352.782
352.84
356.937
357.069
360.584
355.741
369.395
359.73
391.284
384.938
396.353
394.505
397.103
394.127
396.862
388.8
390.478
383.823
384.074
382.766
381.448
384.041
384.99
385.288
387.422
387.933
390.44
320.635
324.724
322.948
330.969
327.415
331.075
329.134
331.11
328.503
328.357
326.271
326.327
324.987
324.676
322.607
322.624
318.704
319.894
315.049
316.253
312.74
312.863
311.008
310.551
309.178
308.889
307.554
307.619
306.515
306.337
297.451
297.773
297.332
297.232
296.83
296.697
296.362
296.143
295.866
295.627
295.412
295.179
294.985
294.806
294.634
294.496
294.349
294.224
294.149
293.957
293.969
293.793
293.781
293.682
293.629
293.588
293.528
293.524
293.463
293.467
293.127
293.119
293.103
293.105
293.087
293.086
293.068
293.069
293.054
293.054
293.04
293.042
293.029
293.03
293.022
293.023
293.015
293.018
293.012
293.012
293.008
293.01
293.005
293.006
293.002
293.004
293.001
293.002
293.001
293.001
292.998
293
292.998
293.002
292.998
293.002
292.998
293.002
292.999
293.002
292.999
293.003
293
293.003
293.001
293.003
293
293.003
293
293.002
292.999
293.003
292.998
293.001
292.998
293.001
292.998
292.999
292.999
292.998
292.999
292.999
293
292.998
293.002
292.997
293.002
292.998
293.003
292.999
293.002
293
293.003
293
293.002
293
293.002
293
293.001
293.001
293
293.003
292.998
293.002
292.998
293.001
292.997
293
292.998
293
292.998
293
292.998
293.001
292.997
293.001
292.998
293.002
292.999
293.002
292.999
293.002
293
293.002
293
293.002
293
293.002
292.999
293.002
292.999
293.003
292.998
293.002
292.998
293.001
292.998
292.999
292.999
292.998
293.001
292.999
293
293
292.999
293.001
292.998
293.002
292.999
293.003
292.999
293.003
293
293.002
293.001
293.001
293.003
293
293.003
292.999
293.002
293
293.003
292.998
293.001
292.998
293
292.999
293
293
292.997
293
292.998
293.001
292.997
293.001
292.997
293.002
292.999
293.003
292.999
293.003
293
293.004
293
293.003
293
293.003
293.001
293.003
292.999
293.003
292.998
293.002
292.997
293.001
292.998
292.999
292.999
292.997
2640.2
2707.43
2814.44
2811.97
2686.19
2607.23
2696.24
2718.72
2102.69
1891.51
1840.33
1820.47
1738.7
1260.59
1926.91
2406.17
2621.87
2595.41
2544.52
2482.02
2422.77
2366.1
2340.59
2338.42
2329.38
2330.68
2318.59
2303.39
2302.54
2372.1
2530.42
2605.14
2303.63
2221.77
2322.37
2416.54
2271.33
1945.34
1702.57
1601.61
1593.59
1676.77
436.682
388.658
423.343
782.626
2409.63
2483.67
2506.86
2517.06
2525.58
2533.8
2372.69
2121.58
2106.57
2308.27
2658.69
2579.94
2473.72
2406.54
2379.93
2389.29
2450.01
2583.44
2684.14
2514.6
2438.88
2546.42
2521.54
2317.79
2407.29
2392.69
477.381
395.144
540.841
525.277
563.432
545.019
496.657
481.639
697.908
2677.48
2524.8
2500.89
2464.96
2433.47
2587.48
2594.55
2321.16
2371.57
2434.39
2427.05
2381.84
2306.46
2254
2236.19
2200.54
2173.75
2148.97
2045.22
1117.08
500.634
414.141
422.953
343.474
345.427
353.742
361.734
368.132
368.467
367.448
361.049
364.767
360.689
373.405
368.009
388.634
385.841
393.76
395.399
399.3
396.499
397.508
386.762
389.63
380.923
380.043
380.529
379.009
381.047
384.25
386.421
387.58
386.457
324.543
321.663
331.221
327.734
335.94
332.284
334.129
331.197
331.317
327.658
328.086
325.664
326.013
323.915
324.367
321.63
320.193
319.466
316.496
315.935
313.527
313.193
310.95
311.061
309.088
309.07
307.585
307.595
306.723
306.044
296.426
298.374
297.54
297.886
296.982
297.088
296.336
296.443
295.808
295.851
295.412
295.304
295.043
294.87
294.711
294.517
294.42
294.246
294.143
294.06
293.912
293.893
293.741
293.74
293.614
293.62
293.522
293.532
293.47
293.462
293.112
293.155
293.123
293.122
293.098
293.094
293.079
293.073
293.062
293.055
293.049
293.043
293.035
293.034
293.025
293.026
293.019
293.019
293.015
293.014
293.012
293.01
293.01
293.008
293.007
293.006
293.005
293.005
293.005
293.005
293.002
293.002
293.002
293.001
293.003
293.002
293.004
293.001
293.003
293.002
293.003
293.002
293.003
293.002
293.003
293.003
293.003
293.002
293.003
293.002
293.003
293.001
293.004
293.001
293.003
293.001
293.002
293.001
293.002
293.002
293.002
293.001
293.001
293.002
293.001
293.003
293.002
293.004
293.001
293.003
293.002
293.003
293.002
293.003
293.003
293.003
293.003
293.003
293.004
293.003
293.003
293.001
293.003
293.002
293.003
293.001
293.002
293.001
293.001
293.001
293.002
293.001
293.002
293.001
293.002
293.001
293.003
293.002
293.003
293.002
293.003
293.002
293.003
293.002
293.003
293.003
293.003
293.002
293.003
293.002
293.003
293.002
293.004
293.002
293.003
293.001
293.002
293.001
293.002
293.002
293.002
293.002
293.002
293.002
293.002
293.001
293.003
293.002
293.004
293.001
293.003
293.002
293.003
293.002
293.003
293.003
293.003
293.003
293.003
293.003
293.002
293.003
293.002
293.003
293.002
293.002
293.002
293.002
293.002
293.002
293.002
293
293.002
293.001
293.003
293.001
293.003
293.001
293.004
293.002
293.003
293.003
293.005
293.003
293.005
293.004
293.004
293.003
293.004
293.003
293.004
293.002
293.003
293.001
293.003
293.001
293.001
293.002
293.002
293.001
2640.69
2715.7
2756.97
2645.36
2481.5
2486.4
2732.47
2464.99
2137.02
2185.93
2267.54
2153.48
1918.59
1797.92
2059.56
2062.09
2105.72
2639.9
2614.46
2568.43
2513.98
2467.89
2421.65
2392.36
2354.15
2299.96
2277.83
2266.78
2241.81
2229.34
2303.49
2516.14
2483.82
2074.37
1944.44
2013.78
2171.42
2226.96
2089.21
1894.52
1791.31
1769.9
1784.57
1850.28
410.393
391.717
399.41
406.875
412.144
700.006
2442.01
2516.08
2462.16
2471.91
2512.16
2529.65
2386
2109.55
2113.06
2328.93
2649.32
2634.4
2586.17
2557.69
2520.32
2449.06
2378.05
2376.27
2469.36
2636.89
2679.1
2515.95
2623.3
2433.14
2327.89
2553.84
1649.39
522.845
460.838
434.328
454.082
468.93
504.993
495.178
478.365
500.039
1100.73
2323.51
2625.58
2650.46
2639.63
2615.47
2759.97
2524.58
2278.36
2296.22
2312.18
2278.79
2224.61
2171.26
2165.01
2127.76
2099.56
2114.67
2115.62
2087.14
1975.56
939.239
471.497
397.799
374.299
377.337
384.288
372.924
369.763
371.736
364.809
360.094
354.423
353.751
353.267
366.436
351.599
372.738
370.58
384.681
385.676
395.425
399.892
401.88
394.323
396.551
382.191
386.059
378.146
376.741
377.29
378.878
380.685
381.249
375.79
371.248
330.752
336.008
322.305
331.754
327.216
336.21
333.945
336.583
334.709
335.362
330.446
331.023
326.907
327.293
325.081
325.008
323.233
322.848
320.321
320.34
316.328
317.395
312.961
314.239
310.605
311.378
308.813
308.906
306.985
306.903
304.773
304.651
301.609
301.76
299.762
299.556
298.803
298.173
297.781
297.313
296.937
296.57
296.199
295.905
295.655
295.363
295.147
294.958
294.719
294.647
294.391
294.357
294.14
294.101
293.932
293.895
293.763
293.73
293.624
293.612
293.503
293.497
293.412
293.4
293.295
293.327
293.209
293.2
293.158
293.143
293.116
293.108
293.085
293.083
293.062
293.063
293.045
293.048
293.032
293.035
293.024
293.024
293.018
293.018
293.011
293.013
293.007
293.01
293.005
293.007
293.003
293.004
293.001
293.002
293.001
293
293.006
293.006
292.999
292.999
292.998
293
292.998
293
292.998
293
292.998
293
292.998
293
292.999
293
292.999
293
292.999
293
292.999
293
292.998
293.001
292.998
293
292.998
293
292.998
292.999
292.998
292.997
293.004
293.004
292.998
292.998
292.999
292.998
293
292.998
293
292.998
293.001
292.998
293
292.999
293
292.999
293
293
293
293
292.999
293
292.999
293
292.998
292.999
292.998
293
292.998
292.999
292.998
292.998
293.004
293.005
292.998
292.999
292.998
292.999
292.998
292.999
292.998
293
292.999
293
292.999
293
292.999
293
292.999
293
292.999
293
292.999
293
292.998
293.001
292.999
293.001
292.998
293
292.998
292.999
292.998
292.998
293.004
293.004
292.998
292.998
292.998
292.999
292.998
293
292.998
293.001
292.998
293.001
292.998
293
292.999
293
292.999
293
293
292.999
293
292.999
293
292.998
293.001
292.998
293
292.998
292.999
292.998
292.998
292.998
293.004
293.003
292.997
292.998
292.997
293
292.998
293
292.998
293.001
292.998
293.001
292.998
293
292.998
293.001
293
293.002
293.001
293.001
292.999
293.001
292.999
293.001
292.998
293
292.997
293
292.998
292.999
292.998
292.998
293.003
293.003
2591.09
2640.69
2633.68
2478.99
2367.19
2446.3
2754.41
2564.22
2364.14
2479.76
2552.89
2486.76
2329.26
2306.68
2270.45
2225.55
2491.65
2663.92
2647.24
2615.94
2579.65
2542.48
2494.07
2428.21
2340.01
2283.96
2244.61
2207.18
2196.71
2235.3
2448.16
2557.8
2037.05
1828.95
1829.98
1923.45
1999.7
1990.09
1909.57
1847.82
1822.74
1829.09
1852.99
2019.72
441.733
443.729
429.672
420.761
425.141
482.227
642.261
968.466
2387.74
2451.42
2496.62
2525.21
2421.26
2128.88
2097.69
2205.07
2367.54
2481.38
2539.27
2563
2589.06
2629.03
2630.85
2500.53
2371.54
2390.77
2534.19
2707.81
2557.44
2614.24
2376.95
2463.02
2417.27
1790.32
757.812
498.531
485.552
504.749
505.839
501.102
500.054
606.832
2102.04
2504.54
2786.33
2815.84
2818.86
2807.23
2741.29
2559.34
2290.59
2240.1
2235.16
2198.3
2165.95
2170.82
2141.97
2117.36
2117.62
2092.36
2077.16
2057.26
2014.09
1932.28
883.178
486.207
377.027
375.165
361.817
361.091
353.918
344.299
344.919
349.462
368.683
419.853
465.739
487.61
468.714
418.148
389.864
375.213
385.895
393.419
401.671
401.894
402.525
388.039
392.807
378.464
382.44
377.279
376.519
376.745
377.508
377.064
372.568
363.029
343.052
336.165
337.489
328.04
331.703
331.61
338.555
337.911
338.43
335.401
334.691
328.512
329.932
326.134
326.595
324.116
324.273
321.873
322.203
319.191
317.358
317.457
313.835
313.959
311.273
311.192
308.839
309.091
306.868
306.848
304.841
304.774
302.059
302.228
299.873
300.08
298.882
298.518
297.843
297.43
297.012
296.572
296.248
296.016
295.618
295.515
295.137
295.059
294.752
294.665
294.436
294.364
294.166
294.119
293.946
293.914
293.775
293.751
293.635
293.617
293.522
293.493
293.431
293.394
293.323
293.299
293.228
293.198
293.167
293.15
293.121
293.114
293.094
293.082
293.072
293.064
293.051
293.05
293.04
293.037
293.031
293.027
293.023
293.022
293.016
293.015
293.012
293.011
293.009
293.008
293.007
293.006
293.005
293.004
293.003
293.003
293.002
293.002
293.002
293.001
293.001
293.002
293.002
293.001
293.003
293.001
293.002
293.001
293.002
293.002
293.003
293.002
293.002
293.002
293.003
293.002
293.003
293.001
293.002
293.001
293.002
293.001
293.002
293.001
293.002
293.001
293.001
293.001
293.001
293.001
293.001
293.001
293
293.002
293.001
293.002
293.001
293.003
293.001
293.002
293.001
293.003
293.002
293.003
293.002
293.002
293.003
293.002
293.003
293.001
293.002
293.002
293.002
293
293.002
293.001
293.002
293.001
293.001
293
293.001
293
293.001
293.001
293.001
293.002
293.002
293.001
293.002
293.002
293.002
293.002
293.002
293.002
293.003
293.002
293.002
293.002
293.003
293.002
293.003
293.001
293.002
293.001
293.002
293.001
293.002
293.001
293.002
293.001
293.001
293.001
293.001
293
293.001
293
293.001
293.002
293.002
293.001
293.002
293.001
293.002
293.001
293.002
293.002
293.003
293.002
293.002
293.002
293.002
293.003
293.002
293.002
293.001
293.003
293.001
293.002
293.001
293.002
293.001
293.002
293.001
293.001
293
293
293.002
293.001
293.001
293.002
293.002