/*--------------------------------*- C++ -*----------------------------------*\
| =========                 |                                                 |
| \\      /  F ield         | OpenFOAM: The Open Source CFD Toolbox           |
|  \\    /   O peration     | Version:  2.1.1                                 |
|   \\  /    A nd           | Web:      www.OpenFOAM.org                      |
|    \\/     M anipulation  |                                                 |
\*---------------------------------------------------------------------------*/
FoamFile
{
    version     2.0;
    format      ascii;
    class       volVectorField;
    location    "0.002450000";
    object      U;
}
// * * * * * * * * * * * * * * * * * * * * * * * * * * * * * * * * * * * * * //

dimensions      [0 1 -1 0 0 0 0];

internalField   nonuniform List<vector> 
12384
(
(-3.43796 3.3081 0)
(9.67814 -1.78833 0)
(16.8989 -5.88834 0)
(16.0732 -6.42364 0)
(16.1319 -3.20377 0)
(9.59396 -3.34738 0)
(-4.54038 -10.208 0)
(15.6008 8.60831 0)
(17.1711 -116.064 0)
(1.87701 13.2291 0)
(4.83287 -1.26037 0)
(0.456315 11.0887 0)
(7.58854 6.94711 0)
(10.1698 10.8454 0)
(1.97988 3.82871 0)
(-11.8266 -0.530046 0)
(-8.95583 2.99993 0)
(15.3491 5.82313 0)
(16.0918 -7.58846 0)
(-3.94608 -12.9684 0)
(-2.29013 -40.7386 0)
(-1.37652 -5.15795 0)
(-3.67144 -2.78293 0)
(-4.98134 11.4857 0)
(-21.4413 10.7404 0)
(-36.2793 6.46228 0)
(-59.7916 7.65826 0)
(-57.2452 -10.8577 0)
(-29.9624 8.56592 0)
(3.11699 -22.7199 0)
(-4.58279 19.4877 0)
(-0.678482 7.62486 0)
(41.6073 15.6521 0)
(50.6686 -2.3836 0)
(45.1474 2.02141 0)
(39.3447 -2.97103 0)
(40.2222 -13.4242 0)
(61.3908 -7.81909 0)
(77.7797 -4.45067 0)
(78.4505 -12.9291 0)
(67.4351 -9.80794 0)
(44.2624 -16.5232 0)
(18.2066 -14.5211 0)
(2.07253 -20.916 0)
(-22.557 -9.05634 0)
(-9.59413 -30.2904 0)
(7.05344 -3.90898 0)
(10.3712 -42.3657 0)
(-40.2192 -28.913 0)
(-75.8014 2.55319 0)
(-89.6559 -8.65192 0)
(-125.256 2.70704 0)
(-135.296 5.82061 0)
(-121.75 9.49261 0)
(-97.8713 3.93748 0)
(-78.0985 1.93134 0)
(-59.1181 -0.665907 0)
(-58.7895 -2.83481 0)
(-64.5738 16.8546 0)
(-47.6348 21.8376 0)
(-14.6965 15.4098 0)
(23.543 22.4188 0)
(40.2791 10.1421 0)
(47.3139 7.51173 0)
(55.8771 8.61895 0)
(59.2078 12.1264 0)
(65.1994 -30.5339 0)
(71.2027 -4.43734 0)
(61.5795 -7.32773 0)
(30.7575 -7.87748 0)
(-17.3186 -1.98138 0)
(-37.5853 4.14692 0)
(-37.4074 -1.90702 0)
(-13.0812 5.5586 0)
(-8.98338 12.7466 0)
(45.8292 34.1085 0)
(38.467 61.9197 0)
(-14.5645 -13.0596 0)
(-5.1645 -26.4089 0)
(94.4653 -52.5645 0)
(166.99 30.0363 0)
(142.356 71.168 0)
(12.0771 15.0169 0)
(-52.2688 -28.5878 0)
(-35.0763 -51.0765 0)
(-30.4603 -41.2485 0)
(36.9377 -1.71964 0)
(-11.8601 2.65744 0)
(-47.8112 18.2928 0)
(-30.8818 43.102 0)
(29.5481 21.0712 0)
(77.0746 -1.85397 0)
(71.0956 -19.6106 0)
(53.9376 -25.8333 0)
(34.3321 -13.1515 0)
(35.4908 -5.35636 0)
(56.2469 -3.79541 0)
(69.9679 -4.37828 0)
(78.22 -7.3295 0)
(59.2471 -2.91371 0)
(37.805 3.00653 0)
(20.7333 2.8235 0)
(5.02707 2.12205 0)
(2.88486 0.44821 0)
(-9.41749 9.09532 0)
(-22.9929 10.1755 0)
(-45.9222 2.82459 0)
(-66.2123 11.03 0)
(-86.164 5.28976 0)
(-115.346 10.6823 0)
(-125.603 11.7688 0)
(-147.693 1.38683 0)
(-132.974 7.9661 0)
(-136.664 -10.6537 0)
(-102.615 -2.60114 0)
(-81.164 -17.4544 0)
(-49.8533 -9.25931 0)
(-18.7425 -18.6768 0)
(7.61034 -12.5183 0)
(35.679 -15.3912 0)
(53.6579 -11.695 0)
(73.7283 -11.4734 0)
(89.3082 -8.42473 0)
(100.382 -8.64263 0)
(104.213 -5.59149 0)
(106.491 -5.35433 0)
(104.313 -1.52339 0)
(104.086 -0.662234 0)
(105.292 3.20591 0)
(106.772 2.93155 0)
(102.524 5.21107 0)
(91.6115 2.48323 0)
(65.4789 0.462162 0)
(25.0125 -3.38587 0)
(-0.124779 -0.411466 0)
(0.929231 -3.22753 0)
(4.33388 -3.71239 0)
(10.8022 -5.26255 0)
(18.7955 -6.07492 0)
(28.1578 -6.81619 0)
(37.322 -7.29499 0)
(45.943 -7.39459 0)
(53.6746 -7.23878 0)
(59.7379 -6.27247 0)
(61.6546 -6.4123 0)
(64.3135 -4.32961 0)
(65.8086 -4.48424 0)
(63.244 -3.14852 0)
(65.3751 -2.51007 0)
(61.9463 -2.79502 0)
(59.1978 -1.15412 0)
(59.7109 -2.19884 0)
(54.7767 -0.955912 0)
(51.9818 -1.36477 0)
(49.5839 -0.291768 0)
(43.8534 -0.957086 0)
(41.7552 0.406517 0)
(35.6219 -0.749427 0)
(30.6767 0.248553 0)
(26.5434 0.217444 0)
(19.9622 0.237509 0)
(14.7687 0.941393 0)
(8.15458 0.347338 0)
(1.89167 1.00049 0)
(0.477032 -0.913537 0)
(1.5861 -0.858359 0)
(2.24101 -1.61066 0)
(3.04667 -0.667848 0)
(3.95349 -1.20898 0)
(4.38662 -0.563677 0)
(4.84448 -0.729532 0)
(4.95222 -0.481555 0)
(5.13593 -0.449297 0)
(4.80585 -0.389575 0)
(4.91876 -0.305294 0)
(4.54468 -0.294555 0)
(4.43112 -0.236533 0)
(4.13016 -0.222226 0)
(3.91344 -0.162464 0)
(3.63763 -0.131706 0)
(3.39513 -0.168425 0)
(3.10586 -0.0637886 0)
(2.83644 -0.148832 0)
(2.57815 -0.039477 0)
(2.30703 -0.0997292 0)
(2.0631 -0.0243145 0)
(1.79817 -0.0527179 0)
(1.56031 -0.0138536 0)
(1.30346 -0.0182955 0)
(1.07405 -0.00430284 0)
(0.817436 -0.00216856 0)
(0.599759 0.00704295 0)
(0.343831 0.00556789 0)
(0.165974 0.0221989 0)
(0.00715643 -0.0547895 0)
(0.0256228 -0.0384446 0)
(0.0373893 -0.0492188 0)
(0.0566623 -0.0145236 0)
(0.0793923 -0.0351899 0)
(0.0823747 -0.00921118 0)
(0.0923611 -0.0187407 0)
(0.0832267 -0.0104046 0)
(0.0815312 -0.00796489 0)
(0.0779452 -0.0105835 0)
(0.0729812 -0.00387449 0)
(0.0671034 -0.00845548 0)
(0.0596615 -0.0021117 0)
(0.0545145 -0.00579341 0)
(0.0462569 -0.00209435 0)
(0.0437851 -0.0038256 0)
(0.0342706 -0.0024911 0)
(0.0340456 -0.00206082 0)
(0.0250284 -0.00274362 0)
(0.0252733 -0.000369288 0)
(0.017626 -0.00268057 0)
(0.0170985 0.00129101 0)
(0.0118345 -0.00211765 0)
(0.00864409 0.00145082 0)
(0.00690186 -0.00164646 0)
(0.00336848 -1.46369e-05 0)
(0.0027681 -0.00132968 0)
(0.000432196 -0.00109992 0)
(0.00160677 -0.00226149 0)
(7.55615e-05 -0.000118871 0)
(-0.000166202 -0.000640425 0)
(0.000983853 -0.00140815 0)
(0.00150815 -0.000395362 0)
(0.00235565 -0.00109719 0)
(0.00225475 -0.000106356 0)
(0.00264846 -0.000740067 0)
(0.00199885 -1.40802e-05 0)
(0.00207857 -0.00058628 0)
(0.00121651 3.7159e-05 0)
(0.00113496 -0.000617539 0)
(0.000383833 1.32448e-05 0)
(0.000303503 -0.000974843 0)
(-4.91311e-05 -0.000214907 0)
(-5.91692e-05 -0.00146284 0)
(-7.17194e-05 -0.000413031 0)
(-1.29007e-05 -0.00161474 0)
(2.82165e-05 -0.000316334 0)
(-0.000132549 -0.00122921 0)
(-0.000189737 -5.9788e-05 0)
(-0.000850825 -0.000664476 0)
(-0.00104317 0.000108699 0)
(-0.00202442 -0.000386739 0)
(-0.0023002 7.59923e-05 0)
(-0.00340741 -0.000564276 0)
(-0.00356602 -5.62701e-05 0)
(-0.00423094 -0.00103612 0)
(-0.00370098 -0.000291609 0)
(-0.00313333 -0.00171639 0)
(-0.00068824 -0.00228617 0)
(1.5553e-05 -0.000218981 0)
(-0.000427726 0.000247359 0)
(0.000392367 -0.00248966 0)
(0.00362764 -0.00213832 0)
(0.0048299 -0.00043515 0)
(0.005426 -0.000842788 0)
(0.00464252 0.00017104 0)
(0.00434305 -0.000328934 0)
(0.00314033 0.00034161 0)
(0.00280198 -0.000357726 0)
(0.00180517 0.00023581 0)
(0.00161121 -0.000686167 0)
(0.000938546 7.00737e-06 0)
(0.000733532 -0.00116071 0)
(0.000383881 -0.000220922 0)
(0.000138835 -0.00146629 0)
(-7.91558e-05 -0.00030124 0)
(-0.000248969 -0.00141564 0)
(-0.000349303 -5.27498e-05 0)
(-0.000529034 -0.000917161 0)
(-0.000640472 0.000736538 0)
(-0.00242625 0.000807913 0)
(-0.00182994 -0.000894281 0)
(-0.00318584 0.000426825 0)
(-0.00400934 -0.000523835 0)
(-0.00402326 0.000153917 0)
(-0.00463211 -0.000799028 0)
(-0.00421104 -0.000188227 0)
(-0.00406289 -0.00134949 0)
(-0.00277757 -0.000564093 0)
(-0.00187722 -0.00072459 0)
(-6.04728e-05 -0.000607901 0)
(0.00110564 -0.00135804 0)
(0.00163772 -0.000266376 0)
(0.00244849 -0.00107711 0)
(0.00238363 -2.37628e-05 0)
(0.00275458 -0.000698072 0)
(0.0022306 0.000166489 0)
(0.00232394 -0.000564096 0)
(0.00160617 0.000204224 0)
(0.00157046 -0.000644684 0)
(0.000956101 6.26932e-05 0)
(0.000895478 -0.00104447 0)
(0.000609118 -0.000186662 0)
(0.000558241 -0.00144911 0)
(0.000501413 -0.000382478 0)
(0.000486432 -0.00156634 0)
(0.000460588 -0.000321073 0)
(0.000221058 -0.00121182 0)
(0.000105997 -8.07375e-05 0)
(-0.000598877 -0.000671164 0)
(-0.000856016 0.000100101 0)
(-0.00188012 -0.000391589 0)
(-0.00220048 8.77004e-05 0)
(-0.00333146 -0.000573925 0)
(-0.00353328 -6.8617e-05 0)
(-0.00419724 -0.00106976 0)
(-0.00369313 -0.000353411 0)
(-0.00308842 -0.00176261 0)
(-0.000696204 -0.00228229 0)
(-3.64805e-06 -0.000316853 0)
(-0.00060081 0.00207111 0)
(-0.000376502 0.000806944 0)
(0.000489342 -0.00102968 0)
(0.00370254 -0.00203995 0)
(0.00534845 -0.000317755 0)
(0.00640919 -0.000321566 0)
(0.0059527 0.000692275 0)
(0.00593266 -0.000113831 0)
(0.00497349 0.000656113 0)
(0.00466098 -0.000293366 0)
(0.00374597 0.000255738 0)
(0.00339875 -0.00082139 0)
(0.00275183 -2.55237e-05 0)
(0.00221717 -0.00114943 0)
(0.00151304 -1.4152e-05 0)
(-0.000511441 -5.81023e-05 0)
(-0.00101744 -0.00133117 0)
(-0.00133216 -0.000144356 0)
(-0.00183713 -0.00098137 0)
(-0.00209603 5.63446e-05 0)
(-0.00295463 -0.000557256 0)
(-0.00324164 0.000256943 0)
(-0.0041383 -0.000486349 0)
(-0.00402441 3.65012e-05 0)
(-0.00422309 -0.000937427 0)
(-0.00312508 -0.000426636 0)
(-0.00219872 -0.00162773 0)
(-0.000968019 -4.93233e-05 0)
(-0.00141546 -0.000262896 0)
(-0.000510263 -0.000667687 0)
(3.78374e-05 -0.000759481 0)
(0.00177664 -0.0015307 0)
(0.00272877 -0.000284481 0)
(0.00395761 -0.000894958 0)
(0.00384172 -0.000238109 0)
(0.00459872 -0.000635885 0)
(0.00399928 -0.000271731 0)
(0.0044545 -0.000577571 0)
(0.00365861 -0.000258771 0)
(0.00376456 -0.000592923 0)
(0.0028103 -0.000164203 0)
(0.00254092 -0.000772053 0)
(0.00161561 -0.000258591 0)
(0.00121873 -0.00137558 0)
(0.00073132 -0.000620333 0)
(0.000477784 -0.00182939 0)
(0.000234103 -0.000641866 0)
(-2.10783e-05 -0.00167638 0)
(-0.000271935 -0.000382735 0)
(-0.000989415 -0.00115954 0)
(-0.00136711 -0.000163632 0)
(-0.0024693 -0.000793034 0)
(-0.00286651 -0.000205106 0)
(-0.00408009 -0.00076995 0)
(-0.00433544 -0.000352362 0)
(-0.00518524 -0.00116588 0)
(-0.00459215 -0.00067651 0)
(-0.00365524 -0.0023313 0)
(-0.000898536 -0.00269169 0)
(-0.000166315 -0.000441372 0)
(-1.71431 1.21902 0)
(15.8281 -11.6555 0)
(27.2374 -16.6076 0)
(23.2936 -23.7067 0)
(30.2496 -9.92411 0)
(28.6598 -14.9669 0)
(22.7244 -7.44854 0)
(-74.3794 -10.4625 0)
(4.96482 -2.36398 0)
(37.9946 18.6708 0)
(2.2479 8.88323 0)
(2.60279 19.7156 0)
(5.76501 24.4081 0)
(12.0095 22.6299 0)
(-7.24569 17.0494 0)
(-14.1104 9.62646 0)
(0.268538 29.0737 0)
(36.541 21.7694 0)
(40.4307 -13.1215 0)
(15.0792 -12.473 0)
(3.87461 -36.7072 0)
(-12.1797 -23.7499 0)
(-13.8759 -4.10176 0)
(-9.5814 3.23881 0)
(-15.3572 8.42677 0)
(-28.2406 11.3124 0)
(-43.1041 -3.04909 0)
(-45.4472 -6.28787 0)
(-35.1012 -3.48701 0)
(-24.0521 -22.6452 0)
(-27.3264 -6.57018 0)
(-12.7931 5.97727 0)
(40.0589 14.5834 0)
(66.0905 -1.02964 0)
(68.458 -4.17308 0)
(29.5205 -22.391 0)
(52.2721 0.815034 0)
(86.9035 -2.36898 0)
(80.585 -7.86193 0)
(78.7329 -28.1895 0)
(67.6616 -27.9575 0)
(39.9532 -37.1083 0)
(19.1241 -39.7259 0)
(1.73001 -40.5871 0)
(-33.6684 7.15468 0)
(39.562 2.40575 0)
(64.6498 -12.8123 0)
(76.644 -38.3855 0)
(35.5208 -43.2132 0)
(-46.3932 -1.19667 0)
(-95.8891 3.35036 0)
(-109.483 14.7158 0)
(-119.569 19.8055 0)
(-126.537 29.3153 0)
(-123.1 16.4484 0)
(-103.665 8.17916 0)
(-92.6695 -1.6687 0)
(-91.2929 -6.53922 0)
(-124.685 12.4069 0)
(-106.42 27.006 0)
(-38.0451 24.404 0)
(19.4268 43.0492 0)
(67.4264 31.2093 0)
(74.4542 27.4883 0)
(78.2504 26.3176 0)
(-6.08844 24.837 0)
(84.9224 17.68 0)
(117.554 4.06435 0)
(73.1036 -15.5163 0)
(47.9634 -10.5739 0)
(7.0593 -7.81062 0)
(-27.1061 5.0948 0)
(-34.1761 5.16644 0)
(-13.6632 14.0109 0)
(-36.1305 54.6691 0)
(53.1438 -21.1247 0)
(169.051 54.9353 0)
(130.92 -18.6486 0)
(9.91831 -56.2893 0)
(24.5811 -18.5663 0)
(47.6388 59.8074 0)
(-6.5201 74.0814 0)
(1.92582 -51.1894 0)
(22.456 -133.11 0)
(7.54636 -125.18 0)
(-3.93594 -43.8408 0)
(-48.8971 6.64994 0)
(-77.9397 11.6378 0)
(-123.368 50.6238 0)
(-62.7492 105.248 0)
(51.0472 116.185 0)
(90.986 63.254 0)
(111.276 7.36235 0)
(96.4795 -10.8536 0)
(68.7025 -27.2561 0)
(49.9227 -18.8989 0)
(52.3296 -7.09549 0)
(59.4788 -10.8129 0)
(61.9727 -16.2108 0)
(57.4627 -16.3716 0)
(42.8148 -4.00759 0)
(21.6724 5.39775 0)
(5.94489 9.44154 0)
(2.10768 8.51438 0)
(-8.90292 12.0022 0)
(-33.3325 15.3901 0)
(-50.9462 16.7995 0)
(-73.1315 20.983 0)
(-93.1108 22.3158 0)
(-115.65 19.0811 0)
(-135.553 25.3785 0)
(-149.736 9.25317 0)
(-147.999 17.1488 0)
(-158.65 -11.6468 0)
(-129.395 -9.96711 0)
(-107.326 -45.7282 0)
(-67.0346 -33.4378 0)
(-25.588 -57.4434 0)
(4.04708 -40.6277 0)
(34.4902 -47.6187 0)
(54.8523 -35.1846 0)
(73.2202 -31.1853 0)
(84.9878 -24.8914 0)
(92.9232 -21.3281 0)
(97.1439 -17.0511 0)
(97.2276 -12.6061 0)
(95.5087 -6.63696 0)
(93.812 -1.22797 0)
(94.6733 5.23577 0)
(97.1018 7.99715 0)
(95.8555 9.54343 0)
(83.8545 8.32141 0)
(61.192 1.20554 0)
(24.1629 -5.53283 0)
(-2.44476 -2.07 0)
(-2.18854 -8.14484 0)
(0.568676 -12.1193 0)
(5.96489 -15.7907 0)
(14.6515 -18.8147 0)
(23.5516 -20.5111 0)
(32.6784 -21.5574 0)
(40.9916 -21.5065 0)
(48.101 -20.8084 0)
(53.7584 -18.8959 0)
(57.5847 -18.4983 0)
(60.2053 -13.5817 0)
(61.0482 -14.5813 0)
(60.5951 -9.0389 0)
(60.1284 -9.20315 0)
(59.25 -6.81519 0)
(56.7666 -5.6277 0)
(55.9586 -3.61967 0)
(53.5361 -4.75558 0)
(50.4959 -1.2508 0)
(47.8468 -3.16461 0)
(43.877 -1.06676 0)
(40.1922 -0.481797 0)
(35.335 -1.26916 0)
(31.4105 0.980165 0)
(25.7934 0.501199 0)
(20.8712 0.998192 0)
(14.8553 2.17817 0)
(9.12008 1.63248 0)
(2.41272 2.34192 0)
(0.73504 -3.47734 0)
(1.70584 -3.36817 0)
(3.04104 -3.39428 0)
(3.87723 -2.47454 0)
(4.37224 -2.51397 0)
(4.71854 -2.03858 0)
(4.94431 -1.56684 0)
(5.05704 -1.67451 0)
(5.10835 -0.905842 0)
(5.06763 -1.34997 0)
(4.91505 -0.495733 0)
(4.78351 -1.08811 0)
(4.43947 -0.21393 0)
(4.28841 -0.88398 0)
(3.87245 -0.135971 0)
(3.70443 -0.613011 0)
(3.30862 -0.141929 0)
(3.13069 -0.343826 0)
(2.75623 -0.0960004 0)
(2.58352 -0.241166 0)
(2.24795 -0.0384864 0)
(2.057 -0.172465 0)
(1.75799 0.00167225 0)
(1.55491 -0.116252 0)
(1.27913 0.0289291 0)
(1.07115 -0.0629565 0)
(0.809017 0.0476248 0)
(0.600362 -0.0161936 0)
(0.356296 0.0551919 0)
(0.172331 0.0162469 0)
(0.0341824 -0.113302 0)
(0.072933 -0.103693 0)
(0.0971022 -0.0959185 0)
(0.104418 -0.0646846 0)
(0.106063 -0.0692736 0)
(0.107622 -0.049087 0)
(0.106475 -0.0453768 0)
(0.103561 -0.0423029 0)
(0.100855 -0.0266278 0)
(0.0938616 -0.0367196 0)
(0.0878084 -0.0192258 0)
(0.076837 -0.0310383 0)
(0.0701305 -0.0165593 0)
(0.0577203 -0.0252309 0)
(0.0529216 -0.01717 0)
(0.0398266 -0.0216502 0)
(0.0353246 -0.0179733 0)
(0.0254316 -0.0188983 0)
(0.0205046 -0.0190754 0)
(0.0140281 -0.0168878 0)
(0.00864014 -0.020861 0)
(0.0047804 -0.0152278 0)
(-0.000339399 -0.0217009 0)
(-0.00299276 -0.0132808 0)
(-0.00804902 -0.0202898 0)
(-0.00939536 -0.0136974 0)
(-0.0145381 -0.0191447 0)
(-0.0176856 -0.014155 0)
(-0.0216466 -0.0176421 0)
(-0.025765 -0.018233 0)
(0.0141395 -0.0185589 0)
(0.0243681 -0.0157264 0)
(0.022647 -0.017731 0)
(0.0207321 -0.0148617 0)
(0.0194077 -0.0175006 0)
(0.0176909 -0.0141225 0)
(0.0167824 -0.0173032 0)
(0.01509 -0.0137292 0)
(0.0142663 -0.0169996 0)
(0.0123166 -0.0135932 0)
(0.0112194 -0.0165254 0)
(0.00875366 -0.0138328 0)
(0.00712052 -0.015893 0)
(0.00431007 -0.014271 0)
(0.00203056 -0.0153747 0)
(-0.000508924 -0.0141925 0)
(-0.00334538 -0.0156114 0)
(-0.00533838 -0.0139621 0)
(-0.00804914 -0.0161147 0)
(-0.00941415 -0.0135345 0)
(-0.0115554 -0.0166017 0)
(-0.0125158 -0.0133656 0)
(-0.0142863 -0.0168768 0)
(-0.0150451 -0.013528 0)
(-0.0164939 -0.0172238 0)
(-0.0172071 -0.0145166 0)
(-0.0189206 -0.0171483 0)
(-0.0215402 -0.015196 0)
(-0.0238938 -0.0160684 0)
(-0.0261447 -0.0177433 0)
(0.0264811 -0.0172631 0)
(0.0235823 -0.0163233 0)
(0.0205053 -0.0159078 0)
(0.0181326 -0.0175149 0)
(0.016559 -0.0142411 0)
(0.0157899 -0.0169776 0)
(0.0144453 -0.013453 0)
(0.0138992 -0.0167589 0)
(0.0123821 -0.0133502 0)
(0.0116541 -0.0165348 0)
(0.00965425 -0.013592 0)
(0.0084366 -0.0160116 0)
(0.00586935 -0.0139398 0)
(0.00398882 -0.0153636 0)
(0.00130771 -0.013922 0)
(-0.00126878 -0.015152 0)
(-0.00365541 -0.0141538 0)
(-0.00668581 -0.0156048 0)
(-0.00871239 -0.0141823 0)
(-0.0112364 -0.015312 0)
(-0.01438 -0.0135163 0)
(-0.014981 -0.0148893 0)
(-0.0178604 -0.0162308 0)
(-0.0184661 -0.013927 0)
(-0.0198357 -0.0172075 0)
(-0.0202914 -0.0145067 0)
(-0.021012 -0.0178305 0)
(-0.0207771 -0.0158844 0)
(-0.0181142 -0.0185593 0)
(-0.00995203 -0.0148668 0)
(0.0142212 -0.0185292 0)
(0.024592 -0.0155695 0)
(0.0229065 -0.0174223 0)
(0.0209864 -0.0146979 0)
(0.0196801 -0.0171855 0)
(0.0179523 -0.0140676 0)
(0.0169985 -0.0170065 0)
(0.0153309 -0.0137461 0)
(0.0144617 -0.0167004 0)
(0.0125336 -0.0136539 0)
(0.0113483 -0.0162092 0)
(0.00888378 -0.0138746 0)
(0.00713189 -0.015697 0)
(0.00437747 -0.0142047 0)
(0.00204249 -0.0153127 0)
(-0.000439669 -0.0141574 0)
(-0.00323577 -0.0156393 0)
(-0.00524381 -0.0139728 0)
(-0.00796242 -0.0161635 0)
(-0.0094102 -0.0135868 0)
(-0.0116326 -0.016597 0)
(-0.0126887 -0.0134517 0)
(-0.0145003 -0.016865 0)
(-0.0153275 -0.0136426 0)
(-0.0167771 -0.0172468 0)
(-0.0175208 -0.0146595 0)
(-0.019173 -0.0171936 0)
(-0.021777 -0.0153892 0)
(-0.0240788 -0.0161622 0)
(-0.0262313 -0.0179946 0)
(0.0106363 -0.012806 0)
(0.0212277 -0.0180383 0)
(0.02063 -0.0174839 0)
(0.0175874 -0.0161735 0)
(0.0165838 -0.0179872 0)
(0.0157945 -0.0142398 0)
(0.0157645 -0.0168045 0)
(0.0148066 -0.0134473 0)
(0.0144695 -0.0163959 0)
(0.0128521 -0.0134179 0)
(0.011925 -0.0161077 0)
(0.00961512 -0.0137785 0)
(0.00803105 -0.0155941 0)
(0.00531673 -0.0140243 0)
(0.00327326 -0.0140308 0)
(-0.000377352 -0.0142193 0)
(-0.00257624 -0.0141138 0)
(-0.00559513 -0.0157503 0)
(-0.00750474 -0.0139971 0)
(-0.01006 -0.0162972 0)
(-0.0112986 -0.0137517 0)
(-0.013258 -0.0167592 0)
(-0.0140091 -0.0139827 0)
(-0.0155015 -0.0173924 0)
(-0.0161637 -0.0149134 0)
(-0.0174833 -0.0183134 0)
(-0.01857 -0.0159963 0)
(-0.0199445 -0.0173631 0)
(-0.0186083 -0.016798 0)
(-0.00878402 -0.0146333 0)
(0.0136317 -0.0186593 0)
(0.0236314 -0.0158787 0)
(0.0218982 -0.0179494 0)
(0.0202927 -0.0146607 0)
(0.0196635 -0.0179559 0)
(0.0183337 -0.01402 0)
(0.0180195 -0.0179553 0)
(0.0165224 -0.0137526 0)
(0.0162741 -0.017786 0)
(0.0145124 -0.0136976 0)
(0.0139075 -0.0172957 0)
(0.0116581 -0.0139511 0)
(0.0104347 -0.0166441 0)
(0.00751662 -0.0145627 0)
(0.0053279 -0.0161342 0)
(0.00228354 -0.0145323 0)
(-0.000893889 -0.0159782 0)
(-0.00375607 -0.0148696 0)
(-0.00715886 -0.0164907 0)
(-0.00916704 -0.0144128 0)
(-0.011805 -0.0170716 0)
(-0.0129681 -0.0142251 0)
(-0.0148903 -0.0176085 0)
(-0.0155126 -0.014411 0)
(-0.0168762 -0.0181688 0)
(-0.0172837 -0.0153259 0)
(-0.0186709 -0.0183564 0)
(-0.0211563 -0.0165444 0)
(-0.02432 -0.0170697 0)
(-0.0269597 -0.018401 0)
(-0.965871 -3.01073 0)
(9.06645 -15.0298 0)
(14.1535 -22.7334 0)
(16.4094 -31.6531 0)
(18.5273 -18.2513 0)
(14.7011 -24.185 0)
(5.75279 -8.91506 0)
(13.6538 -22.367 0)
(4.75852 77.7126 0)
(-1.17624 19.6606 0)
(7.14417 24.8807 0)
(9.86764 31.022 0)
(13.259 31.4832 0)
(5.0532 31.5939 0)
(-2.05522 29.2394 0)
(-12.4908 35.3703 0)
(-1.66054 58.8108 0)
(13.635 34.9808 0)
(13.2045 6.36129 0)
(1.7608 7.05286 0)
(-16.8797 -24.5889 0)
(-26.8613 -14.1892 0)
(-31.5029 -0.0146791 0)
(-34.2988 6.96325 0)
(-33.5969 2.10301 0)
(-50.4305 -2.14879 0)
(-59.2666 -9.5015 0)
(-64.69 -11.4421 0)
(-65.1498 -8.07692 0)
(-54.0087 -12.1431 0)
(-37.9933 9.6073 0)
(-6.7331 0.64777 0)
(25.0951 -0.0479684 0)
(39.5775 -9.90622 0)
(45.2212 -10.528 0)
(45.5218 -24.0257 0)
(45.2384 26.1251 0)
(52.8555 -4.59505 0)
(66.8398 -10.4764 0)
(72.9021 -37.412 0)
(65.649 -32.3248 0)
(47.4892 -43.3015 0)
(23.6675 -49.3849 0)
(4.67185 -52.6048 0)
(-20.9334 45.8913 0)
(14.1055 -33.3902 0)
(56.678 3.88921 0)
(62.9782 -24.0691 0)
(11.6524 -11.2891 0)
(-9.24952 -25.3229 0)
(-49.2345 2.29892 0)
(-73.7993 22.4721 0)
(-79.6922 34.2068 0)
(-93.1608 38.9723 0)
(-100.291 34.5076 0)
(-94.8504 29.9895 0)
(-85.5758 14.523 0)
(-80.8484 17.8976 0)
(-81.5454 15.4701 0)
(-74.8813 36.9293 0)
(-31.59 35.7451 0)
(9.3908 46.6507 0)
(31.0586 49.5143 0)
(43.6528 33.3896 0)
(46.8154 34.0539 0)
(67.5009 21.4643 0)
(80.5924 147.698 0)
(87.8256 4.43725 0)
(76.6763 -5.76737 0)
(53.5743 -0.826989 0)
(24.0775 5.56053 0)
(-3.26461 11.7491 0)
(-17.4322 21.9217 0)
(-8.6251 26.9896 0)
(-86.5761 101.619 0)
(40.5824 50.0255 0)
(553.874 96.2414 0)
(221.285 29.4519 0)
(-11.9629 23.8433 0)
(-94.9221 -20.9952 0)
(-173.298 101.787 0)
(-212.998 19.804 0)
(-135.348 -67.604 0)
(5.41364 -128.709 0)
(120.092 -98.8187 0)
(158.18 -59.2995 0)
(130.856 24.9174 0)
(98.6633 67.3677 0)
(35.4178 97.7292 0)
(31.8204 165.454 0)
(38.7152 177.282 0)
(52.3083 167.706 0)
(144.235 97.8937 0)
(148.462 41.7394 0)
(99.7467 18.1429 0)
(100.969 7.96738 0)
(92.4223 -1.04032 0)
(72.1356 -8.73267 0)
(64.8901 -14.998 0)
(59.043 -19.4048 0)
(48.8175 -10.7192 0)
(29.8363 0.744722 0)
(8.14627 16.5478 0)
(0.78792 17.9579 0)
(-12.3874 11.0016 0)
(-23.3887 16.7899 0)
(-49.7124 25.1666 0)
(-72.1155 27.7368 0)
(-100.523 35.4894 0)
(-126.278 33.4772 0)
(-150.215 26.6171 0)
(-181.287 22.2461 0)
(-168.514 8.483 0)
(-179.12 -23.351 0)
(-139.957 -30.2518 0)
(-113.976 -93.5703 0)
(-77.0002 -78.4137 0)
(-26.1816 -105.925 0)
(3.71066 -94.6511 0)
(42.7808 -78.276 0)
(69.6017 -65.1435 0)
(85.1482 -48.0108 0)
(96.9179 -37.1369 0)
(102.403 -28.9473 0)
(100.19 -22.1425 0)
(99.6092 -16.6619 0)
(94.5389 -8.88801 0)
(90.4177 -1.82048 0)
(86.0673 4.03144 0)
(81.6484 8.54469 0)
(76.5883 7.77571 0)
(65.7434 6.39188 0)
(45.827 2.03909 0)
(19.8751 -4.15503 0)
(-3.02921 -2.65925 0)
(-7.57835 -12.4781 0)
(-6.96621 -20.4627 0)
(-0.680813 -28.7314 0)
(8.62974 -33.9784 0)
(19.9353 -36.2937 0)
(30.6122 -36.8912 0)
(39.7105 -34.8758 0)
(46.7715 -32.5935 0)
(51.7234 -30.0199 0)
(55.8471 -26.4926 0)
(56.5801 -23.9009 0)
(57.3599 -18.8933 0)
(56.5688 -17.3134 0)
(54.2028 -11.8118 0)
(53.411 -11.9132 0)
(50.0624 -7.83082 0)
(48.6889 -7.64458 0)
(45.5369 -5.37019 0)
(43.4309 -5.03021 0)
(39.2771 -3.40857 0)
(38.0295 -3.34117 0)
(32.8108 -2.04833 0)
(29.9181 -1.13831 0)
(25.9371 -0.663868 0)
(21.4272 1.02118 0)
(17.78 1.09348 0)
(12.6262 2.47459 0)
(7.33526 2.7529 0)
(1.83161 3.00596 0)
(0.349922 -5.62063 0)
(1.54279 -5.35316 0)
(2.18413 -5.25209 0)
(2.90847 -4.15486 0)
(3.6057 -4.00351 0)
(4.04793 -3.21717 0)
(4.35189 -2.69712 0)
(4.44738 -2.46343 0)
(4.47587 -1.77447 0)
(4.33393 -1.91483 0)
(4.27276 -1.10342 0)
(4.0352 -1.46408 0)
(3.91406 -0.610716 0)
(3.61468 -1.09692 0)
(3.46705 -0.34786 0)
(3.04033 -0.82352 0)
(2.87955 -0.182334 0)
(2.5487 -0.63781 0)
(2.31689 -0.0517573 0)
(2.13179 -0.481302 0)
(1.88951 0.024136 0)
(1.71122 -0.363636 0)
(1.48769 0.0668566 0)
(1.30395 -0.256662 0)
(1.09135 0.0882566 0)
(0.909295 -0.154439 0)
(0.69586 0.102177 0)
(0.51796 -0.060077 0)
(0.28869 0.0957144 0)
(0.115801 0.0179823 0)
(-0.00969967 -0.160595 0)
(0.0114825 -0.145169 0)
(0.0215877 -0.136044 0)
(0.0391162 -0.106662 0)
(0.0558713 -0.100334 0)
(0.0617472 -0.079088 0)
(0.0638827 -0.0707214 0)
(0.0620272 -0.0582434 0)
(0.0588873 -0.0501845 0)
(0.0548105 -0.0411106 0)
(0.05123 -0.039237 0)
(0.0461576 -0.0301102 0)
(0.0460993 -0.033053 0)
(0.0389419 -0.0239813 0)
(0.040139 -0.02881 0)
(0.0336049 -0.0205827 0)
(0.0349829 -0.0260243 0)
(0.0299512 -0.0171843 0)
(0.030978 -0.0243547 0)
(0.0269141 -0.015098 0)
(0.0283695 -0.0234386 0)
(0.0260184 -0.0133612 0)
(0.026621 -0.0227624 0)
(0.0252979 -0.0121102 0)
(0.0253191 -0.0224975 0)
(0.0237494 -0.01158 0)
(0.023142 -0.0208732 0)
(0.0221619 -0.0107783 0)
(0.016516 -0.0121225 0)
(0.00810939 -0.0254103 0)
(-0.00566809 -0.0248074 0)
(-0.0148372 -0.0115606 0)
(-0.01717 -0.020318 0)
(-0.0178121 -0.0106066 0)
(-0.0175261 -0.0203177 0)
(-0.0171452 -0.01066 0)
(-0.0159209 -0.0202947 0)
(-0.0149224 -0.0107593 0)
(-0.0130811 -0.0200427 0)
(-0.011627 -0.0107004 0)
(-0.00947503 -0.0195322 0)
(-0.00768667 -0.0105881 0)
(-0.00555879 -0.0188211 0)
(-0.00369975 -0.01041 0)
(-0.00188993 -0.0181843 0)
(-0.000114879 -0.0104531 0)
(0.001698 -0.0184005 0)
(0.00365958 -0.0103779 0)
(0.00549878 -0.019011 0)
(0.00772247 -0.0104835 0)
(0.00942079 -0.0195661 0)
(0.0115907 -0.0104336 0)
(0.0130418 -0.019832 0)
(0.0149367 -0.0103604 0)
(0.0160584 -0.0200682 0)
(0.0174 -0.0106541 0)
(0.0179383 -0.0193214 0)
(0.0183019 -0.0100187 0)
(0.0139514 -0.0112018 0)
(0.00666397 -0.023922 0)
(-0.00722534 -0.0241567 0)
(-0.0145277 -0.011112 0)
(-0.0185389 -0.0103782 0)
(-0.0179508 -0.0198651 0)
(-0.0173841 -0.0103482 0)
(-0.0161081 -0.0198186 0)
(-0.0150539 -0.0102787 0)
(-0.0132402 -0.0197645 0)
(-0.0118301 -0.0103864 0)
(-0.00970255 -0.0195153 0)
(-0.00800153 -0.0105153 0)
(-0.0057903 -0.0189785 0)
(-0.00392012 -0.0104166 0)
(-0.00197042 -0.0182094 0)
(-0.00021317 -0.0103401 0)
(0.00143744 -0.0178954 0)
(0.00297966 -0.0102468 0)
(0.00445314 -0.0184228 0)
(0.00648678 -0.011049 0)
(0.00847916 -0.0172828 0)
(0.0135475 -0.0173267 0)
(0.0141611 -0.0108296 0)
(0.0155119 -0.0195668 0)
(0.0172191 -0.010773 0)
(0.0180751 -0.0202533 0)
(0.0192706 -0.0110441 0)
(0.0198527 -0.0209797 0)
(0.0209394 -0.0122378 0)
(0.0213998 -0.0222529 0)
(0.0233712 -0.0122382 0)
(-0.00562409 -0.0248107 0)
(-0.0148214 -0.011152 0)
(-0.0171773 -0.0199552 0)
(-0.017772 -0.0102617 0)
(-0.0174779 -0.0199585 0)
(-0.0170113 -0.010421 0)
(-0.0157648 -0.0199625 0)
(-0.0146726 -0.010584 0)
(-0.0128338 -0.0197312 0)
(-0.011296 -0.010566 0)
(-0.00916562 -0.0192231 0)
(-0.00732725 -0.0104553 0)
(-0.00522967 -0.0186361 0)
(-0.00333311 -0.0103939 0)
(-0.00151962 -0.0181224 0)
(0.000211805 -0.0104025 0)
(0.00195107 -0.0184442 0)
(0.00387792 -0.0104433 0)
(0.00567233 -0.0190695 0)
(0.00784661 -0.0105714 0)
(0.0095049 -0.0195765 0)
(0.011612 -0.0105491 0)
(0.0130264 -0.0198507 0)
(0.014872 -0.0105161 0)
(0.0159886 -0.0201402 0)
(0.0173057 -0.0108543 0)
(0.0178544 -0.0194323 0)
(0.018201 -0.0103634 0)
(0.0138377 -0.0114306 0)
(0.00655734 -0.0242205 0)
(-0.0199553 -0.0132935 0)
(-0.0186633 -0.019769 0)
(-0.0167547 -0.0167021 0)
(-0.0181641 -0.0111634 0)
(-0.0176484 -0.0209349 0)
(-0.0170119 -0.0109823 0)
(-0.0155051 -0.0200326 0)
(-0.0141915 -0.0105383 0)
(-0.0121446 -0.0195658 0)
(-0.0106123 -0.0105128 0)
(-0.00857912 -0.0192001 0)
(-0.00703339 -0.0105152 0)
(-0.00532584 -0.0186946 0)
(-0.00365472 -0.0106619 0)
(-0.0019847 -0.0166658 0)
(0.0024964 -0.0169824 0)
(0.00441329 -0.0107578 0)
(0.00597503 -0.0187434 0)
(0.00759222 -0.0107393 0)
(0.00901211 -0.0194042 0)
(0.0108046 -0.0109021 0)
(0.0120437 -0.0199287 0)
(0.0136642 -0.0111799 0)
(0.0145335 -0.0205279 0)
(0.0155942 -0.0117021 0)
(0.0158314 -0.0213117 0)
(0.0161552 -0.0118489 0)
(0.0156193 -0.0197498 0)
(0.0179073 -0.0204881 0)
(0.0185946 -0.0144842 0)
(-0.00540434 -0.0244993 0)
(-0.0143342 -0.0116847 0)
(-0.0163976 -0.0203244 0)
(-0.0169624 -0.0108837 0)
(-0.0162804 -0.0207718 0)
(-0.015803 -0.0110675 0)
(-0.01424 -0.0209521 0)
(-0.013256 -0.0112645 0)
(-0.0112027 -0.0209392 0)
(-0.00983696 -0.0114094 0)
(-0.00760488 -0.0205231 0)
(-0.00600916 -0.0115658 0)
(-0.00392885 -0.0198714 0)
(-0.00233307 -0.0114848 0)
(-0.000743157 -0.0191942 0)
(0.000626746 -0.0115574 0)
(0.00197604 -0.0188841 0)
(0.00346591 -0.011462 0)
(0.00498828 -0.0195395 0)
(0.00688519 -0.0117371 0)
(0.00840148 -0.020308 0)
(0.0104481 -0.0120092 0)
(0.0118617 -0.0209626 0)
(0.0138366 -0.0122373 0)
(0.0150481 -0.0215577 0)
(0.0166981 -0.012673 0)
(0.0174593 -0.020995 0)
(0.0181135 -0.0120193 0)
(0.0139353 -0.0122772 0)
(0.00671702 -0.0257813 0)
(2.42036 -8.48822 0)
(6.66465 -17.3676 0)
(13.7436 -23.002 0)
(22.0029 -29.9929 0)
(23.4357 -26.8372 0)
(23.239 -28.4156 0)
(19.6843 -22.1926 0)
(7.23953 -10.0605 0)
(9.943 15.5075 0)
(10.6232 26.5399 0)
(11.8869 33.7903 0)
(14.0566 41.8218 0)
(15.0328 34.5755 0)
(12.0487 34.2312 0)
(-0.627344 39.1863 0)
(-17.1518 68.7401 0)
(-27.7763 74.3268 0)
(-32.0588 49.1949 0)
(-28.0217 34.7608 0)
(-31.3764 25.9926 0)
(-37.5065 -0.958674 0)
(-41.2881 2.54861 0)
(-44.1447 1.47227 0)
(-56.4595 1.25985 0)
(-72.903 -9.8051 0)
(-88.7017 -18.9656 0)
(-90.5256 -19.8238 0)
(-97.3057 -25.8806 0)
(-100.959 -15.8201 0)
(-86.5334 -12.9568 0)
(-60.4911 -1.16863 0)
(-27.4731 -16.6651 0)
(-6.57316 -23.7744 0)
(11.4016 -23.9391 0)
(20.3303 -30.8269 0)
(20.8748 -23.5494 0)
(30.1166 -18.3144 0)
(39.3285 -15.9145 0)
(46.3195 -17.1404 0)
(57.924 -39.4204 0)
(58.2968 -30.6486 0)
(43.2163 -43.4734 0)
(27.2056 -47.372 0)
(9.09186 -52.2379 0)
(-60.8276 68.9303 0)
(44.6332 -38.1968 0)
(131.283 -4.17823 0)
(64.3583 12.3451 0)
(24.7007 -31.5166 0)
(1.82697 -16.9221 0)
(10.3562 -15.0078 0)
(0.0644763 4.11918 0)
(-3.18597 28.2619 0)
(-19.979 31.0439 0)
(-40.798 34.4302 0)
(-58.7802 37.0514 0)
(-49.0209 35.1272 0)
(-30.2942 38.9466 0)
(-23.5351 46.5414 0)
(-10.4585 37.7082 0)
(11.9312 49.5279 0)
(32.1382 45.8932 0)
(45.3058 50.328 0)
(48.6618 35.115 0)
(47.6734 21.2778 0)
(44.228 15.7519 0)
(55.8214 9.82925 0)
(68.8707 -21.7047 0)
(56.5488 14.7969 0)
(38.2369 16.9386 0)
(23.8395 23.6316 0)
(6.10182 30.4762 0)
(-2.61017 39.7615 0)
(-4.43749 45.338 0)
(-83.929 173.23 0)
(94.0155 269.983 0)
(418.013 140.517 0)
(307.609 91.4379 0)
(-43.3171 116.84 0)
(-118.287 6.15191 0)
(-99.47 78.2925 0)
(-130.924 -37.0493 0)
(-94.1399 -81.2711 0)
(-40.5097 -108.198 0)
(-5.77392 -123.755 0)
(51.2682 -119.658 0)
(99.4984 -3.74813 0)
(95.2143 56.8085 0)
(103.28 142.222 0)
(108.464 184.916 0)
(91.8461 211.382 0)
(115.516 197.806 0)
(147.262 122.851 0)
(136.406 95.4886 0)
(116.089 106.933 0)
(106.876 79.3708 0)
(118.716 45.7207 0)
(115.506 -14.2985 0)
(82.8221 -9.79275 0)
(64.0922 -10.9641 0)
(53.8081 -12.0004 0)
(42.1361 1.44903 0)
(19.4666 19.3485 0)
(1.72916 30.4386 0)
(-6.19527 17.4819 0)
(-26.893 23.0975 0)
(-42.8985 21.6618 0)
(-64.6335 33.9698 0)
(-85.5909 32.5012 0)
(-118.569 39.9337 0)
(-126.915 28.2361 0)
(-133.574 10.1557 0)
(-142.156 -12.3057 0)
(-124.094 -53.9896 0)
(-99.1513 -40.1728 0)
(-69.5114 -150.92 0)
(-28.3802 -122.196 0)
(13.1971 -163.672 0)
(47.0809 -139.48 0)
(74.7018 -126.224 0)
(91.9502 -93.4084 0)
(110.974 -73.3965 0)
(116.276 -48.1103 0)
(122.156 -36.4794 0)
(121.974 -25.3639 0)
(115.652 -17.5716 0)
(110.33 -10.3375 0)
(102.15 -3.59012 0)
(94.3171 3.10481 0)
(84.5343 7.14189 0)
(70.4288 8.59764 0)
(54.3598 5.76762 0)
(35.7792 4.30565 0)
(12.7492 -1.10536 0)