/*--------------------------------*- C++ -*----------------------------------*\
| =========                 |                                                 |
| \\      /  F ield         | OpenFOAM: The Open Source CFD Toolbox           |
|  \\    /   O peration     | Version:  2.1.1                                 |
|   \\  /    A nd           | Web:      www.OpenFOAM.org                      |
|    \\/     M anipulation  |                                                 |
\*---------------------------------------------------------------------------*/
FoamFile
{
    version     2.0;
    format      ascii;
    class       volScalarField;
    location    "0.002450000";
    object      Xi;
}
// * * * * * * * * * * * * * * * * * * * * * * * * * * * * * * * * * * * * * //

dimensions      [0 0 0 0 0 0 0];

internalField   nonuniform List<scalar> 
12384
(
1.561
1.68624
2.00244
2.93762
3.53975
3.62793
3.65911
3.61109
2.97302
1.34442
1.01125
1.00008
1
1
1.00017
1.0047
1.06523
1.25876
1.75179
3.42899
3.90255
4.34017
3.84224
4.10262
4.47087
4.92754
5.60206
8.19066
6.9233
6.94861
6.61238
3.68375
2.59793
1.90042
1.51137
1.35739
1.13664
1.0155
1.00092
1.00005
1
1
1
1
1.00447
1.31823
3.21876
12.1198
14.081
15.719
16.1216
15.753
14.8334
14.1693
13.2365
11.9457
9.52032
7.87725
5.95425
2.39453
1.81203
1.74577
1.66856
1.65702
1.46029
1.264
1.11183
1.00493
1.0002
1
1
1
1
1
1.00008
1.01636
1.50658
10.6507
28.3984
36.7843
32.8673
28.2591
30.9161
38.8476
35.3965
31.4465
19.9145
3.19302
1.39531
1.20316
1.11881
1.02537
1.00405
1.00067
1.00004
1
1
1
1
1
1
1
1
1
1
1
1
1
1
1
1
1
1
1
1
1
1
1
1
1
1
1
1
1
1
1
1
1
1
1
1
1
1
1
1
1
1
1
1
1
1
1
1
1
1
1
1
1
1
1
1
1
1
1
1
1
1
1
1
1
1
1
1
1
1
1
1
1
1
1
1
1
1
1
1
1
1
1
1
1
1
1
1
1
1
1
1
1
1
1
1
1
1
1
1
1
1
1
1
1
1
1
1
1
1
1
1
1
1
1
1
1
1
1
1
1
1
1
1
1
1
1
1
1
1
1
1
1
1
1
1
1
1
1
1
1
1
1
1
1
1
1
1
1
1
1
1
1
1
1
1
1
1
1
1
1
1
1
1
1
1
1
1
1
1
1
1
1
1
1
1
1
1
1
1
1
1
1
1
1
1
1
1
1
1
1
1
1
1
1
1
1
1
1
1
1
1
1
1
1
1
1
1
1
1
1
1
1
1
1
1
1
1
1
1
1
1
1
1
1
1
1
1
1
1
1
1
1
1
1
1
1
1
1
1
1
1
1
1
1
1
1
1
1
1
1
1
1
1
1
1
1
1
1
1
1
1
1
1
1
1
1
1
1
1
1
1
1
1
1
1
1
1
1
1.71608
1.78369
2.34448
3.21055
5.23877
5.46575
5.51654
5.3071
5.24328
1.33079
1.04538
1.00154
1.00003
1
1.00966
1.16201
2.35705
4.58692
4.79148
5.39665
5.87974
6.80635
7.69816
8.49456
9.24001
9.92739
10.5816
11.1701
11.1724
11.42
11.2615
10.9907
10.9642
10.8235
11.2221
11.7314
12.9808
2.18785
1.09091
1.00248
1.00017
1.00001
1
1
1.58669
16.5847
22.182
25.4476
27.0586
25.7035
23.0536
22.3822
21.9439
20.632
20.0871
19.9832
18.3619
14.7265
11.3981
9.73601
8.63691
8.67324
8.26113
8.15368
8.29575
8.0928
9.31239
1.51877
1.07111
1.00062
1
1
1
1
1.12186
4.40889
34.6698
38.4501
48.7864
58.2685
61.4162
63.8057
61.8503
57.6353
56.1746
48.6096
41.1358
23.6624
13.8259
9.61266
7.60702
2.50478
1.27003
1.13712
1.01632
1.00061
1.00002
1
1
1
1
1
1
1
1
1
1
1
1
1
1
1
1
1
1
1
1
1
1
1
1
1
1
1
1
1
1
1
1
1
1
1
1
1
1
1
1
1
1
1
1
1
1
1
1
1
1
1
1
1
1
1
1
1
1
1
1
1
1
1
1
1
1
1
1
1
1
1
1
1
1
1
1
1
1
1
1
1
1
1
1
1
1
1
1
1
1
1
1
1
1
1
1
1
1
1
1
1
1
1
1
1
1
1
1
1
1
1
1
1
1
1
1
1
1
1
1
1
1
1
1
1
1
1
1
1
1
1
1
1
1
1
1
1
1
1
1
1
1
1
1
1
1
1
1
1
1
1
1
1
1
1
1
1
1
1
1
1
1
1
1
1
1
1
1
1
1
1
1
1
1
1
1
1
1
1
1
1
1
1
1
1
1
1
1
1
1
1
1
1
1
1
1
1
1
1
1
1
1
1
1
1
1
1
1
1
1
1
1
1
1
1
1
1
1
1
1
1
1
1
1
1
1
1
1
1
1
1
1
1
1
1
1
1
1
1
1
1
1
1
1
1
1
1
1
1
1
1
1
1
1
1
1
1
1
1
1
1
1
1
1
1
1
1
1
1
1
1
1
1
1
1
1
1
1.94277
2.41259
3.25332
4.37656
6.73551
8.9842
8.51006
7.29473
7.32621
4.57575
2.02714
1.19146
1.00638
1.00002
1.09604
2.91884
7.68927
6.86295
7.76529
9.3672
10.6057
11.7986
12.4631
12.7113
12.9449
13.4611
14.0998
14.3766
14.5893
14.1546
13.6835
12.9037
11.9707
11.9994
12.3452
12.6459
12.6198
7.28946
2.23708
1.33085
1.01955
1.00018
1
1
1.71792
19.6367
23.6156
25.0367
27.3254
26.8598
25.3072
25.9259
28.3163
31.2327
33.1389
33.7231
31.4752
27.7792
23.8609
20.0477
16.6441
13.6114
11.0297
9.71366
9.38132
9.08185
7.79148
7.98075
3.90383
1.16781
1.00053
1
1
1
1.52787
33.5415
37.9855
49.1362
60
74.509
95.3595
106.455
105.699
96.9764
96.5598
83.9694
72.9129
55.6587
40.8914
28.8239
17.7315
11.1722
8.46718
7.35705
2.55122
1.1632
1.00907
1.00029
1
1
1
1
1
1
1
1
1
1
1
1
1
1
1
1
1
1
1
1
1
1
1
1
1
1
1
1
1
1
1
1
1
1
1
1
1
1
1
1
1
1
1
1
1
1
1
1
1
1
1
1
1
1
1
1
1
1
1
1
1
1
1
1
1
1
1
1
1
1
1
1
1
1
1
1
1
1
1
1
1
1
1
1
1
1
1
1
1
1
1
1
1
1
1
1
1
1
1
1
1
1
1
1
1
1
1
1
1
1
1
1
1
1
1
1
1
1
1
1
1
1
1
1
1
1
1
1
1
1
1
1
1
1
1
1
1
1
1
1
1
1
1
1
1
1
1
1
1
1
1
1
1
1
1
1
1
1
1
1
1
1
1
1
1
1
1
1
1
1
1
1
1
1
1
1
1
1
1
1
1
1
1
1
1
1
1
1
1
1
1
1
1
1
1
1
1
1
1
1
1
1
1
1
1
1
1
1
1
1
1
1
1
1
1
1
1
1
1
1
1
1
1
1
1
1
1
1
1
1
1
1
1
1
1
1
1
1
1
1
1
1
1
1
1
1
1
1
1
1
1
1
1
1
1
1
1
1
1
1
1
1
1
1
1
1
1
1
1
1
1
1
1
1
1
1
2.55624
3.00673
3.16905
3.71627
5.52553
8.59416
7.84854
8.3901
9.77887
9.90492
13.1644
3.4521
1.27953
1.00267
1.56691
12.2695
11.1689
11.5615
11.8674
12.5839
11.7393
11.7488
13.4983
13.0358
12.0922
11.6054
10.3624
10.2881
10.4812
10.3727
9.74269
8.58638
8.0406
8.94629
11.5376
12.2035
14.4153
18.359
21.98
9.48427
1.48618
1.00093
1.00001
1
1.83778
24.1258
24.8227
24.7577
25.2406
28.8205
31.4155
37.617
42.8574
48.3831
51.7874
53.1145
50.8691
48.1453
45.1648
42.5953
35.3494
27.6715
19.881
15.1747
12.9159
10.8033
9.99276
9.72588
8.03633
2.59782
1.08785
1.00025
1
1
1.66567
31.3118
43.0056
49.2869
53.2422
63.3509
13.6624
2.94691
2.40446
5.25954
20.4245
108.403
98.6767
79.7711
61.4504
47.4723
34.0451
22.635
14.9789
11.2264
8.70871
7.86169
2.43228
1.12579
1.00178
1.00001
1
1
1
1
1
1
1
1
1
1
1
1
1
1
1
1
1
1
1
1
1
1
1
1
1
1
1
1
1
1
1
1
1
1
1
1
1
1
1
1
1
1
1
1
1
1
1
1
1
1
1
1
1
1
1
1
1
1
1
1
1
1
1
1
1
1
1
1
1
1
1
1
1
1
1
1
1
1
1
1
1
1
1
1
1
1
1
1
1
1
1
1
1
1
1
1
1
1
1
1
1
1
1
1
1
1
1
1
1
1
1
1
1
1
1
1
1
1
1
1
1
1
1
1
1
1
1
1
1
1
1
1
1
1
1
1
1
1
1
1
1
1
1
1
1
1
1
1
1
1
1
1
1
1
1
1
1
1
1
1
1
1
1
1
1
1
1
1
1
1
1
1
1
1
1
1
1
1
1
1
1
1
1
1
1
1
1
1
1
1
1
1
1
1
1
1
1
1
1
1
1
1
1
1
1
1
1
1
1
1
1
1
1
1
1
1
1
1
1
1
1
1
1
1
1
1
1
1
1
1
1
1
1
1
1
1
1
1
1
1
1
1
1
1
1
1
1
1
1
1
1
1
1
1
1
1
1
1
1
1
1
1
1
1
1
1
1
1
1
1
1
1
1
1
2.77631
2.45988
2.22582
2.58872
3.66268
4.73297
4.13793
4.23141
5.32976
5.35004
6.43634
11.7628
3.57599
1.11958
2.72958
16.4704
16.4343
18.0056
10.7286
9.40293
9.3744
9.47834
9.46589
8.84929
8.67075
8.88564
9.15588
9.198
9.08817
8.76785
8.22056
7.7624
7.70672
7.68775
9.02664
12.7108
14.854
19.8933
26.9863
23.8069
2.98433
1.01817
1.00001
1
1.55262
33.4387
25.9143
22.5761
23.1486
33.2233
43.6434
54.7514
61.3858
64.4573
67.9247
69.9599
70.9221
68.0779
67.6974
63.6087
58.7294
50.8145
39.4976
28.2797
21.3587
16.4893
13.602
12.5153
11.1543
8.87132
1.83908
1.03229
1.00009
1
1.693
31.6635
39.9037
49.5126
50.7337
50.4149
1.98494
1.07613
3.08449
22.1713
42.529
115.589
116.935
74.2121
56.3421
48.8462
39.733
28.9769
20.3413
15.302
12.7718
11.2754
9.52865
8.35831
1.55763
1.00546
1.00001
1
1
1
1
1
1
1
1
1
1
1
1
1
1
1
1
1
1
1
1
1
1
1
1
1
1
1
1
1
1
1
1
1
1
1
1
1
1
1
1
1
1
1
1
1
1
1
1
1
1
1
1
1
1
1
1
1
1
1
1
1
1
1
1
1
1
1
1
1
1
1
1
1
1
1
1
1
1
1
1
1
1
1
1
1
1
1
1
1
1
1
1
1
1
1
1
1
1
1
1
1
1
1
1
1
1
1
1
1
1
1
1
1
1
1
1
1
1
1
1
1
1
1
1
1
1
1
1
1
1
1
1
1
1
1
1
1
1
1
1
1
1
1
1
1
1
1
1
1
1
1
1
1
1
1
1
1
1
1
1
1
1
1
1
1
1
1
1
1
1
1
1
1
1
1
1
1
1
1
1
1
1
1
1
1
1
1
1
1
1
1
1
1
1
1
1
1
1
1
1
1
1
1
1
1
1
1
1
1
1
1
1
1
1
1
1
1
1
1
1
1
1
1
1
1
1
1
1
1
1
1
1
1
1
1
1
1
1
1
1
1
1
1
1
1
1
1
1
1
1
1
1
1
1
1
1
1
1
1
1
1
1
1
1
1
1
1
1
1
1
1
1
1
2.21595
1.88791
1.9657
2.36091
2.95458
3.37157
3.51275
3.91244
5.19045
6.92702
7.61982
9.38308
15.2524
1.91666
5.93491
23.4329
22.9627
14.0776
10.7397
10.2655
9.75106
9.06196
8.94222
9.26554
9.66796
9.91944
10.1783
9.99619
9.62052
9.23345
9.08268
9.20549
9.73121
11.0886
12.6784
15.9783
17.4733
22.9227
28.3569
23.9461
1.51784
1.33337
1.00617
1.00001
1.29192
10.4701
27.1862
22.968
23.9865
43.7091
51.553
59.6123
66.4087
70.0948
72.8327
74.9599
73.738
70.8995
66.649
63.5892
61.5651
60.9217
57.6861
48.8918
38.9366
30.2137
21.6646
17.4171
15.8641
15.8135
11.3218
1.70015
1.0133
1.00004
1.1972
12.2344
39.248
47.2709
56.064
5.10175
1.01052
3.12008
21.8682
96.0245
113.415
120.784
121.419
70.6828
51.6417
47.748
41.52
32.4103
24.2313
18.8171
15.4862
13.6713
11.9658
10.8927
9.03063
1.57019
1.00655
1.00001
1
1
1
1
1
1
1
1
1
1
1
1
1
1
1
1
1
1
1
1
1
1
1
1
1
1
1
1
1
1
1
1
1
1
1
1
1
1
1
1
1
1
1
1
1
1
1
1
1
1
1
1
1
1
1
1
1
1
1
1
1
1
1
1
1
1
1
1
1
1
1
1
1
1
1
1
1
1
1
1
1
1
1
1
1
1
1
1
1
1
1
1
1
1
1
1
1
1
1
1
1
1
1
1
1
1
1
1
1
1
1
1
1
1
1
1
1
1
1
1
1
1
1
1
1
1
1
1
1
1
1
1
1
1
1
1
1
1
1
1
1
1
1
1
1
1
1
1
1
1
1
1
1
1
1
1
1
1
1
1
1
1
1
1
1
1
1
1
1
1
1
1
1
1
1
1
1
1
1
1
1
1
1
1
1
1
1
1
1
1
1
1
1
1
1
1
1
1
1
1
1
1
1
1
1
1
1
1
1
1
1
1
1
1
1
1
1
1
1
1
1
1
1
1
1
1
1
1
1
1
1
1
1
1
1
1
1
1
1
1
1
1
1
1
1
1
1
1
1
1
1
1
1
1
1
1
1
1
1
1
1
1
1
1
1
1
1
1
1
1
1
1
1.72867
1.78188
2.11306
2.65128
3.12421
3.50107
3.84316
5.50551
10.14
16.7397
19.0169
17.4132
17.1314
3.26864
29.7612
35.4978
20.9489
14.2898
12.4285
11.4021
10.6628
10.3166
10.6418
10.9053
11.0731
11.377
11.2117
11.1609
10.919
10.7687
11.1121
13.1921
20.2954
26.2032
25.0472
22.6757
24.0702
30.914
37.3237
32.4384
3.39714
8.25731
1.15827
1.00075
1.2401
8.72576
31.6758
26.5792
31.1182
47.9321
49.842
53.8359
61.7406
69.9446
73.7717
70.665
58.8384
37.0824
28.4099
27.6296
29.0405
39.8847
53.3556
58.3064
57.9349
52.5637
42.2641
29.2641
23.0103
20.8835
20.8704
4.56951
1.12065
1.00054
1.00807
1.74826
9.67092
7.0386
2.79774
1.08895
1.40326
71.2897
95.5947
110.914
118.716
121.277
115.471
70.0755
52.476
48.9165
42.473
34.231
26.6287
20.9783
17.8437
15.6285
14.0139
13.0439
12.3128
5.59429
1.30287
1.00216
1
1
1
1
1
1
1
1
1
1
1
1
1
1
1
1
1
1
1
1
1
1
1
1
1
1
1
1
1
1
1
1
1
1
1
1
1
1
1
1
1
1
1
1
1
1
1
1
1
1
1
1
1
1
1
1
1
1
1
1
1
1
1
1
1
1
1
1
1
1
1
1
1
1
1
1
1
1
1
1
1
1
1
1
1
1
1
1
1
1
1
1
1
1
1
1
1
1
1
1
1
1
1
1
1
1
1
1
1
1
1
1
1
1
1
1
1
1
1
1
1
1
1
1
1
1
1
1
1
1
1
1
1
1
1
1
1
1
1
1
1
1
1
1
1
1
1
1
1
1
1
1
1
1
1
1
1
1
1
1
1
1
1
1
1
1
1
1
1
1
1
1
1
1
1
1
1
1
1
1
1
1
1
1
1
1
1
1
1
1
1
1
1
1
1
1
1
1
1
1
1
1
1
1
1
1
1
1
1
1
1
1
1
1
1
1
1
1
1
1
1
1
1
1
1
1
1
1
1
1
1
1
1
1
1
1
1
1
1
1
1
1
1
1
1
1
1
1
1
1
1
1
1
1
1
1
1
1
1
1
1
1
1
1
1
1
1
1
1
1
1
1
1.62021
1.85165
2.35876
2.97559
3.48995
4.07894
4.99903
10.1658
20.153
29.8209
36.6838
36.6865
37.7317
54.8349
47.4502
55.3491
21.6139
17.2587
15.2822
13.7217
12.6842
12.8822
12.89
12.61
12.9922
12.9078
12.9611
12.6935
12.9248
13.7473
20.6948
36.0426
44.7127
46.4727
41.1262
37.8941
42.9433
55.8869
65.5451
59.9169
41.4571
47.2157
1.61366
1.00961
1.17104
8.37609
41.2854
37.7104
41.0414
49.2413
49.3125
50.5768
57.6309
69.6955
73.0667
62.9028
32.9057
21.6455
20.1073
20.5236
21.3767
22.5833
25.7133
37.2253
56.1691
62.6042
61.6415
51.7143
37.5568
32.0688
31.1416
33.9
2.13039
1.01971
1
1.00192
1.29572
1.2151
1.03212
1.02879
4.9251
100.699
116.187
120.181
127.024
124.62
104.198
67.5253
56.8291
52.7924
45.9392
37.053
29.3714
23.8883
20.3345
18.0958
16.3753
15.3197
14.8666
14.0461
5.70517
1.26492
1.00095
1
1
1
1
1
1
1.00001
1.00004
1.00011
1.00034
1.00041
1.00022
1.00004
1
1
1
1
1
1
1
1
1
1
1
1
1
1
1
1
1
1
1
1
1
1
1
1
1
1
1
1
1
1
1
1
1
1
1
1
1
1
1
1
1
1
1
1
1
1
1
1
1
1
1
1
1
1
1
1
1
1
1
1
1
1
1
1
1
1
1
1
1
1
1
1
1
1
1
1
1
1
1
1
1
1
1
1
1
1
1
1
1
1
1
1
1
1
1
1
1
1
1
1
1
1
1
1
1
1
1
1
1
1
1
1
1
1
1
1
1
1
1
1
1
1
1
1
1
1
1
1
1
1
1
1
1
1
1
1
1
1
1
1
1
1
1
1
1
1
1
1
1
1
1
1
1
1
1
1
1
1
1
1
1
1
1
1
1
1
1
1
1
1
1
1
1
1
1
1
1
1
1
1
1
1
1
1
1
1
1
1
1
1
1
1
1
1
1
1
1
1
1
1
1
1
1
1
1
1
1
1
1
1
1
1
1
1
1
1
1
1
1
1
1
1
1
1
1
1
1
1
1
1
1
1
1
1
1
1
1
1
1
1
1
1
1
1
1
1
1
1
1
1
1
1
1
1
1
1
1
1
1.6678
1.96101
2.48432
3.18384
4.01694
4.93162
7.39609
16.0825
25.7384
29.8258
36.6908
48.0518
63.0887
78.2
70.3544
119.956
123.881
46.7717
25.4254
21.2831
18.7015
16.2595
15.27
14.1786
13.8732
14.4103
14.3633
14.36
14.5302
15.0638
16.049
27.7352
49.2184
70.5265
81.8353
77.0339
67.2204
64.5934
72.514
84.184
85.4551
73.6282
64.883
64.1262
1.51362
1.05909
1.06493
1.02452
1.25909
7.31129
46.5211
41.2872
44.1482
49.7725
53.3561
52.8918
58.9143
72.3726
73.9151
63.3192
40.4134
34.6965
37.6594
40.7959
38.127
30.6709
25.498
23.9716
25.9823
35.7256
63.5643
68.857
59.1853
46.9147
44.9441
57.059
101.632
5.47128
2.05502
1.13167
1.00303
1.00251
1.00405
1.00816
1.034
1.62527
33.3946
141.476
116.502
117.267
118.402
112.605
93.1985
66.3852
61.8459
58.9799
52.6243
44.6983
37.7576
31.7463
27.1919
23.0703
20.7923
19.6789
19.2817
19.2041
18.5358
6.00227
1.35845
1.00565
1.00042
1.00012
1.00005
1.00004
1.00004
1.00014
1.00055
1.00365
1.01326
1.03242
1.17901
1.23777
1.1629
1.02127
1.00052
1
1
1
1
1
1
1
1
1
1
1
1
1
1
1
1
1
1
1
1
1
1
1
1
1
1
1
1
1
1
1
1
1
1
1
1
1
1
1
1
1
1
1
1
1
1
1
1
1
1
1
1
1
1
1
1
1
1
1
1
1
1
1
1
1
1
1
1
1
1
1
1
1
1
1
1
1
1
1
1
1
1
1
1
1
1
1
1
1
1
1
1
1
1
1
1
1
1
1
1
1
1
1
1
1
1
1
1
1
1
1
1
1
1
1
1
1
1
1
1
1
1
1
1
1
1
1
1
1
1
1
1
1
1
1
1
1
1
1
1
1
1
1
1
1
1
1
1
1
1
1
1
1
1
1
1
1
1
1
1
1
1
1
1
1
1
1
1
1
1
1
1
1
1
1
1
1
1
1
1
1
1
1
1
1
1
1
1
1
1
1
1
1
1
1
1
1
1
1
1
1
1
1
1
1
1
1
1
1
1
1
1
1
1
1
1
1
1
1
1
1
1
1
1
1
1
1
1
1
1
1
1
1
1
1
1
1
1
1
1
1
1
1
1
1
1
1
1
1
1
1
1
1
1
1
1
1
1
1
1
1
1
1
1
1
1
1
1
1
1
1
1
1
1
1
1.74571
1.98905
2.51664
3.39181
4.48022
5.76
9.35363
17.6361
24.5824
28.3798
39.9188
65.8587
107.692
130.276
151.567
171.872
118.224
37.7456
28.8703
24.3845
20.3433
17.4032
15.5971
14.9918
15.3461
15.5442
16.143
16.6005
16.6848
17.5851
24.9898
56.6824
90.1694
117.033
123.621
118.289
112.185
114.174
123.251
129.784
129.14
123.089
114.949
77.9549
2.92782
2.53797
2.03642
1.58071
1.58602
2.42632
5.28706
11.8269
43.0614
56.5202
63.169
60.6915
62.302
77.2674
81.3932
77.4048
71.6814
69.316
69.232
69.2312
68.8576
65.7338
58.8826
36.9994
25.5541
24.7384
28.8826
62.4255
79.1691
69.6808
62.4925
67.3289
94.4555
193.39
28.1722
4.92428
2.35509
1.93733
1.67408
1.70611
2.19007
6.4429
158.596
130.771
112.033
100.542
94.6895
87.9602
78.2245
68.8441
62.5161
62.6784
62.534
58.9367
55.1478
52.2681
47.1266
39.4766
33.6284
29.5389
27.8562
27.1575
27.9566
27.4889
8.58192
2.66811
1.21128
1.03674
1.01855
1.01333
1.00943
1.0135
1.05946
1.47623
2.68731
5.85765
9.80473
12.2726
8.94382
4.44419
1.48353
1.00122
1
1
1
1
1
1
1
1
1
1
1
1
1
1
1
1
1
1
1
1
1
1
1
1
1
1
1
1
1
1
1
1
1
1
1
1
1
1
1
1
1
1
1
1
1
1
1
1
1
1
1
1
1
1
1
1
1
1
1
1
1
1
1
1
1
1
1
1
1
1
1
1
1
1
1
1
1
1
1
1
1
1
1
1
1
1
1
1
1
1
1
1
1
1
1
1
1
1
1
1
1
1
1
1
1
1
1
1
1
1
1
1
1
1
1
1
1
1
1
1
1
1
1
1
1
1
1
1
1
1
1
1
1
1
1
1
1
1
1
1
1
1
1
1
1
1
1
1
1
1
1
1
1
1
1
1
1
1
1
1
1
1
1
1
1
1
1
1
1
1
1
1
1
1
1
1
1
1
1
1
1
1
1
1
1
1
1
1
1
1
1
1
1
1
1
1
1
1
1
1
1
1
1
1
1
1
1
1
1
1
1
1
1
1
1
1
1
1
1
1
1
1
1
1
1
1
1
1
1
1
1
1
1
1
1
1
1
1
1
1
1
1
1
1
1
1
1
1
1
1
1
1
1
1
1
1
1
1
1
1
1
1
1
1
1
1
1
1
1
1
1
1
1
1
1.82788
2.02063
2.62325
3.68301
4.99406
6.61873
9.62952
16.5365
22.7021
27.195
34.0689
46.7753
65.0523
80.1321
90.4798
87.6406
53.4627
38.1285
33.9243
27.2808
21.7953
17.8405
16.0315
16.2098
16.8193
17.6798
18.2655
18.6789
19.6807
22.3422
52.6762
88.2694
131.264
158.046
167.937
173.237
178.846
185.942
190.503
192.403
192.835
191.475
182.162
167.993
158.039
150.092
141.12
117.317
80.9805
62.6844
70.4588
83.1076
86.6216
92.2307
92.1318
84.2671
78.0465
81.2193
91.3171
94.0149
88.6624
82.9764
81.2037
82.8569
85.6503
87.2205
82.5815
73.4267
39.6791
27.6945
27.3692
34.1238
82.7915
92.3124
83.6257
84.6111
91.5958
143.317
194.97
264.933
381.683
346.132
277.531
241.373
252.425
256.313
198.091
139.168
106.664
90.2115
82.6969
78.0015
75.5355
73.2254
71.6984
70.4075
73.639
77.1055
80.4631
82.8817
80.2782
74.294
64.0057
53.9064
46.1196
41.7776
40.6541
42.2989
44.6432
25.327
13.5039
6.27142
4.01743
3.36118
2.40588
2.44477
4.47927
10.5582
20.7896
45.9237
65.781
72.9637
62.5513
32.9916
10.0365
1.86437
1.00096
1
1
1
1
1
1
1
1
1
1
1
1
1
1
1
1
1
1
1
1
1
1
1
1
1
1
1
1
1
1
1
1
1
1
1
1
1
1
1
1
1
1
1
1
1
1
1
1
1
1
1
1
1
1
1
1
1
1
1
1
1
1
1
1
1
1
1
1
1
1
1
1
1
1
1
1
1
1
1
1
1
1
1
1
1
1
1
1
1
1
1
1
1
1
1
1
1
1
1
1
1
1
1
1
1
1
1
1
1
1
1
1
1
1
1
1
1
1
1
1
1
1
1
1
1
1
1
1
1
1
1
1
1
1
1
1
1
1
1
1
1
1
1
1
1
1
1
1
1
1
1
1
1
1
1
1
1
1
1
1
1
1
1
1
1
1
1
1
1
1
1
1
1
1
1
1
1
1
1
1
1
1
1
1
1
1
1
1
1
1
1
1
1
1
1
1
1
1
1
1
1
1
1
1
1
1
1
1
1
1
1
1
1
1
1
1
1
1
1
1
1
1
1
1
1
1
1
1
1
1
1
1
1
1
1
1
1
1
1
1
1
1
1
1
1
1
1
1
1
1
1
1
1
1
1
1
1
1
1
1
1
1
1
1
1
1
1
1
1
1
1
1
1
1.95387
2.07934
2.72377
3.899
5.50426
7.49746
10.0465
15.4021
22.8223
29.2918
34.4194
39.944
44.886
49.0014
50.9266
50.9732
46.0305
40.4548
35.5059
29.0912
22.6108
18.7459
17.9144
18.2542
19.1707
19.9118
20.4378
21.3571
23.008
32.1042
75.0763
118.875
164.158
187.368
198.569
201.085
203.353
201.717
196.248
187.894
180.506
171.292
160.862
149.434
134.316
132.187
131.822
130.218
125.686
103.088
91.4742
84.4233
81.4389
83.0517
82.8456
82.0043
79.6758
81.457
85.579
87.8061
85.715
84.1532
85.6068
88.689
91.1551
90.0293
84.1933
71.3401
41.1328
31.3762
29.6544
31.9003
44.6778
98.8592
108.364
104.349
106.771
121.667
151.19
165.194
205.919
228.32
217.319
191.475
178.185
156.426
137.114
119.805
110.638
102.343
93.8481
88.8233
84.4669
81.865
81.9719
84.5013
89.3392
97.6032
104.476
109.691
111.252
106.96
99.3297
86.6492
74.5336
65.0911
60.3949
60.7306
63.4769
73.6821
91.4989
109.691
123.061
136.345
49.1268
30.2938
35.9005
56.7002
87.5371
163.467
159.421
156.503
147.632
138.062
49.4941
9.56487
1.51967
1.00027
1
1
1
1
1
1
1
1
1
1
1
1
1
1
1
1
1
1
1
1
1
1
1
1
1
1
1
1
1
1
1
1
1
1
1
1
1
1
1
1
1
1
1
1
1
1
1
1
1
1
1
1
1
1
1
1
1
1
1
1
1
1
1
1
1
1
1
1
1
1
1
1
1
1
1
1
1
1
1
1
1
1
1
1
1
1
1
1
1
1
1
1
1
1
1
1
1
1
1
1
1
1
1
1
1
1
1
1
1
1
1
1
1
1
1
1
1
1
1
1
1
1
1
1
1
1
1
1
1
1
1
1
1
1
1
1
1
1
1
1
1
1
1
1
1
1
1
1
1
1
1
1
1
1
1
1
1
1
1
1
1
1
1
1
1
1
1
1
1
1
1
1
1
1
1
1
1
1
1
1
1
1
1
1
1
1
1
1
1
1
1
1
1
1
1
1
1
1
1
1
1
1
1
1
1
1
1
1
1
1
1
1
1
1
1
1
1
1
1
1
1
1
1
1
1
1
1
1
1
1
1
1
1
1
1
1
1
1
1
1
1
1
1
1
1
1
1
1
1
1
1
1
1
1
1
1
1
1
1
1
1
1
1
1
1
1
1
1
1
1
1
1
1.99158
2.11159
2.80319
4.04024
5.88261
8.28614
11.0366
15.7511
23.7362
30.8794
36.2764
40.1236
42.4076
43.9629
44.9941
43.8792
41.9617
38.101
33.1352
27.7718
23.1932
20.8483
20.3547
20.929
21.5121
22.1113
23.04
24.8196
28.0942
47.8356
100.276
153.991
199.521
220.43
222.899
216.32
205.073
192.151
179.046
168.65
158.538
151.326
142.59
133.013
123.729
121.854
119.551
119.139
117.018
94.7786
85.0269
76.2116
72.4746
73.1598
75.987
77.2267
78.7622
80.402
82.285
83.0431
83.4726
85.8615
90.4707
94.1171
90.9638
82.358
58.3698
42.0438
35.7286
32.6792
32.316
33.4574
37.1388
54.391
112.638
125.935
126.82
130.186
138.809
150.117
161.155
173.095
180.693
180.271
169.532
156.819
145.76
137.91
130.919
125.454
120.908
114.056
108.298
105.375
104.64
106.46
112.001
117.965
123.855
127.334
127.541
123.637
116.401
105.978
94.5648
85.9848
81.6276
81.8967
86.1611
95.3882
108.871
126.889
141.326
159.091
176.122
177.18
187.165
185.359
185.225
182.163
174.289
168.059
157.297
145.908
125.022
36.0841
4.98662
1.08845
1.00002
1
1
1
1
1
1
1
1
1
1
1
1
1
1
1
1
1
1
1
1
1
1
1
1
1
1
1
1
1
1
1
1
1
1
1
1
1
1
1
1
1
1
1
1
1
1
1
1
1
1
1
1
1
1
1
1
1
1
1
1
1
1
1
1
1
1
1
1
1
1
1
1
1
1
1
1
1
1
1
1
1
1
1
1
1
1
1
1
1
1
1
1
1
1
1
1
1
1
1
1
1
1
1
1
1
1
1
1
1
1
1
1
1
1
1
1
1
1
1
1
1
1
1
1
1
1
1
1
1
1
1
1
1
1
1
1
1
1
1
1
1
1
1
1
1
1
1
1
1
1
1
1
1
1
1
1
1
1
1
1
1
1
1
1
1
1
1
1
1
1
1
1
1
1
1
1
1
1
1
1
1
1
1
1
1
1
1
1
1
1
1
1
1
1
1
1
1
1
1
1
1
1
1
1
1
1
1
1
1
1
1
1
1
1
1
1
1
1
1
1
1
1
1
1
1
1
1
1
1
1
1
1
1
1
1
1
1
1
1
1
1
1
1
1
1
1
1
1
1
1
1
1
1
1
1
1
1
1
1
1
1
1
1
1
1
1
1
1
1
1
1
1.95309
2.13005
2.84067
4.09164
5.99675
8.66874
11.741
15.7655
22.8062
29.6733
33.5743
35.4841
36.2314
37.2884
37.1981
36.655
34.7473
33.1702
30.3216
26.9962
25.0632
24.3613
24.2756
24.151
24.4394
25.1458
26.2783
28.7477
33.4133
62.0074
120.35
178.943
223.623
236.358
227.594
206.761
188.447
168.881
160.716
150.487
146.601
139.852
134.332
127.35
121.143
115.009
108.99
104.705
99.2873
79.1519
70.6753
63.3125
59.7587
62.8636
66.7275
71.1679
73.7684
76.543
78.844
81.5666
85.7715
92.3645
93.8441
86.8934
73.0855
46.0607
39.8017
38.5807
36.0766
35.4507
35.0603
35.7599
37.2958
41.2474
49.8917
89.2335
137.515
145.09
148.587
153.378
158.543
164.579
170.532
171.523
170.116
167.908
163.058
157.48
151.529
145.561
138.86
132.905
127.208
122.153
119.366
120.268
122.346
124.854
126.769
125.91
121.931
114.64
107.075
98.7359
93.2641
90.6205
91.5661
96.1221
103.52
115.049
130.44
143.11
163.029
169.868
183.492
191.672
189.748
196.741
195.337
192.182
188.282
178.549
168.397
150.099
127.96
66.5977
13.3543
1.9316
1.00059
1
1
1
1
1
1
1
1
1
1
1
1
1
1
1
1
1
1
1
1
1
1
1
1
1
1
1
1
1
1
1
1
1
1
1
1
1
1
1
1
1
1
1
1
1
1
1
1
1
1
1
1
1
1
1
1
1
1
1
1
1
1
1
1
1
1
1
1
1
1
1
1
1
1
1
1
1
1
1
1
1
1
1
1
1
1
1
1
1
1
1
1
1
1
1
1
1
1
1
1
1
1
1
1
1
1
1
1
1
1
1
1
1
1
1
1
1
1
1
1
1
1
1
1
1
1
1
1
1
1
1
1
1
1
1
1
1
1
1
1
1
1
1
1
1
1
1
1
1
1
1
1
1
1
1
1
1
1
1
1
1
1
1
1
1
1
1
1
1
1
1
1
1
1
1
1
1
1
1
1
1
1
1
1
1
1
1
1
1
1
1
1
1
1
1
1
1
1
1
1
1
1
1
1
1
1
1
1
1
1
1
1
1
1
1
1
1
1
1
1
1
1
1
1
1
1
1
1
1
1
1
1
1
1
1
1
1
1
1
1
1
1
1
1
1
1
1
1
1
1
1
1
1
1
1
1
1
1
1
1
1
1
1
1
1
1
1
1
1
1
1
1.88203
2.07986
2.81529
4.00594
5.8789
8.51373
11.8042
15.3857
19.7909
24.6664
28.3919
30.9745
33.0071
34.1869
34.407
34.1507
33.1959
32.1207
31.1053
30.4509
28.7938
28.223
27.3313
27.2163
27.2197
27.7949
29.2486
31.63
35.4531
58.0643
121.751
177.791
215.581
222.944
209.275
193.243
178.05
164.573
160.163
152.663
148.596
143.798
137.837
131.041
122.433
112.372
101.983
92.744
82.817
65.8565
59.1973
54.2605
55.0822
59.2084
64.5277
70.5336
75.4212
80.7328
85.6872
91.0739
93.7825
90.5213
78.238
50.0931
36.9893
34.9244
34.6707
35.8299
35.1179
36.1888
35.6402
36.903
38.5457
40.0634
41.8425
46.6367
55.3818
73.1063
101.32
144.411
157.96
163.89
168.533
172.229
173.278
172.425
169.784
159.865
133.968
118.793
107.456
99.6854
95.5307
96.2164
95.838
103.118
107.238
92.7994
83.8189
83.0981
77.0964
69.2693
68.0935
70.6987
74.219
79.8135
87.3909
98.4669
110.6
125.405
138.808
156.329
168.73
175.429
188.158
193.239
193.296
194.676
192.589
188.725
183.91
175.967
162.178
145.762
123.315
111.761
25.4202
3.47143
1.04581
1.00001
1
1
1
1
1
1
1
1
1
1
1
1
1
1
1
1
1
1
1
1
1
1
1
1
1
1
1
1
1
1
1
1
1
1
1
1
1
1
1
1
1
1
1
1
1
1
1
1
1
1
1
1
1
1
1
1
1
1
1
1
1
1
1
1
1
1
1
1
1
1
1
1
1
1
1
1
1
1
1
1
1
1
1
1
1
1
1
1
1
1
1
1
1
1
1
1
1
1
1
1
1
1
1
1
1
1
1
1
1
1
1
1
1
1
1
1
1
1
1
1
1
1
1
1
1
1
1
1
1
1
1
1
1
1
1
1
1
1
1
1
1
1
1
1
1
1
1
1
1
1
1
1
1
1
1
1
1
1
1
1
1
1
1
1
1
1
1
1
1
1
1
1
1
1
1
1
1
1
1
1
1
1
1
1
1
1
1
1
1
1
1
1
1
1
1
1
1
1
1
1
1
1
1
1
1
1
1
1
1
1
1
1
1
1
1
1
1
1
1
1
1
1
1
1
1
1
1
1
1
1
1
1
1
1
1
1
1
1
1
1
1
1
1
1
1
1
1
1
1
1
1
1
1
1
1
1
1
1
1
1
1
1
1
1
1
1
1
1
1
1
1.50901
1.68506
1.82493
1.97032
2.07207
2.23698
2.56508
3.1617
4.02968
5.25845
7.21618
9.97981
14.0566
16.2345
18.3972
18.6766
18.9579
18.8279
17.5893
17.4528
15.8666
15.2621
14.1411
13.3513
12.6736
12.314
12.1376
11.4938
10.6957
10.6894
20.7718
34.8275
45.6108
59.8132
63.9046
73.6859
74.522
80.3036
86.4965
88.9136
93.5311
96.8779
100.57
103.982
106.504
107.655
106.441
103.48
97.1062
86.5676
84.2559
81.933
79.2269
77.5963
73.9952
71.4663
68.8739
67.2189
65.0627
62.2995
58.3033
41.8435
30.693
27.8081
28.1171
28.8033
28.9675
30.3071
29.1781
30.9857
30.1827
32.564
34.0138
37.8433
39.3879
43.1505
45.6778
50.3609
54.5589
60.3527
65.2998
69.9606
70.3623
70.2997
67.2592
64.3993
59.9286
56.4546
55.0115
52.6599
50.771
49.0895
47.3994
45.6685
44.6036
43.0561
40.4799
36.9217
46.8483
55.6275
55.2325
54.9054
56.006
57.7094
58.0804
59.5901
62.2202
65.3925
69.285
73.0151
73.405
74.1767
63.5938
59.8259
48.5682
45.0686
48.2251
47.6678
47.7075
47.1296
43.3472
46.1782
38.4053
45.6319
29.6324
17.0837
4.93179
1.44533
1.0069
1
1
1
1
1
1
1
1
1
1
1
1
1
1
1
1
1
1
1
1
1
1
1
1
1
1
1
1
1
1
1
1
1
1
1
1
1
1
1
1
1
1
1
1
1
1
1
1
1
1
1
1
1
1
1
1
1
1
1
1
1
1
1
1
1
1
1
1
1
1
1
1
1
1
1
1
1
1
1
1
1
1
1
1
1
1
1
1
1
1
1
1
1
1
1
1
1
1
1
1
1
1
1
1
1
1
1
1
1
1
1
1
1
1
1
1
1
1
1
1
1
1
1
1
1
1
1
1
1
1
1
1
1
1
1
1
1
1
1
1
1
1
1
1
1
1
1
1
1
1
1
1
1
1
1
1
1
1
1
1
1
1
1
1
1
1
1
1
1
1
1
1
1
1
1
1
1
1
1
1
1
1
1
1
1
1
1
1
1
1
1
1
1
1
1
1
1
1
1
1
1
1
1
1
1
1
1
1
1
1
1
1
1
1
1
1
1
1
1
1
1
1
1
1
1
1
1
1
1
1
1
1
1
1
1
1
1
1
1
1
1
1
1
1
1
1
1
1
1
1
1
1
1
1
1
1
1
1
1
1
1
1
1
1
1
1
1
1
1
1
1
1.54584
1.6831
2.0335
3.30371
3.50653
3.63493
3.59974
3.32861
3.05072
1.43312
1.02042
1.00016
1
1
1.00036
1.00692
1.06199
1.22893
1.88816
3.53165
3.76265
3.94971
3.88602
4.18068
4.58595
5.10223
6.16168
6.31458
7.67068
6.72098
6.73752
3.56946
2.47017
1.79178
1.59464
1.3937
1.14385
1.01899
1.00096
1.0001
1
1
1
1
1.0037
1.28071
3.34742
11.5884
13.9666
15.3257
16.4367
15.5828
14.8528
14.3317
14.1505
12.0417
10.1972
7.9025
5.87917
2.41139
1.80637
1.60317
1.69874
1.60246
1.40061
1.2638
1.07135
1.00347
1.0002
1
1
1
1
1
1.00007
1.01212
1.52857
12.4011
35.7449
39.1785
29.3891
31.5301
34.4804
37.5036
38.118
34.5338
19.6358
3.01671
1.38086
1.23386
1.11588
1.03362
1.00434
1.00057
1.00004
1
1
1
1
1
1
1
1
1
1
1
1
1
1
1
1
1
1
1
1
1
1
1
1
1
1
1
1
1
1
1
1
1
1
1
1
1
1
1
1
1
1
1
1
1
1
1
1
1
1
1
1
1
1
1
1
1
1
1
1
1
1
1
1
1
1
1
1
1
1
1
1
1
1
1
1
1
1
1
1
1
1
1
1
1
1
1
1
1
1
1
1
1
1
1
1
1
1
1
1
1
1
1
1
1
1
1
1
1
1
1
1
1
1
1
1
1
1
1
1
1
1
1
1
1
1
1
1
1
1
1
1
1
1
1
1
1
1
1
1
1
1
1
1
1
1
1
1
1
1
1
1
1
1
1
1
1
1
1
1
1
1
1
1
1
1
1
1
1
1
1
1
1
1
1
1
1
1
1
1
1
1
1
1
1
1
1
1
1
1
1
1
1
1
1
1
1
1
1
1
1
1
1
1
1
1
1
1
1
1
1
1
1
1
1
1
1
1
1
1
1
1
1
1
1
1
1
1
1
1
1
1
1
1
1
1
1
1
1
1
1
1
1
1
1
1
1
1
1
1
1
1
1
1
1
1
1
1
1
1
1
1
1
1
1
1
1
1
1
1
1
1
1
1
1
1
1
1
1
1.71137
1.79554
2.35051
3.25464
5.05244
5.15649
5.06602
5.24353
2.82017
1.27481
1.07151
1.00598
1.00005
1
1.03029
1.22501
2.38126
4.47975
4.83487
5.30487
5.90158
6.8078
7.79535
8.70732
9.44757
10.1244
10.5903
11.0279
11.1986
11.4247
11.1493
11.0239
10.9774
10.6847
11.1538
12.4862
7.71438
2.18235
1.12223
1.00417
1.00023
1.00002
1
1
1.55842
16.5781
22.0584
25.3536
26.9184
25.5749
22.9287
22.2603
21.7039
20.5765
20.2978
19.7883
18.4163
14.6621
11.7655
9.68207
8.85484
8.47657
8.38571
8.17504
8.28679
8.58978
4.34388
1.42093
1.05883
1.00071
1
1
1
1
1.10601
3.92049
34.6982
40.3956
48.7851
55.8412
62.6955
63.9721
61.0908
58.7246
54.4877
50.9233
39.1572
23.6457
14.232
9.29262
7.57803
2.56367
1.27617
1.12047
1.01707
1.00053
1.00001
1
1
1
1
1
1
1
1
1
1
1
1
1
1
1
1
1
1
1
1
1
1
1
1
1
1
1
1
1
1
1
1
1
1
1
1
1
1
1
1
1
1
1
1
1
1
1
1
1
1
1
1
1
1
1
1
1
1
1
1
1
1
1
1
1
1
1
1
1
1
1
1
1
1
1
1
1
1
1
1
1
1
1
1
1
1
1
1
1
1
1
1
1
1
1
1
1
1
1
1
1
1
1
1
1
1
1
1
1
1
1
1
1
1
1
1
1
1
1
1
1
1
1
1
1
1
1
1
1
1
1
1
1
1
1
1
1
1
1
1
1
1
1
1
1
1
1
1
1
1
1
1
1
1
1
1
1
1
1
1
1
1
1
1
1
1
1
1
1
1
1
1
1
1
1
1
1
1
1
1
1
1
1
1
1
1
1
1
1
1
1
1
1
1
1
1
1
1
1
1
1
1
1
1
1
1
1
1
1
1
1
1
1
1
1
1
1
1
1
1
1
1
1
1
1
1
1
1
1
1
1
1
1
1
1
1
1
1
1
1
1
1
1
1
1
1
1
1
1
1
1
1
1
1
1
1
1
1
1
1
1
1
1
1
1
1
1
1
1
1
1
1
1
1
1
1
1
1.90335
2.37865
3.26721
4.2901
6.45354
8.73321
8.54323
7.14892
7.78129
4.36921
2.52568
1.28945
1.01012
1.00003
1.47343
6.23968
6.90183
7.15211
7.77538
9.25452
10.5879
11.7053
12.4582
12.6947
12.8616
13.4623
14.0243
14.4554
14.583
14.2023
13.6091
12.9093
11.9963
12.0145
12.2372
12.5129
13.4637
7.54558
2.46721
1.37107
1.03548
1.00027
1
1
1.82085
19.6021
23.2522
25.2066
26.532
27.211
25.5294
26.2416
28.7269
31.7168
34.0835
33.8381
31.6885
27.7423
23.9818
20.3736
16.8211
13.6554
11.1756
9.68558
9.42748
8.92591
8.31743
7.83013
3.59911
1.17066
1.00061
1
1
1
1.53316
32.5866
40.5689
49.3223
58.741
76.5064
92.789
108.32
104.723
94.5661
96.1314
86.0894
73.6117
56.4065
40.4204
28.1005
17.4182
10.9312
8.32681
7.34528
2.37922
1.15397
1.00662
1.00017
1
1
1
1
1
1
1
1
1
1
1
1
1
1
1
1
1
1
1
1
1
1
1
1
1
1
1
1
1
1
1
1
1
1
1
1
1
1
1
1
1
1
1
1
1
1
1
1
1
1
1
1
1
1
1
1
1
1
1
1
1
1
1
1
1
1
1
1
1
1
1
1
1
1
1
1
1
1
1
1
1
1
1
1
1
1
1
1
1
1
1
1
1
1
1
1
1
1
1
1
1
1
1
1
1
1
1
1
1
1
1
1
1
1
1
1
1
1
1
1
1
1
1
1
1
1
1
1
1
1
1
1
1
1
1
1
1
1
1
1
1
1
1
1
1
1
1
1
1
1
1
1
1
1
1
1
1
1
1
1
1
1
1
1
1
1
1
1
1
1
1
1
1
1
1
1
1
1
1
1
1
1
1
1
1
1
1
1
1
1
1
1
1
1
1
1
1
1
1
1
1
1
1
1
1
1
1
1
1
1
1
1
1
1
1
1
1
1
1
1
1
1
1
1
1
1
1
1
1
1
1
1
1
1
1
1
1
1
1
1
1
1
1
1
1
1
1
1
1
1
1
1
1
1
1
1
1
1
1
1
1
1
1
1
1
1
1
1
1
1
1
1
1
1
1
1
2.47702
2.97865
3.1813
3.81448
5.82393
8.61402
7.68268
8.06834
11.1619
10.577
12.6961
3.72546
1.31891
1.0034
1.77424
10.0031
12.414
11.7616
11.8236
12.6186
10.7039
12.1722
13.2646
13.3125
12.2917
11.223
11.2109
10.5384
10.2149
10.1662
9.82682
8.73242
8.24174
8.77961
10.8552
12.0564
14.2666
18.4848
21.2752
10.1832
1.64175
1.00083
1
1
1.87806
24.0797
24.9061
24.5287
25.4478
27.8649
32.442
38.4455
44.7396
48.8501
52.9798
53.6564
51.4473
48.1138
46.4477
41.7643
36.0773
27.6598
20.2489
15.16
12.8614
10.8574
9.83194
9.68286
8.17714
2.68491
1.10457
1.00043
1
1
1.79344
32.3971
40.0634
49.9988
55.3243
64.072
11.7749
2.77336
2.39813
5.29496
20.2253
108.958
101.589
79.6167
62.0035
47.1996
34.0768
22.2743
15.0469
11.0419
8.66327
7.76049
2.34845
1.07347
1.00093
1.00001
1
1
1
1
1
1
1
1
1
1
1
1
1
1
1
1
1
1
1
1
1
1
1
1
1
1
1
1
1
1
1
1
1
1
1
1
1
1
1
1
1
1
1
1
1
1
1
1
1
1
1
1
1
1
1
1
1
1
1
1
1
1
1
1
1
1
1
1
1
1
1
1
1
1
1
1
1
1
1
1
1
1
1
1
1
1
1
1
1
1
1
1
1
1
1
1
1
1
1
1
1
1
1
1
1
1
1
1
1
1
1
1
1
1
1
1
1
1
1
1
1
1
1
1
1
1
1
1
1
1
1
1
1
1
1
1
1
1
1
1
1
1
1
1
1
1
1
1
1
1
1
1
1
1
1
1
1
1
1
1
1
1
1
1
1
1
1
1
1
1
1
1
1
1
1
1
1
1
1
1
1
1
1
1
1
1
1
1
1
1
1
1
1
1
1
1
1
1
1
1
1
1
1
1
1
1
1
1
1
1
1
1
1
1
1
1
1
1
1
1
1
1
1
1
1
1
1
1
1
1
1
1
1
1
1
1
1
1
1
1
1
1
1
1
1
1
1
1
1
1
1
1
1
1
1
1
1
1
1
1
1
1
1
1
1
1
1
1
1
1
1
1
1
1
2.84354
2.45478
2.19585
2.62438
3.7531
4.62931
4.13157
4.08024
5.00755
5.30434
6.33245
10.7021
3.69425
1.16276
2.80158
16.1386
18.3822
18.008
11.1512
9.31607
8.95041
9.3622
9.47587
8.96105
8.63407
8.90355
9.21249
9.33835
9.09635
8.63921
8.22223
7.91181
7.43779
7.83697
8.7181
12.8255
14.7222
20.3359
27.4726
23.9355
2.34922
1.00273
1.00002
1
1.79528
30.6205
26.0398
23.3553
22.7246
33.5713
44.4415
55.0579
61.8849
65.4673
67.8549
70.8853
69.9956
69.2717
66.7212
64.3039
58.2619
50.4366
39.598
28.1427
21.2323
16.4517
13.3336
12.3635
10.9384
9.06938
1.78056
1.03342
1.0001
1
1.63496
31.71
41.9939
48.4784
50.9812
51.6014
1.80676
1.0689
3.00302
23.7819
40.2993
114.704
116.263
74.7246
55.9897
49.0099
39.8581
29.0363
20.5011
15.3758
12.5346
10.9778
9.36503
9.21211
1.35019
1.00362
1.00001
1
1
1
1
1
1
1
1
1
1
1
1
1
1
1
1
1
1
1
1
1
1
1
1
1
1
1
1
1
1
1
1
1
1
1
1
1
1
1
1
1
1
1
1
1
1
1
1
1
1
1
1
1
1
1
1
1
1
1
1
1
1
1
1
1
1
1
1
1
1
1
1
1
1
1
1
1
1
1
1
1
1
1
1
1
1
1
1
1
1
1
1
1
1
1
1
1
1
1
1
1
1
1
1
1
1
1
1
1
1
1
1
1
1
1
1