/*--------------------------------*- C++ -*----------------------------------*\
| =========                 |                                                 |
| \\      /  F ield         | OpenFOAM: The Open Source CFD Toolbox           |
|  \\    /   O peration     | Version:  2.1.1                                 |
|   \\  /    A nd           | Web:      www.OpenFOAM.org                      |
|    \\/     M anipulation  |                                                 |
\*---------------------------------------------------------------------------*/
FoamFile
{
    version     2.0;
    format      ascii;
    class       volScalarField;
    location    "0.005600000";
    object      mut;
}
// * * * * * * * * * * * * * * * * * * * * * * * * * * * * * * * * * * * * * //

dimensions      [1 -1 -1 0 0 0 0];

internalField   nonuniform List<scalar> 
12384
(
0.00312804
0.00613915
0.00702267
0.00524986
0.00423092
0.00355348
0.00307387
0.00265131
0.00232135
0.00211482
0.00198483
0.00187813
0.00157218
0.00123711
0.00700932
0.0104989
0.0122891
0.0133165
0.0140861
0.0146321
0.015004
0.007175
0.00419217
0.00292198
0.00229621
0.00201902
0.00189983
0.00190739
0.00196237
0.00205521
0.00213249
0.00212432
0.0021658
0.00218443
0.00219294
0.00230173
0.00241817
0.00265264
0.00293996
0.0032508
0.003089
0.00223638
0.00157588
0.00289397
0.00848326
0.00551545
0.00430802
0.0038415
0.00371768
0.00399023
0.00447
0.00522865
0.00661947
0.0107702
0.0195089
0.011781
0.00714547
0.00571228
0.00506768
0.00469584
0.00439566
0.00396727
0.00349202
0.00331394
0.00337519
0.00373243
0.0044875
0.00590019
0.00853512
0.0144383
0.0163066
0.00712455
0.00265723
0.00359086
0.0111521
0.0160271
0.0162285
0.0169472
0.022225
0.0221835
0.0151509
0.00752174
0.00534419
0.00430705
0.00411384
0.00393182
0.00413896
0.00413065
0.00436708
0.00427203
0.00433932
0.00441539
0.00451994
0.00512602
0.00602469
0.00778807
0.0113271
0.0204379
0.0261217
0.0145435
0.00747684
0.00419611
0.00316486
0.006141
0.0116225
0.00897894
0.00570596
0.00481916
0.00473335
0.00491537
0.00519444
0.00550681
0.00580389
0.00604832
0.00618822
0.00627215
0.00593865
0.00562022
0.00497738
0.00463468
0.00472766
0.00489742
0.00559038
0.00673691
0.00936228
0.0162064
0.0272293
0.0159004
0.00820203
0.00409025
0.0018913
0.00134658
0.00199599
0.00408209
0.00823555
0.0104043
0.00917268
0.00810999
0.00771967
0.00847823
0.0107472
0.0154052
0.0181276
0.0149317
0.00833394
0.0060359
0.0053376
0.0051388
0.00528754
0.00539699
0.00562675
0.00560137
0.00550788
0.00490846
0.00440739
0.00430706
0.00477874
0.00585867
0.0079229
0.0123877
0.0221634
0.0214619
0.0122171
0.0106832
0.00739778
0.00891933
0.0107404
0.0119381
0.00779135
0.00434938
0.00312146
0.00293673
0.00302447
0.00335967
0.00363737
0.00401395
0.00428168
0.00449509
0.00458767
0.00450997
0.00418466
0.00404295
0.00389972
0.00391348
0.00404982
0.00445176
0.00547895
0.00846433
0.0175645
0.0133663
0.0105583
0.0102025
0.0110469
0.0126342
0.00850265
0.00843005
0.00714089
0.00513931
0.0045562
0.00445837
0.00454325
0.00467055
0.00483967
0.00495821
0.00511162
0.00513286
0.00518656
0.00499894
0.00493263
0.00493199
0.0051799
0.0055337
0.006109
0.00712635
0.00880266
0.0120632
0.0192415
0.0206509
0.00741816
0.0042248
0.00333458
0.00306971
0.00370009
0.00732625
0.0101142
0.010542
0.00754599
0.00634616
0.00582163
0.00567251
0.00552969
0.00556913
0.0055081
0.0054317
0.00537278
0.00498428
0.00475783
0.00467133
0.00484822
0.00509413
0.00566515
0.00649146
0.007901
0.0104665
0.0147955
0.0214875
0.012741
0.00593602
0.00375798
0.00275097
0.00245904
0.00268216
0.00365042
0.00686111
0.010039
0.00867893
0.0168859
0.0229572
0.0171869
0.0130483
0.0113973
0.0103482
0.009738
0.00911983
0.00864418
0.00792494
0.0072231
0.00610211
0.0054886
0.00522
0.00512521
0.00528882
0.00571173
0.00658867
0.00797719
0.0104409
0.0155853
0.0178624
0.0164205
0.0111507
0.00845915
0.00903817
0.0129273
0.0151979
0.0103271
0.0140695
0.0175414
0.0136924
0.0115704
0.010433
0.00986571
0.00941174
0.00921792
0.00887198
0.00840793
0.00777343
0.00709512
0.00627638
0.00621356
0.00639599
0.00678305
0.00761008
0.00883437
0.0107973
0.014069
0.0229505
0.021727
0.0139116
0.00798441
0.00599343
0.00592335
0.00770429
0.0121499
0.0170834
0.00567157
0.00903194
0.0124536
0.0147921
0.0159873
0.0101565
0.00700604
0.00562809
0.00503906
0.0050018
0.00514749
0.00550071
0.00622541
0.00802026
0.0123339
0.018288
0.0160213
0.0110795
0.00865826
0.00756285
0.00663827
0.00599795
0.00474447
0.00434276
0.00423507
0.0047311
0.00588157
0.00766064
0.00789495
0.00358485
0.000423848
0.000542253
0.000514563
0.000526103
0.00102296
0.00388146
0.00708672
0.00687816
0.00579934
0.00515752
0.0047804
0.00484645
0.00522939
0.00606328
0.00684166
0.00764429
0.00873884
0.0106774
0.0153733
0.0179595
0.00811199
0.0033027
0.00152902
0.000671514
0.000263292
8.98099e-05
2.76611e-05
9.93686e-06
6.79837e-06
8.58624e-06
0.00581612
0.00233316
0.00253653
0.00289263
0.00331854
0.00374845
0.00410632
0.00434903
0.00444178
0.00438664
0.00412135
0.00358483
0.00275033
0.00367979
0.0027118
0.00358156
0.00432735
0.00471205
0.00482094
0.00483735
0.0047793
0.00482568
0.00504398
0.00562862
0.00655656
0.00783936
0.0093077
0.0107416
0.0122381
0.0133431
0.0141537
0.0147034
0.0146337
0.0146245
0.013984
0.0134153
0.0123763
0.0111716
0.00977241
0.00810425
0.0063753
0.00466387
0.00325437
0.00583059
0.00434375
0.00660005
0.00796487
0.00832603
0.00810083
0.007659
0.00704915
0.0064831
0.00611655
0.00606436
0.00644467
0.00731745
0.00855509
0.00992168
0.011692
0.0131563
0.0148453
0.0159252
0.0168104
0.0173589
0.0171763
0.0169645
0.0159903
0.0144837
0.0125275
0.00985819
0.00704887
0.00453189
0.00306027
0.0113864
0.00660358
0.00666648
0.00712844
0.00695314
0.00664693
0.00629417
0.00645838
0.00697741
0.00828348
0.00961483
0.0117864
0.0137029
0.0164043
0.0182773
0.0205687
0.0216921
0.0227433
0.0232785
0.0228866
0.0224978
0.0212516
0.0197097
0.0173154
0.0143058
0.0110656
0.00807229
0.00544716
0.00392771
0.00409209
0.00788515
0.00560395
0.00410389
0.00574406
0.00799901
0.0103013
0.0126258
0.0149948
0.0173899
0.019652
0.021891
0.0238544
0.0255427
0.0269738
0.0280849
0.0285818
0.0288685
0.0286412
0.0278972
0.0270879
0.0249433
0.0219617
0.0175491
0.0126948
0.0085926
0.00600957
0.00479499
0.00412564
0.00383438
0.00444788
0.00358683
0.00769238
0.00457803
0.00530344
0.00562246
0.00565737
0.00540421
0.00520632
0.00488968
0.00490793
0.00513774
0.00584079
0.0068262
0.00828653
0.0098337
0.0118585
0.0137694
0.0159575
0.0177771
0.0194704
0.0209177
0.0215058
0.0217608
0.0216468
0.0207064
0.0191045
0.0165105
0.0131066
0.00937419
0.00601401
0.0179031
0.00916147
0.00270525
0.00300916
0.00308817
0.00332593
0.00439819
0.00632028
0.00862537
0.0108607
0.0130741
0.0154004
0.0175097
0.0195876
0.0215873
0.023002
0.0243886
0.0249328
0.025375
0.0248569
0.0242741
0.0226512
0.0208702
0.0178392
0.014051
0.0100628
0.00690365
0.00530503
0.00463037
0.00418382
0.0178731
0.0122724
0.0026614
0.00323857
0.00484477
0.00674521
0.00873782
0.0108131
0.012938
0.0151168
0.0170544
0.0189658
0.0203428
0.0215862
0.0223916
0.0228122
0.0227625
0.0222004
0.0214535
0.0204176
0.0190046
0.0173143
0.0151646
0.0124864
0.00958611
0.00681691
0.00470063
0.00352304
0.00330127
0.0040527
0.00545677
0.0156731
0.0059041
0.00708109
0.0090581
0.0114698
0.0141527
0.0168653
0.0197006
0.0219022
0.0245498
0.0260587
0.0272554
0.0277713
0.0278589
0.0273098
0.0263695
0.0249468
0.0229622
0.0206095
0.0176944
0.0142427
0.0106008
0.00715464
0.00462177
0.00408822
0.00401359
0.00386314
0.00362904
0.00373585
0.00744159
0.0136902
0.00459318
0.00616122
0.00835944
0.0109127
0.0137936
0.0168892
0.0201134
0.0232928
0.0262959
0.0288943
0.0310217
0.0326791
0.0335743
0.033852
0.0331226
0.0321488
0.0303621
0.0281296
0.0248726
0.0203583
0.0150286
0.00974773
0.0058978
0.00479712
0.00459945
0.00440229
0.00437726
0.0048673
0.011619
0.0136604
0.0058799
0.00843917
0.0113617
0.0143983
0.017568
0.0207575
0.0238263
0.0270892
0.0291819
0.0315049
0.0331525
0.0336406
0.0342453
0.0338667
0.0330526
0.0318344
0.0299868
0.0273982
0.0237412
0.0189407
0.0135807
0.00855754
0.00586041
0.00599655
0.00607902
0.00600813
0.00607018
0.00668577
0.0104547
0.0108878
0.00286926
0.00409039
0.00521823
0.00616935
0.00695891
0.00753413
0.007801
0.00784767
0.00768002
0.00735076
0.00686089
0.00626539
0.00578243
0.0055731
0.0058277
0.00649882
0.00763548
0.00899739
0.0105745
0.0121164
0.0133638
0.0142654
0.0146578
0.0146275
0.0140605
0.012786
0.0103295
0.00709958
0.00748097
0.000880185
0.00165973
0.00184554
0.00281515
0.00490479
0.0078107
0.0107323
0.013706
0.0155553
0.0169838
0.017425
0.0176979
0.0173469
0.0167271
0.0156596
0.014167
0.0123942
0.0104622
0.00851312
0.00657667
0.00483822
0.00347879
0.00252515
0.00177497
0.00101513
0.000448503
0.000177752
7.31953e-05
3.20703e-05
7.51476e-06
0.00629542
0.00281854
0.00288647
0.00317899
0.00350621
0.00381248
0.00405514
0.00420689
0.0042735
0.0042358
0.00410965
0.00382713
0.00325745
0.0033158
0.00202954
0.00376038
0.00426384
0.00449779
0.0046095
0.00471858
0.00487894
0.00527097
0.00593565
0.00696374
0.00813809
0.00937848
0.0104973
0.0113549
0.0121602
0.0128219
0.0131669
0.0136471
0.0135395
0.0133695
0.0129293
0.012263
0.0115051
0.0105693
0.0095077
0.00821413
0.0068137
0.00531997
0.00395137
0.00873426
0.00296977
0.00688583
0.00764975
0.00753143
0.00719634
0.00692398
0.00670768
0.00677595
0.00701619
0.00745657
0.00812833
0.00870009
0.00954078
0.0101756
0.0111376
0.011983
0.0130298
0.0139727
0.0148209
0.0155032
0.0155913
0.0157404
0.0150967
0.014364
0.0129095
0.0109071
0.00830232
0.00579071
0.00394802
0.0149419
0.00482748
0.00666482
0.00663472
0.00645377
0.0066369
0.0071574
0.00830289
0.00934886
0.0107632
0.0115729
0.0129065
0.0135853
0.015304
0.0161794
0.0179934
0.0188019
0.0200008
0.0204424
0.0203234
0.0203962
0.0195764
0.0187941
0.0173947
0.015359
0.0126301
0.00964682
0.00665661
0.00446614
0.00403852
0.00852266
0.00333097
0.00538068
0.00731783
0.00923428
0.0108519
0.0124071
0.0140725
0.015819
0.0176348
0.0194041
0.0211049
0.0226744
0.0240183
0.0248348
0.0257647
0.0258887
0.0261866
0.0257066
0.0255334
0.0245737
0.023066
0.0200734
0.0160071
0.0116576
0.00795868
0.00522878
0.00396105
0.00366775
0.00442101
0.00331361
0.00635598
0.00498621
0.00541199
0.00549918
0.00544735
0.00526576
0.00528278
0.00533641
0.00574855
0.006244
0.00706222
0.00792113
0.00914023
0.0103253
0.0118184
0.0131787
0.0148337
0.0161453
0.0175161
0.0186107
0.0194808
0.019674
0.0197431
0.0192227
0.0183652
0.0167767
0.0141908
0.0108607
0.00745024
0.0210852
0.0106826
0.00287811
0.00307199
0.0032556
0.00414133
0.00606307
0.00819348
0.0100923
0.0116852
0.0133269
0.0149242
0.0166444
0.0181909
0.0199638
0.0212195
0.022536
0.0231783
0.0235351
0.023321
0.0228236
0.0218229
0.0207965
0.0188543
0.0161176
0.012522
0.00887563
0.00622125
0.00501391
0.0045164
0.0201717
0.0146637
0.00307097
0.00425303
0.00618987
0.00805336
0.009828
0.0115655
0.0132794
0.0149644
0.0164516
0.0181081
0.0192044
0.0203085
0.0209731
0.0213161
0.0214244
0.0209658
0.0202529
0.0194216
0.0185181
0.0174061
0.0159959
0.0140923
0.011636
0.00899029
0.00639112
0.0042394
0.00319826
0.00377669
0.00435103
0.0194579
0.00725155
0.00871673
0.0109337
0.0132031
0.0154908
0.0176652
0.019904
0.021512
0.0237327
0.0246137
0.0260403
0.0264614
0.0265338
0.0259713
0.0248735
0.0236733
0.0222177
0.0205013
0.0185015
0.0159472
0.0128669
0.00953691
0.00628191
0.0040413
0.00339675
0.00346569
0.00374069
0.00411733
0.0061004
0.01519
0.00556733
0.00748255
0.0100548
0.0128732
0.0156709
0.0183181
0.02084
0.0232473
0.0255023
0.027545
0.0293622
0.0306086
0.0316107
0.0316005
0.031493
0.0303868
0.0292772
0.0276792
0.0257793
0.0227604
0.0184633
0.0134254
0.00863529
0.00532331
0.00387881
0.00346552
0.00397685
0.00473112
0.00818198
0.0115521
0.00807819
0.0110489
0.0141565
0.0169762
0.0195105
0.0217884
0.0241613
0.0264375
0.0279054
0.0300629
0.0309923
0.0318174
0.0318049
0.0318751
0.0311311
0.0303577
0.028988
0.0273994
0.02504
0.0215964
0.0170609
0.0120103
0.00733976
0.00531917
0.00492264
0.00508162
0.00597356
0.00728092
0.00685446
0.0131023
0.00384458
0.00515137
0.00643615
0.00756858
0.00850346
0.00915897
0.00955716
0.00966673
0.00959836
0.00926126
0.00883567
0.00827129
0.00779699
0.00750657
0.00761539
0.00801526
0.0086491
0.00915681
0.00963096
0.0101981
0.0107824
0.0113585
0.0117983
0.012105
0.0122819
0.0118572
0.0104563
0.00789309
0.00527097
0.0012529
0.00191148
0.00218411
0.0047375
0.00756478
0.0105102
0.0131038
0.0154431
0.016647
0.0177067
0.0181096
0.0183353
0.0182684
0.0178231
0.0169997
0.0158783
0.0145122
0.0129166
0.0110026
0.00890654
0.00672638
0.00465002
0.00296243
0.001532
0.000655445
0.000256732
0.000109162
5.39021e-05
2.91355e-05
5.96855e-06
0.00619746
0.00316765
0.00326015
0.00353612
0.00379945
0.00394912
0.00399074
0.00401909
0.00403308
0.00405884
0.00410004
0.00409973
0.00387962
0.00319448
0.00191456
0.00445619
0.00457645
0.00453648
0.00451108
0.00468759
0.00511601
0.00588996
0.00699299
0.00834526
0.00959596
0.0105783
0.011065
0.0114057
0.011312
0.0114667
0.0113459
0.0114557
0.0113312
0.0112312
0.0110893
0.0107045
0.0103816
0.00980318
0.00918506
0.00828589
0.00720374
0.00588555
0.00454084
0.00807956
0.0024758
0.0076419
0.00761824
0.00696453
0.00652992
0.00647028
0.00680664
0.00740344
0.00809716
0.00891719
0.00962969
0.00997
0.0102993
0.0103952
0.0103418
0.010532
0.0105793
0.0111219
0.0115965
0.0124344
0.0130203
0.0136911
0.0138081
0.01375
0.013032
0.0115672
0.009494
0.00699199
0.0048257
0.0168585
0.00412746
0.00733111
0.00667918
0.0064155
0.00712448
0.00848283
0.0103177
0.0117856
0.0132167
0.0137124
0.0140756
0.0139484
0.0141627
0.0140866
0.014707
0.0152374
0.0158814
0.0165788
0.0168953
0.0173381
0.017388
0.0175341
0.0171152
0.0161315
0.0141151
0.0113247
0.00820762
0.00550644
0.0042884
0.00916068
0.00267376
0.00647089
0.00830842
0.00978522
0.0108882
0.0118364
0.0128426
0.0140078
0.0152449
0.0165227
0.0179004
0.0191205
0.0201162
0.021133
0.0216236
0.0222864
0.0225281
0.0226654
0.0231218
0.0231818
0.023105
0.0216225
0.0187404
0.0148481
0.0109044
0.00743525
0.00509521
0.00417515
0.00445727
0.00322166
0.00578845
0.00567187
0.00572198
0.00551091
0.00536975
0.00528027
0.00555111
0.00589857
0.00663381
0.00730144
0.00827946
0.00915911
0.0102273
0.0109606
0.0119579
0.0125521
0.013472
0.0139763
0.014731
0.0153333
0.0159834
0.0166181
0.016985
0.0171734
0.0172256
0.01655
0.014874
0.0121043
0.00883418
0.0117014
0.00886503
0.00329377
0.00331208
0.00377845
0.00537136
0.00762095
0.00950358
0.0108584
0.0118681
0.0128598
0.013692
0.0149071
0.015899
0.0173516
0.0183321
0.019518
0.0201645
0.0205323
0.020717
0.0205021
0.0200931
0.0198234
0.0189285
0.0171887
0.0142813
0.0107009
0.00747266
0.00555246
0.00490188
0.0215322
0.0159907
0.00348941
0.00528096
0.00740451
0.00926908
0.0108951
0.012277
0.0134198
0.014409
0.0154349
0.016461
0.017206
0.0180266
0.0186373
0.0189367
0.0190078
0.0189888
0.0186014
0.0180833
0.0175671
0.0171878
0.0164276
0.0153584
0.0134899
0.0110896
0.00845684
0.00583492
0.00392564
0.00380732
0.00389081
0.0168268
0.0084079
0.010241
0.0126099
0.0147305
0.0164834
0.0179363
0.0191451
0.0202799
0.0215868
0.0225251
0.0233483
0.0236241
0.0238656
0.0236873
0.0229417
0.0219263
0.0210662
0.0200887
0.0189275
0.017313
0.0149802
0.0119684
0.00866225
0.00561286
0.00349688
0.00315649
0.00379891
0.00428858
0.0055872
0.016444
0.00621803
0.00854551
0.0115817
0.0146382
0.0172751
0.0193543
0.0209435
0.0222028
0.0233465
0.0244813
0.0255392
0.0264514
0.0271507
0.0279416
0.0276915
0.0276882
0.0271154
0.0266779
0.0258263
0.0242416
0.0212365
0.0169229
0.0121116
0.00788777
0.00481789
0.00321493
0.00388851
0.00466057
0.0069146
0.0077033
0.0100025
0.0131734
0.0162913
0.0188329
0.020656
0.0220688
0.0236422
0.0246387
0.0259031
0.0270267
0.0277148
0.0285027
0.0290751
0.0288111
0.0284675
0.0280561
0.0273057
0.0266455
0.0255078
0.0234841
0.0200933
0.0155433
0.0106728
0.00661759
0.00433975
0.00411637
0.00563885
0.00756412
0.00504528
0.0158275
0.00508316
0.00657598
0.008009
0.00923406
0.010155
0.010757
0.0110702
0.011196
0.0110674
0.0108837
0.0104195
0.0100081
0.00947389
0.00923804
0.00921692
0.00971304
0.0100971
0.0101948
0.009739
0.00903346
0.00837032
0.00829471
0.0087491
0.00967068
0.0105393
0.0111324
0.0105839
0.0087098
0.00412701
0.0017432
0.00211253
0.00356751
0.0068101
0.00978888
0.0126782
0.0148543
0.0164994
0.0172067
0.0178427
0.0179567
0.0180537
0.0180501
0.0177362
0.0172308
0.0165832
0.0157683
0.014572
0.0129833
0.010909
0.00842736
0.00598916
0.00385162
0.00187565
0.000589264
0.000198293
9.16336e-05
5.2982e-05
3.54764e-05
6.09736e-06
0.00591402
0.00343908
0.0036161
0.00393331
0.00410548
0.0040541
0.00380934
0.00362226
0.00363991
0.00381095
0.00410743
0.00439836
0.00457077
0.00328595
0.00193711
0.00528632
0.00495363
0.00459145
0.00441673
0.00469806
0.0054427
0.00655513
0.00799411
0.00952538
0.0106823
0.0112662
0.011081
0.0107381
0.00997297
0.00948757
0.00892006
0.00855369
0.00849527
0.00841367
0.00865311
0.00871707
0.00882043
0.00877972
0.00855985
0.00808395
0.00734979
0.00628625
0.00503088
0.00665795
0.00227317
0.00858283
0.00776839
0.00657223
0.00596944
0.00620638
0.00697127
0.00798282
0.00911434
0.0101551
0.0108349
0.0112705
0.0111421
0.0109713
0.0102231
0.00959206
0.00871599
0.00825261
0.00812661
0.00890524
0.00994986
0.0113007
0.0120842
0.0127961
0.0125877
0.0119038
0.0102365
0.00783424
0.0056465
0.0164653
0.00383837
0.00834623
0.00707234
0.00672237
0.00790914
0.00987018
0.0122306
0.0140717
0.0156679
0.0156645
0.0157504
0.0144976
0.0137232
0.0124032
0.0119096
0.0112708
0.0114988
0.0121031
0.0128755
0.0140278
0.0148645
0.015886
0.0164238
0.0163353
0.0149658
0.0124581
0.00927535
0.00628705
0.00461357
0.0106688
0.00266053
0.00709698
0.00893378
0.0102043
0.0110635
0.0116933
0.012199
0.0127284
0.0133367
0.0139386
0.0145579
0.0151887
0.0159422
0.0164351
0.0171932
0.0176386
0.0185727
0.0191398
0.0202683
0.0210552
0.0221338
0.0219957
0.0202886
0.017175
0.0133478
0.00950435
0.00653845
0.00496726
0.00468088
0.0032053
0.00562815
0.00644828
0.00605481
0.00555133
0.00531431
0.00537013
0.00585659
0.0064339
0.00739643
0.00827777
0.00950316
0.0102834
0.0112659
0.0116023
0.0121149
0.0119997
0.0121133
0.0115437
0.0113912
0.0112707
0.0116406
0.0125265
0.0138585
0.0148233
0.0157111
0.0159357
0.0150055
0.0128738
0.00997003
0.00854015
0.00732441
0.00371074
0.00364807
0.00451818
0.00662427
0.00888533
0.0104209
0.0113894
0.0118067
0.0122118
0.0125059
0.0131804
0.0136862
0.0145422
0.0150142
0.0157367
0.0162336
0.0166524
0.0172616
0.0173955
0.0178444
0.0179978
0.0181918
0.0171648
0.0149925
0.0115592
0.00818367
0.00593862
0.0052396
0.022485
0.016763
0.0039756
0.00622846
0.00852033
0.0105182
0.0120584
0.0131209
0.0135267
0.0140264
0.0140668
0.0143188
0.0144956
0.0150066
0.01534
0.0157535
0.0159992
0.0161323
0.0163459
0.0164001
0.0162609
0.0163966
0.0163215
0.0158958
0.0147115
0.0126501
0.010069
0.00723712
0.004913
0.00406082
0.00385788
0.0158598
0.00925725
0.0115416
0.0140936
0.0159554
0.0172359
0.0177184
0.0181379
0.0181584
0.0185661
0.0188892
0.0194159
0.019828
0.0200761
0.0203463
0.0202783
0.0198898
0.0194771
0.0191852
0.0188625
0.0180657
0.0165146
0.0139612
0.0107396
0.0074686
0.00455931
0.00324005
0.00397041
0.00430806
0.00600419
0.018101
0.00659984
0.00945405
0.012911
0.0162158
0.0186304
0.0200207
0.0204853
0.0204691
0.0203662
0.0204842
0.0207492
0.0210927
0.0217517
0.0222504
0.0233062
0.0237083
0.0244333
0.0248462
0.025214
0.0246658
0.0230048
0.0195769
0.0149571
0.0105843
0.00682587
0.00412559
0.00405442
0.00449702
0.00634968
0.00758826
0.0114331
0.0147687
0.0179582
0.0202697
0.0214647
0.0222824
0.0227388
0.0227901
0.022973
0.0236028
0.0242798
0.0243582
0.0244791
0.0249298
0.0250031
0.0249417
0.0249865
0.0251602
0.0250933
0.0243788
0.0222061
0.018382
0.013649
0.00905999
0.00512762
0.00366565
0.00525329
0.00754983
0.00408043
0.0144344
0.00632676
0.00795758
0.00949305
0.0106763
0.0114993
0.0119621
0.012191
0.0122298
0.0121871
0.0119751
0.0118503
0.0113953
0.0109429
0.0104846
0.0104989
0.0109237
0.0114133
0.0113294
0.0105201
0.00897837
0.00689159
0.00554201
0.00604487
0.00760314
0.00929811
0.0105772
0.0107937
0.00938048
0.00340488
0.00239855
0.00254601
0.00509864
0.00848207
0.0115183
0.0141442
0.0159091
0.0166915
0.0171507
0.0169254
0.0169562
0.0165983
0.0164581
0.0162537
0.0162493
0.0162961
0.0160335
0.0154361
0.0143032
0.0123351
0.009821
0.00711484
0.00466763
0.00250106
0.000764743
0.000213525
9.7975e-05
6.26527e-05
5.0047e-05
7.41087e-06
0.00578875
0.00363222
0.00395699
0.00429655
0.00439123
0.00412646
0.0036054
0.00317418
0.00317213
0.00358354
0.00411841
0.004687
0.00527794
0.00382125
0.00201464
0.00613495
0.00538189
0.00463473
0.00432878
0.00476129
0.00575957
0.00715479
0.00883922
0.0104298
0.0113718
0.0114689
0.0107682
0.00985952
0.00880399
0.00775301
0.00696007
0.0061691
0.00589591
0.00587744
0.00635402
0.00684327
0.00738418
0.00770633
0.0078453
0.00771573
0.0073132
0.0064962
0.00540274
0.00554943
0.0021929
0.00959202
0.00805102
0.00632259
0.00558871
0.00596178
0.00704339
0.00842665
0.00981819
0.0110218
0.0119668
0.0123714
0.0121851
0.0118604
0.0108595
0.00979967
0.00822561
0.00666162
0.00548691
0.00568823
0.00718585
0.00900129
0.0104763
0.0115293
0.0121434
0.0118363
0.0104539
0.00844238
0.00626785
0.0124656
0.00376123
0.00960252
0.00777808
0.00727482
0.00872654
0.0110567
0.0139686
0.016117
0.0176651
0.0177076
0.0174497
0.0155839
0.0142081
0.0120277
0.0101923
0.00837154
0.00741568
0.00770625
0.0090563
0.0110043
0.0126162
0.014423
0.0156244
0.0161537
0.0152543
0.0129853
0.00973305
0.00658248
0.00477377
0.0138487
0.00318125
0.00751564
0.00957216
0.0108736
0.0115493
0.0119556
0.0121971
0.0122351
0.0122214
0.0122325
0.0120522
0.0117146
0.0114753
0.0115276
0.0118685
0.0128199
0.0141355
0.0154864
0.0171489
0.0186999
0.0207194
0.0213045
0.0208207
0.0184565
0.0148913
0.0109755
0.00774377
0.00572561
0.00491301
0.00338447
0.005507
0.00727014
0.00639212
0.00558851
0.00529883
0.00552712
0.00611018
0.00686147
0.00810926
0.00913974
0.0105242
0.0112463
0.0120742
0.012052
0.012325
0.0117097
0.0111438
0.00967668
0.00812524
0.00683506
0.00711051
0.00884622
0.0108651
0.0127983
0.0143226
0.015174
0.0149276
0.0133225
0.0108311
0.00698053
0.00672189
0.00421111
0.00413431
0.00536048
0.00777034
0.0099137
0.0112405
0.0118459
0.0118592
0.0119571
0.0119282
0.0122725
0.0122676
0.0121984
0.0116488
0.0112565
0.0109987
0.0117902
0.0129029
0.0141127
0.0151891
0.0160589
0.0168081
0.0165749
0.014776
0.0116585
0.00830863
0.00612896
0.00552736
0.0152539
0.0173987
0.00468082
0.00716859
0.00964714
0.0118746
0.0134051
0.0140285
0.0140725
0.0138349
0.0128756
0.012347
0.0117524
0.0114535
0.0115456
0.0119188
0.0125063
0.0131308
0.0136586
0.0143375
0.0148587
0.0154046
0.0157391
0.0160048
0.0152616
0.0136472
0.0111411
0.00819537
0.00557769
0.00429689
0.00408231
0.0177784
0.00977844
0.0126377
0.0153925
0.0170773
0.0178639
0.0174369
0.0170058
0.0158267
0.0152537
0.014828
0.0148431
0.0151331
0.0157446
0.0165374
0.0170214
0.0175146
0.0178594
0.0180386
0.0184172
0.0183366
0.0174819
0.0154106
0.0123516
0.00891214
0.00561877
0.00378916
0.00426699
0.00436015
0.00815725
0.0209018
0.00694649
0.0102652
0.0140504
0.0174351
0.0196389
0.0204532
0.0199831
0.0188058
0.0174712
0.0163667
0.0156283
0.0153679
0.0155463
0.016592
0.0178077
0.0195406
0.0211831
0.022761
0.0237908
0.0247057
0.0239442
0.0210956
0.0171855
0.0128162
0.00863542
0.00553026
0.00472096
0.00459318
0.00663235
0.00935869
0.0123
0.0159324
0.0193464
0.0214732
0.0222746
0.0226339
0.0220273
0.0208448
0.0202243
0.0199649
0.0193606
0.019333
0.020052
0.020497
0.0213638
0.0216804
0.0224248
0.0232811
0.0241998
0.024534
0.0234625
0.0204026
0.0158988
0.011141
0.00668941
0.0040124
0.00495677
0.00736735
0.00358642
0.012661
0.00752184
0.00923983
0.01073
0.0117945
0.0123111
0.0125254
0.0125771
0.0125956
0.012641
0.012737
0.0127815
0.012781
0.0122296
0.0115469
0.0111848
0.0116679
0.0121115
0.0122073
0.0112553
0.00960402
0.00704014
0.00466665
0.00461425
0.00653139
0.00865848
0.0104284
0.0109068
0.00980921
0.00277983
0.00340118
0.00316259
0.00620574
0.00967545
0.0127887
0.0150324
0.0163674
0.016401
0.0163638
0.0154104
0.0149542
0.014053
0.0137991
0.0139426
0.0144888
0.0150745
0.0155316
0.0156236
0.0148689
0.0132829
0.0107838
0.00786473
0.00524978
0.00303892
0.00105628
0.00026283
0.000118892
8.26298e-05
7.83285e-05
1.02401e-05
0.005833
0.00375434
0.00420189
0.00457276
0.00459332
0.00421925
0.00352912
0.00295285
0.00297373
0.00353785
0.00423615
0.00500867
0.00599999
0.00486646
0.0022624
0.00695893
0.00573948
0.00468828
0.004233
0.00476998
0.0059819
0.00754311
0.00940391
0.0110205
0.0117453
0.0114198
0.0105718
0.00936697
0.00834755
0.00718359
0.00631859
0.00540232
0.00491372
0.00483608
0.00534358
0.00596293
0.00657621
0.00702886
0.00729185
0.00733032
0.00712347
0.00650915
0.00563461
0.00485622
0.00219893
0.010542
0.00831101
0.00625731
0.00529735
0.0056504
0.00698834
0.0085501
0.0101317
0.0117079
0.0127274
0.0132571
0.0132001
0.0128913
0.011982
0.010877
0.00936416
0.00751586
0.00552053
0.00465777
0.0056533
0.00761313
0.00927565
0.0108008
0.0115506
0.0113147
0.0104796
0.00865123
0.00660222
0.0110065
0.00382899
0.0110997
0.00873095
0.00798139
0.00936923
0.0119513
0.0151759
0.0175707
0.0195888
0.0194734
0.0192151
0.0171876
0.0157761
0.012984
0.0107843
0.00804024
0.00579116
0.00506236
0.00667391
0.00930916
0.0114627
0.0136825
0.0152197
0.0159321
0.0152085
0.012978
0.00959686
0.0063868
0.00474404
0.0222907
0.00455364
0.00829599
0.0104176
0.0118147
0.0124478
0.0126324
0.0126079
0.0124381
0.0121177
0.0117094
0.0109722
0.00994379
0.00875759
0.00733576
0.0067915
0.0078379
0.0100541
0.0119284
0.0143439
0.0165154
0.018782
0.0201959
0.0206007
0.0187477
0.015597
0.0118172
0.00845841
0.00618893
0.0050445
0.00378826
0.00546927
0.00811169
0.00670028
0.00564473
0.00537388
0.00566144
0.006279
0.00730293
0.00860152
0.00989603
0.0112946
0.0120975
0.0126181
0.0125059
0.0125008
0.0118316
0.0108593
0.00908967
0.00692928
0.00458883
0.00436434
0.00670115
0.00918843
0.0115857
0.0135165
0.0146333
0.0147086
0.0135959
0.0113823
0.00588257
0.0063751
0.00474773
0.00466246
0.00630223
0.00877274
0.0107935
0.0119777
0.01238
0.0123771
0.0122418
0.0121756
0.0122321
0.0119372
0.0110495
0.00960978
0.00770186
0.00604668
0.00692322
0.009115
0.0111242
0.0129892
0.0144171
0.0155459
0.0156423
0.0140903
0.0110477
0.00796893
0.00613618
0.00581829
0.0106184
0.0182907
0.0054789
0.00825333
0.0109956
0.0133505
0.0148184
0.0152656
0.015059
0.0140862
0.0126015
0.011347
0.00962654
0.0084833
0.00761798
0.00762665
0.00861579
0.00997766
0.0112841
0.0123303
0.0134859
0.0144036
0.015136
0.0157871
0.0154696
0.014133
0.0117052
0.00860558
0.0058675
0.00440909
0.00496031
0.0240686
0.0102026
0.0136076
0.0165796
0.0182194
0.0185241
0.017558
0.0162368
0.014282
0.0126774
0.011053
0.0100476
0.00990381
0.0109019
0.0126361
0.0139154
0.0151435
0.0162248
0.0170284
0.017832
0.018352
0.0180438
0.0163547
0.0134194
0.00983461
0.00636737
0.00442375
0.00459379
0.00444124
0.0143592
0.0245591
0.00751931
0.0110166
0.014947
0.0183826
0.0204093
0.0209126
0.0197653
0.0178976
0.0157796
0.013668
0.0114421
0.00980812
0.00964795
0.0110193
0.0132731
0.0157857
0.0182411
0.0203906
0.0227396
0.024136
0.0238529
0.0221973
0.0184731
0.0140046
0.00981083
0.00657825
0.00526477
0.00461568
0.00792713
0.0123537
0.0127629
0.016799
0.0203968
0.0225772
0.0232621
0.0229645
0.0216539
0.0196462
0.0179117
0.0158544
0.0136423
0.0130116
0.0134132
0.0149948
0.0171723
0.0183321
0.0200694
0.021453
0.0231412
0.024256
0.0240201
0.02161
0.017397
0.0125584
0.00790105
0.00476447
0.00489332
0.00700784
0.00354879
0.012479
0.00862616
0.010354
0.0117556
0.0124856
0.0126548
0.0125039
0.0121829
0.0119893
0.0120596
0.0125376
0.0132238
0.0136092
0.0135642
0.0124294
0.0115684
0.011688
0.0122997
0.0124477
0.0117467
0.0102036
0.00805632
0.00588616
0.00532309
0.00679227
0.00881517
0.0104085
0.0108444
0.00993077
0.00235064
0.0049081
0.00357907
0.00685717
0.0104481
0.013624
0.0154999
0.01643
0.0158508
0.0152192
0.0136438
0.0123815
0.0108357
0.0102937
0.0108144
0.0120108
0.0133744
0.0145961
0.0151836
0.0149904
0.0137035
0.0112963
0.00833612
0.00553793
0.00333129
0.00144036
0.000377264
0.000179265
0.000144552
0.000172935
2.90807e-05
0.00603662
0.00378423
0.00437071
0.00476154
0.00477033
0.0043186
0.00359049
0.003038
0.0030846
0.00366216
0.00439689
0.00528986
0.00674586
0.00734566
0.00248111
0.00778714
0.00611739
0.00468072
0.00409498
0.0046738
0.00601021
0.00773353
0.00971348
0.011325
0.0119733
0.0114628
0.010731
0.0096812
0.00896879
0.00811757
0.0075114
0.00689961
0.00644362
0.00627153
0.00640497
0.00659363
0.00682228
0.00699411
0.00708232
0.00706295
0.00684967
0.00634291
0.00577772
0.00482176
0.00222898
0.0113646
0.00860934
0.0061634
0.00491213
0.00522735
0.00664262
0.0083028
0.0101831
0.0119026
0.0131938
0.0139298
0.0140242
0.013776
0.0130979
0.0123147
0.0112164
0.00972278
0.0081885
0.00679503
0.00682792
0.00776076
0.00915522
0.0103675
0.0108789
0.0109352
0.010105
0.0083693
0.00673921
0.0111254
0.00392173
0.0127354
0.00954686
0.00822805
0.00945763
0.012214
0.0156296
0.0186751
0.0208497
0.0209646
0.0210228
0.0191311
0.0177936
0.0152556
0.0133096
0.0107045
0.00850307
0.0073152
0.0081158
0.0103648
0.0121854
0.0141968
0.0153949
0.0158559
0.0149012
0.0124646
0.00896644
0.00590713
0.00471129
0.0221851
0.0110056
0.00997484
0.0118511
0.01314
0.0137032
0.0137278
0.0134533
0.0131812
0.0129002
0.0122863
0.0114339
0.0103553
0.00877055
0.00692997
0.00516869
0.00499766
0.00714371
0.00933427
0.0122094
0.0144903
0.0171433
0.0190109
0.0196433
0.0182591
0.0155356
0.0118993
0.00858306
0.00630018
0.00501916
0.00448194
0.00561711
0.00896312
0.00686671
0.00560774
0.00530025
0.00564746
0.00642937
0.0075037
0.00897705
0.0105268
0.0119318
0.0126669
0.0131117
0.0129759
0.0129305
0.0122587
0.0115093
0.00993972
0.00838557
0.00660965
0.0060195
0.00743951
0.00946907
0.011508
0.0133277
0.0144749
0.0144785
0.013671
0.0117788
0.00546177
0.00631605
0.00537293
0.00523446
0.00714717
0.00958192
0.0115168
0.0127029
0.0131889
0.0131612
0.0130001
0.0128434
0.0129113
0.0125172
0.0115382
0.0100258
0.00776806
0.0058168
0.0059447
0.00776933
0.0100937
0.0119234
0.0137967
0.0147887
0.014782
0.0131504
0.0101465