/*--------------------------------*- C++ -*----------------------------------*\
| =========                 |                                                 |
| \\      /  F ield         | OpenFOAM: The Open Source CFD Toolbox           |
|  \\    /   O peration     | Version:  2.1.1                                 |
|   \\  /    A nd           | Web:      www.OpenFOAM.org                      |
|    \\/     M anipulation  |                                                 |
\*---------------------------------------------------------------------------*/
FoamFile
{
    version     2.0;
    format      ascii;
    class       volScalarField;
    location    "0.005600000";
    object      omega;
}
// * * * * * * * * * * * * * * * * * * * * * * * * * * * * * * * * * * * * * //

dimensions      [0 0 -1 0 0 0 0];

internalField   nonuniform List<scalar> 
12384
(
12584.8
24106.1
28898.3
32436.4
35415.6
37420.5
38137
36967.4
34421.3
31082.3
26728.4
21385
14460.8
7730.7
25320.8
35127.4
41605.8
45690.2
48389.4
50173.8
51204.3
52122.6
52592.8
53830.8
55815.3
59186.7
63425.8
68509.3
73668.3
78242.5
82000.1
83869.2
84714.2
84348.5
83308.8
81695.6
79175.1
75787.6
70835.6
63372.9
50201.6
32295
18449.7
15540.2
41947
49304.2
55904.4
61559.8
65976.8
70410.5
73682.9
75018.7
74350.1
74175.3
74997.1
79085.8
84853.4
92638.4
100236
107637
111545
111987
107693
104618
102640
100789
98630.2
94978.1
89075
79702.1
64376.2
42762.7
26027
26033.8
45376.3
59013.8
68761.4
74667.5
78177.1
79965
80165.2
81559
86366.1
94378.3
104177
115462
126341
136729
144054
147714
147761
146171
143886
140447
136509
131042
123703
114442
102378
87601.9
72909
56165.3
43718.8
45317
47855.2
54337
61658.6
73056.7
86918.6
101570
116084
130102
142976
154543
163530
170817
171022
170022
160683
155425
151447
146777
141273
133660
124216
112728
100070
87130.6
74097.2
57431.2
40212.4
32571.8
34208.2
36966.1
29032.4
40376.9
49234.4
55121.8
60003.2
64086.9
66949.7
68234.6
68006.6
68976.9
71698.9
78242.2
86896.4
98156.4
110231
122195
132885
140210
142985
137082
127324
121975
119186
116937
113505
107341
96862.4
80277.8
58672.2
44695.2
26022.6
31431.6
37340.7
41455.9
44406.1
47530.9
52518.1
62065.6
73330.7
86679.7
98999.9
112027
122377
131521
136775
137360
133253
128051
122034
114323
105532
95081.8
83658.9
73122.4
66091.6
62610.6
59648.3
55139.4
48040
40726.1
29210.1
29254.2
36608.8
47088.4
59822
74188.3
89114.7
103975
117815
130234
140297
147664
151589
150775
148154
145129
143357
140467
137128
131995
124460
113866
99437.5
79288.1
61556.8
54227.9
50891.6
47333.4
45051.1
45619.4
37585.9
57423.5
72631.3
87584.1
102682
118198
132610
145803
157029
162809
168326
164358
160064
156602
151784
147157
142394
136464
128906
118131
103157
81904.1
63357
54700.7
49175
44069.2
40188.4
37196.5
33641.5
29983.3
38216.6
45757
64431.5
86031.8
108027
129915
150947
170223
187371
199671
208478
209423
205401
190521
180245
170726
162517
154100
144096
131662
116188
98578.5
80271.5
68993.7
63825.3
61096.9
59705.7
59982.8
60305
59812.8
37490.2
51545.8
77766.6
103844
127787
149962
170276
188045
203133
214028
219859
220489
213882
204912
199880
193635
186572
177614
164783
146768
123449
99060.3
82089.8
73198.7
66522.9
63602.5
64367.1
67765.9
69231.5
65183.1
24470.6
33472.3
47561.5
56658.4
61817.2
64548.5
65878.6
67110
68275.6
69385.7
69441.7
67462.2
65454.1
63734.8
64490.9
68394.1
74077.2
81764.7
89631.8
98090.5
103106
106566
99837.7
96758.2
92723.4
88658.6
82428.8
70478.4
47421.2
17799.7
5966.45
9540.08
10341.6
10195.2
12236.2
26662.1
60561.5
85079.8
99664.3
109137
116040
121463
127363
133295
133282
127761
118609
106342
92512.2
77889.9
62843.3
49399
36723.3
24699.4
15031.6
8168.71
4136.08
2369.41
1790.45
1268.95
21529.2
94911.7
118718
139927
162205
183494
201069
211404
212693
201903
181802
153016
116749
23237.6
26803.4
114789
152053
180194
197186
204662
205585
206517
213284
232356
264482
310524
365907
425387
485250
539586
583602
612061
624421
618449
596054
558861
507179
446861
377807
308231
239445
179360
122812
27831.6
46758.4
214578
286294
331249
351456
350385
332728
312647
297799
298521
317298
360321
418525
489685
569614
652145
731561
798333
843853
854053
832474
780869
706952
612357
504307
388836
281704
198118
145519
45023
57270
243817
285344
302731
297235
288815
291976
317959
372704
446995
538553
645071
760302
874835
979323
1.06273e+06
1.11723e+06
1.12926e+06
1.10453e+06
1.04406e+06
958941
852039
727885
591305
454604
327941
235349
191087
170615
66447.2
47347.3
164974
261493
368548
477935
588830
702109
816807
930789
1.04111e+06
1.14429e+06
1.23633e+06
1.31403e+06
1.3708e+06
1.40345e+06
1.40168e+06
1.35792e+06
1.2834e+06
1.17908e+06
1.04236e+06
878246
682363
481227
317492
223520
195835
181104
166755
153086
50194.8
45789
180815
221520
246280
259053
259270
249843
241289
239190
254538
286669
339911
406579
487469
579107
679324
781779
880063
966732
1.03307e+06
1.06745e+06
1.0538e+06
997105
907127
791074
654001
504476
360516
241045
66809.6
32293.2
105018
126296
138862
155012
195839
269939
364504
464659
567236
670324
772682
871869
963161
1.04253e+06
1.10304e+06
1.13578e+06
1.13158e+06
1.09632e+06
1.02595e+06
932722
812937
673372
514970
362976
256998
205882
180021
157193
56937.9
44051.2
109896
151045
220522
307236
402695
504476
611134
720267
827693
928017
1.01572e+06
1.08495e+06
1.13306e+06
1.15174e+06
1.13807e+06
1.10158e+06
1.03996e+06
963091
871367
767660
651951
525471
397226
279733
195219
159678
149724
143290
54173.4
58454.4
242071
329501
425098
534847
656850
785637
916403
1.04403e+06
1.16101e+06
1.25614e+06
1.323e+06
1.35124e+06
1.34063e+06
1.2886e+06
1.21096e+06
1.10766e+06
987681
855599
714524
567409
420800
281926
186731
182561
192865
188042
173971
147535
43429
51027.1
191926
289765
397594
517958
650050
791817
941009
1.0925e+06
1.24015e+06
1.37595e+06
1.49148e+06
1.57721e+06
1.62512e+06
1.62113e+06
1.56188e+06
1.467e+06
1.34008e+06
1.18718e+06
1.00792e+06
797232
568009
357227
218684
194363
205822
210154
206168
192825
64963.2
50123.4
230466
372850
511622
651276
795176
944204
1.09599e+06
1.24535e+06
1.38497e+06
1.50733e+06
1.60393e+06
1.66824e+06
1.68615e+06
1.65673e+06
1.57963e+06
1.46836e+06
1.32431e+06
1.15618e+06
964271
747285
519444
309446
225814
252255
275503
279454
272178
251932
73158.8
40902.5
116983
171071
223941
273045
316590
349059
369306
375697
369061
349531
321827
293211
269541
261282
274191
308002
357211
416387
482756
550980
612458
661832
679334
649925
592928
507973
394066
262290
53391.9
13089.3
65981.3
77920.1
92714
158858
304471
466585
610313
729573
821288
887033
922103
924414
888026
825891
744436
650624
550642
449251
351490
264525
195799
145908
117650
100877
87651.5
75473.5
61924.7
46700.8
1526.61
28543.5
119806
142438
160629
177311
191332
202476
210651
214326
211309
201229
182885
155056
30498.8
31058.4
149947
180518
197928
205508
209402
215432
228739
252238
287767
330493
377130
421608
461764
497392
528713
555310
576419
587265
587449
575462
552756
519180
476049
423078
362592
296897
231510
167481
39549
51032.5
267723
315199
331280
331285
325314
321816
326555
340859
366450
398141
434745
473010
512389
556428
603788
655333
706005
752898
783715
792109
778576
743231
684602
602387
498210
383872
275921
194215
58500.2
63398.1
286018
294102
292359
298473
325628
371258
430033
491438
549823
603783
663445
726909
796111
867109
932447
985029
1.01296e+06
1.01612e+06
996301
957873
903912
830116
730489
604416
464248
328750
233588
197771
77537.5
49006.4
225359
338924
434589
517348
595243
674388
757415
844133
932265
1.01891e+06
1.09937e+06
1.17052e+06
1.22753e+06
1.26874e+06
1.28725e+06
1.27857e+06
1.24982e+06
1.20329e+06
1.13822e+06
1.04152e+06
895314
706181
508623
347156
242348
192583
176829
181064
59008.7
56008.1
226054
253252
261603
260462
256626
255636
263851
281826
312182
349768
397859
451841
513126
580191
652614
727364
801652
871749
932019
975085
989804
973864
932505
866393
768345
635427
481071
330110
80858.4
37678.2
129650
144945
158347
193827
266766
358449
443340
517998
588725
660506
735120
812753
890749
963814
1.02395e+06
1.06384e+06
1.07975e+06
1.06534e+06
1.02915e+06
973269
901396
805561
676008
518932
367356
263193
210963
181195
63208.6
53676.2
134667
200587
288634
377312
464128
549891
636113
723176
809548
892134
966363
1.02756e+06
1.07232e+06
1.09663e+06
1.09853e+06
1.07952e+06
1.04345e+06
994123
935158
866468
783279
678715
554700
423305
300621
205642
158695
159830
58341.8
73196.8
308988
412525
515667
619852
723390
825427
925605
1.0233e+06
1.11437e+06
1.19122e+06
1.25005e+06
1.28213e+06
1.28376e+06
1.25504e+06
1.20035e+06
1.1296e+06
1.04757e+06
956165
851294
726786
583941
433814
288171
197082
173564
174571
184567
175384
48297
57871.9
253263
367218
491610
621723
747705
866319
978895
1.08835e+06
1.19559e+06
1.29687e+06
1.38705e+06
1.45862e+06
1.5078e+06
1.52505e+06
1.50497e+06
1.45393e+06
1.38421e+06
1.29721e+06
1.18433e+06
1.02539e+06
813484
575883
368256
243569
192492
178320
200297
213190
67994.2
58582
331869
499740
645863
775338
893520
1.00628e+06
1.11799e+06
1.22855e+06
1.33499e+06
1.43338e+06
1.51375e+06
1.57129e+06
1.59976e+06
1.59224e+06
1.55216e+06
1.48475e+06
1.39663e+06
1.28996e+06
1.15567e+06
978459
757718
517208
321470
251912
238741
244529
277244
295018
77422.3
49923.1
178333
248304
314717
372742
418424
449464
466575
470639
463064
445030
419625
391879
366923
353464
356061
374942
401617
425274
444973
465911
491740
527542
556790
574488
575453
546743
470804
347559
66515.9
20402.3
83627.5
96796.6
168979
314980
490960
647607
772452
864024
927423
968427
987059
983297
955423
908101
846048
772246
686853
589293
480105
365811
258380
168483
101268
78665.7
74990.9
73471.5
68597
59679.9
1623.5
33242.8
142109
163981
179040
188966
193310
193887
195901
199762
203699
205344
200704
186986
36151.4
36578.9
186293
203684
206971
206333
211314
226872
254488
293792
342115
390082
430331
456992
473910
482851
489324
494212
500157
504249
505078
501381
492286
477406
454519
422349
378655
324778
263380
198296
46879.2
55745.4
311907
327090
317093
306337
306288
321696
351781
390976
433760
471455
499190
517599
527553
533248
538885
549554
569555
601234
638536
668311
686939
689753
671002
625330
548729
447301
335243
237429
66382.2
69289.7
323557
300516
290118
316120
379226
459974
543036
608078
652853
673631
686748
692809
705556
727766
758377
795023
826463
846936
857310
860803
855359
835193
785550
692136
561147
412964
287354
222047
83168.2
52567.4
282408
394748
474882
534120
584399
633185
684536
740267
800298
863187
926465
986435
1.03949e+06
1.08245e+06
1.11046e+06
1.12223e+06
1.12297e+06
1.11582e+06
1.10379e+06
1.0718e+06
993701
855246
674535
490794
341452
247099
205679
204384
64302.7
64689.1
261863
270475
263401
256571
256493
266787
289259
321721
361604
404961
451362
497500
542464
585828
626695
664719
700354
737186
776928
816616
844477
859567
860680
841854
789687
691692
554040
401022
90001.9
43299.4
152099
161199
182417
243952
337007
422685
485043
530857
572050
616367
667993
726943
790039
851219
905780
948264
970203
969900
952935
924581
887704
833248
743834
609781
451466
317848
239328
199976
67066.8
59290.1
159932
251391
350817
440425
520455
590310
652917
711225
767698
823489
877006
925724
965144
989937
997881
989463
969785
941986
910303
875149
829479
760809
662145
538502
405636
282910
196607
177552
60572.2
84179.5
368253
486005
595221
690784
770722
837635
898073
957884
1.01735e+06
1.07274e+06
1.12036e+06
1.14942e+06
1.15706e+06
1.14305e+06
1.10897e+06
1.06336e+06
1.01274e+06
958927
896437
812128
697713
557935
406827
267225
180227
162564
190891
195695
50719.6
63165.6
299140
429982
573283
712837
828948
918032
984476
1.03947e+06
1.09301e+06
1.14947e+06
1.20646e+06
1.25875e+06
1.30241e+06
1.32912e+06
1.33498e+06
1.32167e+06
1.29799e+06
1.26684e+06
1.21909e+06
1.12881e+06
970959
754933
531006
354584
231259
165878
198095
223589
69121.6
67744.5
424177
602617
748583
865194
956210
1.02981e+06
1.09575e+06
1.16082e+06
1.22746e+06
1.29468e+06
1.35535e+06
1.40428e+06
1.43413e+06
1.43747e+06
1.4185e+06
1.38374e+06
1.33872e+06
1.28564e+06
1.21432e+06
1.10122e+06
927173
702106
474630
310399
218678
205500
270923
325530
78676.4
60578.2
243253
324099
397583
457382
501295
530132
546002
550378
544253
528240
505076
477430
450366
432465
431559
447838
466750
469968
448572
410703
376560
378359
409494
457230
503917
527623
497373
400598
72472.8
27201.2
99330.9
145737
276944
452509
623184
756157
850445
911711
949129
971850
980106
974033
954147
926834
891899
846233
783613
698014
587177
457713
325291
207121
113672
72540.6
68024.6
70570.6
70714.7
66212.7
1695.53
36017.9
160185
181694
194533
198654
192799
180183
172300
175670
188899
205239
216312
218961
40787.5
42456.4
224993
225783
213300
204910
213602
240287
280568
332166
388727
436442
465338
471851
464791
446734
427124
408402
395407
390323
392285
399467
407460
413056
411897
400478
375376
336346
283817
222106
51477.7
60727.8
358720
341204
306077
285135
291561
324802
376729
435745
491845
534959
559259
565147
555790
531559
497938
461108
432812
430942
464196
514724
565430
604216
622904
612465
564957
482755
377071
273741
71381.6
75847.3
368637
317475
300861
345635
437726
547279
650312
721823
756604
752476
725651
679775
635015
597531
577676
581889
608661
649318
693925
738102
776857
803310
797401
736787
621289
469905
327213
241625
86646.3
57894.9
325452
435919
507742
552816
584653
610442
634435
658929
684650
712196
741840
774994
812526
853504
894763
929845
961317
990734
1.02034e+06
1.03952e+06
1.02146e+06
938282
792136
612501
440266
314236
244057
220897
66852.7
73057.5
297082
284661
263656
254034
259130
278991
311706
354957
403328
454129
501874
543366
574978
599038
610320
607613
590891
573985
574421
605508
655382
709273
755536
782177
772684
710494
598019
458096
95538.7
49421.1
175346
179403
213240
298684
397124
467312
507945
530893
551470
577568
611166
647166
680217
709321
736717
768066
798445
819659
831045
834694
830038
810604
755518
646553
494971
351375
260085
216207
69881.4
62657.7
186403
298524
407754
502919
580582
635836
674223
699131
717622
735204
755994
781543
809959
835689
854104
863714
864759
860302
853294
845919
832404
798136
729212
622468
489727
352066
241728
195178
62150.5
93267.3
418558
548302
663476
749840
805939
836115
851429
864166
880770
904397
932869
960989
980590
986881
980189
964236
944939
925093
900997
856695
776282
655719
508683
355734
224947
167276
199486
208560
52127.7
69701.1
333789
483380
645033
791775
895539
953065
970490
967131
960398
962254
978080
1.00704e+06
1.04571e+06
1.08609e+06
1.11764e+06
1.14381e+06
1.16491e+06
1.18388e+06
1.19233e+06
1.16349e+06
1.06395e+06
886617
671132
473999
312477
205112
209056
225495
69635.8
82347
501785
682741
829486
936777
1.00358e+06
1.03971e+06
1.05891e+06
1.07314e+06
1.09062e+06
1.1166e+06
1.14945e+06
1.1861e+06
1.21894e+06
1.23932e+06
1.2428e+06
1.23731e+06
1.23206e+06
1.22636e+06
1.21173e+06
1.16164e+06
1.04355e+06
851159
622253
417567
253844
190920
260303
343057
78155.1
72234.4
308042
395627
471408
529228
569637
595776
610470
615533
611983
600790
583297
557537
525704
497648
489216
504030
523526
522536
481759
401810
302699
250891
279631
356813
442489
506610
511024
438600
73686.9
32950.8
121475
211923
374042
557993
712557
817597
878517
907278
914777
911354
901843
890121
879668
877708
877407
868080
836574
771604
667438
531224
383091
245693
136804
78797.1
68488.1
70772.7
72535.5
69720.8
1799.8
37661.7
172409
194858
207019
207825
193931
169065
150427
152989
175703
205249
230578
251016
45965.8
48513.6
265032
247517
218154
202319
215398
252427
302271
362941
424023
467959
484100
473826
447760
409896
370846
332242
300508
282788
283786
302328
327288
350975
366971
371693
361832
336957
294802
239629
54044.9
65866.9
407292
359492
300831
268761
278276
325004
393029
467141
535712
586829
613308
616225
598882
561695
506029
434381
353985
297613
304998
369176
448006
518008
565903
582277
558742
496941
402355
302121
74250.2
83702.1
422433
345836
322255
378807
490670
623549
744804
824662
855692
838612
785135
705493
616268
523273
440435
388222
395119
455637
540360
627031
703869
764109
787873
750906
647893
495401
343882
250268
87762.8
66176.7
360382
474238
545626
584191
604426
614008
618046
618213
613470
602610
586089
569750
565056
589932
641972
706337
776298
845244
913963
972945
1.00194e+06
966169
857671
693549
515186
370191
279028
233120
68423.4
81515.5
333176
298640
264926
253110
262483
288902
328992
381111
438433
496549
545633
582634
603612
613689
603755
569466
505644
423352
361891
379747
464212
564608
655313
719954
743920
711274
624426
502379
96959.7
56221.2
201595
202036
249853
351849
447654
504058
530072
539582
549440
564821
583060
592870
584862
560225
530492
523877
559101
616974
674023
720802
751934
762697
733267
644301
502297
360397
270199
229336
71185.6
65414.5
218391
343377
462761
569336
648296
691809
708536
700261
678348
651051
626725
614138
618546
640572
671704
704512
734509
759589
780715
798675
811440
805725
763574
675168
547614
401356
275378
208345
63079.4
101384
458942
601112
724837
803719
838398
832497
802949
766426
733037
714300
715473
736501
768429
801795
828839
849301
863473
875299
883494
873938
825590
726346
587360
430013
277393
192261
213848
212560
53561.8
80736.5
360245
527907
705168
856957
949566
979843
955704
903156
840842
783052
742445
732421
759077
810419
874734
943204
1.0125e+06
1.07904e+06
1.13434e+06
1.15658e+06
1.10684e+06
969313
771644
570189
390154
262881
234858
224859
69631.8
102438
561222
744209
896648
999913
1.04753e+06
1.05143e+06
1.02785e+06
990471
950247
917349
903864
917915
954109
995102
1.03485e+06
1.06906e+06
1.10472e+06
1.14262e+06
1.17719e+06
1.18176e+06
1.11557e+06
959351
740334
517762
320465
208513
251581
346595
76877.5
83495.1
370376
460417
534009
585764
618814
637311
645660
648624
649246
648960
646256
631167
597602
553411
527420
535702
556574
560255
519521
431011
304865
205640
217354
309373
415824
498376
517909
458199
70032
37769.1
147742
269387
449133
633626
768829
844962
871941
863729
835028
796286
761911
741683
745165
774375
813570
844337
848402
810387
719951
583455
426060
276381
158120
87892.9
71530.1
72483.8
73727.2
69873.1
1967
38422.4
178430
202587
216110
216605
198440
166177
140448
142939
172008
209247
245091
282384
50749.9
56212.8
304743
267187
221035
197729
214873
259683
316084
383373
447718
487823
494767
474583
439722
395590
351901
306523
267554
240213
239494
261670
291994
319912
340334
349819
346349
329673
295937
249334
55517.6
71708.1
454875
379532
299988
256104
263762
317946
396536
482486
563073
624584
657657
664221
648590
611842
555803
478067
382218
288229
246395
293409
378625
461346
522004
549589
538606
491689
409144
318252
74336.7
93739.8
484729
384404
351199
407907
528314
678593
817705
910115
944560
927441
864269
774935
665331
544273
418561
305835
262682
331519
453993
570611
668612
744389
776991
748225
647158
490405
336961
249085
87157
79227.7
401879
521123
595150
630762
642990
640821
633446
620907
599812
564243
511795
443812
372302
339865
387553
486289
596773
703429
805068
893895
954265
950931
875267
730822
556499
404064
300871
239865
69395
90590.8
369848
312185
267534
253748
265341
295600
341073
400225
466625
531212
581717
613891
627286
628947
609892
563789
481510
365974
247338
240647
356387
484621
598709
681440
720615
704901
639031
530991
92998.1
64421.6
229394
227003
291252
399650
490222
540791
560614
564999
570376
580201
588596
579519
539896
469292
373099
292467
328798
435104
540054
624774
684311
714279
697184
617468
482099
351310
274280
239529
70244.4
69116.5
256367
394283
525930
641105
722416
759802
761825
728591
674115
606254
534010
469839
427074
425280
467796
534551
601178
660327
709030
749524
782378
797375
775562
702295
578654
425980
291200
214267
64199.2
109345
490308
648034
782307
857147
875155
841645
777508
701323
618435
544192
493335
490814
537084
606509
675432
735792
783310
823841
857463
875261
852884
772287
640604
478094
313589
221115
227321
213062
56423.9
96317.9
389136
566759
751536
907085
993492
1.00636e+06
955269
871524
768407
655308
543918
467671
470096
542161
646503
758357
870832
976694
1.06729e+06
1.12552e+06
1.11068e+06
1.00861e+06
830277
630066
440051
304814
257279
224518
70653.5
123956
604211
790409
951595
1.05645e+06
1.09225e+06
1.07343e+06
1.01747e+06
935846
837927
735954
651113
610935
641830
721015
812440
899322
980104
1.05748e+06
1.1306e+06
1.17762e+06
1.15158e+06
1.02698e+06
821257
591838
377241
241183
250511
336717
76847.9
93203.8
427315
517434
585348
626430
644499
644509
635360
628187
631628
650104
676130
686548
662248
602390
548521
541964
561965
572341
542486
468811
362280
267817
251360
324500
422153
497465
513938
452405
64072.3
41538.6
167582
309097
500598
682771
800268
850288
846161
802074
733871
653133
583345
548609
571660
641134
723503
793277
830363
820184
746984
614548
452380
295259
171696
96137.9
74432.9
74102.6
74102
68286.1
2886.97
38423.8
177534
205000
221891
224123
204433
170768
145450
148535
178241
216205
258647
312266
57320.3
63308
344448
283951
220871
190141
210085
259537
319548
392126
460319
500048
503637
484340
455887
422929
392628
359486
332740
307481
302995
309112
322390
332784
340215
340673
333392
316844
287896
250788
57801.4
77390.8
502090
399030
299071
241874
244233
300794
385175
480116
572230
645757
688742
702233
691888
665266
623741
564760
488202
405426
344152
341537
388051
447604
496841
520843
513378
473035
399787
322244
73328.9
104808
555139
418304
363021
412811
537922
701612
859912
969834
1.01798e+06
1.01083e+06
954423
874319
771113
655929
533848
421337
358754
391931
494073
600089
689281
753471
773653
733064
621640
460958
315462
245660
86164.6
108728
481741
592768
663012
693446
698604
688615
676300
661125
637548
597561
537231
455700
359731
271229
266006
356723
475665
597739
715368
819344
896150
908322
853104
725506
560623
411479
306012
240178
69737.9
100744
407700
322213
265539
249198
263079
296785
346455
412394
487505
557363
609011
637467
647740
646563
629998
591672
525236
437809
351717
326401
393732
496216
596257
671517
707500
697095
642622
534063
87500.6
73956.3
259531
252212
331065
441453
529362
579645
598774
602522
605564
614499
621570
610276
566043
489370
385694
295507
304437
398086
501771
590942
653956
683283
662596
579552
448148
335455
275425
244157
68610.5
80789.6
322566
460690
596420
717988
801598
836825
831934
788506
719691
630699
529288
424002
325941
265427
296570
396188
502457
590472
658691
715197
759713
786226
775423
710508
586106
426630
289274
217683
70259.7
121518
526929
693351
833071
908064
919501
871311
789445
693200
580157
462561
347981
281453
332981
445587
557312
650388
723202
783500
834632
869896
863977
797315
669628
500611
327353
231471
228224
223660
70474.1
115769
437860
608568
789281
942086
1.0256e+06
1.03278e+06
973266
879625
762223
626879
470974
324320
278571
363985
494672
631041
768520
896596
1.00708e+06
1.08422e+06
1.08757e+06
1.00718e+06
843259
645877
453682
320605
264976
228124
78432.9
142696
634251
821429
988698
1.10023e+06
1.13469e+06
1.10658e+06
1.03345e+06
927132
792635
640191
483963
353463
344014
479296
631407
767377
884826
990410
1.08869e+06
1.16114e+06
1.15867e+06
1.05614e+06
860705
630692
412450
270463
261027
322466
80834.8
100786
476271
567362
628465
654405
648072
613881
568883
539511
547691
597057
665051
714015
711034
643933
555416
524386
539615
556395
541858
492670
420326
354477
332348
373296
442525
494736
495694
423085
56523
43333.9
174675
328858
528918
709665
813634
843808
816567
744771
642488
519324
399851
338069
398869
519262
640262
739502
800037
810950
753006
626133
462321
301909
176611
101362
75177.3
74593.8
75053.5
69041.4
7345.4
37690.2
170461
202075
224132
229376
211041
183087
167709
177205
206148
243213
293001
364691
338281
87468.4
86165.8
342199
378799
303222
222594
181605
201856
251150
311645
388042
462162
505788
514396
507249
496561
485657
476048
463797
452411
434152
419792
402563
389362
373239
357695
339365
319254
297196
272855
252803
214893
73194.6
89898.4
447069
536633
412600
296880
229012
224130
276565
359757
458603
560336
646638
702133
724362
721119
704746
681763
648827
603371
549557
497590
463437
460456
476870
494817
499268
481066
436705
369844
316832
265963
89239.5
134692
612932
618018
454222
372722
401707
517409
685378
860587
993525
1.06438e+06
1.07651e+06
1.04332e+06
986604
910056
824930
735270
658175
608656
609735
652785
711637
761948
792010
780625
712559
587038
440352
358141
378975
376147
142000
164868
624783
650528
702760
751199
771066
768739
753507
739717
727883
710842
680840
634039
570905
496469
426333
385971
404367
471643
563787
666309
763421
838321
852175
804847
688136
535639
397875
300211
242905
221007
91019
127534
459329
443274
337918
271040
249928
262047
295179
345822
416321
498581
573882
628286
657154
669162
672286
667788
650164
616343
571573
528655
509632
528238
578873
638052
685190
704266
687767
630524
516045
267282
86738.8
107895
341245
316431
308131
376764
476926
563086
617098
639470
644424
646245
657058
669386
669865
645107
598691
538028
490325
478135
511606
568561
624878
663437
670450
631315
539318
418292
329406
287166
271627
249919
113471
135386
502287
505788
563028
670590
787799
875166
915458
912897
872537
807717
722775
625261
518426
413949
332292
323862
394386
492236
578827
649085
707445
753614
779875
769725
704111
575497
411660
285221
280828
297135
108707
118546
464262
585438
735590
873393
951509
964081
915482
835866
741167
631355
512072
384675
284541
297457
403634
519638
617843
697226
763734
821377
862162
862405
802720
675973
500999
318687
214387
250229
333436
341024
122584
137670
541615
565903
669438
819820
959420
1.04236e+06
1.05354e+06
1.00148e+06
916368
811309
690123
555288
427181
354761
385965
480870
599271
728433
853413
963470
1.0397e+06
1.04561e+06
972255
815027
617632
418309
289003
304253
364113
361838
138550
142681
490847
663573
836637
1.0015e+06
1.12084e+06
1.16531e+06
1.14323e+06
1.07294e+06
969177
834960
679735
514987
370138
316789
421702
572485
715899
842317
956571
1.06119e+06
1.13996e+06
1.14235e+06
1.04742e+06
855600
628624
419162
293128
283627
320481
316245
78873.6
88479.4
337925
513457
610439
666689
677543
643610
565625
466439
400110
420530
514824
628714
718058
741496
675381
552691
487688
493056
515198
516080
492362
453020
415760
401009
419128
456897
479016
457464
379906
181568
46351.4
46286.7
130186
178349
330299
534628
716218
813929
833458
796064
710367
591713
448191
296857
202680
311005
461086
596851
705318
774473
794042
743163
620181
456548
296560
173930
105510
81051.3
83853.5
88076.8
85523.4
58990.6
8099.15
2934.06
36222.6
157433
193556
222267
231672
217393
197294
190262
202000
227091
258794
302611
377414
468349
442022
429547
450151
403605
317608
224989
176202
190750
235511
293643
371564
452477
504790
526107
536347
545564
555454
561884
562440
555489
538131
514318
483328
452629
418567
385293
351193
319510
292597
273848
267238
271431
278495
380499
587318
542655
409063
287695
216383
205741
247801
322850
420332
528082
627006
697552
730564
732606
722034
709886
696170
676522
648176
613020
573670
542523
521962
505109
481276
442298
386716
326572
300148
326158
405895
597076
801795
643943
468239
366595
368378
463292
624707
810779
970171
1.07306e+06
1.11481e+06
1.11289e+06
1.08697e+06
1.0464e+06
998299
946802
898790
860083
841647
842440
850808
854718
841934
795335
709953
603133
533631
561170
646513
710416
728589
720441
689793
709919
769641
822442
844462
841465
824688
812188
806860
801677
790093
767089
731840
685400
634821
592399
572367
583588
621468
680070
742728
791126
791639
741684
631487
491921
368391
281177
234440
242624
315117
443473
567353
455845
342807
271695
247022
257370
287738
336538
410120
498535
580933
640476
673179
690571
702484
713311
718961
716108
704964
689700
676895
671498
679565
694556
704901
698259
665143
595318
477024
324700
308870
382267
425905
355808
342568
398490
491592
580388
643222
674209
682289
683502
695601
716854
737469
744095
736635
717462
695113
679393
676282
685681
696758
695600
668639
605482
510207
416378
366079
368781
426244
510164
569306
593100
569524
536754
591998
699038
822869
924957
981466
992673
968288
922578
860260
789189
711735
638232
575637
545504
556503
595437
644222
690962
733874
768115
783004
762542
689918
562569
415869
328524
348475
399124
418197
431197
480771
598859
744295
885427
977230
1.00384e+06
969996
906617
830411
745588
659078
572320
505917
483231
518235
581578
648293
710773
767882
819010
853507
850451
791006
665269
489910
309429
223371
284220
383520
465916
503030
517280
520244
535388
661157
804268
939336
1.03242e+06
1.06138e+06
1.03093e+06
968405
891280
805608
716739
634941
577276
563030
596567
665186
754548
850145
936193
992739
988538
911338
755082
561730
384849
324528
371892
428311
437080
401757
417586
505156
659083
816260
976005
1.10823e+06
1.17557e+06
1.17406e+06
1.12695e+06
1.05025e+06
947634
831029
713927
615040
565175
590143
667308
765270
864777
961630
1.04966e+06
1.1114e+06
1.10296e+06
1.00397e+06
808570
585370
397545
305301
309313
329803
311806
247846
263244
410478
550281
648109
699488
702556
653325
543739
386320
261767
317618
459973
603543
716261
757676
695417
546304
439759
428857
453591
466876
463038
450113
436410
431306
438591
451701
446892
405165
321222
194683
130764
126967
135994
175691
320080
521465
702242
800494
819859
783524
701881
592736
469603
359439
317174
383486
497223
609237
701223
760671
774284
721603
599669
436432
279860
164423
105175
81428
83849.7
88762
86550.3
70790.9
38717.7
2471.69
34350.6
141009
180234
214890
230265
223182
211225
207768
215786
232966
257472
287599
341701
452810
444475
429879
445184
383482
295613
207269
165772
179049
216022
266441
341230
427495
492405
529418
556735
583308
610594
631482
643457
641490
627209
601478
566099
528464
486839
445373
403879
367873
338222
321035
318366
337774
387961
502370
627408
520425
384157
267484
202162
189968
218412
278550
366957
474939
584385
671939
720378
731467
723607
713948
707654
700187
685482
661586
627651
588684
549620
509627
464654
411084
353691
315096
335768
439391
594693
772149
844396
623572
447685
334401
311070
379506
522926
710960
894306
1.03214e+06
1.11088e+06
1.14439e+06
1.15134e+06
1.14582e+06
1.13148e+06
1.10861e+06
1.08164e+06
1.0505e+06
1.01996e+06
993014
965579
930876
883838
818222
740642
677167
662410
695212
731848