/*--------------------------------*- C++ -*----------------------------------*\
| =========                 |                                                 |
| \\      /  F ield         | OpenFOAM: The Open Source CFD Toolbox           |
|  \\    /   O peration     | Version:  2.1.1                                 |
|   \\  /    A nd           | Web:      www.OpenFOAM.org                      |
|    \\/     M anipulation  |                                                 |
\*---------------------------------------------------------------------------*/
FoamFile
{
    version     2.0;
    format      ascii;
    class       volScalarField;
    location    "0.005600000";
    object      T;
}
// * * * * * * * * * * * * * * * * * * * * * * * * * * * * * * * * * * * * * //

dimensions      [0 0 0 1 0 0 0];

internalField   nonuniform List<scalar> 
12384
(
3081.73
3074.7
3061.77
3057.05
3057.24
3060.04
3062.42
3063.67
3065.13
3066.86
3070.42
3081.96
3088.61
3029.13
2775.92
2785.97
2807.02
2829.16
2842.08
2845.9
2847.1
2849.98
2855.36
2860.41
2867.82
2871.43
2874.97
2876.48
2872.99
2875.2
2871.76
2862.59
2864.74
2860.5
2849.48
2850.23
2837.45
2830.71
2808.42
2788.65
2746.08
2688.61
2618.92
2614.37
2997.54
2949.36
2871.1
2861.55
2864.7
2874.27
2884.06
2900.75
2909.1
2923.5
2923.24
2932.03
2926.26
2926.9
2926.99
2917.08
2920.57
2911.17
2912.2
2910.29
2910.67
2906.45
2910.3
2908.94
2909.16
2929.37
2942.22
2912.48
2899.99
2926.89
2964.49
2990.73
2989.8
2970.84
2960.04
2943.15
2940.81
2925.79
2927.46
2908.18
2912.81
2890.46
2896.22
2873.92
2882.71
2868.13
2874.85
2876.2
2874.82
2891.14
2894.74
2903.43
2906.93
2913.47
2903.47
2875.82
2859.13
2861.79
2860.4
2862.7
2827.99
2828.02
2828.77
2828.54
2829.58
2829.58
2828.24
2827.21
2824.22
2822.77
2821.41
2820.12
2819.97
2817.68
2821.24
2818.02
2834.02
2832.32
2852.66
2864.02
2878.46
2894.83
2872.26
2797.09
2779.44
2800.69
2824.38
2839.66
2847.49
2847.45
2842.14
2816.13
2804.7
2793.63
2788.09
2774.65
2768
2756.51
2757.87
2751.07
2756.61
2750.81
2760.27
2754.45
2762.16
2756.58
2762.48
2759.02
2764.46
2762.93
2775.17
2774.69
2776.88
2782.8
2776.32
2765.36
2753.43
2773.08
2831.02
2854.24
2761.32
2761.23
2761.23
2770.99
2781.35
2794.42
2797.59
2793.59
2785
2785.84
2781.03
2778.37
2780.34
2775.44
2775.24
2783.05
2780.7
2789.45
2789.82
2801.59
2806.09
2814.02
2822.68
2824.21
2758.28
2631.93
2627.53
2664.72
2698.63
2715.31
2750.4
2756.51
2768.95
2748.18
2732.3
2722.04
2717.77
2712.84
2714.06
2707.86
2710.55
2702.98
2707.33
2704.03
2707.81
2703.91
2706.48
2707.97
2704.96
2706.96
2706.27
2708.45
2712.56
2751.09
2758.13
2761.82
2765.19
2773.75
2776.62
2776.19
2912.31
2920.6
2921.3
2917.59
2910.94
2907.7
2897.82
2897.59
2886.28
2886.06
2878.53
2878.96
2884.46
2878.63
2897.2
2896.16
2906.54
2911.41
2917.68
2922.05
2917.04
2780.62
2648
2639.93
2646.92
2644.8
2650.18
2640.01
2631.63
2622.36
2902.82
2912.27
2900.06
2886.73
2880.71
2879.75
2878.57
2877.3
2875.06
2870.78
2869.4
2867.32
2867.02
2868.62
2868.34
2874.75
2878.29
2884.81
2893.26
2897.79
2900.79
2893.51
2817.11
2788.85
2785.85
2786.01
2785.9
2786.69
2784.88
2783.92
2864.76
2861.35
2866.19
2871.89
2875.18
2875.7
2874.99
2865.12
2864.64
2855.03
2847.17
2832.35
2838.94
2820.08
2828.18
2837.37
2844.52
2860.12
2870.71
2882.26
2886.91
2856.61
2840.94
2842.03
2835.9
2831.95
2830.59
2832.61
2837.34
2836.71
2819.58
2808.07
2809.07
2843.52
2832.98
2793.92
2785.24
2789.41
2794.49
2808.33
2811.99
2824.8
2823.71
2833.95
2830.75
2837.42
2833.25
2835.53
2834.09
2831.34
2831.64
2827.96
2823.91
2820.96
2817.44
2821.84
2822.28
2824.22
2859.08
2766.05
2263.26
2297.73
2290.06
2269.13
2278.88
2924.61
2659.95
2648.4
2640.9
2639.45
2624.32
2626.21
2615.62
2612.7
2607.67
2602.11
2595.34
2586.84
2577.7
2571.81
2569.41
2567.12
2571.33
2576.24
2586.67
2621.1
2675.23
2722.98
2836.47
2460.05
2981.46
2988.35
3018.39
3052.1
3075.11
3080.43
3083.11
3083.91
3081.9
3078.48
3070.38
3076.08
3094.07
3043.78
2775.19
2802.05
2844.02
2877.4
2881.31
2877.62
2872.08
2874.98
2880.73
2884.68
2889.49
2892.56
2893.94
2890.63
2895.03
2889.31
2888.76
2891.78
2887.47
2892.33
2888.57
2891.01
2877.88
2863.19
2839.85
2809.82
2770.15
2725.89
2668.83
2648.55
2993.47
2917.68
2855.98
2859.64
2887.49
2919.13
2935.37
2952.02
2965.14
2967.51
2964.27
2956.95
2954.07
2943.9
2944.92
2933.05
2935.96
2926.98
2926.8
2926.14
2921.64
2925.6
2924.78
2918.31
2919.16
2927.51
2942.18
2944.81
2949.11
2959.98
2966.03
2988.63
2975.47
2952.01
2942.91
2932.65
2931.41
2916.89
2917.57
2899.28
2899.54
2879.68
2879.5
2865.51
2867.4
2859.82
2861.99
2864.78
2867.89
2877.79
2884.97
2894.28
2900.68
2908.04
2911.63
2890.15
2872.72
2864.19
2859.41
2860.16
2828.33
2830.7
2830.99
2817.44
2807.28
2801.28
2798.34
2797.23
2795.29
2795.88
2795.01
2794.31
2795.07
2796.97
2796.38
2799.69
2802.82
2810.41
2825.73
2840.12
2860.35
2882.49
2889.48
2855.13
2792.52
2814.86
2849.09
2858.9
2861.97
2860.32
2837.23
2814.62
2807.13
2798.13
2791.1
2779.87
2781.22
2770.88
2781.47
2782.64
2792.1
2792.49
2798.12
2790.65
2793.01
2786.24
2788.96
2785.91
2789.86
2800.62
2802.3
2809.4
2817.31
2811.67
2800.51
2782.46
2761.17
2756.91
2782.36
2822.1
2762.02
2764.83
2777.1
2798.31
2800.88
2790.65
2781.9
2777.91
2777.04
2776.48
2781.69
2780.56
2780.5
2780.31
2776.04
2779.83
2778.68
2786.8
2787.06
2796.47
2797.6
2809.07
2817.01
2824.83
2814.92
2760.64
2663.94
2618.62
2642.38
2691.84
2760.37
2754.7
2706.93
2696.24
2709.79
2727.56
2743.25
2753.69
2759.9
2757.51
2758.42
2753.58
2753.82
2753.37
2754.57
2754.69
2749.97
2747.03
2741.53
2731.17
2721.9
2714.5
2712.22
2730.55
2758.68
2767.6
2778.27
2791.52
2796.32
2791.39
2937.64
2924.35
2908.27
2900.47
2893.45
2888.87
2885.55
2886.21
2876.22
2883.77
2873.91
2874.14
2875.32
2879.32
2881.33
2889.45
2895.19
2900.23
2906.93
2914.1
2918.51
2871.55
2706.39
2656.04
2703.06
2730.54
2745.51
2729.94
2691.31
2654.95
2912.98
2882.95
2860.16
2856.27
2861.04
2866.72
2872.09
2878.94
2883.75
2885.95
2887.08
2886.77
2889.37
2890.99
2892.26
2890.78
2892.98
2890.61
2891.81
2893.68
2896.62
2899.72
2869.18
2805.96
2788.29
2789.99
2793.37
2796.84
2799.39
2799.01
2859.39
2867.28
2877.13
2883.38
2886.08
2885.32
2880.03
2873.67
2874.21
2857.99
2857.57
2854
2843.7
2844.55
2842.53
2843.76
2850.17
2856.43
2863.1
2871.7
2884.48
2875.96
2848.12
2836.22
2815.13
2801.39
2800.55
2809.05
2824.94
2833.48
2793.9
2804.25
2828.4
2823.52
2799.67
2793.9
2808.06
2824.72
2840.93
2851.06
2855.99
2866.78
2866.17
2872.06
2868.33
2866.93
2856.73
2849.82
2838.93
2834.67
2828.41
2829.53
2824.54
2817.39
2814.42
2812.26
2818.24
2819.92
2839.12
2924.52
2728.87
2836.56
2717.4
2480.8
2864.27
2746.65
2655.92
2654.33
2644.85
2644.59
2634.11
2631.89
2625.06
2620.11
2614.48
2605.36
2591.61
2573.69
2556.73
2541.23
2534.92
2539.89
2545.12
2555.02
2583.83
2634.47
2697.34
2740.74
2831.7
2499.42
2967.64
3016.45
3073.59
3084.63
3089.62
3089.08
3090.56
3093.41
3095.88
3092.88
3084.48
3073.99
3088.22
3054.75
2776.08
2830.55
2892.27
2917.94
2908.59
2898.38
2891.82
2889.02
2888.59
2887.44
2884.44
2879.96
2879.08
2876.87
2878.84
2884.75
2879.34
2891.87
2891.03
2898.27
2904.14
2906.81
2906.66
2898.76
2876.04
2842.03
2797.2
2753.92
2706.47
2677.1
2988.9
2894.43
2855.86
2886.58
2926.4
2948.28
2957.92
2973.59
2974.49
2962.86
2957.85
2944.29
2941.53
2930.95
2930.86
2925.06
2923.29
2921.83
2918.49
2919.71
2915.46
2924.73
2923.93
2930.89
2926.7
2928.41
2937.45
2949.99
2951.45
2959.53
2966.17
2982.32
2963.33
2944.21
2941.62
2929.43
2929.24
2913.14
2911.2
2891.93
2894.26
2870.77
2876.57
2858.1
2862
2852.27
2855.21
2851.91
2851.05
2860.94
2871.02
2886.32
2892.11
2899.9
2908.26
2900.86
2879.37
2866.8
2860.35
2861.51
2831.62
2828.36
2805.99
2796.65
2792.94
2792.32
2793.79
2795.41
2796.16
2797.35
2798.91
2802.37
2802.92
2801.62
2804.21
2802.66
2806.49
2805.77
2813.08
2820.95
2837.91
2860.38
2880.27
2878.4
2840.13
2833.56
2849.7
2860.32
2862.37
2859.15
2833.46
2816.49
2811.67
2806.52
2801.69
2789.71
2790.95
2785.13
2799.25
2803.1
2811.03
2799.2
2793.05
2778.65
2776.87
2768.47
2772.84
2771.66
2780.08
2789.85
2801.15
2811.07
2830.71
2832.4
2822.77
2802.33
2775.21
2757.29
2763
2796.99
2765.88
2775.89
2801.08
2798.11
2785.33
2778.53
2774.88
2780.31
2790.49
2788.81
2788.78
2787.92
2786.3
2788.91
2783.84
2788.5
2786.95
2790.88
2791.79
2797.93
2798.94
2808.52
2810.7
2819.41
2824
2813.55
2774.43
2689.56
2627.09
2666.92
2752.88
2705.28
2692.22
2728.54
2769.09
2791.3
2798.56
2798.11
2792.16
2782.09
2780.8
2771.46
2769.43
2767.01
2766.76
2770.99
2771.41
2769.68
2768.81
2763.27
2749.89
2732.35
2718.77
2719.43
2741.46
2766.35
2785.48
2802.79
2805.68
2798.86
2915.7
2900.34
2889.44
2890.68
2894.39
2900.59
2905.46
2909.62
2906.58
2914.73
2910.3
2917.23
2910.89
2912.05
2908.66
2904.28
2902.34
2900.74
2900.96
2905.24
2912.87
2903.88
2802.25
2677.97
2738.52
2799.16
2817.39
2805.02
2770.92
2713.79
2882.59
2853.45
2850.63
2855.98
2864.12
2875.74
2890.95
2902.34
2912.15
2907.23
2904.02
2903.47
2902.22
2903.24
2901.09
2904.35
2905.49
2909.53
2908.34
2897.37
2893.7
2897.15
2891.46
2846.91
2799.38
2791.2
2786.65
2790.51
2799.94
2803.98
2870.24
2880.97
2888.41
2890.09
2888.11
2883.7
2877.52
2881.25
2884.24
2878.71
2889.57
2881.49
2879.96
2871.87
2874.61
2871.61
2873.49
2869.13
2869.08
2867.71
2875.21
2879.57
2859.89
2835.28
2802.05
2779.56
2777.6
2788.94
2808.55
2828.12
2798.28
2818.23
2815.22
2800.18
2798.84
2816.8
2839.23
2855.35
2864.75
2876.96
2881.58
2892.83
2897.74
2908.55
2909.96
2911.14
2896.19
2876.65
2856.78
2847.83
2854.22
2873.48
2877.43
2872.56
2844.95
2825.69
2816.18
2818.77
2826.58
2885.42
2866.36
2823.35
2935.83
2831.66
2815.63
2679.82
2655.82
2659.92
2651.55
2653.64
2650.05
2648.18
2647.93
2644.84
2638.49
2628.21
2614.06
2594.77
2566.66
2542.17
2530.75
2534.29
2567.9
2595.54
2646.93
2707.11
2750.41
2764.23
2831.22
2513.88
2981.93
3054.8
3083.95
3085.04
3075.13
3065.53
3062.79
3069.48
3082.58
3093.42
3092.01
3080.76
3084.25
3062.71
2782.12
2861.75
2935.71
2959.49
2942.9
2932.77
2919.57
2903.98
2890.45
2879.47
2872.11
2870.54
2871.62
2885
2889.51
2907.42
2910.91
2918.96
2915.93
2916.13
2921.1
2920.05
2926.95
2919.89
2904.55
2871.59
2822.86
2775.25
2729.05
2692.34
2984.86
2880.68
2866.43
2917.69
2949.18
2960.67
2972.28
2976
2967.78
2957.41
2950.62
2942.47
2942.94
2937.02
2934.27
2937.33
2927.81
2928.14
2919.69
2918.42
2913.21
2919.75
2919.52
2930.92
2934.35
2930.94
2941.77
2952.74
2948.72
2955.13
2964.59
2977.59
2955.55
2942.56
2939.13
2928.81
2924.84
2908.2
2904.07
2888.45
2885.03
2871.91
2872.84
2856.75
2853.27
2846.13
2841.84
2842.44
2841.37
2846.45
2853.08
2868.17
2886.31
2893.4
2903.18
2905.03
2893.17
2878.49
2868.5
2862.25
2833.15
2808.85
2794.33
2791.54
2791.96
2791.96
2794.28
2798.63
2801.7
2803.2
2806.44
2805.89
2805.82
2807.87
2805.76
2810.84
2811.19
2811.23
2813.99
2813.93
2823.89
2839.88
2863.55
2881.03
2867.01
2851.54
2857.9
2865.48
2864.69
2858.68
2831.62
2820.29
2821.11
2816.49
2810.3
2792.89
2796.02
2792.96
2812.58
2804.43
2797.96
2775.3
2767.98
2753.69
2763.41
2756.4
2769.49
2769.09
2784.27
2792.8
2805.83
2821.61
2832.05
2837.62
2837.08
2818.05
2790.49
2763.35
2756.42
2784.14
2770.35
2789.74
2805.88
2781.51
2775.01
2774.59
2786.27
2794.51
2794.5
2795.96
2793.21
2796.81
2792.57
2792.09
2780.31
2779.37
2776.86
2777.26
2786.04
2792.91
2802.76
2807.91
2810.48
2817.57
2825.57
2824.18
2814.08
2770.19
2650.94
2654.17
2737.11
2674.85
2735.43
2786.63
2807.56
2809.77
2806.85
2797.56
2787.19
2781.48
2776.7
2765.73
2762.33
2758.67
2755.15
2755.03
2761.56
2766.31
2768.52
2771.57
2771.67
2753.91
2735.34
2721.74
2729.47
2755.58
2780.46
2800.19
2805.87
2799.98
2890.52
2885.24
2888.52
2902.16
2911.58
2919.48
2933.56
2926.85
2925.26
2925.28
2923.29
2922.63
2920.74
2924.25
2928.71
2928.7
2928.18
2913.63
2904.02
2901.14
2905.66
2911.63
2865.1
2725.08
2737.78
2812.26
2824.58
2817.06
2813.72
2760.54
2849.18
2846.14
2854.75
2862.63
2870.16
2887.54
2904.7
2909.68
2906.41
2904.25
2897.16
2890.87
2887.3
2884.87
2888.76
2889.25
2903.08
2906.4
2910.15
2909.26
2898.06
2895.06
2898.95
2875.28
2813.82
2792.53
2793.27
2795.57
2810.69
2818.34
2883.24
2891.29
2891.7
2887.61
2884
2878.91
2883.29
2903.9
2910.69
2924.52
2928.95
2922.84
2922.68
2921.05
2913.63
2913.65
2905.18
2893.76
2886.8
2875.2
2872.23
2876.62
2866.88
2840.19
2802.75
2774.91
2769.94
2771.28
2788.21
2810.58
2807.91
2816.15
2804.22
2800.71
2818.24
2845.48
2861.04
2869.94
2878.21
2882.11
2892.18
2896.16
2907.33
2912.99
2926.08
2931.54
2924.96
2895.83
2864.38
2852.65
2879.28
2927.67
2961.52
2962.12
2916.34
2859.22
2829.55
2818.55
2824.36
2866.05
2767.83
2724.63
2901.62
2909.71
2719.4
2669.22
2661.77
2666.03
2665.71
2675.05
2679.9
2686.16
2689.93
2685.52
2672.88
2656.16
2639.34
2617.05
2591.63
2561.28
2535.96
2542.31
2620.95
2697.66
2766.65
2793.11
2790
2777.34
2850.18
2483.74
2993.6
3067.43
3078.06
3065.27
3041.09
3024.92
3020.39
3026.63
3051.91
3085.06
3094.56
3084.63
3083.67
3066.5
2791.47
2896.25
2976.83
2997.01
2985.14
2966.24
2942.27
2910.78
2884.69
2869.44
2863.33
2872.42
2886.56
2918.44
2938.73
2959.92
2961.47
2960.76
2960.88
2950.47
2949.81
2941.13
2940.61
2939.72
2927.96
2895.04
2844.58
2791.06
2741.87
2702.37
2977.27
2876.42
2886.57
2940.66
2958.14
2968.83
2974.98
2975.34
2967.46
2955.23
2947
2949.15
2940.94
2945.85
2937.07
2939.1
2926.25
2923.99
2914.25
2915.24
2908.66
2916.19
2914.18
2930.17
2932.05
2939.4
2948.81
2952.11
2955.94
2963.63
2962.48
2971.21
2950.58
2940.84
2937.72
2926.43
2919.15
2904.08
2900.95
2883.55
2888.25
2871.25
2867.95
2844.77
2845.38
2831.73
2834.51
2832.4
2830.04
2836.4
2841.76
2855.4
2873.92
2889.72
2899.53
2905.89
2901.65
2890.65
2878.12
2869.69
2821.35
2799.88
2791.35
2780.52
2783.6
2792.92
2797.46
2801.21
2806.45
2807.72
2806.99
2804.22
2804.13
2800.92
2804.7
2804.11
2811.91
2812.04
2817.84
2812.2
2817.36
2828
2847.78
2871.43
2879.14
2871.17
2870.07
2866.84
2865.37
2857.16
2831.14
2826.39
2831.41
2825.52
2811.02
2793.93
2797.75
2798.01
2804.62
2787.51
2779.74
2753.43
2757.39
2747.62
2763.79
2757.76
2779.75
2780.75
2803.21
2817.7
2824.73
2830.87
2842.23
2842.73
2841.35
2829.07
2799.76
2768.97
2754.54
2777.6
2773.54
2803
2784.52
2773.65
2771.18
2784.8
2795.8
2798.58
2787.34
2799.45
2797.52
2796.9
2781.53
2780.06
2768.68
2768.82
2767.62
2765.52
2769.87
2776.16
2789.49
2800.91
2815.55
2815.97
2823.74
2827.77
2824.09
2807.87
2678.32
2653.65
2713.7
2691.39
2783.72
2808.3
2813.18
2810.41
2806.24
2792.11
2794.51
2782.75
2776.26
2767.54
2765.56
2757.43
2755.45
2747.95
2745.06
2750.98
2761.2
2765.21
2774.83
2771.09
2752.3
2732.28
2726.35
2744.61
2772.37
2792.49
2802.41
2802.95
2879.53
2880.75
2894.75
2912.98
2925.4
2936.89
2933.31
2934.43
2930.73
2928.16
2921.32
2915.67
2916.62
2915.83
2927.32
2935.7
2935.23
2931.27
2914.38
2903.03
2901.35
2909.15
2891.54
2779.79
2731.76
2792.99
2800.61
2799.51
2818.37
2787.03
2841.52
2852.46
2864.78
2866.02
2877.82
2894.83
2906.44
2902.94
2901.4
2894.9
2889.93
2886.63
2883.29
2881.46
2878.51
2881.71
2882.7
2896.03
2907.92
2911.52
2907.68
2897.89
2902.76
2889.64
2842.19
2800.14
2784
2788.58
2808.02
2819.8
2890.75
2893.67
2890.26
2884.29
2879.58
2880.58
2906.01
2933.12
2941.3
2943.58
2926.11
2914.69
2896.5
2897.62
2909.6
2929.01
2925.23
2922.63
2906.05
2888.54
2875.86
2874.14
2868.61
2846.02
2810.44
2781.68
2774.87
2766.34
2770.46
2794.32
2811.32
2809.4
2799.23
2814.35
2843
2863.38
2873.17
2880.12
2882.98
2888.14
2888.11
2895.53
2894.28
2904.12
2914.39
2933.64
2933.55
2912.07
2868.58
2855.98
2893.68
2965.38
2979.04
2970.46
2963.76
2892.67
2841.02
2825.03
2823.1
2859.55
2737.74
2702.52
2858.68
2815.78
2689.79
2668.99
2672.31
2675.41
2697.15
2710.77
2739.97
2751.83
2756.83
2742.63
2720.77
2695.04
2663.74
2637.11
2613.46
2580.38
2550.12
2546.48
2637.85
2767.88
2824.14
2832.2
2797.32
2783.85
2880.93
2443.63
2998.39
3063.7
3064.6
3034.64
3014.11
3004.68
3004.07
3010.76
3031.72
3072.3
3091.85
3087.86
3083.04
3067.94
2799.38
2923.17
3010.61
3030.11
3013.7
2994.52
2956.96
2911.21
2877.04
2858.23
2861.6
2887.9
2918.57
2967.05
2985.11
2996.12
3001.57
2994.77
2993
2983.06
2975.01
2962.55
2959.21
2953.82
2941.75
2912.83
2857.12
2798.25
2748.84
2707.42
2970.02
2880.49
2903.66
2941.39
2958.77
2971.55
2974.83
2979.19
2967.31
2951.83
2947.99
2946.56
2942.02
2946.19
2938.9
2936.25
2921.82
2915.23
2908.47
2906.05
2906.61
2912.27
2913.57
2921.32
2938.88
2947.46
2948.97
2959.15
2962.09
2962.92
2957.97
2965.84
2945.7
2938.13
2935.49
2923
2918.47
2901.68
2895.63
2885.53
2889.87
2863.12
2861.15
2835.38
2833.69
2820.69
2823.93
2823.83
2822.31
2828.74
2831.69
2847.23
2866.45
2887.52
2896.37
2905.59
2906.48
2897.74
2882.25
2871.19
2813.44
2796.17
2779.5
2778.3
2785.99
2800.3
2807.37
2807.17
2807.4
2809.04
2805.47
2797.38
2794.91
2795.3
2793.93
2798.87
2806
2811.38
2815.79
2811.48
2818.41
2817.5
2835.7
2860.03
2875.54
2879.48
2875.75
2871.07
2868.43
2858.29
2830.43
2831.95
2839.36
2832.08
2809.63
2797.84
2797.38
2789.7
2794.96
2769.09
2763.88
2743.26
2756.76
2750.18
2770.9
2762.52
2789.18
2796.11
2818.79
2827.34
2841.27
2843.45
2845.29
2847.76
2840.9
2829.55
2804.06
2770.52
2752.02
2775.38
2778.58
2794.46
2770.88
2765.94
2774.95
2795.73
2795.63
2789.98
2794.02
2801.44
2798.91
2788.18
2776.92
2777.41
2771.49
2774.41
2771.15
2768.7
2765.03
2769.24
2780.27
2792.64
2810.8
2818.21
2822.28
2828.96
2827.65
2810.22
2679.73
2652.8
2700.14
2734.32
2799.74
2812.62
2816.28
2812.13
2803.77
2796.75
2799.1
2778.5
2776.12
2766.26
2757.68
2758.12
2756.9
2753.84
2746.31
2740.58
2747.04
2758.59
2772.66
2774.5
2768.85
2743.27
2731.03
2738.96
2763.61
2783.77
2797.18
2805.7
2868.61
2874.41
2905.18
2923.69
2938.7
2937.34
2932.1
2940.4
2922.43
2917.16
2910.74
2907.31
2908.3
2908.12
2915.39
2922
2938.39
2936.86
2929.64
2908.29
2899.95
2906.93
2902.27
2824.72
2737.48
2765.57
2767.85
2783.81
2816.8
2802.09
2843.18
2865.58
2875.96
2869.71
2877.66
2896.93
2900.58
2898.1
2895.86
2891.11
2886.49
2884.67
2883.84
2881.65
2884.14
2877.75
2880.06
2885.41
2903.28
2906.78
2913.3
2906.89
2899.92
2902.53
2874.9
2821.38
2798.48
2808.9
2825.05
2836.11
2895.14
2892.98
2887.97
2881.38
2876.36
2889.61
2930.03
2949.47
2932.85
2897.97
2873.78
2842.56
2831.38
2843.87
2856.19
2884.98
2913.63
2933.18
2925.66
2903.23
2883.81
2874.33
2869
2851.22
2819.56
2793.67
2787.9
2767.85
2765.38
2781.42
2813.56
2805.94
2806.02
2832.89
2863
2874.03
2880.95
2887.48
2892.9
2897.85
2900.87
2895.74
2899.5
2892.08
2897.67
2911.78
2935.21
2919.78
2878.72
2853.05
2890.34
2971.51
2965.78
2963.21
2968.93
2899.43
2852.25
2829.59
2824.9
2856.92
2741.13
2705.92
2819.84
2760.43
2682.52
2671.47
2685.37
2696.2
2735.91
2770.12
2816.76
2835.93
2839.58
2821.39
2787.03
2741.56
2696.06
2658.88
2625.57
2600.48
2566.98
2542.38
2615.41
2771.45
2823.19
2825.1
2799.59
2802.96
2876.5
2394.87
2991.3
3049.08
3034.34
3004.03
2998.76
2999.87
3001.37
3010.65
3025.85
3065.07
3089.3
3087.75
3082.26
3071.08
2814.27
2960.29
3036.76
3047.4
3029.31
3009.69
2967.96
2906.39
2867.71
2852.88
2866.71
2905.99
2950.4
2988.86
3005.47
3017.23
3023.15
3017.65
3017.7
3005.42
2998.53
2989.57
2976.43
2966.58
2948.48
2916.37
2858.22
2798.73
2751.77
2708.66
2967.32
2883.95
2919.41
2934.61
2953.63
2970.2
2977.87
2979.81
2965.58
2953.1
2942.48
2944.06
2943.01
2946.16
2941.23
2934.59
2922.76
2911.98
2900.54
2902.55
2899.25
2911.06
2909.31
2928.54
2945.8
2947.59
2959.75
2968.03
2966.74
2969.54
2955.21
2958.96
2941.76
2936.57
2932.42
2923.53
2915.99
2897.25
2899.04
2884.87
2889.88
2860.28
2858.51
2824.15
2827.28
2807.9
2814.66
2817.43
2816.1
2823.62
2827.76
2844.47
2866.26
2887.17
2896.01
2905.51
2908.24
2902.43
2885.67
2873.02
2812.18
2781.46
2777.23
2784.7
2796.6
2803.58
2809.66
2810.36
2808.5
2804.77
2797
2789.76
2789.31
2785.28
2789.33
2790.92
2804.83
2805.4
2814.73
2814
2813.04
2812.01
2832.24
2851.25
2871.55
2882.08
2880.08
2872.88
2868.49
2856.79
2828.23
2837.65
2842.17
2827.41
2813.43
2800.25
2787.52
2786.64
2776.3
2756.33
2750.02
2746.35
2759.66
2759.25
2769
2768.09
2792.21
2808.14
2828.08
2833.05
2839.07
2848.17
2842.41
2845.16
2838.79
2824.05
2799.67
2768.48
2748.94
2775.24
2787.68
2780.34
2761.88
2763.09
2777.39
2795.34
2795.2
2796.26
2800.86
2802.89
2796.36
2784.13
2781.74
2776.34
2779.56
2776.27
2771.81
2770.73
2764.42
2765.8
2774.76
2790.24
2805.44
2818.68
2822.93
2827.84
2826.96
2810.44
2658.02
2664.95
2700.1
2762.31
2807.62
2817.23
2818.1
2810.66
2802.3
2797.54
2789.33
2772.17
2766.12
2739.32
2733.92
2728.63
2734.9
2742.03
2739.91
2738.36
2732.03
2751.11
2767.74
2777.14
2777.95
2754.97
2736.01
2738.4
2756.78
2776.16
2797.09
2816.06
2850.85
2867.79
2910.14
2930.18
2938.39
2935.22
2934.21
2935.78
2916.59
2912.26
2895.48
2888.89
2892.32
2893.37
2910.98
2914.11
2925.88
2939.7
2933.22
2914.36
2901.91
2906.14
2907.25
2852.91
2750.63
2748.82
2752.58
2796.65
2822.76
2812.4
2850.95
2884.07
2884
2872.21
2875.16
2896.65
2897.16
2892.47
2891.24
2891.05
2887.68
2881.93
2877.22
2877.06
2875.5
2875.73
2879.85
2882.99
2889.14
2915.21
2918.61
2912.58
2910.66
2911.47
2889.43
2850.02
2827.11
2825.85
2833.99
2841.71
2894.41
2890.49
2886.15
2877.7
2875.56
2902.33
2943.87
2951.76
2900.79
2866.74
2835.48
2800.04
2802.52
2799.16
2808.65
2845.68
2873.96
2923.07
2930.16
2916.86
2891.15
2877.31
2870.34
2854.6
2826.11
2804.79
2796.44
2773.96
2764.88
2780.23
2813.39
2806.99
2814.37
2850.72
2873.95
2884.1
2894.09
2901.79
2910.76
2916.4
2916.7
2912.68
2900.83
2900.71
2889.35
2893.41
2917.26
2931.2
2890.3
2859.4
2872.84
2946.91
2979.99
2973.64
2949.45
2895.31
2854.75
2833.47
2829.98
2865.46
2764.54
2699.91
2790.6
2731.94
2681.32
2675.97
2697.47
2720.37
2775.42
2832
2886.75
2913.22
2918.06
2890.36
2844.53
2787.43
2732.39
2678.45
2637.69
2612
2583.05
2550.26
2578.81
2747.64
2825.64
2826.3
2813.09
2861.3
2700.58
2346.38
2979.17
3019.97
2995.5
2983.55
2996.42
3003.52
3007.71
3014.29
3032.24
3063.79
3085.04
3084.43
3081.63
3068.02
2829.95
2982.66
3048.15
3052.27
3034.31
3026.12
2979.15
2904.85
2863.26
2850.13
2871.91
2915.28
2961.21
2985.47
3004.77
3015.54
3024.23
3020.21
3022.62
3011.23
3006.25
2994.58
2982.27
2966.57
2941.14
2898.95
2843.55
2789.35
2746.92
2705.22
2960.4
2887.55
2930.86
2924.26
2939.1
2969.9
2977.75
2980.26
2970.52
2950.09
2936.81
2940.81
2944.28
2946.2
2941.94
2938.95
2930.88
2916.61
2909.83
2900.68
2907.69
2909.41
2923.49
2941.92
2949.16
2962.6
2967.2
2968.09
2969.83
2976.01
2951.24
2953.25
2939.74
2935.65
2932.75
2925.4
2913.99
2900.13
2897.65
2883.81
2894.31
2865.59
2857.93
2825.27
2825.85
2808.14
2810.52
2815.03
2812.94
2826.11
2831.02
2851.97
2872.71
2887.68
2897.26
2907.06
2909.5
2903.77
2881.34
2863.86
2813.49
2783.79
2782.21
2789.98
2803.36
2806.33
2808.37
2809.06
2809.14
2798.2
2790.9
2788.36
2784.26
2782.6
2787.96
2791.28
2802.74
2802.98
2813.74
2808.22
2807.43
2810.65
2827.27
2843.89
2867.68
2879.84
2882.51
2874.91
2867.84
2856.21
2827.55
2840.9
2842.79
2831.72
2813.94
2797.97
2786.68
2774.78
2762.09
2749.89
2746.24
2753.94
2765.43
2764.61
2767.79
2768.07
2793.06
2808.32
2827.78
2830.27
2833.78
2840.13
2839.76
2834.58
2829.96
2817.49
2786.67
2759.41
2749.23
2775.46
2780.54
2772.35
2758.8
2759.4
2773.74
2786.91
2794.13
2797.51
2800.79
2803.7
2795.28
2785.57
2783.27
2779.61
2783.37
2770.32
2760.75
2762.06
2757.47
2765.93
2769.37
2792.41
2807.52
2816.98
2825.44
2827.36
2823.52
2772.64
2629.02
2696.27
2709.97
2785.81
2810.52
2817.9
2816.41
2807.58
2802.19
2788.55
2783.58
2764.89
2741.48
2711.22
2704.19
2700.96
2714.19
2727.31
2725.74
2728.06
2723.28
2742.85
2766
2777.8
2783.44
2760.49
2738.7
2738.09
2753.01
2769.3
2806.59
2816.91
2837
2866.39
2912.12
2932.06
2934.75
2934.06
2933.46
2929.52
2914.03
2904.19
2880.23
2876.87
2877.91
2884.62
2900.31
2913.11
2917.87
2941.84
2935.15
2920.04
2903.09
2907.11
2911.36
2867.08
2761.98
2745.58
2771.61
2830.63
2847.93
2841.67
2865.12
2908.02
2893.32
2874.1
2871.68
2892.9
2889.76
2889.78
2891.51
2887.86
2883.47
2876.6
2872.42
2869.44
2869.02
2869.6
2878.21
2877.59
2896.11
2918.05
2918.83
2924.81
2913.5
2909.63
2899.09
2874.76
2854.88
2853.2
2853.55
2850.36
2894.93
2888.95
2883.84
2875.18
2875.76
2905.47
2941.02
2941.54
2885.37
2855.39
2816.38
2791.23
2790.41
2788.49
2795.22
2823.91
2855.57
2913.14
2934.29
2925.12
2897.33
2883.94
2871.36
2857.43
2832.84
2814.11
2800.61
2779.51
2766.93
2782.21
2814.38
2807.96
2821.73
2861.13
2881.73
2893.67
2907.2
2923.65
2936.16
2944.08
2937.62
2928.81
2911.2
2902.01
2898.45
2883.16
2894.71
2920.59
2901.16
2864.68
2858.29
2903.25
2951.85
2949.41
2922.77
2882.22
2852.36
2837.12
2837.89
2867.36
2795.61
2684.67
2769.54
2718.82
2681.37
2680.95
2707.09
2740.06
2805.2
2876.13
2938.24
2971.41
2977.83
2941.98
2885.89
2819.53
2757.39
2696.74
2647.3
2615.13
2597.66
2557.78
2551.85
2717.02
2843.77
2848.7
2853.72
2898.95
2518.64
2307.05
2959.78
2979.55
2951.54
2968.86
2995.19
3010.6
3013.08
3026.48
3043.2
3066.55
3075.63
3083.21
3081.49
3074.04
3032.08
2893.55
2855.18
2989.84
3041.78
3047.77
3034.06
3040.18
2992.13
2901.46
2859.1
2849.51
2870.51
2906.46
2936.99
2951.02
2968.45
2968.58
2981.48
2979.5
2990.23
2983.81
2982.61
2971.49
2958.45
2937.56
2904.58
2862.27
2817.13
2772.12
2739.67
2707.6
2766.41
2939.74
2953.69
2893.43
2926.01
2906.87
2934.46
2966.3
2970.82
2978.93
2971.94
2949.28
2931.59
2925.97
2939.39
2944.71
2946.61
2945.5
2938.6
2935.52
2925.16
2923.19
2918.43
2928.83
2940.2
2947.44
2963.51
2970.19
2970.82
2977.58
2979.47
2978.61
2980.76
2945.3
2941.38
2943.47
2934.57
2934.9
2935.09
2927.76
2918.25
2904.46
2891.64
2886.84
2893.09
2879.01
2862.94
2843.32
2832.77
2823.3
2818.88
2821.34
2821.88
2836.07
2843.86
2865.17
2880.75
2890.11
2900.82
2908.73
2901.91
2866.46
2830.96
2818.29
2798.47
2793.77
2783.2
2777.71
2781.18
2788.72
2798.8
2809.28
2809.96
2806.55
2806.9
2799.64
2788.16
2781.99
2782.85
2780.89
2787.76
2787.36
2798.34
2797.99
2807.87
2799.59
2807.28
2810.59
2822.02
2843.47
2864.77
2876.98
2881.16
2878.16
2865.75
2857.47
2858.32
2811.78
2821.01
2838.36
2843.33
2829.57
2814.8
2797.57
2776.95
2762.61
2753.01
2743
2749.2
2762.94
2770.9
2766.7
2764.99
2764.74
2782.01
2800.86
2816.64
2821.24
2822.86
2830.72
2829.04
2822.52
2815.75
2799.28
2771.25
2747.47
2751.94
2787.69
2791.76
2780.51
2773.85
2754.77
2747.7
2753.35
2761.44
2775.36
2796.08
2794.96
2800.11
2800.29
2800.04
2785.19
2785.31
2777.66
2782.98
2764.95
2760.85
2758.71
2758.05
2765.87
2781.44
2795.52
2814.47
2816.7
2823.44
2818.4
2806.53
2687.41
2775.34
2745.93
2702.97
2742.03
2761.5
2789.36
2799.04
2813.41
2813.6
2805.45
2797.31
2784.23
2780.13
2755.63
2731.56
2704.48
2694.47
2690.2
2697.01
2710.85
2707.31
2714.68
2720.42
2741.47
2767.74
2783.6
2781.97
2760.11
2739.92
2739.56
2759.35
2802.47
2813.68
2778.97
2763.93
2770
2798.32
2845.8
2900.26
2925.65
2930.26
2928.84
2928.95
2930.13
2918.68
2901.96
2878.83
2869.67
2874.51
2882.02
2895.37
2913.48
2919.2
2941.18
2936.39
2920.62
2905.97
2910.2
2913.51
2869.58
2770.87
2761.24
2826.69
2869.5
2886.99
2898.81
2891.43
2886.38
2903.27
2922.95
2899.57
2872.62
2864.65
2883.04
2885.25
2884.95
2892.4
2893.79
2885.94
2878.48
2873.15
2869.93
2868.5
2871.9
2877.4
2884.14
2899.73
2922.14
2931.69
2926.04
2915.72
2921.54
2915.59
2894.15
2883.42
2869.82
2866.09
2871.62
2887.17
2887.66
2885.03
2879.9
2878.96
2873.31
2873.76
2900.73
2937.47
2940.76
2891.2
2857.24
2821.91
2799.22
2788.33
2790.4
2792.49
2824.08
2847.26
2912.82
2934.18
2922.22
2903.35
2886.39
2874.46
2859.97
2835.49
2819.69
2804.1
2783.18
2772
2785.63
2807.41
2820.95
2818.19
2811.31
2823.17
2866.37
2885.64
2905.17
2917.01
2939.66
2959.23
2969.47
2967.65
2944.84
2923.22
2907.24
2897.18
2887.44
2870.16
2900.71
2903.55
2881.13
2850.68
2862.58
2899.66
2911.45
2892.94
2868.94
2848.28
2838.37
2844.81
2889.52
2816.52
2817.55
2867.27
2686.74
2743.84
2716.07
2682.39
2684.05
2711.71
2749.79
2815.49
2892.12
2956.94
2993.12
2998.59
2962.45
2899.17
2829.82
2764.49
2706.16
2652.65
2616.25
2604.51
2566.28
2539.18
2696.58
2876.02
2902
2871.32
2642.84
2499.07
2866.03
2454.18
2415.58
2935.32
2927.86
2909.5
2953.9
3000.32
3019.78
3026.5
3044.88
3055.62
3058.64
3051.61
3054.68
3070.54
3073.93
3062.01
2987.79
2897.25
2945.15
3007.03
3033.51
3036.53
3047.24
3009.14
2909.29
2860.02
2846.37
2861.91
2882.84
2901.4
2901.4
2912.99
2904.36
2912.52
2900.72
2905.01
2896.38
2906.25
2890.78
2885.71
2859.07
2839.76
2810.13
2783.89
2765.61
2754.59
2738.77
2863.81
2960.7
2944.7
2911.18
2919.08
2890.63
2908.51
2953.33
2968.07
2976.99
2975.63
2955.52
2932.07
2913.63
2918.23
2939.35
2944.42
2944.24
2947.43
2944.81
2946.78
2941
2944.21
2950.69
2951.52
2966.55
2970.8
2972.98
2979.94
2981.54
2981.54
2981.01
2969.85
2946.63
2940.2
2936.13
2932.97
2936.45
2938.14
2936.64
2926.06
2906.38
2892.83
2892.49
2887.83
2885.89
2880.9
2864.68
2855.31
2843.07
2841.06
2841.19
2842.44
2854.7
2862.74
2878.46
2884.99
2895.42
2902.17
2894.62
2862.29
2824.98
2811.53
2798.43
2791.47
2788.53
2786.04
2780.44
2779.2
2783.55
2792.02
2802.25
2811.13
2805.66
2804.67
2802.28
2789.46
2780.87
2780.67
2775.87
2779.74
2780.63
2792.4
2787.64
2797.61
2795.39
2802.98
2810.73
2823.92
2846.57
2863.03
2875.52
2881.11
2873.01
2861.56
2856.58
2836.46
2814.29
2827.92
2841.83
2838.26
2830.81
2823.57
2802.74
2775.15
2754.24
2745.17
2739.82
2756.85
2766.83
2773.78
2766.51
2764.57
2756.14
2767.66
2779.67
2798.21
2804.56
2809.98
2816.94
2808.93
2808.63
2792.62
2772.48
2750.97
2745.56
2761.31
2794.82
2785.51
2769.66
2758.99
2743.88
2739.43
2738.26
2745.01
2760.46
2782.77
2795.69
2797.57
2800.15
2801.86
2789.69
2784.6
2779.13
2781.87
2769.88
2768.93
2771.12
2767.18
2782.61
2787.35
2802.58
2811.11
2820.42
2819.61
2807.57
2780.6
2780.22
2714.07
2702.52
2725.41
2732.35
2748.1
2754.72
2781.54
2804.79
2813.25
2802.7
2795.4
2779.13
2779.4
2757.95
2741.91
2712.45
2696.11
2688.53
2687.96
2697.45
2699.9
2711.6
2732.58
2747.48
2774.04
2787.97
2775.97
2752.73
2738.21
2742.33
2771.98
2804.18
2763.14
2705.55
2690.59
2702.83
2754.85
2816.11
2879.99
2918.82
2926.19
2922.07
2922.17
2929.91
2917.02
2910.58
2888.52
2882.83
2882.9
2886.05
2899.07
2919.57
2925.72
2939.65
2934.69
2918.9
2910.56
2915.74
2913.65
2858.43
2778.92
2781.05
2840.82
2882.1
2915.09
2933.99
2934.43
2933.53
2947.63
2942.38
2916.21
2881.22
2857.26
2874.15
2883.51
2880.21
2884.97
2894.41
2899.9
2893.15
2886.05
2882.14
2880.81
2884.13
2885.04
2894.16
2916.48
2934.27
2930.79
2928.44
2924.78
2923.56
2920.01
2908.71
2891.09
2872.53
2873.27
2879.83
2890.23
2891.55