/*--------------------------------*- C++ -*----------------------------------*\
| =========                 |                                                 |
| \\      /  F ield         | OpenFOAM: The Open Source CFD Toolbox           |
|  \\    /   O peration     | Version:  2.1.1                                 |
|   \\  /    A nd           | Web:      www.OpenFOAM.org                      |
|    \\/     M anipulation  |                                                 |
\*---------------------------------------------------------------------------*/
FoamFile
{
    version     2.0;
    format      ascii;
    class       volScalarField;
    location    "0.002300000";
    object      omega;
}
// * * * * * * * * * * * * * * * * * * * * * * * * * * * * * * * * * * * * * //

dimensions      [0 0 -1 0 0 0 0];

internalField   nonuniform List<scalar> 
12384
(
3931.9
3941.39
3886.8
3822.77
3811.69
3768.98
3814.6
958.524
726.38
708.679
684.292
688.678
667.102
606.94
607.254
713.939
755.984
777.432
799.407
897.614
994.288
1124.59
1189.38
1274.93
1391.23
1485.17
1595.63
1740.94
1772.71
1972.36
2058.01
2136
2112.63
2073.31
1940.41
2052.83
1974.85
1836.21
1580.41
1440.46
1161.24
964.773
824.269
642.933
618.031
737.345
1440.11
3690.04
7104.95
9117.38
9938.4
9970.25
9185.67
8520.87
7580.31
6122.7
4820.38
3491.83
2672.62
2276.15
2183.6
2253.46
2138.13
2249.89
2116.63
1938.57
1625.64
1443.96
1158
931.838
774.761
683.949
648.015
614.23
611.015
629.214
626.442
641.472
664.494
709.77
813.165
1067.35
1703.43
3063.26
4030.32
4949.34
5202.27
4631.7
3420.27
2618.63
2249.71
2095.1
2023.9
1937.23
1800.13
1662.37
1509.97
1291.4
1002.24
812.102
682.079
636.546
622.125
613.827
607.41
612.917
616.224
620.564
627.994
639.459
649.734
667.688
675.375
690.241
694.2
695.647
692.591
684.088
675.839
666.797
657.932
651.862
643.077
638.278
631.808
626.389
623.225
620.252
618.594
618.141
617.207
615.172
612.092
609.322
612.335
614.374
614.597
616.037
616.044
616.985
617.271
617.696
617.912
617.623
618.479
617.424
618.485
617.288
618.415
617.144
618.296
617.052
618.071
616.971
617.764
616.87
617.429
616.71
617.045
616.471
616.595
616.218
616.002
615.885
616.99
617.035
617.043
617.077
617.085
617.137
617.138
617.176
617.163
617.195
617.178
617.209
617.187
617.208
617.2
617.188
617.237
617.187
617.245
617.201
617.246
617.211
617.248
617.219
617.247
617.227
617.241
617.229
617.236
617.196
617.226
617.255
617.254
617.252
617.256
617.255
617.259
617.254
617.26
617.252
617.258
617.251
617.251
617.246
617.242
617.246
617.245
617.249
617.254
617.252
617.256
617.252
617.258
617.253
617.256
617.253
617.253
617.25
617.241
617.271
617.273
617.247
617.248
617.25
617.255
617.252
617.258
617.252
617.258
617.252
617.256
617.251
617.249
617.246
617.241
617.246
617.244
617.248
617.253
617.251
617.256
617.252
617.258
617.253
617.256
617.253
617.253
617.25
617.241
617.271
617.278
617.239
617.245
617.252
617.258
617.26
617.256
617.261
617.255
617.258
617.253
617.254
617.25
617.245
617.245
617.24
617.246
617.247
617.249
617.255
617.254
617.254
617.262
617.257
617.262
617.261
617.26
617.261
617.258
617.234
617.274
617.246
617.248
617.25
617.254
617.252
617.257
617.252
617.258
617.252
617.256
617.251
617.25
617.247
617.241
617.245
617.244
617.248
617.254
617.251
617.255
617.252
617.258
617.252
617.256
617.252
617.253
617.25
617.241
617.271
617.235
617.254
617.251
617.255
617.265
617.263
617.265
617.26
617.262
617.255
617.259
617.253
617.253
617.248
617.251
617.251
617.248
617.25
617.253
617.258
617.254
617.261
617.258
617.264
617.26
617.261
617.253
617.25
617.253
617.235
617.272
617.245
617.251
617.25
617.262
617.253
617.269
617.254
617.269
617.254
617.266
617.253
617.257
617.248
617.248
617.246
617.243
617.248
617.252
617.25
617.258
617.252
617.261
617.253
617.26
617.253
617.255
617.249
617.241
617.272
3866.2
45051.8
51229
53532.3
52295.6
50556.5
34522.2
30449.5
28583.1
29053
29769.8
28835.8
21790.8
693.384
751.058
30618.2
37963.3
44332.5
49445.5
55975.8
66152.4
73189.1
80298.5
87513.9
93593.2
99466.7
104462
107528
108155
108870
108365
107016
101697
96903.4
102802
105621
105354
102182
94975.9
86924.7
76708.6
64135.5
47389.7
941.158
3745.37
136640
206258
238154
240495
223274
224697
219741
200286
198359
164915
140945
127398
118727
114877
122197
133285
138124
149988
147543
143999
141376
136174
129172
122046
113410
100317
80528.3
53454.4
868.496
691.053
45172.9
85258
141049
210405
294768
383786
461148
504462
503829
455691
387533
324689
266962
212123
175066
156583
151711
153764
159285
164711
167464
166338
160992
151005
135276
110463
77865.6
42056.5
694.923
607.687
7716.06
11831.6
16348.2
21276.2
26359.4
32118.2
39227.3
47841.2
57537.6
67652.5
77131.1
85404.3
91986.8
97051.3
100422
102030
101718
99308.9
94707.6
88056.6
79573.6
69494.9
58235
46430.7
34730.5
23585.9
13745
6080.59
612.768
604.844
1921.06
2297.06
2809.9
3407.28
3991.62
4496.78
4886.5
5107.11
5168.19
5076.41
4866.86
4570.63
4209.14
3810.84
3402.89
3000.43
2620.83
2264.55
1934.47
1629.36
1351
1098.85
873.915
677.502
509.996
370.265
261.129
189.33
614.953
615.155
147.183
142.729
143.531
144.23
144.884
145.186
145.024
144.556
143.871
143.096
142.268
141.464
140.634
139.903
139.247
138.695
138.181
137.721
137.35
137.055
136.8
136.611
136.461
136.354
136.278
136.227
136.214
141.345
616.082
616.093
141.385
136.206
136.202
136.234
136.246
136.278
136.3
136.337
136.361
136.393
136.428
136.494
136.534
136.579
136.573
136.54
136.49
136.428
136.384
136.358
136.321
136.294
136.264
136.245
136.232
136.22
136.228
141.694
616.051
616.074
141.556
136.212
136.209
136.237
136.25
136.273
136.292
136.325
136.355
136.385
136.42
136.496
136.537
136.58
136.571
136.538
136.489
136.431
136.384
136.356
136.319
136.291
136.259
136.241
136.228
136.219
136.229
141.695
616.051
616.041
141.642
136.198
136.21
136.231
136.255
136.275
136.305
136.331
136.363
136.385
136.426
136.483
136.524
136.558
136.575
136.545
136.493
136.413
136.383
136.365
136.322
136.297
136.264
136.249
136.225
136.206
136.192
141.364
616.093
616.068
141.574
136.218
136.215
136.242
136.255
136.279
136.302
136.335
136.363
136.392
136.425
136.494
136.531
136.577
136.572
136.542
136.49
136.43
136.383
136.356
136.316
136.289
136.258
136.238
136.225
136.218
136.233
141.697
616.052
616.085
141.472
136.233
136.197
136.211
136.215
136.249
136.277
136.32
136.355
136.392
136.434
136.499
136.536
136.572
136.574
136.539
136.501
136.43
136.39
136.354
136.327
136.288
136.266
136.238
136.232
136.209
136.221
141.45
616.089
616.071
141.575
136.221
136.216
136.243
136.254
136.27
136.286
136.312
136.338
136.373
136.411
136.482
136.534
136.574
136.571
136.54
136.489
136.439
136.392
136.358
136.317
136.284
136.249
136.229
136.216
136.212
136.239
141.706
616.054
3801.39
50938.4
49861.6
43289.5
38964.7
44059.9
35957
31614.7
31090.3
31064.1
30032.7
28886.2
23031.9
696.429
867.684
43222
57855
70788.2
87124.5
97364.2
106932
113941
119310
124514
128381
131864
134604
135542
135043
133923
133302
128490
118795
119370
114533
107179
111522
117869
109299
97116.7
85314.1
74470.9
61054.5
1111.83
5480.28
198006
243091
240052
216705
227559
237997
247413
257782
268220
266352
260363
252535
239858
223609
210014
204000
198084
178241
172855
174762
176920
171904
150919
133012
118287
104016
87209.4
66213.5
985.546
829.127
67900.5
115337
183200
269155
362614
442307
486476
484241
435104
384603
368083
380332
370987
309038
274524
243959
224115
210774
202059
194701
185588
174556
159898
140238
118245
93619.4
67103.3
40087.1
686.69
612.698
15793.3
22890.8
31526.8
41055.4
50070.8
57767.1
65227.2
71375.1
77421.9
83251.4
87947.4
91253.4
93155.1
93643.1
92802.3
90695.1
87249.7
82411
76183.4
68647.5
60376.7
51456.9
42269.9
33248.6
24785.7
17148.7
10590.1
5511.49
602.903
597.537
4185.13
4224.88
4375.5
4598.11
4731.07
4800.48
4783.59
4673.08
4487.23
4235.92
3932.93
3606.84
3267.78
2912.55
2555.03
2220.23
1915.65
1641.79
1397.05
1177.81
981.292
804.886
647.69
510.297
393.224
296.514
220.98
171.818
596.03
596.282
149.359
144.193
142.894
141.828
140.999
140.11
139.233
138.386
137.522
136.703
135.95
135.264
134.607
134.026
133.53
133.157
132.854
132.624
132.417
132.266
132.13
132.035
131.942
131.888
131.829
131.798
131.787
135.711
596.261
596.275
135.767
131.718
131.667
131.664
131.64
131.635
131.611
131.606
131.578
131.569
131.534
131.512
131.466
131.448
131.438
131.475
131.501
131.543
131.559
131.589
131.598
131.625
131.631
131.658
131.667
131.689
131.721
135.749
596.168
596.171
135.726
131.735
131.683
131.683
131.657
131.652
131.627
131.62
131.592
131.581
131.544
131.517
131.469
131.449
131.436
131.471
131.497
131.54
131.556
131.586
131.596
131.623
131.63
131.657
131.666
131.69
131.721
135.748
596.167
596.161
135.767
131.709
131.674
131.654
131.65
131.626
131.622
131.597
131.591
131.562
131.548
131.506
131.481
131.442
131.444
131.457
131.509
131.546
131.578
131.596
131.616
131.646
131.652
131.676
131.68
131.697
131.724
135.729
596.285
596.163
135.75
131.732
131.68
131.68
131.655
131.651
131.624
131.619
131.591
131.581
131.544
131.519
131.472
131.45
131.436
131.469
131.495
131.538
131.555
131.585
131.596
131.624
131.631
131.658
131.668
131.691
131.724
135.741
596.169
596.277
135.74
131.722
131.686
131.672
131.645
131.638
131.613
131.606
131.579
131.569
131.533
131.512
131.467
131.44
131.44
131.467
131.513
131.535
131.571
131.58
131.609
131.614
131.64
131.646
131.673
131.68
131.718
135.75
596.278
596.16
135.751
131.728
131.675
131.675
131.651
131.645
131.619
131.614
131.586
131.578
131.545
131.523
131.477
131.453
131.432
131.462
131.49
131.534
131.55
131.581
131.592
131.62
131.627
131.655
131.664
131.689
131.725
135.74
596.167
3468.32
53663.8
52066.1
48861
52250.9
61504.3
50439.1
48522.5
46629.7
40725.4
34878.6
32523.8
25440.3
708.223
957.783
54640.4
93172.5
110870
116214
122110
132904
141502
148157
154445
161634
169683
177183
182290
184637
184292
179063
168269
154422
148225
139700
128043
126376
125039
118831
108586
94985.8
84020.4
73086.7
1439.04
6418.88
245115
258233
219690
181187
207783
230255
248578
270474
293330
313335
330149
338833
336264
325576
309955
293631
277950
256157
237743
226456
217961
206313
195145
165083
135844
115256
98482.2
82833.8
1169.48
1053.68
92617.7
143346
211916
287733
349173
379327
369042
330279
298664
338646
430388
513675
505144
415982
387417
370816
342916
309123
282489
260156
238971
217725
193856
165164
133574
100646
70116.9
44960.4
690.814
638.538
32375.7
47635.1
64800.2
81188.2
96369.6
109058
120068
124657
124880
124192
123315
121513
118575
114347
109307
103606
97263.1
90135.4
82306.4
73904.9
64810.1
54976.1
45121.3
35420.8
26392.6
18407.6
11812.1
6854.39
599.577
600.836
7999.15
7727.08
7563.2
7413.57
7176.11
6833.74
6393.6
5912.96
5416.02
4922.94
4446.93
3992.61
3550.97
3138.89
2747.76
2382.44
2045.89
1743.29
1473.79
1235.97
1024.03
835.908
672.028
530.745
409.428
308.716
229.58
178.518
595.87
596.415
163.963
154.546
151.043
148.179
145.916
143.885
142.095
140.458
138.967
137.658
136.569
135.66
134.905
134.248
133.689
133.213
132.814
132.484
132.21
131.991
131.81
131.672
131.557
131.474
131.404
131.36
131.369
136.439
596.214
596.225
136.44
131.332
131.28
131.276
131.27
131.269
131.265
131.264
131.262
131.261
131.257
131.257
131.253
131.253
131.252
131.255
131.256
131.259
131.26
131.263
131.263
131.266
131.266
131.27
131.272
131.278
131.326
136.415
596.3
596.304
136.411
131.323
131.271
131.268
131.266
131.265
131.263
131.263
131.261
131.26
131.257
131.257
131.253
131.253
131.253
131.255
131.256
131.259
131.26
131.263
131.263
131.266
131.267
131.271
131.271
131.278
131.326
136.415
596.301
596.303
136.42
131.324
131.28
131.273
131.272
131.267
131.267
131.264
131.264
131.261
131.26
131.257
131.256
131.253
131.254
131.254
131.257
131.256
131.264
131.269
131.263
131.264
131.265
131.268
131.269
131.274
131.322
136.428
596.224
596.31
136.411
131.324
131.271
131.268
131.266
131.265
131.263
131.263
131.261
131.261
131.257
131.257
131.253
131.253
131.253
131.255
131.256
131.259
131.26
131.263
131.263
131.266
131.267
131.272
131.272
131.278
131.327
136.415
596.3
596.222
136.431
131.322
131.271
131.275
131.27
131.269
131.265
131.264
131.261
131.261
131.257
131.257
131.253
131.259
131.258
131.253
131.256
131.257
131.26
131.26
131.263
131.263
131.267
131.269
131.273
131.273
131.327
136.438
596.223
596.306
136.414
131.322
131.27
131.268
131.266
131.266
131.264
131.264
131.263
131.262
131.26
131.257
131.254
131.253
131.252
131.253
131.253
131.256
131.259
131.262
131.263
131.266
131.268
131.272
131.272
131.278
131.326
136.414
596.301
2971.54
54458.3
56036.1
55436.4
60859.2
75642.2
70127.5
70001.3
70209.3
58661
46818.3
37527.7
29773.3
788.874
1158.19
87398
126606
140393
144545
146968
153843
160877
168445
177368
187719
198675
208445
216006
220334
221938
219816
212995
202801
191386
179830
171147
160198
150946
125522
108445
95364.4
88285.9
81762.9
1902.1
6941.1
288436
271912
202485
152130
178587
207845
243296
273852
294850
314931
336804
357719
371177
377785
378315
374212
362639
343243
317603
289834
271941
257808
252327
206525
167687
138426
119197
107170
1557.75
1437.03
116122
161683
215592
261185
279345
263814
222024
189242
259399
421914
583137
693809
650044
545368
493443
468940
440403
420065
387208
348073
312366
279165
245877
209079
168827
128975
91676.4
62276.8
781.628
703.162
55814.3
73560.2
91203.7
112048
141308
173483
198813
206381
200389
188174
175419
164354
154637
144870
134927
124938
115134
105550
95897
85929.8
75529.4
64967.1
54194.2
43489.6
33280.6
24004.7
16196.1
10323.5
601.851
605.928
13948.3
13548.8
12780.5
11922.9
11105.3
10121.8
9120.57
8157.24
7268.8
6430.95
5652.38
4942.02
4296.37
3710.05
3188.84
2726.71
2326.99
1973.91
1663.56
1390.05
1151.83
943.547
760.516
600.396
462.867
348.728
257.738
195.175
598.1
599.032
187.842
171.677
164.829
159.314
154.663
150.685
147.371
144.553
142.179
140.158
138.477
137.074
135.937
134.995
134.24
133.61
133.118
132.71
132.398
132.132
131.935
131.765
131.645
131.537
131.47
131.405
131.417
136.547
598.594
598.604
136.535
131.359
131.319
131.307
131.315
131.307
131.316
131.306
131.316
131.305
131.314
131.304
131.312
131.301
131.31
131.302
131.313
131.305
131.314
131.306
131.314
131.306
131.314
131.305
131.314
131.307
131.36
136.507
598.551
598.555
136.509
131.353
131.316
131.306
131.315
131.306
131.315
131.306
131.315
131.305
131.313
131.303
131.311
131.302
131.311
131.302
131.313
131.305
131.314
131.306
131.315
131.306
131.314
131.305
131.314
131.307
131.36
136.506
598.551
598.558
136.505
131.363
131.307
131.315
131.306
131.315
131.306
131.315
131.307
131.315
131.306
131.313
131.303
131.312
131.302
131.312
131.302
131.311
131.309
131.306
131.313
131.305
131.314
131.306
131.316
131.308
131.365
136.538
598.614
598.547
136.509
131.352
131.315
131.305
131.315
131.306
131.315
131.306
131.315
131.305
131.314
131.303
131.312
131.301
131.31
131.302
131.313
131.305
131.314
131.306
131.314
131.305
131.314
131.305
131.314
131.307
131.359
136.508
598.551
598.617
136.527
131.362
131.315
131.307
131.315
131.306
131.315
131.306
131.315
131.305
131.314
131.303
131.311
131.302
131.302
131.31
131.302
131.313
131.305
131.314
131.305
131.314
131.305
131.314
131.305
131.315
131.36
136.524
598.612
598.551
136.509
131.352
131.315
131.305
131.315
131.306
131.316
131.307
131.316
131.306
131.315
131.304
131.311
131.301
131.309
131.3
131.31
131.302
131.314
131.306
131.314
131.305
131.314
131.305
131.316
131.308
131.36
136.507
598.551
2488.93
53999.3
58304.2
60797.3
66897.6
80298.2
76014.2
79135.7
81984.9
78149.3
73828
52521.1
35700.8
856.732
1540.42
119006
150116
160416
165224
166721
173583
182534
192876
204597
216022
226406
235356
242342
246671
249126
248940
246134
241251
234815
229157
225207
213424
187253
139862
111566
99558.7
96462.9
90250.1
2772.51
6487.16
327369
290397
195887
129895
197486
220989
257257
289007
307998
319947
334170
352417
373664
395045
412861
422483
419775
406730
386818
360796
332618
306120
294526
271197
220368
178156
152894
142961
2475.22
1350.19
129362
163477
197253
215539
208244
174277
150371
224541
402540
606290
770031
896201
773856
642147
545130
508235
486071
470241
462118
444212
397314
354809
314183
270148
222050
174087
130330
95507.5
985.282
722.112
72505.1
79775.3
98596.6
140089
206130
267102
306609
314482
300247
273965
244955
220112
200682
184082
168294
153193
139097
126213
114004
102020
90129.8
78308.5
66293.1
54345
42851.8
32286.1
23353.3
16676.2
605.03
614.992
22990.5
23681.9
21665.4
19025.1
16808.6
14655.5
12766.3
11056.1
9550.9
8225.44
7085.06
6103.17
5242.46
4495.13
3840.11
3259.7
2751.05
2307.34
1927.79
1601.61
1321.89
1078.98
870.323
693.37
539.448
407.004
298.241
222.08
600.531
601.81
225.718
197.768
184.86
175.116
166.639
159.624
154.014
149.469
145.825
142.89
140.551
138.677
137.2
136.005
135.028
134.216
133.58
133.06
132.662
132.333
132.089
131.883
131.735
131.61
131.523
131.447
131.446
136.474
601.09
601.102
136.486
131.382
131.338
131.33
131.336
131.331
131.337
131.331
131.337
131.33
131.336
131.327
131.332
131.326
131.332
131.326
131.334
131.33
131.336
131.331
131.336
131.33
131.335
131.329
131.334
131.33
131.383
136.477
601.095
601.096
136.469
131.376
131.335
131.329
131.336
131.33
131.337
131.331
131.337
131.33
131.335
131.328
131.332
131.326
131.332
131.327
131.334
131.33
131.336
131.331
131.336
131.33
131.335
131.329
131.334
131.33
131.382
136.477
601.094
601.093
136.482
131.383
131.33
131.335
131.33
131.337
131.331
131.338
131.332
131.337
131.331
131.335
131.328
131.333
131.327
131.333
131.327
131.331
131.334
131.33
131.335
131.329
131.336
131.33
131.336
131.33
131.384
136.466
601.1
601.097
136.475
131.376
131.335
131.329
131.336
131.331
131.337
131.331
131.337
131.33
131.336
131.328
131.332
131.326
131.332
131.326
131.333
131.33
131.336
131.33
131.336
131.33
131.334
131.329
131.334
131.331
131.381
136.475
601.095
601.102
136.474
131.382
131.336
131.33
131.335
131.329
131.336
131.331
131.337
131.33
131.335
131.328
131.332
131.329
131.329
131.331
131.327
131.334
131.329
131.336
131.33
131.335
131.328
131.334
131.327
131.333
131.383
136.476
601.1
601.099
136.471
131.375
131.334
131.329
131.336
131.33
131.337
131.332
131.338
131.332
131.336
131.329
131.332
131.325
131.331
131.325
131.332
131.329
131.336
131.331
131.336
131.33
131.335
131.33
131.336
131.333
131.383
136.479
601.094
2570.82
52807.6
59776.8
65487.8
73129.5
85391.6
84011.6
90102
94802
95327.7
94098.5
78844.3
52714.7
953.17
2923.27
159341
175695
179523
182392
182290
187691
196155
206653
218722
229606
239476
248565
256946
263346
267473
269152
269344
269702
271453
276875
283492
277246
242993
184063
131720
111249
114505
101187
5582.31
6319.61
354643
305928
190799
127001
251338
261299
281366
309181
326451
334809
340862
345935
354429
369478
393405
421205
438487
441497
433511
418724
394978
365594
350712
340025
308334
256021
217972
199481
4903.82
861.7
124482
154802
179171
192738
194723
203173
274036
436945
628421
805791
938022
1.00612e+06
844482
688400
576244
524274
506790
505128
502770
495167
474773
430121
389085
347192
300895
252671
207977
167022
1809.28
659.026
79242.9
101490
156998
239850
332724
411058
449900
445285
414543
370295
324477
285036
254392
229852
208587
189173
171019
154430
139277
124954
111047
97387.5
83989.2
71135.6
58900
47583.8
37280.4
29105.2
614.007
631.836
38523.8
42335.5
37785.7
31138.8
25621.1
21193.2
17755.2
14916.5
12602.6
10666.1
9085.23
7728.39
6567.56
5560.61
4701.28
3958.31
3325.76
2783.24
2321.68
1927.32
1591.69
1304.24
1058.18
846.39
664.812
510.772
378.348
280.41
605.512
607.385
283.627
238.648
216.119
198.344
184.161
172.767
163.72
156.685
151.294
147.106
143.796
141.127
139.011
137.343
136.032
134.994
134.179
133.53
133.023
132.614
132.304
132.051
131.864
131.712
131.601
131.509
131.492
136.609
606.209
606.234
136.64
131.411
131.362
131.356
131.36
131.357
131.36
131.358
131.361
131.357
131.359
131.355
131.357
131.354
131.356
131.354
131.358
131.356
131.36
131.357
131.36
131.356
131.357
131.354
131.355
131.353
131.405
136.613
606.215
606.218
136.605
131.401
131.356
131.353
131.358
131.356
131.36
131.358
131.36
131.356
131.359
131.355
131.357
131.354
131.357
131.355
131.358
131.356
131.36
131.357
131.36
131.356
131.357
131.354
131.355
131.353
131.405
136.612
606.216
606.219
136.613
131.403
131.353
131.355
131.355
131.359
131.357
131.361
131.359
131.361
131.357
131.359
131.355
131.358
131.355
131.357
131.354
131.355
131.36
131.357
131.359
131.355
131.358
131.355
131.356
131.353
131.404
136.596
606.23
606.216
136.612
131.399
131.354
131.353
131.358
131.356
131.36
131.358
131.361
131.357
131.359
131.355
131.356
131.354
131.356
131.354
131.358
131.356
131.359
131.356
131.359
131.355
131.356
131.354
131.355
131.355
131.403
136.61
606.215
606.233
136.599
131.404
131.358
131.355
131.356
131.355
131.358
131.356
131.36
131.356
131.359
131.355
131.356
131.355
131.355
131.355
131.354
131.359
131.356
131.359
131.356
131.357
131.354
131.355
131.351
131.353
131.405
136.599
606.23
606.217
136.606
131.398
131.354
131.352
131.357
131.355
131.359
131.356
131.36
131.357
131.359
131.355
131.356
131.353
131.355
131.353
131.357
131.356
131.359
131.358
131.36
131.357
131.359
131.355
131.359
131.357
131.406
136.61
606.215
3158.33
53015.1
61951.5
70888.8
80445.3
91521.5
93982.6
103206
110726
117363
120254
110003
86642.6
2039.89
5622.62
203690
195197
188703
187568
184676
186181
191723
201088
213681
226501
239139
251336
263323
274505
283187
288841
294253
300985
313060
332469
350625
349393
316999
259841
200497
157097
162297
116313
18156.3
8336.07
377874
324167
205998
158471
283330
303592
308411
326266
338916
344512
347882
348982
348088
347901
361497
389974
419464
441559
453227
456786
449130
433249
422275
421385
412041
407484
292986
268158
9688.11
1528.87
111084
147061
183662
228411
284471
379274
531573
706432
853966
981620
1.0776e+06
1.02237e+06
861040
705462
610363
559266
530402
517381
523959
530931
522583
495640
458138
421915
382530
335821
282490
232414
2555.73
1171.32
110752
206673
315493
437578
539403
605927
613565
582218
529030
466452
405004
353767
313810
282147
255240
231264
208897
188486
170020
152921
136761
120838
105019
89376.2
74027.7
59312.4
46431.9
40638.8
626.112
723.165
74371.5
78485.3
66329
50734.5
38697.8
30290.5
24416
19915.6
16511.8
13796.9
11613
9752.37
8201.56
6875.63
5764.01
4811.67
4012.06
3334.25
2768.71
2287.91
1882.94
1538.14
1245.72
995.664
783.164
600.527
446.486
354.574
611.032
613.05
383.766
297.822
252.559
223.414
201.472
185.547
173.788
164.888
157.815
152.167
147.649
144.055
141.213
138.978
137.225
135.869
134.833
134.024
133.401
132.911
132.535
132.236
132.01
131.828
131.69
131.577
131.539
136.541
611.437
611.458
136.55
131.446
131.393
131.389
131.389
131.388
131.39
131.388
131.39
131.388
131.389
131.386
131.387
131.386
131.387
131.387
131.389
131.387
131.389
131.388
131.39
131.386
131.387
131.385
131.386
131.385
131.434
136.54
611.452
611.452
136.533
131.431
131.385
131.385
131.388
131.387
131.39
131.389
131.39
131.388
131.389
131.387
131.388
131.386
131.387
131.387
131.389
131.388
131.389
131.388
131.39
131.387
131.388
131.385
131.386
131.385
131.434
136.541
611.452
611.454
136.551
131.433
131.384
131.386
131.386
131.389
131.389
131.391
131.389
131.39
131.388
131.389
131.387
131.389
131.386
131.388
131.386
131.385
131.391
131.388
131.389
131.386
131.388
131.386
131.386
131.385
131.434
136.529
611.452
611.453
136.537
131.43
131.385
131.384
131.388
131.388
131.39
131.389
131.39
131.388
131.389
131.387
131.388
131.386
131.387
131.387
131.389
131.387
131.389
131.387
131.389
131.386
131.386
131.384
131.386
131.386
131.433
136.538
611.452
611.454
136.532
131.433
131.388
131.386
131.387
131.385
131.388
131.387
131.389
131.387
131.389
131.387
131.388
131.386
131.386
131.387
131.386
131.389
131.387
131.389
131.387
131.387
131.385
131.385
131.383
131.383
131.434
136.532
611.453
611.454
136.535
131.428
131.385
131.384
131.388
131.386
131.39
131.387
131.39
131.388
131.39
131.386
131.387
131.385
131.386
131.385
131.387
131.386
131.389
131.388
131.39
131.389
131.389
131.387
131.388
131.389
131.435
136.531
611.434
3888.88
55392.4
65739.6
77420.4
89573.2
101554
109024
121322
132552
147765
163097
171397
152355
108895
8629.93
21107.6
288784
296560
253773
220749
201960
188852
184231
186616
193426
204269
218359
234581
251285
267979
284083
298664
310973
323414
338604
361439
394132
421772
427580
401445
348533
288298
264815
221844
158382
163484
46099.7
43143.6
292142
381318
330255
245899
219063
273324
350620
342207
346984
353398
360473
371444
379076
379199
366713
359993
368410
393308
424365
453830
476935
485842
486198
486224
492626
493686
502833
528790
432028
442301
88952
61030
141663
181687
238016
312298
412231
535134
679021
820694
958563
1.05549e+06
1.12772e+06
1.1773e+06
1.04609e+06
888110
779239
708867
653125
604296
567851
553776
556328
554420
550167
521112
489189
461207
429533
400862
395657
420259
24183
13372.1
196502
358538
505950
635601
735844
795372
800050
759829
698800
626634
551563
482221
423898
377854
340060
308343
279875
254185
230175
208512
188427
169899
152328
135892
120718
107421
97586.9
95145.3
107579
143759
866.037
697.945
124459
148496
132592
102467
73505.7
53681.2
41028.8
32550.9
26424.2
21778.9
18079
15067.8
12560.8
10495.9
8760.52
7319.35
6095.71
5076.67
4215.59
3495.19
2885.48
2379.19
1958.51
1613.95
1334.21
1122.72
987.053
938.123
1013.29
1252.24
621.269
622.086
1155.61
782.421
525.679
382.182
301.071
251.292
218.953
196.712
180.652
168.837
159.997
153.299
148.202
144.331
141.347
139.047
137.274
135.903
134.837
134.011
133.371
132.879
132.5
132.215
131.997
131.842
131.738
131.68
131.795
142.382
620.943
620.934
142.584
131.76
131.552
131.504
131.471
131.453
131.439
131.431
131.425
131.422
131.418
131.417
131.414
131.414
131.413
131.413
131.413
131.415
131.416
131.418
131.419
131.423
131.426
131.432
131.441
131.454
131.471
131.496
131.66
142.387
620.944
620.944
142.389
131.657
131.492
131.47
131.452
131.442
131.432
131.428
131.422
131.421
131.417
131.416
131.415
131.414
131.414
131.414
131.414
131.415
131.416
131.418
131.419
131.423
131.426
131.432
131.441
131.455
131.473
131.497
131.662
142.397
620.944
620.943
142.411
131.665
131.495
131.472
131.454
131.441
131.433
131.427
131.424
131.42
131.419
131.416
131.415
131.415
131.414
131.413
131.414
131.414
131.414
131.419
131.419
131.422
131.425
131.432
131.441
131.454
131.471
131.494
131.657
142.333
620.948
620.943
142.396
131.659
131.492
131.47
131.453
131.442
131.432
131.428
131.423
131.421
131.418
131.416
131.415
131.414
131.413
131.414
131.413
131.415
131.415
131.418
131.419
131.422
131.425
131.432
131.441
131.455
131.473
131.495
131.66
142.386
620.943
620.949
142.343
131.659
131.494
131.474
131.455
131.441
131.43
131.426
131.422
131.419
131.416
131.416
131.414
131.414
131.413
131.413
131.413
131.413
131.416
131.416
131.419
131.422
131.426
131.43
131.441
131.452
131.471
131.496
131.66
142.347
620.947
620.942
142.398
131.656
131.49
131.471
131.452
131.441
131.43
131.427
131.422
131.42
131.418
131.417
131.415
131.415
131.412
131.413
131.413
131.415
131.417
131.422
131.425
131.433
131.441
131.456
131.476
131.508
131.549
131.6
131.793
142.688
620.933
620.64
4232.78
57457.8
68445.6
80575.1
93251.4
105582
116267
130508
143429
155684
168927
182270
196031
227037
277254
327653
368412
326391
277165
233794
203911
185797
180618
183828
191476
201891
215979
233009
252850
274063
295465
316150
334369
354408
379454
414077
460498
502640
524613
517557
478537
421419
383376
277284
288070
341885
370940
362768
360342
316809
297236
288189
295916
357494
476676
449946
435375
444294
461174
482162
493334
486790
459713
422462
394419
390798
409538
441739
478777
508007
528213
544530
563913
589214
618019
664520
659616
741656
807988
827923
826493
829034
847354
870626
908019
961551
1.0265e+06
1.09377e+06
1.17338e+06
1.22146e+06
1.24244e+06
1.21092e+06
1.12112e+06
1.05666e+06
1.00581e+06
949014
868943
770813
678278
616775
596604
598359
595387
579508
554574
533712
521767
519706
547345
645918
814694
892808
944780
976318
1.00469e+06
1.0136e+06
1.01318e+06
988144
930923
859160
782207
702247
624761
554602
494592
444204
401390
364124
331487
301998
274932
250042
227103
206234
186586
168804
152447
138907
129200
126796
137375
176095
201728
209599
206301
182242
145730
108484
78775.6
59129.7
46598.9
38006.8
31471.5
26235.4
21862.5
18229.7
15187.7
12687
10582.7
8834.3
7344.96
6103.93
5057.23
4190.43
3464.87
2866.32
2366.61
1958.61
1626.43
1366.5
1176.74
1070.19
1067.35
1216.56
1182.68
1102.47
1049.87
719.843
512.014
389.704
313.099
263.3
229.764
205.845
188.252
175.194
165.303
157.683
151.746
147.12
143.527
140.757
138.613
136.946
135.65
134.644
133.866
133.264
132.803
132.449
132.183
131.988
131.843
131.743
131.682
131.804
136.896
136.881
131.733
131.531
131.498
131.479
131.464
131.453
131.445
131.442
131.438
131.436
131.433
131.43
131.428
131.427
131.427
131.427
131.427
131.428
131.43
131.432
131.435
131.437
131.438
131.44
131.444
131.451
131.454
131.459
131.462
131.609
136.791
136.792
131.608
131.46
131.457
131.455
131.451
131.445
131.44
131.44
131.436
131.435
131.432
131.43
131.429
131.428
131.427
131.427
131.428
131.43
131.43
131.432
131.435
131.437
131.438
131.44
131.445
131.451
131.454
131.459
131.462
131.608
136.792
136.791
131.611
131.464
131.458
131.454
131.451
131.445
131.441
131.439
131.438
131.436
131.433
131.43
131.43
131.428
131.427
131.427
131.428
131.428
131.428
131.433
131.434
131.435
131.437
131.44
131.445
131.451
131.455
131.458
131.46
131.606
136.791
136.792
131.609
131.461
131.456
131.455
131.451
131.446
131.44
131.44
131.437
131.435
131.432
131.43
131.428
131.428
131.427
131.427
131.427
131.429
131.43
131.432
131.433
131.436
131.437
131.44
131.444
131.451
131.456
131.458
131.461
131.609
136.792
136.791
131.607
131.461
131.458
131.457
131.452
131.445
131.44
131.438
131.436
131.435
131.432
131.431
131.428
131.428
131.427
131.427
131.428
131.428
131.43
131.432
131.435
131.436
131.439
131.44
131.445
131.449
131.453
131.459
131.462
131.608
136.792
136.791
131.606
131.46
131.456
131.455
131.45
131.446
131.44
131.439
131.436
131.436
131.432
131.431
131.429
131.428
131.427
131.427
131.427
131.429
131.43
131.434
131.437
131.441
131.445
131.45
131.455