/*--------------------------------*- C++ -*----------------------------------*\
| =========                 |                                                 |
| \\      /  F ield         | OpenFOAM: The Open Source CFD Toolbox           |
|  \\    /   O peration     | Version:  2.1.1                                 |
|   \\  /    A nd           | Web:      www.OpenFOAM.org                      |
|    \\/     M anipulation  |                                                 |
\*---------------------------------------------------------------------------*/
FoamFile
{
    version     2.0;
    format      ascii;
    class       volScalarField;
    location    "0.006900000";
    object      cSound;
}
// * * * * * * * * * * * * * * * * * * * * * * * * * * * * * * * * * * * * * //

dimensions      [0 1 -1 0 0 0 0];

internalField   nonuniform List<scalar> 
12384
(
1138.98
1135.58
1134.21
1133.52
1133.48
1133.95
1135.4
1137.9
1140.37
1142.91
1145
1146.22
1147.17
1152.34
1083.2
1090.12
1091
1089.34
1088.28
1088.39
1089.96
1091.82
1093.51
1094.6
1095.55
1097.06
1099
1101.02
1102.55
1103.76
1104.43
1104.76
1105.42
1105.81
1106.48
1107.13
1107.98
1108.91
1109.71
1109.92
1108.21
1102.11
1082.86
1053.03
1115.16
1120.09
1120.07
1121.06
1122.19
1123.57
1124.64
1126.12
1126.61
1127.6
1127.85
1128.09
1128.31
1128.28
1128.07
1127.8
1127.46
1127.22
1127.14
1127.31
1126.92
1128.06
1127.55
1128.54
1129.1
1129.64
1129.52
1127.53
1124.63
1123.6
1117.76
1115.99
1117.09
1119.3
1120.89
1121.77
1121.82
1122.4
1122.32
1122.77
1122.85
1123.05
1123.12
1123.11
1122.96
1122.65
1122.21
1121.48
1120.85
1119.83
1119.16
1118.62
1118.81
1119.05
1120.36
1121.29
1122.06
1121.65
1120.59
1121.34
1124.15
1123.05
1122.21
1121.1
1120.53
1120.16
1119.99
1119.68
1119.22
1118.52
1117.65
1116.78
1115.81
1115
1114.58
1114.71
1114.05
1115.73
1115.58
1117.78
1117.88
1118.4
1115.37
1113.9
1115.08
1116.34
1116.96
1117.2
1116.69
1114.45
1130
1124.65
1122.56
1122.8
1124.1
1124.91
1125.62
1125.48
1125.77
1125.8
1125.95
1126.05
1126.12
1126.02
1125.68
1125.08
1124.19
1123.64
1122.82
1121.4
1120.89
1120.98
1120.04
1120.6
1120.88
1121.37
1120.71
1119.66
1120.06
1120.88
1094.07
1099.55
1106.48
1110.68
1113.13
1113.64
1112.88
1112.36
1111.74
1111.41
1111.24
1110.94
1110.66
1110.14
1109.79
1109.79
1110.04
1110.02
1110.38
1111.72
1113.11
1114.71
1116.53
1116.8
1099.58
1063.87
1061.57
1064.73
1067.71
1067.99
1103.92
1117.73
1126.23
1130.56
1132.32
1133.36
1133.86
1134.06
1133.93
1133.69
1133.06
1133.34
1132.79
1133.31
1133.04
1133.69
1134.24
1134.53
1134.29
1134.06
1129.73
1123.95
1124.1
1124.55
1124.56
1125.11
1125.89
1127.3
1128.14
1128.35
1143.69
1145.06
1145.39
1145.33
1144.72
1143.93
1143.04
1141.74
1141.29
1140.03
1139.88
1139.86
1140.18
1140.45
1141.03
1141.52
1144.47
1147.88
1147.86
1146.59
1146.57
1145.3
1145.44
1145.31
1144.6
1145.38
1144.48
1144.68
1144.32
1145.78
1138.05
1142.39
1144.29
1145.08
1144.93
1143.91
1142.61
1141.5
1140.74
1139.31
1138.76
1139.01
1138.37
1139.78
1139.61
1139.83
1138.67
1138.44
1139.99
1143.4
1143.86
1144.27
1144.32
1145.09
1145.2
1146.2
1147.4
1148.6
1149.21
1149.27
1141.69
1143.17
1143.31
1142.72
1141.95
1140.71
1140.07
1140.38
1141.4
1142.47
1144.48
1146.42
1147.94
1147.58
1147.02
1148.95
1150.03
1150.29
1149.76
1148.8
1147.92
1147.27
1146.85
1146.58
1146.51
1146.5
1146.7
1147.38
1148.01
1148.12
1126.57
1121.97
1121.97
1136.19
1145.48
1146.23
1146.17
1146.3
1145.61
1146.25
1145.57
1146.2
1145.76
1146.32
1145.95
1146.09
1146.04
1146.13
1145.96
1146.24
1145.99
1146.9
1146.51
1147.73
1147.09
1147.35
1145.9
1142.39
1139.52
1140.25
1152.43
1153.1
1154.7
1154.64
1152.12
1139.48
1129.62
1175.11
1189.65
1189.61
1189.49
1190.17
1189.53
1190.4
1189.7
1189.96
1189.6
1189.14
1188.45
1187.59
1186.57
1185.28
1182.94
1178
1171.9
1167.09
1166.37
1170.69
1187.07
1194.31
1125.61
1123.74
1120.28
1117.01
1116.09
1117.59
1119.86
1123.14
1127.27
1133.46
1140.66
1146.33
1148.01
1152.2
1083.97
1091.22
1090.18
1088.21
1088.5
1090.95
1092.41
1092.68
1091.58
1092.65
1098.42
1104.62
1108.8
1111.17
1111.19
1109.72
1108.04
1106.04
1104.86
1104.42
1104.66
1105.52
1107.26
1109.19
1111.3
1112.69
1111.98
1108.16
1093.66
1067.51
1115.54
1119.97
1119.98
1121.58
1124.01
1126.29
1128
1128.97
1129.23
1129.24
1128.97
1128.57
1127.77
1126.89
1126.13
1125.25
1124.53
1123.38
1122.74
1122.49
1123.04
1123.99
1125.27
1126.61
1127.71
1129.11
1129.87
1128.87
1126.58
1124.15
1117.41
1116.41
1118.38
1120.7
1122.07
1123.07
1123.51
1123.15
1123.24
1123.2
1123.19
1123.2
1123.26
1123.2
1122.85
1122.08
1120.86
1119.33
1117.66
1116.22
1114.83
1114.49
1114.32
1115.17
1116.67
1118.53
1120.35
1121.6
1121.12
1120.95
1124.59
1123.79
1122.15
1120.31
1119.73
1119.85
1119.99
1119.71
1118.98
1118.05
1116.53
1115.4
1113.51
1113.58
1112.46
1111.87
1112.53
1113.48
1114.24
1115.78
1116.76
1117.79
1117.21
1115.26
1116.12
1119.09
1120.46
1121.61
1122.43
1121.3
1129.99
1124.23
1122.65
1124.09
1125.65
1125.81
1125.47
1125.09
1125.16
1125.42
1126.06
1126.33
1126.35
1126.01
1125.38
1124.75
1124.01
1123.43
1122.57
1122.07
1122.43
1121.14
1121.11
1120.77
1120.87
1120.93
1120.91
1120.17
1119.77
1120.3
1094.86
1103.3
1112.28
1116.61
1116.32
1113.06
1111.38
1109.76
1108.6
1108.13
1107.58
1107.28
1107.01
1106.71
1106.76
1106.96
1106.84
1107.18
1108.06
1108.83
1110.79
1111.93
1114.34
1116.41
1111.49
1090.72
1065.58
1069.38
1079.75
1082.05
1108.63
1127.75
1133.56
1134.95
1135.81
1136.3
1136.25
1136.11
1135.91
1135.64
1135.81
1135.31
1135.74
1135.58
1136.23
1136.38
1136.24
1136.23
1135.52
1134.96
1133.11
1127.39
1123.56
1123.07
1121.94
1121.97
1123.92
1126.78
1129.78
1131.72
1144.22
1144.82
1144.57
1143.63
1142.32
1140.87
1139.45
1137.99
1137.47
1136.97
1136.76
1137.53
1138.2
1139.06
1139.79
1140.62
1142.36
1146.62
1147.64
1145.7
1144.93
1144.97
1143.79
1144.94
1144.79
1145.99
1146.37
1146.07
1144.35
1143.74
1134.92
1137.42
1138.97
1139.04
1137.83
1136.41
1134.61
1132.79
1131.58
1130.92
1130.98
1130.43
1132.13
1132.95
1135.08
1136.48
1137.07
1137.55
1138.31
1141.69
1143.17
1142.77
1141.57
1142.13
1142.92
1144.7
1147.06
1149.19
1151.45
1150.8
1142.07
1141.96
1140.3
1138.16
1135.72
1133.88
1133.29
1133.01
1133.92
1136.43
1139.29
1142.73
1146.05
1147.77
1147.25
1148.28
1150.08
1149.91
1148.78
1147.18
1145.96
1145.12
1144.82
1144.8
1144.84
1144.94
1145.1
1145.65
1147.2
1148.16
1131.52
1124.8
1130.02
1141.97
1146.65
1146.95
1147.01
1147.02
1146.96
1146.83
1146.19
1146.03
1144.76
1143.78
1142.85
1141.97
1141.32
1140.8
1140.72
1140.73
1140.89
1141.59
1142.12
1143.65
1145.18
1146.47
1146.17
1144.08
1140.52
1140.25
1150.21
1149.66
1152.78
1160.19
1155.02
1135.53
1152.49
1185.76
1192.23
1193.57
1195.08
1195.92
1196.47
1196.28
1196.04
1195.54
1194.92
1193.94
1192.79
1191.52
1190.61
1190.09
1189.5
1184.23
1172.4
1165.19
1166.35
1174.23
1191.75
1194.88
1120.25
1114.66
1106.73
1105.93
1110.23
1116.29
1121.29
1122.72
1122.72
1124.29
1131.27
1141.81
1147.91
1152.32
1084.73
1091.84
1089.21
1087.62
1089.05
1089.66
1088.15
1086.01
1088.02
1100.2
1112.65
1119.8
1120.88
1117.97
1113.21
1107.38
1102.87
1100.44
1099.48
1099.21
1099.53
1100.13
1101.56
1104.11
1108.18
1111.94
1113.8
1112.1
1101.95
1077.09
1115.65
1119.42
1119.86
1122.21
1125.51
1128.82
1130.5
1131.01
1130.36
1129.38
1128.27
1127.53
1126.35
1125.34
1123.73
1121.89
1120.73
1119.87
1119.19
1118.96
1118.69
1119.26
1120.18
1122.66
1125.28
1127.61
1129.23
1129.66
1127.89
1125.12
1117.18
1116.79
1119.38
1121.65
1122.93
1123.49
1122.99
1122.38
1122.15
1121.79
1121.6
1121.78
1122.07
1122.39
1122.46
1121.32
1119.29
1117.06
1114.65
1113.06
1111.35
1110.67
1110.53
1111.46
1112.63
1115.01
1117.78
1120.19
1121.06
1121.08
1125.11
1124.42
1121.14
1119.65
1119.93
1120.57
1120.5
1119.68
1118.08
1116.33
1114.08
1112.31
1109.65
1109.23
1108.46
1108.93
1108.71
1111.53
1111.98
1114.91
1115.37
1117.02
1117.12
1116.5
1116.51
1118.3
1118.45
1120.24
1122.53
1124.25
1129.83
1124.02
1122.98
1125.18
1126.12
1125.65
1125.1
1125.32
1127.6
1130.06
1131.47
1130.93
1128.94
1126.8
1125.57
1124.8
1124.66
1124.79
1124.83
1125.77
1125.84
1124.58
1124.77
1123.65
1122.26
1121.34
1120.86
1120.47
1119.65
1120.53
1096.14
1107.13
1116.8
1118.43
1115.86
1114.08
1112.78
1110.4
1108.61
1107.8
1107.1
1106.77
1106.89
1107.61
1108.55
1109.15
1109.62
1109.64
1109.93
1110.44
1110.98
1111.7
1112.67
1114.96
1115.21
1106.44
1086.15
1069.57
1081.03
1089.35
1119.28
1133.62
1135.38
1136.6
1137.06
1136.74
1136.24
1136.09
1136.48
1136.84
1137.14
1137.39
1137.43
1138.24
1138.25
1138.59
1138.21
1138.1
1136.94
1135.97
1134.81
1131.44
1125.3
1122.43
1120.72
1121.07
1123.41
1127.51
1130.61
1133.33
1144.56
1144.22
1142.7
1140.78
1139.05
1137.23
1134.83
1133.69
1133.15
1132.5
1133.17
1134.07
1135.82
1136.61
1137.99
1139
1140.27
1143.57
1146.6
1145.68
1143.89
1144.19
1143.49
1145.18
1145.03
1146.19
1146.33
1148.13
1146.41
1143.22
1134.03
1135.97
1135.92
1134.61
1132.61
1130.44
1128.04
1126.05
1124.67
1124.58
1123.51
1124.47
1125.04
1127.46
1128.97
1131.34
1133.61
1135.08
1136.55
1139.22
1142.43
1141.99
1141.42
1141.7
1143.08
1147.52
1150.82
1151.63
1153.06
1152.99
1141.91
1139.96
1136.83
1133.6
1130.68
1129.01
1128.24
1127.7
1127.74
1129.68
1133.23
1137.63
1141.99
1145.77
1147.1
1147.31
1149.36
1150.16
1148.99
1146.84
1145.41
1144.53
1144.1
1144.05
1144.28
1144.75
1145.17
1145.31
1146.65
1148.11
1132.26
1129.27
1137.11
1145.49
1147.83
1148.48
1149.29
1150.08
1150.68
1151.39
1150.19
1149.2
1147.12
1145.21
1142.53
1140.77
1139.29
1138.94
1138.95
1139.59
1139.52
1139.59
1139.46
1139.99
1141.56
1144.17
1145.36
1144.62
1141.35
1140.3
1149.48
1146.06
1143.98
1155.5
1148.17
1141.81
1171.6
1191.95
1194.99
1197.21
1197.91
1198.59
1197.65
1197.83
1197.46
1197.53
1197.14
1196.19
1194.55
1192.7
1191.17
1190.47
1190.38
1186.85
1171.63
1165.7
1171.16
1184.82
1199.81
1193.86
1111.17
1100.66
1100.01
1109.62
1122.45
1131.48
1136.72
1137.84
1134.58
1129.01
1127.92
1135.93
1146.08
1152.4
1085.19
1092.29
1088.41
1086.81
1087.34
1085.51
1081.99
1082.7
1096.26
1115.74
1126.17
1127.37
1123.2
1116.04
1106.89
1099.82
1097
1096.91
1098.09
1099.41
1100.17
1100.04
1100.05
1100.98
1103.72
1109.01
1113.48
1113.98
1107.26
1083.04
1115.49
1119
1119.11
1122.13
1126.55
1130.35
1131.62
1131.47
1131.33
1128.73
1127.14
1126.29
1125.38
1124.32
1121.71
1120.34
1119.3
1118.41
1117.85
1117.4
1117.73
1117.63
1118
1119.09
1121.57
1125.42
1127.98
1129.63
1128.88
1125.78
1116.96
1117.11
1119.88
1122.17
1123.21
1123.2
1122.36
1122.02
1121.84
1121.2
1120.83
1120.54
1120.86
1121.51
1122.11
1120.74
1117.9
1114.97
1112.44
1110.28
1108.45
1106.95
1106.44
1107.38
1108.85
1111.98
1115.09
1118.37
1120.43
1120.92
1125.47
1124.08
1119.67
1119.44
1120.4
1121.01
1120.24
1118.41
1116.35
1112.5
1108.9
1106.47
1104.61
1103.07
1103.09
1102.84
1104.49
1106.2
1108.92
1111.96
1114.12
1115.51
1116.75
1116.91
1116.71
1117.62
1115.91
1116.21
1118.46
1121.87
1130.22
1124.11
1123.14
1125.76
1126.26
1125.46
1125.46
1128.41
1133.94
1138.79
1140.1
1137.21
1131.62
1126.83
1125.12
1124.74
1125.8
1127.09
1128.79
1130.91
1130.52
1130.4
1130.23
1127.71
1125.29
1122.79
1121.48
1120.74
1120.27
1120.04
1097.48
1110.46
1118.99
1119.78
1118.52
1119.63
1117.48
1113.48
1110.16
1108.72
1107.09
1106.75
1107.73
1109.37
1110.33
1111.81
1113.09
1114.49
1114.32
1113.94
1112.76
1112.72
1112.45
1113.84
1115.52
1112.83
1100.45
1080.25
1079.78
1092.28
1129.37
1135.3
1137.06
1138.68
1137.79
1136.44
1136.1
1136.7
1137.82
1138.32
1138.92
1139.36
1140.35
1139.89
1140.49
1140.58
1140.05
1139.71
1138.11
1137.37
1135.97
1133.78
1128.56
1123.43
1120.92
1121.01
1124.46
1128.33
1132.69
1134.13
1144.2
1142.96
1140.49
1138.67
1135.24
1131.85
1129.65
1128.2
1127.06
1127.07
1127
1128.82
1131.04
1133.9
1135.69
1137.38
1138.65
1140.97
1144.49
1146.08
1143.46
1144.14
1143.7
1145.38
1145.54
1144.84
1146.15
1147.35
1148.02
1143.59
1136.34
1135.77
1133.89
1131.61
1129.26
1125.56
1122.14
1119.71
1117.72
1115.71
1116.35
1116.2
1118.62
1120.29
1123.94
1126.56
1129.33
1132.22
1134.09
1136.89
1140.85
1141.67
1141.66
1142.12
1145.09
1150.88
1155.58
1156.53
1155.36
1155.13
1139.51
1137.5
1133.75
1129.72
1126.15
1122.74
1119.98
1119.68
1120.66
1122.99
1127.27
1131.91
1137.52
1142.4
1145.53
1146.16
1148.14
1150.1
1149.31
1147.25
1145.32
1144.24
1143.6
1143.38
1143.68
1144.59
1145.5
1145.87
1146.59
1148.08
1133.15
1133.21
1141.56
1147.6
1149.38
1150.99
1153.29
1155
1155.7
1155.93
1155.8
1153.81
1151.3
1148.07
1144.59
1141.24
1139.29
1138.66
1139.84
1140.63
1140.45
1139.4
1137.92
1137.91
1138.99
1141.7
1143.98
1144.36
1141.72
1140.49
1153.89
1145.9
1137.66
1142.09
1140.79
1153.11
1183.87
1194.92
1197.28
1198.66
1197.77
1196.89
1195.91
1195.49
1196.16
1196.96
1197.71
1197.61
1196.43
1194.31
1192.2
1191.28
1190.76
1187.18
1168.83
1166.16
1181.01
1196.76
1202.19
1188.1
1097.45
1095.25
1106.43
1124.5
1136.07
1140.53
1142.27
1143.82
1143.16
1137.29
1129.72
1132.35
1143.74
1152.46
1085.43
1092.76
1087.87
1085.13
1083.97
1080.66
1078.43
1084.97
1107.89
1125.6
1129.76
1127.3
1121.13
1110.76
1099.55
1095.42
1096.41
1099.87
1103.74
1106.7
1107.76
1107.08
1104.69
1102.56
1102.58
1105.78
1111.91
1114.68
1109.92
1086.75
1114.94
1118.9
1118.34
1120.81
1125.64
1129.98
1131.7
1131.83
1131.13
1127.79
1125.49
1125.12
1124.52
1122.82
1120.83
1119.52
1118.68
1117.85
1117.26
1116.99
1116.65
1117.12
1117.21
1117.75
1119.3
1122.41
1126.81
1129.07
1129.07
1126.09
1116.85
1117.14
1119.99
1122.34
1123.26
1122.88
1122.53
1122.74
1122.66
1122.32
1121.06
1119.79
1119.61
1120.72
1121.77
1120.14
1116.63
1113.34
1110.53
1107.4
1105.13
1103.12
1103
1103.85
1105.34
1108.69
1112.75
1116.59
1119.37
1120.48
1125.58
1122.51
1119.09
1119.27
1120.61
1120.97
1119.26
1116.39
1111.85
1108.2
1104.29
1102.41
1100.17
1099.79
1099.24
1100.1
1100.01
1102.73
1104.58
1109.52
1111.63
1114.7
1115.97
1116.59
1116.97
1117.28
1113.75
1111.96
1114.01
1117.79
1130.61
1124.63
1123.22
1126.06
1126.56
1125.61
1126.25
1131.62
1140.11
1146.56
1147.92
1143.19
1133.61
1126.28
1124.43
1125.06
1127.63
1130.05
1133.37
1135.69
1135.95
1136.21
1135.38
1132.91
1129.18
1125.5
1122.5
1121.53
1120.27
1120.62
1099.07
1112.23
1120.74
1122.42
1123.59
1125.63
1123.16
1118.15
1112.35
1108.89
1107.11
1106.85
1108.06
1109.63
1112.75
1115.92
1117.63
1118.11
1118.38
1118.8
1116.03
1114.93
1113.37
1113.54
1115
1114.91
1108.19
1090.64
1082.76
1094.18
1134.99
1136.94
1140.51
1140.4
1137.61
1135.77
1136.71
1137.63
1139.1
1140.06
1141.11
1141.97
1142.06
1142.94
1142.22
1142.05
1141.25
1141.12
1139.54
1138.33
1136.52
1135.56
1131.3
1126.5
1122.94
1123.09
1125.75
1130.59
1134.73
1136.31
1143.08
1141.75
1139.23
1135.84
1131.2
1127.94
1125.66
1122.14
1121.01
1120.8
1123.8
1125.53
1127.55
1130.05
1133.08
1135.25
1137.06
1138.62
1142.9
1145.02
1143.84
1144.51
1144.46
1144.99
1143.47
1142.71
1144.06
1146.57
1148.55
1144.35
1137.01
1134.73
1132.21
1129.47
1124.73
1120.28
1116.77
1113.86
1111.68
1111.16
1110.21
1111.74
1112.13
1115.19
1117.97
1122.16
1125.54
1128.59
1131.91
1134.36
1138.81
1141.64
1141.96
1142.95
1148.81
1153.56
1156.9
1158.87
1157.44
1155.94
1139.4
1135.87
1130.64
1125.65
1120.34
1115.09
1110.73
1109.52
1112.64
1117.03
1120.71
1126.51
1132.34
1138.56
1143.17
1145.25
1146.85
1149.3
1149.67
1147.79
1145.29
1144.16
1143.61
1143.11
1143.14
1143.84
1145.29
1146.55
1147.18
1148.27
1134.27
1135.95
1144.12
1149.09
1151.47
1154.25
1156.97
1159.13
1160.07
1159.92
1159.12
1158.34
1154.99
1151.57
1146.94
1142.73
1139.49
1138.81
1140.65
1142.13
1140.83
1139.38
1136.23
1136
1136.87
1140.13
1142.65
1143.74
1141.76
1140.72
1159.79
1148.69
1135.86
1136.64
1143.01
1165.32
1190.04
1196.47
1198.72
1196.99
1195.22
1192.92
1190.73
1190.78
1191.4
1193.56
1195.76
1197.55
1197.46
1195.47
1193.35
1192.47
1191.64
1187.24
1169.59
1165.61
1186.33
1200.27
1199.01
1174.71
1090.54
1097.88
1119.46
1133.78
1135.71
1133.71
1134.43
1138.84
1142.88
1140.78
1132.86
1131.88
1142.22
1152.2
1085
1093.7
1087.82
1083.27
1080.4
1076.94
1076.35
1090.69
1116.09
1130.16
1129.75
1125.74
1118.85
1105.25
1094.91
1094.85
1099.32
1105.34
1110.5
1114.07
1115.83
1114.97
1111.52
1106.77
1103.4
1104.42
1110.1
1114.13
1111.03
1089.18
1113.74
1118.8
1118.31
1118.75
1123.38
1127.54
1130.85
1131.45
1130.24
1126.93
1124.19
1124.02
1124.02
1121.81
1120.18
1119.11
1118.3
1116.9
1116.47
1115.86
1115.86
1116.02
1116.79
1117.28
1118.1
1120.63
1125.4
1128.35
1128.92
1126.11
1116.59
1116.98
1119.79
1122.29
1123.33
1123.2
1123.35
1124.38
1125.31
1124.96
1122.57
1119.84
1118.78
1120.32
1121.59
1119.64
1115.6
1112.11
1108.39
1105.29
1102.42
1100.66
1100.09
1101.36
1102.66
1106.33
1110.81
1115.22
1118.52
1120
1125.29
1120.49
1117.99
1119.33
1120.8
1120.69
1117.92
1114.07
1108.04
1104.89
1101.04
1099.99
1098.61
1098.68
1098.7
1097.96
1098.89
1099.97
1102.15
1106.57
1110.07
1113.35
1114.9
1116.24
1117
1117.2
1113.45
1110.57
1112.16
1116.65
1131.42
1125.41
1122.85
1126.09
1126.96
1126.08
1126.57
1132.72
1142.92
1150.32
1151.59
1147.01
1134.92
1125.8
1123.96
1125.57
1129.28
1133.04
1136.14
1139.56
1140.24
1140.26
1140.25
1137.25
1132.93
1127.58
1124.3
1121.82
1120.91
1120.16
1099.86
1113.76
1122.32
1125.52
1129.26
1131.52
1129.48
1123.92
1115.57
1109.7
1107.11
1105.89
1108.17
1111.5
1115.45
1117.96
1120.12
1121.48
1121.33
1120.95
1119.38
1117.16
1114.37
1113.86
1114.61
1115.24
1111.12
1096.02
1086.93
1095.58
1136.35
1139.6
1144.22
1140.89
1136.32
1135.96
1137.31
1139
1140.51
1141.44
1142.83
1142.56
1143.56
1143.02
1144.01
1143.86
1142.36
1142.28
1140.65
1138.82
1138.05
1136.36
1133.5
1129.19
1126.35
1125.39
1128.45
1133.54
1137.65
1137.8
1143.55
1140.84
1137.54
1133.05
1128.58
1125.13
1119.41
1116.86
1115.79
1116.6
1117.2
1120.02
1123.95
1127.24
1130.72
1134.27
1135.55
1137.62
1141.39
1144.27
1144.38
1144.52
1145.81
1141.64
1140.95
1140.05
1142.27
1144.94
1147.99
1144.82
1134.76
1132.88
1129.76
1125.95
1120.8
1116.5
1112.88
1109.57
1107.57
1106.65
1105.59
1104.63
1106.93
1109.53
1112.96
1116.86
1122.18
1126.12
1129.3
1132.95
1136.56
1140.03
1142.02
1145.97
1152.13
1154.72
1156.69
1159.07
1159.38
1157.44
1138.35
1133.67
1128.2
1121.09
1114.31
1107.42
1103.07
1101.87
1103.14
1108.84
1116.98
1122
1127.97
1134.66
1140.13
1143.3
1144.75
1148.04
1149.63
1147.94
1145.4
1144.08
1143.46
1142.99
1142.66
1142.87
1144.05
1145.95
1147.55
1148.18
1135.14
1137.75
1145.43
1150.43
1153.52
1156.74
1159.65
1160.85
1161.7
1161.95
1161.28
1160.44
1158.2
1154.4
1149.57
1144.43
1140.49
1138.77
1141.45
1143.29
1141.78
1139.86
1136.22
1134.79
1135.77
1139.46
1141.95
1143.03
1141.52
1140.99
1166.69
1156.31
1141.41
1139.41
1150.66
1175.18
1193.26
1197.58
1198.02
1194.5
1192.32
1187.58
1186.78
1186.42
1188.07
1190.34
1193.27
1196.09
1197.76
1196.71
1194.18
1192.99
1192.85
1188.58
1170.78
1161.76
1181.72
1195.31
1184
1151.76
1090.58
1107.77
1128.86
1132.02
1125.59
1121.73
1125.17
1132.62
1139.68
1140.2
1133.56
1130.96
1141.38
1152.46
1084.26
1095.07
1088.71
1081.77
1077.7
1075.1
1076.6
1095.09
1120.75
1131.95
1129.68
1124.53
1117.16
1100.92
1093.2
1096.05
1103.17
1109.6
1115.05
1118.93
1120.74
1120.05
1116.67
1110.9
1105.5
1104.56
1109.3
1113.87
1111.26
1090.16
1112.39
1118.23
1118.87
1118.46
1119.81
1123.7
1127.03
1129.06
1129.02
1126.27
1123.17
1123.45
1123.79
1121.29
1120.21
1119.06
1117.76
1116.58
1116.39
1115.83
1115.16
1115.17
1115.98
1116.87
1117.72
1119.49
1124.01
1127.77
1128.43
1125.98
1116.71
1116.64
1119.26
1122.03
1123.56
1123.72
1124.44
1126.07
1127.72
1127.1
1123.71
1119.54
1118.08
1119.98
1121.76
1119.16
1114.73
1111.5
1106.93
1103.91
1100.26
1098.54
1097.95
1099.92
1101.18
1104.73
1109.48
1114.43
1117.88
1119.35
1124.4
1118.69
1117.41
1119.72
1120.96
1120.17
1116.9
1111.28
1105.85
1103.02
1099.26
1099.05
1097.91
1098.13
1097.87
1098.58
1097.95
1099.64
1100.3
1105.04
1108.39
1111.74
1114.39
1116.12
1116.61
1117.28
1113.55
1110.71
1112.91
1117.83
1131.7
1127.28
1123.07
1125.34
1127.45
1126.75
1126.86
1131.5
1141
1149.37
1152.27
1148.23
1135.73
1125.68
1123.58
1125.97
1130.51
1134.77
1137.42
1141.51
1143.23
1143.22
1143.8
1140.65
1135.59
1130.39
1124.94
1122.94
1120.88
1120.91
1101.3
1114.66
1124.06
1128.2
1133.7
1136.11
1134.9
1129.56
1119.48
1110.62
1106.47
1105.45
1108.21
1112.18
1115.72
1119.35
1121.7
1123.62
1123.54
1123.3
1120.43
1118.77
1114.85
1114.08
1114.38
1115.17
1111.6
1098.38
1091.64
1100.13
1137.42
1143.48
1146.55
1139.67
1135.9
1136.16
1138.31
1139.21
1141.21
1141.7
1143.33
1143.8
1144.09
1144.67
1144.24
1144.47
1143.49
1143.02
1141.18
1140.61
1138.54
1137.2
1135.16
1131.89
1129.37
1128.79
1132.95
1137.84
1139.34
1139.43
1144
1140.13
1136.73
1131.61
1126.66
1122.14
1116.63
1114.83
1113.53
1112.57
1113.71
1116.51
1120.94
1124.62
1128.44
1132.03
1134.82
1136.49
1140.41
1143.62
1144.21
1145.31
1143.71
1138.41
1138.21
1139.28
1141.79
1145.4
1147.77
1145.89
1134.96
1132.39
1128.79
1124.18
1118.57
1113.59
1110.3
1106.71
1104.28
1102.35
1102.92
1104.28
1103.84
1107.01
1110.85
1113.62
1118.77
1124.38
1127.39
1131
1135.81
1139.46
1141.37
1151.5
1151.9
1151.32
1154.61
1157.49
1158.29
1157.43
1137.3
1131.98
1125.15
1117.81
1109.32
1100.25
1095.71
1093.3
1094.75
1099.6
1109.02
1118.24
1124.9
1131.11
1137.61
1141.94
1143.74
1146.77
1148.87
1148.41
1146.09
1144.93
1144.32
1143.4
1142.62
1142.25
1142.58
1143.72
1145.73
1147.07
1135.87
1138.66
1146.23
1151.13
1154.85
1158.51
1161.03
1161.78
1161.42
1161.88
1162.1
1162.06
1159.35
1156.83
1151.11
1146.37
1141.65
1138.91
1141.67
1144.62
1143.09
1141.16
1138.2
1136.73
1136.85
1140.07
1141.83
1142.43
1141.47
1141.48
1172.74
1166.03
1150.79
1148.32
1160.06
1182.18
1195.12
1197.91
1196.5
1192.6
1188.53
1183.52
1182.51
1181.66
1183.49
1186.9
1190.65
1194.04
1197.26
1197.76
1194.77
1192.86
1193.75
1189.88
1169.57
1155.66
1169.1
1176.03
1156.58
1124.49
1092.65
1116.42
1129.26
1121.48
1115.43
1116.55
1123.53
1133.71
1139.55
1138.95
1132.8
1131.56
1141.95
1152.82
1083.2
1095.03
1091.46
1082.18
1076.62
1075
1078
1098.11
1123.18
1133.01
1129.95
1123.69
1115.74
1097.77
1092.44
1097.36
1104.85
1111.11
1116.09
1119.99
1121.71
1121.16
1118.27
1112.58
1106.89
1104.72
1109.28
1113.92
1110.82
1089.34
1110.78
1116.61
1119.08
1119.24
1119.64
1120.59
1122.73
1125.63
1127.6
1125.63
1122.2
1122.9
1123.58
1121.26
1120.25
1118.96
1117.65
1116.53
1116.33
1115.39
1114.98
1115.27
1115.52
1116.64
1117.73
1119.13
1123.4
1127.51
1128.23
1125.67
1116.81
1116.23
1118.44
1121.42
1123.57
1124.93
1125.95
1127.82
1128.87
1127.31
1122.92
1119.29
1118.41
1120.01
1121.9
1119.24
1114.47
1111.06
1106.94
1102.75
1099.23
1098.08
1097.52
1099.37
1100.76
1104.28
1109.41
1114.59
1117.63
1118.91
1123.01
1116.96
1118.74
1120.68
1120.93
1120.03
1116.44
1109.43
1105.15
1101.61
1098.51
1099.11
1097.76
1098.57
1098.8
1098.5
1098.4
1098.83
1100.13
1104.02
1107.34
1111.17
1114.16
1115.37
1116.91
1117.2
1113.74
1111.67
1114.3
1118.31
1132.21
1128.98
1123.99
1124.47
1127.11
1127.59
1127.38
1129.82
1136.61
1144.65
1149.57
1147.93
1136.66
1125.8
1123.24
1126.01
1130.86
1135.13
1137.94
1142.43
1144.87
1145.11
1145.23
1142.67
1137.39
1130.81
1126.26
1123.09
1121.42
1120.78
1101.33
1114.52
1125.45
1130.54
1135.94
1138.46
1138.03
1133.84
1123.21
1111.53
1107.34
1105.5
1107.71
1112
1116.13
1119.54
1121.5
1123.75
1123.25
1123.51
1120.61
1118.55
1115.16
1113.48
1114.25
1114.86
1111.31
1098.31
1097.2
1114.02
1139.24
1148.12
1146.64
1139.25
1135.66
1136.63
1138.53
1139.66
1141.61
1142.36
1143.87
1144.29
1145.18
1145.28
1144.71
1144.49
1144.6
1143.06
1142.15
1140.7
1139.24
1137.81
1136.29
1134.28
1131.74
1132.35
1138.29
1139.85
1140.98
1140.6
1142.82
1139.75
1136.25
1130.49
1126.16
1121.13
1115.34
1113.48
1110.93
1111.06
1113.14
1115.67
1119.32
1123.96
1127.47
1131.48
1134.2
1136.3
1140.22
1142.69
1145.23
1144.87
1141.04
1136.66
1137.12
1138.62
1142.54
1144.69
1146.2
1145.21
1134.35
1131.66
1127.81
1123.45
1117.11
1112.61
1108.99
1105.05
1102.62
1102.6
1101.5
1101.26
1102.39
1104.17
1107.33
1113.16
1116.29
1122.29
1127.49
1129.91
1134.21
1139.43
1146.13
1152.61
1149.75
1149.98
1151.43
1153.82
1154.94
1155.6
1135.56
1131.03
1123.29
1115.59
1105.45
1096.95
1091.76
1091.14
1091.76
1096.23
1104.17
1115.57
1122.11
1128.9
1135.45
1139.74
1142.36
1145.01
1147.96
1147.92
1146.2
1145.24
1144.91
1144.06
1143.23
1142.3
1141.83
1141.86
1142.76
1144.28
1136.57
1138.84
1146.39
1151.72
1155.34
1159.13
1161.74
1161.8
1161.94
1161.99
1162.53
1161.66
1160.35
1157.88
1152.22
1147.38
1143.21
1139.03
1141.2
1145.87
1144.93
1142.78
1140.9
1140.12
1139.29
1141.01
1141.96
1142.15
1141.71
1141.98
1177.46
1175.81
1161.36
1160.29
1169.15
1186.75
1196.14
1197.76
1195.75
1190.63
1186.17
1181.44
1179.49
1179.21
1182.08
1185.19
1189.38
1192.65
1196.54
1198.37
1195.61
1192.07
1193.81
1192.08
1170.8
1150.78
1152.53
1150.55
1127.45
1059.64
1097.54
1121.15
1124.55
1115.9
1114.22
1122.08
1133
1139.97
1139.64
1134.68
1130.12
1132.42
1144.69
1152.3
1137.44
1109.62
1084.06
1094.93
1095.44
1085.41
1078.25
1076.15
1081.68
1101.66
1124.33
1133.63
1130.38
1123.17
1114.87
1096.45
1092.06
1097.61
1104.8
1110.89
1115.41
1118.89
1120.93
1120.41
1117.13
1111.81
1106.91
1105.31
1110.02
1114.05
1109.33
1087.89
1084.38
1094.22
1108.61
1114.25
1118.26
1119.94
1120.39
1121.04
1121.72
1123.29
1125.36
1124.76
1121.16
1122.75
1123.77
1121.37
1120.59
1119.22
1117.78
1116.86
1116.39
1115.62
1115.35
1115.56
1115.74
1116.74
1117.82
1119.4
1123.6
1127.49
1127.94
1125.41
1124.23
1123.8
1117.65
1115.86
1117.4
1120.11
1122.84
1125.02
1126.9
1128
1127.74
1124.4
1120.5
1118.25
1118.25
1120.46
1122.41
1119.24
1114.85
1111.51
1107.2
1103.18
1099.77
1098.2
1098.3
1100.02
1101.32
1105.11
1110.45
1114.57
1117.4
1118.71
1119.07
1119.78
1120.19
1117.03
1120.92
1121.55
1121.05
1119.9
1116.02
1109.05
1105.32
1100.95
1098.68
1098.98
1097.89
1098.46
1098.38
1098.92
1097.86
1099.32
1099.84
1103.8
1106.97
1111.32
1113.27
1115.4
1116.7
1117.11
1114.27
1113.1
1115.44
1119.02
1122
1123.88
1128.93
1130.32
1126.29
1124.39
1125.83
1127.57
1128.01
1129.11
1132.46
1138.42
1143.93
1145.84
1137.77
1126.38
1123.61
1125.63
1130.42
1134.87
1137.43
1141.44
1144.86
1144.9
1144.46
1141.62
1136.86
1130.95
1126.3
1123.8
1121.78
1121.71
1115
1104.88
1102.73
1114.4
1125.61
1131.7
1137.08
1139.05
1138.86
1135.62
1127.01
1113.24
1107.97
1105.64
1107.36
1111.33
1115.26
1118.31
1120.36
1122.26
1121.78
1122.13
1119.33
1116.97
1114.5
1113.69
1113.83
1113.87
1107.88
1099.52
1119.91
1142.39
1147.88
1147.64
1147.76
1152.38
1145.12
1138.22
1135.56
1136.44
1138.54
1139.48
1141.65
1142.07
1144.02
1143.77
1144.37
1144.87
1144.28
1145.72
1144.27
1143.08
1142.67
1140.91
1139.45
1138.26
1137.3
1135.33
1133.83
1139.69
1140.66
1141.7
1141.88
1143.08
1143.24
1145.31
1143.4
1139.6
1136.19
1130.96
1125.98
1121.82
1116.06
1113.8
1112.79
1112.78
1113.45
1116.2
1119.76
1124.07
1127.6
1131.36
1134.12
1136.68
1140.29
1143.31
1146.27
1144.87
1139.66
1136.43
1135.18
1136.2
1137.99
1138.24
1136.05
1133.22
1132.26
1134.28
1134.09
1132.25
1128.55
1123.01
1118
1111.8
1109.7
1104.65
1103.53
1102.06
1101.82
1101.97
1101.88
1104.78
1106.39
1112.49
1115.87
1121.54
1125.99
1130.08
1133.94
1140.76
1151.99
1151.07
1148.46
1147.62
1147.18
1146.71
1146.74
1146.66
1146.74
1148.36
1138.89
1131.96
1123.74
1114.69
1105.68
1096.43
1092.04
1089.93
1089.71
1095.4
1101.99
1113.53
1120.84
1127.37
1134.02
1138.4
1141.12
1143.9
1147.02
1147.92
1146.89
1146.34
1146.27
1145.45
1144.14
1142.84
1141.98
1141.2
1141.15
1142.05
1143.16
1141.95
1137.44
1138.78
1145.6
1151.35
1155.37
1158.93
1161.12
1162.17
1161.95
1162.5
1162.3
1161.25
1160.5
1157.82
1152.52
1147.98
1144.34
1139.4
1140.11
1146.29
1146.59
1145.08
1142.92
1142.53
1142.06
1142.24
1142.41
1142.27
1142.85
1147.33
1158.75
1172.11
1184.54
1182.52
1170.85
1171.73
1176.93
1189.51
1196.67
1197.7
1195.2
1190.43
1186.1
1180.5
1178.42
1178.11
1181.15
1184.88
1188.78
1192.22
1196.08
1198.84
1196.65
1190.64
1192.99
1193.41
1171.72
1145.42
1136.24
1124.37
1085.68
1064.93
1204.02
1244.42
1100.69
1121.1
1118.71
1114.56
1121.52
1134
1141.8
1141.69
1136.06
1131.21
1129.2
1135.81
1147.91
1152.82
1143.29
1117.14
1088.59
1094.24
1097.55
1091.7
1085.31
1082.55
1087.98
1105.57
1125.23
1133.92
1130.57
1122.81
1114.65
1096.08
1091.41
1096.6
1103.63
1109.47
1112.97
1115.23
1116.44
1115.88
1113.31
1109.69
1106.41
1106.7
1111.54
1113.86
1105.79
1086.33
1081.72
1087.8
1100.09
1107.77
1114.09
1118.19
1120.32
1121.48
1122.15
1122.61
1123.96
1123.03
1119.25
1122.04
1124.07
1121.69
1120.98
1119.78
1118.32
1117.33
1117.16
1116.81
1116.22
1116.26
1116.22
1117.48
1118.15
1120.36
1124.67
1127.89
1127.8
1125.41
1124.52
1124.62
1119.56
1116.24
1116.37
1118.25
1120.63
1122.61
1124.12
1124.53
1122.82
1120.25
1118.53
1118.3
1119.35
1121.27
1123.18
1119.94
1115.19
1112.46
1108.36
1104.52
1101.63
1100.1
1100.08
1100.94
1102.71
1107.47
1112.03
1115.34
1117.81
1118.99
1117.53
1117.66
1117.5
1119
1122.98
1122.82
1121.54
1120.12
1116
1110.07
1105.99
1101.32
1099.82
1098.94
1097.81
1098.11
1098.38
1098.07
1097.96
1099.8
1100.79
1104.44
1107.96
1111.09
1113.3
1115.43
1116.41
1117.14
1114.85
1114.45
1115.7
1118.66
1122.07
1124.33
1126.59
1128.98
1128.15
1125.69
1125.08
1126.55
1127.64
1128.44
1129.73
1133.1
1138.02
1141.98
1138.94
1127.45
1123.61
1125.18
1129.24
1133.51
1136.59
1138.73
1142.88
1143.87
1142.64
1140.41
1135.57
1130.58
1126.21
1123.48
1121.98
1121.61
1116.93
1108.72
1105.66
1112.37
1123.08
1131.34
1136.95
1138.83
1137.23
1134.78
1129.88
1115.77
1109.11
1105.98
1106.72
1110.01
1113.47
1115.94
1117.95
1119.41
1119.17
1118.91
1116.84
1115.47
1113.36
1113.56
1113.6
1110.87
1103.39
1104.49
1126.98
1147.82
1154.46
1155.13
1157.03
1156.91
1148.02
1138.64
1135.58
1136.14
1137.97
1139.13
1140.65
1141.61
1142.68
1143.43
1144.36
1144.23
1145.44
1144.78
1143.27
1143.83
1142.38
1140.45
1139.55
1138.55
1137.33
1135.31
1137.01
1140.31
1140.59
1141.61
1141.63
1143.15
1143.72
1144.74
1143.34
1139.6
1136.72
1132.14
1127.19
1123.42
1119.08
1115.13
1113.66
1114.11
1115.54
1117.93
1122.04
1125.17
1128.51
1132.49
1134.55
1137.3
1140.96
1144.06
1147.37
1146.74
1141.1
1138.02
1134.67
1134.15
1133.27
1133.6
1133.03
1133.53
1134.23
1134.84
1134.17
1132.62
1129.03
1125.23
1118.62
1113.97
1110.36
1106.74
1103.83
1103.25
1102.14
1102.6
1102.69
1106.27
1108.03
1113.37
1116.09
1122.35
1125.68
1129.62
1135.44
1144.81
1155.28
1155.03
1152.56
1151.4
1150.18
1149.6
1148.77
1148.36
1146.67
1146.32
1138.05
1132.06