/*--------------------------------*- C++ -*----------------------------------*\
| =========                 |                                                 |
| \\      /  F ield         | OpenFOAM: The Open Source CFD Toolbox           |
|  \\    /   O peration     | Version:  2.1.1                                 |
|   \\  /    A nd           | Web:      www.OpenFOAM.org                      |
|    \\/     M anipulation  |                                                 |
\*---------------------------------------------------------------------------*/
FoamFile
{
    version     2.0;
    format      ascii;
    class       volScalarField;
    location    "0.006900000";
    object      H2O2;
}
// * * * * * * * * * * * * * * * * * * * * * * * * * * * * * * * * * * * * * //

dimensions      [0 0 0 0 0 0 0];

internalField   nonuniform List<scalar> 
12384
(
1.5139e-06
1.58913e-06
1.58089e-06
1.57499e-06
1.56554e-06
1.54241e-06
1.52728e-06
1.4577e-06
1.43437e-06
1.41482e-06
1.41259e-06
1.40901e-06
1.41984e-06
1.29482e-06
1.13555e-06
1.21571e-06
1.25478e-06
1.27149e-06
1.27166e-06
1.26706e-06
1.25223e-06
1.24002e-06
1.2236e-06
1.21596e-06
1.21031e-06
1.20776e-06
1.20531e-06
1.19969e-06
1.19183e-06
1.18245e-06
1.16495e-06
1.15586e-06
1.12907e-06
1.11684e-06
1.10671e-06
1.08699e-06
1.07757e-06
1.06868e-06
1.06164e-06
1.06532e-06
1.10507e-06
1.20692e-06
1.22564e-06
1.07711e-06
8.65869e-07
5.82403e-07
5.14654e-07
4.91741e-07
4.66849e-07
4.4451e-07
4.15516e-07
3.95484e-07
3.7851e-07
3.70736e-07
3.66778e-07
3.71412e-07
3.82469e-07
3.96765e-07
4.14123e-07
4.32081e-07
4.46674e-07
4.55302e-07
4.5916e-07
4.56101e-07
4.49497e-07
4.47951e-07
4.37161e-07
4.29399e-07
4.16393e-07
3.99777e-07
3.92031e-07
4.4083e-07
6.54393e-07
8.39617e-07
4.56112e-07
4.63544e-07
4.42493e-07
4.03173e-07
3.72329e-07
3.5267e-07
3.34582e-07
3.31194e-07
3.2007e-07
3.20615e-07
3.18799e-07
3.20995e-07
3.24019e-07
3.28735e-07
3.35654e-07
3.43145e-07
3.49562e-07
3.55115e-07
3.61483e-07
3.58837e-07
3.68644e-07
3.61961e-07
3.68229e-07
3.74848e-07
3.88164e-07
3.95247e-07
4.03903e-07
4.31744e-07
4.30476e-07
4.07773e-07
1.8453e-07
1.95826e-07
2.00923e-07
2.031e-07
2.04047e-07
2.02398e-07
2.00273e-07
1.95414e-07
1.91615e-07
1.86573e-07
1.81341e-07
1.76765e-07
1.72422e-07
1.69758e-07
1.70354e-07
1.73941e-07
1.70334e-07
1.8579e-07
1.85031e-07
2.92276e-07
3.08186e-07
3.42968e-07
3.64255e-07
3.44062e-07
3.22617e-07
3.09259e-07
2.953e-07
2.89642e-07
3.017e-07
3.31138e-07
5.38306e-08
6.38428e-08
6.74249e-08
6.46527e-08
6.38676e-08
6.48028e-08
6.75664e-08
6.85039e-08
7.02692e-08
7.10492e-08
7.1841e-08
7.2541e-08
7.33156e-08
7.3578e-08
7.31972e-08
7.20023e-08
7.01513e-08
6.90738e-08
6.70713e-08
6.40362e-08
6.19244e-08
6.28074e-08
5.98254e-08
6.10597e-08
6.1252e-08
6.11601e-08
5.8236e-08
6.15197e-08
6.59928e-08
6.42612e-08
2.59777e-07
2.26573e-07
1.09889e-07
9.35988e-08
8.69652e-08
9.30821e-08
1.02379e-07
1.11526e-07
1.1969e-07
1.27377e-07
1.33531e-07
1.37329e-07
1.39584e-07
1.38623e-07
1.3688e-07
1.35442e-07
1.35319e-07
1.33453e-07
1.33559e-07
1.3874e-07
1.40732e-07
1.44411e-07
1.44362e-07
1.45598e-07
3.96649e-07
8.97352e-07
9.1332e-07
8.94711e-07
8.7052e-07
8.6649e-07
1.17371e-07
6.19462e-08
5.62507e-08
5.53633e-08
5.50264e-08
5.4994e-08
5.46161e-08
5.40667e-08
5.29529e-08
5.19287e-08
4.98271e-08
5.0174e-08
4.96709e-08
4.96208e-08
4.86134e-08
5.25563e-08
5.50389e-08
5.71934e-08
6.06512e-08
6.31821e-08
7.28959e-08
1.08493e-07
1.01492e-07
7.59502e-08
7.42234e-08
7.38314e-08
7.29844e-08
7.36103e-08
7.47033e-08
7.79869e-08
1.85813e-07
1.83562e-07
1.88567e-07
1.9132e-07
1.91353e-07
1.8801e-07
1.85051e-07
1.77051e-07
1.75334e-07
1.69376e-07
1.70729e-07
1.72093e-07
1.7565e-07
1.76148e-07
1.73829e-07
1.65031e-07
8.29221e-08
3.21441e-08
2.74531e-08
2.88308e-08
3.06772e-08
3.01271e-08
3.13285e-08
3.24561e-08
3.16136e-08
3.22015e-08
2.93709e-08
2.5972e-08
1.99239e-08
1.56951e-08
1.12469e-07
8.93322e-08
7.22685e-08
7.23236e-08
7.18739e-08
7.03095e-08
6.81192e-08
6.71238e-08
7.75969e-08
8.03487e-08
8.13475e-08
8.85273e-08
8.88544e-08
9.72422e-08
1.02432e-07
1.13811e-07
1.18504e-07
1.224e-07
9.86074e-08
5.15262e-08
4.38278e-08
4.65653e-08
4.81417e-08
4.95682e-08
5.08304e-08
5.23976e-08
5.22506e-08
5.06925e-08
4.88758e-08
4.74232e-08
2.6523e-08
2.87112e-08
3.36643e-08
3.64577e-08
3.75908e-08
3.63173e-08
3.50591e-08
3.38731e-08
3.26337e-08
3.08911e-08
2.98494e-08
2.92975e-08
2.81819e-08
2.91782e-08
2.60525e-08
1.60314e-08
1.32822e-08
1.30429e-08
1.37627e-08
1.45998e-08
1.54323e-08
1.56407e-08
1.57104e-08
1.56408e-08
1.55352e-08
1.53328e-08
1.51016e-08
1.46583e-08
1.36807e-08
1.28663e-08
2.62131e-08
3.00992e-08
3.17105e-08
2.46984e-08
1.94067e-08
1.91403e-08
1.90402e-08
1.93163e-08
1.85483e-08
1.98438e-08
1.9164e-08
2.04354e-08
2.02495e-08
1.98751e-08
2.1429e-08
2.05175e-08
2.07837e-08
2.11182e-08
2.13901e-08
2.17341e-08
2.17056e-08
2.20484e-08
2.1609e-08
2.24166e-08
2.25157e-08
2.40444e-08
2.52336e-08
2.85119e-08
3.00905e-08
2.86288e-08
1.40446e-08
1.33808e-08
1.18811e-08
1.19549e-08
1.26908e-08
2.81957e-08
6.4235e-08
5.55976e-09
3.40277e-09
3.28161e-09
2.97584e-09
3.01565e-09
2.68306e-09
2.68144e-09
2.65034e-09
2.5155e-09
2.62218e-09
2.63364e-09
2.66111e-09
2.681e-09
2.69686e-09
2.73034e-09
2.89052e-09
3.55387e-09
4.53605e-09
6.05902e-09
6.32514e-09
4.58326e-09
2.10243e-09
1.32428e-09
1.61534e-06
1.64635e-06
1.62526e-06
1.59991e-06
1.57133e-06
1.55619e-06
1.54286e-06
1.49584e-06
1.4681e-06
1.44795e-06
1.36857e-06
1.35875e-06
1.38837e-06
1.29813e-06
1.14068e-06
1.24111e-06
1.27458e-06
1.27383e-06
1.25411e-06
1.24008e-06
1.21518e-06
1.19971e-06
1.1923e-06
1.21812e-06
1.25869e-06
1.28012e-06
1.27949e-06
1.22361e-06
1.20152e-06
1.18636e-06
1.18777e-06
1.20688e-06
1.19785e-06
1.1948e-06
1.18906e-06
1.17371e-06
1.12275e-06
1.09068e-06
1.06106e-06
1.03329e-06
1.04565e-06
1.12395e-06
1.23568e-06
1.15002e-06
8.55994e-07
5.82813e-07
5.31483e-07
5.04566e-07
4.60856e-07
4.1031e-07
3.72875e-07
3.50821e-07
3.44624e-07
3.48107e-07
3.59026e-07
3.86496e-07
4.29134e-07
4.83838e-07
5.44481e-07
5.92184e-07
6.25046e-07
7.33676e-07
7.4572e-07
7.49025e-07
7.52672e-07
7.23373e-07
6.14112e-07
5.74947e-07
5.21825e-07
4.65466e-07
4.16369e-07
4.1505e-07
5.22769e-07
7.76686e-07
4.59487e-07
4.54313e-07
4.16278e-07
3.72758e-07
3.45934e-07
3.33091e-07
3.34879e-07
3.36741e-07
3.47029e-07
3.55004e-07
3.57592e-07
3.53969e-07
3.49159e-07
3.45584e-07
3.49611e-07
3.6351e-07
3.8343e-07
4.0479e-07
4.22493e-07
4.37409e-07
4.41971e-07
4.51126e-07
4.53529e-07
4.51826e-07
4.47603e-07
4.34887e-07
4.18396e-07
4.27827e-07
4.41726e-07
4.33346e-07
1.77797e-07
1.86908e-07
1.96173e-07
2.00812e-07
1.94476e-07
1.87954e-07
1.81479e-07
1.78299e-07
1.76101e-07
1.76446e-07
1.75254e-07
1.76613e-07
1.71644e-07
1.76555e-07
1.72472e-07
1.69254e-07
1.73376e-07
1.77412e-07
1.80589e-07
1.92461e-07
2.89843e-07
3.21495e-07
3.56961e-07
3.65685e-07
3.20473e-07
1.83695e-07
1.75818e-07
1.66938e-07
1.61884e-07
1.66697e-07
5.4779e-08
6.43059e-08
6.54651e-08
6.22642e-08
6.31931e-08
6.67554e-08
6.86096e-08
6.84601e-08
6.76744e-08
6.69675e-08
6.7614e-08
6.83398e-08
6.92143e-08
7.04496e-08
7.1199e-08
7.16242e-08
7.14394e-08
7.0561e-08
6.83676e-08
6.63693e-08
6.74046e-08
6.43034e-08
6.37376e-08
6.3084e-08
6.30889e-08
6.2028e-08
5.98275e-08
5.93608e-08
6.29478e-08
6.31072e-08
2.54886e-07
1.16788e-07
8.87009e-08
7.18255e-08
8.05352e-08
1.03924e-07
1.17572e-07
1.30429e-07
1.39799e-07
2.41859e-07
2.57998e-07
2.67077e-07
2.69474e-07
2.66951e-07
2.63332e-07
2.60199e-07
2.52e-07
2.52547e-07
2.51851e-07
2.50906e-07
2.44042e-07
1.53045e-07
1.51058e-07
1.45659e-07
1.64811e-07
6.02596e-07
8.9047e-07
8.71902e-07
7.53045e-07
7.22487e-07
9.83496e-08
5.36513e-08
5.2602e-08
5.28847e-08
5.23413e-08
5.02497e-08
5.21495e-08
5.16312e-08
5.05118e-08
4.84657e-08
4.7893e-08
4.67318e-08
4.69972e-08
4.61218e-08
4.67233e-08
4.83363e-08
5.01644e-08
5.39798e-08
5.60287e-08
6.04547e-08
6.68552e-08
7.89123e-08
1.04808e-07
8.88896e-08
7.55855e-08
7.52006e-08
7.35722e-08
7.00939e-08
6.79767e-08
6.81802e-08
1.80062e-07
1.87956e-07
1.982e-07
2.07193e-07
2.12641e-07
2.14482e-07
2.13205e-07
2.06124e-07
2.04868e-07
2.01437e-07
1.96906e-07
1.95171e-07
1.89578e-07
1.84132e-07
1.77426e-07
1.74163e-07
1.3777e-07
5.1344e-08
2.91139e-08
3.09794e-08
3.17629e-08
3.29291e-08
3.2449e-08
4.15942e-08
4.61567e-08
5.22206e-08
5.20414e-08
4.86951e-08
3.55747e-08
2.15778e-08
1.30448e-07
1.2292e-07
1.18645e-07
1.16342e-07
1.17e-07
1.16131e-07
1.16697e-07
1.13617e-07
1.13158e-07
1.11269e-07
1.12238e-07
1.09448e-07
1.12271e-07
1.0897e-07
1.10304e-07
1.11116e-07
1.16328e-07
1.22841e-07
1.1896e-07
6.6556e-08
4.57518e-08
4.7516e-08
4.86224e-08
5.24563e-08
5.49519e-08
5.56357e-08
5.45424e-08
5.30463e-08
5.12274e-08
4.95215e-08
2.78611e-08
3.91633e-08
5.67168e-08
6.76814e-08
7.20585e-08
7.48675e-08
7.49749e-08
7.11509e-08
6.51808e-08
5.59729e-08
3.83988e-08
3.34699e-08
3.10813e-08
3.01116e-08
2.83938e-08
1.79003e-08
1.35502e-08
1.31355e-08
1.44648e-08
1.56792e-08
1.59368e-08
1.58322e-08
1.74589e-08
1.68647e-08
1.63185e-08
1.49935e-08
1.51116e-08
1.53598e-08
1.44671e-08
1.29801e-08
2.25167e-08
2.91384e-08
2.7987e-08
2.12331e-08
2.02644e-08
2.06004e-08
1.96836e-08
2.04467e-08
2.07612e-08
2.10791e-08
2.10242e-08
2.19548e-08
2.29271e-08
2.30641e-08
2.34318e-08
2.37823e-08
2.46944e-08
2.56932e-08
2.68906e-08
2.75486e-08
2.82798e-08
2.86218e-08
2.79084e-08
2.70684e-08
2.47914e-08
2.44109e-08
2.46959e-08
2.68286e-08
2.97861e-08
2.91586e-08
1.6547e-08
1.66742e-08
1.43839e-08
8.66632e-09
1.14957e-08
3.48191e-08
1.58433e-08
3.87659e-09
3.16084e-09
3.01586e-09
2.80181e-09
2.60973e-09
2.42876e-09
2.20279e-09
2.14363e-09
2.08602e-09
2.04906e-09
2.00565e-09
2.09641e-09
2.26088e-09
2.28994e-09
2.31837e-09
2.32187e-09
2.74496e-09
4.59598e-09
6.7631e-09
6.48626e-09
4.11162e-09
1.54341e-09
1.30001e-09
1.63821e-06
1.62368e-06
1.58803e-06
1.56152e-06
1.5489e-06
1.54226e-06
1.50439e-06
1.48989e-06
1.47519e-06
1.44241e-06
1.41253e-06
1.31769e-06
1.3606e-06
1.29166e-06
1.14689e-06
1.25453e-06
1.27903e-06
1.25567e-06
1.23723e-06
1.20961e-06
1.19909e-06
1.19737e-06
1.24957e-06
1.34791e-06
1.37854e-06
1.30549e-06
1.25102e-06
1.20405e-06
1.19535e-06
1.24101e-06
1.25862e-06
1.27773e-06
1.29377e-06
1.31208e-06
1.31375e-06
1.29458e-06
1.27255e-06
1.22777e-06
1.15049e-06
1.06951e-06
1.02181e-06
1.0586e-06
1.19455e-06
1.20763e-06
8.50764e-07
6.78724e-07
5.63554e-07
5.29414e-07
4.45893e-07
3.63846e-07
3.1567e-07
3.05567e-07
3.15954e-07
3.41563e-07
3.69093e-07
4.13539e-07
4.8251e-07
5.69571e-07
7.25154e-07
7.86324e-07
8.12136e-07
8.26491e-07
8.34663e-07
8.42975e-07
8.44615e-07
8.50877e-07
8.36081e-07
8.05705e-07
7.35507e-07
5.6916e-07
4.74832e-07
4.22369e-07
4.60246e-07
6.23328e-07
4.63097e-07
4.40595e-07
3.92269e-07
3.56276e-07
3.47164e-07
3.62923e-07
3.86549e-07
4.04492e-07
4.21985e-07
4.26375e-07
4.25639e-07
4.2045e-07
4.05224e-07
3.84339e-07
3.66423e-07
3.80713e-07
4.12138e-07
4.455e-07
4.68594e-07
4.9175e-07
4.99149e-07
5.11656e-07
5.16638e-07
5.18129e-07
5.05436e-07
4.91201e-07
4.59058e-07
4.34494e-07
4.41174e-07
4.46714e-07
1.65853e-07
1.77785e-07
1.99194e-07
1.96278e-07
1.86207e-07
1.76032e-07
1.73054e-07
1.75546e-07
1.825e-07
1.94996e-07
2.90753e-07
3.23051e-07
3.28523e-07
3.47002e-07
3.36706e-07
3.33204e-07
3.12065e-07
3.0654e-07
2.77854e-07
2.77573e-07
2.7627e-07
3.06358e-07
3.33088e-07
3.70678e-07
3.47345e-07
2.89214e-07
1.88087e-07
1.73579e-07
1.58822e-07
1.47335e-07
5.44754e-08
6.36441e-08
6.36657e-08
6.03887e-08
6.34333e-08
6.66969e-08
6.59918e-08
6.35032e-08
6.21228e-08
6.09102e-08
6.04772e-08
6.22236e-08
6.45955e-08
6.73028e-08
7.03699e-08
7.23421e-08
7.33536e-08
7.28479e-08
7.07134e-08
7.11284e-08
7.06447e-08
6.61127e-08
6.73886e-08
6.6558e-08
6.5021e-08
6.40588e-08
6.1396e-08
5.92717e-08
6.02595e-08
6.39341e-08
2.43042e-07
1.03993e-07
6.80435e-08
5.67656e-08
8.8031e-08
1.00408e-07
1.0985e-07
1.26526e-07
1.38907e-07
2.42895e-07
2.5968e-07
2.6504e-07
2.61818e-07
2.54392e-07
2.44098e-07
2.29688e-07
1.46891e-07
1.44604e-07
1.47902e-07
2.30071e-07
2.49684e-07
2.51898e-07
1.58051e-07
1.49743e-07
1.49961e-07
3.16427e-07
6.5703e-07
8.67965e-07
7.38586e-07
6.41927e-07
5.8218e-08
5.19651e-08
5.22916e-08
4.7031e-08
4.62131e-08
4.78651e-08
5.0997e-08
5.03045e-08
4.88514e-08
4.67877e-08
4.38809e-08
4.41422e-08
4.22871e-08
4.13864e-08
4.17722e-08
4.40836e-08
4.56424e-08
4.97484e-08
5.30333e-08
5.57421e-08
6.0802e-08
7.05762e-08
1.00361e-07
1.01563e-07
1.0474e-07
1.10396e-07
7.9464e-08
7.71217e-08
7.31523e-08
6.81488e-08
1.82899e-07
1.98295e-07
2.13322e-07
2.26348e-07
2.38744e-07
3.7815e-07
3.90289e-07
4.01176e-07
3.99524e-07
3.87728e-07
3.78924e-07
3.52171e-07
3.22109e-07
2.03229e-07
1.89678e-07
1.77985e-07
1.63915e-07
8.0229e-08
3.3212e-08
3.0788e-08
3.06067e-08
3.09298e-08
3.05386e-08
4.12222e-08
4.84045e-08
5.63318e-08
5.73895e-08
5.86828e-08
5.21218e-08
2.93035e-08
1.41698e-07
1.37027e-07
1.33226e-07
1.32118e-07
1.34778e-07
1.37772e-07
1.38421e-07
2.24489e-07
2.3324e-07
2.40702e-07
2.28113e-07
2.21186e-07
2.07863e-07
1.31334e-07
1.25062e-07
1.22867e-07
1.20225e-07
1.21395e-07
1.24662e-07
1.0466e-07
5.3544e-08
4.57101e-08
4.70869e-08
4.99701e-08
5.65185e-08
5.5016e-08
5.12561e-08
4.97313e-08
4.88897e-08
4.93085e-08
4.15306e-08
5.99106e-08
7.62142e-08
8.50517e-08
9.3169e-08
1.0062e-07
1.6336e-07
1.60129e-07
9.58051e-08
8.7121e-08
7.1992e-08
5.02421e-08
3.43568e-08
3.10667e-08
2.95039e-08
2.48028e-08
1.45872e-08
1.28109e-08
1.39264e-08
1.53577e-08
1.59077e-08
1.78397e-08
1.69696e-08
1.58323e-08
1.4391e-08
1.42462e-08
1.45167e-08
1.49853e-08
1.4914e-08
1.29834e-08
2.28544e-08
2.74939e-08
2.42647e-08
2.04884e-08
2.01067e-08
2.20653e-08
2.3684e-08
2.29519e-08
2.37946e-08
2.49937e-08
2.38057e-08
2.38488e-08
2.45628e-08
2.42936e-08
2.44906e-08
2.49627e-08
2.71147e-08
2.84339e-08
2.911e-08
2.97764e-08
3.10418e-08
3.32361e-08
3.97106e-08
3.40961e-08
3.16369e-08
2.78093e-08
2.54939e-08
2.63463e-08
2.91567e-08
2.92084e-08
1.69149e-08
2.1831e-08
2.52874e-08
1.14743e-08
1.62324e-08
2.73441e-08
6.88391e-09
3.50401e-09
3.16559e-09
3.15725e-09
3.00801e-09
2.86716e-09
2.99556e-09
2.94887e-09
2.72134e-09
2.30123e-09
2.14401e-09
2.02017e-09
1.92292e-09
1.85285e-09
2.07125e-09
2.11133e-09
2.18309e-09
2.44883e-09
4.63229e-09
6.60417e-09
4.62438e-09
2.36352e-09
1.1378e-09
1.32833e-09
1.62923e-06
1.56374e-06
1.54403e-06
1.55311e-06
1.5226e-06
1.48715e-06
1.41105e-06
1.40962e-06
1.47189e-06
1.46413e-06
1.42454e-06
1.32431e-06
1.33028e-06
1.28525e-06
1.15106e-06
1.26091e-06
1.27681e-06
1.24466e-06
1.21413e-06
1.20095e-06
1.19961e-06
1.24364e-06
1.35245e-06
1.36055e-06
1.29167e-06
1.17429e-06
1.18629e-06
1.16646e-06
1.2266e-06
1.2695e-06
1.30949e-06
1.34222e-06
1.36223e-06
1.38477e-06
1.39082e-06
1.38536e-06
1.36384e-06
1.33001e-06
1.26851e-06
1.15918e-06
1.05e-06
1.01793e-06
1.12083e-06
1.21253e-06
8.56501e-07
7.0252e-07
6.83712e-07
5.59648e-07
4.48303e-07
3.25027e-07
1.93811e-07
1.895e-07
2.87949e-07
3.38883e-07
3.84799e-07
4.34261e-07
5.21596e-07
6.18944e-07
7.8066e-07
8.0878e-07
8.19902e-07
8.25074e-07
8.32649e-07
8.40712e-07
8.54356e-07
8.6098e-07
8.71221e-07
8.75943e-07
8.34247e-07
7.47107e-07
5.46976e-07
4.49905e-07
4.35618e-07
5.69633e-07
4.61018e-07
4.28792e-07
3.79827e-07
3.54939e-07
3.70901e-07
4.06501e-07
4.2945e-07
4.38324e-07
4.4123e-07
4.38395e-07
4.40399e-07
4.41803e-07
4.3677e-07
4.13649e-07
3.73057e-07
3.89408e-07
4.33287e-07
4.72215e-07
5.03905e-07
5.22253e-07
6.24863e-07
6.41035e-07
6.43919e-07
6.47727e-07
6.34072e-07
5.39275e-07
5.013e-07
4.572e-07
4.443e-07
4.49124e-07
1.56077e-07
1.80173e-07
2.00733e-07
1.94407e-07
1.80964e-07
1.71349e-07
1.72993e-07
1.85353e-07
2.9252e-07
3.52905e-07
3.97538e-07
4.32723e-07
4.54963e-07
4.58805e-07
4.58292e-07
4.44403e-07
4.29633e-07
3.97885e-07
3.55409e-07
3.17436e-07
2.91766e-07
2.96322e-07
3.22081e-07
3.62442e-07
3.65678e-07
3.23045e-07
3.31445e-07
3.18036e-07
1.95371e-07
1.71048e-07
5.50288e-08
6.2884e-08
6.2115e-08
5.91515e-08
6.27197e-08
6.49765e-08
6.2874e-08
5.9532e-08
5.65499e-08
5.68405e-08
5.69652e-08
5.8182e-08
6.0959e-08
6.6251e-08
7.03596e-08
7.3492e-08
7.54356e-08
7.4782e-08
7.34505e-08
7.56664e-08
7.19535e-08
6.9291e-08
7.1013e-08
6.84568e-08
6.79102e-08
6.58206e-08
6.35799e-08
6.02045e-08
6.03117e-08
6.19929e-08
2.2795e-07
9.35134e-08
5.28687e-08
5.56903e-08
7.23151e-08
6.08041e-08
8.50052e-08
1.09797e-07
1.30689e-07
2.26298e-07
2.4941e-07
2.53986e-07
2.46853e-07
2.28915e-07
1.40892e-07
1.35422e-07
1.32915e-07
1.35954e-07
1.36669e-07
1.42514e-07
1.48782e-07
1.58481e-07
1.60586e-07
1.54958e-07
1.48368e-07
1.58e-07
3.86606e-07
7.22214e-07
7.47621e-07
6.08851e-07
5.22874e-08
5.22409e-08
4.49478e-08
3.73571e-08
4.29227e-08
4.97772e-08
5.05771e-08
4.89207e-08
4.6188e-08
4.18051e-08
4.08265e-08
3.81996e-08
3.55501e-08
3.66622e-08
3.64804e-08
3.90268e-08
4.14681e-08
4.58528e-08
4.86986e-08
5.27681e-08
5.70748e-08
6.42737e-08
7.69853e-08
1.03673e-07
1.15697e-07
1.16522e-07
9.73728e-08
7.8291e-08
7.95367e-08
7.0505e-08
1.90035e-07
2.07884e-07
2.23232e-07
3.65896e-07
4.19832e-07
4.58278e-07
4.95646e-07
5.22472e-07
5.20961e-07
5.07737e-07
4.72278e-07
4.43488e-07
4.01234e-07
3.54126e-07
2.06163e-07
1.88066e-07
1.75219e-07
1.34341e-07
5.23384e-08
3.15656e-08
2.95535e-08
3.07164e-08
3.08525e-08
4.66843e-08
5.64112e-08
5.83193e-08
6.08261e-08
6.10626e-08
5.96405e-08
4.27579e-08
1.34134e-07
1.28778e-07
1.29996e-07
1.36746e-07
2.23959e-07
2.60955e-07
2.93109e-07
3.18112e-07
3.31328e-07
3.24187e-07
3.32356e-07
3.15789e-07
3.05919e-07
2.76054e-07
2.48373e-07
2.07924e-07
1.28521e-07
1.25589e-07
1.25594e-07
1.19252e-07
6.40588e-08
4.66263e-08
4.49173e-08
4.99138e-08
5.41801e-08
5.10279e-08
4.69416e-08
4.42087e-08
4.51464e-08
4.59419e-08
6.5113e-08
7.47999e-08
8.42256e-08
9.89154e-08
2.09926e-07
2.64449e-07
2.88283e-07
2.87117e-07
2.64814e-07
2.1808e-07
1.49258e-07
7.54038e-08
4.91282e-08
3.3373e-08
3.08084e-08
2.89663e-08
1.7194e-08
1.28517e-08
1.31957e-08
1.49281e-08
1.60245e-08
1.80517e-08
1.67558e-08
1.73862e-08
1.42722e-08
1.3716e-08
1.40892e-08
1.47053e-08
1.48195e-08
1.28598e-08
2.29702e-08
2.59634e-08
2.20371e-08
2.03953e-08
2.27322e-08
2.40137e-08
2.51162e-08
2.67652e-08
2.70199e-08
2.74398e-08
2.75652e-08
2.5531e-08
2.59546e-08
2.58664e-08
2.54926e-08
2.45372e-08
2.66526e-08
2.7832e-08
2.74084e-08
2.754e-08
3.09978e-08
4.18854e-08
5.49282e-08
5.82373e-08
5.01761e-08
3.29911e-08
2.77014e-08
2.65778e-08
2.8938e-08
2.9089e-08
1.44046e-08
2.11826e-08
3.45753e-08
2.64129e-08
2.71319e-08
1.49805e-08
4.33684e-09
3.37394e-09
3.11443e-09
3.39563e-09
3.66156e-09
4.05165e-09
4.32032e-09
4.22326e-09
3.85891e-09
3.2477e-09
2.78393e-09
2.15317e-09
1.95317e-09
1.81939e-09
1.74389e-09
1.75971e-09
2.0529e-09
2.38945e-09
4.95134e-09
6.39937e-09
2.7102e-09
1.30595e-09
8.93623e-10
1.6964e-09
1.58679e-06
1.54414e-06
1.56612e-06
1.51952e-06
1.40625e-06
1.37499e-06
1.36575e-06
1.3763e-06
1.40446e-06
1.41592e-06
1.43298e-06
1.38557e-06
1.30209e-06
1.26616e-06
1.15263e-06
1.27273e-06
1.27469e-06
1.23643e-06
1.20817e-06
1.19905e-06
1.19299e-06
1.28808e-06
1.39442e-06
1.31864e-06
1.16532e-06
1.10678e-06
1.14284e-06
1.16664e-06
1.24603e-06
1.30576e-06
1.35352e-06
1.39786e-06
1.43494e-06
1.45543e-06
1.45829e-06
1.45779e-06
1.44908e-06
1.4155e-06
1.35278e-06
1.25684e-06
1.10751e-06
1.01577e-06
1.08209e-06
1.20776e-06
8.75031e-07
7.35413e-07
7.26861e-07
7.03419e-07
5.02654e-07
3.49741e-07
1.93213e-07
1.86308e-07
2.86056e-07
3.59833e-07
4.11651e-07
4.62095e-07
5.58937e-07
7.37753e-07
7.89032e-07
7.89643e-07
7.96558e-07
8.10467e-07
8.32682e-07
8.46334e-07
8.48903e-07
8.60231e-07
8.66091e-07
8.85694e-07
8.84484e-07
8.20829e-07
6.16601e-07
4.86649e-07
4.30642e-07
5.43713e-07
4.59255e-07
4.22203e-07
3.74933e-07
3.61625e-07
3.92426e-07
4.27129e-07
4.3634e-07
4.33433e-07
4.15888e-07
4.04171e-07
4.12336e-07
4.30432e-07
4.41913e-07
4.29904e-07
3.75532e-07
3.96662e-07
4.52398e-07
4.94881e-07
5.26052e-07
6.31958e-07
6.62503e-07
6.77518e-07
6.88608e-07
6.89743e-07
6.76378e-07
6.63699e-07
5.32634e-07
4.79185e-07
4.46011e-07
4.4785e-07
1.53004e-07
1.92075e-07
2.94927e-07
1.93451e-07
1.77598e-07
1.69964e-07
1.78179e-07
2.06738e-07
3.65079e-07
4.39856e-07
4.8603e-07
5.18963e-07
5.26841e-07
5.33251e-07
5.26719e-07
5.30787e-07
5.04244e-07
4.88362e-07
4.27801e-07
3.83909e-07
3.18782e-07
3.03621e-07
3.1771e-07
3.51101e-07
3.73952e-07
3.48353e-07
3.68647e-07
3.96276e-07
3.68981e-07
2.0298e-07
5.42632e-08
6.26723e-08
6.20593e-08
5.76114e-08
6.13013e-08
6.30415e-08
6.06674e-08
5.73885e-08
5.48985e-08
5.205e-08
5.32696e-08
5.39643e-08
5.86962e-08
6.49132e-08
7.03773e-08
7.44492e-08
7.66674e-08
7.55034e-08
7.64634e-08
7.84752e-08
7.49153e-08
7.36365e-08
7.28518e-08
7.22786e-08
7.07268e-08
6.80716e-08
6.51304e-08
6.23488e-08
5.95191e-08
6.30451e-08
2.14658e-07
8.36101e-08
5.00679e-08
5.24578e-08
5.16276e-08
4.95647e-08
5.58684e-08
8.54305e-08
1.18608e-07
1.36782e-07
2.42486e-07
2.48069e-07
2.28603e-07
1.35302e-07
1.30744e-07
1.28464e-07
1.24518e-07
1.20068e-07
1.20664e-07
1.33639e-07
1.36615e-07
1.52366e-07
1.58032e-07
1.58e-07
1.48971e-07
1.48568e-07
2.90994e-07
5.95689e-07
7.07757e-07
4.87727e-07
5.22222e-08
4.74087e-08
3.58097e-08
3.50198e-08
4.42181e-08
5.09875e-08
5.01271e-08
4.54816e-08
4.1457e-08
3.63792e-08
3.20723e-08
3.12891e-08
3.00416e-08
3.09937e-08
3.0677e-08
3.20925e-08
3.37301e-08
4.26279e-08
4.59944e-08
5.14296e-08
5.50412e-08
6.17586e-08
7.15714e-08
9.49011e-08
1.14591e-07
1.13451e-07
9.71964e-08
8.34239e-08
8.39918e-08
7.71155e-08
1.91878e-07
2.07588e-07
2.30244e-07
4.02591e-07
4.66914e-07
5.34781e-07
6.00427e-07
7.04893e-07
7.11268e-07
6.97033e-07
5.92556e-07
5.4757e-07
4.87848e-07
4.17837e-07
3.47797e-07
1.96196e-07
1.81485e-07
1.5781e-07
7.11778e-08
3.32514e-08
2.97886e-08
3.09861e-08
4.15482e-08
5.86898e-08
6.41996e-08
6.25777e-08
6.11519e-08
6.13238e-08
6.22191e-08
4.92986e-08
1.22077e-07
1.22365e-07
1.31045e-07
2.20704e-07
2.74198e-07
3.21392e-07
3.5919e-07
3.83986e-07
3.90947e-07
3.99987e-07
3.91983e-07
3.96184e-07
3.72634e-07
3.53145e-07
3.16936e-07
2.78246e-07
2.25236e-07
1.29704e-07
1.28589e-07
1.24137e-07
9.22133e-08
5.50114e-08
4.56436e-08
5.17847e-08
5.15238e-08
4.65473e-08
4.30889e-08
3.89106e-08
3.95064e-08
4.35466e-08
6.67981e-08
7.73334e-08
9.37454e-08
2.1728e-07
3.07631e-07
4.31603e-07
4.92239e-07
5.09784e-07
4.75465e-07
3.3227e-07
2.49371e-07
1.46053e-07
6.72249e-08
3.77195e-08
3.18173e-08
3.07987e-08
2.30121e-08
1.34403e-08
1.26999e-08
1.429e-08
1.59475e-08
1.84983e-08
1.75812e-08
1.76283e-08
1.69465e-08
1.3861e-08
1.35818e-08
1.40009e-08
1.39932e-08
1.29034e-08
2.28737e-08
2.4816e-08
2.12993e-08
2.20512e-08
2.41366e-08
2.65649e-08
2.7934e-08
3.13278e-08
3.03375e-08
2.94509e-08
2.98357e-08
2.8259e-08
2.62986e-08
2.63609e-08
2.52596e-08
2.47991e-08
2.57307e-08
2.66276e-08
2.49685e-08
2.48657e-08
2.93235e-08
4.44753e-08
6.58185e-08
7.39733e-08
6.63081e-08
4.62296e-08
3.05722e-08
2.72953e-08
2.88592e-08
2.88788e-08
9.6291e-09
1.63525e-08
4.58628e-08
3.41404e-08
2.37306e-08
8.37044e-09
3.60521e-09
3.37724e-09
3.66114e-09
4.09639e-09
5.01554e-09
6.81446e-09
7.25166e-09
7.09962e-09
6.03434e-09
4.54121e-09
3.64914e-09
2.72434e-09
2.02821e-09
1.80588e-09
1.69388e-09
1.67011e-09
1.72012e-09
2.33014e-09
4.79629e-09
6.42499e-09
2.21058e-09
1.10596e-09
1.10839e-09
3.23446e-09
1.51156e-06
1.53688e-06
1.55507e-06
1.37976e-06
1.32017e-06
1.28767e-06
1.28981e-06
1.33909e-06
1.39037e-06
1.42367e-06
1.47098e-06
1.39782e-06
1.29371e-06
1.25423e-06
1.14649e-06
1.27271e-06
1.27493e-06
1.23453e-06
1.18605e-06
1.17119e-06
1.19328e-06
1.32285e-06
1.37219e-06
1.21858e-06
1.09692e-06
1.04688e-06
1.11961e-06
1.20428e-06
1.27401e-06
1.33974e-06
1.39148e-06
1.42971e-06
1.46084e-06
1.47231e-06
1.49332e-06
1.49413e-06
1.47809e-06
1.45233e-06
1.40905e-06
1.30886e-06
1.14796e-06
1.01402e-06
1.05767e-06
1.20585e-06
9.44313e-07
7.68017e-07
7.61883e-07
7.8904e-07
7.08863e-07
4.72821e-07
3.51978e-07
3.12875e-07
3.45924e-07
4.07109e-07
4.5116e-07
4.87863e-07
5.84238e-07
7.53989e-07
7.67233e-07
7.70923e-07
7.97398e-07
8.21125e-07
8.46235e-07
8.45217e-07
8.48674e-07
8.52383e-07
8.62811e-07
8.77561e-07
8.85974e-07
8.66099e-07
7.47472e-07
5.18795e-07
4.33267e-07
5.28491e-07
4.54537e-07
4.22111e-07
3.75685e-07
3.65539e-07
3.99615e-07
4.28698e-07
4.26004e-07
4.05616e-07
3.63735e-07
3.44743e-07
3.70491e-07
4.13122e-07
4.39536e-07
4.34561e-07
3.78231e-07
4.04367e-07
4.6923e-07
5.09917e-07
6.21064e-07
6.64493e-07
6.98266e-07
7.1465e-07
7.20951e-07
7.26561e-07
7.03573e-07
6.92379e-07
6.33916e-07
4.93181e-07
4.48604e-07
4.45451e-07
1.59373e-07
2.03753e-07
3.05215e-07
1.93887e-07
1.75567e-07
1.70252e-07
1.88021e-07
3.42425e-07
4.26844e-07
5.03593e-07
5.34007e-07
5.62526e-07
5.60334e-07
5.6653e-07
5.65536e-07
5.49628e-07
5.4966e-07
5.34755e-07
4.89846e-07
4.33226e-07
3.608e-07
3.18963e-07
3.15059e-07
3.50204e-07
3.79709e-07
3.61581e-07
3.89046e-07
4.26433e-07
3.95781e-07
3.191e-07
5.48725e-08
6.14756e-08
6.22912e-08
5.5972e-08
5.85601e-08
6.12317e-08
5.91603e-08
5.64746e-08
5.19708e-08
5.21793e-08
4.95447e-08
5.40588e-08
5.79911e-08
6.36187e-08
7.03068e-08
7.485e-08
7.69313e-08
7.73893e-08
7.78522e-08
8.14105e-08
7.90135e-08
7.52803e-08
7.5998e-08
7.36853e-08
7.17269e-08
6.92543e-08
6.8029e-08
6.2888e-08
6.10127e-08
6.16933e-08
1.98478e-07
7.76207e-08
4.69883e-08
4.62894e-08
4.0233e-08
3.75743e-08
4.33608e-08
5.57064e-08
1.00758e-07
1.30969e-07
2.3735e-07
2.40932e-07
2.09724e-07
1.32203e-07
1.26539e-07
1.18448e-07
1.11078e-07
1.09997e-07
1.08223e-07
1.17274e-07
1.28328e-07
1.44278e-07
1.53417e-07
1.5863e-07
1.49523e-07
1.44838e-07
1.58582e-07
4.29945e-07
6.43296e-07
4.64374e-07
5.27181e-08
3.77268e-08
3.04485e-08
3.52985e-08
5.01463e-08
5.19508e-08
4.7726e-08
4.247e-08
3.70324e-08
3.14063e-08
2.98758e-08
2.70578e-08
2.70567e-08
2.63021e-08
2.86204e-08
3.03316e-08
3.1506e-08
3.57958e-08
4.33351e-08
4.81311e-08
5.33911e-08
5.89848e-08
6.87019e-08
7.81464e-08
1.03661e-07
1.02565e-07
8.38306e-08
1.04864e-07
1.10307e-07
8.16076e-08
1.86008e-07
2.01057e-07
2.28936e-07
4.2006e-07
5.08424e-07
5.97728e-07
7.4219e-07
7.85991e-07
8.02892e-07
8.07568e-07
7.61655e-07
6.97171e-07
5.452e-07
4.76174e-07
3.9864e-07
3.20013e-07
1.85031e-07
1.69958e-07
9.79551e-08
4.45216e-08
3.24555e-08
3.52469e-08
5.87479e-08
6.71569e-08
8.28346e-08
7.75598e-08
6.15845e-08
5.93848e-08
6.14559e-08
5.07891e-08
1.11264e-07
1.16332e-07
1.29153e-07
2.4104e-07
3.06978e-07
3.60657e-07
3.97772e-07
4.90812e-07
5.13983e-07
5.26845e-07
5.19253e-07
4.92219e-07
4.95512e-07
4.61819e-07
3.5767e-07
3.19216e-07
2.7603e-07
2.15775e-07
1.29534e-07
1.28566e-07
1.08488e-07
6.11588e-08
5.38919e-08
5.06493e-08
4.63727e-08
4.58692e-08
4.28653e-08
3.95262e-08
3.76835e-08
4.14013e-08
6.94064e-08
8.08902e-08
1.68645e-07
2.90312e-07
4.7015e-07
5.8095e-07
6.73945e-07
6.87399e-07
6.60203e-07
5.56347e-07
3.50064e-07
2.35031e-07
8.44265e-08
5.37841e-08
3.41036e-08
3.05696e-08
2.68796e-08
1.50889e-08
1.26299e-08
1.34927e-08
1.57308e-08
1.61738e-08
1.78612e-08
1.66312e-08
1.75909e-08
1.43077e-08
1.35431e-08
1.35339e-08
1.36002e-08
1.30524e-08
2.26622e-08
2.40893e-08
2.19243e-08
2.18398e-08
2.51683e-08
2.82075e-08
3.11598e-08
3.5437e-08
3.74164e-08
3.76269e-08
3.50479e-08
3.02099e-08
2.74627e-08
2.60097e-08
2.51882e-08
2.51073e-08
2.46608e-08
2.59865e-08
2.2843e-08
2.18516e-08
2.70001e-08
3.99023e-08
6.4949e-08
8.07735e-08
7.26058e-08
5.11451e-08
3.14462e-08
2.84406e-08
2.88139e-08
2.863e-08
7.88928e-09
1.14643e-08
2.66043e-08
2.91073e-08
1.52023e-08
5.52238e-09
3.45848e-09
3.38735e-09
4.21508e-09
5.07082e-09
8.18948e-09
9.95107e-09
1.24047e-08
1.2076e-08
9.61173e-09
7.21613e-09
4.61192e-09
3.38335e-09
2.21558e-09
1.8559e-09
1.68564e-09
1.59782e-09
1.6099e-09
2.19947e-09
4.57862e-09
7.34777e-09
2.53077e-09
1.30267e-09
2.06655e-09
1.09543e-08
1.51537e-06
1.57376e-06
1.47617e-06
1.29715e-06
1.2227e-06
1.25094e-06
1.22302e-06
1.29357e-06
1.3781e-06
1.42998e-06
1.4792e-06
1.39328e-06
1.2781e-06
1.23278e-06
1.13819e-06
1.26247e-06
1.27912e-06
1.23504e-06
1.17933e-06
1.16776e-06
1.19653e-06
1.34521e-06
1.34868e-06
1.19265e-06
1.05526e-06
1.01332e-06
1.11149e-06
1.20692e-06
1.28644e-06
1.35425e-06
1.41456e-06
1.43989e-06
1.46859e-06
1.4953e-06
1.51352e-06
1.513e-06
1.49777e-06
1.47503e-06
1.42568e-06
1.34658e-06
1.20503e-06
1.01694e-06
1.03892e-06
1.20696e-06
9.6614e-07
8.15236e-07
7.89629e-07
8.35995e-07
8.41463e-07
7.5983e-07
5.57964e-07
4.90565e-07
4.68217e-07
4.83049e-07
4.99865e-07
5.12137e-07
6.00397e-07
7.57242e-07
7.52039e-07
7.62714e-07
8.0907e-07
8.47197e-07
8.56703e-07
8.49249e-07
8.4e-07
8.41718e-07
8.5391e-07
8.68425e-07
8.83278e-07
8.78831e-07
7.76206e-07
5.39227e-07
4.33012e-07
5.19531e-07
4.55662e-07
4.29022e-07
3.81157e-07
3.62967e-07
3.90915e-07
4.13661e-07
4.11256e-07
3.75009e-07
3.14897e-07
3.01792e-07
3.43066e-07
3.97946e-07
4.3726e-07
4.3555e-07
3.82173e-07
4.09415e-07
4.7724e-07
5.20408e-07
6.34899e-07
6.87851e-07
7.19355e-07
7.25976e-07
7.31426e-07
7.49393e-07
7.17944e-07
7.04551e-07
6.41446e-07
4.97512e-07
4.47283e-07
4.39977e-07
1.72929e-07
3.08741e-07
3.15337e-07
1.90996e-07
1.74579e-07
1.70718e-07
2.02363e-07
3.83352e-07
4.73751e-07
5.4018e-07
5.47201e-07
5.68998e-07
5.62271e-07
5.65253e-07
5.57678e-07
5.6691e-07
5.5542e-07
5.6386e-07
5.1842e-07
4.82131e-07
3.92109e-07
3.33329e-07
3.2375e-07
3.53181e-07
3.77865e-07
3.73637e-07
3.94192e-07
4.26865e-07
3.94016e-07
3.01493e-07
5.52439e-08
6.08516e-08
6.32979e-08
5.6011e-08
5.54854e-08
5.83815e-08
5.79901e-08
5.5996e-08
5.41848e-08
5.23721e-08
5.07027e-08
5.42461e-08
5.732e-08
6.28084e-08
6.98214e-08
7.43134e-08
7.76224e-08
7.97351e-08
7.86443e-08
8.30298e-08
8.19289e-08
7.87112e-08
7.89837e-08
7.51185e-08
7.26351e-08
7.17247e-08
6.80247e-08
6.51672e-08
6.05675e-08
6.37762e-08
1.86909e-07
6.73793e-08
4.37129e-08
4.01131e-08
3.06784e-08
2.88385e-08
3.05397e-08
4.39005e-08
8.09146e-08
1.26417e-07
2.23766e-07
2.33593e-07
1.36474e-07
1.29044e-07
1.18121e-07
1.10559e-07
1.06269e-07
1.01659e-07
1.012e-07
1.10552e-07
1.19886e-07
1.42028e-07
1.48037e-07
1.5723e-07
1.49032e-07
1.42713e-07
1.52336e-07
4.06352e-07
5.82314e-07
4.14053e-07
5.15293e-08
3.29238e-08
2.85203e-08
3.71686e-08
5.31139e-08
5.03445e-08
4.67242e-08
3.88484e-08
3.32937e-08
2.92661e-08
2.76998e-08
2.53215e-08
2.42286e-08