/*--------------------------------*- C++ -*----------------------------------*\
| =========                 |                                                 |
| \\      /  F ield         | OpenFOAM: The Open Source CFD Toolbox           |
|  \\    /   O peration     | Version:  2.1.1                                 |
|   \\  /    A nd           | Web:      www.OpenFOAM.org                      |
|    \\/     M anipulation  |                                                 |
\*---------------------------------------------------------------------------*/
FoamFile
{
    version     2.0;
    format      ascii;
    class       volScalarField;
    location    "0.006900000";
    object      p;
}
// * * * * * * * * * * * * * * * * * * * * * * * * * * * * * * * * * * * * * //

dimensions      [1 -1 -2 0 0 0 0];

internalField   nonuniform List<scalar> 
12384
(
865432
865024
864900
864243
864290
864161
864386
863998
863547
863596
863037
862544
862738
862556
853193
853172
853379
853168
853683
853345
854430
853900
855613
856010
857160
857889
858676
859195
859409
859072
858230
857053
856052
854866
855114
854671
855754
857254
858199
859829
861262
861778
861702
862058
840403
840513
840094
841406
840947
843075
842053
845189
844057
847777
848193
850306
851822
853312
853740
853654
852650
851326
850324
850514
847377
856173
853169
861481
866119
869297
871316
873735
874408
875842
866569
866459
866347
865785
865143
863764
858995
860594
855270
857121
855934
857033
857848
858528
858653
858035
856263
852318
849745
842449
842284
835708
838964
842020
851370
858227
861216
864981
867026
868062
844012
843118
844158
843781
845606
846450
847030
845886
842723
837129
830059
824146
815350
808986
806389
810813
804615
822120
818376
835770
834687
843285
843957
847553
847620
850955
849789
850251
851815
850940
860135
860504
862060
861709
863545
862584
865763
864585
868396
869936
872099
873294
874158
873268
870171
864491
856283
851012
841257
829847
822762
824176
814601
818882
817794
817285
814236
813537
809664
811903
864357
863525
863783
864259
862598
867486
869342
874375
877508
881792
884841
885819
885494
882573
878373
876147
877147
875496
879325
890154
898606
907239
914374
918527
920470
920693
920405
920490
921567
921316
856796
857652
857810
860585
861869
862920
862361
860714
857137
853452
846269
847976
843174
847842
844852
855002
860129
865758
868830
870896
871910
872268
871917
871594
871258
872515
872069
873786
872871
873504
945604
948170
950235
949631
945107
937625
930692
917700
914976
904960
906663
906901
910062
911076
910402
906518
903932
895782
890061
881946
881993
869831
870072
867482
858206
860516
852084
854443
848692
851802
892240
893236
892188
890108
885773
877859
869259
862694
856200
848292
846516
853539
850075
864549
864827
873669
872501
879270
877551
884890
883191
889144
890484
897967
898710
902773
904942
905294
905634
907236
837376
838763
840010
838328
835722
827134
822093
821273
825087
825211
829484
833214
834169
834037
833105
832611
830705
829341
828327
827320
827037
826466
826001
825185
824609
823145
821553
821400
819789
820096
814682
813710
814036
816006
816311
816596
816989
819291
815901
823599
821337
830171
829825
837654
838015
841955
842345
844448
844361
846502
845175
849834
846667
854443
852265
859797
860490
862247
863007
863198
874417
874983
874208
873616
871810
871852
866520
867737
859509
861348
848652
851805
838218
842280
836261
838708
838685
839227
839180
838174
836635
835264
834140
832645
832902
832625
833314
833526
834229
834384
863725
863910
863592
863751
863479
863721
863221
863435
863440
862793
862717
862691
862449
862606
853441
853503
853461
853499
853646
853449
854172
854033
855166
855560
856400
857371
857941
858374
858389
857931
856862
855452
853890
853050
853505
852851
853664
854889
856968
858467
859994
861490
861738
862095
840690
840343
840512
840335
841464
841438
842888
843412
844477
846333
847779
849334
850770
851762
852384
851815
850498
849081
847405
846688
848777
849896
853474
859828
862992
868519
871347
874177
875361
876436
867553
867191
866696
865530
863259
862086
860566
856212
855964
855410
855792
855660
856825
857415
857178
856407
854196
850468
845381
842258
834733
836514
835340
839956
845977
854053
859772
865666
867834
869955
844032
842602
842854
844096
844320
845103
844941
843447
839265
834988
825883
821700
807866
811208
804417
799390
806193
813512
817722
830351
834526
842141
846441
848404
849604
852330
853212
854230
855157
853741
861608
861502
861762
862271
862691
863214
863779
865241
866991
867901
870705
872298
872832
871978
868588
863643
856424
848156
836106
827502
827773
815424
814577
812413
815027
815014
815329
813852
812606
809773
864449
863452
862922
863264
862383
865280
868816
873102
876030
879716
882055
883129
881534
878055
875996
874969
870248
873244
878248
883260
893460
901332
911444
917895
919716
921536
921047
920908
920953
920402
856309
857334
857739
859660
860933
861407
860827
857868
854147
847909
846916
839033
842765
838526
845274
850009
853041
862962
867213
871520
872805
873177
873369
871323
873131
871080
872302
871341
872487
871151
942524
945271
946468
944005
938356
931850
921956
911201
907706
903054
899368
903502
904979
907632
907913
907505
901800
897565
891154
881217
876242
875503
864259
866718
857492
857600
852305
849450
850628
848324
890507
890776
889520
886245
880023
873518
865456
854819
848864
844554
845514
839492
851524
849718
861692
867645
872104
876770
877812
882818
883166
889360
887103
894724
898169
899824
902357
904243
904381
904993
836859
837659
837006
835078
827901
821205
818664
815504
816130
822630
826764
830408
833657
834800
833266
832042
830337
827511
827216
826639
826011
824838
824270
824217
823248
822426
821088
820644
819890
820517
814078
814331
815205
815633
816260
816091
815325
815643
816807
819501
820545
829001
830102
834256
837854
839482
841873
842187
844285
844480
844738
848001
846432
851697
852298
858335
859201
862973
863548
864253
874557
874547
874125
873193
872095
871521
867620
867244
858480
857596
848488
844782
840017
837349
836496
835834
837156
837726
837692
836957
836127
834692
832638
832227
831925
832074
832939
833400
833934
834471
862907
863076
863384
863450
863611
862693
862917
862702
862192
861538
861659
861003
861222
861443
853723
853483
853680
853478
853744
853272
854181
853685
854879
855054
856028
856525
857312
857556
857347
856525
855182
853420
852130
850950
850899
850179
851057
852506
854500
856597
857899
859212
860165
860831
839921
839542
839414
840487
840380
841790
841719
843357
843757
845825
846553
848809
849647
850623
850633
849920
848352
847035
845100
845663
843501
848937
849030
857739
859786
866066
869715
873199
874826
876420
867243
866447
865691
864180
862171
861358
858141
854438
855592
854771
854306
855626
855452
855904
855936
854676
851890
847914
842061
839188
830123
829876
830554
837078
840060
848872
857041
863072
866759
870474
843708
843245
843579
843675
843425
843533
842674
840441
835440
832065
819968
819180
803160
806647
798004
802125
796532
814698
809381
828417
827778
842335
842653
849247
851206
852574
852315
852920
853187
853442
860307
861159
862087
862245
862466
863108
863933
863377
866746
867095
868568
870636
871484
870039
867691
862054
855082
845183
832933
829091
823348
809039
813996
813294
811955
813747
813614
813895
812298
816145
863361
862336
862126
862521
863383
865076
866811
871777
875159
877594
879455
878706
876539
875444
873764
868719
870500
867043
872892
875350
888546
896838
905121
913152
918130
919988
921108
920688
920933
919908
859088
858112
859697
859234
860174
860306
858573
853778
850527
844988
839488
836918
832294
838091
837817
844877
847320
857653
862577
868320
870855
873165
872403
874574
872598
875985
874838
878144
875410
878420
941118
942972
940368
936419
931480
921397
910065
904527
900706
892583
896199
894643
898454
901321
903947
902171
899402
895522
888154
882550
872398
873494
863428
863785
854735
857018
848898
850480
847366
848473
887707
888187
885451
880372
874494
866841
856553
846993
841210
843033
832712
837191
834808
848785
848584
858460
865393
870156
875499
878346
880728
884836
888123
890177
894295
898573
899313
901008
902811
902820
834903
836523
834847
828115
820685
816957
813232
808115
807732
811532
819334
824604
827709
830488
831600
830625
828123
827702
826964
824588
824408
823789
823325
822756
822448
821457
820600
820370
819596
820319
815310
814825
815120
815227
814541
814488
813301
811933
812671
820251
818190
825092
827160
834478
834427
839193
839179
842215
841598
844668
842604
846813
844945
850887
851132
857299
858054
862047
862986
864066
874160
874557
873497
872889
871224
869942
865548
864046
856426
854765
843419
842886
834427
835282
831031
832734
833617
835250
836099
836216
835171
833247
832596
832475
831933
832070
832223
832838
833317
833678
859568
859815
859986
860569
859862
860145
860661
861368
859916
861603
861043
861580
861106
861615
853598
853665
853616
853650
853515
853649
853525
854022
853889
854497
855278
855812
855922
856009
855525
854284
852507
850307
848061
846442
846240
845655
846882
847637
850683
853523
855590
856287
857110
858733
839519
839046
839393
839354
840698
840347
842254
841592
844497
844133
846486
846846
848779
848806
848392
846840
845413
842152
840687
839005
843173
842824
845492
853554
856866
862911
867146
871614
873586
875367
866580
865770
864562
862792
861492
859701
855403
854308
854988
852726
853786
853987
855001
854422
853612
852275
848828
844896
838562
830958
827911
825808
823511
829994
833261
843964
852519
859547
864473
869141
843939
843297
843112
843344
842764
842066
839873
837235
832086
826412
814994
809414
802910
793885
794188
789128
797425
802172
809725
820158
827796
836274
843826
849318
851150
854730
857533
856147
857324
858258
862317
861378
861431
862298
862176
862582
862910
863797
863825
866458
866966
867618
868413
868134
864695
859109
852815
840943
831272
829571
814606
807583
812322
806397
809342
810210
812820
813554
816265
814052
861316
861997
860915
860119
860697
865565
865730
869020
872616
875526
875044
874340
874657
872064
865070
860600
859042
866783
865993
872773
877513
891710
899463
908047
915310
918858
919834
920461
920434
919663
857643
858577
858287
859736
858680
857993
854576
849643
845803
836600
831314
826572
829680
824477
831055
838138
840895
852567
854163
867129
869823
871231
875072
873667
876020
874248
878620
874786
879443
875975
937835
938223
932779
928256
918995
907016
900468
896622
887243
884808
877576
883205
888117
893767
896884
898657
896852
891972
884077
884639
869481
872921
860971
856596
857349
848129
851262
844889
846182
845847
882956
881270
877441
872891
865663
855178
845830
838909
830480
816806
822922
816743
829333
828661
843425
844840
855147
864504
869023
874830
878413
878778
883911
888657
889565
893408
897882
898452
899726
903081
834186
834692
828634
819467
813672
806847
796352
794746
794526
796696
803528
814910
822368
825142
827115
826816
826993
826603
823782
823684
823358
822430
821306
820825
820672
820238
819962
819053
819427
819293
814940
815336
815148
814472
813077
811146
811569
810732
809041
811533
819294
820174
825184
829508
834051
834924
838532
838862
841505
840834
843009
843776
844215
849142
849787
855899
857021
861334
862661
864146
874523
874028
873175
871717
869773
867253
864668
859784
853479
850461
839820
836824
833848
829950
830805
829897
831187
831998
833838
834526
833296
832837
832641
831500
831139
831747
831994
832439
833015
833233
859996
860320
860657
860201
860681
860804
859752
858101
860030
857940
858430
858136
858369
858449
854058
853692
853808
853586
853540
853236
853325
853009
853696
853770
854328
854848
854762
854182
853247
851782
849953
847935
846093
843275
841526
842055
844355
847175
847011
849220
852682
855321
855155
854594
839496
839056
839316
839654
839641
840309
841711
841742
843094
845022
844957
846782
846666
847462
846631
844901
842225
839659
837915
839247
837104
842425
841314
848660
853091
859955
864471
868862
871479
873586
865916
864527
863502
861996
860720
857972
853774
854988
852893
852660
852582
853020
853606
853980
851675
850196
846530
841975
833156
825235
820602
815107
817585
823253
826399
839509
846545
855209
861150
865793
843729
843237
843260
842409
840934
840076
836833
834993
824315
821371
806937
804168
790105
788603
782206
790323
784493
802088
796487
821305
818365
836487
841764
847249
852569
857508
856428
859063
860629
859161
861293
862779
862806
862298
862669
862284
862481
862847
863538
863033
865700
865787
865634
864628
860961
856423
850336
835778
830935
825634
811227
806514
805999
806458
807778
810159
811217
815920
814964
820164
861816
859193
859197
860435
859006
863149
865770
867386
869648
871816
872951
873214
868280
859933
857774
859792
857974
852922
856679
873096
868008
886052
893615
904144
910834
916647
918001
918816
919175
918399
862672
860872
862302
859012
859342
854423
853564
842367
839091
828301
826607
824497
819181
826369
821384
829187
831494
848041
849865
863623
865098
874374
874215
877265
878148
881774
879106
884704
882026
886710
929424
931116
928263
918990
905344
898197
894968
877809
872423
866920
880850
882952
883012
885195
888185
890845
891997
887662
885885
878190
870358
871648
856847
856154
853325
845589
845152
845048
844565
842945
876804
874223
871164
864983
853501
842799
832948
822298
812282
811441
804979
816164
810953
825172
827671
842639
844918
852782
864380
867280
873290
879717
878726
884070
888108
886210
888290
892269
892362
893790
832850
830760
820591
811815
804141
786341
778970
775692
784253
788628
790410
797967
811083
820114
823181
825564
826232
823236
823049
822486
820926
820815
821344
820581
819654
819271
819065
819313
818871
819625
816106
815189
814925
813455
811882
810120
807477
808717
808540
808355
810020
820338
818835
827484
828986
834249
834376
837420
837886
841161
839169
844466
841464
848803
848739
855122
856392
860689
862786
864331
873603
873755
872309
871104
867359
866744
860738
854819
855252
839626
837426
832277
823284
822639
819686
822925
825734
829280
830663
831195
832407
832753
831211
830850
831078
831237
831244
832089
832238
833149
853247
853149
852958
853381
853978
854261
854845
858200
857468
858698
858623
859272
859046
859465
853725
853849
853711
853740
853383
853360
853113
853232
853022
853241
852941
852953
852815
851941
850787
849221
846527
842322
839365
837146
837942
837573
838013
838830
843494
844695
846165
849045
851145
853334
839060
839868
839443
839398
840453
840012
842110
841508
843845
844084
845454
845547
846522
845928
844345
841733
840860
834460
834289
830830
833116
835914
840856
845349
848630
857243
861446
865562
868561
870913
864959
863908
862860
861517
860014
857248
853506
855026
852906
851822
852896
854697
854032
853821
850673
849141
845219
839092
826934
823942
816850
813752
811622
821119
819428
835236
841169
850773
856936
862040
843747
843330
842156
842421
839990
838690
834299
832678
817164
817852
798465
796731
784594
784582
783877
777757
785305
791469
796267
812821
818381
832413
839648
847808
854908
856328
860549
861581
860061
861518
863990
862064
862491
862813
862343
862617
861786
861962
862479
863017
862178
864696
864152
861381
858155
853981
846361
835365
823910
824195
810639
801132
804797
801970
804031
806149
813972
813927
819272
817591
856634
857640
857841
858325
858732
859767
863231
866982
867623
869305
871558
866615
860866
860704
859579
852097
849759
852860
849782
860144
866304
881199
887100
901757
907269
913086
917526
917069
916605
915444
864153
863827
861833
862160
857695
855198
848098
839333
833918
822900
822148
810898
813681
809622
817884
828290
822917
846160
845698
856797
869018
872454
877292
879593
881477
880788
886226
883164
888574
886485
926186
921934
916066
906030
896564
893199
871446
867449
864905
870922
862258
864349
873396
880249
885907
889879
886994
888048
882409
875499
875002
862881
864576
847840
853250
840040
843629
838654
838245
838372
860901
860746
856503
848936
841179
832353
821888
811496
807516
806532
797955
786446
797861
801743
811280
824038
842073
846231
855264
866593
868618
872773
880755
878251
882375
887921
887180
889628
894051
893881
828467
823326
814261
802784
793121
782109
783163
782391
777616
783670
793467
795312
800507
811114
815696
818362
819021
820439
821201
818270
817794
816614
816339
817358
818728
818268
818464
818715
819106
818950
816032
815856
813963
812909
810927
806777
804353
801288
804368
807002
807143
812542
817643
822852
827271
830444
833998
835293
836884
839238
838816
843148
841051
848204
847399
855316
855983
860175
862638
864727
874161
872849
871888
868860
866902
864468
857437
852312
850815
832866
838353
820147
823782
819870
821799
820712
822993
825501
828843
830555
832095
831255
830711
831004
830642
831299
831396
832152
831851
832335
855318
855433
855584
855749
855201
855239
856475
854245
853844
853386
854299
853810
853946
854202
854303
853654
853756
853376
853101
852453
851978
851561
851514
851968
852446
852278
851960
851283
849456
846446
843820
841152
839879
837583
836019
835096
835608
837208
838009
843007
845095
846720
848115
850028
840884
839967
840127
840460
839697
841624
841195
843242
843312
844775
845501
846963
846995
845362
843899
840669
838839
833066
833840
832897
830563
832663
837849
842805
846271
853497
858766
862552
864996
867731
864934
864327
862480
861141
860746
856567
855150
855812
852577
852563
854376
852452
852903
853077
852638
847898
844214
838917
822611
824286
812228
807025
804377
818614
815324
830193
838034
847020
852664
858449
843559
843034
842289
841164
839641
836320
834107
826860
813924
815197
789733
792807
776640
776896
770717
779489
773854
793815
787256
814695
814629
827040
838376
850570
852198
859317
861345
861921
863666
863931
864162
864700
863828
863257
863031
862292
862508
861477
861830
862087
862916
861497
861884
860015
855961
851160
845148
835161
818745
821300
812720
799830
807026
801461
802882
810080
810549
818507
818518
825213
857837
856326
857041
856556
859427
859042
861720
864179
867069
867871
863733
862189
863115
857590
849663
848623
847873
851448
850328
860806
857989
881674
880172
899216
904129
910920
911500
914635
913647
914016
867459
865227
865746
861532
860147
850612
849810
830536
834852
813264
818705
808488
807029
812019
808214
823992
819821
844268
839231
864646
865011
875225
879535
883194
884847
889385
886608
892487
889900
894503
924112
915487
909795
900739
888637
882764
866688
869505
863872
853015
852169
855594
862488
868830
876309
879432
885466
882761
881323
877707
873183
862364
863074
846795
848173
839855
838877
839183
838977
839114
862841
858318
851068
842893
831650
817541
808462
800714
791882
778250
785237
795997
787925
804166
808373
812863
828464
848356
847504
858344
870965
870320
874472
880430
875396
875465
879205
877525
879277
881210
825497
818817
809046
796243
792685
772833
770131
758741
761247
760696
774749
790581
794558
803690
813383
818790
819159
819953
818134
818977
817822
817689
817201
815613
815964
817867
818278
818567
819219
819093
815956
815926
815140
811216
809447
806178
803315
800954
797953
802015
805136
813372
810921
823357
821643
831011
830606
836142
835147
839464
838244
844213
840578
849399
847348
856170
856455
860536
863391
865443
873095
873148
870074
868627
865812
862633
856251
850936
844850
832196
831483
814764
820005
809918
810115
813779
818811
821163
825853
829683
830584
830507
831027
830950
830729
831159
830918
831584
832099
831527
845400
845520
846006
846263
847288
848683
848191
849441
852784
854607
854386
855652
855523
856036
853625
853843
853301
853399
852599
852556
851899
851957
851670
851286
851071
850471
849075
848249
846320
844042
841993
836807
833916
829566
828708
827594
830302
833566
835995
838474
842999
843121
842250
846654
840779
841478
841746
841261
842421
841458
843479
842794
844590
844840
845851
845725
846181
845931
843529
839799
838873
832254
832749
829807
829881
834290
835311
841570
845561
851031
856323
860960
862938
865054
864732
863924
862450
862214
860135
859005
857189
854929
854679
857733
856103
858048
859137
855064
853492
851210
844592
836702
826559
819882
810130
808346
804048
817208
814491
828119
836434
846902
850415
855941
844005
843427
842759
840994
838703
836468
832577
820375
816558
808612
784836
793645
774021
776999
775757
774423
777362
785456
790509
810349
813211
826680
842043
846465
856108
859403
861868
863915
864802
863980
866757
865672
864851
863782
863391
862718
862032
862170
861723
861710
861715
861360
860915
859404
853743
849353
844269
835529
818710
822006
814259
802958
807383
806553
805281
808068
815416
818181
823372
825301
854976
855392
856902
855531
858375
858471
861851
862981
864960
865005
865284
864114
859668
855007
852682
850743
844902
848851
844080
861709
855380
878376
880924
891020
902168
907356
911903
910151
905281
905011
874283
873827
869289
866202
859861
851640
846745
830487
831852
813511
816437
807422
809731
812693
807326
820583
823227
841240
842876
862970
868141
877757
882776
886901
890346
888492
893568
890422
896873
893790
910002
913481
908743
893147
887801
880340
861494
862132
847668
849124
854260
857363
858712
868469
873645
880623
882472
882058
881806
874507
874654
860373
861701
844375
847841
833647
836885
831096
831828
829757
851982
844125
838054
833324
819877
810780
802108
790267
778457
783498
774964
772546
780216
787669
793210
819658
814626
838926
848422
854772
862763
872231
871110
873073
878688
877339
875913
881191
880952
882281
805431
817133
807067
798587
787239
772550
761173
764471
763233
764057
764727
784457
790339
800383
808625
811945
815955
815227
814658
812805
812333
811376
811734
812181
814613
814770
817887
817863
818300
818359
816344
815581
815401
813558
808369
804351
803608
799085
799349
799279
806011
806173
811470
822334
820410
829157
831330
836154
834682
840543
839579
842722
842634
849870
847804
856479
857232
860822
863466
865452
873671
872367
870320
868255
866196
861756
856092
849531
844232
827511
827082
816779
815950
810664
814488
812273
818743
819710
824628
827648
830130
830921
830685
830508
830453
830854
831165
831440
831635
832333
848994
849302
849443
849542
849890
849186
850372
850755
849808
848750
849483
849290
850546
850847
851198
848361
852810
851568
852470
852026
851837
850400
850295
849832
849796
849903
849666
849724
848946
847220
844985
843363
839155
834367
835260
831277
831639
830851
829624
831822
834778
836213
837481
842293
844438
844385
841977
838543
842735
841706
841568
842902
841927
843721
843254
845268
845432
847402
847966
849331
848744
847068
845511
841016
838114
834658
832063
829237
830245
835170
835604
841264
845010
850827
854754
858598
860261
862140
855608
862821
865870
864251
863796
862757
861218
860346
859583
858623
860671
857916
858158
859622
857787
858616
856632
852377
849336
840881
827630
823723
813739
809347
809470
820121
816735
828763
836142
842464
848679
853153
844629
842925
844730
843027
841913
838231
837798
835492
831123
819330
819461
804057
786023
793786
773661
777798
771028
778956
772445
791944
788646
810403
812746
833063
836535
850590
855314
860429
863502
866558
867619
867758
872439
870578
868617
867979
866207
864956
863576
863147
862201
862069
862188
862458
862278
862400
861581
859666
857366
849081
845255
839436
822482
819860
818771
804759
804980
802442
807122
812194
817804
824434
828655
835224
836568
834174
847179
850399
854396
853907
857540
857248
862469
862055
864873
865225
866178
865228
859373
857104
853453
852221
847541
851545
845213
862420
856740
874854
880626
893465
897110
905146
904782
905494
903757
903498
880909
875756
873378
870859
866071
861102
860030
848565
850156
829161
834632
812498
819389
804577
806292
809111
807366
829647
823508
841670
848091
866167
870092
881864
886854
891840
893039
897069
894856
901444
899373
908274
911608
925500
913914
912542
906848
896185
882712
879038
860844
859135
854969
855228
851919
858503
859323
869029
873900
878016
880622
882202
879294
875517
869640
863333
856266
848332
844436
837882
837609
834951
835268
835716
833258
842838
840195
840168
836467
820919
820830
799485
804124
782506
784931
777425
778302
778853
776082
792451
786952
815299
812677
833621
840432
857865
858004
864366
872401
870256
869897
870463
871670
870244
871648
871013
873091
883470
839054
833488
819177
800335
792286
772536
767934
763572
756322
769707
762481
781953
789250
796176
807461
811408
814759
815639
814629
814670
812932
813072
812822
812945
814099
813076
815934
817976
818639
818385
818468
816108
817453
816533
815008
813243
810328
805070
800950
801750
798812
802472
804010
803996
813345
820781
820282
830979
831652
834726
836708
841730
839181
845915
843942
850570
851226
856409
859405
863435
866664
869261
870559
871029
870950
869886
868640
867246
864739
861066
856370
849860
841338
828062
828622
814031
811561
809405
811070
812452
817111
820049
825180
827617
829699
830602
830516
830722
830395
830647
830694
831228
831477
831608
829300
830789
838666
838882
839212
840343
840630
841856
843160
846026
846644
849436
850328
851540
850918
852364
849515
849833
852452
851759
851133
851060
850468
850910
850230
849998
849289
848528
848159
847861
846962
845721
844373
841675
837338
834771
833801
828247
829215
827423
828177
832516
832489
835067
839176
838471
839524
844220
838364
840920
843129
842520
843353
842802
844359
844053
845744
845742
847707
847605
848874
848422
849245
848892
846201
842924
838986
836578
835931
835683
834146
837289
834972
844534
844985
851845
854848
859752
860184
864490
858129
863664
866752
865823
865026
864010
863263
862367
861682
862851
861009
861261
864084
863378
863794
864227
861531
857401
850466
846151
832344
827090
822912
820983
820878
821320
819129
833448
838346
844832
850263
854213
845601
844620
844062
841275
840645
836893
838543
834708
830499
823352
822035
801703
794655
791259
776046
777099
778903
775699
777811
794439
794329
810060
820241
831292
840776
852521
854945
861748
863837
865562
867430
867929
871891
870189
869233
868789
866257
866506
863649
864199
862782
862050
861648
861195
861508
862141
861893
861108
857870
851534
844883
841042
832364
817985
821974
814692
807485
811575
813087
817711
821183
825203
833019
833004
838684
838932
852024
849418
854932
854041
856398
858967
861841
862958
865145
866249
865736
864605
863573
860628
855233
849842
851596
852265
850228
860439
861098
877459
878949
892602
897201
900608
905100
901575
894655
891013
886479
874800
873430
868299
867625
861632
861899
850592
849520
834671
832464
819518
816704
812463
815365
814176
824610
829811
825732
853813
853080
866938
875446
886529
889665
893936
896043
897412
896660
901191
899543
907773
909969
919452
912142
911458
905467
898634
884523
875911
869988
855200
849785
851289
854963
858488
866962
872321
875682
882911
880676
880981
878161
871761
863810
863843
849004
852263
838507
841557
832925
835769
829440
829413
829989
832497
828552
828972
824320
826226
810078
805983
797884
786911
777202
781621
775822
781326
773882
795916
785383
815729
808349
837086
834167
850469
858627
858253
860572
868809
867649
871325
870764
873466
871416
874087
869548
879344
847205
839851
822344
809661
793301
781244
774171
761827
766669
767469
764372
784468
791833
797256
809467
810923
813299
813542
813851
810276
809685
807248
806783
806811
811942
812760
815161
816849
818245
818205
818175
815740
816387
817025
816796
813575
811426
808449
802665
800893
798965
804247
801143
806737
818031
815618
823444
831864
830825
837247
838116
840767
841940
846854
845517
850134
855401
856548
860035
863977
866033
867686
869644
870510
871238
870125
869103
868473
864753
860495
857892
851694
838843
835789
824772
821723
810023
810529
810522
811739
816242
821174
825482
827573
829957
830298
830484
830518
830526
830826
830889
831062
831043
831134
830250
830038
842908
842819
843505
843224
844225
844429
844685
843324
845226
844070
845334
845550
847886
848030
849204
849069
851597
851113
851252
850145
849725
848623
848589
848227
848371
848779
848369
847119
846305
845443
843389
840182
839144
834638
832278
828444
829326
827566
829932
829485
834613
833545
837848
839311
841215
839292
839576
840296
843090
843781
843270
844856
844518
846065
846420
848243
848727
850996
851199
852327
851325
850128
848260
846040
841133
837600
834832
833524
834533
836319
840511
846404
847343
853608
858252
859199
862156
864401
860568
863224
866071
866207
865932
865533
865295
864474
865154
864030
863866
866734
866055
866391
867047
865766
864660
862425
856178
848792
840066
831366
821931
820537
816524
819622
827715
837668
841484
847417
850579
852314
844616
844261
842667
839104
838224
837910
837618
835705
831909
828512
821043
809596
798326
797268
786997
786416
777044
785648
780459
802497
793379
821707
819490
835200
847065
851057
858453
862223
864591
866206
868180
868266
871453
870043
869441
868649
867069
865191
865490
863496
863561
862985
862699
863401
864097
864427
864415
862932
860698
855846
847716
842367
840843
824885
821938
821888
819738
818143
821113
823917
826764
831505
832159
834343
836560
841020
851232
850324
855821
853574
858019
858669
862079
863559
866774
867938
867776
867159
865708
863883
861669
861858
856583
854276
856827
868440
863115
880690
881485
888724
894554
895293
893126
893041
892555
889576
881230
875826
872685
866903
866895
861755
862872
851824
853170
835799
840500
823106
826367
818900
817400
826022
821697
830281
844700
856107
856423
877305
879943
888147
892457
896230
895377
898722
897466
902382
902280
906727
908905
916437
911142
912052
906491
902741
890679
878029
876383
873563
862908
864506
867414
868147
871580
883203
879114
885302
885832
878609
873996
874407
858770
860720
847729
850529
838072
842838
831373
834782
827985
828990
826490
831109
831013
827755
828023
819044
813718
805003
801460
790728
778536
775193
778590
776274
781652
792746
792170
816735
811493
835434
837022
846153
850820
860141
858192
860870
865186
863274
864805
864952
866772
866158
869876
871370
855761
846022
834314
816309
806528
788113
779686
780736
769476
780815
776996
787495
795356
803628
810219
815026
817371
816824
813766
811404
810888
808408
809238
808098
809537
810435
815725
815979
817739
818359
818642
816418
817744
818386
817936
816128
813000
809669
807540
807722
806788
807524
803359
815017
813780
820159
827388
828060
833799
838546
838178
842869
843129
845977
849916
848816
856439
858871
860013
863897
866333
867419
869300
870408
870808
869915