/*--------------------------------*- C++ -*----------------------------------*\
| =========                 |                                                 |
| \\      /  F ield         | OpenFOAM: The Open Source CFD Toolbox           |
|  \\    /   O peration     | Version:  2.1.1                                 |
|   \\  /    A nd           | Web:      www.OpenFOAM.org                      |
|    \\/     M anipulation  |                                                 |
\*---------------------------------------------------------------------------*/
FoamFile
{
    version     2.0;
    format      ascii;
    class       volScalarField;
    location    "0.006900000";
    object      sL;
}
// * * * * * * * * * * * * * * * * * * * * * * * * * * * * * * * * * * * * * //

dimensions      [0 1 -1 0 0 0 0];

internalField   nonuniform List<scalar> 
12384
(
8.3731
8.06699
7.90623
7.78208
7.70302
7.66577
7.72329
7.85665
8.09261
8.3614
8.61647
8.80482
8.97449
9.94459
2.89292
3.41607
3.63189
3.6607
3.64083
3.61006
3.58082
3.5211
3.46937
3.41057
3.40521
3.44421
3.50327
3.54766
3.56073
3.55366
3.52443
3.4872
3.44502
3.41456
3.40398
3.39121
3.39227
3.39718
3.40406
3.42152
3.44894
3.59872
3.36033
2.61565
3.18923
3.03919
2.86209
2.85341
2.85755
2.89754
2.90226
2.95499
2.95627
3.01178
3.02678
3.06317
3.09048
3.12639
3.15288
3.17264
3.17835
3.17835
3.17764
3.19094
3.14572
3.2421
3.17884
3.24623
3.26105
3.27364
3.26717
3.25695
3.41392
3.59999
2.94135
3.07393
3.10852
3.10055
3.11267
3.11852
3.08532
3.1089
3.05483
3.07875
3.0663
3.07892
3.08328
3.08281
3.07261
3.053
3.02027
2.96473
2.92152
2.84468
2.82618
2.74894
2.77511
2.81689
2.92973
3.01541
3.08602
3.16917
2.99199
2.86112
3.41769
3.40585
3.3683
3.29699
3.26337
3.23532
3.22253
3.20115
3.16067
3.09901
3.02395
2.96577
2.89316
2.83246
2.80713
2.84127
2.77185
2.96161
2.95335
3.16109
3.21472
3.38374
3.09607
2.76853
2.77068
2.82814
2.84322
2.85743
2.86192
2.80215
3.11423
3.10019
3.07811
3.03572
3.07439
3.12308
3.19197
3.19435
3.2297
3.23525
3.25111
3.26686
3.28616
3.29002
3.27213
3.2287
3.16147
3.12034
3.05133
2.94291
2.86869
2.90072
2.79901
2.84524
2.86458
2.89278
2.81677
2.76543
2.80505
2.84322
1.69807
1.69091
1.89195
2.07649
2.20293
2.26561
2.26143
2.26645
2.26228
2.27425
2.27886
2.27399
2.26427
2.23938
2.2089
2.2008
2.22227
2.20077
2.23964
2.33266
2.43043
2.54879
2.67561
2.70111
2.17911
1.80074
1.79197
1.79262
1.80621
1.79219
2.32135
2.75972
2.99597
3.11451
3.168
3.20394
3.21019
3.19818
3.16363
3.12348
3.04705
3.07065
3.00589
3.05494
3.02307
3.13563
3.22275
3.31439
3.3949
3.46105
3.32318
3.06781
3.04732
3.07999
3.09529
3.1336
3.14743
3.18122
3.17989
3.17949
3.76319
3.8759
3.92068
3.92064
3.8637
3.77669
3.70295
3.56642
3.51375
3.41603
3.4059
3.4202
3.46662
3.49762
3.533
3.54595
3.53986
3.32535
3.21344
3.15014
3.19277
3.09344
3.1148
3.12848
3.0503
3.09595
2.97129
2.90083
2.73726
2.74083
2.8045
2.94914
3.05393
3.091
3.06738
2.97893
2.87288
2.78644
2.70541
2.61424
2.57726
2.63179
2.59189
2.73762
2.75824
2.83201
2.77806
2.77226
2.78947
2.86123
2.8452
2.91714
2.94099
3.00948
3.02192
3.07837
3.11802
3.14422
3.1468
3.12986
1.79167
1.90736
1.98997
1.99636
1.97168
1.88855
1.82751
1.82637
1.86178
1.88183
1.96464
2.05781
2.13274
2.12293
2.04457
2.00143
1.99363
2.00857
1.99584
1.95361
1.89616
1.83517
1.79824
1.77267
1.76504
1.76791
1.79598
1.85287
1.87393
1.84898
1.45071
1.43049
1.42116
1.4529
1.58088
1.62052
1.61684
1.62757
1.58295
1.63891
1.59675
1.64819
1.62983
1.67102
1.65925
1.67113
1.67127
1.67744
1.67356
1.68905
1.67758
1.72637
1.70324
1.77725
1.747
1.78607
1.72689
1.59922
1.48063
1.47574
1.9012
1.92079
1.94857
1.91674
1.83375
1.63704
1.37621
2.70061
3.1315
3.10148
3.04204
3.07418
2.98659
3.01356
2.95881
2.96392
2.94351
2.92435
2.89815
2.86181
2.81611
2.76127
2.68195
2.50863
2.32474
2.17727
2.16319
2.26957
2.64298
2.74173
7.18419
7.06874
6.71821
6.36604
6.17771
6.17022
6.24173
6.35898
6.61103
7.09867
7.79675
8.54728
8.95157
9.86628
2.93224
3.54353
3.68821
3.65081
3.57998
3.51367
3.4068
3.30775
3.2833
3.41865
3.77077
4.13237
4.27848
4.23684
4.11021
3.9717
3.85794
3.79204
3.73816
3.70167
3.66866
3.61148
3.55107
3.50925
3.48804
3.46391
3.46756
3.52985
3.51722
2.98206
3.19274
3.01655
2.88151
2.87846
2.91592
2.9454
2.97555
2.99851
3.01573
3.0416
3.06656
3.09786
3.14868
3.20394
3.24962
3.27308
3.27662
3.28524
3.27662
3.26886
3.29005
3.291
3.32013
3.36063
3.35637
3.35415
3.31864
3.28657
3.34297
3.49493
2.98621
3.09656
3.11843
3.12884
3.13442
3.14102
3.13437
3.08795
3.06842
3.05545
3.05561
3.06101
3.08399
3.09203
3.07409
3.03225
2.96661
2.88609
2.79043
2.73801
2.64367
2.63616
2.63097
2.68587
2.76418
2.86884
2.97747
3.11294
3.10019
2.9938
3.39221
3.39264
3.31278
3.21307
3.16683
3.15808
3.14989
3.13964
3.11053
3.08252
3.00866
2.97947
2.85305
2.89436
2.80866
2.74264
2.79835
2.86111
2.90791
3.03166
3.09561
3.25836
3.28799
3.0385
2.83497
2.91781
3.00231
3.05682
3.08977
3.02943
3.1282
3.09273
3.04471
3.0533
3.12612
3.1762
3.17336
3.13721
3.1181
3.12488
3.17312
3.20379
3.22836
3.24033
3.23162
3.21743
3.19271
3.15784
3.08596
3.02674
3.06658
2.95925
2.94015
2.90876
2.90778
2.88882
2.85532
2.78773
2.781
2.81406
1.71587
1.80425
2.1393
2.35678
2.38381
2.28096
2.23519
2.18333
2.14636
2.12987
2.13166
2.13306
2.12245
2.09702
2.09118
2.10215
2.07566
2.10216
2.15486
2.19952
2.28487
2.40025
2.54501
2.66994
2.48094
2.01665
1.83014
1.84752
1.92468
1.9193
2.463
3.04674
3.19083
3.24315
3.27973
3.2861
3.26843
3.22332
3.16684
3.09418
3.07826
3.00248
3.02783
3.00487
3.07083
3.10215
3.14201
3.22896
3.29744
3.40585
3.43949
3.24881
3.05472
3.03249
3.08218
3.11051
3.17991
3.21805
3.26665
3.30006
3.78797
3.86376
3.87044
3.81509
3.71322
3.61215
3.4935
3.36098
3.31195
3.26238
3.23021
3.28769
3.32506
3.38157
3.42765
3.50214
3.5143
3.41347
3.24929
3.18556
3.14617
3.18452
3.0675
3.16206
3.13504
3.23865
3.2548
3.20376
2.93621
2.72426
2.7173
2.82676
2.87252
2.83506
2.73338
2.61401
2.49042
2.34842
2.26442
2.20714
2.22329
2.17866
2.2968
2.33844
2.48249
2.58053
2.6476
2.71442
2.75142
2.85512
2.84291
2.90531
2.86525
2.93194
2.96477
2.99547
3.05219
3.13406
3.23057
3.19912
1.83644
1.99767
1.99112
1.92614
1.8079
1.70519
1.67006
1.63425
1.65675
1.74295
1.83087
1.94141
2.0725
2.15875
2.10341
2.02165
2.00317
1.98896
1.93976
1.8357
1.72886
1.64897
1.59263
1.56369
1.55321
1.57287
1.6131
1.71142
1.83855
1.85313
1.46419
1.43557
1.44145
1.46958
1.65231
1.67817
1.68596
1.70138
1.6994
1.69991
1.67472
1.684
1.6231
1.58204
1.54365
1.5024
1.47953
1.46593
1.47216
1.47782
1.492
1.52934
1.54458
1.61063
1.67405
1.74062
1.73547
1.6635
1.5287
1.48634
1.86062
1.82147
1.9084
2.10975
2.00599
1.56855
2.05841
3.0701
3.22916
3.26836
3.30814
3.30872
3.3004
3.26664
3.23132
3.18808
3.14405
3.08154
3.01116
2.94962
2.91293
2.89528
2.86541
2.70278
2.36018
2.1381
2.17554
2.3737
2.74162
2.7576
6.82776
6.37064
5.72384
5.58105
5.72154
6.01591
6.25604
6.31121
6.21472
6.24137
6.70166
7.75569
8.75892
9.80049
2.97848
3.64114
3.69928
3.5761
3.46368
3.33859
3.23991
3.20158
3.52448
4.25871
5.04795
5.33162
5.14913
4.69424
4.26222
4.02508
3.93181
3.94006
3.99228
4.03068
4.04715
4.01493
3.9375
3.82141
3.68022
3.5634
3.48028
3.49723
3.56534
3.20007
3.18908
3.02376
2.89647
2.92207
2.96022
3.00482
3.01319
3.03544
3.02126
3.03134
3.03268
3.08334
3.15513
3.23354
3.28648
3.31926
3.31733
3.30405
3.28346
3.28887
3.2781
3.32317
3.34089
3.4078
3.39137
3.40946
3.38188
3.3268
3.31034
3.41263
3.00006
3.09954
3.12799
3.14362
3.14119
3.12336
3.06515
2.97993
2.96132
2.93509
2.92448
2.95021
2.98004
3.02627
3.04473
2.9818
2.88732
2.79207
2.69335
2.64337
2.54229
2.52969
2.53458
2.59489
2.64159
2.75121
2.8731
3.01087
3.10113
3.06607
3.31192
3.34789
3.24047
3.15563
3.13832
3.14856
3.1605
3.16795
3.15464
3.1633
3.08013
3.11719
2.98785
3.04448
2.96908
2.97654
2.8764
2.99118
2.90163
3.02478
3.01043
3.16839
3.24905
3.24135
3.00187
2.89129
2.96812
3.04591
3.1228
3.16578
3.11124
3.06932
3.02715
3.06382
3.14167
3.14842
3.08593
3.05246
3.12982
3.19974
3.26637
3.28835
3.26376
3.23277
3.2306
3.23886
3.26364
3.27825
3.25613
3.31084
3.3283
3.18302
3.21065
3.13688
3.02615
2.95312
2.87981
2.81554
2.76702
2.85518
1.73802
1.93551
2.33679
2.475
2.38577
2.3213
2.28807
2.21262
2.14918
2.11078
2.10162
2.09273
2.09459
2.1309
2.18267
2.19884
2.25415
2.24633
2.27425
2.26574
2.34334
2.38249
2.46063
2.58367
2.61286
2.32461
1.95372
1.84429
1.9574
2.02921
2.80728
3.20971
3.25941
3.31208
3.33766
3.30352
3.23934
3.16663
3.12314
3.08731
3.04771
3.03379
3.00893
3.06165
3.0706
3.12541
3.13655
3.20528
3.23003
3.30581
3.38349
3.3757
3.1366
3.04174
3.00738
3.11356
3.20165
3.30334
3.32573
3.40237
3.82379
3.84841
3.76292
3.65622
3.54866
3.41272
3.28683
3.22553
3.18364
3.10832
3.12961
3.1218
3.16977
3.23993
3.30668
3.36262
3.43286
3.44283
3.26814
3.18749
3.08161
3.10759
3.02488
3.1265
3.06296
3.17222
3.19536
3.3879
3.21529
2.81737
2.73273
2.78172
2.69564
2.56212
2.42803
2.29054
2.14601
2.02133
1.95755
1.97726
1.8771
1.91887
1.93126
2.0862
2.16074
2.30471
2.43488
2.53896
2.65103
2.75739
2.83635
2.86483
2.86809
2.88344
2.93973
3.01653
3.04766
3.07898
3.1875
3.24953
2.02501
2.00333
1.89475
1.75146
1.62156
1.56316
1.51698
1.4794
1.48314
1.54333
1.65533
1.77065
1.91006
2.05235
2.10934
2.0507
1.99523
1.98961
1.93552
1.80547
1.70089
1.60855
1.53716
1.49374
1.4898
1.51778
1.57696
1.64487
1.81313
1.8512
1.46214
1.44415
1.45537
1.59833
1.72925
1.79346
1.85583
1.90478
1.95369
2.00595
1.9274
1.87919
1.77256
1.67498
1.54057
1.4669
1.43794
1.43014
1.42669
1.43959
1.44456
1.47643
1.4735
1.51135
1.56658
1.66017
1.70194
1.6835
1.5636
1.49177
1.81457
1.67262
1.65275
1.95153
1.87231
1.74793
2.62608
3.2922
3.36959
3.48201
3.49084
3.52971
3.47488
3.47115
3.40719
3.35857
3.27999
3.18508
3.0697
2.95836
2.88488
2.8609
2.87064
2.76684
2.33362
2.15292
2.30462
2.61424
2.88527
2.72917
6.22382
5.4496
5.29411
5.76012
6.5471
7.28939
7.75176
7.87417
7.46817
6.76615
6.43484
7.00585
8.34517
9.73503
3.01103
3.68607
3.66933
3.4831
3.33736
3.2222
3.17107
3.41344
4.224
5.31516
5.83707
5.654
5.05343
4.36634
3.97057
3.87213
3.98494
4.1688
4.35016
4.48755
4.54677
4.50576
4.39887
4.20971
4.0006
3.76902
3.56757
3.47228
3.5241
3.29773
3.1971
3.06501
2.9515
2.96811
3.01999
3.03605
3.07437
3.05992
3.04864
3.00122
3.0012
3.04152
3.16002
3.24535
3.29654
3.28966
3.26237
3.22685
3.21673
3.21604
3.26993
3.27536
3.32424
3.38863
3.42147
3.42901
3.41807
3.36891
3.31455
3.37805
3.00335
3.10486
3.1334
3.14137
3.12228
3.06014
2.96581
2.9087
2.90143
2.86464
2.86269
2.85985
2.88821
2.94351
3.0072
2.93915
2.8191
2.72221
2.63215
2.53836
2.52541
2.50037
2.48314
2.53947
2.5686
2.66947
2.78115
2.91592
3.05159
3.08329
3.23804
3.32193
3.16505
3.12775
3.13685
3.15997
3.17493
3.19269
3.1904
3.22041
3.20165
3.2198
3.20909
3.14785
3.14374
3.06405
3.08739
3.07272
3.05201
3.06168
3.04621
3.0969
3.21702
3.30388
3.14809
2.95402
2.95104
2.99975
3.09537
3.18572
3.13046
3.05635
3.00565
3.06605
3.13042
3.1014
3.054
3.10912
3.27502
3.46986
3.52473
3.44442
3.30172
3.2151
3.206
3.25671
3.36554
3.44633
3.52648
3.68728
3.62618
3.56506
3.59257
3.39829
3.24671
3.06507
2.95121
2.85369
2.81538
2.81048
1.75343
2.06202
2.45585
2.53853
2.47834
2.57183
2.47764
2.33548
2.21495
2.1275
2.07173
2.0586
2.11606
2.20635
2.29567
2.38369
2.47564
2.58305
2.56981
2.54875
2.4839
2.49483
2.46559
2.53045
2.61249
2.50673
2.17296
1.8836
1.92083
2.07202
3.11601
3.26243
3.33988
3.44204
3.36827
3.26563
3.17071
3.12372
3.11611
3.07073
3.05594
3.0384
3.08167
3.0407
3.10447
3.15629
3.17076
3.21898
3.18384
3.27225
3.32802
3.38901
3.29171
3.07021
3.01725
3.05677
3.2119
3.25952
3.38471
3.40797
3.83385
3.77409
3.61863
3.48822
3.37189
3.23771
3.15822
3.12772
3.04337
3.00943
2.92779
2.97921
3.03677
3.10292
3.17402
3.2547
3.32951
3.37919
3.26378
3.22641
3.02931
3.09661
3.031
3.07506
3.07371
2.99352
3.09965
3.2524
3.37444
2.92616
2.78503
2.65559
2.49797
2.35534
2.2062
2.06647
1.95166
1.86947
1.7905
1.67107
1.72562
1.67144
1.77534
1.81062
1.96189
2.02693
2.20178
2.36955
2.49262
2.65477
2.7905
2.80125
2.85025
2.88599
2.92307
2.99745
3.09412
3.10836
3.14908
3.27413
2.00526
1.92741
1.75456
1.59841
1.50777
1.45277
1.36697
1.34627
1.3433
1.361
1.43777
1.60015
1.75531
1.91289
2.03482
2.04031
2.00061
1.99055
1.93224
1.83401
1.72318
1.61697
1.52032
1.48424
1.48776
1.4934
1.59535
1.69712
1.80341
1.85019
1.46173
1.45173
1.46604
1.71651
1.84726
1.9681
2.12739
2.2437
2.28695
2.31609
2.30346
2.16569
2.0156
1.83581
1.64902
1.48051
1.44048
1.43435
1.43571
1.45387
1.48178
1.47013
1.45972
1.47937
1.50341
1.58927
1.6564
1.66983
1.57822
1.49944
1.95085
1.66144
1.55442
1.68573
1.72075
2.08181
3.00967
3.41177
3.50819
3.63751
3.64305
3.66981
3.67704
3.63621
3.59892
3.52422
3.43091
3.30259
3.16422
3.0129
2.88424
2.84936
2.85515
2.77052
2.24514
2.16279
2.53406
2.84175
2.9116
2.56224
5.43876
5.13772
5.682
6.78823
7.70379
8.1839
8.44978
8.60141
8.52553
7.74692
6.71752
6.70367
7.91084
9.63543
3.01974
3.71262
3.64276
3.40071
3.25141
3.14926
3.21535
3.69736
4.89723
5.92233
5.87832
5.29636
4.62545
3.97702
3.78634
3.93773
4.24349
4.58616
4.8997
5.10846
5.19937
5.14632
4.96896
4.70021
4.35937
4.02563
3.71285
3.50631
3.50362
3.32418
3.20466
3.13758
3.03801
3.05743
3.07859
3.08019
3.09528
3.09314
3.05816
3.00952
2.95961
3.02384
3.1481
3.26359
3.27138
3.22265
3.19309
3.18383
3.1996
3.23448
3.2336
3.28099
3.29046
3.3555
3.40581
3.44126
3.42735
3.38831
3.30967
3.34739
2.99998
3.09915
3.13137
3.13325
3.09615
3.01515
2.92635
2.92647
2.92262
2.91821
2.89243
2.85299
2.83663
2.88691
2.96905
2.90144
2.76947
2.66938
2.57153
2.49843
2.49269
2.44086
2.46885
2.50855
2.53586
2.63417
2.70181
2.8357
2.9902
3.05285
3.20538
3.27717
3.10861
3.10123
3.12856
3.16274
3.17731
3.21881
3.22529
3.3198
3.3028
3.36583
3.30404
3.33061
3.2652
3.30532
3.16948
3.23424
3.09759
3.19338
3.0577
3.13026
3.17413
3.27575
3.27508
3.05225
2.91613
2.97221
3.04674
3.12056
3.12787
3.06764
3.00684
3.05455
3.12354
3.07646
3.05727
3.18645
3.48189
3.71102
3.79073
3.62181
3.32108
3.16363
3.17559
3.29685
3.49781
3.63562
3.84735
4.0253
3.9806
3.96647
3.9147
3.76092
3.51479
3.25626
3.03588
2.9361
2.80973
2.86623
1.78826
2.11731
2.53304
2.65374
2.70583
2.80812
2.73145
2.52235
2.30135
2.14578
2.048
2.05244
2.10936
2.23153
2.43503
2.66696
2.79248
2.82665
2.84936
2.91097
2.69763
2.65619
2.5369
2.52682
2.57803
2.57038
2.33233
1.96754
1.93344
2.09126
3.2947
3.34419
3.5498
3.52505
3.35273
3.18288
3.14529
3.09798
3.10815
3.08648
3.09739
3.11398
3.07415
3.14522
3.10022
3.13992
3.16851
3.25109
3.21222
3.2439
3.26602
3.40498
3.36279
3.20157
3.08476
3.16094
3.22668
3.34396
3.39594
3.52078
3.76522
3.68257
3.53883
3.37179
3.20822
3.12248
3.09747
2.93464
2.88378
2.82619
2.94306
2.96265
2.96791
3.00259
3.04647
3.12324
3.21959
3.27688
3.31875
3.17847
3.04766
3.11072
3.03761
3.03914
2.91936
2.82777
2.89599
3.12021
3.37757
3.00641
2.70165
2.51146
2.36233
2.20777
2.04872
1.91635
1.81022
1.71744
1.6289
1.61225
1.54824
1.637
1.5887
1.71007
1.77582
1.92919
2.00789
2.16286
2.36398
2.50183
2.68972
2.82015
2.80629
2.87339
2.92065
2.90387
2.97786
3.07392
3.08814
3.20013
2.00961
1.84299
1.62421
1.50104
1.41634
1.28517
1.24125
1.23801
1.28651
1.29021
1.30415
1.3841
1.57794
1.77479
1.92283
2.01761
2.00971
1.96498
1.93971
1.86407
1.74717
1.65292
1.56461
1.48333
1.48643
1.49234
1.56456
1.73083
1.82198
1.86952
1.46175
1.45734
1.55448
1.81718
1.99661
2.20153
2.40161
2.58096
2.64505
2.62182
2.56484
2.48395
2.24486
2.03041
1.76917
1.55152
1.44642
1.44096
1.44892
1.48696
1.47359
1.47621
1.41708
1.45061
1.46666
1.54543
1.61478
1.64416
1.57601
1.50594
2.13078
1.76656
1.51991
1.57092
1.7808
2.44007
3.22616
3.48765
3.68664
3.69383
3.76483
3.8109
3.73336
3.71768
3.64781
3.60097
3.51962
3.41088
3.24698
3.05654
2.90475
2.85431
2.84431
2.75892
2.26302
2.13726
2.64215
2.88863
2.83705
2.22341
5.02942
5.25102
6.46407
7.38733
7.47548
7.13949
7.29623
7.99598
8.54543
8.29845
7.1936
6.70892
7.70576
9.58217
2.97278
3.72466
3.64448
3.35998
3.20879
3.13675
3.23875
3.97338
5.36657
6.12859
5.52163
4.80312
4.32063
3.77746
3.77787
4.12786
4.54512
4.95633
5.34582
5.65796
5.84175
5.79364
5.51805
5.1038
4.69986
4.25247
3.81477
3.49538
3.47304
3.34109
3.20337
3.22118
3.13619
3.1702
3.19331
3.16194
3.14667
3.14627
3.15469
3.05851
2.9629
3.00246
3.16181
3.25833
3.20451
3.15014
3.17199
3.16122
3.20447
3.20048
3.23322
3.25397
3.30417
3.33031
3.37714
3.43482
3.42501
3.38597
3.29669
3.31344
2.99041
3.09401
3.12943
3.12716
3.08427
3.00901
2.94442
2.97953
2.99458
2.98776
2.96881
2.91162
2.84049
2.86151
2.95268
2.87706
2.73904
2.63499
2.52104
2.49981
2.4931
2.47167
2.46897
2.53151
2.51003
2.61494
2.65073
2.77077
2.92617
3.01
3.23753
3.20511
3.05498
3.09191
3.12564
3.16698
3.18476
3.26765
3.26838
3.41508
3.37625
3.48596
3.47619
3.55464
3.54191
3.41398
3.38514
3.30174
3.23536
3.23871
3.13241
3.13333
3.14608
3.27766
3.33652
3.11045
2.9542
2.9588
3.00517
3.10354
3.16005
3.07044
2.98903
3.03092
3.10252
3.07761
3.05584
3.21871
3.57297
3.85105
3.89542
3.76365
3.35739
3.10959
3.15674
3.34002
3.60359
3.85056
4.02509
4.2892
4.30381
4.23652
4.24398
4.01977
3.74171
3.3989
3.18342
2.96259
2.87234
2.82568
1.76836
2.17243
2.59856
2.76263
2.91352
3.01631
2.96199
2.76974
2.42212
2.16767
2.03635
1.99858
2.07141
2.33626
2.62171
2.80883
2.95792
3.06126
3.04489
3.04837
2.94264
2.79372
2.60954
2.5599
2.55197
2.56436
2.41966
2.04219
1.9481
2.09673
3.34168
3.51047
3.71398
3.55983
3.27842
3.16095
3.11371
3.12537
3.12185
3.10196
3.10469
2.97618
3.02221
2.96413
3.10335
3.15196
3.1396
3.28987
3.23096
3.21005
3.31629
3.37223
3.43308
3.33735
3.2251
3.24313
3.34258
3.30711
3.42867
3.53631
3.78375
3.58125
3.40464
3.23008
3.10555
3.06606
2.87647
2.83613
2.81817
2.88333
2.79924
2.80383
2.87058
2.94574
3.00519
3.06939
3.11613
3.23938
3.26207
3.17733
3.12222
3.06303
3.12744
2.83065
2.74896
2.65544
2.77074
2.95182
3.30687
3.03901
2.46767
2.34135
2.19824
2.0384
1.91203
1.80466
1.70776
1.62726
1.61729
1.63486
1.55902
1.43695
1.5107
1.50871
1.5971
1.73644
1.93295
2.02147
2.21356
2.42632
2.58826
2.72948
2.84619
2.82649
2.82705
2.84027
2.90564
3.02953
3.11504
3.19221
1.95117
1.73237
1.52653
1.41872
1.33244
1.30884
1.34958
1.36655
1.31271
1.3216
1.33312
1.33962
1.4303
1.62812
1.79918
1.91269
1.94168
1.94141
1.94088
1.85802
1.77062
1.6929
1.6112
1.5167
1.48409
1.48831
1.49569
1.64004
1.82407
1.86796
1.46282
1.45594
1.62085
1.90341
2.145
2.39304
2.63258
2.76899
2.87265
2.88689
2.78466
2.67352
2.47032
2.20107
1.90906
1.62957
1.44701
1.44489
1.45485
1.50608
1.48616
1.47068
1.40321
1.41136
1.43196
1.53165
1.58677
1.61909
1.55995
1.51193
2.35838
1.98281
1.64294
1.65793
1.99848
2.73213
3.34701
3.5728
3.76397
3.74744
3.93022
3.8294
3.88906
3.85997
3.81727
3.70488
3.59732
3.48077
3.33463
3.13009
2.93416
2.83822
2.83804
2.78926
2.29086
2.01986
2.51353
2.76793
2.50872
1.75806
5.03983
5.78527
7.05468
6.88862
5.8651
5.43158
5.88957
7.02962
8.14865
8.29763
7.3835
6.64641
7.54421
9.5612
2.90331
3.73237
3.68667
3.3458
3.18907
3.13486
3.26657
4.17029
5.68532
6.19342
5.21273
4.44616
4.16586
3.6758
3.84822
4.27655
4.73983
5.20643
5.66113
6.05484
6.26441
6.22677
5.9511
5.45998
4.91632
4.43939
3.92939
3.50131
3.44887
3.32238
3.21302
3.29226
3.25411
3.29354
3.34712
3.34415
3.29357
3.31788
3.29952
3.17958
2.97752
3.01433
3.18252
3.24566
3.16776
3.11849
3.16015
3.1855
3.24759
3.25965
3.23459
3.23539
3.28523
3.3129
3.36062
3.40853
3.41677
3.37169
3.27482
3.28075
2.97878
3.09354
3.12836
3.12408
3.10667
3.0253
2.99498
3.0243
3.02537
3.04319
3.0242
2.91513
2.84362
2.84089
2.97826
2.85381
2.71671
2.63337
2.49285
2.5165
2.49205
2.45526
2.45297
2.55492
2.50452
2.58526
2.62887
2.72369
2.87172
2.97234
3.28035
3.1191
3.03574
3.08577
3.13006
3.15657
3.21872
3.2842
3.32054
3.47178
3.41371
3.57755
3.59714
3.67937
3.63437
3.64447
3.45619
3.45627
3.26346
3.341
3.17801
3.1213
3.16311
3.2982
3.34206
3.19629
2.96262
2.94879
3.03214
3.13235
3.1767
3.12433
3.01003
2.99622
3.0713
3.07802
3.06177
3.18103
3.51064
3.81691
3.93486
3.7969
3.3733
3.08603
3.13644
3.3551
3.68779
3.99282
4.11254
4.41634
4.52552
4.43907
4.49444
4.24103
3.91028
3.59375
3.22132
3.05977
2.86575
2.90219
1.79412
2.19098
2.66178
2.8559
3.09385
3.16903
3.1402
2.95829
2.58118
2.20791
1.97507
1.94289
2.12204
2.38878
2.61438
2.87524
3.07804
3.22447
3.21543
3.20759
3.00978
2.91556
2.62926
2.57688
2.53667
2.54587
2.40088
2.07539
1.98236
2.21543
3.41471
3.70066
3.84159
3.4985
3.25426
3.11971
3.14723
3.08959
3.14487
3.03297
3.02542
2.96049
2.93406
2.97703
2.99753
3.11111
3.14469
3.28087
3.23303
3.32536
3.29233
3.38834
3.47218
3.44609
3.38807
3.42436
3.35234
3.38983
3.44142
3.62133
3.83193
3.50906
3.30828
3.16768
3.02811
2.97047
2.83159
2.86257
2.82636
2.71638
2.70079
2.72116
2.7771
2.83067
2.91903
2.96149
3.08067
3.15401
3.23999
3.21628
3.13886
3.11504
3.01352
2.63829
2.62547
2.64003
2.74852
2.99809
3.27844
3.13127
2.45486
2.30368
2.12402
1.96883
1.81542
1.68229
1.61099
1.59386
1.55873
1.45485
1.50215
1.57857
1.46407
1.55344
1.57377
1.59911
1.80629
2.00348
2.08441
2.30449
2.56611
2.66644
2.78258
2.83747
2.61742
2.64769
2.81262
2.92592
3.01529
3.10624
1.87893
1.66672
1.47002
1.36225
1.36335
1.31866
1.3124
1.25274
1.2507
1.19965
1.24899
1.30134
1.3414
1.51237
1.71567
1.8698
1.91998
1.93478
1.90862
1.88082
1.81745
1.77829
1.72762
1.62008
1.49948
1.48363
1.48758
1.49489
1.60682
1.76791
1.46426
1.45776
1.66942
1.95875
2.24297
2.54798
2.79608
2.9219
2.95511
2.99869
2.95521
2.84708
2.58336
2.35857
1.99696
1.72839
1.4812
1.44548
1.46119
1.53801
1.50246
1.50036
1.42785
1.44771
1.44243
1.54214
1.57396
1.59191
1.54779
1.52506
2.55171
2.27449
1.87232
1.91601
2.26977
2.94357
3.43237
3.64502
3.77518
3.84891
3.97018
3.87866
3.9887
3.86066
3.79874
3.7276
3.62864
3.50171
3.38967
3.21439
2.96103
2.80719
2.83107
2.80674
2.27204
1.83373
2.1509
2.31211
1.91833
1.30915
5.12415
6.1997
6.63098
5.36127
4.59454
4.76764
5.67294
7.16667
8.2185
8.20658
7.363
6.70347
7.62343
9.65126
2.81048
3.6077
3.778
3.41078
3.19659
3.16194
3.3114
4.29751
5.88545
6.17424
5.03017
4.21099
4.06731
3.6035
3.89116
4.34955
4.80309
5.23366
5.66683
6.09856
6.32771
6.29643
6.07325
5.5978
5.02802
4.49184
3.96865
3.4807
3.39233
3.31153
3.17895
3.31152
3.35461
3.3938
3.49307
3.5278
3.54157
3.5
3.47321
3.29943
3.00614
3.00166
3.19142
3.24396
3.13813
3.09623
3.17734
3.20979
3.25939
3.23293
3.2265
3.24462
3.25785
3.30343
3.35825
3.3904
3.39972
3.36157
3.25857
3.24749
2.95523
3.07353
3.12385
3.14155
3.1205
3.08842
3.06551
3.0567
3.07373
3.10738
3.03532
2.97525
2.91245
2.85813
2.98915
2.88338
2.72055
2.61252
2.54207
2.49601
2.48012
2.49977
2.47307
2.56246
2.51214
2.56817
2.6172
2.72024
2.84693
2.93611
3.30724
3.06359
3.05888
3.10292
3.11646
3.17523
3.22522
3.26077
3.39131
3.45386
3.42728
3.69284
3.6858
3.79579
3.8195
3.71503
3.57861
3.44577
3.34544
3.34023
3.18873
3.16231
3.20203
3.26176
3.39092
3.21713
2.96195
2.95863
3.04184
3.14663
3.21564
3.16292
3.04786
2.98278
3.03015
3.06264
3.06182
3.13331
3.35081
3.63943
3.85552
3.80209
3.39724
3.07749
3.09888
3.34628
3.70977
4.02948
4.15374
4.47394
4.65306
4.59802
4.61282
4.41101
4.03801
3.6314
3.32885
3.06475
2.91938
2.89522
1.79304
2.19526
2.71038
2.93448
3.16036
3.24437
3.22987
3.08887
2.73492
2.24145
1.99828
1.94791
2.08527
2.35433
2.64032
2.89885
3.04356
3.21271
3.16118
3.22884
3.00647
2.89974
2.64131
2.50777
2.52091
2.51168
2.38256
2.04025
2.0432
2.60742
3.54844
3.97095
3.87319
3.48403
3.23303
3.13668
3.14394
3.10032
3.13582
3.03087
3.01225
2.94482
2.97921
2.98441
2.97305
3.06352
3.20961
3.23589
3.30749
3.31118
3.34715
3.41297
3.49573
3.52759
3.50606
3.42583
3.39116
3.37359
3.54427
3.62512
3.69042
3.48365
3.29465
3.0854
3.01761
2.95482
2.79071
2.79182
2.66332
2.66183
2.72715
2.74961
2.7556
2.83404
2.89332
2.96393
3.03994
3.13375
3.23958
3.18951
3.21736
3.09037
2.83063
2.54325
2.57654
2.61048
2.85427
2.98839
3.13491
3.05749
2.37859
2.20765
2.03187
1.89425
1.71556
1.61725
1.5666
1.51425
1.45275
1.49536
1.43532
1.40661
1.43377
1.43685
1.48993
1.63864
1.6838
1.89725
2.07329
2.22381
2.47124
2.68189
2.78022
2.64232
2.57477
2.5985
2.69379
2.82619
2.89642
2.95664
1.71824
1.63551
1.45376
1.38768
1.34383
1.35497
1.25201
1.32297
1.29654
1.25503
1.2009
1.25075
1.30575
1.4436
1.62911
1.76804
1.87685
1.89026
1.88349
1.84352
1.81017
1.79225
1.78141
1.72757
1.63663
1.48851
1.48199
1.48499
1.49125
1.49948
1.46614
1.45813
1.67285
2.00465
2.28836
2.59208
2.87535
2.98183
3.04686
3.06203
3.05192
2.86433
2.67275
2.44927
2.06133
1.78642
1.55403
1.44543
1.46069
1.57905
1.54646
1.5146
1.48658
1.50001
1.4744
1.55565
1.5665
1.56831
1.53875
1.53886
2.71691
2.58278
2.13711
2.2408
2.52969
3.09195
3.48204
3.67178
3.81865
3.87333
3.96947
3.99071
4.02239
3.95223
3.93392
3.78561
3.68604
3.52971
3.42289
3.26836
3.00966
2.77337
2.80182
2.83384
2.30513
1.70808
1.71913
1.74903
1.35239
0.917973
5.41535
6.39045
5.831
4.61527
4.45395
5.37766
6.92555
8.20018
8.39423
7.871
6.94966
6.66321
7.98605
9.53986
7.3489
4.49928
2.85234
3.51004
3.8761
3.56373
3.28696
3.21144
3.42151
4.44589
5.94903
6.08114
4.92497
4.06665
4.01335
3.5809
3.8931
4.33897
4.72519
5.10491
5.53625
5.97219
6.26822
6.22927
5.94874
5.50359
4.98363
4.43603
3.86006
3.46293
3.40995
3.2753
2.92722
2.83685
3.15247
3.29722
3.39743
3.48153
3.54984
3.64498
3.67292
3.68621
3.63144
3.42821
3.03816
3.02178
3.22426
3.25082
3.13236
3.096
3.17181
3.24311
3.2555
3.22637
3.21305
3.25648
3.25868
3.30315
3.35616
3.38883
3.38018
3.34108
3.2281
3.2226
3.28409
3.1892
2.95765
3.04494
3.12124
3.14879
3.15118
3.13788
3.13264
3.13344
3.15807
3.09274
3.03341
2.9757
2.90234
2.90207
3.0369
2.89249
2.76202
2.65915
2.55524
2.53694
2.52131
2.51507
2.53584
2.59357
2.52247
2.56731
2.60484
2.69844
2.82721
2.91825
3.18092
3.21556
3.20026
3.04794
3.11851
3.08747
3.10333
3.17074
3.22822
3.26392
3.43357
3.40822
3.43618
3.67122
3.6545
3.76618
3.74075
3.7174
3.48079
3.49828
3.31895
3.32559
3.2132
3.22745
3.17466
3.31864
3.38577
3.21737
2.96768
2.9814
3.07034
3.17814
3.29899
3.31548
3.31099
3.23375
3.10991
3.00064
2.98836
3.02239
3.03714
3.07468
3.19233
3.40841
3.64706
3.75271
3.44042
3.08809
3.10653
3.31279
3.67366
4.02813
4.1455
4.39781
4.65986
4.58745
4.52077
4.31106
4.01871
3.66481
3.33899
3.12432
2.95569
2.9979
2.49631
1.88036
1.77615
2.17369
2.6935
2.96493
3.1843
3.24226
3.24974
3.11989
2.8658
2.32215
2.04591
1.94404
2.02883
2.3061
2.57115
2.80724
2.95132
3.11299
3.05904
3.11623
2.90077
2.7678
2.58666
2.5029
2.47026
2.46065
2.22803
2.08981
2.84513
3.88687
4.03209
3.99418
3.95817
4.13514
3.77249
3.40951
3.22526
3.10825
3.15761
3.08583
3.15939
3.02701
3.04824
2.91922
2.91655
2.95337
2.96845
3.19343
3.17351
3.25685
3.35234
3.34632
3.37897
3.45266
3.54552
3.58995
3.51399
3.42075
3.43169
3.55598
3.60914
3.69309
3.72463
3.90201
3.73078
3.48001
3.27032
3.11799
2.97742
2.9352
2.78693
2.76046
2.72941
2.73762
2.70338
2.76703
2.75458
2.84451
2.89716
2.9473
3.02521
3.1452
3.21507
3.23517
3.23596
3.10164
2.74828
2.54122
2.44694
2.50196
2.5999
2.60492
2.45249
2.27304
2.19913
2.34901
2.30499
2.21163
2.05239
1.79907
1.71795
1.52841
1.56315
1.44931
1.48996
1.45819
1.45968
1.44992
1.39649
1.4886
1.42744
1.61293
1.66488
1.83447
2.00473
2.24932
2.41558
2.66078
2.7499
2.53747
2.46158
2.438
2.43398
2.42557
2.44956
2.46744
2.50124
2.66841
1.99647
1.7479
1.55067
1.41382
1.38956
1.36871
1.29857
1.33645
1.25556
1.31407
1.19682
1.24515
1.29528
1.39157
1.59605
1.72076
1.83229
1.87487
1.87025
1.85946
1.8342
1.84606
1.85247
1.82795
1.76663
1.63492
1.48063
1.47998
1.48178
1.48959
1.49734
1.49346
1.46878
1.45751
1.63299
1.97873
2.2872
2.5879
2.82228
3.00851
3.04566
3.09675
3.02326
2.84464
2.70641
2.43883
2.08101
1.82959
1.6026
1.44746
1.4516
1.60583
1.59354
1.57722
1.51318
1.54471
1.54405
1.56118
1.56821
1.56315
1.58209
1.72832
2.12962
2.55131
2.90205
2.77459
2.39591
2.52125
2.7388
3.1716
3.50393
3.69392
3.79967
3.89359
4.0034
3.98412
3.96396
3.94638
3.90993
3.80639
3.68442
3.54572
3.43703
3.31255
3.06496
2.72244
2.74282
2.8384
2.35965
1.63661
1.42667
1.31454
1.04403
0.943557
3.07718
3.65089
5.56185
6.04843
4.96112
4.39432
5.13067
6.91172
8.35744
8.70753
8.10839
7.35478
6.71304
6.96548
8.51113
9.68366
8.09961
5.08421
3.083
3.39236
3.82894
3.75776
3.54171
3.44936
3.70353
4.66583
5.91697
5.94564
4.81537
3.9513
3.96559
3.56228
3.84491
4.24045
4.56052
4.88574
5.21116
5.5398
5.79701
5.7974
5.58676
5.25119
4.77725
4.28395
3.76361
3.40551
3.35163
3.25157
2.85558
2.7049
2.91135
3.11619
3.30919
3.44553
3.5842
3.67586
3.73533
3.73889
3.72406
3.4995
3.06535
2.98007
3.24661
3.27248
3.13294
3.09996
3.1666
3.23948
3.28506
3.28906
3.26128
3.2775
3.26101
3.34706
3.35512
3.39197
3.37296
3.33877
3.22064
3.24718
3.32876
3.21658
2.98068
3.01886
3.09538
3.13393
3.16698
3.16948
3.1749
3.18559
3.12822
3.07671
3.04455
3.00212
2.97045
2.95651
3.08496
2.95957
2.7833
2.71264
2.59828
2.55529
2.56622
2.57493
2.5766
2.54722
2.50356
2.59263
2.63175
2.73102
2.85549
3.00711
3.16427
3.14614
3.10179
3.07266
3.14998
3.08767
3.10784
3.16121
3.21366
3.29578
3.43223
3.33034
3.41712
3.51549
3.48664
3.57184
3.60447
3.51881
3.43918
3.47953
3.31742
3.31917
3.26502
3.20555
3.22698
3.34465
3.37736
3.19059
2.95099
2.96738
3.04472
3.14726
3.27263
3.30281
3.33041
3.33096
3.20815
3.08311
2.98427
2.98952
3.00307
3.02186
3.06367
3.19739
3.42246
3.63106
3.49885
3.11913
3.07227
3.2797
3.57926
3.90787
4.14838
4.21777
4.51559
4.57365
4.44082
4.29971
3.99196
3.65675
3.32721
3.09086
2.97573
2.98715
2.64622
2.07331
1.89206
2.09968
2.5645
2.927
3.16349
3.22345
3.1229
3.05997
2.95776
2.4358
2.09789
1.94533
2.00265
2.22679
2.45012
2.61331
2.77885
2.87495
2.85972
2.86818
2.72695
2.63682
2.48403
2.47527
2.43555
2.30783
2.12432
2.19659
3.12799
4.06895
4.32922
4.28987
4.32289
4.2402
3.90615
3.46186
3.25558
3.12297
3.14266
3.10304
3.11957
3.05757
3.02291
2.991
3.0219
3.01421
3.17369
3.16831
3.18072
3.38415
3.35555
3.34845
3.43447
3.50576
3.5723
3.57907
3.45995
3.45835
3.53973
3.62777
3.64556
3.77362
3.84038
3.93188
3.70828
3.47017
3.25923
3.14495
3.00454
2.89509
2.87762
2.7455
2.69253
2.70147
2.74762
2.75344
2.81834
2.88211
2.91475
3.00948
3.04832
3.15136
3.21458
3.23999
3.27894
3.23155
2.84492
2.6417
2.39576
2.36733
2.28777
2.30454
2.24567
2.25709
2.29854
2.33951
2.27399
2.19532
2.01572
1.87893
1.65239
1.56358
1.51355
1.44695
1.39658
1.45405
1.41377
1.44012
1.3816
1.49778
1.42987
1.62257
1.64897
1.87081
1.95223
2.20123
2.46505
2.65339
2.7376
2.71344
2.61242