/*--------------------------------*- C++ -*----------------------------------*\
| =========                 |                                                 |
| \\      /  F ield         | OpenFOAM: The Open Source CFD Toolbox           |
|  \\    /   O peration     | Version:  2.1.1                                 |
|   \\  /    A nd           | Web:      www.OpenFOAM.org                      |
|    \\/     M anipulation  |                                                 |
\*---------------------------------------------------------------------------*/
FoamFile
{
    version     2.0;
    format      ascii;
    class       volScalarField;
    location    "0.007150000";
    object      H2O2;
}
// * * * * * * * * * * * * * * * * * * * * * * * * * * * * * * * * * * * * * //

dimensions      [0 0 0 0 0 0 0];

internalField   nonuniform List<scalar> 
12384
(
1.49636e-06
1.49759e-06
1.51072e-06
1.49791e-06
1.50394e-06
1.48997e-06
1.48628e-06
1.46695e-06
1.45853e-06
1.38601e-06
1.37562e-06
1.36597e-06
1.37227e-06
1.26469e-06
1.13848e-06
1.21488e-06
1.24412e-06
1.24388e-06
1.23377e-06
1.20706e-06
1.20368e-06
1.18597e-06
1.20863e-06
1.22395e-06
1.24734e-06
1.24359e-06
1.21736e-06
1.20727e-06
1.19406e-06
1.19183e-06
1.19213e-06
1.21183e-06
1.20773e-06
1.19448e-06
1.18866e-06
1.18019e-06
1.17185e-06
1.15453e-06
1.12504e-06
1.10288e-06
1.06715e-06
1.08712e-06
1.19479e-06
1.07368e-06
7.40385e-07
4.86769e-07
4.32166e-07
3.88784e-07
3.71314e-07
3.62389e-07
3.64253e-07
3.70487e-07
3.84171e-07
3.98011e-07
4.2504e-07
4.48223e-07
4.78811e-07
5.06541e-07
5.30679e-07
5.51032e-07
5.64211e-07
5.70238e-07
5.72368e-07
5.73336e-07
5.67351e-07
5.58008e-07
5.51393e-07
5.40154e-07
5.19269e-07
4.83775e-07
4.29258e-07
4.04685e-07
5.6532e-07
7.50679e-07
4.34092e-07
3.91951e-07
3.31798e-07
3.16555e-07
3.19612e-07
3.25218e-07
3.32791e-07
3.39229e-07
3.45783e-07
3.52206e-07
3.57361e-07
3.59124e-07
3.59575e-07
3.59419e-07
3.58597e-07
3.60004e-07
3.62579e-07
3.65862e-07
3.68546e-07
3.70598e-07
3.73626e-07
3.78699e-07
3.7712e-07
3.8907e-07
3.95959e-07
3.97288e-07
4.00465e-07
4.07586e-07
4.17005e-07
4.11654e-07
2.10255e-07
2.16442e-07
2.1279e-07
2.09264e-07
2.03988e-07
1.99179e-07
1.95057e-07
1.91817e-07
1.89491e-07
1.8781e-07
1.82196e-07
1.85817e-07
1.73776e-07
1.80736e-07
1.70202e-07
1.71341e-07
1.80469e-07
1.75815e-07
1.88935e-07
1.86419e-07
2.00227e-07
2.07277e-07
3.35365e-07
3.47934e-07
3.2156e-07
3.01897e-07
2.00262e-07
1.9861e-07
2.02036e-07
3.29121e-07
6.66367e-08
7.25691e-08
7.27713e-08
7.40639e-08
7.53297e-08
7.46234e-08
7.38531e-08
7.26469e-08
7.27097e-08
7.17168e-08
7.18348e-08
7.23631e-08
7.31602e-08
7.38861e-08
7.44736e-08
7.49744e-08
7.43659e-08
7.30817e-08
7.16425e-08
7.24176e-08
6.88837e-08
6.91909e-08
6.90819e-08
7.0512e-08
7.16358e-08
7.31174e-08
7.48405e-08
7.63515e-08
8.09278e-08
8.09535e-08
2.13365e-07
1.03382e-07
1.02487e-07
1.14774e-07
1.22614e-07
1.27749e-07
1.30657e-07
1.32954e-07
1.3552e-07
1.3868e-07
1.41928e-07
1.44279e-07
1.45928e-07
2.27156e-07
2.27566e-07
2.2978e-07
2.31664e-07
2.38156e-07
2.33655e-07
2.47582e-07
2.47987e-07
2.54099e-07
2.64223e-07
1.63459e-07
2.59523e-07
7.30587e-07
8.7181e-07
8.46693e-07
8.25217e-07
8.1193e-07
9.75633e-08
5.78897e-08
5.5235e-08
5.31963e-08
4.83857e-08
4.60044e-08
4.45036e-08
4.34221e-08
4.57162e-08
4.35968e-08
4.49389e-08
4.24127e-08
4.44689e-08
4.5429e-08
4.67664e-08
4.74112e-08
5.18006e-08
5.38682e-08
5.43575e-08
5.53684e-08
6.29561e-08
8.6386e-08
7.10163e-08
7.00551e-08
6.93199e-08
6.93411e-08
6.82849e-08
6.83215e-08
6.91069e-08
7.07821e-08
1.49005e-07
1.52487e-07
1.58809e-07
1.62758e-07
1.63334e-07
1.62687e-07
1.60312e-07
1.59572e-07
1.49735e-07
1.55249e-07
1.50361e-07
1.47883e-07
1.50948e-07
1.50865e-07
1.47213e-07
1.40935e-07
1.10531e-07
3.44618e-08
2.38794e-08
2.31448e-08
2.48846e-08
2.42193e-08
2.59647e-08
2.50738e-08
2.87422e-08
2.939e-08
2.52035e-08
2.2776e-08
1.84034e-08
1.34028e-08
9.66511e-08
1.01437e-07
1.07086e-07
1.11139e-07
1.13907e-07
1.15387e-07
1.14709e-07
1.13222e-07
1.11359e-07
1.06627e-07
1.03715e-07
1.01959e-07
1.01076e-07
1.03847e-07
9.94417e-08
9.61801e-08
9.54925e-08
9.53843e-08
5.93793e-08
4.47425e-08
4.38078e-08
4.57022e-08
4.91508e-08
4.93119e-08
5.25021e-08
5.20948e-08
5.10101e-08
4.90513e-08
4.70699e-08
4.52824e-08
4.61768e-08
5.99003e-08
8.63868e-08
9.76669e-08
1.0215e-07
1.03903e-07
1.00255e-07
9.86687e-08
9.39293e-08
8.9423e-08
8.43485e-08
7.35824e-08
4.84221e-08
3.04213e-08
1.88919e-08
1.65129e-08
1.6868e-08
1.78557e-08
1.88755e-08
1.87488e-08
1.92374e-08
1.88622e-08
1.92837e-08
1.8963e-08
1.93078e-08
1.92637e-08
1.96197e-08
1.95754e-08
1.92773e-08
1.78004e-08
2.58998e-08
2.9149e-08
2.47487e-08
2.0057e-08
2.08685e-08
2.09494e-08
2.12659e-08
2.16047e-08
2.16045e-08
2.19734e-08
2.2694e-08
2.29495e-08
2.31704e-08
2.36137e-08
2.38668e-08
2.40273e-08
2.4123e-08
2.42214e-08
2.43105e-08
2.44343e-08
2.44231e-08
2.43778e-08
2.41458e-08
2.40319e-08
2.40689e-08
2.37255e-08
2.15703e-08
2.20509e-08
2.51534e-08
2.77968e-08
1.19773e-08
1.20255e-08
1.11386e-08
9.84914e-09
9.28852e-09
1.32967e-08
6.62945e-09
2.66303e-09
2.30609e-09
2.2183e-09
2.01058e-09
2.01826e-09
1.84696e-09
1.83774e-09
1.80177e-09
1.79921e-09
1.80132e-09
1.80595e-09
1.82261e-09
1.85257e-09
1.90601e-09
2.12545e-09
2.18799e-09
2.26431e-09
2.36841e-09
2.54551e-09
3.38585e-09
4.36539e-09
4.27506e-09
1.9326e-09
1.53057e-06
1.55366e-06
1.54343e-06
1.51684e-06
1.51342e-06
1.49965e-06
1.49745e-06
1.48661e-06
1.45443e-06
1.43529e-06
1.42076e-06
1.34145e-06
1.34644e-06
1.26429e-06
1.14613e-06
1.23467e-06
1.24506e-06
1.23472e-06
1.20755e-06
1.18622e-06
1.19982e-06
1.24234e-06
1.29956e-06
1.27937e-06
1.24373e-06
1.20313e-06
1.18788e-06
1.17651e-06
1.18151e-06
1.211e-06
1.25011e-06
1.26141e-06
1.26921e-06
1.27316e-06
1.27319e-06
1.2648e-06
1.24298e-06
1.22383e-06
1.19182e-06
1.15668e-06
1.0959e-06
1.07171e-06
1.15785e-06
1.16037e-06
7.22813e-07
4.77475e-07
4.19205e-07
3.70811e-07
3.48175e-07
3.39759e-07
3.50003e-07
3.63522e-07
3.98739e-07
4.29578e-07
4.66663e-07
5.0449e-07
5.50034e-07
5.90351e-07
6.29793e-07
7.35838e-07
7.46589e-07
7.5353e-07
7.58137e-07
7.50648e-07
7.52699e-07
7.54457e-07
7.47527e-07
7.27808e-07
6.1072e-07
5.62939e-07
4.91391e-07
4.24751e-07
4.59594e-07
5.71328e-07
4.27249e-07
3.68591e-07
3.26647e-07
3.25427e-07
3.47835e-07
3.7251e-07
3.89242e-07
3.94853e-07
3.99172e-07
4.01746e-07
4.04785e-07
4.10266e-07
4.13915e-07
4.10139e-07
4.01811e-07
3.94677e-07
3.91192e-07
3.92169e-07
3.9684e-07
4.04481e-07
4.12546e-07
4.232e-07
4.32492e-07
4.33584e-07
4.39053e-07
4.38289e-07
4.27944e-07
4.16247e-07
4.18964e-07
4.20114e-07
2.06943e-07
2.13711e-07
2.10578e-07
2.07082e-07
2.00505e-07
1.93083e-07
1.88283e-07
1.90819e-07
1.9604e-07
2.04432e-07
2.09794e-07
3.06483e-07
3.12721e-07
3.19128e-07
3.15432e-07
3.12385e-07
3.01023e-07
2.97788e-07
2.09453e-07
2.0424e-07
2.05764e-07
2.06181e-07
2.23189e-07
3.45076e-07
3.47065e-07
1.94794e-07
1.82491e-07
1.78348e-07
1.76708e-07
1.77726e-07
6.72039e-08
7.25052e-08
7.2719e-08
7.39586e-08
7.35054e-08
7.09608e-08
6.75207e-08
6.52642e-08
6.28751e-08
6.41529e-08
6.47806e-08
6.58036e-08
6.77527e-08
6.9235e-08
7.14702e-08
7.30279e-08
7.31889e-08
7.35729e-08
7.41364e-08
7.2947e-08
7.09843e-08
7.36584e-08
7.23326e-08
7.24625e-08
7.30986e-08
7.361e-08
7.44985e-08
7.58808e-08
7.86447e-08
8.02934e-08
1.2611e-07
1.02354e-07
1.07886e-07
1.19303e-07
1.20156e-07
1.13482e-07
1.05006e-07
1.04563e-07
1.12035e-07
1.2358e-07
1.33416e-07
1.40312e-07
1.42816e-07
2.26472e-07
2.31226e-07
2.34232e-07
2.37125e-07
2.36927e-07
2.42353e-07
2.44776e-07
2.53075e-07
2.58064e-07
2.65439e-07
2.57682e-07
1.63504e-07
3.89415e-07
8.14901e-07
8.36741e-07
7.10581e-07
6.4519e-07
9.4878e-08
5.51258e-08
5.30671e-08
4.34328e-08
3.69875e-08
3.67788e-08
3.68657e-08
3.9974e-08
4.37697e-08
4.32287e-08
4.27727e-08
4.44709e-08
4.38372e-08
4.49363e-08
4.49995e-08
4.62401e-08
4.79075e-08
5.13357e-08
5.30638e-08
5.39875e-08
5.83854e-08
6.91319e-08
8.54278e-08
7.19845e-08
7.31579e-08
7.25514e-08
7.10485e-08
6.84978e-08
6.52667e-08
6.4541e-08
1.49358e-07
1.55992e-07
1.62768e-07
1.69338e-07
1.7639e-07
1.78694e-07
1.81139e-07
1.78328e-07
1.78646e-07
1.73433e-07
1.70882e-07
1.72189e-07
1.69369e-07
1.64297e-07
1.55446e-07
1.47126e-07
1.32599e-07
6.23899e-08
2.77094e-08
2.31803e-08
2.47013e-08
2.46043e-08
2.47941e-08
2.91582e-08
3.31404e-08
3.62962e-08
3.8511e-08
3.83224e-08
2.47854e-08
1.52283e-08
1.11214e-07
1.16e-07
1.17556e-07
1.20788e-07
1.2561e-07
1.30125e-07
1.32681e-07
1.3491e-07
2.13527e-07
2.18241e-07
2.1973e-07
2.14623e-07
2.07674e-07
1.25232e-07
1.19424e-07
1.10456e-07
1.01829e-07
9.74294e-08
9.52484e-08
5.78034e-08
4.44978e-08
4.71835e-08
4.92813e-08
5.13525e-08
5.46983e-08
5.35353e-08
5.21091e-08
5.08988e-08
4.97438e-08
4.65112e-08
4.25518e-08
6.13293e-08
9.54319e-08
1.06132e-07
1.11172e-07
1.16429e-07
1.19209e-07
1.19313e-07
1.18596e-07
1.16062e-07
1.08619e-07
9.5909e-08
7.2249e-08
4.30795e-08
2.3332e-08
1.7284e-08
1.72481e-08
1.89118e-08
1.88991e-08
2.03623e-08
2.15958e-08
2.11692e-08
2.08128e-08
1.81298e-08
1.8133e-08
1.8525e-08
1.89848e-08
1.95222e-08
1.94828e-08
1.7827e-08
2.54835e-08
2.64852e-08
2.20426e-08
2.05559e-08
2.21469e-08
2.3069e-08
2.38049e-08
2.41466e-08
2.46044e-08
2.43512e-08
2.43641e-08
2.45178e-08
2.4435e-08
2.5361e-08
2.54789e-08
2.5436e-08
2.52334e-08
2.48885e-08
2.45434e-08
2.47441e-08
2.55916e-08
2.6813e-08
2.79818e-08
2.86043e-08
2.78109e-08
2.70669e-08
2.47373e-08
2.22032e-08
2.48446e-08
2.73589e-08
1.35613e-08
1.68115e-08
1.37764e-08
9.48051e-09
1.05568e-08
9.32011e-09
3.55169e-09
2.38109e-09
2.20839e-09
1.91259e-09
1.83432e-09
1.80769e-09
1.77019e-09
1.72756e-09
1.69548e-09
1.68045e-09
1.64499e-09
1.59953e-09
1.55829e-09
1.53156e-09
1.53414e-09
1.57194e-09
1.70371e-09
1.99432e-09
2.13153e-09
2.4917e-09
3.73489e-09
5.10861e-09
4.28423e-09
1.72768e-09
1.56152e-06
1.54658e-06
1.51217e-06
1.48925e-06
1.49588e-06
1.49198e-06
1.46187e-06
1.45363e-06
1.44189e-06
1.42937e-06
1.4128e-06
1.33238e-06
1.31985e-06
1.25812e-06
1.16169e-06
1.23993e-06
1.24127e-06
1.21178e-06
1.19477e-06
1.18085e-06
1.24318e-06
1.33114e-06
1.3088e-06
1.17517e-06
1.11276e-06
1.06542e-06
1.06468e-06
1.13875e-06
1.2191e-06
1.24887e-06
1.28677e-06
1.31065e-06
1.32235e-06
1.33977e-06
1.34331e-06
1.34015e-06
1.32443e-06
1.31054e-06
1.26945e-06
1.21995e-06
1.15718e-06
1.08398e-06
1.10856e-06
1.17977e-06
7.19607e-07
4.77768e-07
4.09436e-07
3.49743e-07
3.18723e-07
3.08885e-07
3.28851e-07
3.55117e-07
4.11847e-07
4.61221e-07
5.02112e-07
5.30047e-07
5.72498e-07
6.12621e-07
7.32467e-07
7.46171e-07
7.51994e-07
7.49061e-07
7.50612e-07
7.55068e-07
7.65879e-07
7.71488e-07
7.77195e-07
7.78864e-07
7.65857e-07
7.24303e-07
5.70872e-07
4.76578e-07
4.2852e-07
5.0039e-07
4.17041e-07
3.53201e-07
3.26216e-07
3.46767e-07
3.81414e-07
4.03627e-07
4.01274e-07
3.95967e-07
3.83221e-07
3.80689e-07
3.87733e-07
4.01035e-07
4.15941e-07
4.26825e-07
4.17405e-07
4.10356e-07
4.03409e-07
4.04859e-07
4.13461e-07
4.29346e-07
4.432e-07
4.54238e-07
4.70594e-07
4.81397e-07
4.79401e-07
4.7972e-07
4.66122e-07
4.41748e-07
4.24442e-07
4.23865e-07
2.01288e-07
2.0722e-07
2.11892e-07
2.09694e-07
2.00831e-07
1.9093e-07
1.92414e-07
2.04136e-07
2.24373e-07
3.55846e-07
3.88677e-07
4.11353e-07
4.22859e-07
4.32289e-07
4.2974e-07
4.27267e-07
4.24509e-07
4.02066e-07
3.79556e-07
3.50489e-07
3.19438e-07
2.11782e-07
2.18432e-07
2.28597e-07
3.5482e-07
3.1861e-07
2.01212e-07
2.0027e-07
1.95216e-07
1.78934e-07
6.6703e-08
7.15151e-08
7.19344e-08
7.27821e-08
7.11801e-08
6.64019e-08
6.19022e-08
6.07388e-08
5.78181e-08
5.88288e-08
6.21212e-08
6.37959e-08
6.65712e-08
6.81386e-08
7.0967e-08
7.31172e-08
7.46801e-08
7.69547e-08
7.89209e-08
7.58652e-08
7.73484e-08
7.87036e-08
7.61032e-08
7.65784e-08
7.5778e-08
7.51424e-08
7.48873e-08
7.54143e-08
7.71378e-08
7.93331e-08
1.22636e-07
9.88645e-08
1.03493e-07
1.03892e-07
8.45033e-08
5.91671e-08
5.58824e-08
5.91561e-08
8.03644e-08
1.1123e-07
1.29188e-07
1.37362e-07
1.40476e-07
2.19092e-07
1.39785e-07
1.36572e-07
1.3413e-07
1.37034e-07
1.36614e-07
1.41541e-07
2.26896e-07
2.41589e-07
2.57241e-07
2.61639e-07
1.58296e-07
2.91245e-07
4.66521e-07
8.12044e-07
7.3627e-07
6.1901e-07
8.52712e-08
5.35463e-08
4.33046e-08
3.55529e-08
3.56068e-08
3.71829e-08
4.63297e-08
4.78365e-08
4.74273e-08
4.67679e-08
4.57892e-08
4.3047e-08
4.26838e-08
4.16669e-08
4.39029e-08
4.38543e-08
4.51574e-08
4.93434e-08
5.085e-08
5.2924e-08
5.40951e-08
6.22786e-08
7.18531e-08
8.85253e-08
9.67779e-08
9.85561e-08
7.48671e-08
7.30142e-08
7.09558e-08
6.51588e-08
1.50416e-07
1.61906e-07
1.72106e-07
1.85747e-07
1.96927e-07
3.14774e-07
3.39778e-07
3.48192e-07
3.61001e-07
3.56787e-07
3.479e-07
3.40384e-07
3.21464e-07
2.9392e-07
1.7237e-07
1.56949e-07
1.44408e-07
1.14761e-07
5.41724e-08
2.57526e-08
2.40066e-08
2.3307e-08
2.36353e-08
2.44715e-08
3.31679e-08
3.79079e-08
4.15914e-08
4.44009e-08
3.8707e-08
2.01749e-08
1.17905e-07
1.13622e-07
1.14289e-07
1.19579e-07
1.27472e-07
1.35027e-07
2.27046e-07
2.58863e-07
2.76858e-07
2.90529e-07
3.00072e-07
2.97439e-07
2.9313e-07
2.81963e-07
2.41087e-07
1.32016e-07
1.14796e-07
1.06148e-07
1.06652e-07
8.4807e-08
5.58879e-08
4.66951e-08
4.58009e-08
4.9177e-08
5.22996e-08
5.29419e-08
5.06712e-08
4.9627e-08
4.86807e-08
4.80411e-08
4.14694e-08
8.01423e-08
9.89627e-08
1.07637e-07
1.1699e-07
1.28417e-07
2.19178e-07
2.43828e-07
2.48281e-07
2.39366e-07
2.14826e-07
1.17473e-07
9.79941e-08
6.57327e-08
3.69349e-08
1.97235e-08
1.71776e-08
1.90108e-08
2.04222e-08
2.19409e-08
2.13194e-08
2.06766e-08
1.74939e-08
1.73796e-08
1.75553e-08
1.79469e-08
1.87848e-08
1.94193e-08
1.94108e-08
1.74504e-08
2.51708e-08
2.33671e-08
2.14562e-08
2.17089e-08
2.33775e-08
2.46815e-08
2.53305e-08
2.55948e-08
2.57483e-08
2.59116e-08
2.52616e-08
2.44084e-08
2.49514e-08
2.39884e-08
2.28665e-08
2.281e-08
2.04602e-08
1.96294e-08
1.97361e-08
2.11935e-08
2.41475e-08
2.72297e-08
2.98609e-08
3.12932e-08
3.15545e-08
3.04128e-08
2.73758e-08
2.42596e-08
2.44153e-08
2.7023e-08
1.20447e-08
1.83215e-08
2.17252e-08
1.01431e-08
1.12341e-08
5.01848e-09
2.70559e-09
2.30906e-09
2.18539e-09
2.05902e-09
2.30917e-09
2.42934e-09
2.4408e-09
2.45647e-09
2.29686e-09
1.95153e-09
1.81012e-09
1.66815e-09
1.56855e-09
1.47775e-09
1.46094e-09
1.49527e-09
1.81648e-09
2.01365e-09
2.35543e-09
3.41381e-09
4.94781e-09
5.07892e-09
3.64893e-09
1.37082e-09
1.5532e-06
1.49418e-06
1.48623e-06
1.50636e-06
1.46556e-06
1.42906e-06
1.34531e-06
1.34422e-06
1.35565e-06
1.42882e-06
1.41812e-06
1.3912e-06
1.30418e-06
1.24939e-06
1.1662e-06
1.24181e-06
1.23499e-06
1.20048e-06
1.17815e-06
1.19633e-06
1.2834e-06
1.35976e-06
1.27808e-06
1.12818e-06
1.05578e-06
1.01481e-06
1.08974e-06
1.16033e-06
1.23819e-06
1.28485e-06
1.31776e-06
1.34787e-06
1.36553e-06
1.38803e-06
1.39952e-06
1.41351e-06
1.3955e-06
1.37697e-06
1.34224e-06
1.2817e-06
1.21288e-06
1.10649e-06
1.08843e-06
1.18032e-06
7.37055e-07
4.9094e-07
4.12687e-07
3.32958e-07
2.88696e-07
1.93767e-07
2.94465e-07
3.59002e-07
4.49333e-07
5.16899e-07
5.66747e-07
5.65433e-07
5.86114e-07
6.166e-07
7.21063e-07
7.28539e-07
7.35097e-07
7.43678e-07
7.60657e-07
7.82294e-07
7.91645e-07
7.9011e-07
7.95185e-07
7.95137e-07
7.94949e-07
7.7714e-07
7.18526e-07
5.37676e-07
4.3882e-07
4.71083e-07
4.09436e-07
3.46632e-07
3.32825e-07
3.66412e-07
4.01457e-07
4.02415e-07
3.81985e-07
3.46956e-07
3.22404e-07
3.19896e-07
3.39929e-07
3.71777e-07
3.9914e-07
4.26462e-07
4.24614e-07
4.06155e-07
4.02892e-07
4.15972e-07
4.36573e-07
4.5735e-07
4.7691e-07
4.92961e-07
5.02362e-07
5.142e-07
5.20729e-07
5.09903e-07
4.98867e-07
4.69346e-07
4.3279e-07
4.18681e-07
1.9324e-07
2.01275e-07
2.14734e-07
2.10775e-07
1.96163e-07
1.89459e-07
1.99935e-07
2.25625e-07
3.74317e-07
4.19477e-07
4.48069e-07
4.70086e-07
4.78724e-07
4.89552e-07
5.01845e-07
5.07999e-07
4.9742e-07
4.98251e-07
4.64081e-07
4.40791e-07
3.8344e-07
3.32113e-07
2.20561e-07
2.25848e-07
3.47526e-07
3.46925e-07
3.29007e-07
3.67282e-07
3.60537e-07
2.10151e-07
6.54346e-08
7.0248e-08
7.04748e-08
7.14575e-08
6.94446e-08
6.42518e-08
5.92339e-08
5.66548e-08
5.82958e-08
5.91099e-08
6.17068e-08
6.51036e-08
6.78306e-08
6.71652e-08
7.04262e-08
7.39777e-08
7.73193e-08
8.18398e-08
8.17862e-08
8.08001e-08
8.46252e-08
8.07322e-08
8.21945e-08
8.1198e-08
8.02334e-08
7.78405e-08
7.62916e-08
7.57207e-08
7.66751e-08
7.83572e-08
1.18742e-07
9.53191e-08
9.23094e-08
6.27381e-08
5.0924e-08
4.00229e-08
3.94705e-08
5.00268e-08
6.25505e-08
1.08373e-07
1.28998e-07
1.36488e-07
1.37906e-07
1.36046e-07
1.30878e-07
1.28076e-07
1.29503e-07
1.25774e-07
1.29876e-07
1.31811e-07
1.368e-07
1.44983e-07
2.34433e-07
2.54324e-07
2.47763e-07
2.54487e-07
3.61784e-07
6.46541e-07
7.2965e-07
6.04419e-07
6.00321e-08
5.20881e-08
3.47983e-08
3.45592e-08
3.75706e-08
4.95186e-08
5.0785e-08
4.81418e-08
4.49233e-08
4.32934e-08
4.05292e-08
3.88717e-08
3.71626e-08
3.82131e-08
3.85302e-08
3.93963e-08
4.15943e-08
4.65528e-08
4.85452e-08
5.11991e-08
5.3925e-08
5.78667e-08
6.91716e-08
9.01361e-08
1.05445e-07
1.04122e-07
9.34731e-08
7.67131e-08
7.72201e-08
6.65732e-08
1.55161e-07
1.69349e-07
1.86369e-07
2.00659e-07
3.48441e-07
3.96026e-07
4.31684e-07
4.52e-07
4.69655e-07
4.68951e-07
4.62929e-07
4.32498e-07
4.03137e-07
3.68666e-07
3.16642e-07
2.54719e-07
1.53276e-07
1.38317e-07
9.5842e-08
4.44413e-08
2.51382e-08
2.32738e-08
2.30808e-08
2.80371e-08
3.82805e-08
4.49376e-08
4.65173e-08
4.69927e-08
4.60794e-08
2.37392e-08
1.09953e-07
1.0911e-07
1.11365e-07
1.18474e-07
1.2887e-07
2.1815e-07
2.66134e-07
3.05351e-07
3.30675e-07
3.49615e-07
3.6009e-07
3.70852e-07
3.6516e-07
3.51362e-07
3.18408e-07
2.76223e-07
1.31984e-07
1.20867e-07
1.09821e-07
1.01422e-07
6.99273e-08
5.404e-08
4.65449e-08
4.94244e-08
5.14677e-08
5.1829e-08
5.01977e-08
4.76741e-08
4.69184e-08
4.76084e-08
5.38602e-08
8.84809e-08
9.81921e-08
1.11526e-07
1.30668e-07
2.70268e-07
3.32843e-07
3.70016e-07
3.72856e-07
3.54482e-07
3.10849e-07
2.51965e-07
1.15775e-07
8.63716e-08
4.57649e-08
2.24897e-08
1.71658e-08
1.87993e-08
2.10391e-08
2.24358e-08
2.18099e-08
2.11277e-08
2.02317e-08
1.72752e-08
1.72872e-08
1.77673e-08
1.81643e-08
1.90089e-08
1.91212e-08
1.71839e-08
2.46085e-08
2.31772e-08
2.24926e-08
2.41759e-08
2.43322e-08
2.62728e-08
2.56806e-08
2.64353e-08
2.63044e-08
2.5603e-08
2.66659e-08
2.53054e-08
2.5226e-08
2.49987e-08
2.33118e-08
2.11533e-08
1.91017e-08
1.76534e-08
1.81687e-08
2.18348e-08
2.68361e-08
3.19397e-08
4.79456e-08
4.90676e-08
4.61495e-08
3.73249e-08
2.95562e-08
2.5104e-08
2.42772e-08
2.69456e-08
8.66164e-09
1.72663e-08
2.51416e-08
1.10441e-08
8.29413e-09
3.80453e-09
2.47821e-09
2.43306e-09
2.55157e-09
2.76993e-09
3.14794e-09
3.48154e-09
3.65445e-09
3.53969e-09
3.2713e-09
2.81304e-09
2.42156e-09
1.88138e-09
1.67318e-09
1.50916e-09
1.44888e-09
1.46414e-09
1.85015e-09
2.43447e-09
3.84762e-09
5.10921e-09
4.78033e-09
3.82703e-09
1.84978e-09
1.21319e-09
1.4907e-06
1.48615e-06
1.51131e-06
1.4457e-06
1.37409e-06
1.27492e-06
1.25449e-06
1.28209e-06
1.31382e-06
1.34622e-06
1.42079e-06
1.38923e-06
1.29812e-06
1.23056e-06
1.16478e-06
1.2411e-06
1.23073e-06
1.19289e-06
1.17505e-06
1.20161e-06
1.30829e-06
1.37211e-06
1.27249e-06
1.13035e-06
1.03481e-06
9.87348e-07
1.08842e-06
1.20458e-06
1.26093e-06
1.30749e-06
1.34275e-06
1.36217e-06
1.37817e-06
1.3985e-06
1.41242e-06
1.43383e-06
1.442e-06
1.43059e-06
1.39368e-06
1.34401e-06
1.25995e-06
1.14523e-06
1.08197e-06
1.16958e-06
7.53137e-07
5.16023e-07
4.37254e-07
3.42957e-07
1.9867e-07
1.9293e-07
2.97141e-07
4.00825e-07
5.29241e-07
6.09208e-07
7.2073e-07
6.9961e-07
6.00147e-07
6.16725e-07
7.14196e-07
7.18371e-07
7.28776e-07
7.59479e-07
7.96146e-07
8.17138e-07
8.25452e-07
8.3233e-07
8.19474e-07
8.1387e-07
8.07985e-07
7.98569e-07
7.60043e-07
5.86212e-07
4.63767e-07
4.56746e-07
4.05879e-07
3.44269e-07
3.38369e-07
3.79963e-07
4.04847e-07
3.97666e-07
3.60326e-07
3.13392e-07
2.89244e-07
2.90437e-07
3.1149e-07
3.54039e-07
3.97859e-07
4.23341e-07
4.25162e-07
4.02911e-07
4.0716e-07
4.32831e-07
4.61258e-07
4.893e-07
5.15811e-07
6.20409e-07
6.30362e-07
6.27666e-07
6.30577e-07
6.22844e-07
5.19657e-07
4.89947e-07
4.44267e-07
4.15008e-07
1.84719e-07
1.96838e-07
3.17216e-07
2.03375e-07
1.89877e-07
1.90728e-07
2.11388e-07
3.57681e-07
4.14389e-07
4.49149e-07
4.67509e-07
4.88576e-07
4.9564e-07
5.20389e-07
5.21819e-07
5.29668e-07
5.38948e-07
5.52478e-07
5.32297e-07
5.14275e-07
4.46438e-07
3.84789e-07
3.27263e-07
2.26197e-07
3.40599e-07
3.56165e-07
3.56459e-07
4.12557e-07
3.99109e-07
3.28761e-07
6.36341e-08
6.86683e-08
6.88346e-08
6.9815e-08
6.77131e-08
6.28934e-08
5.84319e-08
5.53817e-08
5.64895e-08
5.85207e-08
5.99814e-08
6.49987e-08
6.85929e-08
6.73329e-08
7.09472e-08
7.56772e-08
8.17985e-08
8.61117e-08
8.37322e-08
8.75357e-08
8.80041e-08
8.40215e-08
8.52192e-08
8.38195e-08
8.152e-08
8.01283e-08
7.78249e-08
7.5992e-08
7.62724e-08
7.7838e-08
1.17295e-07
8.52347e-08
7.68315e-08
5.26918e-08
3.31614e-08
3.03601e-08
3.1537e-08
4.59049e-08
6.02218e-08
1.07985e-07
1.29013e-07
1.35006e-07
1.32777e-07
1.27613e-07
1.26032e-07
1.25568e-07
1.2148e-07
1.23237e-07
1.21493e-07
1.24583e-07
1.28931e-07
1.36654e-07
1.45939e-07
2.39387e-07
2.46609e-07
1.55064e-07
2.96675e-07
4.38608e-07
6.62729e-07
5.87661e-07
5.44557e-08
3.74784e-08
3.30509e-08
3.72459e-08
5.12568e-08
5.227e-08
4.88891e-08
4.37275e-08
4.03135e-08
3.79237e-08
3.20514e-08
3.05163e-08
3.01045e-08
3.00395e-08
3.05609e-08
3.25776e-08
3.64334e-08
4.3485e-08
4.53837e-08
5.06204e-08
5.16088e-08
5.57254e-08
6.54452e-08
7.52985e-08
1.02746e-07
1.01024e-07
9.3663e-08
9.67661e-08
9.85721e-08
7.13366e-08
1.58768e-07
1.75499e-07
1.90678e-07
3.26609e-07
3.91489e-07
4.52051e-07
4.9313e-07
5.32731e-07
6.47574e-07
6.42435e-07
6.21259e-07
6.01055e-07
4.99859e-07
4.41498e-07
3.81503e-07
3.0778e-07
1.64737e-07
1.49447e-07
1.24362e-07
6.04258e-08
3.45697e-08
2.53547e-08
2.53274e-08
3.60445e-08
4.79954e-08
5.31788e-08
5.523e-08
5.37853e-08
5.1446e-08
3.34452e-08
1.05356e-07
1.03985e-07
1.06573e-07
1.16537e-07
1.30476e-07
2.4359e-07
3.00144e-07
3.42878e-07
3.72518e-07
3.92305e-07
4.76636e-07
4.79801e-07
4.81823e-07
4.07203e-07
3.73284e-07
3.35344e-07
2.64901e-07
1.36756e-07
1.17743e-07
1.12608e-07
1.01926e-07
6.62913e-08
5.85186e-08
5.58084e-08
5.40267e-08
5.2899e-08
5.07802e-08
4.66716e-08
4.50093e-08
4.7874e-08
8.66367e-08
9.44089e-08
1.01038e-07
1.2277e-07
2.70838e-07
3.70905e-07
5.343e-07
6.06834e-07
6.20159e-07
5.67417e-07
4.01145e-07
3.27004e-07
2.35169e-07
1.00996e-07
6.16754e-08
2.96922e-08
1.6906e-08
1.85682e-08
2.10738e-08
2.18908e-08
2.14785e-08
2.30605e-08
2.25543e-08
2.1305e-08
1.74447e-08
1.72948e-08
1.73631e-08
1.74103e-08
1.75037e-08
1.66695e-08
2.40694e-08
2.23079e-08
2.23879e-08
2.4617e-08
2.59972e-08
2.7718e-08
2.79936e-08
2.96366e-08
3.00855e-08
2.8712e-08
2.87912e-08
2.67271e-08
2.60608e-08
2.53659e-08
2.45984e-08
2.2266e-08
1.90954e-08
1.67358e-08
1.7656e-08
2.25516e-08
2.96674e-08
4.92146e-08
6.40214e-08
6.57475e-08
5.9014e-08
4.37485e-08
3.00786e-08
2.52421e-08
2.45175e-08
2.71247e-08
6.87763e-09
1.32621e-08
2.9024e-08
1.22279e-08
6.82606e-09
2.98286e-09
2.56133e-09
2.462e-09
3.06735e-09
3.80325e-09
4.39977e-09
5.5799e-09
5.82247e-09
5.57793e-09
4.79429e-09
3.90743e-09
3.15191e-09
2.47108e-09
1.81816e-09
1.5964e-09
1.47637e-09
1.47451e-09
1.89849e-09
3.41924e-09
4.79812e-09
4.7898e-09
2.86403e-09
1.69188e-09
1.09392e-09
1.16612e-09
1.45825e-06
1.51341e-06
1.44923e-06
1.34352e-06
1.26137e-06
1.22459e-06
1.22284e-06
1.20598e-06
1.26439e-06
1.32316e-06
1.3574e-06
1.39035e-06
1.2964e-06
1.22303e-06
1.16111e-06
1.24102e-06
1.2283e-06
1.19065e-06
1.17146e-06
1.17485e-06
1.29574e-06
1.36608e-06
1.28752e-06
1.14464e-06
1.0349e-06
9.78597e-07
1.09135e-06
1.21538e-06
1.27556e-06
1.31492e-06
1.34054e-06
1.34177e-06
1.36592e-06
1.39966e-06
1.43289e-06
1.45496e-06
1.46062e-06
1.46127e-06
1.44483e-06
1.38096e-06
1.30031e-06
1.18202e-06
1.07952e-06
1.16396e-06
7.836e-07
5.60719e-07
5.00825e-07
4.14e-07
3.40623e-07
3.18423e-07
3.8474e-07
5.18226e-07
6.42673e-07
7.94834e-07
8.02946e-07
7.3966e-07
6.09043e-07
6.16067e-07
7.00124e-07
7.04602e-07
7.40013e-07
7.92185e-07
8.22246e-07
8.29985e-07
8.32983e-07
8.29749e-07
8.33375e-07
8.2317e-07
8.20939e-07
8.15146e-07
7.83314e-07
6.96157e-07
4.86784e-07
4.54114e-07
4.07241e-07
3.45979e-07
3.40461e-07
3.83872e-07
4.06813e-07
4.01291e-07
3.69043e-07
3.28194e-07
3.01259e-07
2.90234e-07
3.10542e-07
3.59175e-07
4.06009e-07
4.3402e-07
4.18933e-07
3.98788e-07
4.18138e-07
4.54177e-07
4.87929e-07
5.99159e-07
6.30282e-07
6.53529e-07
6.77805e-07
6.7986e-07
6.60027e-07
6.47522e-07
6.21101e-07
5.00126e-07
4.50628e-07
4.11689e-07
1.75327e-07
2.0001e-07
3.18942e-07
1.93531e-07
1.85486e-07
1.94829e-07
2.22939e-07
3.87932e-07
4.30107e-07
4.54634e-07
4.71087e-07
5.01004e-07
5.16424e-07
5.50547e-07
5.55172e-07
5.66503e-07
5.66105e-07
5.79022e-07
5.65729e-07
5.62365e-07
4.97478e-07
4.35224e-07
3.57027e-07
2.2978e-07
3.38136e-07
3.60506e-07
3.72993e-07
4.33629e-07
3.92686e-07
2.12791e-07
6.2464e-08
6.7683e-08
6.64923e-08
6.72844e-08
6.75635e-08
6.4425e-08
6.1186e-08
5.81969e-08
5.79082e-08
5.85775e-08
5.97329e-08
6.28927e-08
6.74431e-08
6.77319e-08
7.17093e-08
7.8431e-08
8.63809e-08
8.75095e-08
8.72619e-08
9.31164e-08
8.83996e-08
8.86311e-08
8.7161e-08
8.66572e-08
8.40214e-08
8.0591e-08
7.96218e-08
7.72604e-08
7.5678e-08
7.71533e-08
1.15386e-07
7.83503e-08
5.81668e-08
4.45551e-08
2.98035e-08
2.8268e-08
3.04346e-08
4.51582e-08
5.87661e-08
1.09525e-07
1.2846e-07
1.30628e-07
1.26987e-07
1.26375e-07
1.25033e-07
1.17759e-07
1.12805e-07
1.08766e-07
1.10145e-07
1.12466e-07
1.20435e-07
1.3101e-07
1.39897e-07
1.50305e-07
2.41152e-07
1.5177e-07
2.62307e-07
3.76766e-07
5.88887e-07
4.6504e-07
5.20856e-08
3.08593e-08
3.41232e-08
4.84292e-08
5.41797e-08
4.99282e-08
4.64124e-08
3.96146e-08
3.67981e-08
3.09517e-08
2.97763e-08
2.76818e-08
2.69594e-08
2.74884e-08
2.78334e-08
3.00376e-08
3.16294e-08
3.86296e-08
4.31852e-08
4.76542e-08
5.11638e-08
5.38486e-08
6.38624e-08
7.30811e-08
1.01122e-07
1.0046e-07
9.28421e-08
1.03379e-07
1.07913e-07
7.73681e-08
1.56757e-07
1.71618e-07
1.92139e-07
3.45102e-07
4.21166e-07
4.91529e-07
5.37995e-07
6.93689e-07
7.1054e-07
7.15829e-07
7.24362e-07
7.00431e-07
6.37758e-07
4.98593e-07
4.34531e-07
3.52729e-07
2.69477e-07
1.54947e-07
1.40426e-07
9.43124e-08
4.61078e-08
3.20711e-08
3.71955e-08
5.076e-08
7.35204e-08
8.1496e-08
7.38385e-08
5.44677e-08
5.26715e-08
3.77866e-08
1.01942e-07
9.59935e-08
1.00763e-07
1.17136e-07
1.32117e-07
2.61994e-07
3.23662e-07
3.65567e-07
4.74203e-07
5.0651e-07
5.18634e-07
5.25369e-07
5.2141e-07
5.22647e-07
4.05729e-07
3.879e-07
3.13801e-07
2.42806e-07
1.28136e-07
1.1996e-07
1.14856e-07
9.8279e-08
7.07857e-08
6.43203e-08
5.8029e-08
5.28164e-08
5.07292e-08
4.47643e-08
4.35054e-08
4.65727e-08
8.50781e-08
9.26183e-08
1.06902e-07
2.17732e-07
3.47522e-07
5.46084e-07
6.7098e-07
7.578e-07
7.50685e-07
7.2266e-07
5.95345e-07
3.87199e-07
2.86387e-07
1.10279e-07
6.83209e-08
3.17736e-08
1.71243e-08
1.80782e-08
1.96272e-08
2.24485e-08
2.38202e-08
2.41442e-08
2.44633e-08
2.38097e-08
2.34034e-08
2.05406e-08
1.70679e-08
1.67095e-08
1.66407e-08
1.6647e-08
2.3725e-08
2.34188e-08
2.33584e-08
2.5535e-08
2.81591e-08
2.87562e-08
3.18646e-08
3.53635e-08
3.45722e-08
3.5814e-08
3.08309e-08
2.88482e-08
2.6653e-08
2.56707e-08
2.4645e-08
2.35691e-08
2.01968e-08
1.66594e-08
1.64471e-08
2.28071e-08
2.97148e-08
4.96836e-08
6.62974e-08
7.17018e-08
6.01134e-08
4.17762e-08
2.88701e-08
2.47342e-08
2.48114e-08
2.74778e-08
5.51971e-09
1.12538e-08
2.93531e-08
1.28694e-08
5.04037e-09
2.82178e-09
2.44629e-09
2.96735e-09
3.7993e-09
5.34401e-09
7.32755e-09
8.56131e-09
9.23018e-09
8.86511e-09
7.44517e-09
5.53227e-09
3.94234e-09
2.94432e-09
2.03322e-09
1.6963e-09
1.53069e-09
1.61137e-09
1.83365e-09
3.76287e-09
5.21226e-09
3.67073e-09
1.39976e-09
1.01358e-09
1.08588e-09
1.56541e-09
1.49337e-06
1.50293e-06
1.34669e-06
1.2342e-06
1.1786e-06
1.16769e-06
1.18252e-06
1.2152e-06
1.23454e-06
1.31867e-06
1.36274e-06
1.40061e-06
1.29235e-06
1.21081e-06
1.1415e-06
1.23661e-06
1.23198e-06
1.19255e-06
1.15975e-06
1.15868e-06
1.23967e-06
1.36313e-06
1.32433e-06
1.15897e-06
1.05616e-06
9.76801e-07
1.08689e-06
1.22562e-06
1.27987e-06
1.31402e-06
1.30912e-06
1.32157e-06
1.36354e-06
1.4208e-06
1.45869e-06
1.48175e-06
1.49134e-06
1.48747e-06
1.46893e-06
1.40898e-06
1.31684e-06
1.18958e-06
1.07636e-06
1.16286e-06
8.0929e-07
6.78824e-07
5.65693e-07
5.2408e-07
4.86248e-07
4.87554e-07
5.82168e-07
7.71985e-07
8.5078e-07
8.79474e-07
8.61372e-07
7.68184e-07
6.10747e-07
6.11064e-07
5.97516e-07
7.0418e-07
7.54378e-07
8.05805e-07
8.24192e-07
8.30565e-07
8.21126e-07
8.18356e-07
8.14258e-07
8.21185e-07
8.1509e-07
8.21712e-07
8.00046e-07
7.14128e-07
4.94675e-07
4.50544e-07
4.12067e-07
3.51082e-07
3.39854e-07
3.78148e-07
4.10542e-07
4.08997e-07
3.90288e-07
3.6998e-07
3.29748e-07
3.06229e-07
3.25127e-07
3.74089e-07
4.22457e-07
4.40708e-07
4.18254e-07
3.94633e-07
4.37763e-07
4.75646e-07
5.07214e-07
6.26625e-07
6.52123e-07
6.80771e-07
6.89057e-07
7.05153e-07
6.9502e-07
6.66224e-07
6.36347e-07
5.10241e-07
4.49088e-07
4.08978e-07
1.70052e-07
2.07793e-07
2.06395e-07
1.87371e-07
1.87512e-07
1.96895e-07
3.26288e-07
4.0048e-07
4.3126e-07
4.53696e-07
4.71738e-07
5.23915e-07
5.45867e-07
5.77957e-07
5.72424e-07
5.89585e-07
5.82024e-07
6.01974e-07
5.81069e-07
5.93482e-07
5.31707e-07
4.70076e-07
3.83903e-07
2.34629e-07
3.39769e-07
3.64595e-07
3.86627e-07
4.38704e-07
3.61186e-07
1.99704e-07
5.94369e-08
6.68063e-08
6.5463e-08
6.45264e-08
6.66844e-08
6.5284e-08
6.26045e-08
6.08705e-08
6.00187e-08
5.8562e-08
5.87047e-08
6.27335e-08
6.79243e-08
6.90893e-08
7.34289e-08
8.21083e-08
8.92261e-08
8.81256e-08
9.20451e-08
9.44391e-08
8.97678e-08
9.05873e-08
8.95003e-08
8.63969e-08
8.48355e-08
8.21831e-08
7.9998e-08
7.79066e-08
7.61702e-08
7.64005e-08
1.14293e-07
6.94108e-08
5.276e-08
3.60525e-08
2.85223e-08
2.75987e-08
3.0509e-08
4.72168e-08
5.78831e-08
1.10146e-07
1.25997e-07
1.26702e-07
1.26725e-07
1.24866e-07
1.20198e-07
1.13671e-07
1.08796e-07
1.07475e-07
1.06131e-07
1.09471e-07
1.10579e-07
1.27145e-07
1.36317e-07
1.47693e-07
2.35047e-07
1.49209e-07
2.41357e-07
3.32854e-07
4.36518e-07
4.22983e-07
4.82471e-08
2.75159e-08
3.84194e-08
5.5354e-08
5.33187e-08
4.82301e-08
4.32955e-08
3.80013e-08
3.25526e-08
2.95296e-08
2.84043e-08
2.58818e-08
2.54629e-08