/*--------------------------------*- C++ -*----------------------------------*\
| =========                 |                                                 |
| \\      /  F ield         | OpenFOAM: The Open Source CFD Toolbox           |
|  \\    /   O peration     | Version:  2.1.1                                 |
|   \\  /    A nd           | Web:      www.OpenFOAM.org                      |
|    \\/     M anipulation  |                                                 |
\*---------------------------------------------------------------------------*/
FoamFile
{
    version     2.0;
    format      ascii;
    class       volScalarField;
    location    "0.007150000";
    object      k;
}
// * * * * * * * * * * * * * * * * * * * * * * * * * * * * * * * * * * * * * //

dimensions      [0 2 -2 0 0 0 0];

internalField   nonuniform List<scalar> 
12384
(
51.9764
100.344
132.278
164.078
195.664
224.705
245.572
253.095
247.879
230.561
203.709
161.161
103.347
43.4353
161.025
234.054
280.298
306.16
321.423
336.666
356.062
383.122
414.199
447.232
473.432
503.868
557.29
663.317
833.367
1037.97
1271.79
1505.45
1701.42
1808.65
1817.59
1689.97
1588.54
1481.58
1355.71
1192.02
971.289
669.356
295.569
95.9708
315.041
419.386
497.298
542.411
570.109
590.926
616.959
650.113
696.224
739.178
809.358
918.713
1090.4
1378.93
1749.77
2172.71
2615.73
3015
3290.08
3347.67
3140.16
2790.73
2516.57
2277.58
2033.45
1752.86
1397.13
932.122
391.603
195.516
383.096
513.3
664.424
841.725
1026.3
1195.95
1347.28
1494.12
1647.58
1802.73
1828.69
1826.65
1828.38
1885.46
2038.65
2375.53
2869.61
3472.2
4141.57
4786.88
5266.83
5423.78
5121.71
4677.28
4256.3
3750.49
3037.3
1971.66
810.075
403.686
636.941
1014.31
1300.38
1494.37
1710.82
2032.35
2541.9
3201.19
4040.69
4984.55
5941.48
6785.8
7350.96
7492.25
7205.01
6652.24
6196.7
5753.93
5268.01
4634.02
3764.55
2553.38
1185.87
423.399
322.398
322.017
341.277
343.244
327.327
281.049
209.571
302.179
366.623
406.242
447.021
512.528
614.525
752.791
919.774
1107.36
1283.83
1459.16
1666.8
1946.36
2311.81
2776.43
3281.93
3805.57
4270.9
4568.48
4588.73
4203.37
3760.94
3308.45
2843.07
2318.04
1677.21
953.094
433.558
346.669
141.404
197.907
283.034
418.292
612.846
853.368
1130.76
1396.45
1686.44
2111.64
2615.02
3197.13
3853.43
4528.54
5142.04
5570.08
5689.05
5382.71
4821.92
4348.33
3848.53
3310.49
2693.01
1936.49
1035.54
405.149
297.866
268.333
267.392
311.555
167.251
257.831
519.709
947.404
1551.61
2265.23
3136.36
4086.35
5025.35
5909.4
6411.94
6713.83
6339.63
5916.89
5446.99
5029.52
4503.66
3917.99
3206.85
2382.86
1436.97
725.476
443.446
359.084
340.599
345.562
339.422
318.223
301.333
291.862
337.558
961.301
2176.23
3379.1
4560.6
5593.48
6450.65
6917.44
6962.05
6349.45
5643.86
5052.61
4564.92
4073.07
3496.56
2806.83
2039.58
1334.2
889.224
604.731
449.641
394.891
404.436
411.102
383.161
336.768
281.906
235.631
198.295
176.641
253.469
418.582
1028.38
2023.15
3210.59
4469.91
5665.55
6624.76
7092.87
6960.46
6007.66
5189.41
4855.62
4567.4
4230.92
3768.36
3172.42
2508.87
1882.77
1358.31
912.904
607.301
480.404
471.747
477.996
448.056
402.921
365.925
347.869
351.334
443.218
1280.54
3069.59
4971.79
6431.21
7315.38
7512.76
6871.99
5296.11
4339.07
3753.97
3346.81
2970.33
2536.86
2156.42
1895.82
1641.09
1369.63
1109.31
911.109
817.104
765.538
735.755
682.872
626.747
563.178
513.416
476.58
441.541
406.871
158.566
167.539
296.303
547.714
884.301
1239.41
1583.5
1919.44
2261.55
2629.28
2712.85
2576.22
2293.33
1954.95
1620.89
1318.29
1097.94
972.935
942.198
968.247
1022.73
1063.53
1031.2
997.338
982.318
974.508
945.689
861.78
693.675
444.976
56.3371
85.3227
71.2747
50.9309
41.8054
98.5209
459.491
1075.71
1605.93
1998.64
2312.54
2593.88
2894.03
3265.42
3389.96
3204.66
2837.17
2353.62
1861.13
1390.86
988.121
729.884
551.709
416.9
320.459
243.321
172.908
103.913
45.3929
10.4157
98.9007
78.0235
108.171
155.445
210.115
268.313
322.526
362.5
381.121
369.37
328.483
260.673
180.068
128.016
170.846
207.422
277.053
364.701
469.254
573.722
645.278
663.205
618.986
541.693
474.406
461.697
535.73
743.776
1074.32
1558.36
2201.85
2978.79
3822.99
4614.54
5200.69
5466.55
5367.07
4941.01
4254.83
3382.93
2429.89
1525.76
779.848
416.033
403.939
707.228
1049.16
1349.8
1556.56
1639.9
1607.02
1448.56
1243.43
1071.14
977.898
999.385
1201.51
1687.57
2434.12
3478.35
4806.75
6360.59
7988.23
9448.31
10450.7
10813.8
10494.9
9560.78
8097.76
6253.45
4247.74
2425.87
1088.97
649.978
611.122
1177.4
2179.28
3370.22
4498.26
5378.21
5905.97
6003.95
5594.88
4790.38
3847.18
2979
2326.45
1951.5
1883.04
2243.27
3057.45
4302.09
5964.56
7953.04
10055.6
11931.5
13209.9
13574
12924.7
11364.7
9018.14
6116.22
3212.61
1417.5
450.84
486.727
511.344
672.083
998.176
1607.35
2646.99
4292.57
6667.58
9776.3
13548.8
17773.3
22064.6
25832.6
28470.1
29506.2
28856.6
26768.8
23422.8
19245.9
14599.2
9772.2
5461.74
2354.11
630.086
245.498
245.584
251.885
265.135
366.645
245.412
406.772
675.696
1044.98
1476.04
1888.01
2198.67
2356.94
2334.88
2164.94
1966.82
1817.05
1794.14
1947.47
2394.32
3126.81
4185.81
5589.47
7261.33
8993.87
10535.9
11540.6
11753.5
11218.1
10033.6
8296.76
6111.83
3730.45
1636.23
659.736
189.75
558.006
888.502
1175.58
1354.49
1408.58
1438.97
1523.71
1771.64
2348.83
3320.25
4768.5
6790.87
9364.3
12348.8
15398.5
18095.5
19992.9
20680.3
20107.6
18448.7
15935.6
12701
8935.05
5151.32
2151.05
524.677
145.38
201.071
383.634
230.052
242.798
465.706
1004.62
2076.57
3759.27
6087.6
8965.5
12372.9
16071.9
19734
22849.1
25020.4
25743.2
24972.8
23131
20191.9
16623.8
12576.4
8365.2
4563.42
1890.26
640.082
438.037
442.202
400.356
349.434
280.271
226.521
335.622
472.703
1638.37
3792.44
6552.59
9784.18
13404.8
17352.5
21169.5
24327.8
26171.2
26383.9
25064.2
22465
18890.4
14597.9
9974.07
5866.92
2880.81
1184.81
676.739
628.202
607.652
551.114
519.28
476.867
405.53
318.81
240.819
184.402
221.948
259.491
1035.39
2794.72
5129.75
8113.77
11891.4
16494.6
21740.6
27169.6
32117.7
35760.1
37259.9
36428.6
33551.6
28902.1
22656.9
15242.6
8384.9
3769.7
1544.77
826.234
685.298
655.813
593.637
548.058
481.792
382.028
286.029
231.776
365.175
362.418
1995.75
5033.34
8751.61
12223.8
15381.7
18248
20532
21683.5
21137.6
18962
15263
10508.5
5874.89
2602.55
1289.65
1223.62
1371.09
1455.01
1423.18
1307.53
1150.92
988.361
821.408
662.111
496.971
374.754
303.079
286.547
400.808
252.023
545.922
1689.03
3230.72
4811.19
6147.51
7075.42
7528.63
7471.57
6929.41
6046.68
4982.17
3906.17
2945.35
2168.89
1603.87
1252.96
1149.74
1269.66
1577.68
2046.29
2605.29
3119.16
3379.93
3313.64
2959.55
2366.24
1641.43
961.995
677.347
130.217
186.229
164.609
153.806
227.255
827.486
2346.16
4579.24
7016.17
9212.03
10906.8
11898.1
12089
11409.6
10022.5
8221.68
6325.11
4587.33
3138.95
2024.8
1237.28
756.091
552.948
473.591
443.846
404.025
340.37
242.189
128.131
19.9882
147.258
122.486
167.839
227.752
285.885
337.517
380.534
408.107
420.696
412.764
381.223
324.798
250.855
186.627
189.294
237.12
296.23
377.075
464.01
530.078
554.525
537.24
500.193
483.691
536.544
685.785
958.831
1336.64
1808.96
2371.01
2986.98
3631.83
4272.45
4856.82
5287.14
5503.02
5461.8
5184.79
4693.95
4000.67
3138.51
2183.05
1276.94
715.092
443.953
827.584
1013.82
1111.86
1128.52
1095.91
1045.34
1005.73
1007.04
1073.31
1227.8
1503.13
2039.7
2863.19
3896.02
5013.79
6133.5
7254.61
8345.22
9334.78
10096.9
10485.5
10403.5
9899.87
8993.2
7644.13
5843.99
3803.08
1978.01
1102.31
767.55
1651.13
2629.95
3513.46
4108.67
4397.21
4433.05
4239.01
3860.06
3414.48
3036.91
2797.13
2702.71
2756.36
3027.14
3763.65
4992.92
6589.6
8347.13
10101.5
11728.1
13070.1
13931.2
14124.4
13685.8
12675.7
10993.8
8493.93
5339.48
2482.85
459.198
411.779
484.57
817.811
1512.18
2631.55
4392.97
6792.78
9647.65
12744.2
15974.9
19259
22472.3
25312.1
27454.5
28543
28299.1
26917.4
24546.5
21594.7
17999.3
13781.3
9247.94
5118.54
2082.75
538.431
227.954
265.597
331.448
435.922
278.917
462.103
661.25
934.647
1231.26
1485.93
1668.43
1775.02
1830.43
1886.13
2015.58
2243.99
2608.94
3125.57
3881.91
4727.29
5649.68
6655.1
7735.21
8830.79
9837.11
10595.8
10877.6
10694.2
10137.5
9188.56
7670.58
5484.23
2990.58
1254.03
228.639
779.706
976.777
1142.57
1297.81
1470.71
1756.98
2199.91
2898.99
3901.55
5154.78
6555.25
8107.52
9834.75
11748.4
13720.7
15566.2
17014.7
17770.6
17580.1
16773.6
15468.6
13658.1
11116.2
7792.91
4301.11
1646.92
403.102
178.443
405.992
301.243
355.462
745.891
1817.88
3744.51
6228.58
9006.41
11823.9
14721.7
17562.5
20325.2
22680.9
24506.6
25305.6
25031.2
23730.2
21689.4
19057.1
15853.3
11982.2
7796.73
4088.09
1617.38
538.578
289.337
292.756
364.45
336.708
258.118
363.396
1029
3758.63
7372.28
11014.7
14272.6
17123.2
19758
22123
24094.6
25420.9
25597.7
24782.5
23181
20996.3
18064.5
14205
9754.77
5652.57
2691.95
1107.9
578.842
447.787
499.157
658.54
709.371
626.893
496.183
370.516
272.903
262.089
343.441
2361.01
4873.29
7836.64
11096.9
14533
18153.9
21984.5
25888.7
29571.9
32576.5
34458.5
34826
33918.2
31757.9
28028.2
22141.3
14890.2
8218.79
3748.71
1566.64
761.979
506.297
515.963
659.288
678.84
550.034
397.563
294.242
394.42
657.627
4414.85
10266.9
16146.1
20017.3
22032.9
23031.7
23585.4
23684.4
23121.1
22022.5
19821.5
15877.2
10529.7
5421.01
2217.12
1263.74
1264.9
1355.52
1436.8
1501.18
1540.73
1514.33
1374.11
1109.73
754.111
454.466
278.934
254.432
437.831
448.637
1372.07
3061.15
4825.15
6291.35
7326.43
7943.64
8205.01
8125.51
7678.18
6940.87
6035.37
5082.15
4153.91
3308.72
2603.16
2088.79
1813.95
1735.31
1720.83
1730.27
1806.4
1984.98
2210.31
2371.48
2392.04
2195.86
1752.44
1164.34
816.201
186.884
218.299
135.906
202.332
739.482
2111.24
4333.3
6892.02
9220.86
11038
12316.2
13057.2
13245.6
12792.5
11760.2
10350.8
8760.29
7087.42
5372.93
3707.26
2252.56
1200.7
613.325
336.601
214.464
158.465
138.936
120.748
83.4339
10.7127
182.091
177.561
237.792
306.345
361.716
398.153
419.699
429.667
433.872
433.17
422.813
397.365
352.088
244.662
219.357
301.908
331.445
385.369
438.83
460.38
445.436
413.258
405.232
475.673
671.412
1009.17
1472.26
1998.01
2579.55
3165.35
3669.43
4061.76
4355.82
4601
4810.03
4971.45
4989.35
4881.6
4647.05
4243.89
3631.94
2798.82
1856.81
990.416
478.215
1002.12
991.161
884.527
751.261
659.614
642.932
715.032
882.717
1158.81
1559.96
2130.41
2999.76
4200.69
5469.48
6485.31
7143.74
7566.64
7888.54
8219.29
8584.24
8912.09
9076.64
9061.02
8814.56
8186.03
6957.42
5097.62
3035.83
1522.49
893.516
2168.18
2906.52
3328.12
3376.69
3181.01
2887.79
2583.62
2372.06
2349.79
2533.49
2891.71
3332.03
3801.69
4399.94
5476.67
7156.91
9033.37
10640.2
11770.7
12483.1
12925.8
13228.8
13295
13150.4
12824.6
12110.1
10542.5
7748.07
3414.62
621.639
445.947
540.735
1090.69
2162.62
3838.9
6334.62
9373.66
12349.8
14831.7
16785
18432.8
19982.9
21468.6
22774.4
23760.8
24087.9
23713
22718.6
21205
19093.7
16193.5
12297.6
7880.84
3911.65
1342.9
322.585
258.236
372.967
483.704
321.266
574.026
669.967
819.186
972.244
1078.82
1143.96
1208.2
1336.45
1596.56
2045.15
2693.37
3525.17
4524.06
5620.91
6576.87
7254.46
7674.42
7933.98
8174.4
8459.48
8799.45
9062.83
9199.84
9238.95
9091.77
8442.2
6846.56
4351.56
1787.26
280.756
1150.39
1103.13
1094
1207.31
1500.19
2084.57
2967.77
4208.79
5674.52
7175.45
8411.87
9313.05
9993.57
10616.1
11311
12071.7
12814.6
13389.5
13598.8
13573
13344.6
12892.4
11783.3
9483.06
6147.58
2880.37
915.985
255.307
398.38
371.657
478.871
1155.98
2912.69
5587.93
8492.78
11150.4
13294.2
15082.3
16603.2
18058.4
19295
20496.4
21289
21546.5
21154.5
20280.1
19015.9
17161.1
14443
10734.8
6629.99
3213.05
1171.58
380.67
291.142
421.597
400.304
286.831
380.817
1965.4
6870.44
11271.4
14618
16684.1
17774.5
18401.2
18929.3
19476
20122.4
20549
20625.8
20394.9
19884.1
18814.3
16608.5
12949.4
8578.86
4730.82
2178.89
927.162
533.942
666.489
962.804
1040.13
903.464
713.739
550.462
435.692
300.139
518.715
3669.66
6792.73
10328.9
13711.3
16443.3
18523
20268.8
22042.7
23930.2
25961.5
27914.4
29201
29889.3
30000.7
28952.4
25767.4
20056.3
13133.1
7148.76
3369.13
1494.18
754.743
726.204
957.308
959.865
742.634
519.129
380.048
426.87
1876.2
8902.57
17682.7
23953
25961.6
25062.7
23155.9
21610.6
20994.4
20888.4
21200.8
21148.3
19349.2
14917.7
9050.62
4256
1916.81
1432.54
1391.26
1538.98
1811.93
2116.66
2302.32
2246.2
1881.2
1295.69
726.314
356.172
264.794
480.878
721.901
2389.26
4390.12
6058.92
7147.97
7751.24
8028.61
8101.78
7980.73
7641.85
7192.37
6636.89
5977.67
5215.93
4390.12
3594.57
2973.93
2596.61
2385.61
2105.75
1699.79
1313.06
1123.95
1208.44
1472.75
1769.73
1930.02
1801.22
1385.14
920.792
226.615
228.92
157.025
491.814
1591.56
3601.15
6212.5
8642.95
10440.2
11583.2
12264
12605.2
12658.3
12353.7
11859.9
11236.9
10408.8
9245.44
7622.47
5596.91
3504.24
1835.9
826.411
347.143
145.839
66.7263
51.7066
57.7285
53.5479
4.0806
205.482
237.768
313.603
387.342
431.07
440.925
429.677
414.196
410.507
423.051
448.226
474.818
481.656
299.857
254.423
391.073
376.446
389.171
402.805
386.464
345.368
314.04
345.003
502.139
842.169
1359.94
1968.88
2621.06
3295.62
3878.06
4212.49
4268.38
4133.71
3973.18
3903.94
3964.02
4072.34
4198.43
4273.8
4228.23
3959.98
3374.89
2517.23
1235.63
494.082
1213.38
1028.86
746.583
496.429
368.318
377.722
524.921
819.89
1281.01
1919.78
2750.9
3929.09
5483.71
6888.98
7619.33
7639.52
7239.36
6740.85
6396.09
6318.51
6549.86
6985.36
7518.56
7987
8163.28
7683.67
6270.62
4232.85
1897.26
983.212
2736.66
3155.04
3119.89
2716.71
2170.86
1674.13
1349.55
1334.48
1676.75
2343.22
3213.74
4095.11
4871.37
5669.25
7075.41
9198.3
11200.9
12328.8
12447.3
11917.7
11263.8
10925.2
10988.4
11455
12155.9
12732.5
12483.9
10556.4
4183.23
892.111
492.967
626.537
1402.41
2833.49
5028.73
8202.69
11702.8
14431.5
15835.6
16110.6
15848.9
15599.9
15625.5
16027.3
16796.3
17683.9
18443.3
18941.5
19001.3
18482.9
17087.7
14267.6
10149.1
5676.56
2304.9
573.444
253.051
390.476
529.162
364.369
719.709
715.901
749.402
784.562
780.039
757.267
784.873
950.372
1352.19
2058.61
3093.76
4387.42
5875.99
7296.35
8324.99
8682.96
8408.9
7743.84
7032.29
6541.7
6436.7
6713.96
7243.92
7940.04
8606.61
8838.32
7977.18
5701.51
2167.01
341.241
1675.46
1280.53
1046
1093.57
1492.74
2375.41
3710.44
5446.5
7325.32
9016.39
10017.5
10222.5
9853.9
9207.06
8601.85
8248.79
8243.95
8607.65
9229.96
9965.66
10748.9
11467.8
11623.8
10380.8
7450.45
3884.45
1417.86
403.452
401.671
462.135
615.003
1684.82
4071.58
7214.55
10139.7
12248.8
13366.3
13752.8
13787.8
13769.3
13868.6
14304.4
15035.7
15846.6
16551.9
17126.1
17371
17055.2
15764.8
12989.6
9000.57
4939.87
2071.15
717.184
426.084
509.274
455.509
313.749
397.624
3114.68
10323.8
14566.8
16780.4
17134
16299
15024.6
13928.8
13293.7
13256.9
13829.4
14771
15872
16936.9
17640.2
17206.6
14830.1
10829
6585.59
3346.76
1467.65
808.152
938.035
1241.21
1250.15
1031.76
810.768
694.102
651.239
339.494
895.648
4745.91
8453.32
12568.3
16014.9
17876.5
18172.5
17633.5
17096
17084.4
17871
19472
21584.6
23716.5
25674.9
26832.9
26317.5
22910.2
16991.2
10512.4
5547.35
2625.55
1314.97
1082.99
1221.53
1114.34
804.994
557.608
450.994
458.113
4966.4
15685.7
25216.7
29196.2
27703
23491.1
19070
16051
14988.5
15757.3
17835.7
20192.8
21043.3
18484.6
12805.8
6873.9
3166.4
1923.24
1594.42
1716.37
2158.94
2737.97
3199.82
3324.2
2965.32
2200.27
1301.94
604.107
323.826
512.295
998.747
3548.21
5655.69
7005.7
7542.84
7560.29
7340.92
7082.94
6872.24
6735.6
6720.91
6679.77
6470.43
5990.35
5257.51
4401.29
3691.56
3282.52
3022.09
2585.57
1885.65
1137.24
637.72
570.255
877.428
1352.27
1750.96
1838.69
1587.19
985.634
255.361
240.385
269.179
917.003
2521.58
5014.51
7730.39
9739.09
10754.2
11017.5
10862.5
10578
10326.1
10193.4
10334.7
10661.2
10862.3
10550.4
9388.52
7306.83
4741.79
2517.36
1101.44
421.151
154.807
53.9519
30.55
36.0906
40.8135
1.88459
217.237
298.755
388.727
458.057
476.508
448.261
398.957
358.932
349.139
385.388
464.039
561.076
639.376
351.336
288.048
491.699
430.804
392.718
366.071
321.45
267.994
243.471
307.747
541.542
1007.82
1653.89
2373.54
3122
3881.83
4446.54
4581.76
4249.28
3641.59
3057.6
2699.88
2666.4
2906.57
3310.47
3736.86
4080.15
4195.81
3921.82
3218.8
1415.27
490.96
1404.79
1125.96
723.913
382.395
221.263
235.935
421.961
804.521
1405.46
2215.13
3224.48
4663.13
6502.19
7921.96
8247.14
7595.12
6439.8
5251.52
4359.88
3927.45
4082.48
4766.6
5785.67
6918.74
7863.85
8160.83
7338.01
5514.94
2186.09
996.367
3267.11
3394.92
2992.31
2264.38
1502.01
921.84
634.83
774.274
1397.53
2443.53
3668.17
4790.85
5664.41
6560.08
8266.8
10803.4
12735.1
13086.2
11948.3
10067.9
8334.08
7424.08
7716.32
9091.99
11092.9
13181.7
14444.5
13667.4
4679.54
1178.04
529.013
719.051
1704.85
3437
6069.72
9826.16
13604
15841.4
16006.1
14615.3
12628.3
10867.8
9703.98
9329.2
9848.34
11117.3
12744.9
14476.6
15962.2
16920.9
16930.8
15288.7
11757
7112
3158.46
872.248
267.577
399.604
583.704
408.083
860.689
791.494
741.403
694.017
619.742
540.924
536.326
707.178
1178.99
2053.36
3373.43
5044.3
6904.62
8610.5
9681.22
9714.93
8753.5
7196.74
5583.12
4385.51
3919.61
4309.79
5321.35
6698.65
8143.19
9174.49
8999.25
6940.14
2306.44
399.442
2298.15
1486.57
991.154
955.051
1431
2569.92
4282.45
6368.12
8569.45
10418
11208.6
10824
9582.5
7893.68
6193.45
4860.22
4208.95
4428.22
5411.62
6801.02
8417.25
10044.3
11162.1
10738.4
8191.94
4489.57
1724.73
519.26
417.699
620.098
768.965
2246.58
5085.42
8470.13
11193.5
12602.1
12661.7
11756.9
10494.4
9177.5
8269.93
7978.91
8463.37
9758.45
11469.6
13291.1
14973.1
16128.3
16234.4
14475.5
10807.3
6334.95
2835.88
1064.28
596.23
580.765
483.56
334.641
421.49
4361.03
13269
16847.9
17816.1
16619.1
14232.9
11510.2
9223.06
7691.56
7186.67
7825.6
9323.9
11324.3
13556.8
15581.5
16603.1
15469.4
12120.4
7850.62
4148.4
1823.35
978.417
1055.94
1286.45
1185.64
892.488
721.271
767.196
891.125
354.76
1612.3
5518.46
9753.42
14418.2
17933.3
18949.9
17565.5
14936.7
12324.2
10625.7
10275.2
11483.3
13963.8
16964.1
20364.2
23236.9
24782.2
23428.3
18977.6
12822.7
7272.04
3589.03
1770.61
1267.9
1238.41
1020.74
682.803
501.495
492.391
486.242
8539.92
23477.8
30791.4
30841.1
25883.6
19280.3
13595.8
9991.16
8917.41
10517.6
14018
18402.6
21766
21360.5
16398
9682.93
4844.28
2733.11
1948.97
1893.94
2367.61
3124.58
3848.07
4247.98
4088.52
3338.04
2208.23
1121.28
513.449
564.455
1203.97
4773.27
6847.65
7741.19
7605.83
6912.05
6033.15
5290.38
4929.51
5053.27
5570.94
6161.66
6508.82
6395.14
5805.67
4896.8
4088.99
3669.28
3452.76
3031.7
2232.35
1299.57
587.435
351.457
665.292
1221.85
1714.08
1874.59
1703.31
997.072
286.143
261.512
407.205
1333.8
3355.76
6187.27
8819.29
10261.1
10398.5
9713.81
8646.63
7624.4
6983.02
7016.88
7769.05
8987.97
10223.7
10872.2
10408.3
8573.65
5755.04
3101.17
1352.33
505.981
185.148
66.444
32.049
33.3351
38.6226
1.26197
220.511
356.93
455.739
507.966
491.088
420.572
335.996
273.402
263.291
333.743
481.002
661.954
812.136
387.574
317.719
585.589
502.618
413.89
344.385
275.107
213.346
195.99
284.012
576.371
1125.47
1836.65
2620.3
3433.1
4276.09
4827.99
4778.61
4078.72
3043.21
2094.31
1509.57
1416.3
1800.6
2474.7
3234
3943.7
4428.35
4462.03
3894.52
1468.19
505.172
1505.51
1212.83
793.773
415.093
209.898
206.271
404.321
824.545
1484.36
2353.8
3454.28
5072.71
7113.44
8452.37
8367.58
7168.48
5474.29
3834.65
2574.88
1933.69
2086.12
2972.44
4352.46
5999.64
7577.55
8540.97
8287.95
6745.91
2317.72
913.747
3628.59
3590.23
2972.67
2058.3
1189.4
600.951
388.373
682.765
1535.83
2775.29
4082.82
5183.13
5984.22
6874.33
8855.55
11760.8
13452.9
12926.4
10586.9
7552.79
4993.9
3756.42
4549.28
6920.69
10210.3
13760.2
16450.6
16778.9
4702.24
1395.17
556.332
815.306
1973.77
3925.48
6877.76
11063
14981.9
16700.4
15792.9
13093.1
9885.89
7078.47
5094.15
4146.04
4456.6
5926.01
8081.69
10594.7
13071.3
15141.1
16289.8
15680.4
12770.9
8102.22
3739.06
1075.26
287.577
413.374
665.994
456.129
957.626
876.195
789.698
698.1
585
474.928
443.563
596.696
1074.34
2008.17
3471.75
5354.9
7445.85
9385.64
10497.4
10284.3
8765.77
6507.12
4194.74
2473.54
1837.6
2445.24
3951.36
5945.52
8071.05
9705.72
9977.99
7852.6
2127.06
447.479
2931.5
1686.22
923.133
800.65
1316.87
2620.02
4552.68
6805.15
9221.2
11228.9
11915.9
11162.6
9377.87
7046.36
4648.92
2644.84
1605.56
1792.28
2986.19
4749.21
6900.4
9125.29
10803.1
10797.3
8455.88
4656.74
1797.19
582.165
450.188
864.668
955.024
2784.48
5896.71
9411.65
11922.3
12752.8
12003.8
10181.2
8024.6
5814.24
4133.42
3198.75
3521.67
5109.68
7390.87
10089.7
12791.5
15065.4
16247.2
15259.1
11857.2
7084.61
3197.05
1227.97
659.175
576.116
475.009
392.992
517.347
5608.28
15058.2
18021.5
18145.5
15937.3
12552.5
8931.47
5882.58
3763.91
2899.07
3589.49
5414.51
7946.48
10856.3
13686.1
15634.3
15386.3
12617.3
8369.04
4371.38
1799.02
882.343
944.876
1134.66
973.952
674.686
653.069
899.995
1153.47
376.88
2664.77
5946.5
10552.7
15701.5
19374.9
19817.9
17209
13061.2
8935.45
5943.73
4625.72
5398.09
7911.13
11318.3
15350.7
19211.8
22158.5
22337.2
19235.9
13757.7
8083.68
3973.5
1791.42
1104.61
1051.93
895.365
686.754
583.383
595.34
554.732
11887.3
29754.8
32899.3
29450.4
22290.3
14675.5
8681.91
5123.08
4434.95
6741.43
11203.9
17065.6
22374
23842
19602.5
12318.8
6708.31
3774.37
2429.18
2030.17
2325.38
3085.23
3970.07
4664.06
4888.05
4431.2
3328.92
1957.55
935.147
716.958
1305.47
5939.24
7916.31
8356.45
7557.95
6149.45
4607.91
3330.09
2701
3030.19
4068.62
5289.62
6189.01
6436.49
6006.52
5030.35
4092.54
3651.76
3541.9
3287.15
2619.25
1757.75
1024.84
684.526
898.114
1368.45
1765.35
1864.77
1678.59
982.094
326.573
278.067
512.183
1640.45
3970.56
7030.49
9520.58
10425
9783.73
8268.33
6407.05
4743.45
3718.48
3827.81
5044.09
6945.58
8993.75
10449.4
10670.8
9256.18
6407.57
3487.17
1513.92
564.578
213.755
89.3947
45.9161
43.3007
46.5109
1.72962
217.008
402.13
502.042
531.584
479.768
373.273
263.932
189.878
186.426
296.125
516.717
776.983
972.225
407.248
353.659
651.45
581.624
460.884
345.278
251.3
182.777
169.863
272.259
593.551
1161.49
1877.61
2665.18
3509.44
4433.63
5008.27
4847.88
3896.78
2580.4
1395.72
665.503
546.6
1048.99
1910.61
2928.7
3942
4731.39
4995.94
4421.9
1394.47
529.627
1484.25
1248.35
912.833
583.18
354.713
305.051
471.554
860.287
1476.71
2302.9
3389.55
5096.92
7256.08
8496.59
8111.03
6599.12
4670.96
2856.59
1424.31
724.822
933.933
1907.13
3478.7
5468.19
7480.34
8914.96
9103.52
7799.82
2257.18
857.369
3744.69
3667.92
3005.76
2083.38
1243.3
708.37
599.776
1038.76
1986.34
3178.66
4318.11
5186.68
5758.63
6564.71
8789.75
12002.1
13421.8
12187.6
9035.87
5335.06
2432.24
1291.02
2610.93
5667.19
9925.1
14626.2
18405.4
19496
4018.52
1532.96
625.071
945.239
2196.99
4260.42
7368.06
11767.7
15752.9
17160.1
15600.7
12171.1
8353.78
5035.06
2593.64
1304.17
1516.65
2962.86
5217.68
8029.36
11038.4
13784.4
15685.8
15796.3
13356.3
8646.28
4012.76
1162.37
311.662
453.619
742.192
517.175
992.727
930.677
865.119
773.375
650.482
526.765
475.905
603.284
1038.49
1918.93
3344.28
5241.86
7425.34
9528.5
10738.9
10439.3
8634.29
6032.24
3365.8
1405.64
795.464
1650.53
3577.4
6081.62
8701.57
10546.1
10755.6
8256.98
1934.52
455.927
3517.8
1864.51
849.308
640.371
1155.4
2498.27
4451.98
6704.84
9219.57
11389.5
12146.4
11314.6
9412.03
6926.32
4328.03
2092
903.907
1034.93
2224.89
4133.72
6568.52
9033.67
10778.7
10682.4
8221.15
4337.6
1634.22
597.859
554.451
1205.31
1363.65
3391.81
6607.92
10206.2
12616.3
13161.4
12015
9725.44
7145.16
4469.17
2355.06
972.955
1122.88
2674.61
5101.02
8190.27
11458.1
14398.7
16132
15462.1
12073.6
7065.14
3061.7
1105.42
546.957
588.242
652.15
783.668
949.728
6875.06
15272.8
18030.3
17955.6
15424.9
11712.1
7824.9
4482.66
2064.64
931.014
1594.47
3506.22
6229.37
9446.09
12675.3
14957.8
15071.3
12587.2
8335.85
4136.54
1512.34
693
901.984
1195
1114.93
939.507
1023.78
1308.15
1475.6
510.427
3846.57
6140.12
10834.8
16275.4
20211.8
20564.6
17411.8
12524.3
7611.91
3864.17
1820.06
1998.77
4109.09
7455.67
11526.9
15745.6
19322.7
20354.9
18283.6
13515.8
8012.43
3780.32
1500.63
991.158
1177.84
1309.16
1318.96
1222.2
1142.67
1044.22
14075.2
31426.6
31447
26387.4
18616.8
11144.7
5418.29
2167.93
1937.08
4768.19
9943.17
16819.9
23333.6
25858.9
22031.1
14639.8
8454.32
4859.97
2954.48
2092.35
1997.51
2517.26
3394.58
4318.94
4995.11
5074.74
4339.24
2959.51
1557.77
831.324
1235.22
6852.93
8746.04
8878.63
7588.52
5633.93
3596.08
1954.88
1072.15
1427.08
2796.34
4463.67
5750.36
6240.32
5906.56
4843.28
3738.46
3236.66
3259.41
3269.13
2916.88
2319.19
1749.1
1413.66
1430.52
1655.68
1818.37
1755.98
1502.41
938.281
392.096
283.183
552.733
1783.83
4306.28
7534.15
9913.25
10439.6
9284.58
7210.86
4864.09
2797.09
1495.35
1563.19
3035.23
5313.35
7788.57
9715.84
10401.5
9379.58
6656.05
3632.49
1559.31
578.348
228.135
112.455
72.1572
72.9285
77.6738
8.26428
209.026
425.54
522.367
530.464
453.188
324.193
206.674
140.473
155.692
302.047
579.126
883.519
1079.59
866.374
575.901
554.67
590.988
690.042
656.798
536.66
387.187
262.155
182.584
170.738
278.031
587.612
1112.52
1766.26
2505.42
3355.58
4337.64
4975.96
4820.9
3825.94
2461.17
1224.58
432.537
267.896
795.697
1734.15
2907.54
4127.22
5105.65
5469.26
4789.86
2701.68
731.591
637.27
902.536
1205.52
1080.79
908.469
720.545
559.304
493.019
594.988
888.59
1380.86
2065.55
3049.17
4753.23
6949.26
8149.5
7652.38
6124.2
4288.58
2594.82
1237.32
546.888
731.571
1667.43
3282.94
5415.39
7606.02
9226.28
9595.93
8322.4
5069.48
1363.25
996.664
2090.94
3562.07
3555.44
3017.78
2260.97
1588.78
1195.29
1233.93
1740.68
2587.75
3523.82
4304.79
4785.47
5031.78
5722.02
8153.99
11568.3
12863.8
11336.6
8033.36
4359.6
1699.11
939.599
2393.91
5690.44
10445.7
15759.7
19996.1
21138.5
9398.1
1260.05
1374.44
2021.36
824.452
1142.11
2398.2
4424.86
7450.62
11774.7
15765.7
17231.9
15610.4
12144.9
8335.05
5009.83
2474.13
1004.41
972.249
2157.45
4233.16
7033.29
10188.1
13232.8
15419.6
15809.6
13514.4
8710.5
4004.04
1214.62
446.634
605.889
839.549
738.326
701.957
784.429
882.049
904.201
921.277
886.336
792.966
675.047
607.218
691.592
1042.77
1777.14
3010.19
4762.88
6914.66
9094.1
10455.8
10244.7
8555.27
6102.29
3584.15
1742.79
1233.33
2280.11
4486.53
7274.71
9977.77
11490.1
11024.2
7824.5
3283.51
1012.14
884.916
2193.42
3656.21
1886.1
795.598
559.053
1017.3
2235.94
4014.85
6119.47
8604.16
10899.7
11895.3
11310.1
9728.76
7582.6
5276.71
3254.99
2052.79
2088.25
3210.7
5085.44
7418.86
9639.21
10918
10313.7
7543.37
3830.68
1466.26
806.66
1097.51
1365.74
1673.99
2155.33
2380.59
4274.43
7377.98
10894.5
13275.2
13891.9
12815.2
10606.3
8059.41
5344.96
3128.24
1580.46
1468.28
2728.27
4962.5
7993.12
11295.5
14276.3
15923.1
15093.7
11485.5
6432.81
2580.79
914.352
913.375
1394.88
1849.06
2181.13
2374
2410.5
3620.15
8718.43
13680.6
16911.1
17399.9
15292
11956.4
8375.05
5232.16
2779.98
1528.63
1972.07
3755.56
6401.09
9577.58
12705.7
14784.4
14807.6
12247.8
7947.3
3793.86
1381.91
849.692
1249.6
1719.24
1964.16
2073.74
2242.81
2507.73
2658.22
2630.14
2642.25
3290.86
3508.28
6268.31
10730.6
16070.6
20180.5
20935.8
18087.4
13348.4
8426.76
4403.38
1898.4
1358.97
2801.5
5657.58
9379.5
13437.1
16999
18255.2
16707
12483.7
7357.79
3356.27
1514.87
1477.76
1973.52
2363.59
2499.74
2376.09
2115.68
1953.59
2727.55
4361.28
17394.7
26585.4
27374.8
22883.3
15991.5
9476.84
4501.05
1658.36
1705.51
4900.53
10517.2
17711.7
24363.7
26918.5
23413.8
16106
9698.2
5733.37
3407.17
2096.48
1525.91
1569.61
2194.92
3183.67
4254.96
4969.84
4833.1
3759.15
2167.47
951.732
599.919
780.859
3051.5
7297.25
9172.44
9234.75
7788.41
5595.23
3362.15
1638.03
766.574
1076.05
2397.16
4097.56
5438.62
5975.38
5604.68
4461.5
3190.67
2558.87
2655.6
2940.92
2977.74
2744.56
2430.14
2177.28
2038.5
1980.02
1866.09
1618.52
1300.4
984.058
548.476
483.312
388.559
338.692
562.146
1766.03
4315.3
7618.38
10012.6
10428.3
9135.01
6845.13
4339.32
2175.47
835.059
869.669
2355.59
4622.3
7086.31
9062.3
9887.75
9036.67
6497.43
3536.96
1493.7
551.923
232.101
136.307
116.545
130.778
135.434
74.83
19.7181
3.05044
199.45
418.941
514.254
514.902
428.078
293.7
181.171
132.248
176.806
354.05
648
944.399
1098.89
900.811
289.048
250.025
502.655
656.335
684.079
603.701
459.935
316.663
221.076
203.823
305.432
572.81
1003.15
1529.11
2164.8
2987.87
3998.03
4750.83
4747.83
3946.08
2773.45
1669.08
922.774
719.654
1134.86
2002.67
3176.17
4459.01
5499.19
5865.29
5005.4
2771.71
497.545
426.714
793.431
805.956
800.907
792.706
770.593
729.184
692.043
726.707
893.417
1214.28
1708.31
2519.94
4147.21
6312
7506.75
7151.22
5925.96
4461.97
3097.49
1977.51
1345.47
1440.21
2271.68
3766.35
5760.48
7803.36
9286.37
9576.29
8125.53
5052.11
790.245
499.896
2083.54
3020.48
3143
2853.27
2395.79
2009.77
1857.63
2037.45
2483.58
3090.88
3680.15
4030.9
4077.52
3990.18
4594.52
7181.75
10586.6
11942.8
10758.4
8077.83
5107.6
2990.6
2481.31
3849.58
6961.06
11572.3
16749.5
20772.4
21382.3
12524.1
870.957
970.787
1667.72
754.589
1114.58
2371.31
4237.07
6976.83
10965.5
14927.5
16795.5
15796.7
12977.6
9701.55
6760.64
4407.32
2936.16
2599.24
3450.84
5196.15
7647.18
10529.8
13360.4
15347.1
15589.9
13200.3
8522.26
4015.78
1329.39
501.58
551.992
709.702
580.476
554.32
649.155
708.565
840.245
966.041
1024.06
995.169
903.26
821.7
843.512
1075.08
1601.5
2540.89
4014.04
5985.55
8206.76
9809.4
9969.7
8808.57
6917.04
4921.99
3442.76
3184.79
4400.04
6680.91
9365.49
11609.2
12234.1
10597.5
6725.54
2803.83
908.094
1379.35
3828.77
3191.51
1628.09
707.544
522.149
910.421
1901.87
3348.51
5143.07
7466.77
9877.33
11274.2
11265.7
10334
8891.29
7246.42
5748.33
4815.54
4838.62
5757.54
7326.62
9160.63
10656.3
11061.3
9686.05
6649.05
3337.28
1470.21
1075.53
1381.53
1764.16
1990.92
1981.39
2405.13
4433.35
7543.08
11095.8
13771.6
14809.8
14252.8
12576.7
10491.7
8148.47
6141.87
4671.69
4352.95
5204.53
6980.15
9501.1
12256.1
14627.2
15596.8
14220.9
10397
5666.61
2352.24
1130.49
1177.84
1498.07
1758.8
1863.07
1808.28
1707.15
2558.74
7409.26
11804.9
15408.9
16749.1
15618.2
13158.5
10327.2
7731.1
5600.33
4497.66
4720.31
6119.94
8355.86
11049.6
13589.5
15011.6
14513.8
11700.5
7461.73
3613.86
1531.76
1111.21
1498.97
2063.37
2485.5
2729.14
2895.21
2972.55
2808.32
2317.28
1745.88
1911.64
3080.06
5731.92
9782.23
14728.4
19079.3
20695.5
18869.4
15008.2
10686.9
6943.45
4370.25
3384.74
4048.04
6050.88
8985.95
12359.6
15338.1
16400.4
14970.7
11181.8
6661.75
3212.81
1669.52
1502.83
1803.43
2085.69
2166.26
2038.33
1822.09
1814.47
2479.22
3976.91
13531.5
21328.4
23285.8
20280.1
15140.1
10182.5