/*--------------------------------*- C++ -*----------------------------------*\
| =========                 |                                                 |
| \\      /  F ield         | OpenFOAM: The Open Source CFD Toolbox           |
|  \\    /   O peration     | Version:  2.1.1                                 |
|   \\  /    A nd           | Web:      www.OpenFOAM.org                      |
|    \\/     M anipulation  |                                                 |
\*---------------------------------------------------------------------------*/
FoamFile
{
    version     2.0;
    format      ascii;
    class       volScalarField;
    location    "0.007150000";
    object      O;
}
// * * * * * * * * * * * * * * * * * * * * * * * * * * * * * * * * * * * * * //

dimensions      [0 0 0 0 0 0 0];

internalField   nonuniform List<scalar> 
12384
(
0.000959273
0.000951272
0.00094036
0.000925852
0.000916498
0.000895817
0.000897055
0.000892677
0.000907485
0.000898344
0.000897085
0.00091316
0.000919213
0.000928522
0.000391638
0.000460298
0.000471778
0.000467956
0.000460484
0.000454166
0.000438711
0.000443231
0.000460406
0.000483268
0.000515047
0.000527168
0.000525183
0.000518591
0.000517276
0.000510838
0.000505403
0.000504368
0.000495597
0.000492419
0.00048425
0.000474931
0.000465535
0.000460941
0.000445379
0.000428585
0.000417911
0.000429475
0.000437099
0.000312312
0.000274394
0.000181822
0.000146357
0.000119693
0.000109453
0.000104182
0.00010629
0.000110537
0.000107981
0.00011777
0.000136447
0.00015266
0.000162444
0.000182531
0.000200049
0.000214866
0.000224506
0.000228929
0.000230572
0.000231296
0.000227087
0.000220429
0.000215711
0.000207639
0.000192801
0.000179188
0.000141397
0.000122257
0.000230848
0.000288264
0.000142996
0.000119847
8.37185e-05
7.46362e-05
7.60361e-05
7.88995e-05
8.32424e-05
8.68017e-05
9.06839e-05
9.46805e-05
9.77711e-05
9.87841e-05
9.90868e-05
9.92446e-05
9.87663e-05
9.95998e-05
0.000101151
0.00010309
0.000104625
0.000105648
0.000107277
0.000110342
0.000119841
0.000117015
0.000121993
0.000123629
0.000126628
0.000120821
0.000125826
0.000126438
8.31555e-05
8.63273e-05
8.85026e-05
8.54903e-05
8.15523e-05
7.81696e-05
7.536e-05
7.32187e-05
7.17838e-05
7.07645e-05
7.23969e-05
7.49795e-05
6.67168e-05
7.14474e-05
6.43828e-05
6.92907e-05
7.13347e-05
6.77559e-05
7.1351e-05
7.46333e-05
7.92036e-05
8.509e-05
6.99017e-05
8.95146e-05
7.14855e-05
6.01477e-05
8.00494e-05
7.90636e-05
8.10706e-05
7.61993e-05
2.01681e-05
2.35965e-05
2.38204e-05
2.48602e-05
2.56525e-05
2.51188e-05
2.45906e-05
2.38802e-05
2.40482e-05
2.35336e-05
2.36749e-05
2.13068e-05
2.17991e-05
2.22311e-05
2.25766e-05
2.55251e-05
2.51024e-05
2.4239e-05
2.33365e-05
2.38457e-05
2.37653e-05
2.39732e-05
2.39213e-05
2.48215e-05
2.34493e-05
2.45032e-05
2.58329e-05
2.70379e-05
2.99493e-05
3.00352e-05
2.55722e-05
2.75534e-05
2.8132e-05
3.45782e-05
3.86164e-05
4.13904e-05
4.30893e-05
4.45319e-05
4.22911e-05
4.41223e-05
4.59404e-05
4.7151e-05
4.79118e-05
3.13321e-05
3.12128e-05
3.2308e-05
3.30829e-05
3.66467e-05
3.36794e-05
4.1826e-05
4.23412e-05
3.52648e-05
4.20817e-05
5.54125e-05
2.92901e-05
0.000215033
0.000234404
0.000230469
0.000227838
0.000225772
2.42216e-05
1.64195e-05
1.55314e-05
1.47482e-05
9.62492e-06
8.45211e-06
7.60094e-06
6.89769e-06
1.09035e-05
9.46926e-06
1.02421e-05
8.53394e-06
9.71497e-06
1.23714e-05
1.09847e-05
1.14517e-05
1.41057e-05
1.55672e-05
1.33414e-05
1.40479e-05
1.82056e-05
1.13075e-05
2.41807e-05
2.37896e-05
2.33911e-05
2.35376e-05
2.29482e-05
2.30162e-05
2.34763e-05
2.44289e-05
4.52033e-05
4.16215e-05
4.67016e-05
4.96969e-05
4.99997e-05
4.93113e-05
5.39065e-05
5.30898e-05
5.13537e-05
5.47407e-05
5.11223e-05
4.92459e-05
5.13254e-05
5.1534e-05
4.95475e-05
4.60256e-05
2.69242e-05
6.94283e-06
6.54621e-06
6.74811e-06
7.07007e-06
7.27822e-06
7.6355e-06
7.70551e-06
3.96253e-06
5.97376e-06
7.81418e-06
6.5725e-06
4.90149e-06
2.56341e-06
2.29834e-05
2.63007e-05
2.95937e-05
3.18413e-05
3.32523e-05
3.38757e-05
3.31317e-05
3.58228e-05
3.45721e-05
3.17956e-05
2.99676e-05
2.8943e-05
3.17857e-05
2.69523e-05
2.53561e-05
2.03848e-05
1.56863e-05
2.04797e-05
1.80327e-05
9.67123e-06
1.1214e-05
1.02568e-05
1.23661e-05
1.23277e-05
1.43244e-05
1.41254e-05
1.35759e-05
1.02233e-05
9.11106e-06
7.97206e-06
1.10538e-05
1.90004e-05
1.09162e-05
1.79994e-05
2.04607e-05
2.61445e-05
2.34136e-05
2.64234e-05
2.33637e-05
2.06388e-05
1.78428e-05
1.21505e-05
1.40732e-05
4.73226e-06
4.67166e-06
3.57707e-06
3.71166e-06
4.0484e-06
4.43247e-06
4.76533e-06
4.95249e-06
4.7423e-06
4.93355e-06
4.77864e-06
4.95975e-06
4.96532e-06
4.70663e-06
4.76339e-06
4.75385e-06
4.14539e-06
6.34729e-06
7.70858e-06
5.89085e-06
2.66827e-06
3.94975e-06
3.87471e-06
3.93895e-06
4.02065e-06
3.94052e-06
4.04109e-06
4.31644e-06
4.37704e-06
4.43279e-06
4.61002e-06
4.70552e-06
4.7661e-06
4.80451e-06
4.85049e-06
4.89089e-06
4.95479e-06
4.95598e-06
4.94396e-06
4.8576e-06
4.85546e-06
4.95702e-06
4.92232e-06
3.05223e-06
3.29169e-06
5.28295e-06
6.9291e-06
2.39114e-06
2.40872e-06
2.08969e-06
1.60465e-06
1.36051e-06
3.14796e-06
1.21136e-06
4.6449e-07
3.49474e-07
3.20456e-07
2.49624e-07
2.5467e-07
1.95471e-07
1.93581e-07
1.80328e-07
1.78242e-07
1.76782e-07
1.7561e-07
1.78234e-07
1.8517e-07
2.00218e-07
3.41349e-07
3.584e-07
3.78736e-07
4.05844e-07
4.49095e-07
5.15126e-07
8.88021e-07
8.57367e-07
3.06294e-07
0.000929775
0.00091227
0.000865448
0.00080919
0.000791715
0.000785494
0.000797174
0.000804197
0.000814866
0.000819477
0.000849805
0.000860371
0.000899882
0.000923406
0.000400661
0.000466615
0.000470341
0.000460352
0.000450597
0.000443101
0.000447126
0.000487976
0.000578084
0.000616954
0.000611084
0.000587748
0.000556068
0.000533692
0.000523811
0.000524432
0.000525417
0.000521085
0.000521536
0.000522801
0.000522574
0.000516861
0.000511759
0.00049559
0.000480342
0.000463436
0.0004282
0.00042315
0.000445678
0.000375085
0.000273486
0.000175907
0.000138736
0.000109112
9.56445e-05
9.06198e-05
9.74737e-05
0.000105839
0.000116867
0.000137355
0.000162857
0.000189332
0.000211467
0.000241349
0.00026055
0.00027071
0.000277039
0.00028069
0.000282877
0.000288234
0.000289028
0.000290458
0.000286715
0.000275825
0.000257823
0.000224089
0.000184457
0.000137361
0.000159116
0.000225897
0.000139936
0.000105878
8.03078e-05
7.9093e-05
9.21868e-05
0.000106644
0.00011618
0.000129478
0.000131744
0.000133118
0.000134878
0.000138296
0.00013054
0.000128618
0.000124102
0.00012014
0.000118236
0.000118889
0.000121459
0.000125892
0.000140481
0.000146579
0.000151939
0.00015224
0.000146254
0.000146581
0.000141056
0.000135508
0.00012721
0.00013607
8.08357e-05
8.42827e-05
8.64563e-05
8.33784e-05
7.87164e-05
7.38065e-05
7.08828e-05
7.31842e-05
7.73741e-05
8.36534e-05
8.7738e-05
6.95477e-05
7.46416e-05
7.90542e-05
8.8354e-05
7.45002e-05
7.90399e-05
6.42673e-05
8.72865e-05
8.33761e-05
8.3855e-05
8.42253e-05
9.07001e-05
8.53465e-05
9.12427e-05
7.66254e-05
6.9618e-05
6.16178e-05
6.07116e-05
6.10317e-05
2.04915e-05
2.35711e-05
2.38345e-05
2.46959e-05
2.43236e-05
2.27485e-05
2.08912e-05
2.00495e-05
1.62591e-05
1.74517e-05
1.78239e-05
1.81795e-05
1.90463e-05
1.9605e-05
2.07999e-05
2.4358e-05
2.43827e-05
2.46677e-05
2.51777e-05
2.4526e-05
2.3397e-05
2.52144e-05
2.43707e-05
2.44265e-05
2.47511e-05
2.49897e-05
2.55913e-05
2.66624e-05
2.85334e-05
2.95725e-05
4.09258e-05
2.74842e-05
3.12902e-05
3.73246e-05
3.79938e-05
3.09401e-05
2.69398e-05
2.69456e-05
3.09589e-05
3.68774e-05
4.17657e-05
4.50073e-05
4.95756e-05
3.00598e-05
3.23093e-05
3.38342e-05
3.54042e-05
3.5028e-05
3.80869e-05
3.96468e-05
4.43929e-05
3.6021e-05
4.09267e-05
3.82621e-05
5.5105e-05
0.000105678
0.000224297
0.000231157
0.00020354
0.000176588
2.29214e-05
1.53783e-05
1.475e-05
7.06724e-06
1.2098e-05
1.19851e-05
1.19294e-05
4.90094e-06
9.65214e-06
9.12111e-06
8.6752e-06
1.17755e-05
1.13665e-05
1.19771e-05
1.19869e-05
1.06232e-05
1.15699e-05
1.37499e-05
1.47729e-05
1.30123e-05
1.56962e-05
2.38406e-05
1.04603e-05
2.48072e-05
2.56391e-05
2.54246e-05
2.47314e-05
2.3357e-05
2.15425e-05
2.11476e-05
4.55462e-05
4.48448e-05
5.00932e-05
5.42175e-05
5.83011e-05
6.50837e-05
6.61796e-05
6.86876e-05
6.83752e-05
6.46404e-05
6.69832e-05
6.37404e-05
6.20479e-05
5.9082e-05
5.38344e-05
4.91555e-05
4.06515e-05
2.10525e-05
8.48816e-06
6.16169e-06
6.95874e-06
7.45699e-06
7.55886e-06
5.7948e-06
7.94276e-06
8.13404e-06
9.52512e-06
9.65524e-06
7.59759e-06
3.40136e-06
3.12873e-05
3.43387e-05
3.50196e-05
3.6487e-05
3.88276e-05
4.09314e-05
4.5427e-05
4.61728e-05
3.70435e-05
3.88179e-05
3.88278e-05
3.59693e-05
3.36066e-05
4.35128e-05
3.83388e-05
3.05432e-05
2.27526e-05
2.12464e-05
2.03494e-05
1.72603e-05
9.58428e-06
1.10465e-05
1.22275e-05
1.34448e-05
1.55351e-05
1.48967e-05
1.18799e-05
1.12387e-05
1.0873e-05
8.8925e-06
8.9006e-06
1.97906e-05
1.72659e-05
2.34321e-05
2.53781e-05
3.24198e-05
3.72196e-05
3.66061e-05
3.90998e-05
3.76079e-05
3.3644e-05
2.35484e-05
1.10349e-05
1.12846e-05
6.19714e-06
3.93234e-06
3.80929e-06
4.87475e-06
4.73573e-06
1.53304e-06
3.2913e-06
3.03987e-06
2.86854e-06
4.67638e-06
4.31293e-06
4.52836e-06
4.76953e-06
5.08558e-06
4.77895e-06
4.15132e-06
6.19285e-06
6.5909e-06
4.27207e-06
2.92215e-06
4.49858e-06
4.84471e-06
5.12656e-06
5.22568e-06
5.38614e-06
5.19092e-06
5.10184e-06
5.07505e-06
4.9364e-06
6.08148e-06
6.11093e-06
6.0837e-06
5.9997e-06
5.85984e-06
5.71521e-06
5.80612e-06
6.17427e-06
6.67564e-06
7.13801e-06
7.40545e-06
6.33619e-06
6.16111e-06
5.3134e-06
3.29057e-06
5.26535e-06
6.74143e-06
2.97748e-06
2.55071e-06
3.30625e-06
1.51756e-06
1.86079e-06
1.21878e-06
4.98879e-07
3.00758e-07
3.31428e-07
3.48212e-07
3.26903e-07
3.20564e-07
3.09404e-07
2.95494e-07
2.84392e-07
3.09048e-07
2.96152e-07
2.79112e-07
2.6297e-07
2.51922e-07
2.50946e-07
2.60996e-07
1.3413e-07
3.02486e-07
3.40774e-07
4.37048e-07
6.24832e-07
6.5082e-07
8.62462e-07
1.88055e-07
0.000890019
0.000816306
0.000749407
0.000738783
0.000766536
0.000795015
0.00082773
0.000818114
0.000815778
0.000793767
0.000795202
0.000814317
0.000860037
0.000910807
0.000406025
0.000470219
0.000464919
0.000449736
0.00043267
0.000429808
0.000480315
0.000585531
0.000660093
0.000637534
0.000577151
0.000530533
0.000513848
0.000501658
0.00051636
0.000508048
0.000513877
0.000535524
0.000550994
0.000560827
0.000568652
0.000567107
0.000564883
0.000538734
0.000516258
0.000487995
0.000465409
0.000423733
0.000434453
0.00042197
0.000271276
0.000176425
0.00013323
9.67003e-05
7.78702e-05
7.14501e-05
8.43073e-05
0.000100202
0.000125251
0.000157979
0.000185207
0.000204672
0.000225753
0.000256465
0.000266793
0.000275185
0.000277631
0.000285725
0.00028571
0.00028802
0.000295015
0.000298557
0.000302423
0.00030435
0.000297858
0.000273981
0.00022973
0.000173754
0.000139262
0.000186933
0.000134093
9.64914e-05
7.96742e-05
9.17091e-05
0.000112067
0.00012457
0.000132676
0.000129618
0.000122197
0.000120869
0.000125022
0.000132761
0.000141573
0.000138067
0.00014257
0.000128804
0.000125036
0.000125957
0.000140963
0.000149965
0.000157531
0.000163597
0.000173586
0.000180531
0.000179224
0.000170785
0.000162953
0.000149142
0.000129329
0.000128416
7.68513e-05
8.5497e-05
8.69628e-05
8.47473e-05
7.87702e-05
7.24443e-05
7.42728e-05
8.32849e-05
9.2575e-05
9.08663e-05
0.000115164
0.000131665
0.000151919
0.000158807
0.000157462
0.000155616
0.000154406
0.000139037
0.000121911
0.000100872
7.74245e-05
8.84943e-05
8.73774e-05
9.39519e-05
9.06494e-05
6.01004e-05
7.60502e-05
7.61392e-05
7.32034e-05
6.27796e-05
2.0152e-05
2.29237e-05
2.33364e-05
2.387e-05
2.28257e-05
2.01363e-05
1.54263e-05
1.59258e-05
1.13811e-05
1.22433e-05
1.41834e-05
1.46161e-05
1.89918e-05
1.92417e-05
2.31941e-05
2.43652e-05
2.54631e-05
2.72839e-05
2.65541e-05
2.73752e-05
2.63027e-05
2.73806e-05
2.5618e-05
2.57308e-05
2.72917e-05
2.64908e-05
2.60384e-05
2.63585e-05
2.75657e-05
2.89755e-05
3.93654e-05
2.60079e-05
2.50713e-05
2.57405e-05
1.61404e-05
1.80696e-05
1.65358e-05
1.8161e-05
8.85664e-06
3.04287e-05
3.92158e-05
4.66272e-05
4.79782e-05
2.64643e-05
4.78572e-05
4.6334e-05
4.51762e-05
4.70778e-05
4.68136e-05
4.95623e-05
3.29785e-05
2.88917e-05
3.68796e-05
3.94508e-05
5.56969e-05
5.60999e-05
0.000151428
0.000225634
0.000220498
0.000165637
1.79585e-05
1.48639e-05
7.01347e-06
1.14027e-05
1.13961e-05
1.2085e-05
1.11923e-05
1.17449e-05
1.13203e-05
1.29482e-05
1.23693e-05
1.07729e-05
1.05916e-05
1.00634e-05
1.1422e-05
9.20698e-06
9.98021e-06
1.24736e-05
1.33349e-05
1.46352e-05
1.2951e-05
1.78374e-05
2.49997e-05
1.20578e-05
1.72552e-05
1.89559e-05
2.68419e-05
2.59348e-05
2.50003e-05
2.17189e-05
4.08214e-05
4.98052e-05
5.5931e-05
6.39427e-05
7.61921e-05
6.2737e-05
7.79535e-05
9.45341e-05
0.000102255
9.86722e-05
0.000103319
9.87556e-05
8.75347e-05
7.15165e-05
6.76724e-05
5.87076e-05
4.73038e-05
3.42615e-05
1.62851e-05
7.4531e-06
6.59605e-06
6.78939e-06
6.97716e-06
7.38481e-06
7.8436e-06
1.03074e-05
1.09296e-05
1.29292e-05
9.8276e-06
5.26202e-06
3.57092e-05
3.30052e-05
3.30093e-05
3.56224e-05
3.95257e-05
4.67389e-05
3.51192e-05
6.05963e-05
6.87142e-05
7.51451e-05
8.72527e-05
8.54053e-05
8.34851e-05
7.06258e-05
5.12575e-05
4.47843e-05
3.65152e-05
2.95165e-05
2.69117e-05
1.33867e-05
1.62121e-05
1.08043e-05
1.02808e-05
1.23204e-05
1.42281e-05
1.45947e-05
1.10737e-05
1.05562e-05
1.01695e-05
9.99303e-06
1.00959e-05
7.76131e-06
1.95386e-05
2.82721e-05
3.21321e-05
4.15209e-05
3.59011e-05
4.77341e-05
4.96551e-05
4.48475e-05
3.22017e-05
3.77611e-05
2.79986e-05
1.15777e-05
8.06073e-06
5.05736e-06
3.77393e-06
4.88742e-06
1.69273e-06
3.50442e-06
3.11252e-06
2.74867e-06
4.36207e-06
4.34371e-06
4.0859e-06
4.34433e-06
4.77064e-06
5.05667e-06
4.75632e-06
3.97233e-06
6.03515e-06
5.32451e-06
3.33192e-06
3.50516e-06
4.2723e-06
4.97049e-06
5.3836e-06
5.58046e-06
5.64263e-06
5.63772e-06
5.14684e-06
4.51414e-06
5.49644e-06
4.87994e-06
4.25613e-06
5.02536e-06
3.18737e-06
2.8982e-06
2.98542e-06
3.59586e-06
4.83848e-06
6.12816e-06
7.24418e-06
7.82992e-06
8.60315e-06
7.48967e-06
6.33556e-06
5.13733e-06
5.09648e-06
6.61385e-06
2.46349e-06
3.16485e-06
4.56913e-06
1.75556e-06
2.24659e-06
1.05254e-06
4.86597e-07
2.93746e-07
2.59893e-07
4.05695e-07
3.22677e-07
3.69368e-07
3.7307e-07
3.79522e-07
3.19671e-07
3.72794e-07
3.25022e-07
2.74813e-07
2.69906e-07
2.36531e-07
2.54292e-07
2.63556e-07
2.4636e-07
3.03622e-07
3.97114e-07
5.29047e-07
6.12211e-07
6.34429e-07
6.76561e-07
2.21243e-07
0.000812943
0.000717472
0.000715763
0.000775976
0.000827659
0.000836558
0.000856967
0.000863878
0.000870894
0.000852436
0.000801583
0.000792609
0.000820799
0.000891451
0.000411213
0.000471278
0.000456406
0.000433985
0.000419312
0.000421143
0.000512341
0.000649581
0.000663737
0.00060863
0.000524768
0.000474983
0.000480142
0.000492005
0.00049725
0.000517897
0.000538843
0.000567509
0.000602195
0.000626755
0.000636246
0.0006359
0.000637589
0.000607344
0.000576727
0.0005295
0.000484234
0.000442589
0.000425945
0.000428745
0.000272214
0.000185384
0.000136069
8.68254e-05
5.97195e-05
7.79778e-05
6.39792e-05
9.38996e-05
0.000155313
0.000200185
0.000221836
0.000228311
0.000234611
0.000259082
0.000270281
0.000273307
0.000276212
0.000280715
0.000291078
0.000304944
0.000310817
0.000309435
0.000312842
0.00031299
0.000313771
0.000304648
0.000270594
0.000205959
0.000146872
0.000166997
0.000129542
9.24626e-05
8.35544e-05
0.000103351
0.000123786
0.000133625
0.000121736
0.000101691
8.76848e-05
8.62661e-05
9.8074e-05
0.000105674
0.000132259
0.000138414
0.000137291
0.000136496
0.000134928
0.000142439
0.000153877
0.000165439
0.000176569
0.000186014
0.000191466
0.000199272
0.000204023
0.000197366
0.0001823
0.000164855
0.000144458
0.000136806
7.09476e-05
8.13503e-05
8.84762e-05
8.52855e-05
7.57111e-05
7.19056e-05
8.0199e-05
9.348e-05
0.000103638
0.000136243
0.000157208
0.000173933
0.000181808
0.000191442
0.000201071
0.000206495
0.000198989
0.000198361
0.000173421
0.00015471
0.000111505
7.24771e-05
8.91489e-05
9.27161e-05
7.65271e-05
8.27382e-05
6.60594e-05
9.16965e-05
8.85108e-05
8.32109e-05
1.93264e-05
2.20869e-05
2.23761e-05
2.29737e-05
2.17248e-05
1.90925e-05
1.44096e-05
1.06877e-05
1.2433e-05
1.29483e-05
1.42065e-05
1.57009e-05
2.00634e-05
1.87673e-05
2.27383e-05
2.49298e-05
2.50246e-05
2.89317e-05
2.97154e-05
2.97792e-05
3.02293e-05
2.7812e-05
2.88046e-05
2.77385e-05
2.91447e-05
2.67145e-05
2.74014e-05
2.67058e-05
2.72908e-05
2.83473e-05
3.74099e-05
2.45168e-05
1.95426e-05
2.11889e-05
1.39618e-05
6.01821e-06
5.63148e-06
1.34596e-05
1.97481e-05
2.87083e-05
4.25342e-05
4.58949e-05
4.67687e-05
4.62831e-05
4.41763e-05
3.97663e-05
4.16074e-05
3.96999e-05
4.22884e-05
4.29718e-05
4.51496e-05
4.90556e-05
2.68491e-05
3.6152e-05
3.25979e-05
3.68202e-05
9.10061e-05
0.000180684
0.000215804
0.000167155
1.90932e-05
1.41537e-05
1.10218e-05
1.08917e-05
1.22804e-05
1.28687e-05
1.32779e-05
1.16512e-05
9.78463e-06
1.11578e-05
9.6865e-06
8.77453e-06
7.88145e-06
8.48226e-06
8.62277e-06
6.83934e-06
8.10016e-06
1.09553e-05
1.20083e-05
1.35076e-05
1.52577e-05
1.52422e-05
2.37977e-05
1.32624e-05
2.22695e-05
2.20078e-05
1.62726e-05
2.80557e-05
2.66481e-05
2.03642e-05
4.59203e-05
5.44683e-05
6.41803e-05
7.82486e-05
8.33103e-05
0.000112966
0.000135153
0.000157826
0.000168662
0.000168003
0.000163961
0.000152735
0.000134957
0.000114813
8.41008e-05
4.823e-05
5.64196e-05
4.81052e-05
2.24924e-05
1.245e-05
7.16014e-06
6.78436e-06
6.6971e-06
3.33347e-06
1.03741e-05
1.24453e-05
1.47108e-05
1.40242e-05
1.40919e-05
7.04695e-06
3.1063e-05
3.04551e-05
3.15735e-05
3.50335e-05
4.36815e-05
3.05535e-05
6.42017e-05
8.36299e-05
9.60396e-05
0.000112122
0.000117265
0.000123105
0.00012039
0.000106507
9.03257e-05
6.02459e-05
4.47106e-05
3.65793e-05
2.74619e-05
2.32688e-05
2.25119e-05
1.50535e-05
1.07792e-05
1.25532e-05
1.37608e-05
1.38591e-05
1.06612e-05
9.42707e-06
9.18366e-06
9.83917e-06
1.54148e-05
1.33225e-05
1.78132e-05
2.87368e-05
4.24004e-05
6.1859e-05
9.39872e-05
0.000113122
0.000120632
0.00011112
8.90319e-05
5.95305e-05
3.65769e-05
2.17389e-05
1.37393e-05
6.31377e-06
3.78839e-06
4.81461e-06
2.0626e-06
3.81458e-06
3.39779e-06
2.98586e-06
2.5171e-06
4.27825e-06
4.35713e-06
4.30204e-06
4.10003e-06
4.55719e-06
4.66477e-06
3.85053e-06
5.81832e-06
4.74938e-06
3.99201e-06
4.87284e-06
3.98867e-06
5.30386e-06
3.98239e-06
4.55861e-06
4.49349e-06
3.95599e-06
5.51368e-06
4.45875e-06
5.13483e-06
5.60894e-06
4.61198e-06
3.54341e-06
2.66775e-06
2.10614e-06
2.34464e-06
3.87686e-06
5.95373e-06
8.78582e-06
9.30084e-06
7.32964e-06
5.90316e-06
1.77246e-06
7.21535e-06
5.44787e-06
5.00706e-06
6.59575e-06
8.67497e-07
2.73218e-06
5.95786e-06
2.0887e-06
1.91084e-06
6.0021e-07
3.53173e-07
3.56173e-07
4.11575e-07
4.02428e-07
5.48408e-07
6.77217e-07
7.43608e-07
6.98185e-07
5.95571e-07
4.18879e-07
3.67404e-07
3.4912e-07
3.06393e-07
2.47991e-07
2.49921e-07
2.53585e-07
2.52934e-07
4.14386e-07
6.51861e-07
6.5391e-07
5.36383e-07
7.30362e-07
2.27519e-07
1.83018e-07
0.000689642
0.000692741
0.000775881
0.000818547
0.000801735
0.000768684
0.000762727
0.000796449
0.000853997
0.000875145
0.000853885
0.00078909
0.000804713
0.000881877
0.000410436
0.000470414
0.000448732
0.000419275
0.000404382
0.000414601
0.000524936
0.000663728
0.000674181
0.000602791
0.000502644
0.000455093
0.000468891
0.000497417
0.000497267
0.000524886
0.000563339
0.000596477
0.000625505
0.000654249
0.000685535
0.000698956
0.000698613
0.000676869
0.000635467
0.000567762
0.000512703
0.000461243
0.000424901
0.000433258
0.000282804
0.000202181
0.00015237
9.40701e-05
8.14725e-05
7.78856e-05
6.83778e-05
0.000127213
0.000206663
0.000252934
0.000272872
0.000249657
0.00024439
0.000259121
0.0002648
0.000265668
0.000271413
0.000290738
0.000314715
0.000328262
0.000333786
0.00033825
0.00032904
0.000325378
0.000321371
0.000316248
0.000294615
0.000240541
0.000164398
0.000157101
0.000127334
9.09186e-05
8.68973e-05
0.000111555
0.00013571
0.000131039
0.000109707
8.24652e-05
6.86381e-05
5.76232e-05
8.20181e-05
9.54412e-05
0.000121944
0.0001469
0.000138027
0.000134967
0.00013717
0.000151492
0.000167464
0.000183737
0.000199752
0.000211201
0.000216042
0.000213944
0.000217056
0.000214415
0.000203065
0.000176635
0.000150327
0.000134
7.08665e-05
7.81753e-05
6.6972e-05
8.04444e-05
7.18144e-05
7.32729e-05
8.87295e-05
9.12869e-05
0.000131744
0.000156732
0.000171727
0.000188938
0.000197603
0.000217705
0.000221323
0.000227432
0.000234622
0.000232264
0.000216475
0.000199367
0.000159514
0.000112026
6.8318e-05
9.3192e-05
7.41829e-05
9.23266e-05
8.49139e-05
0.000119811
0.000112326
6.8573e-05
1.81816e-05
2.10325e-05
2.13058e-05
2.19189e-05
2.05404e-05
1.8123e-05
1.37288e-05
9.55403e-06
1.08017e-05
1.18804e-05
1.20842e-05
1.82246e-05
2.03516e-05
1.88077e-05
2.29409e-05
2.62085e-05
2.87818e-05
3.02126e-05
2.97699e-05
3.03827e-05
3.1451e-05
2.8934e-05
2.9754e-05
3.13238e-05
2.87899e-05
2.93039e-05
2.66036e-05
2.71208e-05
2.70906e-05
2.80083e-05
3.67621e-05
1.46143e-05
1.1636e-05
1.46948e-05
1.01044e-05
8.7594e-06
9.17854e-06
1.1077e-05
1.84684e-05
2.82898e-05
4.22763e-05
4.51623e-05
4.43642e-05
4.25718e-05
3.95135e-05
3.64778e-05
3.51019e-05
3.71744e-05
3.61868e-05
3.76707e-05
3.90771e-05
4.20137e-05
5.01097e-05
2.9685e-05
3.21871e-05
5.37495e-05
5.76505e-05
0.000135782
0.000186722
0.000158756
1.48469e-05
1.2237e-05
1.01593e-05
1.21775e-05
1.38545e-05
1.41231e-05
1.20628e-05
9.26666e-06
7.37089e-06
8.49006e-06
1.0748e-05
9.99035e-06
9.75943e-06
9.74214e-06
1.00078e-05
1.03082e-05
5.3487e-06
9.39076e-06
1.03168e-05
1.32629e-05
1.38221e-05
1.39427e-05
2.18224e-05
2.69888e-05
2.06099e-05
2.01207e-05
1.64724e-05
1.87113e-05
2.03919e-05
2.33209e-05
4.80284e-05
5.75923e-05
7.2098e-05
6.97369e-05
0.000110273
0.000148391
0.000183184
0.000207878
0.000223068
0.000217543
0.000213756
0.000203037
0.000185575
0.000157614
0.000121981
7.85515e-05
6.28282e-05
5.42925e-05
3.94753e-05
1.97282e-05
6.95788e-06
7.27575e-06
7.26409e-06
7.56286e-06
1.5256e-05
1.78759e-05
1.78684e-05
1.75761e-05
1.55454e-05
6.69437e-06
2.83921e-05
2.78798e-05
2.91953e-05
3.38135e-05
4.41113e-05
5.25348e-05
8.09415e-05
0.00010226
0.00012368
0.000133357
0.000136392
0.000136882
0.00013919
0.000136158
0.000119422
9.92668e-05
5.54372e-05
4.46059e-05
3.55465e-05
2.95033e-05
1.80098e-05
2.21299e-05
1.76999e-05
1.62078e-05
1.51214e-05
1.43581e-05
1.32078e-05
8.77147e-06
8.11284e-06
1.01298e-05
1.21496e-05
1.66659e-05
2.32648e-05
3.81027e-05
6.2391e-05
0.000114326
0.000151868
0.000184268
0.000189571
0.00017076
0.000134647
9.68172e-05
5.04344e-05
2.88102e-05
9.00385e-06
5.86948e-06
3.68932e-06
4.74304e-06
2.19462e-06
2.49308e-06
2.1759e-06
4.03882e-06
3.69236e-06
3.02713e-06
4.34309e-06
4.36166e-06
4.14104e-06
3.84293e-06
3.9787e-06
3.6199e-06
5.56577e-06
3.57089e-06
2.95093e-06
4.27312e-06
4.13155e-06
5.5447e-06
4.6795e-06
5.809e-06
6.06876e-06
5.12346e-06
6.22588e-06
4.65349e-06
5.00775e-06
5.20974e-06
5.35793e-06
4.09616e-06
2.66575e-06
1.71234e-06
2.14193e-06
4.13535e-06
7.85337e-06
9.8638e-06
1.65008e-05
1.50301e-05
1.19182e-05
4.74799e-06
7.41225e-06
5.47889e-06
5.06912e-06
6.67755e-06
1.39863e-06
2.8454e-06
7.5434e-06
2.5717e-06
1.30831e-06
5.71657e-07
4.01242e-07
2.75146e-07
5.19844e-07
8.05657e-07
1.02926e-06
1.05881e-06
1.15688e-06
1.04926e-06
7.08577e-07
8.38827e-07
5.49495e-07
3.84881e-07
3.27059e-07
2.78547e-07
2.57429e-07
2.53756e-07
2.58732e-07
5.24769e-07
5.41584e-07
5.33943e-07
3.32538e-07
1.86904e-07
1.56277e-07
1.69123e-07
0.000672972
0.000749734
0.0008203
0.000753965
0.00067544
0.000625808
0.000627739
0.000681565
0.000776865
0.000864992
0.000878543
0.00080789
0.000789538
0.000865408
0.000405672
0.000471459
0.000443102
0.000409381
0.0003909
0.000408269
0.00049245
0.000652831
0.000685691
0.000625534
0.000514124
0.000446974
0.000464652
0.000487255
0.000503328
0.000540128
0.000568099
0.000602857
0.000640537
0.000686367
0.000729141
0.000751624
0.000756107
0.000729104
0.00068008
0.000618918
0.00053921
0.00048169
0.000425861
0.000435709
0.000303285
0.000223955
0.000184231
0.000129211
9.46729e-05
8.15208e-05
0.00011551
0.000199836
0.000282941
0.000316651
0.000321796
0.000274718
0.000250992
0.000258699
0.000254627
0.000255819
0.000279075
0.000313012
0.000332895
0.000338347
0.000341077
0.000338734
0.000340624
0.000332525
0.000330385
0.000326472
0.000307685
0.00025639
0.00018042
0.00015542
0.000128031
9.20074e-05
8.82912e-05
0.000114112
0.000137019
0.000133466
0.000115172
9.12132e-05
7.5625e-05
5.75798e-05
6.99104e-05
9.87697e-05
0.000127561
0.000144292
0.000144567
0.00013265
0.000143118
0.000163207
0.000182815
0.000199387
0.000215029
0.000227088
0.000241705
0.000243163
0.00023145
0.000225866
0.000212916
0.00019093
0.000153121
0.000131344
6.36806e-05
7.99327e-05
6.74106e-05
7.41257e-05
6.90057e-05
7.64416e-05
9.15013e-05
0.000112467
0.000142071
0.000160369
0.000176036
0.000200907
0.000216969
0.000235765
0.00024221
0.000252798
0.000252777
0.000258719
0.000246757
0.000238116
0.000188126
0.000136909
9.07036e-05
9.59386e-05
7.35334e-05
8.34527e-05
9.69145e-05
0.000133009
0.000107663
8.45447e-05
1.74862e-05
2.03583e-05
1.97044e-05
2.03248e-05
2.04151e-05
1.86733e-05
1.75218e-05
1.37023e-05
1.38506e-05
1.39619e-05
1.41316e-05
1.58749e-05
1.91245e-05
1.88566e-05
2.33407e-05
2.58828e-05
2.9957e-05
3.24378e-05
3.06571e-05
3.27962e-05
3.01919e-05
3.07895e-05
2.94522e-05
3.19754e-05
2.87518e-05
2.78613e-05
2.8412e-05
2.82106e-05
2.67744e-05
2.75567e-05
3.57506e-05
1.10354e-05
1.88824e-05
1.07266e-05
8.50763e-06
7.70688e-06
9.34699e-06
1.03484e-05
1.76209e-05
2.90724e-05
4.18257e-05
4.27389e-05
4.16031e-05
3.93082e-05
4.0501e-05
3.34157e-05
3.19937e-05
3.04229e-05
3.17056e-05
2.75664e-05
3.6409e-05
4.08472e-05
4.7904e-05
5.19895e-05
2.95933e-05
5.18014e-05
3.94488e-05
0.000104726
0.000154196
0.000150266
1.42164e-05
7.77918e-06
1.06688e-05
9.77956e-06
1.52547e-05
1.27273e-05
1.07676e-05
7.12409e-06
5.5807e-06
1.02391e-05
9.64542e-06
8.52254e-06
8.17884e-06
8.42755e-06
8.63429e-06
9.76123e-06
9.87427e-06
6.67396e-06
9.26969e-06
1.15885e-05
1.36285e-05
1.2773e-05
1.87756e-05
2.59537e-05
2.0426e-05
2.05865e-05
9.61606e-06
2.29899e-05
2.00294e-05
2.7138e-05
4.65609e-05
5.47183e-05
7.27914e-05
8.13328e-05
0.000128879
0.000173376
0.000210473
0.000239144
0.000254865
0.000256592
0.000261497
0.000247351
0.000220431
0.000191606
0.000153382
0.00010492
5.62924e-05
5.71796e-05
4.9092e-05
2.15776e-05
1.15979e-05
5.65014e-06
8.42884e-06
1.53895e-05
1.59526e-05
2.03614e-05
1.63093e-05
1.76654e-05
1.62076e-05
9.20433e-06
2.68015e-05
2.37708e-05
2.60535e-05
3.77881e-05
4.45414e-05
6.12059e-05
9.25404e-05
0.000119674
0.000135229
0.000149372
0.00015496
0.000158367
0.000157757
0.000151007
0.000142123
0.000127146
8.97797e-05
4.46281e-05
4.06841e-05
3.31482e-05
2.56596e-05
1.51511e-05
2.27981e-05
1.89636e-05
1.72672e-05
1.41696e-05
1.31896e-05
7.7081e-06
7.31117e-06
9.42104e-06
1.19609e-05
1.98187e-05
2.99192e-05
2.42772e-05
0.000102658
0.000157329
0.000213798
0.00022769
0.000221084
0.000212425
0.000182225
0.000127131
7.58374e-05
3.60111e-05
1.20083e-05
6.84019e-06
3.7921e-06
4.5649e-06
5.1712e-06
2.99852e-06
3.64026e-06
3.70051e-06
3.69689e-06
3.19507e-06
4.02562e-06
2.57115e-06
4.17268e-06
3.74483e-06
3.45821e-06
3.59824e-06
5.4431e-06
4.24286e-06
3.61068e-06
3.8154e-06
5.84731e-06
3.7321e-06
5.98414e-06
8.27468e-06
5.9712e-06
8.39228e-06
5.0995e-06
5.08621e-06
4.65782e-06
4.69193e-06
4.66431e-06
4.74408e-06
3.13684e-06
1.68229e-06
1.61448e-06
5.04978e-06
7.87167e-06
1.01208e-05
1.74997e-05
1.98402e-05
1.24124e-05
3.85882e-06
6.90167e-06
5.22592e-06
5.10764e-06
6.82227e-06
7.74774e-07
2.18897e-06
7.66602e-06
2.83833e-06
1.06691e-06
4.59733e-07
2.63691e-07
4.80257e-07
8.04265e-07
9.64792e-07
1.82892e-06
2.36582e-06
2.48418e-06
2.49828e-06
1.87002e-06
1.02758e-06
8.50073e-07
4.66171e-07
3.99834e-07
2.8403e-07
2.50439e-07
1.66635e-07
2.31261e-07
6.22473e-07
6.59548e-07
6.78807e-07
2.31119e-07
1.03947e-07
1.52595e-07
1.88651e-07
0.000696151
0.000795637
0.000745368
0.000625417
0.000564593
0.00055619
0.000566415
0.000624537
0.000725271
0.000842923
0.000882828
0.00081723
0.000784169
0.0008498
0.000397158
0.000471126
0.000446491
0.000406019
0.00039245
0.000386888
0.000458088
0.000605666
0.000700847
0.000639543
0.00052983
0.000446737
0.000467679
0.000479899
0.00050528
0.000549536
0.000569544
0.000598266
0.000652585
0.000714497
0.000775009
0.000806687
0.000816319
0.000783448
0.000722461
0.00064887
0.000559961
0.000489714
0.000426531
0.000435901
0.000320945
0.000246879
0.000228348
0.000203257
0.000180741
0.000184185
0.000242415
0.000307226
0.000355113
0.000366214
0.000353661
0.000291344
0.000252777
0.000255099
0.000253506
0.000256
0.000289594
0.000322721
0.000335491
0.000340669
0.000335221
0.000333501
0.000329639
0.000332951
0.000326913
0.000330702
0.000317901
0.00026668
0.000185835
0.000152958
0.00013083
9.49398e-05
8.82319e-05
0.000110945
0.000129665
0.000138473
0.000127835
0.000116321
9.27633e-05
6.76926e-05
7.88904e-05
0.000107927
0.000138563
0.000149224
0.000134734
0.000130156
0.000154254
0.000175383
0.000194116
0.000212724
0.000233716
0.000249467
0.000254047
0.000257111
0.000251601
0.000235114
0.000219841
0.000196686
0.00016078
0.0001293
5.93643e-05
8.44462e-05
8.23721e-05
6.99471e-05
7.02895e-05
7.79713e-05
6.87265e-05
0.000120636
0.000142233
0.000160394
0.000178523
0.000209286
0.000232351
0.000260819
0.00026181
0.000267418
0.000262677
0.000272836
0.000263401
0.000254488
0.000215872
0.00016412
0.000111108
9.95695e-05
7.49405e-05
8.72544e-05
0.000106202
0.000135865
8.72586e-05
7.58029e-05
1.5664e-05
2.21118e-05
2.12558e-05
1.85804e-05
1.99405e-05
1.89756e-05
1.75591e-05
1.69913e-05
1.6737e-05
1.57404e-05
1.55196e-05
1.7989e-05
1.90597e-05
2.22944e-05
2.44601e-05
2.89113e-05
3.2818e-05
3.08358e-05
3.19955e-05
3.15537e-05
3.31023e-05
3.00579e-05
3.28039e-05
2.94667e-05
3.03261e-05
2.96645e-05
2.90397e-05
2.88038e-05
2.71525e-05
2.70365e-05
3.52361e-05
6.17139e-06
1.44574e-05
3.81286e-06
7.89397e-06
7.36381e-06
9.2251e-06
1.3074e-05
1.87937e-05
2.93255e-05
4.02704e-05
4.05523e-05
4.19548e-05
3.91935e-05
3.83209e-05
3.21708e-05
2.59652e-05
2.67663e-05
2.6305e-05
2.78093e-05
2.67577e-05
3.46609e-05
4.24277e-05
5.07919e-05
2.64329e-05
5.02121e-05
2.7927e-05
8.21201e-05
0.000139894
0.000128969
9.84831e-06
6.08715e-06
1.28232e-05
1.61009e-05
1.46693e-05
1.18588e-05
9.01055e-06
6.42507e-06
1.02896e-05
9.56431e-06
8.89895e-06
7.60467e-06