/*--------------------------------*- C++ -*----------------------------------*\
| =========                 |                                                 |
| \\      /  F ield         | OpenFOAM: The Open Source CFD Toolbox           |
|  \\    /   O peration     | Version:  2.1.1                                 |
|   \\  /    A nd           | Web:      www.OpenFOAM.org                      |
|    \\/     M anipulation  |                                                 |
\*---------------------------------------------------------------------------*/
FoamFile
{
    version     2.0;
    format      ascii;
    class       volScalarField;
    location    "0.007150000";
    object      rhoUnburned;
}
// * * * * * * * * * * * * * * * * * * * * * * * * * * * * * * * * * * * * * //

dimensions      [1 -3 0 0 0 0 0];

internalField   nonuniform List<scalar> 
12384
(
2.55077
2.58778
2.622
2.65462
2.68172
2.69977
2.69876
2.68354
2.6536
2.61503
2.56511
2.52009
2.48635
2.38568
4.22249
3.88663
3.78157
3.77804
3.83684
3.92861
3.99249
3.99674
3.92507
3.82477
3.71683
3.68686
3.68789
3.70122
3.72615
3.75284
3.77881
3.8004
3.82418
3.84902
3.87603
3.90975
3.94794
3.99343
4.05035
4.1069
4.14997
4.11774
4.03683
4.39198
4.47675
4.71341
4.7414
4.73769
4.70949
4.70787
4.67077
4.66185
4.63495
4.61367
4.57424
4.54287
4.51064
4.474
4.4448
4.4219
4.41057
4.41022
4.41102
4.41309
4.4269
4.44016
4.44379
4.45198
4.46965
4.48837
4.54461
4.61734
4.50717
4.36883
4.82821
4.75317
4.72224
4.71319
4.72862
4.75036
4.76349
4.78171
4.78684
4.78772
4.78519
4.78607
4.78376
4.7723
4.77019
4.77139
4.77243
4.77647
4.78354
4.79597
4.80571
4.80542
4.82003
4.79353
4.75897
4.73337
4.69708
4.65737
4.676
4.84854
4.35869
4.41354
4.46864
4.50277
4.52576
4.53493
4.53779
4.5395
4.53717
4.53769
4.54912
4.53423
4.59124
4.56928
4.60697
4.62382
4.56426
4.6108
4.5534
4.57833
4.51881
4.4606
4.45732
4.78889
4.81742
4.78979
4.74976
4.74309
4.75573
4.80015
4.69976
4.73784
4.72057
4.68168
4.67957
4.69889
4.7079
4.70525
4.67741
4.66118
4.64843
4.63611
4.63492
4.63896
4.64441
4.65527
4.67235
4.69584
4.71079
4.70718
4.75708
4.74837
4.75031
4.73394
4.71384
4.68631
4.64051
4.59606
4.58143
4.57156
6.3574
5.85727
5.70467
5.76622
5.81879
5.82666
5.81158
5.77872
5.75939
5.75099
5.75158
5.76891
5.79571
5.84701
5.88394
5.8966
5.92446
5.90245
5.95281
5.86816
5.84898
5.77919
5.69701
5.55964
5.58185
6.39962
6.42095
6.39631
6.36071
6.3473
5.34989
4.92465
4.78144
4.69794
4.63232
4.58474
4.57505
4.58978
4.60158
4.65262
4.65483
4.7172
4.71674
4.73878
4.7236
4.70933
4.67413
4.62865
4.62754
4.61322
4.69614
4.90006
4.92159
4.88463
4.87967
4.84974
4.84611
4.83544
4.8362
4.84558
4.8025
4.74222
4.69469
4.67646
4.6913
4.71628
4.74494
4.78279
4.87601
4.86676
4.93541
4.96622
4.94641
4.92207
4.89954
4.87593
4.8889
5.04835
5.06818
5.13236
5.0794
5.13781
5.07468
5.13219
5.06826
5.11617
5.09364
5.18432
5.3205
5.40503
5.43456
5.36605
5.36185
5.3687
5.38999
5.42192
5.47739
5.54349
5.58903
5.63514
5.68008
5.67915
5.69989
5.49313
5.38391
5.15955
5.00463
5.0817
5.23427
5.2231
5.2149
5.20278
5.14153
5.1812
5.11655
5.09932
5.08221
5.04507
5.03133
5.04639
5.59332
5.44705
5.38071
5.3508
5.38107
5.46343
5.56367
5.6526
5.73522
5.77767
5.77188
5.73465
5.66192
5.65156
5.68056
5.70968
5.74116
5.88851
5.97237
6.12296
6.1422
6.22591
6.1923
6.22269
6.16166
6.12539
6.02166
5.92545
5.76548
5.69195
7.2174
7.23046
7.19329
6.54151
6.63044
6.74367
6.82125
6.8912
6.98113
7.05068
7.07194
7.11757
7.15994
7.16568
7.17456
7.18172
7.18404
7.18082
7.18071
7.16947
7.17021
7.16352
7.14852
7.0951
6.98136
6.83725
6.73159
6.70169
7.09839
7.39293
6.94606
6.94946
6.87759
6.83091
6.91268
7.0947
5.67811
4.5039
4.45833
4.44962
4.45726
4.4375
4.44945
4.4375
4.44433
4.45022
4.46356
4.48211
4.50373
4.5287
4.55406
4.58362
4.61486
4.6559
4.71841
4.85594
5.14277
5.55238
5.55512
4.86972
2.68287
2.72977
2.8099
2.89816
2.93484
2.94115
2.93303
2.92009
2.90043
2.84086
2.74079
2.61153
2.51152
2.39487
4.17587
3.82831
3.77441
3.82574
3.92626
3.99915
3.98127
3.78019
3.49211
3.31332
3.28399
3.33724
3.42788
3.53863
3.63247
3.68254
3.69907
3.69828
3.68469
3.67185
3.66908
3.6838
3.72285
3.78766
3.87721
3.98368
4.0946
4.12609
4.05245
4.18493
4.48933
4.7147
4.73068
4.72168
4.69936
4.69496
4.67069
4.67565
4.64501
4.62846
4.587
4.53585
4.47994
4.42089
4.37457
4.34922
4.3464
4.34904
4.35581
4.37023
4.37339
4.36836
4.3698
4.37389
4.39501
4.43027
4.4839
4.57031
4.58436
4.4993
4.79451
4.73616
4.72556
4.7421
4.76746
4.7939
4.82435
4.84551
4.85473
4.85873
4.86022
4.84703
4.84199
4.83135
4.81189
4.7994
4.79418
4.79619
4.81002
4.82482
4.83695
4.84754
4.84804
4.86204
4.84473
4.8008
4.76387
4.71321
4.67281
4.74223
4.36081
4.42177
4.49955
4.53943
4.55442
4.55081
4.5364
4.50557
4.47522
4.44772
4.43738
4.43673
4.4386
4.43856
4.45673
4.4501
4.46482
4.4496
4.45238
4.46742
4.47258
4.46628
4.42375
4.55047
4.72185
4.74476
4.67952
4.64756
4.63506
4.65863
4.70364
4.73509
4.71383
4.6989
4.71669
4.7197
4.67833
4.58782
4.50771
4.4496
4.45009
4.4902
4.53755
4.59065
4.62574
4.65504
4.67667
4.67665
4.65936
4.66397
4.66492
4.62647
4.64407
4.64575
4.65177
4.65989
4.64748
4.61006
4.58247
4.57871
6.2848
5.78406
5.68853
5.73757
5.71321
5.60745
5.49257
5.45555
5.48468
5.57102
5.66624
5.75918
5.83413
5.91362
5.93828
5.9547
5.96281
5.9857
5.959
5.94241
5.9019
5.86476
5.79796
5.69677
5.59106
5.94779
6.38302
6.33691
6.23261
6.1604
5.3213
4.80202
4.68404
4.55385
4.47185
4.47111
4.5139
4.57466
4.62489
4.68364
4.72455
4.74799
4.76694
4.76434
4.76996
4.73502
4.73524
4.69047
4.68323
4.64265
4.6429
4.7594
4.91713
4.90999
4.87947
4.85464
4.81162
4.78519
4.77125
4.7665
4.79493
4.69693
4.65753
4.67809
4.7224
4.78721
4.83475
4.89846
4.94816
5.0143
5.02796
5.02713
5.01997
4.99959
4.97366
4.93184
4.89444
4.94708
5.04023
5.12647
5.09609
5.13223
5.12631
5.11834
5.09777
5.05668
5.01272
4.93844
5.12104
5.40222
5.44909
5.41801
5.44024
5.48576
5.54133
5.61372
5.71275
5.80733
5.92272
6.00487
6.06297
6.08525
5.98286
5.88137
5.70628
5.50829
5.23847
5.1297
5.0689
5.17396
5.21268
5.2045
5.20648
5.18977
5.11945
5.11676
5.08175
5.06345
4.99083
5.00628
5.65456
5.44513
5.29997
5.33134
5.45576
5.60207
5.74303
5.87581
5.95958
5.98667
5.98506
5.89899
5.79433
5.66778
5.64908
5.69966
5.83698
6.0622
6.28188
6.38967
6.46987
6.50634
6.50756
6.45241
6.39914
6.3157
6.24462
6.10751
5.85196
5.69962
7.20066
7.2209
6.82221
6.51606
6.64131
6.70313
6.7485
6.80655
6.83735
6.9267
7.02621
7.11604
7.21642
7.24691
7.26243
7.26997
7.26874
7.26423
7.26311
7.2565
7.25099
7.26501
7.29074
7.29034
7.28644
7.07955
6.88854
6.76515
6.96739
7.39475
7.04066
7.17539
7.14318
6.6722
6.90237
6.24412
4.83816
4.37274
4.35153
4.28564
4.25236
4.22952
4.22392
4.23189
4.24398
4.26587
4.30012
4.35409
4.41624
4.46713
4.49653
4.51613
4.5346
4.55348
4.6107
4.80347
5.22285
5.64686
5.53988
4.81725
2.76286
2.87441
2.98513
3.01825
2.98432
2.92721
2.87775
2.86208
2.88248
2.91528
2.89376
2.7684
2.57423
2.40559
4.12796
3.79738
3.79003
3.89559
3.99294
4.01397
3.79788
3.43475
3.18938
3.13513
3.24628
3.41894
3.56243
3.69491
3.75565
3.75894
3.70271
3.62478
3.55853
3.50791
3.48267
3.48445
3.51521
3.58112
3.6804
3.81566
3.97507
4.0964
4.08369
4.09403
4.49731
4.70601
4.71968
4.70546
4.68464
4.69723
4.6709
4.68488
4.65156
4.62319
4.59727
4.56395
4.49532
4.41818
4.37334
4.36481
4.37343
4.38506
4.40006
4.40163
4.3872
4.38458
4.37448
4.36215
4.3558
4.37281
4.42722
4.51045
4.58395
4.55233
4.78325
4.73412
4.73895
4.76191
4.79581
4.83643
4.86569
4.859
4.85612
4.84719
4.84716
4.85374
4.85289
4.85406
4.84987
4.83149
4.8187
4.8233
4.83792
4.85897
4.89242
4.91969
4.90422
4.87658
4.87765
4.85761
4.82185
4.77497
4.71157
4.71397
4.36551
4.43196
4.52104
4.56187
4.56415
4.54753
4.50338
4.44683
4.39691
4.36373
4.33776
4.31899
4.32129
4.30624
4.31742
4.32225
4.29439
4.30815
4.34034
4.37267
4.4108
4.44511
4.4266
4.44672
4.56165
4.71144
4.70162
4.65992
4.63275
4.60256
4.71215
4.74501
4.71956
4.71904
4.73022
4.68944
4.5365
4.367
4.27171
4.25089
4.27157
4.3456
4.4455
4.54601
4.63567
4.66733
4.65429
4.59069
4.52313
4.50511
4.43893
4.41596
4.43866
4.45856
4.51198
4.57385
4.61814
4.61544
4.58991
4.5791
6.23276
5.72424
5.61721
5.56847
5.37529
5.16993
5.08149
5.13681
5.29258
5.49245
5.68736
5.8299
5.8914
5.90354
5.86713
5.84923
5.82971
5.77324
5.78639
5.76332
5.79545
5.80154
5.80243
5.76767
5.66263
5.72757
6.209
6.34163
6.30194
6.14424
5.25252
4.71859
4.54962
4.42915
4.44327
4.52336
4.61046
4.6884
4.72817
4.77897
4.78011
4.81074
4.79947
4.79529
4.76079
4.74403
4.74106
4.7157
4.71579
4.69261
4.66471
4.68544
4.8511
4.9435
4.94504
4.89671
4.84161
4.80615
4.74841
4.71431
4.72
4.64159
4.68602
4.75711
4.82834
4.88855
4.92875
4.98159
4.99009
5.04824
5.07022
5.07471
5.08089
5.07236
5.04525
5.01709
4.9558
4.93905
4.98536
5.10828
5.10423
5.17645
5.14298
5.15198
5.13351
5.14684
5.07993
4.94403
4.94608
5.24269
5.38913
5.41302
5.457
5.51114
5.59886
5.71013
5.84033
5.92604
6.05045
6.12885
6.1553
6.19294
6.191
6.08497
5.96167
5.75799
5.56691
5.31273
5.09111
5.13002
5.1606
5.19076
5.20365
5.15468
5.10703
5.10322
5.07365
5.04431
5.00734
4.96044
5.69499
5.34193
5.29495
5.47255
5.67912
5.86349
6.0218
6.13219
6.19853
6.22223
6.1895
6.12383
5.98248
5.82366
5.68672
5.67833
5.84246
6.11158
6.31301
6.43396
6.51874
6.5561
6.57974
6.51102
6.35906
6.21312
6.10596
6.08511
5.84141
5.71556
7.21974
7.17784
6.51497
6.47534
6.47201
6.39781
6.31357
6.25834
6.26337
6.31393
6.46174
6.66326
6.85828
7.05876
7.2032
7.22641
7.21422
7.12502
7.08612
7.12189
7.17304
7.2451
7.27928
7.31325
7.32951
7.24611
7.02699
6.84879
6.95571
7.38272
6.81797
7.1957
7.22503
6.72974
6.57306
5.33716
4.44955
4.26784
4.21395
4.14835
4.12569
4.11028
4.1154
4.1086
4.11978
4.14373
4.18525
4.25362
4.35561
4.46073
4.5135
4.51933
4.54024
4.60119
4.76339
5.12211
5.56945
5.66633
5.33818
4.67999
2.88031
3.01242
3.03134
2.95388
2.85189
2.76643
2.69228
2.64227
2.64892
2.74243
2.85761
2.84506
2.66117
2.42415
4.09848
3.78403
3.81489
3.94988
4.02556
3.96578
3.64106
3.27325
3.10012
3.11495
3.35783
3.60078
3.70299
3.77898
3.79314
3.70702
3.59072
3.48916
3.40304
3.33516
3.29178
3.27719
3.29876
3.36607
3.47668
3.63492
3.83273
4.02772
4.09218
4.08625
4.48021
4.68668
4.69822
4.69172
4.67259
4.66793
4.65123
4.60402
4.5247
4.49563
4.50771
4.54815
4.5062
4.42665
4.38811
4.39987
4.41079
4.41679
4.40128
4.37429
4.36846
4.37667
4.36826
4.36562
4.35482
4.34858
4.37709
4.46202
4.56879
4.57585
4.78083
4.73579
4.74734
4.77974
4.81816
4.85765
4.84576
4.81826
4.79964
4.79854
4.80123
4.81438
4.83562
4.84434
4.84561
4.83804
4.82888
4.84014
4.87734
4.9213
4.9499
4.95972
4.97766
4.94558
4.89048
4.8868
4.8687
4.82445
4.75666
4.71958
4.38249
4.4401
4.54387
4.57274
4.56139
4.52287
4.45933
4.39122
4.34879
4.31405
4.29935
4.27157
4.25852
4.22445
4.19618
4.17304
4.18939
4.18372
4.22747
4.24859
4.32637
4.39706
4.4189
4.41398
4.47309
4.61484
4.72073
4.69364
4.667
4.63329
4.72434
4.75865
4.73353
4.73454
4.73682
4.64453
4.44537
4.26718
4.19074
4.19277
4.24443
4.32352
4.41052
4.53185
4.66049
4.6669
4.58147
4.44509
4.35865
4.27677
4.19396
4.19334
4.18292
4.22817
4.31437
4.43213
4.54061
4.59306
4.58921
4.58454
6.22153
5.65589
5.50777
5.31783
5.03021
4.8682
4.87937
5.02111
5.22614
5.51174
5.75821
5.87882
5.86876
5.80154
5.71588
5.60317
5.4731
5.46145
5.41945
5.46879
5.53912
5.61591
5.71508
5.76244
5.72699
5.68591
5.93245
6.33867
6.37061
6.18755
5.06512
4.68802
4.41168
4.41105
4.53069
4.65186
4.72242
4.75215
4.75277
4.74227
4.73092
4.72691
4.71786
4.70436
4.71897
4.70394
4.70556
4.69834
4.71808
4.71949
4.68352
4.66679
4.76994
4.92887
4.966
4.92126
4.85062
4.8092
4.74445
4.70649
4.61249
4.66412
4.76702
4.8526
4.89323
4.91948
4.9552
4.98136
4.98935
5.02192
5.03967
5.10564
5.1221
5.10639
5.11153
5.0936
5.03315
4.9708
4.98646
5.03312
5.09953
5.15922
5.16166
5.12706
5.17878
5.16281
5.17923
5.04333
4.87939
5.16303
5.39403
5.40731
5.43089
5.51435
5.65695
5.82711
5.93824
6.04513
6.15488
6.19653
6.23088
6.19325
6.17421
6.16094
6.11131
5.9114
5.79248
5.47428
5.22717
5.14407
5.09349
5.1701
5.18104
5.1201
5.10324
5.13055
5.09681
5.03917
4.99278
4.94161
5.5589
5.29062
5.43704
5.71055
5.92556
6.08014
6.19036
6.2597
6.31514
6.32611
6.32873
6.27156
6.19572
6.00015
5.7897
5.67826
5.81947
6.08975
6.2645
6.37587
6.47426
6.54679
6.58084
6.56655
6.40831
6.15482
5.96924
5.87098
5.79545
5.71682
7.20326
6.83147
6.36463
6.28019
6.15689
5.91634
5.75191
5.65479
5.65714
5.75404
5.90236
6.14455
6.454
6.7629
7.0285
7.1638
7.13516
7.058
7.04441
7.11757
7.24943
7.31444
7.35927
7.35742
7.37338
7.3511
7.11243
6.90864
6.99083
7.37059
6.38402
7.1843
7.27236
6.78477
6.04421
4.80119
4.27764
4.17342
4.11447
4.07128
4.06918
4.06445
4.06407
4.07427
4.07284
4.07725
4.10627
4.16476
4.27295
4.42662
4.53393
4.54671
4.58049
4.84493
5.30328
5.63995
5.61242
5.38241
4.82113
4.5619
3.02677
3.0426
2.94753
2.84699
2.79531
2.79823
2.77091
2.67032
2.57376
2.58965
2.73086
2.84835
2.72226
2.44269
4.09742
3.78275
3.83366
3.98033
4.03229
3.9264
3.57028
3.22566
3.06508
3.09087
3.39415
3.68305
3.75267
3.81026
3.76815
3.62846
3.50778
3.41133
3.32095
3.23637
3.16732
3.12633
3.12967
3.18793
3.30248
3.47494
3.69509
3.94956
4.08342
4.0809
4.45683
4.66095
4.67733
4.66697
4.64671
4.63853
4.58796
4.47225
4.34006
4.29143
4.35959
4.50003
4.50255
4.43402
4.41179
4.43153
4.43462
4.39944
4.3498
4.32893
4.31732
4.30677
4.33549
4.34194
4.35018
4.35078
4.36119
4.42155
4.54047
4.5998
4.78364
4.7406
4.75274
4.78649
4.83411
4.85091
4.81965
4.79668
4.77776
4.76427
4.77635
4.79909
4.81352
4.8375
4.83879
4.82835
4.84379
4.88544
4.93505
4.9637
4.96922
4.9414
4.94016
4.96298
4.929
4.8903
4.89386
4.87323
4.80334
4.74836
4.40678
4.45296
4.58205
4.56752
4.5427
4.49719
4.41559
4.36481
4.32842
4.30771
4.2816
4.23167
4.19602
4.12437
4.10167
4.0872
4.06373
4.07739
4.10761
4.14518
4.23065
4.31758
4.40177
4.40458
4.43031
4.5371
4.69079
4.71514
4.68688
4.65569
4.736
4.77712
4.74634
4.7467
4.76505
4.67225
4.46923
4.30151
4.2425
4.26749
4.356
4.42194
4.43983
4.54092
4.68466
4.63498
4.45806
4.28907
4.18563
4.05249
3.99639
3.98431
3.98244
4.03881
4.14271
4.28914
4.44587
4.55744
4.58562
4.58789
6.19936
5.61423
5.38966
5.10397
4.81206
4.72764
4.83158
5.03882
5.2225
5.54577
5.80391
5.87257
5.82588
5.69387
5.49137
5.30061
5.21011
5.10323
5.10456
5.12823
5.23482
5.39034
5.55487
5.7085
5.7435
5.68969
5.81294
6.26667
6.38388
6.23542
4.8277
4.52515
4.36549
4.49815
4.65529
4.72909
4.74637
4.71976
4.69758
4.67284
4.6518
4.64713
4.65295
4.64744
4.64481
4.64055
4.66233
4.65559
4.6963
4.69792
4.70253
4.66101
4.72787
4.85187
4.96796
4.92251
4.84592
4.81782
4.78391
4.69904
4.63198
4.72557
4.82991
4.88961
4.91133
4.92995
4.96494
4.95031
4.93798
5.01298
5.05239
5.06979
5.06689
5.10827
5.11553
5.12494
5.07945
5.01535
4.99985
5.0137
5.0813
5.08352
5.10642
5.16211
5.2399
5.28006
5.21252
5.05889
4.82539
5.00522
5.39665
5.36601
5.39039
5.53763
5.74047
5.92872
6.0341
6.16243
6.22258
6.28123
6.28925
6.32319
6.26782
6.16008
6.13219
6.01448
5.88979
5.60981
5.37973
5.18266
5.08527
5.13882
5.13265
5.10908
5.12751
5.14911
5.13321
5.04666
4.97938
4.90648
5.30517
5.31711
5.6329
5.90461
6.06208
6.17518
6.21602
6.18063
6.21335
6.33902
6.4148
6.394
6.32861
6.16937
5.91497
5.71659
5.80947
6.0492
6.20336
6.25045
6.33426
6.42305
6.50571
6.567
6.58253
6.40984
6.13586
5.86174
5.74752
5.72459
7.22146
6.63937
6.20623
6.05529
5.74928
5.49708
5.28854
5.18912
5.17812
5.26266
5.43006
5.6748
6.02502
6.44115
6.84239
7.09208
7.14512
7.05739
7.01711
7.18558
7.28961
7.36847
7.41701
7.4458
7.39586
7.37704
7.15691
6.94002
7.03633
7.367
6.00897
7.07882
7.31995
6.72793
5.59108
4.51705
4.17951
4.10863
4.0518
4.03843
4.06058
4.06271
4.0809
4.08383
4.0839
4.0741
4.07158
4.10859
4.19229
4.35255
4.53847
4.60382
4.67245
5.16005
5.61962
5.63584
5.13807
4.72116
4.43467
4.58045
3.05766
2.97621
2.87052
2.88723
3.03264
3.15496
3.14751
2.97212
2.71904
2.56889
2.63611
2.81107
2.75398
2.4599
4.12178
3.78115
3.83782
3.98511
4.03666
3.93052
3.62028
3.26007
3.05347
3.04939
3.33991
3.70027
3.77764
3.82829
3.72254
3.58083
3.48453
3.39394
3.28407
3.16701
3.07002
3.01363
3.002
3.05053
3.16604
3.3426
3.58436
3.87515
4.07024
4.07614
4.40342
4.60823
4.6331
4.61501
4.61049
4.59425
4.50091
4.3383
4.18526
4.11352
4.20664
4.45797
4.49338
4.43677
4.4499
4.46728
4.41402
4.34456
4.30869
4.29519
4.28349
4.29419
4.29136
4.3207
4.32918
4.33408
4.35461
4.40964
4.5189
4.59871
4.78957
4.74181
4.75179
4.78506
4.8362
4.84374
4.81344
4.80109
4.78204
4.75747
4.76483
4.79361
4.80343
4.82046
4.8332
4.82917
4.87034
4.93041
4.96853
4.97163
4.97622
4.97128
4.91034
4.8879
4.93351
4.92004
4.90434
4.90621
4.85409
4.77848
4.45507
4.47314
4.59595
4.5505
4.53659
4.4742
4.39638
4.34705
4.33793
4.3135
4.25706
4.17687
4.10755
4.01891
3.98175
3.93636
3.93833
3.96029
4.0073
4.06095
4.14622
4.24564
4.35963
4.39193
4.40995
4.49293
4.65974
4.71837
4.69643
4.65365
4.73053
4.79106
4.78027
4.75799
4.76988
4.73618
4.59529
4.45138
4.40807
4.44771
4.52062
4.55926
4.51179
4.57327
4.7026
4.56108
4.32671
4.16037
4.01644
3.87171
3.83162
3.79687
3.82084
3.87695
3.99574
4.17737
4.36021
4.50728
4.58142
4.5961
6.2121
5.56753
5.26828
4.94347
4.70808
4.6938
4.88652
5.12195
5.23559
5.56259
5.83609
5.89727
5.78103
5.53513
5.31912
5.17546
5.03506
4.96215
4.91671
4.92757
5.0254
5.17813
5.42261
5.6234
5.74613
5.7077
5.78249
6.15044
6.40529
6.26931
4.67555
4.32554
4.40046
4.61601
4.71885
4.73995
4.71417
4.67542
4.64634
4.63008
4.62144
4.6568
4.64458
4.6488
4.63327
4.62442
4.61312
4.63925
4.65052
4.69101
4.68621
4.66584
4.68079
4.79668
4.88829
4.84
4.80033
4.80669
4.75837
4.66347
4.64469
4.75083
4.85269
4.90524
4.9254
4.9433
4.97363
4.89343
4.93121
4.95205
4.93064
4.9865
5.08001
5.11205
5.1175
5.13531
5.11439
5.0598
4.99936
4.97085
5.01665
5.06436
5.06317
5.20923
5.30683
5.31388
5.30291
5.15001
4.83986
4.9658
5.3554
5.30954
5.37229
5.57618
5.82934
6.01327
6.11667
6.25877
6.27931
6.26027
6.24831
6.21389
6.18891
6.14749
6.15624
5.99074
5.94877
5.71411
5.48553
5.24904
5.12169
5.1245
5.11847
5.11477
5.14726
5.18443
5.12399
5.03396
4.95643
4.89717
5.24011
5.4474
5.7978
6.03639
6.12191
6.20016
6.10171
6.02513
6.12212
6.1965
6.35243
6.47473
6.4147
6.30559
6.03343
5.75968
5.80436
6.01039
6.10205
6.11813
6.11165
6.17785
6.27393
6.38736
6.53846
6.66645
6.61202
6.3259
5.90832
5.73717
7.20367
6.49115
6.08661
5.78416
5.45781
5.12143
4.96504
4.85744
4.83575
4.88498
5.0576
5.29757
5.65651
6.10088
6.61837
7.01584
7.16005
7.05146
7.03032
7.20721
7.29053
7.3569
7.4305
7.46981
7.40459
7.35205
7.13807
6.98012
7.13684
7.37138
5.68373
6.71694
7.33341
6.69067
5.29401
4.37356
4.12898
4.0547
4.03747
4.04036
4.03792
4.04282
4.03802
4.04079
4.06332
4.08847
4.08429
4.09111
4.12732
4.25185
4.49277
4.66307
4.73392
5.3015
5.76398
5.37756
4.64288
4.39434
4.46294
4.93776
3.01879
2.91688
2.93824
3.16715
3.35543
3.40969
3.35791
3.18201
2.86698
2.60367
2.60352
2.77366
2.75808
2.46411
4.17444
3.79443
3.81622
3.96484
4.02032
3.96489
3.73389
3.36101
3.0636
3.03813
3.27616
3.69446
3.79983
3.83741
3.69128
3.57266
3.49976
3.40358
3.25125
3.08809
2.96453
2.90187
2.89373
2.9451
3.06845
3.25725
3.51707
3.83786
4.05923
4.07331
4.35866
4.54027
4.58464
4.54919
4.50966
4.4537
4.33724
4.18413
4.05475
4.01232
4.12132
4.43959
4.4848
4.45113
4.48322
4.46115
4.38624
4.32475
4.29361
4.26986
4.27895
4.28184
4.30628
4.30651
4.33966
4.33136
4.34003
4.40238
4.5234
4.61164
4.79454
4.74863
4.74233
4.77759
4.82136
4.83312
4.82363
4.80402
4.78779
4.75816
4.77012
4.80167
4.78107
4.8044
4.81994
4.83579
4.8918
4.9622
4.99529
4.98369
4.97494
4.92898
4.92733
4.88428
4.87541
4.9224
4.92507
4.93213
4.89518
4.8008
4.49683
4.51453
4.57611
4.55528
4.54056
4.4687
4.39113
4.35569
4.35266
4.30414
4.23474
4.12304
4.03281
3.92598
3.87827
3.83045
3.83171
3.85656
3.92431
3.99021
4.08588
4.19658
4.31428
4.37797
4.40139
4.46839
4.6449
4.72578
4.6977
4.6503
4.73371
4.80428
4.81468
4.76661
4.75895
4.77902
4.73686
4.65128
4.60554
4.62071
4.66724
4.66559
4.56144
4.60318
4.69277
4.46624
4.22389
4.05306
3.87279
3.73741
3.69446
3.66075
3.70069
3.7812
3.91043
4.09773
4.31284
4.47905
4.56752
4.60705
6.20539
5.54245
5.18393
4.8528
4.67371
4.68638
4.98473
5.22764
5.24853
5.58487
5.87978
5.91017
5.70387
5.46185
5.27467
5.06745
4.8853
4.75395
4.72635
4.75974
4.90458
5.06075
5.33927
5.59686
5.75609
5.73053
5.79693
6.12329
6.43387
6.23931
4.57671
4.23928
4.50172
4.68655
4.73588
4.71402
4.70665
4.6279
4.63814
4.60583
4.63977
4.65872
4.68028
4.6876
4.64533
4.60995
4.60713
4.59322
4.62822
4.6609
4.67857
4.64918
4.67368
4.73492
4.81027
4.78964
4.78603
4.75483
4.72996
4.64856
4.59821
4.75439
4.87656
4.92223
4.93655
4.95133
4.96665
4.85877
4.92922
4.94717
4.92905
4.98029
5.02039
5.03219
5.10997
5.10267
5.11026
5.05888
4.99976
4.97835
4.98123
4.97276
5.13359
5.28443
5.33708
5.33598
5.27679
5.07943
4.77999
4.88315
5.31804
5.26962
5.36809
5.61341
5.894
6.06675
6.19036
6.31542
6.3158
6.25031
6.25129
6.18991
6.2119
6.10054
6.10907
6.01825
5.96299
5.75506
5.57777
5.29808
5.17402
5.13924
5.11678
5.12005
5.2086
5.15256
5.03667
4.95107
4.91306
4.8514
5.1878
5.5732
5.88915
6.07827
6.16807
6.11917
5.95296
5.90345
6.04152
6.14193
6.26171
6.57609
6.52129
6.41193
6.10686
5.81559
5.83302
5.9936
6.05113
5.986
5.95474
5.94322
6.00394
6.08596
6.21356
6.461
6.76765
6.84891
6.62518
6.18555
7.23485
6.43719
5.94175
5.61859
5.19504
4.94236
4.73719
4.67234
4.64991
4.69617
4.8113
5.01343
5.37029
5.82018
6.37066
6.88144
7.15674
7.08927
6.98909
7.16148
7.29219
7.35277
7.40413
7.42076
7.35264
7.2489
7.11035
7.05065
7.28439
7.37601
5.3941
6.2266
7.30167
6.72016
5.16994
4.30325
4.10018
4.0272
4.02852
4.02121
4.05081
4.02041
4.04495
4.03889
4.03553
4.06425
4.08513
4.10298
4.11167
4.17116
4.40788
4.72952
4.80831
5.28324
5.97922
5.44746
4.6558
4.51522
4.89139
5.79081
2.95452
2.9255
3.15562
3.37649
3.40782
3.25507
3.1084
2.96587
2.77315
2.58873
2.59112
2.76544
2.74875
2.44949
4.26354
3.83658
3.78503
3.91935
3.99587
3.98165
3.86156
3.54496
3.1464
3.0567
3.24992
3.69129
3.8218
3.83821
3.6829
3.59629
3.54055
3.41965
3.21503
3.01331
2.8732
2.8134
2.82361
2.88315
3.01722
3.22135
3.4978
3.84364
4.06155
4.06407
4.30754
4.43021
4.48425
4.45027
4.38391
4.29293
4.1654
4.05641
3.98677
3.98107
4.0978
4.4556
4.49134
4.46576
4.49331
4.46964
4.36992
4.30593
4.27505
4.28657
4.31056
4.30308
4.30663
4.29998
4.3363
4.32963
4.34427
4.38961
4.53362
4.61434
4.80421
4.74884
4.73515
4.75774
4.78018
4.80724
4.79515
4.78371
4.74532
4.73291
4.75517
4.77962
4.75888
4.77861
4.80965
4.84066
4.91602
4.97937
5.01403
4.95545
4.92475
4.86882
4.8698
4.88796
4.88173
4.93522
4.93474
4.9482
4.92281
4.81826
4.52286
4.56401
4.54972
4.5873
4.57008
4.4716
4.39394
4.36318
4.35714
4.29989
4.20987
4.10449
3.98035
3.87651
3.80127
3.74268
3.76155
3.78879
3.86718
3.94113
4.05803
4.16708
4.29487
4.38321
4.40068
4.45991
4.65391
4.73438
4.67988
4.65009
4.73045
4.79267
4.81962
4.8087
4.77741
4.77989
4.7811
4.75733
4.726
4.73763
4.75416
4.72887
4.59588
4.62274
4.66177
4.39063
4.15987
3.96882
3.78337
3.65363
3.60916
3.57536
3.63751
3.72609
3.87743
4.07074
4.30118
4.47581
4.57273
4.60699
6.24326
5.51103
5.12892
4.8236
4.66509
4.69271
5.08741
5.31736
5.24835
5.59348
5.87948
5.89179
5.70778
5.43357
5.25067
5.02671
4.8449
4.73664
4.69587
4.72003
4.88674
5.0625
5.33684
5.63238
5.77094
5.74856
5.78499
6.11287
6.3891
5.89247
4.47824
4.27321
4.58599
4.69876
4.73881
4.71398
4.70915
4.63677
4.6456
4.59858
4.65434
4.67439
4.66762
4.68122
4.66254
4.6476
4.55784
4.60331
4.58399
4.64214
4.64541
4.65572
4.63866
4.6792
4.72051
4.73052
4.71936
4.69694
4.66125
4.63114
4.59316
4.77355
4.89287
4.93167
4.93516
4.97198
4.92389
4.87319
4.92203
4.93133
4.94116
4.96637
4.95089
5.02622
5.05883
5.0974
5.08618
5.04977
4.98603
4.94025
4.95192
4.94383
5.26175
5.31552
5.14738
5.16718
5.15576
4.94728
4.72628
4.83262
5.24829
5.20329
5.36096
5.62262
5.90578
6.1097
6.24603
6.35474
6.35253
6.28781
6.26113
6.16559
6.20528
6.0774
6.10891
6.03757
5.98209
5.80841
5.61288
5.34165
5.23254
5.15755
5.11321
5.16828
5.22115
5.07393
4.91929
4.8831
4.86134
4.84498
5.28479
5.6898
5.92586
6.09645
6.16369
6.02292
5.8778
5.86958
6.01392
6.06494
6.24673
6.4618
6.61579
6.4884
6.13216
5.83297
5.83266
5.93323
5.9508
5.90962
5.86305
5.82834
5.81555
5.88125
5.96794
6.09372
6.4255
6.86699
7.02583
6.8901
7.19447
6.38147
5.9044
5.47189
5.10305
4.77971
4.65718
4.53776
4.50752
4.56267
4.6683
4.86422
5.18232
5.61937
6.18311
6.74022
7.09928
7.15236
6.94339
7.10204
7.24727
7.29947
7.33682
7.34957
7.26194
7.20095
7.14523
7.2303
7.36971
7.38114
5.12692
5.66039
7.21847
6.87707
5.17089
4.2966
4.08129
4.03119
4.01898
4.01987
4.05084
4.02179
4.03836
4.04015
4.04128
4.05296
4.08515
4.10688
4.1279
4.1338
4.29265
4.77955
4.95888
5.1804
6.20006
6.09388
5.32722
5.31519
6.3333
7.28211
2.92103
3.02642
3.32418
3.33127
3.00599
2.7645
2.65979
2.61568
2.57991
2.54703
2.59798
2.78293
2.7451
2.45634
2.67646
3.26963
4.15962
3.968
3.78134
3.85192
3.94854
3.97481
3.91648
3.68298
3.28355
3.09793
3.25908
3.70313
3.8399
3.8336
3.69571
3.63447
3.58986
3.44595
3.20917
2.98934
2.85041
2.80468
2.81383
2.87377
3.0189
3.23621
3.53318
3.89024
4.06122
4.08606
4.3187
4.30007
4.27004
4.33852
4.37267
4.34173
4.27198
4.1812
4.08597
4.01193
3.9699
3.97881
4.12013
4.4992
4.48867
4.47706
4.51484
4.46308
4.35512
4.30843
4.29857
4.31456
4.33518
4.32258
4.32091
4.31481
4.32793
4.33328
4.34939
4.40329
4.53497
4.61376
4.55646
4.67937
4.79621
4.75773
4.74002
4.73514
4.76193
4.77791
4.78012
4.76264
4.73945
4.7534
4.77529
4.74712
4.70981
4.75886
4.79295
4.84276
4.92727
4.97706
5.00259
4.94641
4.92632
4.86206
4.85541
4.85727
4.87343
4.94665
4.94343
4.96909
4.93266
4.80908
4.56072
4.53743
4.54668
4.59334
4.5833
4.649
4.61811
4.49698
4.39907
4.37172
4.36218
4.31137
4.20335
4.11871
3.9676
3.87903
3.76842
3.72988
3.73904
3.78054
3.84806
3.94656
4.05282
4.17039
4.30414
4.38794
4.3965
4.47896
4.67433
4.70718
4.6573
4.6457
4.63185
4.67827
4.71414
4.76983
4.82581
4.8426
4.81235
4.80072
4.79185
4.7822
4.77775
4.78736
4.79371
4.74742
4.60734
4.63181
4.61822
4.34093
4.12395
3.92268
3.75903
3.62618
3.59079
3.56426
3.63117
3.72925
3.89879
4.1079
4.33457
4.49535
4.56854
4.61758
5.49184
6.2423
6.20076
5.50393
5.11842
4.83062
4.6754
4.73733
5.18691
5.40577
5.24831
5.55495
5.84931
5.89519
5.73096
5.45988
5.27551
5.0727
4.90482
4.80109
4.76939
4.80524
4.97435
5.16029
5.44796
5.68509
5.76494
5.744
5.88355
6.24323
5.87231
4.64107
4.20929
4.25386
4.31974
4.42036
4.62062
4.71441
4.73274
4.73591
4.71287
4.65484
4.63869
4.60503
4.64985
4.64998
4.68583
4.64409
4.67979
4.60059
4.58068
4.5755
4.58362
4.61366
4.65582
4.6302
4.6294
4.66512
4.68885
4.67276
4.64275
4.62585
4.61084
4.58358
4.5567
4.53493
4.58709
4.76016
4.88725
4.92748
4.93263
4.97976
4.92791
4.89428
4.93996
4.8761
4.9085
4.92741
4.96819
4.9897
5.05555
5.0595
5.07157
5.03665
4.97016
4.92531
4.93394
5.13386
5.29834
5.15423
4.99398
4.92368
4.88244
4.74851
4.75713
5.17959
5.44879
5.30795
5.15477
5.14272
5.34832
5.6132
5.90194
6.12444
6.28365
6.36149
6.421
6.32658
6.29261
6.15995
6.1963
6.07503
6.11884
6.05113
5.99381
5.80606
5.63099
5.39746
5.25346
5.17767
5.14029
5.24585
5.25846
5.13514
5.06033
5.03304
5.02274
5.03283
5.12666
5.12182
5.28612
5.63916
5.90405
6.05876
6.11541
5.98133
5.87341
5.9044
6.02796
6.08506
6.35176
6.48527
6.6036
6.49185
6.15795
5.83957
5.86041
5.95572
5.95082
5.86187
5.81227
5.81256
5.80382
5.7794
5.82827
5.91496
6.0929
6.55122
7.12609
7.24288
7.11269
7.17481
7.27999
6.49851
5.83914
5.46894
5.01931
4.78299
4.58595
4.54512
4.4964
4.51677
4.63542
4.80162
5.1151
5.51197
6.08447
6.62827
7.01646
7.23037
6.94765
6.93385
7.23996
7.29158
7.31142
7.31715
7.32128
7.30645
7.33308
7.34719
7.34708
7.1474
5.74541
5.18628
4.84612
5.22651
6.63275
6.98831
5.33594
4.3457
4.08018
4.04625
4.0079
4.03518
4.03205
4.01781
4.04054
4.03684
4.03057
4.05787
4.08236
4.10895
4.13847
4.14034
4.20684
4.77434
5.21923
5.12892
6.36535
6.90924
6.60737
6.93436
7.30817
7.42984
3.91059
3.14852
2.90596
3.14559
3.32659
2.95632
2.57927
2.45208
2.45196
2.47357
2.52304
2.56015
2.65479
2.80655
2.72657
2.45921
2.60781
3.18798
4.1246
4.05461
3.79373
3.78836
3.8709
3.93362
3.9034
3.73109
3.38656
3.16711
3.30364
3.73149
3.86285
3.83595
3.72184
3.67794
3.64515
3.5036
3.26147
3.03787
2.90104
2.84319
2.85356
2.92557
3.07859
3.3063
3.62265
3.94246
4.07949
4.16235
4.36683
4.29033
4.23388
4.23954
4.24287
4.223
4.17859
4.12278
4.06427
4.01598
3.98498
4.00321
4.17729
4.54864
4.4889
4.4918
4.53047
4.4668
4.3703
4.31932
4.309
4.31303
4.33613
4.32829
4.33235
4.3226
4.32457
4.3294
4.35011
4.42448
4.55358
4.59786
4.55869
4.71532
4.788
4.76947
4.73047
4.72209
4.71475
4.72258
4.71816
4.71592
4.70873
4.74249
4.73166
4.69716
4.6715
4.75133
4.78988
4.83522
4.9229
4.95792
5.0031
4.95562
4.94886
4.86401
4.86815
4.87228
4.90416
4.95453
4.95351
4.98108
4.92676
4.76918
4.57024
4.53655
4.55805
4.58649
4.61942
4.7035
4.68911
4.53899
4.39912
4.37301
4.37444
4.32907
4.23839
4.14105
4.02155
3.92889
3.85847
3.78954
3.79031
3.80643
3.89102
3.97243
4.07838
4.20381
4.32279
4.3924
4.40739
4.5311
4.7045
4.71469
4.67502
4.65796
4.64703
4.6502
4.64204
4.7076
4.76946
4.81931
4.83391
4.83742
4.82051
4.81198
4.80902
4.8153
4.80497
4.74168
4.61045
4.6393
4.58476
4.32457
4.12148
3.93651
3.78916
3.66004
3.62608
3.62099
3.67972
3.79887
3.99223
4.1961
4.38845
4.50175
4.59648
4.97361
6.02557
6.24224
6.08041
5.43268
5.07702
4.84025
4.70611
4.83816
5.30657
5.46738
5.21836
5.50967
5.83278
5.87744
5.75005
5.55824
5.3639
5.18145
5.03268
4.94949
4.95068
5.015
5.17254
5.35786
5.57994
5.7312
5.75752
5.8186
6.02626
5.98179
4.85973
4.16603
4.08226
4.10888
4.17285
4.35189
4.58249
4.69051
4.7393
4.74518
4.73169
4.6846
4.66097
4.61169
4.62947
4.62872
4.62787
4.68151
4.59517
4.61683
4.5665
4.57177
4.56827
4.63548
4.62275
4.62559
4.6164
4.63615
4.66425
4.62234
4.56623
4.5522
4.5547
4.53771
4.50361
4.50274
4.59151
4.76405
4.87715
4.9434
4.92253
4.97241
4.96169
4.89486
4.93897
4.95293
4.91386
4.91189
4.98909
5.03751
5.03616
5.05581
5.0446
4.99178
4.92475
4.90173
4.99415
5.20612
5.31213
5.21764
4.98733
4.8361
4.75384
4.75292
4.95669
5.30951
5.3885
5.15286
4.92549
4.9253
5.24144
5.55018
5.8424
6.11186
6.285
6.35394
6.46202
6.4156
6.38169
6.21648
6.28865
6.15096
6.13453
6.07288
5.98619
5.76653
5.61992
5.41462
5.25891
5.1978
5.16711
5.29211
5.26495
5.22181
5.1682
5.12606
5.08214
5.03422
5.01097
5.07023
5.2915
5.65505