/*--------------------------------*- C++ -*----------------------------------*\
| =========                 |                                                 |
| \\      /  F ield         | OpenFOAM: The Open Source CFD Toolbox           |
|  \\    /   O peration     | Version:  2.1.1                                 |
|   \\  /    A nd           | Web:      www.OpenFOAM.org                      |
|    \\/     M anipulation  |                                                 |
\*---------------------------------------------------------------------------*/
FoamFile
{
    version     2.0;
    format      ascii;
    class       volScalarField;
    location    "0.002700000";
    object      k;
}
// * * * * * * * * * * * * * * * * * * * * * * * * * * * * * * * * * * * * * //

dimensions      [0 2 -2 0 0 0 0];

internalField   nonuniform List<scalar> 
12384
(
0.171723
0.284235
0.392328
0.485448
0.55154
0.564167
0.59183
0.500395
0.433478
0.498733
0.247873
0.178087
0.16052
0.120818
0.139691
0.393306
0.412865
0.396128
0.666473
1.78888
3.83873
6.15105
8.43913
8.83182
10.27
9.16998
12.4288
12.5033
12.9706
15.6128
11.7576
10.8146
8.20618
5.24203
6.48183
5.896
7.97956
3.62367
3.69673
3.42424
2.31252
1.60184
0.742211
0.234544
1.22833
7.27589
24.3015
36.7014
81.631
83.9851
109.219
173.286
205.961
335.455
360.218
431.195
401.101
248.917
190.621
84.5614
50.1629
34.0753
22.4491
24.8777
24.7773
23.7368
18.1571
11.8338
3.9987
2.40079
2.13481
0.967561
0.403148
0.21677
2.62445
23.2312
141.5
527.121
1237.21
2079.27
2677.36
3046.32
3049.37
2958.12
2938.06
2499.42
2622.16
1938.3
1871.24
1221.6
738.977
230.259
36.16
2.72584
2.85439
2.12344
2.3384
2.21508
1.8631
1.05621
0.600743
0.578205
0.431792
0.141406
0.154496
0.254141
0.641967
91.2028
99.9002
123.452
109.305
197.121
229.657
140.519
175.525
172.155
136.037
106.798
49.21
21.9788
10.9077
5.39874
3.64725
2.92343
2.96182
2.65775
2.11116
1.52809
1.09743
0.807105
0.428895
0.243885
0.159217
0.12969
0.105544
0.108216
0.112344
0.117473
0.129781
0.144496
0.197238
0.215968
0.363671
0.369739
0.553637
0.53865
0.675366
0.570783
0.587622
0.477821
0.428054
0.354354
0.318621
0.283825
0.257308
0.220579
0.193684
0.165489
0.137411
0.124082
0.11512
0.112547
0.111073
0.109088
0.101025
0.101521
0.102289
0.101419
0.10233
0.101874
0.102001
0.101926
0.101648
0.101657
0.101047
0.101238
0.100406
0.10077
0.0999471
0.100302
0.0995788
0.0998506
0.0992286
0.0994059
0.0988809
0.0989892
0.0985742
0.0986053
0.0982972
0.0982548
0.0980126
0.097973
0.0977778
0.0976703
0.0972113
0.0972535
0.0972871
0.097251
0.0972716
0.0972583
0.0972513
0.0972664
0.0972354
0.0972553
0.0972159
0.0972386
0.0971975
0.0972209
0.0971811
0.0972032
0.0971707
0.0971865
0.0971627
0.0971723
0.0971546
0.0971607
0.0971477
0.0971506
0.0971408
0.0971413
0.0971338
0.0971325
0.0971232
0.0971146
0.097103
0.0971162
0.0971187
0.0971196
0.0971221
0.0971212
0.0971246
0.0971219
0.0971253
0.0971223
0.0971248
0.0971226
0.0971235
0.097123
0.0971216
0.0971232
0.0971222
0.0971228
0.0971236
0.0971221
0.0971243
0.0971218
0.0971244
0.0971213
0.0971229
0.0971201
0.09712
0.0971171
0.0971123
0.0971012
0.0971037
0.0971112
0.0971155
0.0971198
0.097122
0.0971242
0.0971227
0.0971255
0.0971228
0.0971253
0.0971228
0.097124
0.0971229
0.097122
0.0971227
0.0971208
0.0971228
0.0971222
0.0971212
0.0971233
0.0971225
0.097122
0.0971251
0.0971224
0.0971248
0.0971227
0.0971228
0.0971222
0.09712
0.0970847
0.0971025
0.0971149
0.0971173
0.0971184
0.0971206
0.0971202
0.0971232
0.0971212
0.0971241
0.0971218
0.0971239
0.0971223
0.0971228
0.0971227
0.097121
0.0971231
0.097122
0.0971226
0.0971237
0.0971219
0.0971241
0.0971215
0.097124
0.097121
0.0971227
0.0971196
0.0971201
0.0971172
0.0971125
0.0971012
0.0970854
0.0971177
0.0971171
0.0971199
0.0971243
0.097124
0.0971266
0.0971242
0.0971264
0.0971234
0.0971255
0.0971234
0.0971244
0.0971233
0.0971251
0.0971253
0.0971231
0.0971235
0.0971231
0.0971247
0.0971229
0.0971257
0.0971235
0.0971255
0.0971232
0.0971231
0.0971194
0.0971174
0.0971181
0.0970848
0.0971016
0.0971149
0.0971189
0.0971188
0.0971245
0.0971207
0.0971283
0.0971217
0.0971293
0.0971222
0.0971287
0.0971228
0.0971263
0.0971231
0.0971232
0.0971226
0.0971208
0.0971224
0.097123
0.0971215
0.0971248
0.0971215
0.0971253
0.0971211
0.0971238
0.0971196
0.0971204
0.0971171
0.0971122
0.0971011
0.271744
1.1326
2.01112
2.81672
3.59782
4.33851
4.69054
4.99708
5.19137
5.4919
3.90929
3.12343
2.00783
0.296611
0.403511
4.56295
9.38012
16.2448
18.1847
30.9634
53.2648
80.0618
106.117
120.474
133.483
146.723
164.932
177.11
179.777
188.099
190.755
171.488
129.621
98.7524
90.4712
91.0636
87.2721
91.922
78.512
64.5573
36.0413
19.4315
8.64926
1.05166
36.854
339.018
660.507
976.994
1439.95
1974.61
2626.79
3230.76
3849.09
4330.64
4741.6
4753.79
4495.1
3589.31
2821.22
1838.54
1183.42
887.311
795.78
854.161
822.428
653.469
462.172
341.138
205.082
106.271
40.5859
20.0342
10.2989
1.33975
44.1546
1262.17
3612.03
5614.7
9043.47
13296.3
17398.4
21027.3
25271.5
30488.9
36284.7
41176.1
43081.5
40084.3
33456.2
23871.8
13933.7
6302.31
2405.17
1000.02
382.06
206.691
131.972
75.9499
45.5827
33.7774
22.1554
11.6112
5.22508
0.587305
24.8139
273.062
1449.55
2116.79
2530.48
2627.09
2615.7
2238.99
1880.98
2035.32
3033.38
4759.52
5202.18
3814.13
1724.64
668.727
267.01
164.819
70.8065
29.0643
23.0583
19.5099
15.625
12.0416
9.05717
7.25531
4.83221
2.27445
0.887444
0.183844
0.112299
0.204408
0.294341
0.474806
0.807636
1.4148
2.43011
3.58266
5.3537
6.93291
7.85249
8.65034
7.79538
6.72237
5.8099
5.30607
4.93728
4.73797
4.64679
4.44728
4.04602
3.46336
2.74303
1.96025
1.23845
0.724552
0.416787
0.245949
0.159137
0.112964
0.100729
0.10976
0.110202
0.111386
0.111884
0.112927
0.113045
0.113589
0.113209
0.113174
0.11231
0.111709
0.11058
0.109629
0.108509
0.107631
0.106667
0.105994
0.105221
0.104695
0.104056
0.10365
0.103133
0.10282
0.102415
0.102183
0.101863
0.101694
0.101401
0.0976878
0.0971473
0.100637
0.100684
0.100666
0.100682
0.10065
0.100644
0.100607
0.100588
0.100544
0.10051
0.100458
0.10041
0.100347
0.100298
0.100261
0.100257
0.100246
0.100251
0.100226
0.100227
0.10019
0.100183
0.100139
0.100139
0.100098
0.100104
0.100094
0.100018
0.0970033
0.0970033
0.0999934
0.100084
0.100043
0.100053
0.100012
0.100024
0.0999833
0.0999959
0.099952
0.0999567
0.0999074
0.0999028
0.099844
0.0998402
0.0998139
0.0998574
0.0998642
0.0999169
0.0999143
0.0999605
0.0999518
0.0999896
0.0999744
0.100013
0.0999982
0.100039
0.100052
0.100003
0.0969914
0.0969895
0.100006
0.100044
0.100041
0.0999978
0.100009
0.0999711
0.0999853
0.0999467
0.0999557
0.0999124
0.0999161
0.0998662
0.0998598
0.0998151
0.0998364
0.0998394
0.0998977
0.0999021
0.099946
0.0999729
0.0999769
0.100016
0.100002
0.100038
0.100024
0.100062
0.100041
0.100003
0.0969945
0.0970024
0.0999847
0.100074
0.100033
0.100043
0.100002
0.100016
0.0999757
0.0999873
0.0999435
0.0999498
0.0999023
0.0998993
0.0998418
0.0998398
0.0998129
0.0998572
0.0998644
0.0999173
0.0999157
0.0999612
0.0999535
0.0999923
0.0999782
0.100017
0.100001
0.100041
0.100054
0.100002
0.0969915
0.0969906
0.100007
0.100043
0.100024
0.100028
0.0999928
0.100006
0.0999694
0.0999829
0.0999406
0.0999464
0.0998981
0.0998947
0.0998379
0.0998269
0.0998284
0.0998372
0.0998928
0.0998952
0.0999429
0.0999374
0.0999803
0.0999667
0.100004
0.0999918
0.100027
0.100019
0.100047
0.100003
0.0969925
0.0970022
0.0999792
0.100063
0.100019
0.100029
0.099991
0.100009
0.0999717
0.0999898
0.0999487
0.09996
0.0999117
0.0999107
0.0998529
0.0998481
0.0998134
0.0998523
0.0998599
0.0999141
0.0999131
0.0999612
0.099954
0.0999927
0.0999773
0.100015
0.0999985
0.100037
0.10005
0.0999987
0.0969919
0.335583
1.89971
2.91798
4.31271
5.9628
7.21348
7.69581
6.72458
7.28681
7.05632
5.83705
5.39592
3.82575
0.438908
0.531948
16.8538
34.9024
56.87
63.1386
93.9884
139.102
177.173
201.822
213.795
235.924
268.512
305.13
345.367
368.507
361.092
327.652
272.279
214.292
165.718
145.697
133.339
108.075
117.853
93.396
63.3769
38.4934
23.9585
13.9235
1.68425
53.9461
771.39
1119.39
1420.27
1866.07
2557.71
3551.48
4630.38
5776.08
6713.28
7506.05
8032.62
7971.47
7342.5
6171.18
4868.88
3775.42
3313.8
2969
2715.91
2168.46
1538.03
1030.86
752.475
615.931
415.071
99.8352
30.726
17.0479
1.84259
91.3385
2684.96
4306.43
5084.56
7427.91
11186.7
15483.8
19645
23868.5
28567.3
33591.6
38310.5
40985.7
40566.3
38257.4
33565.4
26712.8
18586.5
10434.4
4464.85
1830.69
990.826
769.218
737.717
656.343
104.708
37.3469
15.3037
7.79665
1.01193
28.1036
339.559
1357.72
2080.75
2294.2
2253.01
2035.97
1805.53
1994.17
3059.41
5579.34
8924.5
10899.9
9603.68
6222.24
3020.45
1419.45
812.895
450.206
183.277
84.8683
45.4809
34.5615
22.6259
12.572
7.50181
3.91552
1.75176
0.928402
0.180783
0.128625
0.401693
0.7668
1.72574
3.81809
8.28364
16.6022
28.2168
51.8145
72.2317
90.2965
85.3374
69.2766
45.2498
28.8594
17.2965
11.2162
7.52415
5.40389
4.15186
3.23897
2.44615
1.73144
1.14082
0.707487
0.437515
0.282997
0.192588
0.142423
0.110791
0.101649
0.11753
0.116493
0.116588
0.115958
0.115534
0.114643
0.113761
0.112871
0.11164
0.110802
0.109514
0.108814
0.107686
0.107004
0.106086
0.105396
0.104799
0.104182
0.103769
0.10325
0.102978
0.10255
0.102397
0.102032
0.101937
0.101634
0.101546
0.101288
0.0978847
0.0974619
0.100643
0.100624
0.100565
0.100539
0.100479
0.100476
0.100409
0.100407
0.100332
0.100319
0.100236
0.100203
0.100117
0.10008
0.100037
0.100059
0.100056
0.100082
0.100067
0.100081
0.100053
0.100066
0.100034
0.100049
0.100021
0.100029
0.100005
0.0999616
0.0972644
0.0972563
0.0999466
0.0999719
0.099923
0.0999413
0.0998935
0.099908
0.0998576
0.0998678
0.0998133
0.0998177
0.0997552
0.0997429
0.0996718
0.099665
0.099633
0.09969
0.0996999
0.0997671
0.0997683
0.0998253
0.0998183
0.0998699
0.0998596
0.0999086
0.0998976
0.0999353
0.0999295
0.0999142
0.0972527
0.0972509
0.0999144
0.0999166
0.0999207
0.0998795
0.0998968
0.0998519
0.0998663
0.099817
0.0998281
0.0997735
0.0997747
0.0997093
0.0997007
0.0996385
0.09966
0.0996591
0.0997364
0.0997605
0.0998025
0.0998275
0.0998394
0.0998921
0.0998807
0.0999267
0.0999093
0.0999482
0.0999261
0.0999279
0.0973033
0.0972519
0.0999336
0.0999646
0.0999159
0.0999369
0.0998892
0.0999041
0.0998542
0.0998656
0.0998109
0.0998163
0.0997539
0.0997438
0.0996733
0.0996661
0.0996317
0.0996873
0.0996981
0.0997649
0.099767
0.0998246
0.0998177
0.0998706
0.0998594
0.0999095
0.0998994
0.0999367
0.0999321
0.0999166
0.0972534
0.0972996
0.0998991
0.0999212
0.0999204
0.0999221
0.0998765
0.0998895
0.0998404
0.0998512
0.0997982
0.0998049
0.099743
0.0997372
0.0996686
0.0996483
0.0996491
0.0996694
0.0997378
0.0997437
0.0998054
0.0997982
0.0998519
0.0998402
0.0998898
0.0998755
0.0999223
0.0999099
0.0999207
0.09989
0.097299
0.0972505
0.0999308
0.0999592
0.0999112
0.0999323
0.0998854
0.0999009
0.0998499
0.0998628
0.0998093
0.0998163
0.099756
0.0997487
0.0996788
0.0996697
0.0996275
0.0996782
0.0996901
0.0997582
0.0997607
0.0998185
0.0998127
0.099867
0.0998565
0.0999067
0.0998971
0.0999335
0.0999327
0.0999167
0.0972523
0.442072
3.51232
5.18343
8.32087
12.812
16.6987
19.1929
19.9673
20.8286
17.9467
14.2452
8.43468
5.72531
0.515943
1.01093
51.1781
105.914
159.304
177.363
209.341
265.083
318.795
376
430.392
525.586
648.931
754.674
845.926
901.168
870.316
775.468
632.884
487.919
349.578
268.748
212.392
175.357
177.191
141.962
79.985
45.146
32.1567
18.174
2.25998
117.976
1665.15
1908.76
1939.43
2298.06
3183.17
4529.77
6021.14
7496.47
8560.71
9493.51
10247
10292.2
9978.16
9112.76
8435.45
7814.76
7585.19
7424.38
6813.44
5244.84
3578.14
2332.88
1680.01
1194.52
710.655
258.646
55.6841
26.6499
2.97197
419.447
3365.49
4711.16
4987.32
6748.25
10158.7
14609.4
19423.8
23944.9
28115.5
31986.3
35510.4
37391.7
38079.5
37340.5
34925.7
31340.6
25959.3
18954.3
11620.1
6094.6
3029.8
1776.61
1373.7
1160.75
726.832
418.141
43.7904
13.3596
1.02128
23.0656
302.145
1036.26
1511.38
1533.63
1239.71
1237.14
1660.26
2501.01
5281.08
8529.22
12082.5
14628.8
13326.2
9714.64
5924.2
3475.07
2204.19
1247.93
648.288
383.327
239.84
110.561
48.4143
29.7658
14.9702
6.42568
2.56135
1.27757
0.209118
0.173826
1.13439
2.92404
6.93064
15.9698
43.0599
115.153
270.842
525.55
768.127
803.968
727.983
476.879
290.798
158.985
87.2286
45.3092
24.5941
13.2824
7.93018
5.12819
3.53894
2.3917
1.53867
0.918263
0.531953
0.319587
0.205893
0.146637
0.111128
0.101165
0.132681
0.129732
0.128925
0.126045
0.12367
0.12096
0.118659
0.116416
0.114376
0.112599
0.110949
0.109588
0.108336
0.107244
0.106369
0.105486
0.104871
0.104127
0.103663
0.103082
0.10275
0.102289
0.10207
0.101694
0.101545
0.10124
0.101119
0.10084
0.0977865
0.0972818
0.100355
0.100291
0.10028
0.100237
0.100215
0.100177
0.100139
0.100108
0.100069
0.100041
0.100004
0.0999751
0.0999436
0.0999146
0.0998881
0.0998605
0.0998379
0.0998103
0.0997858
0.099757
0.0997275
0.0996988
0.0996707
0.099649
0.0996211
0.0996097
0.099582
0.0995183
0.0971315
0.097124
0.099473
0.099514
0.0995011
0.0995017
0.099494
0.0994959
0.09949
0.0994922
0.0994865
0.0994875
0.0994811
0.0994818
0.0994757
0.0994775
0.0994747
0.0994801
0.0994794
0.0994865
0.0994861
0.099493
0.0994913
0.0994978
0.0994969
0.0995052
0.0995025
0.0995175
0.0995151
0.0994784
0.0971213
0.0971219
0.0994791
0.0995066
0.0995183
0.0995055
0.099506
0.0994977
0.0994987
0.099492
0.0994933
0.0994866
0.0994869
0.0994798
0.0994809
0.0994752
0.0994785
0.0994763
0.0994832
0.099479
0.0994981
0.0995047
0.0994883
0.0994939
0.099492
0.0994986
0.0994975
0.0995061
0.0995032
0.0994773
0.0970893
0.097125
0.0994717
0.0995109
0.0994994
0.0994995
0.0994929
0.0994947
0.0994895
0.0994915
0.0994861
0.0994873
0.0994809
0.0994816
0.0994754
0.0994772
0.0994741
0.0994793
0.0994785
0.0994853
0.0994852
0.099492
0.0994907
0.0994973
0.0994971
0.0995053
0.0995027
0.0995166
0.099515
0.0994771
0.0971208
0.0970894
0.0994876
0.099508
0.0994997
0.0995117
0.0995012
0.0995016
0.0994934
0.0994944
0.0994877
0.0994884
0.0994812
0.0994821
0.0994753
0.0994899
0.0994893
0.0994746
0.099481
0.09948
0.0994866
0.0994859
0.0994924
0.0994913
0.099499
0.099499
0.0995093
0.0995038
0.0995178
0.0994911
0.0970895
0.0971238
0.0994688
0.0995086
0.0994982
0.0994985
0.0994933
0.0994951
0.0994913
0.0994931
0.0994888
0.0994896
0.0994836
0.0994831
0.0994761
0.0994767
0.099473
0.0994772
0.0994762
0.0994833
0.0994843
0.0994918
0.0994913
0.0994981
0.099498
0.0995068
0.0995034
0.0995174
0.0995158
0.099479
0.0971215
0.605513
5.65501
9.35204
15.7763
24.5645
34.2833
42.4526
47.5649
50.8222
50.1466
58.5668
29.0331
11.7884
0.882888
4.508
116.844
228.331
331.4
363.886
401.966
485.525
585.62
716.506
893.371
1136.44
1412.43
1646.65
1797.33
1859.49
1761.77
1563.16
1323.18
1044.59
790.69
576.822
427.189
339.423
299.176
237.185
126.959
49.2631
54.3636
22.0489
3.26719
129.606
3429.82
3160.99
2681.21
3096.47
4385.7
6066.98
7748.38
9326.05
10588.6
11545.3
12126.1
12130.8
11633.3
10717.3
10290.3
9917.9
9743.99
9628.06
9303.31
8455.36
6709.82
4757.84
3332.03
2397.08
1678.41
955.751
187.477
60.542
5.93961
562.076
3312.59
4509.24
4702.91
6209.48
9275.17
14264.8
20337.6
25601.1
29401.3
32135.6
34140
34775.7
34889.2
33388.1
31292.5
28609.3
25537.5
21560.9
16114.6
10448.6
6225.94
3665.8
2533.6
1929.56
1330.95
908.105
524.802
48.4067
2.86579
14.8329
201.15
603.772
782.208
654.048
532.951
1003.01
2452.65
4021.77
6790.56
9840.4
13806.5
17695.2
17532.9
13788.8
9214.35
5878.37
3739.49
2210.91
1248.59
750.282
452.374
265.357
161.314
64.8145
35.3944
15.8373
6.00833
2.50139
0.303685
0.344168
3.80524
17.5517
68.7257
242.065
709.33
1667.13
3118.23
4869.99
5257.98
5376.14
3845.67
2558.41
1325.48
694.836
334.24
167.949
83.0232
42.2299
20.1778
10.6164
6.25777
4.03204
2.53302
1.48498
0.813614
0.439229
0.255004
0.16605
0.113681
0.1033
0.162362
0.158426
0.153369
0.145229
0.138394
0.132144
0.127125
0.122863
0.119364
0.116336
0.113943
0.111784
0.110142
0.108575
0.107407
0.106281
0.105434
0.104627
0.104013
0.103451
0.103
0.102581
0.102246
0.101923
0.101681
0.101415
0.101244
0.100965
0.0977347
0.0973859
0.100508
0.100412
0.100436
0.100323
0.100345
0.100262
0.100273
0.100204
0.100204
0.100138
0.100132
0.10007
0.100061
0.100006
0.0999954
0.0999444
0.099934
0.0998839
0.0998728
0.0998219
0.0998088
0.0997549
0.0997431
0.0996931
0.0996869
0.0996425
0.0996272
0.0995822
0.0971267
0.0971235
0.0995469
0.0995476
0.0995737
0.0995459
0.0995726
0.0995453
0.0995718
0.0995443
0.0995707
0.0995422
0.0995675
0.0995396
0.0995646
0.0995377
0.0995636
0.0995384
0.0995662
0.0995406
0.0995686
0.0995422
0.0995691
0.0995416
0.0995682
0.099541
0.0995682
0.0995446
0.0995605
0.0995403
0.0971172
0.0971199
0.099538
0.0995681
0.0995432
0.0995696
0.099542
0.0995699
0.0995423
0.0995705
0.0995424
0.0995692
0.099541
0.0995666
0.0995388
0.0995642
0.0995377
0.099564
0.0995374
0.0995638
0.099549
0.0995444
0.099568
0.0995406
0.0995686
0.0995424
0.0995705
0.0995451
0.0995741
0.099511
0.0971442
0.0971152
0.09954
0.0995389
0.0995684
0.0995403
0.099569
0.0995413
0.0995696
0.099542
0.0995696
0.099541
0.0995671
0.0995389
0.0995641
0.0995372
0.099563
0.0995378
0.0995654
0.0995399
0.0995678
0.0995414
0.0995682
0.0995408
0.0995675
0.0995404
0.0995676
0.099545
0.0995591
0.0995393
0.0971171
0.0971438
0.0995173
0.0995668
0.0995676
0.0995429
0.0995694
0.0995416
0.0995687
0.0995416
0.0995691
0.0995407
0.0995668
0.0995382
0.0995638
0.0995376
0.0995383
0.099563
0.0995374
0.0995659
0.0995399
0.0995682
0.0995408
0.099568
0.0995405
0.0995677
0.0995407
0.0995677
0.0995591
0.0995206
0.0971419
0.0971171
0.099537
0.0995374
0.0995683
0.0995399
0.0995692
0.0995416
0.0995707
0.0995428
0.0995713
0.0995425
0.0995689
0.0995395
0.0995643
0.0995361
0.0995619
0.0995362
0.0995632
0.0995387
0.0995681
0.0995421
0.0995695
0.099542
0.099569
0.0995419
0.0995692
0.0995472
0.0995605
0.0995421
0.0971171
0.830108
8.39806
15.5654
26.6347
41.3491
57.9489
76.4599
99.9776
128.168
145.851
185.58
153.365
50.6327
2.61208
24.7585
268.211
480.367
645.448
682.638
724.361
845.137
1011.12
1253.8
1668.46
2086.07
2498.9
2779.26
2887.94
2865.41
2677.05
2391.39
2085.48
1751.79
1394.43
1058.11
823.189
651.298
520.44
366.643
213.223
75.4952
248.323
35.912
6.65522
400.747
6179.38
4908.8
3979.79
4606.08
6301.93
8054.58
9729.69
11109.8
12190
12824.7
12928.6
12649.5
11799.8
10898.1
10530.9
10161.4
9911.61
9232.98
8414.75
7655.12
7290.68
6778.46
5738.64
4611.02
3670.85
2688.76
911.706
204.11
21.5845
886.327
3229.78
3995.11
4289.61
5580.29
8626.51
14115.2
21084.6
26822
30758.6
33071.5
34136.6
33817.4
32354.8
29423.7
26135.8
23047.6
20792
18893.2
16417.5
12973.5
9211.64
6248.05
4607.42
3757.29
2853.17
1680.31
673.572
255.516
16.4939
9.04725
159.736
402.429
540.293
525.091
778.288
2264.23
4516.84
6210.28
9072.54
10993.6
15966.6
20834.6
21559.1
17389.9
12226.7
8226.02
5474.7
3603.85
2367.83
1568.62
980.369
548.253
292.422
147.924
69.8163
38.1168
16.2831
6.19046
0.761494
2.0749
60.5246
545.606
1562.04
3782.31
7539.53
12343.7
18428.2
21005.4
22469
18579.4
14161.9
8239.78
4554.43
2147.27
1038.72
473.351
231.614
112.522
56.5544
26.6033
13.2946
7.59811
4.67657
2.71721
1.47736
0.721969
0.370596
0.210272
0.119767
0.103053
0.232443
0.23699
0.214596
0.185175
0.165019
0.150495
0.140281
0.13218
0.126368
0.121345
0.117831
0.114612
0.112386
0.110218
0.108748
0.107254
0.106264
0.105229
0.104569
0.103815
0.103357
0.102805
0.102475
0.102065
0.101838
0.101496
0.101332
0.100958
0.0979231
0.097375
0.100658
0.100493
0.100536
0.100429
0.100456
0.100356
0.100359
0.100276
0.100271
0.100201
0.100191
0.100127
0.100113
0.10006
0.100045
0.0999981
0.0999822
0.0999366
0.0999186
0.0998715
0.0998518
0.0998008
0.0997807
0.0997327
0.0997183
0.0996783
0.0996654
0.0996107
0.0971476
0.09714
0.099574
0.0995845
0.099598
0.0995775
0.0995946
0.0995763
0.0995933
0.0995759
0.0995922
0.0995736
0.0995889
0.0995708
0.099586
0.0995688
0.099586
0.0995696
0.0995878
0.0995721
0.0995899
0.0995734
0.09959
0.0995722
0.0995877
0.0995705
0.0995862
0.0995738
0.0995895
0.0995655
0.097139
0.0971388
0.0995716
0.0995903
0.0995731
0.0995885
0.0995722
0.0995905
0.0995739
0.0995921
0.0995744
0.0995911
0.0995728
0.0995887
0.0995703
0.0995871
0.0995694
0.0995862
0.0995689
0.0995827
0.0995816
0.099576
0.0995887
0.0995718
0.0995895
0.0995726
0.0995898
0.0995735
0.0995938
0.0995509
0.097141
0.0971404
0.0995606
0.0995726
0.0995887
0.0995704
0.0995895
0.0995726
0.0995908
0.0995739
0.099591
0.0995727
0.0995886
0.0995701
0.0995857
0.0995682
0.0995853
0.0995688
0.0995868
0.0995713
0.0995889
0.0995723
0.0995886
0.099571
0.0995867
0.0995702
0.0995859
0.0995757
0.0995877
0.0995635
0.097139
0.0971412
0.0995577
0.0995912
0.099589
0.0995736
0.0995889
0.0995717
0.0995895
0.0995728
0.0995903
0.0995721
0.0995887
0.0995695
0.0995842
0.0995743
0.0995742
0.0995832
0.0995686
0.0995877
0.0995712
0.0995893
0.0995719
0.0995885
0.0995704
0.0995866
0.0995698
0.0995857
0.0995882
0.0995612
0.0971401
0.0971412
0.099558
0.0995717
0.0995876
0.0995697
0.0995888
0.0995719
0.0995907
0.0995741
0.0995922
0.0995745
0.0995901
0.0995708
0.0995858
0.0995673
0.0995841
0.0995671
0.0995856
0.0995712
0.09959
0.0995744
0.099591
0.0995738
0.0995894
0.0995729
0.0995895
0.0995784
0.0995902
0.0995696
0.0971387
1.09277
11.7077
22.2564
38.2669
59.2385
83.1005
115.709
170.908
249.259
337.544
459.255
524.166
350.75
21.4201
137.609
688.074
1059.31
1219.67
1180.31
1178.2
1319.95
1563.7
1997.14
2721.19
3230.54
3489.29
3537.86
3487.7
3348.67
3057.92
2766.13
2546.73
2329.3
2044.5
1747
1505.56
1306.9
1059.55
769.549
495.212
280.494
982.282
98.1673
28.9757
546.517
9366.78
7247.72
6112.23
6975.8
8600.79
10072.3
11353.4
12247.4
12689.1
12784.1
12329.3
11782.8
10801.8
10287.9
10566.2
11332.7
12340.9
12311.9
11086.8
9667.24
9186.52
9370.42
9005.96
7922.28
6702.41
5401.07
2455.18
699.932
171.526
1067.89
3357.75
3776.6
4162.73
5427.21
8637.32
14322.3
20812.2
26430.3
30552.3
33141
34199.9
33594.4
31047
26883.1
22182.3
18240
15820
14752.5
14095.4
13053.4
10985.1
8827.72
7371.97
6532.11
5325.18
3144.72
1253.83
851.344
20.9741
39.226
734.497
1468.3
2251.79
2640.92
3893.36
6897.23
9522.14
10913.5
12425.4
15070
19815.5
24318.3
24546.3
20869.9
16936.2
13971.3
11239.1
8768.85
6284.14
4291.68
2720.68
1511.34
733.272
322.024
155.254
77.7421
57.2102
28.2691
4.29494
85.3161
2029.62
8023
14496.5
24772.5
35553.4
47678.5
56372.2
61034.3
57145
47647.8
31981.7
19290
9807.44
5155.86
2376.7
1139.96
527.721
263.384
130.225
65.9025
31.3852
16.1086
9.34658
5.49256
3.02595
1.50954
0.695381
0.333729
0.133901
0.115648
0.489092
0.530548
0.406071
0.286828
0.219129
0.182316
0.161059
0.146363
0.136344
0.128895
0.123302
0.11901
0.115566
0.112877
0.110599
0.108905
0.107353
0.106262
0.105207
0.104472
0.103745
0.103247
0.102722
0.102383
0.101993
0.101733
0.101467
0.101208
0.0977689
0.0974934
0.100815
0.100629
0.100627
0.100509
0.100521
0.100438
0.100439
0.100366
0.100351
0.100287
0.100262
0.100209
0.100179
0.100138
0.100104
0.100069
0.100035
0.100002
0.0999694
0.0999351
0.0999024
0.0998635
0.0998287
0.0997852
0.0997569
0.0997223
0.0997019
0.0996444
0.0970964
0.0970916
0.0996047
0.0996199
0.099625
0.099614
0.0996222
0.0996125
0.0996202
0.0996118
0.0996185
0.0996094
0.0996153
0.0996073
0.0996126
0.0996064
0.0996125
0.0996068
0.0996138
0.099608
0.0996157
0.0996083
0.0996154
0.0996063
0.0996123
0.0996037
0.0996105
0.099605
0.0996135
0.0995884
0.0970862
0.0970884
0.0995938
0.0996109
0.099603
0.0996104
0.0996053
0.0996144
0.0996081
0.099617
0.0996095
0.0996166
0.0996084
0.0996143
0.0996074
0.0996134
0.0996067
0.0996124
0.0996048
0.0996093
0.0996153
0.0996103
0.0996144
0.0996052
0.0996137
0.0996052
0.0996114
0.0996039
0.0996129
0.0995776
0.0970903
0.0970862
0.0995831
0.099603
0.0996104
0.0996033
0.0996135
0.0996069
0.0996158
0.099609
0.0996168
0.0996083
0.0996145
0.0996065
0.0996121
0.099606
0.0996116
0.0996059
0.0996129
0.0996071
0.0996146
0.099607
0.099614
0.099605
0.0996113
0.0996033
0.0996103
0.0996073
0.0996123
0.0995866
0.0970861
0.0970905
0.0995821
0.099616
0.0996139
0.0996054
0.0996116
0.0996047
0.0996134
0.0996067
0.0996152
0.0996068
0.0996146
0.0996055
0.0996117
0.099608
0.0996079
0.0996107
0.0996049
0.0996137
0.0996062
0.0996145
0.0996063
0.0996129
0.0996038
0.0996099
0.0996013
0.0996083
0.0996152
0.0995848
0.0970897
0.097087
0.0995791
0.0996009
0.0996088
0.0996015
0.0996122
0.0996047
0.099615
0.0996072
0.0996169
0.0996083
0.0996157
0.0996057
0.0996119
0.0996041
0.0996109
0.0996054
0.0996131
0.099608
0.0996166
0.0996098
0.0996173
0.099609
0.0996152
0.0996066
0.0996148
0.0996105
0.0996153
0.0995928
0.097087
1.66962
15.315
28.5307
49.2442
79.0979
115.941
168.299
249.298
364.99
539.475
831.076
1241.05
1537.24
127.992
747.599
1607.7
2055.02
2038.12
1835.02
1737.11
1849.03
2216.77
2901.28
3822.92
4111.18
4064.18
3916.23
3876.99
3780.98
3502.88
3103.85
2938.11
3091.11
3232.6
3232.44
3124.88
2885.06
2502.77
2033.84
1562.56
1268.88
1803.48
369.864
194.556
1581.46
13618.8
10572.9
9338.49
9778.76
10830
11671.3
12285.3
12356
12010.4
11605.4
11055.4
10456.8
9803.43
9745.69
10786.5
12862
15069.1
16381.8
15749.7
14239.1
13316.8
12878.5
12327.3
11010.7
9691.69
8442.71
5020.95
2547.14
1187.13
1857.49
3781.72
4083.53
4853.05
6593.2
10018
14475.5
19174
23834.3
27934
31267.3
33171.2
33092.4
30912.6
26436.9
20623.5
15535.3
12401.1
11084.4
11163.5
11609.3
11643.7
10980
10419.7
10104.7
9048.17
6270.68
3142.85
3518.63
40.9752
457.148
5822.31
6929.43
7820.48
9083.71
11119.9
15364.3
19708.4
20761.1
22260.5
24036.1
25895.4
27761.1
27657.3
26615.7
26046.6
25700.2
23861.7
20529.6
15898
11240.8
7315.49
4421.61
2365.96
1065.28
382.074
176.953
125.504
90.377
13.3489
3321.12
20216.4
38498.5
67197
85379.5
96823.2
105069
113257
111987
97490.5
74397.1
50037
28752.1
15970
8259.57
4555
2213.71
1094.71
530.284
273.033
138.378
70.9336
34.7825
18.9361
11.2621
6.38231
3.1945
1.31519
0.507838
0.150563
0.427006
1.69716
1.68094
1.07152
0.566814
0.338993
0.242027
0.195381
0.168174
0.151104
0.139218
0.130812
0.124503
0.119606
0.115951
0.11285
0.110711
0.108682
0.107377
0.106005
0.105198
0.104245
0.103742
0.103052
0.10274
0.102219
0.10203
0.101661
0.101545
0.0982259
0.0972703
0.100787
0.100682
0.100707
0.10064
0.10062
0.100539
0.100509
0.100444
0.100411
0.100363
0.100325
0.100288
0.100244
0.100212
0.100166
0.100142
0.100097
0.100072
0.100031
0.100004
0.0999649
0.0999327
0.0998851
0.0998447
0.0998071
0.0997743
0.0997466
0.0996948
0.0970916
0.0970742
0.0996545
0.0996684
0.0996688
0.0996569
0.0996606
0.0996517
0.0996559
0.099649
0.0996526
0.0996459
0.0996491
0.099645
0.0996478
0.0996432
0.0996468
0.0996448
0.0996486
0.0996448
0.0996494
0.0996449
0.0996494
0.0996434
0.0996467
0.0996417
0.0996462
0.0996436
0.0996519
0.0996257
0.0970797
0.0970817
0.0996313
0.0996485
0.0996423
0.099646
0.0996433
0.0996487
0.0996451
0.0996508
0.0996462
0.0996503
0.0996451
0.0996488
0.0996451
0.099647
0.0996434
0.0996469
0.099643
0.0996433
0.0996514
0.0996471
0.0996486
0.0996429
0.0996483
0.0996433
0.0996471
0.0996429
0.0996493
0.0996185
0.0970783
0.0970805
0.0996207
0.099643
0.0996465
0.0996427
0.099649
0.0996448
0.0996503
0.0996463
0.0996504
0.0996451
0.0996482
0.0996444
0.0996471
0.0996429
0.0996459
0.0996439
0.0996477
0.0996438
0.0996484
0.0996435
0.099648
0.099642
0.0996457
0.0996411
0.099646
0.0996457
0.0996508
0.0996238
0.0970798
0.0970786
0.0996221
0.099652
0.0996503
0.0996443
0.0996466
0.0996421
0.0996475
0.0996437
0.0996486
0.0996435
0.0996484
0.0996434
0.0996467
0.099645
0.099645
0.0996458
0.0996431
0.0996478
0.0996433
0.0996485
0.0996436
0.0996472
0.0996414
0.0996448
0.0996402
0.0996439
0.0996516
0.0996248
0.0970782
0.0970804
0.0996164
0.0996409
0.0996454
0.0996413
0.0996478
0.0996425
0.0996495
0.0996448
0.099651
0.0996456
0.0996499
0.0996431
0.0996463
0.0996411
0.0996451
0.0996418
0.0996464
0.0996442
0.0996497
0.0996466
0.0996512
0.0996467
0.0996499
0.0996447
0.0996491
0.0996489
0.0996542
0.0996323
0.0970813
2.1162
17.4907
32.1015
57.6409
101.227
162.213
249.979
374.517
537.267
789.136
1297.76
2725.4
5198.09
4321.55
1635.23
1916.46
2839.67
2971.79
3304.77
2971.4
2422.81
2174.86
2242.32
2767.86
3775.79
4607.46
4719.77
4680.98
4787.86
5235.38
5706.93
5983.16
5974.05
5982.43
6255.78
6585.87
6780.51
6830.1
6639.63
6258.89
5716.16
5149.28
4528.33
2985.43
1680.04
2203.23
1255.56
4055.79
16678.3
18979
14240.5
12395.9
12115.1
12367.7
12486.9
12290.2
11707.7
11102.6
10765
10520.7
10205.3
9964.87
10015.5
10823
12550
15000.4
16975.7
17487.4
17357.6
16639.1
15960.2
15039.8
13612.3
12666.8
12019.8
10061.8
6258.84
5043.58
4258.56
4342.94
7292.1
5721.96
5308.35
6248.85
7984.75
10668.9
13757.6
16625.4
19556.2
23039.9
26876.4
30060.9
31855
31037.5
27513.2
21961.1
16051.5
11672.4
9310.94
8955.55
9925.24
11318.4
12417.4
13111.4
13836.4
14003
12394.1
10176.2
17772.8
5742.72
6805.37
6835.95
7780.17
14384.8
17637.8
24289.2
30292.6
32895.9
33532.3
36361.1
36578.4
36070.4
35183.6
34696.2
34339.2
34336.5
35256.5
37108.6
37600.9
35581.2
30592.7
23992
17275.2
12250.4
9448.46
7309.37
4562.78
1972.88
580.947
358.259
401.567
2874.91
1311.78
1197.54
32254.3
83565.6
100312
190390
190292
181461
174404
170196
156233
130160
96964.7
65110.1
41096.8
23132
12691.5
6650.57
3779.09
1960.8
1004.91
510.841
273.132
141.298
73.0609
37.2317
22.2388
14.0797
8.5989
5.09687
3.50662
4.02827
1.04878
0.540079
4.10511
5.57931
4.49219
2.55883
1.18657
0.560779
0.341123
0.248618
0.20214
0.173284
0.155084
0.141475
0.132694
0.125199
0.120522
0.116078
0.113376
0.110608
0.108994
0.107203
0.106222
0.10503
0.104416
0.103598
0.103193
0.102643
0.102357
0.102076
0.10202
0.102068
0.0983648
0.0981643
0.10206
0.101923
0.101497
0.101182
0.100978
0.10084
0.100739
0.100658
0.100587
0.100514
0.100465
0.1004
0.100369
0.10031
0.100283
0.100229
0.100204
0.100158
0.100132
0.100092
0.100064
0.100029
0.100001
0.0999618
0.0999336
0.099912
0.0999015
0.0999051
0.0999077
0.0997764
0.0970173
0.0970214
0.0997843
0.0998879
0.0998456
0.0998067
0.0997682
0.0997471
0.099724
0.099715
0.0997015
0.0996968
0.0996874
0.0996858
0.0996813
0.0996807
0.0996789
0.0996794
0.0996793
0.0996811
0.0996819
0.0996861
0.0996872
0.0996945
0.0996977
0.0997086
0.0997202
0.0997412
0.0997633
0.099793
0.0998083
0.0996655
0.0970032
0.0970031
0.0996696
0.0998151
0.0997903
0.0997617
0.0997393
0.0997204
0.0997099
0.0996989
0.0996954
0.0996891
0.0996871
0.0996823
0.0996814
0.0996794
0.0996793
0.099678
0.0996794
0.0996784
0.0996797
0.0996892