/*--------------------------------*- C++ -*----------------------------------*\
| =========                 |                                                 |
| \\      /  F ield         | OpenFOAM: The Open Source CFD Toolbox           |
|  \\    /   O peration     | Version:  2.1.1                                 |
|   \\  /    A nd           | Web:      www.OpenFOAM.org                      |
|    \\/     M anipulation  |                                                 |
\*---------------------------------------------------------------------------*/
FoamFile
{
    version     2.0;
    format      ascii;
    class       volScalarField;
    location    "0.002700000";
    object      omega;
}
// * * * * * * * * * * * * * * * * * * * * * * * * * * * * * * * * * * * * * //

dimensions      [0 0 -1 0 0 0 0];

internalField   nonuniform List<scalar> 
12384
(
2698.91
2692.36
2658.93
2622.66
2736.28
2699.55
2834.27
2599.87
2513.12
2294.22
2173.8
2164.85
768.204
633.672
685.023
1145.56
1216.64
1990.39
2230.13
2971.68
3855.1
4692.53
5361.65
5463.53
5863.28
5562.41
6429.45
6457.58
6570.43
7188.52
6271.32
6030.92
5289.21
4313.41
4730.42
4517.76
5187.65
3576.77
3448.94
3307.29
2715.68
2258.3
1538.71
869.2
2830.11
5310.3
9158.39
11127.8
16309.4
16488.3
18702.7
23482.9
25597.3
32630
33845.7
37020.2
35717.8
28180.9
24684.8
16499.3
12777.4
10601.1
8672.27
9116.32
9065.12
8885.41
7780.14
6308.48
3837.7
2791.67
2600.35
1753.55
1142.21
847.069
2909.8
8685.06
21193.7
40883.6
62592.4
81123.4
92084
98254.9
98313.1
96837.5
96341.8
88827.2
90839.4
78023.3
76793.7
62030.8
48364.5
27086.1
10995.3
3836.69
3033.48
2616.05
2737.31
2660.91
2438.36
1837
1389.05
1359.11
1180.73
686.192
703.375
906.902
1682.34
16863
17587
19791.3
18670.7
25050.4
27025.6
21157.1
23640
23393.1
20854.5
18374.9
12697.1
8734.84
5902.11
4144.59
3404.03
3046.66
3067.42
2906.26
2591.2
2204.87
1869.52
1603.41
1170.53
884.391
716.706
647.898
610.956
615.209
624.284
636.314
664.314
695.648
804.782
837.192
1077.64
1083
1319.76
1300.91
1454.12
1339.5
1358.98
1228.64
1166.03
1065.35
1013.64
957.769
913.1
846.729
794.901
736.481
674.239
642.267
621.887
617.628
613.222
608.079
610.551
611.459
613.861
611.675
614.248
613.958
614.901
615.143
615.686
615.544
615.959
616.121
615.89
616.34
616.094
616.42
616.192
616.405
616.155
616.381
615.562
616.651
615.244
616.241
615.149
615.639
615.193
614.96
614.847
614.487
615.922
615.923
616.024
615.959
616.023
616.033
616.013
616.112
616.036
616.15
616.033
616.169
616.031
616.171
616.032
616.168
616.052
616.166
616.078
616.164
616.093
616.159
616.107
616.153
616.113
616.145
616.114
616.13
616.102
616.15
616.178
616.148
616.151
616.151
616.158
616.153
616.161
616.153
616.161
616.151
616.158
616.15
616.149
616.144
616.139
616.144
616.144
616.148
616.154
616.152
616.159
616.154
616.164
616.156
616.162
616.157
616.158
616.152
616.144
616.179
616.186
616.142
616.148
616.157
616.161
616.166
616.159
616.167
616.156
616.162
616.154
616.156
616.149
616.145
616.144
616.139
616.145
616.148
616.149
616.156
616.156
616.156
616.167
616.16
616.168
616.165
616.167
616.165
616.164
616.137
616.182
616.15
616.153
616.154
616.16
616.155
616.162
616.154
616.162
616.153
616.158
616.151
616.15
616.146
616.14
616.144
616.144
616.148
616.156
616.152
616.16
616.153
616.163
616.155
616.162
616.156
616.158
616.153
616.144
616.179
616.138
616.158
616.152
616.157
616.169
616.165
616.171
616.162
616.167
616.156
616.162
616.154
616.154
616.147
616.15
616.151
616.147
616.151
616.153
616.161
616.155
616.166
616.16
616.169
616.162
616.165
616.155
616.153
616.158
616.137
616.18
616.149
616.157
616.153
616.169
616.155
616.175
616.155
616.176
616.155
616.171
616.153
616.16
616.147
616.148
616.144
616.143
616.148
616.153
616.15
616.162
616.154
616.167
616.156
616.167
616.156
616.16
616.152
616.144
616.18
2707.74
47470.5
59534.7
64976.5
66789.1
66140.6
63460.5
59433.7
60671.7
67815.3
64179.2
58290.1
42082.1
979.122
1153.66
72671
104761
139952
150565
167458
184328
196287
202251
201704
199174
196621
197350
200183
202870
203764
198903
191281
183179
172608
165051
163329
161758
169655
170028
169590
152473
128616
89660.5
1830.4
11000.4
204550
277920
325204
377276
423011
468865
503433
532438
552479
562644
565209
555653
528790
498910
453502
415086
396800
394870
409836
419489
415050
393816
360566
312520
244631
154586
124112
102554
2067.21
11909.3
245149
416387
511053
624120
736093
828707
898357
975122
1.05963e+06
1.15238e+06
1.22165e+06
1.25062e+06
1.21398e+06
1.13269e+06
1.01083e+06
875986
748663
646620
525041
411778
325641
295339
264147
217134
209862
210047
193107
160732
1373.47
8879.82
478047
808115
861485
845013
816026
760820
696195
606602
570091
611879
640612
642494
576009
482013
388529
288460
304357
264869
211407
206271
202040
192082
181191
169024
160173
144213
116845
77693.3
769.36
620.657
31819.7
54361.6
84662.2
118073
150879
178629
190465
191329
189677
191730
209116
227200
245908
254111
257374
256930
259764
264405
266360
262928
252956
235402
209591
177007
138529
96941.3
57132.5
24611.6
617.972
599.343
4515.69
5159.73
6024.22
7020.19
7931.29
8640.47
9202.62
9453.4
9384.87
9019.42
8427.78
7684.63
6875.85
6057.25
5261.4
4530.26
3871.58
3285.59
2755.04
2281.11
1861.05
1489.59
1163.83
885.019
649.964
459.175
313.081
218.567
613.643
613.78
163.022
157.873
158.726
159.661
160.342
160.681
160.544
160.057
159.386
158.552
157.628
156.682
155.766
154.907
154.12
153.423
152.803
152.273
151.829
151.49
151.184
150.956
150.755
150.619
150.507
150.438
150.42
156.455
614.75
614.802
156.344
150.395
150.375
150.4
150.407
150.428
150.442
150.473
150.496
150.523
150.551
150.622
150.655
150.694
150.683
150.655
150.609
150.558
150.514
150.493
150.457
150.434
150.403
150.39
150.378
150.376
150.402
156.502
614.783
614.775
156.442
150.371
150.366
150.381
150.403
150.418
150.447
150.469
150.498
150.516
150.554
150.604
150.641
150.67
150.688
150.661
150.617
150.541
150.518
150.506
150.467
150.448
150.416
150.405
150.382
150.369
150.367
156.135
614.838
614.808
156.346
150.395
150.374
150.399
150.407
150.43
150.447
150.478
150.5
150.527
150.553
150.619
150.648
150.69
150.683
150.658
150.611
150.558
150.514
150.492
150.455
150.433
150.403
150.388
150.376
150.375
150.406
156.506
614.783
614.832
156.262
150.409
150.353
150.365
150.364
150.396
150.42
150.462
150.491
150.526
150.561
150.623
150.652
150.683
150.686
150.655
150.624
150.557
150.523
150.49
150.468
150.43
150.414
150.387
150.386
150.364
150.395
156.229
614.837
614.814
156.34
150.395
150.372
150.397
150.404
150.419
150.431
150.457
150.477
150.51
150.542
150.609
150.653
150.69
150.683
150.656
150.609
150.566
150.522
150.495
150.456
150.427
150.394
150.378
150.366
150.368
150.41
156.512
614.787
2468.57
56442.3
65578.5
68689.2
71229
73089.8
68598
63476.7
69261.1
78158
84579
68195
52957.2
1186.64
1347.41
105159
135457
160795
163920
177159
192175
200752
203803
203894
204871
208605
213345
220176
225768
226229
222881
215354
208258
200708
193374
190997
179721
185538
175655
161736
142175
125896
100666
2314.72
13216.4
285167
343096
380795
414184
453354
495231
533195
567269
593121
613734
626519
624282
606302
568526
528982
496202
489338
498163
511928
511326
493220
460855
424284
394233
342911
209810
152721
126692
2420.94
17030.6
384689
482832
508531
585750
692881
796551
884173
964135
1.04691e+06
1.13054e+06
1.20368e+06
1.2432e+06
1.23984e+06
1.20915e+06
1.14555e+06
1.05054e+06
929418
785401
641486
537504
496890
505941
542835
558199
385009
314916
239314
202427
1802.07
9448.4
573770
854734
903785
855709
781052
698672
607177
546986
544952
618480
691054
724535
688820
607538
515747
470051
478854
464520
381688
310903
262503
252601
229624
196664
168546
139224
107555
78506.4
762.585
654.935
55825
87860.4
131951
179031
220814
250279
266067
276518
297470
336298
382331
424516
439329
436415
411422
377219
335696
304121
283890
265852
244171
216663
185117
149811
111284
73819.1
40988.1
17022.9
607.496
597.429
10626.7
10952.9
11380.3
11574.6
11474.3
11079.4
10498.5
9743.32
8915.99
8062.52
7200.19
6397.71
5618.31
4874.38
4175.14
3543.37
2979.99
2483.13
2046.75
1676.04
1362.95
1097.54
866.86
668.623
502.524
367.42
264.18
197.295
595.038
595.292
165.691
159.481
158.039
157.115
156.12
155.185
154.199
153.24
152.282
151.4
150.547
149.731
148.932
148.237
147.66
147.192
146.798
146.481
146.217
146.01
145.835
145.703
145.587
145.511
145.443
145.399
145.389
149.891
595.137
595.15
149.86
145.338
145.273
145.271
145.241
145.233
145.202
145.193
145.158
145.144
145.1
145.068
145.013
144.989
144.974
145.014
145.044
145.094
145.114
145.15
145.162
145.195
145.204
145.237
145.248
145.276
145.313
149.868
595.145
595.14
149.888
145.301
145.257
145.233
145.228
145.199
145.194
145.164
145.155
145.12
145.103
145.055
145.026
144.98
144.983
144.998
145.06
145.102
145.138
145.16
145.186
145.222
145.231
145.26
145.265
145.287
145.322
149.856
595.282
595.144
149.876
145.332
145.266
145.266
145.236
145.23
145.198
145.191
145.156
145.143
145.099
145.07
145.015
144.99
144.973
145.011
145.042
145.092
145.112
145.149
145.162
145.196
145.205
145.238
145.249
145.277
145.316
149.862
595.147
595.272
149.86
145.316
145.272
145.257
145.224
145.216
145.185
145.176
145.142
145.129
145.087
145.062
145.01
144.978
144.979
145.01
145.063
145.089
145.131
145.143
145.178
145.185
145.217
145.225
145.257
145.263
145.312
149.869
595.27
595.14
149.877
145.326
145.261
145.261
145.231
145.225
145.193
145.185
145.152
145.141
145.101
145.075
145.021
144.994
144.969
145.003
145.035
145.086
145.106
145.144
145.157
145.192
145.201
145.234
145.245
145.274
145.317
149.862
595.145
2195.02
65140.3
75996.8
82228.3
88439.1
92738
91885.3
91914.2
96410.8
97468.9
109976
77151.2
61188.6
1284.99
2196.14
121064
156603
181208
186889
196463
208442
217774
225516
232034
242795
255841
266835
276033
282861
281446
273158
259325
243532
226439
212979
203630
194915
200318
193218
163714
142015
134425
109023
2680.49
19399.2
368748
397722
409731
425188
457132
498855
545106
587194
617075
641048
658764
657950
645803
618461
595833
577930
576945
589504
601260
591143
555591
503051
459029
422516
366860
279434
174076
141607
3069.69
36455.6
448521
507151
509621
567578
667767
775940
877287
962403
1.03703e+06
1.10389e+06
1.16161e+06
1.19165e+06
1.2037e+06
1.19594e+06
1.16368e+06
1.11314e+06
1.03338e+06
918722
781247
657534
586798
568920
593259
621019
606577
585840
334706
212575
1807.27
8557.4
593771
803401
816775
744503
623906
529950
442984
405979
499217
610066
717753
787327
766971
690435
606043
557603
551357
532647
494870
472450
436823
356990
280965
251251
206649
158334
116936
85497.3
819.374
754.682
85790.2
125360
165333
196151
218015
249851
307951
397681
527430
639185
740237
776234
778003
739007
680922
600624
520796
435212
368558
323717
289640
255413
218169
177037
132983
88486
48711.4
19652.5
606.114
598.983
20742.2
21431.1
21886.7
20931
19307.9
17374.8
15462.6
13569.7
11835.6
10236.1
8789.16
7498.07
6373.35
5404.47
4577.23
3859.61
3229.31
2673.52
2190.54
1778.88
1430.04
1135.76
888.443
682.249
512.614
375.725
271.723
203.616
594.915
595.205
183.183
171.15
167.426
164.39
161.797
159.442
157.361
155.516
153.87
152.419
151.159
150.095
149.198
148.427
147.768
147.203
146.722
146.311
145.979
145.708
145.491
145.315
145.174
145.063
144.974
144.909
144.913
150.462
595.188
595.205
150.441
144.843
144.778
144.776
144.771
144.771
144.768
144.768
144.765
144.763
144.76
144.759
144.754
144.755
144.754
144.757
144.758
144.762
144.764
144.768
144.768
144.772
144.773
144.778
144.779
144.787
144.845
150.443
595.201
595.202
150.449
144.844
144.79
144.781
144.779
144.774
144.773
144.769
144.769
144.765
144.763
144.759
144.757
144.754
144.756
144.755
144.759
144.759
144.768
144.774
144.766
144.769
144.77
144.773
144.775
144.781
144.839
150.453
595.112
595.211
150.437
144.841
144.777
144.774
144.771
144.77
144.767
144.767
144.765
144.764
144.759
144.759
144.754
144.754
144.754
144.756
144.758
144.762
144.763
144.767
144.768
144.772
144.773
144.779
144.78
144.787
144.845
150.443
595.2
595.111
150.46
144.843
144.779
144.782
144.777
144.775
144.77
144.769
144.765
144.764
144.759
144.759
144.755
144.761
144.76
144.755
144.757
144.759
144.762
144.763
144.767
144.768
144.773
144.775
144.781
144.782
144.848
150.465
595.112
595.207
150.439
144.839
144.776
144.774
144.771
144.771
144.769
144.769
144.766
144.766
144.762
144.76
144.756
144.754
144.752
144.754
144.755
144.759
144.762
144.767
144.768
144.772
144.774
144.779
144.78
144.787
144.845
150.442
595.201
2358.36
74600.4
89010.8
99091.3
107657
115478
122210
130287
137092
137442
148559
113922
79204.1
1677.46
3979.24
142005
175497
197369
204878
214441
227899
241536
256066
274254
297231
319738
338796
349997
355188
349450
336038
318812
296712
274559
251575
232801
220269
217679
208922
175465
135999
144677
114460
3222.01
20271.9
464408
458704
442405
447798
481417
527996
577916
624422
661567
687906
702209
699695
682754
653736
637113
623337
617434
615130
612970
606782
575689
527383
484672
452547
417574
365683
216225
167331
4339.94
42202
458974
502775
503963
553875
645700
766142
891385
990896
1.06051e+06
1.10857e+06
1.14115e+06
1.15304e+06
1.1552e+06
1.1338e+06
1.10226e+06
1.06098e+06
1.01297e+06
947339
849088
736734
651952
607373
608588
631866
653145
677529
575509
272224
3026.99
6858.68
600039
685124
640567
526389
399766
323437
321892
388338
518974
632605
747618
849158
855175
781311
685298
621180
596366
574166
545902
518849
479153
434162
389457
304418
260575
206701
151390
106400
985.813
1054.07
107634
133925
157980
203794
292671
436594
626799
843752
1.01749e+06
1.17902e+06
1.24583e+06
1.25769e+06
1.19759e+06
1.11799e+06
1.00891e+06
892512
762392
639316
514854
418052
356744
312569
268563
221072
171003
119266
69430.3
30703.7
612.313
609.186
35772.2
40005.4
40766.6
37301.8
32588.7
27830.7
23560.8
19873
16686.6
13973.9
11673.9
9714.15
8059.57
6662.27
5506.42
4544.46
3749.59
3087.91
2540.76
2075.94
1677.21
1334.32
1044.91
801.681
600.186
436.363
309.643
223.606
596.836
597.841
211.594
190.886
183.368
177.042
171.952
167.339
163.476
160.187
157.462
155.17
153.291
151.708
150.413
149.321
148.44
147.703
147.109
146.614
146.222
145.896
145.643
145.433
145.275
145.14
145.046
144.961
144.963
150.571
597.427
597.453
150.562
144.884
144.836
144.824
144.834
144.824
144.833
144.823
144.833
144.821
144.83
144.819
144.827
144.817
144.827
144.817
144.829
144.82
144.831
144.821
144.832
144.821
144.831
144.82
144.831
144.822
144.89
150.55
597.444
597.45
150.548
144.891
144.823
144.832
144.821
144.832
144.821
144.832
144.822
144.832
144.821
144.829
144.818
144.828
144.817
144.828
144.817
144.827
144.825
144.822
144.83
144.82
144.831
144.821
144.832
144.824
144.893
150.586
597.512
597.438
150.554
144.878
144.832
144.82
144.832
144.821
144.832
144.821
144.832
144.82
144.83
144.818
144.827
144.816
144.826
144.817
144.829
144.82
144.83
144.821
144.831
144.82
144.831
144.82
144.831
144.822
144.889
150.552
597.444
597.511
150.571
144.889
144.833
144.821
144.831
144.821
144.832
144.821
144.832
144.82
144.83
144.818
144.827
144.817
144.817
144.826
144.817
144.829
144.82
144.831
144.82
144.83
144.819
144.83
144.82
144.832
144.886
150.567
597.507
597.443
150.554
144.877
144.832
144.82
144.832
144.821
144.833
144.823
144.833
144.822
144.832
144.819
144.827
144.815
144.825
144.815
144.826
144.817
144.831
144.821
144.831
144.821
144.831
144.821
144.833
144.824
144.89
150.551
597.443
2921.4
82923.1
100837
113891
126049
137524
151179
168791
185133
192590
206917
189940
128288
2884.88
8953.34
167498
200833
222909
230718
239391
254579
272180
294441
327407
358191
384257
402068
408108
406954
396300
380523
362694
341912
316423
289391
267018
247629
234195
216866
186983
138599
187229
122001
4597.41
35540.1
563971
524958
488402
491031
531843
580852
630875
672732
705822
723817
727558
716563
691285
662100
649049
635134
625181
603057
577253
558694
558636
555770
537375
512269
481956
431000
308518
198658
8267.31
53005.9
461194
487235
494320
537615
627518
758688
903930
1.01479e+06
1.08674e+06
1.12704e+06
1.14496e+06
1.14014e+06
1.11554e+06
1.06641e+06
1.00966e+06
955291
915864
883603
839271
773514
698827
647821
642409
669988
685180
669462
559994
476727
7251.44
5336.69
634962
621892
533757
398330
272043
307606
415616
497561
608638
673777
802550
915691
936493
856195
751279
679061
647558
631880
617665
592702
547683
489457
427160
364381
303152
263976
207821
150160
1556.32
2563.99
122286
176814
287897
476514
720176
980793
1.25002e+06
1.45087e+06
1.61197e+06
1.6906e+06
1.71198e+06
1.64738e+06
1.56241e+06
1.44007e+06
1.30997e+06
1.15917e+06
1.01482e+06
861012
715072
569132
456913
387940
336274
282508
224137
162659
104055
53026.1
627.771
614.817
58068.6
73904.7
75533.1
65891.5
54099.8
43672.2
35161.3
28477.1
23201
18906.1
15472.4
12639.2
10315
8382.89
6818.22
5542.19
4516.68
3677.98
2993.27
2421.58
1947.16
1548.76
1217.25
939.806
708.201
517.56
362.677
257.902
599.602
600.338
256.447
220.485
206.379
194.693
185.416
177.542
171.103
165.865
161.693
158.348
155.71
153.574
151.877
150.488
149.356
148.416
147.657
147.03
146.531
146.13
145.822
145.571
145.384
145.227
145.113
145.015
145.008
150.549
599.976
600.003
150.55
144.914
144.862
144.853
144.86
144.852
144.859
144.852
144.858
144.85
144.855
144.847
144.853
144.846
144.853
144.847
144.855
144.85
144.857
144.851
144.857
144.85
144.855
144.848
144.854
144.85
144.916
150.529
600.001
599.999
150.535
144.915
144.85
144.855
144.849
144.858
144.851
144.859
144.852
144.858
144.85
144.855
144.847
144.854
144.847
144.853
144.846
144.851
144.855
144.85
144.856
144.848
144.856
144.849
144.856
144.85
144.916
150.515
600.007
600.005
150.524
144.907
144.856
144.848
144.857
144.851
144.858
144.851
144.858
144.85
144.856
144.848
144.852
144.845
144.852
144.846
144.854
144.849
144.856
144.85
144.856
144.849
144.854
144.848
144.854
144.851
144.915
150.526
600.001
600.008
150.524
144.914
144.857
144.849
144.856
144.849
144.857
144.85
144.857
144.849
144.856
144.847
144.852
144.849
144.849
144.851
144.846
144.854
144.849
144.857
144.849
144.856
144.847
144.854
144.846
144.854
144.915
150.527
600.006
600.006
150.521
144.906
144.855
144.848
144.856
144.849
144.858
144.852
144.859
144.852
144.856
144.848
144.852
144.844
144.851
144.844
144.853
144.848
144.857
144.851
144.857
144.85
144.856
144.85
144.857
144.853
144.917
150.531
600
3457.67
88864.7
108875
125261
140870
153748
169230
190598
215564
239294
269186
277526
239021
8241.2
20945.5
209571
245352
262712
264683
269465
284947
306412
339356
384315
414384
427482
430032
425844
416989
399854
383620
371972
360596
343375
323418
304607
287125
266658
240572
207719
164921
273055
126446
9590.54
41538.9
657982
593158
547258
556807
598311
641368
680321
707860
723218
725272
715044
696353
667930
649121
655221
676628
703835
704227
670187
628427
614411
623836
622212
599703
564455
508197
367578
222806
23302.5
58185.2
470418
483287
494766
533760
621151
756179
899657
1.01287e+06
1.08796e+06
1.13208e+06
1.14907e+06
1.13792e+06
1.09302e+06
1.01882e+06
930852
852544
802757
784055
776169
761655
724685
690542
688640
717067
725742
671107
518682
482236
8170.37
11096.5
614161
561512
451456
356421
385694
512295
617417
668742
716811
784886
893976
985634
993972
924295
852119
815343
800598
793724
773069
735131
674578
594010
502981
416929
355301
305181
298152
248320
3688.05
16422
237928
528847
796888
1.11637e+06
1.40616e+06
1.6728e+06
1.88732e+06
2.03413e+06
2.10289e+06
2.0963e+06
1.99676e+06
1.86828e+06
1.73436e+06
1.64174e+06
1.51055e+06
1.37338e+06
1.22035e+06
1.07288e+06
913260
758601
605326
491247
419431
358864
296407
228675
161752
96007.7
662.382
652.71
101599
135847
135427
113831
88033.4
67402.1
52037.4
40659.2
32141.2
25712.9
20678.9
16697.2
13464.3
10844.6
8725.82
7022.87
5657.1
4561.46
3678.26
2959.61
2372.07
1887.41
1488.49
1158.62
887.119
661.303
473.908
330.497
603.962
606.094
320.261
267.679
242.178
221.072
204.941
192.102
181.958
174.023
167.866
163.112
159.402
156.435
154.052
152.131
150.584
149.35
148.366
147.586
146.967
146.477
146.086
145.779
145.537
145.351
145.208
145.092
145.067
150.7
605.08
605.111
150.684
144.948
144.891
144.884
144.888
144.885
144.888
144.885
144.887
144.882
144.885
144.88
144.882
144.879
144.882
144.88
144.883
144.881
144.885
144.882
144.885
144.88
144.882
144.878
144.88
144.878
144.942
150.674
605.106
605.109
150.677
144.939
144.877
144.88
144.879
144.884
144.882
144.886
144.883
144.886
144.882
144.884
144.88
144.883
144.88
144.882
144.878
144.88
144.886
144.882
144.884
144.879
144.883
144.879
144.881
144.877
144.94
150.66
605.121
605.105
150.674
144.935
144.879
144.877
144.883
144.881
144.885
144.883
144.886
144.882
144.884
144.88
144.882
144.879
144.881
144.879
144.883
144.881
144.884
144.881
144.884
144.879
144.881
144.878
144.88
144.88
144.941
150.672
605.106
605.123
150.661
144.942
144.884
144.879
144.881
144.879
144.883
144.881
144.885
144.881
144.884
144.879
144.881
144.88
144.88
144.88
144.878
144.883
144.88
144.884
144.88
144.882
144.877
144.879
144.875
144.878
144.942
150.664
605.12
605.107
150.667
144.933
144.879
144.876
144.882
144.879
144.884
144.881
144.886
144.882
144.884
144.88
144.881
144.877
144.88
144.878
144.882
144.881
144.885
144.883
144.886
144.883
144.884
144.88
144.884
144.882
144.944
150.674
605.105
3900.29
93907.1
114203
133668
151895
164587
177598
194267
218038
251128
304214
349819
354776
20140.9
48742.3
271504
306703
310359
302644
301148
313965
341315
384497
431754
446378
443386
435159
429821
421456
403706
381424
372562
381042
387327
385514
377450
362257
340123
311491
280516
255975
314702
141417
24854.5
70699.9
756815
671319
626906
633924
663432
690550
709681
713357
704934
693157
678451
658595
638197
634055
663556
722690
781647
816339
804292
765749
738695
726025
713410
681087
642319
592825
448008
302515
61340.1
76795.2
482909
488908
507949
554670
644558
757512
870229
969646
1.04673e+06
1.10387e+06
1.13465e+06
1.13113e+06
1.09011e+06
1.00731e+06
894242
785049
711117
681758
691965
715164
729478
729401
740711
771206
781984
716064
561552
567474
11405.8
38067.1
475431
503711
529628
576930
649448
783305
891696
917249
947747
983095
1.02042e+06
1.05363e+06
1.05096e+06
1.02999e+06
1.02226e+06
1.03112e+06
1.02747e+06
1.00108e+06
946372
869424
777855
678533
575666
476739
394930
353798
352606
344542
6499.41
102586
788995
1.24101e+06
1.68425e+06
1.96217e+06
2.1376e+06
2.26617e+06
2.38936e+06
2.44285e+06
2.38028e+06
2.24651e+06
2.06991e+06
1.88463e+06
1.75835e+06
1.66754e+06
1.62801e+06
1.52493e+06
1.39219e+06
1.24284e+06
1.09614e+06
937504
781183
629583
522142
449790
379689
301092
211493
123266
701.485
1190.64
208192
245472
224283
179032
133306
98597.1
74411.8
56986
44122.3
34645.7
27458.4
21863.6
17428
13893.1
11067.7
8820.52
7032.47
5623.15
4501.88
3602.77
2875.36
2282.92
1794.55
1388.04
1049.46
775.576
556.295
417.878
609.844
611.339
437.259
338.444
285.989
250.65
225.057
206.524
192.738
182.674
175.146
169.044
163.995
159.886
156.616
154.043
152.018
150.455
149.212
148.238
147.463
146.866
146.39
146.02
145.726
145.499
145.314
145.173
145.121
150.645
610.36
610.374
150.687
144.997
144.934
144.926
144.927
144.922
144.925
144.921
144.923
144.919
144.92
144.918
144.919
144.916
144.918
144.918
144.92
144.918
144.92
144.918
144.921
144.917
144.918
144.915
144.917
144.916
144.978
150.613
610.393
610.395
150.626
144.975
144.915
144.916
144.917
144.92
144.919
144.922
144.92
144.921
144.918
144.92
144.918
144.919
144.916
144.918
144.916
144.915
144.923
144.919
144.92
144.916
144.919
144.917
144.917
144.915
144.976
150.597
610.393
610.394
150.606
144.971
144.916
144.915
144.919
144.918
144.921
144.92
144.921
144.918
144.92
144.918
144.918
144.916
144.918
144.917
144.919
144.918
144.919
144.917
144.919
144.916
144.917
144.914
144.917
144.917
144.976
150.609
610.393
610.394
150.598
144.977
144.92
144.917
144.917
144.915
144.919
144.917
144.919
144.917
144.919
144.917
144.918
144.917
144.917
144.918
144.916
144.919
144.917
144.919
144.917
144.918
144.915
144.915
144.913
144.914
144.977
150.601
610.393
610.395
150.603
144.97
144.916
144.914
144.918
144.916
144.92
144.918
144.921
144.919
144.921
144.916
144.918
144.915
144.916
144.915
144.918
144.917
144.92
144.919
144.921
144.92
144.92
144.917
144.919
144.921
144.98
150.606
610.375
4219.69
94656.4
116548
139081
159566
173706
186489
200282
217553
245888
307254
410345
505690
384460
72027.3
77983
307406
350883
372363
358285
332730
322794
332543
366707
421360
458686
463131
459868
461490
473913
485771
489156
484457
483504
492882
504075
510071
509895
500281
482497
459009
434489
408124
335536
243799
275451
63123.2
113491
763124
867408
752439
701647
696663
707204
714044
709224
692407
674286
663711
656507
645982
637664
639348
662493
712642
778923
830004
848143
847584
829530
811758
787444
752212
725966
699726
625826
477555
374734
116254
117383
476577
523536
508818
530542
579873
657039
743338
818847
887953
960262
1.03122e+06
1.08507e+06
1.11067e+06
1.09092e+06
1.0232e+06
914695
789425
683889
621780
618412
658007
710532
754107
788005
826712
854187
826003
747450
918680
430340
146895
147474
501250
666350
767806
919568
1.05776e+06
1.14257e+06
1.17282e+06
1.21698e+06
1.2175e+06
1.20757e+06
1.19223e+06
1.18148e+06
1.17223e+06
1.16678e+06
1.17707e+06
1.204e+06
1.21366e+06
1.18925e+06
1.11829e+06
1.01416e+06
888213
772462
694226
633021
556095
465932
400671
425449
483049
548922
64358.1
61088.6
1.06187e+06
1.77608e+06
2.03446e+06
2.7827e+06
2.83545e+06
2.79872e+06
2.77098e+06
2.76783e+06
2.70277e+06
2.55923e+06
2.34432e+06
2.13061e+06
1.9565e+06
1.81002e+06
1.7117e+06
1.64187e+06
1.61661e+06
1.52849e+06
1.39188e+06
1.24506e+06
1.10331e+06
945724
790175
648394
557818
487656
416991
348464
302600
325721
1828.34
1319.53
342265
409082
381914
314609
239377
176260
130639
98767.6
75960.8
58881.4
46089.9
36256.7
28718.2
22739.2
18099.8
14345.6
11397
9039.68
7197.17
5734.8
4585.73
3667.35
2935.83
2350.59
1884.99
1529.51
1289.47
1187.01
1238.96
1508.37
620.596
621.072
1328.82
910.915
610.798
443.822
345.491
285.649
246.942
220.71
202.083
188.509
178.409
170.754
164.886
160.349
156.863
154.169
152.097
150.474
149.214
148.219
147.443
146.831
146.355
145.992
145.725
145.53
145.398
145.332
145.484
157.217
619.87
619.904
157.484
145.411
145.139
145.077
145.033
145.008
144.987
144.978
144.968
144.964
144.957
144.955
144.952
144.951
144.95
144.95
144.95
144.952
144.953
144.956
144.958
144.963
144.967
144.975
144.987
145.005
145.027
145.057
145.259
157.105
619.896
619.896
157.127
145.265
145.054
145.025
145.003
144.987
144.976
144.968
144.964
144.959
144.957
144.953
144.952
144.951
144.95
144.95
144.95
144.95
144.951
144.958
144.958
144.962
144.965
144.975
144.986
145.002
145.024
145.052
145.251
157.022
619.902
619.896
157.097
145.253
145.049
145.023
145.001
144.988
144.975
144.969
144.963
144.96
144.955
144.954
144.951
144.95
144.95
144.95
144.95
144.951
144.952
144.955
144.957
144.962
144.965
144.974
144.986
145.004
145.026
145.054
145.256
157.089
619.895
619.904
157.035
145.254
145.053
145.028
145.004
144.987
144.973
144.967
144.961
144.958
144.954
144.953
144.95
144.95
144.949
144.949
144.95
144.95
144.953
144.954
144.958
144.961
144.967
144.973
144.986
145.001
145.025
145.055
145.257
157.039
619.9
619.894
157.095
145.25
145.047
145.023
145
144.986
144.973
144.968
144.962
144.959
144.956
144.955
144.952
144.952
144.949
144.949
144.95
144.954
144.957
144.963
144.969
144.979
144.992
145.014
145.042
145.087
145.143
145.212
145.458
157.638
619.886
619.556
4393.49
92430.3
116071
141912
164879
182801
199527
220261
243760
270255
325574
454339
623551
690395
560774
466224
441392
444331
438564
395663
343680
324171
335687
380682
443399
478727
485597
493219
519420
563448
612882
650013
669282
676569
681363
687445
693995
700629
708283
714184
717672
706596
667011
569003
567707
661777
825262
1.00987e+06
1.10315e+06
933468
812127
754022
731910
722213
708138
685267
664151
653964
653247
658943
662524
663160
666204
675945
689079
713151
750473
781853
812218
840079
840485
809245
768513
738451
703370
667942
637379
631660
644918
657780
651773
578748
542773
556363
597228
660503
727954
778208
816142
868888
938020
1.00451e+06
1.05113e+06
1.05763e+06
1.0147e+06
927640
819330
707554
615638
577249
602605
671002
750743
820263
880791
938122
971249
961100
1.19445e+06
1.73592e+06
1.5559e+06
1.39232e+06
1.6909e+06
2.70098e+06
2.34953e+06
1.7959e+06
1.65832e+06
1.58213e+06
1.53768e+06
1.50159e+06
1.46291e+06
1.42717e+06
1.39524e+06
1.36343e+06
1.32786e+06
1.30288e+06
1.29114e+06
1.29462e+06
1.27886e+06
1.22904e+06
1.13067e+06
1.02051e+06
954854
977111
1.03389e+06
1.04435e+06
991488
879110
750246
702068
786373
1.004e+06
1.61218e+06
2.1824e+06
2.83372e+06
3.25933e+06
3.26084e+06
3.3089e+06
3.29156e+06
3.22608e+06
3.16097e+06
3.12075e+06
2.98937e+06
2.81084e+06
2.58142e+06
2.35459e+06
2.14919e+06
1.98351e+06
1.8403e+06
1.73435e+06
1.65557e+06
1.62457e+06
1.51727e+06
1.38126e+06
1.24088e+06
1.09867e+06
939534
785692
663356
585727
524140
465246
425681
443103
529210
559101
570580
524500
440023
348917
267890
203292
155378
120306
93922.1
73312.2
57449.8
45053.9
35644.8
28156.8
22353.6
17697.2
14044
11118
8834.44
7016.21
5598.22
4471.01
3587.38
2877.34
2315.44
1880.97
1566.83
1377.3
1334.67
1478.51
1437.43
1323.77
1257.85
861.368
605.203
454.098
360.529
300.621
260.326
232.02
211.414
196.038
184.451
175.599
168.804
163.526
159.425
156.203
153.681
151.701
150.159
148.952
148.016
147.286
146.722
146.288
145.959
145.714
145.533
145.41
145.34
145.49
151.059
151.029
145.402
145.126
145.073
145.042
145.022
145.007
144.995
144.99
144.983
144.98
144.975
144.972
144.969
144.968
144.967
144.967
144.968
144.97
144.97
144.973
144.976
144.979
144.98
144.983
144.988
144.996
145
145.006
145.009
145.184
150.85
150.849
145.187
145.013
145.004
145
144.995
144.988
144.984
144.981
144.98
144.977
144.974
144.97
144.969
144.968
144.966
144.966
144.968
144.968
144.968
144.975
144.976
144.977
144.979
144.983
144.989
144.996
145
145.004
145.005
145.181
150.849
150.85
145.185
145.007
145.002
145
144.996
144.99
144.983
144.982
144.979
144.977
144.973
144.97
144.968
144.967
144.966
144.966
144.966
144.969
144.97
144.973
144.975
144.978
144.979
144.982
144.987
144.996