/*--------------------------------*- C++ -*----------------------------------*\
| =========                 |                                                 |
| \\      /  F ield         | OpenFOAM: The Open Source CFD Toolbox           |
|  \\    /   O peration     | Version:  2.1.1                                 |
|   \\  /    A nd           | Web:      www.OpenFOAM.org                      |
|    \\/     M anipulation  |                                                 |
\*---------------------------------------------------------------------------*/
FoamFile
{
    version     2.0;
    format      ascii;
    class       volScalarField;
    location    "0.002700000";
    object      Tu;
}
// * * * * * * * * * * * * * * * * * * * * * * * * * * * * * * * * * * * * * //

dimensions      [0 0 0 1 0 0 0];

internalField   nonuniform List<scalar> 
12384
(
665.724
644.313
552.817
414.487
275.558
270
270
270
270
270
270
270
355.768
442.068
410.181
354.151
292.478
270
270
270
270
270
270
302.462
312.338
270
270
270
270
270
270
270
270
270
270
270
270
270
322.232
414.813
447.952
491.179
501.031
511.215
270
270
270
270
270
270
270
270
270
270
270
270
270
270
270
270
270
270
270
270
270
270
270
270
270
341.821
453.312
417.81
403.807
400.43
359.663
270
270
270
270
270
270
270
270
270
270
270
270
270
270
270
270
270
270
270
270
271.07
310.229
342.025
367.013
406.971
408.602
424.408
441.592
439.322
670.58
555.312
270
270
270
270
270
270
270
270
270
270
270
270
270
270
277.732
456.753
492.445
492.423
465.4
453.294
446.998
464.962
451.808
498.623
501.285
545.678
545.496
564.015
347.446
352.872
353.147
353.659
357.13
365.173
366.844
384.475
381.198
411.729
410.86
437.707
431.594
452.595
437.11
428.769
401.506
419.508
406.662
415.081
417.872
424.299
426.487
429.956
427.16
430.945
414.932
403.173
407.135
407.033
320.156
320.425
319.742
319.611
319.775
318.033
317.436
316.497
314.635
314.619
311.261
311.487
308.16
308.817
305.477
306.45
303.522
304.377
301.968
302.401
301.436
300.069
300.635
299.072
299.596
298.56
298.297
298.479
297.866
298.063
293.841
293.925
293.9
293.854
293.835
293.766
293.755
293.672
293.647
293.563
293.568
293.463
293.487
293.377
293.41
293.305
293.34
293.246
293.28
293.198
293.226
293.159
293.183
293.13
293.15
293.111
293.125
293.1
293.108
293.096
293.01
293.009
293.01
293.009
293.009
293.007
293.007
293.005
293.006
293.004
293.005
293.003
293.002
293.001
293.001
293.001
293.001
293
293.001
293.001
293
293.001
293
293
293
293.002
293
293.001
293
292.999
293
293
293
292.999
293.001
292.999
292.999
293
293
292.999
293
293
292.999
292.998
292.999
292.999
292.999
292.998
293
293
292.999
292.999
292.999
292.999
292.999
293.001
292.999
293
292.999
292.999
292.999
293
293
293
293.001
293
292.999
292.999
293
293
293
293
292.999
292.999
292.999
292.999
292.999
292.999
293.001
293
292.999
293
292.999
292.999
292.999
293.001
292.999
293
293
292.999
292.999
293.001
293
293
293.001
292.999
292.999
293.001
292.999
293
293
293
292.999
292.999
292.999
293
292.999
292.998
293.001
293
292.999
293
293
293
292.999
293
293
292.999
292.999
292.998
292.999
293
293.001
293.001
293.001
293
293
293
292.999
293
292.999
293
292.998
292.998
293
292.999
293
292.999
292.998
292.998
292.998
292.998
292.999
292.999
292.998
293.001
292.999
292.999
293
292.999
658.562
625.461
582.653
526.335
438.007
271.377
270
270
270
270
270
270
429.816
432.918
377.153
270
270
270
270
270
270
333.334
476.85
562.889
559.21
494.562
463.425
461.28
441.746
509.137
479.994
439.46
371.746
270
270
270
270
270
270
270
270
454.815
498.562
495.855
270
270
270
270
270
270
270
270
270
270
270
270
270
270
270
270
270
270
270
270
270
270
270
270
270
270
270
402.992
410.228
402.14
270
270
270
270
270
270
270
270
270
270
270
270
270
270
270
270
270
270
270
270
270
270
270
270
270
395.966
404.111
383.078
404.197
440.707
620.116
270
270
270
270
270
270
270
270
270
270
270
270
270
270
270
270
270
270
418.726
444.795
430.129
454.925
461.993
470.366
479.111
522.047
524.051
545.193
541.565
364.491
369.649
373.426
378.793
384.008
384.664
389.667
387.955
405.489
410.223
434.828
442.773
463.477
464.374
479.63
472.306
466.37
426.369
429.46
411.35
417.173
419.402
423.464
421.769
427.131
419.271
418.511
410.614
407.866
405.982
320.863
320.613
321.371
320.05
319.408
319.857
317.583
316.313
315.83
313.511
313.066
310.287
310.362
308.095
306.557
306.013
304.274
303.092
303.265
301.096
301.849
300.077
300.237
299.483
298.997
299.023
298.217
298.453
297.929
297.983
294.027
293.919
293.906
293.91
293.826
293.822
293.754
293.716
293.659
293.595
293.568
293.484
293.5
293.38
293.431
293.305
293.358
293.248
293.291
293.203
293.233
293.166
293.187
293.136
293.154
293.115
293.13
293.105
293.111
293.103
293.014
293.014
293.014
293.013
293.012
293.012
293.009
293.01
293.007
293.008
293.006
293.007
293.004
293.006
293.003
293.005
293.003
293.004
293.003
293.004
293.003
293.004
293.003
293.004
293.003
293.004
293.003
293.005
293.003
293.005
293.004
293.003
293.004
293.002
293.004
293.002
293.003
293.002
293.003
293.002
293.003
293.001
293.003
293.001
293.003
293.002
293.003
293.002
293.003
293.003
293.002
293.003
293.001
293.003
293.002
293.004
293.002
293.004
293.003
293.006
293.004
293.004
293.002
293.004
293.002
293.004
293.002
293.003
293.002
293.003
293.002
293.003
293.001
293.003
293.001
293.003
293.001
293.003
293.002
293.004
293.002
293.003
293.002
293.004
293.002
293.004
293.003
293.005
293.003
293.005
293.005
293.004
293.001
293.004
293.002
293.004
293.002
293.004
293.002
293.003
293.002
293.003
293.001
293.003
293.001
293.001
293.003
293.001
293.002
293.001
293.003
293.001
293.003
293.001
293.004
293.002
293.004
293.001
293.003
293.004
293.004
293.004
293.003
293.005
293.003
293.004
293.002
293.004
293.002
293.004
293.002
293.003
293.001
293.002
293.001
293.003
293.001
293.003
293.001
293.003
293.001
293.003
293.001
293.003
293.002
293.003
293.002
293.004
293.003
293.004
627.319
610.387
615.081
618.57
563.141
412.347
297.37
270
270
270
270
295.287
414.535
435.524
313.464
270
270
270
270
290.256
515.256
656.647
746.249
741.829
757.319
780.044
786.953
796.684
813.278
791.992
803.465
762.874
692.069
544.357
429.121
316.549
276.042
270
270
270
270
483.924
486.194
488.158
270
270
270
270
270
270
270
270
270
270
270
270
270
270
270
270
270
270
270
270
270
270
270
270
270
270
270
298.77
404.013
399.241
270
277.489
270
270
270
270
270
270
270
270
270
270
270
270
270
270
270
270
270
270
270
270
270
270
270
270
270
270
270
406.35
604.988
270
270
270
270
270
270
270
270
270
270
270
270
270
270
270
270
270
270
270
270
270
386.662
445.176
464.107
491.676
497.124
527.695
521.305
541.241
384.8
385.88
388.495
392.344
392.605
394.785
393.695
408.081
409.079
447.421
443.341
486.856
472.119
503.027
491.359
503.557
495.404
492.016
442.189
435.532
413.316
416.436
414.304
418.536
413.881
417.434
418.428
416.1
411.299
405.759
320.251
321.474
321.013
322.047
320.518
319.236
319.919
317.314
315.038
315.562
311.942
312.598
308.966
309.748
306.149
307.065
304.103
303.787
303.128
301.459
301.666
300.345
299.72
299.89
298.628
299.054
298.166
298.336
297.922
297.984
293.925
294.046
294.014
293.88
293.912
293.79
293.804
293.68
293.694
293.567
293.584
293.467
293.488
293.377
293.402
293.304
293.33
293.246
293.268
293.197
293.215
293.159
293.171
293.127
293.139
293.104
293.116
293.091
293.1
293.088
293.007
293.007
293.006
293.006
293.005
293.004
293.003
293.002
293.002
293
293
292.998
292.998
292.998
292.998
292.997
292.997
292.996
292.996
292.996
292.996
292.997
292.996
292.996
292.996
292.996
292.996
292.995
292.995
292.994
292.995
292.996
292.996
292.995
292.996
292.995
292.995
292.995
292.996
292.995
292.995
292.995
292.995
292.995
292.995
292.995
292.995
292.995
292.995
292.995
292.995
292.996
292.995
292.995
292.995
292.996
292.996
292.995
292.996
292.994
292.995
292.996
292.995
292.996
292.996
292.995
292.995
292.995
292.996
292.995
292.995
292.995
292.995
292.995
292.995
292.995
292.995
292.996
292.995
292.995
292.995
292.996
292.995
292.995
292.995
292.996
292.995
292.996
292.995
292.994
292.994
292.995
292.996
292.996
292.996
292.995
292.996
292.996
292.996
292.995
292.995
292.995
292.994
292.994
292.994
292.994
292.994
292.994
292.994
292.995
292.995
292.995
292.995
292.995
292.995
292.995
292.996
292.995
292.995
292.994
292.996
292.996
292.996
292.996
292.996
292.996
292.995
292.995
292.995
292.995
292.995
292.994
292.994
292.994
292.994
292.994
292.994
292.995
292.994
292.994
292.994
292.994
292.995
292.995
292.994
292.996
292.996
292.995
292.996
292.994
636.985
727.582
819.389
838.615
815.176
667.695
527.009
415.534
338.896
270
270
270
406.376
433.91
270
270
270
270
377.55
642.636
779.874
823.039
828.295
832.818
826.199
863.107
885.578
904.399
908.533
925.394
912.881
919.687
894.683
812.889
717.604
572.592
444.849
351.751
270
270
411.664
451.234
472.771
459.935
270
270
270
270
270
270
270
270
270
270
310.249
335.805
360.578
327.481
323.879
302.114
270
270
270
270
270
270
270
270
270
270
270
276.494
406.957
417.581
270
331.168
270
270
270
270
270
270
270
270
270
270
270
270
270
270
270
270
270
270
270
270
270
270
270
270
270
270
340.241
421.108
610.398
270
270
270
270
270
270
270
270
270
270
270
270
270
270
270
270
270
270
270
270
270
270
270
383.255
469.312
495.992
495
520.616
498.928
391.661
391.501
388.899
390.833
396.269
400.509
413.535
422.351
442.275
436.962
476.133
457.597
500.755
483.767
501.152
497.748
511.031
506.704
504.911
446.824
434.505
405.72
411.041
406.33
411.566
415.862
420.963
421.925
415.199
409.973
319.826
321.187
322.024
322.613
324.264
321.597
319.21
320.388
316.624
314.648
314.816
311.168
311.739
308.138
308.684
305.4
306.099
303.113
303.944
301.445
302.063
300.437
299.993
299.864
298.715
299.091
298.263
298.083
298.146
297.866
294.19
294.011
294.004
293.956
293.859
293.904
293.774
293.785
293.655
293.66
293.545
293.546
293.452
293.448
293.372
293.366
293.301
293.299
293.242
293.242
293.193
293.196
293.153
293.158
293.127
293.119
293.118
293.097
293.105
293.093
293.009
293.013
293.011
293.009
293.01
293.007
293.007
293.005
293.005
293.004
293.003
293.003
293.002
293.001
293
293
293
293
293
292.999
293
292.999
292.998
292.998
292.998
292.999
292.999
293
293
292.999
292.999
292.999
292.999
292.999
292.998
292.998
292.998
292.998
292.998
292.999
292.998
292.998
292.998
292.999
292.999
292.999
292.999
292.998
292.999
292.999
292.999
292.999
292.998
292.998
292.998
292.999
292.999
292.999
292.999
292.999
292.998
292.999
292.999
292.998
292.998
292.998
292.998
292.998
292.999
292.998
292.999
292.998
292.999
292.998
292.999
292.998
292.998
292.999
292.998
292.998
292.999
292.999
292.998
292.998
292.998
292.999
292.998
293
293
292.999
293
292.999
292.999
292.999
292.999
292.998
292.998
292.998
292.999
292.999
292.998
292.998
292.998
292.998
292.998
292.998
292.998
292.998
292.998
292.998
292.998
292.998
292.997
292.998
292.997
292.999
292.999
292.998
292.999
292.998
292.999
293.001
292.999
292.999
292.999
292.998
292.999
292.998
292.998
292.998
292.998
292.997
292.997
292.997
292.997
292.997
292.997
292.997
292.997
292.997
292.998
292.998
292.997
292.997
292.997
292.998
292.999
292.999
292.998
292.998
813.019
958.529
1029.07
1025.41
938.725
830.788
721.867
629.006
564.767
463.207
270
270
370.07
430.13
270
270
270
425.981
713.788
834.803
865.759
847.166
815.619
791.56
805.117
802.724
837.747
850.518
839.827
836.225
846.176
875.886
904.25
921.528
895.029
797.806
593.592
377.859
303.038
270
389.611
350.504
437.397
462.519
270
270
270
270
270
270
270
270
270
319.511
443.28
506.318
519.253
537.973
524.521
446.604
278.017
270
270
270
270
270
270
270
270
270
270
270
329.126
407.098
270
270
270
270
270
270
270
270
270
270
270
270
270
270
270
270
270
270
270
270
270
270
270
270
270
270
270
270
270
356.1
628.625
270
270
270
270
402.953
281.904
270
270
270
270
270
270
270
270
270
270
270
270
270
270
270
270
270
270
386.452
475.299
496.723
490.778
502.496
382.037
374.992
382.829
397.955
412.713
426.32
429.635
443.493
414.425
454.843
397.01
458.156
396.001
485.825
451.658
496.001
485.752
502.823
501.042
504.163
446.785
423.588
398.359
406.365
407.014
414.549
419.838
423.201
420.937
416.387
318.262
320.252
321.097
324.534
324.089
326.398
323.264
319.804
320.38
316.347
314.174
314.336
310.434
311.164
307.285
308.038
304.59
305.312
302.478
303.191
300.847
301.659
299.567
300.413
298.64
299.194
298.323
298.021
298.098
297.915
294.016
294.232
294.13
294.1
294.001
293.881
293.904
293.752
293.77
293.619
293.64
293.505
293.527
293.409
293.432
293.331
293.351
293.266
293.283
293.212
293.225
293.171
293.178
293.139
293.145
293.114
293.122
293.099
293.106
293.095
293.02
293.013
293.014
293.011
293.01
293.011
293.008
293.008
293.007
293.007
293.005
293.004
293.003
293.001
293.002
293.001
293.001
293.001
293
293
293.001
293
293
292.999
293
293
293
292.999
293
293
292.999
293
293
293
293
292.999
292.999
292.998
293
293
292.999
292.999
292.999
292.999
292.999
292.999
292.999
292.999
293
292.999
292.999
292.999
292.999
292.999
293
293
293
293
293
293
293
292.999
293
293
293
293
292.999
292.998
292.999
292.999
292.999
292.999
292.999
292.999
292.999
292.999
292.999
292.999
292.999
292.999
292.999
292.999
292.999
292.999
293
292.999
293
292.999
293
293
293
293
293
293
293.001
293
293
292.999
293
293
292.999
292.999
293
292.999
292.999
292.999
292.999
292.999
292.999
293
292.999
292.999
292.998
292.999
292.999
293
292.999
293
292.999
293
293
293.001
293
293
293
293
292.999
292.999
292.999
292.999
292.999
292.999
292.998
292.998
292.998
292.998
292.999
292.998
292.998
292.998
292.999
292.998
292.998
292.998
292.999
292.999
292.999
292.999
292.999
292.999
1031.11
1086.11
1064.93
944.882
798.934
726.114
697.486
690.411
657.035
609.125
347.332
270
270
380.499
270
270
490.692
772.735
864.147
867.748
843.233
808.855
778.298
765.569
753.188
740.002
702.029
620.542
515.621
547.437
586.507
682.465
800.621
881.567
900.66
770.717
495.674
334.017
270
270
270
270
390.535
436.512
270
270
270
270
270
270
270
270
330.078
436.628
501.223
533.802
550.842
569.718
547.449
303.968
270
270
270
270
270
270
270
270
270
270
270
270
325.846
421.799
270
270
270
270
270
270
270
270
270
270
270
270
270
270
270
270
270
270
270
270
270
270
270
270
270
270
270
270
270
270
654.919
270
270
270
409.88
541.219
405.337
270
270
270
270
270
270
270
270
270
270
270
270
270
270
270
270
270
270
270
407.087
479.064
481.939
464.501
367.648
382.414
412.521
413.968
408.195
392.536
390.262
361.479
394.864
319.478
346.788
270
299.712
286.38
435.609
441.025
488.985
475.772
497.232
496.433
498.403
439.761
417.053
401.44
405.271
411.984
417.424
421.346
423.996
421.778
315.766
317.068
323.187
323.086
327.072
326.07
327.533
323.557
319.825
319.989
315.911
313.267
313.755
309.569
310.46
306.444
307.311
303.836
304.621
301.906
302.495
300.454
300.869
299.314
299.679
298.417
298.807
297.907
298.081
297.986
294.527
294.208
294.302
294.046
294.067
294.021
293.878
293.887
293.728
293.735
293.593
293.596
293.486
293.482
293.4
293.388
293.333
293.3
293.271
293.237
293.22
293.185
293.175
293.148
293.143
293.122
293.112
293.111
293.096
293.101
293.012
293.02
293.017
293.015
293.014
293.01
293.011
293.008
293.007
293.006
293.006
293.004
293.002
293.002
293.001
293.001
293.001
293.001
293
293.001
293
293
293
293
293
293
293
292.999
292.999
292.999
292.999
292.999
292.999
293
292.999
292.999
292.999
292.999
292.999
292.999
292.999
292.999
292.999
292.999
292.999
292.999
292.999
292.999
292.999
292.999
292.999
292.999
292.999
292.999
292.999
292.999
292.999
292.999
293
292.999
292.998
292.999
293
292.999
292.999
292.999
292.999
292.999
292.999
292.999
292.999
292.999
292.999
292.998
292.998
292.998
292.999
292.998
292.999
292.999
292.999
292.999
292.999
292.999
292.999
292.999
293
292.999
292.999
292.999
292.999
292.999
292.999
292.999
292.999
292.999
292.999
292.999
292.999
292.999
292.999
292.998
292.999
292.998
292.998
292.998
292.998
292.999
292.999
292.999
292.999
292.998
293
292.998
292.999
292.999
292.999
292.999
293
292.999
293
293.001
293
293
292.999
293
292.999
292.999
292.998
292.999
292.999
292.998
292.998
292.998
292.997
292.997
292.997
292.998
292.998
292.999
292.998
292.998
292.998
292.998
292.998
292.999
292.999
292.999
292.998
292.998
1113.63
1079.06
930.415
760.793
648.434
608.877
596.086
594.444
609.891
609.662
502.086
342.034
270
371.005
270
426.81
718.125
846.202
867.927
849.627
816.671
777.413
757.054
734.408
645.543
492.052
336.285
299.525
303.63
330.213
412.053
533.586
698.222
766.123
679.766
485.462
329.717
270
270
270
270
270
388.796
442.671
270
270
270
270
270
270
270
272.51
433.564
503.631
454.995
383.795
435.777
559.268
501.437
270
270
270
270
270
270
270
270
270
270
270
270
270
378.082
421.087
270
270
270
270
270
270
270
270
270
270
270
270
270
270
270
270
270
270
270
270
270
270
270
270
270
270
270
270
270
270
649.993
305.834
288.632
432.194
561.758
511.797
354.883
270
270
270
270
270
270
270
270
270
270
270
270
270
270
270
270
270
270
270
270
367.278
475.149
477.955
364.835
421.548
370.827
270
270
270
270
270
270
270
270
270
270
270
270
373.719
430.943
485.184
472.142
493.862
493.563
490.366
425.119
414.293
402.523
409.133
413.544
418.769
420.818
431.078
311.207
322.058
320.991
325.786
328.159
329.123
327.444
328.086
323.538
318.834
319.738
314.345
313.106
312.657
308.697
309.54
305.631
306.492
303.168
303.92
301.353
301.913
300.002
300.407
298.941
299.262
298.111
298.508
297.61
297.886
294.326
294.553
294.35
294.372
294.138
294.04
294.035
293.828
293.887
293.675
293.726
293.545
293.584
293.439
293.474
293.352
293.384
293.279
293.31
293.221
293.247
293.182
293.195
293.143
293.154
293.122
293.117
293.109
293.098
293.097
293.03
293.022
293.022
293.018
293.013
293.015
293.01
293.011
293.008
293.008
293.007
293.004
293.004
293.002
293.003
293.001
293.002
293.001
293.001
293.001
293.001
293.001
293
293
293
293
293.001
293
293
293
293
293
293
293
293
292.999
292.999
292.999
293
293
292.999
292.999
292.999
292.999
292.999
292.999
292.999
292.999
292.999
292.999
293
293
292.999
292.999
293
293
293
293
293
293
293
293
293
293.001
292.999
293
293
292.999
293
292.999
293
292.999
292.999
292.999
292.999
292.999
292.999
292.999
292.999
292.999
293
293
292.999
292.999
292.999
293
293.001
293
293
293
293
293.001
293.001
293.001
293
293
293
292.999
293
292.999
293
292.999
292.999
292.999
292.999
292.999
292.999
292.999
292.999
292.999
293
293
292.999
292.999
292.999
293
293.001
293
293
293
293.001
293
293
293.001
293
293
293
292.999
293
293
292.999
292.999
292.999
292.999
292.999
292.999
292.999
292.999
292.999
292.999
292.999
292.999
292.999
292.999
292.999
292.999
292.999
293
293
293
1123.19
990.479
789.318
649.755
593.999
567.581
541.841
497.054
457.415
481.294
509.543
489.476
321.568
363.078
270
404.749
557.9
748.207
859.78
847.841
801.77
758.179
713.918
528.421
327.554
270
270
270
270
321.04
401.929
520.655
576.025
483.216
348.813
270
270
270
270
270
270
270
367.454
367.153
270
270
270
270
270
270
288.774
433.718
482.772
390.903
270
270
348.993
512.191
522.344
270
270
270
270
270
270
270
270
270
270
270
270
270
363.759
359.818
270
270
270
270
270
270
270
270
270
270
270
270
270
270
270
270
270
270
270
270
270
270
270
270
270
270
270
270
270
329.679
669.193
659.513
609.883
575.533
522.207
270
270
270
270
270
270
270
270
270
270
270
290.169
277.844
270
270
270
270
270
270
270
270
270
270
359.707
480.651
412.684
402.833
270
270
270
270
270
270
270
270
270
270
270
270
270
270
335.448
429.91
484.267
476.625
493.906
490.072
476.556
408.18
409.724
404.166
411.872
414.088
423.532
430.167
326.01
307.147
324.669
325.963
326.965
330.625
330.502
327.784
327.673
321.843
319.348
317.349
314.168
311.682
311.941
307.433
308.753
304.678
305.79
302.395
303.367
300.642
301.523
299.355
300.103
298.4
298.938
297.91
297.912
297.911
294.692
294.446
294.73
294.268
294.325
294.142
294.058
293.937
293.858
293.787
293.68
293.633
293.564
293.486
293.472
293.378
293.376
293.306
293.304
293.235
293.252
293.174
293.211
293.137
293.167
293.112
293.132
293.098
293.106
293.091
293.02
293.029
293.021
293.021
293.017
293.012
293.014
293.01
293.009
293.009
293.005
293.006
293.002
293.003
293.001
293.001
293
293.001
293
293.001
293
293
292.999
293
292.999
292.999
293
293
293
293
293
292.999
292.999
292.999
292.999
292.998
293
292.999
292.999
292.999
292.999
292.999
292.998
292.998
292.998
292.998
292.998
292.998
292.999
292.999
292.999
292.999
292.999
293
292.999
292.999
292.999
293
292.999
293
292.999
292.999
293
293
292.998
292.999
293
292.999
292.999
292.999
292.999
292.999
292.998
292.998
292.998
292.998
292.998
292.998
292.999
292.999
292.999
292.999
292.999
293
292.999
292.999
292.999
292.999
293
293
293
293
293
293
292.999
292.999
292.999
292.999
292.999
292.999
292.999
292.999
292.998
292.998
292.997
292.997
292.998
292.997
292.999
292.999
292.999
292.999
292.999
292.999
292.999
292.998
293
293
293
293
293
293
293
293
292.999
293
292.999
292.999
292.998
292.999
292.998
292.998
292.998
292.998
292.998
292.998
292.998
292.998
292.998
292.999
292.998
292.998
292.999
292.999
293
293
293
292.999
292.999
293
1017.84
888.71
695.232
590.643
569.828
553.854
519.064
549.362
562.953
549.413
515.831
519.462
430.282
270
270
270
270
286.424
409.844
635.141
856.413
832.574
769.435
729.156
536.826
270
270
270
270
270
270
323.2
386.372
391.713
317.618
270
270
270
270
270
270
270
270
270
270
270
270
270
270
270
270
270
270
279.799
413.186
463.912
367.657
270
270
270
388.393
533.083
597.041
465.672
270
270
270
270
270
270
270
270
270
270
270
270
270
270
270
270
270
270
270
270
270
270
270
270
270
270
270
270
270
270
270
270
270
270
270
270
270
270
270
270
270
270
270
270
270
270
270
270
433.329
270
270
270
270
270
270
270
270
270
282.065
330.204
344.737
356.928
373.871
397.216
378.927
325.495
272.195
271.736
286.367
276.869
315.155
338.675
368.204
367.301
270
270
270
288.311
270
294.474
270
270
270
270
270
270
270
270
270
270
270
270
270
270
270
270
270
333.345
443.256
486.711
479.24
493.9
479.613
457.39
391.259
404.843
404.004
409.687
409.134
407.091
365.063
379.224
339.795
340.818
329.332
330.648
332.756
331.051
332.586
330.651
326.513
326.433
321.544
316.352
317.748
311.269
312.611
309.078
307.451
307.024
304.16
304.633
301.922
302.362
300.66
300.085
299.624
298.833
298.396
297.956
297.51
296.634
296.72
295.716
295.602
295.184
294.661
294.815
294.382
294.313
294.174
294.016
293.947
293.794
293.804
293.603
293.658
293.481
293.511
293.395
293.401
293.301
293.334
293.233
293.269
293.183
293.211
293.148
293.163
293.12
293.126
293.099
293.1
293.08
293.078
293.049
293.053
293.03
293.037
293.025
293.022
293.02
293.014
293.014
293.011
293.011
293.007
293.006
293.006
293.003
293.004
293.002
293.003
293.001
293.002
293.001
293.002
293.001
293.001
293.001
293.001
293
293.001
293.001
293
293.001
292.999
292.999
293.001
293
293.001
293
293
293
293
293
293
293
293
292.999
292.999
292.999
292.999
292.999
292.999
292.999
292.999
292.999
293
293
293
293
293.001
293
293.001
293.001
293
293.001
292.999
292.999
293.001
293
293.001
293.001
293
293
293
293
293
293
293
292.999
292.999
292.999
292.999
292.999
292.999
292.999
292.999
292.999
293
293
293
293
293
293
293.001
293.001
293
293.001
292.999
292.999
293.001
293.001
293.001
293.001
293.001
293
293
293
293
293
293
292.999
292.999
292.999
292.999
292.999
292.999
292.999
292.999
292.999
292.999
293
293
293
293
293
293
293.001
293.001
293.001
292.999
292.999
293.001
293.001
293.001
293
293.001
293
293.001
293
293
293
293
292.999
292.999
292.999
293
293
292.999
292.999
292.999
293
293
293
293
293
293
293.001
293.001
293.001
293.001
293.001
292.998
292.999
913.004
795.877
626.459
574.672
572.836
560.312
579.522
601.023
625.364
623.072
587.518
535.004
505.807
326.896
270
270
270
270
363.291
636.47
841.912
813.743
745.453
670.649
297.95
270
270
270
270
270
270
270
270
270
270
270
270
270
270
270
270
270
270
270
270
270
270
270
270
270
270
270
296.954
393.093
421.268
331.035
270
270
270
427.15
553.278
629.782
669.375
635.199
529.381
343.665
270
270
270
270
270
270
270
270
270
270
270
270
270
270
270
270
270
270
270
270
270
270
270
270
270
270
270
270
270
270
270
270
270
270
270
270
270
270
270
270
270
270
270
270
270
270
270
270
270
270
270
270
270
270
270
357.839
445.143
504.354
535.103
520.288
493.617
457.153
417.618
347.746
284.426
297.858
270.208
270
276.503
308.8
361.686
384.271
422.43
322.081
270
270
270
270
270
270
270
270
270
270
270
270
270
270
270
270
270
270
270
270
270
270
381.48
460.415
486.077
481.692
492.104
463.049
433.574
385.159
400.188
401.965
401.501
394.723
385.05
366.605
357.622
340.44
344.415
337.192
332.049
334.133
331.975
332.568
329.606
325.38
325.144
317.07
318.976
312.591
312.813
309.04
309.524
305.313
306.755
302.793
304.044
300.925
302.018
299.401
300.438
298.301
299.108
297.387
298.066
296.655
297.137
295.509
296.009
295.018
294.865
294.848
294.418
294.519
294.08
294.238
293.836
293.94
293.729
293.678
293.619
293.497
293.535
293.38
293.443
293.297
293.346
293.246
293.263
293.195
293.21
293.15
293.167
293.118
293.133
293.092
293.107
293.071
293.082
293.05
293.055
293.034
293.036
293.025
293.027
293.016
293.019
293.012
293.014
293.009
293.008
293.008
293.004
293.005
293.002
293.003
293.001
293.002
293.001
293.001
293
293
293
293
293
293
293
293
293
293
293
293
293
293
293
293
293
293
293
293
292.999
292.999
292.999
292.999
292.999
292.999
292.999
292.999
292.999
292.999
292.999
292.999
292.999
293
293
293
293
293
293
293
293
293
293
293
293
293
293
293
293
293
293
293
292.999
292.999
292.999
292.999
292.999
292.999
292.999
292.999
292.998
292.999
292.999
292.999
292.999
293
293
293
292.999
293
293
293
293
293
293
293
293
293
293
293.001
293
293
293
293
293
292.999
292.999
292.999
292.999
292.999
292.999
292.999
292.999
292.999
292.999
292.999
292.999
292.999
293
293
293
293
293
293
293
293
293
293
293
293
293
293.001
293
293
293
293
292.999
292.999
292.999
292.999
292.998
292.999
292.998
292.998
292.998
292.998
292.999
292.999
292.999
292.999
292.999
292.999
293
293
293
293
293
293
293.001
293
789.778
706.458
584.287
563.603
565.783
568.893
578.409
601.742
610.933
627.774
615.816
571.544
536.887
481.257
375.801
332.542
279.336
295.02
419.792
722.339
832.49
783.667
739.975
583.938
270
270
270
270
270
270
270
270
270
270
270
270
270
270
270
270
270
270
270
270
270
270
270
270
270
270
270
270
334.122
345.395
270
270
270
301.027
495.038
620.753
667.703
691.699
699.518
704.587
651.848
523.052
270
270
270
270
270
270
270
270
270
270
270
270
270
270
270
270
270
270
270
270
270
270
270
270
270
270
270
270
270
270
270
270
270
270
270
270
270
270
270
270
270
270
270
270
270
270
270
270
270
270
270
270
270
270
270
270
302.106
404.988
485.962
526.82
510.389
473.337
421.238
383.769
311.955
307.193
270
270
270
309.086
383.57
448.123
462.594
436.448
352
270
270
270
270
270
270
270
270
270
270
270
270
270
270
270
270
270
270
270
270
270
270
432.236
472.143
485.965
481.149
488.055
436.457
414.57
386.811
393.469
394.213
395.596
373.517
380.039
350.466
359.787
345.76
341.657
339.861
332.567
334.532
331.409
331.515
328.379
322.215
323.432
316.601
314.075
314.083
309.106
310.409
305.863
306.76
303.645
303.554
301.926
301.499
300.022
300.147
298.612
298.925
297.481
297.955
296.619
297.02
295.723
295.991
295.103
295.236
294.68
294.785
294.341
294.262
294.14
293.928
293.973
293.712
293.806
293.565
293.592
293.501
293.429
293.411
293.326
293.347
293.249
293.286
293.194
293.226
293.154
293.176
293.118
293.142
293.091
293.111
293.073
293.083
293.053
293.06
293.038
293.043
293.027
293.032
293.02
293.022
293.016
293.016
293.011
293.011
293.009
293.008
293.007
293.005
293.005
293.004
293.003
293.003
293.003
293.003
293.003
293.003
293.002
293.002
293.002
293.002
293.001
293.002
293.001
293.002
293.002
293.001
293.002
293.001
293.001
293.001
293.001
293.001
293.002
293.002
293.001
293.001
293.001
293.001
293.001
293.001
293.001
293.001
293.001
293.001
293.001
293.001
293.002
293.002
293.001
293.002
293.002
293.001
293.001
293.001
293.001
293.002
293.002
293.001
293.001
293.001
293.001
293.001
293.002
293.001
293.002
293.002
293.001
293.001
293.001
293.001
293.001
293.001
293.001
293.001
293.001
293.001
293.001
293.001
293.002
293.002
293.001
293.002
293.001
293.001
293.001
293.002
293.001
293.002
293.002
293.001
293.002
293.001
293.001
293.001
293.001
293.001
293.002
293.002
293.002
293.001
293.001
293
293.001
293
293
293
293.001
293
293.001
293.001
293.002
293.002
293.002
293.002
293.002
293.002
293.002
293.002
293.002
293.002
293.002
293.002
293.002
293.002
293.002
293.002
293.001
293.001
293
293.001
293.001
293.001
293
293
292.999
293
293
293.001
293
293.001
293
293.001
293.001
293.002
293.001
293.002
293.002
293.002
293.002
293.002
293.002
293.003
293.002
694.431
651.029
576.27
560.926
564.92
562.326
583.188
585.706
596.752
608.546
599.67
553.847
515.566
503.088
461.572
431.034
365.376
356.065
501.207
790.057
821.062
763.781
741.028
549.913
270
270
270
270
270
270
270
270
270
270
270
270
270
270
270
270
270
270
270
270
270
270
270
270
270
270
270
270
270
270
270
270
347.56
552.339
652.77
661.689
600.432
539.928
587.795
602.567
621.231
468.069
270
270
270
270
270
270
270
270
270
270
270
270
270
270
270
270
270
270
270
270
270
270
270
270
270
270
270
270
270
270
270
270
270
270
270
270
270
270
270
270
270
270
270
270
270
270
270
270
270
270
270
270
270
270
270
270
270
270
270
337.557
424.418
440.548
426.344
387.48
353.55
270
270
270
270
325.998
423.843
491.133
526.026
509.26
461.217
400.586
270
270
270
270
270
270
270
270
270
270
270
270
270
270
270
270
270
270
270
270
270
282.061
465.715
475.697
485.799
477.167
468.808
405.995
400.324
393.453
394.309
383.119
386.229
372.638
363.779
368.898
348.258
353.544
335.638
340.735
331.069
334.046
329.651
330.729
322.729
324
318.976
313.054
315.963
308.867
311.368
306.112
307.306
303.54
304.45
301.141
302.448
299.488
300.71
298.301
299.306
297.293
298.125
296.492
297.092
295.689
296.144
295.073
295.456
294.646
294.857
294.343
294.434
294.058
294.109
293.877
293.817
293.73
293.606
293.621
293.468
293.512
293.363
293.396
293.312
293.278
293.266
293.203