/*--------------------------------*- C++ -*----------------------------------*\
| =========                 |                                                 |
| \\      /  F ield         | OpenFOAM: The Open Source CFD Toolbox           |
|  \\    /   O peration     | Version:  2.1.1                                 |
|   \\  /    A nd           | Web:      www.OpenFOAM.org                      |
|    \\/     M anipulation  |                                                 |
\*---------------------------------------------------------------------------*/
FoamFile
{
    version     2.0;
    format      ascii;
    class       volScalarField;
    location    "0.000600000";
    object      H;
}
// * * * * * * * * * * * * * * * * * * * * * * * * * * * * * * * * * * * * * //

dimensions      [0 0 0 0 0 0 0];

internalField   nonuniform List<scalar> 
12384
(
8.74536e-08
5.25734e-08
8.7759e-09
2.07215e-10
4.12515e-12
7.3783e-14
1.33875e-15
2.37233e-17
3.71118e-19
4.85486e-21
5.52078e-23
5.4055e-25
4.69708e-27
3.71982e-29
8.28524e-44
5.90241e-45
3.91799e-47
2.25578e-49
1.20249e-51
5.73295e-54
2.58788e-56
1.08645e-58
4.36987e-61
1.71542e-63
6.68918e-66
2.57125e-68
1.01859e-70
3.93818e-73
1.57016e-75
6.17858e-78
2.47355e-80
1.00395e-82
4.25865e-85
1.895e-87
9.09469e-90
4.6571e-92
2.53887e-94
1.43655e-96
8.20151e-99
4.67632e-101
2.59343e-103
1.4024e-105
7.33483e-108
3.71031e-110
1.28162e-119
1.21354e-120
1.6008e-122
1.45898e-124
1.06153e-126
6.60413e-129
3.66137e-131
1.85895e-133
8.716e-136
3.78951e-138
1.53311e-140
5.81117e-143
2.09403e-145
7.28625e-148
2.44247e-150
7.74715e-153
2.31704e-155
6.5848e-158
1.79458e-160
4.73138e-163
1.2119e-165
3.02475e-168
4.35574e-171
4.75157e-175
2.70788e-178
4.06252e-181
7.03468e-184
1.07213e-186
1.31578e-189
1.43598e-193
1.42689e-210
2.16567e-208
4.89573e-211
5.98086e-214
5.41104e-217
4.06162e-220
2.78286e-223
1.76813e-226
1.07411e-229
6.33365e-233
3.59777e-236
2.02807e-239
1.15698e-242
7.14931e-246
4.56692e-249
2.65267e-252
1.2879e-255
5.67913e-259
2.31958e-262
9.14042e-266
3.43624e-269
1.25137e-272
4.38571e-276
1.50882e-279
5.04314e-283
1.68108e-286
5.58862e-290
1.84342e-293
5.89952e-297
4.71589e-301
0
1.03754e-322
0
0
0
0
0
0
0
0
0
0
0
0
0
0
0
0
0
0
0
0
0
0
0
0
0
0
0
0
0
0
0
0
0
0
0
0
0
0
0
0
0
0
0
0
0
0
0
0
0
0
0
0
0
0
0
0
0
0
0
0
0
0
0
0
0
0
0
0
0
0
0
0
0
0
0
0
0
0
0
0
0
0
0
0
0
0
0
0
0
0
0
0
0
0
0
0
0
0
0
0
0
0
0
0
0
0
0
0
0
0
0
0
0
0
0
0
0
0
0
0
0
0
0
0
0
0
0
0
0
0
0
0
0
0
0
0
0
0
0
0
0
0
0
0
0
0
0
0
0
0
0
0
0
0
0
0
0
0
0
0
0
0
0
0
0
0
0
0
0
0
0
0
0
0
0
0
0
0
0
0
0
0
0
0
0
0
0
0
0
0
0
0
0
0
0
0
0
0
0
0
0
0
0
0
0
0
0
0
0
0
0
0
0
0
0
0
0
0
0
0
0
0
0
0
0
0
0
0
0
0
0
0
0
0
0
0
0
0
0
0
0
0
0
0
0
0
0
0
0
0
0
0
0
0
0
0
0
0
0
0
0
0
0
0
0
0
0
0
3.04128e-08
5.60894e-08
4.90151e-09
1.45412e-10
1.66122e-12
1.37129e-14
3.61359e-16
1.07104e-17
3.50329e-19
8.13744e-21
1.10847e-22
1.55758e-24
1.55908e-26
1.19614e-28
2.26317e-42
1.69755e-43
1.18689e-45
7.84947e-48
4.8605e-50
2.66088e-52
1.35796e-54
6.4085e-57
2.63378e-59
1.15088e-61
4.95078e-64
2.0876e-66
9.0258e-69
3.91809e-71
1.55483e-73
6.63782e-76
2.61766e-78
9.83064e-81
4.06952e-83
1.52326e-85
6.34455e-88
2.77574e-90
1.24826e-92
6.81574e-95
3.72955e-97
2.09606e-99
1.25265e-101
6.56291e-104
3.71294e-106
2.12595e-108
3.18983e-117
1.473e-118
1.80545e-120
1.63896e-122
1.22893e-124
8.02519e-127
4.75965e-129
2.63369e-131
1.36417e-133
6.59587e-136
2.96007e-138
1.21383e-140
4.5908e-143
1.65092e-145
5.69197e-148
1.83792e-150
5.5288e-153
1.57556e-155
4.30534e-158
1.14511e-160
2.96724e-163
7.54988e-166
1.87629e-168
2.45239e-171
1.19132e-174
1.73782e-177
3.15596e-180
5.07464e-183
6.58084e-186
1.38781e-189
3.20244e-206
1.46024e-204
3.21079e-207
3.88583e-210
3.46153e-213
2.54866e-216
1.67771e-219
1.01514e-222
5.80842e-226
3.19914e-229
1.71549e-232
9.10376e-236
4.88814e-239
2.77227e-242
1.66409e-245
9.51421e-249
4.81774e-252
2.19146e-255
9.26633e-259
3.74924e-262
1.46379e-265
5.54583e-269
2.03082e-272
7.24544e-276
2.51267e-279
8.57677e-283
2.91022e-286
9.8008e-290
3.26295e-293
5.14378e-297
1.97972e-320
7.65046e-319
1.57607e-321
0
0
0
0
0
0
0
0
0
0
0
0
0
0
0
0
0
0
0
0
0
0
0
0
0
0
0
0
0
0
0
0
0
0
0
0
0
0
0
0
0
0
0
0
0
0
0
0
0
0
0
0
0
0
0
0
0
0
0
0
0
0
0
0
0
0
0
0
0
0
0
0
0
0
0
0
0
0
0
0
0
0
0
0
0
0
0
0
0
0
0
0
0
0
0
0
0
0
0
0
0
0
0
0
0
0
0
0
0
0
0
0
0
0
0
0
0
0
0
0
0
0
0
0
0
0
0
0
0
0
0
0
0
0
0
0
0
0
0
0
0
0
0
0
0
0
0
0
0
0
0
0
0
0
0
0
0
0
0
0
0
0
0
0
0
0
0
0
0
0
0
0
0
0
0
0
0
0
0
0
0
0
0
0
0
0
0
0
0
0
0
0
0
0
0
0
0
0
0
0
0
0
0
0
0
0
0
0
0
0
0
0
0
0
0
0
0
0
0
0
0
0
0
0
0
0
0
0
0
0
0
0
0
0
0
0
0
0
0
0
0
0
0
0
0
0
0
0
0
0
0
0
0
0
0
0
0
0
0
0
0
0
0
0
0
0
0
1.69678e-13
3.38921e-13
1.16961e-14
2.36897e-15
1.6687e-17
2.05594e-18
3.57626e-21
6.18442e-24
5.8389e-27
2.59268e-29
5.72978e-32
9.06339e-34
3.2439e-35
4.66911e-37
1.57612e-48
1.70573e-49
1.20867e-51
5.40736e-54
3.49218e-56
1.07717e-58
5.9682e-61
1.64113e-63
6.57559e-66
2.33459e-68
9.67304e-71
3.8077e-73
1.85558e-75
7.00792e-78
3.23182e-80
1.43504e-82
5.56165e-85
2.35323e-87
8.82338e-90
3.36975e-92
1.24459e-94
4.84578e-97
1.61406e-99
6.14724e-102
2.03565e-104
7.69305e-107
3.12575e-109
1.07333e-111
5.49417e-114
5.95689e-117
1.86459e-124
1.82207e-125
1.64736e-127
1.3113e-129
9.15796e-132
6.48643e-134
4.33724e-136
3.0233e-138
1.95533e-140
1.23284e-142
6.98817e-145
3.48427e-147
1.4319e-149
5.18765e-152
1.7543e-154
5.33875e-157
1.50639e-159
4.07172e-162
1.10425e-164
2.95076e-167
7.83695e-170
2.00606e-172
5.09979e-175
1.26173e-177
2.9095e-180
5.56471e-183
1.06242e-185
1.72618e-188
2.17331e-191
8.63907e-196
1.64842e-211
7.93657e-210
1.62642e-212
1.87468e-215
1.5903e-218
1.12396e-221
7.09015e-225
4.03743e-228
2.14894e-231
1.07718e-234
5.20367e-238
2.44372e-241
1.17696e-244
5.88516e-248
3.09478e-251
1.54799e-254
6.93505e-258
2.83823e-261
1.13763e-264
4.53985e-268
1.82141e-271
7.12247e-275
2.74521e-278
1.01781e-281
3.64686e-285
1.27376e-288
4.43838e-292
1.51445e-295
5.05302e-299
1.55391e-303
0
4.94066e-324
0
0
0
0
0
0
0
0
0
0
0
0
0
0
0
0
0
0
0
0
0
0
0
0
0
0
0
0
0
0
0
0
0
0
0
0
0
0
0
0
0
0
0
0
0
0
0
0
0
0
0
0
0
0
0
0
0
0
0
0
0
0
0
0
0
0
0
0
0
0
0
0
0
0
0
0
0
0
0
0
0
0
0
0
0
0
0
0
0
0
0
0
0
0
0
0
0
0
0
0
0
0
0
0
0
0
0
0
0
0
0
0
0
0
0
0
0
0
0
0
0
0
0
0
0
0
0
0
0
0
0
0
0
0
0
0
0
0
0
0
0
0
0
0
0
0
0
0
0
0
0
0
0
0
0
0
0
0
0
0
0
0
0
0
0
0
0
0
0
0
0
0
0
0
0
0
0
0
0
0
0
0
0
0
0
0
0
0
0
0
0
0
0
0
0
0
0
0
0
0
0
0
0
0
0
0
0
0
0
0
0
0
0
0
0
0
0
0
0
0
0
0
0
0
0
0
0
0
0
0
0
0
0
0
0
0
0
0
0
0
0
0
0
0
0
0
0
0
0
0
0
0
0
0
0
0
0
0
0
0
0
0
0
0
0
0
0
0
1.99607e-05
6.73951e-06
4.60417e-09
4.75111e-12
3.00881e-13
3.11421e-13
1.14823e-15
5.73824e-19
1.17213e-22
5.16482e-26
5.38476e-29
3.03219e-32
2.5894e-35
5.40345e-38
3.04225e-43
2.62012e-44
1.22077e-46
6.96243e-49
2.83115e-51
1.16782e-53
3.56878e-56
1.15542e-58
3.00004e-61
9.18358e-64
2.49345e-66
1.12172e-68
3.31903e-71
1.50979e-73
5.29047e-76
1.95625e-78
6.44719e-81
3.08828e-83
9.16045e-86
4.26813e-88
1.29293e-90
4.85088e-93
1.77492e-95
6.20263e-98
2.2844e-100
8.37083e-103
2.98908e-105
1.30924e-107
4.41778e-110
1.62532e-112
7.26341e-120
8.16319e-122
4.10171e-124
2.47107e-126
1.52243e-128
9.43978e-131
6.05719e-133
3.88061e-135
2.52312e-137
1.59581e-139
9.83736e-142
5.57693e-144
2.6242e-146
9.78937e-149
3.2848e-151
1.04124e-153
3.16829e-156
9.3455e-159
2.67626e-161
7.51681e-164
2.06889e-166
5.62688e-169
1.50559e-171
3.98476e-174
1.03377e-176
2.59117e-179
5.22375e-182
9.03837e-185
1.22999e-187
2.68805e-191
3.20154e-206
7.10312e-206
1.25913e-208
1.29343e-211
1.00811e-214
6.57371e-218
3.75958e-221
1.95254e-224
9.4019e-228
4.29296e-231
1.88157e-234
8.04927e-238
3.38577e-241
1.41788e-244
5.93664e-248
2.50234e-251
1.06094e-254
4.52863e-258
1.93219e-261
8.2267e-265
3.46393e-268
1.44254e-271
5.89956e-275
2.37457e-278
9.36486e-282
3.62851e-285
1.37948e-288
5.14993e-292
1.86132e-295
3.17574e-299
1.97626e-320
3.91547e-320
6.91692e-323
0
0
0
0
0
0
0
0
0
0
0
0
0
0
0
0
0
0
0
0
0
0
0
0
0
0
0
0
0
0
0
0
0
0
0
0
0
0
0
0
0
0
0
0
0
0
0
0
0
0
0
0
0
0
0
0
0
0
0
0
0
0
0
0
0
0
0
0
0
0
0
0
0
0
0
0
0
0
0
0
0
0
0
0
0
0
0
0
0
0
0
0
0
0
0
0
0
0
0
0
0
0
0
0
0
0
0
0
0
0
0
0
0
0
0
0
0
0
0
0
0
0
0
0
0
0
0
0
0
0
0
0
0
0
0
0
0
0
0
0
0
0
0
0
0
0
0
0
0
0
0
0
0
0
0
0
0
0
0
0
0
0
0
0
0
0
0
0
0
0
0
0
0
0
0
0
0
0
0
0
0
0
0
0
0
0
0
0
0
0
0
0
0
0
0
0
0
0
0
0
0
0
0
0
0
0
0
0
0
0
0
0
0
0
0
0
0
0
0
0
0
0
0
0
0
0
0
0
0
0
0
0
0
0
0
0
0
0
0
0
0
0
0
0
0
0
0
0
0
0
0
0
0
0
0
0
0
0
0
0
0
0
0
0
0
0
0
0.000110387
0.00013013
6.51018e-05
4.12671e-07
6.93745e-10
5.57855e-10
1.5782e-10
5.3136e-13
7.81817e-17
2.69629e-20
1.30682e-23
1.06783e-26
3.27639e-30
4.89748e-33
2.41335e-37
2.87657e-38
1.11095e-40
4.98681e-43
2.22884e-45
7.7305e-48
2.74015e-50
7.00255e-53
2.15817e-55
5.00686e-58
1.78052e-60
6.48986e-63
2.89475e-65
1.10477e-67
5.0459e-70
1.8688e-72
7.98887e-75
3.153e-77
1.16159e-79
4.85383e-82
1.6108e-84
6.56033e-87
2.36573e-89
8.11281e-92
3.14567e-94
1.07566e-96
3.99417e-99
1.43651e-101
5.35585e-104
1.98572e-106
8.81436e-114
7.54177e-116
2.57219e-118
1.17347e-120
5.77597e-123
3.06678e-125
1.6816e-127
9.81851e-130
5.77254e-132
3.49603e-134
2.09368e-136
1.24067e-138
6.64664e-141
2.88537e-143
1.04832e-145
3.47292e-148
1.09241e-150
3.29624e-153
9.67987e-156
2.77128e-158
7.82258e-161
2.16559e-163
5.9277e-166
1.59317e-168
4.21742e-171
1.08765e-173
2.73991e-176
4.77069e-179
6.60191e-182
1.58855e-185
2.43552e-199
7.26793e-200
1.04234e-202
9.09849e-206
6.20553e-209
3.61646e-212
1.88218e-215
8.92246e-219
3.94996e-222
1.64905e-225
6.63446e-229
2.58539e-232
9.94646e-236
3.78853e-239
1.44781e-242
5.55292e-246
2.154e-249
8.40143e-253
3.30611e-256
1.29671e-259
5.08212e-263
1.96379e-266
7.52331e-270
2.83095e-273
1.0532e-276
3.85528e-280
1.39369e-283
4.98084e-287
1.72888e-290
3.14571e-294
1.44981e-313
3.94963e-314
5.64238e-317
4.75785e-320
2.96439e-323
0
0
0
0
0
0
0
0
0
0
0
0
0
0
0
0
0
0
0
0
0
0
0
0
0
0
0
0
0
0
0
0
0
0
0
0
0
0
0
0
0
0
0
0
0
0
0
0
0
0
0
0
0
0
0
0
0
0
0
0
0
0
0
0
0
0
0
0
0
0
0
0
0
0
0
0
0
0
0
0
0
0
0
0
0
0
0
0
0
0
0
0
0
0
0
0
0
0
0
0
0
0
0
0
0
0
0
0
0
0
0
0
0
0
0
0
0
0
0
0
0
0
0
0
0
0
0
0
0
0
0
0
0
0
0
0
0
0
0
0
0
0
0
0
0
0
0
0
0
0
0
0
0
0
0
0
0
0
0
0
0
0
0
0
0
0
0
0
0
0
0
0
0
0
0
0
0
0
0
0
0
0
0
0
0
0
0
0
0
0
0
0
0
0
0
0
0
0
0
0
0
0
0
0
0
0
0
0
0
0
0
0
0
0
0
0
0
0
0
0
0
0
0
0
0
0
0
0
0
0
0
0
0
0
0
0
0
0
0
0
0
0
0
0
0
0
0
0
0
0
0
0
0
0
0
0
0
0
0
0
0
0
0
0
0
0.000126728
0.000128474
0.000132028
5.67381e-05
2.44927e-06
4.67527e-07
9.87528e-08
5.22983e-09
3.39621e-12
2.44361e-15
1.30933e-18
6.85597e-22
3.56159e-25
2.54587e-28
5.73946e-32
8.2269e-33
3.41026e-35
1.3122e-37
4.64696e-40
1.56192e-42
4.64186e-45
1.53785e-47
4.22167e-50
1.17497e-52
2.76855e-55
9.87204e-58
3.99835e-60
1.59866e-62
6.97874e-65
2.72806e-67
1.12585e-69
4.52571e-72
1.66111e-74
6.97001e-77
2.47257e-79
9.9059e-82
3.47843e-84
1.28349e-86
4.62926e-89
1.6496e-91
6.16459e-94
2.11185e-96
7.79922e-99
2.58659e-101
1.22092e-108
1.04697e-110
3.23896e-113
1.28082e-115
5.41046e-118
2.42024e-120
1.15594e-122
5.75611e-125
3.05355e-127
1.63489e-129
9.22163e-132
5.17591e-134
2.84473e-136
1.37335e-138
5.64712e-141
2.00379e-143
6.56189e-146
2.04773e-148
6.15553e-151
1.81059e-153
5.21064e-156
1.47751e-158
4.11043e-161
1.12835e-163
3.03237e-166
7.98067e-169
2.05843e-171
5.15073e-174
7.22854e-177
1.67231e-180
3.35079e-193
1.59224e-194
1.79152e-197
1.28466e-200
7.47405e-204
3.83624e-207
1.78959e-210
7.75245e-214
3.14377e-217
1.21295e-220
4.48507e-224
1.6134e-227
5.69326e-231
1.99642e-234
6.98326e-238
2.45763e-241
8.69809e-245
3.1063e-248
1.11166e-251
3.98541e-255
1.41745e-258
4.99613e-262
1.73397e-265
5.95106e-269
2.01311e-272
6.75748e-276
2.24995e-279
7.44081e-283
2.41335e-286
3.72778e-290
1.91832e-307
8.36622e-309
9.52012e-312
6.73282e-315
3.77508e-318
1.81816e-321
0
0
0
0
0
0
0
0
0
0
0
0
0
0
0
0
0
0
0
0
0
0
0
0
0
0
0
0
0
0
0
0
0
0
0
0
0
0
0
0
0
0
0
0
0
0
0
0
0
0
0
0
0
0
0
0
0
0
0
0
0
0
0
0
0
0
0
0
0
0
0
0
0
0
0
0
0
0
0
0
0
0
0
0
0
0
0
0
0
0
0
0
0
0
0
0
0
0
0
0
0
0
0
0
0
0
0
0
0
0
0
0
0
0
0
0
0
0
0
0
0
0
0
0
0
0
0
0
0
0
0
0
0
0
0
0
0
0
0
0
0
0
0
0
0
0
0
0
0
0
0
0
0
0
0
0
0
0
0
0
0
0
0
0
0
0
0
0
0
0
0
0
0
0
0
0
0
0
0
0
0
0
0
0
0
0
0
0
0
0
0
0
0
0
0
0
0
0
0
0
0
0
0
0
0
0
0
0
0
0
0
0
0
0
0
0
0
0
0
0
0
0
0
0
0
0
0
0
0
0
0
0
0
0
0
0
0
0
0
0
0
0
0
0
0
0
0
0
0
0
0
0
0
0
0
0
0
0
0
0
0
0
0
0
0.000123334
0.000126842
0.000132531
0.000127603
4.36794e-05
2.78659e-05
9.44404e-06
1.33472e-06
3.22301e-08
4.36782e-11
7.01714e-14
6.06542e-17
3.18955e-20
1.34673e-23
2.89057e-27
4.07753e-28
2.38234e-30
9.75562e-33
3.6751e-35
1.34027e-37
4.77607e-40
1.65562e-42
5.92409e-45
1.58793e-47
5.06543e-50
1.46594e-52
6.46856e-55
2.62373e-57
1.18444e-59
4.86614e-62
2.03821e-64
8.558e-67
3.35184e-69
1.37707e-71
5.27739e-74
2.08233e-76
7.74794e-79
3.0071e-81
1.04575e-83
3.93143e-86
1.42578e-88
4.7306e-91
1.76344e-93
5.99203e-96
3.23935e-103
2.23929e-105
7.49787e-108
2.84335e-110
1.1369e-112
4.72131e-115
2.01662e-117
9.17511e-120
4.29175e-122
2.13182e-124
1.07444e-126
5.63491e-129
2.92555e-131
1.44294e-133
6.44502e-136
2.51205e-138
8.73961e-141
2.84134e-143
8.81736e-146
2.66143e-148
7.84372e-151
2.27004e-153
6.44698e-156
1.80119e-158
4.9337e-161
1.32208e-163
3.47203e-166
8.8897e-169
2.1947e-171
7.00917e-175
1.63225e-186
1.0078e-188
8.35581e-192
4.77517e-195
2.30007e-198
1.00975e-201
4.15523e-205
1.62085e-208
6.01505e-212
2.13773e-215
7.31321e-219
2.43235e-222
7.9334e-226
2.56823e-229
8.28691e-233
2.68312e-236
8.75228e-240
2.88416e-243
9.53046e-247
3.14936e-250
1.03455e-253
3.37198e-257
1.08821e-260
3.48449e-264
1.10706e-267
3.49141e-271
1.09665e-274
3.44785e-278
1.06958e-281
1.81663e-285
9.21052e-301
5.11e-303
4.26368e-306
2.43407e-309
1.15208e-312
4.82733e-316
1.8609e-319
6.91692e-323
0
0
0
0
0
0
0
0
0
0
0
0
0
0
0
0
0
0
0
0
0
0
0
0
0
0
0
0
0
0
0
0
0
0
0
0
0
0
0
0
0
0
0
0
0
0
0
0
0
0
0
0
0
0
0
0
0
0
0
0
0
0
0
0
0
0
0
0
0
0
0
0
0
0
0
0
0
0
0
0
0
0
0
0
0
0
0
0
0
0
0
0
0
0
0
0
0
0
0
0
0
0
0
0
0
0
0
0
0
0
0
0
0
0
0
0
0
0
0
0
0
0
0
0
0
0
0
0
0
0
0
0
0
0
0
0
0
0
0
0
0
0
0
0
0
0
0
0
0
0
0
0
0
0
0
0
0
0
0
0
0
0
0
0
0
0
0
0
0
0
0
0
0
0
0
0
0
0
0
0
0
0
0
0
0
0
0
0
0
0
0
0
0
0
0
0
0
0
0
0
0
0
0
0
0
0
0
0
0
0
0
0
0
0
0
0
0
0
0
0
0
0
0
0
0
0
0
0
0
0
0
0
0
0
0
0
0
0
0
0
0
0
0
0
0
0
0
0
0
0
0
0
0
0
0
0
0
0
0
0
0
0
0.000119854
0.000126532
0.000135
0.000139715
8.30999e-05
7.03866e-05
5.74983e-05
4.06171e-05
2.66745e-06
4.60194e-08
7.74216e-11
1.04717e-13
7.02512e-17
3.37644e-20
5.69191e-24
7.88215e-25
8.42456e-27
5.54711e-29
2.60088e-31
1.11122e-33
4.42684e-36
1.66751e-38
5.84455e-41
1.85257e-43
5.27202e-46
1.49262e-48
6.02744e-51
2.54828e-53
1.08706e-55
4.83305e-58
1.91609e-60
8.24106e-63
3.34711e-65
1.37269e-67
5.57045e-70
2.18348e-72
8.23878e-75
3.35867e-77
1.15719e-79
4.58605e-82
1.59195e-84
5.60954e-87
1.99669e-89
6.51182e-92
4.18308e-99
2.24752e-101
8.65793e-104
3.41451e-106
1.32677e-108
5.3329e-111
2.15447e-113
9.06263e-116
3.94845e-118
1.80194e-120
8.52611e-123
4.16416e-125
2.06682e-127
1.00591e-129
4.64123e-132
1.94805e-134
7.32771e-137
2.52022e-139
8.1493e-142
2.53504e-144
7.6626e-147
2.26609e-149
6.56969e-152
1.87019e-154
5.21468e-157
1.42262e-159
3.80004e-162
9.88985e-165
2.5083e-167
5.45444e-170
6.96889e-181
6.54149e-184
3.689e-187
1.60204e-190
6.16435e-194
2.23326e-197
7.84346e-201
2.6872e-204
8.96371e-208
2.90163e-211
9.11744e-215
2.79078e-218
8.39906e-222
2.51092e-225
7.49275e-229
2.24463e-232
6.79125e-236
2.07875e-239
6.39808e-243
1.97104e-246
6.04752e-250
1.84133e-253
5.55172e-257
1.66093e-260
4.93166e-264
1.4507e-267
4.27986e-271
1.26018e-274
3.63322e-278
5.95535e-282
4.08512e-295
3.27566e-298
1.78507e-301
7.70923e-305
2.95168e-308
1.03967e-311
3.47248e-315
1.11456e-318
3.45846e-322
0
0
0
0
0
0
0
0
0
0
0
0
0
0
0
0
0
0
0
0
0
0
0
0
0
0
0
0
0
0
0
0
0
0
0
0
0
0
0
0
0
0
0
0
0
0
0
0
0
0
0
0
0
0
0
0
0
0
0
0
0
0
0
0
0
0
0
0
0
0
0
0
0
0
0
0
0
0
0
0
0
0
0
0
0
0
0
0
0
0
0
0
0
0
0
0
0
0
0
0
0
0
0
0
0
0
0
0
0
0
0
0
0
0
0
0
0
0
0
0
0
0
0
0
0
0
0
0
0
0
0
0
0
0
0
0
0
0
0
0
0
0
0
0
0
0
0
0
0
0
0
0
0
0
0
0
0
0
0
0
0
0
0
0
0
0
0
0
0
0
0
0
0
0
0
0
0
0
0
0
0
0
0
0
0
0
0
0
0
0
0
0
0
0
0
0
0
0
0
0
0
0
0
0
0
0
0
0
0
0
0
0
0
0
0
0
0
0
0
0
0
0
0
0
0
0
0
0
0
0
0
0
0
0
0
0
0
0
0
0
0
0
0
0
0
0
0
0
0
0
0
0
0
0
0
0
0
0
0
0
0
0.00011623
0.000123476
0.00015491
0.000166602
0.00013195
0.000121552
0.000117123
0.000121287
3.26295e-05
3.04697e-06
2.01116e-08
7.92782e-11
1.62082e-13
1.38453e-16
1.02299e-18
1.69623e-20
4.86544e-22
6.9455e-24
7.42463e-26
7.17917e-28
5.9784e-30
4.50951e-32
3.17e-34
2.06249e-36
1.27341e-38
7.5227e-41
4.25759e-43
2.3049e-45
1.19268e-47
5.9475e-50
2.82287e-52
1.30025e-54
5.79012e-57
2.47703e-59
1.06114e-61
4.39786e-64
1.80968e-66
7.3883e-69
2.94103e-71
1.16572e-73
4.49791e-76
1.70977e-78
6.32182e-81
2.29162e-83
8.14227e-86
2.88379e-88
1.05347e-90
4.09412e-93
2.06615e-95
8.9459e-98
3.73704e-100
1.52234e-102
6.11367e-105
2.44701e-107
9.87338e-110
3.94237e-112
1.65527e-114
6.97657e-117
3.07504e-119
1.41179e-121
6.49868e-124
3.07053e-126
1.41748e-128
6.24022e-131
2.52641e-133
9.32872e-136
3.19303e-138
1.03553e-140
3.23167e-143
9.80394e-146
2.90665e-148
8.44068e-151
2.3997e-153
6.6734e-156
1.8153e-158
4.82626e-161
1.25316e-163
3.22648e-166
7.59921e-169
1.21567e-172
5.79891e-176
2.58591e-179
9.25526e-183
2.98114e-186
9.06889e-190
2.70391e-193
8.09283e-197
2.439e-200
7.33527e-204
2.18194e-207
6.38612e-211
1.83597e-214
5.20543e-218
1.4662e-221
4.12489e-225
1.16562e-228
3.32576e-232
9.58955e-236
2.77942e-239
8.06381e-243
2.32953e-246
6.67195e-250
1.89396e-253
5.33406e-257
1.48486e-260
4.05924e-264
1.08993e-267
2.85351e-271
7.20454e-275
1.82263e-278
2.78466e-282
1.57824e-286
3.80099e-290
1.30887e-293
4.19017e-297
1.30408e-300
3.97515e-304
1.1842e-307
3.46369e-311
9.944e-315
2.79573e-318
7.70742e-322
0
0
0
0
0
0
0
0
0
0
0
0
0
0
0
0
0
0
0
0
0
0
0
0
0
0
0
0
0
0
0
0
0
0
0
0
0
0
0
0
0
0
0
0
0
0
0
0
0
0
0
0
0
0
0
0
0
0
0
0
0
0
0
0
0
0
0
0
0
0
0
0
0
0
0
0
0
0
0
0
0
0
0
0
0
0
0
0
0
0
0
0
0
0
0
0
0
0
0
0
0
0
0
0
0
0
0
0
0
0
0
0
0
0
0
0
0
0
0
0
0
0
0
0
0
0
0
0
0
0
0
0
0
0
0
0
0
0
0
0
0
0
0
0
0
0
0
0
0
0
0
0
0
0
0
0
0
0
0
0
0
0
0
0
0
0
0
0
0
0
0
0
0
0
0
0
0
0
0
0
0
0
0
0
0
0
0
0
0
0
0
0
0
0
0
0
0
0
0
0
0
0
0
0
0
0
0
0
0
0
0
0
0
0
0
0
0
0
0
0
0
0
0
0
0
0
0
0
0
0
0
0
0
0
0
0
0
0
0
0
0
0
0
0
0
0
0
0
0
0
0
0
0
0
0
0
0
0
0
0
0
0
0
0
0
0
0
0
0
0
0
0
0
0
0
0
0
0
0.00011678
0.000149447
0.000170907
0.000111609
0.000110129
0.000129425
0.000134117
0.00013362
3.92559e-05
4.41828e-06
4.50282e-08
2.69204e-10
1.42036e-12
6.12728e-15
3.3719e-17
2.39855e-19
1.85609e-21
1.37231e-23
1.11298e-25
1.00858e-27
8.83771e-30
7.38362e-32
5.82836e-34
4.45025e-36
3.2242e-38
2.25736e-40
1.49731e-42
9.66664e-45
5.95337e-47
3.55004e-49
2.04104e-51
1.1229e-53
5.99592e-56
3.08234e-58
1.53636e-60
7.44734e-63
3.50441e-65
1.6031e-67
7.15392e-70
3.09595e-72
1.3137e-74
5.4349e-77
2.20992e-79
8.8618e-82
3.50709e-84
1.38745e-86
5.44491e-89
2.15759e-91
8.58581e-94
3.50073e-96
1.45687e-98
6.24746e-101
2.75841e-103
1.24852e-105
5.7736e-108
2.70254e-110
1.27698e-112
6.05346e-115
2.87519e-117
1.36689e-119
6.48368e-122
3.0545e-124
1.41391e-126
6.31416e-129
2.6526e-131
1.02943e-133
3.70345e-136
1.25429e-138
4.05761e-141
1.2679e-143
3.85544e-146
1.14527e-148
3.32814e-151
9.46722e-154
2.63856e-156
7.20898e-159
1.93087e-161
5.06053e-164
1.32557e-166
3.46108e-169
1.29598e-172
3.88118e-176
1.0888e-179
2.84215e-183
7.05375e-187
1.72232e-190
4.28711e-194
1.1032e-197
2.91908e-201
7.83379e-205
2.10695e-208
5.63518e-212
1.498e-215
3.97324e-219
1.05397e-222
2.80778e-226
7.55649e-230
2.05546e-233
5.61496e-237
1.53297e-240
4.16636e-244
1.12412e-247
3.01295e-251
8.02385e-255
2.11757e-258
5.51393e-262
1.42442e-265
3.65777e-269
9.31887e-273
2.32038e-276
6.63221e-280
2.19633e-283
6.37188e-287
1.59721e-290
4.0612e-294
1.02656e-297
2.58999e-301
6.53683e-305
1.65544e-308
4.20166e-312
1.06314e-315
2.67724e-319
6.91692e-323
0
0
0
0
0
0
0
0
0
0
0
0
0
0
0
0
0
0
0
0
0
0
0
0
0
0
0
0
0
0
0
0
0
0
0
0
0
0
0
0
0
0
0
0
0
0
0
0
0
0
0
0
0
0
0
0
0
0
0
0
0
0
0
0
0
0
0
0
0
0
0
0
0
0
0
0
0
0
0
0
0
0
0
0
0
0
0
0
0
0
0
0
0
0
0
0
0
0
0
0
0
0
0
0
0
0
0
0
0
0
0
0
0
0
0
0
0
0
0
0
0
0
0
0
0
0
0
0
0
0
0
0
0
0
0
0
0
0
0
0
0
0
0
0
0
0
0
0
0
0
0
0
0
0
0
0
0
0
0
0
0
0
0
0
0
0
0
0
0
0
0
0
0
0
0
0
0
0
0
0
0
0
0
0
0
0
0
0
0
0
0
0
0
0
0
0
0
0
0
0
0
0
0
0
0
0
0
0
0
0
0
0
0
0
0
0
0
0
0
0
0
0
0
0
0
0
0
0
0
0
0
0
0
0
0
0
0
0
0
0
0
0
0
0
0
0
0
0
0
0
0
0
0
0
0
0
0
0
0
0
0
0
0
0
0
0
0
0
0
0
0
0
0
0
0
0
0
0.000173858
0.000173134
8.54136e-05
5.4418e-05
6.84178e-05
0.000104885
0.000121951
0.000118941
3.6186e-05
3.92398e-06
4.35656e-08
2.25082e-10
1.16469e-12
5.77295e-15
2.62202e-17
1.20491e-19
6.17545e-22
3.14647e-24
2.00423e-26
1.39848e-28
1.04686e-30
7.72832e-33
5.59092e-35
3.9454e-37
2.68716e-39
1.77149e-41
1.12224e-43
6.97619e-46
4.13731e-48
2.36419e-50
1.31523e-52
7.04156e-55
3.62397e-57
1.8384e-59
8.87874e-62
4.23069e-64
1.96671e-66
8.79152e-69
3.88869e-71
1.66228e-73
6.97664e-76
2.89487e-78
1.17233e-80
4.73923e-83
1.8847e-85
7.60974e-88
2.992e-90
1.16871e-92
4.58458e-95
1.84593e-97
7.62833e-100
3.25992e-102
1.43648e-104
6.53271e-107
3.04113e-109
1.44061e-111
6.90689e-114
3.3289e-116
1.61189e-118
7.8183e-121
3.80143e-123
1.84921e-125
8.91551e-128
4.18854e-130
1.87811e-132
7.87557e-135
3.06067e-137
1.10859e-139
3.7948e-142
1.2436e-144
3.94047e-147
1.21512e-149
3.65709e-152
1.07501e-154
3.08918e-157
8.68579e-160
2.38994e-162
6.41823e-165
1.73201e-167
4.40837e-170
1.45048e-173
3.58331e-177
8.41603e-181
1.96918e-184
4.8492e-188
1.28084e-191
3.55815e-195
1.00264e-198
2.80223e-202
7.72555e-206
2.10925e-209
5.73909e-213
1.56649e-216
4.3068e-220
1.18946e-223
3.2884e-227
9.10048e-231
2.51531e-234
6.91122e-238
1.88448e-241
5.0927e-245
1.36414e-248
3.63394e-252
9.64658e-256
2.54222e-259
6.60295e-263
1.6973e-266
4.32714e-270
1.09048e-273
2.66138e-277
7.6207e-281
2.53528e-284
7.12532e-288
1.69286e-291
4.10953e-295
9.96467e-299
2.42362e-302
5.9352e-306
1.46179e-309
3.60515e-313
8.87083e-317
2.17784e-320
4.94066e-324
0
0
0
0
0
0
0
0
0
0
0
0
0
0
0
0
0
0
0
0
0
0
0
0
0
0
0
0
0
0
0
0
0
0
0
0
0
0
0
0
0
0
0
0
0
0
0
0
0
0
0
0
0
0
0
0
0
0
0
0
0
0
0
0
0
0
0
0
0
0
0
0
0
0
0
0
0
0
0
0
0
0
0
0
0
0
0
0
0
0
0
0
0
0
0
0
0
0
0
0
0
0
0
0
0
0
0
0
0
0
0
0
0
0
0
0
0
0
0
0
0
0
0
0
0
0
0
0
0
0
0
0
0
0
0
0
0
0
0
0
0
0
0
0
0
0
0
0
0
0
0
0
0
0
0
0
0
0
0
0
0
0
0
0
0
0
0
0
0
0
0
0
0
0
0
0
0
0
0
0
0
0
0
0
0
0
0
0
0
0
0
0
0
0
0
0
0
0
0
0
0
0
0
0
0
0
0
0
0
0
0
0
0
0
0
0
0
0
0
0
0
0
0
0
0
0
0
0
0
0
0
0
0
0
0
0
0
0
0
0
0
0
0
0
0
0
0
0
0
0
0
0
0
0
0
0
0
0
0
0
0
0
0
0
0
0
0
0
0
0
0
0
0
0
0
0
0
0.000121733
6.71229e-05
3.35876e-05
3.28102e-05
4.02355e-05
6.87318e-05
8.73437e-05
9.12316e-05
1.55e-05
1.36248e-06
6.93749e-09
3.72964e-11
1.60199e-13
6.44267e-16
2.1474e-18
6.72693e-21
2.34317e-23
8.43638e-26
4.16937e-28
2.42528e-30
1.64808e-32
1.1325e-34
7.90396e-37
5.3095e-39
3.52875e-41
2.2965e-43
1.41736e-45
8.54531e-48
4.9622e-50
2.75976e-52
1.48994e-54
7.81266e-57
3.88846e-59
1.92354e-61
9.06602e-64
4.19273e-66
1.90932e-68
8.34251e-71
3.63958e-73
1.53103e-75
6.34495e-78
2.60495e-80
1.03599e-82
4.16668e-85
1.62847e-87
6.45365e-90
2.53593e-92
1.00237e-94
4.03149e-97
1.65917e-99
7.03996e-102
3.09675e-104
1.40045e-106
6.53043e-109
3.09828e-111
1.492e-113
7.2384e-116
3.5276e-118
1.7254e-120
8.45341e-123
4.15493e-125
2.04182e-127
9.99437e-130
4.81042e-132
2.24065e-134
9.84446e-137
3.98712e-139
1.48403e-141
5.16309e-144
1.70864e-146
5.44348e-149
1.68257e-151
5.0664e-154
1.48831e-156
4.27544e-159
1.20295e-161
3.31586e-164
8.91129e-167
2.38136e-169
1.18468e-172
4.64628e-176
1.51482e-179
4.75787e-183
1.43206e-186
4.21671e-190
1.24757e-193
3.77749e-197
1.16634e-200
3.64034e-204
1.13954e-207
3.55991e-211
1.10533e-214
3.40636e-218
1.04359e-221
3.17108e-225
9.5371e-229
2.83903e-232
8.36369e-236
2.44006e-239
7.07053e-243
2.03221e-246
5.78139e-250
1.63201e-253
4.58648e-257
1.28196e-260
3.56449e-264
9.97568e-268
2.81563e-271
7.97405e-275
2.20106e-278
6.71224e-282
2.27069e-285
6.74383e-289
1.79838e-292
4.9116e-296
1.33253e-299
3.59492e-303
9.6612e-307
2.58692e-310
6.88076e-314
1.81455e-317
4.75291e-321
0
0
0
0
0
0
0
0
0
0
0
0
0
0
0
0
0
0
0
0
0
0
0
0
0
0
0
0
0
0
0
0
0
0
0
0
0
0
0
0
0
0
0
0
0
0
0
0
0
0
0
0
0
0
0
0
0
0
0
0
0
0
0
0
0
0
0
0
0
0
0
0
0
0
0
0
0
0
0
0
0
0
0
0
0
0
0
0
0
0
0
0
0
0
0
0
0
0
0
0
0
0
0
0
0
0
0
0
0
0
0
0
0
0
0
0
0
0
0
0
0
0
0
0
0
0
0
0
0
0
0
0
0
0
0
0
0
0
0
0
0
0
0
0
0
0
0
0
0
0
0
0
0
0
0
0
0
0
0
0
0
0
0
0
0
0
0
0
0
0
0
0
0
0
0
0
0
0
0
0
0
0
0
0
0
0
0
0
0
0
0
0
0
0
0
0
0
0
0
0
0
0
0
0
0
0
0
0
0
0
0
0
0
0
0
0
0
0
0
0
0
0
0
0
0
0
0
0
0
0
0
0
0
0
0
0
0
0
0
0
0
0
0
0
0
0
0
0
0
0
0
0
0
0
0
0
0
0
0
0
0
0
0
0
0
0
0
0
0
0
0
0
0
0
0
0
0
0
5.56918e-05
2.66643e-05
2.10901e-05
2.05059e-05
1.58563e-05
7.6443e-06
6.96899e-06
6.55423e-06
1.56077e-06
4.49652e-08
9.69978e-11
2.52908e-13
7.31104e-16
2.25387e-18
7.18902e-21
2.62604e-23
1.092e-25
5.46772e-28
3.13315e-30
2.04496e-32
1.35973e-34
9.21135e-37
6.19367e-39
4.04809e-41
2.56336e-43
1.58088e-45
9.49794e-48
5.38462e-50
3.04908e-52
1.61664e-54
8.47146e-57
4.24498e-59
2.07738e-61
9.75637e-64
4.56577e-66
2.025e-68
9.08957e-71
3.87144e-73
1.65211e-75
6.83105e-78
2.77707e-80
1.11972e-82
4.42005e-85
1.74136e-87
6.83036e-90
2.67208e-92
1.06363e-94
4.24151e-97
1.75298e-99
7.37792e-102
3.23841e-104
1.45981e-106
6.78509e-109
3.21849e-111
1.54953e-113
7.51893e-116
3.67093e-118
1.79619e-120
8.83633e-123
4.35837e-125
2.15886e-127
1.06983e-129
5.26837e-132
2.55507e-134
1.19847e-136
5.33116e-139
2.19516e-141
8.31668e-144
2.91636e-146
9.63409e-149
3.04965e-151
9.34064e-154
2.78273e-156
8.09201e-159
2.30385e-161
6.42178e-164
1.75236e-166
4.62431e-169
2.63315e-172
1.43942e-175
6.53329e-179
2.71518e-182
1.08411e-185
4.03103e-189
1.42125e-192
4.86159e-196
1.64871e-199
5.57881e-203
1.88857e-206
6.41028e-210
2.16408e-213
7.21299e-217
2.3782e-220
7.78302e-224
2.52475e-227
8.07341e-231
2.53628e-234
7.8222e-238
2.37741e-241
7.18716e-245
2.1721e-248
6.5181e-252
1.9297e-255
5.7e-259
1.7024e-262
5.13018e-266
1.55472e-269
4.71283e-273
1.41864e-276
4.04762e-280
1.16387e-283
3.52322e-287
1.0149e-290
2.93855e-294
8.88145e-298
2.64593e-301
7.73785e-305
2.22164e-308
6.29506e-312
1.76049e-315
4.88414e-319
1.33398e-322
0
0
0
0
0
0
0
0
0
0
0
0
0
0
0
0
0
0
0
0
0
0
0
0
0
0
0
0
0
0
0
0
0
0
0
0
0
0
0
0
0
0
0
0
0
0
0
0
0
0
0
0
0
0
0
0
0
0
0
0
0
0
0
0
0
0
0
0
0
0
0
0
0
0
0
0
0
0
0
0
0
0
0
0
0
0
0
0
0
0
0
0
0
0
0
0
0
0
0
0
0
0
0
0
0
0
0
0
0
0
0
0
0
0
0
0
0
0
0
0
0
0
0
0
0
0
0
0
0
0
0
0
0
0
0
0
0
0
0
0
0
0
0
0
0
0
0
0
0
0
0
0
0
0
0
0
0
0
0
0
0
0
0
0
0
0
0
0
0
0
0
0
0
0
0
0
0
0
0
0
0
0
0
0
0
0
0
0
0
0
0
0
0
0
0
0
0
0
0
0
0
0
0
0
0
0
0
0
0
0
0
0
0
0
0
0
0
0
0
0
0
0
0
0
0
0
0
0
0
0
0
0
0
0
0
0
0
0
0
0
0
0
0
0
0
0
0
0
0
0
0
0
0
0
0
0
0
0
0
0
0
0
0
0
0
0
0
0
0
0
0
0
0
0
0
0
0
0
1.65748e-05
1.66188e-05
1.67565e-05
7.04677e-06
2.10403e-06
5.67328e-07
1.89241e-07
1.15702e-07
9.09331e-09
6.52453e-11
2.1107e-13
7.23533e-16
2.36595e-18
7.76632e-21
2.73575e-23
1.28225e-25
6.58959e-28
4.44483e-30
2.8148e-32
2.02464e-34
1.35761e-36
9.16247e-39
5.9097e-41
3.72642e-43
2.26283e-45
1.33392e-47
7.64992e-50
4.17618e-52
2.25941e-54
1.1511e-56
5.83103e-59
2.79581e-61
1.33194e-63
6.06074e-66
2.74501e-68
1.19862e-70
5.18039e-73
2.18901e-75
9.04333e-78
3.70249e-80
1.47493e-82
5.85784e-85
2.28725e-87
8.92696e-90
3.48328e-92
1.36897e-94
5.47921e-97
2.23592e-99
9.43105e-102
4.09955e-104
1.84329e-106
8.53103e-109
4.03012e-111
1.9376e-113
9.38083e-116
4.56523e-118
2.23052e-120
1.08976e-122
5.36254e-125
2.63864e-127
1.30708e-129
6.44876e-132
3.16823e-134
1.52935e-136
7.18583e-139
3.23817e-141
1.36929e-143
5.28093e-146
1.84981e-148
6.04257e-151
1.8861e-153
5.69083e-156
1.66997e-158
4.78383e-161
1.34076e-163
3.68006e-166
9.89514e-169
1.84725e-171
6.22267e-175
2.41823e-178
1.04918e-181
4.61603e-185
1.93708e-188
7.70163e-192
2.93613e-195
1.09061e-198
3.99429e-202
1.44926e-205
5.21334e-209
1.85609e-212
6.5217e-216
2.25784e-219
7.70346e-223
2.59329e-226
8.62302e-230
2.83409e-233
9.21487e-237
2.9664e-240
9.46536e-244
2.99779e-247
9.43338e-251
2.94962e-254
9.1681e-258
2.8371e-261
8.7532e-265
2.69338e-268
8.26615e-272
2.52906e-275
7.71135e-279
2.33544e-282
7.06301e-286
2.13144e-289
6.39495e-293
1.91438e-296
5.70885e-300
1.69364e-303
4.99211e-307
1.46053e-310
4.23958e-314
1.22031e-317
3.48316e-321
0
0
0
0
0
0
0
0
0
0
0
0
0
0
0
0
0
0
0
0
0
0
0
0
0
0
0
0
0
0
0
0
0
0
0
0
0
0
0
0
0
0
0
0
0
0
0
0
0
0
0
0
0
0
0
0
0
0
0
0
0
0
0
0
0
0
0
0
0
0
0
0
0
0
0
0
0
0
0
0
0
0
0
0
0
0
0
0
0
0
0
0
0
0
0
0
0
0
0
0
0
0
0
0
0
0
0
0
0
0
0
0
0
0
0
0
0
0
0
0
0
0
0
0
0
0
0
0
0
0
0
0
0
0
0
0
0
0
0
0
0
0
0
0
0
0
0
0
0
0
0
0
0
0
0
0
0
0
0
0
0
0
0
0
0
0
0
0
0
0
0
0
0
0
0
0
0
0
0
0
0
0
0
0
0
0
0
0
0
0
0
0
0
0
0
0
0
0
0
0
0
0
0
0
0
0
0
0
0
0
0
0
0
0
0
0
0
0
0
0
0
0
0
0
0
0
0
0
0
0
0
0
0
0
0
0
0
0
0
0
0
0
0
0
0
0
0
0
0
0
0
0
0
0
0
0
0
0
0
0
0
0
0
0
0
0
0
0
0
0
0
0
0
0
0
0
0
0
0
3.66833e-06
2.57438e-06
1.51133e-06
5.50944e-07
9.56319e-08
4.10858e-09
1.05633e-09
3.24633e-10
2.12211e-11
1.45444e-13
6.44812e-16
2.51057e-18
9.05038e-21
3.31446e-23
1.4384e-25
8.43835e-28
5.43709e-30
4.17967e-32
2.93188e-34
2.11599e-36
1.4471e-38
9.59183e-41
6.05142e-43
3.71226e-45
2.1831e-47
1.25047e-49
6.85571e-52
3.66498e-54
1.8829e-56
9.3928e-59
4.54758e-61
2.1416e-63
9.80551e-66
4.41328e-68
1.92078e-70
8.32026e-73
3.47547e-75
1.44891e-77
5.86343e-80
2.35235e-82
9.2874e-85
3.62584e-87
1.40927e-89
5.46182e-92
2.13476e-94
8.465e-97
3.4318e-99
1.4353e-101
6.194e-104
2.7696e-106
1.27196e-108
5.99975e-111
2.86445e-113
1.38767e-115
6.72412e-118
3.27324e-120
1.59382e-122
7.7737e-125
3.81051e-127
1.87038e-129
9.23125e-132
4.54565e-134
2.23077e-136
1.07923e-138
5.09914e-141
2.32043e-143
9.89106e-146
3.78664e-148
1.30641e-150
4.20733e-153
1.29496e-155
3.85211e-158
1.11433e-160
3.14629e-163
8.69112e-166
2.35184e-168
5.55667e-171
2.38732e-174
9.08144e-178
3.6592e-181
1.59298e-184
7.03062e-188
3.00627e-191
1.23325e-194
4.88941e-198
1.89415e-201
7.22724e-205
2.72439e-208
1.01426e-211
3.72323e-215
1.34583e-218
4.78854e-222
1.67818e-225
5.80023e-229
1.97975e-232
6.68098e-236
2.23133e-239
7.38149e-243
2.4205e-246
7.8733e-250
2.54224e-253
8.15362e-257
2.59908e-260
8.23922e-264
2.59888e-267
8.15925e-271
2.55001e-274
7.93373e-278
2.45722e-281
7.57413e-285
2.32361e-288
7.09382e-292
2.15435e-295
6.50681e-299
1.9537e-302
5.82893e-306
1.72715e-309
5.08006e-313
1.48265e-316
4.29244e-320
9.88131e-324
0
0
0
0
0
0
0
0
0
0
0
0
0
0
0
0
0
0
0
0
0
0
0
0