/*--------------------------------*- C++ -*----------------------------------*\
| =========                 |                                                 |
| \\      /  F ield         | OpenFOAM: The Open Source CFD Toolbox           |
|  \\    /   O peration     | Version:  2.1.1                                 |
|   \\  /    A nd           | Web:      www.OpenFOAM.org                      |
|    \\/     M anipulation  |                                                 |
\*---------------------------------------------------------------------------*/
FoamFile
{
    version     2.0;
    format      ascii;
    class       volScalarField;
    location    "0.000600000";
    object      H2O2;
}
// * * * * * * * * * * * * * * * * * * * * * * * * * * * * * * * * * * * * * //

dimensions      [0 0 0 0 0 0 0];

internalField   nonuniform List<scalar> 
12384
(
2.49673e-10
1.34037e-10
2.1318e-11
4.93507e-13
9.46256e-15
1.8929e-16
3.22545e-18
5.14279e-20
8.08467e-22
1.08821e-23
1.18686e-25
1.16164e-27
1.01453e-29
8.0553e-32
1.68245e-46
1.19502e-47
8.19398e-50
4.55825e-52
2.50352e-54
1.15116e-56
5.32134e-59
2.23966e-61
8.9408e-64
3.5087e-66
1.36936e-68
5.11219e-71
2.0805e-73
7.80696e-76
3.19795e-78
1.24976e-80
5.02038e-83
2.02586e-85
8.60923e-88
3.81664e-90
1.83251e-92
9.35339e-95
5.10537e-97
2.88614e-99
1.64604e-101
9.42734e-104
5.22903e-106
2.84036e-108
1.48686e-110
7.52677e-113
2.51433e-122
2.38239e-123
3.14308e-125
2.86516e-127
2.08377e-129
1.29701e-131
7.18836e-134
3.6505e-136
1.71138e-138
7.44213e-141
3.01065e-143
1.14132e-145
4.11276e-148
1.43123e-150
4.79795e-153
1.52186e-155
4.55109e-158
1.2933e-160
3.52431e-163
9.29155e-166
2.3797e-168
5.93888e-171
8.55109e-174
9.32695e-178
5.31476e-181
7.97274e-184
1.38049e-186
2.1037e-189
2.58144e-192
2.81202e-196
2.79422e-213
4.24882e-211
9.60613e-214
1.17368e-216
1.0619e-219
7.97181e-223
5.46242e-226
3.47121e-229
2.10888e-232
1.24371e-235
7.06516e-239
3.98296e-242
2.27236e-245
1.40433e-248
8.97127e-252
5.21091e-255
2.52968e-258
1.11542e-261
4.55533e-265
1.79501e-268
6.74744e-272
2.45697e-275
8.60994e-279
2.96168e-282
9.89811e-286
3.29912e-289
1.09671e-292
3.61712e-296
1.15742e-299
9.23493e-304
0
0
0
0
0
0
0
0
0
0
0
0
0
0
0
0
0
0
0
0
0
0
0
0
0
0
0
0
0
0
0
0
0
0
0
0
0
0
0
0
0
0
0
0
0
0
0
0
0
0
0
0
0
0
0
0
0
0
0
0
0
0
0
0
0
0
0
0
0
0
0
0
0
0
0
0
0
0
0
0
0
0
0
0
0
0
0
0
0
0
0
0
0
0
0
0
0
0
0
0
0
0
0
0
0
0
0
0
0
0
0
0
0
0
0
0
0
0
0
0
0
0
0
0
0
0
0
0
0
0
0
0
0
0
0
0
0
0
0
0
0
0
0
0
0
0
0
0
0
0
0
0
0
0
0
0
0
0
0
0
0
0
0
0
0
0
0
0
0
0
0
0
0
0
0
0
0
0
0
0
0
0
0
0
0
0
0
0
0
0
0
0
0
0
0
0
0
0
0
0
0
0
0
0
0
0
0
0
0
0
0
0
0
0
0
0
0
0
0
0
0
0
0
0
0
0
0
0
0
0
0
0
0
0
0
0
0
0
0
0
0
0
0
0
0
0
0
0
0
0
0
0
0
0
0
0
0
0
0
0
0
0
0
0
0
0
0
0
0
0
6.58868e-09
4.80834e-09
5.64477e-10
1.64151e-11
1.71847e-13
2.91664e-15
3.50836e-17
4.74214e-19
6.97498e-21
8.87761e-23
9.74384e-25
9.16766e-27
8.05216e-29
6.54727e-31
5.0684e-44
3.79475e-45
2.19158e-47
1.23095e-49
6.37546e-52
2.92649e-54
1.2067e-56
4.5889e-59
1.67202e-61
6.07268e-64
2.31565e-66
9.18732e-69
3.69952e-71
1.43359e-73
5.84928e-76
2.2308e-78
8.71809e-81
3.38375e-83
1.24726e-85
4.93182e-88
1.91138e-90
8.08517e-93
3.80875e-95
1.89666e-97
1.0585e-99
6.06235e-102
3.36875e-104
1.94138e-106
1.02914e-108
5.20113e-111
7.16224e-120
3.91596e-121
4.81836e-123
4.40375e-125
3.31878e-127
2.1822e-129
1.3073e-131
7.29401e-134
3.81515e-136
1.86396e-138
8.42016e-141
3.4742e-143
1.32198e-145
4.78561e-148
1.65793e-150
5.34138e-153
1.60047e-155
4.5238e-158
1.2336e-160
3.26122e-163
8.42703e-166
2.12064e-168
5.23419e-171
6.75788e-174
3.25235e-177
4.6934e-180
8.4595e-183
1.34835e-185
1.72759e-188
3.00883e-192
6.9459e-209
3.83405e-207
8.52032e-210
1.04153e-212
9.35022e-216
6.943e-219
4.62852e-222
2.82529e-225
1.63489e-228
9.06572e-232
4.89898e-235
2.60295e-238
1.40913e-241
8.02937e-245
4.84928e-248
2.76565e-251
1.39505e-254
6.29303e-258
2.6561e-261
1.0681e-264
4.15927e-268
1.5586e-271
5.66838e-275
1.99738e-278
6.86014e-282
2.31666e-285
7.79878e-289
2.60355e-292
8.56302e-296
1.11532e-299
4.44659e-323
2.01085e-321
4.94066e-324
0
0
0
0
0
0
0
0
0
0
0
0
0
0
0
0
0
0
0
0
0
0
0
0
0
0
0
0
0
0
0
0
0
0
0
0
0
0
0
0
0
0
0
0
0
0
0
0
0
0
0
0
0
0
0
0
0
0
0
0
0
0
0
0
0
0
0
0
0
0
0
0
0
0
0
0
0
0
0
0
0
0
0
0
0
0
0
0
0
0
0
0
0
0
0
0
0
0
0
0
0
0
0
0
0
0
0
0
0
0
0
0
0
0
0
0
0
0
0
0
0
0
0
0
0
0
0
0
0
0
0
0
0
0
0
0
0
0
0
0
0
0
0
0
0
0
0
0
0
0
0
0
0
0
0
0
0
0
0
0
0
0
0
0
0
0
0
0
0
0
0
0
0
0
0
0
0
0
0
0
0
0
0
0
0
0
0
0
0
0
0
0
0
0
0
0
0
0
0
0
0
0
0
0
0
0
0
0
0
0
0
0
0
0
0
0
0
0
0
0
0
0
0
0
0
0
0
0
0
0
0
0
0
0
0
0
0
0
0
0
0
0
0
0
0
0
0
0
0
0
0
0
0
0
0
0
0
0
0
0
0
0
0
0
0
0
0
2.94915e-10
3.23868e-10
5.53293e-11
1.09462e-11
5.00954e-14
5.82053e-15
2.2857e-17
4.3984e-20
3.95944e-23
5.63134e-26
1.15766e-28
1.43429e-30
1.94946e-32
1.8843e-34
2.58306e-44
2.15178e-45
1.18834e-47
6.34315e-50
3.39123e-52
1.30898e-54
5.63828e-57
1.783e-59
6.30039e-62
2.21041e-64
8.7781e-67
3.56547e-69
1.5917e-71
6.26536e-74
2.72007e-76
1.11668e-78
4.38078e-81
1.75493e-83
6.50708e-86
2.48939e-88
8.96275e-91
3.40747e-93
1.17799e-95
4.33474e-98
1.52023e-100
5.69233e-103
2.23558e-105
8.43748e-108
3.91736e-110
9.50622e-113
4.16381e-120
1.38199e-121
1.20655e-123
9.29863e-126
6.42863e-128
4.4015e-130
2.91677e-132
1.97468e-134
1.26419e-136
7.80926e-139
4.39406e-141
2.17321e-143
8.85159e-146
3.18073e-148
1.06906e-150
3.25854e-153
9.25766e-156
2.52448e-158
6.87804e-161
1.84698e-163
4.92641e-166
1.27745e-168
3.2835e-171
8.25591e-174
1.93459e-176
3.75737e-179
7.25099e-182
1.19692e-184
1.54303e-187
1.75929e-191
3.35286e-207
5.63399e-206
1.12906e-208
1.28073e-211
1.07406e-214
7.48613e-218
4.63799e-221
2.60417e-224
1.36684e-227
6.77917e-231
3.25078e-234
1.52308e-237
7.27165e-241
3.60634e-244
1.88465e-247
9.44387e-251
4.26067e-254
1.75941e-257
7.08316e-261
2.84038e-264
1.14436e-267
4.53231e-271
1.7659e-274
6.65558e-278
2.42418e-281
8.60463e-285
3.03041e-288
1.05059e-291
3.58866e-295
3.16469e-299
2.09978e-321
3.07704e-320
5.92879e-323
0
0
0
0
0
0
0
0
0
0
0
0
0
0
0
0
0
0
0
0
0
0
0
0
0
0
0
0
0
0
0
0
0
0
0
0
0
0
0
0
0
0
0
0
0
0
0
0
0
0
0
0
0
0
0
0
0
0
0
0
0
0
0
0
0
0
0
0
0
0
0
0
0
0
0
0
0
0
0
0
0
0
0
0
0
0
0
0
0
0
0
0
0
0
0
0
0
0
0
0
0
0
0
0
0
0
0
0
0
0
0
0
0
0
0
0
0
0
0
0
0
0
0
0
0
0
0
0
0
0
0
0
0
0
0
0
0
0
0
0
0
0
0
0
0
0
0
0
0
0
0
0
0
0
0
0
0
0
0
0
0
0
0
0
0
0
0
0
0
0
0
0
0
0
0
0
0
0
0
0
0
0
0
0
0
0
0
0
0
0
0
0
0
0
0
0
0
0
0
0
0
0
0
0
0
0
0
0
0
0
0
0
0
0
0
0
0
0
0
0
0
0
0
0
0
0
0
0
0
0
0
0
0
0
0
0
0
0
0
0
0
0
0
0
0
0
0
0
0
0
0
0
0
0
0
0
0
0
0
0
0
0
0
0
0
0
0
3.1887e-07
2.51946e-07
1.74862e-08
8.58051e-10
1.21679e-10
3.99296e-11
2.04493e-13
4.19015e-16
2.11345e-19
1.33913e-22
1.28945e-25
1.295e-28
1.64905e-31
3.40905e-34
3.76722e-40
3.1666e-41
1.60779e-43
9.41061e-46
4.29693e-48
1.84372e-50
6.56041e-53
2.23948e-55
6.8463e-58
2.21852e-60
7.68794e-63
3.20713e-65
1.27535e-67
5.36989e-70
2.19935e-72
8.64596e-75
3.20393e-77
1.36897e-79
4.60624e-82
1.97912e-84
6.47599e-87
2.43322e-89
8.84495e-92
3.12287e-94
1.14557e-96
4.1867e-99
1.5123e-101
6.2931e-104
2.22611e-106
8.32294e-109
3.6935e-116
4.05547e-118
2.03981e-120
1.23178e-122
7.58182e-125
4.71398e-127
3.01694e-129
1.93688e-131
1.257e-133
7.95829e-136
4.89997e-138
2.77889e-140
1.30699e-142
4.87632e-145
1.63634e-147
5.18605e-150
1.57839e-152
4.65428e-155
1.33331e-157
3.74344e-160
1.03075e-162
2.80214e-165
7.5001e-168
1.98417e-170
5.14867e-173
1.29011e-175
2.60102e-178
4.5014e-181
6.12926e-184
1.37896e-187
1.64196e-202
3.53964e-202
6.26935e-205
6.44117e-208
5.02049e-211
3.27312e-214
1.87263e-217
9.72312e-221
4.68374e-224
2.13794e-227
9.37396e-231
4.00867e-234
1.68675e-237
7.06182e-241
2.95744e-244
1.24632e-247
5.28538e-251
2.25536e-254
9.62623e-258
4.09698e-261
1.7258e-264
7.18371e-268
2.93889e-271
1.18238e-274
4.66407e-278
1.80668e-281
6.86843e-285
2.56479e-288
9.27581e-292
1.6291e-295
1.01352e-316
1.95141e-316
3.36953e-319
3.26083e-322
0
0
0
0
0
0
0
0
0
0
0
0
0
0
0
0
0
0
0
0
0
0
0
0
0
0
0
0
0
0
0
0
0
0
0
0
0
0
0
0
0
0
0
0
0
0
0
0
0
0
0
0
0
0
0
0
0
0
0
0
0
0
0
0
0
0
0
0
0
0
0
0
0
0
0
0
0
0
0
0
0
0
0
0
0
0
0
0
0
0
0
0
0
0
0
0
0
0
0
0
0
0
0
0
0
0
0
0
0
0
0
0
0
0
0
0
0
0
0
0
0
0
0
0
0
0
0
0
0
0
0
0
0
0
0
0
0
0
0
0
0
0
0
0
0
0
0
0
0
0
0
0
0
0
0
0
0
0
0
0
0
0
0
0
0
0
0
0
0
0
0
0
0
0
0
0
0
0
0
0
0
0
0
0
0
0
0
0
0
0
0
0
0
0
0
0
0
0
0
0
0
0
0
0
0
0
0
0
0
0
0
0
0
0
0
0
0
0
0
0
0
0
0
0
0
0
0
0
0
0
0
0
0
0
0
0
0
0
0
0
0
0
0
0
0
0
0
0
0
0
0
0
0
0
0
0
0
0
0
0
0
0
0
0
0
0
2.51252e-07
2.45832e-07
3.14482e-07
1.21374e-07
7.64794e-09
3.93029e-09
8.30435e-10
6.93901e-12
3.40775e-15
2.14039e-18
1.67443e-21
1.48158e-24
1.24274e-27
1.9625e-30
6.6222e-36
6.14197e-37
3.54061e-39
1.83854e-41
9.04171e-44
3.75808e-46
1.49646e-48
5.00918e-51
1.68954e-53
4.78773e-56
1.70746e-58
6.52005e-61
2.87492e-63
1.15371e-65
5.13817e-68
1.99979e-70
8.37286e-73
3.33857e-75
1.25775e-77
5.10069e-80
1.79158e-82
7.0381e-85
2.54712e-87
9.03875e-90
3.37085e-92
1.1928e-94
4.37323e-97
1.58133e-99
5.89642e-102
2.18677e-104
9.68229e-112
8.29892e-114
2.82948e-116
1.29221e-118
6.38517e-121
3.38468e-123
1.86603e-125
1.08643e-127
6.41609e-130
3.87388e-132
2.32623e-134
1.37602e-136
7.3774e-139
3.20099e-141
1.16286e-143
3.85457e-146
1.21169e-148
3.65969e-151
1.07378e-153
3.07779e-156
8.67727e-159
2.4051e-161
6.5756e-164
1.76907e-166
4.67931e-169
1.20751e-171
3.0407e-174
5.29137e-177
7.32984e-180
1.76512e-183
2.70904e-197
8.06884e-198
1.15734e-200
1.00949e-203
6.88544e-207
4.01506e-210
2.08809e-213
9.90679e-217
4.3818e-220
1.83128e-223
7.35922e-227
2.87088e-230
1.10326e-233
4.20525e-237
1.60592e-240
6.16374e-244
2.38917e-247
9.32816e-251
3.66735e-254
1.44017e-257
5.6373e-261
2.18101e-264
8.34555e-268
3.14338e-271
1.16856e-274
4.27942e-278
1.54684e-281
5.52393e-285
1.91929e-288
3.49531e-292
1.6127e-311
4.38449e-312
6.26559e-315
5.27903e-318
3.40411e-321
0
0
0
0
0
0
0
0
0
0
0
0
0
0
0
0
0
0
0
0
0
0
0
0
0
0
0
0
0
0
0
0
0
0
0
0
0
0
0
0
0
0
0
0
0
0
0
0
0
0
0
0
0
0
0
0
0
0
0
0
0
0
0
0
0
0
0
0
0
0
0
0
0
0
0
0
0
0
0
0
0
0
0
0
0
0
0
0
0
0
0
0
0
0
0
0
0
0
0
0
0
0
0
0
0
0
0
0
0
0
0
0
0
0
0
0
0
0
0
0
0
0
0
0
0
0
0
0
0
0
0
0
0
0
0
0
0
0
0
0
0
0
0
0
0
0
0
0
0
0
0
0
0
0
0
0
0
0
0
0
0
0
0
0
0
0
0
0
0
0
0
0
0
0
0
0
0
0
0
0
0
0
0
0
0
0
0
0
0
0
0
0
0
0
0
0
0
0
0
0
0
0
0
0
0
0
0
0
0
0
0
0
0
0
0
0
0
0
0
0
0
0
0
0
0
0
0
0
0
0
0
0
0
0
0
0
0
0
0
0
0
0
0
0
0
0
0
0
0
0
0
0
0
0
0
0
0
0
0
0
0
0
0
0
0
2.29887e-07
2.28984e-07
2.57127e-07
3.12624e-07
1.99425e-07
1.26963e-07
2.87335e-08
2.60089e-09
5.52191e-12
8.08872e-15
8.74609e-18
7.81384e-21
6.79768e-24
7.45883e-27
4.21128e-32
4.49021e-33
2.73495e-35
1.53104e-37
7.20368e-40
3.19477e-42
1.21576e-44
4.5026e-47
1.49377e-49
4.68041e-52
1.44657e-54
5.2582e-57
2.21923e-59
9.32008e-62
4.06622e-64
1.6752e-66
6.91463e-69
2.83265e-71
1.08795e-73
4.43201e-76
1.64993e-78
6.45016e-81
2.3361e-83
8.70709e-86
3.13071e-88
1.1373e-90
4.16549e-93
1.46086e-95
5.36259e-98
1.86552e-100
8.6693e-108
7.11471e-110
2.24366e-112
8.95945e-115
3.81528e-117
1.72862e-119
8.24717e-122
4.15213e-124
2.1893e-126
1.18307e-128
6.63107e-131
3.73797e-133
2.04666e-135
9.89441e-138
4.06479e-140
1.44228e-142
4.7257e-145
1.47433e-147
4.43594e-150
1.3041e-152
3.75578e-155
1.06443e-157
2.9637e-160
8.129e-163
2.18655e-165
5.74892e-168
1.48265e-170
3.71241e-173
5.21775e-176
1.29275e-179
2.58792e-192
1.15061e-193
1.29043e-196
9.25857e-200
5.38845e-203
2.76376e-206
1.29031e-209
5.58477e-213
2.2663e-216
8.7365e-220
3.23214e-223
1.16199e-226
4.10134e-230
1.43709e-233
5.02949e-237
1.76912e-240
6.2656e-244
2.23662e-247
8.01173e-251
2.87064e-254
1.0217e-257
3.5994e-261
1.25024e-264
4.28736e-268
1.45162e-271
4.86869e-275
1.62022e-278
5.36227e-282
1.74193e-285
2.88164e-289
1.48161e-306
6.04514e-308
6.85639e-311
4.85262e-314
2.71954e-317
1.31076e-320
4.94066e-324
0
0
0
0
0
0
0
0
0
0
0
0
0
0
0
0
0
0
0
0
0
0
0
0
0
0
0
0
0
0
0
0
0
0
0
0
0
0
0
0
0
0
0
0
0
0
0
0
0
0
0
0
0
0
0
0
0
0
0
0
0
0
0
0
0
0
0
0
0
0
0
0
0
0
0
0
0
0
0
0
0
0
0
0
0
0
0
0
0
0
0
0
0
0
0
0
0
0
0
0
0
0
0
0
0
0
0
0
0
0
0
0
0
0
0
0
0
0
0
0
0
0
0
0
0
0
0
0
0
0
0
0
0
0
0
0
0
0
0
0
0
0
0
0
0
0
0
0
0
0
0
0
0
0
0
0
0
0
0
0
0
0
0
0
0
0
0
0
0
0
0
0
0
0
0
0
0
0
0
0
0
0
0
0
0
0
0
0
0
0
0
0
0
0
0
0
0
0
0
0
0
0
0
0
0
0
0
0
0
0
0
0
0
0
0
0
0
0
0
0
0
0
0
0
0
0
0
0
0
0
0
0
0
0
0
0
0
0
0
0
0
0
0
0
0
0
0
0
0
0
0
0
0
0
0
0
0
0
0
0
0
0
0
2.30145e-07
2.39856e-07
2.57792e-07
2.77775e-07
2.40443e-07
2.62404e-07
2.53764e-07
4.41166e-08
2.25736e-09
7.29069e-12
1.63254e-14
2.4148e-17
2.51538e-20
2.23268e-23
7.0998e-29
7.03731e-30
6.12577e-32
4.03371e-34
2.21024e-36
1.06844e-38
4.88924e-41
1.90285e-43
7.28801e-46
2.3448e-48
7.59365e-51
2.52913e-53
1.10385e-55
4.80399e-58
2.13884e-60
9.19734e-63
3.88217e-65
1.63156e-67
6.59601e-70
2.68031e-72
1.05103e-74
4.12797e-77
1.5557e-79
5.96356e-82
2.14718e-84
7.9554e-87
2.89041e-89
1.00175e-91
3.64574e-94
1.27106e-96
6.36124e-104
4.56308e-106
1.53151e-108
5.89303e-111
2.36791e-113
9.90751e-116
4.25591e-118
1.93652e-120
9.11406e-123
4.51561e-125
2.28563e-127
1.19669e-129
6.22196e-132
3.06703e-134
1.37029e-136
5.33905e-139
1.85822e-141
6.03988e-144
1.87489e-146
5.65701e-149
1.66755e-151
4.82541e-154
1.37076e-156
3.82873e-159
1.04886e-161
2.8094e-164
7.37677e-167
1.88863e-169
4.66186e-172
1.4647e-175
3.41143e-187
2.14115e-189
1.77527e-192
1.01452e-195
4.88865e-199
2.14602e-202
8.83435e-206
3.44536e-209
1.27894e-212
4.5436e-216
1.55498e-219
5.1707e-223
1.68713e-226
5.45989e-230
1.76225e-233
5.70406e-237
1.8613e-240
6.13135e-244
2.02669e-247
6.69428e-251
2.19948e-254
7.16786e-258
2.31379e-261
7.40673e-265
2.35354e-268
7.41955e-272
2.32992e-275
7.3253e-279
2.27173e-282
3.79626e-286
1.92497e-301
1.08568e-303
9.06009e-307
5.17153e-310
2.44858e-313
1.026e-316
3.95648e-320
1.4822e-323
0
0
0
0
0
0
0
0
0
0
0
0
0
0
0
0
0
0
0
0
0
0
0
0
0
0
0
0
0
0
0
0
0
0
0
0
0
0
0
0
0
0
0
0
0
0
0
0
0
0
0
0
0
0
0
0
0
0
0
0
0
0
0
0
0
0
0
0
0
0
0
0
0
0
0
0
0
0
0
0
0
0
0
0
0
0
0
0
0
0
0
0
0
0
0
0
0
0
0
0
0
0
0
0
0
0
0
0
0
0
0
0
0
0
0
0
0
0
0
0
0
0
0
0
0
0
0
0
0
0
0
0
0
0
0
0
0
0
0
0
0
0
0
0
0
0
0
0
0
0
0
0
0
0
0
0
0
0
0
0
0
0
0
0
0
0
0
0
0
0
0
0
0
0
0
0
0
0
0
0
0
0
0
0
0
0
0
0
0
0
0
0
0
0
0
0
0
0
0
0
0
0
0
0
0
0
0
0
0
0
0
0
0
0
0
0
0
0
0
0
0
0
0
0
0
0
0
0
0
0
0
0
0
0
0
0
0
0
0
0
0
0
0
0
0
0
0
0
0
0
0
0
0
0
0
0
0
0
0
0
0
0
2.33e-07
2.50329e-07
2.58066e-07
2.25542e-07
1.51212e-07
1.80134e-07
2.09223e-07
2.39412e-07
2.24853e-08
7.18636e-10
2.26248e-12
4.90787e-15
7.26773e-18
7.72988e-21
7.29496e-27
4.24729e-28
6.90073e-30
8.81941e-32
8.4178e-34
5.66257e-36
3.17119e-38
1.49963e-40
6.28885e-43
2.31572e-45
7.16376e-48
2.27699e-50
9.58599e-53
4.44522e-55
2.00963e-57
9.06543e-60
3.84923e-62
1.66978e-64
6.85657e-67
2.83113e-69
1.14487e-71
4.56916e-74
1.76603e-76
6.91855e-79
2.55661e-81
9.62881e-84
3.48396e-86
1.23956e-88
4.41759e-91
1.5234e-93
8.47275e-101
4.66903e-103
1.86004e-105
7.41952e-108
2.93042e-110
1.18608e-112
4.83293e-115
2.03737e-117
8.91249e-120
4.0729e-122
1.92639e-124
9.42761e-127
4.67101e-129
2.27493e-131
1.04893e-133
4.40195e-136
1.65604e-138
5.69548e-141
1.84205e-143
5.72956e-146
1.73223e-148
5.12301e-151
1.48552e-153
4.22847e-156
1.17948e-158
3.21825e-161
8.59971e-164
2.24081e-166
5.68784e-169
1.22708e-171
1.56747e-182
1.48346e-185
8.35709e-189
3.62584e-192
1.39458e-195
5.05064e-199
1.77353e-202
6.0755e-206
2.02656e-209
6.55892e-213
2.06082e-216
6.30782e-220
1.89847e-223
5.67502e-227
1.69357e-230
5.0731e-234
1.53507e-237
4.69856e-241
1.44627e-244
4.45511e-248
1.36715e-251
4.16287e-255
1.25535e-258
3.75538e-262
1.11545e-265
3.28176e-269
9.68554e-273
2.8555e-276
8.23787e-280
1.33976e-283
9.18851e-297
7.42787e-300
4.04398e-303
1.74485e-306
6.67643e-310
2.35113e-313
7.85138e-317
2.51973e-320
9.88131e-324
0
0
0
0
0
0
0
0
0
0
0
0
0
0
0
0
0
0
0
0
0
0
0
0
0
0
0
0
0
0
0
0
0
0
0
0
0
0
0
0
0
0
0
0
0
0
0
0
0
0
0
0
0
0
0
0
0
0
0
0
0
0
0
0
0
0
0
0
0
0
0
0
0
0
0
0
0
0
0
0
0
0
0
0
0
0
0
0
0
0
0
0
0
0
0
0
0
0
0
0
0
0
0
0
0
0
0
0
0
0
0
0
0
0
0
0
0
0
0
0
0
0
0
0
0
0
0
0
0
0
0
0
0
0
0
0
0
0
0
0
0
0
0
0
0
0
0
0
0
0
0
0
0
0
0
0
0
0
0
0
0
0
0
0
0
0
0
0
0
0
0
0
0
0
0
0
0
0
0
0
0
0
0
0
0
0
0
0
0
0
0
0
0
0
0
0
0
0
0
0
0
0
0
0
0
0
0
0
0
0
0
0
0
0
0
0
0
0
0
0
0
0
0
0
0
0
0
0
0
0
0
0
0
0
0
0
0
0
0
0
0
0
0
0
0
0
0
0
0
0
0
0
0
0
0
0
0
0
0
0
0
2.41815e-07
2.52184e-07
1.94117e-07
5.92775e-08
3.17763e-08
6.19386e-08
7.41872e-08
6.42233e-08
1.37961e-08
1.85254e-09
2.38856e-11
1.44924e-13
7.02642e-16
2.11864e-18
7.0065e-21
3.07003e-23
1.52894e-25
6.66716e-28
6.03527e-30
6.98341e-32
9.1199e-34
8.52694e-36
6.60326e-38
5.84911e-40
4.00825e-42
2.66921e-44
1.57745e-46
9.3794e-49
4.90054e-51
2.57383e-53
1.25721e-55
5.84314e-58
2.67574e-60
1.15897e-62
4.94017e-65
2.0993e-67
8.58693e-70
3.52281e-72
1.4291e-74
5.5842e-77
2.20197e-79
8.31308e-82
3.11771e-84
1.14668e-86
4.11268e-89
1.48001e-91
5.02961e-94
1.98454e-96
9.37696e-99
4.32247e-101
1.81582e-103
7.51786e-106
3.03533e-108
1.22121e-110
4.95357e-113
1.98015e-115
8.34597e-118
3.51426e-120
1.55318e-122
7.12344e-125
3.28394e-127
1.55096e-129
7.16296e-132
3.15254e-134
1.27631e-136
4.71207e-139
1.61295e-141
5.23037e-144
1.63258e-146
4.95164e-149
1.46827e-151
4.26322e-154
1.21246e-156
3.37212e-159
9.17599e-162
2.43974e-164
6.32806e-167
1.58029e-169
3.61927e-172
5.78987e-176
2.83993e-179
1.30574e-182
4.67818e-186
1.50688e-189
4.58331e-193
1.36595e-196
4.08822e-200
1.23185e-203
3.70551e-207
1.10209e-210
3.22603e-214
9.2729e-218
2.62955e-221
7.40578e-225
2.08381e-228
5.88786e-232
1.68004e-235
4.84358e-239
1.40404e-242
4.07285e-246
1.17686e-249
3.36974e-253
9.56736e-257
2.69414e-260
7.50246e-264
2.05113e-267
5.50946e-271
1.44255e-274
3.63808e-278
8.92699e-282
1.32624e-285
7.5167e-290
1.8614e-293
6.60911e-297
2.1178e-300
6.5917e-304
2.00878e-307
5.9821e-311
1.74967e-314
5.02235e-318
1.41303e-321
0
0
0
0
0
0
0
0
0
0
0
0
0
0
0
0
0
0
0
0
0
0
0
0
0
0
0
0
0
0
0
0
0
0
0
0
0
0
0
0
0
0
0
0
0
0
0
0
0
0
0
0
0
0
0
0
0
0
0
0
0
0
0
0
0
0
0
0
0
0
0
0
0
0
0
0
0
0
0
0
0
0
0
0
0
0
0
0
0
0
0
0
0
0
0
0
0
0
0
0
0
0
0
0
0
0
0
0
0
0
0
0
0
0
0
0
0
0
0
0
0
0
0
0
0
0
0
0
0
0
0
0
0
0
0
0
0
0
0
0
0
0
0
0
0
0
0
0
0
0
0
0
0
0
0
0
0
0
0
0
0
0
0
0
0
0
0
0
0
0
0
0
0
0
0
0
0
0
0
0
0
0
0
0
0
0
0
0
0
0
0
0
0
0
0
0
0
0
0
0
0
0
0
0
0
0
0
0
0
0
0
0
0
0
0
0
0
0
0
0
0
0
0
0
0
0
0
0
0
0
0
0
0
0
0
0
0
0
0
0
0
0
0
0
0
0
0
0
0
0
0
0
0
0
0
0
0
0
0
0
0
0
0
0
0
0
0
0
0
0
0
0
0
0
0
0
0
0
0
2.36934e-07
1.95023e-07
3.45786e-08
5.13843e-09
4.92421e-09
1.45897e-08
2.6135e-08
2.29981e-08
5.49372e-09
5.56983e-10
5.45e-12
3.64201e-14
2.46394e-16
2.13782e-18
9.33857e-21
3.65283e-23
1.01507e-25
4.03136e-28
2.87723e-30
2.87254e-32
3.14603e-34
3.06184e-36
2.62305e-38
2.15621e-40
1.64071e-42
1.19249e-44
8.98261e-47
6.25114e-49
3.97805e-51
2.43466e-53
1.48735e-55
8.0774e-58
4.48472e-60
2.32651e-62
1.15509e-64
5.6999e-67
2.69165e-69
1.22308e-71
5.59102e-74
2.38411e-76
1.02605e-78
4.23933e-81
1.74659e-83
6.98968e-86
2.80075e-88
1.11812e-90
4.3082e-93
1.68371e-95
6.5749e-98
2.72445e-100
1.14003e-102
4.90987e-105
2.1862e-107
9.89892e-110
4.60632e-112
2.15608e-114
1.02262e-116
4.83929e-119
2.30477e-121
1.09313e-123
5.19232e-126
2.44362e-128
1.13136e-130
5.05099e-133
2.12174e-135
8.23317e-138
2.96208e-140
1.00316e-142
3.24529e-145
1.01406e-147
3.08363e-150
9.16043e-153
2.66251e-155
7.57566e-158
2.1116e-160
5.76939e-163
1.54495e-165
4.05312e-168
1.03731e-170
2.70844e-173
1.03795e-176
3.10539e-180
8.71342e-184
2.27453e-187
5.64437e-191
1.37787e-194
3.42903e-198
8.8236e-202
2.33468e-205
6.26542e-209
1.68511e-212
4.50698e-216
1.19806e-219
3.17764e-223
8.42953e-227
2.24565e-230
6.04341e-234
1.64394e-237
4.49083e-241
1.22606e-244
3.33222e-248
8.99074e-252
2.40978e-255
6.41794e-259
1.69405e-262
4.41222e-266
1.13993e-269
2.92736e-273
7.45633e-277
1.85844e-280
5.18999e-284
1.71871e-287
5.10309e-291
1.27794e-294
3.25004e-298
8.21538e-302
2.07241e-305
5.22935e-309
1.32408e-312
3.36054e-316
8.50287e-320
1.97626e-323
0
0
0
0
0
0
0
0
0
0
0
0
0
0
0
0
0
0
0
0
0
0
0
0
0
0
0
0
0
0
0
0
0
0
0
0
0
0
0
0
0
0
0
0
0
0
0
0
0
0
0
0
0
0
0
0
0
0
0
0
0
0
0
0
0
0
0
0
0
0
0
0
0
0
0
0
0
0
0
0
0
0
0
0
0
0
0
0
0
0
0
0
0
0
0
0
0
0
0
0
0
0
0
0
0
0
0
0
0
0
0
0
0
0
0
0
0
0
0
0
0
0
0
0
0
0
0
0
0
0
0
0
0
0
0
0
0
0
0
0
0
0
0
0
0
0
0
0
0
0
0
0
0
0
0
0
0
0
0
0
0
0
0
0
0
0
0
0
0
0
0
0
0
0
0
0
0
0
0
0
0
0
0
0
0
0
0
0
0
0
0
0
0
0
0
0
0
0
0
0
0
0
0
0
0
0
0
0
0
0
0
0
0
0
0
0
0
0
0
0
0
0
0
0
0
0
0
0
0
0
0
0
0
0
0
0
0
0
0
0
0
0
0
0
0
0
0
0
0
0
0
0
0
0
0
0
0
0
0
0
0
0
0
0
0
0
0
0
0
0
0
0
0
0
0
0
0
0
1.0332e-07
3.60002e-08
1.72796e-09
4.35664e-10
8.49996e-10
3.92375e-09
8.50316e-09
6.03222e-09
1.62369e-09
1.11706e-10
1.03698e-12
5.39956e-15
3.01503e-17
1.74025e-19
7.30093e-22
2.27581e-24
8.62832e-27
3.11536e-29
1.82779e-31
1.31425e-33
1.0353e-35
7.91517e-38
5.90309e-40
4.27144e-42
2.97084e-44
2.20603e-46
1.4293e-48
9.21278e-51
5.59234e-53
3.20258e-55
1.83209e-57
9.83497e-60
5.07816e-62
2.62062e-64
1.25488e-66
6.02002e-69
2.80867e-71
1.24859e-73
5.57947e-76
2.3737e-78
9.97279e-81
4.17492e-83
1.68041e-85
6.85767e-88
2.72053e-90
1.10486e-92
4.33753e-95
1.68351e-97
6.52951e-100
2.64085e-102
1.09153e-104
4.68559e-107
2.06648e-109
9.43175e-112
4.39587e-114
2.08469e-116
1.00112e-118
4.82106e-121
2.33801e-123
1.13256e-125
5.51167e-128
2.67978e-130
1.29173e-132
6.06987e-135
2.72111e-137
1.14108e-139
4.43405e-142
1.60608e-144
5.49731e-147
1.80143e-149
5.7077e-152
1.75996e-154
5.29605e-157
1.55654e-159
4.47227e-162
1.2572e-164
3.45864e-167
9.28647e-170
2.51447e-172
6.39992e-175
2.09867e-178
5.18557e-182
1.21815e-185
2.85081e-189
7.02133e-193
1.85488e-196
5.15363e-200
1.45232e-203
4.05919e-207
1.11916e-210
3.05566e-214
8.31447e-218
2.26938e-221
6.23936e-225
1.72314e-228
4.76379e-232
1.31838e-235
3.64394e-239
1.00122e-242
2.73003e-246
7.37738e-250
1.97604e-253
5.26368e-257
1.39721e-260
3.68156e-264
9.56066e-268
2.45724e-271
6.2632e-275
1.57811e-278
3.85078e-282
1.10635e-285
3.68062e-289
1.03094e-292
2.44982e-296
5.9481e-300
1.44258e-303
3.50928e-307
8.5952e-311
2.11725e-314
5.22201e-318
1.28457e-321
0
0
0
0
0
0
0
0
0
0
0
0
0
0
0
0
0
0
0
0
0
0
0
0
0
0
0
0
0
0
0
0
0
0
0
0
0
0
0
0
0
0
0
0
0
0
0
0
0
0
0
0
0
0
0
0
0
0
0
0
0
0
0
0
0
0
0
0
0
0
0
0
0
0
0
0
0
0
0
0
0
0
0
0
0
0
0
0
0
0
0
0
0
0
0
0
0
0
0
0
0
0
0
0
0
0
0
0
0
0
0
0
0
0
0
0
0
0
0
0
0
0
0
0
0
0
0
0
0
0
0
0
0
0
0
0
0
0
0
0
0
0
0
0
0
0
0
0
0
0
0
0
0
0
0
0
0
0
0
0
0
0
0
0
0
0
0
0
0
0
0
0
0
0
0
0
0
0
0
0
0
0
0
0
0
0
0
0
0
0
0
0
0
0
0
0
0
0
0
0
0
0
0
0
0
0
0
0
0
0
0
0
0
0
0
0
0
0
0
0
0
0
0
0
0
0
0
0
0
0
0
0
0
0
0
0
0
0
0
0
0
0
0
0
0
0
0
0
0
0
0
0
0
0
0
0
0
0
0
0
0
0
0
0
0
0
0
0
0
0
0
0
0
0
0
0
0
0
0
7.26719e-09
6.97976e-10
1.18613e-10
1.13144e-10
2.19912e-10
8.35797e-10
1.80678e-09
2.06509e-09
3.00522e-10
1.69682e-11
4.95908e-14
2.9883e-16
1.33135e-18
5.68862e-21
1.55295e-23
4.45108e-26
1.36024e-28
3.65495e-31
1.75117e-33
9.9933e-36
6.91785e-38
4.78782e-40
3.39979e-42
2.6202e-44
1.80183e-46
1.22132e-48
7.63585e-51
4.71067e-53
2.78705e-55
1.55165e-57
8.46073e-60
4.48878e-62
2.2138e-64
1.1154e-66
5.21138e-69
2.41326e-71
1.10487e-73
4.7821e-76
2.10704e-78
8.80679e-81
3.65533e-83
1.51093e-85
5.9526e-88
2.4224e-90
9.38765e-93
3.74195e-95
1.46703e-97
5.76844e-100
2.31857e-102
9.53475e-105
4.0416e-107
1.78454e-109
8.0576e-112
3.77039e-114
1.78744e-116
8.61982e-119
4.18155e-121
2.03669e-123
9.96616e-126
4.8773e-128
2.39776e-130
1.17721e-132
5.76402e-135
2.77231e-137
1.29156e-139
5.67265e-142
2.29756e-144
8.55092e-147
2.97499e-149
9.8452e-152
3.13642e-154
9.69424e-157
2.91879e-159
8.57354e-162
2.46264e-164
6.92811e-167
1.9095e-169
5.13183e-172
1.37278e-174
6.82933e-178
2.6757e-181
8.72337e-185
2.74018e-188
8.24869e-192
2.42904e-195
7.18742e-199
2.17642e-202
6.72028e-206
2.09752e-209
6.56596e-213
2.05116e-216
6.36881e-220
1.96266e-223
6.01293e-227
1.82706e-230
5.49494e-234
1.63576e-237
4.81899e-241
1.40592e-244
4.07396e-248
1.17094e-251
3.3312e-255
9.40331e-259
2.64253e-262
7.38545e-266
2.05335e-269
5.74598e-273
1.6216e-276
4.59202e-280
1.26754e-283
3.86941e-287
1.30898e-290
3.88362e-294
1.03563e-297
2.82871e-301
7.67529e-305
2.07087e-308
5.56596e-312
1.49046e-315
3.96458e-319
1.03754e-322
0
0
0
0
0
0
0
0
0
0
0
0
0
0
0
0
0
0
0
0
0
0
0
0
0
0
0
0
0
0
0
0
0
0
0
0
0
0
0
0
0
0
0
0
0
0
0
0
0
0
0
0
0
0
0
0
0
0
0
0
0
0
0
0
0
0
0
0
0
0
0
0
0
0
0
0
0
0
0
0
0
0
0
0
0
0
0
0
0
0
0
0
0
0
0
0
0
0
0
0
0
0
0
0
0
0
0
0
0
0
0
0
0
0
0
0
0
0
0
0
0
0
0
0
0
0
0
0
0
0
0
0
0
0
0
0
0
0
0
0
0
0
0
0
0
0
0
0
0
0
0
0
0
0
0
0
0
0
0
0
0
0
0
0
0
0
0
0
0
0
0
0
0
0
0
0
0
0
0
0
0
0
0
0
0
0
0
0
0
0
0
0
0
0
0
0
0
0
0
0
0
0
0
0
0
0
0
0
0
0
0
0
0
0
0
0
0
0
0
0
0
0
0
0
0
0
0
0
0
0
0
0
0
0
0
0
0
0
0
0
0
0
0
0
0
0
0
0
0
0
0
0
0
0
0
0
0
0
0
0
0
0
0
0
0
0
0
0
0
0
0
0
0
0
0
0
0
0
0
4.41432e-10
6.28755e-11
3.93905e-11
4.23972e-11
3.61591e-11
2.9075e-11
4.25503e-11
6.01793e-11
1.06099e-11
1.89177e-13
3.36644e-16
8.30664e-19
2.28965e-21
6.27973e-24
1.9335e-26
6.65542e-29
2.60007e-31
1.22339e-33
6.71369e-36
4.32285e-38
2.93056e-40
1.98816e-42
1.34846e-44
8.90428e-47
5.6471e-49
3.53789e-51
2.13737e-53
1.21177e-55
6.92681e-58
3.65607e-60
1.91809e-62
9.62977e-65
4.70517e-67
2.20375e-69
1.03694e-71
4.53926e-74
2.0603e-76
8.64487e-79
3.72319e-81
1.52963e-83
6.2104e-86
2.51521e-88
9.87106e-91
3.90279e-93
1.52777e-95
5.96015e-98
2.38091e-100
9.41536e-103
3.91346e-105
1.63707e-107
7.2065e-110
3.2448e-112
1.51015e-114
7.16643e-117
3.45103e-119
1.6755e-121
8.17973e-124
3.99662e-126
1.96854e-128
9.68928e-131
4.80433e-133
2.37771e-135
1.17152e-137
5.68006e-140
2.66406e-142
1.18521e-144
4.87922e-147
1.84864e-149
6.48203e-152
2.14134e-154
6.77841e-157
2.0761e-159
6.18492e-162
1.79845e-164
5.1202e-167
1.42719e-169
3.89469e-172
1.02722e-174
5.85455e-178
3.20041e-181
1.45128e-184
6.03462e-188
2.40934e-191
8.95878e-195
3.15871e-198
1.08054e-201
3.66451e-205
1.23998e-208
4.19762e-212
1.42478e-215
4.81007e-219
1.60324e-222
5.28624e-226
1.73003e-229
5.61232e-233
1.79465e-236
5.6377e-240
1.73871e-243
5.2843e-247
1.59748e-250
4.8278e-254
1.44875e-257
4.28907e-261
1.26691e-264
3.78375e-268
1.14019e-271
3.4553e-275
1.04739e-278
3.15299e-282
8.99124e-286
2.58776e-289
7.83354e-293
2.25446e-296
6.53109e-300
1.97382e-303
5.88044e-307
1.71975e-310
4.93784e-314
1.39918e-317
3.913e-321
0
0
0
0
0
0
0
0
0
0
0
0
0
0
0
0
0
0
0
0
0
0
0
0
0
0
0
0
0
0
0
0
0
0
0
0
0
0
0
0
0
0
0
0
0
0
0
0
0
0
0
0
0
0
0
0
0
0
0
0
0
0
0
0
0
0
0
0
0
0
0
0
0
0
0
0
0
0
0
0
0
0
0
0
0
0
0
0
0
0
0
0
0
0
0
0
0
0
0
0
0
0
0
0
0
0
0
0
0
0
0
0
0
0
0
0
0
0
0
0
0
0
0
0
0
0
0
0
0
0
0
0
0
0
0
0
0
0
0
0
0
0
0
0
0
0
0
0
0
0
0
0
0
0
0
0
0
0
0
0
0
0
0
0
0
0
0
0
0
0
0
0
0
0
0
0
0
0
0
0
0
0
0
0
0
0
0
0
0
0
0
0
0
0
0
0
0
0
0
0
0
0
0
0
0
0
0
0
0
0
0
0
0
0
0
0
0
0
0
0
0
0
0
0
0
0
0
0
0
0
0
0
0
0
0
0
0
0
0
0
0
0
0
0
0
0
0
0
0
0
0
0
0
0
0
0
0
0
0
0
0
0
0
0
0
0
0
0
0
0
0
0
0
0
0
0
0
0
0
0
2.19841e-11
2.23967e-11
2.28281e-11
1.02069e-11
3.9795e-12
1.30605e-12
4.83452e-13
3.19958e-13
2.30495e-14
1.41656e-16
3.57675e-19
1.22003e-21
4.00046e-24
1.31313e-26
4.5686e-29
2.12712e-31
1.05772e-33
7.2015e-36
4.42589e-38
3.21653e-40
2.12624e-42
1.44531e-44
9.24682e-47
5.85224e-49
3.53359e-51
2.08515e-53
1.19583e-55
6.50174e-58
3.52254e-60
1.77923e-62
9.03927e-65
4.29505e-67
2.05417e-69
9.25948e-72
4.2088e-74
1.81955e-76
7.8897e-79
3.30893e-81
1.36556e-83
5.59286e-86
2.21653e-88
8.82366e-91
3.43247e-93
1.3413e-95
5.21615e-98
2.04801e-100
8.19524e-103
3.33285e-105
1.40693e-107
6.10475e-110
2.74344e-112
1.27009e-114
5.9951e-117
2.88398e-119
1.39523e-121
6.78765e-124
3.31682e-126
1.61729e-128
7.96448e-131
3.90984e-133
1.93883e-135
9.54708e-138
4.69482e-140
2.26383e-142
1.06422e-144
4.79374e-147
2.02749e-149
7.8181e-152
2.73868e-154
8.94569e-157
2.79233e-159
8.42504e-162
2.47233e-164
7.08232e-167
1.98497e-169
5.44835e-172
1.465e-174
2.73471e-177
9.21312e-181
3.58037e-184
1.55323e-187
6.83417e-191
2.86785e-194
1.14022e-197
4.34685e-201
1.61461e-204
5.91338e-208
2.14557e-211
7.71809e-215
2.74786e-218
9.65511e-222
3.34266e-225
1.14047e-228
3.83926e-232
1.2766e-235
4.19576e-239
1.36422e-242
4.39165e-246
1.40131e-249
4.43811e-253
1.39657e-256
4.36676e-260
1.3573e-263
4.20022e-267
1.29588e-270
3.98746e-274
1.22379e-277
3.74428e-281
1.14169e-284
3.45744e-288
1.04573e-291
3.15576e-295
9.46722e-299
2.83429e-302
8.45196e-306
2.50741e-309
7.39068e-313
2.16226e-316
6.27661e-320
1.97626e-323
0
0
0
0
0
0
0
0
0
0
0
0
0
0
0
0
0
0
0
0
0
0
0
0
0
0
0
0
0
0
0
0
0
0
0
0
0
0
0
0
0
0
0
0
0
0
0
0
0
0
0
0
0
0
0
0
0
0
0
0
0
0
0
0
0
0
0
0
0
0
0
0
0
0
0
0
0
0
0
0
0
0
0
0
0
0
0
0
0
0
0
0
0
0
0
0
0
0
0
0
0
0
0
0
0
0
0
0
0
0
0
0
0
0
0
0
0
0
0
0
0
0
0
0
0
0
0
0
0
0
0
0
0
0
0
0
0
0
0
0
0
0
0
0
0
0
0
0
0
0
0
0
0
0
0
0
0
0
0
0
0
0
0
0
0
0
0
0
0
0
0
0
0
0
0
0
0
0
0
0
0
0
0
0
0
0
0
0
0
0
0
0
0
0
0
0
0
0
0
0
0
0
0
0
0
0
0
0
0
0
0
0
0
0
0
0
0
0
0
0
0
0
0
0
0
0
0
0
0
0
0
0
0
0
0
0
0
0
0
0
0
0
0
0
0
0
0
0
0
0
0
0
0
0
0
0
0
0
0
0
0
0
0
0
0
0
0
0
0
0
0
0
0
0
0
0
0
0
0
0
4.5916e-12
3.52536e-12
2.13198e-12
8.39194e-13
1.5583e-13
6.8011e-15
1.77641e-15
5.47066e-16
3.48426e-17
2.30853e-19
1.02073e-21
4.02818e-24
1.46433e-26
5.36671e-29
2.30259e-31
1.35418e-33
8.46951e-36
6.56298e-38
4.5036e-40
3.25272e-42
2.2267e-44
1.47565e-46
9.26592e-49
5.66868e-51
3.32907e-53
1.89755e-55
1.04081e-57
5.54696e-60
2.84204e-62
1.41036e-64
6.81466e-67
3.19025e-69
1.45843e-71
6.53896e-74
2.83316e-76
1.22567e-78
5.08222e-81
2.12059e-83
8.5189e-86
3.42025e-88
1.34676e-90
5.24509e-93
2.03954e-95
7.87987e-98
3.08032e-100
1.21768e-102
4.93278e-105
2.05853e-107
8.87208e-110
3.96762e-112
1.81882e-114
8.58212e-117
4.09357e-119
1.98343e-121
9.60604e-124
4.67236e-126
2.27442e-128
1.10825e-130
5.42674e-133
2.66114e-135
1.31279e-137
6.45811e-140
3.16889e-142
1.53235e-144
7.24062e-147
3.29387e-149
1.40427e-151
5.37504e-154
1.8545e-156
5.97229e-159
1.8382e-161
5.46803e-164
1.58178e-166
4.46613e-169
1.2337e-171
3.33839e-174
7.8876e-177
3.38877e-180
1.28911e-183
5.19422e-187
2.26121e-190
9.97984e-194
4.26735e-197
1.75059e-200
6.94048e-204
2.68873e-207
1.0259e-210
3.86725e-214
1.43973e-217
5.28508e-221
1.91039e-224
6.79728e-228
2.38214e-231
8.23328e-235
2.81021e-238
9.48353e-242
3.16731e-245
1.04779e-248
3.43587e-252
1.11761e-255
3.60867e-259
1.1574e-262
3.68938e-266
1.16954e-269
3.68907e-273
1.1582e-276
3.61971e-280
1.12618e-283
3.48798e-287
1.07514e-290
3.29835e-294
1.00697e-297
3.05808e-301
9.2363e-305
2.77324e-308
8.27412e-312
2.45167e-315
7.21109e-319
2.12448e-322
0
0
0
0
0
0
0
0
0
0
0
0
0
0
0
0
0
0
0
0
0
0
0
0
0
0
0
0
0
0
0
0
0
0
0
0
0
0
0
0
0
0
0
0
0
0
0
0
0