/*--------------------------------*- C++ -*----------------------------------*\
| =========                 |                                                 |
| \\      /  F ield         | OpenFOAM: The Open Source CFD Toolbox           |
|  \\    /   O peration     | Version:  2.1.1                                 |
|   \\  /    A nd           | Web:      www.OpenFOAM.org                      |
|    \\/     M anipulation  |                                                 |
\*---------------------------------------------------------------------------*/
FoamFile
{
    version     2.0;
    format      ascii;
    class       volScalarField;
    location    "0.000600000";
    object      k;
}
// * * * * * * * * * * * * * * * * * * * * * * * * * * * * * * * * * * * * * //

dimensions      [0 2 -2 0 0 0 0];

internalField   nonuniform List<scalar> 
12384
(
0.101587
0.101353
0.102402
0.102589
0.102751
0.103451
0.102821
0.103632
0.102469
0.102286
0.102802
0.102069
0.101801
0.102029
0.100187
0.100294
0.10027
0.100406
0.100435
0.100505
0.100479
0.100462
0.100448
0.100441
0.100392
0.100401
0.10035
0.100314
0.100272
0.100233
0.100153
0.100164
0.100051
0.100043
0.0999883
0.0999123
0.0999317
0.0998297
0.0998267
0.099863
0.0997378
0.0998221
0.0996897
0.099768
0.0993767
0.0993659
0.0993575
0.099356
0.0993546
0.0993543
0.0993544
0.0993522
0.0993527
0.0993511
0.0993522
0.0993516
0.0993516
0.099352
0.0993518
0.0993518
0.0993512
0.0993515
0.0993508
0.0993511
0.0993497
0.0993503
0.0993489
0.0993494
0.0993482
0.0993481
0.0993471
0.0993465
0.0993455
0.0993422
0.0993423
0.0993462
0.0993477
0.0993479
0.0993482
0.0993488
0.0993486
0.0993498
0.0993494
0.0993506
0.0993503
0.0993515
0.0993511
0.0993517
0.0993514
0.0993519
0.0993513
0.0993516
0.0993507
0.0993512
0.0993497
0.0993504
0.0993488
0.0993495
0.0993481
0.0993482
0.0993472
0.0993464
0.0993455
0.0993422
0.0993425
0.0993462
0.0993479
0.0993479
0.0993484
0.0993488
0.0993487
0.0993498
0.0993493
0.0993507
0.0993503
0.0993515
0.0993512
0.0993514
0.0993519
0.0993518
0.0993517
0.099351
0.0993515
0.0993502
0.0993507
0.0993493
0.0993499
0.0993486
0.0993488
0.0993483
0.0993479
0.0993479
0.0993462
0.0993425
0.0993424
0.0993458
0.0993474
0.0993473
0.0993486
0.0993483
0.0993493
0.099349
0.0993501
0.0993499
0.099351
0.0993511
0.0993512
0.0993515
0.0993515
0.0993519
0.0993513
0.0993516
0.0993508
0.0993511
0.0993497
0.0993504
0.0993489
0.0993494
0.0993482
0.0993482
0.0993472
0.0993465
0.0993455
0.0993422
0.0993425
0.0993462
0.0993479
0.099348
0.0993483
0.0993488
0.0993486
0.0993499
0.0993493
0.0993508
0.0993502
0.0993515
0.099351
0.0993517
0.0993515
0.099352
0.0993513
0.0993517
0.099351
0.099351
0.0993501
0.0993499
0.0993492
0.0993492
0.0993482
0.0993483
0.0993472
0.099347
0.0993455
0.0993423
0.0993424
0.0993463
0.0993476
0.0993483
0.0993482
0.0993491
0.0993486
0.0993499
0.0993493
0.0993507
0.0993502
0.0993514
0.099351
0.0993517
0.0993514
0.0993519
0.0993513
0.0993516
0.0993507
0.0993511
0.0993497
0.0993504
0.0993488
0.0993495
0.0993481
0.0993482
0.0993472
0.0993465
0.0993455
0.0993422
0.0993422
0.0993457
0.0993466
0.0993479
0.0993478
0.099349
0.0993486
0.0993499
0.0993493
0.0993506
0.0993502
0.0993514
0.099351
0.0993517
0.0993514
0.099352
0.0993513
0.0993516
0.0993507
0.0993511
0.0993497
0.0993504
0.0993488
0.0993495
0.0993482
0.0993482
0.0993472
0.0993464
0.0993455
0.0993422
0.0993421
0.0993453
0.0993468
0.0993471
0.0993482
0.099348
0.0993494
0.0993489
0.0993503
0.0993497
0.0993511
0.0993507
0.0993516
0.0993513
0.0993519
0.0993515
0.0993518
0.099351
0.0993514
0.0993505
0.09935
0.09935
0.0993492
0.0993492
0.0993483
0.0993485
0.0993474
0.0993477
0.0993461
0.0993424
0.0993422
0.0993456
0.0993464
0.0993476
0.0993476
0.0993489
0.0993485
0.0993499
0.0993492
0.0993506
0.0993502
0.0993514
0.099351
0.0993517
0.0993514
0.0993519
0.0993513
0.0993516
0.0993508
0.0993511
0.0993497
0.0993504
0.0993489
0.0993494
0.0993482
0.0993482
0.0993472
0.0993465
0.0993455
0.0993422
0.0993425
0.0993463
0.0993478
0.0993479
0.0993482
0.0993489
0.0993485
0.09935
0.0993492
0.0993507
0.0993502
0.0993514
0.0993509
0.0993516
0.099352
0.099352
0.0993514
0.0993509
0.0993514
0.0993502
0.0993507
0.0993493
0.09935
0.0993485
0.0993489
0.0993482
0.099348
0.0993477
0.0993462
0.0993424
0.0993422
0.0993455
0.0993464
0.0993478
0.0993478
0.099349
0.0993489
0.0993499
0.0993493
0.0993506
0.0993502
0.0993515
0.0993511
0.099352
0.0993516
0.099352
0.0993515
0.0993518
0.099351
0.0993511
0.0993498
0.0993504
0.099349
0.0993496
0.0993482
0.0993483
0.0993472
0.0993464
0.0993455
0.0993422
0.10117
0.109155
0.110191
0.111381
0.112005
0.11528
0.115769
0.115555
0.114512
0.112585
0.110573
0.108448
0.105851
0.101585
0.100264
0.101568
0.101613
0.101765
0.101865
0.101919
0.102035
0.101989
0.102086
0.101988
0.101985
0.101888
0.101841
0.101631
0.101649
0.101402
0.101399
0.101249
0.101111
0.101101
0.100951
0.100863
0.100821
0.100689
0.10072
0.100632
0.100607
0.100609
0.100535
0.0997267
0.0993235
0.100122
0.100123
0.100117
0.100108
0.100096
0.100086
0.100076
0.10007
0.100065
0.100059
0.100057
0.100053
0.100052
0.100051
0.100049
0.100053
0.100051
0.100055
0.100053
0.100058
0.100058
0.100062
0.100062
0.100065
0.100063
0.100064
0.100067
0.100063
0.0993177
0.0993124
0.100066
0.100064
0.100066
0.100065
0.100064
0.100064
0.10006
0.100061
0.100055
0.100056
0.100053
0.100054
0.10005
0.100051
0.100049
0.100053
0.100051
0.100055
0.100053
0.100058
0.100058
0.100062
0.100062
0.100066
0.100064
0.100063
0.100067
0.100063
0.0993179
0.0993122
0.100067
0.100064
0.100066
0.100063
0.100064
0.100064
0.10006
0.100061
0.100055
0.100056
0.100052
0.100053
0.100049
0.10005
0.100051
0.10005
0.100054
0.100052
0.100056
0.100055
0.100061
0.10006
0.100064
0.100064
0.100063
0.100066
0.100064
0.100067
0.0993121
0.0993155
0.100064
0.100065
0.100066
0.100064
0.100066
0.100062
0.100062
0.100058
0.100057
0.100053
0.100054
0.100052
0.10005
0.100051
0.100049
0.100053
0.100051
0.100055
0.100053
0.100058
0.100058
0.100062
0.100062
0.100065
0.100063
0.100063
0.100067
0.100063
0.0993177
0.099312
0.100067
0.100064
0.100066
0.100064
0.100064
0.100064
0.10006
0.100061
0.100055
0.100057
0.100052
0.100054
0.10005
0.100052
0.100049
0.100052
0.100051
0.100054
0.100054
0.100057
0.100059
0.100062
0.100062
0.100066
0.100064
0.100066
0.100066
0.100064
0.0993164
0.0993122
0.100066
0.100064
0.100065
0.100066
0.100064
0.100064
0.100059
0.100061
0.100055
0.100057
0.100053
0.100054
0.10005
0.100051
0.100049
0.100052
0.100051
0.100055
0.100053
0.100058
0.100058
0.100062
0.100062
0.100066
0.100063
0.100063
0.100067
0.100063
0.0993177
0.0993157
0.100064
0.100067
0.100064
0.100065
0.100063
0.100064
0.100059
0.100061
0.100055
0.100057
0.100053
0.100054
0.10005
0.100051
0.100049
0.100053
0.100051
0.100055
0.100053
0.100058
0.100058
0.100062
0.100062
0.100066
0.100063
0.100063
0.100067
0.100063
0.0993178
0.0993175
0.100063
0.100067
0.100066
0.100063
0.100066
0.100062
0.100062
0.100058
0.100058
0.100053
0.100055
0.100051
0.100052
0.100049
0.100051
0.10005
0.100053
0.100053
0.100055
0.100057
0.100057
0.100061
0.100062
0.100066
0.100064
0.100066
0.100065
0.100065
0.0993138
0.0993176
0.100064
0.100067
0.100064
0.100065
0.100063
0.100064
0.100059
0.100061
0.100055
0.100057
0.100053
0.100054
0.10005
0.100051
0.100049
0.100052
0.100051
0.100055
0.100053
0.100058
0.100058
0.100062
0.100062
0.100066
0.100064
0.100063
0.100067
0.100063
0.0993177
0.0993118
0.100067
0.100064
0.100065
0.100065
0.100064
0.100064
0.10006
0.100061
0.100055
0.100057
0.100052
0.100054
0.10005
0.100051
0.100051
0.10005
0.100054
0.100053
0.100057
0.100055
0.100061
0.10006
0.100064
0.100064
0.100065
0.100065
0.100064
0.100067
0.099312
0.0993171
0.100064
0.100067
0.100065
0.100066
0.100064
0.100066
0.100061
0.100063
0.100056
0.100058
0.100053
0.100054
0.100051
0.100052
0.100049
0.100052
0.100052
0.100055
0.100053
0.100058
0.100058
0.100063
0.100063
0.100066
0.100064
0.100063
0.100068
0.100063
0.099318
0.108241
0.120661
0.111718
0.109741
0.109728
0.114667
0.113037
0.112453
0.111666
0.110075
0.108011
0.106421
0.105264
0.10165
0.100516
0.102073
0.101901
0.101961
0.10193
0.101933
0.101891
0.101858
0.101802
0.101656
0.101626
0.101468
0.101432
0.101287
0.101276
0.101064
0.101098
0.100927
0.100865
0.100863
0.100667
0.100747
0.100652
0.100579
0.100598
0.100487
0.100553
0.100482
0.100463
0.099773
0.099428
0.100126
0.100107
0.100089
0.100077
0.100056
0.100042
0.100026
0.100015
0.10001
0.100003
0.100005
0.1
0.0999987
0.0999975
0.0999963
0.100002
0.1
0.100005
0.100001
0.100007
0.100006
0.100014
0.100015
0.100024
0.100029
0.100034
0.100041
0.100049
0.0993872
0.0993896
0.100046
0.100038
0.100035
0.100031
0.100022
0.10002
0.100011
0.10001
0.100002
0.100005
0.100001
0.100003
0.0999968
0.0999979
0.0999957
0.100001
0.0999997
0.100005
0.100001
0.100007
0.100005
0.100014
0.100015
0.100024
0.100029
0.100034
0.100042
0.100049
0.0993864
0.0993897
0.100046
0.100037
0.100035
0.100029
0.100023
0.100019
0.10001
0.10001
0.100002
0.100005
0.100001
0.100003
0.0999972
0.0999975
0.0999982
0.0999978
0.100003
0.100001
0.100005
0.100002
0.10001
0.10001
0.100019
0.100022
0.100029
0.100035
0.100037
0.100045
0.0993897
0.0993894
0.100049
0.100038
0.100035
0.100027
0.100025
0.100016
0.100014
0.100007
0.100007
0.100002
0.100005
0.100001
0.0999968
0.0999974
0.0999961
0.100002
0.0999999
0.100005
0.100001
0.100007
0.100006
0.100014
0.100015
0.100024
0.100029
0.100034
0.100042
0.100049
0.099387
0.0993897
0.100045
0.100037
0.100035
0.100029
0.100022
0.100019
0.10001
0.10001
0.100002
0.100005
0.1
0.100004
0.0999983
0.1
0.0999956
0.0999992
0.0999985
0.100003
0.100001
0.100006
0.100008
0.100015
0.100017
0.100025
0.100028
0.100035
0.100039
0.100051
0.0993886
0.0993893
0.100045
0.100037
0.100033
0.10003
0.10002
0.100019
0.100009
0.100011
0.100003
0.100006
0.100001
0.100003
0.0999974
0.0999982
0.0999951
0.100001
0.0999996
0.100005
0.100001
0.100007
0.100006
0.100014
0.100015
0.100024
0.100029
0.100034
0.100042
0.100049
0.0993869
0.0993899
0.100048
0.10004
0.100031
0.10003
0.10002
0.100019
0.10001
0.100011
0.100003
0.100006
0.100001
0.100003
0.0999972
0.0999981
0.0999953
0.100001
0.0999996
0.100005
0.100001
0.100007
0.100006
0.100014
0.100015
0.100024
0.100029
0.100034
0.100042
0.100049
0.0993865
0.0993883
0.10005
0.10004
0.100035
0.100027
0.100024
0.100015
0.100014
0.100006
0.100008
0.100001
0.100005
0.0999999
0.100002
0.0999967
0.0999982
0.0999959
0.100001
0.100001
0.100005
0.100007
0.100009
0.100015
0.100017
0.100025
0.100028
0.100035
0.100038
0.100048
0.0993896
0.0993868
0.100049
0.100041
0.100031
0.10003
0.10002
0.100019
0.10001
0.100011
0.100003
0.100006
0.100001
0.100003
0.0999976
0.0999984
0.099995
0.100001
0.0999994
0.100005
0.100001
0.100007
0.100006
0.100014
0.100015
0.100024
0.100029
0.100034
0.100042
0.100049
0.0993871
0.0993897
0.100045
0.100038
0.100035
0.10003
0.100021
0.100019
0.100009
0.10001
0.100002
0.100005
0.100001
0.100004
0.0999979
0.099998
0.0999974
0.0999976
0.100003
0.100001
0.100006
0.100002
0.10001
0.10001
0.100019
0.100021
0.10003
0.100035
0.100038
0.100045
0.0993897
0.0993869
0.100048
0.10004
0.10003
0.100029
0.100019
0.100018
0.100008
0.10001
0.100002
0.100006
0.100001
0.100004
0.0999986
0.0999994
0.0999949
0.1
0.100001
0.100006
0.100002
0.100007
0.100005
0.100014
0.100015
0.100024
0.100029
0.100034
0.100043
0.10005
0.0993864
0.137587
0.160078
0.13188
0.117901
0.116757
0.124813
0.118814
0.11621
0.114296
0.112057
0.108954
0.106766
0.105441
0.10146
0.100758
0.103157
0.102792
0.102692
0.10255
0.102441
0.102302
0.102216
0.10206
0.101927
0.101839
0.101593
0.101564
0.101379
0.101305
0.101171
0.101112
0.100962
0.100922
0.100834
0.100707
0.10074
0.100571
0.100621
0.100554
0.100463
0.100521
0.100354
0.100439
0.0997242
0.0993766
0.100047
0.100043
0.100032
0.100016
0.1
0.0999829
0.0999682
0.0999551
0.0999481
0.0999435
0.0999404
0.0999393
0.0999387
0.0999402
0.0999399
0.0999392
0.0999399
0.0999396
0.0999406
0.0999406
0.099941
0.0999408
0.0999415
0.0999411
0.0999396
0.0999425
0.099946
0.0999461
0.0993433
0.0993385
0.0999457
0.0999459
0.0999446
0.0999432
0.0999412
0.0999407
0.099941
0.0999403
0.0999408
0.0999399
0.0999399
0.0999389
0.0999396
0.0999385
0.0999398
0.0999389
0.0999399
0.0999397
0.0999408
0.0999407
0.0999409
0.0999406
0.0999412
0.0999413
0.0999394
0.0999418
0.0999454
0.0999466
0.0993434
0.0993387
0.0999468
0.0999462
0.0999443
0.0999419
0.0999404
0.0999414
0.0999411
0.0999404
0.0999408
0.0999401
0.09994
0.0999393
0.099939
0.0999376
0.0999404
0.0999397
0.0999391
0.0999401
0.0999402
0.0999409
0.0999404
0.0999411
0.0999412
0.09994
0.0999419
0.0999442
0.099946
0.0999468
0.0993386
0.0993408
0.0999433
0.0999468
0.0999431
0.0999421
0.0999411
0.0999417
0.0999407
0.0999408
0.0999401
0.0999399
0.0999401
0.0999399
0.0999386
0.0999389
0.09994
0.0999391
0.09994
0.0999398
0.0999408
0.0999407
0.099941
0.0999407
0.0999413
0.0999412
0.0999398
0.0999421
0.0999458
0.0999462
0.0993433
0.0993385
0.0999468
0.0999458
0.0999442
0.0999421
0.0999398
0.0999411
0.0999411
0.0999405
0.099941
0.0999405
0.0999404
0.0999394
0.09994
0.0999392
0.0999403
0.0999392
0.09994
0.0999399
0.0999404
0.0999399
0.0999406
0.0999408
0.0999418
0.0999413
0.0999421
0.0999441
0.0999482
0.099944
0.0993417
0.0993386
0.0999462
0.0999447
0.0999432
0.0999428
0.0999414
0.0999408
0.0999411
0.0999406
0.0999409
0.09994
0.09994
0.0999387
0.0999393
0.0999381
0.0999394
0.0999385
0.0999396
0.0999395
0.0999406
0.0999406
0.0999409
0.0999406
0.0999412
0.0999411
0.0999396
0.099942
0.0999457
0.0999461
0.0993434
0.0993407
0.0999431
0.0999454
0.0999431
0.0999413
0.0999413
0.0999407
0.0999411
0.0999405
0.0999409
0.0999399
0.0999399
0.0999387
0.0999392
0.0999381
0.0999395
0.0999386
0.0999397
0.0999395
0.0999407
0.0999406
0.0999409
0.0999406
0.0999412
0.0999411
0.0999394
0.0999418
0.0999455
0.0999464
0.0993434
0.0993423
0.0999449
0.0999461
0.0999434
0.0999408
0.0999405
0.0999412
0.0999408
0.0999411
0.0999407
0.0999408
0.0999396
0.0999399
0.099939
0.09994
0.099939
0.0999401
0.0999392
0.0999395
0.0999406
0.0999403
0.0999404
0.0999407
0.0999418
0.0999415
0.0999428
0.0999438
0.0999471
0.0999442
0.0993394
0.099343
0.099946
0.0999446
0.0999426
0.0999408
0.0999409
0.0999406
0.099941
0.0999405
0.0999408
0.0999399
0.09994
0.0999388
0.0999393
0.0999382
0.0999395
0.0999387
0.0999397
0.0999395
0.0999405
0.0999404
0.0999408
0.0999406
0.0999413
0.0999412
0.0999399
0.0999421
0.0999459
0.0999462
0.0993432
0.0993381
0.0999468
0.0999451
0.0999441
0.0999419
0.0999408
0.0999408
0.099941
0.0999404
0.0999409
0.0999401
0.09994
0.0999388
0.099939
0.0999398
0.0999395
0.0999386
0.0999386
0.0999398
0.0999398
0.0999408
0.0999403
0.0999408
0.0999406
0.0999409
0.0999426
0.0999439
0.0999449
0.0999461
0.0993382
0.0993425
0.0999449
0.0999444
0.0999425
0.099941
0.0999409
0.0999407
0.0999411
0.0999407
0.0999411
0.0999404
0.0999404
0.0999392
0.099939
0.0999379
0.099939
0.0999375
0.0999383
0.0999378
0.0999395
0.0999395
0.0999399
0.0999396
0.0999401
0.0999409
0.0999388
0.0999416
0.0999449
0.0999464
0.0993437
0.129103
0.208893
0.202067
0.133727
0.123944
0.138182
0.127151
0.121685
0.117836
0.114815
0.111241
0.108656
0.106591
0.101295
0.100961
0.104757
0.10402
0.1038
0.103467
0.103224
0.102954
0.102711
0.102488
0.102248
0.102086
0.101856
0.101734
0.101546
0.101417
0.101328
0.101143
0.101037
0.10095
0.100827
0.100882
0.100732
0.100626
0.1007
0.100486
0.100558
0.100524
0.10041
0.100445
0.0996595
0.0994287
0.100095
0.100077
0.100061
0.100052
0.100036
0.10002
0.100006
0.0999898
0.0999727
0.0999677
0.0999596
0.0999606
0.0999581
0.0999551
0.0999599
0.0999559
0.0999612
0.0999565
0.099962
0.0999565
0.0999617
0.0999563
0.0999613
0.0999571
0.0999621
0.0999614
0.0999586
0.0999605
0.0993473
0.0993537
0.0999569
0.0999633
0.0999581
0.0999575
0.0999612
0.0999564
0.099961
0.0999562
0.0999616
0.0999563
0.0999613
0.0999559
0.09996
0.0999552
0.0999599
0.0999556
0.0999613
0.0999562
0.0999622
0.0999563
0.0999618
0.0999562
0.0999613
0.0999567
0.0999617
0.0999618
0.0999582
0.099961
0.0993472
0.0993537
0.0999573
0.099963
0.0999583
0.0999605
0.0999613
0.0999564
0.0999607
0.0999561
0.0999615
0.0999563
0.0999615
0.0999559
0.0999599
0.0999583
0.0999547
0.0999607
0.099956
0.0999619
0.0999563
0.0999619
0.099956
0.099961
0.0999566
0.0999613
0.0999601
0.0999583
0.099963
0.0999574
0.0993537
0.0993502
0.0999587
0.0999627
0.0999584
0.0999617
0.099957
0.0999613
0.0999566
0.0999614
0.0999566
0.099961
0.099956
0.099958
0.0999596
0.0999554
0.09996
0.0999558
0.0999614
0.0999564
0.0999621
0.0999565
0.0999618
0.0999563
0.0999612
0.0999568
0.0999619
0.0999617
0.0999585
0.0999608
0.0993473
0.0993537
0.0999575
0.0999629
0.0999583
0.0999599
0.0999615
0.0999565
0.0999612
0.0999561
0.0999621
0.0999564
0.0999622
0.0999562
0.0999612
0.0999556
0.0999604
0.0999562
0.0999605
0.0999569
0.0999597
0.0999581
0.09996
0.099957
0.0999612
0.0999575
0.0999617
0.0999589
0.0999607
0.0999591
0.0993492
0.0993538
0.0999571
0.099963
0.0999612
0.0999567
0.0999614
0.0999561
0.0999617
0.099956
0.0999622
0.099956
0.0999615
0.0999557
0.0999601
0.0999549
0.0999595
0.0999554
0.099961
0.099956
0.099962
0.0999563
0.0999618
0.0999562
0.0999612
0.0999568
0.099962
0.0999616
0.0999584
0.0999608
0.0993473
0.0993507
0.099959
0.0999592
0.0999625
0.0999571
0.0999617
0.0999563
0.0999618
0.0999561
0.0999621
0.0999561
0.0999614
0.0999557
0.09996
0.0999549
0.0999597
0.0999554
0.0999612
0.0999561
0.0999621
0.0999563
0.0999618
0.0999562
0.0999613
0.0999567
0.099962
0.0999617
0.0999582
0.0999609
0.0993472
0.0993483
0.0999593
0.0999585
0.0999587
0.099962
0.0999567
0.0999618
0.0999564
0.0999622
0.0999564
0.0999622
0.0999564
0.0999613
0.0999559
0.0999604
0.0999557
0.0999602
0.0999563
0.0999601
0.0999564
0.099958
0.0999604
0.0999568
0.0999611
0.0999571
0.0999616
0.0999586
0.099963
0.0999577
0.0993525
0.0993472
0.0999602
0.0999584
0.0999624
0.0999572
0.0999618
0.0999562
0.0999619
0.099956
0.0999622
0.099956
0.0999615
0.0999558
0.0999601
0.099955
0.0999595
0.0999554
0.099961
0.0999562
0.0999618
0.0999564
0.0999615
0.0999563
0.0999611
0.0999567
0.0999616
0.0999617
0.0999586
0.0999607
0.0993473
0.0993538
0.0999578
0.0999628
0.0999576
0.099959
0.0999613
0.0999562
0.0999614
0.099956
0.0999622
0.0999561
0.0999619
0.0999558
0.0999603
0.0999545
0.0999556
0.0999599
0.0999557
0.0999615
0.099956
0.0999622
0.099956
0.0999615
0.0999561
0.0999612
0.0999571
0.0999576
0.0999629
0.0999571
0.0993539
0.099348
0.09996
0.0999585
0.0999626
0.0999571
0.0999619
0.099956
0.099962
0.0999558
0.0999626
0.099956
0.099962
0.0999556
0.0999596
0.0999544
0.0999581
0.0999544
0.0999583
0.0999548
0.0999609
0.0999554
0.0999608
0.0999554
0.0999602
0.0999558
0.0999604
0.0999614
0.099958
0.099961
0.0993472
0.138246
0.221516
0.247518
0.207887
0.142411
0.149486
0.134805
0.131411
0.124317
0.118926
0.114843
0.111885
0.10877
0.102067
0.101297
0.107246
0.10586
0.105184
0.104568
0.104131
0.103724
0.103273
0.102995
0.102642
0.102445
0.1021
0.10192
0.101743
0.101506
0.101451
0.101194
0.101193
0.101051
0.100875
0.100902
0.100726
0.100677
0.100746
0.100532
0.100624
0.100467
0.100451
0.10043
0.0996034
0.0994605
0.100107
0.100109
0.100095
0.10008
0.100064
0.100044
0.10003
0.100011
0.0999962
0.0999817
0.0999741
0.09997
0.0999681
0.0999667
0.0999679
0.0999671
0.0999691
0.0999683
0.0999699
0.0999681
0.0999699
0.0999683
0.0999694
0.0999684
0.0999685
0.0999679
0.0999681
0.099969
0.0993552
0.0993547
0.0999697
0.0999694
0.0999684
0.0999686
0.0999693
0.0999682
0.0999693
0.0999681
0.0999695
0.099968
0.0999698
0.0999677
0.0999682
0.099967
0.0999683
0.0999672
0.0999694
0.0999683
0.0999701
0.0999681
0.09997
0.0999682
0.0999693
0.0999684
0.0999685
0.0999678
0.0999677
0.099969
0.0993548
0.099355
0.0999697
0.0999695
0.0999683
0.0999687
0.0999691
0.0999684
0.0999691
0.0999682
0.0999696
0.0999681
0.0999699
0.0999677
0.0999679
0.0999687
0.0999671
0.0999685
0.0999678
0.0999701
0.0999681
0.0999699
0.0999682
0.0999693
0.0999684
0.0999692
0.0999687
0.0999683
0.0999694
0.0999696
0.099355
0.0993558
0.0999703
0.0999689
0.0999678
0.099969
0.0999686
0.0999695
0.0999682
0.0999696
0.0999681
0.0999694
0.0999684
0.0999687
0.0999677
0.0999673
0.0999684
0.0999674
0.0999694
0.0999684
0.0999701
0.0999682
0.0999699
0.0999683
0.0999693
0.0999684
0.0999684
0.0999678
0.0999679
0.099969
0.0993551
0.099355
0.0999695
0.0999693
0.0999683
0.0999687
0.0999692
0.0999684
0.0999695
0.0999683
0.09997
0.0999682
0.0999704
0.099968
0.099969
0.0999676
0.0999687
0.0999677
0.0999692
0.0999686
0.0999686
0.0999676
0.099969
0.0999683
0.0999693
0.0999686
0.0999688
0.0999679
0.0999685
0.0999699
0.0993553
0.0993549
0.0999694
0.099969
0.0999692
0.0999687
0.0999697
0.0999682
0.0999699
0.0999681
0.0999701
0.099968
0.0999698
0.0999675
0.0999682
0.0999669
0.099968
0.099967
0.0999692
0.0999682
0.09997
0.099968
0.09997
0.0999683
0.0999693
0.0999683
0.0999684
0.0999678
0.0999679
0.099969
0.0993551
0.0993544
0.0999706
0.0999688
0.0999686
0.0999678
0.0999698
0.0999682
0.0999699
0.0999681
0.09997
0.0999679
0.0999697
0.0999675
0.0999682
0.0999669
0.0999681
0.0999671
0.0999692
0.0999682
0.09997
0.0999681
0.09997
0.0999683
0.0999693
0.0999683
0.0999684
0.0999678
0.0999678
0.099969
0.0993549
0.0993548
0.0999686
0.0999681
0.0999678
0.0999685
0.0999681
0.0999697
0.0999682
0.0999702
0.0999681
0.0999701
0.0999682
0.0999694
0.0999674
0.0999686
0.0999676
0.0999682
0.0999679
0.099969
0.0999685
0.0999683
0.0999691
0.0999683
0.0999695
0.0999688
0.0999693
0.0999682
0.0999695
0.0999705
0.099355
0.0993549
0.0999688
0.0999678
0.0999683
0.0999675
0.0999697
0.0999681
0.09997
0.0999681
0.0999702
0.0999679
0.0999698
0.0999675
0.0999683
0.0999669
0.099968
0.0999671
0.0999692
0.0999683
0.0999698
0.099968
0.0999697
0.0999681
0.0999692
0.0999685
0.0999684
0.0999678
0.0999679
0.0999689
0.0993551
0.0993549
0.0999692
0.099969
0.099968
0.0999692
0.0999693
0.0999681
0.0999696
0.0999681
0.09997
0.0999679
0.09997
0.0999676
0.0999682
0.099967
0.0999669
0.0999678
0.0999675
0.0999697
0.0999678
0.0999699
0.0999679
0.0999695
0.0999679
0.0999691
0.0999684
0.0999679
0.0999689
0.0999691
0.0993548
0.0993549
0.0999696
0.0999681
0.0999686
0.0999676
0.0999699
0.0999679
0.0999702
0.099968
0.0999705
0.099968
0.0999699
0.0999671
0.0999682
0.0999661
0.099967
0.0999659
0.0999677
0.0999673
0.0999688
0.0999673
0.0999689
0.0999674
0.0999683
0.0999676
0.0999684
0.0999676
0.0999677
0.0999692
0.099355
0.14659
0.220034
0.241504
0.249415
0.206229
0.15761
0.139454
0.140444
0.135478
0.127245
0.121037
0.116705
0.112552
0.102981
0.101995
0.111262
0.108995
0.107468
0.10625
0.10545
0.104813
0.10412
0.103654
0.103218
0.102849
0.102504
0.102209
0.102012
0.101699
0.101658
0.101356
0.101243
0.101138
0.100958
0.100981
0.100825
0.100743
0.100728
0.100609
0.100588
0.100468
0.100519
0.100423
0.0996047
0.0994599
0.100158
0.100145
0.100125
0.100113
0.100103
0.100079
0.10006
0.10004
0.100023
0.100005
0.0999924
0.099983
0.0999811
0.099979
0.0999785
0.0999792
0.099979
0.0999805
0.09998
0.0999807
0.0999805
0.0999811
0.0999803
0.0999812
0.0999801
0.0999792
0.0999793
0.0999785
0.0993385
0.0993403
0.0999795
0.0999793
0.099979
0.0999798
0.0999802
0.0999809
0.0999801
0.099981
0.0999799
0.0999805
0.0999798
0.0999798
0.0999786
0.0999794
0.0999787
0.0999796
0.0999792
0.0999807
0.0999801
0.0999808
0.0999806
0.0999811
0.0999803
0.0999811
0.0999804
0.0999789
0.099979
0.0999784
0.0993386
0.0993401
0.0999794
0.0999792
0.0999795
0.0999797
0.0999808
0.0999808
0.09998
0.099981
0.0999799
0.0999806
0.0999798
0.0999799
0.0999786
0.0999796
0.0999794
0.0999789
0.09998
0.09998
0.0999806
0.0999801
0.0999811
0.0999801
0.0999809
0.0999808
0.0999798
0.0999794
0.0999792
0.0999793
0.0993401
0.099339
0.0999798
0.0999788
0.0999794
0.0999798
0.0999812
0.0999805
0.099981
0.0999803
0.0999805
0.0999796
0.0999802
0.0999796
0.0999784
0.0999794
0.0999788
0.0999797
0.0999793
0.0999807
0.0999801
0.0999808
0.0999806
0.0999811
0.0999803
0.0999811
0.0999801
0.0999791
0.0999792
0.0999785
0.0993386
0.0993401
0.0999793
0.0999792
0.0999793
0.0999798
0.0999807
0.099981
0.0999802
0.0999812
0.0999802
0.0999807
0.0999802
0.0999802
0.099979
0.0999798
0.0999788
0.0999795
0.0999791
0.0999804
0.0999794
0.09998
0.0999803
0.0999807
0.0999805
0.0999812
0.0999798
0.0999791
0.0999785
0.0999793
0.0993388
0.0993403
0.0999794
0.0999791
0.0999798
0.09998
0.0999802
0.099981
0.0999804
0.0999811
0.0999803
0.0999806
0.0999798
0.0999798
0.0999786
0.0999793
0.0999785
0.0999795
0.0999791
0.0999806
0.09998
0.0999807
0.0999806
0.0999811
0.0999803
0.0999811
0.09998
0.099979
0.0999792
0.0999784
0.0993386
0.0993396
0.0999792
0.0999792
0.0999786
0.0999801
0.0999805
0.0999812
0.0999805
0.0999813
0.0999803
0.0999805
0.0999797
0.0999797
0.0999786
0.0999793
0.0999786
0.0999795
0.0999791
0.0999806
0.09998
0.0999808
0.0999806
0.0999811
0.0999803
0.0999811
0.0999801
0.099979
0.0999791
0.0999784
0.0993386
0.0993385
0.0999783
0.0999785
0.0999792
0.0999795
0.099981
0.0999805
0.0999812
0.0999808
0.099981
0.0999802
0.0999806
0.0999792
0.0999797
0.0999789
0.0999796
0.0999785
0.0999797
0.0999794
0.0999801
0.09998
0.0999801
0.0999806
0.0999803
0.0999812
0.0999797
0.0999794
0.0999792
0.0999802
0.0993399
0.0993387
0.0999786
0.0999791
0.0999786
0.0999801
0.0999806
0.0999812
0.0999806
0.0999812
0.0999803
0.0999806
0.0999798
0.0999798
0.0999787
0.0999794
0.0999786
0.0999795
0.0999791
0.0999806
0.0999799
0.0999807
0.0999804
0.0999809
0.0999802
0.0999811
0.0999801
0.099979
0.0999792
0.0999785
0.0993386
0.0993403
0.0999792
0.0999791
0.0999788
0.0999803
0.0999803
0.0999809
0.0999803
0.0999811
0.0999802
0.0999806
0.09998
0.0999799
0.0999787
0.099979
0.0999788
0.0999786
0.0999798
0.0999799
0.0999805
0.0999802
0.099981
0.0999802
0.0999808
0.0999799
0.0999796
0.0999787
0.0999789
0.099979
0.0993402
0.0993387
0.0999792
0.0999794
0.0999789
0.0999802
0.0999808
0.0999812
0.099981
0.0999812
0.0999807
0.0999804
0.0999796
0.0999793
0.0999784
0.0999785
0.0999779
0.0999787
0.0999788
0.09998
0.0999789
0.0999799
0.0999795
0.0999806
0.0999795
0.0999803
0.0999801
0.0999787
0.0999792
0.0999785
0.0993387
0.155301
0.216248
0.247711
0.244396
0.205472
0.171044
0.151988
0.145254
0.147855
0.137402
0.127874
0.121421
0.118236
0.104992
0.103469
0.119092
0.114482
0.110781
0.108446
0.106938
0.105938
0.104998
0.104348
0.103801
0.103294
0.102887
0.102523
0.102284
0.101902
0.101806
0.101522
0.101348
0.101268
0.101074
0.100976
0.100907
0.10079
0.100697
0.100692
0.100563
0.100536
0.10055
0.100431
0.0996924
0.099501
0.100099
0.100129
0.100136
0.100125
0.100127
0.100104
0.100089
0.100065
0.100049
0.100025
0.100013
0.0999999
0.0999968
0.0999938
0.0999929
0.0999943
0.0999937
0.0999936
0.0999927
0.099993
0.0999928
0.0999931
0.0999924
0.099993
0.0999922
0.0999908
0.0999914
0.0999912
0.0993364
0.099336
0.0999919
0.0999914
0.099991
0.0999924
0.0999924
0.0999929
0.0999924
0.0999932
0.0999923
0.0999931
0.0999928
0.0999942
0.0999935
0.0999933
0.0999927
0.0999944
0.0999937
0.0999937
0.0999928
0.0999931
0.0999929
0.0999931
0.0999924
0.099993
0.0999923
0.0999907
0.0999914
0.099991
0.0993363
0.0993362
0.0999918
0.0999915
0.0999912
0.0999921
0.0999925
0.0999929
0.0999923
0.0999933
0.0999923
0.0999932
0.0999929
0.0999944
0.0999936
0.0999934
0.0999933
0.0999937
0.0999944
0.099993
0.0999933
0.0999925
0.0999934
0.0999925
0.099993
0.0999926
0.0999923
0.0999911
0.0999915
0.0999917
0.0993362
0.0993364
0.0999917
0.0999909
0.099991
0.099992
0.099993
0.0999924
0.099993
0.0999927
0.0999928
0.0999924
0.0999932
0.0999939
0.0999933
0.0999932
0.0999928
0.0999944
0.0999938
0.0999937
0.0999928
0.0999931
0.0999929
0.0999931
0.0999924
0.099993
0.0999921
0.0999907
0.0999914
0.0999911
0.0993364
0.0993362
0.0999917
0.0999914
0.099991
0.0999924
0.0999926
0.0999931
0.0999925
0.0999934
0.0999925
0.0999934
0.0999931
0.0999946
0.0999939
0.0999937
0.0999927
0.0999941
0.0999936
0.0999931
0.0999923
0.0999922
0.0999926
0.0999927
0.0999924
0.0999927
0.0999919
0.0999909
0.0999911
0.0999916
0.0993365
0.0993359
0.0999918
0.0999913
0.0999912
0.0999927
0.0999925
0.0999931
0.0999927
0.0999934
0.0999926
0.0999933
0.0999928
0.0999943
0.0999936
0.0999934
0.0999926
0.0999943
0.0999936
0.0999936
0.0999927
0.099993
0.0999928
0.0999931
0.0999924
0.099993
0.0999921
0.0999907
0.0999914
0.099991
0.0993364
0.0993359
0.0999917
0.0999913
0.0999906
0.0999925
0.0999925
0.0999931
0.0999927
0.0999934
0.0999925
0.0999932
0.0999927
0.0999942
0.0999935
0.0999934
0.0999926
0.0999943
0.0999937
0.0999936
0.0999927
0.099993
0.0999928
0.0999931
0.0999924
0.099993
0.0999921
0.0999907
0.0999914
0.099991
0.0993363
0.0993366
0.0999908
0.0999912
0.099991
0.0999919
0.0999929
0.0999925
0.0999932
0.0999929
0.0999932
0.0999928
0.0999935
0.0999937
0.0999944
0.0999928
0.0999933
0.0999934
0.099994
0.0999926
0.0999927
0.0999924
0.0999925
0.0999928
0.0999925
0.0999929
0.0999921
0.0999912
0.0999914
0.099992
0.0993361
0.0993363
0.0999912
0.0999912
0.0999906
0.0999924
0.0999926
0.0999931
0.0999927
0.0999934
0.0999926
0.0999933
0.0999928
0.0999943
0.0999936
0.0999934
0.0999926
0.0999943
0.0999936
0.0999936
0.0999926
0.099993
0.0999927
0.099993
0.0999923
0.099993
0.0999921
0.0999906
0.0999913
0.0999911
0.0993364
0.0993361
0.0999916
0.0999913
0.099991
0.0999927
0.0999924
0.099993
0.0999926
0.0999934
0.0999925
0.0999933
0.099993
0.0999942
0.0999937
0.0999932
0.099993
0.0999936
0.0999942
0.0999929
0.0999932
0.0999924
0.0999932
0.0999924
0.0999928
0.0999921
0.0999922
0.0999907
0.0999909
0.0999912
0.099336
0.0993361
0.0999919
0.0999917
0.0999912
0.0999928
0.099993
0.0999934
0.0999932
0.0999937
0.0999932
0.0999934
0.0999929
0.0999931
0.0999928
0.0999931
0.0999924
0.0999929
0.0999927
0.0999931
0.0999916
0.0999922
0.0999915
0.0999925
0.0999916
0.099992
0.0999906
0.0999897
0.099991
0.0999903
0.0993365
0.162172
0.219096
0.253898
0.269366
0.221871
0.174646
0.159569
0.166878
0.168762
0.161194
0.149485
0.144617
0.147856
0.161309
0.109021
0.105678
0.152362
0.149812
0.134144
0.122087
0.11516
0.111084
0.108592
0.106904
0.105645
0.104781
0.104023
0.103506
0.10303
0.102733
0.102262
0.102095
0.101781
0.101558
0.101386
0.101201
0.101072
0.101004
0.100883
0.100767
0.100788
0.100575
0.100565
0.100482
0.100387
0.100353
0.0995098
0.0996353
0.100301
0.100328
0.10027
0.100224
0.100184
0.10016
0.10014
0.100114
0.100095
0.10007
0.100051
0.100036
0.100018