/*--------------------------------*- C++ -*----------------------------------*\
| =========                 |                                                 |
| \\      /  F ield         | OpenFOAM: The Open Source CFD Toolbox           |
|  \\    /   O peration     | Version:  2.1.1                                 |
|   \\  /    A nd           | Web:      www.OpenFOAM.org                      |
|    \\/     M anipulation  |                                                 |
\*---------------------------------------------------------------------------*/
FoamFile
{
    version     2.0;
    format      ascii;
    class       volScalarField;
    location    "0.000600000";
    object      O;
}
// * * * * * * * * * * * * * * * * * * * * * * * * * * * * * * * * * * * * * //

dimensions      [0 0 0 0 0 0 0];

internalField   nonuniform List<scalar> 
12384
(
4.51846e-07
2.4503e-07
3.92948e-08
9.10135e-10
1.75442e-11
3.43655e-13
5.88075e-15
9.53932e-17
1.50958e-18
2.00702e-20
2.23069e-22
2.18558e-24
1.90139e-26
1.49976e-28
3.36392e-43
2.39521e-44
1.57866e-46
9.15927e-49
4.83586e-51
2.32668e-53
1.03748e-55
4.36211e-58
1.75365e-60
6.87936e-63
2.68788e-65
1.04408e-67
4.09241e-70
1.59922e-72
6.30848e-75
2.4785e-77
9.93756e-80
4.02995e-82
1.71018e-84
7.61272e-87
3.65206e-89
1.8711e-91
1.01991e-93
5.77042e-96
3.296e-98
1.87722e-100
1.04188e-102
5.632e-105
2.94469e-107
1.48815e-109
5.14521e-119
4.87888e-120
6.43715e-122
5.86778e-124
4.2694e-126
2.65665e-128
1.47291e-130
7.48002e-133
3.50735e-135
1.52519e-137
6.17093e-140
2.33928e-142
8.43031e-145
2.93363e-147
9.83481e-150
3.11944e-152
9.32888e-155
2.651e-157
7.22432e-160
1.90462e-162
4.87811e-165
1.2174e-167
1.75291e-170
1.91196e-174
1.08951e-177
1.63439e-180
2.82999e-183
4.31261e-186
5.29204e-189
5.76549e-193
5.729e-210
8.71021e-208
1.96927e-210
2.40602e-213
2.17689e-216
1.63418e-219
1.11977e-222
7.11563e-226
4.32302e-229
2.54944e-232
1.44827e-235
8.16438e-239
4.65795e-242
2.87857e-245
1.83892e-248
1.06812e-251
5.18536e-255
2.28639e-258
9.33778e-262
3.67948e-265
1.38315e-268
5.0365e-272
1.76497e-275
6.07122e-279
2.02908e-282
6.76311e-286
2.24825e-289
7.41512e-293
2.37276e-296
1.89344e-300
4.94066e-324
4.24896e-322
0
0
0
0
0
0
0
0
0
0
0
0
0
0
0
0
0
0
0
0
0
0
0
0
0
0
0
0
0
0
0
0
0
0
0
0
0
0
0
0
0
0
0
0
0
0
0
0
0
0
0
0
0
0
0
0
0
0
0
0
0
0
0
0
0
0
0
0
0
0
0
0
0
0
0
0
0
0
0
0
0
0
0
0
0
0
0
0
0
0
0
0
0
0
0
0
0
0
0
0
0
0
0
0
0
0
0
0
0
0
0
0
0
0
0
0
0
0
0
0
0
0
0
0
0
0
0
0
0
0
0
0
0
0
0
0
0
0
0
0
0
0
0
0
0
0
0
0
0
0
0
0
0
0
0
0
0
0
0
0
0
0
0
0
0
0
0
0
0
0
0
0
0
0
0
0
0
0
0
0
0
0
0
0
0
0
0
0
0
0
0
0
0
0
0
0
0
0
0
0
0
0
0
0
0
0
0
0
0
0
0
0
0
0
0
0
0
0
0
0
0
0
0
0
0
0
0
0
0
0
0
0
0
0
0
0
0
0
0
0
0
0
0
0
0
0
0
0
0
0
0
0
0
0
0
0
0
0
0
0
0
0
0
0
0
0
0
0
3.28121e-06
3.51618e-06
3.76673e-07
1.11011e-08
1.19364e-10
1.49845e-12
2.48477e-14
4.54848e-16
8.63192e-18
1.28815e-19
1.49678e-21
1.51522e-23
1.3641e-25
1.09699e-27
6.42824e-41
4.81464e-42
2.92745e-44
1.72405e-46
9.44526e-49
4.5088e-51
1.95276e-53
7.86154e-56
2.91753e-58
1.09038e-60
4.23052e-63
1.69673e-65
6.92618e-68
2.76296e-70
1.12545e-72
4.327e-75
1.68899e-77
6.57288e-80
2.4315e-82
9.62099e-85
3.73886e-87
1.58691e-89
7.45718e-92
3.73227e-94
2.07834e-96
1.18817e-98
6.60882e-101
3.78671e-103
2.00946e-105
1.02015e-107
1.45364e-116
7.86528e-118
9.67688e-120
8.84337e-122
6.66464e-124
4.38371e-126
2.62454e-128
1.46435e-130
7.65494e-133
3.73877e-135
1.68836e-137
6.96486e-140
2.64945e-142
9.5884e-145
3.32106e-147
1.07008e-149
3.20698e-152
9.06828e-155
2.4731e-157
6.53998e-160
1.69018e-162
4.25562e-165
1.05074e-167
1.35746e-170
6.53617e-174
9.43749e-177
1.70172e-179
2.71359e-182
3.47908e-185
6.12733e-189
1.41448e-205
7.721e-204
1.71485e-206
2.09514e-209
1.88012e-212
1.39547e-215
9.29682e-219
5.6723e-222
3.28051e-225
1.81847e-228
9.82302e-232
5.21889e-235
2.82415e-238
1.60886e-241
9.71374e-245
5.54063e-248
2.79532e-251
1.26148e-254
5.3248e-258
2.1419e-261
8.3419e-265
3.12765e-268
1.13787e-271
4.01207e-275
1.37866e-278
4.6583e-282
1.56882e-285
5.23975e-289
1.72447e-292
2.27127e-296
8.74447e-320
4.04478e-318
8.409e-321
9.88131e-324
0
0
0
0
0
0
0
0
0
0
0
0
0
0
0
0
0
0
0
0
0
0
0
0
0
0
0
0
0
0
0
0
0
0
0
0
0
0
0
0
0
0
0
0
0
0
0
0
0
0
0
0
0
0
0
0
0
0
0
0
0
0
0
0
0
0
0
0
0
0
0
0
0
0
0
0
0
0
0
0
0
0
0
0
0
0
0
0
0
0
0
0
0
0
0
0
0
0
0
0
0
0
0
0
0
0
0
0
0
0
0
0
0
0
0
0
0
0
0
0
0
0
0
0
0
0
0
0
0
0
0
0
0
0
0
0
0
0
0
0
0
0
0
0
0
0
0
0
0
0
0
0
0
0
0
0
0
0
0
0
0
0
0
0
0
0
0
0
0
0
0
0
0
0
0
0
0
0
0
0
0
0
0
0
0
0
0
0
0
0
0
0
0
0
0
0
0
0
0
0
0
0
0
0
0
0
0
0
0
0
0
0
0
0
0
0
0
0
0
0
0
0
0
0
0
0
0
0
0
0
0
0
0
0
0
0
0
0
0
0
0
0
0
0
0
0
0
0
0
0
0
0
0
0
0
0
0
0
0
0
0
0
0
0
0
0
1.64424e-09
2.33673e-09
1.66809e-10
3.34653e-11
1.87418e-13
2.2453e-14
5.89924e-17
1.05333e-19
9.80079e-23
2.42984e-25
5.205e-28
7.83817e-30
1.75953e-31
2.17186e-33
3.79103e-44
3.61368e-45
2.30537e-47
1.10927e-49
6.6289e-52
2.24418e-54
1.12094e-56
3.25878e-59
1.2417e-61
4.38841e-64
1.78939e-66
7.12717e-69
3.36258e-71
1.28917e-73
5.81674e-76
2.51362e-78
9.7817e-81
4.06393e-83
1.51823e-85
5.80119e-88
2.12517e-90
8.21147e-93
2.76783e-95
1.04263e-97
3.51699e-100
1.32515e-102
5.32547e-105
1.88646e-107
9.3517e-110
1.41334e-112
5.32503e-120
3.16375e-121
2.82781e-123
2.22776e-125
1.55087e-127
1.08694e-129
7.24786e-132
5.00782e-134
3.22899e-136
2.02363e-138
1.14459e-140
5.69349e-143
2.33377e-145
8.43522e-148
2.84755e-150
8.66965e-153
2.45105e-155
6.64192e-158
1.8037e-160
4.82666e-163
1.28351e-165
3.29793e-168
8.41125e-171
2.09106e-173
4.84527e-176
9.31057e-179
1.78346e-181
2.91196e-184
3.69363e-187
2.33814e-191
4.45834e-207
1.34878e-205
2.74468e-208
3.14793e-211
2.661e-214
1.87272e-217
1.17494e-220
6.66262e-224
3.53161e-227
1.76477e-230
8.50698e-234
3.99232e-237
1.91796e-240
9.56781e-244
5.0224e-247
2.51347e-250
1.1283e-253
4.62958e-257
1.85801e-260
7.42503e-264
2.98258e-267
1.17067e-270
4.52654e-274
1.68648e-277
6.07269e-281
2.13149e-284
7.45151e-288
2.55515e-291
8.58862e-295
4.20582e-299
2.79147e-321
7.36602e-320
1.43279e-322
0
0
0
0
0
0
0
0
0
0
0
0
0
0
0
0
0
0
0
0
0
0
0
0
0
0
0
0
0
0
0
0
0
0
0
0
0
0
0
0
0
0
0
0
0
0
0
0
0
0
0
0
0
0
0
0
0
0
0
0
0
0
0
0
0
0
0
0
0
0
0
0
0
0
0
0
0
0
0
0
0
0
0
0
0
0
0
0
0
0
0
0
0
0
0
0
0
0
0
0
0
0
0
0
0
0
0
0
0
0
0
0
0
0
0
0
0
0
0
0
0
0
0
0
0
0
0
0
0
0
0
0
0
0
0
0
0
0
0
0
0
0
0
0
0
0
0
0
0
0
0
0
0
0
0
0
0
0
0
0
0
0
0
0
0
0
0
0
0
0
0
0
0
0
0
0
0
0
0
0
0
0
0
0
0
0
0
0
0
0
0
0
0
0
0
0
0
0
0
0
0
0
0
0
0
0
0
0
0
0
0
0
0
0
0
0
0
0
0
0
0
0
0
0
0
0
0
0
0
0
0
0
0
0
0
0
0
0
0
0
0
0
0
0
0
0
0
0
0
0
0
0
0
0
0
0
0
0
0
0
0
0
0
0
0
0
0
0.000496768
0.00027307
2.32452e-06
1.44664e-08
1.39157e-09
8.47181e-10
3.57516e-12
3.40852e-15
1.06085e-18
5.40813e-22
5.27397e-25
4.09378e-28
4.26635e-31
8.87806e-34
2.4425e-39
2.08901e-40
9.9791e-43
5.73658e-45
2.42027e-47
1.01179e-49
3.26465e-52
1.07853e-54
2.99345e-57
9.39588e-60
2.86162e-62
1.24133e-64
4.28303e-67
1.86821e-69
7.14161e-72
2.73788e-74
9.91528e-77
4.3306e-79
1.4129e-81
6.14948e-84
1.9923e-86
7.4774e-89
2.73157e-91
9.56992e-94
3.52108e-96
1.28943e-98
4.61735e-101
1.92804e-103
6.81755e-106
2.51831e-108
1.12337e-115
1.25528e-117
6.30892e-120
3.80299e-122
2.34247e-124
1.45341e-126
9.32015e-129
5.97408e-131
3.88251e-133
2.45619e-135
1.51367e-137
8.58199e-140
4.03776e-142
1.50631e-144
5.05445e-147
1.60212e-149
4.87525e-152
1.43794e-154
4.11815e-157
1.15656e-159
3.18358e-162
8.6576e-165
2.31671e-167
6.13085e-170
1.59062e-172
3.9866e-175
8.03706e-178
1.39069e-180
1.89279e-183
4.16649e-187
4.96209e-202
1.09308e-201
1.93723e-204
1.99009e-207
1.55111e-210
1.0114e-213
5.78484e-217
3.00418e-220
1.44672e-223
6.60527e-227
2.89531e-230
1.23849e-233
5.20991e-237
2.18164e-240
9.135e-244
3.85028e-247
1.63253e-250
6.96793e-254
2.97322e-257
1.26578e-260
5.33026e-264
2.21951e-267
9.07788e-271
3.65345e-274
1.44093e-277
5.58267e-281
2.12239e-284
7.92389e-288
2.86436e-291
4.92238e-295
3.06285e-316
6.02572e-316
1.04121e-318
1.01283e-321
0
0
0
0
0
0
0
0
0
0
0
0
0
0
0
0
0
0
0
0
0
0
0
0
0
0
0
0
0
0
0
0
0
0
0
0
0
0
0
0
0
0
0
0
0
0
0
0
0
0
0
0
0
0
0
0
0
0
0
0
0
0
0
0
0
0
0
0
0
0
0
0
0
0
0
0
0
0
0
0
0
0
0
0
0
0
0
0
0
0
0
0
0
0
0
0
0
0
0
0
0
0
0
0
0
0
0
0
0
0
0
0
0
0
0
0
0
0
0
0
0
0
0
0
0
0
0
0
0
0
0
0
0
0
0
0
0
0
0
0
0
0
0
0
0
0
0
0
0
0
0
0
0
0
0
0
0
0
0
0
0
0
0
0
0
0
0
0
0
0
0
0
0
0
0
0
0
0
0
0
0
0
0
0
0
0
0
0
0
0
0
0
0
0
0
0
0
0
0
0
0
0
0
0
0
0
0
0
0
0
0
0
0
0
0
0
0
0
0
0
0
0
0
0
0
0
0
0
0
0
0
0
0
0
0
0
0
0
0
0
0
0
0
0
0
0
0
0
0
0
0
0
0
0
0
0
0
0
0
0
0
0
0
0
0
0
0.000585163
0.000592627
0.000642358
5.21402e-05
5.62714e-07
3.63374e-07
9.09067e-08
4.88749e-10
1.28161e-13
5.78204e-17
3.54657e-20
2.89901e-23
1.49205e-26
2.27374e-29
3.18369e-34
3.3467e-35
1.5904e-37
7.74525e-40
3.58425e-42
1.33563e-44
4.98155e-47
1.45002e-49
4.68619e-52
1.24161e-54
4.42034e-57
1.63568e-59
7.27306e-62
2.82216e-64
1.27838e-66
4.81585e-69
2.04446e-71
8.09738e-74
3.00683e-76
1.2436e-78
4.20873e-81
1.69274e-83
6.11221e-86
2.12088e-88
8.11407e-91
2.80735e-93
1.03788e-95
3.73957e-98
1.39423e-100
5.16964e-103
2.2971e-110
1.96675e-112
6.70712e-115
3.0613e-117
1.50879e-119
8.00744e-122
4.39916e-124
2.56607e-126
1.51117e-128
9.14215e-131
5.4805e-133
3.24555e-135
1.73925e-137
7.5489e-140
2.74259e-142
9.08758e-145
2.85789e-147
8.62631e-150
2.53245e-152
7.25327e-155
2.04653e-157
5.66799e-160
1.55082e-162
4.16954e-165
1.10345e-167
2.84634e-170
7.16931e-173
1.24806e-175
1.72773e-178
4.15846e-182
6.37793e-196
1.902e-196
2.72788e-199
2.38053e-202
1.62364e-205
9.46422e-209
4.92434e-212
2.33507e-215
1.03341e-218
4.31592e-222
1.73569e-225
6.76636e-229
2.60213e-232
9.91381e-236
3.78767e-239
1.45309e-242
5.63512e-246
2.1987e-249
8.64941e-253
3.39391e-256
1.32957e-259
5.13984e-263
1.96826e-266
7.40889e-270
2.75561e-273
1.00886e-276
3.64689e-280
1.30299e-283
4.52433e-287
8.23468e-291
3.79671e-310
1.03357e-310
1.47671e-313
1.24489e-316
8.02017e-320
4.44659e-323
0
0
0
0
0
0
0
0
0
0
0
0
0
0
0
0
0
0
0
0
0
0
0
0
0
0
0
0
0
0
0
0
0
0
0
0
0
0
0
0
0
0
0
0
0
0
0
0
0
0
0
0
0
0
0
0
0
0
0
0
0
0
0
0
0
0
0
0
0
0
0
0
0
0
0
0
0
0
0
0
0
0
0
0
0
0
0
0
0
0
0
0
0
0
0
0
0
0
0
0
0
0
0
0
0
0
0
0
0
0
0
0
0
0
0
0
0
0
0
0
0
0
0
0
0
0
0
0
0
0
0
0
0
0
0
0
0
0
0
0
0
0
0
0
0
0
0
0
0
0
0
0
0
0
0
0
0
0
0
0
0
0
0
0
0
0
0
0
0
0
0
0
0
0
0
0
0
0
0
0
0
0
0
0
0
0
0
0
0
0
0
0
0
0
0
0
0
0
0
0
0
0
0
0
0
0
0
0
0
0
0
0
0
0
0
0
0
0
0
0
0
0
0
0
0
0
0
0
0
0
0
0
0
0
0
0
0
0
0
0
0
0
0
0
0
0
0
0
0
0
0
0
0
0
0
0
0
0
0
0
0
0
0
0
0.000544497
0.000541917
0.000616275
0.000591296
0.000147698
5.66635e-05
1.24714e-05
8.99858e-07
1.10067e-09
1.1357e-12
8.67027e-16
5.80456e-19
3.8768e-22
3.41705e-25
1.25627e-29
1.5348e-30
7.78425e-33
3.72981e-35
1.49218e-37
5.76227e-40
1.97974e-42
6.87285e-45
2.05531e-47
6.0645e-50
1.65553e-52
6.09014e-55
2.50511e-57
1.02148e-59
4.46016e-62
1.77998e-64
7.35457e-67
2.97791e-69
1.11455e-71
4.61897e-74
1.67213e-76
6.62997e-79
2.35862e-81
8.73876e-84
3.14801e-86
1.13108e-88
4.1905e-91
1.45059e-93
5.34336e-96
1.80995e-98
8.51406e-106
7.16208e-108
2.23428e-110
8.87255e-113
3.76194e-115
1.69235e-117
8.08159e-120
4.04427e-122
2.13978e-124
1.15063e-126
6.47169e-129
3.63989e-131
1.9971e-133
9.64782e-136
3.96547e-138
1.40708e-140
4.60895e-143
1.43813e-145
4.32481e-148
1.2718e-150
3.66129e-153
1.03794e-155
2.88863e-158
7.92666e-161
2.13109e-163
5.60616e-166
1.44591e-168
3.61912e-171
5.08244e-174
1.21306e-177
2.42957e-190
1.12008e-191
1.25844e-194
9.02626e-198
5.25223e-201
2.69497e-204
1.25764e-207
5.44594e-211
2.20912e-214
8.52009e-218
3.15118e-221
1.13326e-224
3.9994e-228
1.40196e-231
4.9051e-235
1.72586e-238
6.11007e-242
2.18163e-245
7.81072e-249
2.7995e-252
9.95986e-256
3.50978e-259
1.21856e-262
4.18063e-266
1.41478e-269
4.7473e-273
1.58028e-276
5.2279e-280
1.69681e-283
2.70403e-287
1.39094e-304
5.88504e-306
6.68693e-309
4.73072e-312
2.65193e-315
1.27801e-318
5.53354e-322
0
0
0
0
0
0
0
0
0
0
0
0
0
0
0
0
0
0
0
0
0
0
0
0
0
0
0
0
0
0
0
0
0
0
0
0
0
0
0
0
0
0
0
0
0
0
0
0
0
0
0
0
0
0
0
0
0
0
0
0
0
0
0
0
0
0
0
0
0
0
0
0
0
0
0
0
0
0
0
0
0
0
0
0
0
0
0
0
0
0
0
0
0
0
0
0
0
0
0
0
0
0
0
0
0
0
0
0
0
0
0
0
0
0
0
0
0
0
0
0
0
0
0
0
0
0
0
0
0
0
0
0
0
0
0
0
0
0
0
0
0
0
0
0
0
0
0
0
0
0
0
0
0
0
0
0
0
0
0
0
0
0
0
0
0
0
0
0
0
0
0
0
0
0
0
0
0
0
0
0
0
0
0
0
0
0
0
0
0
0
0
0
0
0
0
0
0
0
0
0
0
0
0
0
0
0
0
0
0
0
0
0
0
0
0
0
0
0
0
0
0
0
0
0
0
0
0
0
0
0
0
0
0
0
0
0
0
0
0
0
0
0
0
0
0
0
0
0
0
0
0
0
0
0
0
0
0
0
0
0
0
0
0
0.000542815
0.000566105
0.000613917
0.000652021
0.000382016
0.000386672
0.000284292
4.64852e-05
1.85293e-06
4.1875e-09
8.07392e-12
9.36337e-15
7.0565e-18
4.36816e-21
8.68427e-26
9.54582e-27
7.36125e-29
4.12353e-31
1.98537e-33
8.4614e-36
3.52179e-38
1.30878e-40
4.86397e-43
1.44495e-45
4.65673e-48
1.49144e-50
6.55685e-53
2.74821e-55
1.23557e-57
5.18648e-60
2.18336e-62
9.17938e-65
3.65232e-67
1.49358e-69
5.78886e-72
2.27902e-74
8.53359e-77
3.2913e-79
1.16476e-81
4.34811e-84
1.57839e-86
5.35837e-89
1.97375e-91
6.79469e-94
3.54921e-101
2.50003e-103
8.38089e-106
3.20266e-108
1.28374e-110
5.3534e-113
2.29359e-115
1.04408e-117
4.9003e-120
2.43106e-122
1.22848e-124
6.43647e-127
3.34496e-129
1.64922e-131
7.36799e-134
2.87121e-136
9.99146e-139
3.24791e-141
1.00808e-143
3.04216e-146
8.96675e-149
2.59489e-151
7.37049e-154
2.05893e-156
5.64002e-159
1.51101e-161
3.96785e-164
1.01589e-166
2.50781e-169
7.94111e-173
1.84942e-184
1.1517e-186
9.54895e-190
5.457e-193
2.62905e-196
1.15413e-199
4.7503e-203
1.85278e-206
6.87674e-210
2.44348e-213
8.36091e-217
2.78049e-220
9.07073e-224
2.93591e-227
9.47477e-231
3.06723e-234
1.00071e-237
3.29703e-241
1.08965e-244
3.59994e-248
1.18269e-251
3.85453e-255
1.2441e-258
3.98306e-262
1.26556e-265
3.99044e-269
1.25324e-272
3.94019e-276
1.22211e-279
2.05818e-283
1.04358e-298
5.8397e-301
4.87292e-304
2.78168e-307
1.31684e-310
5.51772e-314
2.12743e-317
7.70248e-321
4.94066e-324
0
0
0
0
0
0
0
0
0
0
0
0
0
0
0
0
0
0
0
0
0
0
0
0
0
0
0
0
0
0
0
0
0
0
0
0
0
0
0
0
0
0
0
0
0
0
0
0
0
0
0
0
0
0
0
0
0
0
0
0
0
0
0
0
0
0
0
0
0
0
0
0
0
0
0
0
0
0
0
0
0
0
0
0
0
0
0
0
0
0
0
0
0
0
0
0
0
0
0
0
0
0
0
0
0
0
0
0
0
0
0
0
0
0
0
0
0
0
0
0
0
0
0
0
0
0
0
0
0
0
0
0
0
0
0
0
0
0
0
0
0
0
0
0
0
0
0
0
0
0
0
0
0
0
0
0
0
0
0
0
0
0
0
0
0
0
0
0
0
0
0
0
0
0
0
0
0
0
0
0
0
0
0
0
0
0
0
0
0
0
0
0
0
0
0
0
0
0
0
0
0
0
0
0
0
0
0
0
0
0
0
0
0
0
0
0
0
0
0
0
0
0
0
0
0
0
0
0
0
0
0
0
0
0
0
0
0
0
0
0
0
0
0
0
0
0
0
0
0
0
0
0
0
0
0
0
0
0
0
0
0
0.000546404
0.000593062
0.0006186
0.000525496
0.000267862
0.00031822
0.000358266
0.000391259
3.51825e-05
9.85319e-07
2.53796e-09
4.6627e-12
5.03076e-15
3.81059e-18
1.38959e-23
8.48888e-25
1.22364e-26
1.72532e-28
1.58461e-30
1.00006e-32
5.36242e-35
2.39685e-37
9.69988e-40
3.48445e-42
1.05092e-44
3.22338e-47
1.34696e-49
6.0839e-52
2.72005e-54
1.22305e-56
5.16277e-59
2.21643e-61
9.14221e-64
3.76328e-66
1.52592e-68
6.04374e-71
2.31453e-73
9.20993e-76
3.3117e-78
1.27238e-80
4.53318e-83
1.60802e-85
5.73373e-88
1.93872e-90
1.14456e-97
6.24794e-100
2.45694e-102
9.75525e-105
3.83036e-107
1.5462e-109
6.28313e-112
2.64684e-114
1.1571e-116
5.28482e-119
2.50126e-121
1.22344e-123
6.06579e-126
2.95405e-128
1.36236e-130
5.718e-133
2.15102e-135
7.39806e-138
2.39251e-140
7.44211e-143
2.2498e-145
6.65363e-148
1.92922e-150
5.4916e-153
1.5316e-155
4.17878e-158
1.11649e-160
2.90792e-163
7.37894e-166
1.59659e-168
2.03964e-179
1.92447e-182
1.08457e-185
4.7072e-189
1.81077e-192
6.55876e-196
2.30326e-199
7.89047e-203
2.63199e-206
8.51897e-210
2.67672e-213
8.19309e-217
2.46584e-220
7.37128e-224
2.19973e-227
6.58948e-231
1.99382e-234
6.10281e-238
1.87845e-241
5.7866e-245
1.77563e-248
5.40656e-252
1.63029e-255
4.87718e-259
1.44846e-262
4.26125e-266
1.25746e-269
3.7055e-273
1.06876e-276
1.74321e-280
1.19563e-293
9.63633e-297
5.24819e-300
2.26521e-303
8.66951e-307
3.05324e-310
1.01967e-313
3.27269e-317
1.01283e-320
4.94066e-324
0
0
0
0
0
0
0
0
0
0
0
0
0
0
0
0
0
0
0
0
0
0
0
0
0
0
0
0
0
0
0
0
0
0
0
0
0
0
0
0
0
0
0
0
0
0
0
0
0
0
0
0
0
0
0
0
0
0
0
0
0
0
0
0
0
0
0
0
0
0
0
0
0
0
0
0
0
0
0
0
0
0
0
0
0
0
0
0
0
0
0
0
0
0
0
0
0
0
0
0
0
0
0
0
0
0
0
0
0
0
0
0
0
0
0
0
0
0
0
0
0
0
0
0
0
0
0
0
0
0
0
0
0
0
0
0
0
0
0
0
0
0
0
0
0
0
0
0
0
0
0
0
0
0
0
0
0
0
0
0
0
0
0
0
0
0
0
0
0
0
0
0
0
0
0
0
0
0
0
0
0
0
0
0
0
0
0
0
0
0
0
0
0
0
0
0
0
0
0
0
0
0
0
0
0
0
0
0
0
0
0
0
0
0
0
0
0
0
0
0
0
0
0
0
0
0
0
0
0
0
0
0
0
0
0
0
0
0
0
0
0
0
0
0
0
0
0
0
0
0
0
0
0
0
0
0
0
0
0
0
0.00056665
0.000596331
0.000457718
0.000113676
5.20437e-05
0.000110452
0.000131439
0.00011609
2.46775e-05
3.42718e-06
4.63339e-08
2.79759e-10
1.2541e-12
2.87754e-15
1.1792e-17
5.88326e-20
2.57801e-22
1.06065e-24
9.07153e-27
1.13314e-28
1.49233e-30
1.50954e-32
1.20368e-34
9.5462e-37
6.86642e-39
4.80043e-41
2.90839e-43
1.76707e-45
9.38696e-48
4.9802e-50
2.47058e-52
1.15173e-54
5.33267e-57
2.32318e-59
9.90725e-62
4.24633e-64
1.73481e-66
7.13714e-69
2.90333e-71
1.13212e-73
4.48138e-76
1.6912e-78
6.37651e-81
2.34999e-83
8.48992e-86
3.06318e-88
1.03718e-90
4.08518e-93
1.92111e-95
8.93284e-98
3.75821e-100
1.5606e-102
6.30546e-105
2.54085e-107
1.03159e-109
4.12825e-112
1.74248e-114
7.34354e-117
3.24898e-119
1.49048e-121
6.87756e-124
3.24774e-126
1.50058e-128
6.60337e-131
2.67382e-133
9.87091e-136
3.37904e-138
1.09571e-140
3.42022e-143
1.03733e-145
3.07597e-148
8.93116e-151
2.54015e-153
7.06483e-156
1.92253e-158
5.11173e-161
1.32564e-163
3.29565e-166
7.51579e-169
1.20233e-172
5.9225e-176
2.73534e-179
9.80155e-183
3.15716e-186
9.60257e-190
2.86166e-193
8.56477e-197
2.58062e-200
7.76295e-204
2.30881e-207
6.75845e-211
1.9426e-214
5.50883e-218
1.55147e-221
4.36556e-225
1.23348e-228
3.51966e-232
1.0147e-235
2.94143e-239
8.53232e-243
2.46552e-246
7.05932e-250
2.00433e-253
5.64404e-257
1.5718e-260
4.29726e-264
1.15433e-267
3.02245e-271
7.62129e-275
1.8617e-278
2.75407e-282
1.56092e-286
3.8818e-290
1.38451e-293
4.43708e-297
1.38107e-300
4.20858e-304
1.25324e-307
3.6655e-311
1.05214e-314
2.95866e-318
8.15208e-322
0
0
0
0
0
0
0
0
0
0
0
0
0
0
0
0
0
0
0
0
0
0
0
0
0
0
0
0
0
0
0
0
0
0
0
0
0
0
0
0
0
0
0
0
0
0
0
0
0
0
0
0
0
0
0
0
0
0
0
0
0
0
0
0
0
0
0
0
0
0
0
0
0
0
0
0
0
0
0
0
0
0
0
0
0
0
0
0
0
0
0
0
0
0
0
0
0
0
0
0
0
0
0
0
0
0
0
0
0
0
0
0
0
0
0
0
0
0
0
0
0
0
0
0
0
0
0
0
0
0
0
0
0
0
0
0
0
0
0
0
0
0
0
0
0
0
0
0
0
0
0
0
0
0
0
0
0
0
0
0
0
0
0
0
0
0
0
0
0
0
0
0
0
0
0
0
0
0
0
0
0
0
0
0
0
0
0
0
0
0
0
0
0
0
0
0
0
0
0
0
0
0
0
0
0
0
0
0
0
0
0
0
0
0
0
0
0
0
0
0
0
0
0
0
0
0
0
0
0
0
0
0
0
0
0
0
0
0
0
0
0
0
0
0
0
0
0
0
0
0
0
0
0
0
0
0
0
0
0
0
0
0
0
0
0
0
0
0
0
0
0
0
0
0
0
0
0
0
0.000557553
0.00046004
6.55763e-05
6.34215e-06
6.01576e-06
2.17259e-05
4.28263e-05
3.75901e-05
8.65071e-06
8.54709e-07
8.99038e-09
6.18695e-11
4.24224e-13
3.93182e-15
1.68488e-17
6.20387e-20
1.42306e-22
4.89137e-25
3.26881e-27
3.45787e-29
3.56074e-31
3.8595e-33
3.4701e-35
2.97025e-37
2.31714e-39
1.72246e-41
1.13999e-43
8.40631e-46
5.53068e-48
3.44601e-50
2.19927e-52
1.18788e-54
6.78742e-57
3.54643e-59
1.7649e-61
8.84248e-64
4.17568e-66
1.90065e-68
8.77463e-71
3.72039e-73
1.61132e-75
6.67241e-78
2.76504e-80
1.11017e-82
4.49184e-85
1.79814e-87
6.94469e-90
2.68965e-92
1.05103e-94
4.36606e-97
1.83568e-99
7.91471e-102
3.5363e-104
1.60225e-106
7.47384e-109
3.50404e-111
1.66348e-113
7.88974e-116
3.76009e-118
1.78488e-120
8.4883e-123
3.99292e-125
1.85018e-127
8.25856e-130
3.46942e-132
1.34632e-134
4.84373e-137
1.64044e-139
5.30694e-142
1.6583e-144
5.04271e-147
1.49805e-149
4.35442e-152
1.23908e-154
3.45386e-157
9.43684e-160
2.52684e-162
6.63137e-165
1.68321e-167
4.39492e-170
1.69818e-173
5.07898e-177
1.42522e-180
3.72038e-184
9.23194e-188
2.25346e-191
5.60765e-195
1.44295e-198
3.81794e-202
1.02458e-205
2.75565e-209
7.3703e-213
1.95918e-216
5.19634e-220
1.37848e-223
3.67234e-227
9.8827e-231
2.68836e-234
7.34389e-238
2.00498e-241
5.44918e-245
1.47027e-248
3.94075e-252
1.04956e-255
2.77054e-259
7.21664e-263
1.86455e-266
4.78822e-270
1.21952e-273
3.04062e-277
8.42171e-281
2.78891e-284
8.34904e-288
2.0901e-291
5.31591e-295
1.34376e-298
3.38959e-302
8.55233e-306
2.16531e-309
5.49557e-313
1.39049e-316
3.50144e-320
9.88131e-324
0
0
0
0
0
0
0
0
0
0
0
0
0
0
0
0
0
0
0
0
0
0
0
0
0
0
0
0
0
0
0
0
0
0
0
0
0
0
0
0
0
0
0
0
0
0
0
0
0
0
0
0
0
0
0
0
0
0
0
0
0
0
0
0
0
0
0
0
0
0
0
0
0
0
0
0
0
0
0
0
0
0
0
0
0
0
0
0
0
0
0
0
0
0
0
0
0
0
0
0
0
0
0
0
0
0
0
0
0
0
0
0
0
0
0
0
0
0
0
0
0
0
0
0
0
0
0
0
0
0
0
0
0
0
0
0
0
0
0
0
0
0
0
0
0
0
0
0
0
0
0
0
0
0
0
0
0
0
0
0
0
0
0
0
0
0
0
0
0
0
0
0
0
0
0
0
0
0
0
0
0
0
0
0
0
0
0
0
0
0
0
0
0
0
0
0
0
0
0
0
0
0
0
0
0
0
0
0
0
0
0
0
0
0
0
0
0
0
0
0
0
0
0
0
0
0
0
0
0
0
0
0
0
0
0
0
0
0
0
0
0
0
0
0
0
0
0
0
0
0
0
0
0
0
0
0
0
0
0
0
0
0
0
0
0
0
0
0
0
0
0
0
0
0
0
0
0
0.000244575
6.98087e-05
1.75259e-06
3.19843e-07
7.29234e-07
4.67729e-06
1.18828e-05
7.83245e-06
2.03235e-06
1.23275e-07
1.18581e-09
6.21666e-12
3.50795e-14
2.06762e-16
8.575e-19
2.37193e-21
8.35841e-24
2.70021e-26
1.54774e-28
1.06256e-30
8.72429e-33
6.85156e-35
5.22786e-37
3.84497e-39
2.7169e-41
1.76795e-43
1.187e-45
7.97591e-48
5.00326e-50
2.88695e-52
1.7087e-54
9.21942e-57
4.81615e-59
2.52716e-61
1.21187e-63
5.85786e-66
2.76216e-68
1.2205e-70
5.52786e-73
2.34114e-75
9.87228e-78
4.16163e-80
1.67291e-82
6.89613e-85
2.74354e-87
1.12006e-89
4.42195e-92
1.70776e-94
6.62305e-97
2.6781e-99
1.10945e-101
4.77787e-104
2.10778e-106
9.6496e-109
4.50003e-111
2.14012e-113
1.02819e-115
4.96517e-118
2.40859e-120
1.16938e-122
5.69093e-125
2.76951e-127
1.33562e-129
6.27586e-132
2.81418e-134
1.18002e-136
4.58577e-139
1.66098e-141
5.68518e-144
1.86296e-146
5.90246e-149
1.81997e-151
5.47612e-154
1.60933e-156
4.62353e-159
1.29957e-161
3.5748e-164
9.59723e-167
2.6037e-169
6.62706e-172
2.16889e-175
5.35969e-179
1.25919e-182
2.94724e-186
7.25943e-190
1.91797e-193
5.32937e-197
1.50189e-200
4.19786e-204
1.15744e-207
3.16021e-211
8.59915e-215
2.34706e-218
6.45296e-222
1.7821e-225
4.92677e-229
1.3635e-232
3.76866e-236
1.03549e-239
2.82345e-243
7.62958e-247
2.04355e-250
5.44334e-254
1.44486e-257
3.80676e-261
9.88492e-265
2.54036e-268
6.47423e-272
1.63112e-275
3.97968e-279
1.14561e-282
3.81123e-286
1.06544e-289
2.53208e-293
6.14845e-297
1.49137e-300
3.62831e-304
8.88755e-308
2.18945e-311
5.40025e-315
1.32888e-318
3.26083e-322
0
0
0
0
0
0
0
0
0
0
0
0
0
0
0
0
0
0
0
0
0
0
0
0
0
0
0
0
0
0
0
0
0
0
0
0
0
0
0
0
0
0
0
0
0
0
0
0
0
0
0
0
0
0
0
0
0
0
0
0
0
0
0
0
0
0
0
0
0
0
0
0
0
0
0
0
0
0
0
0
0
0
0
0
0
0
0
0
0
0
0
0
0
0
0
0
0
0
0
0
0
0
0
0
0
0
0
0
0
0
0
0
0
0
0
0
0
0
0
0
0
0
0
0
0
0
0
0
0
0
0
0
0
0
0
0
0
0
0
0
0
0
0
0
0
0
0
0
0
0
0
0
0
0
0
0
0
0
0
0
0
0
0
0
0
0
0
0
0
0
0
0
0
0
0
0
0
0
0
0
0
0
0
0
0
0
0
0
0
0
0
0
0
0
0
0
0
0
0
0
0
0
0
0
0
0
0
0
0
0
0
0
0
0
0
0
0
0
0
0
0
0
0
0
0
0
0
0
0
0
0
0
0
0
0
0
0
0
0
0
0
0
0
0
0
0
0
0
0
0
0
0
0
0
0
0
0
0
0
0
0
0
0
0
0
0
0
0
0
0
0
0
0
0
0
0
0
0
9.37978e-06
5.63238e-07
6.21174e-08
5.87767e-08
1.22495e-07
7.31931e-07
1.89855e-06
2.15248e-06
3.10641e-07
1.4595e-08
3.69576e-11
2.39172e-13
1.0703e-15
4.61019e-18
1.14802e-20
3.23561e-23
9.50301e-26
2.25248e-28
1.06612e-30
6.15663e-33
4.29027e-35
3.01206e-37
2.16361e-39
1.47763e-41
1.06367e-43
7.55197e-46
4.85221e-48
3.04933e-50
1.87155e-52
1.03808e-54
5.82046e-57
3.1017e-59
1.54301e-61
7.8558e-64
3.70091e-66
1.7084e-68
7.9563e-71
3.41186e-73
1.52113e-75
6.34949e-78
2.63614e-80
1.09908e-82
4.3106e-85
1.7726e-87
6.8674e-90
2.74588e-92
1.08203e-94
4.23346e-97
1.711e-99
7.01611e-102
2.98143e-104
1.31807e-106
5.95215e-109
2.79178e-111
1.3237e-113
6.39587e-116
3.10407e-118
1.51476e-120
7.41481e-123
3.63405e-125
1.78696e-127
8.78061e-130
4.29864e-132
2.06842e-134
9.63497e-137
4.23231e-139
1.7141e-141
6.37957e-144
2.21957e-146
7.34526e-149
2.33999e-151
7.23238e-154
2.17745e-156
6.3956e-159
1.83694e-161
5.16741e-164
1.42413e-166
3.82742e-169
1.02453e-171
5.09684e-175
1.99559e-178
6.50599e-182
2.04379e-185
6.15291e-189
1.81198e-192
5.36194e-196
1.62372e-199
5.01384e-203
1.56491e-206
4.89875e-210
1.53032e-213
4.75164e-217
1.46429e-220
4.48606e-224
1.36309e-227
4.09956e-231
1.22038e-234
3.59534e-238
1.04892e-241
3.03949e-245
8.73608e-249
2.48535e-252
7.01554e-256
1.97147e-259
5.50963e-263
1.53174e-266
4.28606e-270
1.20949e-273
3.42479e-277
9.45354e-281
2.8878e-284
9.76914e-288
2.89647e-291
7.72387e-295
2.10983e-298
5.72516e-302
1.54481e-305
4.1523e-309
1.11196e-312
2.95788e-316
7.80031e-320
1.97626e-323
0
0
0
0
0
0
0
0
0
0
0
0
0
0
0
0
0
0
0
0
0
0
0
0
0
0
0
0
0
0
0
0
0
0
0
0
0
0
0
0
0
0
0
0
0
0
0
0
0
0
0
0
0
0
0
0
0
0
0
0
0
0
0
0
0
0
0
0
0
0
0
0
0
0
0
0
0
0
0
0
0
0
0
0
0
0
0
0
0
0
0
0
0
0
0
0
0
0
0
0
0
0
0
0
0
0
0
0
0
0
0
0
0
0
0
0
0
0
0
0
0
0
0
0
0
0
0
0
0
0
0
0
0
0
0
0
0
0
0
0
0
0
0
0
0
0
0
0
0
0
0
0
0
0
0
0
0
0
0
0
0
0
0
0
0
0
0
0
0
0
0
0
0
0
0
0
0
0
0
0
0
0
0
0
0
0
0
0
0
0
0
0
0
0
0
0
0
0
0
0
0
0
0
0
0
0
0
0
0
0
0
0
0
0
0
0
0
0
0
0
0
0
0
0
0
0
0
0
0
0
0
0
0
0
0
0
0
0
0
0
0
0
0
0
0
0
0
0
0
0
0
0
0
0
0
0
0
0
0
0
0
0
0
0
0
0
0
0
0
0
0
0
0
0
0
0
0
0
3.38419e-07
2.74384e-08
1.62266e-08
1.55548e-08
1.50326e-08
1.47045e-08
2.77919e-08
4.68573e-08
7.38206e-09
1.13972e-10
1.91819e-13
4.64754e-16
1.24065e-18
3.10642e-21
9.46272e-24
3.23083e-26
1.24076e-28
5.78234e-31
3.13884e-33
2.02042e-35
1.22528e-37
8.39083e-40
5.76092e-42
3.8602e-44
2.47562e-46
1.56962e-48
9.64902e-51
5.45882e-53
3.19174e-55
1.68089e-57
8.92125e-60
4.49983e-62
2.21353e-64
1.03738e-66
4.9376e-69
2.15086e-71
9.87092e-74
4.13293e-76
1.78723e-78
7.35622e-81
2.98847e-83
1.21448e-85
4.77201e-88
1.8901e-90
7.42751e-93
2.89707e-95
1.16202e-97
4.58766e-100
1.91384e-102
7.98898e-105
3.52993e-107
1.58692e-109
7.40012e-112
3.51234e-114
1.69375e-116
8.22802e-119
4.02065e-121
1.96772e-123
9.69135e-126
4.77945e-128
2.36926e-130
1.17427e-132
5.78449e-135
2.80661e-137
1.31632e-139
5.85712e-142
2.41126e-144
9.13584e-147
3.20338e-149
1.05824e-151
3.34991e-154
1.02602e-156
3.05656e-159
8.88761e-162
2.53026e-164
7.05266e-167
1.9247e-169
5.07437e-172
2.89406e-175
1.58205e-178
7.16919e-182
2.98223e-185
1.19061e-188
4.42718e-192
1.56097e-195
5.33998e-199
1.81101e-202
6.12806e-206
2.07447e-209
7.04126e-213
2.37717e-216
7.92344e-220
2.6126e-223
8.55043e-227
2.77388e-230
8.87004e-234
2.78634e-237
8.59315e-241
2.61157e-244
7.89487e-248
2.38589e-251
7.15972e-255
2.11967e-258
6.26113e-262
1.86991e-265
5.63464e-269
1.70751e-272
5.17583e-276
1.55817e-279
4.4416e-283
1.2792e-286
3.87234e-290
1.11369e-293
3.22759e-297
9.75394e-301
2.90595e-304
8.49873e-308
2.44027e-311
6.91483e-315
1.93381e-318
5.38532e-322
0
0
0
0
0
0
0
0
0
0
0
0
0
0
0
0
0
0
0
0
0
0
0
0
0
0
0
0
0
0
0
0
0
0
0
0
0
0
0
0
0
0
0
0
0
0
0
0
0
0
0
0
0
0
0
0
0
0
0
0
0
0
0
0
0
0
0
0
0
0
0
0
0
0
0
0
0
0
0
0
0
0
0
0
0
0
0
0
0
0
0
0
0
0
0
0
0
0
0
0
0
0
0
0
0
0
0
0
0
0
0
0
0
0
0
0
0
0
0
0
0
0
0
0
0
0
0
0
0
0
0
0
0
0
0
0
0
0
0
0
0
0
0
0
0
0
0
0
0
0
0
0
0
0
0
0
0
0
0
0
0
0
0
0
0
0
0
0
0
0
0
0
0
0
0
0
0
0
0
0
0
0
0
0
0
0
0
0
0
0
0
0
0
0
0
0
0
0
0
0
0
0
0
0
0
0
0
0
0
0
0
0
0
0
0
0
0
0
0
0
0
0
0
0
0
0
0
0
0
0
0
0
0
0
0
0
0
0
0
0
0
0
0
0
0
0
0
0
0
0
0
0
0
0
0
0
0
0
0
0
0
0
0
0
0
0
0
0
0
0
0
0
0
0
0
0
0
0
0
7.43248e-09
7.49055e-09
7.62207e-09
3.43987e-09
1.50743e-09
5.75446e-10
2.32264e-10
1.57932e-10
1.11702e-11
6.53422e-14
1.42172e-16
4.82445e-19
1.57426e-21
5.15226e-24
1.78965e-26
8.34917e-29
4.15527e-31
2.82935e-33
1.74427e-35
1.26549e-37
8.41121e-40
5.69465e-42
3.66731e-44
2.32183e-46
1.40688e-48
8.31219e-51
4.77509e-53
2.60218e-55
1.4111e-57
7.1615e-60
3.63508e-62
1.73664e-64
8.29687e-67
3.75753e-69
1.70646e-71
7.41515e-74
3.21033e-76
1.35301e-78
5.58065e-81
2.28938e-83
9.08337e-86
3.61834e-88
1.40897e-90
5.50676e-93
2.14548e-95
8.43093e-98
3.37338e-100
1.3751e-102
5.80154e-105
2.51958e-107
1.13311e-109
5.24425e-112
2.47701e-114
1.19156e-116
5.76677e-119
2.80691e-121
1.37167e-123
6.69553e-126
3.29699e-128
1.62031e-130
8.03342e-133
3.95919e-135
1.94656e-137
9.39113e-140
4.41422e-142
1.98886e-144
8.41133e-147
3.24371e-149
1.13624e-151
3.71152e-154
1.15852e-156
3.49555e-159
1.02576e-161
2.93847e-164
8.23573e-167
2.26057e-169
6.07849e-172
1.13461e-174
3.82273e-178
1.48557e-181
6.44421e-185
2.83559e-188
1.18989e-191
4.73081e-195
1.80352e-198
6.69897e-202
2.45345e-205
8.90193e-209
3.20219e-212
1.14007e-215
4.00587e-219
1.38687e-222
4.73181e-226
1.5929e-229
5.29661e-233
1.74082e-236
5.66012e-240
1.8221e-243
5.81406e-247
1.84136e-250
5.7943e-254
1.81174e-257
5.6314e-261
1.74266e-264
5.37655e-268
1.65441e-271
5.07757e-275
1.55354e-278
4.73702e-282
1.43447e-285
4.33898e-289
1.3094e-292
3.92788e-296
1.17598e-299
3.50679e-303
1.04033e-306
3.06641e-310
8.97113e-314
2.60413e-317
7.49498e-321
0
0
0
0
0
0
0
0
0
0
0
0
0
0
0
0
0
0
0
0
0
0
0
0
0
0
0
0
0
0
0
0
0
0
0
0
0
0
0
0
0
0
0
0
0
0
0
0
0
0
0
0
0
0
0
0
0
0
0
0
0
0
0
0
0
0
0
0
0
0
0
0
0
0
0
0
0
0
0
0
0
0
0
0
0
0
0
0
0
0
0
0
0
0
0
0
0
0
0
0
0
0
0
0
0
0
0
0
0
0
0
0
0
0
0
0
0
0
0
0
0
0
0
0
0
0
0
0
0
0
0
0
0
0
0
0
0
0
0
0
0
0
0
0
0
0
0
0
0
0
0
0
0
0
0
0
0
0
0
0
0
0
0
0
0
0
0
0
0
0
0
0
0
0
0
0
0
0
0
0
0
0
0
0
0
0
0
0
0
0
0
0
0
0
0
0
0
0
0
0
0
0
0
0
0
0
0
0
0
0
0
0
0
0
0
0
0
0
0
0
0
0
0
0
0
0
0
0
0
0
0
0
0
0
0
0
0
0
0
0
0
0
0
0
0
0
0
0
0
0
0
0
0
0
0
0
0
0
0
0
0
0
0
0
0
0
0
0
0
0
0
0
0
0
0
0
0
0
0
0
1.50842e-09
1.17476e-09
7.12741e-10
2.96628e-10
6.02168e-11
2.67056e-12
7.00716e-13
2.15943e-13
1.36398e-14
8.99138e-17
3.96881e-19
1.56121e-21
5.67108e-24
2.07621e-26
8.92229e-29
5.25814e-31
3.29545e-33
2.55814e-35
1.76013e-37
1.27179e-39
8.60285e-42
5.70291e-44
3.58719e-46
2.19831e-48
1.29197e-50
7.38487e-53
4.04882e-55
2.16315e-57
1.10857e-59
5.52336e-62
2.66875e-64
1.25421e-66
5.73411e-69
2.57842e-71
1.11851e-73
4.84684e-76
2.01576e-78
8.40996e-81
3.39055e-83
1.36059e-85
5.36609e-88
2.09185e-90
8.13433e-93
3.14724e-95
1.23031e-97
4.87109e-100
1.97386e-102
8.24771e-105
3.55625e-107
1.59054e-109
7.29741e-112
3.44293e-114
1.64301e-116
7.96041e-119
3.85636e-121
1.87651e-123
9.13629e-126
4.45382e-128
2.18214e-130
1.07056e-132
5.28277e-135
2.59999e-137
1.27593e-139
6.17135e-142
2.91603e-144
1.32677e-146
5.65609e-149
2.16512e-151
7.46995e-154
2.40568e-156
7.40445e-159
2.20257e-161
6.3716e-164
1.79902e-166
4.9695e-169
1.34474e-171
3.17721e-174
1.36504e-177
5.19274e-181
2.09232e-184
9.10848e-188
4.01999e-191
1.71894e-194
7.05163e-198
2.79572e-201
1.08305e-204
4.1324e-208
1.55777e-211
5.79934e-215
2.12887e-218
7.69521e-222
2.73803e-225
9.59548e-229
3.31644e-232
1.13199e-235
3.82008e-239
1.27582e-242
4.22059e-246
1.38401e-249
4.50181e-253
1.4536e-256
4.6621e-260
1.48612e-263
4.71103e-267
1.486e-270
4.66539e-274
1.45807e-277
4.53637e-281
1.405e-284
4.33081e-288
1.32863e-291
4.05623e-295
1.23184e-298
3.72049e-302
1.11709e-305
3.33293e-309
9.87566e-313