/*--------------------------------*- C++ -*----------------------------------*\
| =========                 |                                                 |
| \\      /  F ield         | OpenFOAM: The Open Source CFD Toolbox           |
|  \\    /   O peration     | Version:  2.1.1                                 |
|   \\  /    A nd           | Web:      www.OpenFOAM.org                      |
|    \\/     M anipulation  |                                                 |
\*---------------------------------------------------------------------------*/
FoamFile
{
    version     2.0;
    format      ascii;
    class       volScalarField;
    location    "0.000300000";
    object      H;
}
// * * * * * * * * * * * * * * * * * * * * * * * * * * * * * * * * * * * * * //

dimensions      [0 0 0 0 0 0 0];

internalField   nonuniform List<scalar> 
12384
(
4.66428e-09
3.04268e-09
2.38767e-10
3.25852e-12
4.2265e-14
4.38343e-16
3.78672e-18
2.84038e-20
1.83989e-22
1.04946e-24
5.33567e-27
2.32165e-29
1.02044e-31
3.86571e-34
7.88555e-51
1.27817e-52
8.17948e-55
5.30564e-57
3.48545e-59
2.23228e-61
1.36285e-63
7.81373e-66
4.20339e-68
2.11594e-70
9.92574e-73
4.34739e-75
1.7549e-77
6.55391e-80
2.29447e-82
7.39774e-85
2.17759e-87
5.96645e-90
1.54359e-92
3.79333e-95
8.8621e-98
1.96857e-100
4.17719e-103
8.50073e-106
1.66717e-108
3.16347e-111
5.83105e-114
1.04723e-116
1.82999e-119
2.81842e-122
3.01762e-134
9.36852e-135
4.067e-137
1.15661e-139
2.67036e-142
5.4424e-145
1.02232e-147
1.8135e-150
3.07159e-153
5.00112e-156
7.81209e-159
1.1745e-161
1.71377e-164
2.44564e-167
3.26681e-170
4.07319e-174
1.06562e-177
7.35585e-181
7.69179e-184
8.03479e-187
7.33468e-190
5.28338e-193
3.13028e-196
1.53884e-199
6.65897e-203
2.62551e-206
9.68209e-210
3.33161e-213
1.05019e-216
5.23805e-221
3.88384e-243
8.96014e-241
1.17699e-243
8.40804e-247
4.50272e-250
2.05654e-253
8.54306e-257
3.32944e-260
1.19452e-263
4.00562e-267
1.1888e-270
3.21443e-274
8.23572e-278
2.02865e-281
4.88001e-285
1.15428e-288
2.69515e-292
6.23208e-296
1.42063e-299
3.21626e-303
7.12843e-307
1.4487e-310
2.7347e-314
4.79074e-318
8.10268e-322
0
0
0
0
0
0
0
0
0
0
0
0
0
0
0
0
0
0
0
0
0
0
0
0
0
0
0
0
0
0
0
0
0
0
0
0
0
0
0
0
0
0
0
0
0
0
0
0
0
0
0
0
0
0
0
0
0
0
0
0
0
0
0
0
0
0
0
0
0
0
0
0
0
0
0
0
0
0
0
0
0
0
0
0
0
0
0
0
0
0
0
0
0
0
0
0
0
0
0
0
0
0
0
0
0
0
0
0
0
0
0
0
0
0
0
0
0
0
0
0
0
0
0
0
0
0
0
0
0
0
0
0
0
0
0
0
0
0
0
0
0
0
0
0
0
0
0
0
0
0
0
0
0
0
0
0
0
0
0
0
0
0
0
0
0
0
0
0
0
0
0
0
0
0
0
0
0
0
0
0
0
0
0
0
0
0
0
0
0
0
0
0
0
0
0
0
0
0
0
0
0
0
0
0
0
0
0
0
0
0
0
0
0
0
0
0
0
0
0
0
0
0
0
0
0
0
0
0
0
0
0
0
0
0
0
0
0
0
0
0
0
0
0
0
0
0
0
0
0
0
0
0
0
0
0
0
0
0
0
0
0
0
0
0
0
0
0
0
0
0
0
0
0
0
0
6.36577e-08
5.5252e-08
3.23899e-09
4.09492e-11
4.13085e-13
3.74258e-15
4.25978e-17
2.94442e-19
2.03565e-21
1.28317e-23
6.75483e-26
3.30683e-28
1.26607e-30
4.24027e-33
2.0716e-48
2.95284e-50
1.21758e-52
6.00549e-55
3.38249e-57
2.04024e-59
1.22743e-61
7.23235e-64
4.13533e-66
2.27815e-68
1.21484e-70
6.27225e-73
3.00841e-75
1.29859e-77
5.15532e-80
1.87807e-82
5.99776e-85
1.72021e-87
4.60936e-90
1.17206e-92
2.8316e-95
6.46057e-98
1.39862e-100
2.89876e-103
5.79104e-106
1.12176e-108
2.11933e-111
3.91595e-114
7.02943e-117
1.05699e-119
2.39112e-131
6.6651e-132
2.79204e-134
7.59668e-137
1.69013e-139
3.35044e-142
6.17016e-145
1.0809e-147
1.82229e-150
2.96676e-153
4.63683e-156
6.97513e-159
1.02073e-161
1.46349e-164
2.0688e-167
2.7687e-170
8.58131e-174
5.88729e-177
6.15051e-180
6.47e-183
6.00659e-186
4.52168e-189
2.81222e-192
1.47523e-195
6.72178e-199
2.7505e-202
1.04295e-205
3.69069e-209
1.20711e-212
1.07261e-216
1.86548e-238
1.39196e-236
1.75024e-239
1.21091e-242
6.30001e-246
2.78254e-249
1.10568e-252
4.0831e-256
1.41827e-259
4.64868e-263
1.38834e-266
3.80329e-270
9.8645e-274
2.45525e-277
5.93602e-281
1.40878e-284
3.2988e-288
7.62864e-292
1.73726e-295
3.91791e-299
8.6554e-303
1.79641e-306
3.48795e-310
6.39016e-314
1.12239e-317
1.9318e-321
0
0
0
0
0
0
0
0
0
0
0
0
0
0
0
0
0
0
0
0
0
0
0
0
0
0
0
0
0
0
0
0
0
0
0
0
0
0
0
0
0
0
0
0
0
0
0
0
0
0
0
0
0
0
0
0
0
0
0
0
0
0
0
0
0
0
0
0
0
0
0
0
0
0
0
0
0
0
0
0
0
0
0
0
0
0
0
0
0
0
0
0
0
0
0
0
0
0
0
0
0
0
0
0
0
0
0
0
0
0
0
0
0
0
0
0
0
0
0
0
0
0
0
0
0
0
0
0
0
0
0
0
0
0
0
0
0
0
0
0
0
0
0
0
0
0
0
0
0
0
0
0
0
0
0
0
0
0
0
0
0
0
0
0
0
0
0
0
0
0
0
0
0
0
0
0
0
0
0
0
0
0
0
0
0
0
0
0
0
0
0
0
0
0
0
0
0
0
0
0
0
0
0
0
0
0
0
0
0
0
0
0
0
0
0
0
0
0
0
0
0
0
0
0
0
0
0
0
0
0
0
0
0
0
0
0
0
0
0
0
0
0
0
0
0
0
0
0
0
0
0
0
0
0
0
0
0
0
0
0
0
0
0
0
0
0
0
0
0
0
0
0
0
0
8.18137e-15
2.55147e-14
4.44895e-16
1.02703e-18
1.73971e-21
7.44231e-24
2.54641e-26
6.54597e-29
1.40931e-31
2.87497e-34
1.41282e-37
2.06677e-40
9.34238e-43
4.86953e-45
1.19639e-55
4.54399e-57
9.51303e-60
3.31645e-62
1.09196e-64
4.87909e-67
2.32637e-69
1.36846e-71
8.61427e-74
6.7523e-76
4.92005e-78
3.98247e-80
2.66562e-82
1.47179e-84
6.29294e-87
2.65502e-89
9.6502e-92
2.89097e-94
7.86883e-97
2.01678e-99
4.87749e-102
1.10147e-104
2.34815e-107
4.79968e-110
9.47667e-113
1.83484e-115
3.4936e-118
6.43603e-121
1.11028e-123
8.22136e-128
3.04662e-138
2.80148e-138
1.14258e-140
2.96608e-143
6.29898e-146
1.21118e-148
2.19645e-151
3.78571e-154
6.27093e-157
1.00437e-159
1.53783e-162
2.27524e-165
3.33027e-168
4.8121e-171
6.8868e-174
9.75041e-177
1.35988e-179
1.58005e-182
1.83171e-185
1.944e-188
1.80438e-191
1.38172e-194
8.75973e-198
4.67229e-201
2.14184e-204
8.73299e-208
3.25541e-211
1.11524e-214
3.47887e-218
7.69736e-223
1.30261e-243
8.1859e-242
9.72906e-245
6.45903e-248
3.1944e-251
1.33417e-254
4.98598e-258
1.7007e-261
5.42093e-265
1.63796e-268
4.62298e-272
1.22296e-275
3.11959e-279
7.72654e-283
1.86457e-286
4.39109e-290
1.01341e-293
2.30225e-297
5.13621e-301
1.1343e-304
2.44223e-308
4.97439e-312
9.5999e-316
1.78214e-319
3.45846e-323
0
0
0
0
0
0
0
0
0
0
0
0
0
0
0
0
0
0
0
0
0
0
0
0
0
0
0
0
0
0
0
0
0
0
0
0
0
0
0
0
0
0
0
0
0
0
0
0
0
0
0
0
0
0
0
0
0
0
0
0
0
0
0
0
0
0
0
0
0
0
0
0
0
0
0
0
0
0
0
0
0
0
0
0
0
0
0
0
0
0
0
0
0
0
0
0
0
0
0
0
0
0
0
0
0
0
0
0
0
0
0
0
0
0
0
0
0
0
0
0
0
0
0
0
0
0
0
0
0
0
0
0
0
0
0
0
0
0
0
0
0
0
0
0
0
0
0
0
0
0
0
0
0
0
0
0
0
0
0
0
0
0
0
0
0
0
0
0
0
0
0
0
0
0
0
0
0
0
0
0
0
0
0
0
0
0
0
0
0
0
0
0
0
0
0
0
0
0
0
0
0
0
0
0
0
0
0
0
0
0
0
0
0
0
0
0
0
0
0
0
0
0
0
0
0
0
0
0
0
0
0
0
0
0
0
0
0
0
0
0
0
0
0
0
0
0
0
0
0
0
0
0
0
0
0
0
0
0
0
0
0
0
0
0
0
0
0
0
0
0
0
0
0
0
0
2.91359e-06
7.00792e-07
4.10015e-13
5.33764e-15
2.30465e-17
1.87008e-19
1.4223e-22
3.69015e-25
5.22077e-28
8.08317e-31
1.27877e-33
2.02192e-36
4.52895e-39
9.99904e-42
8.83609e-51
1.15246e-52
2.48644e-55
6.81851e-58
2.1062e-60
6.62751e-63
2.26112e-65
8.51549e-68
3.96836e-70
2.25635e-72
1.4805e-74
1.09055e-76
7.65731e-79
4.57315e-81
2.01205e-83
8.26297e-86
3.37958e-88
1.1602e-90
3.42898e-93
9.14772e-96
2.27449e-98
5.37183e-101
1.21987e-103
2.68337e-106
5.74131e-109
1.19718e-111
2.43604e-114
4.83447e-117
9.13078e-120
3.45608e-123
3.29537e-133
2.86866e-134
1.06414e-136
2.61608e-139
5.37374e-142
9.99753e-145
1.74943e-147
2.93739e-150
4.78092e-153
7.59092e-156
1.17884e-158
1.79336e-161
2.67871e-164
3.93322e-167
5.69276e-170
8.14565e-173
1.15295e-175
1.61203e-178
1.89965e-181
2.0061e-184
1.87093e-187
1.47627e-190
9.81403e-194
5.54303e-197
2.70459e-200
1.16522e-203
4.5353e-207
1.62837e-210
5.40281e-214
6.5366e-218
7.71221e-238
2.33341e-237
2.40456e-240
1.4315e-243
6.46602e-247
2.45858e-250
8.30497e-254
2.57585e-257
7.49644e-261
2.07748e-264
5.53795e-268
1.42942e-271
3.58757e-275
8.77864e-279
2.09771e-282
4.90079e-286
1.12041e-289
2.50838e-293
5.50352e-297
1.18415e-300
2.50023e-304
5.1841e-308
1.05612e-311
2.1157e-315
4.16962e-319
7.90505e-323
0
0
0
0
0
0
0
0
0
0
0
0
0
0
0
0
0
0
0
0
0
0
0
0
0
0
0
0
0
0
0
0
0
0
0
0
0
0
0
0
0
0
0
0
0
0
0
0
0
0
0
0
0
0
0
0
0
0
0
0
0
0
0
0
0
0
0
0
0
0
0
0
0
0
0
0
0
0
0
0
0
0
0
0
0
0
0
0
0
0
0
0
0
0
0
0
0
0
0
0
0
0
0
0
0
0
0
0
0
0
0
0
0
0
0
0
0
0
0
0
0
0
0
0
0
0
0
0
0
0
0
0
0
0
0
0
0
0
0
0
0
0
0
0
0
0
0
0
0
0
0
0
0
0
0
0
0
0
0
0
0
0
0
0
0
0
0
0
0
0
0
0
0
0
0
0
0
0
0
0
0
0
0
0
0
0
0
0
0
0
0
0
0
0
0
0
0
0
0
0
0
0
0
0
0
0
0
0
0
0
0
0
0
0
0
0
0
0
0
0
0
0
0
0
0
0
0
0
0
0
0
0
0
0
0
0
0
0
0
0
0
0
0
0
0
0
0
0
0
0
0
0
0
0
0
0
0
0
0
0
0
0
0
0
0
0
0
0
0
0
0
0
0
0
9.73352e-05
0.000103233
1.9108e-05
5.43279e-11
2.06664e-12
9.63287e-14
3.99622e-17
9.26238e-20
1.97106e-22
3.59424e-25
6.7102e-28
1.39204e-30
3.14182e-33
7.66491e-36
1.23205e-44
1.51271e-46
3.3101e-49
9.63014e-52
2.79838e-54
8.78656e-57
2.70194e-59
8.96149e-62
3.02857e-64
1.24219e-66
5.69199e-69
3.26113e-71
1.98595e-73
1.1877e-75
5.76455e-78
2.1803e-80
8.41486e-83
3.16548e-85
1.03494e-87
2.96068e-90
7.75427e-93
1.90864e-95
4.48644e-98
1.01696e-100
2.23754e-103
4.79402e-106
1.00172e-108
2.03904e-111
3.97051e-114
2.17329e-117
7.75974e-127
1.81898e-128
6.10723e-131
1.44285e-133
2.92472e-136
5.44765e-139
9.62323e-142
1.63912e-144
2.71303e-147
4.3869e-150
6.93721e-153
1.07314e-155
1.62756e-158
2.42104e-161
3.54246e-164
5.1191e-167
7.32277e-170
1.03778e-172
1.45387e-175
1.51844e-178
1.39785e-181
1.07406e-184
6.88924e-188
3.73359e-191
1.73333e-194
7.03615e-198
2.55641e-201
8.50325e-205
2.6065e-208
3.18482e-212
1.22529e-230
4.15547e-231
3.51904e-234
1.79143e-237
7.07707e-241
2.38666e-244
7.21406e-248
2.0142e-251
5.29975e-255
1.33384e-258
3.24403e-262
7.67769e-266
1.77701e-269
4.03109e-273
8.97654e-277
1.96393e-280
4.22415e-284
8.93659e-288
1.86032e-291
3.81385e-295
7.69987e-299
1.53164e-302
3.00315e-306
5.8044e-310
1.10658e-313
2.08144e-317
3.86359e-321
0
0
0
0
0
0
0
0
0
0
0
0
0
0
0
0
0
0
0
0
0
0
0
0
0
0
0
0
0
0
0
0
0
0
0
0
0
0
0
0
0
0
0
0
0
0
0
0
0
0
0
0
0
0
0
0
0
0
0
0
0
0
0
0
0
0
0
0
0
0
0
0
0
0
0
0
0
0
0
0
0
0
0
0
0
0
0
0
0
0
0
0
0
0
0
0
0
0
0
0
0
0
0
0
0
0
0
0
0
0
0
0
0
0
0
0
0
0
0
0
0
0
0
0
0
0
0
0
0
0
0
0
0
0
0
0
0
0
0
0
0
0
0
0
0
0
0
0
0
0
0
0
0
0
0
0
0
0
0
0
0
0
0
0
0
0
0
0
0
0
0
0
0
0
0
0
0
0
0
0
0
0
0
0
0
0
0
0
0
0
0
0
0
0
0
0
0
0
0
0
0
0
0
0
0
0
0
0
0
0
0
0
0
0
0
0
0
0
0
0
0
0
0
0
0
0
0
0
0
0
0
0
0
0
0
0
0
0
0
0
0
0
0
0
0
0
0
0
0
0
0
0
0
0
0
0
0
0
0
0
0
0
0
0
0
0
0
0
0
0
0
0
0
0.000111438
0.000111774
0.0001066
2.90567e-05
2.06101e-09
7.049e-10
1.44535e-12
4.24387e-15
9.6787e-18
2.03028e-20
4.0092e-23
8.92195e-26
2.23743e-28
5.49655e-31
2.04313e-39
2.27223e-41
5.67732e-44
1.52798e-46
4.81666e-49
1.41162e-51
4.36335e-54
1.28235e-56
4.02001e-59
1.28549e-61
4.87836e-64
2.00231e-66
1.00888e-68
5.14404e-71
2.65636e-73
1.00301e-75
3.51435e-78
1.31346e-80
4.73212e-83
1.48857e-85
4.16941e-88
1.08041e-90
2.64684e-93
6.21289e-96
1.40988e-98
3.11018e-101
6.68314e-104
1.39659e-106
2.80203e-109
2.13401e-112
1.9593e-121
1.8884e-123
5.70386e-126
1.29781e-128
2.60432e-131
4.87006e-134
8.70367e-137
1.50575e-139
2.53795e-142
4.18294e-145
6.74208e-148
1.06228e-150
1.63794e-153
2.47226e-156
3.66216e-159
5.34949e-162
7.73764e-165
1.1103e-167
1.57892e-170
2.22052e-173
1.99733e-176
1.50127e-179
9.00141e-183
4.61674e-186
2.02646e-189
7.72488e-193
2.61228e-196
8.00872e-200
2.24607e-203
2.50402e-207
3.56466e-224
1.47317e-225
9.80097e-229
4.15078e-232
1.40861e-235
4.16385e-239
1.11719e-242
2.78976e-246
6.5982e-250
1.49794e-253
3.2962e-257
7.08382e-261
1.49457e-264
3.1036e-268
6.35344e-272
1.28318e-275
2.55854e-279
5.04014e-283
9.81592e-287
1.89176e-290
3.60868e-294
6.81348e-298
1.27384e-301
2.35751e-305
4.31875e-309
7.8315e-313
1.40589e-316
2.49701e-320
4.94066e-324
0
0
0
0
0
0
0
0
0
0
0
0
0
0
0
0
0
0
0
0
0
0
0
0
0
0
0
0
0
0
0
0
0
0
0
0
0
0
0
0
0
0
0
0
0
0
0
0
0
0
0
0
0
0
0
0
0
0
0
0
0
0
0
0
0
0
0
0
0
0
0
0
0
0
0
0
0
0
0
0
0
0
0
0
0
0
0
0
0
0
0
0
0
0
0
0
0
0
0
0
0
0
0
0
0
0
0
0
0
0
0
0
0
0
0
0
0
0
0
0
0
0
0
0
0
0
0
0
0
0
0
0
0
0
0
0
0
0
0
0
0
0
0
0
0
0
0
0
0
0
0
0
0
0
0
0
0
0
0
0
0
0
0
0
0
0
0
0
0
0
0
0
0
0
0
0
0
0
0
0
0
0
0
0
0
0
0
0
0
0
0
0
0
0
0
0
0
0
0
0
0
0
0
0
0
0
0
0
0
0
0
0
0
0
0
0
0
0
0
0
0
0
0
0
0
0
0
0
0
0
0
0
0
0
0
0
0
0
0
0
0
0
0
0
0
0
0
0
0
0
0
0
0
0
0
0
0
0
0
0
0
0
0
0
0
0
0
0
0
0
0
0.000110527
0.000110665
0.000112234
0.000105935
3.36825e-05
4.41418e-07
6.07561e-09
3.18403e-11
1.54202e-13
6.29906e-16
2.24059e-18
6.87817e-21
2.06264e-23
5.21481e-26
4.432e-34
4.67269e-36
1.12716e-38
3.58514e-41
1.10845e-43
3.77419e-46
1.1529e-48
3.70775e-51
1.10982e-53
3.46615e-56
1.11709e-58
3.95505e-61
1.56758e-63
6.73012e-66
3.10478e-68
1.28434e-70
4.45567e-73
1.51837e-75
5.41095e-78
1.84733e-80
5.63644e-83
1.55699e-85
4.01091e-88
9.80913e-91
2.30492e-93
5.24372e-96
1.15886e-98
2.48548e-101
5.14382e-104
6.53648e-107
1.16144e-115
5.13902e-118
1.38604e-120
3.04759e-123
6.08125e-126
1.14573e-128
2.0766e-131
3.65488e-134
6.27857e-137
1.05485e-139
1.73371e-142
2.78516e-145
4.37234e-148
6.71044e-151
1.00887e-153
1.49265e-156
2.18492e-159
3.17382e-162
4.57456e-165
6.52961e-168
9.19765e-171
7.87497e-174
3.81326e-177
1.73861e-180
7.06161e-184
2.50138e-187
7.8128e-191
2.19138e-194
5.58108e-198
6.39294e-202
3.98382e-217
1.75781e-219
8.57176e-223
2.90914e-226
8.28248e-230
2.11275e-233
4.98041e-237
1.10506e-240
2.33784e-244
4.76323e-248
9.42396e-252
1.82319e-255
3.4664e-259
6.49531e-263
1.20126e-266
2.19375e-270
3.95999e-274
7.07977e-278
1.25621e-281
2.21706e-285
3.89719e-289
6.82756e-293
1.19233e-296
2.07489e-300
3.59474e-304
6.19476e-308
1.06102e-311
1.80424e-315
3.02294e-319
2.96439e-323
0
0
0
0
0
0
0
0
0
0
0
0
0
0
0
0
0
0
0
0
0
0
0
0
0
0
0
0
0
0
0
0
0
0
0
0
0
0
0
0
0
0
0
0
0
0
0
0
0
0
0
0
0
0
0
0
0
0
0
0
0
0
0
0
0
0
0
0
0
0
0
0
0
0
0
0
0
0
0
0
0
0
0
0
0
0
0
0
0
0
0
0
0
0
0
0
0
0
0
0
0
0
0
0
0
0
0
0
0
0
0
0
0
0
0
0
0
0
0
0
0
0
0
0
0
0
0
0
0
0
0
0
0
0
0
0
0
0
0
0
0
0
0
0
0
0
0
0
0
0
0
0
0
0
0
0
0
0
0
0
0
0
0
0
0
0
0
0
0
0
0
0
0
0
0
0
0
0
0
0
0
0
0
0
0
0
0
0
0
0
0
0
0
0
0
0
0
0
0
0
0
0
0
0
0
0
0
0
0
0
0
0
0
0
0
0
0
0
0
0
0
0
0
0
0
0
0
0
0
0
0
0
0
0
0
0
0
0
0
0
0
0
0
0
0
0
0
0
0
0
0
0
0
0
0
0
0
0
0
0
0
0
0
0
0
0
0
0
0
0
0.000111463
0.000110522
0.000111631
0.000106435
5.48913e-05
5.66147e-06
1.76869e-07
1.90331e-09
1.28829e-11
8.82935e-14
4.77079e-16
2.50731e-18
1.04539e-20
4.19848e-23
5.91901e-30
4.86179e-32
1.14457e-34
3.63442e-37
1.25524e-39
4.36365e-42
1.46209e-44
4.63335e-47
1.47132e-49
4.29432e-52
1.36297e-54
4.13403e-57
1.47701e-59
5.34665e-62
2.17963e-64
9.07019e-67
3.39111e-69
1.13051e-71
3.80707e-74
1.31074e-76
4.29797e-79
1.27673e-81
3.49049e-84
8.96643e-87
2.19434e-89
5.16361e-92
1.17403e-94
2.57926e-97
5.46968e-100
9.43996e-103
3.11021e-111
8.68667e-114
2.0611e-116
4.34096e-119
8.57952e-122
1.62678e-124
2.99121e-127
5.35862e-130
9.38295e-133
1.60699e-135
2.69331e-138
4.41426e-141
7.06574e-144
1.10489e-146
1.69038e-149
2.54041e-152
3.77092e-155
5.54745e-158
8.09766e-161
1.17094e-163
1.67247e-166
2.35408e-169
1.88162e-172
6.04031e-176
2.07571e-179
6.64217e-183
1.8822e-186
4.7299e-190
1.06597e-193
1.23317e-197
4.08525e-211
2.0359e-214
6.60982e-218
1.71965e-221
3.99186e-225
8.61801e-229
1.76215e-232
3.446e-236
6.48989e-240
1.18329e-243
2.09909e-247
3.63929e-251
6.18662e-255
1.03278e-258
1.69313e-262
2.72485e-266
4.30875e-270
6.71233e-274
1.03444e-277
1.58441e-281
2.42272e-285
3.71074e-289
5.70365e-293
8.80178e-297
1.36173e-300
2.10754e-304
3.25337e-308
4.99472e-312
7.56939e-316
6.34627e-320
0
0
0
0
0
0
0
0
0
0
0
0
0
0
0
0
0
0
0
0
0
0
0
0
0
0
0
0
0
0
0
0
0
0
0
0
0
0
0
0
0
0
0
0
0
0
0
0
0
0
0
0
0
0
0
0
0
0
0
0
0
0
0
0
0
0
0
0
0
0
0
0
0
0
0
0
0
0
0
0
0
0
0
0
0
0
0
0
0
0
0
0
0
0
0
0
0
0
0
0
0
0
0
0
0
0
0
0
0
0
0
0
0
0
0
0
0
0
0
0
0
0
0
0
0
0
0
0
0
0
0
0
0
0
0
0
0
0
0
0
0
0
0
0
0
0
0
0
0
0
0
0
0
0
0
0
0
0
0
0
0
0
0
0
0
0
0
0
0
0
0
0
0
0
0
0
0
0
0
0
0
0
0
0
0
0
0
0
0
0
0
0
0
0
0
0
0
0
0
0
0
0
0
0
0
0
0
0
0
0
0
0
0
0
0
0
0
0
0
0
0
0
0
0
0
0
0
0
0
0
0
0
0
0
0
0
0
0
0
0
0
0
0
0
0
0
0
0
0
0
0
0
0
0
0
0
0
0
0
0
0
0
0
0
0
0
0
0
0
0
0.000111061
0.000110819
0.00011028
0.000111711
0.000111984
3.70017e-05
2.76533e-06
4.57438e-08
5.89847e-10
6.32854e-12
6.00358e-14
5.0451e-16
3.72604e-18
2.48501e-20
1.94329e-22
1.23251e-24
8.08252e-27
4.55044e-29
2.20032e-31
1.01658e-33
4.24255e-36
1.69083e-38
6.26723e-41
2.1824e-43
7.25854e-46
2.27193e-48
6.90591e-51
2.0732e-53
6.44595e-56
2.09972e-58
7.52068e-61
2.86349e-63
1.09244e-65
3.82639e-68
1.27396e-70
4.25839e-73
1.41573e-75
4.46146e-78
1.30028e-80
3.53941e-83
9.10481e-86
2.2336e-88
5.25522e-91
1.18836e-93
2.58679e-96
5.49665e-99
1.04714e-101
1.8113e-104
3.48681e-107
7.15551e-110
1.44354e-112
2.86953e-115
5.59407e-118
1.06663e-120
1.98986e-123
3.63194e-126
6.48679e-129
1.13346e-131
1.93789e-134
3.24207e-137
5.30085e-140
8.46513e-143
1.32191e-145
2.02471e-148
3.05485e-151
4.55594e-154
6.72917e-157
9.84217e-160
1.42259e-162
2.02877e-165
2.84863e-168
1.81859e-171
3.76905e-175
1.00054e-178
2.49607e-182
5.3951e-186
9.90938e-190
1.62176e-193
1.44605e-197
4.52182e-202
7.5207e-206
1.58395e-209
3.06631e-213
5.82933e-217
1.07958e-220
1.93918e-224
3.39542e-228
5.8044e-232
9.69249e-236
1.58125e-239
2.52124e-243
3.93175e-247
5.99381e-251
8.90931e-255
1.28727e-258
1.80742e-262
2.47782e-266
3.3431e-270
4.47529e-274
5.983e-278
8.0188e-282
1.07856e-285
1.45467e-289
1.96403e-293
2.64736e-297
3.54315e-301
4.64324e-305
5.73253e-309
6.42826e-313
6.8256e-317
4.10569e-321
0
0
0
0
0
0
0
0
0
0
0
0
0
0
0
0
0
0
0
0
0
0
0
0
0
0
0
0
0
0
0
0
0
0
0
0
0
0
0
0
0
0
0
0
0
0
0
0
0
0
0
0
0
0
0
0
0
0
0
0
0
0
0
0
0
0
0
0
0
0
0
0
0
0
0
0
0
0
0
0
0
0
0
0
0
0
0
0
0
0
0
0
0
0
0
0
0
0
0
0
0
0
0
0
0
0
0
0
0
0
0
0
0
0
0
0
0
0
0
0
0
0
0
0
0
0
0
0
0
0
0
0
0
0
0
0
0
0
0
0
0
0
0
0
0
0
0
0
0
0
0
0
0
0
0
0
0
0
0
0
0
0
0
0
0
0
0
0
0
0
0
0
0
0
0
0
0
0
0
0
0
0
0
0
0
0
0
0
0
0
0
0
0
0
0
0
0
0
0
0
0
0
0
0
0
0
0
0
0
0
0
0
0
0
0
0
0
0
0
0
0
0
0
0
0
0
0
0
0
0
0
0
0
0
0
0
0
0
0
0
0
0
0
0
0
0
0
0
0
0
0
0
0
0
0
0
0
0
0
0
0
0
0
0
0
0
0
0
0
0
0
0
0
0
0
0
0
0
0
0
0
0
0
0
0
0
0
0
0
0.000109966
0.000109762
0.000111572
0.000129597
0.000136452
4.82543e-05
3.70674e-06
6.87851e-08
1.00974e-09
1.2455e-11
1.34207e-13
1.30822e-15
1.17074e-17
9.6523e-20
7.28224e-22
5.01407e-24
3.09796e-26
1.77668e-28
9.76647e-31
4.94081e-33
2.39105e-35
1.08594e-37
4.68129e-40
1.91977e-42
7.50791e-45
2.83374e-47
1.04125e-49
3.78732e-52
1.39313e-54
5.24211e-57
2.03298e-59
8.11218e-62
3.29326e-64
1.29839e-66
4.79865e-69
1.70329e-71
5.97882e-74
2.02334e-76
6.4382e-79
1.92834e-81
5.46174e-84
1.46808e-86
3.76288e-89
9.25198e-92
2.19644e-94
5.02083e-97
1.13458e-99
2.58834e-102
5.71202e-105
1.21378e-107
2.5315e-110
5.14549e-113
1.02203e-115
1.98585e-118
3.77661e-121
7.0335e-124
1.28278e-126
2.29013e-129
4.00103e-132
6.84273e-135
1.14519e-137
1.87405e-140
3.00107e-143
4.71374e-146
7.27713e-149
1.10615e-151
1.65817e-154
2.4531e-157
3.58011e-160
5.1524e-163
7.30933e-166
1.01863e-168
2.77826e-172
6.9945e-176
1.58698e-179
3.21484e-183
5.85576e-187
9.17586e-191
1.38866e-194
2.23153e-198
3.25221e-202
4.50604e-206
6.55386e-210
9.58868e-214
1.4207e-217
2.1218e-221
3.17316e-225
4.73352e-229
7.01678e-233
1.03011e-236
1.49341e-240
2.13395e-244
3.00092e-248
4.14321e-252
5.60034e-256
7.4035e-260
9.58795e-264
1.22125e-267
1.5381e-271
1.9254e-275
2.4037e-279
2.99597e-283
3.72582e-287
4.61389e-291
5.66551e-295
6.84532e-299
8.01924e-303
8.99285e-307
9.68975e-311
9.58644e-315
9.64263e-319
1.08694e-322
0
0
0
0
0
0
0
0
0
0
0
0
0
0
0
0
0
0
0
0
0
0
0
0
0
0
0
0
0
0
0
0
0
0
0
0
0
0
0
0
0
0
0
0
0
0
0
0
0
0
0
0
0
0
0
0
0
0
0
0
0
0
0
0
0
0
0
0
0
0
0
0
0
0
0
0
0
0
0
0
0
0
0
0
0
0
0
0
0
0
0
0
0
0
0
0
0
0
0
0
0
0
0
0
0
0
0
0
0
0
0
0
0
0
0
0
0
0
0
0
0
0
0
0
0
0
0
0
0
0
0
0
0
0
0
0
0
0
0
0
0
0
0
0
0
0
0
0
0
0
0
0
0
0
0
0
0
0
0
0
0
0
0
0
0
0
0
0
0
0
0
0
0
0
0
0
0
0
0
0
0
0
0
0
0
0
0
0
0
0
0
0
0
0
0
0
0
0
0
0
0
0
0
0
0
0
0
0
0
0
0
0
0
0
0
0
0
0
0
0
0
0
0
0
0
0
0
0
0
0
0
0
0
0
0
0
0
0
0
0
0
0
0
0
0
0
0
0
0
0
0
0
0
0
0
0
0
0
0
0
0
0
0
0
0
0
0
0
0
0
0
0
0
0
0
0
0
0
0
0
0
0
0
0
0
0
0
0
0.000111235
0.00011023
0.000136508
6.29461e-05
3.04924e-05
8.95254e-06
5.79386e-07
6.50281e-09
7.696e-11
8.9433e-13
9.80073e-15
9.99501e-17
9.19223e-19
7.68922e-21
4.69194e-23
2.61279e-25
1.28937e-27
6.31584e-30
3.17707e-32
1.51248e-34
7.07161e-37
3.11854e-39
1.31275e-41
5.28513e-44
2.03291e-46
7.55628e-49
2.73546e-51
9.81535e-54
3.56614e-56
1.32505e-58
5.13429e-61
2.06515e-63
8.66275e-66
3.58686e-68
1.38301e-70
4.99915e-73
1.77577e-75
6.15342e-78
2.01942e-80
6.22291e-83
1.81058e-85
5.00577e-88
1.32233e-90
3.35205e-93
8.17456e-96
1.91191e-98
4.42316e-101
1.02303e-103
2.27514e-106
4.8728e-109
1.02077e-111
2.09112e-114
4.19887e-117
8.27319e-120
1.60069e-122
3.04065e-125
5.66769e-128
1.03584e-130
1.85489e-133
3.2529e-136
5.58386e-139
9.38023e-142
1.54248e-144
2.48437e-147
3.92276e-150
6.08069e-153
9.27036e-156
1.39221e-158
2.06133e-161
3.00994e-164
4.33402e-167
6.0013e-170
1.52865e-173
3.46906e-177
6.94881e-181
1.23068e-184
1.92867e-188
2.65903e-192
3.70147e-196
5.61319e-200
8.13314e-204
1.1469e-207
1.68837e-211
2.48767e-215
3.6054e-219
5.11859e-223
7.1145e-227
9.70189e-231
1.30254e-234
1.72806e-238
2.27311e-242
2.9725e-246
3.87069e-250
5.02234e-254
6.49187e-258
8.355e-262
1.07011e-265
1.36376e-269
1.73011e-273
2.18771e-277
2.76282e-281
3.49224e-285
4.42671e-289
5.63388e-293
7.19553e-297
9.18841e-301
1.16341e-304
1.43622e-308
1.67825e-312
1.79023e-316
1.94958e-320
0
0
0
0
0
0
0
0
0
0
0
0
0
0
0
0
0
0
0
0
0
0
0
0
0
0
0
0
0
0
0
0
0
0
0
0
0
0
0
0
0
0
0
0
0
0
0
0
0
0
0
0
0
0
0
0
0
0
0
0
0
0
0
0
0
0
0
0
0
0
0
0
0
0
0
0
0
0
0
0
0
0
0
0
0
0
0
0
0
0
0
0
0
0
0
0
0
0
0
0
0
0
0
0
0
0
0
0
0
0
0
0
0
0
0
0
0
0
0
0
0
0
0
0
0
0
0
0
0
0
0
0
0
0
0
0
0
0
0
0
0
0
0
0
0
0
0
0
0
0
0
0
0
0
0
0
0
0
0
0
0
0
0
0
0
0
0
0
0
0
0
0
0
0
0
0
0
0
0
0
0
0
0
0
0
0
0
0
0
0
0
0
0
0
0
0
0
0
0
0
0
0
0
0
0
0
0
0
0
0
0
0
0
0
0
0
0
0
0
0
0
0
0
0
0
0
0
0
0
0
0
0
0
0
0
0
0
0
0
0
0
0
0
0
0
0
0
0
0
0
0
0
0
0
0
0
0
0
0
0
0
0
0
0
0
0
0
0
0
0
0
0
0
0
0
0
0
0
0
0
0
0
0
0
0
0
0
0
0
0.00015343
0.000135489
3.78266e-05
1.38787e-05
2.31349e-06
3.74968e-07
5.2176e-09
6.70017e-11
8.08402e-13
8.9647e-15
8.99268e-17
8.19441e-19
6.70484e-21
4.96476e-23
3.24221e-25
1.94223e-27
1.06695e-29
5.47889e-32
2.73109e-34
1.26621e-36
5.72882e-39
2.4347e-41
9.90139e-44
3.86582e-46
1.44526e-48
5.26437e-51
1.87356e-53
6.70368e-56
2.44899e-58
9.329e-61
3.74006e-63
1.57677e-65
6.90943e-68
2.99756e-70
1.20933e-72
4.54831e-75
1.65205e-77
5.76606e-80
1.89367e-82
5.84288e-85
1.70325e-87
4.71494e-90
1.24505e-92
3.15109e-95
7.68168e-98
1.79437e-100
4.0911e-103
9.22484e-106
2.01991e-108
4.30343e-111
8.97587e-114
1.82997e-116
3.64948e-119
7.13413e-122
1.36932e-124
2.58192e-127
4.78007e-130
8.68075e-133
1.54486e-135
2.69242e-138
4.59342e-141
7.67145e-144
1.25473e-146
2.01106e-149
3.16094e-152
4.87575e-155
7.38575e-158
1.09956e-160
1.6103e-163
2.3215e-166
3.28619e-169
1.0037e-172
2.8345e-176
7.26891e-180
1.68697e-183
3.56348e-187
6.92223e-191
1.22709e-194
2.02725e-198
3.23055e-202
4.94633e-206
7.36832e-210
1.09366e-213
1.62165e-217
2.39041e-221
3.4797e-225
4.97758e-229
6.98444e-233
9.62609e-237
1.30782e-240
1.76032e-244
2.36061e-248
3.17111e-252
4.28802e-256
5.85908e-260
8.11108e-264
1.13939e-267
1.62507e-271
2.35274e-275
3.45434e-279
5.13511e-283
7.71253e-287
1.16752e-290
1.77666e-294
2.70998e-298
4.12967e-302
6.26327e-306
9.41334e-310
1.39603e-313
2.00348e-317
2.78159e-321
0
0
0
0
0
0
0
0
0
0
0
0
0
0
0
0
0
0
0
0
0
0
0
0
0
0
0
0
0
0
0
0
0
0
0
0
0
0
0
0
0
0
0
0
0
0
0
0
0
0
0
0
0
0
0
0
0
0
0
0
0
0
0
0
0
0
0
0
0
0
0
0
0
0
0
0
0
0
0
0
0
0
0
0
0
0
0
0
0
0
0
0
0
0
0
0
0
0
0
0
0
0
0
0
0
0
0
0
0
0
0
0
0
0
0
0
0
0
0
0
0
0
0
0
0
0
0
0
0
0
0
0
0
0
0
0
0
0
0
0
0
0
0
0
0
0
0
0
0
0
0
0
0
0
0
0
0
0
0
0
0
0
0
0
0
0
0
0
0
0
0
0
0
0
0
0
0
0
0
0
0
0
0
0
0
0
0
0
0
0
0
0
0
0
0
0
0
0
0
0
0
0
0
0
0
0
0
0
0
0
0
0
0
0
0
0
0
0
0
0
0
0
0
0
0
0
0
0
0
0
0
0
0
0
0
0
0
0
0
0
0
0
0
0
0
0
0
0
0
0
0
0
0
0
0
0
0
0
0
0
0
0
0
0
0
0
0
0
0
0
0
0
0
0
0
0
0
0
0
0
0
0
0
0
0
0
0
0
0
0.000106682
5.78279e-05
7.18089e-06
9.43832e-07
3.22889e-08
2.04614e-09
3.2884e-11
4.39571e-13
5.2904e-15
5.76165e-17
5.50047e-19
4.69925e-21
3.63902e-23
2.48408e-25
1.59105e-27
9.23466e-30
4.94763e-32
2.49192e-34
1.18234e-36
5.34977e-39
2.30249e-41
9.4246e-44
3.71029e-46
1.39561e-48
5.0879e-51
1.81771e-53
6.42899e-56
2.3141e-58
8.67127e-61
3.39541e-63
1.41789e-65
6.13615e-68
2.76292e-70
1.24643e-72
5.31619e-75
2.0938e-77
7.69391e-80
2.64855e-82
8.54342e-85
2.58888e-87
7.4113e-90
2.0157e-92
5.23603e-95
1.30516e-97
3.13539e-100
7.24423e-103
1.62758e-105
3.57727e-108
7.66744e-111
1.60801e-113
3.29464e-116
6.60488e-119
1.29764e-121
2.50187e-124
4.73738e-127
8.81233e-130
1.61e-132
2.88704e-135
5.07666e-138
8.74629e-141
1.47554e-143
2.4369e-146
3.94022e-149
6.23912e-152
9.68044e-155
1.47284e-157
2.19901e-160
3.22505e-163
4.65132e-166
6.59974e-169
4.53318e-172
9.00262e-176
2.46091e-179
6.78314e-183
1.73013e-186
4.05649e-190
8.81307e-194
1.78548e-197
3.41831e-201
6.24694e-205
1.097e-208
1.86567e-212
3.08357e-216
4.9689e-220
7.81741e-224
1.20216e-227
1.80964e-231
2.67242e-235
3.88333e-239
5.57442e-243
7.94365e-247
1.13045e-250
1.618e-254
2.34777e-258
3.48195e-262
5.31466e-266
8.38321e-270
1.36677e-273
2.29391e-277
3.93571e-281
6.8461e-285
1.19781e-288
2.09383e-292
3.63828e-296
6.26257e-300
1.06557e-303
1.79008e-307
2.96701e-311
4.84975e-315
7.80811e-319
1.23516e-322
0
0
0
0
0
0
0
0
0
0
0
0
0
0
0
0
0
0
0
0
0
0
0
0
0
0
0
0
0
0
0
0
0
0
0
0
0
0
0
0
0
0
0
0
0
0
0
0
0
0
0
0
0
0
0
0
0
0
0
0
0
0
0
0
0
0
0
0
0
0
0
0
0
0
0
0
0
0
0
0
0
0
0
0
0
0
0
0
0
0
0
0
0
0
0
0
0
0
0
0
0
0
0
0
0
0
0
0
0
0
0
0
0
0
0
0
0
0
0
0
0
0
0
0
0
0
0
0
0
0
0
0
0
0
0
0
0
0
0
0
0
0
0
0
0
0
0
0
0
0
0
0
0
0
0
0
0
0
0
0
0
0
0
0
0
0
0
0
0
0
0
0
0
0
0
0
0
0
0
0
0
0
0
0
0
0
0
0
0
0
0
0
0
0
0
0
0
0
0
0
0
0
0
0
0
0
0
0
0
0
0
0
0
0
0
0
0
0
0
0
0
0
0
0
0
0
0
0
0
0
0
0
0
0
0
0
0
0
0
0
0
0
0
0
0
0
0
0
0
0
0
0
0
0
0
0
0
0
0
0
0
0
0
0
0
0
0
0
0
0
0
0
0
0
0
0
0
0
0
0
0
0
0
0
0
0
0
0
0
3.11519e-06
2.55537e-06
6.90489e-07
3.7891e-08
5.71775e-10
1.52241e-11
2.4851e-13
3.42689e-15
4.12215e-17
4.27527e-19
3.95917e-21
3.20869e-23
2.35112e-25
1.55667e-27
9.42465e-30
5.28612e-32
2.74636e-34
1.33344e-36
6.11772e-39
2.66598e-41
1.10449e-43
4.36535e-46
1.66258e-48
6.09631e-51
2.17031e-53
7.66947e-56
2.72117e-58
9.93411e-61
3.84474e-63
1.5581e-65
6.73883e-68
2.99997e-70
1.3788e-72
6.41866e-75
2.92212e-77
1.22244e-79
4.59172e-82
1.57514e-84
5.03037e-87
1.50798e-89
4.27288e-92
1.15144e-94
2.96665e-97
7.33991e-100
1.75025e-102
4.0294e-105
8.99219e-108
1.95319e-110
4.13647e-113
8.55353e-116
1.72835e-118
3.41769e-121
6.62223e-124
1.25846e-126
2.34697e-129
4.29679e-132
7.72271e-135
1.36233e-137
2.35762e-140
4.00058e-143
6.65368e-146
1.08439e-148
1.7317e-151
2.70994e-154
4.15681e-157
6.25246e-160
9.22667e-163
1.33675e-165
1.90287e-168
2.30903e-171
5.56616e-175
1.29406e-178
3.22414e-182
8.45355e-186
2.20322e-189
5.50606e-193
1.30589e-196
2.94752e-200
6.38749e-204
1.34189e-207
2.75773e-211
5.58753e-215
1.122e-218
2.2405e-222
4.45575e-226
8.82753e-230
1.74187e-233
3.42283e-237
6.70064e-241
1.30825e-244
2.55203e-248
4.98518e-252
9.77488e-256
1.92789e-259
3.82993e-263
7.66644e-267
1.54528e-270
3.13166e-274
6.36734e-278
1.29565e-281
2.63183e-285
5.32328e-289
1.06961e-292
2.13027e-296
4.19724e-300
8.16768e-304
1.56765e-307
2.96491e-311
5.52275e-315
1.013e-318
1.82804e-322
0
0
0
0
0
0
0
0
0
0
0
0
0
0
0
0
0
0
0
0
0
0
0
0
0
0
0
0
0
0
0
0
0
0
0
0
0
0
0
0
0
0
0
0
0
0
0
0
0
0
0
0
0
0
0
0
0
0
0
0
0
0
0
0
0
0
0
0
0
0
0
0
0
0
0
0
0
0
0
0
0
0
0
0
0
0
0
0
0
0
0
0
0
0
0
0
0
0
0
0
0
0
0
0
0
0
0
0
0
0
0
0
0
0
0
0
0
0
0
0
0
0
0
0
0
0
0
0
0
0
0
0
0
0
0
0
0
0
0
0
0
0
0
0
0
0
0
0
0
0
0
0
0
0
0
0
0
0
0
0
0
0
0
0
0
0
0
0
0
0
0
0
0
0
0
0
0
0
0
0
0
0
0
0
0
0
0
0
0
0
0
0
0
0
0
0
0
0
0
0
0
0
0
0
0
0
0
0
0
0
0
0
0
0
0
0
0
0
0
0
0
0
0
0
0
0
0
0
0
0
0
0
0
0
0
0
0
0
0
0
0
0
0
0
0
0
0
0
0
0
0
0
0
0
0
0
0
0
0
0
0
0
0
0
0
0
0
0
0
0
0
0
0
0
0
0
0
0
0
0
0
0
0
0
0
0
0
0
0
1.3735e-07
1.00923e-07
1.78061e-08
4.97234e-10
8.42937e-12
1.58368e-13
2.41266e-15
3.16872e-17
3.5957e-19
3.57414e-21
3.11144e-23
2.4307e-25
1.69204e-27
1.07246e-29
6.26716e-32
3.33825e-34
1.69079e-36
7.905e-39
3.52981e-41
1.48781e-43
5.99825e-46
2.30199e-48
8.54991e-51
3.07573e-53
1.08287e-55
3.81494e-58
1.3717e-60
5.12413e-63
2.05018e-65
8.61318e-68
3.8424e-70
1.76987e-72
8.39117e-75
4.10154e-77
1.96545e-79
8.46007e-82
3.20181e-84
1.09593e-86
3.47664e-89
1.03358e-91
2.90298e-94
7.75448e-97
1.98077e-99
4.85975e-102
1.14943e-104
2.62803e-107
5.82426e-110
1.25455e-112
2.63193e-115
5.3865e-118
1.07701e-120
2.1066e-123
4.03506e-126
7.57474e-129
1.39439e-131
2.51815e-134
4.46215e-137
7.7589e-140
1.32378e-142
2.21585e-145
3.63846e-148
5.86042e-151
9.25912e-154
1.43502e-156
2.18199e-159
3.25579e-162
4.76882e-165
6.85945e-168
9.35584e-171
2.86509e-174
7.56519e-178
1.87448e-181
4.68523e-185
1.20751e-188
3.14722e-192
8.07747e-196
2.01119e-199
4.84344e-203
1.13243e-206
2.58664e-210
5.8069e-214
1.28703e-217
2.82354e-221
6.1375e-225
1.32187e-228
2.82032e-232
5.96169e-236
1.24941e-239
2.59932e-243
5.37803e-247
1.10887e-250
2.28292e-254
4.70062e-258
9.69042e-262
2.00087e-265
4.13677e-269
8.55695e-273
1.76886e-276
3.64922e-280
7.50246e-284
1.53495e-287
3.12083e-291
6.29735e-295
1.25953e-298
2.49425e-302
4.88564e-306
9.45809e-310
1.80864e-313
3.41546e-317
6.36851e-321
0
0
0
0
0
0
0
0
0
0
0
0
0
0
0
0
0
0
0
0
0
0
0
0
0
0
0
0
0
0
0
0
0
0
0
0
0
0
0
0
0
0
0
0
0
0
0
0
0
0
0
0
0
0
0
0
0
0
0
0
0
0
0
0
0
0
0
0
0
0
0
0
0
0
0
0
0
0
0
0
0
0
0
0
0
0
0
0
0
0
0
0
0
0
0
0
0
0
0
0
0
0
0
0
0
0
0
0
0
0
0
0
0
0
0
0
0
0
0
0
0
0
0
0
0
0
0
0
0
0
0
0
0
0
0
0
0
0
0
0
0
0
0
0
0
0
0
0
0
0
0
0
0
0
0
0
0
0
0
0
0
0
0
0
0
0
0
0
0
0
0
0
0
0
0
0
0
0
0
0
0
0
0
0
0
0
0
0
0
0
0
0
0
0
0
0
0
0
0
0
0
0
0
0
0
0
0
0
0
0
0
0
0
0
0
0
0
0
0
0
0
0
0
0
0
0
0
0
0
0
0
0
0
0
0
0
0
0
0
0
0
0
0
0
0
0
0
0
0
0
0
0
0
0
0
0
0
0
0
0
0
0
0
0
0
0
0
0
0
0
0
0
0
0
0
0
0
0
0
0
0
0
0
0
0
0
0
0
0
0
2.64612e-09
2.13264e-09
3.42557e-10
7.41764e-12
1.20506e-13
1.82212e-15
2.44057e-17
2.90029e-19
3.05312e-21
2.8397e-23
2.34467e-25
1.72482e-27
1.15929e-29
6.97944e-32
3.95854e-34
2.03071e-36
9.99547e-39
4.53475e-41
1.97271e-43
8.10346e-46
3.18049e-48
1.19939e-50
4.35808e-53
1.5524e-55
5.43784e-58
1.92734e-60
7.01499e-63
2.69583e-65
1.09343e-67
4.71064e-70
2.09158e-72
9.5993e-75
4.39985e-77
2.03079e-79
8.85727e-82
3.48167e-84
1.23061e-86
4.00573e-89
1.21578e-91
3.47271e-94
9.40591e-97
2.43079e-99
6.02396e-102
1.43725e-104
3.3124e-107
7.3931e-110
1.60187e-112
3.37701e-115
6.94015e-118
1.39261e-120
2.73207e-123
5.24629e-126
9.86927e-129
1.81999e-131
3.2916e-134
5.84043e-137
1.01686e-139
1.73735e-142
2.9127e-145
4.79146e-148
7.73383e-151
1.2248e-153
1.90323e-156
2.90206e-159
4.34279e-162
6.37956e-165
9.20252e-168
1.26322e-170
1.69259e-174
4.04588e-178
9.92788e-182
2.4564e-185