/*--------------------------------*- C++ -*----------------------------------*\
| =========                 |                                                 |
| \\      /  F ield         | OpenFOAM: The Open Source CFD Toolbox           |
|  \\    /   O peration     | Version:  2.1.1                                 |
|   \\  /    A nd           | Web:      www.OpenFOAM.org                      |
|    \\/     M anipulation  |                                                 |
\*---------------------------------------------------------------------------*/
FoamFile
{
    version     2.0;
    format      ascii;
    class       volScalarField;
    location    "0.000300000";
    object      HO2;
}
// * * * * * * * * * * * * * * * * * * * * * * * * * * * * * * * * * * * * * //

dimensions      [0 0 0 0 0 0 0];

internalField   nonuniform List<scalar> 
12384
(
8.29903e-11
5.43105e-11
4.28896e-12
5.86089e-14
7.63859e-16
7.92555e-18
6.83511e-20
5.11604e-22
3.29571e-24
1.95899e-26
9.61107e-29
4.2211e-31
1.8664e-33
7.14243e-36
1.39558e-52
2.3169e-54
1.48227e-56
9.60668e-59
6.29615e-61
4.03181e-63
2.46185e-65
1.40793e-67
7.5793e-70
3.81175e-72
1.78686e-74
7.82881e-77
3.15891e-79
1.17987e-81
4.1307e-84
1.33188e-86
3.92062e-89
1.07423e-91
2.77916e-94
6.82967e-97
1.59557e-99
3.54426e-102
7.52057e-105
1.53034e-107
3.00125e-110
5.69446e-113
1.04961e-115
1.88491e-118
3.29353e-121
5.06889e-124
5.42714e-136
1.6861e-136
7.32019e-139
2.08195e-141
4.80682e-144
9.79744e-147
1.84043e-149
3.26502e-152
5.53018e-155
9.00422e-158
1.40653e-160
2.11461e-163
3.08553e-166
4.40322e-169
5.88171e-172
7.33353e-176
1.91858e-179
1.32437e-182
1.38486e-185
1.44662e-188
1.32057e-191
9.51233e-195
5.63574e-198
2.77028e-201
1.19875e-204
4.72609e-208
1.74282e-211
5.99656e-215
1.89008e-218
9.42056e-223
6.98503e-245
1.6126e-242
2.11846e-245
1.51348e-248
8.1052e-252
3.7022e-255
1.53796e-258
5.99432e-262
2.15064e-265
7.21189e-269
2.14037e-272
5.78737e-276
1.48279e-279
3.65245e-283
8.78618e-287
2.07822e-290
4.85244e-294
1.12205e-297
2.55776e-301
5.7907e-305
1.28343e-308
2.60828e-312
4.92354e-316
8.62441e-320
1.4822e-323
0
0
0
0
0
0
0
0
0
0
0
0
0
0
0
0
0
0
0
0
0
0
0
0
0
0
0
0
0
0
0
0
0
0
0
0
0
0
0
0
0
0
0
0
0
0
0
0
0
0
0
0
0
0
0
0
0
0
0
0
0
0
0
0
0
0
0
0
0
0
0
0
0
0
0
0
0
0
0
0
0
0
0
0
0
0
0
0
0
0
0
0
0
0
0
0
0
0
0
0
0
0
0
0
0
0
0
0
0
0
0
0
0
0
0
0
0
0
0
0
0
0
0
0
0
0
0
0
0
0
0
0
0
0
0
0
0
0
0
0
0
0
0
0
0
0
0
0
0
0
0
0
0
0
0
0
0
0
0
0
0
0
0
0
0
0
0
0
0
0
0
0
0
0
0
0
0
0
0
0
0
0
0
0
0
0
0
0
0
0
0
0
0
0
0
0
0
0
0
0
0
0
0
0
0
0
0
0
0
0
0
0
0
0
0
0
0
0
0
0
0
0
0
0
0
0
0
0
0
0
0
0
0
0
0
0
0
0
0
0
0
0
0
0
0
0
0
0
0
0
0
0
0
0
0
0
0
0
0
0
0
0
0
0
0
0
0
0
0
0
0
0
0
0
0
1.0352e-08
5.06475e-09
3.55202e-10
4.77871e-12
5.10051e-14
4.45771e-16
3.09139e-18
2.08945e-20
1.17752e-22
5.94036e-25
2.73649e-27
1.15564e-29
4.97311e-32
2.0206e-34
5.45112e-50
8.20414e-52
3.36409e-54
1.58374e-56
8.61011e-59
4.98122e-61
2.94885e-63
1.71383e-65
9.71423e-68
5.34892e-70
2.85119e-72
1.47091e-74
7.07043e-77
3.05317e-79
1.21358e-81
4.42016e-84
1.41098e-86
4.04698e-89
1.0847e-91
2.76057e-94
6.66811e-97
1.51857e-99
3.27492e-102
6.74361e-105
1.33601e-107
2.56731e-110
4.8112e-113
8.80004e-116
1.56102e-118
2.03821e-121
4.61083e-133
1.48003e-133
6.27435e-136
1.72456e-138
3.86814e-141
7.72955e-144
1.43539e-146
2.53091e-149
4.28311e-152
6.98653e-155
1.09222e-157
1.64193e-160
2.40281e-163
3.44624e-166
4.87555e-169
6.525e-172
2.02074e-175
1.38589e-178
1.44781e-181
1.52403e-184
1.41452e-187
1.06277e-190
6.58487e-194
3.43184e-197
1.55076e-200
6.29484e-204
2.36767e-207
8.29382e-211
2.68045e-214
2.06832e-218
3.59724e-240
3.09095e-238
3.93319e-241
2.74893e-244
1.44186e-247
6.41936e-251
2.57221e-254
9.5605e-258
3.33352e-261
1.09473e-264
3.27031e-268
8.95284e-272
2.32213e-275
5.78167e-279
1.39894e-282
3.32008e-286
7.76808e-290
1.7958e-293
4.08948e-297
9.22871e-301
2.03832e-304
4.22225e-308
8.16729e-312
1.48657e-315
2.5895e-319
4.44659e-323
0
0
0
0
0
0
0
0
0
0
0
0
0
0
0
0
0
0
0
0
0
0
0
0
0
0
0
0
0
0
0
0
0
0
0
0
0
0
0
0
0
0
0
0
0
0
0
0
0
0
0
0
0
0
0
0
0
0
0
0
0
0
0
0
0
0
0
0
0
0
0
0
0
0
0
0
0
0
0
0
0
0
0
0
0
0
0
0
0
0
0
0
0
0
0
0
0
0
0
0
0
0
0
0
0
0
0
0
0
0
0
0
0
0
0
0
0
0
0
0
0
0
0
0
0
0
0
0
0
0
0
0
0
0
0
0
0
0
0
0
0
0
0
0
0
0
0
0
0
0
0
0
0
0
0
0
0
0
0
0
0
0
0
0
0
0
0
0
0
0
0
0
0
0
0
0
0
0
0
0
0
0
0
0
0
0
0
0
0
0
0
0
0
0
0
0
0
0
0
0
0
0
0
0
0
0
0
0
0
0
0
0
0
0
0
0
0
0
0
0
0
0
0
0
0
0
0
0
0
0
0
0
0
0
0
0
0
0
0
0
0
0
0
0
0
0
0
0
0
0
0
0
0
0
0
0
0
0
0
0
0
0
0
0
0
0
0
0
0
0
0
0
0
0
5.79737e-10
6.56008e-10
3.04241e-11
7.00251e-14
1.31383e-16
6.18699e-19
1.82815e-21
4.74428e-24
1.01511e-26
2.12474e-29
1.39811e-32
2.17643e-35
7.85773e-38
3.45507e-40
3.62548e-50
6.39517e-52
1.37233e-54
4.34532e-57
1.47282e-59
6.0038e-62
2.73663e-64
1.50969e-66
9.57551e-69
7.16905e-71
5.25528e-73
4.16363e-75
2.79272e-77
1.5316e-79
6.54967e-82
2.76672e-84
1.00737e-86
3.01839e-89
8.20652e-92
2.09665e-94
5.06546e-97
1.14726e-99
2.46383e-102
5.10705e-105
1.02803e-107
2.02715e-110
3.93241e-113
7.43344e-116
1.3285e-118
2.47561e-122
9.17399e-133
3.35211e-133
1.31964e-135
3.33864e-138
6.95914e-141
1.3139e-143
2.33722e-146
3.97239e-149
6.5325e-152
1.04303e-154
1.59836e-157
2.3713e-160
3.47189e-163
5.01273e-166
7.16112e-169
1.01388e-171
1.41659e-174
1.64724e-177
1.90904e-180
2.02052e-183
1.87381e-186
1.43938e-189
9.19148e-193
4.97184e-196
2.32342e-199
9.64849e-203
3.66429e-206
1.28807e-209
4.16262e-213
2.31783e-217
3.92242e-238
9.79482e-237
1.12367e-239
7.27044e-243
3.52906e-246
1.44734e-249
5.30546e-253
1.78461e-256
5.64704e-260
1.701e-263
4.80494e-267
1.27459e-270
3.25225e-274
8.04869e-278
1.93884e-281
4.56601e-285
1.05567e-288
2.40016e-292
5.35301e-296
1.17897e-299
2.53616e-303
5.18191e-307
1.00725e-310
1.89632e-314
3.48821e-318
6.32404e-322
0
0
0
0
0
0
0
0
0
0
0
0
0
0
0
0
0
0
0
0
0
0
0
0
0
0
0
0
0
0
0
0
0
0
0
0
0
0
0
0
0
0
0
0
0
0
0
0
0
0
0
0
0
0
0
0
0
0
0
0
0
0
0
0
0
0
0
0
0
0
0
0
0
0
0
0
0
0
0
0
0
0
0
0
0
0
0
0
0
0
0
0
0
0
0
0
0
0
0
0
0
0
0
0
0
0
0
0
0
0
0
0
0
0
0
0
0
0
0
0
0
0
0
0
0
0
0
0
0
0
0
0
0
0
0
0
0
0
0
0
0
0
0
0
0
0
0
0
0
0
0
0
0
0
0
0
0
0
0
0
0
0
0
0
0
0
0
0
0
0
0
0
0
0
0
0
0
0
0
0
0
0
0
0
0
0
0
0
0
0
0
0
0
0
0
0
0
0
0
0
0
0
0
0
0
0
0
0
0
0
0
0
0
0
0
0
0
0
0
0
0
0
0
0
0
0
0
0
0
0
0
0
0
0
0
0
0
0
0
0
0
0
0
0
0
0
0
0
0
0
0
0
0
0
0
0
0
0
0
0
0
0
0
0
0
0
0
0
0
0
0
0
0
0
3.08908e-06
2.16652e-06
3.50455e-09
1.08536e-10
4.03772e-13
3.69853e-15
5.17968e-18
1.36287e-20
2.52373e-23
4.27312e-26
7.12648e-29
1.25383e-31
2.79472e-34
6.2176e-37
5.40079e-46
7.03427e-48
1.51048e-50
4.18351e-53
1.28946e-55
4.09397e-58
1.39898e-60
5.30538e-63
2.46389e-65
1.40576e-67
9.19574e-70
6.78178e-72
4.75426e-74
2.83976e-76
1.24878e-78
5.12785e-81
2.09707e-83
7.1993e-86
2.12779e-88
5.67661e-91
1.41142e-93
3.33334e-96
7.56911e-99
1.66487e-101
3.56177e-104
7.4264e-107
1.51105e-109
2.99855e-112
5.66419e-115
2.17271e-118
2.07168e-128
1.77955e-129
6.60025e-132
1.62272e-134
3.33348e-137
6.20221e-140
1.08541e-142
1.82262e-145
2.96665e-148
4.71048e-151
7.31524e-154
1.11285e-156
1.66222e-159
2.44064e-162
3.53246e-165
5.05452e-168
7.15426e-171
1.00031e-173
1.17881e-176
1.24488e-179
1.16099e-182
9.16049e-186
6.0895e-189
3.43909e-192
1.67786e-195
7.22818e-199
2.81319e-202
1.00999e-205
3.35158e-209
4.10932e-213
4.84838e-233
1.44751e-232
1.49141e-235
8.87941e-239
4.01105e-242
1.52524e-245
5.15272e-249
1.59828e-252
4.65168e-256
1.28916e-259
3.43654e-263
8.8701e-267
2.2262e-270
5.44732e-274
1.30167e-277
3.04103e-281
6.95235e-285
1.55653e-288
3.41515e-292
7.34818e-296
1.5515e-299
3.21682e-303
6.55315e-307
1.31265e-310
2.58675e-314
5.01809e-318
9.58487e-322
0
0
0
0
0
0
0
0
0
0
0
0
0
0
0
0
0
0
0
0
0
0
0
0
0
0
0
0
0
0
0
0
0
0
0
0
0
0
0
0
0
0
0
0
0
0
0
0
0
0
0
0
0
0
0
0
0
0
0
0
0
0
0
0
0
0
0
0
0
0
0
0
0
0
0
0
0
0
0
0
0
0
0
0
0
0
0
0
0
0
0
0
0
0
0
0
0
0
0
0
0
0
0
0
0
0
0
0
0
0
0
0
0
0
0
0
0
0
0
0
0
0
0
0
0
0
0
0
0
0
0
0
0
0
0
0
0
0
0
0
0
0
0
0
0
0
0
0
0
0
0
0
0
0
0
0
0
0
0
0
0
0
0
0
0
0
0
0
0
0
0
0
0
0
0
0
0
0
0
0
0
0
0
0
0
0
0
0
0
0
0
0
0
0
0
0
0
0
0
0
0
0
0
0
0
0
0
0
0
0
0
0
0
0
0
0
0
0
0
0
0
0
0
0
0
0
0
0
0
0
0
0
0
0
0
0
0
0
0
0
0
0
0
0
0
0
0
0
0
0
0
0
0
0
0
0
0
0
0
0
0
0
0
0
0
0
0
0
0
0
0
0
0
2.50197e-06
2.2743e-06
3.75336e-06
2.47101e-08
1.54403e-09
5.7486e-11
5.62517e-14
1.38554e-16
3.04147e-19
5.70727e-22
1.06681e-24
2.23166e-27
5.17095e-30
1.26389e-32
1.9112e-41
2.36432e-43
5.28225e-46
1.52986e-48
4.55077e-51
1.42478e-53
4.43762e-56
1.46257e-58
5.01496e-61
2.03999e-63
9.44717e-66
5.37946e-68
3.28943e-70
1.96219e-72
9.53096e-75
3.60282e-77
1.39054e-79
5.22987e-82
1.70988e-84
4.89115e-87
1.28105e-89
3.15319e-92
7.41148e-95
1.6801e-97
3.69665e-100
7.9202e-103
1.65482e-105
3.36821e-108
6.56017e-111
3.59123e-114
1.28225e-123
3.00537e-125
1.00883e-127
2.38356e-130
4.83192e-133
9.00005e-136
1.58984e-138
2.70778e-141
4.48209e-144
7.24738e-147
1.14606e-149
1.773e-152
2.68879e-155
3.99962e-158
5.85224e-161
8.4569e-164
1.20974e-166
1.71445e-169
2.40204e-172
2.50854e-175
2.30932e-178
1.77441e-181
1.13808e-184
6.16821e-188
2.86364e-191
1.16244e-194
4.22313e-198
1.40462e-201
4.30652e-205
5.26272e-209
2.02472e-227
6.86578e-228
5.81297e-231
2.9594e-234
1.1692e-237
3.943e-241
1.19183e-244
3.3274e-248
8.75552e-252
2.20356e-255
5.3593e-259
1.26848e-262
2.93569e-266
6.65946e-270
1.48295e-273
3.24447e-277
6.97839e-281
1.47636e-284
3.07355e-288
6.30066e-292
1.27206e-295
2.53036e-299
4.96113e-303
9.58935e-307
1.82818e-310
3.43874e-314
6.3842e-318
1.17094e-321
0
0
0
0
0
0
0
0
0
0
0
0
0
0
0
0
0
0
0
0
0
0
0
0
0
0
0
0
0
0
0
0
0
0
0
0
0
0
0
0
0
0
0
0
0
0
0
0
0
0
0
0
0
0
0
0
0
0
0
0
0
0
0
0
0
0
0
0
0
0
0
0
0
0
0
0
0
0
0
0
0
0
0
0
0
0
0
0
0
0
0
0
0
0
0
0
0
0
0
0
0
0
0
0
0
0
0
0
0
0
0
0
0
0
0
0
0
0
0
0
0
0
0
0
0
0
0
0
0
0
0
0
0
0
0
0
0
0
0
0
0
0
0
0
0
0
0
0
0
0
0
0
0
0
0
0
0
0
0
0
0
0
0
0
0
0
0
0
0
0
0
0
0
0
0
0
0
0
0
0
0
0
0
0
0
0
0
0
0
0
0
0
0
0
0
0
0
0
0
0
0
0
0
0
0
0
0
0
0
0
0
0
0
0
0
0
0
0
0
0
0
0
0
0
0
0
0
0
0
0
0
0
0
0
0
0
0
0
0
0
0
0
0
0
0
0
0
0
0
0
0
0
0
0
0
0
0
0
0
0
0
0
0
0
0
0
0
0
0
0
0
0
1.95302e-06
1.94057e-06
2.17983e-06
3.54133e-06
1.11357e-07
2.13148e-08
1.13671e-10
3.81016e-13
9.36605e-16
2.0445e-18
4.29361e-21
1.0073e-23
2.61505e-26
6.6415e-29
2.0049e-37
2.26441e-39
5.68022e-42
1.62908e-44
5.15016e-47
1.59163e-49
4.9796e-52
1.52327e-54
4.82226e-57
1.5824e-59
5.94206e-62
2.48875e-64
1.23744e-66
6.35527e-69
3.26061e-71
1.23347e-73
4.31474e-76
1.61188e-78
5.80419e-81
1.82569e-83
5.11361e-86
1.32524e-88
3.24668e-91
7.62091e-94
1.72942e-96
3.81468e-99
8.19469e-102
1.71227e-104
3.43785e-107
2.71682e-110
2.49442e-119
2.31691e-121
6.9932e-124
1.59133e-126
3.19424e-129
5.97378e-132
1.06762e-134
1.84698e-137
3.11309e-140
5.1303e-143
8.26904e-146
1.30289e-148
2.00872e-151
3.03186e-154
4.49109e-157
6.56035e-160
9.48905e-163
1.36164e-165
1.93654e-168
2.72343e-171
2.44969e-174
1.84149e-177
1.10413e-180
5.66302e-184
2.48572e-187
9.47471e-191
3.2031e-194
9.81905e-198
2.75574e-201
3.1879e-205
4.53823e-222
1.80746e-223
1.20165e-226
5.08954e-230
1.72768e-233
5.10752e-237
1.37038e-240
3.42197e-244
8.09345e-248
1.8372e-251
4.04272e-255
8.68831e-259
1.83288e-262
3.8061e-266
7.79155e-270
1.57363e-273
3.13766e-277
6.18106e-281
1.20392e-284
2.32022e-288
4.42596e-292
8.35759e-296
1.56251e-299
2.89178e-303
5.29751e-307
9.6055e-311
1.72387e-314
3.0615e-318
5.33591e-322
0
0
0
0
0
0
0
0
0
0
0
0
0
0
0
0
0
0
0
0
0
0
0
0
0
0
0
0
0
0
0
0
0
0
0
0
0
0
0
0
0
0
0
0
0
0
0
0
0
0
0
0
0
0
0
0
0
0
0
0
0
0
0
0
0
0
0
0
0
0
0
0
0
0
0
0
0
0
0
0
0
0
0
0
0
0
0
0
0
0
0
0
0
0
0
0
0
0
0
0
0
0
0
0
0
0
0
0
0
0
0
0
0
0
0
0
0
0
0
0
0
0
0
0
0
0
0
0
0
0
0
0
0
0
0
0
0
0
0
0
0
0
0
0
0
0
0
0
0
0
0
0
0
0
0
0
0
0
0
0
0
0
0
0
0
0
0
0
0
0
0
0
0
0
0
0
0
0
0
0
0
0
0
0
0
0
0
0
0
0
0
0
0
0
0
0
0
0
0
0
0
0
0
0
0
0
0
0
0
0
0
0
0
0
0
0
0
0
0
0
0
0
0
0
0
0
0
0
0
0
0
0
0
0
0
0
0
0
0
0
0
0
0
0
0
0
0
0
0
0
0
0
0
0
0
0
0
0
0
0
0
0
0
0
0
0
0
0
0
0
0
1.97115e-06
1.96693e-06
1.95092e-06
2.22447e-06
3.27914e-06
4.17949e-07
1.51962e-08
9.24875e-11
4.70886e-13
2.02105e-15
7.5786e-18
2.51039e-20
7.79389e-23
2.1614e-25
1.30716e-33
1.37678e-35
3.56473e-38
1.13325e-40
3.68591e-43
1.24566e-45
3.97947e-48
1.26858e-50
3.91089e-53
1.21864e-55
3.97507e-58
1.4055e-60
5.59748e-63
2.39962e-65
1.10901e-67
4.5801e-70
1.59012e-72
5.4187e-75
1.93073e-77
6.59001e-80
2.01068e-82
5.55468e-85
1.43102e-87
3.4996e-90
8.22242e-93
1.87035e-95
4.13261e-98
8.86359e-101
1.834e-103
2.30851e-106
4.1019e-115
1.8323e-117
4.94288e-120
1.08681e-122
2.16909e-125
4.08715e-128
7.40857e-131
1.304e-133
2.23997e-136
3.76297e-139
6.18466e-142
9.9357e-145
1.55973e-147
2.39378e-150
3.59858e-153
5.32419e-156
7.79416e-159
1.13219e-161
1.63192e-164
2.32931e-167
3.2811e-170
2.8095e-173
1.3605e-176
6.20272e-180
2.51908e-183
8.92205e-187
2.78615e-190
7.81483e-194
1.98991e-197
2.25782e-201
1.40698e-216
6.2674e-219
3.05685e-222
1.03744e-225
2.95424e-229
7.53679e-233
1.77683e-236
3.94265e-240
8.34057e-244
1.69919e-247
3.36181e-251
6.504e-255
1.23656e-258
2.31704e-262
4.28481e-266
7.82498e-270
1.41263e-273
2.52554e-277
4.48138e-281
7.90892e-285
1.39025e-288
2.43582e-292
4.25401e-296
7.40239e-300
1.28235e-303
2.20957e-307
3.78372e-311
6.43423e-315
1.07781e-318
9.88131e-323
0
0
0
0
0
0
0
0
0
0
0
0
0
0
0
0
0
0
0
0
0
0
0
0
0
0
0
0
0
0
0
0
0
0
0
0
0
0
0
0
0
0
0
0
0
0
0
0
0
0
0
0
0
0
0
0
0
0
0
0
0
0
0
0
0
0
0
0
0
0
0
0
0
0
0
0
0
0
0
0
0
0
0
0
0
0
0
0
0
0
0
0
0
0
0
0
0
0
0
0
0
0
0
0
0
0
0
0
0
0
0
0
0
0
0
0
0
0
0
0
0
0
0
0
0
0
0
0
0
0
0
0
0
0
0
0
0
0
0
0
0
0
0
0
0
0
0
0
0
0
0
0
0
0
0
0
0
0
0
0
0
0
0
0
0
0
0
0
0
0
0
0
0
0
0
0
0
0
0
0
0
0
0
0
0
0
0
0
0
0
0
0
0
0
0
0
0
0
0
0
0
0
0
0
0
0
0
0
0
0
0
0
0
0
0
0
0
0
0
0
0
0
0
0
0
0
0
0
0
0
0
0
0
0
0
0
0
0
0
0
0
0
0
0
0
0
0
0
0
0
0
0
0
0
0
0
0
0
0
0
0
0
0
0
0
0
0
0
0
0
2.04231e-06
1.97357e-06
2.05557e-06
2.23894e-06
2.44309e-06
6.18636e-07
4.36113e-08
4.53874e-10
3.75951e-12
2.6193e-14
1.56852e-16
8.54522e-19
4.11899e-21
1.82586e-23
1.23597e-30
1.07573e-32
3.05253e-35
1.0482e-37
3.77994e-40
1.35434e-42
4.66705e-45
1.52781e-47
4.86891e-50
1.48177e-52
4.61163e-55
1.45012e-57
5.05716e-60
1.86666e-62
7.52447e-65
3.14384e-67
1.17263e-69
3.91341e-72
1.31719e-74
4.53293e-77
1.48597e-79
4.41452e-82
1.20695e-84
3.10026e-87
7.58721e-90
1.78549e-92
4.06003e-95
8.92389e-98
1.89297e-100
3.25264e-103
1.07167e-111
3.00638e-114
7.13126e-117
1.50124e-119
2.96664e-122
5.6249e-125
1.03422e-127
1.85291e-130
3.24438e-133
5.55648e-136
9.31244e-139
1.52633e-141
2.44331e-144
3.82071e-147
5.84505e-150
8.78434e-153
1.30398e-155
1.9183e-158
2.79994e-161
4.04867e-164
5.78289e-167
8.13981e-170
6.50629e-173
2.08845e-176
7.17714e-180
2.29675e-183
6.50922e-187
1.63652e-190
3.68922e-194
4.24908e-198
1.40764e-211
7.04608e-215
2.28695e-218
5.94709e-222
1.38031e-225
2.97984e-229
6.09267e-233
1.19156e-236
2.24403e-240
4.09144e-244
7.25786e-248
1.25837e-251
2.13931e-255
3.57137e-259
5.85455e-263
9.42209e-267
1.48996e-270
2.32111e-274
3.57678e-278
5.4783e-282
8.37699e-286
1.28308e-289
1.97221e-293
3.04321e-297
4.70842e-301
7.28749e-305
1.12511e-308
1.72814e-312
2.61969e-316
2.18673e-320
0
0
0
0
0
0
0
0
0
0
0
0
0
0
0
0
0
0
0
0
0
0
0
0
0
0
0
0
0
0
0
0
0
0
0
0
0
0
0
0
0
0
0
0
0
0
0
0
0
0
0
0
0
0
0
0
0
0
0
0
0
0
0
0
0
0
0
0
0
0
0
0
0
0
0
0
0
0
0
0
0
0
0
0
0
0
0
0
0
0
0
0
0
0
0
0
0
0
0
0
0
0
0
0
0
0
0
0
0
0
0
0
0
0
0
0
0
0
0
0
0
0
0
0
0
0
0
0
0
0
0
0
0
0
0
0
0
0
0
0
0
0
0
0
0
0
0
0
0
0
0
0
0
0
0
0
0
0
0
0
0
0
0
0
0
0
0
0
0
0
0
0
0
0
0
0
0
0
0
0
0
0
0
0
0
0
0
0
0
0
0
0
0
0
0
0
0
0
0
0
0
0
0
0
0
0
0
0
0
0
0
0
0
0
0
0
0
0
0
0
0
0
0
0
0
0
0
0
0
0
0
0
0
0
0
0
0
0
0
0
0
0
0
0
0
0
0
0
0
0
0
0
0
0
0
0
0
0
0
0
0
0
0
0
0
0
0
0
0
0
2.06234e-06
2.06983e-06
2.0966e-06
1.88949e-06
8.25415e-07
9.1811e-08
6.81897e-09
1.19545e-10
1.55547e-12
1.78784e-14
1.78207e-16
1.58268e-18
1.76061e-20
1.47445e-22
5.73608e-25
3.4901e-27
1.83769e-29
9.78127e-32
5.5697e-34
2.52191e-36
1.14494e-38
4.51976e-41
1.74055e-43
6.13109e-46
2.05933e-48
6.57785e-51
1.99583e-53
6.07419e-56
1.88005e-58
6.15137e-61
2.20206e-63
8.38996e-66
3.20076e-68
1.12083e-70
3.73264e-73
1.24792e-75
4.14839e-78
1.30726e-80
3.80983e-83
1.03709e-85
2.6682e-88
6.54732e-91
1.54084e-93
3.48473e-96
7.58337e-99
1.57938e-101
2.94973e-104
5.10231e-107
1.00188e-109
2.09768e-112
4.23294e-115
8.41355e-118
1.63978e-120
3.12586e-123
5.83068e-126
1.06419e-128
1.90069e-131
3.32137e-134
5.6784e-137
9.49949e-140
1.55326e-142
2.48058e-145
3.87389e-148
5.93347e-151
8.95178e-154
1.33499e-156
1.9717e-159
2.88395e-162
4.1686e-165
5.94448e-168
8.34671e-171
5.32882e-174
1.10456e-177
2.93288e-181
7.31856e-185
1.58203e-188
2.90499e-192
4.65989e-196
4.07344e-200
1.27377e-204
2.16096e-208
4.64345e-212
8.99149e-216
1.70918e-219
3.16457e-223
5.68295e-227
9.94921e-231
1.70073e-234
2.83999e-238
4.63351e-242
7.38771e-246
1.15203e-249
1.75632e-253
2.61074e-257
3.77237e-261
5.29668e-265
7.26087e-269
9.796e-273
1.31129e-276
1.75313e-280
2.34974e-284
3.16028e-288
4.2623e-292
5.755e-296
7.75836e-300
1.0386e-303
1.36142e-307
1.68097e-311
1.88448e-315
1.96124e-319
9.88131e-324
0
0
0
0
0
0
0
0
0
0
0
0
0
0
0
0
0
0
0
0
0
0
0
0
0
0
0
0
0
0
0
0
0
0
0
0
0
0
0
0
0
0
0
0
0
0
0
0
0
0
0
0
0
0
0
0
0
0
0
0
0
0
0
0
0
0
0
0
0
0
0
0
0
0
0
0
0
0
0
0
0
0
0
0
0
0
0
0
0
0
0
0
0
0
0
0
0
0
0
0
0
0
0
0
0
0
0
0
0
0
0
0
0
0
0
0
0
0
0
0
0
0
0
0
0
0
0
0
0
0
0
0
0
0
0
0
0
0
0
0
0
0
0
0
0
0
0
0
0
0
0
0
0
0
0
0
0
0
0
0
0
0
0
0
0
0
0
0
0
0
0
0
0
0
0
0
0
0
0
0
0
0
0
0
0
0
0
0
0
0
0
0
0
0
0
0
0
0
0
0
0
0
0
0
0
0
0
0
0
0
0
0
0
0
0
0
0
0
0
0
0
0
0
0
0
0
0
0
0
0
0
0
0
0
0
0
0
0
0
0
0
0
0
0
0
0
0
0
0
0
0
0
0
0
0
0
0
0
0
0
0
0
0
0
0
0
0
0
0
0
0
0
0
0
0
0
0
0
0
0
0
0
0
0
0
0
0
0
0
2.10047e-06
2.10069e-06
1.83964e-06
5.02504e-07
5.79747e-08
2.9328e-08
9.0102e-10
1.29781e-11
2.07198e-13
2.65126e-15
2.94216e-17
2.8717e-19
2.71557e-21
2.28206e-23
1.631e-25
1.05928e-27
5.74196e-30
2.98775e-32
1.90549e-34
9.15883e-37
4.79351e-39
2.17619e-41
9.59145e-44
4.05531e-46
1.58382e-48
6.15409e-51
2.25595e-53
8.32945e-56
3.04414e-58
1.15597e-60
4.45639e-63
1.78441e-65
7.22591e-68
2.8506e-70
1.05319e-72
3.73831e-75
1.312e-77
4.43973e-80
1.41273e-82
4.23172e-85
1.19869e-87
3.22257e-90
8.26094e-93
2.03142e-95
4.82245e-98
1.10399e-100
2.45007e-103
5.58945e-106
1.25597e-108
2.66499e-111
5.55841e-114
1.12964e-116
2.2435e-119
4.35846e-122
8.28788e-125
1.54341e-127
2.81489e-130
5.02525e-133
8.77981e-136
1.50158e-138
2.51309e-141
4.11263e-144
6.58617e-147
1.03448e-149
1.59698e-152
2.42741e-155
3.63871e-158
5.38306e-161
7.85588e-164
1.13062e-166
1.60394e-169
2.23541e-172
6.09761e-176
1.53538e-179
3.48407e-183
7.05882e-187
1.28571e-190
2.01761e-194
2.99877e-198
4.81893e-202
7.15105e-206
9.89359e-210
1.43903e-213
2.10511e-217
3.11862e-221
4.65684e-225
6.96359e-229
1.03871e-232
1.53974e-236
2.26038e-240
3.27712e-244
4.68279e-248
6.58544e-252
9.09234e-256
1.22906e-259
1.62478e-263
2.10409e-267
2.67999e-271
3.37524e-275
4.22508e-279
5.27446e-283
6.57424e-287
8.17584e-291
1.01253e-294
1.24344e-298
1.50264e-302
1.76055e-306
1.97456e-310
2.12751e-314
2.10789e-318
2.07508e-322
0
0
0
0
0
0
0
0
0
0
0
0
0
0
0
0
0
0
0
0
0
0
0
0
0
0
0
0
0
0
0
0
0
0
0
0
0
0
0
0
0
0
0
0
0
0
0
0
0
0
0
0
0
0
0
0
0
0
0
0
0
0
0
0
0
0
0
0
0
0
0
0
0
0
0
0
0
0
0
0
0
0
0
0
0
0
0
0
0
0
0
0
0
0
0
0
0
0
0
0
0
0
0
0
0
0
0
0
0
0
0
0
0
0
0
0
0
0
0
0
0
0
0
0
0
0
0
0
0
0
0
0
0
0
0
0
0
0
0
0
0
0
0
0
0
0
0
0
0
0
0
0
0
0
0
0
0
0
0
0
0
0
0
0
0
0
0
0
0
0
0
0
0
0
0
0
0
0
0
0
0
0
0
0
0
0
0
0
0
0
0
0
0
0
0
0
0
0
0
0
0
0
0
0
0
0
0
0
0
0
0
0
0
0
0
0
0
0
0
0
0
0
0
0
0
0
0
0
0
0
0
0
0
0
0
0
0
0
0
0
0
0
0
0
0
0
0
0
0
0
0
0
0
0
0
0
0
0
0
0
0
0
0
0
0
0
0
0
0
0
0
0
0
0
0
0
0
0
0
0
0
0
0
0
0
0
0
0
0
2.09234e-06
1.86297e-06
3.01381e-07
4.58227e-10
4.39251e-10
3.3852e-10
1.16457e-11
1.02129e-13
1.28006e-15
1.50287e-17
1.64639e-19
1.67842e-21
1.56735e-23
1.31218e-25
7.60672e-28
4.07833e-30
1.90141e-32
8.94011e-35
4.70913e-37
2.18064e-39
1.05723e-41
4.67765e-44
1.99414e-46
8.15599e-49
3.16292e-51
1.18683e-53
4.32365e-56
1.55547e-58
5.66316e-61
2.09831e-63
8.14798e-66
3.27019e-68
1.37292e-70
5.68413e-73
2.19131e-75
7.92206e-78
2.81419e-80
9.75218e-83
3.20046e-85
9.86228e-88
2.8691e-90
7.93142e-93
2.09483e-95
5.30887e-98
1.2943e-100
3.02534e-103
7.03963e-106
1.6282e-108
3.60013e-111
7.71517e-114
1.61668e-116
3.31271e-119
6.65276e-122
1.31099e-124
2.5368e-127
4.8188e-130
8.98229e-133
1.64162e-135
2.93972e-138
5.15546e-141
8.84924e-144
1.4865e-146
2.44425e-149
3.9368e-152
6.21645e-155
9.63662e-158
1.46924e-160
2.20645e-163
3.26685e-166
4.77023e-169
6.86852e-172
9.51094e-175
2.42234e-178
5.49643e-182
1.10082e-185
1.94913e-189
3.0537e-193
4.20758e-197
5.89108e-201
8.93368e-205
1.28697e-208
1.81591e-212
2.67401e-216
3.94093e-220
5.71245e-224
8.11105e-228
1.12751e-231
1.53755e-235
2.0643e-239
2.73868e-243
3.60254e-247
4.71105e-251
6.13423e-255
7.95897e-259
1.02872e-262
1.32396e-266
1.69582e-270
2.16127e-274
2.74202e-278
3.4672e-282
4.37858e-286
5.53459e-290
7.01543e-294
8.92865e-298
1.14022e-301
1.45583e-305
1.84305e-309
2.27466e-313
2.65719e-317
2.831e-321
0
0
0
0
0
0
0
0
0
0
0
0
0
0
0
0
0
0
0
0
0
0
0
0
0
0
0
0
0
0
0
0
0
0
0
0
0
0
0
0
0
0
0
0
0
0
0
0
0
0
0
0
0
0
0
0
0
0
0
0
0
0
0
0
0
0
0
0
0
0
0
0
0
0
0
0
0
0
0
0
0
0
0
0
0
0
0
0
0
0
0
0
0
0
0
0
0
0
0
0
0
0
0
0
0
0
0
0
0
0
0
0
0
0
0
0
0
0
0
0
0
0
0
0
0
0
0
0
0
0
0
0
0
0
0
0
0
0
0
0
0
0
0
0
0
0
0
0
0
0
0
0
0
0
0
0
0
0
0
0
0
0
0
0
0
0
0
0
0
0
0
0
0
0
0
0
0
0
0
0
0
0
0
0
0
0
0
0
0
0
0
0
0
0
0
0
0
0
0
0
0
0
0
0
0
0
0
0
0
0
0
0
0
0
0
0
0
0
0
0
0
0
0
0
0
0
0
0
0
0
0
0
0
0
0
0
0
0
0
0
0
0
0
0
0
0
0
0
0
0
0
0
0
0
0
0
0
0
0
0
0
0
0
0
0
0
0
0
0
0
0
0
0
0
0
0
0
0
0
0
0
0
0
0
0
0
0
0
0
0
9.29343e-07
2.99591e-07
6.3686e-11
4.32672e-11
1.27646e-11
2.65088e-12
2.21812e-14
2.69952e-16
3.18582e-18
3.47457e-20
3.4653e-22
3.13867e-24
2.56954e-26
1.88782e-28
1.22422e-30
7.16676e-33
3.88945e-35
1.93199e-37
9.87193e-40
4.44983e-42
2.07118e-44
8.78542e-47
3.60259e-49
1.42411e-51
5.34476e-54
1.96678e-56
6.99613e-59
2.51701e-61
9.17037e-64
3.49037e-66
1.39836e-68
5.88557e-71
2.57754e-73
1.11822e-75
4.51016e-78
1.696e-80
6.16102e-83
2.15041e-85
7.06213e-88
2.17897e-90
6.35145e-93
1.75807e-95
4.64211e-98
1.17472e-100
2.86331e-103
6.6877e-106
1.5263e-108
3.44159e-111
7.52835e-114
1.60408e-116
3.34616e-119
6.82294e-122
1.3608e-124
2.66032e-127
5.10648e-130
9.62889e-133
1.78268e-135
3.23737e-138
5.76113e-141
1.00406e-143
1.71295e-146
2.86068e-149
4.67877e-152
7.49906e-155
1.17871e-157
1.81823e-160
2.75431e-163
4.10051e-166
6.00539e-169
8.65778e-172
1.22554e-174
3.743e-178
1.05699e-181
2.71039e-185
6.28978e-189
1.32845e-192
2.58021e-196
4.57347e-200
7.56332e-204
1.20526e-207
1.84354e-211
2.74649e-215
4.07712e-219
6.04624e-223
8.91322e-227
1.29758e-230
1.85624e-234
2.60474e-238
3.58995e-242
4.87733e-246
6.56462e-250
8.80323e-254
1.18255e-257
1.599e-261
2.1848e-265
3.02455e-269
4.24878e-273
6.0601e-277
8.77389e-281
1.2882e-284
1.91507e-288
2.8763e-292
4.35409e-296
6.62556e-300
1.01055e-303
1.53985e-307
2.33523e-311
3.50925e-315
5.2036e-319
7.41098e-323
0
0
0
0
0
0
0
0
0
0
0
0
0
0
0
0
0
0
0
0
0
0
0
0
0
0
0
0
0
0
0
0
0
0
0
0
0
0
0
0
0
0
0
0
0
0
0
0
0
0
0
0
0
0
0
0
0
0
0
0
0
0
0
0
0
0
0
0
0
0
0
0
0
0
0
0
0
0
0
0
0
0
0
0
0
0
0
0
0
0
0
0
0
0
0
0
0
0
0
0
0
0
0
0
0
0
0
0
0
0
0
0
0
0
0
0
0
0
0
0
0
0
0
0
0
0
0
0
0
0
0
0
0
0
0
0
0
0
0
0
0
0
0
0
0
0
0
0
0
0
0
0
0
0
0
0
0
0
0
0
0
0
0
0
0
0
0
0
0
0
0
0
0
0
0
0
0
0
0
0
0
0
0
0
0
0
0
0
0
0
0
0
0
0
0
0
0
0
0
0
0
0
0
0
0
0
0
0
0
0
0
0
0
0
0
0
0
0
0
0
0
0
0
0
0
0
0
0
0
0
0
0
0
0
0
0
0
0
0
0
0
0
0
0
0
0
0
0
0
0
0
0
0
0
0
0
0
0
0
0
0
0
0
0
0
0
0
0
0
0
0
0
0
0
0
0
0
0
0
0
0
0
0
0
0
0
0
0
0
0
5.88101e-09
3.49786e-10
5.04708e-12
7.5289e-13
2.9614e-14
2.18248e-15
3.01089e-17
3.78016e-19
4.41081e-21
4.76572e-23
4.47519e-25
3.79659e-27
2.94707e-29
1.9592e-31
1.26162e-33
7.21193e-36
3.80011e-38
1.89355e-40
8.94751e-43
4.04953e-45
1.74905e-47
7.16231e-50
2.85208e-52
1.07229e-54
3.94011e-57
1.41334e-59
5.00752e-62
1.80312e-64
6.73621e-67
2.62067e-69
1.09954e-71
4.7197e-74
2.13441e-76
9.60072e-79
4.09826e-81
1.61429e-83
5.93136e-86
2.04199e-88
6.58713e-91
1.99609e-93
5.7142e-96
1.55406e-98
4.03671e-101
1.00619e-103
2.41752e-106
5.58201e-109
1.25547e-111
2.75938e-114
5.9081e-117
1.23984e-119
2.53995e-122
5.092e-125
1.00043e-127
1.92893e-130
3.65255e-133
6.79434e-136
1.24129e-138
2.22582e-141
3.91402e-144
6.7433e-147
1.13767e-149
1.87894e-152
3.03825e-155
4.81091e-158
7.46398e-161
1.13559e-163
1.69542e-166
2.48645e-169
3.58603e-172
5.08831e-175
3.49511e-178
6.94107e-182
1.89735e-185
5.22955e-189
1.33383e-192
3.12729e-196
6.79524e-200
1.37578e-203
2.63674e-207
4.81863e-211
8.4528e-215
1.4385e-218
2.37723e-222
3.83075e-226
6.02693e-230
9.26859e-234
1.39524e-237
2.06045e-241
2.994e-245
4.29772e-249
6.12441e-253
8.71564e-257
1.24751e-260
1.81022e-264
2.68489e-268
4.09807e-272
6.46377e-276
1.05381e-279
1.76858e-283
3.03436e-287
5.27815e-291
9.23497e-295
1.61436e-298
2.80513e-302
4.82841e-306
8.21517e-310
1.38005e-313
2.28737e-317
3.74008e-321
0
0
0
0
0
0
0
0
0
0
0
0
0
0
0
0
0
0
0
0
0
0
0
0
0
0
0
0
0
0
0
0
0
0
0
0
0
0
0
0
0
0
0
0
0
0
0
0
0
0
0
0
0
0
0
0
0
0
0
0
0
0
0
0
0
0
0
0
0
0
0
0
0
0
0
0
0
0
0
0
0
0
0
0
0
0
0
0
0
0
0
0
0
0
0
0
0
0
0
0
0
0
0
0
0
0
0
0
0
0
0
0
0
0
0
0
0
0
0
0
0
0
0
0
0
0
0
0
0
0
0
0
0
0
0
0
0
0
0
0
0
0
0
0
0
0
0
0
0
0
0
0
0
0
0
0
0
0
0
0
0
0
0
0
0
0
0
0
0
0
0
0
0
0
0
0
0
0
0
0
0
0
0
0
0
0
0
0
0
0
0
0
0
0
0
0
0
0
0
0
0
0
0
0
0
0
0
0
0
0
0
0
0
0
0
0
0
0
0
0
0
0
0
0
0
0
0
0
0
0
0
0
0
0
0
0
0
0
0
0
0
0
0
0
0
0
0
0
0
0
0
0
0
0
0
0
0
0
0
0
0
0
0
0
0
0
0
0
0
0
0
0
0
0
0
0
0
0
0
0
0
0
0
0
0
0
0
0
0
0
0
1.09774e-12
8.75448e-13
2.4838e-13
1.5909e-14
2.40986e-16
6.48196e-18
1.02751e-19
1.40718e-21
1.68961e-23
1.74493e-25
1.61986e-27
1.30877e-29
9.59963e-32
6.33776e-34
3.82659e-36
2.13374e-38
1.10631e-40
5.31761e-43
2.44301e-45
1.06277e-47
4.39877e-50
1.74042e-52
6.64836e-55
2.43941e-57
8.70088e-60
3.07818e-62
1.09245e-64
3.9819e-67
1.53322e-69
6.20655e-72
2.67365e-74
1.18627e-76
5.45931e-79
2.5365e-81
1.15602e-83
4.83311e-86
1.8159e-88
6.22858e-91
1.98925e-93
5.96339e-96
1.68975e-98
4.55349e-101
1.17321e-103
2.90275e-106
6.92199e-109
1.59343e-111
3.55651e-114
7.72509e-117
1.63579e-119
3.38281e-122
6.83522e-125
1.35158e-127
2.61883e-130
4.97661e-133
9.28117e-136
1.69917e-138
3.05388e-141
5.38723e-144
9.32308e-147
1.58203e-149
2.6312e-152
4.28818e-155
6.84799e-158
1.07164e-160
1.64379e-163
2.47254e-166
3.6487e-169
5.28614e-172
7.52474e-175
9.13089e-178
2.20114e-181
5.1174e-185
1.27499e-188
3.34305e-192
8.713e-196
2.17751e-199
5.16461e-203
1.16561e-206
2.52631e-210
5.30731e-214
1.09056e-217
2.2098e-221
4.43723e-225
8.86043e-229
1.76208e-232
3.49086e-236
6.88829e-240
1.35356e-243
2.64971e-247
5.17338e-251
1.00919e-254
1.97139e-258
3.86548e-262
7.62375e-266
1.51454e-269
3.03168e-273
6.11074e-277
1.23842e-280
2.51797e-284
5.1236e-288
1.04073e-291
2.10505e-295
4.22977e-299
8.42425e-303
1.65981e-306
3.23e-310
6.19954e-314
1.17255e-317
2.18377e-321
0
0
0
0
0
0
0
0
0
0
0
0
0
0
0
0
0
0
0
0
0
0
0
0
0
0
0
0
0
0
0
0
0
0
0
0
0
0
0
0
0
0
0
0
0
0
0
0
0
0
0
0
0
0
0
0
0
0
0
0
0
0
0
0
0
0
0
0
0
0
0
0
0
0
0
0
0
0
0
0
0
0
0
0
0
0
0
0
0
0
0
0
0
0
0
0
0
0
0
0
0
0
0
0
0
0
0
0
0
0
0
0
0
0
0
0
0
0
0
0
0
0
0
0
0
0
0
0
0
0
0
0
0
0
0
0
0
0
0
0
0
0
0
0
0
0
0
0
0
0
0
0
0
0
0
0
0
0
0
0
0
0
0
0
0
0
0
0
0
0
0
0
0
0
0
0
0
0
0
0
0
0
0
0
0
0
0
0
0
0
0
0
0
0
0
0
0
0
0
0
0
0
0
0
0
0
0
0
0
0
0
0
0
0
0
0
0
0
0
0
0
0
0
0
0
0
0
0
0
0
0
0
0
0
0
0
0
0
0
0
0
0
0
0
0
0
0
0
0
0
0
0
0
0
0
0
0
0
0
0
0
0
0
0
0
0
0
0
0
0
0
0
0
0
0
0
0
0
0
0
0
0
0
0
0
0
0
0
0
0
0
4.95117e-14
3.71583e-14
6.85986e-15
1.92179e-16
3.24476e-18
6.09212e-20
9.27815e-22
1.21925e-23
1.38299e-25
1.37731e-27
1.19816e-29
9.36695e-32
6.50331e-34
4.10406e-36
2.40105e-38
1.26228e-40
6.41403e-43
2.96022e-45
1.32565e-47
5.56823e-50
2.24642e-52
8.63321e-55
3.21064e-57
1.15676e-59
4.08023e-62
1.43817e-64
5.16943e-67
1.92919e-69
7.68038e-72
3.21526e-74
1.4254e-76
6.56751e-79
3.10596e-81
1.51734e-83
7.27159e-86
3.12945e-88
1.18447e-90
4.05409e-93
1.28612e-95
3.8236e-98
1.07393e-100
2.86874e-103
7.32779e-106
1.79782e-108
4.25226e-111
9.72227e-114
2.15468e-116
4.64119e-119
9.73669e-122
1.99269e-124
3.9843e-127
7.79327e-130
1.49275e-132
2.8022e-135
5.15834e-138
9.31559e-141
1.6507e-143
2.87026e-146
4.89708e-149
8.19723e-152
1.34598e-154
2.16796e-157
3.42528e-160
5.30866e-163
8.07188e-166
1.20442e-168
1.76416e-171
2.53753e-174
3.46102e-177
1.05989e-180
2.79865e-184
6.93434e-188
1.73326e-191
4.46711e-195
1.1643e-198
2.98819e-202
7.44022e-206
1.79181e-209
4.18943e-213
9.56925e-217
2.14823e-220
4.76124e-224
1.04455e-227
2.27054e-231
4.89019e-235
1.04335e-238
2.20544e-242
4.62204e-246
9.61572e-250
1.9895e-253
4.10204e-257
8.44534e-261
1.73891e-264
3.58479e-268
7.40194e-272
1.53034e-275
3.16549e-279
6.54359e-283
1.34998e-286
2.7754e-290
5.67828e-294
1.1545e-297
2.32963e-301
4.65942e-305
9.22724e-309
1.80742e-312
3.49898e-316
6.69113e-320
1.4822e-323
0
0
0
0
0
0
0
0
0
0
0
0
0
0
0
0
0
0
0
0
0
0
0
0
0
0
0
0
0
0
0
0
0
0
0
0
0
0
0
0
0
0
0
0
0
0
0
0
0
0
0
0
0
0
0
0
0
0
0
0
0
0
0
0
0
0
0
0
0
0
0
0
0
0
0
0
0
0
0
0
0
0
0
0
0
0
0
0
0
0
0
0
0
0
0
0
0
0
0
0
0
0
0
0
0
0
0
0
0
0
0
0
0
0
0
0
0
0
0
0
0
0
0
0
0
0
0
0
0
0
0
0
0
0
0
0
0
0
0
0
0
0
0
0
0
0
0
0
0
0
0
0
0
0
0
0
0
0
0
0
0
0
0
0
0
0
0
0
0
0
0
0
0
0
0
0
0
0
0
0
0
0
0
0
0
0
0
0
0
0
0
0
0
0
0
0
0
0
0
0
0
0
0
0
0
0
0
0
0
0
0
0
0
0
0
0
0
0
0
0
0
0
0
0
0
0
0
0
0
0
0
0
0
0
0
0
0
0
0
0
0
0
0
0
0
0
0
0
0
0
0
0
0
0
0
0
0
0
0
0
0
0
0
0
0
0
0
0
0
0
0
0
0
0
0
0
0
0
0
0
0
0
0
0
0
0
0
0
0
0
0
1.01574e-15
8.17659e-16
1.31669e-16
2.84842e-18
4.62905e-20
7.00945e-22
9.38519e-24
1.11514e-25
1.17617e-27
1.09437e-29
9.0432e-32
6.6437e-34
4.46205e-36
2.66792e-38
1.51448e-40
7.66886e-43
3.77982e-45
1.69472e-47
7.40824e-50
3.02982e-52
1.18937e-54
4.49699e-57
1.63225e-59
5.84121e-62
2.04576e-64
7.26482e-67
2.64181e-69
1.01285e-71
4.09403e-74
1.75703e-76
7.74253e-79
3.56333e-81
1.6241e-83
7.51173e-86
3.27057e-88
1.28648e-90
4.54536e-93
1.47976e-95
4.49114e-98
1.28285e-100
3.47464e-103
8.97959e-106
2.22533e-108
5.30933e-111
1.22364e-113
2.73108e-116
5.91752e-119
1.24751e-121
2.56376e-124
5.14449e-127
1.00925e-129
1.93803e-132
3.64579e-135
6.72315e-138
1.21594e-140
2.15748e-143
3.75631e-146
6.4179e-149
1.07597e-151
1.76998e-154
2.85689e-157
4.52442e-160
7.03066e-163
1.07204e-165
1.60424e-168
2.35662e-171
3.39943e-174
4.66644e-177
6.25255e-181
1.49456e-184
3.6674e-188
9.07409e-192
2.32656e-195
6.09123e-199
1.58104e-202