/*--------------------------------*- C++ -*----------------------------------*\
| =========                 |                                                 |
| \\      /  F ield         | OpenFOAM: The Open Source CFD Toolbox           |
|  \\    /   O peration     | Version:  2.1.1                                 |
|   \\  /    A nd           | Web:      www.OpenFOAM.org                      |
|    \\/     M anipulation  |                                                 |
\*---------------------------------------------------------------------------*/
FoamFile
{
    version     2.0;
    format      ascii;
    class       volScalarField;
    location    "0.000300000";
    object      O;
}
// * * * * * * * * * * * * * * * * * * * * * * * * * * * * * * * * * * * * * //

dimensions      [0 0 0 0 0 0 0];

internalField   nonuniform List<scalar> 
12384
(
1.89067e-08
1.23398e-08
9.67645e-10
1.32306e-11
1.71335e-13
1.77704e-15
1.53461e-17
1.15169e-19
7.44491e-22
4.20816e-24
2.16398e-26
9.40721e-29
4.13892e-31
1.56698e-33
3.20016e-50
5.13158e-52
3.28345e-54
2.12992e-56
1.39935e-58
8.96448e-61
5.47365e-63
3.13843e-65
1.68838e-67
8.49988e-70
3.98723e-72
1.74646e-74
7.04977e-77
2.63284e-79
9.21734e-82
2.97181e-84
8.74778e-87
2.39685e-89
6.20095e-92
1.52388e-94
3.56012e-97
7.9082e-100
1.67806e-102
3.41473e-105
6.69691e-108
1.27068e-110
2.34215e-113
4.20618e-116
7.34973e-119
1.13142e-121
1.21139e-133
3.76265e-134
1.6335e-136
4.64575e-139
1.07261e-141
2.18617e-144
4.10666e-147
7.28519e-150
1.23393e-152
2.00907e-155
3.13832e-158
4.71823e-161
6.8846e-164
9.8247e-167
1.31236e-169
1.6363e-173
4.28084e-177
2.95501e-180
3.08997e-183
3.22778e-186
2.94652e-189
2.12246e-192
1.2575e-195
6.18148e-199
2.67486e-202
1.0546e-205
3.889e-209
1.33814e-212
4.21785e-216
2.10276e-220
1.55913e-242
3.59864e-240
4.72735e-243
3.37725e-246
1.80862e-249
8.26099e-253
3.43173e-256
1.3375e-259
4.79867e-263
1.60916e-266
4.7757e-270
1.29131e-273
3.30847e-277
8.14955e-281
1.96042e-284
4.63703e-288
1.0827e-291
2.50357e-295
5.70701e-299
1.29205e-302
2.86367e-306
5.81978e-310
1.09858e-313
1.92443e-317
3.25589e-321
0
0
0
0
0
0
0
0
0
0
0
0
0
0
0
0
0
0
0
0
0
0
0
0
0
0
0
0
0
0
0
0
0
0
0
0
0
0
0
0
0
0
0
0
0
0
0
0
0
0
0
0
0
0
0
0
0
0
0
0
0
0
0
0
0
0
0
0
0
0
0
0
0
0
0
0
0
0
0
0
0
0
0
0
0
0
0
0
0
0
0
0
0
0
0
0
0
0
0
0
0
0
0
0
0
0
0
0
0
0
0
0
0
0
0
0
0
0
0
0
0
0
0
0
0
0
0
0
0
0
0
0
0
0
0
0
0
0
0
0
0
0
0
0
0
0
0
0
0
0
0
0
0
0
0
0
0
0
0
0
0
0
0
0
0
0
0
0
0
0
0
0
0
0
0
0
0
0
0
0
0
0
0
0
0
0
0
0
0
0
0
0
0
0
0
0
0
0
0
0
0
0
0
0
0
0
0
0
0
0
0
0
0
0
0
0
0
0
0
0
0
0
0
0
0
0
0
0
0
0
0
0
0
0
0
0
0
0
0
0
0
0
0
0
0
0
0
0
0
0
0
0
0
0
0
0
0
0
0
0
0
0
0
0
0
0
0
0
0
0
0
0
0
0
0
1.17634e-06
6.92571e-07
4.55601e-08
5.97314e-10
6.24802e-12
5.51626e-14
4.52457e-16
3.07884e-18
1.83993e-20
9.95025e-23
4.85736e-25
2.10191e-27
8.80002e-30
3.30879e-32
1.08095e-47
1.60603e-49
6.59995e-52
3.14557e-54
1.72508e-56
1.0098e-58
6.0116e-61
3.50922e-63
1.99543e-65
1.09936e-67
5.86099e-70
3.02556e-72
1.45336e-74
6.27613e-77
2.4937e-79
9.08305e-82
2.89971e-84
8.31675e-87
2.22894e-89
5.67134e-92
1.36998e-94
3.12156e-97
6.73914e-100
1.39024e-102
2.76078e-105
5.31728e-108
9.98785e-111
1.8322e-113
3.26133e-116
4.44645e-119
1.00587e-130
3.09217e-131
1.30634e-133
3.58012e-136
8.01147e-139
1.59726e-141
2.95916e-144
5.20814e-147
8.80444e-150
1.43539e-152
2.24382e-155
3.37374e-158
4.93713e-161
7.08042e-164
1.00147e-166
1.34028e-169
4.15167e-173
2.84762e-176
2.97488e-179
3.13091e-182
2.90614e-185
2.18465e-188
1.35504e-191
7.07501e-195
3.20453e-198
1.30376e-201
4.91519e-205
1.7268e-208
5.60017e-212
4.51212e-216
7.84752e-238
6.45779e-236
8.18903e-239
5.70667e-242
2.9863e-245
1.32652e-248
5.30278e-252
1.96737e-255
6.85244e-259
2.24914e-262
6.71838e-266
1.83958e-269
4.77134e-273
1.18786e-276
2.87353e-280
6.81969e-284
1.59598e-287
3.68988e-291
8.40281e-295
1.89591e-298
4.18773e-302
8.67934e-306
1.68066e-309
3.06466e-313
5.35099e-317
9.15998e-321
0
0
0
0
0
0
0
0
0
0
0
0
0
0
0
0
0
0
0
0
0
0
0
0
0
0
0
0
0
0
0
0
0
0
0
0
0
0
0
0
0
0
0
0
0
0
0
0
0
0
0
0
0
0
0
0
0
0
0
0
0
0
0
0
0
0
0
0
0
0
0
0
0
0
0
0
0
0
0
0
0
0
0
0
0
0
0
0
0
0
0
0
0
0
0
0
0
0
0
0
0
0
0
0
0
0
0
0
0
0
0
0
0
0
0
0
0
0
0
0
0
0
0
0
0
0
0
0
0
0
0
0
0
0
0
0
0
0
0
0
0
0
0
0
0
0
0
0
0
0
0
0
0
0
0
0
0
0
0
0
0
0
0
0
0
0
0
0
0
0
0
0
0
0
0
0
0
0
0
0
0
0
0
0
0
0
0
0
0
0
0
0
0
0
0
0
0
0
0
0
0
0
0
0
0
0
0
0
0
0
0
0
0
0
0
0
0
0
0
0
0
0
0
0
0
0
0
0
0
0
0
0
0
0
0
0
0
0
0
0
0
0
0
0
0
0
0
0
0
0
0
0
0
0
0
0
0
0
0
0
0
0
0
0
0
0
0
0
0
0
0
0
0
0
1.33403e-10
2.43713e-10
7.06832e-12
1.63223e-14
2.85612e-17
1.26224e-19
4.11263e-22
1.06041e-24
2.27841e-27
4.68653e-30
2.55543e-33
3.83263e-36
1.59108e-38
7.83692e-41
3.94829e-51
9.56243e-53
2.02575e-55
6.7502e-58
2.25219e-60
9.65236e-63
4.51274e-65
2.58336e-67
1.63122e-69
1.25474e-71
9.16445e-74
7.35412e-76
4.92642e-78
2.71271e-80
1.15994e-82
4.89627e-85
1.78089e-87
5.33552e-90
1.45161e-92
3.71572e-95
8.98262e-98
2.0309e-100
4.34235e-103
8.92622e-106
1.7764e-108
3.46548e-111
6.64996e-114
1.2385e-116
2.16932e-119
2.70808e-123
1.00355e-133
5.47367e-134
2.19869e-136
5.64585e-139
1.18969e-141
2.27036e-144
4.08493e-147
7.00089e-150
1.1563e-152
1.84966e-155
2.83304e-158
4.19614e-161
6.14261e-164
8.87297e-167
1.26894e-169
1.79658e-172
2.50748e-175
2.91436e-178
3.37815e-181
3.5813e-184
3.32295e-187
2.54777e-190
1.61992e-193
8.68955e-197
4.01484e-200
1.64942e-203
6.19656e-207
2.14608e-210
6.79717e-214
2.53548e-218
4.29075e-239
1.5994e-237
1.87218e-240
1.22947e-243
6.03318e-247
2.50092e-250
9.27282e-254
3.14513e-257
9.99566e-261
3.01648e-264
8.5166e-268
2.25545e-271
5.75401e-275
1.42469e-278
3.4356e-282
8.09088e-286
1.86862e-289
4.24646e-293
9.47248e-297
2.08966e-300
4.49759e-304
9.17231e-308
1.77525e-311
3.31436e-315
6.02795e-319
1.08694e-322
0
0
0
0
0
0
0
0
0
0
0
0
0
0
0
0
0
0
0
0
0
0
0
0
0
0
0
0
0
0
0
0
0
0
0
0
0
0
0
0
0
0
0
0
0
0
0
0
0
0
0
0
0
0
0
0
0
0
0
0
0
0
0
0
0
0
0
0
0
0
0
0
0
0
0
0
0
0
0
0
0
0
0
0
0
0
0
0
0
0
0
0
0
0
0
0
0
0
0
0
0
0
0
0
0
0
0
0
0
0
0
0
0
0
0
0
0
0
0
0
0
0
0
0
0
0
0
0
0
0
0
0
0
0
0
0
0
0
0
0
0
0
0
0
0
0
0
0
0
0
0
0
0
0
0
0
0
0
0
0
0
0
0
0
0
0
0
0
0
0
0
0
0
0
0
0
0
0
0
0
0
0
0
0
0
0
0
0
0
0
0
0
0
0
0
0
0
0
0
0
0
0
0
0
0
0
0
0
0
0
0
0
0
0
0
0
0
0
0
0
0
0
0
0
0
0
0
0
0
0
0
0
0
0
0
0
0
0
0
0
0
0
0
0
0
0
0
0
0
0
0
0
0
0
0
0
0
0
0
0
0
0
0
0
0
0
0
0
0
0
0
0
0
0
0.000168885
7.2556e-05
2.33463e-09
4.61613e-11
1.89546e-13
1.60473e-15
1.59551e-18
4.17005e-21
6.84386e-24
1.11768e-26
1.8263e-29
3.12433e-32
6.98871e-35
1.54626e-37
1.35938e-46
1.77226e-48
3.81857e-51
1.05008e-53
3.24167e-56
1.02264e-58
3.49047e-61
1.3171e-63
6.13172e-66
3.48968e-68
2.28778e-70
1.68574e-72
1.18311e-74
7.06606e-77
3.10842e-79
1.2765e-81
5.22078e-84
1.79229e-86
5.29714e-89
1.41317e-91
3.51369e-94
8.29845e-97
1.88443e-99
4.14514e-102
8.86862e-105
1.84924e-107
3.76281e-110
7.46738e-113
1.41041e-115
5.35896e-119
5.10977e-129
4.43117e-130
1.64368e-132
4.04091e-135
8.30065e-138
1.54432e-140
2.70243e-143
4.53763e-146
7.3856e-149
1.17266e-151
1.82111e-154
2.77042e-157
4.13811e-160
6.07607e-163
8.79421e-166
1.25834e-168
1.78108e-171
2.49029e-174
2.93462e-177
3.09908e-180
2.89025e-183
2.28054e-186
1.51606e-189
8.56257e-193
4.17778e-196
1.79988e-199
7.00542e-203
2.51521e-206
8.34562e-210
1.01356e-213
1.19585e-233
3.60437e-233
3.71411e-236
2.21116e-239
9.98787e-243
3.79778e-246
1.28291e-249
3.97912e-253
1.15806e-256
3.20934e-260
8.55516e-264
2.2082e-267
5.54214e-271
1.35613e-274
3.24055e-278
7.57077e-282
1.73081e-285
3.87498e-289
8.50195e-293
1.82931e-296
3.86241e-300
8.00843e-304
1.63149e-307
3.26821e-311
6.44086e-315
1.24955e-318
2.37152e-322
0
0
0
0
0
0
0
0
0
0
0
0
0
0
0
0
0
0
0
0
0
0
0
0
0
0
0
0
0
0
0
0
0
0
0
0
0
0
0
0
0
0
0
0
0
0
0
0
0
0
0
0
0
0
0
0
0
0
0
0
0
0
0
0
0
0
0
0
0
0
0
0
0
0
0
0
0
0
0
0
0
0
0
0
0
0
0
0
0
0
0
0
0
0
0
0
0
0
0
0
0
0
0
0
0
0
0
0
0
0
0
0
0
0
0
0
0
0
0
0
0
0
0
0
0
0
0
0
0
0
0
0
0
0
0
0
0
0
0
0
0
0
0
0
0
0
0
0
0
0
0
0
0
0
0
0
0
0
0
0
0
0
0
0
0
0
0
0
0
0
0
0
0
0
0
0
0
0
0
0
0
0
0
0
0
0
0
0
0
0
0
0
0
0
0
0
0
0
0
0
0
0
0
0
0
0
0
0
0
0
0
0
0
0
0
0
0
0
0
0
0
0
0
0
0
0
0
0
0
0
0
0
0
0
0
0
0
0
0
0
0
0
0
0
0
0
0
0
0
0
0
0
0
0
0
0
0
0
0
0
0
0
0
0
0
0
0
0
0
0
0
0
0
0.000533473
0.000501654
0.000398272
7.38515e-08
3.57106e-09
1.52354e-10
9.84837e-14
2.33111e-16
5.01608e-19
9.24355e-22
1.72669e-24
3.59353e-27
8.19351e-30
2.00018e-32
3.14713e-41
3.87449e-43
8.54339e-46
2.48149e-48
7.27407e-51
2.28168e-53
7.05083e-56
2.33323e-58
7.92959e-61
3.24235e-63
1.49199e-65
8.52804e-68
5.20195e-70
3.10793e-72
1.50894e-74
5.70593e-77
2.20223e-79
8.28367e-82
2.70831e-84
7.74751e-87
2.02914e-89
4.99455e-92
1.17399e-94
2.6612e-97
5.85528e-100
1.25452e-102
2.62126e-105
5.33554e-108
1.03905e-110
5.68758e-114
2.03075e-123
4.76012e-125
1.59808e-127
3.77559e-130
7.65351e-133
1.42556e-135
2.51823e-138
4.28919e-141
7.09949e-144
1.14797e-146
1.81533e-149
2.80827e-152
4.259e-155
6.33535e-158
9.26988e-161
1.33956e-163
1.91622e-166
2.71566e-169
3.80461e-172
3.97347e-175
3.65791e-178
2.81061e-181
1.80275e-184
9.77015e-188
4.53585e-191
1.84124e-194
6.68951e-198
2.22504e-201
6.82097e-205
8.33479e-209
3.20663e-227
1.08745e-227
9.20826e-231
4.68775e-234
1.85195e-237
6.24551e-241
1.88779e-244
5.27067e-248
1.38685e-251
3.49039e-255
8.489e-259
2.00916e-262
4.65008e-266
1.05485e-269
2.34898e-273
5.1392e-277
1.10537e-280
2.33853e-284
4.86822e-288
9.9801e-292
2.01491e-295
4.00801e-299
7.85852e-303
1.51891e-306
2.89573e-310
5.44679e-314
1.01127e-317
1.85275e-321
0
0
0
0
0
0
0
0
0
0
0
0
0
0
0
0
0
0
0
0
0
0
0
0
0
0
0
0
0
0
0
0
0
0
0
0
0
0
0
0
0
0
0
0
0
0
0
0
0
0
0
0
0
0
0
0
0
0
0
0
0
0
0
0
0
0
0
0
0
0
0
0
0
0
0
0
0
0
0
0
0
0
0
0
0
0
0
0
0
0
0
0
0
0
0
0
0
0
0
0
0
0
0
0
0
0
0
0
0
0
0
0
0
0
0
0
0
0
0
0
0
0
0
0
0
0
0
0
0
0
0
0
0
0
0
0
0
0
0
0
0
0
0
0
0
0
0
0
0
0
0
0
0
0
0
0
0
0
0
0
0
0
0
0
0
0
0
0
0
0
0
0
0
0
0
0
0
0
0
0
0
0
0
0
0
0
0
0
0
0
0
0
0
0
0
0
0
0
0
0
0
0
0
0
0
0
0
0
0
0
0
0
0
0
0
0
0
0
0
0
0
0
0
0
0
0
0
0
0
0
0
0
0
0
0
0
0
0
0
0
0
0
0
0
0
0
0
0
0
0
0
0
0
0
0
0
0
0
0
0
0
0
0
0
0
0
0
0
0
0
0
0
0.000471015
0.00046815
0.000490236
0.000442841
9.78911e-07
2.4497e-07
8.22982e-10
2.63308e-12
6.18674e-15
1.31959e-17
2.67625e-20
6.10031e-23
1.55505e-25
3.88473e-28
1.31844e-36
1.47587e-38
3.69409e-41
1.02157e-43
3.2244e-46
9.67409e-49
3.00687e-51
9.0013e-54
2.83589e-56
9.18409e-59
3.46836e-61
1.43812e-63
7.19975e-66
3.68455e-68
1.89672e-70
7.16864e-73
2.50974e-75
9.37805e-78
3.37785e-80
1.06253e-82
2.97606e-85
7.71224e-88
1.8894e-90
4.43495e-93
1.00642e-95
2.22005e-98
4.7698e-101
9.967e-104
2.00039e-106
1.55061e-109
1.42367e-118
1.34815e-120
4.07068e-123
9.26252e-126
1.85896e-128
3.47641e-131
6.21295e-134
1.07485e-136
1.81165e-139
2.98574e-142
4.81244e-145
7.58254e-148
1.1691e-150
1.76459e-153
2.61388e-156
3.81823e-159
5.52278e-162
7.92491e-165
1.12703e-167
1.58499e-170
1.42568e-173
1.07165e-176
6.42546e-180
3.29557e-183
1.44655e-186
5.51402e-190
1.8644e-193
5.71558e-197
1.60349e-200
1.81947e-204
2.59016e-221
1.05171e-222
6.99467e-226
2.96243e-229
1.00547e-232
2.97229e-236
7.97485e-240
1.99141e-243
4.70997e-247
1.06922e-250
2.35279e-254
5.0564e-258
1.06676e-261
2.21521e-265
4.5348e-269
9.15877e-273
1.82617e-276
3.59745e-280
7.00655e-284
1.35032e-287
2.57584e-291
4.86367e-295
9.09299e-299
1.68286e-302
3.08286e-306
5.59013e-310
1.00339e-313
1.78208e-317
3.10273e-321
0
0
0
0
0
0
0
0
0
0
0
0
0
0
0
0
0
0
0
0
0
0
0
0
0
0
0
0
0
0
0
0
0
0
0
0
0
0
0
0
0
0
0
0
0
0
0
0
0
0
0
0
0
0
0
0
0
0
0
0
0
0
0
0
0
0
0
0
0
0
0
0
0
0
0
0
0
0
0
0
0
0
0
0
0
0
0
0
0
0
0
0
0
0
0
0
0
0
0
0
0
0
0
0
0
0
0
0
0
0
0
0
0
0
0
0
0
0
0
0
0
0
0
0
0
0
0
0
0
0
0
0
0
0
0
0
0
0
0
0
0
0
0
0
0
0
0
0
0
0
0
0
0
0
0
0
0
0
0
0
0
0
0
0
0
0
0
0
0
0
0
0
0
0
0
0
0
0
0
0
0
0
0
0
0
0
0
0
0
0
0
0
0
0
0
0
0
0
0
0
0
0
0
0
0
0
0
0
0
0
0
0
0
0
0
0
0
0
0
0
0
0
0
0
0
0
0
0
0
0
0
0
0
0
0
0
0
0
0
0
0
0
0
0
0
0
0
0
0
0
0
0
0
0
0
0
0
0
0
0
0
0
0
0
0
0
0
0
0
0
0
0.000474233
0.00047331
0.000471088
0.000497329
0.000436203
2.32784e-05
5.59838e-07
3.24646e-09
1.60807e-11
6.72852e-14
2.45881e-16
7.85589e-19
2.40204e-21
6.38805e-24
4.57413e-32
4.82065e-34
1.20298e-36
3.82532e-39
1.21243e-41
4.11275e-44
1.28472e-46
4.11423e-49
1.25033e-51
3.90364e-54
1.26666e-56
4.48411e-59
1.7826e-61
7.64765e-64
3.53218e-66
1.45983e-68
5.0667e-71
1.72656e-73
6.1524e-76
2.10019e-78
6.40787e-81
1.77016e-83
4.5602e-86
1.11523e-88
2.6204e-91
5.96102e-94
1.31724e-96
2.82519e-99
5.84627e-102
7.3928e-105
1.31359e-113
5.84083e-116
1.57549e-118
3.46412e-121
6.91311e-124
1.30254e-126
2.36093e-129
4.15543e-132
7.13825e-135
1.19922e-137
1.971e-140
3.16639e-143
4.97076e-146
7.62882e-149
1.1469e-151
1.69686e-154
2.48395e-157
3.6082e-160
5.20072e-163
7.42331e-166
1.04565e-168
8.95324e-172
4.3355e-175
1.97666e-178
8.02809e-182
2.84355e-185
8.88062e-189
2.4909e-192
6.34326e-196
7.23047e-200
4.50573e-215
1.99786e-217
9.74337e-221
3.30675e-224
9.41545e-228
2.40191e-231
5.66234e-235
1.2564e-238
2.65795e-242
5.41518e-246
1.07138e-249
2.07275e-253
3.94082e-257
7.38425e-261
1.3656e-264
2.49388e-268
4.50196e-272
8.04873e-276
1.42816e-279
2.5205e-283
4.43061e-287
7.7624e-291
1.35562e-294
2.35897e-298
4.08673e-302
7.04214e-306
1.20603e-309
2.05084e-313
3.43575e-317
3.13732e-321
0
0
0
0
0
0
0
0
0
0
0
0
0
0
0
0
0
0
0
0
0
0
0
0
0
0
0
0
0
0
0
0
0
0
0
0
0
0
0
0
0
0
0
0
0
0
0
0
0
0
0
0
0
0
0
0
0
0
0
0
0
0
0
0
0
0
0
0
0
0
0
0
0
0
0
0
0
0
0
0
0
0
0
0
0
0
0
0
0
0
0
0
0
0
0
0
0
0
0
0
0
0
0
0
0
0
0
0
0
0
0
0
0
0
0
0
0
0
0
0
0
0
0
0
0
0
0
0
0
0
0
0
0
0
0
0
0
0
0
0
0
0
0
0
0
0
0
0
0
0
0
0
0
0
0
0
0
0
0
0
0
0
0
0
0
0
0
0
0
0
0
0
0
0
0
0
0
0
0
0
0
0
0
0
0
0
0
0
0
0
0
0
0
0
0
0
0
0
0
0
0
0
0
0
0
0
0
0
0
0
0
0
0
0
0
0
0
0
0
0
0
0
0
0
0
0
0
0
0
0
0
0
0
0
0
0
0
0
0
0
0
0
0
0
0
0
0
0
0
0
0
0
0
0
0
0
0
0
0
0
0
0
0
0
0
0
0
0
0
0
0.000474577
0.000474772
0.000477551
0.000501547
0.000412669
7.79122e-05
4.18099e-06
4.41509e-08
3.42502e-10
2.38072e-12
1.36177e-14
7.31809e-17
3.32991e-19
1.42104e-21
1.27394e-28
1.08523e-30
2.89069e-33
9.69125e-36
3.43833e-38
1.21502e-40
4.13401e-43
1.33413e-45
4.24581e-48
1.27008e-50
3.99046e-53
1.23767e-55
4.35945e-58
1.59813e-60
6.46994e-63
2.69968e-65
1.00785e-67
3.36225e-70
1.1319e-72
3.896e-75
1.2773e-77
3.79445e-80
1.0374e-82
2.66481e-85
6.52155e-88
1.53467e-90
3.48954e-93
7.66842e-96
1.62646e-98
2.7999e-101
9.22496e-110
2.5831e-112
6.12794e-115
1.29028e-117
2.5499e-120
4.83481e-123
8.88966e-126
1.59262e-128
2.78866e-131
4.77602e-134
8.00448e-137
1.31194e-139
2.10006e-142
3.28393e-145
5.02397e-148
7.55036e-151
1.12078e-153
1.6488e-156
2.40665e-159
3.48003e-162
4.97063e-165
6.99644e-168
5.59232e-171
1.79514e-174
6.16903e-178
1.97411e-181
5.59452e-185
1.40627e-188
3.1698e-192
3.65762e-196
1.2117e-209
6.05403e-213
1.96519e-216
5.11137e-220
1.18641e-223
2.56128e-227
5.237e-231
1.02418e-234
1.92882e-238
3.51676e-242
6.23848e-246
1.08161e-249
1.83876e-253
3.06962e-257
5.03214e-261
8.09852e-265
1.28064e-268
1.99502e-272
3.07438e-276
4.70886e-280
7.20037e-284
1.10285e-287
1.69516e-291
2.61582e-295
4.04707e-299
6.26378e-303
9.67007e-307
1.485e-310
2.25086e-314
1.88235e-318
0
0
0
0
0
0
0
0
0
0
0
0
0
0
0
0
0
0
0
0
0
0
0
0
0
0
0
0
0
0
0
0
0
0
0
0
0
0
0
0
0
0
0
0
0
0
0
0
0
0
0
0
0
0
0
0
0
0
0
0
0
0
0
0
0
0
0
0
0
0
0
0
0
0
0
0
0
0
0
0
0
0
0
0
0
0
0
0
0
0
0
0
0
0
0
0
0
0
0
0
0
0
0
0
0
0
0
0
0
0
0
0
0
0
0
0
0
0
0
0
0
0
0
0
0
0
0
0
0
0
0
0
0
0
0
0
0
0
0
0
0
0
0
0
0
0
0
0
0
0
0
0
0
0
0
0
0
0
0
0
0
0
0
0
0
0
0
0
0
0
0
0
0
0
0
0
0
0
0
0
0
0
0
0
0
0
0
0
0
0
0
0
0
0
0
0
0
0
0
0
0
0
0
0
0
0
0
0
0
0
0
0
0
0
0
0
0
0
0
0
0
0
0
0
0
0
0
0
0
0
0
0
0
0
0
0
0
0
0
0
0
0
0
0
0
0
0
0
0
0
0
0
0
0
0
0
0
0
0
0
0
0
0
0
0
0
0
0
0
0
0.000477422
0.000478303
0.000482457
0.000454084
0.00020353
3.22044e-05
2.39932e-06
4.20979e-08
5.46716e-10
6.25334e-12
6.2288e-14
5.53026e-16
4.87757e-18
3.89281e-20
2.01817e-22
1.22982e-24
6.61125e-27
3.54188e-29
1.9902e-31
9.04063e-34
4.07933e-36
1.61165e-38
6.18166e-41
2.1748e-43
7.30024e-46
2.32902e-48
7.07878e-51
2.15644e-53
6.68898e-56
2.19093e-58
7.8476e-61
2.98952e-63
1.14078e-65
3.99459e-68
1.33035e-70
4.44751e-73
1.47846e-75
4.65895e-78
1.35778e-80
3.69606e-83
9.50907e-86
2.33332e-88
5.49109e-91
1.24184e-93
2.70252e-96
5.63815e-99
1.05483e-101
1.82459e-104
3.57657e-107
7.47562e-110
1.50848e-112
2.99834e-115
5.84382e-118
1.11401e-120
2.07799e-123
3.79267e-126
6.77389e-129
1.1837e-131
2.02373e-134
3.38554e-137
5.53569e-140
8.84052e-143
1.38061e-145
2.11461e-148
3.19032e-151
4.75778e-154
7.02697e-157
1.02781e-159
1.48564e-162
2.11856e-165
2.97469e-168
1.89913e-171
3.93647e-175
1.04521e-178
2.60812e-182
5.63783e-186
1.03527e-189
1.66351e-193
1.45667e-197
4.555e-202
7.71433e-206
1.65481e-209
3.20427e-213
6.09101e-217
1.12778e-220
2.02532e-224
3.54579e-228
6.06126e-232
1.01215e-235
1.65133e-239
2.63291e-243
4.10575e-247
6.25935e-251
9.3044e-255
1.34443e-258
1.88767e-262
2.5877e-266
3.4912e-270
4.67334e-274
6.24801e-278
8.37422e-282
1.1263e-285
1.51904e-289
2.05102e-293
2.76496e-297
3.70134e-301
4.85168e-305
5.99044e-309
6.71583e-313
7.00133e-317
4.13533e-321
0
0
0
0
0
0
0
0
0
0
0
0
0
0
0
0
0
0
0
0
0
0
0
0
0
0
0
0
0
0
0
0
0
0
0
0
0
0
0
0
0
0
0
0
0
0
0
0
0
0
0
0
0
0
0
0
0
0
0
0
0
0
0
0
0
0
0
0
0
0
0
0
0
0
0
0
0
0
0
0
0
0
0
0
0
0
0
0
0
0
0
0
0
0
0
0
0
0
0
0
0
0
0
0
0
0
0
0
0
0
0
0
0
0
0
0
0
0
0
0
0
0
0
0
0
0
0
0
0
0
0
0
0
0
0
0
0
0
0
0
0
0
0
0
0
0
0
0
0
0
0
0
0
0
0
0
0
0
0
0
0
0
0
0
0
0
0
0
0
0
0
0
0
0
0
0
0
0
0
0
0
0
0
0
0
0
0
0
0
0
0
0
0
0
0
0
0
0
0
0
0
0
0
0
0
0
0
0
0
0
0
0
0
0
0
0
0
0
0
0
0
0
0
0
0
0
0
0
0
0
0
0
0
0
0
0
0
0
0
0
0
0
0
0
0
0
0
0
0
0
0
0
0
0
0
0
0
0
0
0
0
0
0
0
0
0
0
0
0
0
0
0
0
0
0
0
0
0
0
0
0
0
0
0
0
0
0
0
0
0.000482605
0.000482282
0.000443933
0.000144076
2.85778e-05
1.39584e-05
5.24303e-07
7.72357e-09
1.22666e-10
1.56516e-12
1.73374e-14
1.69308e-16
1.60004e-18
1.34247e-20
9.64598e-23
6.28239e-25
3.44931e-27
1.81066e-29
1.14622e-31
5.52784e-34
2.88511e-36
1.30826e-38
5.75211e-41
2.42492e-43
9.46913e-46
3.67366e-48
1.34827e-50
4.98225e-53
1.82764e-55
6.94767e-58
2.6808e-60
1.07433e-62
4.34952e-65
1.71633e-67
6.3408e-70
2.25079e-72
7.89937e-75
2.67306e-77
8.50565e-80
2.54779e-82
7.2169e-85
1.94017e-87
4.97351e-90
1.223e-92
2.90334e-95
6.64578e-98
1.47709e-100
3.36974e-103
7.56066e-106
1.60445e-108
3.34641e-111
6.80102e-114
1.35071e-116
2.62407e-119
4.98989e-122
9.2925e-125
1.69477e-127
3.02558e-130
5.28611e-133
9.04065e-136
1.51307e-138
2.4761e-141
3.96533e-144
6.2283e-147
9.61496e-150
1.46148e-152
2.19078e-155
3.24101e-158
4.72984e-161
6.80721e-164
9.65692e-167
1.34587e-169
3.67115e-173
9.24387e-177
2.09758e-180
4.24972e-184
7.74055e-188
1.21455e-191
1.80789e-195
2.90521e-199
4.30476e-203
5.95639e-207
8.66358e-211
1.26738e-214
1.87758e-218
2.80371e-222
4.19257e-226
6.25382e-230
9.27037e-234
1.36092e-237
1.97307e-241
2.81939e-245
3.96492e-249
5.47424e-253
7.39977e-257
9.7823e-261
1.26682e-264
1.61355e-268
2.03215e-272
2.54382e-276
3.17563e-280
3.95819e-284
4.92246e-288
6.09614e-292
7.48631e-296
9.04672e-300
1.05994e-303
1.18877e-307
1.28086e-311
1.2689e-315
1.25537e-319
1.4822e-323
0
0
0
0
0
0
0
0
0
0
0
0
0
0
0
0
0
0
0
0
0
0
0
0
0
0
0
0
0
0
0
0
0
0
0
0
0
0
0
0
0
0
0
0
0
0
0
0
0
0
0
0
0
0
0
0
0
0
0
0
0
0
0
0
0
0
0
0
0
0
0
0
0
0
0
0
0
0
0
0
0
0
0
0
0
0
0
0
0
0
0
0
0
0
0
0
0
0
0
0
0
0
0
0
0
0
0
0
0
0
0
0
0
0
0
0
0
0
0
0
0
0
0
0
0
0
0
0
0
0
0
0
0
0
0
0
0
0
0
0
0
0
0
0
0
0
0
0
0
0
0
0
0
0
0
0
0
0
0
0
0
0
0
0
0
0
0
0
0
0
0
0
0
0
0
0
0
0
0
0
0
0
0
0
0
0
0
0
0
0
0
0
0
0
0
0
0
0
0
0
0
0
0
0
0
0
0
0
0
0
0
0
0
0
0
0
0
0
0
0
0
0
0
0
0
0
0
0
0
0
0
0
0
0
0
0
0
0
0
0
0
0
0
0
0
0
0
0
0
0
0
0
0
0
0
0
0
0
0
0
0
0
0
0
0
0
0
0
0
0
0
0
0
0
0
0
0
0
0
0
0
0
0
0
0
0
0
0
0.000483853
0.000448498
0.000107705
4.71249e-07
4.02302e-07
2.7218e-07
1.05115e-08
9.27627e-11
1.16131e-12
1.36322e-14
1.49512e-16
1.52653e-18
1.4261e-20
1.19378e-22
6.93964e-25
3.72065e-27
1.74587e-29
8.20809e-32
4.35191e-34
2.01448e-36
9.78692e-39
4.3252e-41
1.84227e-43
7.5218e-46
2.91564e-48
1.09393e-50
3.98736e-53
1.4381e-55
5.24506e-58
1.95228e-60
7.57667e-63
3.04859e-65
1.27934e-67
5.29763e-70
2.04251e-72
7.38378e-75
2.62301e-77
9.08952e-80
2.98295e-82
9.19201e-85
2.67412e-87
7.39249e-90
1.95251e-92
4.94824e-95
1.20639e-97
2.81993e-100
6.56e-103
1.51727e-105
3.35569e-108
7.19117e-111
1.50686e-113
3.08764e-116
6.20072e-119
1.2219e-121
2.3644e-124
4.49134e-127
8.37191e-130
1.53007e-132
2.73996e-135
4.80513e-138
8.24792e-141
1.38549e-143
2.27816e-146
3.6693e-149
5.79404e-152
8.98179e-155
1.3694e-157
2.05651e-160
3.04486e-163
4.44608e-166
6.40177e-169
8.8646e-172
2.25773e-175
5.12296e-179
1.02603e-182
1.81672e-186
2.8463e-190
3.9219e-194
5.48971e-198
8.32501e-202
1.19959e-205
1.69257e-209
2.49236e-213
3.67318e-217
5.3243e-221
7.55987e-225
1.05089e-228
1.43306e-232
1.92402e-236
2.55258e-240
3.35774e-244
4.39092e-248
5.7174e-252
7.41814e-256
9.58818e-260
1.23399e-263
1.58058e-267
2.01441e-271
2.55569e-275
3.23159e-279
4.08105e-283
5.15849e-287
6.5387e-291
8.32189e-295
1.06274e-298
1.35691e-302
1.71783e-306
2.12013e-310
2.47672e-314
2.64047e-318
2.91499e-322
0
0
0
0
0
0
0
0
0
0
0
0
0
0
0
0
0
0
0
0
0
0
0
0
0
0
0
0
0
0
0
0
0
0
0
0
0
0
0
0
0
0
0
0
0
0
0
0
0
0
0
0
0
0
0
0
0
0
0
0
0
0
0
0
0
0
0
0
0
0
0
0
0
0
0
0
0
0
0
0
0
0
0
0
0
0
0
0
0
0
0
0
0
0
0
0
0
0
0
0
0
0
0
0
0
0
0
0
0
0
0
0
0
0
0
0
0
0
0
0
0
0
0
0
0
0
0
0
0
0
0
0
0
0
0
0
0
0
0
0
0
0
0
0
0
0
0
0
0
0
0
0
0
0
0
0
0
0
0
0
0
0
0
0
0
0
0
0
0
0
0
0
0
0
0
0
0
0
0
0
0
0
0
0
0
0
0
0
0
0
0
0
0
0
0
0
0
0
0
0
0
0
0
0
0
0
0
0
0
0
0
0
0
0
0
0
0
0
0
0
0
0
0
0
0
0
0
0
0
0
0
0
0
0
0
0
0
0
0
0
0
0
0
0
0
0
0
0
0
0
0
0
0
0
0
0
0
0
0
0
0
0
0
0
0
0
0
0
0
0
0
0
0
0
0
0
0
0
0
0
0
0
0
0
0
0
0
0
0
0.000261528
0.000106945
8.07129e-08
4.93927e-08
1.31416e-08
2.67192e-09
2.51032e-11
3.0546e-13
3.60302e-15
3.92929e-17
3.91614e-19
3.54897e-21
2.90574e-23
2.13385e-25
1.38713e-27
8.12125e-30
4.42533e-32
2.19874e-34
1.13075e-36
5.09019e-39
2.37411e-41
1.00701e-43
4.12296e-46
1.62964e-48
6.11077e-51
2.24888e-53
8.00042e-56
2.88732e-58
1.05177e-60
4.02653e-63
1.61084e-65
6.80064e-68
2.97801e-70
1.29212e-72
5.21179e-75
1.95996e-77
7.11978e-80
2.48502e-82
8.1609e-85
2.51799e-87
7.33964e-90
2.03161e-92
5.36438e-95
1.3575e-97
3.30883e-100
7.72829e-103
1.76377e-105
3.97704e-108
8.69973e-111
1.85367e-113
3.8668e-116
7.88453e-119
1.57252e-121
3.07423e-124
5.90099e-127
1.11271e-129
2.06005e-132
3.74109e-135
6.65754e-138
1.16029e-140
1.97947e-143
3.30578e-146
5.40676e-149
8.66586e-152
1.36211e-154
2.10114e-157
3.18286e-160
4.73853e-163
6.9398e-166
1.00049e-168
1.41622e-171
4.32537e-175
1.22144e-178
3.13209e-182
7.26841e-186
1.53514e-189
2.98168e-193
5.28508e-197
8.74004e-201
1.39278e-204
2.13039e-208
3.17383e-212
4.71148e-216
6.98697e-220
1.03e-223
1.49947e-227
2.14505e-231
3.01002e-235
4.14852e-239
5.63621e-243
7.58605e-247
1.0173e-250
1.36655e-254
1.84779e-258
2.52474e-262
3.49515e-266
4.90986e-270
7.00303e-274
1.01391e-277
1.48863e-281
2.21305e-285
3.32384e-289
5.03154e-293
7.65642e-297
1.16778e-300
1.77943e-304
2.69857e-308
4.05526e-312
6.01326e-316
8.62886e-320
9.88131e-324
0
0
0
0
0
0
0
0
0
0
0
0
0
0
0
0
0
0
0
0
0
0
0
0
0
0
0
0
0
0
0
0
0
0
0
0
0
0
0
0
0
0
0
0
0
0
0
0
0
0
0
0
0
0
0
0
0
0
0
0
0
0
0
0
0
0
0
0
0
0
0
0
0
0
0
0
0
0
0
0
0
0
0
0
0
0
0
0
0
0
0
0
0
0
0
0
0
0
0
0
0
0
0
0
0
0
0
0
0
0
0
0
0
0
0
0
0
0
0
0
0
0
0
0
0
0
0
0
0
0
0
0
0
0
0
0
0
0
0
0
0
0
0
0
0
0
0
0
0
0
0
0
0
0
0
0
0
0
0
0
0
0
0
0
0
0
0
0
0
0
0
0
0
0
0
0
0
0
0
0
0
0
0
0
0
0
0
0
0
0
0
0
0
0
0
0
0
0
0
0
0
0
0
0
0
0
0
0
0
0
0
0
0
0
0
0
0
0
0
0
0
0
0
0
0
0
0
0
0
0
0
0
0
0
0
0
0
0
0
0
0
0
0
0
0
0
0
0
0
0
0
0
0
0
0
0
0
0
0
0
0
0
0
0
0
0
0
0
0
0
0
0
0
0
0
0
0
0
0
0
0
0
0
0
0
0
0
0
0
4.21311e-06
3.60461e-07
7.03521e-09
1.0391e-09
4.08578e-11
2.65406e-12
4.15981e-14
5.20673e-16
6.07226e-18
6.55545e-20
6.15376e-22
5.21398e-24
4.0508e-26
2.68963e-28
1.73619e-30
9.94248e-33
5.24351e-35
2.62949e-37
1.24242e-39
5.6404e-42
2.43357e-44
9.97202e-47
3.96508e-49
1.49118e-51
5.47181e-54
1.96345e-56
6.95614e-59
2.50994e-61
9.40187e-64
3.67053e-66
1.53924e-68
6.6322e-71
2.99449e-73
1.34907e-75
5.75635e-78
2.26765e-80
8.33243e-83
2.86854e-85
9.25328e-88
2.80399e-90
8.02698e-93
2.18306e-95
5.67056e-98
1.41345e-100
3.39602e-103
7.84127e-106
1.76362e-108
3.87626e-111
8.29934e-114
1.74167e-116
3.56799e-119
7.15296e-122
1.40536e-124
2.70966e-127
5.13092e-130
9.54439e-133
1.74371e-135
3.12675e-138
5.49826e-141
9.47271e-144
1.59815e-146
2.63945e-149
4.268e-152
6.75815e-155
1.04851e-157
1.59523e-160
2.38165e-163
3.49287e-166
5.03751e-169
7.14785e-172
4.90978e-175
9.75047e-179
2.6653e-182
7.34619e-186
1.87369e-189
4.39304e-193
9.5456e-197
1.93261e-200
3.70398e-204
6.76901e-208
1.1874e-211
2.02074e-215
3.3394e-219
5.38122e-223
8.46631e-227
1.302e-230
1.95997e-234
2.89443e-238
4.20584e-242
6.03726e-246
8.60333e-250
1.22434e-253
1.75245e-257
2.54292e-261
3.77162e-265
5.75679e-269
9.08002e-273
1.48034e-276
2.48443e-280
4.26255e-284
7.41453e-288
1.29729e-291
2.26778e-295
3.94051e-299
6.7827e-303
1.15402e-306
1.93862e-310
3.21317e-314
5.25285e-318
8.44852e-322
0
0
0
0
0
0
0
0
0
0
0
0
0
0
0
0
0
0
0
0
0
0
0
0
0
0
0
0
0
0
0
0
0
0
0
0
0
0
0
0
0
0
0
0
0
0
0
0
0
0
0
0
0
0
0
0
0
0
0
0
0
0
0
0
0
0
0
0
0
0
0
0
0
0
0
0
0
0
0
0
0
0
0
0
0
0
0
0
0
0
0
0
0
0
0
0
0
0
0
0
0
0
0
0
0
0
0
0
0
0
0
0
0
0
0
0
0
0
0
0
0
0
0
0
0
0
0
0
0
0
0
0
0
0
0
0
0
0
0
0
0
0
0
0
0
0
0
0
0
0
0
0
0
0
0
0
0
0
0
0
0
0
0
0
0
0
0
0
0
0
0
0
0
0
0
0
0
0
0
0
0
0
0
0
0
0
0
0
0
0
0
0
0
0
0
0
0
0
0
0
0
0
0
0
0
0
0
0
0
0
0
0
0
0
0
0
0
0
0
0
0
0
0
0
0
0
0
0
0
0
0
0
0
0
0
0
0
0
0
0
0
0
0
0
0
0
0
0
0
0
0
0
0
0
0
0
0
0
0
0
0
0
0
0
0
0
0
0
0
0
0
0
0
0
0
0
0
0
0
0
0
0
0
0
0
0
0
0
0
0
1.69327e-09
1.34895e-09
3.7753e-10
2.41362e-11
3.66075e-13
9.84694e-15
1.56045e-16
2.13638e-18
2.56407e-20
2.64773e-22
2.4574e-24
1.98632e-26
1.45666e-28
9.63869e-31
5.81424e-33
3.25957e-35
1.68767e-37
8.16663e-40
3.74327e-42
1.63297e-44
6.75491e-47
2.67278e-49
1.01995e-51
3.74166e-54
1.33341e-56
4.71609e-59
1.67454e-61
6.10507e-64
2.35974e-66
9.54805e-69
4.12634e-71
1.8326e-73
8.43339e-76
3.92133e-78
1.78655e-80
7.47127e-83
2.80682e-85
9.62783e-88
3.07484e-90
9.21772e-93
2.61187e-95
7.0384e-98
1.81346e-100
4.48684e-103
1.06995e-105
2.463e-108
5.49738e-111
1.19409e-113
2.52847e-116
5.22888e-119
1.05653e-121
2.08917e-124
4.04798e-127
7.69244e-130
1.43461e-132
2.62644e-135
4.72047e-138
8.3272e-141
1.4411e-143
2.4454e-146
4.06713e-149
6.62836e-152
1.05851e-154
1.65647e-157
2.54085e-160
3.82187e-163
5.6399e-166
8.17094e-169
1.16312e-171
1.41139e-174
3.40235e-178
7.91009e-182
1.97078e-185
5.16742e-189
1.34679e-192
3.36582e-196
7.98305e-200
1.80171e-203
3.90499e-207
8.20364e-211
1.68569e-214
3.41573e-218
6.8587e-222
1.36957e-225
2.72368e-229
5.39589e-233
1.06474e-236
2.09223e-240
4.09574e-244
7.99664e-248
1.55993e-251
3.04724e-255
5.97499e-259
1.17842e-262
2.34106e-266
4.68615e-270
9.44554e-274
1.91426e-277
3.8921e-281
7.9197e-285
1.60869e-288
3.25383e-292
6.53806e-296
1.30216e-299
2.5656e-303
4.99267e-307
9.58275e-311
1.81243e-314
3.37613e-318
6.17582e-322
0
0
0
0
0
0
0
0
0
0
0
0
0
0
0
0
0
0
0
0
0
0
0
0
0
0
0
0
0
0
0
0
0
0
0
0
0
0
0
0
0
0
0
0
0
0
0
0
0
0
0
0
0
0
0
0
0
0
0
0
0
0
0
0
0
0
0
0
0
0
0
0
0
0
0
0
0
0
0
0
0
0
0
0
0
0
0
0
0
0
0
0
0
0
0
0
0
0
0
0
0
0
0
0
0
0
0
0
0
0
0
0
0
0
0
0
0
0
0
0
0
0
0
0
0
0
0
0
0
0
0
0
0
0
0
0
0
0
0
0
0
0
0
0
0
0
0
0
0
0
0
0
0
0
0
0
0
0
0
0
0
0
0
0
0
0
0
0
0
0
0
0
0
0
0
0
0
0
0
0
0
0
0
0
0
0
0
0
0
0
0
0
0
0
0
0
0
0
0
0
0
0
0
0
0
0
0
0
0
0
0
0
0
0
0
0
0
0
0
0
0
0
0
0
0
0
0
0
0
0
0
0
0
0
0
0
0
0
0
0
0
0
0
0
0
0
0
0
0
0
0
0
0
0
0
0
0
0
0
0
0
0
0
0
0
0
0
0
0
0
0
0
0
0
0
0
0
0
0
0
0
0
0
0
0
0
0
0
0
0
7.43524e-11
5.59617e-11
1.03756e-11
2.90893e-13
4.90934e-15
9.20809e-17
1.40376e-18
1.84345e-20
2.09199e-22
2.08187e-24
1.81083e-26
1.41587e-28
9.83895e-31
6.22419e-33
3.6396e-35
1.92547e-37
9.77165e-40
4.53895e-42
2.02959e-44
8.54168e-47
3.4447e-49
1.32287e-51
4.9173e-54
1.77008e-56
6.23863e-59
2.19827e-61
7.90407e-64
2.95092e-66
1.17789e-68
4.93999e-71
2.19694e-73
1.01212e-75
4.79285e-78
2.34208e-80
1.12239e-82
4.8308e-85
1.82835e-87
6.25802e-90
1.98527e-92
5.9021e-95
1.65771e-97
4.42818e-100
1.13112e-102
2.77511e-105
6.56379e-108
1.50073e-110
3.32597e-113
7.16414e-116
1.50295e-118
3.07591e-121
6.15015e-124
1.20297e-126
2.30421e-129
4.32548e-132
7.96243e-135
1.43796e-137
2.54803e-140
4.43057e-143
7.55919e-146
1.26533e-148
2.07767e-151
3.34648e-154
5.2873e-157
8.1945e-160
1.24598e-162
1.85915e-165
2.72318e-168
3.91696e-171
5.34248e-174
1.63606e-177
4.32002e-181
1.07039e-184
2.67546e-188
6.89544e-192
1.79721e-195
4.61256e-199
1.14847e-202
2.76583e-206
6.46681e-210
1.47711e-213
3.31601e-217
7.34943e-221
1.61236e-224
3.50481e-228
7.54849e-232
1.61052e-235
3.40432e-239
7.13462e-243
1.48429e-246
3.07102e-250
6.33197e-254
1.30363e-257
2.68419e-261
5.53352e-265
1.14257e-268
2.36225e-272
4.88628e-276
1.01007e-279
2.08385e-283
4.28414e-287
8.76507e-291
1.7821e-294
3.59603e-298
7.19231e-302
1.42432e-305
2.78993e-309
5.40103e-313
1.03281e-316
1.95057e-320
4.94066e-324
0
0
0
0
0
0
0
0
0
0
0
0
0
0
0
0
0
0
0
0
0
0
0
0
0
0
0
0
0
0
0
0
0
0
0
0
0
0
0
0
0
0
0
0
0
0
0
0
0
0
0
0
0
0
0
0
0
0
0
0
0
0
0
0
0
0
0
0
0
0
0
0
0
0
0
0
0
0
0
0
0
0
0
0
0
0
0
0
0
0
0
0
0
0
0
0
0
0
0
0
0
0
0
0
0
0
0
0
0
0
0
0
0
0
0
0
0
0
0
0
0
0
0
0
0
0
0
0
0
0
0
0
0
0
0
0
0
0
0
0
0
0
0
0
0
0
0
0
0
0
0
0
0
0
0
0
0
0
0
0
0
0
0
0
0
0
0
0
0
0
0
0
0
0
0
0
0
0
0
0
0
0
0
0
0
0
0
0
0
0
0
0
0
0
0
0
0
0
0
0
0
0
0
0
0
0
0
0
0
0
0
0
0
0
0
0
0
0
0
0
0
0
0
0
0
0
0
0
0
0
0
0
0
0
0
0
0
0
0
0
0
0
0
0
0
0
0
0
0
0
0
0
0
0
0
0
0
0
0
0
0
0
0
0
0
0
0
0
0
0
0
0
0
0
0
0
0
0
0
0
0
0
0
0
0
0
0
0
0
0
1.53694e-12
1.2381e-12
1.99155e-13
4.30888e-15
7.00055e-17
1.05924e-18
1.41908e-20
1.68625e-22
1.77693e-24
1.65316e-26
1.36548e-28
1.00395e-30
6.745e-33
4.04729e-35
2.2967e-37
1.17061e-39
5.7658e-42
2.60084e-44
1.13399e-46
4.64855e-49
1.82449e-51
6.88974e-54
2.50194e-56
8.93259e-59
3.12906e-61
1.10987e-63
4.03851e-66
1.55008e-68
6.27614e-71
2.69898e-73
1.19378e-75
5.48682e-78
2.5078e-80
1.15871e-82
5.04936e-85
1.9855e-87
7.01647e-90
2.28407e-92
6.93233e-95
1.98014e-97
5.36325e-100
1.38604e-102
3.4349e-105
8.19519e-108
1.88875e-110
4.21554e-113
9.13395e-116
1.92559e-118
3.95727e-121
7.94075e-124
1.55782e-126
2.99143e-129
5.62744e-132
1.03775e-134
1.87686e-137
3.33019e-140
5.79809e-143
9.90641e-146
1.66083e-148
2.73207e-151
4.40979e-154
6.98372e-157
1.08523e-159
1.65476e-162
2.47624e-165
3.63759e-168
5.24723e-171
7.20294e-174
9.6512e-178
2.30694e-181