/*--------------------------------*- C++ -*----------------------------------*\
| =========                 |                                                 |
| \\      /  F ield         | OpenFOAM: The Open Source CFD Toolbox           |
|  \\    /   O peration     | Version:  2.1.1                                 |
|   \\  /    A nd           | Web:      www.OpenFOAM.org                      |
|    \\/     M anipulation  |                                                 |
\*---------------------------------------------------------------------------*/
FoamFile
{
    version     2.0;
    format      ascii;
    class       volScalarField;
    location    "0.005750000";
    object      HO2;
}
// * * * * * * * * * * * * * * * * * * * * * * * * * * * * * * * * * * * * * //

dimensions      [0 0 0 0 0 0 0];

internalField   nonuniform List<scalar> 
12384
(
9.00753e-06
1.04047e-05
1.10347e-05
1.11931e-05
1.10616e-05
1.08131e-05
1.07198e-05
1.06008e-05
1.07819e-05
1.07259e-05
1.07416e-05
1.02582e-05
7.32972e-06
8.29499e-06
1.14356e-05
1.09193e-05
1.09114e-05
1.11927e-05
1.13715e-05
1.13997e-05
1.15055e-05
1.15378e-05
1.17167e-05
1.17758e-05
1.18286e-05
1.18694e-05
1.18004e-05
1.17384e-05
1.16957e-05
1.13256e-05
1.15129e-05
1.10798e-05
1.12866e-05
1.09725e-05
1.11374e-05
1.10591e-05
1.11017e-05
1.10753e-05
1.10553e-05
1.08626e-05
1.03488e-05
9.69588e-06
9.54573e-06
9.74095e-06
3.6631e-06
8.79874e-06
9.99905e-06
1.00433e-05
9.90312e-06
9.36552e-06
9.09638e-06
8.96276e-06
8.67057e-06
8.46741e-06
8.15595e-06
8.12237e-06
7.44998e-06
7.756e-06
7.3923e-06
7.187e-06
7.17514e-06
6.88629e-06
6.93456e-06
6.75917e-06
6.85348e-06
6.96124e-06
7.12065e-06
7.27484e-06
7.44243e-06
6.81205e-06
4.95049e-06
6.58049e-06
6.51234e-06
4.99206e-06
1.11608e-06
1.45129e-06
1.64154e-06
1.71584e-06
1.67522e-06
1.70154e-06
1.70654e-06
1.72751e-06
1.70147e-06
1.69549e-06
1.70543e-06
1.65187e-06
1.64604e-06
1.57991e-06
1.59207e-06
1.59781e-06
1.53544e-06
1.76021e-06
1.65935e-06
1.9914e-06
2.07149e-06
2.21166e-06
2.33156e-06
2.34373e-06
2.34111e-06
3.34194e-06
3.55672e-06
2.54339e-06
2.35455e-06
2.32298e-06
2.73727e-07
3.14446e-07
4.32567e-07
5.38468e-07
5.95172e-07
8.84485e-07
9.67917e-07
1.017e-06
9.37265e-07
1.06018e-06
8.9638e-07
1.04254e-06
9.46935e-07
9.86931e-07
1.02935e-06
1.09522e-06
1.18456e-06
1.16166e-06
1.27072e-06
1.29398e-06
1.09379e-06
1.12377e-06
3.53365e-06
4.33153e-06
3.54886e-06
2.56448e-06
2.38967e-06
2.27512e-06
2.31466e-06
2.37738e-06
1.18108e-07
6.27747e-08
3.38576e-08
3.31222e-08
4.51981e-08
4.95845e-08
6.30363e-08
7.41042e-08
9.36493e-08
1.00084e-07
1.21676e-07
1.30027e-07
1.39334e-07
1.48271e-07
1.51006e-07
1.56425e-07
1.57897e-07
1.63472e-07
1.60981e-07
1.62982e-07
1.5686e-07
1.60592e-07
1.57984e-07
1.55155e-07
1.49987e-07
1.39434e-07
1.0823e-07
1.13966e-07
3.11418e-07
4.50186e-07
8.03849e-07
8.43643e-07
1.33791e-06
1.49244e-06
1.23204e-06
7.93955e-07
3.19064e-07
3.01562e-07
2.7517e-07
2.84861e-07
2.46574e-07
2.62957e-07
2.33285e-07
2.55635e-07
2.19067e-07
2.44475e-07
2.19909e-07
2.34348e-07
2.39702e-07
2.5827e-07
2.78155e-07
2.97167e-07
4.80913e-07
5.2173e-07
3.25848e-06
6.03004e-06
6.0817e-06
5.48864e-06
5.0944e-06
4.83835e-06
1.95175e-06
1.3845e-06
3.31465e-07
1.27177e-07
9.3693e-08
7.86165e-08
6.50035e-08
6.89842e-08
5.805e-08
5.69002e-08
4.56611e-08
5.51407e-08
4.49567e-08
4.98408e-08
5.43373e-08
4.84491e-08
5.12135e-08
5.81554e-08
6.49407e-08
6.27077e-08
5.94559e-08
5.55921e-08
7.79435e-08
1.8094e-07
3.69975e-07
3.8421e-07
3.89482e-07
3.80413e-07
3.87835e-07
3.90352e-07
3.29425e-07
3.44419e-07
3.31552e-07
2.711e-07
2.4574e-07
1.88183e-07
1.73105e-07
2.03153e-07
1.90168e-07
1.71122e-07
1.80767e-07
1.73445e-07
1.81626e-07
1.87303e-07
2.00199e-07
2.19123e-07
2.30963e-07
2.37951e-07
2.49653e-07
2.63752e-07
2.03525e-07
1.33737e-08
3.66124e-09
3.46325e-09
5.08007e-09
6.02482e-09
5.94419e-09
6.12433e-09
4.35347e-09
3.67868e-09
2.70408e-06
9.0518e-07
2.88357e-07
1.39588e-07
1.29619e-07
1.26473e-07
1.24538e-07
1.21359e-07
1.16556e-07
1.12502e-07
9.66536e-08
1.11041e-07
9.93363e-08
1.11778e-07
9.05487e-08
9.92632e-08
1.22157e-07
1.2145e-07
1.31784e-07
1.43367e-07
1.91746e-07
2.05387e-07
9.12525e-08
5.06525e-08
4.70841e-08
4.36177e-08
3.89268e-08
3.7778e-08
3.22898e-08
3.78407e-08
6.31976e-08
4.30541e-08
4.6993e-08
4.23987e-08
4.88891e-08
5.18622e-08
5.05383e-08
5.54968e-08
4.78876e-08
5.06436e-08
4.48692e-08
4.28796e-08
3.5051e-08
3.98585e-08
3.72701e-08
3.76926e-08
4.58331e-08
4.99649e-08
5.20757e-08
6.43814e-08
6.86074e-08
6.36949e-08
4.19153e-08
3.72291e-08
3.40787e-08
3.3271e-08
3.33891e-08
3.4612e-08
3.68693e-08
3.76432e-08
1.69915e-07
1.11293e-07
4.61025e-08
3.60163e-08
2.11909e-08
1.33711e-08
1.49418e-08
1.90793e-08
2.17554e-08
2.31603e-08
2.18429e-08
2.82443e-08
3.13311e-08
3.46095e-08
3.65064e-08
3.49507e-08
3.2809e-08
2.86972e-08
1.93395e-08
1.58081e-08
1.85974e-08
1.82863e-08
1.49824e-08
1.4811e-08
1.31499e-08
1.14185e-08
1.16491e-08
1.31135e-08
1.80866e-08
3.62647e-06
3.12784e-06
3.35283e-06
3.17311e-06
2.60176e-06
2.37632e-06
4.01181e-06
5.17237e-09
8.15698e-10
6.34455e-10
5.24845e-10
4.38011e-10
3.50893e-10
3.59598e-10
2.6469e-10
3.92664e-10
3.53127e-10
3.94255e-10
3.5017e-10
3.51541e-10
3.26757e-10
3.45513e-10
3.69366e-10
3.97861e-10
4.31154e-10
4.64489e-10
4.87607e-10
6.98372e-10
1.4853e-09
7.85493e-09
6.04959e-06
1.47388e-05
1.44787e-05
1.28946e-05
1.06533e-05
8.90443e-06
8.3202e-06
8.29174e-06
8.34589e-06
8.65586e-06
8.95247e-06
9.44096e-06
1.0211e-05
8.20852e-06
8.07935e-06
1.1367e-05
1.09764e-05
1.0994e-05
1.11206e-05
1.13169e-05
1.14534e-05
1.17563e-05
1.22374e-05
1.25584e-05
1.27472e-05
1.28385e-05
1.2818e-05
1.26942e-05
1.25116e-05
1.25822e-05
1.22398e-05
1.23312e-05
1.19527e-05
1.20466e-05
1.1769e-05
1.18335e-05
1.17302e-05
1.16724e-05
1.15668e-05
1.14929e-05
1.12377e-05
1.08395e-05
1.01772e-05
9.67188e-06
9.6329e-06
4.87116e-06
9.50927e-06
9.99044e-06
9.24225e-06
8.70978e-06
8.47315e-06
7.68626e-06
7.3744e-06
7.00461e-06
6.59194e-06
6.20451e-06
6.07732e-06
6.09669e-06
5.91081e-06
6.32163e-06
5.86661e-06
6.16705e-06
5.7954e-06
5.97208e-06
5.86004e-06
6.03781e-06
6.56398e-06
6.72088e-06
6.97045e-06
7.26428e-06
7.18345e-06
5.68248e-06
4.50779e-06
3.85285e-06
2.97114e-06
1.11288e-06
1.52076e-06
1.63819e-06
1.63192e-06
1.59849e-06
1.57081e-06
1.54753e-06
1.56975e-06
1.59596e-06
1.60963e-06
1.61355e-06
1.62543e-06
1.65048e-06
1.62431e-06
1.66303e-06
1.69064e-06
1.7112e-06
1.79141e-06
1.83024e-06
1.98687e-06
2.04342e-06
2.10817e-06
2.22742e-06
2.33088e-06
2.32246e-06
2.51524e-06
3.15501e-06
2.05384e-06
1.66243e-06
1.78376e-06
3.66752e-07
6.08137e-07
1.26724e-06
1.3829e-06
1.31585e-06
1.16792e-06
1.11889e-06
1.02596e-06
1.04245e-06
1.02414e-06
1.10382e-06
1.13746e-06
1.23235e-06
1.32709e-06
1.38094e-06
1.53527e-06
1.62338e-06
1.66585e-06
1.709e-06
1.65048e-06
1.41951e-06
1.13481e-06
2.12812e-06
4.18373e-06
2.54257e-06
1.79729e-06
1.43384e-06
1.32787e-06
1.52596e-06
1.76536e-06
1.01312e-07
5.3748e-08
2.99828e-08
4.3498e-08
7.02827e-08
8.33442e-08
1.05961e-07
1.28184e-07
1.60058e-07
1.46396e-07
1.94631e-07
2.00441e-07
1.95033e-07
2.16751e-07
2.06206e-07
1.89791e-07
1.94806e-07
1.90221e-07
2.08881e-07
2.08238e-07
1.81985e-07
1.84764e-07
1.83423e-07
1.84092e-07
1.81638e-07
1.6733e-07
1.28571e-07
1.01949e-07
1.29026e-07
1.73803e-07
7.88609e-07
1.03099e-06
1.39494e-06
7.79568e-07
2.67881e-07
1.95166e-07
2.1281e-07
2.37808e-07
2.76294e-07
3.06757e-07
6.61025e-07
8.32107e-07
8.45119e-07
8.64404e-07
8.2355e-07
8.09741e-07
8.05589e-07
7.18591e-07
6.96793e-07
6.68707e-07
5.75973e-07
5.68057e-07
5.1544e-07
5.63625e-07
1.16745e-06
4.33317e-06
5.98673e-06
6.23374e-06
6.09423e-06
5.53203e-06
2.81082e-07
7.2915e-08
4.42857e-08
4.30298e-08
4.93275e-08
6.24752e-08
7.51913e-08
8.10297e-08
8.44598e-08
8.07703e-08
7.93405e-08
7.83894e-08
7.3604e-08
7.34815e-08
6.94447e-08
6.56946e-08
7.10075e-08
6.73727e-08
6.48687e-08
6.638e-08
6.96302e-08
6.24032e-08
7.23238e-08
1.14799e-07
2.94972e-07
4.0395e-07
3.71251e-07
3.54511e-07
3.50497e-07
3.82576e-07
3.63276e-07
2.53233e-07
1.43781e-07
1.34751e-07
1.36754e-07
1.45291e-07
1.79944e-07
2.41689e-07
2.4892e-07
2.68439e-07
2.84637e-07
2.91345e-07
2.7021e-07
2.70723e-07
2.67474e-07
2.50784e-07
2.42652e-07
2.3871e-07
2.42974e-07
2.56065e-07
2.5643e-07
6.78647e-08
7.92749e-09
6.11727e-09
1.6726e-08
2.6556e-08
3.40521e-08
2.75085e-08
1.72356e-08
9.2653e-09
1.974e-06
2.40471e-07
1.10503e-07
1.05495e-07
1.13172e-07
1.17612e-07
1.29512e-07
1.66179e-07
1.93728e-07
2.44349e-07
2.51347e-07
2.58706e-07
2.4951e-07
2.39754e-07
2.11822e-07
2.15733e-07
2.09089e-07
2.03688e-07
1.88916e-07
1.95513e-07
2.00968e-07
2.2592e-07
1.43714e-07
7.30665e-08
4.66615e-08
3.58083e-08
3.33853e-08
3.02204e-08
3.63781e-08
3.35231e-08
5.68985e-08
4.11568e-08
4.42432e-08
5.50867e-08
5.9052e-08
6.68608e-08
6.43939e-08
6.25884e-08
6.71119e-08
6.59007e-08
5.97909e-08
6.3881e-08
5.60379e-08
5.54191e-08
5.57232e-08
5.81079e-08
5.77235e-08
6.19606e-08
6.25279e-08
6.30572e-08
6.10768e-08
6.87189e-08
4.12088e-08
3.7969e-08
2.62943e-08
2.10736e-08
2.09248e-08
2.28832e-08
2.691e-08
3.11284e-08
3.71436e-08
3.10683e-08
3.11528e-08
2.13912e-08
1.69012e-08
1.81798e-08
2.28601e-08
3.86889e-08
5.58264e-08
6.11831e-08
9.84812e-08
1.2433e-07
1.44276e-07
1.6041e-07
1.68598e-07
1.56154e-07
1.41618e-07
7.60584e-08
5.47469e-08
4.08848e-08
2.50308e-08
2.12828e-08
1.34174e-08
1.80575e-08
1.64217e-08
1.42611e-08
1.1191e-08
1.17939e-08
1.5715e-08
2.01014e-07
5.55335e-07
3.99526e-07
3.29896e-06
5.26513e-06
5.22595e-06
6.08016e-08
1.47823e-09
7.13313e-10
6.141e-10
5.64389e-10
5.39898e-10
5.3843e-10
5.35191e-10
3.76221e-10
4.41124e-10
4.35835e-10
4.4082e-10
4.12969e-10
3.61171e-10
2.98032e-10
2.97225e-10
3.1972e-10
3.77167e-10
3.92917e-10
4.18737e-10
4.57789e-10
8.13833e-10
1.8263e-09
7.83886e-09
6.18993e-06
1.47893e-05
1.29315e-05
8.85623e-06
7.67438e-06
7.36033e-06
7.3006e-06
7.58691e-06
7.87308e-06
8.19284e-06
8.30187e-06
8.59616e-06
9.20686e-06
8.72965e-06
8.05285e-06
1.12206e-05
1.09734e-05
1.086e-05
1.10323e-05
1.13268e-05
1.17897e-05
1.23585e-05
1.28975e-05
1.3198e-05
1.31451e-05
1.31891e-05
1.30511e-05
1.31029e-05
1.29351e-05
1.31401e-05
1.28259e-05
1.28522e-05
1.25601e-05
1.25462e-05
1.22176e-05
1.22361e-05
1.21172e-05
1.21186e-05
1.19949e-05
1.19642e-05
1.16955e-05
1.13125e-05
1.06456e-05
9.94738e-06
9.63532e-06
5.50674e-06
9.60197e-06
9.60937e-06
8.25789e-06
7.32889e-06
7.50551e-06
7.31282e-06
6.74648e-06
6.01233e-06
5.47942e-06
5.0721e-06
5.26395e-06
5.73559e-06
5.77765e-06
6.10682e-06
5.82097e-06
5.93877e-06
5.58513e-06
5.65036e-06
5.47131e-06
5.65713e-06
5.72475e-06
5.93018e-06
6.65578e-06
6.98695e-06
7.19817e-06
6.66371e-06
4.75538e-06
2.94754e-06
2.65397e-06
1.19376e-06
1.53977e-06
1.61676e-06
1.60277e-06
1.4973e-06
1.46017e-06
1.48915e-06
1.53798e-06
1.56125e-06
1.63269e-06
1.74548e-06
1.86341e-06
1.98879e-06
2.0603e-06
2.19855e-06
2.61159e-06
2.75335e-06
2.73255e-06
2.28232e-06
2.33438e-06
2.17303e-06
2.1637e-06
2.17846e-06
2.26662e-06
2.30393e-06
2.35799e-06
2.48618e-06
1.98858e-06
1.39798e-06
1.60425e-06
1.36018e-06
1.37387e-06
7.06011e-07
5.84676e-07
5.30662e-07
4.98137e-07
5.02358e-07
4.88606e-07
7.33194e-07
7.73598e-07
9.36319e-07
9.66686e-07
1.13161e-06
1.17295e-06
1.3261e-06
1.44623e-06
1.64125e-06
1.79211e-06
1.92974e-06
1.97048e-06
1.80308e-06
1.33524e-06
1.53634e-06
3.37677e-06
2.57877e-06
1.57285e-06
9.68698e-07
8.01981e-07
1.08744e-06
1.58876e-06
9.04272e-08
4.5699e-08
5.01854e-08
6.93797e-08
9.54262e-08
1.09365e-07
1.37275e-07
1.24564e-07
2.07152e-07
2.05203e-07
2.1163e-07
1.61736e-07
1.23724e-07
1.16121e-07
1.09285e-07
1.23723e-07
1.29759e-07
1.54704e-07
1.13083e-07
1.37067e-07
1.37072e-07
1.18834e-07
1.49172e-07
1.84758e-07
1.89759e-07
1.89016e-07
1.62666e-07
1.21182e-07
1.02282e-07
1.27989e-07
8.05485e-07
1.13526e-06
7.5975e-07
1.97985e-07
1.50178e-07
1.82915e-07
2.80541e-07
7.80235e-07
1.20676e-06
1.42078e-06
1.43203e-06
1.37096e-06
1.23557e-06
1.12122e-06
9.49527e-07
8.60691e-07
7.92614e-07
7.60683e-07
7.31559e-07
8.27081e-07
7.92378e-07
7.44095e-07
7.09364e-07
5.88605e-07
7.2324e-07
1.44605e-06
3.65356e-06
5.38046e-06
6.16055e-06
5.9785e-06
9.75856e-08
3.68439e-08
4.40374e-08
6.63365e-08
1.12714e-07
1.32653e-07
1.19182e-07
1.10292e-07
9.56308e-08
8.87071e-08
7.92443e-08
7.92952e-08
7.20718e-08
7.50273e-08
7.41557e-08
7.91806e-08
7.93352e-08
8.3306e-08
8.35092e-08
7.29074e-08
8.29518e-08
7.22349e-08
6.87116e-08
7.57446e-08
1.66982e-07
3.61335e-07
3.55132e-07
3.40667e-07
2.66839e-07
3.45971e-07
1.67403e-07
1.1806e-07
1.16816e-07
1.35589e-07
2.09658e-07
3.21056e-07
3.78396e-07
6.51059e-07
8.21447e-07
9.23778e-07
1.00379e-06
1.03541e-06
1.02342e-06
9.42734e-07
7.75045e-07
4.03122e-07
3.47688e-07
2.96348e-07
2.56469e-07
2.44918e-07
2.6074e-07
2.17988e-07
3.04744e-08
8.42573e-09
2.64553e-08
5.7083e-08
6.55841e-08
5.47538e-08
3.55318e-08
2.3908e-08
4.60198e-07
1.10446e-07
1.04952e-07
1.13883e-07
1.23426e-07
1.44298e-07
2.42273e-07
3.18018e-07
6.08454e-07
8.35535e-07
1.02547e-06
1.14337e-06
1.15635e-06
1.14617e-06
1.11643e-06
1.07339e-06
1.01396e-06
8.4465e-07
5.79458e-07
2.58894e-07
2.23069e-07
2.18044e-07
2.06959e-07
1.05693e-07
5.48089e-08
3.72659e-08
4.15556e-08
4.30999e-08
3.63604e-08
2.70603e-08
3.98424e-08
3.77324e-08
5.49207e-08
5.69861e-08
6.34851e-08
6.33079e-08
6.86359e-08
8.14403e-08
8.60908e-08
1.59716e-07
1.78287e-07
2.17898e-07
2.12051e-07
2.2305e-07
2.01929e-07
1.92433e-07
1.64883e-07
1.09988e-07
8.6911e-08
7.23179e-08
6.76656e-08
6.2555e-08
6.49734e-08
4.57403e-08
2.62148e-08
1.26309e-08
1.54724e-08
1.19581e-08
1.49438e-08
1.94848e-08
2.28153e-08
2.43971e-08
2.07879e-08
1.76246e-08
2.22527e-08
3.38945e-08
5.87294e-08
8.23496e-08
1.23986e-07
1.39603e-07
1.48333e-07
1.6129e-07
1.75112e-07
1.9273e-07
2.06999e-07
2.15699e-07
1.9889e-07
1.24199e-07
5.64624e-08
3.67871e-08
2.79981e-08
3.51074e-08
4.08326e-08
4.82393e-08
3.79547e-08
2.04355e-08
1.54123e-08
1.08707e-08
1.32806e-08
3.78617e-08
4.31682e-09
4.12756e-09
8.44829e-08
6.13181e-06
9.0168e-08
1.97564e-09
8.22884e-10
6.87807e-10
6.90243e-10
7.42543e-10
7.47337e-10
8.4004e-10
9.6454e-10
9.18582e-10
9.51335e-10
8.8027e-10
7.58013e-10
5.34023e-10
5.15137e-10
4.16413e-10
4.07934e-10
4.77163e-10
9.21654e-10
8.00559e-10
1.03143e-09
8.73931e-10
2.04765e-09
3.91316e-09
1.46674e-08
6.14719e-06
1.43803e-05
1.08575e-05
7.96707e-06
7.59036e-06
7.38621e-06
8.07051e-06
8.53235e-06
9.20682e-06
9.13432e-06
9.10667e-06
8.72066e-06
8.96321e-06
8.87964e-06
8.15225e-06
1.11862e-05
1.07973e-05
1.06363e-05
1.08762e-05
1.14328e-05
1.20838e-05
1.27927e-05
1.32328e-05
1.33978e-05
1.31866e-05
1.32858e-05
1.3281e-05
1.37029e-05
1.37264e-05
1.40566e-05
1.35663e-05
1.36058e-05
1.32378e-05
1.3144e-05
1.30758e-05
1.2741e-05
1.25193e-05
1.24425e-05
1.2252e-05
1.22707e-05
1.20902e-05
1.17389e-05
1.10272e-05
1.01973e-05
9.66992e-06
5.80903e-06
9.46626e-06
8.50092e-06
6.64342e-06
6.95802e-06
7.39062e-06
7.06793e-06
6.1562e-06
5.18036e-06
3.96976e-06
3.85876e-06
4.64313e-06
5.31263e-06
5.68231e-06
5.99058e-06
5.54091e-06
5.69657e-06
5.07096e-06
5.09563e-06
4.76682e-06
4.96392e-06
5.16524e-06
5.52989e-06
5.89447e-06
6.72226e-06
7.05949e-06
6.89298e-06
5.28969e-06
3.04854e-06
2.57094e-06
1.15079e-06
1.51668e-06
1.58743e-06
1.53806e-06
1.40944e-06
1.45047e-06
1.49157e-06
1.53769e-06
1.57536e-06
1.73441e-06
1.93014e-06
2.15822e-06
2.794e-06
3.22739e-06
3.5461e-06
3.69988e-06
3.85428e-06
3.83583e-06
3.70341e-06
3.41346e-06
3.00474e-06
2.4169e-06
2.27728e-06
2.28501e-06
2.35257e-06
2.352e-06
2.4147e-06
1.97408e-06
1.32584e-06
1.57765e-06
1.76475e-06
6.22787e-07
4.28589e-07
3.65827e-07
4.0185e-07
4.44261e-07
5.19103e-07
9.90422e-07
1.20082e-06
1.42367e-06
1.57306e-06
1.62036e-06
1.73282e-06
1.70053e-06
1.76598e-06
1.78196e-06
1.81108e-06
1.89965e-06
2.04795e-06
2.17201e-06
2.11594e-06
1.65193e-06
1.31259e-06
2.13381e-06
2.55332e-06
1.63759e-06
7.92048e-07
4.57163e-07
7.76297e-07
1.49389e-06
8.1504e-08
4.38169e-08
6.71004e-08
9.35733e-08
1.14043e-07
1.20321e-07
1.4109e-07
1.79446e-07
1.86677e-07
1.62835e-07
1.03321e-07
1.11214e-07
1.13798e-07
1.1687e-07
1.27892e-07
1.29232e-07
1.44567e-07
1.41869e-07
1.54793e-07
1.61857e-07
1.64749e-07
1.6692e-07
1.70638e-07
1.77133e-07
1.84237e-07
1.90907e-07
1.75731e-07
1.32189e-07
1.03018e-07
1.19367e-07
8.39009e-07
8.90103e-07
2.08501e-07
8.91014e-08
1.72896e-07
3.06896e-07
9.53674e-07
1.40297e-06
1.55997e-06
1.48614e-06
1.25658e-06
9.13069e-07
5.28489e-07
2.86125e-07
2.51457e-07
2.33607e-07
2.17692e-07
2.25151e-07
2.36543e-07
2.66326e-07
5.03185e-07
6.73505e-07
7.55129e-07
7.56536e-07
6.71597e-07
9.14765e-07
1.51188e-06
3.13649e-06
5.54708e-06
6.07429e-06
4.74448e-08
3.97511e-08
8.05102e-08
1.35422e-07
1.41144e-07
1.29348e-07
1.12664e-07
9.95311e-08
8.08946e-08
6.67163e-08
5.84288e-08
5.67247e-08
5.09091e-08
4.9825e-08
5.79905e-08
6.97953e-08
6.56593e-08
7.80401e-08
8.51475e-08
7.26232e-08
8.72149e-08
8.26466e-08
7.42859e-08
7.59939e-08
1.15421e-07
2.03455e-07
3.22743e-07
2.64541e-07
1.99682e-07
3.16004e-07
1.10732e-07
1.0379e-07
1.31591e-07
2.45109e-07
3.81387e-07
8.23612e-07
1.15452e-06
1.36743e-06
1.53896e-06
1.69384e-06
1.83263e-06
1.91519e-06
1.92775e-06
1.87195e-06
1.70769e-06
1.43169e-06
9.7141e-07
4.11873e-07
3.248e-07
2.58749e-07
2.52023e-07
2.741e-07
9.4548e-08
1.3754e-08
2.6013e-08
5.51217e-08
4.94604e-08
4.77381e-08
5.77297e-08
3.22587e-08
1.60526e-07
1.00084e-07
1.16762e-07
1.35144e-07
1.39896e-07
2.42179e-07
3.33358e-07
7.24288e-07
1.0995e-06
1.33321e-06
1.48475e-06
1.59989e-06
1.54856e-06
1.60811e-06
1.55546e-06
1.5038e-06
1.48766e-06
1.38954e-06
1.24948e-06
8.87255e-07
4.06165e-07
2.65061e-07
2.50236e-07
1.70546e-07
8.61859e-08
4.50195e-08
3.56308e-08
4.71473e-08
5.02608e-08
3.52802e-08
2.85649e-08
4.62037e-08
5.3765e-08
5.82914e-08
5.80342e-08
7.15324e-08
8.62405e-08
1.51475e-07
2.54198e-07
6.44174e-07
1.116e-06
1.41234e-06
1.5938e-06
1.59787e-06
1.59792e-06
1.39584e-06
1.00369e-06
4.9403e-07
2.15762e-07
1.09272e-07
8.43594e-08
7.03734e-08
6.4299e-08
5.57034e-08
3.14948e-08
1.4948e-08
1.44038e-08
1.46206e-08
1.46701e-08
1.09557e-08
2.01275e-08
2.04274e-08
1.71379e-08
2.07026e-08
3.57868e-08
5.83375e-08
4.72418e-08
7.44672e-08
7.54626e-08
7.53457e-08
6.99952e-08
7.23341e-08
7.49007e-08
7.71815e-08
9.7477e-08
1.42305e-07
1.55409e-07
1.25974e-07
5.11036e-08
3.76559e-08
3.45579e-08
5.84818e-08
1.62252e-07
4.7341e-07
2.06247e-07
7.02713e-08
1.97932e-08
1.39711e-08
1.18798e-08
3.96451e-08
2.21269e-09
1.6632e-09
4.58365e-08
3.47375e-07
2.66239e-09
8.13459e-10
7.62264e-10
7.87591e-10
8.17717e-10
1.03256e-09
1.19312e-09
1.73678e-09
1.63046e-09
1.67402e-09
1.6944e-09
1.32376e-09
1.2954e-09
1.03669e-09
8.01141e-10
4.86955e-10
4.74603e-10
5.36985e-10
1.98001e-09
6.83458e-09
9.37183e-09
8.33106e-09
8.22381e-09
8.59583e-09
3.06989e-08
5.85127e-06
1.41082e-05
1.05048e-05
9.2624e-06
8.93473e-06
8.80532e-06
8.83838e-06
9.81854e-06
1.05245e-05
1.17224e-05
1.11645e-05
9.34534e-06
8.92613e-06
8.89954e-06
8.19248e-06
1.11753e-05
1.05425e-05
9.73661e-06
1.00266e-05
1.07681e-05
1.21981e-05
1.28787e-05
1.32929e-05
1.33403e-05
1.31155e-05
1.35351e-05
1.36403e-05
1.419e-05
1.38746e-05
1.40505e-05
1.37013e-05
1.36408e-05
1.34822e-05
1.3267e-05
1.32553e-05
1.30107e-05
1.28131e-05
1.27681e-05
1.25108e-05
1.25064e-05
1.23664e-05
1.20599e-05
1.13433e-05
1.04016e-05
9.71884e-06
5.87927e-06
9.19796e-06
7.47974e-06
5.72302e-06
6.66453e-06
7.35106e-06
6.9568e-06
5.87282e-06
4.09929e-06
3.63945e-06
3.44713e-06
3.66111e-06
4.91861e-06
5.60886e-06
5.85024e-06
5.53705e-06
5.52896e-06
4.84667e-06
4.79868e-06
4.24489e-06
4.46728e-06
4.6362e-06
5.16434e-06
5.62628e-06
6.06788e-06
6.8996e-06
6.93467e-06
5.61999e-06
3.18972e-06
2.54938e-06
1.24354e-06
1.52579e-06
1.60132e-06
1.4802e-06
1.41112e-06
1.47608e-06
1.48809e-06
1.50065e-06
1.56398e-06
1.7804e-06
2.0231e-06
2.69796e-06
3.22589e-06
3.73183e-06
4.06877e-06
4.34501e-06
4.50972e-06
4.57814e-06
4.38496e-06
4.12377e-06
3.7056e-06
3.10604e-06
2.43953e-06
2.43771e-06
2.43494e-06
2.39407e-06
2.34027e-06
1.95696e-06
1.37057e-06
1.53092e-06
6.0745e-07
3.44673e-07
2.46052e-07
2.6593e-07
3.94469e-07
4.91156e-07
9.15127e-07
1.38543e-06
1.73036e-06
1.97134e-06
2.15119e-06
2.20633e-06
2.2751e-06
2.28761e-06
2.25451e-06
2.17506e-06
2.12743e-06
2.14113e-06
2.17369e-06
2.30032e-06
2.32404e-06
1.96192e-06
1.38108e-06
1.62938e-06
2.23639e-06
1.65143e-06
7.16457e-07
4.43656e-07
7.15281e-07
1.39624e-06
7.55544e-08
4.81329e-08
8.11201e-08
1.07025e-07
1.20956e-07
1.23767e-07
1.2953e-07
1.69015e-07
1.16434e-07
1.01832e-07
9.68293e-08
1.04194e-07
1.16065e-07
1.25779e-07
1.37938e-07
1.44903e-07
1.50659e-07
1.64508e-07
1.59128e-07
1.71083e-07
1.76356e-07
1.78642e-07
1.68059e-07
1.70673e-07
1.84448e-07
1.92908e-07
1.88874e-07
1.48538e-07
9.65293e-08
1.11445e-07
8.23894e-07
3.05154e-07
1.22926e-07
9.09793e-08
2.61236e-07
6.46969e-07
1.2837e-06
1.49722e-06
1.46435e-06
1.08363e-06
5.28511e-07
3.01785e-07
2.30895e-07
2.39739e-07
1.75262e-07
1.79982e-07
1.56764e-07
1.59032e-07
1.59299e-07
2.02207e-07
2.43261e-07
2.75517e-07
6.32654e-07
7.65315e-07
7.81608e-07
7.75045e-07
1.07237e-06
1.5655e-06
4.60815e-06
5.98345e-06
3.79478e-08
6.72397e-08
1.41099e-07
1.52442e-07
1.39056e-07
1.14931e-07
9.54222e-08
7.90842e-08
5.52038e-08
4.38849e-08
3.34137e-08
3.90121e-08
3.48831e-08
3.8614e-08
3.1264e-08
4.54528e-08
4.81874e-08
5.33142e-08
7.4557e-08
6.9339e-08
8.41352e-08
8.46642e-08
7.0757e-08
7.21314e-08
8.19835e-08
1.40183e-07
1.74248e-07
1.70948e-07
1.47433e-07
2.69467e-07
8.6866e-08
1.09993e-07
2.29843e-07
3.93087e-07
8.82461e-07
1.28397e-06
1.56228e-06
1.78978e-06
2.06349e-06
2.7125e-06
3.00629e-06
3.19572e-06
3.29039e-06
3.23631e-06
2.9219e-06
2.15028e-06
1.75487e-06
1.1773e-06
4.20103e-07
3.09064e-07
2.52429e-07
2.54497e-07
1.99695e-07
3.08887e-08
2.19321e-08
3.12051e-08
3.38475e-08
3.21396e-08
4.84939e-08
3.87693e-08
9.21398e-08
1.06263e-07
1.4327e-07
1.40937e-07
1.56294e-07
2.97496e-07
5.59901e-07
1.02151e-06
1.27846e-06
1.53726e-06
1.72336e-06
1.83039e-06
2.23105e-06
2.38579e-06
2.28644e-06
2.37785e-06
2.35632e-06
2.32388e-06
1.59246e-06
1.38168e-06
9.34052e-07
3.01212e-07
2.65279e-07
2.45256e-07
7.5159e-08
5.76007e-08
4.19437e-08
5.06249e-08
6.31445e-08
4.0285e-08
3.95343e-08
5.05159e-08
4.2547e-08
5.07478e-08
6.35957e-08
7.79389e-08
1.38539e-07
2.71999e-07
9.57239e-07
1.6301e-06
3.11228e-06
4.26741e-06
4.68221e-06
4.90171e-06
4.6991e-06
4.36768e-06
3.26088e-06
1.69356e-06
9.10593e-07
2.37766e-07
9.5164e-08
8.18245e-08
7.23457e-08
6.04369e-08
3.6658e-08
1.55986e-08
1.46449e-08
1.4804e-08
1.4523e-08
8.9901e-09
1.82179e-08
1.97177e-08
1.87706e-08
2.70809e-08
5.37216e-08
6.77293e-08
7.32313e-08
7.04827e-08
6.36795e-08
4.78844e-08
4.8602e-08
4.7933e-08
5.28632e-08
5.10085e-08
5.37014e-08
6.46885e-08
6.93778e-08
9.79069e-08
5.33358e-08
3.74451e-08
4.11077e-08
1.31999e-07
8.9752e-07
2.20742e-06
1.41974e-06
1.97153e-07
3.8831e-08
1.42111e-08
1.31958e-08
3.36112e-08
2.40671e-09
1.61208e-09
4.1181e-08
1.07432e-08
1.24346e-09
7.94005e-10
8.23046e-10
9.4265e-10
1.15845e-09
1.84157e-09
2.61229e-09
3.31941e-09
3.94136e-09
4.20127e-09
3.59546e-09
3.04675e-09
2.05086e-09
1.47024e-09
1.14382e-09
6.93497e-10
5.28895e-10
4.61994e-10
1.60137e-09
1.40235e-08
2.77858e-08
2.74298e-08
1.62076e-08
1.47813e-08
7.85443e-08
5.43774e-06
1.4149e-05
1.16666e-05
1.09437e-05
1.0358e-05
9.88327e-06
9.96495e-06
1.06666e-05
1.15791e-05
1.28193e-05
1.25348e-05
1.0142e-05
9.02899e-06
8.87831e-06
8.2772e-06
1.11217e-05
1.02047e-05
9.00002e-06
9.22449e-06
1.01821e-05
1.1553e-05
1.29746e-05
1.33303e-05
1.32451e-05
1.32095e-05
1.3567e-05
1.3576e-05
1.35771e-05
1.33517e-05
1.34664e-05
1.36215e-05
1.28784e-05
1.28264e-05
1.25708e-05
1.28027e-05
1.31083e-05
1.29523e-05
1.28214e-05
1.2584e-05
1.26785e-05
1.25087e-05
1.22946e-05
1.15614e-05
1.05851e-05
9.83328e-06
5.83759e-06
8.53191e-06
5.90856e-06
4.72409e-06
6.36921e-06
7.43333e-06
7.14464e-06
6.00014e-06
4.06575e-06
3.4482e-06
3.14663e-06
3.30312e-06
4.43695e-06
5.33402e-06
5.76002e-06
5.57576e-06
5.56252e-06
5.00819e-06
4.90753e-06
4.35167e-06
4.30371e-06
4.4863e-06
4.98549e-06
5.5443e-06
5.99289e-06
6.83479e-06
6.87133e-06
5.74838e-06
3.19369e-06
2.55459e-06
1.23084e-06
1.54708e-06
1.56735e-06
1.46381e-06
1.47982e-06
1.48701e-06
1.46209e-06
1.47376e-06
1.54172e-06
1.7506e-06
2.0222e-06
2.749e-06
3.31336e-06
3.8465e-06
4.33218e-06
4.87549e-06
5.08581e-06
5.06363e-06
4.61843e-06
4.48385e-06
4.10646e-06
3.38039e-06
2.67015e-06
2.58282e-06
2.53921e-06
2.43123e-06
2.30881e-06
1.9161e-06
1.36345e-06
1.58786e-06
2.94872e-07
1.77844e-07
1.57605e-07
2.18927e-07
3.96191e-07
5.45898e-07
1.13241e-06
1.72244e-06
2.2168e-06
2.31135e-06
2.64472e-06
2.5469e-06
2.70036e-06
2.58702e-06
2.57247e-06
2.48765e-06
2.43299e-06
2.34078e-06
2.27563e-06
2.41379e-06
2.50658e-06
2.16775e-06
1.54119e-06
1.33689e-06
1.73447e-06
1.46153e-06
6.82863e-07
4.46102e-07
7.87855e-07
1.32132e-06
7.16042e-08
6.69217e-08
1.00645e-07
9.73016e-08
1.21385e-07
1.20519e-07
1.29803e-07
9.00692e-08
9.78733e-08
8.46987e-08
9.59773e-08
1.14052e-07
1.27699e-07
1.40167e-07
1.3783e-07
1.48276e-07
1.6493e-07
1.68853e-07
1.71274e-07
1.68493e-07
1.74262e-07
1.85968e-07
1.67976e-07
1.8061e-07
1.83162e-07
1.98984e-07
1.92843e-07
1.46442e-07
9.80525e-08
1.10739e-07
6.5542e-07
1.95263e-07
1.17796e-07
1.52635e-07
2.82728e-07
8.9237e-07
1.46309e-06
1.51277e-06
1.26299e-06
6.60368e-07
3.15635e-07
2.59539e-07
2.34211e-07
1.97415e-07
1.65291e-07
1.46882e-07
1.55256e-07
1.46068e-07
1.58578e-07
1.52169e-07
1.90305e-07
2.33532e-07
2.74856e-07
7.1752e-07
7.96852e-07
7.69526e-07
8.72187e-07
1.17614e-06
3.30747e-06
5.94031e-06
3.60026e-08
1.27167e-07
1.58305e-07
1.48736e-07
1.31005e-07
1.00313e-07
8.24409e-08
6.73851e-08
3.80141e-08
3.7834e-08
3.17979e-08
2.77775e-08
2.33894e-08
2.42352e-08
3.11032e-08
3.20144e-08
4.08876e-08
3.95045e-08
5.39721e-08
6.14964e-08
7.88977e-08
8.2339e-08
7.56946e-08
6.16595e-08
8.11301e-08
1.03202e-07
1.40449e-07
1.44997e-07
1.52451e-07
2.00019e-07
8.4544e-08
1.52749e-07
3.71487e-07
7.81621e-07
1.21583e-06
1.53083e-06
1.80886e-06
2.15121e-06
3.10235e-06
3.69529e-06
4.09011e-06
4.42782e-06
4.44062e-06
4.36845e-06
3.99959e-06
3.48763e-06
2.25063e-06
1.73203e-06
9.81377e-07
3.66054e-07
2.62933e-07
2.53278e-07
2.52667e-07
5.97419e-08
2.23543e-08
3.00267e-08
2.5624e-08
2.9993e-08
4.38868e-08
4.50261e-08
8.95388e-08
1.36025e-07
1.52813e-07
1.33566e-07
1.91563e-07
3.10609e-07
6.58665e-07
1.0711e-06
1.37905e-06
1.68509e-06
1.88494e-06
2.59002e-06
2.64394e-06
2.70059e-06
2.64488e-06
2.6276e-06
2.64587e-06
2.57297e-06
2.49857e-06
1.74747e-06
1.31874e-06
6.97447e-07
3.08948e-07
2.71124e-07
1.68621e-07
7.59264e-08
4.37403e-08
5.59721e-08
7.38949e-08
4.60029e-08
4.48751e-08
2.64227e-08
3.65693e-08
5.58619e-08
6.36009e-08
6.36859e-08
2.20081e-07
7.12028e-07
1.57299e-06
3.30401e-06
4.83335e-06
5.57494e-06
5.82151e-06
5.91524e-06
6.00432e-06
5.90237e-06
5.37794e-06
4.03867e-06
1.75818e-06
6.81381e-07
1.81735e-07
9.22783e-08
7.30142e-08
6.04576e-08
3.99677e-08
1.5186e-08
1.53348e-08
1.60321e-08
1.50443e-08
1.45006e-08
1.94717e-08
1.77458e-08
2.09714e-08
4.01398e-08
6.17239e-08
7.11728e-08
6.57713e-08
6.19209e-08
4.67886e-08
5.41559e-08
5.35488e-08
5.21119e-08
5.16261e-08
4.54197e-08
3.12184e-08
4.2053e-08
4.77224e-08
4.74151e-08
5.02188e-08
3.73254e-08
4.1947e-08
1.45391e-07
8.23043e-07
2.34739e-06
1.5213e-06
3.02721e-07
3.64555e-08
1.4036e-08
1.27808e-08
2.99473e-08
3.6415e-09
1.79838e-09
1.62956e-08
3.39448e-09
9.24664e-10
8.51469e-10
9.42882e-10
1.13918e-09
2.01347e-09
3.13981e-09
5.77349e-09
9.03335e-09
1.26005e-08
9.48614e-09
9.78011e-09
6.03378e-09
3.83603e-09
2.16148e-09
1.42141e-09
9.8236e-10
6.67011e-10
5.3587e-10
8.1494e-10
9.62632e-09
2.42798e-08
2.77545e-08
1.97818e-08
1.93125e-08
5.43982e-07
4.74245e-06
1.44659e-05
1.25954e-05
1.23442e-05
1.09896e-05
1.03685e-05
1.10128e-05
1.2249e-05
1.31417e-05
1.37995e-05
1.37995e-05
1.04808e-05
9.07433e-06
8.8766e-06
8.32504e-06
1.09207e-05
9.51325e-06
7.59245e-06
7.70939e-06
8.94757e-06
1.12871e-05
1.29854e-05
1.3257e-05
1.32155e-05
1.32125e-05
1.32051e-05
1.29722e-05
1.23359e-05
1.23594e-05
1.24253e-05
1.30679e-05
1.26587e-05
1.26393e-05
1.2336e-05
1.24166e-05
1.25242e-05
1.29323e-05
1.2732e-05
1.25886e-05
1.25281e-05
1.26882e-05
1.23827e-05
1.17208e-05
1.07514e-05
9.8795e-06
5.67898e-06
8.0554e-06
4.84448e-06
3.43096e-06
5.86592e-06
7.47776e-06
7.44629e-06
6.51011e-06
5.01804e-06
3.39838e-06
2.93269e-06
3.0289e-06
3.40198e-06
4.92838e-06
5.57458e-06
5.77591e-06
5.60003e-06
5.28078e-06
5.20029e-06
4.7527e-06
4.6647e-06
4.81417e-06
5.22473e-06
5.66371e-06
6.04365e-06
6.74602e-06
6.79849e-06
5.56583e-06
3.11327e-06
2.55432e-06
1.26254e-06
1.54831e-06
1.58303e-06
1.49816e-06
1.52264e-06
1.52251e-06
1.44126e-06
1.43977e-06
1.51567e-06
1.66685e-06
1.94134e-06
2.16485e-06
3.14268e-06
3.73157e-06
4.21353e-06
4.53003e-06
4.93609e-06
4.67766e-06
4.55203e-06
4.49976e-06
4.05261e-06
3.60431e-06
3.31562e-06
2.69858e-06
2.61718e-06
2.4685e-06
2.2721e-06
1.8569e-06
1.38658e-06
1.64753e-06
1.839e-07
1.55497e-07
1.66544e-07
2.26899e-07
4.41007e-07
9.51557e-07
1.63589e-06
2.22388e-06
2.6984e-06
2.75212e-06
2.98495e-06
2.90044e-06
2.88634e-06
2.88445e-06
2.83567e-06
2.75858e-06
2.66827e-06
2.44894e-06
2.40216e-06
2.60418e-06
2.56787e-06
2.34658e-06
1.7305e-06
1.25658e-06
1.37209e-06
1.20868e-06
6.61558e-07
6.2282e-07
8.58054e-07
1.07235e-06
7.00042e-08
7.55208e-08
1.12859e-07
1.11969e-07
1.00879e-07
1.01167e-07
1.09318e-07
9.5556e-08
8.31455e-08
8.15456e-08
1.01731e-07
1.26727e-07
1.38197e-07
1.39942e-07
1.37242e-07
1.45687e-07
1.61638e-07
1.74724e-07
1.7429e-07
1.80685e-07
1.69174e-07
1.67476e-07
1.76002e-07
1.6575e-07
1.86796e-07
1.97795e-07
1.83449e-07
1.46909e-07
9.65188e-08
1.05529e-07
3.31224e-07
1.26396e-07
1.14434e-07
1.44379e-07
2.80312e-07
1.07588e-06
1.6054e-06
1.54761e-06
1.14895e-06
5.39736e-07
3.15293e-07
2.62488e-07
2.23941e-07
1.55147e-07
9.49604e-08
1.13866e-07
1.07993e-07
1.16014e-07
1.43453e-07
1.13795e-07
1.40722e-07
1.94563e-07
2.61176e-07
6.03865e-07
8.26123e-07
8.21092e-07
7.97413e-07
9.94005e-07
3.01063e-06
5.85472e-06
4.80759e-08
1.43514e-07
1.55605e-07
1.5178e-07
1.23441e-07
8.73845e-08
7.58681e-08
5.41335e-08
4.0392e-08
3.2124e-08
2.41555e-08
1.73755e-08