/*--------------------------------*- C++ -*----------------------------------*\
| =========                 |                                                 |
| \\      /  F ield         | OpenFOAM: The Open Source CFD Toolbox           |
|  \\    /   O peration     | Version:  2.1.1                                 |
|   \\  /    A nd           | Web:      www.OpenFOAM.org                      |
|    \\/     M anipulation  |                                                 |
\*---------------------------------------------------------------------------*/
FoamFile
{
    version     2.0;
    format      ascii;
    class       volScalarField;
    location    "0.005750000";
    object      omega;
}
// * * * * * * * * * * * * * * * * * * * * * * * * * * * * * * * * * * * * * //

dimensions      [0 0 -1 0 0 0 0];

internalField   nonuniform List<scalar> 
12384
(
12869.3
23319.2
27842.2
31253.5
34188
36344
37191.1
36508.2
34356.2
31397.1
27385.7
22220.9
15416.5
8319.29
25249.5
34290.9
40301
43887.2
46303.4
47733.7
48676.9
49527.3
50782.8
53085.3
57705.5
63314.2
71049.1
77267.5
84160.5
88004.6
90931.5
90141.6
88342.6
84391
82201.4
80484.4
78442.9
75179.3
70416.8
63378.1
51691.2
34475.2
19312.8
15462
40745.9
47898.8
54352.6
59555.1
63691.2
67318.2
69452.7
69846.5
69439.3
69994.5
72375.3
76881.6
83437.7
90962.5
99031.4
106539
112158
113894
110437
106473
102899
99659.3
96227
91756.4
85310.1
75598.9
60010.1
40009.9
25732.7
27446.2
44162.2
56039.1
64145.4
68493.6
70911.6
71992.6
73341.9
78572.2
87247.3
99025.3
111686
125521
137284
147889
152704
153544
148212
142811
141021
138298
135062
129168
120507
109001
94795.2
78374.8
64384
50867
42911.5
46512.4
45303.1
51777.1
61492.3
74292.8
87732.8
101080
113478
125393
135562
144933
152058
157365
159910
158707
156931
153593
148662
143112
136780
128386
117053
102846
86404
74177.3
61907.1
48125.5
37236.6
35450.9
37646.7
37927.5
28622.2
39059.9
47003.9
52402.7
56511.3
59738.6
61607.5
62249.3
62247.2
63510.4
67298
73496.6
82407.5
92331.9
103931
114825
125420
134476
137526
139690
132105
126140
120123
115084
109860
102809
92163.9
75602.3
55216
43841.4
25359
30285.9
35648.1
39175.4
42010.9
46534.5
54340.5
65922.1
77460.1
90213.9
101438
112847
121935
129809
134191
135069
132395
128349
123922
118331
110929
100936
88030.9
73849.6
62328.5
57327.4
54564.3
50351.8
44507.5
39883.1
28821.9
28664.5
35797.3
47390.1
62027.3
78105.3
94441.3
110321
123855
135461
143729
147125
148538
144472
141368
139837
137306
134504
130631
125263
117680
106997
92375.7
71504.9
56049.2
50187.6
47280
44569.8
43874.5
44590.6
36809.8
53964.1
67998.7
82855.2
98720.8
115062
130457
144477
155353
163208
166605
164551
160506
154441
149630
144372
139036
132367
123848
112488
96872.2
75499.8
58052.2
49927.5
45212.9
41134.7
38628.4
36440
33296.3
30035.5
37340
45356.1
61401.8
80507.6
99944.8
119160
138185
156286
172878
187158
197850
204606
205488
200047
190405
181382
172223
162693
151914
138427
120822
98837.6
75746.9
63046.2
58507.8
56632.1
55638.4
56019.5
56095.2
56065.1
37395.9
50687.2
74933.2
98444.3
120210
141493
162255
182095
199371
213719
223314
225844
223786
211747
201641
195208
188236
180374
168763
152214
128583
99677.4
75496.6
65810.1
60883.1
59473
60909.2
63766.9
64770.4
61154.9
25151
32049.9
44412.9
52759.5
57845.2
60509.7
62292.6
63635.1
64833.6
65697.4
65865.6
65451.1
63816.7
62416.4
62475.4
64689.5
69287
75806.9
83103.8
90686.3
97588.8
101796
101276
95999.9
91747.7
87637.7
81864.7
71713.3
51654.3
22180.9
6616.13
10189.2
10564
10206
11967.4
25007.1
57469
82501
95557.2
104185
110648
116160
121155
124869
124805
120070
112283
101506
89526.5
75967.7
63435.6
52229.3
41733.6
31160.6
21193.1
12889.9
6892.15
3393.98
1966.73
1366.14
21445.4
89325.1
111889
133182
156229
178787
197697
209416
210338
200421
179951
151140
115596
23327.9
26760
111709
145283
168251
182137
186753
187591
191874
206637
234035
275986
326866
382922
440098
495808
548023
593063
628721
649246
653656
641311
614138
573588
519703
452671
372481
283364
197402
126515
28025.2
47355.5
201092
245902
270671
277565
271469
261683
257140
264141
288208
329369
385080
454642
533521
620389
708526
793155
865544
918866
936439
912474
855977
771323
662584
534481
399549
275524
181475
128340
44095.9
53460.2
204609
228754
235551
232320
238379
274693
343149
429669
531959
646884
770371
895865
1.01536e+06
1.12097e+06
1.20462e+06
1.25993e+06
1.26977e+06
1.24139e+06
1.16953e+06
1.0748e+06
954572
814783
653408
477332
316095
202266
160420
152716
63937
45169.9
188830
289048
384208
477197
570185
662826
753937
841881
923393
996748
1.05854e+06
1.10603e+06
1.13286e+06
1.13191e+06
1.10727e+06
1.05632e+06
983953
892449
782673
653333
508948
362918
250428
216542
215523
208882
194996
176412
50239.1
42660.1
155396
183879
200817
208071
206571
200192
197869
206323
231453
275958
335503
408832
491006
579014
668249
754074
831254
895515
940787
959665
952653
913337
852092
767335
658996
523208
370152
232178
62701.6
30831.2
93960.8
111108
123032
150738
207661
284131
366648
448737
532311
615718
699117
778545
852120
915224
964047
990127
988665
962021
909102
835885
742971
633174
503874
360475
234257
168678
148269
133050
53007.5
42104.8
108494
165131
251984
357350
474385
598467
726417
853795
975862
1.08549e+06
1.17656e+06
1.24154e+06
1.2749e+06
1.2666e+06
1.23144e+06
1.16444e+06
1.07763e+06
970474
850900
718846
578380
438123
315468
218677
169529
156506
153458
151376
52116.5
54917.4
204489
287559
385666
496679
615819
737231
856081
966175
1.06219e+06
1.1382e+06
1.18928e+06
1.20671e+06
1.18768e+06
1.1416e+06
1.06949e+06
979214
873797
757624
630842
497641
366913
247687
176135
174045
182137
176238
163233
138517
41639.3
47210.1
161071
227404
313082
415768
529898
651873
779600
910611
1.04079e+06
1.16355e+06
1.27274e+06
1.36268e+06
1.42667e+06
1.45437e+06
1.43783e+06
1.38324e+06
1.29267e+06
1.17049e+06
1.0198e+06
840844
637157
424516
238635
176741
184806
187893
184505
171832
60323
46390.9
194388
299328
407989
526125
656058
797031
946933
1.10022e+06
1.25166e+06
1.39367e+06
1.5184e+06
1.61457e+06
1.67507e+06
1.67838e+06
1.63448e+06
1.54211e+06
1.41835e+06
1.26185e+06
1.08084e+06
867816
628276
389098
219688
205599
225293
234029
232615
218913
67749.8
39410.5
107782
152905
198356
245933
291951
334195
364720
382932
386487
374669
350105
318903
287776
264392
255577
267247
300118
346076
401354
463462
527106
585089
623994
620927
585021
519225
421661
291929
56849.2
14104.6
66095.8
76990.3
87724.3
139937
252810
362729
465463
560160
641676
705013
746806
761879
747161
703954
642499
570052
489904
410619
329932
257788
199799
161875
141265
125466
107219
89112.7
70325
50361
1706.63
28001.2
112377
135027
154710
173421
189141
201580
210302
214191
211434
201059
182107
154576
30189.9
30703.6
139903
164986
177772
183926
188257
197506
216818
249953
292929
340804
385555
425664
463472
498698
532445
562838
589232
609971
621738
622282
611275
588883
554921
507745
443832
362323
270409
181970
38812.5
51621.7
240456
262655
266591
264973
264816
273284
293648
323720
360109
397039
434454
475134
519491
569885
624441
682006
737793
787593
821009
831010
816354
781532
721681
631416
512616
380686
258909
172428
54803.9
58767
243173
242311
236525
244536
287406
362823
449121
527001
600819
674642
751150
831690
914056
993421
1.06446e+06
1.11859e+06
1.14699e+06
1.14531e+06
1.11539e+06
1.06455e+06
997606
912190
796059
640933
464675
304169
196921
169937
72378.6
48210.9
274565
383334
465930
534910
598422
661189
725007
790838
856812
919038
974693
1.01975e+06
1.05074e+06
1.06211e+06
1.0542e+06
1.02932e+06
991606
944341
884659
800873
681914
532929
377667
266040
210238
189462
197517
211493
57551.8
51160.1
192212
208525
211389
208492
205286
207155
220593
247809
288361
339982
397461
459845
525230
593347
662661
730172
791811
845620
886349
912681
917292
901130
868681
822666
756000
652139
502606
332072
76713.1
35650.5
112351
125317
145570
199806
278181
353168
418077
476109
533894
593933
657766
723622
788538
848425
898612
933539
948750
942476
918736
879170
826751
755589
656470
524488
373507
244788
176874
150462
58145
50508.4
141824
229490
337528
450798
561851
668664
771564
870661
965084
1.0519e+06
1.12784e+06
1.1854e+06
1.22234e+06
1.23029e+06
1.21029e+06
1.16646e+06
1.10303e+06
1.02528e+06
936638
835557
718630
586030
450906
329680
230975
168492
152791
172797
55663.9
67807.5
261589
370217
485025
596763
700987
796465
885107
966598
1.03905e+06
1.09856e+06
1.14108e+06
1.1615e+06
1.1592e+06
1.13412e+06
1.09098e+06
1.03217e+06
961839
879466
779243
656758
518971
380099
252824
179979
161033
163463
174154
163705
45897.2
53374
198070
283169
397611
524393
644991
753640
852022
944479
1.03405e+06
1.12009e+06
1.20042e+06
1.27053e+06
1.32669e+06
1.36254e+06
1.37192e+06
1.35402e+06
1.31124e+06
1.2466e+06
1.15751e+06
1.03218e+06
859879
646055
420877
246589
176572
163813
181544
190319
62924.5
54324.7
260405
384120
511200
643083
775730
904256
1.02801e+06
1.14698e+06
1.2625e+06
1.36992e+06
1.46713e+06
1.54607e+06
1.59944e+06
1.61799e+06
1.59804e+06
1.54663e+06
1.4706e+06
1.37489e+06
1.25609e+06
1.09734e+06
884246
631524
386077
238378
207184
215223
242316
257796
71445.3
47476.5
157289
215355
275541
334482
385958
426900
454178
467855
468014
455275
432093
402582
371822
346634
334456
341238
364834
392621
414397
432198
452212
480335
515760
541887
554720
544823
493430
384280
69842.6
21450.7
81273.9
89508.7
150826
268589
396171
512855
611810
693370
754573
796305
819941
824773
810407
779682
735773
682237
617189
541799
450465
351713
250723
168305
109593
85078.7
80347.8
78689.3
73756.4
63023.4
1749.21
32294.2
133411
156899
174834
187536
193237
194481
196349
200344
204576
206472
201699
187967
35441
35742.7
167003
179017
180599
182040
191149
213120
248116
296401
348535
392573
423934
443650
458114
469390
480923
494323
509528
526022
539741
548112
549964
544369
530895
506970
466963
405274
322393
230285
45764.9
56051.1
271379
268102
255958
252644
263385
291746
334574
382769
427021
459478
482332
499970
515516
531446
547875
565359
587494
616585
649925
677693
695735
703569
691662
647337
561539
443295
316125
211835
61378
63903.1
280711
255747
244237
271456
346737
446550
541602
608547
655377
689852
717358
744395
776564
815592
860101
905282
941931
958114
957906
948243
929568
898473
837289
726068
567749
392985
249625
186768
75830.9
53732.8
355325
459765
524043
566791
599816
631821
667279
708851
755198
803113
849331
889403
920769
937982
941431
934936
922214
908878
894688
865154
794384
669274
510038
358300
252018
200811
207964
240286
61416.5
58355.7
222787
222887
212893
205210
205336
217368
245214
288417
342165
398652
451593
500054
546059
591684
637540
681419
722594
760523
792580
816726
825250
822164
812414
798006
771945
709351
584857
411621
86097.5
40487.2
129113
140276
176253
254567
338033
399935
443964
478899
513514
553301
600277
653089
707377
760165
807531
844452
866235
871300
863693
847307
824526
789362
728584
626366
482881
327314
216671
167187
61067
55378.3
179075
295064
419285
536818
636667
718872
787291
848497
907654
964521
1.01814e+06
1.06284e+06
1.09754e+06
1.11281e+06
1.1058e+06
1.08063e+06
1.03922e+06
987518
928910
862882
782556
679005
556177
428570
312572
219570
175702
192920
57526.8
77409.4
317886
449153
573307
675363
754048
813972
862581
906482
948103
986952
1.0197e+06
1.04057e+06
1.04796e+06
1.03977e+06
1.01958e+06
989381
952192
906472
844422
753206
631708
493446
354196
234692
160943
149732
181304
181567
48031.2
58032.5
225497
335641
477424
619028
736450
823913
886103
932574
973473
1.01576e+06
1.06081e+06
1.10704e+06
1.15143e+06
1.18816e+06
1.21177e+06
1.22055e+06
1.21543e+06
1.19869e+06
1.16726e+06
1.10607e+06
990627
809443
585618
373458
224892
153113
177944
201325
63892.9
63169.8
314271
453830
597507
743261
877144
987708
1.07517e+06
1.14612e+06
1.21091e+06
1.27401e+06
1.33781e+06
1.39658e+06
1.44422e+06
1.47175e+06
1.46808e+06
1.44132e+06
1.40039e+06
1.35016e+06
1.28807e+06
1.19301e+06
1.03699e+06
815970
562986
345659
212149
185679
237345
285727
72408.1
56958.2
206198
275377
344530
407287
458670
497386
523870
538485
541629
533088
513879
487065
455611
425425
407166
410432
431385
451312
449183
423446
386015
364049
380530
422470
475346
518525
519184
445024
75454.3
27784.9
94164
132087
242365
375832
506216
615707
697487
754577
789472
808791
817502
817133
807095
791924
770929
743541
702984
642211
552656
439518
314460
200926
114817
71968
66816.4
71130.2
73186.8
68619.5
1771.41
34809.8
150778
175349
191832
198235
192940
181041
173175
176534
189930
207038
219279
222095
39821.7
41110.6
194685
192224
181937
179955
196384
231462
279157
337899
393410
429338
444830
446113
439061
427368
414259
404914
400938
407609
422015
440525
458321
472582
481664
482220
467772
429529
362320
275916
50413.2
60664.4
303908
275623
248238
242965
263670
308943
369843
433554
485537
515773
529466
531602
527978
518648
501493
473633
444427
431545
454649
501759
554374
603526
633347
628376
574103
475323
353271
242410
65585.7
69880.8
327801
279690
263719
308991
407771
521322
618251
679022
707478
712825
699962
676301
650081
630094
628399
649017
689875
733637
771392
802133
828289
844846
833014
764366
630552
455112
291451
202867
77514.1
62305.9
425215
518989
564399
583839
591137
597704
608514
626147
648546
674020
701162
728254
754781
777177
795071
809773
824666
844162
870035
888419
865697
771417
617853
453739
314217
232922
225735
261191
63205.8
65099.8
254682
236467
214521
204081
208409
229387
269366
326104
389956
447384
491630
523976
550153
573973
595785
612620
624505
632342
642632
661660
683011
704603
726231
747519
760715
736907
639076
474131
91588
45663.4
146705
159448
214459
306742
386981
436197
463756
481635
499949
525028
555941
588266
618075
647189
677505
709791
738734
760349
775245
783478
787102
781915
754083
681996
555702
393028
255750
184916
63204.4
58403.1
217903
355606
493413
613418
699186
754032
783561
799005
811751
827683
849736
877291
907363
930682
942896
943302
930446
909560
881508
848601
803328
731081
627855
503882
378879
272134
211111
207183
58467
85158.3
369906
518805
644620
728916
776421
795541
800262
802248
808112
821054
840268
862132
881416
895684
904542
906013
901893
890306
864837
808516
712455
584805
444522
307648
195109
153526
190432
190877
49373.4
63572.1
248321
385334
546196
694374
804609
869842
896337
897772
889813
883573
886222
902690
930523
967067
1.00543e+06
1.04114e+06
1.07347e+06
1.10209e+06
1.12303e+06
1.12014e+06
1.06162e+06
923122
716111
493695
310215
187533
184770
205835
64106.5
76642.9
358777
510780
669388
828073
960420
1.04745e+06
1.09166e+06
1.1074e+06
1.11337e+06
1.12354e+06
1.14491e+06
1.17914e+06
1.21806e+06
1.25463e+06
1.27612e+06
1.28223e+06
1.27715e+06
1.26822e+06
1.2553e+06
1.21762e+06
1.12167e+06
947152
712818
475017
278134
171123
223774
304249
72309.7
67140.8
251686
329523
403876
467742
518236
555672
582113
598116
604996
603451
593864
575151
546145
508648
475540
467011
483731
500258
486703
432768
345165
261550
250556
312944
406034
494707
536885
492196
76284.2
32882.4
113257
190131
319351
459002
584773
680541
740477
769926
775283
768460
756568
745493
737445
738000
746998
753996
746373
709302
631544
512728
371571
238107
135235
76297.3
64790.9
68969.3
73096
71196.1
1839.03
36251.3
163294
189069
204588
205812
190990
166944
149209
152201
175547
207421
236062
257016
44249
46603.3
221687
204408
182357
177884
202275
248070
304234
369031
424238
452043
455760
445599
425821
399899
368742
337459
309219
293220
297403
322216
356121
390724
422303
446450
456597
441331
392276
318146
53455.5
65284.5
337363
286664
244207
235012
262339
319589
394005
471809
532439
563029
571286
563963
550362
528854
494546
437679
362581
290545
282551
347695
433395
514602
574159
596003
565112
485735
373063
263845
67965.6
77376.4
386300
315573
293386
349238
461864
584206
682736
740981
762782
754387
718317
660923
587652
506549
436657
402149
433643
504988
587115
662134
730764
786697
812530
774897
659563
483937
310044
210283
77604.8
75940.1
484639
567824
601285
605427
595471
583121
575254
569990
564489
557676
550970
548119
555305
578140
614141
659402
710616
766828
829631
886740
903053
836854
693147
522883
370479
268289
245420
270637
64123.7
71928.7
289516
251185
217676
205098
213221
241555
291511
359280
429895
485107
519087
536596
546928
554145
556783
547490
524962
488226
451585
449283
492679
560670
630334
695493
746643
753344
675060
519237
92674.7
51255.5
167459
184795
257577
355202
430378
472714
490776
499135
508058
522342
536743
542140
533679
517897
505327
514701
551774
602071
652496
696460
730524
752276
750915
703441
594052
432857
284653
203523
64510.3
61214.8
257177
410302
560030
682768
755193
785576
778198
750364
716235
684686
661313
654378
667930
700088
735677
769743
793410
808002
812707
811085
796092
751630
667773
550180
420842
307401
240007
217252
59318.9
92139.5
414998
576482
699319
764197
782205
764034
728455
689173
653324
631026
627504
646033
681118
723059
765653
803444
833064
853737
859651
835324
765400
651817
513009
368294
237085
177703
203128
192741
50846.5
72336.9
271491
428749
600269
751813
856720
904126
902435
868184
818121
763025
712955
682296
681948
715176
771119
838819
912104
986218
1.05405e+06
1.10034e+06
1.09157e+06
992787
807210
585753
386630
237776
202801
208138
64369.6
93152.8
393815
556193
727705
897321
1.02572e+06
1.08765e+06
1.08882e+06
1.05237e+06
999195
949983
915948
912402
939885
989299
1.04103e+06
1.08532e+06
1.12465e+06
1.15825e+06
1.18944e+06
1.20219e+06
1.16031e+06
1.03364e+06
827017
588378
362490
196080
210386
310844
72401.6
76203.5
292166
376109
452612
515349
562580
595004
614868
625250
631830
637420
643112
644685
630568
592644
540031
509232
516041
529377
513018
450315
343721
222229
182174
258913
377474
491232
552397
521510
71489.2
36939.4
135383
233600
374659
518432
636775
716073
752304
751483
723876
683650
643693
617669
614241
638216
681925
725644
754002
745770
686887
570127
417883
269232
154947
84995.2
66491.1
68733.7
72321.1
70469.4
1990.18
36915.5
170451
197371
212921
210530
188621
157059
134250
138925
169043
210009
251084
290394
48768.7
52690.2
247602
216305
181616
173160
203462
256343
317982
387220
442348
465635
466315
455250
436239
410046
375833
335590
291734
254015
237344
250862
285623
328637
373038
412519
439471
441846
410637
353456
55300.5
69983.4
369238
300347
242939
226651
254870
319386
403829
494968
565565
599346
604419
590999
572849
549055
514089
455101
373192
276431
229580
283152
376375
467900
536630
565832
545107
478336
375656
273896
68134.2
87240.5
456042
360742
327600
383461
500873
628690
732315
795911
819439
811053
771476
704612
612344
497090
374429
266124
250531
345737
464519
572224
669219
749784
795251
770768
659744
478410
302428
207316
76890
97329.8
540250
618712
648447
644326
622872
597587
575741
552081
522605
485184
440720
393660
354056
357213
415925
505326
601120
695394
789574
873657
915209
868424
733771
561800
401940
292319
260678
271044
64675
79370.8
327250
266405
223057
209093
219675
253411
311306
387414
462568
514264
540023
547969
549782
549023
540691
514360
465445
388152
295924
255712
336172
453647
568426
670181
746122
766121
694982
542698
88644.6
57722.2
190806
213886
301969
400771
474050
514808
529369
534915
539914
548822
551881
535928
492855
427933
351306
294746
334406
431077
528444
610572
672989
717106
732887
701418
604844
446557
298374
218731
64229.4
66121.8
299242
460865
619375
746831
811138
825309
790116
729244
656628
579475
504732
446929
422357
453380
516810
590799
655338
706754
742325
766832
775349
751396
681592
567957
435357
319328
251107
219401
61760.4
100319
458316
627127
745773
795085
790931
745407
680852
608959
532847
462788
414412
417171
472079
552390
633126
707409
767442
814569
844901
845392
796731
695626
557855
405215
263375
200445
211283
191118
53721.3
83923.3
301767
468757
642084
795621
899311
936761
918328
862077
783749
689612
584410
485444
430866
454140
538760
646515
761829
877118
983220
1.06586e+06
1.09428e+06
1.02761e+06
862977
646335
438149
276064
221963
210040
66379.9
108458
420252
591198
772651
950514
1.07551e+06
1.11712e+06
1.0848e+06
1.00796e+06
905507
796360
693854
627163
628155
695636
787474
882462
968453
1.04545e+06
1.11432e+06
1.16702e+06
1.16892e+06
1.08279e+06
903674
671918
435815
240858
207628
307670
74904.1
83630.4
325902
414510
491183
550347
589511
607587
607614
599018
595823
607214
637510
673630
690182
665468
596551
534949
524945
535078
519231
462058
368642
267112
223529
281059
389812
497612
554809
525172
65645.5
39819.6
148478
258954
410257
558156
669605
733588
747845
718908
657890
578768
502194
454700
461927
518921
601695
681400
742152
760827
721934
612427
453415
293021
169310
93526.1
68644.1
68844.2
71038.4
67979.8
2813.26
36882.2
171233
199936
216153
212409
187890
156823
136851
142747
171779
214092
264157
324192
53998.2
58719.9
271381
227932
180096
165636
199180
254504
318203
389937
446668
471803
477925
477069
471533
458425
435501
403315
363269
323146
290613
277295
285670
311571
347232
386226
418587
432029
417002
377434
56228.7
75002
397525
314982
241396
214468
239557
306687
398783
500930
583498
624020
629090
611734
591067
569693
543498
501135
442567
373602
329251
340904
400079
468690
522687
542583
520847
458108
363458
272795
67612.3
98646
533494
400154
343505
395617
516191
649299
762009
837910
872579
872950
841969
783752
700669
593606
475141
364459
311804
361646
461095
566365
664334
744686
784462
752145
630584
443727
279145
202939
78503.5
128486
599456
681113
711606
703418
674035
641156
611778
578868
537935
485188
420443
348082
274388
243096
298837
417156
541449
658247
769124
864075
911676
871217
740539
567900
405516
296741
263696
264136
64659.6
87687.6
369097
278807
223892
208661
223179
262386
327271
410005
487498
536981
558751
563961
564857
564148
555695
527953
475682
397942
311912
270190
336483
452178
576457
685886
759927
770634
695743
539354
83617.7
65788.8
219757
246304
344352
443699
518748
561609
577028
583932
590058
599727
600563
580153
527398
445620
341442
243354
255636
360162
471210
566898
641199
693011
712370
684084
589549
435757
301525
231793
63771.5
80468.4
356701
512945
671994
800135
864898
873693
824840
747465
655789
554673
447386
343217
259619
261220
347939
459719
557002
634485
691613
732559
755059
742086
678806
563956
426275
306438
242025
228625
72944.1
117931
515416
680859
792992
832728
816096
757293
680949
594950
496775
388447
281856
232616
317678
439084
549174
647571
725839
788719
833350
848372
812417
717974
578156
417348
268882
203447
210450
197869
65105.6
100151
357972
512803
676245
826496
930479
967579
946116
884140
796560
686069
552389
404152
280368
276529
383523
518310
660834
801483
930475
1.03494e+06
1.08253e+06
1.03511e+06
884408
671755
459609
294952
232769
219768
76150.2
122689
453303
622471
803597
984071
1.10923e+06
1.14144e+06
1.09233e+06
994663
865949
718038
554530
402228
341653
433767
576523
717074
841802
952067
1.04824e+06
1.12834e+06
1.15905e+06
1.10086e+06
944222
721152
484212
280480
220251
300208
81178.4
88938.3
349435
445400
523394
577719
603931
597772
562248
516592
492662
514135
580411
660934
717849
716793
640820
543123
509900
515839
503814
462263
396901
332546
307106
341736
420452
501532
540340
499100
59526.6
40698.6
151323
267441
425960
581127
691270
744766
744016
695453
608341
492447
369692
286162
319798
424451
543123
648388
729825
765323
741363
640309
478941
309688
178197
100169
70131
69059.9
71334.2
67942
6976.15
36164.5
166094
197515
216197
212251
189285
166403
157613
168247
192892
231359
286832
359389
334500
82595.1
81963.5
269084
303868
250618
184277
156847
188439
242697
306092
379085
438916
470539
487634
502831
515843
520604
512761
492640
460992
424642
387114
355747
336689
333789
345514
367153
390771
406083
404660
387072
278751
69481.1
84199
345223
422478
333843
245965
204836
220564
283058
376785
487725
583682
635491
645249
627020
604871
586090
570278
549834
522951
491423
466136
459039
476760
505153
526250
522856
488303
421547
332959
265413
223546
87897.4
134679
602793
607549
441615
358962
394496
506980
641531
763304
856000
909575
926808
912673
874999
816853
740152
655042
576331
527538
527615
571843
640192
710281
764299
776294
718375
581226
405795
309517
342049
355786
134986
148776
570158
681235
757764
787957
777667
745237
711704
683296
652156
614925
566804
510543
449319
393717
366821
389168
467668
570983
678079
780488
863343
897641
850302
720561
550067
388453
284146
251909
247578
215645
92122.1
119637
449367
410892
300436
236916
218286
231025
270071
337389
423785
503856
554842
577941
585694
591066
596912
597484
583787
551019
502905
455176
435879
469036
547503
643627
728877
776042
760929
668924
510942
255213
82418.8
96522
319038
301378
321974
396331
485137
559708
605270
624266
634749
645886
662881
673031
665531
630693
572459
498590
435930
414932
451573
517170
586436
643946
682752
691052
654101
554509
409254
300208
254421
227989
103524
115698
374409
431572
554601
706760
838619
910309
922795
875459
800950
712390
615861
512579
410590
322267
292043
346035
443021
535949
614541
675203
720050
744383
733305
669471
551490
411406
309612
324843
406157
376772
110943
125829
510749
614194
746514
844072
877958
857107
801292
731088
652852
563419
464037
361034
297276
344816
446122
547689
641578
718987
783193
829980
847111
814500
721992
579209
410928
253421
187262
235415
287199
286911
116777
129639
439201
458121
559082
697562
837652
944174
990224
978545
925687
847362
747421
627138
498064
382975
339086
395643
505585
639444
778476
908789
1.01474e+06
1.06227e+06
1.01955e+06
875332
665591
449805
277186
242552
289901
304831
119398
119467
427954
517628
657613
821188
994079
1.12056e+06
1.15774e+06
1.11286e+06
1.01741e+06
892356
745947
578729
409389
298996
358055
494662
638351
773352
895552
1.0034e+06
1.09537e+06
1.13631e+06
1.09128e+06
947169
733444
504003
309637
245469
303267
332846
75595.7
78246
254510
367759
468423
550659
602493
617633
587474
509726
411533
357339
397988
508962
630419
723611
746959
670649
537100
473790
473563
467992
445018
410071
378992
371126
392789
440649
486470
498651
450715
217946
45702.3
43652.6
127659
157864
266735
429535
589763
703304
754575
749817
696619
602169
474564
331988
223997
282058
410786
539614
647956
731593
770430
750698
654512
492570
317250
180646
104352
75547.8
76949.8
81939.6
80826.2
55278.3
8235.91
2992.16
34764.9
154711
189256
211730
210274
192990
178872
176515
185775
203457
233002
282824
353704
411114
360703
344080
357239
325160
258177
184958
149930
175138
223510
282526
353914
416708
456325
485504
516112
545965
567407
573981
564364
539770
504578
464530
424953
390713
365901
352382
349831
354789
361853
365528
365021
350689
270519
315855
450023
446509
346763
247240
195552
200243
251106
339139
453889
563558
632631
654033
641448
618957
599584
590107
587081
585836
582596
574495
563196
553924
545462
529513
496948
443234
370587
293609
256448
290359
410053
606742
806606
634457
453674
351120
364167
464490
598697
729894
840140
916420
957070
965842
952149
922359
880071
829590
779444
739223
719371
724655
750224
777662
790122
764611
684034
560269
463066
467772
526836
569570
579465
580859
638613
738067
823324
862200
857737
830418
803487
784983
767519
747998
720291
688064
651921
620461
601293
603592
634874
690595
758794
827149
876463
880229
813543
679707
513516
361483
266237
238036
252981
307143
408311
503084
562754
424948
313781
249368
227441
236571
272162
337810
425305
508921
565800
595206
609234
621840
637535
651816
659149
654597
640250
624160
619278
635282
676560
730881
773610
780048
730520
618620
463841
307962
290710
363994
406115
345755
354106
416364
502121
580489
633174
659728
675699
694375
722056
749034
765006
760743
739561
703128
664994
633768
624826
636666
658503
677791
684719
666627
609518
506115
388607
325230
327594
356855
371029
390592
399245
441510
557488
706084
846218
935680
963113
931878
874692
805123
733362
659612
591448
535356
504847
511732
550683
601364
653515
697862
732194
747256
729587
663337
552055
429159
354125
380551
460252
510467
511608
499629
531428
645281
779444
880202
921680
909956
870377
819567
764907
705417
644985
587089
546369
544292
580735
634984
695440
750877
800480
836401
844759
806777
713023
569931
401614
251890
214167
283774
359255
408769
425661
432534
428922
436528
551024
677578
812088
929119
996633
1.00788e+06
977167
923191
851448
766183
676943
596729
549266
555419
612490
703383
810849
917303
1.00207e+06
1.03263e+06
980723
837015
632371
424803
283292
272413
314870
350336
360183
379771
414472
517772
653112
800775
967606
1.10443e+06
1.1625e+06
1.14093e+06
1.06877e+06
971757
859576
737377
624623
542812
529104
581145
671567
776897
883035
982292
1.06575e+06
1.10022e+06
1.05477e+06
912599
705223
490923
328630
288919
327968
348237
272757
255091
306452
393850
494818
579443
630819
640797
600423
498722
355627
276675
343690
479120
615942
721617
758662
686794
525154
423842
413530
414521
407557
397180
390195
394057
408651
431003
443358
426919
364818
226666
140741
134015
141648
161655
265436
427326
589258
707955
764893
766254
723132
643675
540365
437684
381808
417643
503787
603298
688733
753573
780496
752335
653860
491939
314615
177137
104732
76654.5
77777.9
83338.7
82001.2
67012.1
36577.3
2436.54
33057.7
140317
177366
204069
207865
198367
191429
190653
195127
204547
223369
260038
317316
385990
354135
336490
354859
315548
248246
176489
141860
159095
197552
248528
316020
381126
427876
465624
506168
548218
584516
607170
611445
597213
566943
526220
480472
435742
396195
364580
342246
329344
324882
327749
335961
354957
323797
376061
488534
450476
340072
238046
185372
182018
216618
289217
398917
519359
610392
653262
656176
638503
618271
609309
612304
622649
631835
631614
619568
595188
561277
517473
462894
399090
334801
296178
327200
438469
599727
770544
834939
605817
428705
315986
306780
390406
519553
657012
783292
883311
949653
984258
995351
991553
978201
956342
929851
901048
874758
855896
844378
831739
805211
753372
674476
595820
562754
578153
594728
587385
568166
573537
641749
753238
858275
919590
932898
920292
907585
906089
909772
915172
914296
909286
896713
881471
863407
850333
848383
858825
877718
896007
896776
858984
766826
627844
471117
336846
259464
247866
296099
396552
503313
569409
558565
410558
310805
250363
227853
233256
262769
323248
410225
498834
565811
606186