/*--------------------------------*- C++ -*----------------------------------*\
| =========                 |                                                 |
| \\      /  F ield         | OpenFOAM: The Open Source CFD Toolbox           |
|  \\    /   O peration     | Version:  2.1.1                                 |
|   \\  /    A nd           | Web:      www.OpenFOAM.org                      |
|    \\/     M anipulation  |                                                 |
\*---------------------------------------------------------------------------*/
FoamFile
{
    version     2.0;
    format      ascii;
    class       volScalarField;
    location    "0.005750000";
    object      rhoUnburned;
}
// * * * * * * * * * * * * * * * * * * * * * * * * * * * * * * * * * * * * * //

dimensions      [1 -3 0 0 0 0 0];

internalField   nonuniform List<scalar> 
12384
(
2.35297
2.43378
2.49515
2.52061
2.52014
2.509
2.4962
2.49017
2.48907
2.49053
2.48906
2.45286
2.18857
2.17081
4.42816
4.59355
4.44542
4.25929
4.17147
4.13461
4.08473
4.03768
3.9717
3.93155
3.87943
3.85325
3.83917
3.82212
3.81188
3.82033
3.79333
3.81474
3.78822
3.80035
3.78257
3.78187
3.77965
3.78859
3.8147
3.90247
4.17714
4.55582
4.63173
4.54977
4.46038
4.41629
4.34676
4.25216
4.15926
4.05512
3.98424
3.91024
3.91252
3.9126
3.92013
3.94339
3.99733
3.99213
4.02022
4.08851
4.05897
4.15372
4.12458
4.17241
4.16552
4.14005
4.10401
4.08671
4.11209
4.26798
4.44059
4.45303
4.3912
4.33419
5.07316
4.87305
5.09944
5.31634
5.42312
5.46154
5.45492
5.42938
5.41546
5.41626
5.42687
5.48092
5.47751
5.57573
5.55838
5.57154
5.69131
5.4252
5.55049
5.23086
5.1421
4.98542
4.90649
4.85129
4.81408
5.20607
5.32723
5.34327
5.3197
5.30699
5.31022
5.18168
5.03366
4.91031
4.86507
4.84038
4.87225
4.8445
4.98975
4.94716
5.14399
5.07702
5.20853
5.14905
5.16042
5.14246
5.00859
4.98288
4.90759
4.87912
4.82186
4.9301
4.99474
4.89931
4.9841
5.04519
5.02305
5.00777
4.99426
5.00673
5.22124
4.80673
4.97307
5.14712
5.1679
5.19646
5.10262
5.0423
4.88235
4.79129
4.68549
4.62481
4.59517
4.57321
4.57218
4.55976
4.5451
4.53978
4.52191
4.49918
4.47793
4.44966
4.41417
4.38571
4.38297
4.3929
4.55897
4.71812
4.67479
4.67342
6.09653
6.43658
7.29163
7.54811
7.06546
6.52322
6.24406
6.03973
6.03804
5.9994
6.1576
6.18473
6.40886
6.37961
6.66212
6.53077
6.73439
6.68254
6.66268
6.55215
6.40293
6.32599
6.26599
6.21533
7.04064
7.23009
6.92115
6.84526
6.8035
6.77643
5.79519
5.65581
5.43603
5.21148
5.06776
4.9713
4.95699
4.89427
5.02873
4.9326
5.09725
5.01465
5.08077
5.04712
5.01977
5.06935
4.9763
5.01002
4.90948
4.91674
4.88675
4.88466
4.83419
4.67659
4.53316
4.5604
4.63096
4.67907
4.67319
4.65891
5.85582
5.65979
5.40818
5.19935
5.08248
5.03865
5.02751
5.0305
5.05574
5.10265
5.09698
5.14032
5.15502
5.1362
5.13928
5.10768
5.08212
5.09237
5.11691
5.27253
5.54378
5.42124
5.28939
5.28785
5.2473
5.23301
5.20165
5.22387
5.25492
5.2879
5.06958
5.31224
5.40812
5.36302
5.25331
5.19237
5.19615
5.25257
5.36899
5.46042
5.60255
5.67157
5.95404
5.91334
6.26114
6.18185
6.22351
6.10367
5.91637
5.71427
5.54864
5.47031
5.51983
5.76608
5.78501
5.77958
5.80291
5.76291
5.8426
5.88168
6.28254
5.8564
5.67261
5.63157
5.61933
5.63268
5.67545
5.75655
5.84745
5.92938
6.06464
6.14534
6.37953
6.31074
6.28896
6.48019
6.0165
5.93107
5.65949
5.34736
5.27602
5.28424
5.23198
5.27298
5.31806
5.34321
5.36614
5.37979
5.3837
5.39619
8.1643
8.01979
7.41175
7.15127
6.46032
6.08772
6.0908
6.26855
6.34871
6.4514
6.53147
6.57189
6.60395
6.59215
6.56477
6.57266
6.53144
6.57011
6.58548
6.5614
6.64639
6.54335
6.6341
6.53911
6.5133
6.35929
6.25733
6.18258
6.43009
8.22147
8.58954
8.57896
8.60767
8.69559
8.74493
8.54621
6.38599
4.43146
4.37244
4.34011
4.311
4.28988
4.24808
4.21747
4.14765
4.12259
4.05012
4.03794
3.98591
3.96972
3.95745
3.93787
3.95834
3.97906
4.00584
4.04546
4.18666
4.56057
6.00919
8.51028
2.76681
2.74202
2.65197
2.53449
2.44986
2.39218
2.35511
2.32357
2.33419
2.37109
2.43086
2.44922
2.28677
2.16516
4.45654
4.51817
4.24058
4.06848
4.01263
3.97147
3.89222
3.80919
3.74043
3.70601
3.6845
3.68306
3.67248
3.66383
3.64673
3.64451
3.62757
3.62924
3.61892
3.62667
3.61595
3.61661
3.6239
3.64814
3.68554
3.76371
3.95632
4.31461
4.57904
4.58062
4.48242
4.39848
4.29828
4.13473
3.98653
3.86684
3.82733
3.81862
3.87497
3.93078
4.00912
4.03484
4.08676
4.11226
4.1268
4.16306
4.17477
4.21422
4.21341
4.23373
4.20929
4.19532
4.16209
4.13233
4.11795
4.18784
4.35586
4.46493
4.42186
4.34239
5.09137
4.95479
5.38104
5.5927
5.67713
5.59825
5.55548
5.48026
5.44316
5.41645
5.41989
5.43171
5.4488
5.49532
5.53158
5.5497
5.53084
5.46584
5.38038
5.28802
5.20849
5.12515
5.05395
4.96294
4.82562
4.93039
5.23192
5.28349
5.19657
5.22792
5.09401
4.83735
4.68372
4.64621
4.65021
4.69566
4.74374
4.8353
4.86145
4.98321
5.00876
5.10828
5.10696
5.14098
5.10071
5.03728
5.00141
4.92898
4.84165
4.81139
4.76247
4.83883
4.9632
4.90808
5.00609
5.03794
5.02833
5.02701
5.01432
5.00803
5.12472
4.83776
5.06909
5.2467
5.21142
5.18802
4.95924
4.81444
4.63515
4.57605
4.56362
4.62118
4.67815
4.75396
4.79567
4.83025
4.82174
4.81692
4.77264
4.73482
4.65493
4.57836
4.49108
4.40684
4.33581
4.32344
4.4171
4.61688
4.71455
4.6129
6.16436
6.73909
7.16117
6.43491
5.7406
5.54564
5.61752
5.78974
6.04499
6.32748
6.65286
6.76194
7.103
7.05683
7.34088
7.32051
7.33839
7.29336
7.17255
6.98941
6.82771
6.64168
6.50349
6.3258
6.55216
7.10128
7.17927
7.21464
7.10881
6.91957
5.19771
4.94083
4.72787
4.63148
4.62121
4.65011
4.70637
4.76286
4.82709
4.88337
4.93911
4.94487
4.97787
4.95669
4.96918
4.92561
4.86142
4.86119
4.79597
4.77192
4.78443
4.83128
4.81761
4.74448
4.6173
4.74184
4.91246
4.92142
4.86918
4.81438
5.37422
5.07737
4.8463
4.78019
4.80427
4.87692
4.9608
5.04039
5.13465
5.16347
5.23399
5.23492
5.23058
5.20818
5.17044
5.14596
5.10928
5.0842
5.08469
5.16018
5.36641
5.50631
5.3144
5.19002
5.10362
5.07951
5.08424
5.10725
5.13612
5.17422
5.17057
5.43067
5.33297
5.04542
4.94616
5.02387
5.20158
5.44537
5.67793
5.89429
6.16557
6.35399
6.5796
6.73542
7.02453
6.89646
6.84704
6.62407
6.36659
6.07177
5.77233
5.56622
5.44368
5.54526
5.72449
5.58711
5.51557
5.51593
5.56213
5.61089
6.14961
5.67693
5.56666
5.57729
5.64562
5.7354
5.83161
5.93355
6.04536
6.21462
6.38274
6.43783
6.68093
6.72527
6.63894
6.51369
6.38537
6.19104
5.91535
5.64665
5.4447
5.32684
5.23927
5.21928
5.30751
5.33609
5.35191
5.36865
5.39521
5.4359
7.4998
7.30123
6.99513
6.53903
6.21097
6.26014
6.50112
6.75703
6.99176
7.17237
7.3086
7.3971
7.45402
7.4714
7.46965
7.45978
7.39591
7.31555
7.10352
6.91975
6.91231
6.76358
6.83154
6.75552
6.64824
6.53016
6.37248
6.25172
6.32442
7.91671
7.58897
7.55588
7.83968
8.34868
8.37807
7.41666
4.85806
4.3512
4.32109
4.25889
4.20327
4.15626
4.11331
4.0797
4.03278
4.02544
3.97956
3.97424
3.94917
3.92564
3.91935
3.90598
3.92901
3.90995
3.92621
4.00233
4.22379
4.69152
6.04211
8.48419
2.78758
2.64991
2.46583
2.35422
2.36161
2.38014
2.38209
2.33485
2.26013
2.23208
2.28587
2.40003
2.34967
2.17743
4.48121
4.38601
4.05293
3.94988
3.88998
3.7932
3.69424
3.63745
3.62507
3.65911
3.65806
3.65376
3.60268
3.54978
3.48541
3.44397
3.42295
3.42945
3.44887
3.48293
3.5027
3.5204
3.52837
3.54108
3.56158
3.61873
3.76221
4.07229
4.46306
4.58947
4.49906
4.39744
4.27458
4.08415
3.94098
3.8345
3.82583
3.88647
4.00481
4.0778
4.15753
4.14414
4.14492
4.16218
4.14688
4.17221
4.17933
4.22065
4.23638
4.26499
4.24913
4.24581
4.20108
4.16422
4.14383
4.16444
4.27557
4.42077
4.44818
4.38754
5.04544
5.07363
5.56524
5.66372
5.67473
5.55381
5.4778
5.40499
5.36305
5.32307
5.29971
5.30056
5.31084
5.35355
5.34908
5.37254
5.34583
5.30745
5.27767
5.2319
5.16371
5.12741
5.12829
5.08714
4.94537
4.8498
5.02243
5.17465
5.01674
5.12166
4.61952
4.59625
4.63066
4.67125
4.72831
4.81449
4.84728
4.95033
4.95922
5.12165
5.05096
5.24117
5.13258
5.2371
5.18393
5.11602
5.04042
4.95715
4.87796
4.79856
4.72402
4.75914
4.91317
4.96991
4.99727
5.03397
5.05988
5.0851
5.06857
5.03461
5.0438
4.90939
5.14591
5.25652
5.13886
5.03636
4.81398
4.72539
4.66467
4.7842
4.94537
5.07568
5.15193
5.14695
5.13322
5.06632
5.01684
4.93
4.87751
4.78813
4.76311
4.67355
4.58659
4.48554
4.37608
4.28698
4.30114
4.48265
4.68669
4.65518
6.37143
6.82556
6.2761
5.49556
5.40285
5.62598
6.01848
6.52274
6.95164
7.1058
7.35576
7.24251
7.35275
7.1104
7.27189
7.14024
7.18008
7.11623
7.14892
6.95552
6.98154
6.84563
6.75825
6.58103
6.44819
6.73266
7.01171
7.10651
7.23063
7.09304
4.97862
4.71558
4.58839
4.60851
4.67411
4.74814
4.83617
4.85779
4.95392
4.95051
5.04239
5.01631
5.04821
5.01347
4.99116
4.96028
4.93599
4.84374
4.79239
4.76678
4.70983
4.75651
4.79807
4.77937
4.70342
4.80557
4.97961
4.97546
4.91842
4.847
4.92951
4.73779
4.72316
4.82525
4.98791
5.15147
5.28463
5.39066
5.45631
5.5038
5.52563
5.51007
5.48473
5.44323
5.37526
5.291
5.22273
5.15231
5.10054
5.11129
5.24828
5.46283
5.45496
5.20743
5.06075
5.07489
5.10201
5.14618
5.16855
5.18901
5.36284
5.46188
4.94577
4.75644
4.89373
5.22038
5.59937
5.90498
6.14593
6.33317
6.57776
6.5948
6.95384
7.10741
7.25138
7.32557
7.30975
7.16053
6.8488
6.45394
6.09528
5.75697
5.49351
5.44432
5.61689
5.52785
5.35783
5.33842
5.41891
5.48386
5.71289
5.54248
5.50559
5.61041
5.75317
5.8768
5.96327
6.05697
6.18493
6.26884
6.44282
6.57069
6.83121
6.8271
6.812
6.81809
6.51724
6.41505
6.04212
5.89666
5.6694
5.4818
5.33757
5.22783
5.26263
5.26086
5.22916
5.23429
5.29012
5.38339
7.24693
6.86656
6.47626
6.26726
6.35566
6.65053
6.90063
7.07662
7.10561
7.14819
7.16257
7.16639
7.25674
7.40398
7.54515
7.70574
7.69047
7.49768
7.17173
6.91554
6.79149
6.76637
6.94501
6.91311
6.95321
6.74547
6.52986
6.33863
6.32189
7.52266
6.35099
6.12738
7.40067
8.07484
7.43702
5.22808
4.40812
4.30384
4.22962
4.15028
4.09097
4.06032
4.02432
4.01904
3.96812
3.9737
3.94644
3.95292
3.95755
3.97917
4.02594
4.11229
4.32779
4.36626
4.32276
4.3829
4.661
5.08989
6.31199
8.52536
2.74203
2.54876
2.42669
2.50468
2.66608
2.7966
2.81636
2.68835
2.46929
2.28037
2.22314
2.32134
2.365
2.20254
4.48241
4.25127
3.92179
3.81808
3.68997
3.56324
3.5142
3.56325
3.62464
3.6776
3.63921
3.54783
3.39967
3.26176
3.14591
3.07007
3.03723
3.04824
3.0931
3.17155
3.26485
3.35399
3.41611
3.45057
3.46661
3.5054
3.61885
3.8948
4.33402
4.5758
4.51499
4.41987
4.28507
4.09769
3.9235
3.82275
3.84308
3.9483
4.09646
4.1696
4.21314
4.19237
4.17329
4.14044
4.13884
4.16588
4.17827
4.23236
4.25745
4.27712
4.25634
4.24802
4.21722
4.19513
4.16717
4.17177
4.23539
4.37161
4.45969
4.40623
5.10488
5.16766
5.64495
5.66405
5.59756
5.46929
5.4293
5.3747
5.3283
5.26491
5.25903
5.2757
5.31809
5.30355
5.30475
5.28204
5.20257
5.17743
5.07786
5.09448
5.10279
5.10519
5.11337
5.14146
5.02832
4.86497
4.87253
4.96511
4.87004
5.01976
4.49993
4.60202
4.68332
4.74674
4.81436
4.87418
4.90428
4.94147
4.99834
4.97957
5.01181
5.032
5.03228
5.03139
5.00209
4.98412
4.97378
4.93194
4.87523
4.79943
4.70547
4.69727
4.83274
4.98076
4.99796
5.03678
5.09866
5.14447
5.13275
5.05297
4.99999
4.97872
5.17238
5.20225
5.05742
4.9813
4.83915
4.85059
4.99549
5.19521
5.28209
5.27123
5.18257
5.06513
4.92342
4.82173
4.68505
4.59739
4.48352
4.41097
4.35292
4.38689
4.39514
4.39478
4.35794
4.25022
4.22153
4.37042
4.64935
4.6732
6.47506
6.51325
5.51166
5.31351
5.55801
6.07372
6.62581
7.02695
7.29352
7.15358
7.01427
6.58927
6.34987
6.07886
5.95964
5.87146
5.95593
6.00412
6.16985
6.37426
6.61849
6.71876
6.81573
6.75843
6.587
6.51587
6.72595
6.93127
7.16276
7.11659
4.83183
4.58095
4.58787
4.67468
4.7575
4.83265
4.87915
4.88507
4.94162
4.91478
4.95945
4.93826
4.97606
4.99603
4.95806
4.89918
4.93399
4.85545
4.76641
4.77877
4.68987
4.69879
4.74456
4.78039
4.74015
4.80381
4.92665
4.9559
4.93451
4.84472
4.64818
4.66878
4.8192
5.05363
5.26042
5.40346
5.45967
5.51945
5.53741
5.52316
5.49355
5.49314
5.46835
5.46086
5.45277
5.40484
5.33889
5.25534
5.16396
5.11776
5.17423
5.37182
5.50369
5.31395
5.08618
5.0905
5.16488
5.22579
5.27381
5.25465
5.5247
5.1884
4.607
4.71384
5.12272
5.60107
5.95052
6.14212
6.29588
6.39279
6.47244
6.53802
6.85812
6.80351
7.04575
7.25116
7.28152
7.3433
7.07229
6.82345
6.41229
5.94416
5.62023
5.44998
5.47592
5.50948
5.42925
5.33287
5.35077
5.43044
5.5155
5.45362
5.46474
5.67901
5.87186
5.98716
6.06148
6.17888
6.30978
6.48928
6.65251
6.89469
6.88379
6.93982
6.91345
6.64328
6.61852
6.55803
6.23951
6.06152
5.8123
5.64805
5.46697
5.29819
5.24279
5.21107
5.13369
5.12608
5.19333
5.33774
7.02504
6.50002
6.25768
6.31131
6.57768
6.77713
6.81179
6.61081
6.35457
6.09808
5.96574
6.02791
6.14954
6.41468
6.81843
7.29257
7.53818
7.53542
7.22248
6.80007
6.76901
6.83641
7.114
7.31583
7.39076
7.1038
6.69827
6.4089
6.35172
7.14878
5.9068
5.71665
7.33051
7.56089
5.66031
4.47211
4.28871
4.22445
4.12727
4.05462
4.01824
3.99529
3.98156
3.97019
3.95016
3.92352
3.9146
3.90244
3.91522
3.94522
4.04384
4.2179
4.75479
5.2349
5.38541
5.29404
5.31211
5.51946
6.78063
8.48493
2.71512
2.54722
2.61527
2.84729
3.03304
3.08397
3.04907
2.918
2.67229
2.39469
2.23106
2.27443
2.35607
2.21787
4.47381
4.14297
3.80363
3.6578
3.48474
3.38873
3.4338
3.5823
3.66956
3.68464
3.55108
3.37819
3.19201
3.04585
2.91219
2.8421
2.78778
2.78879
2.81633
2.89565
3.00525
3.13901
3.25887
3.34128
3.38404
3.42001
3.52003
3.77312
4.22824
4.55269
4.53337
4.45298
4.32737
4.12078
3.91999
3.81586
3.84088
3.97567
4.15656
4.23724
4.29019
4.25103
4.21155
4.14273
4.15009
4.17673
4.20404
4.31979
4.35063
4.38633
4.33693
4.29182
4.23566
4.21582
4.1895
4.18276
4.2216
4.3418
4.46084
4.42348
5.02573
5.2207
5.61245
5.58308
5.499
5.42097
5.40049
5.37639
5.31955
5.25566
5.29041
5.324
5.35378
5.32256
5.28072
5.20425
5.11835
5.093
5.01042
5.04044
4.95244
5.06705
5.11191
5.11675
5.0648
4.89521
4.81418
4.8222
4.74938
4.93954
4.57137
4.64673
4.69617
4.75136
4.7849
4.84393
4.89567
4.8507
4.82248
4.73523
4.64501
4.58126
4.51948
4.49758
4.52405
4.59667
4.68032
4.72352
4.76986
4.76674
4.70204
4.65975
4.7725
4.94272
4.99109
5.04293
5.12003
5.18569
5.19133
5.08445
4.97282
5.03509
5.15654
5.1318
5.0219
4.99993
4.95336
5.10195
5.2981
5.36381
5.27499
5.12187
4.94157
4.79046
4.66961
4.53833
4.42487
4.23479
4.11581
4.00018
3.96788
3.96655
4.07147
4.1651
4.21918
4.17431
4.14675
4.29013
4.60564
4.68601
6.42462
5.9092
5.21189
5.32733
5.8307
6.46048
6.91867
7.21575
7.0883
6.68128
6.1269
5.70042
5.51893
5.35627
5.40563
5.32627
5.34466
5.35173
5.41663
5.58984
5.91598
6.32035
6.65505
6.82504
6.70574
6.54587
6.49731
6.65947
7.06547
7.22081
4.71707
4.54827
4.63985
4.72954
4.80929
4.84781
4.86806
4.85519
4.84041
4.84144
4.86768
4.8352
4.8791
4.82461
4.88373
4.88344
4.80815
4.87039
4.76845
4.75861
4.68082
4.68481
4.68887
4.75974
4.76728
4.77677
4.87519
4.9069
4.91088
4.80321
4.59419
4.74487
5.01092
5.27292
5.42123
5.47778
5.47903
5.49478
5.42438
5.39486
5.42188
5.40034
5.38055
5.36009
5.37791
5.39997
5.38499
5.31543
5.22141
5.13814
5.14584
5.30547
5.50505
5.43659
5.14314
5.09626
5.14146
5.25833
5.36482
5.37166
5.50297
4.73567
4.49349
4.84351
5.41302
5.84082
6.082
6.19486
6.2968
6.29312
6.35761
6.45517
6.57263
6.57015
6.83237
6.80095
6.93381
6.93683
7.17605
6.97524
6.52524
6.14572
5.77444
5.45544
5.43976
5.49893
5.4182
5.35516
5.30364
5.40765
5.44488
5.30574
5.45539
5.78857
5.99479
6.08501
6.18291
6.34369
6.57175
6.74405
6.82979
6.76926
6.77522
6.68824
6.67241
6.64606
6.48293
6.56834
6.39832
6.18
5.91501
5.77491
5.60529
5.38995
5.26507
5.19828
5.10606
5.09556
5.13845
5.31379
6.80795
6.29371
6.19544
6.42747
6.61042
6.56954
6.19594
5.7534
5.38817
5.22053
5.15111
5.16977
5.32801
5.54703
5.96418
6.52711
7.19373
7.55256
7.20391
6.83079
6.7469
6.81684
7.27745
7.54442
7.76205
7.51547
6.93982
6.50835
6.38338
7.01338
5.7876
5.61362
7.29444
6.9564
4.71825
4.29751
4.23036
4.14361
4.0483
4.00563
3.98208
3.99632
3.98402
3.96583
3.95531
3.93899
3.90456
3.88682
3.88826
3.86919
3.97078
4.11226
4.69319
5.60748
5.87063
5.78904
5.61051
5.74404
7.3364
8.14395
2.73079
2.65792
2.84619
3.09012
3.15187
3.09756
3.00151
2.87749
2.69001
2.45158
2.24655
2.2496
2.34134
2.22829
4.48058
4.0604
3.69969
3.51714
3.32658
3.27753
3.4201
3.62624
3.69798
3.65017
3.48056
3.33074
3.19851
3.07813
2.93253
2.8211
2.73397
2.71683
2.71278
2.77026
2.84909
2.97712
3.1161
3.23548
3.3051
3.35457
3.44995
3.6963
4.15398
4.52568
4.54937
4.5033
4.38261
4.1784
3.93117
3.80008
3.81293
3.96145
4.17162
4.30696
4.40902
4.35287
4.30969
4.18985
4.17763
4.18927
4.2291
4.37543
4.37073
4.4214
4.36304
4.30142
4.24996
4.22744
4.2088
4.18927
4.2242
4.32702
4.46629
4.42945
5.0669
5.24568
5.59973
5.49861
5.39451
5.39533
5.40624
5.36976
5.31849
5.28561
5.33986
5.38176
5.4139
5.34332
5.20489
5.10579
4.98206
4.98989
4.97253
4.96149
4.87277
5.06924
5.06066
5.09046
5.0657
4.90743
4.76941
4.69698
4.6663
4.89181
4.61353
4.63202
4.63029
4.69764
4.73173
4.76514
4.8201
4.6676
4.46145
4.35826
4.14283
4.0885
3.98492
3.98997
4.00298
4.09993
4.25337
4.41618
4.61387
4.66675
4.63767
4.63804
4.72046
4.86361
4.99515
5.05739
5.14292
5.19922
5.20156
5.07063
4.96538
5.07173
5.11185
5.08067
5.03132
5.05565
5.13144
5.32893
5.40543
5.31268
5.10227
4.91066
4.77039
4.65991
4.57168
4.41944
4.1767
3.97155
3.76747
3.6908
3.64595
3.66667
3.75524
3.89611
4.03376
4.06
4.07703
4.2354
4.59271
4.68577
6.30058
5.49094
5.12558
5.43966
5.99389
6.66768
7.07509
7.21557
6.68434
6.14504
5.55974
5.42081
5.29274
5.23697
5.24103
5.10687
5.18402
5.18994
5.16067
5.23909
5.46048
5.84212
6.4065
6.7232
6.81504
6.59487
6.46229
6.40624
6.9157
7.17539
4.62585
4.57008
4.66576
4.76754
4.83083
4.85459
4.83092
4.79562
4.77218
4.79305
4.77736
4.7837
4.81461
4.82213
4.74751
4.85934
4.76975
4.80025
4.78281
4.74639
4.66388
4.6795
4.6682
4.72197
4.76814
4.7837
4.82811
4.8866
4.8386
4.72597
4.59713
4.88319
5.17612
5.40212
5.47875
5.45827
5.44569
5.3837
5.33501
5.35104
5.33096
5.30405
5.3081
5.28079
5.29095
5.30591
5.39659
5.34494
5.25373
5.17206
5.15633
5.2681
5.47652
5.5109
5.23855
5.13348
5.16019
5.26943
5.38361
5.38309
5.34924
4.35361
4.50671
5.03824
5.57572
5.90652
6.0964
6.2142
6.24519
6.26489
6.37438
6.3705
6.48893
6.53033
6.59971
6.64079
6.63899
6.81838
6.90961
6.79168
6.63148
6.30468
5.81715
5.52873
5.40633
5.4776
5.48662
5.34339
5.3386
5.39494
5.31874
5.18947
5.44496
5.88435
6.11419
6.18959
6.30249
6.61274
6.81914
6.85102
6.68272
6.56993
6.60891
6.5769
6.46635
6.42582
6.40847
6.38262
6.45597
6.29375
6.02904
5.85894
5.71445
5.49061
5.31051
5.20693
5.1333
5.10813
5.12482
5.29893
6.67445
6.16837
6.19487
6.43024
6.43752
6.04863
5.50866
5.07506
4.8558
4.71939
4.69121
4.72172
4.80814
5.02684
5.33521
5.8805
6.69358
7.33977
7.33046
6.87582
6.682
6.78535
7.22937
7.47236
7.79808
7.53415
6.90346
6.51832
6.47132
7.02061
5.93226
5.67743
7.15414
5.78344
4.4429
4.23894
4.17133
4.06826
4.00169
3.98056
3.98236
3.9728
3.96763
3.96518
3.94041
3.93129
3.92001
3.88736
3.87873
3.8447
3.90939
3.97545
4.37639
5.48768
5.9739
5.7854
5.65911
5.98327
8.00934
7.97453
2.76826
2.80506
3.06871
3.20083
3.10846
2.95106
2.83085
2.73527
2.61019
2.43167
2.25577
2.23969
2.329
2.23298
4.49094
4.0193
3.63361
3.43874
3.24041
3.18826
3.42554
3.6599
3.7081
3.64049
3.53126
3.47252
3.43432
3.33867
3.18744
2.9998
2.83265
2.73865
2.71023
2.73969
2.79289
2.90213
3.0262
3.15336
3.24327
3.2953
3.40204
3.63905
4.08636
4.49859
4.58188
4.55328
4.45683
4.23078
3.97283
3.79899
3.78264
3.90212
4.1389
4.36531
4.555
4.50912
4.47964
4.2841
4.23966
4.15491
4.25515
4.34524
4.39575
4.41427
4.31546
4.29747
4.2654
4.26136
4.21704
4.20498
4.23108
4.33675
4.46524
4.44341
4.99407
5.27994
5.48606
5.39686
5.32329
5.36379
5.41227
5.38872
5.33134
5.29952
5.34577
5.47204
5.45514
5.33948
5.22801
5.07786
4.97227
4.94109
4.93732
4.89945
4.93273
5.03178
5.03365
5.08757
5.05252
4.88849
4.71911
4.61193
4.6324
4.85962
4.55474
4.53131
4.55541
4.6534
4.7094
4.67103
4.60017
4.36818
4.12467
3.9805
3.80998
3.73754
3.67837
3.62385
3.6408
3.7284
3.89024
4.16426
4.4194
4.49377
4.60065
4.61115
4.64803
4.8237
4.97319
5.04276
5.16542
5.23643
5.17335
5.04367
4.97173
5.0639
5.07616
5.049
5.08833
5.14776
5.31254
5.42968
5.37549
5.17357
4.96239
4.83132
4.72432
4.66073
4.53146
4.29342
4.00688
3.74948
3.61825
3.51759
3.52007
3.52267
3.60699
3.74341
3.88114
3.94538
4.02845
4.22082
4.61677
4.6717
6.06992
5.20819
5.09049
5.46914
6.07689
6.86293
7.19514
7.20627
6.37703
5.95694
5.47019
5.3917
5.25927
5.18505
5.00076
4.91811
4.98862
4.98339
5.069
5.08708
5.20084
5.60613
6.09699
6.6747
6.79409
6.67488
6.4265
6.38178
6.94839
7.30044
4.60354
4.5888
4.68337
4.78794
4.85696
4.85294
4.79265
4.78011
4.73202
4.76039
4.74696
4.80697
4.79382
4.79769
4.77518
4.78795
4.77412
4.80547
4.70057
4.78584
4.65182
4.65473
4.67069
4.70625
4.75311
4.78416
4.80895
4.81222
4.62923
4.49684
4.62901
5.00448
5.27597
5.4464
5.47297
5.43047
5.37686
5.33772
5.2817
5.31537
5.28806
5.32408
5.31655
5.2933
5.28278
5.27792
5.32579
5.32204
5.28903
5.20997
5.17496
5.2653
5.47804
5.55857
5.3208
5.18544
5.20404
5.20119
5.21744
5.35177
5.04243
4.19084
4.54059
5.06944
5.62213
5.92605
6.12188
6.20965
6.23193
6.30679
6.35062
6.33927
6.52376
6.5046
6.5708
6.52152
6.60814
6.62372
6.52488
6.74846
6.69461
6.22642
5.88006
5.57087
5.40169
5.42049
5.41614
5.33532
5.28182
5.36954
5.14005
5.11631
5.5051
5.96955
6.20742
6.26486
6.50286
6.83734
6.92079
6.82041
6.57012
6.41037
6.42826
6.41444
6.32461
6.4109
6.25392
6.25899
6.39616
6.36534
6.13267
5.93391
5.77904
5.57239
5.36077
5.22363
5.15451
5.12889
5.10143
5.27226
6.62651
6.11423
6.1631
6.33678
6.09504
5.5747
5.04854
4.74106
4.54666
4.45595
4.40964
4.44515
4.52304
4.70508
4.95579
5.40059
6.08752
7.06796
7.41136
6.9617
6.63114
6.67358
7.03664
7.25475
7.51606
7.25759
6.81277
6.52554
6.50475
7.09777
6.53575
5.50894
6.68789
5.33502
4.35887
4.21119
4.12938
4.02127
3.98123
3.97679
3.97947
3.9839
3.97135
3.96133
3.93505
3.92333
3.91306
3.89136
3.88338
3.85198
3.86794
3.90427
4.11796
5.14684
6.22088
5.93925
5.83263
6.62099
8.38106
7.74579
2.8199
2.95941
3.21257
3.21784
2.9921
2.805
2.7087
2.63789
2.5412
2.41026
2.27583
2.25869
2.3311
2.23897
4.48885
4.0187
3.61967
3.44064
3.1717
3.09858
3.41902
3.6728
3.72747
3.69678
3.67129
3.69842
3.73591
3.69827
3.58117
3.35606
3.10494
2.90158
2.79597
2.78252
2.81923
2.89264
2.98716
3.10156
3.18098
3.25375
3.36775
3.62638
4.08597
4.49018
4.60485
4.60247
4.51031
4.31375
4.07587
3.82641
3.74754
3.8236
4.07038
4.40779
4.6931
4.72782
4.67962
4.44084
4.3203
4.15491
4.22612
4.30061
4.36715
4.35991
4.33253
4.30541
4.28962
4.26821
4.22098
4.20619
4.24093
4.35985
4.46817
4.44448
5.002
5.26937
5.42056
5.29494
5.28508
5.33953
5.40646
5.40417
5.32576
5.28549
5.35487
5.47886
5.50218
5.43744
5.28142
5.1374
5.05174
4.9364
4.98446
4.96008
4.97753
5.02333
5.07874
5.09264
5.02786
4.84544
4.67652
4.57476
4.66156
4.81488
4.44874
4.44279
4.51962
4.61146
4.66155
4.56615
4.34007
4.11674
3.91424
3.78507
3.67564
3.635
3.53195
3.5176
3.49732
3.55974
3.74857
4.02339
4.25791
4.44798
4.55439
4.53964
4.61351
4.78801
4.94424
5.05981
5.15655
5.21789
5.0848
4.94582
4.96237
5.01682
5.01824
5.01723
5.13449
5.22848
5.42109
5.42222
5.30092
5.08129
4.92621
4.82302
4.76966
4.71216
4.51766
4.22953
3.91808
3.69008
3.5675
3.5217
3.48413
3.48174
3.54951
3.67339
3.77806
3.87307
4.01321
4.29015
4.6484
4.61541
5.9241
5.04476
5.02145
5.38465
6.10141
6.97732
7.35152
7.257
6.4217
5.99732
5.58211
5.47361
5.27869
5.10288
4.87172
4.78346
4.76824
4.89234
4.9382
5.02192
5.1113
5.49988
6.05216
6.64531
6.86417
6.68738
6.46153
6.25705
6.97244
7.44857
4.54691
4.55957
4.66754
4.8034
4.88026
4.85346
4.813
4.77754
4.69872
4.7759
4.75338
4.81776
4.76131
4.80331
4.7806
4.78184
4.75394
4.83813
4.68211
4.76754
4.69749
4.63566
4.67453
4.71999
4.7623
4.79544
4.84848
4.57967
4.37734
4.4107
4.65412
5.02064
5.30631
5.44973
5.47202
5.39706
5.37056
5.31042
5.27088
5.31016
5.30608
5.40613
5.36981
5.32344
5.267
5.31421
5.27623
5.35189
5.27852
5.22291
5.19502
5.29676
5.50455
5.60371
5.39835
5.24963
5.24648
4.82664
4.79229
5.09321
4.71738
4.13153
4.5013
4.96849
5.58385
5.94892
6.13078
6.21863
6.26675
6.29261
6.32217
6.40728
6.54372
6.414
6.51239
6.46053
6.47244
6.32047
6.54079
6.71539
6.47685
6.22291
5.8867
5.57429
5.41501
5.42295
5.39455
5.32574
5.26152
5.26471
4.9762
5.0291
5.43413
5.97328
6.28664
6.40127
6.65623
6.9766
6.97361
6.81349
6.47274
6.40349
6.3181
6.38309
6.3625
6.37961
6.19604
6.15555
6.35132
6.4606
6.14876
5.98161
5.82623
5.63005
5.40274
5.24993
5.21292
5.17622
5.15496
5.31321
6.607
6.06684
6.09712
6.18047
5.82016
5.26553
4.77008
4.51286
4.34319
4.28942
4.27939
4.30788
4.36267
4.50947
4.7384
5.06891
5.60927
6.65728
7.40907
7.08456
6.64221
6.54103
6.77772
6.8807
7.02379
6.891
6.66332
6.52908
6.63354
7.2919
7.40893
5.53189
6.31189
5.21824
4.34194
4.20098
4.10635
3.99919
3.97024
3.96945
3.97838
3.96123
3.96682
3.94473
3.94125
3.90928
3.91545
3.88352
3.89207
3.85684
3.85061
3.86736
3.97312
4.73519
6.50411
6.60897
6.54789
7.71046
8.08363
7.43579
2.87242
3.09953
3.28773
3.16055
2.84235
2.67887
2.61253
2.5554
2.4888
2.40145
2.31974
2.29037
2.33201
2.24731
2.26743
2.84588
3.91806
4.22273
3.76588
3.47244
3.10723
3.00297
3.37147
3.67373
3.75482
3.7733
3.78963
3.84692
3.91121
3.944
3.9293
3.79729
3.53313
3.23972
3.02062
2.90249
2.88593
2.92433
2.98293
3.06212
3.13588
3.2223
3.35934
3.63164
4.06515
4.41886
4.44789
4.46712
4.60584
4.67161
4.62923
4.42485
4.20882
3.9238
3.75215
3.75764
3.97714
4.40383
4.83846
4.91878
4.88298
4.62373
4.41984
4.17552
4.2005
4.24738
4.31881
4.33247
4.31758
4.30121
4.28185
4.23897
4.20949
4.22511
4.28815
4.39261
4.48628
4.4787
4.51114
4.48388
4.94343
5.24214
5.28689
5.17548
5.15755
5.2883
5.37528
5.41062
5.31686
5.2725
5.28253
5.39924
5.53624
5.53466
5.41506
5.26886
5.18672
5.04763
5.12871
5.05409
5.04298
5.09021
5.1627
5.10161
4.9674
4.76835
4.58776
4.52743
4.60513
4.58411
4.50347
4.42334
4.37936
4.39448
4.49296
4.58175
4.59378
4.44515
4.18767
3.98466
3.85803
3.73531
3.67863
3.62284
3.56681
3.53789
3.54535
3.61264
3.8162
4.01129
4.24193
4.4402
4.47947
4.50135
4.59645
4.75338
4.93324
5.0496
5.13725
5.09873
4.88859
4.88892
4.89181
4.89415
4.96313
4.99374
5.00926
5.04757
5.20276
5.30565
5.43653
5.40271
5.25233
5.06311
4.94798
4.89813
4.86037
4.76032
4.56931
4.2916
3.95123
3.73646
3.60869
3.5389
3.51954
3.52104
3.55843
3.66461
3.74978
3.87565
4.08425
4.42088
4.65887
4.59744
5.48446
5.69281
5.445
4.84702
4.94696
5.24942
5.98737
6.97962
7.49925
7.43784
6.74357
6.20119
5.81108
5.60278
5.38611
5.17904
4.96073
4.84192
4.81465
4.84109
4.92773
5.0033
5.17287
5.6172
6.18088
6.76479
6.81852
6.70401
6.37186
6.40105
7.35941
7.21486
4.70317
4.61165
4.53352
4.51763
4.64702
4.79881
4.89304
4.90391
4.86642
4.77377
4.7202
4.80089
4.76544
4.82367
4.80259
4.79916
4.79266
4.83624
4.76469
4.8402
4.73278
4.75487
4.68952
4.67425
4.68517
4.73452
4.79426
4.76363
4.46693
4.29471
4.39147
4.44465
4.66619
4.64216
4.87667
5.05845
5.3245
5.48332
5.45929
5.40318
5.35577
5.33848
5.27581
5.30902
5.30956
5.35444
5.3709
5.33152
5.31176
5.31599
5.27035
5.33465
5.26449
5.23725
5.2305
5.36009
5.55804
5.62849
5.437
5.25654
4.85811
4.26821
4.39129
4.39298
4.25956
4.34328
4.23007
4.0725
4.39429
4.85796
5.51351
5.92295
6.10383
6.25154
6.29246
6.2407
6.36793
6.33566
6.41757
6.33689
6.38158
6.38545
6.30862
6.30112
6.57617
6.46022
6.40906
6.13636
5.8075
5.57867
5.42451
5.37796
5.29592
5.18835
5.04953
4.86045
4.87595
4.9698
4.94679
5.0224
5.41266
6.01773
6.39796
6.49474
6.76771
6.99697
7.1288
6.86057
6.58145
6.3951
6.41041
6.4361
6.37846
6.47861
6.09414
6.3053
6.4453
6.37601
6.12409
5.99724
5.84727
5.64411
5.43975
5.27627
5.21632
5.18321
5.1367
5.32578
5.51542
5.69755
6.29683
6.09324
5.99868
6.0352
5.65802
5.10833
4.61105
4.3976
4.24689
4.16152
4.11766
4.1727
4.25122
4.40587
4.60207
4.90773
5.29809
6.17063
7.19557
7.30832
6.71568
6.48611
6.58309
6.60565
6.71199
6.61856
6.57957
6.59556
6.78055
7.23159
7.65816
8.02498
7.91641
7.24848
5.94482
5.27191
4.42665
4.20126
4.10025
3.99852
3.96226
3.96567
3.97165
3.96363
3.9599
3.93102
3.92922
3.92135
3.90023
3.88918
3.90554
3.85807
3.852
3.8454
3.90181
4.38157
6.62795
7.78681
7.97678
8.10234
7.70052
8.3899
3.31409
2.96967
2.92439
3.1949
3.33056
3.09366
2.73296
2.58402
2.52922
2.48983
2.47073
2.44524
2.39472
2.33983
2.3258
2.26665
2.28044
2.78644
3.84812
4.11451
3.7858
3.55174
3.03888
2.88154
3.26678
3.64787
3.77209
3.82078
3.84056
3.87681
3.92776
4.00345
4.06832
4.1036
4.02741
3.77033
3.47777
3.21368
3.06683
3.01853
3.03541
3.08176
3.13822
3.23461
3.37653
3.62802
3.96889
4.27851
4.35779
4.42005
4.48748
4.64297
4.64799
4.48495
4.34617
4.11598
3.84279
3.74109
3.88721
4.37035
4.9131
5.03942
5.01831
4.78249
4.53317
4.24034
4.17525
4.17908
4.25735
4.26856
4.28332
4.27039
4.24075
4.2202
4.22062
4.2507
4.32871
4.4147
4.44398
4.4348
4.46702
4.62821
5.00863
5.20742
5.18331
5.09288
5.1118
5.19491
5.33263
5.36925
5.32085
5.23186
5.21642
5.28746
5.44943
5.59143
5.54386
5.45936
5.37841
5.26773
5.28811
5.18935
5.16211
5.23493
5.20135
5.06342
4.87444
4.66307
4.55923
4.5604
4.57902
4.56194
4.47776
4.39497
4.36461
4.36709
4.46297
4.5476
4.53175
4.37843
4.16676
3.9788
3.89341
3.79952
3.76258
3.72841
3.71695
3.72726
3.74839
3.85015
3.98148
4.109
4.31568
4.41066
4.45427
4.49002
4.59718
4.76845
4.94457
5.04738
5.08844
4.90153
4.75094
4.78761
4.8442
4.91472
4.94589
4.95247
5.01454
5.08121
5.20539
5.33441
5.40356
5.37134
5.24889
5.08226
5.03187
5.00679
4.94631
4.88945
4.71927
4.41365
4.1144
3.87684
3.70569
3.63374
3.60135
3.58948
3.64578
3.71303
3.83296
3.9983
4.25768
4.54354
4.68149
4.84651
5.47247
5.3396
4.98044
4.71539
4.76636
4.98261
5.64012
6.78942
7.58355
7.64939
7.1762
6.59414
6.17444
5.91183
5.69064
5.46684
5.26276
5.11373
5.02798
5.0312
5.09011
5.30103
5.48368
6.02633
6.48988
6.86136
6.80723
6.54354
6.37969
6.7326
7.64922
6.196
4.5987
4.50094
4.3598
4.3576
4.52794
4.73016
4.90124
4.95209
4.91109
4.81537
4.76524
4.79019
4.77926
4.81203
4.82519
4.87642
4.85655
4.89971
4.80026
4.85891
4.761
4.76593
4.68191
4.71038
4.73808
4.79032
4.83632
4.704
4.39527
4.34194
4.43909
4.51056
4.51434
4.61779
4.71904
4.99929
5.28991
5.45235
5.51277
5.40359
5.38615
5.3176
5.28852
5.25581
5.25622
5.31709
5.32926
5.29914
5.28009
5.30044
5.28164
5.31006
5.26116
5.25626
5.29423
5.46058
5.63001
5.63578
5.42264
5.04331
4.33159
3.98505
4.05835
4.06142
3.96524
3.90217
3.8313
3.89224
4.23469
4.64353
5.37297
5.8213
6.058
6.24797
6.26251
6.25451
6.36611
6.2853
6.33028
6.26564
6.28459
6.25778
6.28878
6.49164
6.38043
6.3632
6.28529
5.96487
5.73965
5.56308
5.44071
5.37677
5.30811
5.20867
5.00021
4.73389