/*--------------------------------*- C++ -*----------------------------------*\
| =========                 |                                                 |
| \\      /  F ield         | OpenFOAM: The Open Source CFD Toolbox           |
|  \\    /   O peration     | Version:  2.1.1                                 |
|   \\  /    A nd           | Web:      www.OpenFOAM.org                      |
|    \\/     M anipulation  |                                                 |
\*---------------------------------------------------------------------------*/
FoamFile
{
    version     2.0;
    format      ascii;
    class       volScalarField;
    location    "0.005750000";
    object      Tu;
}
// * * * * * * * * * * * * * * * * * * * * * * * * * * * * * * * * * * * * * //

dimensions      [0 0 0 1 0 0 0];

internalField   nonuniform List<scalar> 
12384
(
904.628
880.834
863.966
855.613
857.747
858.347
867.758
867.448
875.035
873.804
877.642
887.853
972.361
985.403
555.206
529.567
542.041
563.22
573.141
576.126
582.501
585.731
594.025
596.833
600.179
601.627
598.145
595.951
593.57
579.91
588.226
570.222
579.636
568.239
574.663
571.81
573.825
572.19
569.601
557.78
523.462
483.912
479.361
489.755
513.207
531.026
542.639
555.976
566.417
580.617
589.238
599.595
595.902
590.853
588.496
579.146
557.439
561.3
549.858
524.771
536.765
506.077
518.276
499.214
507.881
513.355
521.353
526.723
524.904
504.513
480.33
482.008
486.473
489.525
377.515
395.588
376.848
368.647
360.777
363.311
365.439
369.615
371.646
371.227
369.114
361.667
360.645
348.687
350.991
351.515
338.08
369.457
354.103
397.178
403.858
424.851
433.197
438.166
440.615
410.324
401.628
398.991
400.74
401.908
403.619
415.533
428.405
440.173
440.232
440.131
427.832
431.356
401.663
409.488
375.605
386.923
364.611
374.002
369.497
373.016
389.75
391.026
403.027
405.395
413.395
404.871
411.633
422.284
415.003
408.352
411.216
412.797
415.35
414.609
367.435
389.182
377.085
361.739
366.969
363.133
378.363
381.681
402.016
410.655
423.08
431.96
435.491
439.167
439.215
441.666
442.278
445.332
445.651
450.617
451.059
454.282
457.453
460.002
459.651
457.44
438.052
423.742
436.369
439.562
351.063
332.896
297.331
288.011
305.632
326.891
338.297
348.695
344.357
348.242
332.112
333.034
313.009
318.141
295.572
306.351
291.488
296.696
297.178
306.394
316.623
322.667
327.189
330.086
300.459
298.054
310.689
311.674
312.194
312.199
375.996
381.503
387.933
396.83
401.001
405.223
400.284
405.841
383.764
395.024
370.714
381.655
370.636
375.651
381.454
374.903
392.205
386.876
406.736
404.611
414.957
413.851
423.945
447.237
467.914
465.291
461.242
456.479
458.601
460.015
342.746
354.529
369.798
382.463
389.655
391.321
390.404
388.545
383.875
376.853
378.669
374.305
373.917
377.679
378.165
382.639
386.68
387.624
386.878
376.939
357.457
343.749
341.185
340.899
345.745
347.98
351.714
349.348
345.312
341.363
441.472
412.294
399.877
399.276
406.336
410.209
408.886
402.749
389.149
380.124
363.233
359.113
327.798
336.304
302.953
313.722
309.693
319.771
335.187
350.367
364.093
371.982
363.122
343.331
342.659
341.072
337.234
339.151
332.115
328.669
338.094
358.114
370.299
373.823
375.877
375.481
371.528
363.701
353.08
344.047
328.094
321.416
300.55
306.975
312.408
296.396
338.929
341.485
370.172
399.765
408.049
408.037
409.881
406.592
402.524
400.48
399.208
398.821
399.881
398.909
270
272.685
289.127
297.732
323.903
338.064
338.606
329.646
327.587
322.786
319.774
319.534
318.954
321.011
323.156
322.65
322.933
320.744
314.31
316.048
303.254
309.701
299.295
304.604
303.411
311.87
316.827
321.274
312.515
270
270
270
270
270
270
270
296.53
388.863
390.933
391.249
391.857
390.811
396.318
394.909
408.282
406.058
422.493
419.778
432.118
431.615
436.304
438.354
438.063
436.676
435.156
430.821
420.147
398.168
324.037
270
798.157
802.999
821.797
848.843
872.969
887.67
905.022
915.718
918.034
908.146
893.108
888.682
939.078
986.736
550.985
536.022
565.343
586.133
593.701
597.072
609.621
620.027
630.623
634.368
634.891
631.928
628.302
621.112
624.816
610.687
616.281
603.066
608.479
597.562
602.511
599.734
598.76
594.438
590.688
578.118
552.294
509.482
483.589
487.544
511.75
534.4
548.492
567.272
585.965
602.629
608.396
607.453
597.337
584.692
567.197
559.522
549.193
532.504
537.534
512.666
519.774
496.811
504.345
492.329
500.541
503.39
509.853
518.108
522.619
514.862
491.921
475.673
477.008
482.78
375.354
388.982
358.108
350.408
344.847
353.835
357.869
364.805
368.121
369.461
367.393
363.949
361.194
353.301
350.414
348.593
349.04
362.444
367.612
387.878
396.216
411.259
419.462
429.183
440.647
432.322
409.636
402.75
406.333
404.967
422.085
447.753
463.828
463.806
461.119
451.401
439.948
422.967
417.231
396.91
391.749
376.826
377.126
370.004
375.128
382.783
387.296
396.623
407.318
412.903
419.048
413.526
410.713
421.268
410.981
404.678
404.614
405.156
408.488
410.689
372.843
386.144
370.149
356.707
367.268
367.873
392.943
404.899
427.423
434.912
439.923
435.951
432.53
425.392
422.564
418.563
420.626
419.916
426.14
427.759
437.013
443.137
450.131
457.898
464.824
464.774
453.145
432.445
425.588
438.333
346.615
319.176
302.409
332.158
365.498
376.605
369.837
360.712
344.142
331.083
310.205
308.618
285.849
291.052
272.812
274.097
270
272.419
278.507
287.874
296.134
307.042
315.082
324.663
316.471
299.112
299.477
299.032
302.834
309.133
404.638
413.129
423.568
430.688
430.8
429.392
420.674
416.051
402.075
397.092
385.664
385.256
382.052
383.48
381.025
389.289
399.404
399.687
412.884
417.419
422.721
418.282
425.564
436.453
458.061
449.526
435.404
434.927
439.768
445.293
372.464
390.436
404.763
408.936
406.636
400.824
393.901
387.273
377.74
376.218
368.617
369.056
369.827
372.591
377.45
379.133
383.116
386.667
388.391
384.485
371.179
352.802
345.154
351.3
365.336
372.297
374.788
371.558
364.598
356.483
428.654
395.459
397.096
418.019
426.66
420.988
407.502
388.646
371.446
356.97
333.711
322.598
304.549
296.24
276.838
283.073
284.617
296.768
311.37
329.482
350.254
365.766
373.434
361.515
345.457
352.587
354.339
352.137
348.46
345.485
342.738
367.203
376.498
377.229
373.906
367.989
360.592
352.147
341.781
327.155
311.716
308.896
291.427
287.11
293.38
302.005
314.559
327.222
353.916
376.501
394.842
405.798
412.686
411.179
400.699
396.562
395.411
395.098
395.222
393.726
283.758
291.077
302.509
320.246
333.692
331.829
322.391
313.198
304.447
299.111
295.222
293.216
292.547
293.611
294.537
294.574
295.537
294.702
298.217
302.62
294.526
301.451
292.96
295.616
299.345
302.868
310.591
316.996
316.093
270
270
270
270
270
270
270
364.312
394.064
394.299
397.617
400.655
404.237
407.174
410.194
419.723
417.1
430.167
427.109
434.433
434.43
437.407
439.5
439.552
441.721
440.449
433.364
419.442
390.562
324.061
270
792.614
822.247
866.196
895.671
894.353
885.99
891.246
908.572
941.862
954.058
938.171
902.255
918.505
980.675
546.022
548.642
587.834
600.865
610.006
624.068
640.795
649.331
651.928
643.222
641.964
635.995
641.682
639.658
651.438
645.323
649.089
637.318
635.159
621.922
621.28
615.695
616.419
612.201
611.732
601.223
580.275
538.347
494.774
486.112
511.198
534.232
548.38
569.845
588.351
605.614
605.918
595.131
574.717
560.986
542.799
541.035
542.688
524.774
534.493
510.981
518.654
494.301
501.076
485.166
493.271
493.333
502.199
510.693
516.447
515.998
501.724
480.501
472.469
476.46
382.74
381.708
347.217
346.539
344.782
355.802
361.978
368.838
372.412
374.472
375.399
372.544
370.477
362.505
364.987
362.066
361.309
374.96
372.385
391.37
397.149
407.797
410.95
416.704
429.499
438.31
423.963
409.326
420.341
412.35
469.074
471.152
461.72
454.579
444.308
429.747
424.314
406.761
406.547
380.179
390.244
361.9
375.425
360.66
366.582
372.951
382.614
392.244
402.622
412.93
422.383
419.549
410.369
413.901
410.91
403.587
399.215
397.452
400.843
406.578
376.718
380.011
366.114
359.355
375.399
381.593
406.94
414.573
426.314
417.683
406.818
397.275
390.978
391.976
391.904
397.866
400.298
408.572
411.754
420.66
419.948
430.024
438.64
447.459
459.014
468.476
465.543
445.053
425.516
431.377
337.492
317.124
342.338
381.333
385.428
371.095
350.359
326.019
304.754
301.018
284.835
290.368
278.484
288.881
274.092
280.075
275.81
279.059
276.544
289.491
288.294
297.461
302.57
311.322
318.695
309.116
302.164
301.495
298.44
302.501
413.195
423.171
435.61
437.953
434.391
427.149
412.947
411.066
391.186
393.523
374.736
380.657
373.328
378.025
380.335
386.564
387.745
403.879
410.955
415.704
429.591
424.389
424.218
430.215
445.568
442.631
429.871
429.591
434.003
441.909
399.007
411.04
411.88
405.105
394.476
383.528
374.579
367.156
360.766
356.39
353.601
355.971
356.724
360.776
365.891
372.583
376.369
381.516
386.022
386.318
378.146
362.791
349.479
352.539
373.004
378.961
378.659
374.532
370.804
362.791
405.334
387.764
424.612
440.973
431.371
407.569
381.435
362.683
347.408
334.877
315.219
316.047
290.312
281.975
273.343
270
270
276.797
291.748
311.872
331.65
353.493
372.479
371.927
354.272
356.123
366.908
365.988
357.887
352.593
364.31
375.173
379.832
373.945
365.061
357.238
351.128
344.053
332.953
326.906
311.855
306.035
286.725
288.944
293.051
288.36
314.328
315.154
347.236
356.155
376.827
393.177
405.228
411.985
403.164
398.591
399.777
399.638
397.325
392.445
291.638
306.502
322.392
330.965
328.073
317.159
309.413
303.329
303.865
301.754
301.195
302.491
300.637
296.826
293.173
287.323
286.126
290.45
295.419
300.865
299.722
302.613
291.206
296.091
290.336
296.9
302.879
310.983
313.598
276.109
291.739
301.19
270
270
270
342.687
389.893
395.848
401.149
407.081
413.033
415.544
422.514
419.4
433.787
427.2
438.09
434.328
437.559
432.776
429.29
425.773
415.661
414.843
417.466
412.495
396.5
371.734
316.149
270
802.057
845.435
872.999
847.165
799.121
765.956
764.517
801.252
873.524
938.699
961.442
927.428
912.327
970.016
543.528
562.303
603.199
617.877
639.508
660.5
671.704
661.581
653.307
638.958
645.021
649.969
677.655
691.202
715.231
716.291
724.53
709.866
700.104
680.886
659.518
644.121
635.731
627.829
628.404
620.672
603.381
562.022
508.592
486.838
509.018
529.579
543.796
562.691
589.386
605.717
602.106
583.269
558.345
542.758
537.343
530.138
536.989
527.991
533.87
510.945
517.417
491.875
494.881
482.236
488.406
489.471
496.502
503.502
510.438
512.926
505.624
486.997
471.519
474.441
375.814
375.014
343.717
345.814
349.941
360.55
364.596
369.626
373.537
378.031
377.436
373.882
369.633
367.691
366.505
365.497
373.774
379.744
389.969
399.238
399.468
408.444
410.081
410.727
423.568
438.698
439.639
430.719
434.715
423.991
479.51
461.188
447.729
438.077
428.091
419.44
416.006
407.985
397.716
394.838
389.993
378.638
379.651
374.861
378.542
381.919
384.007
391.439
400.242
411.22
423.279
425.097
414.712
408.597
410.718
402.949
395.144
390.847
393.935
404.084
378.324
374.965
366.359
366.057
382.914
387.068
405.399
405.696
398.463
384.911
378.934
379.724
386.203
394.398
405.887
412.011
425.37
430.326
441.563
448.196
456.25
449.459
451.162
453.309
457.237
470.783
473.863
456.537
428.138
428.813
331.987
329.947
380.573
391.964
376.555
349.47
322.599
307.256
292.27
298.715
296.666
315.229
316.471
328.289
326.472
332.164
321.056
319.985
314.328
308.467
300.497
300.674
298.753
302.901
311.266
316.33
309.789
304.744
300.368
304.029
417.84
435.86
442.407
438.065
429.899
418.873
407.501
405.256
387.675
391.526
377.55
379.74
374.298
371.686
377.44
389.982
383.228
400.929
411.94
411.518
428.705
429.972
427.982
427.395
438.511
439.048
433.165
430.925
431.557
442.01
417.851
415.388
405.427
390.991
378.137
369.426
365.102
359.4
356.192
356.289
359.525
358.113
361.746
361.435
362.396
365.637
370.774
375.815
381.762
384.975
382.196
369.845
355.832
351.389
369.489
377.186
371.575
366.693
365.017
363.338
385.426
403.966
454.907
446.063
413.347
381.302
360.77
350.295
337.754
330.001
321.047
316.362
291.845
295.728
281.503
270
270
270
284.375
295.296
316.913
344.08
365.096
374.231
368.696
360.768
360.205
368.413
365.546
358.247
373.848
379.447
380.622
366.682
355.413
348.558
343.836
335.698
327.346
316.627
306.022
289.872
293.109
286.446
286.375
304.372
308.55
311.663
336.254
344.971
366.564
379.456
394.901
407.051
405.347
400.134
404.378
404.715
400.244
391.214
299.085
320.904
330.705
329.993
320.369
314.769
313.862
323.199
332.93
345.732
353.473
349.25
345.595
334.685
318.001
299.359
290.664
287.286
291.198
306.436
300.563
301.835
292.703
287.96
282.326
288.184
298.578
307.449
310.442
285.356
305.592
313.444
270
270
320.873
384.768
398.294
403.025
411.355
419.072
423.848
429.146
430.318
433.401
437.174
441.033
443.903
443.324
444.977
439.958
429.186
418.547
391.224
372.685
364.558
367.865
365.803
353.235
300.384
273.805
806.793
843.681
818.206
754.707
712.366
700.354
712.92
744.477
816.259
904.188
959.839
943.419
914.529
962.046
542.203
572.46
616.664
640.293
670.926
691.254
684.797
658.29
646.441
635.972
659.558
678.575
716.728
733.742
765.242
769.136
778.413
773.306
758.361
741.299
711.513
684.7
663.076
646.769
642.894
635.572
620.076
579.965
520.431
488.755
504.563
523.253
533.134
556.213
586.995
604.405
600.058
576.876
547.536
532.966
525.264
521.058
531.202
527.902
530.594
510.908
513.471
481.017
484.537
467.216
478.045
481.397
491.768
498.197
505.496
509.935
506.497
490.195
471.883
471.73
387.799
373.19
348.539
351.86
356.009
363.562
366.277
368.295
372.708
377.306
373.802
370.04
367.037
365.356
367.848
372.638
377.876
387.071
392.384
398.299
414.039
408.021
407.175
413.955
421.165
437.68
444.739
442.456
446.268
430.791
463.267
448.519
439.135
430.427
427.246
420.357
412.738
413.715
411.23
412.692
417.373
415.872
419.951
420.359
417.531
410.307
405.549
407.533
405.785
412.258
422.127
429.595
418.856
408.272
410.021
402.816
393.039
387.11
387.398
398.418
379.638
371.281
370.05
372.804
385.999
386.713
396.378
386.475
375.217
370.714
377.208
388.248
402.494
414.595
424.276
436.852
443.593
464.434
472.63
484.018
488.283
489.957
476.672
470.223
467.356
475.862
481.329
464.557
432.964
427.002
336.006
360.772
399.821
392.083
363.271
331.776
312.061
299.068
300.279
315.98
333.837
357.461
354.93
369.319
352.093
359.582
354.283
355.174
351.331
344.735
329.2
315.116
303.408
298.551
305.594
314.092
318.52
314.052
302.272
299.301
423.481
445.298
442.767
435.434
424.176
415.984
405.269
402.915
392.71
392.395
377.494
384.346
373.724
383.11
376.12
381.74
394.08
391.521
407.929
412.391
426.708
428.93
434.908
427.454
432.301
438.194
433.781
432.27
432.244
444.482
420.137
410.3
394.968
378.543
370.231
365.27
363.841
359.967
365.137
367.991
362.286
365.656
365.961
371.435
369.228
368.775
368.379
373.723
378.811
383.9
383.223
373.673
358.974
349.911
364.309
373.817
369.569
361.539
357.501
355.106
380.536
439.082
464.743
435.092
392.474
366.239
352.855
344.781
334.336
334.153
323.696
316.619
303.288
304.764
285.383
289.802
283.903
288.434
277.232
289.949
314.436
334.11
355.468
379.196
374.865
362.722
365.595
366.407
370.935
359.845
378.29
388.889
376.849
357.072
345.716
340.806
334.735
327.275
312.935
305.271
295.782
299.888
293.968
301.144
304.184
301.58
320.407
312.404
328.356
338.515
359.942
369.002
383.418
399.869
404.218
400.375
404.913
405.324
402.38
390.897
307.403
329.233
334.117
325.447
320.875
323.255
340.912
363.072
385.609
394.03
399.514
400.292
388.822
378.487
354.708
328.238
299.062
283.952
293.246
303.872
301.709
307.693
289.953
284.661
273.807
276.079
288.358
301.068
307.107
287.967
312.783
318.237
270
274.417
369.332
397.284
402.521
409.892
420.339
426.256
433.309
432.081
437.834
440.233
445.193
441.403
452.786
446.439
449.106
452.276
437.089
425.669
393.979
357.161
347.52
352.293
357.207
347.509
286.099
291.711
803.064
814.062
761.302
702.83
688.929
699.605
725.662
758.204
814.951
890.353
957.188
951.781
918.4
959.148
537.597
579.671
628.689
658.646
697.769
710.459
687.685
651.756
640.313
641.231
669.172
686.033
711.251
726.423
753.718
778.656
787.074
794.232
782.874
771.092
748.244
718.224
690.323
666.105
656.827
647.1
632.665
591.499
529.459
492.252
501.4
513.762
522.034
543.212
583.319
607.214
604.969
577.685
545.729
523.133
508.291
508.132
517.554
520.943
528.324
510.127
511.252
476.819
482.177
465.289
473.422
480.03
488.842
495.856
501.864
508.726
504.43
491.412
470.045
470.994
383.463
374.635
349.827
357.374
364.781
364.765
365.352
368.183
372.049
373.257
369.514
364.731
362.137
361.014
373.937
377.992
390.461
390.531
392.222
404.234
421.138
402.045
412.429
416.087
422.201
437.275
451.025
456.87
456.451
436.963
449.63
441.709
440.902
430.247
429.772
426.397
414.359
424.484
447.174
439.546
469.659
458.185
476.279
464.066
465.49
454.985
443.518
432.095
415.902
418.448
429.833
430.294
423.703
415.172
406.904
400.577
391.385
386.413
387.209
399.791
379.729
369.753
374.739
378.105
384.747
384.409
382.134
370.371
365.759
372.193
388.046
404.157
415.521
425.288
430.928
443.188
467.907
485.172
512.364
517.196
521.424
523.385
511.479
498.715
483.271
487.006
486.932
471.069
434.497
427.715
341.54
383.48
405.626
385.861
355.219
323.188
306.336
299.221
316.581
340.003
363.676
371.703
368.43
373.21
358.955
373.457
359.687
359.123
364.821
361.988
350.077
336.035
310.699
302.431
299.434
311.813
318.877
324.07
306.847
301.925
430.728
447.543
442.149
431.115
421.464
412.711
405.876
405.883
393.96
390.26
382.088
380.922
373.665
374.09
385.254
374.586
390.804
394.983
399.719
412.202
426.437
426.648
435.741
431.862
429.812
434.025
435.093
430.559
435.755
447.95
421.211
403.828
386.719
372.712
366.42
367.704
363.832
369.823
369.659
367.31
367.304
369.941
371.279
374.449
375.148
377.249
367.411
373.026
377.967
382.024
381.7
375.447
362.33
350.427
358.289
367.621
363.804
359.094
355.059
355.993
388.907
477.661
462.635
415.681
379.989
361.038
349.833
340.372
335.297
333.297
318.834
319.339
305.267
302.583
296.429
293.996
297.081
288.632
289.165
301.347
309.654
325.844
357.509
375.424
380.295
368.002
361.124
372.073
369.196
362.571
384.856
392.44
376.884
349.732
336.836
332.721
327.566
312.186
300.201
298.343
302.008
306.278
300.798
299.508
307.942
311.743
320.368
322.701
325.67
333.439
351.561
363.137
374.553
391.575
400.972
400.201
402.748
404.157
401.542
389.51
312.51
335.118
334.664
326.841
328.412
348.518
378.743
407.782
420.419
431.521
432.967
430.842
427.101
409.906
391.248
357.309
315.274
291.916
287.791
301.376
305.073
308.98
290.821
288.637
272.716
276.452
290.642
299.961
302.346
285.798
308.379
315.822
270
317.337
387.257
402.4
408.878
418.751
429.266
435.041
440.301
447.548
449.768
450.429
455.292
450.572
454.198
450.712
454.798
454.776
445.457
440.498
409.942
360.106
343.337
353.071
356.334
337.376
270
301.173
795.331
778.65
714.689
683.399
699.415
736.271
772.212
801.674
841.377
898.401
954.951
954.103
922.513
955.787
531.472
582.018
634.889
669.644
711.089
728.138
686.518
646.78
638.879
643.568
656.393
660.45
657.951
674.412
693.221
737.82
762.819
788.057
785.989
778.314
762.01
737.321
707.638
682.559
666.616
659.289
640.521
601.096
539.941
494.945
493.306
504.132
506.869
532.064
573.536
604.968
607.167
587.366
549.855
515.661
490.651
491.975
495.077
509.987
520.556
517.219
507.343
483.518
480.089
467.655
482.317
482.118
487.865
491.142
501.529
504.682
502.933
488.778
469.571
467.698
395.135
373.391
360.541
363.867
370.194
367.679
364.19
366.365
369.424
371.5
368.25
356.494
358.334
361.992
370.527
378.834
387.13
393.848
392.819
411.266
408.274
406.333
413.927
416.678
423.786
440.529
457.271
465.447
460.634
440.243
450.297
447.886
444.968
433.007
429.758
434.408
435.264
451.788
480.571
479.723
505.326
500.567
505.599
512.15
508.861
497.787
483.573
451.391
431.624
439.337
429.045
433.166
434.088
418.276
407.138
403.163
390.047
383.476
388.235
398.546
378.643
372.677
377.891
381.686
379.482
378.54
368.052
362.297
365.676
380.475
398.206
409.969
420.452
423.762
432.973
453.854
480.445
509.139
523.296
539.863
534.402
532.823
523.404
509.903
500.476
499.689
492.188
473.618
433.677
431.399
353.223
401.18
408.376
384.026
350.971
314.977
302.559
298.984
331.871
347.644
367.668
373.8
367.584
373.191
374.098
380.545
367.012
373.973
365.348
370.815
362.926
344.863
323.991
302.288
300.879
307.122
320.511
324.058
304.758
296.695
432.99
446.644
438.941
428.47
417.521
410.226
408.73
402.732
394.055
391.945
379.829
373.923
368.96
370.044
374.428
378.664
382.691
388.298
409.458
401.226
426.905
428.695
432.548
432.556
431.488
430.734
432.955
433.628
449.024
466.627
422.098
399.872
383.062
371.01
367.756
368.968
368.86
373.417
372.951
372.483
372.512
371.714
370.207
375.755
373.575
379.738
372.546
377.166
374.29
379.62
380.063
375.089
361.838
350.36
354.618
362.414
360.668
365.944
367.656
357.856
409.635
494.048
459.848
412.033
373.811
357.594
345.237
339.133
334.139
327.79
317.949
320.313
300.307
302.523
294.858
298.864
293.983
297.297
311.154
300.988
306.153
335.689
354.092
374.275
384.4
375.129
369.482
374.025
377.86
362.394
393.366
394.141
366.411
341.444
329.023
327.397
314.17
300.447
292.89
299.217
301.3
313.657
303.929
308.456
317.536
309.685
327.791
329.113
328.188
329.951
344.873
358.48
369.672
384.892
397.174
399.119
401.88
403.696
404.987
391.809
313.829
337.041
336.487
331.662
345.843
374.553
407.308
426.256
442.675
451.471
458.76
455.666
451.31
433.949
416.683
384.107
343.257
299.883
285.279
298.659
307.133
311.829
294.26
290.442
277.647
281.805
290.693
298.586
298.761
282.27
288.238
323.717
284.246
338.102
394.147
405.123
412.738
425.202
435.014
439.466
448.215
451.254
459.48
458.992
466.579
456.751
461.638
452.373
458.372
453.176
454.406
448.542
427.32
372.809
331.416
346.562
350.13
315.542
270
316.489
783.131
745.118
687.569
679.961
725.569
777.045
806.768
833.21
861.989
905.993
947.359
950.885
924.024
958.64
532.133
576.674
629.253
662.412
722.929
745.933
686.821
646.021
634.792
634.815
631.471
621.399
606.025
611.609
620.764
661.569
703.59
751.328
765.418
771.749
754.765
737.91
719.001
693.368
680.517
667.019
647.819
605.997
540.002
497.336
486.277
494.508
497.557
515.401
554.22
599.179
615.125
600.646
559.045
510.346
477.642
467.112
473.572
492.376
510.86
518.311
514.669
489.662
488.454
477.17
481.755
484.881
489.016
493.286
501.694
506.945
502.633
485.607
468.253
468.04
395.391
377.003
364.805
373.718
373.012
369.442
364.925
364.364
369.88
371.483
365.902
354.987
355.667
353.95
367.382
373.973
378.294
395.568
387.518
401.906
402.992
408.575
408.538
415.463
425.876
444.951
460.731
468.115
457.183
442.142
464.036
456.48
447.354
439.358
436.727
440.816
468.096
476.887
505.948
501.408
523.731
506.814
529.962
518.494
525.057
519.213
496.365
464.158
454.787
438.532
433.376
443.332
438.322
422.132
411.77
400.933
392.132
384.979
392.097
401.478
380.711
380.158
382.536
385.878
376.175
373.322
359.263
361.225
368.788
386.139
400.669
411.715
414.34
415.974
432.134
457.737
487.728
515.77
526.554
530.534
537.112
541.904
532.551
516.442
516.023
508.553
494.284
467.672
433.168
438.623
361.72
413.105
413.217
388.988
349.254
310.677
295.966
296.692
328.589
346.088
360.295
367.395
363.842
379.131
377.467
387.365
382.359
375.918
374.408
369.442
367.754
347.161
323.401
302.217
295.483
306.231
316.736
329.553
303.619
290.284
442.345
446.227
438.049
424.722
413.592
409.295
404.907
399.88
399.28
387.759
376.325
371.342
371.113
366.18
368.71
378.261
382.114
381.157
409.547
401.238
416.49
430.461
429.516
428.823
428.482
429.018
425.942
449.328
464.31
462.213
432.072
404.781
383.71
372.445
367.676
372.204
368.444
376.657
373.442
374.644
371.142
364.423
367.47
373.499
374.462
375.817
375.92
374.083
374.807
379.064
378.487
372.237
359.874
348.77
351.625
357.211
360.044
396.686
402.205
374.127
438.279
501.184
459.686
418.651
373.717
353.012
342.796
337.184
329.275
327.653
318.184
313.849
297.52
306.486
296.546
299.727
300.588
317.281
307.117
301.506
322.004
334.782
354.351
376.037
384.313
377.355
375.326
376.674
375.572
366.019
405.857
400.158
371.221
339.403
323.204
317.275
304.918
292.176
288.022
297.365
304.542
309.306
310.93
306.668
310.775
309.334
329.329
336.076
329.351
323.511
345.923
354.975
366.339
380.191
394.028
397.73
396.68
399.225
397.516
385.134
314.226
338.818
339.629
339.532
360.509
392.079
428.454
446.668
466.886
469.212
469.181
466.125
465.675
451.733
432.588
408.826
369.504
314.492
285.911
296.716
306.034
315.618
301.811
298.643
289.747
290.832
294.747
298.61
295.253
273.685
270
323.443
296.211
344.56
395.579
406.543
415.118
428.96
438.898
445.531
454.677
465.032
469.297
474.363
472.525
466.815
464.964
457.463
459.888
454.608
458.757
453.226
439.829
392.635
319.491
318.314
320.321
282.472
293.366
335.445
776.026
721.299
677.963
693.544
765.074
812.349
836.45
853.229
875.059
902.079
929.92
935.493
921.69
949.304
935.182
786.021
592.067
552.744
607.251
656.084
738.712
769.093
695.49
647.019
631.54
623.056
615.199
598.972
583.678
573.589
569.357
585.867
624.84
678.453
721.281
742.302
746.199
733.351
718.177
702.088
691.125
673.756
651.032
605.364
546.555
512.688
508.979
499.869
483.735
480.153
477.747
496.323
531.011
580.734
611.832
610.799
573.408
512.817
461.415
448.567
453.118
472.55
498.934
519.401
518.084
499.755
494.007
485.545
486.558
488.682
490.795
498.75
505.007
503.118
495.129
479.823
462.485
459.134
447.927
440.73
406.219
380.723
377.19
382.082
384.694
373.268
367.352
364.173
370.573
371.974
369.97
361.825
352.29
348.451
357.318
365.602
370.073
388.164
374.599
393.567
398.203
403.309
399.949
415.024
431.522
451.581
470.508
476.276
463.384
457.163
463.266
477.784
467.725
461.983
451.136
444.912
446.805
453.414
487.915
492.502
514.207
507.216
521.544
508.144
523.488
516.897
518.844
512.909
482.476
472.428
455.75
437.439
445.09
448.852
440.789
428.348
413.441
403.204
394.445
394.629
400.697
393.324
391.614
371.893
379.453
381.081
382.628
383.576
370.492
366.849
357.313
359.926
370.517
385.983
398.554
402.571
404.095
412.819
426.048
447.163
485.456
507.006
520.369
528.384
529.653
533.742
535.307
519.021
522.422
509.348
488.992
455.833
434.978
445.033
383.829
367.496
386.808
423.534
415.467
394.737
352.879
309.489
289.566
290.166
312.446
337.402
346.987
360.702
356.995
373.259
370.47
383.931
376.473
378.874
369.466
371.674
359.45
341.254
315.338
295.684
297.607
303.311
320.655
320.374
289.302
291.584
411.599
421.008
437.467
440.3
433.825
421.685
411.156
403.112
398.101
401.502
398.673
382.809
376.854
372.533
367.018
370.475
371.273
371.552
382.069
381.731
398.643
402.603
415.709
421.806
428.23
426.185
423.797
430.825
457.14
467.916
461.423
462.359
427.28
439.74
410.859
400.97
382.081
369.266
369.889
371.409
371.391
372.817
375.22
373.131
371.19
370.278
366.032
371.324
370.949
375.316
375.931
375.069
374.935
377.681
374.626
367.5
356.052
347.579
349.994
358.193
396.426
454.254
439.716
441.638
461.016
450.051
476.135
498.114
461.688
419.583
374.628
351.923
343.747
333.184
326.296
330.703
313.383
316.974
303.686
310.278
303.531
303.453
311.76
318.247
304.247
320.091
324.452
339.705
360.835
375.861
385.418
383.597
386.038
389.12
387.384
398.105
396.354
386.643
393.532
390.037
364.025
331.302
314.042
310.451
297.547
289.394
278.813
293.986
295.693
311.558
302.244
304.577
309.787
302.706
338.778
323.98
321.476
330.075
347.942
353.146
364.67
379.837
390.457
395.818
398.402
399.072
401.78
385.644
375.778
361.452
329.372
337.722
344.379
346.518
368.613
401.66
443.709
457.888
475.701
485.805
493.892
484.671
478.033
461.455
445.172
420.222
391.737
335.795
294.316
291.021
304.598
315.619
308.519
306.973
297.128
300.322
298.338
295.868
288.862
274.993
270
270
270
270
311.531
342.848
391.138
406.985
416.66
427.909
441.058
447.061
458.118
466.966
476.293
481.549
481.68
466.778
471.616
458.328
458.028
458.659
458.069
457.268
448.115
413.925
313.586
282.59
278.546
286.048
316.243
282.433
509.013
543.513
765.079
705.271
670.985
707.595
793.175
841.052
856.907
870.605
873.672
885.948
900.663
922.753
924.652
956.847
943.822
805.33
601.31
565.97
602.412
641.729
755.603
798.83
713.65
650.756
630.849
616.952
611.422
598.7
587.667
568.09
553.044
542.767
547.535
587.132
632.651
681.591
709.747
717.519
713.498
702.369
690.504
674.939
649.058
607.667
560.841
529.578
521.429
514.368
501.562
481.145
477.289
485.931
506.979
547.849
597.048
614.285
589.353
517.22
454.788
438.465
438.705
455.76
487.073
511.701
525.095
512.213
502.937
496.607
495.568
493.969
499.869
504.323
504.895
502.054
490.771
476.27
469.595
466.516
453.327
431.344
402.922
386.61
385.367
390.553
387.86
381.895
370.436
368.317
371.012
375.759
375.208
368.731
358.207
344.931
349.689
352.743
357.376
370.758
365.113
384.543
390.56
389.297
397.994
417.154
437.233
459.593
469.981
466.354
459.468
457.473
467.323
473.93
469.501
464.915
455.029
451.112
456.1
463.06
491.113
496.694
509.706
500.267
511.499
494.899
503.034
493.057
495.103
477.491
469.953
464.79
446.676
445.05
450.164
450.104
443.485
428.379
413.608
404.678
399.505
406.698
408.127
398.7
390.642
379.424
385.115
387.355
382.345
380.824
370.875
362.695
358.336
360.6
368.452
383.447
388.762
391.424
397.722
399.059
408.95
436.902
463.935
487.751
509.946
516.113
521.61
527.884
523.205
519.615
512.307
496.364
472.441
445.884
436.542
429.305
384.255
389.574
413.391
429.853
425.075
409.469
368.999
314.624
285.526
283.255
295.066
318.858
329.072
343.345
340.773
356.038
352.782
365.919
360.712
365.461
360.046
346.182
345.007
316.966
302.839
290.212
296.025
309.751
316.928
307.162
276.59
326.699
415.531
427.75
441.752
444.529
436.119
423.057
407.495
398.839
395.673
399.58
395.813
386.545
379.752
376.222
369.715
364.911
366.463
366.871
379.438
380.231
392.584
401.089
414.86
418.493
419.202
420.146
417.117
430.873
455.348
455.37
444.274
439.249
442.243
427.811
425.247
403.232
383.642
374.484
364.444
374.155
368.04
377.198
374.642
378.736
378.186
371.057
371.741
374.807
373.995
376.018
374.37
375.166
373.891
375.136
369.582
360.902
351.181
345.013
350.27
376.643
445.552
485.833
478.83
476.387
493.698
507.228
520.349
514.286
477.921
436.471
379.695
356.591
344.439
331.774
328.59
327.973
314.11
319.706
309.7
315.022
312.029
315.534
316.028
306.091
320.669
325.943
330.084
351.409
365.385
377.35
383.916
384.696
386.038
384.594
389.968
409.233
413.026
411.914
418.041
406.415
376.524
336.042
310.541
305.783
295.13
285.49