/*--------------------------------*- C++ -*----------------------------------*\
| =========                 |                                                 |
| \\      /  F ield         | OpenFOAM: The Open Source CFD Toolbox           |
|  \\    /   O peration     | Version:  2.1.1                                 |
|   \\  /    A nd           | Web:      www.OpenFOAM.org                      |
|    \\/     M anipulation  |                                                 |
\*---------------------------------------------------------------------------*/
FoamFile
{
    version     2.0;
    format      ascii;
    class       volScalarField;
    location    "0.008050000";
    object      cSound;
}
// * * * * * * * * * * * * * * * * * * * * * * * * * * * * * * * * * * * * * //

dimensions      [0 1 -1 0 0 0 0];

internalField   nonuniform List<scalar> 
12384
(
1136.95
1133.01
1128.36
1124.1
1122.08
1121.75
1122.41
1124.1
1126.85
1130.12
1134.46
1140.57
1145.94
1151.22
1092.22
1102.13
1115.8
1121.02
1121.89
1122.27
1122.41
1122.77
1122.52
1121.81
1120.87
1119.57
1118.14
1116.1
1114.23
1112.17
1110.32
1108.77
1107.86
1106.6
1106.09
1105.1
1104.82
1104.19
1104.28
1104.44
1105.64
1103.87
1089.89
1076.51
1125.52
1124.91
1123.67
1123.36
1122.78
1122.31
1121.98
1121.72
1121.29
1120.67
1119.89
1119.32
1118.91
1118.79
1118.59
1118.74
1118.59
1118.86
1118.81
1119.3
1119.19
1119.83
1120.17
1120.82
1121.9
1122.92
1123.94
1124.33
1123.77
1123.77
1118.95
1118.28
1118.14
1118.36
1118.5
1118.67
1118.98
1119.29
1119.61
1119.95
1120.41
1120.65
1120.67
1120.37
1120.06
1119.73
1119.07
1118.99
1118.96
1118.94
1118.73
1119.41
1119.71
1119.74
1119.68
1119.72
1119.62
1119.41
1119.04
1118.91
1121.28
1121.62
1122.32
1122.95
1122.92
1122.49
1122.34
1121.46
1120.55
1119.73
1118.85
1118.63
1117.57
1117.76
1117.32
1118.84
1119.05
1120.41
1121.46
1121.99
1121.33
1119.91
1119.26
1119.03
1118.27
1118.49
1118.39
1118.59
1119.13
1119.52
1127.16
1131.28
1131.12
1129.32
1128.52
1127.91
1127.6
1127.21
1127.07
1126.95
1126.91
1126.91
1126.85
1126.74
1126.69
1126.34
1125.71
1125.74
1125.63
1124.82
1125.03
1125.23
1125.39
1125.7
1126.08
1126.71
1126.8
1124.48
1123.47
1123.66
1112.16
1116.79
1116.67
1115.58
1114.29
1112.35
1110.85
1109.23
1107.93
1107.07
1106.44
1105.93
1105.73
1105.36
1104.84
1104.82
1104.23
1104.09
1103.98
1104.25
1104.02
1105.39
1105.42
1107.07
1108.01
1109.73
1106.27
1080.25
1077.3
1078.32
1129.7
1135.38
1135.77
1134.98
1134.34
1134.21
1134.24
1134.23
1134.07
1133.77
1133.4
1132.7
1132.63
1132.12
1132.01
1132.1
1132.58
1132.94
1133.42
1134.15
1134.56
1126.81
1122.6
1123.5
1124.05
1124.79
1125.32
1125.58
1125.33
1125.07
1134.89
1135.18
1135.77
1136.06
1136.15
1136.07
1135.87
1135.44
1135.14
1134.33
1134.15
1132.91
1132.92
1132.78
1132.46
1134
1134.8
1135.04
1136.02
1140.15
1143.88
1144.05
1144.02
1143.83
1143.7
1144.17
1144.8
1145.57
1145.35
1145.5
1134.81
1136.36
1137.72
1139.04
1140.03
1140.45
1140.68
1140.39
1139.54
1138.75
1137.82
1137.05
1135.98
1135.85
1135.6
1135.9
1136.66
1137.49
1138.08
1137.89
1140.57
1142.31
1142.96
1143.65
1144.11
1144.96
1145.27
1144.7
1144.24
1144.19
1147.58
1147.58
1147.87
1148.12
1148.43
1148.46
1148.22
1147.68
1147.03
1146.31
1145.7
1145.25
1145.38
1145.86
1145.9
1146.92
1150.56
1151.71
1151.25
1151.41
1151.2
1151.48
1151.25
1151.68
1151.57
1151.86
1152.05
1152.3
1152.5
1153.21
1139.28
1137.62
1138.13
1143.84
1146.29
1146.48
1146.89
1147.22
1146.99
1146.65
1146.8
1146.35
1146.46
1146.3
1146.7
1146.58
1146.77
1146.7
1146.61
1146.51
1146.17
1145.9
1145.65
1145.42
1145.32
1145.43
1145.6
1146.16
1146.35
1145.76
1158.67
1156.36
1153.36
1150.84
1149.59
1148.83
1151.05
1170.28
1193.71
1194.36
1190.23
1187.64
1185.74
1184.96
1183.83
1183.35
1182.34
1181.99
1181.35
1181.18
1181.36
1182.37
1184.53
1187.36
1190.39
1193.8
1196.55
1198.16
1198.3
1193.25
1128.78
1119.32
1111.39
1108.99
1109.33
1111.08
1112.87
1114.65
1116.6
1119.21
1123.81
1131.66
1142.05
1150.49
1093
1105.45
1118.9
1124.45
1127.12
1129.02
1130.18
1129.78
1127.7
1125.55
1123.58
1121.95
1119.11
1115.58
1112.31
1109.57
1107.86
1106.57
1105.43
1104.63
1103.62
1103.22
1102.55
1102.31
1102.07
1102.57
1103.79
1104.87
1101.23
1092.91
1125.58
1124.84
1123.91
1123.15
1123
1122.83
1122.43
1121.09
1119.33
1117.71
1116.67
1116.36
1116.8
1117.6
1118.26
1118.82
1119.22
1119.3
1119.3
1119.62
1119.6
1119.8
1120.04
1120.45
1121.07
1122.12
1123.11
1124.07
1124.66
1124.63
1118.94
1118.2
1118.03
1118.13
1118.17
1118.51
1118.9
1119.51
1120.17
1120.6
1120.66
1120.03
1118.97
1118.07
1117.13
1116.23
1115.56
1115.36
1114.71
1115.19
1116.08
1117.03
1117.98
1119.11
1119.83
1119.87
1119.86
1119.84
1119.48
1119.39
1121.15
1121.39
1121.96
1122.38
1121.62
1119.76
1118.12
1117.12
1116.02
1115.03
1114.19
1113.03
1112.41
1112.46
1112.94
1113.56
1114.66
1116.9
1118.61
1120.68
1121.39
1121.38
1119.9
1118.34
1115.66
1114.41
1114.78
1116.25
1117.63
1118.36
1127.89
1131.5
1130.49
1128.6
1127.57
1126.66
1126.21
1125.88
1125.66
1125.58
1125.84
1125.87
1125.62
1125.29
1124.67
1124.23
1124.51
1124.18
1124.2
1124.32
1124.92
1124.84
1125.18
1125.46
1125.76
1126.26
1126.81
1126.06
1124.64
1123.65
1112.99
1117.4
1117.02
1115.29
1112.74
1110.12
1107.84
1106.04
1105.1
1104.66
1104.35
1104.37
1104.63
1104.51
1103.91
1104.14
1103.5
1103.91
1103.28
1103.58
1103.64
1104.15
1104.57
1105.31
1106.36
1108.66
1108.3
1097.09
1082.37
1078.57
1128.92
1135.12
1135.15
1134.01
1133.81
1134.16
1134.24
1134.23
1134.14
1133.95
1133.72
1133.63
1133.24
1133
1132.89
1133.14
1133.14
1133.36
1133.53
1133.76
1134.68
1131.94
1125.33
1121.56
1122.98
1124.44
1126.09
1127.4
1127.53
1126.7
1134.56
1134.81
1135.79
1136.08
1135.97
1135.66
1135.07
1134.21
1133.01
1131.79
1130.62
1129.82
1129.17
1129.25
1130
1130.78
1132.27
1133.77
1134.83
1137.24
1141.42
1143.56
1142.45
1141.43
1140.85
1140.95
1141.9
1143.87
1145.74
1145.65
1134.47
1135.51
1137.58
1139.99
1141.67
1141.49
1140.11
1138.36
1136.44
1134.5
1132.89
1131.37
1130.4
1129.45
1129.34
1130.3
1131.87
1133.74
1135.92
1137.05
1138.79
1140.4
1141.24
1141.66
1142.36
1144.4
1146.58
1147.41
1145.87
1144.7
1147.39
1147.56
1147.9
1148.92
1149.23
1148.93
1148.03
1146.77
1145.27
1143.94
1142.81
1142.37
1142.24
1143.14
1144.09
1145.28
1147.87
1151.59
1151.67
1151.25
1150.5
1150.7
1151
1151.43
1151.69
1151.88
1151.96
1152.21
1152.45
1153.27
1143.7
1143.08
1144.44
1146.16
1146.6
1146.87
1147.21
1147.27
1147.55
1147.48
1147.74
1147.98
1148.07
1148.17
1148.02
1147.61
1146.86
1146.32
1145.82
1145.47
1145.21
1144.88
1144.06
1143.46
1142.92
1142.73
1143.49
1144.82
1145.98
1145.87
1167.18
1158.79
1150.77
1146.63
1146.76
1149.78
1166.72
1189.25
1194.62
1191.39
1188.63
1187.44
1187.32
1187.42
1187.95
1187.84
1187.18
1185.87
1183.75
1181.33
1178.74
1177.65
1178.51
1181.67
1185.09
1189.09
1194.27
1197.75
1197.94
1192.37
1114.07
1105.98
1104.42
1106.82
1111.29
1115.05
1117.87
1120.19
1122.16
1122.29
1123.09
1126.56
1136.39
1148.81
1093.34
1107.48
1121.68
1128.26
1131.29
1132.94
1131.93
1126.98
1120.97
1117.26
1117.4
1118.13
1115.71
1112.36
1109.66
1108.12
1107.63
1106.87
1106.94
1106.76
1106.37
1105.23
1104.21
1102.68
1101.84
1101.35
1101.92
1103.65
1104.28
1099.23
1125.57
1124.82
1124.33
1124.6
1125.86
1126.03
1124.32
1120.02
1115.82
1113.48
1114.27
1116.51
1118.95
1120.53
1121.07
1121.46
1121.4
1121.49
1121.44
1121.33
1121.58
1121.28
1121.16
1120.96
1120.94
1121.43
1122.45
1123.3
1124.36
1124.94
1118.8
1118.07
1117.94
1118.04
1118.14
1118.29
1118.48
1119
1119.75
1120.11
1119.56
1117.91
1116.82
1116.11
1115.1
1114.25
1113.47
1112.44
1111.48
1111.76
1112.36
1113.62
1115.36
1117.23
1118.68
1119.66
1120.05
1119.94
1119.83
1119.57
1121.11
1120.92
1121.86
1121.09
1118.46
1117.05
1116.09
1115.19
1114.05
1112.91
1111.66
1110.26
1109.92
1109.7
1109.31
1110.42
1111.46
1113.15
1115.53
1118.09
1120.09
1121.35
1121
1119.57
1116.39
1114.43
1114.73
1116.45
1118.35
1118.86
1128.16
1131.7
1130.59
1129.26
1128.91
1128.47
1127.3
1125.82
1125.34
1125.41
1125.7
1125.42
1124.56
1123.22
1122.88
1123.3
1124.13
1124.85
1125.87
1126.45
1126.61
1126.63
1126.66
1126.41
1126.09
1126.01
1126.42
1126.63
1125.58
1124.27
1113.53
1117.77
1117.47
1115.55
1113.23
1110.99
1108.96
1107.49
1106.73
1105.96
1105.56
1104.97
1104.75
1104.81
1104.73
1104.97
1105.07
1105.26
1105.98
1105.78
1105.56
1106.03
1105.48
1105.7
1105.76
1107.21
1108.53
1105.51
1092.64
1081.18
1127.31
1134.45
1134.93
1133.8
1134.83
1134.96
1134.59
1134.32
1134.33
1134.59
1135
1134.89
1134.97
1135.15
1135.12
1134.82
1134.83
1134.54
1134.23
1133.91
1134.2
1133.98
1129.57
1122.57
1120.18
1121.56
1124.57
1128.03
1129.22
1128.37
1134.04
1135.16
1136.02
1135.98
1135.83
1135.34
1134.32
1132.68
1130.92
1129.36
1127.46
1125.86
1125.27
1124.33
1125.48
1127.26
1129.84
1131.14
1132.89
1134.83
1138.39
1142.05
1142.37
1140.7
1139.76
1139.54
1139.81
1141.04
1144.63
1145.68
1134.15
1134.57
1137.42
1141.37
1142.52
1141.41
1138.6
1135.75
1133.07
1130.88
1128.93
1126.75
1125.17
1124.52
1124.32
1124.84
1126.82
1128.98
1131.69
1134.27
1136.49
1138.61
1139.69
1140.36
1140.05
1142.04
1146.14
1148.93
1148.18
1145.52
1147.4
1146.88
1148.03
1149.36
1149.39
1148.3
1146.48
1144.22
1141.58
1139.34
1137.89
1137.45
1137.84
1138.78
1140.79
1142.57
1145.33
1149.15
1151.6
1151.57
1149.96
1150.27
1151.28
1152.5
1152.97
1153.18
1152.94
1152.68
1152.54
1153.36
1146.25
1146.64
1146.93
1146.68
1146.93
1147.5
1148.23
1148.83
1150.15
1151.47
1152.9
1153.92
1154.63
1154.46
1153.85
1152.8
1151.39
1149.35
1147.56
1146.24
1145.73
1145.4
1144.13
1142.92
1141.82
1141.52
1141.56
1143.3
1145.27
1145.69
1167.86
1155.35
1147.02
1146.91
1150.52
1165.28
1186.21
1194.97
1192.89
1190.69
1190.65
1192.36
1194.22
1195.88
1196.37
1196.49
1195.88
1194.69
1192.65
1189.68
1185.3
1180.62
1177.82
1180.64
1183.97
1186.13
1192.89
1197.17
1196.66
1190.03
1101.97
1103.05
1108.82
1115.34
1121.68
1124.81
1125.7
1125.57
1126.47
1128.4
1128.17
1127.31
1132.95
1147.08
1093.11
1107.62
1123.18
1130.47
1133.48
1133.73
1128.25
1118.13
1107.15
1103.11
1108.59
1113.22
1111.84
1109.74
1108.63
1108.39
1108.28
1108.88
1109.3
1109.6
1109.18
1108.78
1107.11
1105.26
1102.99
1101.43
1101.06
1102.09
1104
1101.23
1125.5
1125.07
1125.27
1126.95
1128.33
1127.76
1124.21
1116.15
1111.45
1112.85
1116.99
1120.67
1122.31
1122.31
1121.67
1120.84
1120.41
1120.11
1120.39
1120.59
1120.94
1121.61
1121.83
1121.82
1121.55
1121.49
1121.94
1122.76
1123.81
1124.8
1118.72
1118.05
1118.17
1118.61
1118.8
1118.64
1118.6
1118.79
1119.44
1119.6
1118.54
1117.01
1116.58
1115.97
1114.72
1113.3
1111.71
1109.8
1109.4
1108.9
1109.14
1110.36
1112.26
1114.41
1116.93
1118.91
1119.69
1120.06
1120
1119.62
1121.06
1120.73
1121.76
1118.47
1117.01
1116.3
1115.42
1114.21
1112.75
1111.15
1109.28
1107.81
1107.08
1106.18
1106.19
1107.07
1108.39
1109.85
1112.72
1115.47
1118.09
1120.77
1121.14
1120.66
1118.98
1116.5
1117.16
1118.3
1120.48
1121.35
1128.18
1132.07
1131.56
1131.55
1133.08
1133.2
1130.33
1126.73
1125.33
1125.16
1125.53
1124.77
1122.65
1121.75
1122.33
1123.6
1125.51
1127.61
1129.27
1130.26
1130.63
1130.68
1129.92
1128.84
1127.61
1126.72
1126.39
1126.59
1126.17
1124.82
1113.98
1118.36
1117.69
1116.48
1115.09
1113.56
1112.07
1111.17
1110.2
1109.01
1107.56
1105.94
1105.42
1104.94
1105.42
1105.48
1106.44
1107.19
1108
1108.21
1108.42
1108.35
1107.65
1107.25
1106.18
1106.62
1108
1108.02
1100.39
1087.03
1124.67
1133.31
1134.3
1135.28
1136.1
1135.22
1134.23
1133.94
1134.52
1135.6
1135.91
1136.56
1136.91
1137.01
1136.55
1136.92
1136.57
1135.9
1135.3
1134.53
1134.29
1134.42
1132.18
1125.17
1119.32
1118.57
1121.94
1126.78
1130.42
1129.56
1134.06
1135.77
1135.92
1135.95
1135.91
1135.01
1133.29
1131.06
1128.52
1125.78
1123.16
1121.57
1120.2
1120.7
1120.74
1122.39
1124.72
1128.53
1130.74
1132.7
1135.59
1139.65
1141.97
1141
1139.52
1139.03
1139.37
1139.78
1142.81
1145.46
1133.91
1134.07
1139.27
1144.03
1143.52
1140.77
1136.8
1133.33
1130.39
1127.61
1124.53
1122.03
1120.03
1118.42
1118.19
1119.27
1120.83
1124.15
1127.93
1130.9
1133.88
1136.5
1138.1
1139.39
1139.59
1140.65
1145.5
1150
1150.13
1146.9
1146.81
1146.76
1148.93
1149.88
1148.77
1146.91
1143.98
1140.33
1136.87
1134.23
1131.56
1130.41
1131.46
1134.66
1136.62
1139.71
1142.19
1146.61
1150.03
1151.16
1149.6
1150.07
1151.81
1153.46
1154.01
1153.88
1153.43
1152.94
1152.81
1153.53
1147.48
1147.7
1147.1
1147.06
1147.72
1148.64
1150.19
1152.17
1154.91
1157.12
1159.1
1160.07
1160.34
1160.21
1159.14
1157.76
1155.8
1153.38
1150.38
1147.8
1146.33
1145.96
1144.38
1142.22
1140.92
1139.98
1140.48
1142.2
1144.7
1145.5
1167.37
1154.74
1154.07
1155.58
1164.39
1182.7
1194.95
1194.78
1192.67
1192.93
1195.06
1197.03
1198.28
1198.25
1198.53
1198.23
1198.27
1197.83
1196.73
1194.66
1191.73
1187.15
1179.75
1178.04
1184.31
1184.49
1188.16
1193.61
1192.9
1186.97
1102.99
1109.84
1119.3
1127.66
1133.63
1135.92
1134.82
1130.93
1127.67
1128.54
1131.12
1130.21
1132.48
1145.45
1092.42
1105.74
1122.52
1131.34
1134.05
1132.99
1124.03
1108.4
1094.13
1092.74
1104.47
1110.91
1109.83
1108.78
1108.66
1108.64
1109.67
1110.75
1111.95
1112.22
1112.27
1111.32
1110.14
1108.01
1105.19
1102.56
1101.02
1101.38
1103.21
1101.89
1125.67
1125.19
1125.78
1128.35
1130.04
1129.16
1121.8
1110.73
1109.99
1116.51
1121.9
1123.02
1122.32
1120.89
1119.08
1118.32
1117.34
1117.15
1116.98
1117.73
1118.62
1119.62
1121.02
1121.76
1122
1121.95
1122.02
1122.49
1123.38
1124.58
1118.69
1118.17
1118.68
1119.38
1119.46
1119.17
1118.91
1118.61
1118.94
1119.16
1118.17
1117.14
1117.1
1115.99
1114.14
1111.94
1109.5
1106.62
1105.77
1104.81
1105.36
1106.95
1109.25
1111.97
1115.07
1117.39
1119.23
1119.93
1119.93
1119.82
1121.05
1120.75
1119.81
1117.38
1116.86
1116.09
1115.03
1113.44
1111.48
1109.31
1107.05
1105.72
1104.59
1104.36
1104.33
1104.46
1105.69
1107.58
1110.08
1112.64
1116.11
1118.97
1121.1
1121.19
1120.13
1118.71
1119.57
1119.21
1122.27
1123.99
1127.94
1132.44
1133.14
1134.86
1138.54
1139.52
1134.77
1128.28
1125.19
1125.08
1125.44
1123.66
1121.62
1121.42
1122.39
1124.86
1127.7
1130.56
1132.42
1134.39
1135.67
1135.3
1133.8
1131.67
1129.8
1128.2
1126.78
1126.6
1126.49
1124.96
1114.3
1118.94
1118.42
1117.48
1116.94
1116.25
1115.69
1115.28
1114.25
1112.6
1109.76
1106.82
1105.7
1105.02
1105.79
1105.99
1108.12
1109.13
1109.82
1111.06
1111.19
1110.94
1110.05
1108.95
1107.32
1106.65
1107.62
1108.5
1104.6
1090.13
1121.96
1132.38
1133.9
1137.01
1137.1
1134.88
1133.55
1134.01
1135.31
1136.11
1137.04
1138.04
1138.17
1138.12
1138.79
1138.06
1137.89
1137.5
1136.72
1135.46
1134.6
1134.45
1133.3
1127.47
1119.91
1118.13
1120.26
1125.5
1130.74
1130.44
1135.36
1135.88
1135.83
1136.01
1136.03
1134.82
1132.36
1129.65
1125.84
1122.64
1119.99
1118.45
1117.75
1117.02
1117.87
1119.52
1121.22
1124.19
1128.55
1131.03
1133.46
1137.57
1140.98
1141.42
1140.06
1138.84
1139.24
1139.88
1141.51
1144.96
1133.55
1134.43
1143.07
1146.38
1144.27
1139.43
1134.9
1131.36
1128.34
1124.27
1120.65
1117.86
1115.56
1114.89
1114.41
1114.52
1116.04
1119.14
1123.15
1127.55
1131.36
1134.48
1136.43
1138.39
1138.99
1140.17
1145.02
1150.77
1151.31
1147.89
1146.7
1147.99
1150.5
1149.83
1147.87
1144.93
1140.59
1136.31
1131.45
1127.39
1124.83
1123.67
1123.88
1126.53
1131.97
1136.05
1139.83
1144.24
1147.77
1150.11
1149.17
1149.85
1152.42
1153.95
1154.29
1154.09
1153.72
1153.53
1153.21
1153.81
1148.02
1147.89
1147.27
1147.65
1148.91
1150.43
1153.23
1156.14
1159.65
1162.07
1164.05
1164.73
1164.74
1163.68
1162.5
1160.48
1158.27
1155.84
1153.04
1149.56
1146.98
1146.42
1144.74
1141.82
1140.21
1139.27
1139.64
1141.76
1144.57
1145.39
1167.74
1159.85
1164.14
1167.98
1178.83
1192.46
1196.53
1194.89
1194.35
1196.09
1197.77
1198.46
1197.67
1197.12
1196.32
1196.8
1197.61
1198.15
1197.94
1196.03
1193.78
1191.6
1185.84
1176.01
1180.75
1187.05
1182.58
1185.23
1185.99
1184.29
1112.02
1119.56
1131.23
1140.14
1144.77
1145.91
1144.58
1138.76
1130.48
1128.34
1131.91
1132.4
1133.17
1144.9
1091.74
1102.12
1118.92
1129.96
1133.2
1131.08
1119.69
1099.58
1085.99
1088.86
1104.29
1110.01
1108.67
1108.22
1108.25
1109.08
1111.19
1113.42
1115.43
1116.22
1115.99
1114.31
1112.23
1110
1107.44
1103.98
1101.52
1100.72
1102.54
1101.83
1125.76
1125.62
1126.41
1129.01
1130.88
1127.72
1115.25
1106.92
1113.59
1122.07
1123.52
1122.6
1120.53
1118.63
1117.26
1116.33
1115.85
1115.45
1115.39
1115.53
1116.54
1117.6
1119.16
1120.91
1121.85
1122.37
1122.2
1122.3
1123.11
1124.35
1118.75
1118.35
1119.24
1119.96
1120.29
1119.8
1119.18
1118.74
1118.63
1119.03
1118.25
1117.67
1117.59
1115.96
1113.52
1110.6
1106.68
1104.45
1102.89
1101.76
1102.47
1103.93
1106.32
1109.97
1112.93
1116.28
1118.51
1119.53
1119.95
1119.76
1121.11
1121.16
1117.67
1117.44
1116.64
1115.99
1114.77
1112.74
1110.41
1107.77
1105.71
1103.73
1102.32
1101.62
1101.84
1102.09
1103.88
1105.64
1107.86
1110.79
1114.15
1117.43
1120.09
1121.12
1120.85
1119.82
1120.58
1120.01
1123.49
1126.1
1127.28
1132.87
1134.85
1137.49
1142.14
1144.47
1139.04
1129.85
1125.13
1125
1125.18
1122.97
1121.33
1121.02
1122.76
1126.16
1129.01
1133.09
1135.26
1138.18
1139.18
1138.92
1137.92
1135.22
1132.19
1129.57
1127.6
1126.93
1126.43
1125.02
1114.53
1119.64
1119.54
1118.87
1118.59
1118.32
1118.24
1118.25
1117.82
1115.87
1112.31
1107.81
1105.8
1105.14
1105.93
1106.89
1109.5
1110.23
1112.16
1112.88
1113.63
1113.18
1111.83
1110.62
1108.43
1107.09
1107.41
1108.52
1105.98
1092.01
1119.17
1133.09
1135.31
1138.84
1137.14
1134.31
1133.37
1134.17
1135.7
1136.57
1138.27
1138.78
1138.74
1139.51
1139.11
1139.26
1139.05
1138.07
1137.59
1136.26
1135.16
1134.59
1133.93
1129.2
1121.61
1118.95
1120.55
1124.83
1130.73
1131.15
1135.37
1135.09
1135.51
1136.27
1136.3
1134.54
1131.32
1128.03
1123.75
1120.29
1117.49
1114.92
1112.59
1112.14
1112.67
1115.25
1118.65
1121.52
1125.51
1129.82
1131.93
1135.52
1139.64
1141.19
1140.42
1138.73
1138.92
1140
1140.78
1143.97
1133.48
1137.65
1146.92
1148.29
1144.24
1138.47
1133.54
1129.99
1125.95
1121.61
1118.24
1114.92
1112.22
1110.1
1109.65
1111.3
1112.86
1115.63
1119.21
1124.37
1128.75
1132.89
1135.1
1137.32
1138.26
1139.74
1144.99
1152.07
1152.5
1149.1
1147.68
1151.56
1151.06
1149.22
1146.72
1142.83
1137.14
1131.83
1125.92
1121.72
1117.82
1116.59
1117.22
1120.4
1126.22
1132
1137.65
1141.84
1146.25
1148.71
1148.45
1149.94
1152.53
1153.57
1153.36
1153.19
1153.25
1153.86
1154.35
1154.34
1148.28
1147.98
1147.63
1148.5
1150.52
1152.63
1156.33
1159.73
1163.33
1165.39
1166.76
1167
1166.8
1166.34
1164.69
1162.4
1159.34
1156.59
1154.22
1151.31
1147.81
1146.8
1145.42
1141.85
1140.49
1139.21
1139.83
1142.1
1144.54
1145.28
1168.85
1165.29
1174.39
1179.12
1188.66
1196.67
1197.11
1195.67
1196.34
1197.95
1198.3
1197.14
1194.7
1192.73
1192.83
1193.62
1196.14
1197.68
1199.05
1197.18
1193.78
1191.47
1191.09
1180.15
1172.6
1188.1
1186.28
1182.18
1183.24
1184.45
1116.87
1128.83
1142.55
1148.37
1149.27
1149.03
1148.71
1144.87
1134.33
1128.14
1131.46
1134
1134.25
1145.06
1091.22
1097.93
1112.04
1124.16
1128.58
1124.84
1111.14
1091.25
1081.83
1089.69
1106.4
1109.33
1108.16
1107.35
1108.18
1109.93
1113.28
1116.21
1118.7
1119.68
1118.81
1116.9
1114.15
1111.65
1108.7
1105.22
1101.77
1100.85
1102.23
1101.88
1125.91
1126.08
1126.78
1129.87
1131.52
1124.83
1107.28
1107.13
1118.93
1123.78
1123.55
1121.37
1119.27
1118.11
1116.6
1116.24
1115.23
1115.15
1114.95
1114.84
1115.19
1116.39
1117.48
1119.71
1121.45
1122.07
1122.33
1122.37
1122.9
1124.15
1118.88
1118.54
1119.72
1120.69
1121.03
1120.47
1119.82
1119.05
1118.47
1119.07
1118.55
1118.1
1117.89
1116.12
1113.32
1109.73
1105.58
1103.53
1101.03
1100.25
1100.39
1102.24
1104.42
1107.51
1111.76
1115.17
1117.72
1119.25
1119.71
1119.7
1121.09
1120.18
1117.43
1117.44
1116.84
1115.87
1114.59
1112.41
1109.79
1106.86
1104.55
1102.39
1101.82
1101.75
1101.83
1101.55
1102.79
1103.74
1106.59
1109.22
1112.72
1116.16
1119.15
1120.72
1121.09
1120.56
1120.52
1120.62
1124.65
1127.23
1126.53
1132.48
1136.1
1139.19
1143.77
1145.21
1140.63
1130.9
1124.99
1124.69
1125.27
1122.75
1120.94
1121.03
1123.16
1126.61
1130.03
1134.64
1137.02
1140.93
1142.21
1142.32
1140.92
1138.24
1134.16
1130.75
1128.64
1127.14
1126.33
1125.08
1114.43
1120.5
1121.22
1121.12
1121
1120.68
1120.56
1120.62
1120.16
1118.63
1114.73
1109.1
1105.96
1105.33
1105.96
1107.65
1110.12
1110.99
1113.2
1114.65
1115.11
1114.68
1113.28
1111.47
1109.35
1107.53
1107.28
1108.47
1106.47
1092.67
1118.27
1133.59
1138.18
1141
1137.4
1133.76
1133.12
1134.23
1136.3
1136.48
1138.8
1138.61
1140.01
1140.89
1141.29
1140.85
1140.46
1139.51
1138.41
1137.04
1135.66
1134.74
1134.16
1130.19
1123.23
1120.72
1122.24
1126.83
1131.44
1132.03
1135.22
1134.89
1135.77
1136.41
1136.32
1134.35
1131.02
1126.86
1122.35
1118.79
1115.82
1111.93
1110.67
1110.07
1110.76
1112.5
1115.44
1119.73
1123.12
1127.95
1130.69
1133.96
1138.53
1141.13
1140.67
1138.7
1139.3
1140.61
1140.74
1143.35
1134.49
1142.28
1150.26
1149.02
1144.18
1137.47
1132.63
1128.93
1124.4
1119.95
1116.43
1111.84
1109.42
1108.21
1107.27
1107.8
1109.09
1113.31
1116.09
1122.3
1127.1
1131.47
1134.15
1136.4
1137.69
1139.65
1146.13
1153.22
1153.07
1149.95
1151.86
1153.74
1150.77
1148.66
1145.59
1140.42
1134.41
1127.98
1122.2
1115.96
1111.08
1108.8
1110.49
1114.24
1122.52
1128.43
1135.95
1140.01
1144.75
1147.23
1147.85
1150.18
1152.11
1151.92
1151.26
1150.98
1150.78
1151.31
1152.71
1154.21
1148.52
1148.19
1148.24
1149.65
1152.06
1154.81
1158.84
1162.28
1165.47
1167.01
1167.92
1168
1168.31
1167.62
1166.14
1163.53
1159.75
1156.45
1154.04
1152.08
1148.55
1147.21
1146.25
1142.49
1141.39
1140.42
1141.14
1143.1
1144.84
1145.31
1170.79
1170.19
1182.07
1187.25
1194.03
1198.2
1197.59
1196.93
1197.64
1198.42
1197.1
1194.22
1190.92
1189.61
1188.81
1190.18
1193.36
1196.29
1199.2
1198.52
1194.7
1189.94
1191.24
1188.08
1168.93
1177.68
1193.63
1189.15
1188.39
1191.15
1121.2
1137.97
1149.18
1149.17
1145.81
1145.29
1146.76
1145.55
1135.43
1128.02
1132.14
1135.46
1135.91
1146.14
1091.04
1094.34
1104.16
1114.96
1118.96
1113.71
1099.53
1084.04
1081.03
1092.87
1108.02
1108.69
1107.43
1106.76
1108.19
1110.74
1114.22
1117.62
1119.93
1120.77
1120.1
1117.52
1114.57
1111.81
1109.28
1105.3
1101.81
1100.59
1102.15
1101.28
1126.12
1126.5
1127.34
1130.36
1130.63
1117.28
1101.35
1111.66
1122.55
1124.37
1123.03
1120.77
1119.35
1118.03
1116.91
1115.89
1115.03
1114.61
1114.29
1114.51
1114.62
1115.74
1116.74
1118.77
1120.99
1122.06
1122.38
1122.53
1122.98
1124.03
1119.02
1118.75
1119.96
1121.19
1121.84
1121.3
1120.54
1119.36
1118.4
1119.25
1119.1
1118.37
1118.24
1116.86
1113.52
1109.82
1105.78
1103.09
1100.49
1099.78
1099.98
1101.29
1102.92
1106.89
1111
1114.26
1117.35
1118.81
1119.45
1119.64
1121.12
1119.35
1117.77
1117.8
1117.22
1116.02
1114.53
1112.41
1109.78
1106.9
1103.81
1102.17
1101.55
1100.9
1101.25
1100.94
1102.34
1103.2
1105.6
1108.43
1112.21
1115.28
1118.46
1120.7
1121.13
1120.85
1120.68
1121.73
1126.46
1127.91
1125.75
1130.95
1136.03
1139.86
1143.64
1144.48
1139.55
1130.55
1124.83
1124.84
1125.35
1122.72
1120.96
1121.19
1122.91
1126.87
1130.46
1134.98
1138.23
1142.66
1143.87
1143.85
1142.65
1139.31
1135.22
1131.83
1129.14
1127.09
1126.4
1124.99
1113.95
1121.1
1123.19
1124.37
1124.93
1124.27
1123.69
1122.79
1121.98
1120.68
1117.52
1110.46
1106.56
1105.25
1106.08
1108.01
1109.96
1111.24
1113.74
1115.1
1115.51
1115.23
1113.72
1111.6
1109.68
1107.55
1107.52
1108.31
1106.45
1090.95
1118.29
1133.21
1141.27
1143.32
1137.93
1133.46
1133
1134.25
1136.1
1136.36
1139.21
1138.44
1140.92
1140.62
1140.53
1140.64
1140.65
1139.6
1138.88
1137.39
1136.24
1134.83
1134.21
1130.82
1124.99
1123.2
1124.69
1129.98
1132.96
1132.48
1134.25
1134.22
1134.5
1135.34
1136.33
1134.82
1130.89
1126
1121.97
1118.09
1114.84
1109.88
1108.51
1108.32
1108.7
1111.36
1113.68
1118.28
1121.97
1126.53
1129.66
1133.08
1137.26
1140.39
1140.44
1138.56
1138.57
1140.62
1141.12
1143.11
1137.38
1146.86
1151.49
1149.2
1144.23
1137.44
1132.27
1128.37
1123.71
1119.42
1114.8
1110.86
1109.06
1107.01
1106.29
1107.54
1107.29
1112.35
1114.39
1121.29
1125.52
1130.65
1133.38
1135.67
1137.04
1139.65
1147.37
1153.83
1153.25
1151.12
1155.9
1154.24
1150.79
1148.33
1144.59
1138.52
1132.12
1125.61
1118.99
1111.76
1106.26
1104.37
1106.12
1109.7
1118.65
1126.59
1134.15
1139.01
1143.4
1146.31
1147.34
1150.45
1151.42
1151.01
1150.9
1150.91
1150.3
1149.86
1150.1
1151.37
1148.65
1148.57
1148.9
1150.8
1153.31
1156.27
1160.27
1163.61
1166.41
1167.43
1168.31
1168.09
1168.23
1167.57
1166.52
1163.33
1159.44
1155.67
1153.22
1152.07
1149.14
1147.45
1147.32
1143.42
1142.26
1141.92
1142.5
1143.86
1144.86
1144.91
1173.59
1173.87
1184.88
1192.61
1196.71
1199.09
1198.17
1197.92
1198.37
1197.95
1195.71
1192.57
1188.91
1187.19
1187.47
1188.24
1192.23
1194.88
1198.64
1198.58
1195.24
1189.34
1189.13
1190.55
1173.95
1162.42
1186.36
1194.76
1193.31
1193.46
1125.27
1144.66
1150.03
1144.18
1139.75
1141.05
1144.27
1142.5
1133.08
1128.88
1133.92
1136.83
1138.57
1144.65
1129.98
1108.46
1092.45
1092.16
1096.61
1103.44
1105.88
1100.57
1089.44
1080.84
1082.26
1097.33
1108.89
1108.19
1106.72
1106.36
1107.88
1110.58
1114.01
1116.86
1118.77
1119.56
1118.34
1116.32
1113.55
1111.43
1108.12
1104.39
1101.07
1100.66
1102.2
1101.48
1101.15
1114.02
1125.53
1127.11
1128.14
1130.93
1127.57
1104.72
1100.26
1115.85
1123.62
1124.55
1123.04
1121.31
1119.86
1118.59
1117.14
1116.41
1115.11
1114.78
1114.18
1114.44
1114.81
1115.42
1116.81
1118.58
1120.62
1122.04
1122.43
1122.37
1122.71
1123.67
1123.9
1122.23
1119.56
1118.8
1119.98
1121.47
1122.44
1122.27
1121.34
1120.08
1118.72
1118.67
1119.5
1118.86
1118.7
1117.5
1114.58
1110.61
1106.89
1103.92
1100.92
1100.06
1100.23
1100.93
1103.29
1106.96
1110.57
1114.12
1116.98
1118.44
1119.34
1119.66
1122.36
1121.13
1120.72
1117.99
1117.97
1118.12
1117.57
1116.44
1114.85
1112.78
1110.34
1107.12
1104.19
1102.71
1101.54
1100.73
1101.15
1101.05
1102.51
1102.86
1105.3
1108.44
1111.82
1114.97
1118.09
1120.39
1120.98
1120.95
1120.82
1124.02
1127.86
1128.35
1128.62
1127.74
1125.38
1129.14
1134.37
1138.82
1141.89
1141.59
1136.19
1128.73
1124.54
1124.84
1125.51
1123.12
1121.26
1121.17
1122.62
1126.59
1129.99
1134.87
1137.95
1142.39
1143.59
1143.84
1142.56
1139.07
1135.47
1131.8
1128.78
1127.19
1126.3
1124.68
1116.34
1110.19
1113.53
1121.21
1125.1
1127.77
1129.81
1129.81
1128.28
1126.35
1124.31
1122.42
1119.43
1112.52
1107.14
1105.6
1105.96
1107.97
1109.2
1111.11
1112.62
1113.94
1115.08
1114.33
1113.46
1110.95
1109.45
1107.38
1107.63
1108.41
1105.94
1090.58
1111.46
1128.91
1122.52
1133.78
1145.14
1146.22
1139.16
1133.5
1132.77
1134.36
1135.63
1136.3
1139.07
1138.11
1141.27
1140.6
1141.14
1141.02
1140.53
1140
1138.73
1137.6
1136.1
1134.92
1134.21
1131.21
1126.5
1125.71
1127.89
1133.32
1134.16
1133.27
1133.13
1132.49
1133.78
1133.29
1133.5
1134.48
1136.14
1135.15
1131.22
1126.6
1121.91
1118.36
1114.88
1110.06
1108.9
1108.43
1108.65
1110.68
1113.26
1117.73
1121.35
1126.06
1129.69
1132.12
1137.12
1139.87
1139.98
1138.33
1138.98
1141.07
1141.84
1142.41
1144.18
1144.48
1143.82
1151.37
1151.53
1148.46
1144.56
1137.51
1132.34
1128.3
1124.16
1119.33
1114.77
1111.09
1108.93
1106.42
1105.86
1107.49
1107.41
1112.18
1114.23
1121.08
1125.19
1130.48
1133.02
1135.22
1137.26
1141.87
1151.62
1153.67
1153.34
1156.41
1158.58
1157.6
1156.06
1154.13
1150.8
1147.88
1143.76
1137.85
1131.39
1124.74
1118.24
1110.51
1105.8
1103.81
1106.04
1108.83
1118.12
1126.25
1133.61
1138.51
1142.7
1145.58
1147.58
1150.93
1151.47
1152
1152.6
1152.67
1151.86
1150.89
1149.88
1149.72
1149.36
1149.21
1148.82
1148.9
1149.34
1151.49
1154.04
1157.3
1160.65
1164.08
1166.29
1167.48
1168.06
1167.79
1167.82
1167.09
1165.42
1161.79
1158.05
1154.22
1151.95
1151.47
1149.36
1147.51
1148.45
1144.87
1142.98
1143.45
1143.71
1144.4
1145.34
1152.78
1169.75
1175.97
1177.36
1179.59
1187.66
1195.72
1197.87
1199.78
1198.89
1198.61
1198.65
1197.96
1195.03
1192.39
1188.68
1187.33
1187.52
1188.66
1192.45
1195.13
1198.71
1198.32
1194.49
1188.48
1187.31
1190.62
1180.58
1153.12
1165.94
1183.1
1188.81
1203.75
1241.45
1249.59
1128.81
1147.82
1147.99
1139.3
1136.79
1139.5
1141.78
1137.67
1132.45
1132.61
1137.25
1139.55
1141.49
1139.01
1117.13
1099.41
1091.95
1091.37
1092.64
1094.99
1094.89
1090.24
1083.98
1080.29
1085.39
1101.34
1109.13
1107.65
1106.34
1105.81
1107.3
1109.19
1112.28
1114.35
1116.05
1115.96
1115.24
1113.56
1111.59
1108.88
1105.82
1102.67
1101.13
1100.95
1101.53
1101.92
1109.64
1120.51
1125.71
1127.83
1129.69
1130.87
1119.75
1093.74
1100.65
1117.76
1123.94
1124.72
1123.58
1121.95
1120.79
1119.51
1118.35
1117.18
1116.19
1115.31
1115.07
1114.95
1115.51
1115.9
1117.73
1119.14
1120.93
1122.28
1122.56
1122.52
1122.82
1123.7
1124.3
1123.12
1120.08
1118.93
1119.93
1121.67
1122.78
1123.12
1122.22
1120.86
1118.98
1118.58
1120.03
1119.08
1119.1
1118.65
1115.78
1112.19
1108.84
1105.62
1103.2
1101.49
1101.1
1102.15
1104.65
1107.73
1111.17
1114.35
1116.84
1118.39
1119.17
1119.61
1122.48
1120.97
1119.77
1117.73
1118.44
1118.39
1118.25
1117.16
1115.51
1113.65
1111.46
1108.2
1105.5
1103.42
1101.9
1101.6
1101.12
1101.56
1102.63
1103.15
1106.03
1109.08
1112
1115.16
1118.13
1120.2
1120.74
1121.01
1120.88
1125.9
1127.85
1127.98
1127.79
1126.91
1125.61
1127.45
1131.32
1135.16
1137.34
1135.9
1131.04
1126.17
1124.14
1125.03
1125.81
1123.69
1121.74
1121.43
1122.17
1125.82
1129.27
1133.56
1136.61
1140.25
1142.08
1142.08
1140.71
1137.76
1134.45
1130.83
1128.54
1127.08
1126.07
1124.32
1113.33
1108.85
1112.53
1120.38
1126.1
1129.92
1133.11
1133.34
1132.05
1129.29
1125.96
1123.4
1121.21
1114.81
1108.1
1106.04
1105.82
1107.1
1108.96
1109.97
1111.56
1112.56
1112.64
1112.71
1111.67
1109.94
1108.41
1107.62
1108.07
1108.52
1105.33
1091.43
1116.85
1132.54
1127.56
1137.62
1148.71
1149.26
1140.97
1134.3
1132.48
1133.82
1135.57
1135.85
1138.43
1137.94
1140.24
1140.04
1140.75
1140.2
1140.62
1139.81
1138.52
1137.4
1136
1134.92
1134.17
1131.43
1128.13
1127.28
1129.16
1133.69
1134.38
1133.36
1132.74
1132.46
1132.47
1132
1132.04
1132.82
1134.98
1135.74
1132.33
1127.82
1123.01
1119.43
1116.37
1111.97
1110.41
1109.16
1109.6
1111.77
1113.86
1118.53
1121.62
1125.9
1129.81
1131.95
1136.4
1139.33
1139.04
1137.41
1139.3
1142.04
1142.41
1142.19
1143.13
1145.41
1148.32
1152.11
1150.36
1147.59
1145.04
1138.71
1132.73
1129.18
1124.89
1120.52
1116.16
1112.46
1110
1107.52
1106.69
1108.68
1108.53
1113.57
1115.21
1121.78
1125.86
1130.79
1132.72
1134.83
1137.39
1144.54
1152.39
1153.17
1153.98
1158.79
1160.99