/*--------------------------------*- C++ -*----------------------------------*\
| =========                 |                                                 |
| \\      /  F ield         | OpenFOAM: The Open Source CFD Toolbox           |
|  \\    /   O peration     | Version:  2.1.1                                 |
|   \\  /    A nd           | Web:      www.OpenFOAM.org                      |
|    \\/     M anipulation  |                                                 |
\*---------------------------------------------------------------------------*/
FoamFile
{
    version     2.0;
    format      ascii;
    class       volScalarField;
    location    "0.008050000";
    object      omegaC_burn;
}
// * * * * * * * * * * * * * * * * * * * * * * * * * * * * * * * * * * * * * //

dimensions      [1 -3 -1 0 0 0 0];

internalField   nonuniform List<scalar> 
12384
(
157930
184532
198937
211397
223312
233675
241447
245857
246519
244005
236859
223668
198348
158727
238301
266539
288018
303545
317115
328280
338091
349965
359431
361151
356931
354746
359549
376010
409197
441303
473322
497064
514843
519946
518009
510812
501941
487526
471077
446919
416859
373760
296447
220714
330667
361747
379859
391068
400151
409723
420527
421714
413928
406045
404482
416733
444772
485302
527177
565294
592031
609274
612171
620807
624765
626842
620221
607214
585312
550824
503511
435549
341643
302450
373137
444342
504411
542322
568488
589188
605348
603453
586458
563205
539693
520790
521603
543778
583446
628938
664094
682686
673753
656281
654829
662148
666829
665605
654938
631019
589750
526859
439422
394801
412075
454067
472756
469098
480029
544868
637115
728746
811852
880268
928976
959544
956238
929055
902088
889611
871195
852158
819018
767818
699270
591782
437122
340807
328061
329058
330821
327833
322330
316146
309637
356905
405127
449141
484134
511272
533900
548013
544911
533646
523572
521710
535124
576629
628366
683225
733613
775944
805083
808602
783428
763649
747562
730965
707286
670586
614506
527091
408994
353289
319625
394361
454147
494250
520431
537193
551131
564252
581029
606077
641843
695253
755102
817646
878324
931653
971523
990556
995335
975426
945702
928493
896425
862954
799367
688960
506486
350359
330915
352664
292637
348659
410283
468755
533050
605673
687903
766764
843588
912993
970676
1.00604e+06
1.0242e+06
1.01169e+06
972428
940131
909672
873810
824200
747199
623136
444975
343454
332506
329726
329111
322736
312764
306982
310259
410241
499908
565136
636565
713103
790424
867210
939494
1.00298e+06
1.04794e+06
1.07889e+06
1.07231e+06
1.04724e+06
1.00197e+06
966717
931511
871874
780420
633696
447478
356480
352970
355816
354647
349719
335028
313519
294373
280354
272955
382910
474487
544042
592504
648496
722422
809672
896057
978575
1.0507e+06
1.10578e+06
1.13703e+06
1.13666e+06
1.10613e+06
1.06015e+06
1.01934e+06
975777
912955
817592
672894
481768
393219
382690
381457
377507
366007
351089
341643
338382
340766
577248
666739
716909
764449
835898
923152
998561
1.0619e+06
1.10608e+06
1.12263e+06
1.09997e+06
1.04503e+06
990756
922476
827118
694470
564097
510265
490941
477393
472701
469479
465639
463208
459743
453676
444590
431759
415532
393654
333933
324793
386978
477492
566756
629858
667895
688978
696707
694299
689686
687944
694566
696400
678347
650420
614263
585012
565997
566156
580252
604880
625641
635766
618347
593907
569987
543706
505354
447679
235326
260944
257553
240910
222283
247207
398663
497768
515528
564626
611803
645490
667833
687418
705528
732595
722465
701357
652023
595689
522588
457794
407640
378127
357056
334410
305977
273240
229059
166188
184648
121925
130890
145361
159978
172479
181923
187131
188873
186988
181141
170818
155527
201193
249153
238409
294240
339166
369359
383100
382438
368365
345234
318685
294913
284127
296727
334153
384730
436985
488203
532948
567310
589605
596243
591445
572172
542194
499200
446511
385903
321657
253564
324771
387095
355443
387766
397437
393894
377066
351696
324037
301713
296137
319640
374971
450182
531095
604901
663947
703610
724048
733271
739920
733925
723820
697650
653990
592071
517168
436442
356162
280963
401663
503965
457462
514484
541835
546089
534035
509751
475427
437171
402774
382166
394095
449176
534143
627970
699786
725020
720303
675427
659949
674690
709940
743443
747370
690272
587427
476167
375076
300930
497983
377590
267367
237386
254757
366273
493458
610774
714778
793422
827315
814807
762611
692010
659811
661648
681244
731114
816841
847430
834462
720966
565259
414438
295112
262882
263159
261718
255549
254156
340695
389875
406472
487423
537346
558121
557161
534938
498990
456441
415746
388230
385673
415934
471140
540219
616365
693962
757580
796891
811351
825597
825334
828088
822613
798048
737021
631249
500082
373345
469155
428727
430105
477633
502668
509815
504169
489609
470723
456737
455397
473284
519982
572761
596498
558855
481080
343060
271023
182459
159095
149899
178744
221077
311903
451019
647951
667695
510220
310009
367349
286501
232474
248182
291620
360470
451092
550115
653479
743230
792541
781324
729195
647661
573886
535897
559032
601898
678877
765562
818115
768083
602927
402545
248869
236090
235218
226068
205084
191834
318134
371678
263502
328628
423048
521967
623298
715959
772228
762737
683948
571291
477569
407497
405062
442173
519156
655493
791765
824553
692901
483535
293365
264662
271950
271559
258109
227657
193480
176997
285830
347322
283221
286452
341909
425286
524896
630350
727660
773736
733428
624603
487549
385092
312227
289225
341864
432043
575378
742399
803634
696748
499764
302659
253923
259571
254810
229525
200874
195676
337364
491885
374649
371702
482636
600943
708331
777770
774384
697899
588477
496738
455539
468969
572657
702705
811414
737288
547694
355658
320173
337363
344099
334172
323287
319536
320582
321538
320074
316666
391849
392494
270748
338270
430380
533397
623985
672293
665827
639994
597266
573821
568589
587712
626195
659620
670959
646267
589526
518648
466120
444035
454763
484126
516978
547196
565699
567434
544601
489538
539846
277214
241972
240016
241320
257935
322563
396735
456660
543805
637211
703131
737010
752498
755273
757184
748085
726685
691430
641941
581267
508560
425077
336987
275856
254976
255401
253391
244122
226277
205514
205898
141685
153904
171052
186494
197620
204328
206450
204224
198378
189793
179004
165877
224013
257740
248734
292467
321791
333632
330773
319004
304891
294211
293213
304171
331013
375061
426346
475154
514137
548012
572753
593144
605822
610469
603818
589711
563993
529829
484488
428634
364644
295247
379439
407304
370183
373927
361018
341964
322741
308126
305586
317955
350829
407560
484053
561409
630168
680512
717890
736403
747772
748462
749558
752375
743232
731528
703182
657682
594044
514919
427290
342394
472085
558692
496918
525155
529605
521551
507243
487539
467667
451176
443121
452169
497093
569019
643809
697023
715697
706495
670653
600831
591703
597838
625149
674700
722662
732320
681204
574821
455389
359102
556546
362624
233895
216082
314933
468385
598699
704134
778994
819893
829665
812595
759464
724905
700537
673893
690534
709178
750570
801716
840448
820304
714850
560941
412768
284104
231925
238774
262755
278131
361533
415002
432308
480396
492362
479733
456857
434634
418226
411237
412966
422517
448599
498222
559419
622825
681090
731016
768097
798536
817678
829064
829960
832510
827550
813199
783123
717397
604091
465991
563911
464652
459226
470443
469771
466558
465746
467470
472446
486041
511164
548698
590145
601580
581402
526368
467674
395835
332064
297226
256627
227933
247890
249985
294866
353549
494196
640724
623803
456276
418956
301135
225679
251128
320382
426478
545307
660835
750049
791534
787897
758190
695609
625983
581998
560532
545284
573760
615957
675568
745231
795638
741283
575385
376541
224039
213006
229997
220858
200681
326470
424927
302761
385320
495908
607703
705027
762528
762084
706680
607505
513626
426979
377443
325762
355626
405949
496563
609508
751189
806906
687552
474954
284806
256869
278133
286896
264360
223232
193343
302155
343226
262066
296721
389071
504081
626021
733200
765910
703950
588079
451995
340864
263222
224528
205463
204212
251948
334432
471380
659162
776715
713139
521265
320739
258020
270162
253004
218312
200561
345152
450361
318173
433454
584421
721364
786600
741596
627286
500004
393153
324202
298529
294692
327739
440869
610184
773861
755017
570564
376206
339181
361375
352929
323895
295050
270721
256939
264173
289264
388153
461535
325988
413543
518535
610065
659760
670886
654878
655223
658804
678610
698906
720550
728978
735518
726300
701452
660625
609310
557115
519201
504160
498063
487108
488402
507336
526580
534225
512747
574784
300408
250275
220526
231588
317747
404257
472009
553930
645157
709749
743338
762548
769997
775903
771889
764337
745986
719611
685778
642706
588931
518720
422610
314466
232017
198155
195444
204273
208778
183741
218561
166398
183319
202207
215923
223021
225462
224286
219817
211646
201696
191958
182403
243096
267322
266404
293420
303211
296195
277815
259170
250380
261290
292251
335357
389957
450088
502597
538843
558944
567398
571574
575376
579055
580313
580171
573879
561993
540476
506897
461274
401818
333598
415770
419347
394499
368601
329601
294058
274433
283576
317734
359901
416828
492084
572041
636693
680484
707248
722914
732808
737441
744936
743287
744975
746001
738968
724010
694280
647129
579766
494767
402517
519648
596427
543639
537472
512426
486357
469510
464376
468982
477736
492995
524858
587632
658944
706015
718859
708305
686323
632319
599276
570054
559254
580571
618834
667432
725138
727535
658749
542336
426908
603436
363166
229312
236972
387813
547569
675159
763761
808464
823180
823466
807261
778567
771704
733343
715849
725365
732032
745677
796293
816348
839593
813505
691196
538288
389831
262034
226863
263399
292414
375642
424697
460590
475708
449428
402260
358864
342842
361160
397408
431378
459213
499664
562049
630535
690025
729864
753731
769530
782641
793964
804241
817108
826020
828929
823279
805250
764631
680738
549809
630004
489973
501525
472465
440796
426870
434029
450998
474812
509371
555179
600692
608649
575450
518830
485833
456033
451438
447423
457725
425571
409487
398297
373104
378837
360351
427720
563202
657882
551677
493963
322000
237948
265975
359447
489064
628672
740272
788256
783254
769832
731909
698328
670212
649509
602095
612834
615225
621103
649684
693263
759014
789953
698990
515779
322915
204491
229898
231640
208364
332279
515396
350073
435897
554649
669309
748768
764020
723652
643418
576282
499482
438031
372726
367185
342047
357755
411106
517099
625008
761117
792868
643837
426163
275638
282302
306309
292114
250165
217595
321305
366972
275552
331318
440546
570806
705236
769903
707280
579036
453882
357486
284682
225710
175593
156224
172281
186408
236835
308558
458839
659975
774713
687029
487140
312444
281780
268081
233927
215588
355734
468698
380303
512346
673591
780260
739333
596579
460220
352506
279293
233136
208448
221854
248478
283959
407108
590518
786216
732575
535023
379444
365746
360021
334065
306175
278120
251282
247070
284436
392751
515500
382448
486854
588242
652265
676651
690504
704845
738544
763569
785894
796334
798296
796603
781599
764728
741364
709590
667168
620550
581414
557607
532569
473665
419794
427314
478844
527005
541323
592868
313448
250328
228336
291463
390382
470025
546203
637302
705036
742822
762441
770939
776179
774138
773871
761492
749246
731505
711209
679608
635046
571260
487945
375797
258215
182050
163912
178644
193445
152745
228338
195241
215131
231452
238481
237944
233901
230289
225730
219392
211373
205194
200177
259487
275641
285529
297860
291388
267638
235748
209794
208974
244485
304276
371853
444193
509631
554372
573543
569107
554724
536830
522803
514034
514138
519410
527929
533904
530401
514240
480982
430695
366116
442122
427417
423010
371868
307112
250756
236908
281782
343881
402354
475084
558999
632102
673125
693670
695827
700330
697979
702494
706480
714032
718161
722249
727122
720591
705515
674616
622804
548945
458160
555683
624498
594008
554920
495477
443880
423488
440868
474211
504629
536116
582937
651757
712379
731096
715401
690581
662787
628570
638154
607541
583257
580902
588854
642949
696090
729061
708436
611676
491382
643982
376886
235192
272932
446880
608510
730797
799516
821204
820949
813843
796827
792772
790334
790759
788186
777165
778988
784156
791207
803437
840187
843783
779164
640257
485020
337905
244987
263134
298047
386829
422246
486565
478777
422927
343949
277217
270525
325674
395337
446087
482200
532141
607201
684291
738982
766199
774282
762233
739296
723267
726241
744806
769819
796200
815583
815325
787498
730264
618980
679809
509605
550164
486315
419047
391095
404811
433750
472033
523508
587982
634493
597566
521691
449029
448385
448288
529564
588771
607133
629636
614444
590608
539188
490812
419639
414216
505792
639921
608709
542633
345377
251785
285325
394182
543319
691262
776006
783077
766822
740524
724915
732131
726368
705655
715756
684847
683068
675697
674442
674377
715910
775293
764484
619440
425212
254425
230333
236742
211775
337546
593426
382170
472495
596378
709051
765259
741220
661368
601656
563994
522840
507336
491238
446953
439311
432935
401457
439533
539999
671752
787920
749752
560102
357238
291313
318073
310620
269336
239014
340697
418220
296383
362160
479982
624348
753193
744649
608642
472516
373314
304315
274759
248653
246159
216489
176894
168407
204261
235013
309691
519297
711658
760730
610336
401770
298888
273126
240204
228357
365952
592669
448771
573938
733106
769146
638747
459338
348709
273088
241087
215964
187906
172525
189670
230414
275764
435740
672637
791233
656561
449463
366062
361833
355401
348702
332883
304320
273200
288201
399629
550839
435492
544050
628713
674620
696682
727738
754364
785313
795633
801214
795848
788144
779348
775918
769561
757273
736970
704470
658473
616631
591576
563353
480289
361610
350636
443051
530431
567308
593985
321070
246033
255265
338760
437729
520803
608844
686517
732400
754759
761188
761648
757473
750549
737892
729917
727290
724775
720943
704832
671818
607022
520812
421946
293680
186601
147866
159693
176614
119009
236369
224718
242186
249152
245588
236031
226170
219872
218493
218399
218341
218196
217935
273574
281428
301333
304196
286083
250979
208432
176202
180895
237262
318235
403002
483888
548230
582686
582464
559845
526505
487386
452379
428503
424560
437085
461912
488742
508202
510025
492349
451319
392329
457202
427362
449992
380841
293523
221212
224978
296407
366610
435701
518417
605949
664386
685963
683285
668473
647906
627886
615271
615305
629157
651625
669485
688164
698691
697224
682530
647246
589038
508480
581671
640313
640266
577570
483710
398708
368951
413531
476597
523182
564431
621175
690352
738567
732067
697632
669090
642248
641668
640813
624851
631250
623954
616255
629058
668233
723055
726976
660771
548794
676895
397482
248471
316489
496024
654473
768832
819475
823454
817428
803021
780210
745290
711005
697824
718272
748861
790295
798155
803813
814950
832644
850998
823960
711673
555870
397333
278703
266740
298316
396114
406787
502686
485867
415678
317303
236884
237856
311473
393539
448342
487030
546855
635363
719136
770470
798319
789008
751673
683839
623559
594907
613582
669611
734198
785888
810121
803255
762210
672855
712672
518567
595132
508649
404360
354892
372908
412407
462361
527922
607848
660401
588648
468667
396640
411954
456841
600533
640426
647538
622714
641207
668970
648606
596780
485536
426539
469160
605540
636252
563406
372367
263475
299543
421662
583841
730859
785075
761716
738605
720305
745111
754141
733730
727195
714115
718527
720446
700787
697355
675572
692548
744893
785443
688397
501439
315228
240377
237604
215489
345575
636821
397264
495827
624378
733757
762576
693752
612371
571043
558953
558776
586192
559941
537306
488449
470421
463611
439409
485759
592421
734146
789866
654994
443722
318381
326288
321494
282639
259056
355873
487893
316062
383155
509315
662871
774312
690495
526316
390242
318637
324606
349137
343477
338574
311806
298574
227124
222577
222234
271404
405805
631140
761843
686338
471876
321028
271683
241560
242380
376368
734964
494303
617671
762207
723505
538338
359769
283336
237494
256909
303855
319274
262870
203947
203068
216064
341165
546020
778030
727969
500144
368558
370545
391604
407248
405070
381593
339228
310024
407182
573101
482924
582818
649706
690749
715129
747442
760125
760490
737472
708095
680287
670913
688111
720364
751033
759107
746224
723013
681285
632661
603604
577076
496031
358663
332277
440936
541576
581184
585446
328074
243588
273617
365842
466236
558197
646875
709030
741311
750010
744282
725254
695531
663875
650933
657787
682401
701933
717299
714625
698622
640930
542294
440419
326650
198649
140516
143341
157213
88131.1
240946
248900
258512
255658
242949
224352
206982
197139
200116
212295
223929
230885
233518
282953
285149
311453
309146
285419
244609
197650
161628
168370
235738
328712
422237
506341
568147
590062
579641
544109
496142
435722
377987
334876
322541
351756
399741
450217
487695
506525
499596
466569
410038
459233
420793
470878
388993
288004
215871
242076
310026
380021
454867
545798
635977
682212
686060
670953
630885
583833
528832
487049
467442
488056
534058
584520
626574
660535
676525
676334
658278
617484
551706
595230
635381
676999
604649
482945
360357
312206
382803
470830
529474
575292
637940
711419
748046
723248
680225
640867
634016
637793
571033
528975
579365
640756
639439
631431
671687
709386
731069
692416
595400
698138
418596
271515
370674
539463
691471
792775
822832
816686
812675
799449
758547
674206
583354
527557
550514
631801
722141
775206
812969
819796
837466
851572
842508
753658
602503
436719
301586
268222
296786
404173
396768
506562
488470
420084
325655
252509
250450
312737
386066
435152
475048
545788
647078
737969
791834
818256
803211
747640
637479
525318
443308
462517
558802
663907
749884
803485
814248
781383
711651
721742
504287
630497
535772
399444
316131
334947
385581
446852
523706
614805
679728
600342
443170
370538
381144
472402
624960
644118
548448
441056
479487
590714
666046
644888
540042
441295
444285
577491
640346
546715
405053
275813
310412
440626
609309
748745
778993
733576
731424
701028
752917
731812
681787
624727
606811
661530
718831
734505
727329
690990
679886
718625
782121
727085
550610
357738
255659
237767
221160
369900
655753
403335
510809
641806
745058
745558
659919
569843
538953
556007
615883
611499
583958
589454
597758
548331
481296
472037
455514
551149
679001
784833
712708
509999
355099
335016
329105
295146
280490
368055
551863
326360
396844
528297
686160
771364
642419
467438
340735
301129
367800
373154
469130
526235
493064
426517
295844
266849
217011
286290
348591
569836
742389
722065
509217
329644
267739
249217
264334
395021
793322
513682
647387
768560
672867
459402
288614
249675
247578
359242
455622
472185
429137
294336
243413
194622
272515
478454
742670
760010
525428
383234
396638
436178
467810
481389
474543
443367
392649
445592
584058
522750
606567
661594
698186
720543
734743
721403
685075
624485
557523
506923
516438
574932
653502
722613
754267
745853
723308
689692
633730
597960
573263
506397
397010
378183
468079
553136
583955
571919
337533
240053
278087
374196
480844
579878
664065
717010
737473
733908
708670
659503
592061
532628
520088
565050
631702
684357
716162
720209
713434
668728
568078
443772
344307
221164
143743
135414
142938
71416.6
242226
263136
265981
256592
234814
206315
181073
168137
179279
208049
231795
243089
245571
289412
290873
316370
311780
286297
244860
198414
164057
170265
236164
329860
426547
511748
571924
588118
573958
532050
475567
402520
325545
254403
234744
291661
369195
436737
485759
508763
505611
472611
419799
456212
410918
483260
395268
290628
230397
253830
310896
380963
460625
563444
656171
692177
689939
662496
611457
541315
459849
380837
323231
343548
414614
497195
564792
617647
651466
664123
658915
635575
585512
595285
618513
702326
636885
499180
343067
271099
352174
454722
522173
568145
634748
716017
752516
724595
662862
618759
634567
632782
508788
378137
441838
580943
640503
663031
667856
704761
734911
708871
630394
703210
447611
312044
418230
573073
717363
802654
817959
802980
804698
805329
755035
650337
508605
374975
357185
488371
627546
734692
797734
825143
845344
851477
849161
772696
624199
451298
305801
267217
296841
407438
393770
498784
483309
425326
346448
288218
282277
322346
372141
409072
447469
528675
644392
747985
797481
829215
818322
754255
626153
478674
322816
328723
477500
616224
731148
802063
819309
794741
737393
703200
487099
654166
564355
413943
283437
290447
351840
423034
508124
605943
689621
624764
459313
358303
366956
479458
617865
642436
512742
343661
378038
524601
644917
655278
559372
443348
445482
558744
638907
502003
441473
293402
320315
449602
619999
754522
771879
719698
712537
693028
758398
702230
603699
455198
399145
521464
651690
716759
739446
699586
690452
701327
773653
743778
576306
382665
267126
240084
239150
419083
650059
410036
517923
646477
746090
743841
639999
525513
516919
546500
627764
556435
424366
445334
555119
605895
530774
498098
468145
519762
641414
771236
736035
548783
383425
342616
334664
310441
306056
390898
580089
330539
404774
537801
693154
773405
620908
433653
312750
314224
358726
432942
562581
483963
496327
547341
388699
360020
226889
318050
331968
547690
722162
731391
517823
330594
274352
272138
295604
439934
786143
520518
663132
766154
633778
401218
260871
225178
282285
437336
526991
490628
520239
362069
276609
208758
264616
445229
708692
770157
539151
421570
440136
486650
531871
572072
596213
594381
556690
566981
583317
547029
613342
661424
692440
706050
704008
671301
610988
521771
421237
353133
408237
517505
628711
713097
751572
739069
714858
686706
618571
570295
548725
503405
434001
427983
493353
554185
573128
555841
358536
237931
267172
364071
479161
583323
665444
712132
727607
713408
669674
595926
492196
387604
400341
506844
614982
686510
727393
730001
724328
685390
592189
454069
344862
243864
162372
143147
146925
100449
241896
268398
268573
254623
224962
187092
154866
146075
174957
217949
245829
256384
257997
270240
322053
324339
297294
317963
312022
287741
249302
207951
178414
182198
235964
322560
416617
503926
565349
582860
570171
529744
479262
411184
339591
274051
265762
330786
402475
464431
502925
516378
501764
462217
406525
374795
388694
403622
477549
488021
394621
286337
231278
249020
303880
372763
460517
577142
669021
702713
697877
673227
625276
564324
485775
402804
324157
316260
383159
466263
537915
592239
631419
650620
651525
637315
597747
567789
515227
473442
670006
712189
663856
535098
368820
272690
333481
431964
501113
543775
609181
704423
758338
733010
673402
611540
630678
655165
559174
407284
391935
537343
640295
668179
671437
711332
730883
715998
649467
621534
546007
574800
479277
387138
458563
589592
723751
801330
808462
792784
796947
805077
773765
696385
562767
417402
324272
432844
576572
698453
784499
829320
844039
855019
848138
773225
622335
443745
298138
272263
298253
300447
414151
417548
423407
476922
467402
423595
364810
322669
313880
331852
355229
373640
407507
498258
626285
743321
796175
834476
825048
775010
655359
521718
386274
359624
482908
620091
737096
805354
820730
802802
743913
671254
529218
500654
588125
661247
584018
448444
301925
258661
317139
393112
482180
582172
676704
668022
497426
382253
366318
479792
583775
653417
591481
480069
473866
567153
660345
638195
554310
438347
457874
569109
629042
506336
506278
488680
434947
325196
332870
447815
614276
750765
766948
729170
695933
685103
757978
696882
603671
442421
344057
463464
612369
708856
733649
713335
684923
701584
770680
744837
576312
375374
249628
251317
294619
375350
566257
576710
400162
421795
518239
641303
745807
746645
636106
524916
497442
532313
615164
567144
429193
391551
505996
593520
567518
504329
485221
534822
628434
756686
740036
560230
399787
354822
351148
340928
347700
394058
548159
540709
363672
319522
407488
535943
684404
768566
628334
426350
326624
307897
340122
427302
563677
455477
442919
540577
434490
406239
255384
343922
347786
560632
720805
721818
490369
314699
289045
305070
340416
408494
562989
613506
475247
534468
676815
761343
603172
381439
252782
211274
286757
443449
522051
426804
531315
398643
302994
226987
272820
444801
706478
766022
561310
488790
518936
576828
638378
687363
716632
726191
706329
632915
589130
572001
534551
557163
605003
649247
677034
688153
679352
643908
582078
497143
411122
376744
457782
565576
663508
730996
752047
725432
699128
675950
588153
519194
501355
484312
455867
465883
512886
556333
565041
524678
436685
405856
306113
281127
279197
346275
461989
571241
654571
699626
713505
699749
650962
574985
473904
385472
436858
551142
653859
716078
749135
745288
734507
694700
604875
462493
338710
255361
196347
178645
176165
141408
92819.5
51718.5
242194
266609
266828
251212
218604
179084
149249
155565
196665
236770
258849
263953
257236
248289
212405
222277
293427
306949
300743
279579
247126
213572
190888
192852
232530
305670
394330
485122
553632
576182
572493
543653
511236
464933
423825
395142
404451
441121
482370
515001
529474
520130
489101
437692
376958
329292
263159
353861
516905
479847
378972
270670
220526
237396
289768
356234
453206
579327
673375
710675
715218
700480
674641
638142
592070
540952
498374
485801
503715
533101
569432
598919
624157
636093
634531
617025
577231
544121
361874
336430
645741
711301
681818
574124
421117
319000
337931
409761
468773
506672
563284
667428
749678
759993
694141
623878
626589
657139
639517
567584
531066
586352
649207
671520
688243
716252
730656
715507
649348
572336
383704
430951
490385
400527
453091
574539
707790
791802
807316
788808
792523
797895
793469
758562
676309
581554
514243
543413
621180
710867
789465
830544
843681
856773
841718
758317
598366
414318
277331
269247
291012
284889
263256
273275
394626
441229
442772
413209
373170
343786
333919
335648
336321
334841
360394
455826
589730
724492
789495
829684
830198
799377
709192
607244
521865
502442
571718
670645
762773
812976
824090
796827
726484
597397
316283
326009
631569
651511
588805
480353
360969
283242
302398
367471
450119
542309
638876
694107
565488
435423
389153
439660
553282
624748
656511
628334
617572
649325
663470
603747
518879
463854
501171
605488
624316
510569
331309
328407
415936
317991
317121
427350
587231
735393
771999
726836
707420
678765
748358
715229
676847
581267
521404
561099
655038
717715
737350
717039
696004
717699
776500
733636
559719
362032
247784
243293
264995
295560
309515
317305
345445
397352
493654
613242
726190
755698
672590
542838
498107
523180
575115
589719
561947
517817
554025
597080
563489
547922
501409
558795
660651
753091
720313
541617
393039
356196
358721
356104
366532
405333
368887
312595
296093
314303
401602
521226
659424
772929
655236
477361
337816
305148
321407
359835
489475
527247
518970
542771
404094
408393
276027
364048
390451
597967
726986
695998
450535
310459
294952
305515
319249
333054
339668
371684
430702
530605
672442
759523
618411
389397
266072
199658
253437
339644
476976
521272
475957
391728
306359
238199
310792
488298
722282
758978
602088
549061
552687
566695
584178
619540
667979
704457
716097
697102
641716
574468
534496
514302
557033
612312
653013
672410
672966
653829
618566
579036
549839
555159
603124
670263
728237
753916
741068
697679
681362
659830
550839
455946
437106
444251
450012
472362
512812
540724
536331
477185
359230
326733
309098
286261
277698
320177
428910
543026
632847
683843
703981
699016
668906
620722
572914
555349
596720
663113
727289
759178
771774
758674
740057
696501
602913
460983
333184
255014
211465
200768
190007
147932
73650.8
44323.7
243629
258894
261605
248407
221967
193179
178195
193457
227328
254959
268339
265845
250790
228962
189239
202018
269768
280826
276688
261697
238855
216073
201190
202192
227863
283356
363446
459820
536680
571147
581032
569837
559125
538877
527097
521262
530505
545154
559201
561929
550071
521234
476605
421130
361219
311307
292899
392713
525569
455200
347640
245070
202539
223128
271517
334412
436834
568288
667939
715225
731026
731383
722541
713454
696028
681187
662478
649997
640266
635638
634295
630227
628408
617818
599793
568858
523477
488789
352309
359670
613486
703862
690767
607479
476005
376456
364315
402206
438220
461349
499348
605087
714457
765028
739679
670480
628658
632706
653213
654304
646267
652030
667455
677831
698727
724154
728050
700792
632508
534518
387822
430217
485734
385373
416639
528656
663786
766542
810863
803035
788583
795735
802062
797882
772531
728290
699860
698382
722106
763876
809346
832767
847699
853086
824420
728306
564816
380455
269355
272671
291699
291118
272151
269809
347979
390594
400253
384928
360714
343308
335823
329677
316095
298984
312812
405069
536475
683985
773358
819409
827716
821026
765255
704506
653819
642589
678868
739293
793665
822408
817057
781604
692558
535311
313933
328225
592735
616525
571868
498123
417817
350044
331690
365056
425015
498593
577365
669718
634959
516102
429630
425346
492528
555437
601585
624974
650694
629751
606710
543202
510134
498835
560280
630858
594294
458700
289562
291615
382661
288116
289116
389951
537255
694513
773884
743592
729111
673497
728086
723130
717416
707077
683474
690801
719281
724149
742545
726776
709077
749467
781819
707791
531431
351437
255942
241614
247355
256481
255187
267117
311144
370734
455917
563025
682493
757007
717761
600490
521143
509355
509992
550479
580462
590571
601760
585231
557474
576929
533164
610197
696016
758478
673688
494079
372116
349852
355409
356317
367947
402252
355812
293977
279816
311217
389539
492941
612894
745186
715181
540930
381031
321807
287726
283611
348491
391617
406351
414000
329635
359740
316395
383460
469263
638040
745497
650658
412615
307724
293935
296733
298708
300405
308216
338941
406857
509933
638644
753003
659050
441330
285859
212159
213015
238684
327197
346889
335170
351572
254956
274521
390627
550393
753872
749805
630363
581704
558480
520698
475655
452847
489379
548246
591988
604361
578694
524041
461958
431308
478614
559782
622528
661974
683188
689665
687589
683121
687253
702638
729437
755002
761935
741217
696463