/*--------------------------------*- C++ -*----------------------------------*\
| =========                 |                                                 |
| \\      /  F ield         | OpenFOAM: The Open Source CFD Toolbox           |
|  \\    /   O peration     | Version:  2.1.1                                 |
|   \\  /    A nd           | Web:      www.OpenFOAM.org                      |
|    \\/     M anipulation  |                                                 |
\*---------------------------------------------------------------------------*/
FoamFile
{
    version     2.0;
    format      ascii;
    class       volScalarField;
    location    "0.008050000";
    object      rhoUnburned;
}
// * * * * * * * * * * * * * * * * * * * * * * * * * * * * * * * * * * * * * //

dimensions      [1 -3 0 0 0 0 0];

internalField   nonuniform List<scalar> 
12384
(
2.58634
2.63711
2.69963
2.74866
2.78382
2.80061
2.80427
2.79452
2.7779
2.7441
2.69704
2.62872
2.54544
2.44798
3.89165
3.737
3.58865
3.55667
3.60433
3.62474
3.63573
3.63742
3.64078
3.64776
3.661
3.67544
3.69596
3.71918
3.73991
3.75981
3.76547
3.78073
3.78242
3.79226
3.78571
3.78655
3.77306
3.7632
3.73906
3.71841
3.71955
3.85338
4.14139
4.31794
4.63561
4.56183
4.46251
4.36948
4.29036
4.23919
4.20318
4.18718
4.17557
4.16659
4.1664
4.17632
4.19335
4.2132
4.24241
4.2636
4.2911
4.30651
4.33347
4.33831
4.36892
4.36961
4.3973
4.43505
4.46811
4.46896
4.44607
4.46821
4.49091
4.4955
4.77423
4.76851
4.75388
4.73023
4.71182
4.69653
4.67735
4.6615
4.6473
4.6347
4.62802
4.62777
4.63531
4.6478
4.66504
4.68372
4.72025
4.73082
4.74352
4.75923
4.76834
4.75177
4.75156
4.76664
4.78244
4.79001
4.79447
4.80477
4.82123
4.82777
4.54499
4.56486
4.56709
4.57275
4.57552
4.56357
4.55309
4.53127
4.51899
4.51454
4.52356
4.51209
4.53561
4.52298
4.55227
4.52273
4.53576
4.52941
4.50329
4.45112
4.45253
4.65496
4.76173
4.75442
4.74883
4.74963
4.74816
4.7231
4.71699
4.71606
4.76375
4.67864
4.72619
4.79457
4.8269
4.84873
4.85901
4.87291
4.87607
4.87637
4.86552
4.84073
4.80707
4.77722
4.75001
4.74073
4.74846
4.73535
4.7334
4.76934
4.76826
4.77265
4.78369
4.79042
4.79304
4.79212
4.78909
4.79803
4.73658
4.70286
5.79237
5.57513
5.58242
5.63359
5.69496
5.7922
5.87319
5.96935
6.04401
6.09104
6.12246
6.14783
6.15396
6.16768
6.20885
6.20413
6.25446
6.26645
6.27666
6.25731
6.27297
6.16278
6.14641
6.02986
5.95065
5.81439
5.97193
7.00183
6.93553
6.90442
4.81118
4.64197
4.63516
4.6618
4.68251
4.68738
4.68803
4.69131
4.70311
4.72143
4.7432
4.77118
4.77864
4.80576
4.81699
4.81592
4.79083
4.75967
4.72001
4.66288
4.62071
4.80818
4.95645
4.94704
4.95056
4.94234
4.93904
4.93286
4.94117
4.95605
4.87461
4.83738
4.81061
4.79847
4.80405
4.81839
4.83646
4.86389
4.87659
4.91599
4.91842
4.97118
4.96635
4.97629
4.99054
4.90219
4.83369
4.78312
4.73922
4.79292
4.85248
4.85812
4.86016
4.86891
4.87317
4.85914
4.8347
4.81909
4.87015
4.96561
5.40387
5.30605
5.21602
5.11038
5.03523
5.00858
5.01855
5.04021
5.07712
5.12384
5.17736
5.21912
5.26931
5.27696
5.28904
5.27035
5.23115
5.16553
5.10914
5.14957
5.29193
5.3127
5.32222
5.31686
5.32068
5.30791
5.29569
5.27971
5.25567
5.24487
5.28579
5.27708
5.25478
5.25032
5.24117
5.26138
5.29347
5.33589
5.38566
5.43396
5.46935
5.48845
5.46359
5.43348
5.37083
5.32047
5.63839
6.01563
6.09415
6.10639
6.15348
6.16722
6.2039
6.18748
6.18065
6.14471
6.12003
6.09125
6.07297
5.95154
7.21557
7.38491
7.31489
6.73984
6.58996
6.63006
6.6312
6.61892
6.65707
6.7015
6.68468
6.72972
6.71611
6.73336
6.68919
6.70849
6.69348
6.70572
6.71376
6.71674
6.75149
6.76565
6.77931
6.79072
6.8008
6.7947
6.79139
6.74535
6.70732
6.71899
6.05008
6.19615
6.38206
6.55698
6.65192
6.71263
6.54614
5.35921
4.37218
4.36337
4.5068
4.58728
4.65571
4.68169
4.72864
4.73588
4.77731
4.79113
4.82628
4.83818
4.84648
4.7964
4.74215
4.62086
4.51833
4.39728
4.3109
4.25287
4.2426
4.39646
2.68064
2.7879
2.88622
2.93228
2.95157
2.95845
2.94916
2.93137
2.91121
2.88926
2.84991
2.76444
2.61846
2.46607
3.87341
3.68758
3.54823
3.52942
3.55066
3.5226
3.47395
3.44011
3.43502
3.46665
3.5163
3.5695
3.64418
3.72158
3.77253
3.792
3.80537
3.81347
3.82018
3.82436
3.83109
3.82551
3.8213
3.80573
3.78739
3.75202
3.72645
3.75979
3.92059
4.09405
4.62928
4.52193
4.35945
4.20535
4.14173
4.13983
4.15098
4.14556
4.13513
4.14282
4.17379
4.22334
4.28066
4.32662
4.36244
4.3858
4.39648
4.40562
4.41033
4.3971
4.40172
4.40275
4.40777
4.42058
4.44928
4.46799
4.46077
4.44665
4.45985
4.48702
4.76396
4.75812
4.73518
4.70618
4.68387
4.65484
4.62799
4.60566
4.58494
4.57478
4.57953
4.62964
4.67622
4.71008
4.74359
4.78066
4.79795
4.80649
4.84712
4.83613
4.8197
4.80315
4.78399
4.7698
4.76336
4.77884
4.78504
4.78291
4.79453
4.79442
4.54548
4.57105
4.58068
4.59186
4.56455
4.49392
4.43539
4.39814
4.37688
4.36665
4.36112
4.37023
4.37874
4.3772
4.37174
4.38693
4.41111
4.41707
4.45262
4.45431
4.42602
4.48279
4.66977
4.7474
4.7678
4.76054
4.75322
4.74084
4.71506
4.69899
4.74493
4.68624
4.76036
4.83105
4.86781
4.89043
4.90049
4.9074
4.91126
4.89834
4.84533
4.77169
4.70522
4.686
4.68385
4.67882
4.65789
4.64954
4.63321
4.6168
4.59241
4.59637
4.60929
4.64707
4.70335
4.75398
4.7788
4.789
4.77979
4.75285
5.76054
5.55602
5.57665
5.65227
5.77468
5.92403
6.05398
6.16114
6.20499
6.23007
6.24171
6.22283
6.24007
6.24183
6.23044
6.20588
6.25798
6.21947
6.27267
6.24732
6.24159
6.19976
6.16827
6.13755
6.07091
5.90738
5.88679
6.38411
6.89762
6.90309
4.83511
4.65138
4.65249
4.6859
4.69228
4.67848
4.68371
4.69933
4.72219
4.75217
4.77389
4.79769
4.82598
4.85298
4.86117
4.84792
4.84539
4.82651
4.80018
4.75506
4.68145
4.69394
4.85455
4.97726
4.99439
4.98933
4.95481
4.92597
4.90128
4.90745
4.91527
4.88673
4.82019
4.82115
4.851
4.88674
4.92098
4.95757
4.98959
5.03399
5.07461
5.10545
5.13131
5.12714
5.08679
5.05865
4.99017
4.91282
4.82166
4.77816
4.79624
4.86693
4.93602
4.96307
4.97506
4.978
4.94784
4.87171
4.80671
4.91729
5.42242
5.36663
5.22856
5.03671
4.92992
4.95396
5.034
5.14567
5.25757
5.35402
5.4384
5.52148
5.57513
5.62722
5.63946
5.58246
5.50107
5.398
5.26762
5.18786
5.20316
5.26575
5.30505
5.3401
5.35452
5.35827
5.33446
5.28826
5.23903
5.23131
5.30146
5.29663
5.28316
5.21228
5.22257
5.28396
5.37857
5.48162
5.57888
5.66343
5.71986
5.7362
5.7368
5.65788
5.57113
5.43534
5.4367
5.69549
5.90886
5.92403
5.96164
6.13087
6.23599
6.21088
6.19886
6.18962
6.18717
6.15359
6.10668
5.94662
6.72634
6.75995
6.66152
6.58852
6.5964
6.60815
6.58864
6.57587
6.52649
6.50626
6.46793
6.42339
6.40164
6.39375
6.41702
6.47952
6.56899
6.66136
6.74714
6.7998
6.82944
6.828
6.87543
6.8872
6.91257
6.92803
6.891
6.82737
6.74071
6.70792
5.55333
6.00943
6.52195
6.84434
6.8763
6.62201
5.56205
4.52567
4.33672
4.4357
4.51494
4.52447
4.50555
4.47198
4.44631
4.44063
4.4758
4.53206
4.6347
4.74818
4.90525
4.96726
4.96407
4.84184
4.7116
4.53893
4.36572
4.25363
4.24833
4.42413
2.83754
2.93243
2.98071
2.99833
3.00498
3.00328
2.99363
2.96155
2.91564
2.87423
2.86415
2.8385
2.71113
2.50133
3.86154
3.6497
3.49509
3.45985
3.42356
3.32352
3.24204
3.24067
3.3147
3.39518
3.4535
3.53971
3.66205
3.75428
3.7832
3.77508
3.73954
3.71318
3.6903
3.69056
3.70988
3.74781
3.77658
3.80169
3.79954
3.78269
3.74707
3.73262
3.80578
3.98371
4.62775
4.48958
4.29518
4.20876
4.23662
4.30302
4.32292
4.27879
4.27034
4.29437
4.36755
4.42675
4.45974
4.4672
4.47143
4.46472
4.46803
4.46218
4.46445
4.46146
4.44583
4.44368
4.43419
4.43354
4.44735
4.46705
4.47514
4.45987
4.44701
4.4654
4.76433
4.75735
4.73614
4.72369
4.71648
4.69512
4.66304
4.62208
4.59723
4.59582
4.63532
4.72758
4.76474
4.7895
4.82104
4.84844
4.86308
4.89795
4.93813
4.91977
4.89933
4.87494
4.8413
4.80434
4.78676
4.77423
4.7734
4.78201
4.77818
4.78142
4.54092
4.58143
4.60268
4.571
4.4615
4.39314
4.35445
4.33175
4.31735
4.30251
4.29352
4.30161
4.28407
4.28012
4.29698
4.2927
4.30919
4.33809
4.37565
4.40455
4.42431
4.41592
4.51512
4.67611
4.76595
4.76042
4.74818
4.74514
4.72617
4.70585
4.74071
4.69462
4.77061
4.81917
4.82516
4.82897
4.85564
4.89449
4.90777
4.87925
4.79306
4.69971
4.68341
4.72854
4.74159
4.71025
4.65442
4.59277
4.52395
4.4778
4.45943
4.45397
4.45843
4.49511
4.56843
4.65687
4.73136
4.76937
4.78399
4.76597
5.74167
5.53097
5.56509
5.64329
5.74655
5.87255
5.99143
6.07941
6.11118
6.14825
6.15313
6.17163
6.17549
6.16197
6.16042
6.1335
6.10995
6.08363
6.01508
6.01922
6.0222
6.00983
6.04575
6.06434
6.08367
6.00732
5.9059
6.03686
6.57192
6.90497
4.88621
4.66944
4.65074
4.6887
4.6418
4.64656
4.67995
4.7188
4.75091
4.76533
4.77235
4.80058
4.8079
4.80485
4.81402
4.82427
4.81771
4.82126
4.81976
4.80849
4.75623
4.69933
4.75134
4.92502
5.04792
5.05219
5.01643
4.96333
4.9163
4.88352
4.95206
4.87414
4.82014
4.86091
4.90386
4.94043
4.97316
5.00832
5.04949
5.10423
5.12069
5.15017
5.16319
5.19948
5.17632
5.14235
5.09183
5.02863
4.94646
4.84173
4.79623
4.82929
4.92385
4.95984
4.96224
4.9805
5.01655
5.00194
4.8326
4.86876
5.43446
5.4167
5.21767
4.90015
4.82769
4.94572
5.12334
5.29837
5.43264
5.53703
5.64771
5.71759
5.77588
5.80308
5.81158
5.81594
5.74984
5.63928
5.50975
5.35101
5.24447
5.23227
5.26498
5.30505
5.32926
5.3499
5.36346
5.33852
5.2554
5.22635
5.32873
5.36678
5.27045
5.20422
5.26242
5.39402
5.54361
5.68026
5.78875
5.87031
5.91759
5.9279
5.90994
5.88362
5.77953
5.62595
5.47754
5.47905
5.6428
5.64639
5.67153
5.9757
6.15448
6.05574
6.00647
6.00049
6.06196
6.10798
6.10232
5.93071
6.50346
6.48833
6.52432
6.57781
6.57778
6.54068
6.44714
6.34293
6.17126
6.00661
5.85247
5.74181
5.68613
5.6952
5.75098
5.86636
6.02525
6.25994
6.50252
6.68938
6.7857
6.79313
6.84922
6.87092
6.91614
6.9565
6.96601
6.903
6.7938
6.7308
5.5056
6.17401
6.71169
6.80018
6.57539
5.61584
4.64026
4.30343
4.36461
4.4006
4.35528
4.2502
4.15414
4.07663
4.05076
4.049
4.07704
4.13289
4.22387
4.35562
4.56055
4.7744
4.97685
4.88053
4.76366
4.64433
4.40275
4.26346
4.28166
4.50735
2.97348
2.98913
3.00961
3.01705
3.01532
3.01801
3.03963
3.04692
2.99695
2.88965
2.82703
2.83178
2.76629
2.54059
3.85962
3.63254
3.43711
3.35471
3.27769
3.16584
3.13273
3.22713
3.39792
3.5104
3.51884
3.61257
3.73981
3.7813
3.74087
3.64665
3.55306
3.47098
3.4253
3.4151
3.45282
3.52098
3.61977
3.71055
3.77082
3.78275
3.76202
3.73063
3.75991
3.92764
4.63215
4.47594
4.31113
4.27918
4.39235
4.4685
4.41661
4.35833
4.36721
4.44174
4.48568
4.49353
4.4727
4.45808
4.43604
4.42601
4.4157
4.41627
4.40988
4.42093
4.43379
4.43045
4.43687
4.4391
4.44881
4.46539
4.47862
4.47283
4.45084
4.45465
4.7662
4.76099
4.75223
4.76364
4.76756
4.74985
4.70361
4.64974
4.61421
4.62428
4.69882
4.76674
4.78596
4.8074
4.83168
4.85794
4.88643
4.9455
4.93652
4.95446
4.95757
4.92939
4.89153
4.86363
4.81469
4.78105
4.77971
4.77497
4.774
4.77898
4.53616
4.58644
4.61783
4.47069
4.39578
4.36634
4.34888
4.32729
4.29882
4.2667
4.24749
4.22921
4.20566
4.21137
4.21461
4.2246
4.2363
4.27108
4.28957
4.34287
4.39793
4.39434
4.42633
4.5592
4.71757
4.74103
4.69723
4.70214
4.71594
4.7015
4.74212
4.68947
4.74735
4.75672
4.70438
4.68566
4.75925
4.86048
4.89749
4.88084
4.76764
4.69333
4.75581
4.81862
4.78579
4.69421
4.56663
4.43203
4.3321
4.26691
4.24043
4.23939
4.27529
4.33275
4.41639
4.53011
4.64601
4.73078
4.77136
4.76514
5.72915
5.51203
5.54133
5.59127
5.63887
5.71052
5.77549
5.81538
5.8634
5.93285
6.02113
6.11549
6.1353
6.15543
6.10865
6.08138
5.97885
5.88862
5.79882
5.76001
5.7454
5.75802
5.82104
5.8923
6.00352
6.02513
5.94769
5.91193
6.26746
6.79856
4.97293
4.70528
4.66805
4.62152
4.5943
4.64383
4.70939
4.75518
4.77136
4.76307
4.7734
4.75903
4.75142
4.74902
4.76753
4.75225
4.76509
4.78652
4.80605
4.81966
4.79812
4.73859
4.72188
4.8508
5.04255
5.08986
5.05218
4.99666
4.9425
4.89548
4.93546
4.82636
4.85294
4.90364
4.93497
4.96147
5.00176
5.04811
5.10291
5.11324
5.14604
5.15677
5.18447
5.15769
5.18221
5.18016
5.16164
5.09482
5.0294
4.93914
4.83936
4.8127
4.89827
4.95077
4.9415
4.9494
4.98219
5.03781
4.91967
4.85533
5.43639
5.41747
5.04538
4.69841
4.74046
4.97311
5.22472
5.41641
5.56002
5.67763
5.76005
5.83381
5.90121
5.9655
5.98939
5.93668
5.91048
5.8138
5.71392
5.54861
5.36969
5.26634
5.25083
5.2721
5.2964
5.31344
5.32474
5.32237
5.25697
5.20641
5.34688
5.37335
5.20631
5.20384
5.36148
5.5447
5.71321
5.83794
5.94375
6.01986
6.05509
6.0763
6.03346
5.97825
5.93784
5.79072
5.63063
5.4571
5.47447
5.48654
5.4989
5.8731
6.06063
5.89896
5.81934
5.85007
5.95089
6.05029
6.0586
5.8902
6.40605
6.42383
6.52141
6.55142
6.49368
6.37638
6.17924
5.94039
5.66426
5.43296
5.25709
5.16532
5.14173
5.16657
5.26601
5.399
5.58222
5.82005
6.1413
6.48255
6.71432
6.76273
6.81833
6.88565
6.93963
6.98408
6.99122
6.94031
6.82874
6.75114
5.50895
6.18693
6.21162
6.18501
5.68475
4.77882
4.30852
4.28217
4.31611
4.24387
4.12117
4.01021
3.94004
3.9145
3.90356
3.91332
3.93375
3.97318
4.03988
4.135
4.26834
4.46328
4.822
4.94349
4.76487
4.72622
4.56729
4.36617
4.39815
4.62795
2.97595
2.99703
2.99756
2.9781
2.92849
2.89852
2.9355
3.04599
3.09565
3.01237
2.84501
2.81331
2.77922
2.57159
3.86661
3.64373
3.39874
3.25836
3.16926
3.08594
3.10993
3.31386
3.57387
3.65328
3.60786
3.70145
3.78346
3.74486
3.61215
3.46065
3.32998
3.23315
3.17383
3.1565
3.18556
3.26942
3.39788
3.55321
3.68768
3.75802
3.76522
3.73116
3.7416
3.89922
4.63001
4.49805
4.3556
4.37143
4.50705
4.52809
4.42014
4.38529
4.44916
4.51257
4.50267
4.46098
4.42752
4.39292
4.37391
4.35278
4.35083
4.34198
4.35461
4.35311
4.37275
4.39832
4.40955
4.42901
4.44429
4.46049
4.48472
4.4837
4.45888
4.45221
4.76856
4.76811
4.77414
4.79507
4.8042
4.79463
4.75389
4.6901
4.63485
4.63402
4.72009
4.77175
4.77711
4.79909
4.84073
4.87855
4.92399
4.93875
4.89805
4.92692
4.93373
4.93449
4.94154
4.89225
4.84054
4.81113
4.78043
4.77428
4.77733
4.76914
4.53186
4.58885
4.5517
4.41127
4.39053
4.38058
4.35743
4.32036
4.27421
4.2258
4.18657
4.13348
4.11218
4.08878
4.10033
4.1284
4.15753
4.19151
4.23126
4.29294
4.34323
4.37636
4.39676
4.45776
4.6107
4.70845
4.64919
4.64543
4.69718
4.69354
4.74795
4.67669
4.70158
4.66122
4.55767
4.52173
4.63542
4.80763
4.89613
4.87843
4.75722
4.72149
4.82548
4.84968
4.778
4.61352
4.43046
4.26522
4.15063
4.06011
4.00681
4.01857
4.08145
4.17303
4.27598
4.39748
4.55604
4.67516
4.74525
4.76825
5.71953
5.49288
5.50619
5.50665
5.50067
5.49832
5.50136
5.50494
5.5566
5.66681
5.85681
6.05551
6.11687
6.1513
6.07102
6.02396
5.80734
5.67819
5.58434
5.48086
5.45842
5.50644
5.58478
5.71072
5.86948
5.98957
5.96284
5.89237
6.11452
6.67032
5.05195
4.72945
4.67771
4.55145
4.56152
4.66354
4.74623
4.78019
4.769
4.77387
4.74198
4.7136
4.70009
4.7141
4.68794
4.71836
4.72058
4.73321
4.76018
4.79871
4.81609
4.77755
4.72882
4.80025
5.0013
5.0859
5.06025
5.00101
4.94237
4.90554
4.85471
4.82469
4.88834
4.91826
4.93649
4.97334
5.02894
5.10742
5.12117
5.14037
5.15693
5.15096
5.13959
5.16771
5.1407
5.12285
5.14775
5.15807
5.09707
5.00528
4.90847
4.83993
4.87501
4.93605
4.93042
4.92803
4.94533
5.02789
4.98226
4.85461
5.44165
5.37075
4.74631
4.51162
4.68127
5.03591
5.3295
5.51951
5.66002
5.77074
5.87217
5.92207
5.97449
5.95453
5.98224
6.0427
6.02201
5.92177
5.83928
5.75554
5.50965
5.34493
5.27333
5.26269
5.27656
5.2888
5.28895
5.30038
5.25531
5.20401
5.36268
5.26167
5.12053
5.26535
5.49232
5.67018
5.83723
5.9473
6.03938
6.07405
6.09728
6.1143
6.13676
6.08943
6.00839
5.93971
5.75496
5.53829
5.44371
5.37986
5.40895
5.81188
5.97885
5.78375
5.74659
5.76218
5.83454
5.88819
5.9427
5.82574
6.36613
6.41708
6.50679
6.48129
6.3411
6.14421
5.84435
5.53091
5.22214
4.99911
4.84412
4.77621
4.77426
4.84789
4.9662
5.14677
5.3616
5.58656
5.85703
6.24301
6.61482
6.73415
6.79023
6.90083
6.96822
6.99315
7.02102
6.96275
6.83406
6.76014
5.47353
5.83264
5.60455
5.45374
4.95272
4.38657
4.22248
4.23951
4.19818
4.07166
3.96175
3.88607
3.86572
3.85302
3.8607
3.86344
3.8717
3.90039
3.95591
4.05755
4.16988
4.27419
4.52401
4.967
4.88647
4.66431
4.80074
4.67302
4.65035
4.75283
2.94185
2.97961
2.91305
2.76831
2.65597
2.61318
2.65168
2.818
3.06326
3.08537
2.90786
2.80082
2.77553
2.58873
3.87534
3.68876
3.41437
3.21094
3.10873
3.06806
3.15253
3.44617
3.73473
3.7397
3.67446
3.76815
3.78463
3.65655
3.4713
3.29909
3.17542
3.07554
3.01042
2.97681
2.99298
3.06994
3.21099
3.39833
3.58197
3.71228
3.74819
3.72703
3.73064
3.89245
4.63751
4.5255
4.41683
4.46436
4.58494
4.53773
4.42355
4.4507
4.53204
4.51525
4.45436
4.41347
4.37313
4.35355
4.32706
4.31983
4.30839
4.31034
4.31048
4.31696
4.31772
4.34535
4.37766
4.39914
4.42911
4.45706
4.47996
4.49003
4.46767
4.45354
4.76924
4.7752
4.78336
4.8087
4.82185
4.82686
4.79791
4.73327
4.658
4.63741
4.71619
4.75908
4.76412
4.80193
4.85569
4.90765
4.93887
4.89288
4.87559
4.89703
4.88604
4.90081
4.91279
4.9101
4.87913
4.82509
4.79407
4.78238
4.77271
4.77167
4.52894
4.59165
4.45287
4.41465
4.41286
4.39872
4.36416
4.31529
4.2518
4.18682
4.11768
4.0606
4.02626
4.01498
4.01581
4.05328
4.07246
4.12305
4.17808
4.23248
4.29748
4.34755
4.36897
4.40268
4.52179
4.64443
4.62221
4.60387
4.68124
4.69971
4.76217
4.65479
4.64268
4.58771
4.4569
4.39048
4.52551
4.76011
4.88951
4.87834
4.76572
4.74867
4.84762
4.87053
4.74776
4.53245
4.34504
4.13736
4.01272
3.89961
3.85528
3.86134
3.90731
4.01386
4.14712
4.29851
4.46557
4.61247
4.72845
4.76583
5.71464
5.47007
5.45984
5.42648
5.36825
5.32373
5.28702
5.25719
5.29409
5.40763
5.67196
5.98222
6.11575
6.13982
6.06151
5.93488
5.6671
5.55292
5.36359
5.27677
5.23512
5.28035
5.39613
5.5545
5.74358
5.92923
5.96122
5.90151
6.016
6.59062
5.14214
4.69416
4.61818
4.48965
4.55718
4.69314
4.76876
4.7988
4.7732
4.77242
4.69807
4.69547
4.70898
4.69539
4.72319
4.70333
4.70001
4.71139
4.73913
4.77473
4.81281
4.79838
4.74185
4.77151
4.95033
5.06395
5.0418
4.99382
4.93586
4.90995
4.81253
4.86263
4.90743
4.91317
4.93182
4.98821
5.06774
5.1295
5.14172
5.1747
5.17017
5.14367
5.15743
5.14755
5.17725
5.18247
5.12809
5.15315
5.13153
5.07371
4.96731
4.87822
4.87026
4.94286
4.9448
4.92383
4.93018
4.9968
5.01681
4.88905
5.43868
5.14829
4.47215
4.3774
4.66743
5.09836
5.40921
5.5843
5.74308
5.84738
5.88267
5.94908
6.02199
6.04907
6.06616
5.99594
6.05126
5.9882
5.91443
5.80917
5.6438
5.43006
5.32132
5.27408
5.26693
5.27805
5.25608
5.24247
5.22108
5.17619
5.29274
5.0364
5.11777
5.36789
5.59419
5.77071
5.92955
6.01833
6.09297
6.07562
5.99425
5.93414
5.95297
6.05006
6.03379
6.03672
5.84081
5.63807
5.46022
5.35028
5.37363
5.80277
5.91643
5.76499
5.73665
5.7342
5.74714
5.72967
5.73484
5.73503
6.34541
6.4101
6.46153
6.37191
6.15729
5.89864
5.53912
5.20388
4.90986
4.71043
4.5868
4.53766
4.54906
4.61165
4.76136
4.97277
5.26088
5.52109
5.74749
6.04994
6.49539
6.69953
6.75298
6.91443
6.96309
7.0263
7.03344
6.94902
6.83991
6.76886
5.41293
5.52445
5.08793
4.91422
4.53147
4.22535
4.17931
4.17175
4.07731
3.95324
3.87866
3.84314
3.84739
3.84918
3.84116
3.84191
3.8348
3.85418
3.88723
3.99483
4.1556
4.26832
4.3093
4.72153
5.14305
4.63424
4.69191
4.83018
4.79371
4.76495
2.95044
2.93063
2.70886
2.55339
2.50138
2.48267
2.48764
2.60878
2.9261
3.11042
2.9472
2.78858
2.76467
2.58967
3.87994
3.75284
3.49933
3.24473
3.12018
3.11283
3.26062
3.60984
3.83217
3.76259
3.72213
3.80754
3.74649
3.55465
3.36321
3.20683
3.10218
3.00211
2.92797
2.88604
2.88926
2.95409
3.0948
3.29369
3.50984
3.66775
3.73362
3.71661
3.72613
3.89951
4.64246
4.56163
4.47871
4.53225
4.60964
4.49572
4.42208
4.50119
4.53592
4.46512
4.41438
4.38258
4.35208
4.33035
4.30895
4.29062
4.286
4.27204
4.27637
4.28735
4.29658
4.30181
4.3495
4.37191
4.40334
4.44826
4.47495
4.49066
4.47707
4.45583
4.76886
4.7783
4.78808
4.81132
4.82854
4.84134
4.82665
4.7788
4.68832
4.63061
4.6998
4.74203
4.75709
4.80044
4.86341
4.93839
4.9317
4.85295
4.86303
4.85222
4.86074
4.84887
4.87873
4.91997
4.87991
4.84013
4.81214
4.78212
4.77918
4.77246
4.53188
4.55945
4.4371
4.44762
4.44086
4.41283
4.38177
4.31698
4.2407
4.15866
4.0746
4.00068
3.93277
3.89509
3.90294
3.95552
3.99583
4.07881
4.1277
4.19365
4.25657
4.31686
4.34894
4.37006
4.45672
4.57567
4.56764
4.58147
4.67202
4.6979
4.7801
4.65249
4.5963
4.52903
4.4057
4.36454
4.48007
4.7275
4.88718
4.88427
4.7654
4.76134
4.86615
4.86778
4.71998
4.49734
4.28277
4.05814
3.92782
3.79431
3.74536
3.74124
3.79174
3.89702
4.0558
4.22299
4.39003
4.57656
4.71544
4.75856
5.71523
5.4364
5.3891
5.33258
5.25299
5.20117
5.15474
5.12035
5.12404
5.20244
5.47931
5.88834
6.10391
6.12572
6.05597
5.85896
5.60666
5.46294
5.24944
5.12889
5.09117
5.14844
5.26071
5.45296
5.66386
5.87139
5.96694
5.90834
6.00123
6.58405
5.16496
4.67075
4.50265
4.42489
4.5494
4.7161
4.78457
4.81343
4.75507
4.78713
4.67263
4.72607
4.68133
4.6927
4.6836
4.69091
4.6879
4.67129
4.70744
4.74217
4.80181
4.8076
4.75625
4.76211
4.90981
4.99948
4.99346
4.94321
4.89209
4.87693
4.81061
4.86228
4.87884
4.89095
4.93174
5.00269
5.07983
5.15761
5.16683
5.19092
5.12226
5.13817
5.05815
5.05499
5.06046
5.12718
5.16489
5.14709
5.15846
5.10587
5.01321
4.92411
4.87511
4.92745
4.94053
4.92571
4.91684
4.94892
5.01841
4.91122
5.356
4.78521
4.25023
4.31721
4.66115
5.16312
5.46608
5.63274
5.80003
5.87787
5.91011
6.06989
6.01056
5.96654
6.01493
6.02359
6.11477
6.00643
6.01917
5.81416
5.73816
5.50376
5.36502
5.29021
5.27685
5.26927
5.22809
5.19797
5.18378
5.16385
5.0144
4.94644
5.17974
5.45602
5.66457
5.84666
6.01706
6.05196
6.09429
5.97636
5.93934
5.927
5.87727
5.95181
5.96332
6.05579
5.96187
5.70557
5.48427
5.3613
5.37399
5.83211
5.87214
5.76502
5.76747
5.76934
5.81627
5.81265
5.77871
5.70621
6.32255
6.38553
6.38566
6.23317
5.97829
5.68055
5.31902
4.99105
4.73322
4.55594
4.45024
4.41108
4.41253
4.47814
4.62567
4.8626
5.21094
5.5428
5.78089
5.96844
6.37398
6.64946
6.71226
6.88668
6.94234
7.00326
6.99895
6.90988
6.81318
6.76153
5.31533
5.2874
4.75041
4.56951
4.3196
4.15372
4.14138
4.09285
3.99365
3.88873
3.85812
3.83876
3.85491
3.83158
3.84257
3.84429
3.83539
3.83951
3.85365
3.93867
4.11889
4.31811
4.30764
4.42706
5.21766
4.97507
4.46084
4.60927
4.63882
4.55944
2.95089
2.78987
2.54969
2.49562
2.51073
2.48794
2.47047
2.53811
2.86286
3.10175
2.92144
2.76953
2.74481
2.57995
3.88458
3.79939
3.63041
3.39048
3.25003
3.26205
3.46701
3.77573
3.86778
3.75706
3.76815
3.8238
3.70055
3.48684
3.31553
3.17786
3.09521
2.98982
2.90458
2.84883
2.85128
2.91611
3.06885
3.28052
3.49549
3.65442
3.71227
3.69936
3.73635
3.93807
4.64469
4.59572
4.54858
4.59824
4.60664
4.46559
4.4529
4.54856
4.51811
4.43262
4.39309
4.37085
4.34609
4.32558
4.29632
4.28727
4.27202
4.26596
4.27272
4.26905
4.28844
4.28231
4.32611
4.35711
4.38801
4.43455
4.47387
4.48712
4.47534
4.45819
4.7686
4.77958
4.78505
4.80626
4.82399
4.83985
4.83451
4.81499
4.73236
4.62392
4.66577
4.72594
4.74035
4.78743
4.8675
4.94496
4.91714
4.85761
4.85166
4.82343
4.82258
4.83009
4.8828
4.87979
4.88204
4.85582
4.81168
4.79229
4.78543
4.77334
4.53392
4.52917
4.46202
4.48964
4.4728
4.44187
4.39851
4.33379
4.24362
4.15342
4.073
3.96691
3.89199
3.85706
3.85244
3.91122
3.94541
4.03207
4.09394
4.16758
4.22436
4.29318
4.33236
4.35802
4.41745
4.52234
4.52412
4.57951
4.68554
4.71996
4.80072
4.67912
4.57647
4.49299
4.40058
4.3829
4.50221
4.73116
4.88762
4.88264
4.7704
4.76536
4.86086
4.85754
4.72857
4.48272
4.25715
4.03485
3.88412
3.74449
3.69525
3.6928
3.73944
3.84943
4.00635
4.171
4.36263
4.56566
4.70504
4.75143
5.74454
5.40916
5.31952
5.21757
5.13155
5.1139
5.09272
5.08543
5.0748
5.10372
5.3027
5.78884
6.05617
6.13608
6.04824
5.82787
5.61861
5.4359
5.21765
5.08786
5.05418
5.10306
5.2299
5.43547
5.62768
5.86764
5.94416
5.92538
6.00396
6.66325
5.17212
4.68415
4.40977
4.3568
4.53275
4.72027
4.7924
4.8208
4.76911
4.78825
4.66225
4.75161
4.67623
4.7448
4.76993
4.74247
4.71858
4.67912
4.7011
4.72462
4.7847
4.81081
4.76608
4.75674
4.86402
4.93055
4.93575
4.8827
4.83816
4.86209
4.84264
4.86485
4.8632
4.8808
4.92288
4.98691
5.09301
5.19004
5.17552
5.21074
5.11072
5.17205
5.09702
5.08758
5.10338
5.09062
5.132
5.16866
5.14862
5.13839
5.05823
4.95093
4.90663
4.93562
4.93915
4.9249
4.92308
4.93186
5.00027
4.91467
5.15335
4.46209
4.16012
4.30475
4.64533
5.1655
5.48126
5.67095
5.82388
5.88229
5.98813
6.05704
5.9319
5.98118
6.01825
5.92195
6.13204
5.9456
6.07664
5.80066
5.78537
5.54805
5.40428
5.31615
5.29015
5.27167
5.20492
5.15805
5.13963
5.09768
4.83168
4.95926
5.21972
5.50135
5.71918
5.90294
6.03923
6.0842
6.04358
5.94066
5.8957
5.88025
5.83686
5.93082
5.93877
6.04064
5.97558
5.7397
5.52877
5.38823
5.40927
5.8681
5.79161
5.68396
5.67477
5.6914
5.78406
5.86876
5.90324
5.85618
6.3097
6.34139
6.3053
6.11224
5.84163
5.53205
5.19311
4.882
4.65365
4.50269
4.40844
4.38649
4.39123
4.46622
4.61139
4.87041
5.23339
5.62338
5.88524
5.98285
6.28241
6.61025
6.64872
6.84478
6.90517
6.94422
6.93653
6.87388
6.812
6.78075
5.18217
5.11272
4.62827
4.36038
4.21262
4.1137
4.10154
4.03449
3.94515
3.86501
3.85584
3.82911
3.8495
3.83427
3.83067
3.84402
3.83422
3.84898
3.85743
3.93266
4.10502
4.34287
4.38616
4.34729
4.94333
5.55944
4.68584
4.43181
4.48783
4.48004
2.92102
2.65996
2.5113
2.56523
2.60182
2.54122
2.49043
2.5958
2.91789
3.05269
2.85187
2.73914
2.7089
2.61211
2.96494
3.48179
3.86176
3.83645
3.76365
3.60616
3.49123
3.52024
3.71759
3.88284
3.86469
3.75056
3.80622
3.82544
3.67139
3.46332
3.31614
3.19841
3.13089
3.02788
2.9411
2.87964
2.90308
2.99098
3.15414
3.35342
3.54127
3.65575
3.69442
3.68668
3.7376
3.89422
4.17601
4.42639
4.61111
4.61721
4.59683
4.62531
4.55772
4.39703
4.45696
4.54132
4.48692
4.41746
4.38732
4.3721
4.34722
4.3332
4.30601
4.28806
4.27933
4.26516
4.27214
4.26826
4.27843
4.28882
4.31464
4.34945
4.39149
4.42972
4.47389
4.4962
4.47999
4.46623
4.49127
4.57976
4.7417
4.7872
4.783
4.79491
4.81044
4.82597
4.83048
4.82583
4.781
4.64083
4.63497
4.69622
4.71434
4.76864
4.8419
4.9372
4.91221
4.86031
4.86867
4.83531
4.81957
4.84822
4.85622
4.8636
4.89182
4.84563
4.81867
4.80157
4.78366
4.76329
4.57534
4.52623
4.54945
4.52307
4.52694
4.54464
4.52059
4.47571
4.42777
4.35403
4.26167
4.17141
4.08616
3.97339
3.90309
3.86561
3.85206
3.90496
3.92898
4.02807
4.07666
4.14642
4.21086
4.27667
4.32099
4.34295
4.39416
4.48618
4.48827
4.6033
4.68826
4.7365
4.72886
4.75461
4.80941
4.71749
4.60266
4.50082
4.43403
4.44419
4.58043
4.77409
4.89003
4.87777
4.77719
4.7527
4.84153
4.85679
4.74639
4.50271
4.27834
4.04393
3.89408
3.75283
3.70391
3.69642
3.74155
3.85419
3.99762
4.17423
4.37726
4.57124
4.7051
4.75458
5.19073
5.71708
5.7433
5.40391
5.25122
5.1099
4.97821
4.96374
5.00216
5.0297
5.06112
5.05835
5.16447
5.65363
6.01141
6.11797
6.06273
5.8465
5.68149
5.46943
5.30209
5.18462
5.10574
5.1698
5.26677
5.48341
5.66504
5.88789
5.94736
5.91752
6.05011
6.7246
5.64744
4.82659
5.02012
4.65405
4.29447
4.27325
4.49039
4.71311
4.79429
4.81184
4.79301
4.79403
4.66618
4.77372
4.65711
4.75987
4.74929
4.73299
4.73105
4.66592
4.71041
4.71524
4.78682
4.80613
4.76842
4.74895
4.82994
4.86198
4.88734
4.80414
4.78094
4.81365
4.82662
4.8764
4.8355
4.82816
4.82136
4.84448
4.88672
4.983
5.09448
5.1907
5.19598
5.21544
5.14018
5.19329
5.07122
5.09439
5.10349
5.12612
5.11054
5.1924
5.15715
5.13964
5.08494
4.98602
4.91516
4.93503
4.93327
4.91666
4.90349
4.89924
4.95485
4.94654
4.7701
4.6102
4.65591
4.15403
4.14885
4.34196
4.60855
5.15363
5.48076
5.68347
5.8108
5.91523
6.02379
6.07837
5.96042
6.06139
6.08104
5.94098
6.13866
5.92237
6.08056
5.79064
5.79874
5.54808
5.42711
5.33116
5.29861
5.23951
5.15816
5.11681
5.00541
4.81021
4.72939
4.77968
4.8643
5.00536
5.23531
5.53303
5.76656
5.92525
6.05315
6.11439
6.03596
5.94218
5.86815
5.82344
5.77924
5.92323
5.94383
6.0288
5.96927
5.7497
5.54621
5.40045
5.50527
5.84534
5.6705
5.57207
5.55977
5.57122
5.66528
5.78733
5.97038
6.08674
6.1988
6.22636
6.28639
6.29654
6.24726
6.03256
5.77372
5.45297
5.15884
4.86517
4.66846
4.52124
4.44058
4.42257
4.44188
4.53601
4.70496
5.00317
5.36781
5.76995
6.03692
6.0626
6.24368
6.58019
6.58734
6.76022
6.88134
6.86758
6.86528
6.83866
6.74859
6.28527
5.38562
5.09236
5.00282
4.85406
4.51068
4.24061
4.16513
4.08357
4.06684
4.0023
3.92643
3.85831
3.85919
3.82841
3.84715
3.83664
3.83622
3.84704
3.83818
3.85416
3.86775
3.95465
4.14419
4.38782
4.4632
4.35378
4.69361
5.93483
5.42295
4.80996
4.59135
4.11407
3.23257
3.08883
2.87764
2.58833
2.53688
2.65646
2.65047
2.56469
2.55903
2.72351
2.91463
2.89666
2.7505
2.69513
2.67844
2.75635
3.30696
3.72461
3.86802
3.84411
3.83809
3.78987
3.7424
3.79296
3.88918
3.91197
3.8374
3.76783
3.83554
3.82784
3.67249
3.48173
3.3511
3.25307
3.20293
3.12888
3.07266
3.04383
3.07656
3.17437
3.31845
3.47218
3.58824
3.64694
3.66025
3.68687
3.79545
3.97059
4.29939
4.50417
4.60985
4.63479
4.62834
4.61924
4.46521
4.33548
4.45744
4.54174
4.47827
4.41137
4.39494
4.38217
4.36473
4.35213
4.32814
4.31268
4.29657
4.29309
4.28225
4.28275
4.29031
4.30731
4.32172
4.35949
4.40192
4.43489
4.47515
4.48971
4.47537
4.46661
4.46936
4.53637
4.70722
4.78821
4.78147
4.78448
4.78951
4.80028
4.8158
4.82011
4.81484
4.68916
4.60198
4.67919
4.68397
4.72053
4.81557
4.90647
4.91536
4.87513
4.84919
4.84637
4.85099
4.85201
4.84531
4.87181
4.87751
4.83989
4.82156
4.79843
4.78783
4.75896
4.56285
4.52133
4.53888
4.53902
4.58563
4.59258
4.56668
4.51186
4.45656
4.38734
4.29352
4.20613
4.11846
4.02358
3.95627
3.9039
3.89956
3.929
3.95354
4.04519
4.07116
4.14208
4.2121
4.27154
4.31261
4.33692
4.38807
4.46017
4.49104
4.63205
4.67941
4.75022
4.77845
4.79734
4.80625
4.75801
4.66586
4.58082
4.53091
4.57502
4.70157
4.83805
4.89362
4.86348
4.78074
4.74166
4.81663
4.84628
4.77749
4.55139
4.3256
4.1065
3.94662
3.81668
3.75175
3.74681
3.79551
3.90242
4.04535
4.23039
4.41873
4.6005
4.71066
4.74812
5.41312
5.84925
5.77276
5.42989
5.2041
5.03198
4.88627
4.85742
4.89477
4.98607
5.08918
5.11116
5.09821
5.49048
5.94363
6.08041
6.07996
5.93868
5.73589
5.60069
5.42493
5.31845
5.29884
5.30751
5.4158
5.59285
5.76345
5.89543
5.92337
5.90559
6.07968
6.67457
5.3973
4.70643
4.85466
4.51397
4.18829
4.17849
4.43367
4.67902
4.79489
4.82264
4.79429
4.80748
4.69396
4.75858
4.68379
4.74672
4.73182
4.73897
4.69335
4.66266
4.71015
4.72403
4.78798
4.79917
4.76127
4.74383
4.79323
4.83268
4.87393
4.80283
4.75651
4.78172
4.79914
4.80743
4.811
4.77599
4.78438
4.83121
4.88475
4.95918
5.06494
5.1873
5.20342
5.20836
5.20483
5.19784
5.10238
5.11564
5.12033
5.12078
5.15848
5.1635
5.16951
5.15579
5.07544
4.99981
4.94401
4.92466
4.92395
4.92629
4.91682
4.88692
4.92657
4.96773
4.87893
4.59852
4.3349
4.0946
4.21758
4.40465
4.57077
5.06183
5.46101
5.63868
5.82292
5.90093
6.00223
6.09284
6.036
6.07539
6.10541
5.96256
6.13861
5.93697
6.05009
5.79709
5.77641
5.53169
5.44462
5.3508
5.30714
5.22471
5.14182