/*--------------------------------*- C++ -*----------------------------------*\
| =========                 |                                                 |
| \\      /  F ield         | OpenFOAM: The Open Source CFD Toolbox           |
|  \\    /   O peration     | Version:  2.1.1                                 |
|   \\  /    A nd           | Web:      www.OpenFOAM.org                      |
|    \\/     M anipulation  |                                                 |
\*---------------------------------------------------------------------------*/
FoamFile
{
    version     2.0;
    format      ascii;
    class       volScalarField;
    location    "0.008050000";
    object      T;
}
// * * * * * * * * * * * * * * * * * * * * * * * * * * * * * * * * * * * * * //

dimensions      [0 0 0 1 0 0 0];

internalField   nonuniform List<scalar> 
12384
(
3043.16
3032.2
3018.78
3003.28
2996.4
2995.22
2997.23
3002.75
3013.3
3022.78
3035.52
3054.71
3067.18
3076.41
2872.03
2912.97
2963.04
2979.39
2982.28
2983.88
2984.71
2986.44
2986.01
2983.94
2980.97
2976.7
2971.86
2964.61
2958.14
2950.28
2942.14
2935.36
2932.11
2926.53
2924.84
2920.65
2919.8
2917.09
2917.62
2917.85
2922.27
2912.93
2854.87
2797.01
2938.06
2944.85
2957.01
2964.15
2965.96
2966.88
2967.45
2967.23
2966.53
2965.39
2963.53
2962.01
2960.46
2959.56
2957.69
2957.39
2955.48
2955.69
2954.51
2955.82
2954.24
2955.75
2955.43
2955.42
2956.78
2957.87
2958.3
2954.65
2953.59
2952.73
2893.34
2896.67
2898.91
2902.33
2905.56
2908.87
2912.87
2916.69
2920.38
2923.76
2927.08
2927.82
2927.26
2924.62
2922.35
2920.01
2916.16
2915.39
2913.84
2912.87
2910.68
2913.02
2912.97
2911.07
2907.95
2903.48
2898.03
2896.14
2894.64
2894.48
2858.26
2856.65
2859.49
2865.65
2872.51
2875.93
2879.85
2877.31
2874.14
2870.88
2867.2
2866.31
2860.47
2861.71
2859.61
2867.14
2867.04
2873.39
2877.01
2874.4
2865.57
2855.91
2851.53
2852.79
2854.03
2860.07
2859.56
2856.14
2855.56
2855.51
2777.57
2786.39
2781.53
2773.19
2769.77
2767.28
2766.56
2765.65
2765.86
2766.43
2767.82
2769.76
2771.8
2773.71
2775.7
2775.86
2774.26
2775.13
2774.66
2770.33
2770.43
2770.63
2770.07
2769.83
2769.95
2772.13
2773.38
2771.97
2777.36
2780.86
2775.04
2768.2
2768.81
2771.79
2774.79
2775.76
2779.29
2781.41
2782.96
2784.42
2785.29
2785.59
2786.28
2785.27
2783.35
2783.54
2780.71
2779.45
2778.5
2778.82
2777.11
2781.33
2780.84
2786.56
2787.09
2787.68
2792.72
2756.04
2745.79
2749.11
2763.08
2766.83
2769.64
2776.31
2782.16
2784.85
2786.9
2788.1
2788.59
2787.73
2786.28
2782.79
2782.36
2779.69
2778.42
2778.18
2779.75
2780.62
2782.88
2783.33
2779.87
2772.05
2776.4
2781.25
2784.54
2788.11
2788.58
2786.98
2783.64
2784.43
2893.13
2891.18
2887
2883.17
2883.58
2885.31
2887.5
2888.67
2890.36
2889.43
2891
2886.51
2888.39
2887.63
2886.3
2893.17
2896.6
2898.93
2905.49
2855.02
2810.21
2815.06
2819.88
2824.46
2828.37
2831.33
2828.6
2818.27
2790.53
2758.56
2893.08
2891.11
2887.21
2886.24
2887.02
2888.89
2892.97
2895.94
2896.71
2898.08
2898.03
2897.52
2894.1
2894.43
2893.29
2893.42
2895.34
2896.71
2898.67
2897.54
2850.27
2839.27
2842.94
2848.35
2851.61
2853.67
2850.44
2843.18
2835.88
2830.03
2913.09
2906.26
2905.7
2904.26
2904.38
2903.93
2903.95
2903.09
2902.54
2902.04
2902.1
2902.64
2905.56
2910.85
2914.33
2915.34
2861.67
2834.94
2836.72
2840.31
2842.17
2843.68
2841.69
2843.23
2841.68
2842.8
2843.07
2843.5
2843.55
2841.19
2828.86
2824.88
2827.4
2844.87
2855.18
2850.55
2845.1
2843.8
2841.56
2839.71
2841.18
2840.1
2841.71
2841.67
2844.24
2843.98
2845.37
2845.62
2846.23
2847.12
2847.47
2848.99
2850.2
2851.46
2850.46
2849.35
2846.98
2845.26
2845.71
2850.19
2775.1
2784.11
2794.27
2803.1
2809.39
2810.8
2803.53
2740.91
2667.26
2665.75
2679.38
2693.34
2699.84
2707.17
2709.49
2716.98
2720.27
2725.72
2728.01
2731.17
2730.36
2728.84
2720.11
2709.19
2696.34
2683.01
2669.83
2664.52
2666.34
2689.09
3019.78
2987.39
2958.35
2949
2949.69
2956.97
2962.68
2968.61
2975.42
2984.61
3000.66
3026.93
3057.9
3075.17
2875.44
2925.15
2973.08
2990.97
3001.85
3008.84
3013.93
3014.84
3007.39
3000.63
2994.04
2988.38
2977.77
2964.67
2952.27
2939.93
2932.97
2927.62
2922.96
2919.74
2915.46
2913.99
2911.15
2910.39
2909.26
2911.29
2915.73
2918.68
2902.05
2867.16
2938.45
2949.1
2966.34
2971.24
2973.72
2973.1
2970.89
2967.53
2963.53
2959.79
2956.54
2953.61
2952.31
2951.77
2951.59
2951.95
2952.52
2952.27
2952.2
2953.76
2953.83
2954.4
2954.92
2955.53
2955.79
2957.55
2958.51
2957.8
2955.02
2949.91
2894.06
2896.2
2897.53
2900.04
2903.17
2908.61
2915.17
2923.53
2930.32
2933.6
2933.75
2926.66
2918.43
2912.1
2906.77
2902.66
2900.02
2899.91
2897.34
2899.5
2902.7
2905.38
2907.57
2910.67
2911.15
2907.69
2903
2899.35
2896.41
2896.75
2858.51
2856.88
2861.11
2873.33
2879.64
2873.46
2867.1
2863.49
2858.84
2855.03
2852.01
2846.67
2844.26
2844.34
2846.33
2848.39
2852.14
2860.97
2866.92
2873.4
2870.48
2865.57
2855.68
2853.66
2856.47
2857.09
2857.38
2857.23
2853.06
2851.56
2779.75
2785.51
2777.32
2768.64
2764.65
2762.1
2761.83
2761.79
2762.26
2764.32
2769.55
2774.81
2779.61
2783.83
2784.6
2784.04
2785.72
2783.31
2782.06
2781.26
2782.92
2780.72
2779.65
2777.23
2774.16
2772.81
2773.67
2772.87
2772.7
2775.02
2775.14
2765.72
2767.44
2772.11
2775.82
2780.59
2784.54
2786.1
2787.19
2787.91
2787.94
2788.38
2790.96
2790.28
2785.68
2785.7
2782.05
2782.52
2779.18
2779.81
2779.41
2781.86
2782.77
2785.24
2786.3
2787.74
2789.96
2787.1
2763.13
2750.25
2762
2766.29
2771.09
2780.93
2784.61
2786.21
2788.28
2790.25
2790.67
2789.2
2786.57
2784.6
2781.56
2779.09
2778.34
2779.14
2779.67
2781.49
2783.09
2783.59
2782.74
2777.92
2773.19
2779.4
2792.28
2800.4
2805.23
2804.9
2794.05
2784.49
2891.93
2888.86
2878.77
2877.31
2882.42
2889.33
2895.45
2900.27
2903.67
2906.01
2907.73
2908.77
2908.03
2907.88
2907.73
2903.31
2901.06
2900.96
2905.37
2890.99
2844.08
2808.25
2813.54
2827.15
2840.11
2849.29
2852.55
2847.65
2822.91
2771.9
2892.98
2892.34
2888.08
2884.32
2888.08
2891.97
2895.84
2901.42
2906.23
2908.49
2910.43
2910.44
2910.63
2907.98
2905.83
2905.25
2903.3
2899.46
2898.95
2899.67
2884.55
2855.85
2839.77
2845.5
2855.29
2864.88
2867.59
2860.94
2845.42
2832.66
2914.8
2907.13
2903.4
2901.14
2898.64
2898.09
2897.77
2899.87
2903.31
2907.71
2910.05
2911.62
2909.97
2910.43
2912.6
2917.75
2896.36
2856.12
2838.62
2847.8
2853.27
2847.67
2839.96
2836.57
2835.72
2836.89
2838.22
2840.48
2842.15
2840.46
2841.94
2840.64
2847.04
2854.42
2853.17
2848.64
2846.72
2846.65
2849.59
2851.21
2854.33
2856.6
2857.61
2858.64
2858.69
2857.76
2855.03
2853.03
2850.9
2850.14
2850.7
2854.86
2859.65
2866.06
2869.56
2869.73
2864.09
2853.87
2847.72
2850.31
2742.3
2771.08
2799.85
2818.99
2819.93
2808.32
2748.94
2679.85
2667.68
2681.61
2695.78
2705.42
2711.99
2715.19
2720
2721.95
2724.72
2728.08
2732.58
2738.37
2742.87
2745.91
2741.43
2732.52
2721.08
2705.01
2682.87
2668.34
2667.82
2693.45
2969.06
2938.04
2931.25
2938.69
2954.45
2966.07
2974.96
2983.27
2992.68
2992.52
2996.59
3010.22
3040.54
3071.44
2876.88
2932.64
2982.12
3004.52
3015.07
3022.6
3022.22
3005.9
2986.75
2974.95
2975.37
2976.78
2966.5
2952.89
2940.33
2934.04
2932.6
2929.5
2930.16
2929.15
2927.33
2922.2
2918.1
2911.74
2908.62
2906.81
2909.07
2915.22
2915.8
2893.54
2938.6
2952.56
2970.52
2974.79
2976.59
2971.35
2968.47
2959.56
2950.1
2941.36
2943.04
2945.69
2949.65
2952.86
2953.53
2955
2954.51
2955.07
2954.73
2954.43
2956.09
2955.48
2955.94
2955.86
2955.5
2956.03
2958.59
2958.45
2957.54
2953.23
2893.86
2894.24
2893.63
2893.79
2895.32
2899.39
2906.47
2916.89
2926.94
2930.26
2923.91
2908.84
2899.83
2895.6
2892.15
2891.5
2891.9
2890.31
2888.25
2890.41
2892.17
2895.88
2900.73
2905.59
2908.79
2909.61
2907.49
2902.89
2899.34
2897.76
2859.37
2857.76
2867.86
2879.29
2868.66
2862.38
2857.91
2854.47
2851.22
2848.4
2845.09
2840.73
2840.5
2839.4
2836.89
2841.54
2844.47
2849.58
2857.36
2865.08
2870.19
2869.75
2863.32
2856.84
2857.85
2859.12
2860.08
2858.45
2848.07
2845.69
2780.08
2784.71
2776.38
2770.39
2770.27
2770.98
2768.87
2764.54
2764.18
2767.48
2774.31
2780.87
2785.98
2784.72
2784.11
2784.73
2785.83
2785.68
2787.41
2787.72
2786.94
2786.49
2786.88
2785.36
2781.47
2776.68
2774.32
2773.93
2771.95
2773.36
2773.02
2760.72
2764.73
2770.07
2774.51
2779.06
2781.79
2783.19
2785.03
2785.37
2786.87
2786.88
2786.87
2787
2785.35
2784.37
2781.83
2779.78
2780.93
2778.68
2777.95
2782.28
2781.2
2786.16
2786.64
2787.87
2787.73
2792.95
2783.51
2759.38
2760.36
2765.15
2771.52
2780.78
2779.8
2782.64
2787.05
2789.36
2788.77
2786.51
2784.26
2780.04
2777.41
2776.54
2775.81
2774.73
2776.99
2779.05
2781.28
2782.9
2782.69
2780.58
2774.57
2774.12
2784.77
2793.58
2806.57
2820.74
2815.94
2793.17
2888.01
2878.93
2870.74
2878.29
2888.48
2896.2
2903.2
2909.12
2915.88
2922.76
2923.42
2922.7
2922.57
2918.55
2920.98
2921.12
2921.07
2909.1
2906.23
2904.39
2880.27
2828.9
2802.96
2820.16
2841.4
2857.23
2864.34
2862.58
2848.25
2793.8
2891.34
2892.91
2887.36
2883.32
2887.69
2894.81
2900.45
2907.18
2912.06
2916.25
2920.33
2918.59
2916.89
2916.49
2915.82
2914.69
2915.63
2909.85
2903.47
2899.93
2896.95
2883.29
2858.18
2842.17
2843.78
2858.96
2873.17
2873.65
2858.52
2837.09
2920.73
2910.24
2906.33
2898.98
2894.93
2893.89
2897.87
2908.02
2917.8
2926.54
2933.03
2936.12
2933.8
2926.03
2919.68
2917.35
2914.57
2885.02
2855.13
2858.3
2871.71
2857.09
2837.35
2830.68
2829.51
2831.2
2833.28
2837.03
2840.45
2839.19
2849.51
2852.85
2856.64
2855.29
2851.78
2850.96
2853.69
2857.32
2863.83
2869.21
2873.92
2876.59
2879.09
2878.49
2876.77
2874
2870.42
2863.53
2856.96
2850.58
2847.91
2852.25
2862.68
2876.26
2885.1
2889.88
2881.46
2866.16
2851.78
2849.9
2738.91
2782.29
2811.97
2815.06
2802.51
2753.63
2688.64
2669.59
2679.56
2696.25
2705.62
2711.78
2714.12
2717.49
2718.07
2720.85
2720.83
2721.43
2722.2
2724.23
2730.79
2739.93
2741.67
2730.23
2722.85
2719.11
2689.91
2671.73
2674.16
2702.33
2922.81
2925.86
2946.26
2966.29
2987.79
2995.39
2996.74
2995.52
2999.38
3007.91
3011.02
3011.16
3029.56
3067.79
2875.98
2933.31
2987.25
3011.01
3021.67
3024.94
3008.68
2976.88
2936.03
2921.33
2941.26
2957.23
2949.83
2940.55
2936.39
2936.8
2937.58
2941.24
2943.42
2944.48
2941.79
2939.19
2930.97
2922.76
2913.32
2907.15
2906.05
2909.82
2915.95
2902.26
2938.24
2953.98
2972.19
2974.13
2959.91
2951.54
2961.33
2947.65
2933.36
2937.73
2944.88
2952.62
2956.67
2957.87
2957.08
2955.7
2955.17
2954.31
2955.28
2955.13
2955.11
2956.89
2957.23
2957.28
2956.56
2956.07
2956.73
2958.25
2958.39
2955.13
2893.41
2892.28
2891.04
2891.83
2893.13
2894.49
2900.09
2911.01
2923.3
2925.46
2912.33
2897.86
2892.65
2891.02
2890.27
2891.71
2892.16
2889.28
2890.96
2889.53
2888.95
2890.96
2894.84
2898.8
2904.46
2909.08
2908.51
2906.24
2902.15
2898.75
2860.01
2861.35
2881.05
2869.31
2861.45
2857.77
2854.86
2851.88
2848.88
2845.77
2841.27
2838.22
2837.2
2833.83
2833.97
2835.94
2839.16
2841.52
2849.67
2857.66
2865.3
2872.81
2867.22
2861.61
2861.96
2862
2864.48
2861.71
2839.77
2834.71
2779.95
2785.36
2778.65
2777.06
2783.43
2785.95
2778.72
2768.92
2765.58
2767.85
2776.64
2783.69
2783.21
2781.57
2782.4
2783.45
2786.69
2790.82
2794.11
2795.29
2795.32
2795.66
2794.37
2792.56
2788.56
2783.08
2777.58
2774.73
2773.18
2773.55
2771.1
2757.39
2758.69
2766.42
2771.34
2774.49
2775.3
2777.22
2778.34
2780.28
2783.27
2785.32
2787.08
2785.4
2786.1
2782.03
2781.5
2779.54
2778.92
2777.33
2778.28
2780.18
2781.36
2785.72
2785.55
2788.43
2786.82
2790
2792.13
2778.61
2757.6
2764.6
2773.38
2774.41
2773.98
2780.88
2786.89
2787.2
2785.31
2783.87
2778.87
2776.45
2774.39
2772.6
2769.15
2771.54
2772.8
2774.44
2777.6
2780.43
2782.5
2781.21
2777.15
2771.61
2777.79
2779.51
2792.63
2817.76
2833.16
2807.65
2881.97
2864.7
2870.08
2883.4
2891.27
2896.56
2905.13
2915.29
2923.95
2926.35
2926.15
2927.2
2925.07
2928.71
2925.19
2925.12
2923.04
2923.29
2912.93
2908.87
2898.08
2856.83
2807.55
2807.94
2834.62
2857.59
2870.84
2873.46
2861.13
2813.32
2888.66
2890.91
2884.89
2887.14
2889.46
2897.38
2903.61
2910.1
2916.2
2920.21
2919.19
2917.85
2915.95
2912
2911.25
2913.03
2912.69
2915.95
2915.76
2905.21
2900.85
2895.94
2880.19
2856.66
2841.81
2849.59
2870.82
2880
2867.85
2843.83
2922.85
2918.13
2904.16
2894.69
2890.47
2893.72
2907.15
2923.5
2939.53
2953.23
2955.67
2956.29
2956.79
2957.86
2940.06
2928.31
2920.19
2906.12
2878.39
2872
2886.23
2865.76
2835.12
2826.87
2827.59
2830.66
2834.94
2837.95
2840.03
2837.4
2853.86
2857.88
2857.77
2855.27
2854.38
2856.65
2863.35
2871.22
2880.99
2887.23
2893.38
2896.09
2896.8
2896.48
2892.47
2887.86
2881.9
2875.15
2865.69
2855.56
2846.86
2848.02
2863.92
2884.78
2900.18
2905.16
2898.27
2876.76
2855.85
2850.08
2740.25
2783.84
2787.81
2783.51
2754.33
2697.17
2665.94
2676.21
2692.26
2705.66
2713.49
2720.51
2728.51
2734.03
2740.27
2739.46
2735.71
2730.15
2725.96
2722.28
2721.85
2727.86
2740.79
2737.38
2715.83
2722.6
2710.61
2688.59
2691.56
2712.23
2925.7
2949.62
2979.43
3005.67
3024.04
3029.69
3025.32
3012.51
2999.83
3003.59
3015.7
3018.45
3027.42
3063.74
2873.16
2926.48
2985.39
3013.81
3022.8
3022.53
2994.32
2939.93
2884.52
2879.2
2925.56
2947.2
2940.83
2936.76
2938.32
2940.78
2947.23
2952.71
2957.8
2958.59
2958.49
2953.08
2946.39
2935.53
2922.69
2911.84
2905.84
2907.52
2913.6
2905.43
2938.52
2951.47
2966.47
2961.65
2944.63
2944.96
2958.82
2930.37
2926.89
2943
2955.24
2958.31
2959.32
2958.06
2953.9
2953
2950
2949.78
2948.66
2950.8
2952.42
2953.5
2956.52
2957.4
2957.51
2957.16
2957.28
2957.63
2958.45
2956.07
2892.89
2891.18
2891.41
2894.29
2895.04
2894.47
2896.13
2904.7
2918.14
2921.45
2905.58
2892.83
2889.51
2888.61
2891.11
2893.37
2892.53
2883.42
2881.98
2878.19
2879.5
2884.19
2890.94
2895.3
2901.22
2904.88
2908.55
2907.82
2903.78
2900.58
2860.66
2865.53
2879.09
2863.46
2860.13
2857.01
2853.77
2850.14
2846.52
2842.68
2838.1
2836.67
2834.72
2834.7
2834.53
2833.2
2835.43
2838.94
2844.09
2849.48
2859.97
2867.9
2872.3
2865.58
2861.4
2864.14
2869.87
2861.43
2833.57
2823.93
2779.5
2786.6
2783.45
2787.14
2799.23
2803.33
2791.05
2774.14
2765.53
2768.43
2778.21
2782.69
2781.23
2780.69
2780.63
2785.1
2790.82
2797.34
2800.32
2805.41
2809.18
2807.53
2803.16
2797.86
2794.47
2789.65
2781.71
2776.69
2774.72
2773.2
2769.78
2753.85
2753.93
2760.18
2766.17
2769.24
2770.57
2771.97
2772.6
2775.66
2779.02
2783.52
2786.32
2784.51
2785.73
2779.78
2782.02
2779.14
2776.23
2778.66
2778.18
2779.7
2780.94
2784.07
2785.23
2787.69
2787.21
2789
2795.93
2781.27
2755.3
2760.21
2775.53
2765.7
2770.72
2781.2
2785.8
2785.4
2783.17
2778.32
2774.97
2773.68
2769.32
2765.78
2768.34
2765.57
2767.73
2771.5
2775.07
2777.54
2780.71
2780.74
2777.69
2771.01
2771.55
2774.93
2779.36
2808.48
2838.16
2821.37
2867.12
2857.19
2874.06
2883.14
2888.42
2895.99
2907.44
2922.42
2925.51
2927.83
2929.23
2932.21
2934.23
2932.65
2933.77
2933.71
2928.85
2924.26
2922.52
2913.84
2906.47
2879.99
2821.23
2797.85
2820.28
2852.67
2872.59
2880.8
2872.18
2828.83
2886.11
2886.95
2885.33
2890.88
2892.44
2897.34
2905.05
2912.65
2920.17
2918.92
2917.58
2917.06
2914.47
2915.79
2914.65
2911.49
2911.53
2913.76
2915.77
2913.41
2905.92
2901.19
2892.26
2876.22
2853.7
2847.89
2865.45
2879.79
2871.43
2848.03
2923.39
2911.78
2895.89
2889.78
2888.4
2899.8
2920.84
2944.24
2956.73
2962.21
2965.81
2966.76
2964.37
2962.04
2960.62
2944.27
2930.15
2920.02
2896.75
2888.33
2897
2869.36
2832.64
2826.56
2827.88
2831.99
2833.69
2836.39
2837.14
2835.35
2856.33
2859.84
2858.26
2856.66
2859.19
2864.29
2875.15
2884.5
2896.52
2905.12
2914.35
2918.42
2919
2913.37
2907.13
2897.24
2888.42
2880.6
2872.94
2862
2848.36
2844.24
2862.57
2889.13
2906.5
2913.73
2905.16
2880.97
2857.26
2850.39
2740.17
2768.77
2755.46
2742.33
2707.95
2672.26
2669.81
2685.3
2702.12
2714.55
2725.41
2741.63
2758.53
2774.39
2778.45
2774.73
2763.15
2747.97
2736.95
2728.11
2722.95
2720.42
2730.34
2750.29
2721.32
2703.48
2731
2723.54
2720.11
2721.91
2958.55
2980.44
3016.77
3042.61
3056.06
3059.77
3056.14
3037.71
3010.38
3003.27
3016.93
3023.01
3028.98
3062.47
2870.36
2913.22
2974.33
3010.79
3020.85
3017.37
2980.75
2905.73
2852.15
2863.43
2923.93
2942.31
2935.73
2935.79
2939.31
2945.76
2955.5
2964.5
2972.16
2975.28
2974.49
2967.28
2957.05
2945.34
2932.75
2917.57
2908
2905.03
2911.35
2905.22
2938.03
2948.36
2959.57
2948.63
2933.01
2945.51
2943.58
2916.78
2936.79
2954.72
2957.83
2961.03
2958.37
2954.36
2951.1
2948.26
2946.68
2945
2944.82
2945.15
2948.57
2950.47
2953.21
2956.68
2957.69
2959.15
2957.09
2956.3
2958.03
2956.41
2892.6
2890.76
2893.03
2897.2
2900.24
2897.07
2894.22
2899.15
2913.36
2920.21
2903.09
2890.98
2888.1
2888.12
2892.07
2893.83
2883.92
2878.04
2872.82
2868.47
2871.28
2875.79
2882.81
2893.85
2897.1
2903.3
2907.32
2907.52
2905.41
2901.18
2861.63
2874.16
2867.9
2863.5
2859.59
2856.86
2852.79
2848.2
2844.48
2840.18
2838.06
2833.9
2829.87
2827.35
2828.27
2828.42
2834.05
2837.27
2840.02
2845.93
2854.67
2863.76
2870.04
2867.87
2863.76
2863.4
2870.82
2861.84
2829.29
2813.48
2777.76
2789.12
2789.72
2795.75
2809.13
2816.63
2803.08
2779.07
2765.81
2768.78
2778.01
2781.9
2780.86
2778.4
2780.19
2787.71
2792.6
2804.48
2807.64
2816.23
2817.67
2816.17
2814.33
2806.93
2799.78
2793.58
2785.86
2779.76
2774.87
2773.22
2768.57
2750.5
2748.4
2753.5
2758.95
2762.71
2763.97
2765.13
2767.71
2769.87
2775.84
2782.11
2785.35
2784.21
2784.37
2780.14
2782.7
2777.14
2778.99
2776.82
2779.13
2779.22
2779.32
2784.03
2784.48
2787.23
2787.02
2788.13
2792.67
2783.16
2748.87
2755.98
2766.33
2756.92
2766.45
2782.11
2785.88
2782.72
2779.3
2774.2
2774.09
2769.28
2763.66
2763.81
2760.43
2762.24
2764.35
2765.11
2771.12
2774.51
2779.03
2780.16
2778.6
2772.13
2770.05
2771.88
2773.18
2799.45
2836.94
2830.15
2844.86
2853.25
2870.31
2877.74
2884.67
2894.34
2907.64
2922.58
2925.7
2928.16
2931.42
2928.3
2921.18
2920.4
2920.98
2928.36
2933.77
2928.89
2924.06
2922.29
2911.52
2892.49
2836.83
2794.28
2805.9
2844.89
2872.07
2882.37
2877.9
2839.33
2885.25
2886.41
2891.64
2896.11
2892.73
2899.4
2907
2914.39
2917.85
2917.72
2919.22
2916.67
2912.22
2904.39
2902.78
2909.46
2912.06
2913.76
2914.3
2915.79
2909.43
2905.6
2898.89
2889.51
2867.62
2852.83
2863.11
2878.94
2873.01
2852.54
2914.03
2895.97
2889.09
2886.48
2889.12
2911.43
2937.04
2957.15
2963.09
2966.19
2956.91
2954.83
2956.21
2962.94
2966.84
2955.92
2942.25
2927.63
2913.42
2902.3
2904.95
2869.94
2834.34
2831.56
2836.03
2839.24
2837.01
2832.02
2829.04
2828.41
2857.89
2860.88
2859.5
2859.65
2865.98
2872.67
2885.76
2896.4
2910.77
2921.78
2932.35
2936.57
2936.01
2931.66
2920.52
2907.64
2892.94
2881.27
2873.97
2867.43
2852.7
2841.55
2857.85
2887.17
2904.73
2911.79
2903.04
2878.73
2856.11
2850.59
2736.75
2751.84
2724.11
2708.25
2681.19
2665.55
2674.76
2693.42
2710.24
2726.35
2747
2774.89
2799.81
2817.84
2825.07
2815.06
2796.48
2768.83
2747.28
2731.36
2726.29
2720.61
2719.35
2748.7
2756.2
2690.35
2708.39
2730.39
2725.27
2716.86
2972.95
3009.95
3049.91
3066.9
3071.63
3072.58
3071.83
3059.11
3024.19
3002.41
3013.51
3026.73
3031.81
3062.34
2868.18
2897.25
2949.88
2992.06
3006.9
2996.28
2949.41
2873.17
2834.13
2866.55
2930.82
2938.64
2934.08
2934.12
2941.5
2950.31
2963.83
2974.6
2984.33
2988.05
2984.53
2977.69
2966.11
2953.57
2938.47
2923.03
2909.01
2905.82
2910.37
2905.43
2937.59
2944.52
2951.4
2941.22
2931.74
2954.07
2918.33
2916.49
2948.09
2955.63
2962.49
2960.61
2956.2
2953.99
2949.15
2948.3
2943.71
2943.2
2942.34
2942.23
2943.96
2948.26
2949.66
2954.76
2957.97
2957.56
2956.91
2955.96
2957.35
2956.39
2892.62
2890.76
2894.83
2902.11
2905.83
2901.14
2896.07
2895.3
2907.38
2920.44
2904.54
2890.35
2886.99
2887.76
2892.37
2892.65
2880.75
2875.54
2866.06
2863.41
2863.81
2871.12
2877.81
2886.27
2896.46
2901.47
2905.51
2907.5
2905.51
2901.59
2862.95
2874.57
2864.88
2865.42
2861.72
2855.88
2851.71
2847.23
2843.23
2838.79
2835.98
2830.87
2829.76
2829.79
2829.91
2828.08
2832.55
2833.24
2839.49
2843.24
2851.6
2860.47
2867.77
2868.03
2865.58
2864.76
2867.7
2860.52
2825.35
2802.23
2775.75
2789.63
2795.57
2801.92
2814.57
2818.88
2807.33
2782.65
2765.89
2767.84
2778.67
2781.62
2779.19
2777.92
2780.66
2787.47
2794.56
2808.55
2811.52
2823.43
2825.93
2825.92
2822.16
2815.65
2804.22
2796.13
2790.09
2781.6
2774.94
2773.95
2769.89
2747.67
2742.46
2745.46
2750.19
2754.72
2756.82
2758.68
2760.02
2763.94
2771.43
2781.08
2784.81
2784.46
2783.38
2781.15
2782.44
2776.94
2778.59
2778.38
2778.2
2779.25
2779.3
2782.39
2785.36
2786.92
2786.62
2787.18
2791.46
2783.09
2746.75
2755.13
2755.73
2748.21
2764.82
2782.07
2784.54
2779.57
2777.98
2769.92
2772.07
2763.67
2763.68
2764.03
2764.3
2763.25
2764.85
2765.76
2769.15
2773.09
2777.33
2779.13
2778.39
2772.5
2768.48
2769.53
2772.17
2802.75
2833.84
2833.71
2837.79
2849.64
2858.79
2867.04
2878.42
2891.39
2908.07
2921.16
2924.93
2927.73
2931.25
2920.29
2919
2917.66
2919.24
2922.7
2928.99
2932.64
2925.09
2922.9
2914.25
2899.18
2850.32
2798.41
2800.77
2838.98
2875.98
2884.49
2881.49
2848.29
2886.46
2887.6
2900.53
2898.33
2892.77
2898.91
2907.25
2913.82
2916.44
2917.5
2918.38
2909.74
2902.57
2898.67
2894.82
2896.76
2900.41
2913.74
2911.51
2918.64
2914.97
2908.63
2903.25
2897.24
2877.9
2858.47
2865.24
2875.85
2869.64
2854.71
2896.32
2887.08
2886.23
2884.5
2893.06
2921.91
2951.42
2961.86
2967.09
2952.14
2936.51
2928
2935.18
2947.6
2971.17
2961.83
2956.02
2933.91
2922.99
2912.39
2910.78
2866.41
2842.23
2852.63
2859.47
2862.17
2860.7
2856.22
2839.08
2828.58
2859.51
2862.2
2861.7
2864.04
2871.85
2880.69
2893.87
2905.63
2920.79
2933.85
2944.77
2949.06
2950.03
2942.04
2929.56
2914.28
2895.85
2880.77
2871.24
2868.06
2856.97
2840.88
2850.78
2881.8
2897.28
2901.43
2893.19
2870.69
2854.36
2851.17
2731.2
2737.12
2702.77
2686.11
2670.89
2667.43
2679.97
2700.7
2718.45
2741.19
2770.13
2806.79
2838.91
2867.15
2868.51
2852.76
2825.3
2788.63
2756.65
2732.71
2726.31
2722.62
2716.14
2724.94
2778.52
2728.21
2668.88
2692.11
2695.16
2680.04
2988.26
3037.34
3069.71
3071.77
3065.63
3065.54
3068.42
3062.99
3028.55
3001.79
3014.91
3032.95
3036.76
3064.42
2867.39
2881.91
2920.97
2962.72
2977.07
2958.3
2905.55
2843.18
2830.67
2878.5
2935.55
2935.4
2931.76
2933.46
2942.43
2953.19
2966.71
2979.59
2988.74
2991.48
2989.54
2980.2
2968.11
2954.07
2940.83
2923.22
2909.53
2904.96
2909.7
2902.2
2937.48
2940.84
2943.99
2935.36
2934.46
2946.91
2897.54
2931.85
2954.58
2957.97
2963.51
2959.6
2956.77
2953.52
2950.16
2946.45
2942.32
2939.99
2938.28
2939.88
2941.13
2946.29
2948.35
2952.78
2957.64
2958.25
2956.77
2955.98
2957.49
2956.17
2892.66
2891.03
2895.4
2904.78
2909.86
2904.99
2899.15
2892.58
2899.74
2921.73
2910.72
2890.79
2886.71
2888.67
2891.08
2892.31
2881.65
2873.57
2864.13
2861.83
2862.55
2867.89
2872.6
2885.39
2895.96
2899.37
2905.29
2906.44
2905.12
2901.89
2864.9
2873.99
2868.51
2870.66
2865.51
2857.08
2850.24
2846.64
2842.97
2839.67
2833.44
2830.71
2828.99
2825.51
2826.75
2825.35
2831.93
2832.99
2838.13
2843.03
2852.12
2858.25
2866.04
2870.67
2866.85
2865.81
2868.11
2853.4
2815.67
2791.65
2773.7
2786.58
2797.76
2805.88
2815.26
2817.56
2805.21
2782.32
2766.02
2769.67
2778.73
2780.77
2778.64
2778.19
2778.85
2787.64
2795.3
2808.58
2814.85
2828.72
2830.8
2830.48
2827.53
2817.39
2806.72
2799.37
2791.86
2781.43
2775.85
2774.21
2770.34
2746.48
2736.34
2735.59
2736.84
2739.89
2744.23
2747
2750.68
2756.61
2768.38
2778.67
2785.73
2783.83
2783.84
2782.52
2781.4
2777.88
2780.7
2777.87
2777.32
2780.03
2780.22
2781.92
2785.96
2786.25
2787.18
2786.38
2791.98
2781.39
2744.97
2759.88
2743.61
2737.24
2761.34
2780.61
2783.79
2778.3
2775.4
2767.92
2772.02
2759.89
2764.2
2758.62
2756.93
2758.4
2762.14
2762.06
2768.21
2771.13
2777.64
2778.1
2777.72
2772.43
2768.38
2768.03
2775.8
2811.36
2825.04
2824.31
2830.16
2830.88
2828.1
2844.09
2869.49
2888.96
2905.73
2916.9
2924.63
2927.11
2928.81
2913.48
2912.01
2911.92
2912.19
2920.67
2924.94
2932.99
2927.39
2922.87
2915.67
2903.45
2857.91
2802.81
2801.9
2838.01
2872.59
2883.2
2883.43
2854.31
2886.27
2893.79
2905.13
2899.85
2891.69
2899.48
2907.12
2912.29
2915.68
2917.89
2913.42
2906.68
2902.11
2893.78
2890.85
2896.85
2893.92
2913.93
2909.92
2920.87
2914.55
2911.26
2905.35
2901.37
2882.46
2862.28
2866.59
2872.91
2865.99
2857.21
2886.68
2884.43
2884.24
2883.29
2897.29
2928.65
2953.53
2963.31
2959.23
2938.93
2918.75
2912.02
2919.2
2931.16
2960.62
2966.18
2958.84
2940.04
2928.35
2921.1
2912.99
2862.13
2857.57
2867.06
2866.28
2864.14
2863.72
2864.03
2862.53
2851.5
2859.69
2863.72
2864.5
2868.94
2876.55
2885.63
2898.41
2910.35
2925.41
2938.33
2950.22
2952.82
2951.97
2942.4
2931.74
2913.64
2895.29
2878.29
2867.67
2866.49
2860.37
2841.11
2843.39
2873.13
2884.77
2884.33
2876.64
2862.29
2853.01
2852.38
2722.76
2724.51
2695.48
2675.33
2668.36
2669.82
2684.16
2705.6
2725.76
2753.23
2785.9
2831.15
2863.39
2890.17
2890.2
2872.37
2841.83
2798.06
2761.08
2731.84
2723.29
2721.5
2718.08
2712.84
2771.05
2790.41
2689.66
2659.3
2665.31
2663.88
3000.56
3055.41
3072.51
3060.78
3052.09
3056.46
3063.12
3053.69
3020.22
3004.3
3021.32
3037.38
3045.25
3059.88
3014.92
2937.2
2872.97
2872.88
2891.09
2918.97
2928.96
2908.96
2865.43
2829.69
2835.51
2895.71
2937.73
2933.03
2929.57
2932.65
2941.09
2951.92
2965.54
2976.34
2984.41
2987.76
2983.1
2975.36
2962.71
2951.36
2935.51
2919.87
2906.77
2905.41
2909.68
2903.93
2898.91
2939.19
2941.38
2939.06
2938.96
2932.24
2945.44
2909.79
2893.91
2941.76
2955.82
2960.41
2963.96
2961.14
2957.88
2954.9
2950.3
2948.28
2942.6
2940.96
2938.05
2939.73
2942.06
2944.87
2948.98
2952.68
2956.52
2958.45
2956.65
2954.87
2956.34
2954.87
2946.36
2926.63
2895.42
2890.79
2894.87
2904.57
2910.81
2906.59
2901.99
2894.28
2893.7
2914.95
2919.08
2894.91
2887.37
2887.17
2890.79
2892.06
2885.29
2876.3
2865.37
2862.77
2863.71
2866.12
2874.34
2886.14
2894.71
2899.51
2904.35
2905.32
2905.1
2900.95
2885.19
2866.61
2870.85
2872.07
2874.32
2875.96
2869.94
2860.06
2851.1
2845.88
2843.28
2838.18
2833.87
2832.32
2828.73
2824.77
2826.22
2826.1
2832.92
2831.88
2837.8
2844.17
2851.35
2857.6
2864.95
2869.79
2867.01
2866.5
2868.4
2840.3
2802.41
2784.14
2786.27
2779.7
2773.36
2782.54
2794.94
2805.14
2812.09
2810.67
2797.52
2778.19
2766.05
2770.95
2778.79
2780.65
2778.62
2777.56
2777.75
2786.69
2793.21
2808.45
2813.75
2827.55
2829.37
2830.39
2826.96
2816.44
2808.04
2799.17
2789.53
2781.68
2776.28
2774.79
2779.2
2777.75
2773.91
2747.86
2733.08
2726.8
2723.86
2725.81
2730.29
2736.93
2743.04
2750.18
2761.03
2777.27
2785.74
2785.46
2784.45
2784.51
2779.77
2780.47
2778.89
2778.08
2780.56
2779.78
2783.17
2781.99
2787.25
2785.67
2786.41
2786.52
2790.03
2779.92
2780.18
2763.17
2750.16
2756.3
2732.41
2723.97
2754.78
2778.6
2782.78
2778.66
2773.13
2767.75
2771.02
2757.99
2765.01
2758.24
2758.75
2759.65
2761.16
2763.73
2766.66
2771.84
2776.39
2777.66
2776.9
2772.41
2768.02
2767.83
2793.19
2819.67
2805.24
2802.61
2797.39
2800.65
2810.16
2787.08
2784.37
2813.87
2855.54
2883.09
2901.75
2916.28
2921.35
2926.49
2927.83
2913.6
2913.68
2912.38
2912.11
2917.78
2924.15
2932
2927.14
2923.23
2920.52
2902.54
2865.5
2810.63
2808.18
2843.33
2874.98
2881.79
2884.9
2865.48
2858.56
2867.79
2888.11
2903.85
2907.82
2898.52
2890.68
2896.69
2905.68
2910.06
2916.17
2915.83
2911.74
2907.11
2901.34
2890.87
2888.79
2896.49
2894.35
2913.66
2910.01
2921.59
2914.36
2913.23
2906.64
2903.97
2883.36
2864.51
2872.53
2868.78
2866
2874.68
2880.56
2879.74
2881
2879.84
2878.77
2881.15
2897.4
2930.43
2953.78
2962.64
2957.32
2934.14
2917.48
2910.62
2919.88
2927.88
2959.1
2967.58
2960.02
2942.99
2931.95
2925.68
2905.64
2860.69
2863.63
2861.89
2852.85
2849.75
2852.15
2858.18
2861.39
2864.84
2864.16
2861.51
2861.49
2865.24
2866.47
2871.85
2879.57
2890.22
2900.11
2912.55
2923.96
2936.11
2945.14
2947.27
2945.17
2936.35
2924.72
2906.56
2889.84
2872.69
2862.94
2863.42
2862.12
2842.99
2834.97
2863.7
2875.24
2872.56
2867.1
2859.11
2853.12
2816.82
2736.94
2710.48
2706.46
2707.09
2689.09
2669.11
2666.92
2671.61
2685.83
2706.79
2728.56
2758.9
2789.94
2834.26
2865.09
2885.81
2885.85
2865.82
2835.14
2793.05
2756.96
2727.82
2719.61
2719.57
2719.85
2710.73
2745.72
2833.61
2770.79
2700.46
2680.37
2622.7
2486.49
2458.27
3011.12
3064.1
3068.22
3049.27
3042.24
3050.51
3054.56
3035.87
3016.73
3017.23
3035.09
3046.13
3052.16
3043.62
2971.09
2902.42
2871.21
2869.77
2875.41
2885.17
2885.56
2867.77
2843.1
2827.06
2848.81
2911.55
2937.88
2930.57
2928.27
2929.84
2938.42
2945.8
2958.13
2965.74
2973.35
2973.06
2969.91
2962.12
2952.42
2939.49
2926.24
2913.55
2907.76
2906.35
2906.16
2904.88
2926.29
2951.76
2941.2
2937.04
2935.87
2936.03
2952.23
2869.55
2894.49
2945.68
2955.81
2960.67
2964.95
2962.04
2959.72
2956.49
2953.54
2950.08
2946.88
2943.68
2943.12
2942.73
2945.07
2946.01
2951.64
2953.99
2957.02
2958.94
2956.52
2955.36
2956.85
2955.3
2951.25
2936.94
2899.13
2891.24
2894.02
2903.67
2908.98
2907.47
2903.17
2897.26
2890.74
2905.23
2926.58
2901.89
2889.22
2887.65
2888.58
2892.58
2891.15
2881.65
2873.9
2867.95
2866.48
2870.36
2879.14
2888.23
2895.8
2899.95
2903.58
2905.36
2904.62
2900.32
2884.26
2869.57
2872.34
2874.93
2881.09
2879.86
2876.42
2865.6
2853.93
2847.33
2844.87
2839.23
2836.27
2833.15
2829.35
2829.12
2826.95
2828.46
2833.04
2831.9
2839.99
2846.24
2851.76
2858.03
2864.82
2869.03
2866.43
2867.52
2863.64
2828.02
2805.19
2781.83
2775.91
2772.46
2773.51
2778.54
2787.67
2796.88
2801.69
2797.6
2785.16
2771.91
2765.88
2773.5
2779.64
2779.91
2778.19
2777.91
2776.64
2784.36
2791.25
2804.47
2810.46
2820.53
2824.94
2824.71
2821.39
2813.67
2806.07
2795.89
2788.32
2780.78
2775.84
2775.24
2778.96
2777.14
2775.96
2753.77
2735.12
2722.58
2719.8
2720.48
2723.42
2730.11
2736.55
2744.1
2755.43
2773.63
2785.69
2786.86
2785.8
2784.04
2783.12
2780.58
2781.6
2780.94
2778.85
2781.4
2783.05
2783.91
2785.89
2786.7
2786.57
2787.42
2792.09
2780.98
2777.94
2761.46
2753.88
2746.85
2717.23
2710.33
2743.37
2777.67
2782.16
2777.8
2774.76
2767.11
2770.95
2759.73
2763.44
2757.84
2759.61
2758.18
2763.55
2764.88
2767.73
2772.61
2776.83
2777.43
2776.45
2771.92
2768.18
2767.4
2802.07
2814.68
2789.31
2779.86
2768.68
2760.66
2759.37
2723.92
2726.46
2770.29
2831.35
2875.8
2897.58
2914.67
2919.49
2924.89
2929.41
2918.56
2917.02
2913.4
2914.24
2920.79
2924.47
2932.4
2925.54
2921.44
2921.27
2902.21
2865.48
2821.33
2821.95
2855.45
2877.22
2880.1
2882.25
2874.93
2861.41
2867.09
2887.91
2905.81
2905.92
2897.35
2890.14
2895.72
2902.9
2908.69
2913.7
2915.23
2911.97
2908.57
2904.18
2895.07
2891.84
2900.84
2898.15
2917.74
2910.53
2920.33
2914.52
2913.9
2906.96
2902.25
2876.61
2866.21
2872.98
2869.2
2868
2877.49
2879.42
2877.56