/*--------------------------------*- C++ -*----------------------------------*\
| =========                 |                                                 |
| \\      /  F ield         | OpenFOAM: The Open Source CFD Toolbox           |
|  \\    /   O peration     | Version:  2.1.1                                 |
|   \\  /    A nd           | Web:      www.OpenFOAM.org                      |
|    \\/     M anipulation  |                                                 |
\*---------------------------------------------------------------------------*/
FoamFile
{
    version     2.0;
    format      ascii;
    class       volVectorField;
    location    "0.008050000";
    object      U;
}
// * * * * * * * * * * * * * * * * * * * * * * * * * * * * * * * * * * * * * //

dimensions      [0 1 -1 0 0 0 0];

internalField   nonuniform List<vector> 
12384
(
(-0.552242 0.441624 0)
(0.522643 -1.02695 0)
(3.43999 -1.95223 0)
(7.36554 -2.27375 0)
(11.2191 -2.00971 0)
(14.5956 -1.84575 0)
(16.8499 -1.0881 0)
(17.7062 -0.611273 0)
(17.1133 0.204959 0)
(15.2938 0.575004 0)
(12.5001 1.07338 0)
(8.99168 1.22995 0)
(5.28277 1.26467 0)
(1.62742 0.982785 0)
(-3.52993 3.52313 0)
(-11.8907 5.35079 0)
(-23.1224 6.24099 0)
(-35.5861 6.82385 0)
(-46.7894 5.03357 0)
(-53.9661 3.27146 0)
(-56.9163 0.109951 0)
(-55.0711 -1.18396 0)
(-49.1679 -4.46886 0)
(-38.4357 -6.23943 0)
(-23.4889 -7.77415 0)
(-6.05862 -9.2229 0)
(14.0187 -10.6277 0)
(35.0541 -11.4521 0)
(57.4019 -11.2571 0)
(77.9199 -11.3028 0)
(96.6667 -8.19791 0)
(111.456 -7.8922 0)
(120.527 -2.95382 0)
(125.444 -2.08667 0)
(122.782 3.08044 0)
(115.682 4.71072 0)
(101.504 8.09615 0)
(83.6712 9.77032 0)
(62.1666 10.0494 0)
(41.814 9.76324 0)
(22.7229 7.37876 0)
(9.26472 5.53932 0)
(0.590209 1.23612 0)
(-2.6649 -2.3965 0)
(-7.23621 7.03991 0)
(-22.6871 8.35128 0)
(-38.6419 7.47699 0)
(-50.818 4.61551 0)
(-56.0985 0.779918 0)
(-55.8831 -0.559108 0)
(-50.721 -5.28649 0)
(-39.1922 -6.63086 0)
(-24.615 -8.18359 0)
(-8.19943 -8.87155 0)
(10.1473 -10.2997 0)
(30.2634 -10.9439 0)
(51.391 -11.2321 0)
(72.8306 -10.7845 0)
(92.446 -9.68334 0)
(108.567 -6.85758 0)
(120.677 -5.35756 0)
(126.582 -1.30548 0)
(126.554 1.01277 0)
(120.713 5.08642 0)
(108.173 8.11062 0)
(90.4456 10.6994 0)
(69.1473 12.3527 0)
(45.2126 12.0908 0)
(24.6033 10.9506 0)
(6.84564 8.60516 0)
(-5.44558 5.76874 0)
(-10.6712 1.1989 0)
(-10.4475 -0.648475 0)
(-5.67944 -6.67514 0)
(-7.41959 7.84613 0)
(-24.6248 10.2565 0)
(-44.0989 10.2325 0)
(-61.1197 8.2834 0)
(-72.4859 5.39138 0)
(-76.4358 0.732787 0)
(-73.6901 -2.43801 0)
(-65.6495 -4.70675 0)
(-53.7251 -6.39654 0)
(-38.8267 -7.94661 0)
(-20.5498 -9.66489 0)
(2.01611 -12.0874 0)
(29.2404 -14.5428 0)
(61.0016 -16.2868 0)
(94.0848 -16.9285 0)
(127.098 -15.4007 0)
(155.932 -12.6741 0)
(177.64 -8.43795 0)
(190.678 -5.14697 0)
(191.756 3.01136 0)
(181.603 9.09045 0)
(158.563 14.6106 0)
(124.96 18.0715 0)
(86.2473 18.0605 0)
(50.9829 15.5665 0)
(22.9002 11.2834 0)
(2.89902 6.01165 0)
(-6.81868 -0.309146 0)
(-8.61176 -2.93304 0)
(-4.91093 -7.24589 0)
(-8.28024 7.19562 0)
(-20.5959 4.9329 0)
(-26.6478 0.87468 0)
(-24.7228 -2.81939 0)
(-12.8807 -9.60577 0)
(10.1297 -14.4983 0)
(41.3508 -18.1828 0)
(78.6063 -19.9623 0)
(118.074 -20.0808 0)
(157.777 -18.7921 0)
(191.981 -15.5985 0)
(221.433 -11.8266 0)
(241.392 -7.18457 0)
(247.821 -0.173021 0)
(245.872 7.0844 0)
(229.079 13.3381 0)
(195.316 19.306 0)
(149.405 24.8827 0)
(99.8044 25.9504 0)
(51.929 21.3701 0)
(12.8665 16.0265 0)
(-13.5269 10.039 0)
(-30.0013 4.86606 0)
(-37.9099 0.196009 0)
(-39.3567 -2.14854 0)
(-39.2894 -3.14085 0)
(-33.2921 -6.24263 0)
(-22.8901 -7.24176 0)
(-11.7425 -6.86401 0)
(-3.2661 -4.86012 0)
(-7.47616 8.12946 0)
(-25.9608 11.3638 0)
(-48.5879 12.6218 0)
(-69.7692 10.7242 0)
(-84.4111 6.14754 0)
(-90.4631 0.984916 0)
(-90.2109 -0.862598 0)
(-83.8019 -5.08181 0)
(-72.5704 -7.03371 0)
(-58.5045 -8.04468 0)
(-42.8495 -9.01443 0)
(-25.2729 -10.5544 0)
(-4.64637 -12.1463 0)
(19.6613 -14.1154 0)
(46.7385 -15.925 0)
(76.6659 -15.9431 0)
(107.68 -15.5398 0)
(133.648 -13.8656 0)
(155.053 -10.4731 0)
(171.92 -5.33588 0)
(177.076 -1.59159 0)
(171.627 5.14833 0)
(155.049 11.1665 0)
(127.334 16.4004 0)
(92.0724 18.6569 0)
(55.0421 17.325 0)
(23.413 13.0701 0)
(1.63746 6.5616 0)
(-7.05476 -1.48405 0)
(-7.3242 -8.184 0)
(-8.752 10.0349 0)
(-27.0389 10.8523 0)
(-45.413 10.1634 0)
(-61.2938 7.99797 0)
(-72.0732 5.56753 0)
(-77.8678 2.79524 0)
(-79.2233 0.506062 0)
(-75 -2.69136 0)
(-64.9534 -5.43453 0)
(-49.5194 -8.5474 0)
(-28.4619 -11.1002 0)
(-1.95163 -13.8598 0)
(28.9156 -16.4463 0)
(64.439 -18.3496 0)
(101.909 -17.7082 0)
(137.751 -19.02 0)
(172.296 -13.8898 0)
(199.143 -13.7822 0)
(219.341 -6.54455 0)
(233.859 -0.841938 0)
(231.441 0.801338 0)
(218.593 10.1913 0)
(195.267 14.9448 0)
(156.996 22.0196 0)
(112.618 25.39 0)
(64.2138 22.6286 0)
(25.4209 17.6302 0)
(-0.727347 9.78403 0)
(-10.3748 -0.28394 0)
(-10.5809 -6.99303 0)
(-9.18782 8.37141 0)
(-24.1729 6.5904 0)
(-34.0906 3.33654 0)
(-37.3391 0.0505961 0)
(-30.9864 -6.42318 0)
(-13.3928 -11.4885 0)
(13.6238 -15.9957 0)
(47.3449 -19.2111 0)
(86.7329 -20.562 0)
(126.498 -20.7294 0)
(165.275 -17.3264 0)
(196.74 -16.4311 0)
(220.64 -9.36271 0)
(235.822 -7.73045 0)
(238.82 1.49383 0)
(231.376 6.25897 0)
(209.671 13.2127 0)
(176.492 19.5162 0)
(133.283 23.6089 0)
(86.3442 23.32 0)
(43.0023 18.9387 0)
(9.43494 12.683 0)
(-11.4652 5.40223 0)
(-19.6274 -1.35309 0)
(-20.9277 -2.88281 0)
(-18.3883 -6.60139 0)
(-12.3394 -5.26945 0)
(-5.94235 -4.0998 0)
(-1.19022 -2.85911 0)
(0.210352 -1.10786 0)
(-8.45705 9.74944 0)
(-17.2816 4.20695 0)
(-18.6472 1.81307 0)
(-10.8045 -5.00376 0)
(8.21866 -10.804 0)
(36.0306 -15.3205 0)
(71.4295 -18.2129 0)
(110.515 -20.1173 0)
(151.512 -19.4528 0)
(187.369 -18.5429 0)
(217.566 -12.5207 0)
(242.034 -11.6736 0)
(252.136 -1.99748 0)
(253.896 3.0545 0)
(234.522 12.0885 0)
(203.445 19.9049 0)
(157.306 25.4753 0)
(101.641 26.0782 0)
(53.0748 22.167 0)
(13.8144 15.6719 0)
(-12.8314 8.68166 0)
(-25.4594 1.82496 0)
(-28.4348 -1.79659 0)
(-27.9238 -2.04962 0)
(-24.4388 -3.91995 0)
(-16.8322 -5.36105 0)
(-8.04993 -5.04288 0)
(-1.31143 -3.38538 0)
(1.35137 -0.983447 0)
(0.820112 -0.368613 0)
(-12.6517 13.5502 0)
(-31.4497 8.07025 0)
(-41.0363 3.08064 0)
(-41.9116 0.221433 0)
(-34.4791 -6.04665 0)
(-16.8422 -11.3491 0)
(9.52049 -15.5386 0)
(43.3332 -19.2988 0)
(80.6492 -21.0154 0)
(120.257 -20.925 0)
(157.016 -18.2662 0)
(188.596 -14.4288 0)
(210.434 -9.08732 0)
(220.06 -1.82129 0)
(217.385 6.15742 0)
(196.941 14.465 0)
(160.836 22.5025 0)
(113.52 26.4052 0)
(62.0465 25.2511 0)
(14.3955 21.1593 0)
(-23.2265 15.3052 0)
(-45.7281 8.28806 0)
(-55.5344 0.161438 0)
(-55.67 -1.12384 0)
(-48.8881 -5.55953 0)
(-36.3016 -6.7304 0)
(-21.7143 -6.05275 0)
(-10.2691 -3.81573 0)
(-3.2631 -1.44156 0)
(-0.263348 0.393703 0)
(-17.9624 15.867 0)
(-42.7389 8.96072 0)
(-52.9085 0.190277 0)
(-48.0915 -7.10478 0)
(-29.6077 -14.5625 0)
(1.50375 -19.5231 0)
(39.1689 -22.1252 0)
(80.2438 -21.673 0)
(118.675 -18.9404 0)
(149.87 -13.6643 0)
(169.625 -6.23878 0)
(174.124 2.49416 0)
(162.229 12.0714 0)
(132.752 18.8559 0)
(92.5433 22.2621 0)
(52.419 20.0959 0)
(16.8946 16.2572 0)
(-8.46488 9.74493 0)
(-22.5366 2.31088 0)
(-26.314 -1.91931 0)
(-17.9126 -8.39621 0)
(0.315723 -11.6933 0)
(20.1358 -10.4922 0)
(36.4737 -8.07163 0)
(46.8851 -4.80969 0)
(50.5466 -1.09933 0)
(48.5317 1.32635 0)
(40.8563 4.12511 0)
(27.6835 6.28048 0)
(10.4557 8.47618 0)
(4.49686 -6.36074 0)
(6.79234 -2.20006 0)
(4.34808 0.699268 0)
(-4.27743 4.71261 0)
(-19.6696 7.66697 0)
(-39.758 10.4053 0)
(-63.9626 12.0521 0)
(-91.211 12.7417 0)
(-115.836 11.3083 0)
(-137.257 8.64381 0)
(-153.029 4.92024 0)
(-160.63 1.68225 0)
(-159.662 -1.75929 0)
(-153.327 -6.35508 0)
(-140.279 -8.10845 0)
(-122.776 -10.6661 0)
(-102.005 -11.9932 0)
(-78.3735 -12.5612 0)
(-54.8197 -12.3491 0)
(-31.9667 -11.5494 0)
(-10.4806 -10.7791 0)
(10.1097 -10.3706 0)
(29.4917 -9.78543 0)
(46.9566 -7.22416 0)
(57.2229 -2.24813 0)
(58.2711 2.16963 0)
(52.0817 6.17996 0)
(38.6198 8.86616 0)
(22.1719 9.42976 0)
(6.86616 7.85558 0)
(7.98316 -5.93902 0)
(24.2217 -6.45226 0)
(39.5305 -5.07765 0)
(50.2569 -2.66371 0)
(55.6002 0.587048 0)
(56.4976 1.99253 0)
(51.5388 5.15044 0)
(41.2563 8.31937 0)
(23.827 10.9569 0)
(1.60275 13.3617 0)
(-24.0695 13.8439 0)
(-49.7105 13.698 0)
(-72.1024 10.2225 0)
(-86.413 6.44011 0)
(-92.2266 -0.477883 0)
(-87.6831 -3.77966 0)
(-76.3678 -9.24534 0)
(-58.1827 -11.0653 0)
(-35.5778 -14.0176 0)
(-11.2057 -14.4417 0)
(13.2344 -14.2211 0)
(35.097 -12.7235 0)
(52.4587 -10.7044 0)
(64.416 -7.47268 0)
(69.7233 -4.28467 0)
(68.5781 -1.92324 0)
(62.9247 0.42799 0)
(50.6861 3.59685 0)
(33.7806 5.78047 0)
(12.0924 7.79078 0)
(0.37171 -0.237807 0)
(3.11186 -4.15317 0)
(7.37341 -6.25805 0)
(12.0836 -7.04633 0)
(16.6481 -6.1595 0)
(20.3098 -5.65415 0)
(22.67 -3.09392 0)
(23.4333 -1.6158 0)
(22.5405 1.0267 0)
(20.2986 1.91148 0)
(16.8327 3.71064 0)
(12.5261 4.13109 0)
(7.47751 4.51723 0)
(2.45239 3.69676 0)
(-5.00625 12.1679 0)
(-15.7092 16.6546 0)
(-26.9343 18.2453 0)
(-37.278 17.7468 0)
(-44.8932 13.1802 0)
(-48.693 7.03318 0)
(-48.5457 -0.000750207 0)
(-44.1689 -5.44993 0)
(-35.5916 -13.0914 0)
(-23.2408 -19.5005 0)
(-7.97187 -23.1656 0)
(10.2726 -27.5119 0)
(30.4769 -31.9722 0)
(52.5269 -33.1225 0)
(75.1019 -33.8454 0)
(96.1672 -30.6997 0)
(114.364 -25.0551 0)
(128.879 -19.9664 0)
(137.083 -9.96186 0)
(140.847 -3.30826 0)
(139.831 6.73979 0)
(132.784 14.271 0)
(121.956 21.6365 0)
(106.116 27.012 0)
(88.0388 29.5347 0)
(67.4292 29.126 0)
(47.2171 24.451 0)
(28.9537 18.7411 0)
(14.0558 10.1195 0)
(3.11626 0.938783 0)
(-8.45075 22.0534 0)
(-23.9831 24.0202 0)
(-37.3211 19.599 0)
(-45.1769 10.5347 0)
(-47.0764 -0.0695479 0)
(-43.175 -6.13455 0)
(-33.7714 -15.9628 0)
(-21.4241 -20.7886 0)
(-6.97157 -24.2334 0)
(9.39186 -27.4196 0)
(28.2011 -30.7617 0)
(49.5942 -33.6097 0)
(71.5033 -33.4001 0)
(93.7845 -32.7726 0)
(114.305 -27.9424 0)
(130.95 -21.6215 0)
(144.081 -15.0229 0)
(150.971 -6.28622 0)
(151.944 3.47719 0)
(149.173 13.1792 0)
(140.142 20.617 0)
(126.388 29.5663 0)
(110.109 33.611 0)
(89.0186 35.897 0)
(67.12 34.0257 0)
(45.5629 28.5372 0)
(26.5857 21.0353 0)
(11.744 10.5475 0)
(2.33484 4.5118 0)
(-1.10115 -8.00353 0)
(-11.3961 27.4029 0)
(-33.3348 32.0199 0)
(-53.3607 29.4196 0)
(-66.9946 21.4949 0)
(-73.6799 10.9914 0)
(-74.0057 0.478635 0)
(-69.5484 -7.91094 0)
(-60.6442 -14.0337 0)
(-48.3325 -19.2008 0)
(-32.6884 -24.0249 0)
(-13.7651 -29.5044 0)
(9.5963 -36.5121 0)
(38.017 -43.7808 0)
(70.0047 -49.2119 0)
(104.369 -50.4824 0)
(139.084 -46.2567 0)
(168.063 -39.4812 0)
(191.39 -26.9754 0)
(209.015 -13.3179 0)
(213.517 4.22886 0)
(208.021 21.2357 0)
(193.416 36.8673 0)
(169.885 47.7679 0)
(139.148 51.9415 0)
(104.476 48.3551 0)
(69.5422 37.7594 0)
(40.6684 24.2742 0)
(19.5853 9.44479 0)
(6.19778 -0.393539 0)
(0.0482667 -11.3533 0)
(-6.19019 18.7157 0)
(-13.6729 10.8732 0)
(-15.2128 -1.36963 0)
(-8.02812 -12.9893 0)
(8.26627 -30.1279 0)
(32.4238 -43.3975 0)
(63.6965 -53.2489 0)
(99.978 -58.5665 0)
(138.587 -58.7566 0)
(176.482 -54.6367 0)
(210.132 -46.3337 0)
(239.258 -33.4785 0)
(261.341 -20.2195 0)
(271.041 -3.33783 0)
(269.976 13.0542 0)
(259.574 32.253 0)
(238.414 49.6297 0)
(211.105 65.3302 0)
(171.218 71.5088 0)
(123.068 67.5319 0)
(75.3855 54.6994 0)
(33.9909 38.1084 0)
(1.79369 21.6556 0)
(-18.4114 9.62577 0)
(-30.1629 -0.21671 0)
(-34.796 -6.47766 0)
(-31.5572 -15.7323 0)
(-24.5285 -20.7814 0)
(-14.1261 -20.4446 0)
(-4.29286 -15.3408 0)
(-10.4557 27.3017 0)
(-31.6352 34.5376 0)
(-52.2322 34.6089 0)
(-67.6724 27.0154 0)
(-76.1802 14.5921 0)
(-78.3372 1.8666 0)
(-74.4962 -5.34859 0)
(-66.0398 -15.1993 0)
(-54.8883 -19.8804 0)
(-42.3651 -22.7147 0)
(-28.8693 -25.3848 0)
(-13.1419 -29.2093 0)
(5.69169 -34.9781 0)
(28.2734 -41.4291 0)
(55.6314 -46.0851 0)
(85.2701 -47.4633 0)
(114.769 -46.401 0)
(142.316 -39.9775 0)
(165.48 -30.4446 0)
(181.362 -17.4558 0)
(187.692 -5.04469 0)
(187.062 11.3925 0)
(177.228 27.5804 0)
(159.135 41.8496 0)
(133.177 50.8382 0)
(101.215 50.9516 0)
(67.4272 42.2716 0)
(37.4468 27.2676 0)
(14.8888 8.62921 0)
(1.57585 -6.71005 0)
(-11.3835 32.3234 0)
(-31.383 32.697 0)
(-48.9138 28.2926 0)
(-61.3884 21.2893 0)
(-68.6074 14.2514 0)
(-72.1924 6.77373 0)
(-71.4408 0.0785348 0)
(-65.826 -7.76725 0)
(-56.3983 -16.1801 0)
(-41.4379 -24.5385 0)
(-20.8317 -32.5403 0)
(4.44135 -41.4628 0)
(35.0349 -48.2424 0)
(70.309 -53.9707 0)
(105.351 -53.5439 0)
(140.647 -53.7956 0)
(173.587 -44.0252 0)
(200.269 -37.8075 0)
(223.028 -21.6831 0)
(232.719 -5.56768 0)
(232.882 6.26175 0)
(226.021 24.9664 0)
(209.933 40.3238 0)
(185.248 56.8546 0)
(153.753 67.1557 0)
(114.358 66.6372 0)
(73.9232 56.0496 0)
(38.7666 36.1152 0)
(14.9726 13.6361 0)
(1.84486 -2.87293 0)
(-7.55296 23.0957 0)
(-17.8487 16.08 0)
(-23.0195 5.70945 0)
(-20.3654 -4.46698 0)
(-8.97376 -20.5424 0)
(10.8919 -34.8279 0)
(39.0094 -46.7083 0)
(73.5403 -55.8457 0)
(111.56 -60.5089 0)
(151.024 -58.95 0)
(187.54 -52.4413 0)
(218.493 -44.6878 0)
(242.58 -28.4834 0)
(257.096 -16.6701 0)
(261.062 -0.48684 0)
(253.961 16.8027 0)
(239.484 34.4808 0)
(215.406 50.5865 0)
(183.506 63.1049 0)
(144.667 66.9861 0)
(101.198 59.4573 0)
(59.0141 44.2074 0)
(25.2831 25.925 0)
(2.58355 8.13694 0)
(-10.6541 -0.322686 0)
(-16.2241 -7.11947 0)
(-14.8216 -12.4719 0)
(-10.1893 -12.5066 0)
(-5.13143 -8.79373 0)
(-1.23508 -4.0823 0)
(-3.9457 23.6146 0)
(-6.3928 9.32531 0)
(-1.97006 0.209559 0)
(10.6394 -16.4627 0)
(31.0026 -31.0574 0)
(58.9622 -43.7081 0)
(92.8888 -53.361 0)
(130.79 -57.8018 0)
(170.054 -57.27 0)
(206.707 -52.4091 0)
(237.006 -37.9426 0)
(261.98 -28.2324 0)
(274.255 -9.21198 0)
(272.698 7.80925 0)
(265.357 27.0817 0)
(243.535 49.2666 0)
(213.141 65.8325 0)
(173.016 74.189 0)
(125.264 68.9925 0)
(76.8884 54.1477 0)
(36.3258 35.3807 0)
(6.48796 17.3498 0)
(-12.3396 4.87778 0)
(-21.6371 -0.576186 0)
(-23.604 -8.46292 0)
(-19.5806 -14.1391 0)
(-12.0168 -14.3783 0)
(-4.73451 -10.1249 0)
(-0.571421 -3.9443 0)
(0.558853 -1.33384 0)
(-8.44187 33.6225 0)
(-19.5494 20.0765 0)
(-23.8485 5.70128 0)
(-20.0377 -3.89006 0)
(-8.11206 -20.2193 0)
(11.7965 -34.2982 0)
(39.2206 -46.9661 0)
(73.1529 -56.5587 0)
(111.179 -61.4451 0)
(149.691 -60.9185 0)
(186.035 -53.2366 0)
(216.338 -41.4201 0)
(238.346 -25.5287 0)
(251.204 -7.47238 0)
(250.352 12.6802 0)
(239.261 36.3297 0)
(218.814 57.0105 0)
(184.33 72.346 0)
(138.629 75.7818 0)
(87.4152 68.0407 0)
(38.2619 53.0516 0)
(0.14849 33.6735 0)
(-25.7711 11.142 0)
(-38.9397 3.90475 0)
(-40.0907 -10.1982 0)
(-34.7784 -15.9659 0)
(-24.6163 -16.3301 0)
(-14.5417 -10.1689 0)
(-6.74938 -3.90487 0)
(-1.71865 1.30062 0)
(-10.1384 36.0874 0)
(-20.5739 18.2539 0)
(-21.0255 -6.59169 0)
(-8.86891 -24.3378 0)
(14.7199 -44.8685 0)
(46.5678 -57.2185 0)
(84.662 -63.4393 0)
(124.252 -62.5186 0)
(161.326 -54.3474 0)
(192.201 -39.6558 0)
(213.549 -19.8458 0)
(222.953 2.98774 0)
(218.052 30.1117 0)
(200.579 50.9493 0)
(168.622 63.1667 0)
(126.509 64.2747 0)
(80.1564 55.172 0)
(39.5059 38.8314 0)
(8.12685 18.3227 0)
(-8.03165 2.39301 0)
(-8.55183 -18.2165 0)
(0.0888133 -28.9889 0)
(13.4514 -26.617 0)
(24.5865 -21.2138 0)
(32.586 -12.8398 0)
(36.151 -4.72433 0)
(36.0419 2.02639 0)
(31.9556 9.41668 0)
(23.1728 16.3187 0)
(9.36077 23.4179 0)
(-0.851887 -9.1291 0)
(-6.67942 0.0470936 0)
(-17.1725 8.12011 0)
(-32.7094 17.2222 0)
(-52.8549 25.2752 0)
(-76.5363 32.2246 0)
(-100.715 35.08 0)
(-124.601 35.3434 0)
(-145.563 30.4976 0)
(-162.146 23.6547 0)
(-173.583 13.7644 0)
(-178.917 3.46939 0)
(-178.696 -7.47504 0)
(-170.893 -17.2585 0)
(-156.615 -24.964 0)
(-137.931 -31.8756 0)
(-115.61 -36.4586 0)
(-91.2603 -37.4697 0)
(-66.6955 -36.8292 0)
(-43.4701 -34.5983 0)
(-21.9392 -31.9841 0)
(-1.48162 -30.8568 0)
(17.9233 -28.3658 0)
(35.1927 -22.0761 0)
(48.0728 -8.92182 0)
(52.6724 2.613 0)
(50.1825 15.0997 0)
(41.1655 24.8515 0)
(25.8319 28.4807 0)
(8.91666 25.3969 0)
(6.78027 -15.9243 0)
(19.8332 -16.3118 0)
(31.0714 -11.5601 0)
(37.7425 -4.68987 0)
(39.2876 4.86742 0)
(34.9168 9.00486 0)
(24.3362 19.0043 0)
(7.09144 28.4208 0)
(-16.5103 36.7357 0)
(-43.7529 42.076 0)
(-71.1966 41.7461 0)
(-95.408 38.0353 0)
(-112.302 27.4858 0)
(-122.614 14.8538 0)
(-123.476 -0.856099 0)
(-116.459 -12.5648 0)
(-103.544 -25.5839 0)
(-84.5018 -33.7831 0)
(-61.4736 -40.1708 0)
(-36.5553 -42.8866 0)
(-12.6869 -41.3584 0)
(9.06643 -37.8549 0)
(26.0894 -30.4302 0)
(37.9912 -22.8078 0)
(44.7074 -13.3057 0)
(46.144 -8.43915 0)
(43.469 -0.230974 0)
(36.1359 6.24149 0)
(24.1409 13.595 0)
(8.8309 18.6823 0)
(1.79359 -2.74524 0)
(6.01229 -8.38983 0)
(11.2324 -11.4914 0)
(16.6817 -12.4156 0)
(21.4427 -10.6366 0)
(25.2136 -9.32542 0)
(27.375 -4.93182 0)
(27.7143 -2.17655 0)
(26.3053 2.24941 0)
(23.3402 3.99076 0)
(19.1758 7.05118 0)
(14.0981 7.82763 0)
(8.5171 8.65526 0)
(2.78313 7.46574 0)
(-4.74591 22.4778 0)
(-14.0844 27.5299 0)
(-23.4668 28.9564 0)
(-30.6396 25.9344 0)
(-35.2078 18.5339 0)
(-36.6016 8.10632 0)
(-34.7738 -1.93916 0)
(-29.2701 -12.2445 0)
(-20.1986 -22.464 0)
(-8.40479 -32.9734 0)
(6.5838 -39.0101 0)
(23.8645 -46.2062 0)
(43.8788 -53.143 0)
(64.8029 -54.8688 0)
(86.2906 -56.3518 0)
(105.904 -49.5421 0)
(122.228 -43.3392 0)
(136.165 -29.5762 0)
(143.551 -17.9127 0)
(146.134 -3.03878 0)
(144.087 9.52154 0)
(138.315 23.557 0)
(127.105 33.4054 0)
(113.732 43.0954 0)
(96.821 47.0486 0)
(78.5816 48.2486 0)
(58.8208 43.3265 0)
(39.3024 35.4318 0)
(21.287 23.7666 0)
(6.25345 10.2679 0)
(-7.35128 37.1794 0)
(-20.0099 37.1792 0)
(-30.4518 28.5542 0)
(-35.0175 13.9762 0)
(-34.7274 -3.25958 0)
(-28.5632 -14.1747 0)
(-18.7417 -26.9358 0)
(-7.2361 -34.1472 0)
(6.2572 -39.3151 0)
(21.8209 -45.5233 0)
(40.1534 -51.5591 0)
(61.2037 -56.5002 0)
(83.2374 -56.971 0)
(105.653 -55.2293 0)
(126.14 -47.1065 0)
(141.732 -37.4353 0)
(154.514 -24.5789 0)
(160.901 -11.0953 0)
(163.272 4.90106 0)
(159.048 18.909 0)
(152.127 31.3171 0)
(140.702 44.1071 0)
(126.537 52.2988 0)
(109.874 57.372 0)
(90.3417 57.0295 0)
(69.9019 51.5044 0)
(49.6345 41.6014 0)
(30.4289 28.0392 0)
(15.0438 16.1021 0)
(3.91236 -2.20204 0)
(-11.8502 51.0794 0)
(-33.5719 54.4389 0)
(-51.8025 46.6901 0)
(-63.343 32.1049 0)
(-68.9346 14.2215 0)
(-68.8287 -0.818256 0)
(-63.5973 -13.9428 0)
(-54.8554 -24.2915 0)
(-43.0071 -32.153 0)
(-28.2497 -39.6857 0)
(-10.1831 -49.1825 0)
(11.7777 -61.0026 0)
(38.4441 -73.1635 0)
(69.3914 -81.6875 0)
(103.347 -83.6066 0)
(136.548 -78.315 0)
(164.966 -67.3103 0)
(190.009 -46.6201 0)
(207.946 -23.1654 0)
(214.08 1.89802 0)
(212.67 27.3598 0)
(202.507 51.2595 0)
(184.653 70.7247 0)
(159.97 81.2938 0)
(129.378 80.0364 0)
(96.8088 68.8885 0)
(65.7098 50.5513 0)
(38.3166 27.9211 0)
(18.2115 10.5592 0)
(5.11261 -8.09483 0)
(-6.99073 27.5055 0)
(-9.80476 12.8011 0)
(-8.54448 -6.75385 0)
(0.228211 -26.7595 0)
(16.4722 -51.4928 0)
(39.1333 -71.863 0)
(68.1667 -87.3746 0)
(102.034 -95.6877 0)
(137.725 -96.0902 0)
(172.1 -89.4139 0)
(204.178 -75.8552 0)
(231.234 -54.8344 0)
(249.039 -33.8185 0)
(260.391 -7.86324 0)
(264.979 18.3084 0)
(258.896 43.3891 0)
(244.718 70.8436 0)
(223.507 94.7315 0)
(195.609 108.059 0)
(159.684 113.027 0)
(115.574 99.0405 0)
(72.9 77.0182 0)
(34.9092 50.4935 0)
(5.65855 27.4838 0)
(-13.4665 8.35944 0)
(-22.8651 -5.5699 0)
(-24.6097 -21.9246 0)
(-20.7062 -32.1711 0)
(-12.1606 -32.9048 0)
(-3.82802 -26.4717 0)
(-9.3162 48.7156 0)
(-27.0574 55.5982 0)
(-42.7664 51.8316 0)
(-53.7314 38.3778 0)
(-59.2067 19.6035 0)
(-60.268 1.23253 0)
(-56.7968 -12.0489 0)
(-49.366 -24.2616 0)
(-40.5913 -31.4233 0)
(-30.7822 -35.3652 0)
(-19.6436 -39.0314 0)
(-7.07865 -45.8833 0)
(8.74806 -56.3329 0)
(29.7963 -66.4614 0)
(55.1941 -75.3213 0)
(82.8154 -79.0774 0)
(111.97 -76.1395 0)
(137.987 -65.6176 0)
(159.905 -51.342 0)
(175.97 -31.9552 0)
(183.453 -7.74539 0)
(185.024 14.7474 0)
(177.965 37.8044 0)
(164.699 59.4383 0)
(145.15 75.8328 0)
(119.742 81.2433 0)
(89.9394 73.7355 0)
(59.1389 54.647 0)
(30.8059 29.1951 0)
(8.88511 3.43923 0)
(-10.7994 56.3948 0)
(-29.6069 53.1637 0)
(-44.4962 44.1902 0)
(-54.2719 32.4624 0)
(-60.4705 20.6742 0)
(-63.3223 9.6612 0)
(-62.0468 -0.884242 0)
(-57.2171 -12.8089 0)
(-48.384 -26.3438 0)
(-34.4734 -38.9777 0)
(-16.2998 -53.647 0)
(7.47302 -67.5057 0)
(35.8253 -79.6032 0)
(67.58 -87.6667 0)
(99.8983 -89.3081 0)
(132.544 -84.5484 0)
(162.462 -73.2619 0)
(186.559 -56.1109 0)
(205.146 -39.1326 0)
(217.467 -12.5047 0)
(219.323 8.47202 0)
(213.675 33.7972 0)
(202.375 58.6833 0)
(182.032 80.6753 0)
(159.821 99.862 0)
(128.589 104.798 0)
(94.3903 95.7577 0)
(59.1159 70.4554 0)
(29.0909 38.8499 0)
(8.07354 10.0915 0)
(-5.57137 34.4365 0)
(-11.8845 21.559 0)
(-12.2773 4.21324 0)
(-5.72629 -13.492 0)
(7.52074 -36.9339 0)
(28.029 -59.6198 0)
(55.0617 -78.7443 0)
(87.7168 -92.7203 0)
(124.004 -98.3236 0)
(159.769 -96.3365 0)
(192.048 -86.7416 0)
(221.123 -69.2739 0)
(243.053 -49.103 0)
(253.31 -25.7491 0)
(257.584 -1.20312 0)
(255.246 24.1356 0)
(241.781 49.9852 0)
(222.478 74.4702 0)
(197.415 93.4073 0)
(166.341 104.259 0)
(129.579 100.803 0)
(89.5787 83.2485 0)
(52.0687 56.2839 0)
(22.0988 27.9184 0)
(1.75405 9.80754 0)
(-8.50573 -5.0777 0)
(-11.104 -16.5697 0)
(-8.7571 -19.517 0)
(-4.75899 -15.065 0)
(-1.53452 -8.69233 0)
(-0.375802 30.3247 0)
(1.15916 10.9195 0)
(7.74069 -5.93713 0)
(20.9951 -29.6292 0)
(40.418 -51.9365 0)
(66.4381 -71.7851 0)
(98.3306 -87.0746 0)
(133.612 -94.5106 0)
(169.523 -93.7392 0)
(203.794 -84.2279 0)
(232.188 -66.9218 0)
(251.209 -44.2167 0)
(265.154 -17.5265 0)
(270.218 10.4806 0)
(261.725 39.548 0)
(248.339 68.0253 0)
(227.273 93.8463 0)
(197.61 110.642 0)
(159.35 113.589 0)
(116.167 98.9465 0)
(72.1188 73.7834 0)
(34.6789 45.0786 0)
(7.37044 21.7698 0)
(-9.56601 7.14974 0)
(-16.7814 -8.6531 0)
(-16.3199 -20.8448 0)
(-11.1468 -23.0013 0)
(-5.06769 -17.4205 0)
(-0.978791 -8.21685 0)
(0.51294 -2.30796 0)
(-3.24296 45.3276 0)
(-8.22533 26.5264 0)
(-8.90478 6.03844 0)
(-2.45956 -12.7941 0)
(10.4039 -35.8949 0)
(30.3281 -58.2955 0)
(56.5961 -78.3968 0)
(89.2566 -93.7118 0)
(125.049 -101.203 0)
(161.086 -99.0989 0)
(194.59 -86.9424 0)
(222.382 -68.5135 0)
(241.674 -42.5312 0)
(252.439 -13.2198 0)
(254.034 17.2411 0)
(246.678 48.7944 0)
(230.793 78.3107 0)
(208.181 105.291 0)
(175.579 119.79 0)
(134.581 117.53 0)
(88.731 99.6203 0)
(45.722 71.2179 0)
(10.0159 37.4944 0)
(-13.379 16.3864 0)
(-23.6411 -7.18293 0)
(-24.5246 -20.3237 0)
(-18.5459 -23.6778 0)
(-11.2103 -15.7774 0)
(-5.44381 -7.43421 0)
(-1.48883 0.0964694 0)
(-1.60458 42.8817 0)
(-1.18103 16.7437 0)
(5.45401 -19.8388 0)
(21.6809 -46.6746 0)
(46.3046 -75.4103 0)
(77.3391 -94.6314 0)
(112.996 -103.729 0)
(149.976 -101.711 0)
(184.365 -88.3183 0)
(212.661 -65.2431 0)
(232.109 -34.8654 0)
(241.693 -0.400794 0)
(239.861 37.4717 0)
(226.204 72.9908 0)
(202.839 98.5571 0)
(168.811 109.48 0)
(124.304 101.613 0)
(81.2488 79.8719 0)
(43.1032 46.6368 0)
(17.6222 14.9074 0)
(7.9099 -19.968 0)
(7.8351 -38.6707 0)
(12.3261 -36.8126 0)
(17.1436 -30.4475 0)
(21.0489 -18.8295 0)
(23.293 -8.90372 0)
(23.9583 0.529442 0)
(22.2266 11.4443 0)
(16.5787 22.514 0)
(6.76827 35.1846 0)
(-4.65062 -5.64379 0)
(-15.9142 8.18493 0)
(-31.245 20.7478 0)
(-50.1267 34.1764 0)
(-71.5239 45.4585 0)
(-94.8795 53.7962 0)
(-117.239 56.4208 0)
(-138.083 54.564 0)
(-156.058 46.2612 0)
(-171.008 35.4691 0)
(-182.006 21.155 0)
(-186.612 4.64976 0)
(-185.098 -12.3104 0)
(-177.686 -28.5248 0)
(-163.898 -43.4842 0)
(-144.42 -53.4857 0)
(-121.82 -61.8092 0)
(-97.8905 -62.9189 0)
(-74.029 -61.4681 0)
(-51.4858 -57.5786 0)
(-31.2912 -52.6833 0)
(-12.1832 -50.4577 0)
(5.58173 -46.4806 0)
(21.7916 -36.687 0)
(33.8706 -17.8873 0)
(39.7694 1.6787 0)
(39.4932 21.5577 0)
(32.4801 37.9005 0)
(20.9806 45.5512 0)
(7.39232 43.8167 0)
(4.7291 -23.0913 0)
(13.9667 -22.3875 0)
(20.7465 -14.3219 0)
(23.3896 -2.10944 0)
(20.5023 12.3703 0)
(11.1457 23.1988 0)
(-4.7878 39.0514 0)
(-26.5989 54.0728 0)
(-51.4079 65.7895 0)
(-76.5737 71.3082 0)
(-99.3217 68.1794 0)
(-117.052 58.0462 0)
(-129.564 41.0402 0)
(-134.744 20.0923 0)
(-135.774 -1.79129 0)
(-129.663 -23.8928 0)
(-115.121 -42.4531 0)
(-96.0709 -57.3729 0)
(-73.3223 -66.4051 0)
(-49.3857 -71.0683 0)
(-25.8679 -67.6668 0)
(-4.81933 -62.731 0)
(10.7195 -49.0755 0)
(21.7439 -38.5065 0)
(27.6418 -23.477 0)
(29.0914 -16.1284 0)
(27.079 -3.00022 0)
(21.6343 5.47403 0)
(13.6797 16.4794 0)
(4.28472 23.6101 0)
(2.65658 -7.35531 0)
(8.37515 -13.9554 0)
(14.6293 -17.6516 0)
(20.6167 -18.0578 0)
(25.7788 -15.4433 0)
(29.2149 -12.5548 0)
(30.9278 -6.65658 0)
(30.974 -2.34519 0)
(29.1728 3.64852 0)
(25.6046 6.94369 0)
(20.6837 10.9556 0)
(15.0221 12.4332 0)
(8.9227 13.3795 0)
(2.95099 11.7721 0)
(-3.33656 30.9548 0)
(-10.1051 36.1272 0)
(-16.1178 36.6004 0)
(-20.948 31.1065 0)
(-23.4043 21.6402 0)
(-23.0702 7.61615 0)
(-19.9487 -4.50486 0)
(-13.9937 -19.1942 0)
(-5.51032 -31.2607 0)
(5.1374 -45.238 0)
(17.9885 -53.6241 0)
(33.9099 -63.9242 0)
(51.5022 -72.8705 0)
(71.0853 -75.066 0)
(89.9833 -76.5158 0)
(106.75 -67.4044 0)
(122.255 -57.0991 0)
(133.052 -40.4216 0)
(139.366 -22.9148 0)
(142.409 -4.74636 0)
(140.197 14.7934 0)
(133.415 30.5086 0)
(123.623 45.0648 0)
(110.344 55.3447 0)
(95.6166 63.171 0)
(79.1902 64.6832 0)
(61.2858 61.3963 0)
(42.7585 52.7464 0)
(24.5346 39.5931 0)
(8.02667 23.1842 0)
(-5.58236 48.9401 0)
(-14.8575 47.5625 0)
(-20.8372 34.8093 0)
(-24.0448 14.8668 0)
(-21.8661 -7.12092 0)
(-15.8066 -23.1992 0)
(-7.3553 -37.7697 0)
(2.08062 -46.2755 0)
(12.892 -53.261 0)
(26.7431 -62.4059 0)
(44.527 -71.649 0)
(65.5731 -79.2704 0)
(86.5597 -78.9118 0)
(107.539 -76.5354 0)
(125.556 -64.2373 0)
(139.699 -51.7504 0)
(151.26 -33.6893 0)
(157.915 -14.4442 0)
(159.755 4.59327 0)
(156.977 23.6307 0)
(150.245 42.3068 0)
(140.814 56.4361 0)
(128.305 68.0935 0)
(114.583 75.409 0)
(98.4536 77.2798 0)
(80.3814 73.2237 0)
(61.2272 63.4902 0)
(41.3577 48.5519 0)
(22.9967 33.1888 0)
(7.41518 11.4936 0)
(-10.5815 73.6442 0)
(-29.726 74.6699 0)
(-45.56 61.6603 0)
(-55.8859 41.2809 0)
(-60.9825 17.7231 0)
(-61.0513 -2.23207 0)
(-56.8335 -20.2209 0)
(-48.8042 -33.794 0)
(-38.2505 -44.1164 0)
(-25.7628 -53.9667 0)
(-10.7082 -66.3505 0)
(8.24625 -83.0905 0)
(31.975 -99.8774 0)
(60.4276 -111.75 0)
(91.5085 -115.481 0)
(121.736 -109.072 0)
(149.707 -93.6006 0)
(174.927 -65.5623 0)
(191.873 -36.5612 0)
(200.202 -1.8685 0)
(201.326 32.2249 0)
(195.404 62.9051 0)
(181.652 88.6116 0)
(160.545 103.805 0)
(135.864 107.963 0)
(107.649 98.5618 0)
(77.3027 77.779 0)
(50.1583 51.3666 0)
(26.4815 27.4583 0)
(7.83897 2.4166 0)
(-4.57103 34.6311 0)
(-8.40936 13.2398 0)
(-7.44103 -12.6325 0)
(0.276098 -40.0736 0)
(14.553 -70.7291 0)
(34.6608 -97.6824 0)
(60.7517 -118.464 0)
(91.1423 -129.673 0)
(122.728 -130.287 0)
(152.994 -120.616 0)
(182.058 -101.426 0)
(204.952 -75.3293 0)
(222.668 -47.6368 0)
(234.794 -15.2386 0)
(238.323 17.4256 0)
(234.372 51.786 0)
(227.44 84.2554 0)
(211.644 113.029 0)
(193.896 136.361 0)
(167.802 146.716 0)
(132.386 138.012 0)
(96.2924 116.816 0)
(58.0471 83.666 0)
(25.375 51.4417 0)
(2.99439 23.5812 0)
(-11.0543 -0.418286 0)
(-16.7336 -24.266 0)
(-15.4357 -39.6196 0)
(-10.3508 -43.2738 0)
(-3.59766 -36.362 0)
(-6.43741 65.2957 0)
(-18.58 71.3332 0)
(-29.0509 64.6303 0)
(-36.3857 46.7121 0)
(-40.7313 22.8573 0)
(-41.8814 0.715745 0)
(-39.3255 -16.7259 0)
(-34.5921 -31.3213 0)
(-28.6351 -40.2501 0)
(-21.1921 -44.4026 0)
(-13.6047 -49.7019 0)
(-4.51114 -59.3893 0)
(9.0187 -73.6843 0)
(26.9322 -89.563 0)
(49.3129 -103.287 0)
(75.7483 -107.385 0)
(102.872 -104.162 0)
(126.44 -90.9718 0)
(146.476 -70.321 0)
(162.677 -43.7456 0)
(169.997 -13.9301 0)
(170.611 15.4763 0)
(165.191 45.8142 0)
(155.093 72.7724 0)
(139.55 94.277 0)
(119.392 105.402 0)
(94.7904 101.753 0)
(66.6937 82.6486 0)
(38.3514 54.4685 0)
(12.3689 23.088 0)
(-9.43543 77.6418 0)
(-25.3634 71.1609 0)
(-37.9107 58.1084 0)
(-46.6694 41.8756 0)
(-52.3915 26.3689 0)
(-54.2483 12.3886 0)
(-52.9949 -1.85172 0)
(-48.8399 -17.4429 0)
(-40.4267 -34.6708 0)
(-28.475 -52.3058 0)
(-12.2467 -71.9545 0)
(8.33302 -90.1457 0)
(32.483 -107.884 0)
(60.0748 -117.436 0)
(88.1841 -120.703 0)
(116.611 -112.454 0)
(142.608 -97.5131 0)
(161.843 -75.7974 0)
(178.232 -50.7666 0)
(189.072 -19.0697 0)
(190.876 12.2779 0)
(190.142 43.0515 0)
(177.872 72.9586 0)
(164.114 100.457 0)
(146.694 124.351 0)
(121.941 134.534 0)
(95.7397 129.894 0)
(65.0001 105.086 0)
(35.0653 68.2558 0)
(10.5769 30.5432 0)
(-2.37369 40.86 0)
(-4.50292 23.1208 0)
(-3.31043 -0.470939 0)
(4.42416 -25.4393 0)
(18.3339 -54.339 0)
(37.8175 -83.431 0)
(63.0425 -107.943 0)
(93.0089 -126.848 0)
(123.799 -132.926 0)
(154.239 -130.944 0)
(183.348 -113.433 0)
(206.496 -92.5342 0)
(223.288 -65.5839 0)
(237.194 -34.2016 0)
(241.606 -3.38511 0)
(235.573 28.9888 0)
(226.041 60.58 0)
(209.824 92.4075 0)
(189.351 116.505 0)
(165.434 134.826 0)
(135.58 135.599 0)
(101.387 120.452 0)
(65.6685 90.3682 0)
(33.7579 53.9354 0)
(10.2033 25.5841 0)
(-3.68111 0.321495 0)
(-8.69332 -17.9063 0)
(-7.8389 -24.0758 0)
(-4.89609 -20.6432 0)
(-1.58752 -13.5388 0)
(0.578423 32.4904 0)
(3.38713 10.2172 0)
(10.5829 -13.0511 0)
(23.3482 -42.2395 0)
(41.3316 -71.1285 0)
(65.0176 -97.9735 0)
(93.1199 -118.774 0)
(125.184 -128.806 0)
(157.353 -126.332 0)
(187.367 -114.449 0)
(213.006 -90.812 0)
(232.523 -62.5582 0)
(241.937 -29.4611 0)
(244.848 5.64738 0)
(242.971 42.994 0)
(231.083 80.564 0)
(215.488 115.608 0)
(196.67 136.425 0)
(167.802 148.61 0)
(130.668 139.439 0)
(92.118 113.675 0)
(54.6998 78.3966 0)
(24.1501 45.0412 0)
(2.90186 19.7004 0)
(-9.09589 -4.54323 0)
(-12.2327 -23.9604 0)
(-9.37469 -30.1889 0)
(-4.70809 -24.4049 0)
(-0.9326 -12.2599 0)
(0.556436 -3.59483 0)
(-0.234779 49.582 0)
(0.0173489 29.6311 0)
(1.60366 3.50169 0)
(8.09163 -22.3072 0)
(20.8476 -52.0528 0)
(39.263 -80.8384 0)
(63.823 -108.132 0)
(93.014 -128.34 0)
(125.382 -138.146 0)
(157.232 -133.627 0)
(185.274 -116.69 0)
(208.165 -89.4785 0)
(226.512 -56.4609 0)
(236.398 -17.7164 0)
(236.745 19.9393 0)
(230.888 60.2624 0)
(221.378 96.2271 0)
(206.543 128.991 0)
(183.104 152.014 0)
(151.983 157.402 0)
(114.933 142.752 0)
(75.0949 111.991 0)
(37.7514 70.9651 0)
(9.61543 37.112 0)
(-6.7049 3.62708 0)
(-13.8321 -18.6828 0)
(-13.5067 -26.2683 0)
(-9.73499 -19.0127 0)
(-5.43375 -9.75499 0)