/*--------------------------------*- C++ -*----------------------------------*\
| =========                 |                                                 |
| \\      /  F ield         | OpenFOAM: The Open Source CFD Toolbox           |
|  \\    /   O peration     | Version:  2.1.1                                 |
|   \\  /    A nd           | Web:      www.OpenFOAM.org                      |
|    \\/     M anipulation  |                                                 |
\*---------------------------------------------------------------------------*/
FoamFile
{
    version     2.0;
    format      ascii;
    class       volScalarField;
    location    "0.002200000";
    object      cSound;
}
// * * * * * * * * * * * * * * * * * * * * * * * * * * * * * * * * * * * * * //

dimensions      [0 1 -1 0 0 0 0];

internalField   nonuniform List<scalar> 
12384
(
1002.95
1007.53
1004.23
994.37
1006.9
989.618
1020.59
525.336
438.859
438.264
440.925
445.184
447.736
448.052
445.323
439.658
436.816
440.984
462.748
522.846
553.148
585.947
581.356
578.325
576.661
574.901
559.229
551.462
538.055
524.222
498.62
481.257
451.621
437.025
432.655
430.785
432.217
434.012
442.635
449.03
453.663
455.235
453.706
454.388
470.981
459.731
465.549
475.225
491.819
521.072
554.927
564.753
561.623
561.038
553.798
543.021
525.311
503.123
473.246
468.771
461.668
454.817
449.039
436.26
434.063
433.16
435.831
438.026
446.19
452.198
461.329
467.841
469.682
468.986
437.313
433.761
428.351
424.087
420.963
419.09
418.202
418.527
418.523
419.035
426.163
429.846
433.192
436.393
437.772
438.403
438.518
439.339
440.699
442.655
445.465
449.951
455.259
461.029
465.665
465.89
465.467
463.231
460.595
458.827
424.227
421.928
420.103
420.127
419.262
419.629
420.122
421.362
422.607
424.398
424.866
426.089
425.532
426.841
425.847
426.972
426.005
426.536
426.089
426.098
425.795
425.601
425.461
424.893
424.92
424.784
424.366
424.667
424.545
424.675
410.464
410.514
410.239
410.656
410.161
410.185
409.949
409.57
409.61
409.03
409.203
408.514
408.768
408.038
408.348
407.624
407.919
407.427
407.291
407.302
406.956
407.041
406.718
406.805
406.543
406.619
406.423
406.486
406.371
406.471
405.323
405.27
405.26
405.248
405.237
405.223
405.206
405.196
405.17
405.172
405.135
405.144
405.101
405.111
405.073
405.087
405.06
405.067
405.068
405.06
405.063
405.055
405.059
405.053
405.056
405.053
405.055
405.054
405.059
405.139
405.127
405.045
405.04
405.037
405.036
405.033
405.03
405.027
405.025
405.022
405.02
405.017
405.012
405.007
405.004
405.004
405.007
405.011
405.017
405.02
405.022
405.024
405.028
405.029
405.032
405.035
405.037
405.04
405.044
405.126
405.127
405.045
405.041
405.037
405.036
405.032
405.03
405.027
405.026
405.022
405.021
405.017
405.012
405.007
405.004
405.004
405.007
405.011
405.017
405.02
405.022
405.024
405.028
405.03
405.032
405.035
405.037
405.04
405.044
405.126
405.126
405.046
405.04
405.037
405.035
405.032
405.029
405.027
405.024
405.022
405.02
405.017
405.012
405.008
405.004
405.004
405.006
405.011
405.017
405.021
405.023
405.027
405.03
405.031
405.034
405.037
405.039
405.04
405.045
405.126
405.126
405.044
405.04
405.037
405.036
405.032
405.03
405.027
405.026
405.022
405.021
405.017
405.013
405.007
405.004
405.003
405.007
405.011
405.017
405.02
405.022
405.024
405.028
405.03
405.033
405.036
405.037
405.04
405.044
405.126
405.125
405.044
405.039
405.037
405.037
405.033
405.031
405.028
405.025
405.022
405.02
405.016
405.012
405.007
405.004
405.004
405.007
405.011
405.017
405.021
405.022
405.026
405.027
405.031
405.032
405.035
405.037
405.04
405.044
405.126
405.126
405.044
405.04
405.036
405.036
405.031
405.031
405.027
405.027
405.023
405.022
405.018
405.014
405.008
405.006
405.005
405.008
405.011
405.017
405.019
405.023
405.025
405.029
405.03
405.034
405.036
405.038
405.039
405.045
405.127
999.176
993.048
973.076
959.271
943.515
963.607
670.709
468.286
437.197
426.49
428.71
433.291
439.15
443.541
436.697
439.815
476.513
571.704
715.012
911.921
919.953
928.267
924.315
922.982
919.558
917.651
912.197
909.167
905.808
900.262
888.769
876.241
658.029
546.089
488.056
441.522
427.806
424.284
426.091
430.241
441.56
451.243
453.878
452.563
463.262
460.412
470.174
490.97
576.311
720.625
934.923
962.648
984.892
991.407
1004.28
1005.02
999.943
1012.19
752.224
632.233
596.05
578.353
521.398
474.443
461.912
441.279
426.155
423.011
424.951
432.498
444.438
457.422
466.196
468.075
427.564
417.166
411.918
409.471
410.619
414.571
420.938
425.453
435.592
441.427
444.487
453.002
458.236
460.59
461.18
457.548
449.016
436.873
427.785
423.003
422.093
422.982
426.525
431.006
440.671
449.392
457.902
461.013
461.499
460.294
396.268
391.679
392.566
392.078
393.338
393.523
394.079
394.369
394.872
395.566
396.79
398.597
399.932
401.502
403.467
404.95
406.946
408.835
410.853
412.702
414.639
416.431
417.959
419.564
420.254
421.44
421.544
421.915
421.893
423.557
397.601
396.518
397.011
396.585
398.171
398.559
399.593
400.295
400.939
401.48
401.904
402.142
402.463
402.42
402.62
402.54
402.632
402.842
402.77
402.878
402.831
402.896
402.812
402.913
402.823
402.918
402.867
402.902
402.89
404.931
403.418
401.277
401.213
401.153
401.197
401.16
401.135
401.088
401.047
400.992
400.939
400.886
400.798
400.719
400.645
400.628
400.643
400.723
400.813
400.867
400.923
400.966
400.998
401.031
401.059
401.093
401.108
401.137
401.224
403.579
403.572
401.192
401.083
401.054
400.998
400.974
400.908
400.883
400.823
400.797
400.735
400.704
400.612
400.543
400.477
400.488
400.525
400.623
400.684
400.751
400.781
400.848
400.873
400.937
400.968
401.028
401.056
401.099
401.218
403.496
403.502
401.235
401.106
401.08
401.023
400.999
400.936
400.912
400.85
400.823
400.759
400.72
400.622
400.545
400.479
400.491
400.527
400.621
400.683
400.749
400.78
400.848
400.874
400.939
400.97
401.029
401.057
401.1
401.219
403.496
403.49
401.218
401.098
401.042
401.017
400.957
400.929
400.867
400.845
400.784
400.759
400.697
400.643
400.548
400.506
400.476
400.526
400.603
400.715
400.781
400.823
400.891
400.921
400.982
401.004
401.061
401.075
401.123
401.208
403.568
403.491
401.226
401.097
401.071
401.015
400.991
400.928
400.903
400.842
400.817
400.754
400.718
400.625
400.551
400.482
400.487
400.521
400.615
400.68
400.749
400.78
400.849
400.876
400.942
400.973
401.033
401.06
401.1
401.22
403.497
403.572
401.199
401.091
401.076
401.022
400.996
400.927
400.898
400.832
400.801
400.733
400.699
400.608
400.542
400.484
400.483
400.537
400.61
400.703
400.738
400.805
400.832
400.896
400.923
400.988
401.01
401.067
401.09
401.195
403.572
403.5
401.222
401.087
401.06
400.999
400.976
400.91
400.89
400.829
400.81
400.746
400.717
400.632
400.562
400.489
400.487
400.52
400.61
400.678
400.744
400.775
400.844
400.871
400.939
400.968
401.03
401.06
401.1
401.221
403.498
987.741
943.13
901.093
855.316
846.494
873.05
595.977
516.555
488.935
450.216
422.707
417.029
422.897
432.423
430.541
513.819
682.354
907.806
897.751
901.603
946.587
959.737
961.865
957.327
947.935
935.975
928.153
920.551
906.032
897.475
901.938
884.645
875.53
857.231
827.38
611.849
504.292
462.877
432.742
420.376
424.417
436.256
449.975
453.031
458.118
460.414
477.716
502.839
631.546
889.633
913.703
935.429
933.495
944.849
949.689
942.911
957.502
959.988
968.455
995.508
1028.38
1048.13
1087.97
646.999
550.87
489.314
463.474
438.16
424.119
421.709
425.723
439.079
457.235
465.939
408.937
401.849
406.355
415.382
426.481
438.386
444.943
446.86
444.791
446.189
448.429
450.095
458.977
470.244
480.43
488.269
491.963
487.769
470.856
448.506
432.402
424.275
420.544
419.071
418.164
418.14
425.827
436.757
447.827
452.56
381.049
385.386
387.656
393.156
396.179
398.455
397.283
395.012
392.391
390.035
389.051
387.421
386.836
385.027
384.554
382.939
383.459
381.983
382.885
381.555
382.313
381.171
381.975
381.231
382.432
382.673
384.838
385.696
387.439
387.09
366.788
367.781
368.526
368.342
368.366
367.971
368.202
367.303
367.927
366.958
367.554
366.716
367.236
366.599
366.925
366.473
366.324
366.289
365.84
365.764
365.599
365.559
365.219
365.42
365.032
365.23
364.936
365.103
364.933
363.062
361.874
363.912
364.042
364.016
364.075
364.064
364.149
364.147
364.223
364.224
364.299
364.304
364.402
364.441
364.518
364.504
364.499
364.392
364.332
364.252
364.221
364.159
364.143
364.102
364.084
364.051
364.037
364
363.899
361.704
361.697
363.915
364.015
364.06
364.093
364.124
364.162
364.195
364.227
364.262
364.299
364.341
364.411
364.488
364.535
364.538
364.49
364.416
364.343
364.3
364.26
364.221
364.186
364.152
364.113
364.081
364.045
364.012
363.916
361.692
361.692
363.895
364.002
364.043
364.071
364.103
364.137
364.171
364.203
364.241
364.28
364.33
364.404
364.488
364.535
364.537
364.489
364.418
364.345
364.302
364.261
364.222
364.186
364.152
364.112
364.079
364.044
364.011
363.916
361.692
361.691
363.912
364.019
364.062
364.093
364.125
364.161
364.192
364.224
364.256
364.293
364.333
364.398
364.471
364.523
364.539
364.508
364.425
364.332
364.271
364.241
364.191
364.152
364.118
364.085
364.055
364.031
363.994
363.89
361.693
361.693
363.907
364.009
364.05
364.077
364.109
364.143
364.177
364.209
364.245
364.283
364.33
364.4
364.483
364.532
364.54
364.494
364.423
364.348
364.304
364.262
364.221
364.185
364.149
364.109
364.076
364.039
364.01
363.914
361.692
361.694
363.912
364.011
364.034
364.071
364.106
364.147
364.184
364.221
364.261
364.302
364.347
364.414
364.488
364.539
364.538
364.491
364.413
364.344
364.298
364.258
364.22
364.185
364.151
364.112
364.081
364.046
364.011
363.916
361.695
361.694
363.911
364.02
364.061
364.09
364.121
364.154
364.186
364.216
364.249
364.286
364.33
364.392
364.472
364.526
364.543
364.5
364.43
364.353
364.31
364.268
364.226
364.188
364.151
364.112
364.077
364.041
364.011
363.916
361.693
958.606
878.443
823.492
788.178
773.837
798.275
719.748
687.265
686.609
551.971
458.564
418.049
411.318
417.784
445.712
699.604
946.024
982.46
1003.44
1010.85
1026.87
1032.33
1031.86
1023.04
1008.99
1001.06
1003.92
1003.44
1006.1
1006.35
1003.93
965.47
926.222
905.563
900.441
890.102
864.304
832.017
579.803
437.013
416.92
422.256
439.974
451.217
454.887
461.402
482.176
503.241
644.648
929.61
929.84
928.595
937.621
948.629
939.911
935.919
936.22
939.573
950.286
965.02
971.324
971.182
1025.45
1053.84
1047.1
687.361
515.134
480.951
454.691
430.451
421.206
425.078
442.502
459.99
399.674
400.122
412.535
428.112
439.32
442.509
436.878
423.14
420.201
412.511
420.581
422.652
434.722
447.708
461.107
475.993
492.219
504.854
510.704
501.612
476.894
454.093
438.58
430.512
423.795
418.572
416.406
417.902
426.802
436.584
388.314
398.863
411.266
421.594
428.678
432.939
432.758
427.373
417.579
408.891
402.434
398.372
395.054
392.67
389.831
387.825
386.201
384.574
384.055
383.083
382.68
381.95
381.622
381.001
380.617
380.486
380.142
380.093
380.075
379.755
370.727
370.834
370.154
369.817
369.51
369.024
368.648
368.321
367.644
367.721
366.914
367.106
366.403
366.549
365.958
366.076
365.539
365.679
365.228
365.163
365.085
364.834
364.763
364.724
364.475
364.569
364.342
364.421
364.271
363.953
363.122
363.405
363.399
363.432
363.374
363.4
363.353
363.369
363.327
363.342
363.307
363.319
363.291
363.301
363.285
363.283
363.271
363.263
363.253
363.247
363.24
363.235
363.23
363.228
363.222
363.224
363.216
363.219
363.189
362.806
362.796
363.178
363.203
363.208
363.207
363.212
363.21
363.216
363.213
363.219
363.217
363.222
363.222
363.23
363.229
363.233
363.227
363.226
363.219
363.22
363.215
363.216
363.211
363.213
363.207
363.21
363.204
363.204
363.176
362.803
362.802
363.177
363.201
363.208
363.206
363.211
363.209
363.214
363.213
363.217
363.216
363.221
363.222
363.23
363.229
363.232
363.227
363.226
363.219
363.22
363.215
363.216
363.211
363.214
363.207
363.21
363.204
363.204
363.176
362.803
362.803
363.176
363.205
363.204
363.21
363.208
363.214
363.211
363.217
363.215
363.22
363.218
363.225
363.225
363.232
363.229
363.231
363.222
363.222
363.216
363.213
363.216
363.21
363.212
363.206
363.209
363.204
363.205
363.176
362.794
362.803
363.176
363.201
363.208
363.206
363.211
363.209
363.214
363.213
363.218
363.216
363.222
363.222
363.229
363.229
363.233
363.227
363.226
363.219
363.22
363.215
363.216
363.211
363.213
363.207
363.21
363.204
363.204
363.176
362.803
362.793
363.177
363.203
363.208
363.206
363.211
363.209
363.215
363.213
363.219
363.216
363.222
363.222
363.229
363.229
363.229
363.23
363.222
363.222
363.216
363.218
363.213
363.215
363.209
363.211
363.206
363.208
363.201
363.177
362.794
362.802
363.177
363.202
363.209
363.207
363.212
363.211
363.216
363.213
363.218
363.216
363.222
363.221
363.229
363.228
363.232
363.226
363.226
363.219
363.221
363.216
363.217
363.212
363.214
363.209
363.21
363.205
363.205
363.176
362.802
897.098
841.723
808.878
796.083
790.229
773.607
770.195
782.966
768.419
711.608
676.157
488.985
417.499
407.724
477.402
878
1009.13
1033.99
1050.83
1059.81
1066.29
1068.57
1067.56
1064.59
1062.88
1067.87
1073.25
1076.12
1076.96
1077.4
1072.82
1055.19
1014.34
1000.39
996.911
1004.91
986.071
933.233
694.858
469.694
416.305
414.521
428.547
445.641
450.252
465.231
481.264
493.472
626.059
929.511
912.653
918.438
954.176
993.694
1002.95
993.402
981.133
968.904
970.419
966.088
949.765
951.476
966.722
1012.63
1052.03
1078.89
828.224
558.072
486.912
460.895
431.395
420.321
430.43
453.01
391.156
401.262
418.992
436.587
440.318
433.549
418.083
411.152
406.821
398.903
417.208
418.25
437.136
446.284
459.35
469.268
480.22
494.295
510.886
521.267
518.14
495.944
468.94
449.758
437.268
428.358
421.211
416.404
418.023
421.798
395.423
418.428
428.5
434.036
437.115
443.869
451.73
456.471
451.667
437.601
424.36
414.892
408.975
404.569
401.329
397.984
395.279
393.056
391.74
389.904
389.485
387.98
387.747
386.427
386.182
384.929
384.605
383.424
382.984
382.233
378.098
378.638
377.99
377.303
376.395
375.829
374.997
374.406
373.892
373.088
372.915
372.203
372.109
371.575
371.427
371.016
370.984
370.44
370.627
370.025
370.259
369.716
369.896
369.544
369.497
369.416
369.283
369.267
369.161
369.148
368.333
368.428
368.398
368.337
368.35
368.277
368.294
368.228
368.247
368.187
368.207
368.156
368.175
368.131
368.15
368.111
368.129
368.094
368.112
368.082
368.1
368.073
368.088
368.066
368.08
368.062
368.075
368.061
368.066
368.017
368.012
368.051
368.057
368.049
368.06
368.048
368.059
368.047
368.059
368.047
368.059
368.048
368.059
368.049
368.059
368.05
368.059
368.049
368.058
368.048
368.058
368.047
368.058
368.047
368.059
368.048
368.059
368.05
368.045
368.016
368.015
368.045
368.059
368.047
368.059
368.047
368.059
368.047
368.058
368.047
368.058
368.048
368.059
368.049
368.059
368.05
368.059
368.049
368.058
368.048
368.058
368.047
368.058
368.047
368.059
368.048
368.059
368.051
368.045
368.016
368.012
368.043
368.048
368.058
368.046
368.058
368.046
368.057
368.046
368.058
368.047
368.058
368.048
368.059
368.049
368.059
368.049
368.06
368.051
368.055
368.057
368.048
368.059
368.046
368.058
368.046
368.059
368.046
368.053
368.006
368.015
368.045
368.059
368.047
368.059
368.047
368.058
368.046
368.058
368.047
368.058
368.048
368.059
368.049
368.06
368.05
368.059
368.049
368.058
368.048
368.059
368.048
368.059
368.048
368.059
368.048
368.058
368.052
368.046
368.016
368.005
368.051
368.049
368.048
368.058
368.046
368.058
368.046
368.058
368.046
368.058
368.047
368.059
368.049
368.058
368.058
368.05
368.06
368.048
368.059
368.047
368.058
368.047
368.059
368.047
368.06
368.049
368.052
368.05
368.008
368.015
368.046
368.059
368.047
368.059
368.047
368.059
368.047
368.059
368.047
368.059
368.047
368.059
368.049
368.06
368.05
368.061
368.05
368.059
368.048
368.059
368.048
368.059
368.048
368.06
368.048
368.059
368.052
368.045
368.015
849.313
845.849
851.552
865.195
872.849
818.942
867.314
911.811
880.211
847.427
788.663
710.083
485.549
406.63
501.055
914.6
1016.75
1053.55
1066.86
1072.89
1075.31
1075.8
1077.69
1080.65
1086.46
1095.37
1103.38
1105.24
1106.31
1101.52
1093.73
1077.78
1062.24
1051.43
1050.06
1041.19
1019.31
981.299
921.01
644.933
441.504
417.973
424.088
443.381
448.675
461.421
482.388
483.084
592.583
929.689
901.852
904.363
972.499
1059.69
1085.96
1085.5
1076.8
1056.22
1033.79
1003.91
973.394
955.064
956.989
966.831
1027.01
1061.7
1092.22
926.95
605.347
496.789
455.666
425.936
422.507
442.812
394.62
407.547
426.909
438.331
436.036
424.278
407.343
402.522
408.257
404.264
426.684
430.803
451.829
461.932
475.385
483.783
490.393
494.232
502.23
516.431
528.413
528.068
508.525
480.931
458.582
443.415
431.98
422.451
418.445
418.314
406.213
425.005
425.844
419.966
420.472
430.164
444.364
460.907
470.403
467.477
453.007
437.699
426.865
420.21
414.86
411.845
406.745
404.913
400.948
400.193
397.415
396.771
395.068
394.003
392.735
391.439
390.217
388.932
387.592
386.222
390.328
391.231
389.648
387.474
386.083
384.375
383.541
382.231
381.436
380.692
379.668
379.555
378.475
378.497
377.713
377.519
377.23
376.734
376.744
376.235
376.279
375.863
375.844
375.589
375.468
375.329
375.164
375.108
374.953
374.58
374.203
374.437
374.386
374.359
374.259
374.269
374.184
374.185
374.119
374.119
374.07
374.07
374.033
374.031
374.008
374
373.988
373.977
373.973
373.96
373.964
373.946
373.956
373.939
373.948
373.936
373.943
373.934
373.915
373.542
373.535
373.901
373.925
373.923
373.928
373.923
373.926
373.923
373.925
373.922
373.925
373.922
373.926
373.923
373.926
373.923
373.926
373.922
373.925
373.921
373.925
373.922
373.926
373.922
373.926
373.923
373.926
373.922
373.897
373.53
373.529
373.899
373.925
373.923
373.926
373.921
373.925
373.921
373.924
373.921
373.925
373.922
373.925
373.923
373.926
373.923
373.926
373.922
373.925
373.921
373.925
373.922
373.926
373.921
373.926
373.923
373.926
373.922
373.897
373.53
373.527
373.894
373.921
373.926
373.922
373.925
373.921
373.925
373.921
373.924
373.921
373.924
373.922
373.925
373.922
373.926
373.923
373.926
373.924
373.923
373.924
373.922
373.926
373.921
373.925
373.921
373.925
373.92
373.9
373.531
373.528
373.899
373.926
373.923
373.926
373.921
373.925
373.921
373.925
373.921
373.924
373.921
373.925
373.923
373.926
373.923
373.926
373.922
373.925
373.922
373.925
373.922
373.926
373.922
373.926
373.923
373.925
373.922
373.898
373.53
373.531
373.899
373.92
373.922
373.924
373.921
373.925
373.921
373.925
373.921
373.925
373.921
373.926
373.923
373.925
373.925
373.924
373.927
373.922
373.926
373.921
373.925
373.922
373.925
373.922
373.926
373.923
373.92
373.899
373.532
373.528
373.899
373.925
373.923
373.926
373.922
373.926
373.922
373.925
373.921
373.925
373.922
373.927
373.924
373.928
373.925
373.928
373.925
373.927
373.923
373.926
373.923
373.927
373.923
373.927
373.922
373.925
373.923
373.897
373.529
864.012
904.627
937.884
964.468
984.313
941.002
991.925
1018.22
990.804
957.501
906.016
819.215
732.445
445.069
591.567
919.271
994.74
1043.55
1061.95
1071.24
1071.28
1069.48
1076.03
1086.04
1097.27
1109.31
1117.75
1123.72
1124.01
1121.6
1109
1093.27
1078.71
1070.92
1066.69
1059.5
1044.33
1012.75
981.314
935.455
560.763
431.738
418.795
435.605
445.867
461.721
475.794
479.008
565.945
952.609
891.599
890.162
975.675
1087.14
1112.06
1122.97
1120.07
1107.71
1086.49
1056.49
1015.08
989.101
969.617
967.967
987.651
1045
1072.02
1105.89
1105.86
772.71
518.798
446.893
423.404
433.523
398
415.094
434.038
438.415
434.47
423.326
417.47
414.957
415.948
424.637
440.845
453.784
485.985
497.171
505.455
500.982
506.776
509.322
509.76
513.292
523.653
534.52
534.942
517.997
490.705
467.62
450.456
436.738
425.709
419.641
411.106
420.934
415.49
405.588
405.922
416.666
430.795
451.417
471.26
481.914
477.574
463.396
448.899
438.941
432.249
427.349
422.111
419.452
414.918
413.03
410.084
408.694
406.841
405.537
403.884
402.375
400.363
398.169
395.297
391.648
405.852
407.973
405.96
402.106
399.089
397.087
395.155
394.104
392.563
392.077
390.784
390.429
389.625
389.047
388.729
388.249
387.848
387.692
387.178
387.158
386.709
386.711
386.275
386.349
385.937
385.994
385.639
385.631
385.359
385.362
385.262
385.109
385.008
384.915
384.861
384.75
384.766
384.658
384.677
384.588
384.607
384.537
384.555
384.499
384.515
384.469
384.483
384.446
384.46
384.43
384.444
384.418
384.426
384.41
384.415
384.405
384.408
384.401
384.408
384.517
384.513
384.391
384.389
384.39
384.393
384.387
384.391
384.385
384.389
384.383
384.388
384.383
384.387
384.383
384.387
384.383
384.387
384.383
384.387
384.383
384.388
384.384
384.389
384.385
384.391
384.387
384.39
384.386
384.388
384.501
384.5
384.39
384.391
384.387
384.391
384.385
384.389
384.383
384.388
384.383
384.387
384.383
384.387
384.384
384.387
384.384
384.386
384.383
384.387
384.383
384.388
384.384
384.389
384.385
384.391
384.386
384.39
384.386
384.388
384.501
384.495
384.384
384.387
384.391
384.387
384.39
384.384
384.388
384.383
384.387
384.382
384.387
384.383
384.386
384.383
384.386
384.383
384.387
384.386
384.384
384.386
384.385
384.389
384.384
384.39
384.386
384.39
384.385
384.391
384.506
384.498
384.389
384.391
384.387
384.391
384.384
384.388
384.383
384.388
384.383
384.387
384.383
384.387
384.383
384.386
384.383
384.386
384.383
384.387
384.383
384.389
384.385
384.389
384.385
384.391
384.386
384.389
384.387
384.389
384.501
384.506
384.389
384.384
384.385
384.389
384.385
384.389
384.384
384.389
384.384
384.388
384.383
384.387
384.383
384.385
384.384
384.384
384.387
384.383
384.388
384.383
384.389
384.384
384.389
384.385
384.391
384.387
384.383
384.388
384.507
384.499
384.39
384.392
384.387
384.392
384.385
384.39
384.383
384.39
384.383
384.388
384.382
384.387
384.384
384.387
384.384
384.386
384.383
384.387
384.383
384.388
384.383
384.389
384.384
384.39
384.385
384.388
384.386
384.386
384.497
937.749
985.222
1012.2
1033.83
1045.24
1045.21
1055.04
1053.71
1036.31
1015.81
976.818
906.744
798.7
462.11
915.866
914.742
929.951
967.805
1019.4
1054.62
1056.99
1039.45
1047.89
1075.05
1092.4
1106.3
1118.5
1127.4
1134.25
1133.99
1128.29
1113.06
1099.55
1086.79
1080.23
1072.49
1064.7
1046.37
1016.1
971.707
887.631
531.702
429.488
434.689
441.017
460.423
475.203
481.163
567.289
996.559
914.472
883.216
956.823
1085.47
1119.33
1133.06
1141.36
1135.4
1111.75
1083.23
1056.69
1029.63
1008.61
989.359
989.664
1017.81
1059.78
1081.98
1103.88
1111.04
763.185
501.781
433.462
429.093
404.539
420.538
439.268
444.246
441.445
435.368
428.089
423.527
432.305
441.278
472.43
535.214
612.693
668.881
635.409
569.84
526.746
520.482
520.722
520.909
523.517
531.12
540.417
540.036
524.993
499.32
475.37
455.758
436.63
423.274
420.156
416.703
402.235
401.803
402.433
415.466
429.609
449.205
468.835
485.679
490.992
484.302
471.417
459.651
451.412
445.172
439.521
436.237
430.152
429.045
423.759
423.076
419.407
418.348
415.228
413.659
410.239
407.785
402.771
398.425
413.251
421.84
423.423
419.577
414.739
410.986
408.796
406.826
405.145
404.096
402.712
401.98
400.917
400.555
399.481
399.5
398.508
398.537
397.796
397.766
397.16
397.231
396.654
396.696
396.256
396.178
395.849
395.712
395.379
395.302
396.191
395.613
395.474
395.225
395.181
395.035
394.983
394.924
394.862
394.825
394.779
394.75
394.722
394.697
394.683
394.656
394.653
394.628
394.631
394.61
394.615
394.595
394.602
394.583
394.591
394.574
394.578
394.56
394.565
394.685
394.681
394.55
394.55
394.557
394.563
394.563
394.566
394.563
394.564
394.563
394.564
394.563
394.563
394.563
394.563
394.563
394.563
394.563
394.564
394.563
394.563
394.562
394.564
394.563
394.563
394.559
394.556
394.547
394.547
394.67
394.67
394.548
394.549
394.555
394.56
394.56
394.563
394.561
394.563
394.562
394.564
394.563
394.563
394.563
394.563
394.562
394.563
394.562
394.563
394.562
394.563
394.562
394.564
394.562
394.563
394.558
394.555
394.547
394.547
394.67
394.666
394.543
394.548
394.556
394.559
394.561
394.562
394.563
394.561
394.562
394.562
394.563
394.562
394.562
394.562
394.563
394.562
394.565
394.565
394.563
394.563
394.563
394.564
394.562
394.562
394.558
394.555
394.546
394.547
394.675
394.668
394.547
394.549
394.555
394.56
394.56
394.563
394.561
394.562
394.562
394.563
394.563
394.563
394.563
394.563
394.563
394.563
394.563
394.564
394.563
394.564
394.563
394.565
394.563
394.563
394.559
394.554
394.547
394.547
394.67
394.675
394.547
394.546
394.553
394.558
394.56
394.563
394.562
394.564
394.562
394.564
394.562
394.563
394.563
394.562
394.562
394.563
394.564
394.563
394.564
394.562
394.563
394.563
394.564
394.561
394.56
394.556
394.545
394.546
394.676
394.671
394.548
394.55
394.555
394.56
394.561
394.564
394.563
394.564
394.563
394.563
394.563
394.565
394.564
394.565
394.564
394.564
394.563
394.564
394.563
394.564
394.563
394.564
394.562
394.562
394.556
394.549
394.532
394.508
394.631
1019.54
1039.85
1053.76
1063.59
1066.77
1069.36
1072.62
1071.4
1059.88
1034.7
992.446
945.211
866.494
523.995
758.167
799.436
842.035
893.87
934.267
967.901
1001.6
1030.61
1028.98
1003.98
999.925
1030.18
1069.07
1091.52
1104.91
1120.11
1131.81
1141.66
1141.37
1134.42
1119.2
1107.17
1093.35
1085.32
1076.24
1069.14
1037.48
983.796
913.785
787.148
455.469
434.762
434.124
425.813
441.527
462.359
477.087
481.745
535.422
1052.25
949.114
888.276
928.767
1068.44
1110.82
1133.78
1143.58
1146.12
1138.99
1109.47
1078.6
1057.55
1046.94
1029
1012.39
1019.57
1045.71
1067.62
1094.55
1110.87
1110.71
780.508
489.26
424.759
408.97
409.341
410.83
422.035
431.135
436.283
435.542
429.535
429.618
429.731
446.44
473.836
558.938
755.416
907.347
1064.08
958.999
740.905
588.615
530.585
527.064
528.363
530.222
532.016
538.043
544.345
543.343
530.95
506.724
480.995
453.162
422.975
392.812
396.457
396.522
395.368
402.619
401.621
413.158
423.951
439.624
457.773
474.05
488.764
497.383
497.52
490.045
479.974
470.933
464.82
458.424
454.05
449.281
446.316
441.348
440.342
436.534
435.317
432.213
430.02
426.633
422.016
416.663
407.158
405.238
410.622
420.759
432.279
438.483
436.305
431.591
427.7
424.825
423.442
421.329
420.609
418.832
418.535
416.971
417.012
415.683
415.686
414.783
414.716
413.962
414.057
413.277
413.438
412.806
412.845
412.368
412.326
411.911
411.683
411.355
411.232
412.564
412.498
412.815
411.829
411.651
411.327
411.288
411.099
411.086
410.928
410.965
410.82
410.86
410.75
410.779
410.703
410.717
410.662
410.677
410.631
410.644
410.607
410.618
410.589
410.595
410.573
410.575
410.556
410.556
410.544
410.598
411.221
411.796
411.794
411.225
410.585
410.533
410.534
410.537
410.539
410.542
410.542
410.542
410.541
410.542
410.542
410.543
410.542
410.543
410.542
410.543
410.542
410.542
410.54
410.541
410.54
410.542
410.539
410.538
410.533
410.53
410.529
410.579
411.21
411.787
411.786
411.211
410.581
410.531
410.529
410.533
410.536
410.54
410.539
410.541
410.539
410.541
410.541
410.542
410.542
410.542
410.542
410.542
410.541
410.542
410.54
410.541
410.54
410.542
410.539
410.538
410.533
410.529
410.529
410.579
411.21
411.786
411.787
411.207
410.576
410.531
410.531
410.533
410.537
410.538
410.541
410.539
410.54
410.54
410.542
410.542
410.542
410.542
410.543
410.542
410.544
410.544
410.54
410.54
410.541
410.541
410.539
410.537
410.532
410.53
410.53
410.581
411.214
411.786
411.786
411.209
410.58
410.532
410.529
410.533
410.535
410.539
410.539
410.54
410.539
410.541
410.541
410.542
410.542
410.542
410.542
410.542
410.542
410.542
410.541
410.542
410.541
410.543
410.54
410.538
410.533
410.529
410.53
410.58
411.21
411.786
411.786
411.214
410.578
410.528
410.527
410.532
410.536
410.54
410.54
410.541
410.54
410.542
410.541
410.542
410.542
410.541
410.542
410.542
410.542
410.541
410.542
410.54
410.541
410.54
410.54
410.536
410.534
410.53
410.528
410.578
411.214
411.786
411.786
411.211
410.582
410.533
410.53
410.534
410.536
410.541
410.54
410.541
410.539
410.54
410.539
410.54
410.541
410.542
410.542
410.543
410.542
410.543
410.541
410.541
410.539
410.541
410.536
410.536
410.531
410.527
410.528
410.579
411.207
411.75
411.277
1063.94
1074.22
1082.11
1084.36
1082.08
1083.2
1087.74
1091.11
1085.39
1074.08
1016.8
950.165
885.938
808.504
756.644
756.206
781.763
873.866
978.452
1003.72
1005.08
1010.71
1002.89
990.677
992.601
1005.2
1030.75
1063.86
1087.62
1106.7
1126.94
1141.33
1149.87
1147.49
1139.78
1125.42
1110.93
1096.4
1088.15
1075.46
1018.99
933.81
883.445
854.926
471.012
454.984
454.39
447.209
456.076
472.458
487.822
497.394
523.35
1059.4
999.557
912.678
900.795
980.151
1089.05
1124.03
1139.84
1148.77
1150.83
1138.93
1105.86
1078.38
1065.94
1059.33
1048.9
1039.76
1042.09
1055.72
1077.62
1101.09
1109.25
1111.6
832.293
528.241
440.218
423.589
419.371
415.707
417.274
419.708
424.05
429.438
433.634
445.224
490.458
561.162
772.277
1119.38
1122.02
1134.47
1118.45
986.58
691.013
556.999
530.657
532.533
534.928
536.615
538.963
542.87
547.024
543.98
533.272
510.902
484.459
455.621
405.819
406.968
411.287
414.604
411.025
422.233
428.911
445.218
458.228
472.894
484.446
494.735
501.9
504.817
502.497
496.343
489.096
483.031
476.095
472.327
467.788
462.87
459.219
457.312
452.779
451.807
447.509
446.143
441.778
439.61
434.104
428.785
421.967
428.679
434.259
445.896
451.216
449.646
446.509
442.953
440.907
438.653
437.221
435.578
434.056
433.483
431.878
431.618
430.318
430.294
429.091
429.248
428.158
428.366
427.455
427.536
426.914
426.842
426.376
426.285
425.84
425.737
425.375
425.197
425.818
426.055
426.022
425.66
425.509
425.304
425.165
425.052
424.975
424.866
424.832
424.719
424.746
424.634
424.656
424.573
424.604
424.528
424.555
424.503
424.515
424.478
424.489
424.458
424.471
424.444
424.451
424.429
424.434
424.425
424.438
424.5
425.123
425.118
424.503
424.426
424.419
424.416
424.419
424.421
424.425
424.426
424.427
424.426
424.427
424.428
424.429
424.429
424.428
424.428
424.429
424.428
424.427
424.426
424.425
424.424
424.424
424.422
424.419
424.414
424.412
424.413
424.422
424.49
425.11
425.11
424.49
424.423
424.415
424.412
424.414
424.418
424.422
424.423
424.424
424.425
424.426
424.427
424.428
424.428
424.428
424.428
424.428
424.427
424.427
424.425
424.425
424.424
424.423
424.422
424.419
424.414
424.412
424.413
424.422
424.49
425.11
425.11
424.489
424.42
424.415
424.413
424.414
424.418
424.422
424.424
424.424
424.424
424.426
424.427
424.427
424.429
424.428
424.428
424.428
424.429
424.428
424.425
424.424
424.426
424.424
424.422
424.418
424.414
424.412