/*--------------------------------*- C++ -*----------------------------------*\
| =========                 |                                                 |
| \\      /  F ield         | OpenFOAM: The Open Source CFD Toolbox           |
|  \\    /   O peration     | Version:  2.1.1                                 |
|   \\  /    A nd           | Web:      www.OpenFOAM.org                      |
|    \\/     M anipulation  |                                                 |
\*---------------------------------------------------------------------------*/
FoamFile
{
    version     2.0;
    format      ascii;
    class       volScalarField;
    location    "0.002200000";
    object      H2O2;
}
// * * * * * * * * * * * * * * * * * * * * * * * * * * * * * * * * * * * * * //

dimensions      [0 0 0 0 0 0 0];

internalField   nonuniform List<scalar> 
12384
(
3.46099e-07
3.46237e-07
3.36451e-07
3.39771e-07
3.73508e-07
3.08317e-07
3.59621e-07
2.84301e-08
5.79262e-10
1.03341e-10
9.4164e-12
2.43834e-13
7.41893e-15
2.18996e-16
2.89239e-12
4.78915e-11
1.70246e-10
1.2501e-09
6.22533e-09
1.9894e-08
2.61287e-08
3.31852e-08
3.23321e-08
3.15426e-08
3.07543e-08
2.9775e-08
2.6027e-08
2.37258e-08
2.09041e-08
1.80705e-08
1.28995e-08
9.14786e-09
3.4991e-09
9.67789e-10
1.66039e-10
3.23412e-11
1.77536e-11
1.25542e-11
4.37513e-12
3.42664e-14
1.90148e-16
1.01827e-18
6.01676e-21
3.28122e-23
4.52506e-19
2.68758e-16
3.1657e-13
2.54501e-10
6.67974e-09
2.20677e-08
3.99389e-08
4.36176e-08
4.18072e-08
4.04355e-08
3.63636e-08
3.19304e-08
2.46203e-08
1.5955e-08
4.40823e-09
2.15368e-09
9.65763e-10
2.63685e-10
2.72863e-11
8.10946e-13
2.98173e-14
2.97885e-16
1.234e-18
3.30303e-21
9.77567e-24
2.7734e-26
7.26652e-29
1.72842e-31
6.29536e-34
3.15912e-33
9.1881e-39
1.23329e-36
2.6566e-34
2.29705e-33
4.65102e-33
5.52559e-33
6.78288e-33
1.70557e-32
6.25337e-32
3.07662e-31
1.81558e-30
9.0368e-30
3.61745e-29
8.38555e-29
2.99148e-29
9.31129e-31
6.90214e-34
3.26964e-37
8.5412e-41
1.51036e-44
3.01288e-48
6.33601e-52
1.30096e-55
2.54838e-59
4.71697e-63
1.11725e-66
2.4615e-70
6.42451e-74
1.66725e-77
4.31458e-81
1.21677e-99
5.9567e-101
6.43168e-104
4.82659e-107
2.68791e-110
1.32881e-112
2.59152e-115
2.29096e-118
1.20303e-121
4.57165e-125
1.02442e-128
2.24779e-132
4.78758e-136
1.02171e-139
2.17791e-143
4.74113e-147
1.01924e-150
2.12107e-154
4.4993e-158
8.44807e-162
1.81987e-165
3.30006e-169
8.26998e-173
1.17758e-178
2.00675e-184
1.08196e-189
2.1551e-194
1.37669e-198
7.92235e-204
1.33505e-209
6.18527e-228
6.65172e-230
5.87549e-235
2.88679e-240
9.60594e-246
2.59492e-251
6.55059e-257
1.61492e-262
3.755e-268
8.44467e-274
1.81338e-279
3.60044e-285
6.62059e-291
1.12914e-296
1.79544e-302
2.69727e-308
3.85398e-314
5.32603e-320
0
0
0
0
0
0
0
0
0
0
0
0
0
0
0
0
0
0
0
0
0
0
0
0
0
0
0
0
0
0
0
0
0
0
0
0
0
0
0
0
0
0
0
0
0
0
0
0
0
0
0
0
0
0
0
0
0
0
0
0
0
0
0
0
0
0
0
0
0
0
0
0
0
0
0
0
0
0
0
0
0
0
0
0
0
0
0
0
0
0
0
0
0
0
0
0
0
0
0
0
0
0
0
0
0
0
0
0
0
0
0
0
0
0
0
0
0
0
0
0
0
0
0
0
0
0
0
0
0
0
0
0
0
0
0
0
0
0
0
0
0
0
0
0
0
0
0
0
0
0
0
0
0
0
0
0
0
0
0
0
0
0
0
0
0
0
0
0
0
0
0
0
0
0
0
0
0
0
0
0
0
0
0
0
0
0
0
0
0
0
0
0
0
0
0
0
0
0
0
0
0
0
0
0
0
0
0
0
0
0
0
0
0
0
0
0
0
0
0
0
0
0
3.50594e-07
3.43369e-07
3.19936e-07
3.02231e-07
2.67737e-07
3.21762e-07
8.20883e-08
8.88341e-09
2.40645e-09
7.41886e-10
1.93748e-10
5.86913e-12
3.87578e-13
9.56076e-15
8.86833e-11
1.35449e-09
7.882e-09
2.63764e-08
7.0069e-08
1.64349e-07
1.72232e-07
1.96372e-07
1.84663e-07
1.81933e-07
1.76634e-07
1.74997e-07
1.65908e-07
1.58721e-07
1.51828e-07
1.46964e-07
1.30486e-07
1.19898e-07
3.89076e-08
1.61693e-08
7.43743e-09
1.7487e-09
3.76179e-10
1.11069e-10
5.09844e-11
4.71463e-13
7.01889e-15
4.9072e-17
1.87863e-19
1.11819e-21
7.07403e-18
5.32624e-15
6.13313e-12
4.59121e-09
4.44296e-08
8.6563e-08
2.76422e-07
3.37096e-07
3.88683e-07
4.06336e-07
3.97362e-07
4.00727e-07
3.91216e-07
3.53561e-07
1.0314e-07
2.94495e-08
8.55737e-09
2.57463e-09
1.09617e-09
1.95669e-10
3.78589e-11
7.09351e-13
5.50538e-16
4.05696e-19
3.67022e-22
1.74496e-24
6.66883e-27
4.07369e-29
2.82889e-31
1.70512e-30
2.57679e-36
1.43148e-34
2.47056e-32
2.93489e-31
1.08566e-30
2.96962e-30
6.23811e-30
2.0108e-29
7.3564e-29
2.55933e-28
1.41844e-27
6.455e-27
3.86208e-26
1.28366e-25
1.07099e-25
9.22901e-27
1.08241e-29
2.29197e-33
1.32386e-37
9.9667e-43
8.52094e-47
1.10906e-51
1.14507e-54
3.30283e-58
1.23654e-61
3.49812e-65
8.79589e-69
1.56434e-72
3.48141e-76
8.60528e-80
7.30266e-97
1.62124e-98
1.71463e-101
1.23089e-104
7.11128e-108
3.43764e-110
5.62661e-113
4.98261e-116
2.24984e-119
9.91733e-123
7.27415e-127
1.00869e-130
1.98349e-134
5.63848e-138
1.61495e-141
4.55439e-145
1.22395e-148
3.32263e-152
8.73379e-156
2.21771e-159
5.54754e-163
1.35297e-166
3.56237e-169
9.12072e-173
1.81149e-178
1.316e-183
3.31043e-188
2.09254e-192
1.20251e-197
1.56616e-203
1.12479e-221
1.28054e-223
1.15598e-228
5.69374e-234
1.82923e-239
4.70049e-245
1.09744e-250
2.50706e-256
5.59291e-262
1.27121e-267
2.70423e-273
5.25449e-279
9.55189e-285
1.58023e-290
2.4613e-296
3.52634e-302
4.88362e-308
6.26971e-314
7.99201e-320
0
0
0
0
0
0
0
0
0
0
0
0
0
0
0
0
0
0
0
0
0
0
0
0
0
0
0
0
0
0
0
0
0
0
0
0
0
0
0
0
0
0
0
0
0
0
0
0
0
0
0
0
0
0
0
0
0
0
0
0
0
0
0
0
0
0
0
0
0
0
0
0
0
0
0
0
0
0
0
0
0
0
0
0
0
0
0
0
0
0
0
0
0
0
0
0
0
0
0
0
0
0
0
0
0
0
0
0
0
0
0
0
0
0
0
0
0
0
0
0
0
0
0
0
0
0
0
0
0
0
0
0
0
0
0
0
0
0
0
0
0
0
0
0
0
0
0
0
0
0
0
0
0
0
0
0
0
0
0
0
0
0
0
0
0
0
0
0
0
0
0
0
0
0
0
0
0
0
0
0
0
0
0
0
0
0
0
0
0
0
0
0
0
0
0
0
0
0
0
0
0
0
0
0
0
0
0
0
0
0
0
0
0
0
0
0
0
0
0
0
0
3.38445e-07
2.30673e-07
1.38989e-07
6.4151e-08
5.98547e-08
1.04802e-07
1.9428e-08
4.89003e-09
2.51294e-09
1.46394e-09
5.37744e-10
3.24263e-11
5.33597e-12
3.01419e-13
4.32779e-10
1.1562e-08
4.47211e-08
1.53775e-07
1.27402e-07
1.3069e-07
2.41856e-07
2.92308e-07
3.15e-07
3.04484e-07
2.50336e-07
2.11467e-07
1.94415e-07
1.75265e-07
1.41868e-07
1.26492e-07
1.35796e-07
1.05566e-07
9.29215e-08
6.9078e-08
4.43488e-08
1.45756e-08
6.24741e-09
2.03661e-09
4.74129e-10
1.78509e-11
3.29412e-14
3.6758e-16
1.67511e-18
5.16818e-21
1.35055e-17
1.42118e-14
1.73879e-11
1.05068e-08
5.08457e-08
1.70466e-07
1.83899e-07
2.19774e-07
2.24058e-07
2.71179e-07
2.97026e-07
2.83057e-07
3.32621e-07
3.36724e-07
3.49714e-07
4.02234e-07
3.31181e-07
1.65427e-07
6.81731e-08
2.63413e-09
3.04503e-10
5.06186e-11
4.32965e-12
4.45692e-14
1.2929e-18
3.74148e-22
3.77957e-25
8.30566e-27
2.05083e-28
9.31476e-28
2.35152e-34
9.02341e-33
8.34777e-30
4.54205e-28
2.69562e-27
1.3993e-27
3.30428e-28
6.76326e-28
2.61806e-27
3.95351e-26
6.14135e-25
4.145e-24
2.93407e-23
5.29224e-23
1.41702e-23
4.3085e-25
4.73671e-28
7.89385e-31
4.3667e-33
6.14891e-36
1.93663e-40
3.55731e-46
1.38259e-50
3.47716e-55
2.38213e-60
6.96138e-65
4.47395e-67
5.78526e-70
3.37817e-73
1.43912e-76
3.72419e-94
7.10486e-95
1.86499e-97
3.32596e-100
3.47523e-103
1.51055e-105
2.56398e-108
1.25006e-111
3.15715e-115
4.37051e-119
3.4378e-124
4.4397e-128
7.89896e-132
1.12207e-135
2.21596e-139
3.52608e-143
8.27473e-147
1.37392e-150
3.4746e-154
5.78203e-158
1.50081e-161
2.56392e-165
1.25545e-167
2.19258e-171
7.81824e-175
1.0456e-179
8.81379e-184
4.95633e-188
5.33316e-193
6.70632e-199
5.3028e-218
8.69325e-220
9.72023e-225
3.62682e-230
1.27871e-235
2.21033e-241
6.00008e-247
9.09972e-253
2.53833e-258
4.43256e-264
1.20051e-269
2.01605e-275
4.39274e-281
6.97467e-287
1.16091e-292
1.67308e-298
2.19164e-304
2.88516e-310
3.26107e-316
4.05134e-322
0
0
0
0
0
0
0
0
0
0
0
0
0
0
0
0
0
0
0
0
0
0
0
0
0
0
0
0
0
0
0
0
0
0
0
0
0
0
0
0
0
0
0
0
0
0
0
0
0
0
0
0
0
0
0
0
0
0
0
0
0
0
0
0
0
0
0
0
0
0
0
0
0
0
0
0
0
0
0
0
0
0
0
0
0
0
0
0
0
0
0
0
0
0
0
0
0
0
0
0
0
0
0
0
0
0
0
0
0
0
0
0
0
0
0
0
0
0
0
0
0
0
0
0
0
0
0
0
0
0
0
0
0
0
0
0
0
0
0
0
0
0
0
0
0
0
0
0
0
0
0
0
0
0
0
0
0
0
0
0
0
0
0
0
0
0
0
0
0
0
0
0
0
0
0
0
0
0
0
0
0
0
0
0
0
0
0
0
0
0
0
0
0
0
0
0
0
0
0
0
0
0
0
0
0
0
0
0
0
0
0
0
0
0
0
0
0
0
0
0
2.68094e-07
8.3373e-08
2.82953e-08
1.1821e-08
9.87587e-09
1.95194e-08
1.80487e-09
6.03767e-10
6.17374e-10
6.09757e-10
6.62795e-10
2.08553e-10
3.6833e-11
2.74266e-12
1.26017e-09
4.12748e-08
2.34291e-07
3.40762e-07
4.35577e-07
4.76208e-07
4.66257e-07
4.50321e-07
4.52774e-07
4.8297e-07
4.96111e-07
4.73947e-07
4.64942e-07
4.5297e-07
4.70594e-07
4.71832e-07
4.72512e-07
3.45609e-07
1.82988e-07
1.34664e-07
1.28185e-07
1.13593e-07
7.20218e-08
3.54947e-08
3.10249e-09
4.10179e-10
5.90519e-14
6.27986e-16
2.00032e-17
1.6847e-19
2.08101e-17
2.44446e-14
2.39845e-11
1.07719e-08
7.31275e-08
2.56492e-07
2.2203e-07
1.91286e-07
1.97811e-07
2.27156e-07
2.31448e-07
2.30008e-07
2.38373e-07
2.57986e-07
2.88483e-07
3.36911e-07
3.61622e-07
3.59409e-07
4.03275e-07
3.70672e-08
8.67292e-09
5.08927e-10
6.55092e-11
3.77906e-12
6.26906e-13
1.53993e-16
1.97951e-21
1.69571e-24
8.08009e-26
6.26201e-25
4.07142e-32
7.96794e-30
8.61982e-27
1.76402e-25
1.04785e-25
7.21338e-26
1.62831e-25
1.79168e-24
7.5647e-24
4.23802e-23
8.30111e-22
7.85505e-21
2.71371e-19
1.44238e-18
2.68441e-19
2.95834e-21
8.30609e-25
2.40504e-28
1.25744e-31
2.16027e-34
1.35509e-36
3.18945e-39
1.48565e-43
2.50446e-48
5.77275e-54
7.04579e-59
8.19417e-64
1.81598e-67
1.58143e-70
2.23299e-73
1.66815e-88
6.50147e-89
1.35418e-91
7.60592e-95
2.04018e-98
4.01345e-101
1.33059e-103
3.11494e-106
2.13396e-109
4.40546e-113
5.3364e-117
6.11078e-121
6.54685e-125
8.13627e-129
8.90352e-133
1.23125e-136
1.82665e-140
3.30655e-144
4.92596e-148
9.88286e-152
1.78622e-155
3.60903e-159
6.48794e-163
1.25232e-166
2.17102e-170
3.85039e-174
3.1569e-178
7.24723e-183
6.22215e-188
7.56663e-194
3.64906e-211
3.60685e-213
1.38451e-218
5.12652e-224
1.1247e-229
2.52577e-235
4.18637e-241
8.67422e-247
1.47466e-252
3.64095e-258
6.84765e-264
1.53757e-269
2.59885e-275
4.94343e-281
7.31576e-287
1.15721e-292
1.49311e-298
2.00363e-304
2.29399e-310
2.71019e-316
2.91499e-322
0
0
0
0
0
0
0
0
0
0
0
0
0
0
0
0
0
0
0
0
0
0
0
0
0
0
0
0
0
0
0
0
0
0
0
0
0
0
0
0
0
0
0
0
0
0
0
0
0
0
0
0
0
0
0
0
0
0
0
0
0
0
0
0
0
0
0
0
0
0
0
0
0
0
0
0
0
0
0
0
0
0
0
0
0
0
0
0
0
0
0
0
0
0
0
0
0
0
0
0
0
0
0
0
0
0
0
0
0
0
0
0
0
0
0
0
0
0
0
0
0
0
0
0
0
0
0
0
0
0
0
0
0
0
0
0
0
0
0
0
0
0
0
0
0
0
0
0
0
0
0
0
0
0
0
0
0
0
0
0
0
0
0
0
0
0
0
0
0
0
0
0
0
0
0
0
0
0
0
0
0
0
0
0
0
0
0
0
0
0
0
0
0
0
0
0
0
0
0
0
0
0
0
0
0
0
0
0
0
0
0
0
0
0
0
0
0
0
0
1.13299e-07
3.84405e-08
1.74921e-08
1.20253e-08
1.11768e-08
9.69083e-09
8.52092e-09
9.84879e-09
6.55368e-09
1.38479e-09
4.8328e-10
3.93086e-10
1.53543e-10
1.05708e-11
4.50008e-09
9.3069e-08
3.778e-07
3.92085e-07
2.60154e-07
1.97403e-07
1.34999e-07
1.19206e-07
1.16472e-07
1.27248e-07
1.35138e-07
1.05073e-07
6.08947e-08
5.52834e-08
4.66982e-08
4.82159e-08
6.3264e-08
2.71505e-07
4.92571e-07
5.00961e-07
4.80805e-07
4.70444e-07
3.43792e-07
2.00484e-07
2.42546e-08
2.09087e-09
3.92437e-12
1.44704e-16
3.12688e-17
1.42787e-17
1.48263e-17
2.03418e-14
1.23447e-11
5.50085e-09
6.89368e-08
2.54451e-07
1.75482e-07
1.44437e-07
2.33955e-07
3.86837e-07
3.82284e-07
3.46935e-07
3.2487e-07
3.08526e-07
3.20397e-07
3.23167e-07
2.86972e-07
2.90376e-07
3.4942e-07
3.98625e-07
5.11157e-08
3.08152e-09
3.69155e-10
8.90726e-11
8.6217e-12
6.23615e-12
1.16924e-15
3.11534e-21
2.49571e-23
3.89262e-22
3.70637e-29
1.50551e-26
2.85807e-24
6.01214e-24
8.77611e-24
4.0026e-23
1.82319e-22
4.2803e-22
1.18882e-21
1.1786e-20
9.58971e-19
8.58034e-18
5.05889e-16
2.7052e-15
1.02951e-15
1.83549e-17
6.68445e-21
1.20689e-24
1.77573e-28
4.59801e-32
4.05305e-35
1.68253e-37
1.69329e-39
4.71167e-43
1.73446e-47
4.21733e-52
2.78856e-57
3.97454e-63
2.31158e-67
1.34862e-70
2.34223e-83
1.88747e-84
2.47525e-88
5.16791e-92
1.17682e-95
1.67255e-98
2.63708e-101
2.62727e-104
4.48934e-107
1.74327e-109
2.97486e-112
6.59458e-116
1.06206e-119
1.51511e-123
2.41557e-127
3.57454e-131
6.0132e-135
9.72833e-139
1.91352e-142
3.45793e-146
6.46921e-150
1.21944e-153
2.4011e-157
4.24455e-161
7.24302e-165
1.14288e-168
1.70885e-172
1.78525e-176
1.45898e-181
2.34154e-187
5.52331e-204
3.08725e-206
9.66907e-212
1.85282e-217
3.27836e-223
4.8488e-229
8.38731e-235
1.37968e-240
3.02507e-246
5.9713e-252
1.53323e-257
2.80744e-263
6.86974e-269
1.14669e-274
2.24119e-280
3.35963e-286
5.4371e-292
6.87412e-298
9.27478e-304
1.01437e-309
1.17943e-315
1.17094e-321
0
0
0
0
0
0
0
0
0
0
0
0
0
0
0
0
0
0
0
0
0
0
0
0
0
0
0
0
0
0
0
0
0
0
0
0
0
0
0
0
0
0
0
0
0
0
0
0
0
0
0
0
0
0
0
0
0
0
0
0
0
0
0
0
0
0
0
0
0
0
0
0
0
0
0
0
0
0
0
0
0
0
0
0
0
0
0
0
0
0
0
0
0
0
0
0
0
0
0
0
0
0
0
0
0
0
0
0
0
0
0
0
0
0
0
0
0
0
0
0
0
0
0
0
0
0
0
0
0
0
0
0
0
0
0
0
0
0
0
0
0
0
0
0
0
0
0
0
0
0
0
0
0
0
0
0
0
0
0
0
0
0
0
0
0
0
0
0
0
0
0
0
0
0
0
0
0
0
0
0
0
0
0
0
0
0
0
0
0
0
0
0
0
0
0
0
0
0
0
0
0
0
0
0
0
0
0
0
0
0
0
0
0
0
0
0
0
0
4.37311e-08
5.27633e-08
6.58524e-08
8.78873e-08
8.60213e-08
2.35632e-08
5.70434e-08
1.11694e-07
6.71243e-08
4.20283e-08
1.4324e-08
1.50992e-09
6.60834e-10
3.81237e-11
9.25383e-09
1.73849e-07
3.81267e-07
2.05733e-07
1.07458e-07
9.6402e-08
1.01166e-07
9.24835e-08
6.20015e-08
4.34926e-08
2.75031e-08
1.3644e-08
8.07471e-09
5.91052e-09
5.0293e-09
5.55367e-09
1.13665e-08
4.22922e-08
1.40639e-07
2.35185e-07
3.07132e-07
4.13012e-07
4.01476e-07
3.42839e-07
1.7841e-07
2.6134e-08
8.60269e-10
2.1834e-13
2.47182e-15
1.86066e-15
7.78094e-18
1.14488e-14
4.66539e-12
1.74554e-09
5.63851e-08
2.58172e-07
1.37901e-07
1.08535e-07
3.41404e-07
5.17719e-07
2.29781e-07
1.49519e-07
2.4438e-07
3.95236e-07
4.05349e-07
3.88896e-07
3.29854e-07
3.01246e-07
3.09683e-07
3.47308e-07
3.33326e-07
2.18737e-08
9.03799e-10
1.58125e-10
8.65485e-11
7.07158e-11
3.34187e-11
2.29725e-16
9.21339e-21
1.5882e-19
1.89083e-25
2.63632e-23
5.63979e-22
4.84582e-22
2.04607e-21
2.86309e-20
3.71394e-20
1.1135e-19
1.91849e-18
4.98158e-17
5.90361e-15
9.38514e-14
2.51223e-12
1.32908e-12
1.95569e-13
6.29125e-15
6.13692e-18
2.55369e-21
6.08035e-25
8.10861e-29
1.59399e-32
9.8532e-36
2.81413e-38
1.81801e-40
4.65936e-43
3.31717e-47
8.97824e-52
9.63133e-57
7.89527e-63
1.18757e-66
7.12535e-79
3.40895e-81
1.08127e-84
5.80318e-88
1.55009e-91
3.05706e-94
1.32722e-97
3.50524e-101
1.38239e-104
1.44964e-107
4.01227e-110
1.23359e-112
1.6239e-115
4.88357e-119
1.06571e-122
2.39455e-126
4.44267e-130
9.7254e-134
1.7911e-137
4.12381e-141
7.57109e-145
1.69298e-148
3.05709e-152
6.26172e-156
1.04198e-159
1.84309e-163
2.73863e-167
3.60414e-171
3.6839e-175
7.55626e-181
5.71474e-197
1.81232e-199
3.64478e-205
5.24474e-211
6.35765e-217
7.65998e-223
9.46494e-229
1.27402e-234
1.80912e-240
3.23873e-246
6.12035e-252
1.51525e-257
3.87667e-263
1.00472e-268
2.27374e-274
4.31398e-280
7.84274e-286
1.19185e-291
1.74379e-297
2.12813e-303
2.56634e-309
2.65627e-315
2.78653e-321
0
0
0
0
0
0
0
0
0
0
0
0
0
0
0
0
0
0
0
0
0
0
0
0
0
0
0
0
0
0
0
0
0
0
0
0
0
0
0
0
0
0
0
0
0
0
0
0
0
0
0
0
0
0
0
0
0
0
0
0
0
0
0
0
0
0
0
0
0
0
0
0
0
0
0
0
0
0
0
0
0
0
0
0
0
0
0
0
0
0
0
0
0
0
0
0
0
0
0
0
0
0
0
0
0
0
0
0
0
0
0
0
0
0
0
0
0
0
0
0
0
0
0
0
0
0
0
0
0
0
0
0
0
0
0
0
0
0
0
0
0
0
0
0
0
0
0
0
0
0
0
0
0
0
0
0
0
0
0
0
0
0
0
0
0
0
0
0
0
0
0
0
0
0
0
0
0
0
0
0
0
0
0
0
0
0
0
0
0
0
0
0
0
0
0
0
0
0
0
0
0
0
0
0
0
0
0
0
0
0
0
0
0
0
0
0
0
9.14927e-08
2.43868e-07
4.10617e-07
5.14135e-07
5.18766e-07
2.53357e-07
3.54797e-07
3.60976e-07
2.79827e-07
2.19777e-07
1.18902e-07
2.83245e-08
3.15418e-09
2.27067e-10
3.05371e-08
1.78896e-07
3.66843e-07
2.89429e-07
1.4971e-07
1.19988e-07
1.75722e-07
2.11494e-07
1.12972e-07
4.25954e-08
1.56425e-08
7.21993e-09
3.4733e-09
2.01687e-09
1.51028e-09
1.60353e-09
2.94087e-09
9.80938e-09
2.76227e-08
5.86913e-08
1.17293e-07
2.52075e-07
3.51091e-07
3.98647e-07
3.46054e-07
2.18652e-07
1.3063e-08
4.36473e-10
3.2864e-13
1.3086e-13
2.06057e-17
6.59811e-15
1.64829e-12
2.93243e-10
4.06598e-08
2.93291e-07
1.15014e-07
8.02621e-08
3.27084e-07
1.7145e-07
2.02709e-08
9.02188e-09
8.02174e-09
1.6076e-08
6.01197e-08
2.93592e-07
3.99347e-07
3.71527e-07
3.35678e-07
3.3766e-07
3.92107e-07
1.21433e-07
3.62041e-09
1.3379e-10
1.19987e-10
1.73494e-10
4.45651e-10
3.83432e-11
2.13722e-16
5.3882e-17
1.15844e-21
3.00793e-20
1.09451e-19
9.17556e-20
5.17579e-19
5.85277e-18
2.10196e-17
2.30856e-16
2.84874e-15
1.04773e-13
7.42937e-12
8.08755e-11
2.33546e-10
1.0209e-10
2.44136e-11
1.3137e-12
2.31077e-15
1.19406e-18
5.13778e-22
1.4847e-25
2.56291e-29
4.6682e-33
2.35764e-36
4.81756e-39
2.47727e-41
1.25818e-43
3.45707e-47
1.31248e-51
1.38919e-56
7.54326e-62
6.30882e-75
2.00825e-77
7.87716e-81
6.68707e-85
9.06324e-89
1.823e-90
2.0595e-93
2.23484e-97
2.63101e-101
7.1994e-105
6.03657e-108
1.30084e-110
3.17048e-113
4.60981e-116
4.21451e-119
2.09081e-122
6.95975e-126
2.05554e-129
5.27717e-133
1.35769e-136
3.31442e-140
7.93532e-144
1.86275e-147
4.11711e-151
8.84203e-155
1.6798e-158
2.89947e-162
4.00981e-166
4.36739e-170
2.85247e-174
2.05448e-190
3.53344e-193
6.32566e-199
8.02037e-205
8.53939e-211
8.48532e-217
8.88899e-223
9.5594e-229
1.16615e-234
1.53844e-240
2.42944e-246
4.36217e-252
9.77375e-258
2.3676e-263
7.3476e-269
1.99081e-274
4.93466e-280
9.82321e-286
1.76331e-291
2.60616e-297
3.56139e-303
4.14996e-309
4.61463e-315
4.48118e-321
0
0
0
0
0
0
0
0
0
0
0
0
0
0
0
0
0
0
0
0
0
0
0
0
0
0
0
0
0
0
0
0
0
0
0
0
0
0
0
0
0
0
0
0
0
0
0
0
0
0
0
0
0
0
0
0
0
0
0
0
0
0
0
0
0
0
0
0
0
0
0
0
0
0
0
0
0
0
0
0
0
0
0
0
0
0
0
0
0
0
0
0
0
0
0
0
0
0
0
0
0
0
0
0
0
0
0
0
0
0
0
0
0
0
0
0
0
0
0
0
0
0
0
0
0
0
0
0
0
0
0
0
0
0
0
0
0
0
0
0
0
0
0
0
0
0
0
0
0
0
0
0
0
0
0
0
0
0
0
0
0
0
0
0
0
0
0
0
0
0
0
0
0
0
0
0
0
0
0
0
0
0
0
0
0
0
0
0
0
0
0
0
0
0
0
0
0
0
0
0
0
0
0
0
0
0
0
0
0
0
0
0
0
0
0
0
4.32553e-07
6.67282e-07
6.72543e-07
5.83244e-07
5.10329e-07
4.90893e-07
3.67239e-07
3.23831e-07
3.48259e-07
3.39139e-07
2.73564e-07
1.35548e-07
1.87918e-08
5.34257e-10
1.75815e-07
1.73422e-07
2.03709e-07
3.034e-07
4.20906e-07
2.7286e-07
3.32746e-07
4.66813e-07
4.34461e-07
1.35989e-07
3.99163e-08
1.2687e-08
5.75946e-09
2.22085e-09
1.22055e-09
8.04941e-10
9.31838e-10
2.07894e-09
6.14955e-09
1.60197e-08
3.84303e-08
9.91766e-08
2.10331e-07
3.48428e-07
4.02441e-07
3.14608e-07
1.0863e-07
6.66579e-09
2.23916e-10
1.28705e-11
3.42821e-15
9.77604e-14
1.48557e-12
2.00947e-10
2.63387e-08
4.21499e-07
1.6474e-07
7.48071e-08
2.39438e-07
1.19717e-07
9.74459e-09
1.82661e-09
1.01674e-09
1.24919e-09
5.49405e-09
4.55395e-08
2.57008e-07
3.82659e-07
4.03161e-07
3.86081e-07
3.91966e-07
3.37099e-07
1.2727e-08
1.19528e-09
1.2703e-10
5.39023e-11
1.98128e-10
1.49731e-09
4.70672e-12
2.47458e-14
1.14434e-17
3.09955e-17
2.74199e-17
2.99715e-17
1.11854e-16
6.82342e-16
6.77802e-15
6.45947e-14
8.93446e-13
1.62686e-11
1.63859e-10
1.53585e-10
6.0312e-11
3.29954e-11
1.86929e-11
1.03343e-11
9.97902e-13
4.61269e-16
1.78818e-19
7.31243e-23
1.98644e-26
4.29794e-30
8.71949e-34
3.9997e-37
6.85852e-40
2.45783e-42
1.24691e-44
1.39972e-47
4.38043e-52
1.12171e-57
3.48249e-71
1.25567e-73
5.72166e-78
2.88704e-83
2.98921e-86
6.03788e-87
6.22639e-90
5.92491e-94
6.23999e-98
8.76044e-102
3.12443e-105
2.89825e-108
4.68113e-111
7.00601e-114
7.19258e-117
5.4404e-120
3.88771e-123
1.9012e-126
1.13239e-129
4.40237e-133
1.70256e-136
5.64319e-140
1.7474e-143
5.00907e-147
1.28007e-150
3.10958e-154
6.36567e-158
1.14925e-161
1.40907e-165
1.18045e-169
9.82864e-185
5.84564e-188
4.66042e-194
7.55215e-200
1.33706e-205
1.71958e-211
1.93376e-217
1.992e-223
2.18401e-229
2.49118e-235
3.18844e-241
4.66881e-247
7.90518e-253
1.60206e-258
3.81895e-264
1.07859e-269
3.36076e-275
9.83899e-281
2.35612e-286
4.68149e-292
7.84434e-298
1.11308e-303
1.40352e-309
1.45597e-315
1.27469e-321
0
0
0
0
0
0
0
0
0
0
0
0
0
0
0
0
0
0
0
0
0
0
0
0
0
0
0
0
0
0
0
0
0
0
0
0
0
0
0
0
0
0
0
0
0
0
0
0
0
0
0
0
0
0
0
0
0
0
0
0
0
0
0
0
0
0
0
0
0
0
0
0
0
0
0
0
0
0
0
0
0
0
0
0
0
0
0
0
0
0
0
0
0
0
0
0
0
0
0
0
0
0
0
0
0
0
0
0
0
0
0
0
0
0
0
0
0
0
0
0
0
0
0
0
0
0
0
0
0
0
0
0
0
0
0
0
0
0
0
0
0
0
0
0
0
0
0
0
0
0
0
0
0
0
0
0
0
0
0
0
0
0
0
0
0
0
0
0
0
0
0
0
0
0
0
0
0
0
0
0
0
0
0
0
0
0
0
0
0
0
0
0
0
0
0
0
0
0
0
0
0
0
0
0
0
0
0
0
0
0
0
0
0
0
0
6.39816e-07
5.00528e-07
4.29018e-07
3.71704e-07
3.23072e-07
2.64497e-07
1.88314e-07
1.81327e-07
2.68888e-07
3.45405e-07
3.09828e-07
2.17085e-07
7.92031e-08
2.39641e-09
7.52842e-09
1.85747e-08
4.34045e-08
1.10371e-07
2.20294e-07
3.52376e-07
4.30695e-07
4.27062e-07
4.52025e-07
4.31814e-07
4.28753e-07
4.88419e-07
2.67081e-07
6.04069e-08
2.2334e-08
6.77593e-09
2.01221e-09
8.35028e-10
5.1493e-10
7.18574e-10
1.48203e-09
3.86176e-09
1.2105e-08
3.32205e-08
9.9769e-08
2.0142e-07
3.99406e-07
3.36156e-07
1.64103e-07
1.39898e-08
2.04835e-09
1.20533e-10
6.25822e-11
5.52711e-12
1.51322e-12
1.99398e-11
2.1831e-11
1.08778e-10
8.33681e-09
1.91781e-07
2.77597e-07
8.23523e-08
1.61499e-07
3.29274e-07
9.4437e-09
1.62208e-09
5.04721e-10
3.30234e-10
6.25981e-10
5.31418e-09
4.99591e-08
2.22027e-07
2.79955e-07
3.67388e-07
3.95526e-07
3.51796e-07
6.5485e-08
4.85442e-09
3.16658e-10
5.83324e-11
6.4166e-11
6.60378e-10
1.37275e-08
5.20811e-11
8.82058e-13
9.02627e-15
7.87444e-15
1.11697e-14
1.6974e-14
2.59534e-14
1.20411e-13
2.34012e-13
7.92808e-13
5.58778e-12
2.99397e-11
7.25699e-11
6.93828e-11
2.09027e-11
7.96958e-12
8.74605e-12
9.55409e-12
5.74697e-12
2.36674e-12
1.05388e-13
2.23732e-17
4.22519e-21
1.50969e-24
6.20785e-28
2.23496e-31
7.69953e-35
4.00763e-38
4.47581e-41
1.43176e-43
6.51176e-46
1.96686e-48
3.57839e-54
1.58783e-59
6.22262e-64
1.04267e-68
6.04016e-73
1.76191e-76
2.29699e-79
2.17516e-81
2.2591e-83
3.55525e-87
5.11058e-91
7.19378e-95
1.13845e-98
2.63591e-102
1.23749e-105
1.12319e-108
1.2461e-111
1.20524e-114
9.62577e-118
6.35166e-121
3.37943e-124
1.94815e-127
8.54158e-131
4.06787e-134
1.67094e-137
6.23259e-141
2.62722e-144
9.91763e-148
3.48361e-151
1.51339e-154
5.45528e-158
1.70876e-161
2.86576e-165
5.81858e-169
1.34895e-172
7.45891e-179
2.52717e-185
1.81889e-191
2.71474e-197
5.87587e-203
1.07201e-208
1.62212e-214
2.21265e-220
3.33869e-226
5.15885e-232
8.51984e-238
1.3961e-243
2.61711e-249
5.28197e-255
1.19927e-260
3.0871e-266
9.11588e-272
3.07504e-277
9.6527e-283
2.43392e-288
4.99648e-294
8.60375e-300
1.24841e-305
1.51457e-311
1.45378e-317
9.88131e-324
0
0
0
0
0
0
0
0
0
0
0
0
0
0
0
0
0
0
0
0
0
0
0
0
0
0
0
0
0
0
0
0
0
0
0
0
0
0
0
0
0
0
0
0
0
0
0
0
0
0
0
0
0
0
0
0
0
0
0
0
0
0
0
0
0
0
0
0
0
0
0
0
0
0
0
0
0
0
0
0
0
0
0
0
0
0
0
0
0
0
0
0
0
0
0
0
0
0
0
0
0
0
0
0
0
0
0
0
0
0
0
0
0
0
0
0
0
0
0
0
0
0
0
0
0
0
0
0
0
0
0
0
0
0
0
0
0
0
0
0
0
0
0
0
0
0
0
0
0
0
0
0
0
0
0
0
0
0
0
0
0
0
0
0
0
0
0
0
0
0
0
0
0
0
0
0
0
0
0
0
0
0
0
0
0
0
0
0
0
0
0
0
0
0
0
0
0
0
0
0
0
0
0
0
0
0
0
0
0
0
0
0
0
0
0
0
0
0
0
0
0
0
0
0
0
0
0
0
0
0
2.82176e-07
1.94826e-07
1.61182e-07
1.66415e-07
1.35166e-07
8.09652e-08
4.8871e-08
2.56773e-08
4.85592e-08
1.20691e-07
3.45169e-07
2.23006e-07
1.03597e-07
2.63759e-08
6.65905e-09
6.55771e-09
1.18285e-08
7.1695e-08
3.1215e-07
4.17655e-07
4.23303e-07
4.45328e-07
4.25967e-07
3.8031e-07
3.9321e-07
4.44691e-07
4.9767e-07
3.6853e-07
1.27236e-07
2.35868e-08
4.27128e-09
9.75017e-10
4.4335e-10
3.36505e-10
4.67704e-10
1.06874e-09
3.38502e-09
1.38113e-08
4.10342e-08
1.53435e-07
4.17865e-07
1.91223e-07
1.04252e-07
6.78743e-08
3.86297e-09
1.876e-09
1.60951e-09
1.05217e-09
1.40701e-09
3.33389e-09
2.67111e-09
1.64013e-09
4.00603e-09
7.33048e-08
4.14241e-07
1.5043e-07
1.0529e-07
3.165e-07
4.06526e-08
2.85931e-09
5.13132e-10
2.35939e-10
2.03609e-10
5.40307e-10
6.72554e-09
4.52217e-08
8.89172e-08
1.40494e-07
2.08558e-07
2.41581e-07
1.37957e-07
2.06396e-08
1.44612e-09
1.21504e-10
5.04719e-11
4.89048e-11
2.00496e-09
2.22773e-08
2.94365e-09
8.58771e-11
9.50739e-12
6.35455e-13
3.56054e-13
7.98145e-13
7.18388e-12
3.88963e-11
7.20292e-11
3.69082e-11
3.75116e-11
3.40329e-11
1.18097e-11
9.73422e-12
9.19713e-12
1.0251e-11
1.15951e-11
1.1512e-11
2.70173e-12
7.31737e-13
5.82893e-16
1.81039e-19
5.14927e-23
1.70994e-26
5.84387e-30
2.00463e-33
7.40156e-37
5.37543e-40
5.92717e-43
1.52627e-45
5.15028e-48
3.42829e-50
9.89027e-55
1.73676e-59
1.06325e-63
1.46551e-67
3.50468e-71
3.73787e-74
3.09304e-77
6.27018e-81
1.17258e-84
2.13232e-88
4.00474e-92
8.82323e-96
2.11624e-99
7.75627e-103
3.89801e-106
2.99599e-109
2.43884e-112
1.76803e-115
1.0637e-118
6.2467e-122
3.22888e-125
1.60839e-128
7.2979e-132
2.91249e-135
1.32305e-138
5.18086e-142
1.95556e-145
7.84697e-149
3.01231e-152
1.02773e-155
4.35263e-159
2.31255e-162
6.45007e-166
7.47419e-170
6.48428e-174
2.77383e-180
1.98788e-186
2.49625e-192
4.37684e-198
5.93593e-204
8.48827e-210
1.08612e-215
1.43073e-221
1.83219e-227
2.55057e-233
3.58056e-239
6.14033e-245
1.02376e-250
1.99717e-256
4.10199e-262
1.00279e-267
2.69597e-273
7.49045e-279
1.72758e-284
3.36262e-290
5.49654e-296
7.75576e-302
9.6828e-308
1.03727e-313
9.60513e-320
0
0
0
0
0
0
0
0
0
0
0
0
0
0
0
0
0
0
0
0
0
0
0
0
0
0
0
0
0
0
0
0
0
0
0
0
0
0
0
0
0
0
0
0
0
0
0
0
0
0
0
0
0
0
0
0
0
0
0
0
0
0
0
0
0
0
0
0
0
0
0
0
0
0
0
0
0
0
0
0
0
0
0
0
0
0
0
0
0
0
0
0
0
0
0
0
0
0
0
0
0
0
0
0
0
0
0
0
0
0
0
0
0
0
0
0
0
0
0
0
0
0
0
0
0
0
0
0
0
0
0
0
0
0
0
0
0
0
0
0
0
0
0
0
0
0
0
0
0
0
0
0
0
0
0
0
0
0
0
0
0
0
0
0
0
0
0
0
0
0
0
0
0
0
0
0
0
0
0
0
0
0
0
0
0
0
0
0
0
0
0
0
0
0
0
0
0
0
0
0
0
0
0
0
0
0
0
0
0
0
0
0
0
0
0
0
0
0
0
0
0
0
0
0
0
0
0
0
0
0
4.57453e-08
3.81404e-08
3.64275e-08
3.42714e-08
3.92524e-08
2.54433e-08
1.16581e-08
2.9645e-09
2.85992e-09
3.01141e-09
2.67001e-08
2.66566e-07
2.85227e-07
1.66482e-07
2.53005e-08
1.29339e-08
5.53994e-08
3.57941e-07
1.84784e-07
3.62616e-07
4.13091e-07
4.12024e-07
4.04709e-07
4.56991e-07
4.60621e-07
4.72659e-07
4.88521e-07
4.94646e-07
3.10915e-07
4.8117e-08
5.47253e-09
9.22875e-10
3.48936e-10
2.30595e-10
2.38005e-10
4.47902e-10
1.3639e-09
4.69241e-09
1.72475e-08
5.50652e-08
3.99918e-07
1.69949e-07
3.20691e-08
2.31752e-08
2.68378e-08
3.34733e-08
3.73562e-08
5.58356e-08
1.46029e-07
3.71747e-07
1.94963e-08
1.09121e-08
1.02745e-08
1.84564e-08
5.37382e-08
4.03665e-07
1.95155e-07
2.05323e-07
2.82681e-07
6.34867e-09
6.57719e-10
2.26303e-10
1.65429e-10
1.5803e-10
5.39805e-10
5.53705e-09
2.44909e-08
3.01309e-08
4.03352e-08
5.71216e-08
6.25017e-08
2.88076e-08
5.91737e-09
6.39353e-10
1.01474e-10
5.05734e-11
3.78934e-11
7.62745e-10
3.35828e-09
2.64303e-09
1.38829e-09
4.69071e-10
1.76139e-10
2.16674e-10
6.36155e-10
2.20327e-10
9.49689e-11
4.13659e-11
1.2502e-11
5.95193e-12
7.27238e-12
1.17891e-11
1.63021e-11
1.82035e-11
1.99359e-11
2.21244e-11
8.76973e-12
2.22006e-12
3.819e-14
4.67053e-18
6.4442e-22
1.6543e-25
5.84427e-29
2.39259e-32
9.65018e-36
4.25592e-39
2.58009e-42
1.83912e-45
2.83308e-48
7.50588e-51
7.32765e-54
8.28265e-57
1.96588e-60
4.47857e-64
8.38492e-68
1.96202e-71
4.27917e-75
1.02193e-78
2.48669e-82
6.44279e-86
1.83829e-89
5.0787e-93
1.67514e-96
5.64307e-100
2.28454e-103
1.14306e-106
6.01317e-110
3.65085e-113
1.89266e-116
9.97177e-120
4.83294e-123
2.02241e-126
8.94333e-130
3.70621e-133
1.35911e-136
5.10375e-140
1.76225e-143
7.1477e-147
2.54881e-150
8.89655e-154
3.00591e-157
1.24498e-160
3.55437e-164
6.98957e-168
1.03952e-171
1.40807e-175
1.20666e-181
1.35332e-187
1.70277e-193
2.07721e-199
2.43029e-205
2.75315e-211
3.20193e-217
3.69685e-223
4.87072e-229
6.24385e-235
8.55453e-241
1.20181e-246
1.89689e-252
3.16193e-258
6.06053e-264
1.28974e-269
2.98538e-275
6.35724e-281
1.1502e-286
1.79138e-292
2.44211e-298
2.9814e-304
3.28235e-310
3.3498e-316
3.06321e-322
0
0
0
0
0
0
0
0
0
0
0
0
0
0
0
0
0
0
0
0
0
0
0
0
0
0
0
0
0
0
0
0
0
0
0
0
0
0
0
0
0
0
0
0
0
0
0
0
0
0
0
0
0
0
0
0
0
0
0
0
0
0
0
0
0
0
0
0
0
0
0
0
0
0
0
0
0
0
0
0
0
0
0
0
0
0
0
0
0
0
0
0
0
0
0
0
0
0
0
0
0
0
0
0
0
0
0
0
0
0
0
0
0
0
0
0
0
0
0
0
0
0
0
0
0
0
0
0
0
0
0
0
0
0
0
0
0
0
0
0
0
0
0
0
0
0
0
0
0
0
0
0
0
0
0
0
0
0
0
0
0
0
0
0
0
0
0
0
0
0
0
0
0
0
0
0
0
0
0
0
0
0
0
0
0
0
0
0
0
0
0
0
0
0
0
0
0
0
0
0
0
0
0
0
0
0
0
0
0
0
0
0
0
0
0
0
0
0
0
0
0
0
0
0
0
0
0
0
0
3.30669e-09
4.84339e-09
5.68386e-09
6.28724e-09
6.27225e-09
4.01279e-09
1.70731e-09
4.47662e-10
3.17799e-10
2.26685e-10
6.20238e-10
1.93347e-09
1.03454e-08
2.47375e-08
3.08205e-07
2.94611e-07
2.4828e-07
1.46421e-08
4.44184e-08
3.94194e-07
3.76191e-07
4.04192e-07
4.28296e-07
4.87273e-08
2.60638e-08
4.73379e-08
1.36922e-07
2.68744e-07
1.22646e-07
1.95866e-08
2.61341e-09
5.02412e-10
2.22971e-10
1.96768e-10
1.70705e-10
1.96227e-10
3.18611e-10
7.75093e-10
2.32029e-09
5.51397e-09
1.92138e-08
1.8519e-07
1.68041e-07
3.39666e-08
2.07654e-08
2.15636e-08
4.44628e-08
1.12527e-07
2.71012e-07
4.06262e-07
4.1398e-07
3.90403e-07
3.58076e-07
1.62003e-07
2.75455e-07
3.17604e-07
2.14189e-07
4.08075e-07
1.65888e-08
1.69776e-09
4.12453e-10
1.76691e-10
1.30331e-10
9.9308e-11
1.22108e-10
4.662e-10
3.4184e-09
9.48089e-09
8.98671e-09
1.01056e-08
1.22959e-08
1.26118e-08
7.91783e-09
2.44991e-09
4.89501e-10
1.20761e-10
5.03818e-11
1.84758e-11
5.92664e-11
2.2857e-10
5.31489e-10
2.5934e-10
8.94513e-11
9.01069e-11
5.71605e-11
3.60312e-11
1.57832e-11
9.05705e-12
7.31565e-12
9.1362e-12
1.62106e-11
1.67049e-11
1.86133e-11
2.02929e-11
2.18221e-11
2.3503e-11
2.0733e-11
4.35267e-12
8.20794e-13
4.21709e-16
9.87558e-20
2.13029e-23
4.1692e-27
1.02832e-30
2.879e-34
1.0072e-37
3.4609e-41
1.83157e-44
8.21748e-48
6.79657e-51
2.44975e-54
2.08649e-57
6.26838e-61
2.17032e-64
5.44161e-68
1.42136e-71
3.45877e-75
9.0276e-79
2.99543e-82
9.70466e-86
3.71896e-89
1.36339e-92
4.76037e-96
1.74226e-99
7.11989e-103
3.00225e-106
1.4312e-109
6.77236e-113
3.22148e-116
1.42547e-119
6.94737e-123
3.04601e-126
1.19036e-129
4.79522e-133
1.75829e-136
6.68181e-140
2.62545e-143
1.02923e-146
3.65303e-150
1.33061e-153
4.32762e-157
1.50166e-160
4.48653e-164
1.20959e-167
2.79314e-171
5.15717e-175
6.40494e-181
8.97663e-187
1.31268e-192
1.93568e-198
2.75503e-204
3.8507e-210
5.26901e-216
8.04341e-222
1.13272e-227
1.59393e-233
2.32638e-239
3.4841e-245
5.66767e-251
9.7597e-257
1.89813e-262
4.10599e-268
9.63124e-274
2.07815e-279
3.93907e-285
6.52041e-291
9.77405e-297
1.31777e-302
1.64914e-308
1.90921e-314
2.09879e-320
0
0
0
0
0
0
0
0
0
0
0
0
0
0
0
0
0
0
0
0
0
0
0
0
0
0
0
0
0
0
0
0
0
0
0
0
0
0
0
0
0
0
0
0
0
0
0
0
0
0
0
0
0
0
0
0
0
0
0
0
0
0
0
0
0
0
0
0
0
0
0
0
0
0
0
0
0
0
0
0
0
0
0
0
0
0
0
0
0
0
0
0
0
0
0
0
0
0
0
0
0
0
0
0
0
0
0
0
0
0
0
0
0
0
0
0
0
0
0
0
0
0
0
0
0
0
0
0
0
0
0
0
0
0
0
0
0
0
0
0
0
0
0
0
0
0
0
0
0
0
0
0
0
0
0
0
0
0
0
0
0
0
0
0
0
0
0
0
0
0
0
0
0
0
0
0
0
0
0
0
0
0
0
0
0
0
0
0
0
0
0
0
0
0
0
0
0
0
0
0
0
0
0
0
0
0
0
0
0
0
0
0
0
0
0
0
0
0
0
0
0
0
0
0
0
0
0
0
0
1.21197e-10
2.57249e-10
3.83206e-10
5.13368e-10
4.56643e-10
2.66404e-10
1.35739e-10
8.7493e-11
6.42675e-11
4.84014e-11
5.51374e-11
6.13578e-11
1.23173e-10
1.37173e-10
9.60104e-10
7.22903e-10
7.95735e-10
2.00093e-09
9.9913e-08
4.02972e-07
3.83374e-07
3.49172e-07
2.13681e-08
2.45125e-09
1.62446e-09
4.43615e-09
1.18938e-08
2.34175e-08