/*--------------------------------*- C++ -*----------------------------------*\
| =========                 |                                                 |
| \\      /  F ield         | OpenFOAM: The Open Source CFD Toolbox           |
|  \\    /   O peration     | Version:  2.1.1                                 |
|   \\  /    A nd           | Web:      www.OpenFOAM.org                      |
|    \\/     M anipulation  |                                                 |
\*---------------------------------------------------------------------------*/
FoamFile
{
    version     2.0;
    format      ascii;
    class       volScalarField;
    location    "0.002200000";
    object      HO2;
}
// * * * * * * * * * * * * * * * * * * * * * * * * * * * * * * * * * * * * * //

dimensions      [0 0 0 0 0 0 0];

internalField   nonuniform List<scalar> 
12384
(
3.84268e-06
3.69727e-06
3.49558e-06
3.65168e-06
3.89146e-06
3.1968e-06
3.31702e-06
3.29001e-07
7.41232e-09
1.29264e-09
1.05212e-10
2.34245e-12
5.81206e-14
1.70416e-15
3.79249e-11
6.6941e-10
2.43106e-09
1.7843e-08
8.83717e-08
2.77583e-07
3.6172e-07
4.54626e-07
4.43369e-07
4.33925e-07
4.23338e-07
4.10865e-07
3.60885e-07
3.29762e-07
2.91858e-07
2.52754e-07
1.82158e-07
1.30837e-07
5.04944e-08
1.40642e-08
2.41516e-09
4.68486e-10
2.55912e-10
1.78084e-10
5.58906e-11
3.70404e-13
1.61664e-15
7.63243e-18
4.52977e-20
2.4815e-22
4.93201e-18
3.4776e-15
3.94297e-12
2.78088e-09
7.35587e-08
2.55912e-07
4.52656e-07
4.89771e-07
4.53332e-07
4.34121e-07
3.76064e-07
3.25882e-07
2.46486e-07
1.5653e-07
4.27231e-08
2.16759e-08
1.04429e-08
3.00811e-09
3.39633e-10
1.14505e-11
4.27362e-13
4.30091e-15
1.77842e-17
4.69944e-20
1.28829e-22
3.27443e-25
6.93831e-28
1.32022e-30
4.48149e-33
2.27456e-32
9.63178e-38
1.50023e-35
3.67948e-33
3.33331e-32
6.93211e-32
8.41905e-32
1.03613e-31
2.60547e-31
9.54526e-31
4.60489e-30
2.61959e-29
1.28898e-28
5.1305e-28
1.18324e-27
4.24384e-28
1.33091e-29
9.81817e-33
4.64653e-36
1.20161e-39
2.09229e-43
4.03263e-47
7.83119e-51
1.43771e-54
2.42928e-58
3.74074e-62
8.49191e-66
1.79652e-69
4.72977e-73
1.23808e-76
3.22447e-80
1.311e-98
7.25166e-100
8.24964e-103
6.3421e-106
3.6561e-109
1.82257e-111
3.53723e-114
3.09236e-117
1.54971e-120
5.58949e-124
1.1841e-127
2.44675e-131
4.91627e-135
9.90979e-139
2.04084e-142
4.27585e-146
9.09098e-150
1.82815e-153
3.90899e-157
7.13432e-161
1.56779e-164
2.79355e-168
7.10915e-172
1.00594e-177
1.72262e-183
9.25423e-189
1.85175e-193
1.17852e-197
6.80047e-203
1.14138e-208
5.61558e-227
6.05098e-229
5.37012e-234
2.60231e-239
8.73149e-245
2.34237e-250
5.94868e-256
1.46857e-261
3.42422e-267
7.70566e-273
1.65468e-278
3.29627e-284
6.04844e-290
1.03719e-295
1.6427e-301
2.4834e-307
3.52995e-313
4.90627e-319
0
0
0
0
0
0
0
0
0
0
0
0
0
0
0
0
0
0
0
0
0
0
0
0
0
0
0
0
0
0
0
0
0
0
0
0
0
0
0
0
0
0
0
0
0
0
0
0
0
0
0
0
0
0
0
0
0
0
0
0
0
0
0
0
0
0
0
0
0
0
0
0
0
0
0
0
0
0
0
0
0
0
0
0
0
0
0
0
0
0
0
0
0
0
0
0
0
0
0
0
0
0
0
0
0
0
0
0
0
0
0
0
0
0
0
0
0
0
0
0
0
0
0
0
0
0
0
0
0
0
0
0
0
0
0
0
0
0
0
0
0
0
0
0
0
0
0
0
0
0
0
0
0
0
0
0
0
0
0
0
0
0
0
0
0
0
0
0
0
0
0
0
0
0
0
0
0
0
0
0
0
0
0
0
0
0
0
0
0
0
0
0
0
0
0
0
0
0
0
0
0
0
0
0
0
0
0
0
0
0
0
0
0
0
0
0
0
0
0
0
0
0
4.00244e-06
4.09511e-06
4.08038e-06
3.94618e-06
3.62253e-06
4.07958e-06
1.08253e-06
1.26779e-07
3.51541e-08
1.10033e-08
2.78681e-09
7.96284e-11
4.5907e-12
9.19821e-14
1.26703e-09
1.96265e-08
1.12937e-07
3.62815e-07
9.55391e-07
2.2424e-06
2.34651e-06
2.65073e-06
2.51693e-06
2.48357e-06
2.41725e-06
2.39789e-06
2.27968e-06
2.17838e-06
2.07822e-06
2.01471e-06
1.80587e-06
1.67826e-06
5.36465e-07
2.26754e-07
1.06851e-07
2.52579e-08
5.47518e-09
1.6008e-09
7.5024e-10
6.89168e-12
9.09213e-14
4.68426e-16
1.40043e-18
8.44405e-21
8.73798e-17
6.87294e-14
7.29853e-11
5.03695e-08
5.56042e-07
1.10229e-06
3.52508e-06
4.11414e-06
4.49368e-06
4.5145e-06
4.12438e-06
4.0792e-06
3.9891e-06
3.17123e-06
8.29713e-07
1.87152e-07
3.49326e-08
6.86899e-09
3.10756e-09
8.4516e-10
2.98785e-10
9.66434e-12
7.94051e-15
5.6804e-18
5.1778e-21
2.51338e-23
9.20052e-26
4.62594e-28
2.23035e-30
1.22256e-29
3.5022e-35
2.17517e-33
3.79746e-31
4.55959e-30
1.67394e-29
4.55706e-29
8.96208e-29
2.57281e-28
6.54267e-28
1.79129e-27
7.55766e-27
2.98244e-26
1.78914e-25
6.06196e-25
6.45702e-25
7.85866e-26
1.33858e-28
3.28955e-32
1.8857e-36
1.34142e-41
1.13549e-45
1.46964e-50
1.58834e-53
4.70065e-57
1.75949e-60
4.56891e-64
9.25117e-68
1.3018e-71
2.67903e-75
6.4414e-79
1.14958e-95
2.46155e-97
2.57792e-100
1.84001e-103
1.0582e-106
5.09827e-109
8.39192e-112
7.45442e-115
3.35062e-118
1.48847e-121
1.1223e-125
1.55653e-129
3.10247e-133
8.96141e-137
2.57199e-140
7.20758e-144
1.91127e-147
5.0831e-151
1.30095e-154
3.22633e-158
7.71214e-162
1.78683e-165
4.43222e-168
1.07553e-171
2.01295e-177
1.39747e-182
3.41882e-187
2.10738e-191
1.21131e-196
1.45945e-202
1.72808e-220
1.99256e-222
1.78951e-227
8.7637e-233
2.76613e-238
6.93767e-244
1.59774e-249
3.53176e-255
7.82225e-261
1.70542e-266
3.62701e-272
6.79061e-278
1.24125e-283
1.99212e-289
3.1348e-295
4.35052e-301
6.09586e-307
7.5976e-313
9.70088e-319
0
0
0
0
0
0
0
0
0
0
0
0
0
0
0
0
0
0
0
0
0
0
0
0
0
0
0
0
0
0
0
0
0
0
0
0
0
0
0
0
0
0
0
0
0
0
0
0
0
0
0
0
0
0
0
0
0
0
0
0
0
0
0
0
0
0
0
0
0
0
0
0
0
0
0
0
0
0
0
0
0
0
0
0
0
0
0
0
0
0
0
0
0
0
0
0
0
0
0
0
0
0
0
0
0
0
0
0
0
0
0
0
0
0
0
0
0
0
0
0
0
0
0
0
0
0
0
0
0
0
0
0
0
0
0
0
0
0
0
0
0
0
0
0
0
0
0
0
0
0
0
0
0
0
0
0
0
0
0
0
0
0
0
0
0
0
0
0
0
0
0
0
0
0
0
0
0
0
0
0
0
0
0
0
0
0
0
0
0
0
0
0
0
0
0
0
0
0
0
0
0
0
0
0
0
0
0
0
0
0
0
0
0
0
0
0
0
0
0
0
0
4.13399e-06
3.2108e-06
2.00351e-06
9.4024e-07
8.70124e-07
1.51685e-06
2.71799e-07
7.00892e-08
3.52612e-08
2.03997e-08
7.79052e-09
4.79978e-10
7.90359e-11
4.02988e-12
6.30207e-09
1.62599e-07
6.16036e-07
2.09939e-06
1.75217e-06
1.79757e-06
3.20834e-06
3.8562e-06
4.19826e-06
4.08551e-06
3.34223e-06
2.85805e-06
2.6439e-06
2.40214e-06
1.95774e-06
1.73855e-06
1.87192e-06
1.46444e-06
1.28168e-06
9.4647e-07
5.99833e-07
1.96366e-07
8.77794e-08
2.85292e-08
6.55554e-09
2.48631e-10
4.80931e-13
5.06767e-15
1.54648e-17
3.90054e-20
1.75466e-16
1.79805e-13
1.913e-10
1.22653e-07
6.55865e-07
2.2878e-06
2.43006e-06
2.78711e-06
2.86849e-06
3.4442e-06
3.75729e-06
3.6084e-06
4.11249e-06
4.1652e-06
4.24865e-06
4.45362e-06
2.74549e-06
9.32551e-07
1.98173e-07
4.95965e-09
4.26089e-10
1.08407e-10
2.50224e-11
6.32008e-13
1.77651e-17
4.82723e-21
5.08098e-24
1.18021e-25
2.24884e-27
6.82195e-27
3.71491e-33
1.36148e-31
1.2858e-28
6.88983e-27
3.31563e-26
8.08925e-27
1.11781e-27
2.13734e-27
8.73248e-27
1.60634e-25
3.01815e-24
1.88386e-23
1.00168e-22
1.28637e-22
2.54486e-23
5.98434e-25
6.44016e-28
1.38347e-30
1.93569e-32
7.92518e-35
2.78665e-39
4.73336e-45
1.70037e-49
4.00154e-54
2.76666e-59
8.29854e-64
6.24105e-66
8.30063e-69
4.24313e-72
1.58415e-75
4.51484e-93
9.62299e-94
2.68313e-96
5.13298e-99
5.46945e-102
2.38766e-104
4.03252e-107
1.87428e-110
4.45052e-114
5.95791e-118
4.44893e-123
5.63295e-127
9.91802e-131
1.35236e-134
2.71711e-138
4.19425e-142
1.02133e-145
1.6406e-149
4.3108e-153
6.90779e-157
1.86375e-160
3.07915e-164
1.57445e-166
2.71517e-170
1.00262e-173
1.37592e-178
1.23742e-182
7.13681e-187
7.9456e-192
9.89407e-198
6.08146e-217
1.02722e-218
1.212e-223
4.39953e-229
1.60028e-234
2.68497e-240
7.54873e-246
1.11748e-251
3.25826e-257
5.50727e-263
1.5461e-268
2.54263e-274
5.67566e-280
8.96049e-286
1.50401e-291
2.17037e-297
2.83289e-303
3.745e-309
4.1951e-315
5.22227e-321
0
0
0
0
0
0
0
0
0
0
0
0
0
0
0
0
0
0
0
0
0
0
0
0
0
0
0
0
0
0
0
0
0
0
0
0
0
0
0
0
0
0
0
0
0
0
0
0
0
0
0
0
0
0
0
0
0
0
0
0
0
0
0
0
0
0
0
0
0
0
0
0
0
0
0
0
0
0
0
0
0
0
0
0
0
0
0
0
0
0
0
0
0
0
0
0
0
0
0
0
0
0
0
0
0
0
0
0
0
0
0
0
0
0
0
0
0
0
0
0
0
0
0
0
0
0
0
0
0
0
0
0
0
0
0
0
0
0
0
0
0
0
0
0
0
0
0
0
0
0
0
0
0
0
0
0
0
0
0
0
0
0
0
0
0
0
0
0
0
0
0
0
0
0
0
0
0
0
0
0
0
0
0
0
0
0
0
0
0
0
0
0
0
0
0
0
0
0
0
0
0
0
0
0
0
0
0
0
0
0
0
0
0
0
0
0
0
0
0
0
3.61837e-06
1.21624e-06
4.00778e-07
1.59738e-07
1.2911e-07
2.73206e-07
2.04695e-08
5.99008e-09
6.136e-09
6.85546e-09
8.29503e-09
2.78057e-09
5.24193e-10
4.09322e-11
1.78726e-08
5.61112e-07
3.11265e-06
4.20333e-06
5.12037e-06
5.44018e-06
4.8034e-06
4.41663e-06
4.4465e-06
5.09312e-06
5.73593e-06
5.70203e-06
5.51259e-06
5.35922e-06
5.53113e-06
5.52201e-06
5.60047e-06
4.57662e-06
2.49475e-06
1.85286e-06
1.76003e-06
1.55164e-06
9.78908e-07
4.67219e-07
3.6542e-08
5.35939e-09
7.9483e-13
9.14926e-15
2.57298e-16
1.41202e-18
2.78762e-16
3.05212e-13
2.37125e-10
1.19869e-07
8.75785e-07
3.28734e-06
2.85637e-06
2.48884e-06
2.57683e-06
2.90046e-06
3.01166e-06
2.99304e-06
3.09891e-06
3.31073e-06
3.67786e-06
4.15122e-06
4.32316e-06
4.31292e-06
3.71403e-06
1.11471e-07
1.51399e-08
5.09093e-10
8.5035e-11
8.91048e-12
6.92036e-12
2.15731e-15
2.50023e-20
2.31297e-23
1.11863e-24
5.50735e-24
6.03504e-31
1.21068e-28
1.33624e-25
1.85406e-24
4.69108e-25
2.52007e-25
8.24225e-25
2.01542e-23
1.08889e-22
6.6518e-22
1.29148e-20
1.19405e-19
3.7759e-18
1.49421e-17
1.32739e-18
7.04852e-21
1.1084e-24
2.12753e-28
1.00111e-31
2.54005e-34
4.48868e-36
3.87538e-38
2.11812e-42
3.50465e-47
7.51442e-53
8.54717e-58
9.46855e-63
2.2768e-66
2.25275e-69
3.19863e-72
2.49807e-87
1.04935e-87
1.98548e-90
7.97453e-94
1.59939e-97
2.29912e-100
9.27489e-103
3.07508e-105
3.0063e-108
6.8708e-112
8.40253e-116
9.44932e-120
9.65766e-124
1.17341e-127
1.24602e-131
1.69085e-135
2.43635e-139
4.33866e-143
6.34671e-147
1.26715e-150
2.25531e-154
4.53674e-158
8.0215e-162
1.53998e-165
2.6322e-169
4.65228e-173
3.78802e-177
8.72527e-182
7.45767e-187
9.04811e-193
4.8031e-210
4.79107e-212
1.78077e-217
6.62222e-223
1.43236e-228
3.2327e-234
5.27914e-240
1.10103e-245
1.86388e-251
4.65978e-257
8.58104e-263
1.95312e-268
3.24277e-274
6.24026e-280
9.10994e-286
1.45353e-291
1.85627e-297
2.50702e-303
2.84806e-309
3.38117e-315
3.60174e-321
0
0
0
0
0
0
0
0
0
0
0
0
0
0
0
0
0
0
0
0
0
0
0
0
0
0
0
0
0
0
0
0
0
0
0
0
0
0
0
0
0
0
0
0
0
0
0
0
0
0
0
0
0
0
0
0
0
0
0
0
0
0
0
0
0
0
0
0
0
0
0
0
0
0
0
0
0
0
0
0
0
0
0
0
0
0
0
0
0
0
0
0
0
0
0
0
0
0
0
0
0
0
0
0
0
0
0
0
0
0
0
0
0
0
0
0
0
0
0
0
0
0
0
0
0
0
0
0
0
0
0
0
0
0
0
0
0
0
0
0
0
0
0
0
0
0
0
0
0
0
0
0
0
0
0
0
0
0
0
0
0
0
0
0
0
0
0
0
0
0
0
0
0
0
0
0
0
0
0
0
0
0
0
0
0
0
0
0
0
0
0
0
0
0
0
0
0
0
0
0
0
0
0
0
0
0
0
0
0
0
0
0
0
0
0
0
0
0
0
1.64967e-06
5.44492e-07
2.39933e-07
1.62768e-07
1.49641e-07
1.26349e-07
1.08605e-07
1.28836e-07
8.4067e-08
1.50384e-08
4.53299e-09
4.55412e-09
1.94589e-09
1.44407e-10
6.42581e-08
1.26546e-06
4.16787e-06
3.69138e-06
1.90928e-06
1.21823e-06
6.97703e-07
5.89842e-07
5.72117e-07
6.47321e-07
6.99012e-07
5.01368e-07
2.20979e-07
1.9566e-07
1.54541e-07
1.57195e-07
2.30082e-07
1.97842e-06
5.53737e-06
6.05531e-06
5.81574e-06
5.52041e-06
4.21116e-06
2.6647e-06
3.21921e-07
2.8655e-08
5.14625e-11
1.93136e-15
4.55035e-16
1.43602e-16
2.04274e-16
2.42309e-13
1.08601e-10
5.47216e-08
8.12243e-07
3.26764e-06
2.29089e-06
1.90055e-06
3.0213e-06
4.83213e-06
4.52716e-06
4.21563e-06
3.99918e-06
3.84527e-06
3.97399e-06
4.01605e-06
3.68462e-06
3.70348e-06
4.25046e-06
3.93384e-06
1.79408e-07
3.17768e-09
2.49803e-10
7.96775e-11
1.75327e-11
5.86154e-11
1.65964e-14
3.95919e-20
3.57131e-22
4.35736e-21
5.1947e-28
2.39865e-25
3.916e-23
3.23633e-23
3.31426e-23
2.21408e-22
2.38508e-21
6.7225e-21
1.92915e-20
1.88999e-19
1.53312e-17
1.36645e-16
7.28891e-15
3.18186e-14
7.4208e-15
6.79574e-17
1.51168e-20
1.58377e-24
1.36741e-28
2.67571e-32
2.8394e-35
2.68443e-37
1.13969e-38
6.24659e-42
2.49132e-46
5.90334e-51
3.61629e-56
4.80656e-62
2.8009e-66
1.76855e-69
3.81367e-82
2.16281e-83
1.3644e-87
2.14218e-91
4.27814e-95
4.53895e-98
5.34124e-101
4.91798e-104
1.02641e-106
9.12121e-109
3.59932e-111
9.83596e-115
1.65319e-118
2.39709e-122
3.80673e-126
5.59188e-130
9.41114e-134
1.50699e-137
2.93216e-141
5.18464e-145
9.71973e-149
1.80675e-152
3.51512e-156
6.09171e-160
1.04396e-163
1.62166e-167
2.3796e-171
2.4554e-175
1.9795e-180
3.104e-186
8.72428e-203
4.90634e-205
1.52552e-210
2.88872e-216
5.08296e-222
7.39033e-228
1.27573e-233
2.07439e-239
4.55953e-245
8.90594e-251
2.30822e-256
4.19966e-262
1.02452e-267
1.70871e-273
3.36426e-279
4.99575e-285
8.14224e-291
1.02133e-296
1.38624e-302
1.50662e-308
1.7601e-314
1.73911e-320
0
0
0
0
0
0
0
0
0
0
0
0
0
0
0
0
0
0
0
0
0
0
0
0
0
0
0
0
0
0
0
0
0
0
0
0
0
0
0
0
0
0
0
0
0
0
0
0
0
0
0
0
0
0
0
0
0
0
0
0
0
0
0
0
0
0
0
0
0
0
0
0
0
0
0
0
0
0
0
0
0
0
0
0
0
0
0
0
0
0
0
0
0
0
0
0
0
0
0
0
0
0
0
0
0
0
0
0
0
0
0
0
0
0
0
0
0
0
0
0
0
0
0
0
0
0
0
0
0
0
0
0
0
0
0
0
0
0
0
0
0
0
0
0
0
0
0
0
0
0
0
0
0
0
0
0
0
0
0
0
0
0
0
0
0
0
0
0
0
0
0
0
0
0
0
0
0
0
0
0
0
0
0
0
0
0
0
0
0
0
0
0
0
0
0
0
0
0
0
0
0
0
0
0
0
0
0
0
0
0
0
0
0
0
0
0
0
0
6.27214e-07
7.89134e-07
1.0243e-06
1.36103e-06
1.32808e-06
3.23054e-07
8.22566e-07
1.62539e-06
9.91286e-07
6.04153e-07
1.88981e-07
1.66289e-08
8.24565e-09
4.89733e-10
1.32057e-07
2.40188e-06
4.04804e-06
1.37395e-06
5.15198e-07
4.41455e-07
4.74025e-07
4.16028e-07
2.25012e-07
1.34437e-07
7.20396e-08
2.66532e-08
1.26104e-08
8.20945e-09
6.42753e-09
7.62088e-09
2.01883e-08
1.29395e-07
7.2715e-07
1.59639e-06
2.31268e-06
3.69448e-06
4.29927e-06
4.20417e-06
2.39869e-06
3.5332e-07
1.19067e-08
2.88917e-12
3.56885e-14
2.31485e-14
1.0888e-16
1.37638e-13
3.54182e-11
1.44352e-08
6.57749e-07
3.31007e-06
1.83447e-06
1.4334e-06
4.49213e-06
4.78146e-06
1.23598e-06
7.50231e-07
1.553e-06
3.42198e-06
4.1028e-06
4.44985e-06
4.09421e-06
3.8235e-06
3.88295e-06
4.23187e-06
2.76682e-06
5.2064e-08
5.95948e-10
6.64098e-11
5.88561e-11
1.2618e-10
3.54325e-10
3.16541e-15
1.25672e-19
2.14069e-18
2.66592e-24
4.18554e-22
5.85084e-21
2.29388e-21
1.0617e-20
3.18155e-19
5.9018e-19
1.82446e-18
3.08372e-17
8.1847e-16
9.00605e-14
1.35778e-12
2.53473e-11
6.62321e-12
5.16289e-13
1.14167e-14
9.04703e-18
3.31488e-21
6.04055e-25
5.00976e-29
7.28853e-33
5.00964e-36
2.88567e-38
5.6352e-40
5.21375e-42
4.636e-46
1.28104e-50
1.2784e-55
9.64284e-62
1.41602e-65
1.0917e-77
2.25084e-80
6.80999e-84
5.74078e-87
1.65382e-90
2.11688e-93
3.83156e-97
5.2983e-101
1.45639e-104
1.64526e-107
9.05622e-110
6.57041e-112
1.80807e-114
6.66711e-118
1.587e-121
3.67332e-125
7.00839e-129
1.55398e-132
2.89774e-136
6.62949e-140
1.22469e-143
2.72015e-147
4.91848e-151
9.99619e-155
1.65814e-158
2.90273e-162
4.22469e-166
5.55424e-170
5.53627e-174
1.11891e-179
9.48462e-196
2.9896e-198
6.06208e-204
8.75695e-210
1.06068e-215
1.27737e-221
1.573e-227
2.11526e-233
2.98737e-239
5.34536e-245
1.016e-250
2.5115e-256
6.39954e-262
1.65349e-267
3.73968e-273
7.14724e-279
1.30098e-284
1.97032e-290
2.88862e-296
3.51319e-302
4.24623e-308
4.38045e-314
4.60568e-320
0
0
0
0
0
0
0
0
0
0
0
0
0
0
0
0
0
0
0
0
0
0
0
0
0
0
0
0
0
0
0
0
0
0
0
0
0
0
0
0
0
0
0
0
0
0
0
0
0
0
0
0
0
0
0
0
0
0
0
0
0
0
0
0
0
0
0
0
0
0
0
0
0
0
0
0
0
0
0
0
0
0
0
0
0
0
0
0
0
0
0
0
0
0
0
0
0
0
0
0
0
0
0
0
0
0
0
0
0
0
0
0
0
0
0
0
0
0
0
0
0
0
0
0
0
0
0
0
0
0
0
0
0
0
0
0
0
0
0
0
0
0
0
0
0
0
0
0
0
0
0
0
0
0
0
0
0
0
0
0
0
0
0
0
0
0
0
0
0
0
0
0
0
0
0
0
0
0
0
0
0
0
0
0
0
0
0
0
0
0
0
0
0
0
0
0
0
0
0
0
0
0
0
0
0
0
0
0
0
0
0
0
0
0
0
0
0
1.42808e-06
4.03955e-06
6.65748e-06
7.86871e-06
7.47415e-06
3.82891e-06
4.91668e-06
4.47608e-06
3.75634e-06
3.06333e-06
1.74114e-06
4.01045e-07
3.74578e-08
2.77106e-09
4.22174e-07
2.44645e-06
4.32287e-06
2.30605e-06
8.31035e-07
5.97186e-07
1.02797e-06
1.39696e-06
5.5236e-07
1.35131e-07
3.17775e-08
1.08489e-08
3.88285e-09
1.80376e-09
1.24261e-09
1.34228e-09
3.07117e-09
1.65321e-08
7.03628e-08
2.04495e-07
5.54254e-07
1.70463e-06
3.05997e-06
4.40859e-06
4.2236e-06
2.88396e-06
1.7722e-07
6.04553e-09
4.58003e-12
1.85544e-12
2.85673e-16
7.88605e-14
1.15634e-11
2.03378e-09
4.00763e-07
3.68534e-06
1.52897e-06
1.05793e-06
4.22532e-06
8.83253e-07
4.20342e-08
1.31158e-08
1.13097e-08
3.09201e-08
2.07148e-07
2.18875e-06
4.31226e-06
4.39714e-06
4.15969e-06
4.16916e-06
4.43741e-06
6.18737e-07
4.19992e-09
4.2167e-11
3.67982e-11
9.81112e-11
9.29833e-10
4.7692e-10
2.97363e-15
7.7715e-16
1.71875e-20
4.57984e-19
8.5667e-19
4.40657e-19
3.10419e-18
7.00884e-17
3.09969e-16
3.51958e-15
4.37667e-14
1.57151e-12
8.44414e-11
4.40606e-10
6.63639e-10
1.69413e-10
2.9132e-11
1.14821e-12
1.78451e-15
8.90004e-19
3.84789e-22
9.95948e-26
1.2908e-29
1.79022e-33
9.98126e-37
3.65987e-39
5.03028e-41
8.85918e-43
4.45753e-46
1.88499e-50
1.90959e-55
9.21529e-61
8.3826e-74
1.6574e-76
9.71812e-80
1.06222e-83
1.44055e-87
2.50235e-89
1.48901e-92
5.17744e-97
2.66076e-101
4.93488e-105
5.16088e-108
1.92932e-110
8.08626e-113
2.34115e-115
3.39987e-118
2.17845e-121
8.49564e-125
2.70724e-128
7.39903e-132
1.97732e-135
4.93363e-139
1.20883e-142
2.86865e-146
6.4513e-150
1.39379e-153
2.68352e-157
4.692e-161
6.53161e-165
7.11842e-169
4.57802e-173
2.58225e-189
4.14635e-192
7.95916e-198
1.13666e-203
1.27957e-209
1.31972e-215
1.40758e-221
1.53592e-227
1.89079e-233
2.50891e-239
4.0029e-245
7.20652e-251
1.61805e-256
3.96785e-262
1.22138e-267
3.34163e-273
8.29262e-279
1.6508e-284
2.96792e-290
4.38545e-296
6.00126e-302
6.99124e-308
7.78479e-314
7.55426e-320
0
0
0
0
0
0
0
0
0
0
0
0
0
0
0
0
0
0
0
0
0
0
0
0
0
0
0
0
0
0
0
0
0
0
0
0
0
0
0
0
0
0
0
0
0
0
0
0
0
0
0
0
0
0
0
0
0
0
0
0
0
0
0
0
0
0
0
0
0
0
0
0
0
0
0
0
0
0
0
0
0
0
0
0
0
0
0
0
0
0
0
0
0
0
0
0
0
0
0
0
0
0
0
0
0
0
0
0
0
0
0
0
0
0
0
0
0
0
0
0
0
0
0
0
0
0
0
0
0
0
0
0
0
0
0
0
0
0
0
0
0
0
0
0
0
0
0
0
0
0
0
0
0
0
0
0
0
0
0
0
0
0
0
0
0
0
0
0
0
0
0
0
0
0
0
0
0
0
0
0
0
0
0
0
0
0
0
0
0
0
0
0
0
0
0
0
0
0
0
0
0
0
0
0
0
0
0
0
0
0
0
0
0
0
0
0
7.05124e-06
9.73419e-06
8.5619e-06
6.45733e-06
5.27934e-06
5.2955e-06
3.55274e-06
3.14833e-06
3.89051e-06
4.13154e-06
3.6847e-06
1.94549e-06
2.60456e-07
6.85336e-09
2.4283e-06
2.39078e-06
2.76917e-06
3.89289e-06
4.4772e-06
2.04277e-06
2.74462e-06
5.00004e-06
4.24804e-06
7.02907e-07
1.22753e-07
2.40689e-08
7.9575e-09
1.97014e-09
8.70332e-10
5.12844e-10
6.14953e-10
1.7815e-09
8.48288e-09
3.17293e-08
1.03348e-07
4.26347e-07
1.34267e-06
3.01852e-06
4.40716e-06
3.93884e-06
1.46941e-06
8.96062e-08
3.09053e-09
1.84958e-10
4.77062e-14
1.17122e-12
9.99646e-12
1.13932e-09
1.93787e-07
4.58457e-06
2.13906e-06
9.75862e-07
3.11831e-06
5.45972e-07
1.52757e-08
1.43015e-09
6.44722e-10
8.95215e-10
6.98133e-09
1.414e-07
1.79312e-06
3.66103e-06
4.33237e-06
4.4514e-06
4.43944e-06
2.94526e-06
2.39119e-08
8.91102e-10
3.97678e-11
1.22275e-11
1.1667e-10
5.38288e-09
6.76862e-11
3.55022e-13
1.79857e-16
4.28453e-16
1.64446e-16
1.31057e-16
5.63018e-16
5.26859e-15
7.72493e-14
8.83434e-13
1.13826e-11
1.30693e-10
4.4236e-10
1.92817e-10
3.58862e-11
1.38256e-11
6.64691e-12
4.34455e-12
4.43763e-13
2.11343e-16
8.32591e-20
3.59333e-23
9.24846e-27
1.73883e-30
2.88702e-34
1.39938e-37
4.14455e-40
3.40456e-42
5.26435e-44
1.60612e-46
6.29032e-51
1.4259e-56
4.26097e-70
1.67637e-72
9.34695e-77
4.73859e-82
4.89918e-85
8.55679e-86
4.83165e-89
1.51904e-93
7.00141e-98
5.54853e-102
1.55011e-105
1.70763e-108
5.15387e-111
1.19615e-113
1.80582e-116
1.77341e-119
1.65374e-122
9.83398e-126
8.25705e-129
3.51376e-132
1.59849e-135
5.68631e-139
1.98773e-142
6.04487e-146
1.67332e-149
4.23678e-153
9.19123e-157
1.72916e-160
2.22868e-164
1.90982e-168
6.69756e-184
2.75736e-187
1.99907e-193
4.18716e-199
1.08253e-204
1.62846e-210
2.08607e-216
2.31223e-222
2.70581e-228
3.16377e-234
4.2102e-240
6.25208e-246
1.08721e-251
2.21919e-257
5.35714e-263
1.52107e-268
4.7776e-274
1.40729e-279
3.38181e-285
6.76668e-291
1.13502e-296
1.63106e-302
2.04425e-308
2.14429e-314
1.87597e-320
0
0
0
0
0
0
0
0
0
0
0
0
0
0
0
0
0
0
0
0
0
0
0
0
0
0
0
0
0
0
0
0
0
0
0
0
0
0
0
0
0
0
0
0
0
0
0
0
0
0
0
0
0
0
0
0
0
0
0
0
0
0
0
0
0
0
0
0
0
0
0
0
0
0
0
0
0
0
0
0
0
0
0
0
0
0
0
0
0
0
0
0
0
0
0
0
0
0
0
0
0
0
0
0
0
0
0
0
0
0
0
0
0
0
0
0
0
0
0
0
0
0
0
0
0
0
0
0
0
0
0
0
0
0
0
0
0
0
0
0
0
0
0
0
0
0
0
0
0
0
0
0
0
0
0
0
0
0
0
0
0
0
0
0
0
0
0
0
0
0
0
0
0
0
0
0
0
0
0
0
0
0
0
0
0
0
0
0
0
0
0
0
0
0
0
0
0
0
0
0
0
0
0
0
0
0
0
0
0
0
0
0
0
0
0
7.55348e-06
4.94448e-06
3.66996e-06
2.96271e-06
2.56629e-06
2.02437e-06
1.29751e-06
1.24627e-06
2.29171e-06
3.77561e-06
4.00391e-06
3.03513e-06
1.12019e-06
3.19302e-08
9.067e-08
2.40903e-07
5.89694e-07
1.53616e-06
3.06933e-06
4.69171e-06
5.10091e-06
4.35827e-06
5.00511e-06
5.56139e-06
5.61881e-06
5.59508e-06
1.96402e-06
2.16056e-07
5.39054e-08
9.98443e-09
1.79488e-09
5.27832e-10
2.65158e-10
4.33093e-10
1.15379e-09
4.3689e-09
2.17081e-08
8.93958e-08
4.24701e-07
1.23327e-06
3.9254e-06
4.14017e-06
2.19256e-06
1.68934e-07
2.8469e-08
1.7304e-09
8.88012e-10
7.69525e-11
2.15139e-11
2.27214e-10
1.35781e-10
5.07286e-10
4.39104e-08
1.103e-06
3.50092e-06
1.08601e-06
2.10948e-06
2.38612e-06
1.31269e-08
1.26179e-09
2.59691e-10
1.38248e-10
3.3152e-10
6.58556e-09
1.62572e-07
1.42877e-06
2.09165e-06
3.3589e-06
4.02441e-06
3.16581e-06
2.55084e-07
6.32756e-09
1.37322e-10
1.34268e-11
1.50493e-11
6.26431e-10
1.39644e-07
7.73312e-10
1.38833e-11
1.2416e-13
1.224e-13
1.65439e-13
1.95452e-13
2.39921e-13
1.33595e-12
3.37816e-12
1.14169e-11
7.42344e-11
1.81554e-10
1.37946e-10
4.40281e-11
6.22745e-12
1.29487e-12
1.06302e-12
1.5501e-12
9.96066e-13
5.39254e-13
3.45057e-14
8.02606e-18
1.51531e-21
5.6646e-25
2.16449e-28
7.39413e-32
2.33126e-35
1.32972e-38
2.1145e-41
1.4973e-43
1.89276e-45
2.10094e-47
5.29561e-53
2.46275e-58
9.39354e-63
1.63955e-67
9.71436e-72
2.84363e-75
3.77095e-78
3.30095e-80
2.32359e-82
1.32739e-86
8.57429e-91
6.18555e-95
6.39762e-99
1.112e-102
5.26029e-106
6.10257e-109
9.94205e-112
1.32233e-114
1.34114e-117
1.04091e-120
6.79389e-124
4.72897e-127
2.26482e-130
1.2364e-133
5.68579e-137
2.30229e-140
1.06143e-143
4.81247e-147
1.87338e-150
1.05085e-153
4.66068e-157
1.91559e-160
4.1206e-164
8.01637e-168
1.52549e-171
4.17317e-178
6.9304e-185
3.6958e-191
5.69034e-197
1.60434e-202
3.65562e-208
6.06182e-214
8.56052e-220
1.48128e-225
2.48291e-231
4.14072e-237
7.31514e-243
1.37419e-248
2.81862e-254
6.54729e-260
1.70135e-265
5.09318e-271
1.72918e-276
5.48024e-282
1.3874e-287
2.8688e-293
4.95785e-299
7.22643e-305
8.8085e-311
8.47894e-317
6.91692e-323
0
0
0
0
0
0
0
0
0
0
0
0
0
0
0
0
0
0
0
0
0
0
0
0
0
0
0
0
0
0
0
0
0
0
0
0
0
0
0
0
0
0
0
0
0
0
0
0
0
0
0
0
0
0
0
0
0
0
0
0
0
0
0
0
0
0
0
0
0
0
0
0
0
0
0
0
0
0
0
0
0
0
0
0
0
0
0
0
0
0
0
0
0
0
0
0
0
0
0
0
0
0
0
0
0
0
0
0
0
0
0
0
0
0
0
0
0
0
0
0
0
0
0
0
0
0
0
0
0
0
0
0
0
0
0
0
0
0
0
0
0
0
0
0
0
0
0
0
0
0
0
0
0
0
0
0
0
0
0
0
0
0
0
0
0
0
0
0
0
0
0
0
0
0
0
0
0
0
0
0
0
0
0
0
0
0
0
0
0
0
0
0
0
0
0
0
0
0
0
0
0
0
0
0
0
0
0
0
0
0
0
0
0
0
0
0
0
0
0
0
0
0
0
0
0
0
0
0
0
0
1.92173e-06
1.18685e-06
8.81278e-07
8.67927e-07
7.23704e-07
3.70558e-07
1.66205e-07
7.15435e-08
1.65574e-07
6.03977e-07
4.09472e-06
3.11085e-06
1.49343e-06
3.5386e-07
8.53188e-08
7.75738e-08
1.47678e-07
9.92869e-07
4.08068e-06
5.08237e-06
5.00328e-06
5.25203e-06
5.39385e-06
5.09763e-06
5.29625e-06
5.78921e-06
5.86188e-06
3.15806e-06
6.3897e-07
5.79042e-08
5.12276e-09
6.60164e-10
2.23075e-10
1.50848e-10
2.33619e-10
7.04806e-10
3.60325e-09
2.60365e-08
1.18018e-07
7.94249e-07
4.62262e-06
2.54764e-06
1.41371e-06
8.82646e-07
5.38235e-08
2.65939e-08
2.26072e-08
1.47755e-08
1.87988e-08
3.49161e-08
1.75786e-08
7.44573e-09
1.77057e-08
2.67792e-07
4.50064e-06
1.9958e-06
1.39531e-06
3.92107e-06
1.17904e-07
2.6487e-09
2.61719e-10
8.83269e-11
7.22683e-11
2.80249e-10
9.46962e-09
1.35893e-07
3.78067e-07
7.76178e-07
1.36161e-06
1.64709e-06
7.84383e-07
4.9383e-08
1.13177e-09
3.7819e-11
1.1388e-11
1.09991e-11
2.65201e-09
2.03737e-07
4.06302e-08
1.28101e-09
1.45784e-10
9.91946e-12
5.61115e-12
1.25961e-11
1.12068e-10
5.58396e-10
7.16757e-10
1.39046e-10
4.59904e-11
1.699e-11
2.70393e-12
1.18899e-12
1.15496e-12
1.24078e-12
1.58169e-12
1.89611e-12
4.156e-13
1.713e-13
1.83698e-16
5.78584e-20
1.60823e-23
5.37296e-27
1.80866e-30
5.7992e-34
1.94697e-37
1.70514e-40
2.54902e-43
1.22085e-45
9.30561e-48
2.45532e-49
1.45307e-53
2.75397e-58
1.66456e-62
2.21368e-66
5.32634e-70
4.47375e-73
2.28522e-76
1.89856e-80
1.97806e-84
2.01295e-88
2.58254e-92
4.09099e-96
7.66548e-100
2.59001e-103
1.40167e-106
1.33046e-109
1.36744e-112
1.14897e-115
8.99488e-119
5.83104e-122
3.70945e-125
2.06768e-128
1.05628e-131
4.41962e-135
2.26385e-138
9.62231e-142
3.94506e-145
1.71344e-148
7.72579e-152
2.8217e-155
1.50685e-158
1.13029e-161
3.59425e-165
2.8599e-169
1.68553e-173
4.26433e-180
2.36014e-186
2.98429e-192
6.43968e-198
9.22787e-204
1.52106e-209
2.06078e-215
2.83895e-221
3.71199e-227
5.29454e-233
7.4879e-239
1.29445e-244
2.20654e-250
4.59975e-256
9.51291e-262
2.42507e-267
6.53505e-273
1.86633e-278
4.31536e-284
8.54589e-290
1.40411e-295
2.00065e-301
2.5172e-307
2.71268e-313
2.53495e-319
0
0
0
0
0
0
0
0
0
0
0
0
0
0
0
0
0
0
0
0
0
0
0
0
0
0
0
0
0
0
0
0
0
0
0
0
0
0
0
0
0
0
0
0
0
0
0
0
0
0
0
0
0
0
0
0
0
0
0
0
0
0
0
0
0
0
0
0
0
0
0
0
0
0
0
0
0
0
0
0
0
0
0
0
0
0
0
0
0
0
0
0
0
0
0
0
0
0
0
0
0
0
0
0
0
0
0
0
0
0
0
0
0
0
0
0
0
0
0
0
0
0
0
0
0
0
0
0
0
0
0
0
0
0
0
0
0
0
0
0
0
0
0
0
0
0
0
0
0
0
0
0
0
0
0
0
0
0
0
0
0
0
0
0
0
0
0
0
0
0
0
0
0
0
0
0
0
0
0
0
0
0
0
0
0
0
0
0
0
0
0
0
0
0
0
0
0
0
0
0
0
0
0
0
0
0
0
0
0
0
0
0
0
0
0
0
0
0
0
0
0
0
0
0
0
0
0
0
0
0
1.42996e-07
1.04783e-07
9.85997e-08
1.0259e-07
1.25426e-07
6.71212e-08
2.00956e-08
3.45685e-09
3.28358e-09
3.55413e-09
7.60052e-08
2.25271e-06
3.8192e-06
2.33406e-06
3.48782e-07
1.62706e-07
7.66115e-07
4.29431e-06
1.24818e-06
3.41917e-06
5.00684e-06
5.25657e-06
5.19707e-06
5.44132e-06
4.86473e-06
5.07357e-06
5.37525e-06
5.27777e-06
2.41177e-06
1.54953e-07
7.26245e-09
6.07147e-10
1.61335e-10
8.85786e-11
9.13588e-11
2.21534e-10
9.88961e-10
5.70839e-09
3.46098e-08
1.783e-07
3.56492e-06
2.24371e-06
4.10467e-07
2.89904e-07
3.32047e-07
4.26047e-07
4.78271e-07
7.20511e-07
1.85098e-06
2.82864e-06
3.63952e-08
1.72676e-08
1.65142e-08
3.73768e-08
1.80973e-07
3.74104e-06
2.57367e-06
2.67589e-06
2.04776e-06
8.64038e-09
3.25608e-10
8.50088e-11
5.57908e-11
4.86918e-11
2.79378e-10
7.1147e-09
5.84045e-08
8.00037e-08
1.24109e-07
2.09117e-07
2.37733e-07
7.64757e-08
8.20528e-09
3.71454e-10
3.04439e-11
1.15065e-11
8.11018e-12
7.11854e-10
9.06541e-09
8.64188e-09
6.74352e-09
3.58554e-09
1.64318e-09
1.90287e-09
3.30923e-09
5.62773e-10
1.29555e-10
3.28223e-11
4.36825e-12
1.02079e-12
8.44325e-13
1.46895e-12
2.60998e-12
2.98237e-12
3.30125e-12
3.77525e-12
1.48637e-12
4.53954e-13
9.47886e-15
1.23458e-18
1.64456e-22
4.14832e-26
1.51574e-29
6.22872e-33
2.49022e-36
1.10614e-39
7.66105e-43
6.38295e-46
1.56359e-48
7.80837e-51
1.44808e-53
1.95946e-56
7.1585e-60
1.56915e-63
1.88221e-67
4.41067e-71
5.30498e-75
1.14721e-78
1.78096e-82
3.39685e-86
8.04383e-90
1.83931e-93
5.21058e-97
1.46734e-100
5.89381e-104
3.51434e-107
2.14779e-110
1.45802e-113
9.00068e-117
4.82153e-120
3.05598e-123
1.34002e-126
6.41875e-130
2.89816e-133
1.12654e-136
4.40537e-140
1.57545e-143
6.9896e-147
2.73109e-150
1.01334e-153
3.48219e-157
1.78728e-160
5.42887e-164
9.04429e-168
1.15791e-171
1.21283e-175
9.33921e-182
1.03343e-187
1.36996e-193
1.74472e-199
2.0937e-205
2.42062e-211
2.85409e-217
3.335e-223
4.84681e-229
5.85929e-235
8.3462e-241
1.19848e-246
1.93994e-252
3.26813e-258
6.38458e-264
1.36499e-269
3.2055e-275
6.84401e-281
1.25176e-286
1.95374e-292
2.68553e-298
3.28659e-304
3.64242e-310
3.72679e-316
3.45846e-322
0
0
0
0
0
0
0
0
0
0
0
0
0
0
0
0
0
0
0
0
0
0
0
0
0
0
0
0
0
0
0
0
0
0
0
0
0
0
0
0
0
0
0
0
0
0
0
0
0
0
0
0
0
0
0
0
0
0
0
0
0
0
0
0
0
0
0
0
0
0
0
0
0
0
0
0
0
0
0
0
0
0
0
0
0
0
0
0
0
0
0
0
0
0
0
0
0
0
0
0
0
0
0
0
0
0
0
0
0
0
0
0
0
0
0
0
0
0
0
0
0
0
0
0
0
0
0
0
0
0
0
0
0
0
0
0
0
0
0
0
0
0
0
0
0
0
0
0
0
0
0
0
0
0
0
0
0
0
0
0
0
0
0
0
0
0
0
0
0
0
0
0
0
0
0
0
0
0
0
0
0
0
0
0
0
0
0
0
0
0
0
0
0
0
0
0
0
0
0
0
0
0
0
0
0
0
0
0
0
0
0
0
0
0
0
0
0
0
0
0
0
0
0
0
0
0
0
0
0
3.96547e-09
5.92246e-09
7.92074e-09
7.91342e-09
9.51067e-09
4.89586e-09
1.41749e-09
2.24114e-10
1.55701e-10
9.16061e-11
3.8882e-10
1.66273e-09
1.9198e-08
6.70981e-08
3.9905e-06
3.84051e-06
1.973e-06
2.99738e-08
1.59831e-07
4.13575e-06
4.8611e-06
5.13967e-06
4.48627e-06
1.6e-07
6.60006e-08
1.56806e-07
7.06312e-07
1.97049e-06
6.11636e-07
4.32869e-08
2.55026e-09
2.60891e-10
8.47218e-11
7.05971e-11
5.9689e-11
6.90764e-11
1.30122e-10
4.66303e-10
2.11719e-09
6.90347e-09
4.00267e-08
1.03405e-06
2.22368e-06
4.33573e-07
2.5702e-07
2.68085e-07
5.72301e-07
1.51504e-06
3.48512e-06
4.18313e-06
4.30315e-06
3.60802e-06
2.98125e-06
9.07928e-07
1.9114e-06
3.9232e-06
2.79341e-06
3.99039e-06
3.27717e-08
1.37069e-09
1.96942e-10
6.02102e-11
4.05268e-11
2.66181e-11
3.42713e-11
2.3135e-10
3.70322e-09
1.53743e-08
1.42759e-08
1.74311e-08
2.2714e-08
2.36538e-08
1.27212e-08
2.46053e-09
2.66772e-10
3.80721e-11
1.1503e-11
2.96202e-12
1.41513e-11
9.45139e-11
4.34413e-10
2.45491e-10
7.36072e-11
7.41124e-11
3.54941e-11
1.66894e-11
4.73291e-12
1.83422e-12
1.21204e-12
1.09664e-12
2.31478e-12
2.69469e-12
3.04698e-12
3.36914e-12
3.64926e-12
4.02919e-12
3.53701e-12
7.63734e-13
1.9206e-13
1.06417e-16
2.46348e-20
5.34552e-24
1.03852e-27
2.59644e-31
7.33932e-35
2.59752e-38
8.77794e-42
4.99081e-45
2.6366e-48
2.58321e-51
1.21808e-54
1.26174e-57
4.66955e-61
1.66202e-64
4.06605e-68
8.39203e-72
2.02712e-75
4.40084e-79
1.21998e-82
3.5145e-86
1.21744e-89
3.8349e-93
1.05722e-96
4.58808e-100
1.86224e-103
7.97365e-107
3.3693e-110
1.9113e-113
1.03863e-116
5.23245e-120
2.76324e-123
1.32074e-126
5.43445e-130
2.27588e-133
8.59703e-137
3.34576e-140
1.37089e-143
5.84579e-147
2.1913e-150
8.33052e-154
2.77211e-157
9.90286e-161
3.02307e-164
7.71214e-168
1.75087e-171
2.59925e-175
3.13265e-181
4.34633e-187
6.40293e-193
9.55998e-199
1.37394e-204
1.9405e-210
2.67407e-216
4.65823e-222
6.71326e-228
9.00052e-234
1.42345e-239
2.0503e-245
3.38715e-251
5.89087e-257
1.16033e-262
2.52107e-268
5.97773e-274
1.29178e-279
2.47115e-285
4.0925e-291
6.1811e-297
8.33811e-303
1.04997e-308
1.21613e-314
1.34386e-320
0
0
0
0
0
0
0
0
0
0
0
0
0
0
0
0
0
0
0
0
0
0
0
0
0
0
0
0
0
0
0
0
0
0
0
0
0
0
0
0
0
0
0
0
0
0
0
0
0
0
0
0
0
0
0
0
0
0
0
0
0
0
0
0
0
0
0
0
0
0
0
0
0
0
0
0
0
0
0
0
0
0
0
0
0
0
0
0
0
0
0
0
0
0
0
0
0
0
0
0
0
0
0
0
0
0
0
0
0
0
0
0
0
0
0
0
0
0
0
0
0
0
0
0
0
0
0
0
0
0
0
0
0
0
0
0
0
0
0
0
0
0
0
0
0
0
0
0
0
0
0
0
0
0
0
0
0
0
0
0
0
0
0
0
0
0
0
0
0
0
0
0
0
0
0
0
0
0
0
0
0
0
0
0
0
0
0
0
0
0
0
0
0
0
0
0
0
0
0
0
0
0
0
0
0
0
0
0
0
0
0
0
0
0
0
0
0
0
0
0
0
0
0
0
0
0
0
0
0
3.65989e-11
1.10564e-10
2.03494e-10
2.63858e-10
2.45244e-10
1.10601e-10
4.50718e-11
2.29018e-11
1.71016e-11
1.11163e-11
1.37457e-11
1.5745e-11
4.10465e-11
4.55998e-11
7.20655e-10
4.54976e-10
5.28477e-10
1.82228e-09
5.07738e-07
4.94745e-06
4.85751e-06
3.09184e-06
4.98304e-08
2.41177e-09
1.34679e-09
5.42057e-09
2.19581e-08
5.65035e-08
1.81225e-08
3.19332e-09