/*--------------------------------*- C++ -*----------------------------------*\
| =========                 |                                                 |
| \\      /  F ield         | OpenFOAM: The Open Source CFD Toolbox           |
|  \\    /   O peration     | Version:  2.1.1                                 |
|   \\  /    A nd           | Web:      www.OpenFOAM.org                      |
|    \\/     M anipulation  |                                                 |
\*---------------------------------------------------------------------------*/
FoamFile
{
    version     2.0;
    format      ascii;
    class       volScalarField;
    location    "0.002200000";
    object      rhoEu;
}
// * * * * * * * * * * * * * * * * * * * * * * * * * * * * * * * * * * * * * //

dimensions      [1 -1 -2 0 0 0 0];

internalField   nonuniform List<scalar> 
12384
(
-41161.2
-40702.8
-40199.7
-64499.7
-115438
-179428
-196997
-107685
-81781.2
-81282.9
-82416.7
-81063.3
-82592.1
-82928.8
-59036.2
-60571.3
-64230.1
-68327.9
-82253
-106350
-111200
-117105
-118340
-117114
-118917
-118365
-117087
-118760
-113546
-109278
-100248
-93353.3
-73173.5
-68062.3
-68042.2
-69681.9
-67640.8
-70328.1
-69061.1
-69431.1
-70730
-71432.4
-74679.2
-72892
-3066.1
-7858.35
6831.97
19580.2
30305.7
-6352.3
-72962.7
-96580.1
-107420
-119312
-113122
-108873
-97072.1
-84785.8
-54810.6
-39154.6
-43086.2
-47682.3
-54103.1
-62669.9
-61675.4
-59245.2
-56848.8
-58695.2
-53377.4
-53782.1
-47288.8
-41173.2
-40098.8
-41595
-90901
-90016.1
-89156
-87567.2
-86083.3
-83542.8
-80102.2
-77449.4
-73454.2
-74815.3
-69534.4
-68694.9
-66464.1
-61907.4
-57571.6
-52409.2
-47908.4
-44198.8
-43178.2
-44487.6
-48043.1
-49295.9
-48320.2
-44943.8
-45385.7
-43666.1
-48580.2
-54137.9
-60778.6
-64873.7
-102447
-102004
-102205
-101409
-101195
-100436
-99966
-99235.7
-98981.8
-98337.8
-98798.8
-98524.1
-99612.4
-99258.7
-100069
-99737.1
-100278
-100258
-100565
-100790
-101101
-101486
-101879
-102486
-102884
-103324
-103810
-103954
-104169
-104233
-107566
-107556
-107556
-107538
-107530
-107526
-107517
-107529
-107518
-107531
-107528
-107537
-107546
-107545
-107562
-107550
-107574
-107560
-107571
-107571
-107571
-107575
-107570
-107576
-107569
-107574
-107569
-107574
-107569
-107572
-107503
-107504
-107504
-107503
-107502
-107501
-107500
-107500
-107497
-107498
-107494
-107494
-107494
-107495
-107492
-107494
-107492
-107491
-107490
-107490
-107491
-107489
-107490
-107489
-107489
-107488
-107489
-107489
-107489
-107489
-107488
-107488
-107488
-107488
-107486
-107488
-107488
-107488
-107487
-107487
-107486
-107487
-107487
-107488
-107488
-107488
-107488
-107488
-107485
-107487
-107488
-107487
-107487
-107488
-107488
-107486
-107487
-107486
-107488
-107488
-107487
-107488
-107487
-107487
-107486
-107488
-107488
-107488
-107486
-107487
-107486
-107487
-107488
-107488
-107488
-107488
-107488
-107488
-107486
-107487
-107488
-107487
-107487
-107488
-107488
-107486
-107488
-107486
-107488
-107488
-107487
-107486
-107488
-107488
-107486
-107487
-107488
-107486
-107487
-107488
-107487
-107486
-107488
-107488
-107488
-107488
-107488
-107488
-107487
-107487
-107488
-107488
-107487
-107488
-107488
-107486
-107487
-107488
-107488
-107488
-107488
-107488
-107487
-107488
-107486
-107488
-107488
-107488
-107486
-107487
-107486
-107487
-107487
-107488
-107488
-107488
-107488
-107488
-107485
-107487
-107488
-107487
-107487
-107488
-107488
-107486
-107488
-107487
-107488
-107488
-107489
-107486
-107487
-107489
-107485
-107489
-107488
-107487
-107488
-107487
-107486
-107487
-107487
-107488
-107488
-107487
-107488
-107488
-107486
-107485
-107488
-107487
-107487
-107487
-107488
-107486
-107488
-107488
-107488
-107488
-107488
-107489
-107486
-107488
-107486
-107488
-107487
-107488
-107487
-107487
-107487
-107487
-107488
-107488
-107486
-107487
-107486
-107487
-107488
-107488
-107488
-107488
-107487
-107488
-107487
-107486
-107487
-107488
-107487
-107487
-40683.6
-42170.7
-45793.3
-50503.8
-108624
-172808
-146902
-97642.4
-88772.2
-85534.8
-82605.4
-81321.1
-82412.7
-84206.7
-63749.4
-70501.8
-90075.3
-120849
-150725
-168608
-142395
-129759
-121058
-124021
-138036
-152686
-159225
-160925
-165739
-176086
-185817
-196291
-142493
-105001
-98185.3
-80219.9
-69110.9
-65870
-69090.5
-69320.8
-71337.5
-71024.7
-74360.5
-76747.9
-7367.61
-2845.19
19374.4
43204
-18950.1
-161074
-244655
-227170
-221771
-221399
-211999
-221892
-230764
-235351
-185620
-133262
-107234
-97974.9
-57310.9
-54943.6
-52295.2
-58013.3
-59552.9
-56494.9
-53841.7
-51497.2
-46238.2
-44772.2
-44999.5
-45116.7
-92033.3
-91923.7
-91133.6
-90354.4
-87944.6
-85451.3
-82493.2
-78832.2
-76231.9
-74347.9
-75121.9
-72398.8
-70893.2
-69786.3
-65681.8
-61094.6
-55680
-51262.7
-46732.5
-43040.7
-41710.8
-42081.1
-43580.5
-43459.5
-45416.6
-45583.3
-49329.9
-54962.8
-57795.7
-61585.1
-102721
-103031
-102260
-102424
-101474
-101222
-100046
-99452.8
-98484.7
-98302.8
-98003
-98088.4
-98567.1
-99197.8
-99647.2
-100086
-100300
-100442
-100668
-100907
-101223
-101544
-102029
-102379
-102973
-103270
-103737
-104012
-104201
-104221
-107537
-107526
-107529
-107519
-107522
-107511
-107516
-107508
-107519
-107516
-107535
-107526
-107552
-107539
-107567
-107549
-107572
-107564
-107573
-107569
-107574
-107573
-107571
-107576
-107568
-107575
-107568
-107570
-107570
-107570
-107507
-107502
-107509
-107500
-107503
-107504
-107498
-107503
-107495
-107502
-107493
-107500
-107492
-107498
-107491
-107497
-107489
-107496
-107489
-107494
-107487
-107494
-107487
-107494
-107486
-107493
-107485
-107493
-107488
-107488
-107488
-107488
-107486
-107490
-107485
-107492
-107484
-107491
-107484
-107492
-107484
-107491
-107485
-107491
-107485
-107491
-107485
-107491
-107485
-107491
-107484
-107492
-107484
-107492
-107484
-107491
-107484
-107487
-107488
-107486
-107486
-107488
-107483
-107491
-107484
-107492
-107484
-107491
-107484
-107492
-107484
-107491
-107486
-107491
-107485
-107491
-107485
-107491
-107485
-107492
-107484
-107492
-107484
-107492
-107484
-107491
-107484
-107486
-107488
-107486
-107487
-107487
-107490
-107484
-107491
-107484
-107492
-107484
-107492
-107484
-107492
-107485
-107491
-107485
-107490
-107485
-107491
-107485
-107490
-107486
-107485
-107491
-107485
-107492
-107484
-107492
-107484
-107491
-107485
-107488
-107486
-107488
-107483
-107491
-107484
-107491
-107484
-107491
-107484
-107492
-107484
-107491
-107485
-107491
-107485
-107491
-107485
-107491
-107485
-107491
-107484
-107492
-107484
-107492
-107484
-107491
-107485
-107486
-107488
-107486
-107488
-107487
-107490
-107490
-107485
-107491
-107484
-107492
-107484
-107492
-107484
-107491
-107485
-107490
-107486
-107486
-107491
-107485
-107492
-107485
-107491
-107485
-107492
-107485
-107491
-107484
-107490
-107488
-107488
-107488
-107487
-107489
-107484
-107491
-107484
-107492
-107484
-107492
-107484
-107491
-107484
-107492
-107484
-107492
-107485
-107490
-107485
-107491
-107485
-107491
-107484
-107491
-107484
-107492
-107484
-107491
-107485
-107487
-107487
-107486
-41868.3
-46476.9
-47930.7
-72398.6
-130393
-176289
-136020
-122589
-113445
-99973.9
-88235.1
-82521.1
-82792.1
-84074.7
-69910.1
-96386.2
-132078
-157321
-122074
-82692
-52636.3
-35981.2
-27849.2
-27502.1
-40891.7
-60538
-76295
-82761.3
-80598.9
-81496.3
-80761.6
-107631
-133217
-164136
-186875
-131266
-83146.5
-69103.9
-65689.3
-65570.2
-70400.2
-73762
-74856.1
-75953.7
-10537.1
-2998.38
39395.2
41269.9
-115224
-256860
-213090
-192652
-199740
-213948
-229372
-230338
-231373
-227424
-212853
-210338
-212459
-226318
-214290
-113334
-76444.8
-53188.8
-59001.5
-56295.2
-49912.6
-47466.8
-44894.8
-47154.9
-48498.3
-47807.4
-95467.3
-94338.1
-93491.2
-91557.9
-90006
-87275.3
-83815.9
-80205.7
-79363.4
-75789.4
-74588.4
-76667.4
-73282.3
-70328
-67862
-64264.4
-60178.6
-54739.7
-47505
-41237.4
-35463.6
-33880.8
-36742.3
-38177.3
-44489.3
-47830.6
-51339.7
-55655.9
-57982
-61085
-103924
-103160
-103516
-102329
-102238
-100851
-100343
-98918.4
-98263.6
-97462.6
-97013.4
-97052.5
-97355.9
-98341.4
-99013
-100068
-100144
-100841
-100798
-101376
-101513
-102033
-102308
-102805
-103212
-103586
-103892
-104103
-104279
-104332
-107519
-107485
-107487
-107477
-107485
-107501
-107496
-107534
-107518
-107554
-107541
-107569
-107563
-107578
-107584
-107586
-107593
-107598
-107600
-107595
-107604
-107596
-107597
-107599
-107595
-107597
-107593
-107596
-107592
-107594
-107527
-107529
-107529
-107527
-107526
-107524
-107524
-107521
-107521
-107519
-107521
-107518
-107519
-107515
-107517
-107514
-107516
-107512
-107514
-107511
-107513
-107510
-107513
-107511
-107514
-107510
-107512
-107511
-107513
-107511
-107511
-107511
-107511
-107511
-107511
-107510
-107511
-107509
-107510
-107510
-107511
-107510
-107511
-107509
-107510
-107509
-107510
-107510
-107511
-107510
-107511
-107509
-107511
-107509
-107511
-107509
-107511
-107510
-107511
-107512
-107511
-107509
-107511
-107510
-107511
-107510
-107511
-107509
-107510
-107510
-107511
-107510
-107511
-107510
-107510
-107509
-107510
-107510
-107511
-107510
-107511
-107509
-107511
-107509
-107511
-107509
-107511
-107511
-107511
-107512
-107511
-107510
-107510
-107512
-107509
-107511
-107509
-107511
-107509
-107511
-107510
-107511
-107510
-107511
-107510
-107510
-107510
-107511
-107509
-107510
-107511
-107508
-107511
-107509
-107512
-107509
-107511
-107510
-107511
-107510
-107512
-107509
-107512
-107510
-107511
-107510
-107511
-107509
-107510
-107510
-107511
-107510
-107511
-107509
-107510
-107509
-107510
-107509
-107511
-107510
-107511
-107509
-107511
-107510
-107511
-107509
-107512
-107510
-107511
-107512
-107512
-107512
-107510
-107510
-107511
-107511
-107511
-107509
-107510
-107510
-107511
-107509
-107511
-107510
-107511
-107511
-107510
-107511
-107510
-107511
-107509
-107511
-107510
-107511
-107510
-107511
-107509
-107511
-107511
-107511
-107511
-107510
-107511
-107509
-107511
-107509
-107512
-107509
-107511
-107509
-107510
-107510
-107511
-107509
-107510
-107509
-107510
-107509
-107510
-107509
-107511
-107510
-107510
-107509
-107512
-107509
-107510
-107511
-107510
-107511
-43235.9
-51546.9
-57255.5
-67461.9
-108630
-159960
-151637
-130864
-130230
-114894
-102211
-87945.3
-84159.9
-84429.5
-71888.6
-137958
-127006
-77274.1
-18334
-3777.76
3640.43
6858.72
8085.21
6723.8
3642.55
-2345.48
-6162.53
-10324.7
-5261.39
-5904.97
-5013.15
-21372.3
-45194.3
-67686.5
-91255.6
-107440
-135106
-154874
-118345
-65512.7
-64645.2
-70913.2
-74984.6
-76086.8
-9611.09
-756.957
42692
25786.8
-139141
-243221
-211617
-169549
-141602
-131982
-169111
-189390
-202244
-204080
-202684
-207729
-217532
-218695
-210362
-217287
-229146
-138059
-54406.5
-53717.2
-50310.6
-42844.9
-44688
-48348.3
-54527.3
-55571.2
-94335
-94889.9
-94204.8
-94112.1
-92070
-89737.9
-87434.5
-85443.6
-80872.5
-80658.7
-73417.6
-76838.9
-65515.7
-62446.2
-58069
-57071.7
-54900.1
-53951.6
-49168
-43783.6
-36432.9
-28758.3
-29328.1
-31598.1
-40253.7
-47653.1
-50184.5
-54498.4
-56111.4
-56299.5
-103615
-104275
-103202
-103170
-101815
-101156
-99687.9
-98611.2
-97361.2
-96460.4
-95758.6
-95505.8
-95649.4
-96375.1
-97567
-98791.5
-99517.2
-100527
-100617
-101266
-101455
-102008
-102266
-102806
-103166
-103522
-103880
-104132
-104285
-104377
-107397
-107342
-107369
-107383
-107400
-107422
-107448
-107466
-107504
-107509
-107541
-107541
-107563
-107566
-107577
-107583
-107584
-107594
-107590
-107594
-107599
-107592
-107597
-107597
-107591
-107596
-107588
-107592
-107589
-107591
-107531
-107524
-107526
-107525
-107522
-107526
-107521
-107524
-107518
-107521
-107516
-107519
-107515
-107517
-107513
-107515
-107512
-107514
-107510
-107513
-107509
-107512
-107509
-107513
-107509
-107512
-107509
-107512
-107508
-107510
-107509
-107509
-107507
-107511
-107507
-107511
-107508
-107511
-107506
-107511
-107506
-107511
-107506
-107510
-107506
-107509
-107506
-107509
-107506
-107511
-107506
-107510
-107507
-107511
-107508
-107510
-107507
-107509
-107509
-107509
-107508
-107510
-107506
-107510
-107507
-107511
-107507
-107511
-107506
-107511
-107506
-107511
-107506
-107510
-107507
-107510
-107506
-107510
-107506
-107511
-107506
-107510
-107507
-107511
-107508
-107510
-107507
-107509
-107509
-107509
-107509
-107508
-107510
-107507
-107511
-107508
-107511
-107507
-107511
-107506
-107511
-107506
-107511
-107506
-107509
-107506
-107509
-107507
-107509
-107507
-107507
-107510
-107507
-107511
-107508
-107510
-107506
-107510
-107507
-107509
-107509
-107510
-107506
-107511
-107507
-107511
-107507
-107511
-107506
-107511
-107506
-107511
-107506
-107510
-107506
-107509
-107506
-107509
-107507
-107511
-107506
-107510
-107507
-107511
-107508
-107510
-107508
-107509
-107509
-107509
-107509
-107508
-107509
-107510
-107506
-107512
-107507
-107511
-107506
-107510
-107507
-107511
-107507
-107510
-107507
-107507
-107510
-107507
-107510
-107507
-107510
-107507
-107511
-107507
-107512
-107507
-107510
-107508
-107508
-107510
-107509
-107509
-107507
-107511
-107507
-107511
-107506
-107511
-107506
-107511
-107507
-107511
-107507
-107511
-107507
-107511
-107507
-107511
-107507
-107511
-107506
-107510
-107507
-107511
-107508
-107511
-107506
-107509
-107509
-107510
-50303.2
-52320.8
-55158.6
-60324.7
-68811.1
-125010
-113819
-86489.2
-91956.8
-123812
-143951
-114094
-88674.3
-84361.7
-93007.3
-152912
-80819.6
-16248.5
2145.46
5424.25
5398.02
6774.05
7448.9
6954.41
4230.83
2863.63
697.308
3237.43
1902.41
4645.22
2023.06
3532.58
-453.467
4103.18
-1807.33
-9536.48
-58700.1
-127963
-128974
-73506
-62722.1
-68904.7
-76256.4
-78680.1
-10031.8
10066.2
27959.9
11360.7
-130580
-240036
-206430
-116199
-43826.2
-25119.1
-43962.1
-70460.6
-98948.9
-130023
-143950
-167909
-192951
-206352
-215653
-217887
-217663
-212589
-170918
-79615.7
-51993.5
-45009.1
-42679.5
-48672.2
-54777.7
-57382.7
-97504.9
-95975.7
-95556.6
-93867.5
-92851.5
-91605
-90017.8
-88148.5
-87061.8
-85899.1
-67669.6
-64362.2
-44069.9
-41813.8
-36230.2
-38586.7
-40597.6
-43546.1
-44457.2
-43784.9
-39334.9
-32555.9
-27306.4
-27041.6
-33921.2
-42656
-48633.8
-53165.4
-51215.4
-50459.1
-103951
-103282
-103529
-102903
-101992
-100231
-98635.2
-97320
-96230.9
-95323.2
-94612.1
-94121
-94242.7
-94681
-95831.9
-97078.5
-98655.3
-99681
-100336
-101027
-101257
-101890
-102078
-102703
-102904
-103486
-103679
-104095
-104278
-104424
-107312
-107213
-107220
-107257
-107280
-107318
-107342
-107404
-107424
-107481
-107486
-107533
-107526
-107565
-107551
-107586
-107570
-107591
-107585
-107591
-107593
-107589
-107594
-107591
-107587
-107592
-107583
-107591
-107584
-107589
-107521
-107528
-107525
-107524
-107523
-107520
-107522
-107518
-107519
-107515
-107517
-107513
-107516
-107512
-107514
-107510
-107512
-107509
-107512
-107507
-107509
-107507
-107509
-107507
-107508
-107506
-107508
-107506
-107508
-107506
-107506
-107506
-107506
-107505
-107507
-107505
-107507
-107506
-107507
-107504
-107507
-107504
-107507
-107505
-107507
-107505
-107507
-107504
-107507
-107504
-107507
-107504
-107507
-107504
-107506
-107505
-107506
-107506
-107506
-107506
-107506
-107505
-107506
-107505
-107506
-107505
-107507
-107506
-107506
-107504
-107506
-107504
-107507
-107505
-107507
-107505
-107507
-107504
-107507
-107504
-107506
-107504
-107507
-107505
-107506
-107505
-107506
-107506
-107506
-107506
-107506
-107506
-107505
-107506
-107505
-107507
-107505
-107508
-107504
-107506
-107504
-107507
-107504
-107507
-107505
-107507
-107504
-107507
-107505
-107506
-107506
-107504
-107507
-107505
-107506
-107504
-107506
-107504
-107507
-107505
-107506
-107505
-107506
-107505
-107507
-107505
-107507
-107506
-107507
-107504
-107507
-107504
-107507
-107505
-107507
-107505
-107507
-107504
-107507
-107504
-107507
-107504
-107507
-107504
-107506
-107505
-107506
-107506
-107506
-107506
-107505
-107506
-107505
-107505
-107506
-107505
-107507
-107505
-107506
-107504
-107507
-107505
-107506
-107505
-107506
-107506
-107505
-107506
-107505
-107506
-107504
-107507
-107505
-107507
-107505
-107507
-107505
-107506
-107506
-107505
-107507
-107505
-107507
-107505
-107507
-107504
-107508
-107505
-107508
-107505
-107507
-107504
-107508
-107504
-107507
-107505
-107506
-107504
-107507
-107505
-107506
-107505
-107508
-107506
-107507
-107505
-107507
-107506
-107507
-107507
-43927.8
-22437.7
-10312.7
-7354.48
-16275.5
-69729.5
-60043.1
-46891.7
-58086.8
-68297.6
-106752
-139992
-109092
-87031.7
-99275.2
-129301
-40982.8
-2854.23
1747.09
2826.97
4020.37
4332.28
4867.79
4412.14
4040.95
1819.58
2921.22
-251.292
-23.8318
-3197.33
-250.701
852.715
4520.04
959.651
9730.57
2997.41
-54519.3
-131246
-164404
-131462
-64405.2
-61789.7
-66204.5
-71417.4
-630.093
1532.96
22401.6
-7432.44
-117727
-242891
-192835
-101041
-14541.9
17526
23145.1
11231.9
-4397.79
-25133.8
-48731.7
-84252
-129974
-170758
-194810
-210572
-219189
-216927
-208213
-184824
-106225
-55745.8
-49207
-47367.9
-52963.3
-59739.7
-95888.1
-95858
-95485.7
-93611.8
-92999.7
-92626.1
-93537.9
-91547.8
-86449.2
-79570.1
-52340.8
-37648.7
-14714.9
-13821.8
-9895.74
-14515.9
-20651.6
-28804.6
-35315.6
-39185.4
-39222.6
-36465.4
-30620.2
-27268.2
-28077.3
-35455.1
-43231.5
-49083.2
-48896.8
-46487.7
-102961
-103416
-103678
-102088
-99638.4
-96674.9
-95580.6
-94264.3
-94197.2
-93845.4
-93326.5
-92900.4
-92784.5
-93117.4
-94325.3
-95099.6
-97394.9
-98174.5
-100009
-100307
-101237
-101513
-101982
-102421
-102757
-103256
-103620
-104017
-104353
-104389
-107214
-106914
-106977
-107076
-107120
-107204
-107259
-107297
-107384
-107399
-107476
-107478
-107522
-107531
-107549
-107560
-107568
-107575
-107580
-107583
-107584
-107587
-107584
-107589
-107581
-107589
-107578
-107587
-107578
-107583
-107532
-107521
-107526
-107521
-107521
-107521
-107519
-107517
-107515
-107515
-107513
-107512
-107511
-107511
-107508
-107509
-107508
-107507
-107507
-107507
-107505
-107506
-107504
-107505
-107504
-107505
-107504
-107504
-107503
-107505
-107504
-107504
-107503
-107503
-107502
-107503
-107502
-107503
-107502
-107503
-107502
-107503
-107503
-107504
-107503
-107504
-107503
-107504
-107503
-107503
-107502
-107503
-107502
-107503
-107502
-107503
-107503
-107504
-107503
-107503
-107503
-107503
-107502
-107503
-107502
-107503
-107502
-107503
-107503
-107503
-107502
-107503
-107503
-107504
-107503
-107504
-107503
-107504
-107503
-107503
-107502
-107503
-107502
-107504
-107502
-107503
-107503
-107504
-107503
-107503
-107503
-107503
-107504
-107502
-107503
-107502
-107503
-107502
-107503
-107502
-107503
-107502
-107504
-107503
-107504
-107503
-107504
-107503
-107503
-107502
-107502
-107503
-107502
-107503
-107502
-107503
-107502
-107503
-107502
-107504
-107504
-107503
-107502
-107503
-107502
-107503
-107502
-107503
-107502
-107503
-107502
-107503
-107503
-107504
-107503
-107504
-107503
-107504
-107503
-107503
-107502
-107503
-107502
-107504
-107502
-107503
-107503
-107504
-107503
-107503
-107504
-107503
-107503
-107503
-107503
-107503
-107502
-107503
-107502
-107503
-107502
-107504
-107502
-107503
-107502
-107502
-107503
-107502
-107503
-107502
-107503
-107502
-107502
-107503
-107503
-107502
-107503
-107503
-107503
-107504
-107503
-107502
-107502
-107504
-107503
-107503
-107502
-107503
-107503
-107503
-107502
-107504
-107503
-107503
-107503
-107504
-107503
-107503
-107502
-107503
-107502
-107504
-107502
-107504
-107503
-107504
-107503
-107504
-107504
-107504
-4621.41
33996.1
51491.4
52296
37600.8
-2063.72
-9616.88
-24950.8
-41070.5
-46962.8
-62440.6
-106253
-148161
-102671
-123927
-121021
-57665.5
-24855.9
-7579.11
33.3984
188.767
2289.49
2685.24
2996.23
2089.95
1877.78
-614.976
-371.433
-3285.24
-2518.91
-5413.78
-3435.18
-1431.23
2412.47
7765.4
9640.19
-38774.3
-114847
-160580
-175450
-112242
-63354.8
-66457.6
-65809.2
3579.48
4377.33
-3819.58
-15543.8
-100723
-224316
-199585
-107568
-27426.1
18456.7
26056.9
26774.8
19266.8
13054.3
444.264
-26982.8
-60878.5
-106858
-150920
-186404
-214350
-221254
-215615
-203960
-209413
-163340
-75767.1
-53007.6
-50922.7
-54419.9
-95525.4
-94305.7
-94201.4
-95148.4
-94384.9
-93584
-90415.3
-87053.8
-74425.2
-52427.8
-26981.1
-12331.5
2730.73
-7554.53
2513.91
2189.86
-4034.6
-14163.8
-24263.5
-32216.3
-35958
-36101.2
-33346
-28227.6
-26244.5
-27961
-34298.6
-41220.9
-44549.6
-38472.4
-104431
-103727
-101439
-96111.8
-92118.4
-89191.8
-89170.6
-89254.6
-90623.7
-91432.1
-91927.9
-91676
-91631.2
-91783.4
-92636.2
-93820.8
-95874.6
-96862.2
-98902.6
-99669.9
-100755
-101188
-101770
-102088
-102598
-102905
-103446
-103774
-104260
-104330
-107111
-106411
-106557
-106736
-106950
-107014
-107140
-107191
-107300
-107346
-107409
-107451
-107482
-107511
-107527
-107545
-107550
-107571
-107560
-107583
-107566
-107587
-107566
-107589
-107566
-107587
-107564
-107581
-107566
-107576
-107515
-107524
-107518
-107520
-107517
-107515
-107515
-107511
-107511
-107509
-107510
-107506
-107507
-107504
-107505
-107503
-107503
-107501
-107502
-107499
-107501
-107499
-107500
-107498
-107500
-107498
-107499
-107498
-107499
-107498
-107497
-107497
-107498
-107496
-107498
-107497
-107498
-107496
-107497
-107496
-107497
-107497
-107498
-107497
-107498
-107497
-107498
-107497
-107498
-107496
-107497
-107495
-107498
-107497
-107498
-107497
-107497
-107497
-107497
-107498
-107497
-107497
-107498
-107496
-107498
-107496
-107498
-107497
-107497
-107496
-107497
-107496
-107498
-107497
-107497
-107497
-107498
-107497
-107497
-107496
-107497
-107495
-107498
-107497
-107498
-107497
-107497
-107497
-107497
-107498
-107497
-107497
-107497
-107498
-107496
-107498
-107496
-107498
-107495
-107497
-107496
-107498
-107497
-107498
-107497
-107498
-107497
-107498
-107497
-107497
-107497
-107496
-107498
-107496
-107498
-107496
-107497
-107497
-107498
-107497
-107497
-107497
-107498
-107496
-107498
-107496
-107498
-107496
-107497
-107496
-107497
-107497
-107498
-107497
-107498
-107497
-107498
-107497
-107498
-107496
-107497
-107495
-107498
-107497
-107498
-107497
-107497
-107497
-107497
-107498
-107496
-107496
-107496
-107496
-107497
-107496
-107498
-107496
-107497
-107496
-107497
-107497
-107498
-107497
-107497
-107497
-107497
-107498
-107496
-107498
-107496
-107497
-107496
-107498
-107496
-107498
-107496
-107497
-107497
-107497
-107497
-107497
-107498
-107496
-107498
-107496
-107498
-107496
-107497
-107495
-107497
-107496
-107498
-107496
-107497
-107496
-107497
-107496
-107497
-107496
-107498
-107496
-107498
-107496
-107498
-107497
-107498
-107497
-107497
-107498
57727.6
81236.1
84326.1
81507.7
60249.6
32541.3
-1708.35
-30993
-41532.6
-44166
-47328.6
-74522
-138157
-106954
-152818
-136079
-85397.2
-45544.3
-19736.2
-5452.22
-5389.15
-1982.46
92.2104
-511.526
3668.8
1847.82
2447.22
-422.469
1.13355
-3698.09
-3639.46
-6774.21
-3502.74
-1400.03
8525.51
10101.1
-10628.7
-71087.1
-128217
-164090
-181341
-104984
-51955
-57427
9107.04
1513.03
-7729.78
-18804.1
-94665.7
-229275
-196534
-130529
-42872.6
-3186.07
22772.5
12643.8
13469.4
9453.84
1757.22
-2883.39
-13624.5
-43646.5
-92601.1
-154037
-201977
-221918
-219113
-213195
-208188
-208326
-161643
-76030
-49229.5
-40895
-97448.9
-96631.2
-93835.3
-92206.4
-91218.1
-89502.5
-78750.1
-61861.4
-40757.2
-24483.7
-15240.7
-18439.1
-52972.3
-70213.2
-62248.3
-14546
2851.79
-4751.29
-16180.2
-25371.6
-31561.8
-34025.6
-31866
-28392.7
-23729.2
-23324.6
-26355.7
-34653.3
-37597.9
-26783.8
-99056.4
-97578.3
-88973.2
-80415.7
-76900.4
-77720.3
-80137.8
-82835.5
-86026.8
-88542.5
-89959.3
-90464.2
-90440.3
-90745.3
-91213.8
-92632.6
-94329.7
-95614.8
-97930.4
-98411.3
-100264
-100553
-101446
-101724
-102378
-102745
-103387
-103704
-103952
-103764
-105683
-105368
-105760
-106126
-106569
-106782
-106997
-107061
-107218
-107255
-107368
-107385
-107462
-107470
-107510
-107525
-107536
-107555
-107552
-107570
-107559
-107581
-107560
-107582
-107562
-107580
-107561
-107575
-107559
-107571
-107533
-107506
-107522
-107507
-107518
-107509
-107511
-107508
-107507
-107505
-107503
-107503
-107502
-107501
-107501
-107499
-107499
-107498
-107496
-107496
-107495
-107495
-107495
-107494
-107495
-107495
-107494
-107493
-107493
-107493
-107493
-107493
-107492
-107493
-107493
-107493
-107491
-107493
-107492
-107492
-107492
-107492
-107493
-107493
-107493
-107493
-107493
-107493
-107492
-107492
-107492
-107493
-107492
-107492
-107492
-107493
-107492
-107492
-107492
-107492
-107492
-107493
-107492
-107493
-107493
-107493
-107491
-107494
-107492
-107492
-107492
-107492
-107493
-107493
-107493
-107493
-107493
-107493
-107492
-107492
-107492
-107493
-107492
-107493
-107492
-107493
-107492
-107492
-107492
-107492
-107492
-107492
-107492
-107492
-107493
-107493
-107492
-107492
-107493
-107492
-107492
-107492
-107493
-107493
-107493
-107493
-107493
-107493
-107492
-107492
-107492
-107493
-107492
-107492
-107492
-107493
-107492
-107492
-107492
-107492
-107492
-107492
-107492
-107493
-107493
-107493
-107491
-107493
-107492
-107492
-107492
-107492
-107493
-107493
-107493
-107493
-107493
-107493
-107492
-107492
-107492
-107493
-107492
-107492
-107492
-107493
-107492
-107492
-107492
-107492
-107492
-107492
-107492
-107492
-107492
-107493
-107492
-107493
-107492
-107493
-107492
-107493
-107493
-107493
-107493
-107493
-107493
-107493
-107493
-107492
-107492
-107492
-107493
-107492
-107493
-107493
-107492
-107492
-107492
-107492
-107492
-107493
-107492
-107493
-107492
-107492
-107492
-107494
-107492
-107492
-107493
-107493
-107492
-107493
-107492
-107492
-107492
-107493
-107492
-107492
-107493
-107493
-107492
-107493
-107492
-107493
-107492
-107492
-107493
-107492
87227.7
89210.2
83670.6
67589.8
36544.3
3536.39
-29391.3
-43615.3
-44413.4
-43727.6
-43794.1
-55374.7
-110263
-104532
-160132
-126359
-81480.3
-57151.6
-30505.8
-18089.7
-16446.1
-11593.2
-10071.3
-5583.04
-3221.42
-187.989
573.001
4237.19
3912.35
3810.43
315.642
-119.65
-4235.24
-3341.58
-6440.87
-1087.68
3666.08
12832.6
11053.5
-13038.3
-67672.7
-130596
-175406
-190850
-64990.3
-45160
-31972.5
-39239.6
5356.54
-3996.22
-10132.8
-20564
-82727.5
-227548
-213755
-148149
-76494.6
-19976
6827.55
11404.7
4531.39
1289.47
3032.1
2200.63
1132
-6828.93
-50765.4
-120931
-182517
-216207
-221233
-218467
-211632
-208212
-203572
-163877
-78810.3
-29777.3
-52347.9
-49985.4
-72888.1
-84988.8
-86953.6
-82547.1
-72265.7
-51486.6
-32596.7
-22381.9
-15172.2
-18607.9
-44833
-102180
-124943
-136525
-139452
-103028
-25816
-1789.87
-9329.25
-19141.1
-25615.5
-30092.4
-29641.9
-25699.1
-22064.6
-19283.5
-21162.5
-26533.1
-31155.5
-11579.1
-41913.5
-57225
-65129.5
-60799.6
-56342.5
-53769.2
-58571.8
-64272.7
-70817.8
-76893.8
-82080.7
-85600.3
-87831.3
-88833.3
-89211.8
-89540
-90187.9
-90940.1
-92838.8
-94412.5
-96346.6
-97684.3
-99453.4
-99815.8
-100937
-101237
-101863
-102213
-102478
-102865
-102153
-99380.6
-101562
-103639
-103187
-103732
-104734
-105591
-106139
-106491
-106804
-106932
-107112
-107172
-107299
-107335
-107410
-107439
-107476
-107499
-107518
-107533
-107539
-107557
-107547
-107566
-107552
-107566
-107552
-107563
-107547
-107554
-107542
-107530
-107526
-107524
-107501
-107519
-107507
-107514
-107505
-107509
-107502
-107503
-107502
-107499
-107499
-107496
-107496
-107493
-107493
-107492
-107491
-107489
-107490
-107488
-107489
-107487
-107488
-107486
-107487
-107485
-107486
-107485
-107486
-107485
-107484
-107484
-107485
-107485
-107485
-107485
-107485
-107485
-107485
-107485
-107485
-107485
-107485
-107485
-107486
-107485
-107486
-107485
-107486
-107485
-107486
-107485
-107485
-107485
-107485
-107485
-107485
-107485
-107485
-107484
-107485
-107484
-107484
-107484
-107484
-107485
-107485
-107484
-107485
-107485
-107485
-107485
-107485
-107485
-107485
-107485
-107485
-107485
-107485
-107485
-107485
-107485
-107485
-107485
-107485
-107485
-107485
-107485
-107485
-107485
-107485
-107484
-107485
-107484
-107484
-107484
-107484
-107485
-107484
-107485
-107484
-107485
-107485
-107485
-107485
-107485
-107485
-107485
-107485
-107485
-107485
-107485
-107485
-107485
-107485
-107485
-107485
-107485
-107486
-107485
-107485
-107485
-107485
-107484
-107485
-107484
-107484
-107484
-107484
-107485
-107484
-107484
-107485
-107485
-107485
-107485
-107485
-107485
-107485
-107485
-107486
-107485
-107485
-107485
-107486
-107485
-107486
-107485
-107485
-107485
-107485
-107484
-107485
-107484
-107485
-107484
-107485
-107484
-107484
-107484
-107484
-107485
-107484
-107484
-107484
-107485
-107485
-107484
-107486
-107485
-107485
-107485
-107485
-107485
-107485
-107485
-107485
-107485
-107485
-107486
-107485
-107485
-107484
-107485
-107485
-107485
-107485
-107485
-107485
-107484
-107484
-107484
-107484
-107485
-107485
-107485
-107485
-107484
-107485
-107485
-107486
-107484
-107485
-107485
-107486
-107484
-107484
-107484
-107484
-107484
-107485
-107485
-107485
-107485
-107485
-107485
-107486
-107484
-107485
-107485
-107485
-107484
-107485
-107484
85598.2
80937.2
68265.8
41580.2
7562.15
-22730.5
-36765
-41461.6
-44198.5
-47374.2
-45459.8
-47943.4
-71366.3
-121683
-149673
-142017
-108836
-61402.9
-32898.7
-18900.7
-18762.5
-13152.7
-10514.3
-8477.44
-4088.78
-321.725
3019.1
2359.62
5652.53
3652.49
3730.39
-1232.28
-1156.65
-4520.33
-2991.94
-4106.23
2297.19
13277.7
23973.8
21678.7
-30724.5
-102485
-167490
-185362
-56892
-52826.5
-43171
-29845.6
-9325.07
-25426.4
-32268.7
-43675.4
-85999.6
-239151
-223509
-187199
-118377
-66870
-16722
9350.11
2837.29
856.44
982.203
3362.36
6303.73
2886.16
-22082
-81817.1
-149336
-197524
-216867
-219160
-216103
-209287
-205113
-196367
-166594
-68857.6
-28362.4
-29772.5
-28286.3
-26992.1
-26373.4
-21781.5
-15127.8
-12414.6
-9466.13
-9752.09
-20514.3
-47789
-106302
-157280
-147312
-145506
-159414
-152660
-86513.2
-16471.4
-7920.74
-13487.9
-20652
-24886.2
-24872.8
-23546.6
-17909.3
-15525.8
-16005
-18885.2
-22626.6
-14674.1
8100.91
-20788.2
-19620.5
-21907.7
-25423.2
-34833.6
-45387.7
-56036.4
-65944.4
-73914.3
-79576.4
-83166.6
-85407.8
-86773.1
-87532.4
-88087.6
-88767.1
-89646.2
-91642
-92951.4
-94884.6
-96888
-98319.1
-99139.3
-100376
-100695
-101515
-101694
-102302
-102239
-102368
-100585
-101174
-101821
-102676
-103631
-104618
-105687
-106114
-106516
-106680
-106894
-107021
-107136
-107241
-107303
-107373
-107410
-107458
-107476
-107502
-107518
-107527
-107544
-107540
-107553
-107546