/*--------------------------------*- C++ -*----------------------------------*\
| =========                 |                                                 |
| \\      /  F ield         | OpenFOAM: The Open Source CFD Toolbox           |
|  \\    /   O peration     | Version:  2.1.1                                 |
|   \\  /    A nd           | Web:      www.OpenFOAM.org                      |
|    \\/     M anipulation  |                                                 |
\*---------------------------------------------------------------------------*/
FoamFile
{
    version     2.0;
    format      ascii;
    class       volScalarField;
    location    "0.002200000";
    object      Tu;
}
// * * * * * * * * * * * * * * * * * * * * * * * * * * * * * * * * * * * * * //

dimensions      [0 0 0 1 0 0 0];

internalField   nonuniform List<scalar> 
12384
(
270
270
270
270
270
270
270
311.067
359.938
360.772
359.948
360.981
359.081
358.809
381.227
379.827
376.592
372.818
358.224
319.033
301.593
279.267
279.598
280.688
277.92
277.564
287.267
288.308
301.755
314.089
331.788
343.483
366.425
372.056
372.725
370.92
372.817
370.185
371.741
371.901
371.163
370.626
367.891
369.426
414.897
412.28
418.945
421.779
421.939
401.983
357.064
329.361
321.31
300.328
314.135
320.852
337.174
355.313
383.052
393.495
390.887
387.766
383.559
375.679
377.254
378.666
380.544
379.162
383.568
383.713
389.446
393.757
394.719
393.834
349.514
350.142
349.999
349.913
348.754
347.871
346.182
346.655
347.904
346.511
357.095
362.528
369.146
376.669
381.997
386.176
388.485
389.534
388.54
386.411
383.876
383.316
385.276
389.001
389.489
390.931
387.78
384.444
379.95
377.138
327.85
328.932
328.425
330.521
330.95
332.633
333.227
333.917
333.579
333.729
331.668
331.352
328.509
328.824
326.407
327.024
325.553
325.394
325.131
324.431
324.432
323.715
323.817
322.673
322.893
322.538
322.01
322.381
322.258
322.395
301.126
301.179
300.896
301.146
300.641
300.462
300.265
299.598
299.733
298.846
299.102
298.121
298.439
297.463
297.805
296.876
297.154
296.589
296.214
296.392
295.731
295.983
295.395
295.614
295.148
295.324
294.985
295.115
294.918
294.979
293.291
293.321
293.314
293.288
293.283
293.258
293.245
293.227
293.201
293.201
293.158
293.17
293.122
293.135
293.093
293.108
293.075
293.071
293.073
293.048
293.056
293.036
293.042
293.028
293.032
293.024
293.024
293.02
293.021
293.019
293.001
293.001
293.001
293
293.001
293
293
293
292.999
293
293
293
292.998
292.999
292.998
292.999
292.998
292.999
293
293
292.999
293
292.999
292.999
292.999
293.001
292.999
293.001
293
292.998
292.999
293
292.999
293.001
293
293
292.999
292.999
293
293
292.999
293
292.997
292.999
292.998
292.999
292.998
292.999
292.999
293
292.999
293
292.999
292.999
292.999
293.002
292.999
293
293
292.998
293
293.001
293
292.999
293.001
292.999
292.999
293
293
292.999
293
292.999
292.999
292.997
292.999
292.998
292.998
292.997
293
293
292.999
292.999
292.999
292.999
292.999
293.002
292.999
293
292.999
293
292.998
293
292.999
292.999
293
292.999
292.999
292.999
293
293
292.999
293
292.998
292.999
292.998
292.999
292.998
292.999
293
293
292.999
293
292.999
292.999
292.999
293.002
293
293.001
293
292.999
292.998
293
293
292.999
293.001
292.999
292.999
293
292.999
293
293
293
292.999
292.999
292.998
292.999
292.999
292.998
293.001
293.001
292.999
293
293.001
293
293
293.001
293
293
293
292.999
292.999
292.999
293.001
293
293.001
293
293
293
292.999
293.001
293
293
292.999
292.999
293.001
293
293.001
293
292.999
292.999
292.999
293
293
293
293
293.002
293.001
293
293.001
293
270
270
270
270
270
270
270
335.577
351.245
355.359
359.497
360.639
359.623
357.964
377.382
370.533
346.951
278.393
270
270
270
270
270
270
270
270
270
270
270
270
270
270
270
307.666
332.757
359.942
370.265
373.295
371.336
371.112
370.465
371.004
367.967
365.212
412.234
413.084
422.295
430.738
388.878
270
270
270
270
270
270
270
270
270
270
270
313.535
330.578
376.893
380.792
384.163
380.112
378.647
380.921
383.088
385.642
389.861
391.326
391.426
391.25
347.514
346.757
346.08
344.537
343.775
341.955
341.207
338.097
341.9
343.723
344.638
355.503
362.42
367.572
373.686
378.114
381.535
383.115
384.505
385.507
385.976
386.928
387.766
389.407
389.593
389.443
387.208
383.666
382.069
379.614
326.895
325.922
327.883
327.663
329.883
330.631
332.297
332.931
333.609
333.102
332.545
332.026
330.108
328.833
327.555
326.501
325.653
325.596
324.794
324.721
324.051
323.965
323.193
323.226
322.299
322.563
322.13
321.92
322.155
322.214
301.633
301.674
301.379
301.204
300.813
300.762
300.098
300.012
299.54
299.166
298.965
298.372
298.338
297.681
297.664
297.18
296.805
296.939
296.194
296.359
295.781
295.968
295.388
295.652
295.128
295.354
294.975
295.119
294.911
294.976
293.352
293.319
293.289
293.33
293.27
293.294
293.24
293.249
293.203
293.214
293.166
293.176
293.132
293.143
293.104
293.11
293.088
293.072
293.077
293.053
293.06
293.042
293.044
293.036
293.032
293.03
293.023
293.026
293.021
293.025
293.003
293.003
293.001
293.004
293.001
293.003
293.001
293.003
293.001
293.003
293
293.002
292.999
293.002
292.999
293.002
292.999
293.002
293
293.003
293
293.002
293.001
293.003
293.001
293.003
293.001
293.004
293.002
293.002
293.002
293.003
293.001
293.003
293.001
293.003
293.001
293.002
293
293.002
293
293.002
292.999
293.002
292.999
293.002
293
293.002
293
293.002
293
293.002
293.001
293.003
293.001
293.003
293.001
293.004
293.002
293.002
293.003
293.002
293.003
293.001
293.003
293.001
293.003
293
293.002
293
293.002
292.999
293.002
293
293.002
293
293.002
293
293.002
293.001
293.001
293.002
293
293.002
293.001
293.003
293.001
293.003
293.002
293.004
293.001
293.003
293.001
293.003
293.001
293.003
293.001
293.002
293
293.002
293
293.002
292.999
293.002
293
293.002
292.999
293.002
293
293.003
293
293.002
293.001
293.003
293.001
293.003
293.001
293.005
293.002
293.002
293.004
293.002
293
293.003
293.001
293.003
293.001
293.002
293.001
293.002
293.001
293.002
293
293.003
293.001
293
293.002
293
293.002
293
293.002
293
293.003
293
293.004
293.001
293.004
293
293.002
293.004
293.001
293.003
293.001
293.004
293.001
293.003
293.001
293.003
293.001
293.004
293.001
293.003
293.001
293.003
293.001
293.003
293.001
293.003
293.001
293.003
293.001
293.004
293.001
293.003
293.002
293.004
293.002
293.004
293.003
293.003
270
270
270
270
270
270
270
277.788
299.394
330.998
351.999
359.532
359.221
358.397
371.689
333.962
270
270
270
270
270
295.107
322.004
323.901
279.728
270
270
270
270
270
270
270
270
270
270
270
341.717
363.603
372.39
375.199
371.862
367.977
367.63
365.717
408.577
409.701
429.646
431.37
300.071
270
270
270
270
270
270
270
270
270
270
270
270
270
270
299.367
357.538
380.79
378.96
381.12
385.581
388.158
390.328
389.556
388.913
389.199
341.345
341.829
340.647
339.927
337.651
335.906
332.556
334.662
329.529
339.757
347.404
347.887
356.622
364.029
368.544
372.581
376.05
379.293
382.775
385.135
388.094
389.672
390.022
391.65
389.841
388.183
386.047
383.072
381.899
379.732
322.935
325.114
324.25
326.767
326.793
329.112
330.011
331.821
332.374
332.873
333.202
332.497
331.946
330.002
328.745
326.752
326.74
324.962
325.602
324.113
324.542
323.321
323.562
322.57
322.418
321.858
321.931
321.794
321.796
321.819
301.329
301.409
301.455
301.559
301.04
300.909
300.627
299.696
300.022
298.913
299.271
298.213
298.572
297.565
297.891
297.08
296.958
296.807
296.341
296.079
296.01
295.786
295.438
295.568
295.149
295.276
294.974
295.054
294.893
294.924
293.307
293.357
293.365
293.293
293.318
293.257
293.271
293.217
293.228
293.178
293.186
293.141
293.148
293.109
293.117
293.08
293.091
293.056
293.07
293.041
293.052
293.03
293.038
293.022
293.027
293.02
293.022
293.017
293.018
293.017
292.998
292.998
292.998
292.997
292.998
292.998
292.997
292.997
292.998
292.996
292.996
292.996
292.996
292.997
292.996
292.996
292.997
292.996
292.996
292.996
292.996
292.997
292.997
292.997
292.997
292.997
292.997
292.996
292.997
292.997
292.998
292.998
292.997
292.997
292.997
292.997
292.997
292.996
292.997
292.996
292.996
292.996
292.996
292.996
292.996
292.996
292.996
292.996
292.996
292.996
292.996
292.997
292.996
292.997
292.997
292.998
292.997
292.996
292.997
292.997
292.997
292.998
292.997
292.996
292.997
292.997
292.997
292.997
292.997
292.996
292.996
292.996
292.996
292.996
292.996
292.996
292.996
292.996
292.997
292.997
292.996
292.997
292.996
292.997
292.996
292.998
292.997
292.997
292.997
292.997
292.997
292.997
292.997
292.997
292.997
292.997
292.997
292.996
292.997
292.996
292.996
292.996
292.996
292.997
292.997
292.996
292.997
292.997
292.996
292.996
292.996
292.997
292.997
292.997
292.997
292.998
292.997
292.997
292.997
292.997
292.996
292.996
292.997
292.997
292.997
292.996
292.997
292.997
292.997
292.996
292.996
292.997
292.996
292.996
292.996
292.996
292.996
292.996
292.996
292.996
292.997
292.997
292.997
292.997
292.997
292.997
292.998
292.997
292.997
292.997
292.998
292.997
292.998
292.998
292.998
292.998
292.997
292.997
292.997
292.997
292.998
292.996
292.996
292.997
292.997
292.997
292.997
292.997
292.997
292.997
292.997
292.997
292.998
292.998
292.997
292.998
292.999
292.997
292.999
292.997
270
270
270
270
270
270
270
270
270
270
323.083
351.073
357.575
357.656
369.645
270
270
270
349.955
400.102
426.569
438.815
443.774
439.464
428.783
407.843
394.222
379.227
397.263
394.736
397.532
344.462
275.784
270
270
270
270
270
274.001
371.357
375.978
371.185
366.815
366.036
405.67
408.033
430.064
425.242
270
270
270
270
270
270
270
270
270
270
270
270
270
270
270
270
270
270
377.955
383.024
385.852
390.663
390.264
388.036
384.124
383.682
341.552
339.007
337.442
333.464
330.729
328.018
328.963
327.329
336.191
331.808
347.744
348.405
359.621
364.899
369.755
372.434
375.466
376.928
380.398
383.144
386.678
390.626
391.757
393.2
391.049
387.679
386.515
383.786
383.151
383.521
322.784
320.115
322.465
322.221
325.311
326.717
328.866
330.736
331.944
332.877
333.336
333.426
332.92
332.059
330.016
328.261
327.147
325.203
325.393
324.157
324.244
323.24
323.287
322.483
322.185
322.117
321.629
321.509
321.499
321.473
302.424
302.423
302.14
301.511
301.768
300.928
300.899
300.298
299.665
299.671
298.723
298.914
298.016
298.179
297.36
297.529
296.736
296.964
296.284
296.181
296.089
295.673
295.597
295.514
295.154
295.289
294.954
295.062
294.874
294.91
293.439
293.349
293.324
293.355
293.291
293.313
293.255
293.263
293.214
293.217
293.174
293.176
293.139
293.135
293.114
293.098
293.09
293.072
293.07
293.053
293.053
293.039
293.038
293.028
293.028
293.024
293.02
293.02
293.019
293.019
293.001
293.001
293.001
293
293
292.999
292.999
292.999
292.999
292.999
292.999
292.998
292.998
292.999
292.999
292.999
292.998
292.999
292.999
292.998
292.999
292.999
292.998
292.998
292.998
293
292.999
293
293
292.999
292.999
292.999
292.999
293
292.999
292.998
292.998
292.998
292.999
292.998
292.999
292.998
292.999
292.998
292.998
292.998
292.998
292.999
292.999
292.998
292.999
292.999
292.998
292.998
292.998
293
292.999
293
293
292.999
293
292.999
293
292.999
292.999
292.998
292.998
292.998
292.998
292.999
292.998
292.999
292.998
292.999
292.999
292.999
292.999
292.997
292.999
292.999
292.999
292.999
292.998
292.998
292.998
293
292.999
293
292.999
293
292.998
292.999
292.999
292.999
292.998
292.998
292.998
292.998
292.999
292.998
292.999
292.998
292.999
292.999
292.999
292.999
292.998
292.999
292.998
292.998
292.999
292.999
292.998
292.999
292.998
293
292.998
293
293
292.999
292.999
292.999
292.998
292.999
292.999
292.998
292.998
292.998
292.999
292.999
292.998
292.998
292.998
292.998
292.998
292.998
292.999
292.998
292.999
292.998
292.999
292.998
292.998
292.999
292.998
292.999
293
292.999
293
292.999
292.999
293.001
292.999
292.999
292.999
292.999
292.999
292.999
292.999
292.999
292.999
292.998
292.998
292.998
292.998
292.999
292.998
292.999
292.998
292.998
292.999
293
292.999
292.999
292.998
292.999
293
293.001
292.999
292.999
270
270
270
270
270
270
270
270
270
270
270
293.964
349.633
357.112
338.535
270
270
354.349
421.465
433.335
433.344
438.951
441.836
440.501
431.061
426.432
418.591
427.968
422.971
432.307
422.21
428.105
414.149
429.216
409.472
382.866
270
270
270
361.733
378.086
372.462
365.968
362.886
401.655
410.755
422.237
419.635
285.555
270
270
270
296.845
338.954
284.624
270
270
270
270
270
270
270
270
270
270
270
270
356.181
383.74
389.373
391.176
387.692
383.587
382.094
332.374
332.778
331.25
331.373
328.534
328.4
324.388
330.247
335.211
334.464
353.778
354.633
368.839
369.99
374.974
375.43
376.675
377.221
378.964
380.607
383.962
387.615
390.986
393.033
392.199
389.351
386.688
384.058
385.756
386.55
317.497
320.665
319.246
321.07
322.053
324.541
327.59
329.403
331.539
332.531
333.326
333.765
333.61
332.883
331.796
329.987
327.779
326.259
325.525
323.911
324.329
322.81
323.385
321.994
322.517
321.366
321.846
321.031
321.226
321.007
302.017
302.266
302.147
302.3
301.67
301.782
300.982
300.846
300.251
299.59
299.357
298.709
298.484
298.06
297.662
297.391
297.15
296.607
296.727
296.031
296.255
295.608
295.764
295.387
295.206
295.24
294.937
295.054
294.841
294.937
293.36
293.451
293.424
293.345
293.382
293.298
293.319
293.245
293.265
293.197
293.217
293.155
293.174
293.119
293.139
293.09
293.108
293.067
293.082
293.049
293.063
293.037
293.045
293.029
293.034
293.022
293.025
293.02
293.02
293.02
293.003
293.001
293.002
293.001
293.001
293
293
292.999
293
293
293
292.999
292.999
292.999
292.999
292.998
292.999
292.999
292.999
292.999
292.999
293
292.999
292.999
293
292.999
293
292.999
292.999
293
293.001
293
293.001
292.999
293
292.999
293
292.998
293
293
293
292.999
292.999
292.998
292.999
292.998
292.999
292.999
292.999
292.999
293
293
292.999
292.999
293
292.999
293
292.999
293
293
293
293
293
293
292.999
292.999
292.999
292.998
292.999
293
292.999
292.999
292.999
292.999
292.998
292.999
292.999
292.999
292.999
292.999
292.999
292.999
292.999
292.999
293
292.999
293.001
293
293
293
293
292.999
293.001
292.999
293
292.999
292.999
292.998
292.999
292.999
292.999
292.999
292.999
292.998
292.999
292.998
292.999
292.999
292.999
292.999
292.999
292.999
292.999
292.999
293
292.999
293.001
292.999
293
293
293
293
293
292.999
293
292.999
292.999
292.999
293
293
292.999
292.998
293
292.998
292.999
292.999
292.999
293
292.999
293
293
293
292.999
293
292.999
293
292.999
293
293
293
293
293
293
293
293
293
293
292.999
292.999
292.999
293
292.999
292.999
292.999
292.999
292.999
293
292.999
292.999
292.999
293
292.999
292.999
292.998
293
292.999
293
293
292.999
293
271.117
342.668
382.099
391.184
359.628
270
270
270
270
270
270
270
301.609
352.473
328.271
270
270
403.066
419.578
423.693
428.268
429.875
432.11
430.716
429.738
422.026
426.072
414.845
415.588
404.175
414.115
417.483
429.839
416.559
446.827
421.996
270
270
270
270
374.24
379.289
375.169
370.289
403.331
403.823
419.145
410.187
312.238
270
270
270
372.134
466.575
485.334
448.657
397.163
323.012
270
270
270
270
270
270
270
270
270
270
320.633
380.249
386.426
387.442
383.598
379.076
336.286
332.279
330.804
330.322
328.538
328.377
325.194
327.667
337.646
336.443
356.916
358.525
373.597
371.875
376.631
376.798
377.754
377.292
377.384
378.518
380.89
383.955
388.14
390.679
392.574
390.986
388.606
385.801
386.527
387.984
318.485
315.915
316.911
317.745
320.208
324.184
326.265
329.391
330.805
332.439
333.299
333.757
333.979
333.652
332.229
332.111
328.379
328.258
324.8
325.351
323.097
323.5
322.63
322.289
322.058
321.433
321.155
320.74
320.277
320.271
302.937
303.03
303.116
302.581
302.588
301.761
301.767
300.911
300.587
300.156
299.141
299.499
298.103
298.618
297.452
297.62
297.081
296.756
296.605
296.223
296.105
295.818
295.616
295.532
295.201
295.264
294.901
295.041
294.78
294.861
293.561
293.436
293.432
293.411
293.338
293.38
293.289
293.315
293.237
293.253
293.191
293.201
293.152
293.154
293.123
293.114
293.097
293.083
293.075
293.059
293.06
293.038
293.048
293.029
293.036
293.022
293.026
293.019
293.021
293.018
293.002
293.003
293.002
293.002
293.002
293.001
293.001
293
293
293
293
293
292.999
292.999
292.998
292.998
292.999
292.998
292.999
292.999
292.999
292.999
292.999
292.999
292.999
292.999
293
292.999
292.999
293
293
293
293
293
293
292.999
292.999
292.999
292.998
293
292.999
292.999
292.999
292.998
292.999
292.998
292.999
292.999
292.999
292.999
292.999
292.999
292.999
292.999
292.999
292.999
293
292.999
292.999
293
292.999
293
292.999
293
292.999
292.999
292.999
292.999
292.999
292.999
292.999
292.999
292.999
292.999
292.998
292.999
292.998
292.999
292.999
292.999
292.999
292.999
292.999
292.999
292.999
292.999
293
293
293
292.999
292.998
292.999
293
292.999
292.999
292.999
292.999
292.999
292.999
293
292.999
292.999
292.999
292.998
292.998
292.998
292.999
292.998
292.999
292.999
292.999
292.999
292.999
292.998
292.999
292.999
293
292.999
293
293
292.999
292.999
292.999
292.999
292.999
292.999
292.999
292.999
292.999
293
292.999
292.998
292.999
292.998
292.999
292.999
292.998
292.999
292.999
292.999
292.999
292.998
293
292.999
292.999
293
293
292.999
293
293
293
293.001
293
293
292.999
293
293
292.999
292.998
293
292.999
292.999
292.998
292.999
292.998
292.998
292.998
292.999
292.999
292.999
292.999
292.999
292.999
292.999
292.999
293
293
293
292.999
292.999
400.71
538.16
610.602
621.688
570.343
408.198
375.354
305.571
270
270
270
270
270
325.625
270
270
270
319.917
384.841
413.705
414.454
422.669
424.501
425.726
422.544
421.959
413.317
414.272
404.211
406.643
396.289
402.173
408.065
419.683
436.932
441.577
272.268
270
270
270
302.768
376.539
375.501
375.023
403.372
404.329
404.513
405.91
338.305
270
270
270
338.393
470.916
492.906
493.52
471.582
451.697
408.409
308.174
270
270
270
270
270
270
270
270
270
270
359.494
381.923
382.778
379.424
337.589
337.037
334.822
329.689
329.553
329.41
334.774
332.743
335.186
348.552
357.783
357.598
362.774
352.28
367.377
371.191
376.035
376.609
376.485
376.585
378.311
380.784
384.428
388.164
390.027
390.938
389.605
387.83
386.968
388.936
315.043
315.097
317.766
321.218
321.753
324.81
325.867
329.058
330.678
332.519
333.15
333.887
334.044
333.924
333.37
332.107
329.537
329.237
325.854
325.42
323.38
323.145
322.353
322.105
321.466
321.275
320.502
320.203
319.307
318.327
302.146
303.626
303.224
303.026
302.354
302.665
301.595
301.769
300.455
300.761
299.347
299.534
298.61
298.252
297.926
297.59
297.034
297.137
296.327
296.594
295.855
296.118
295.393
295.738
295.061
295.373
294.819
295.06
294.725
294.822
293.477
293.557
293.52
293.46
293.446
293.337
293.391
293.272
293.318
293.214
293.252
293.169
293.199
293.133
293.155
293.1
293.12
293.074
293.091
293.055
293.068
293.042
293.047
293.035
293.033
293.028
293.025
293.022
293.021
293.019
293.005
293.004
293.002
293.004
293.002
293.002
293.001
293.001
293
293
293
292.999
292.999
292.999
292.999
292.999
292.999
292.999
292.999
292.999
293
293
292.999
292.999
292.999
293
293.001
293
293
293
293
293
293
293.001
293
292.999
292.999
292.998
292.999
292.999
293
292.999
292.999
292.999
292.999
292.999
292.999
292.999
293
292.999
293
293
292.999
292.999
292.999
293
293.001
293
293
293
293
293
293
293
292.999
292.999
292.999
292.999
293
293
292.999
292.999
292.999
292.999
292.999
292.999
292.999
292.999
292.999
292.999
293
293
292.999
292.999
293
293
293.001
293
293
293
293
293
293
293.001
292.999
292.999
292.999
292.999
292.999
292.999
293
292.999
292.999
292.999
292.999
292.999
292.999
292.999
292.999
292.999
293
293
292.999
292.999
292.999
293
293.001
293
293
293
293
293.001
293.001
293.001
293
292.999
292.999
292.999
292.999
292.999
293
292.999
292.999
292.999
292.999
292.999
292.999
292.999
292.999
292.999
293
293
292.999
292.999
292.999
293
293.001
293
293
293
293.001
293
293
293.001
293
293
293
292.999
293
293
293
292.999
292.999
292.999
292.999
292.999
292.999
292.999
293
292.999
292.999
292.999
292.999
292.999
292.999
292.999
293
293
293
293
632.285
738.052
760.749
758.406
677.451
560.329
408.323
271.777
270
270
270
270
270
315.615
270
270
270
270
342.001
394.112
394.1
407.309
415.338
413.171
428.846
422.107
424.062
413.834
415.057
402.425
402.318
391.016
400.557
406.128
437.194
439.809
366.372
270
270
270
270
322.501
385.403
381.408
402.736
402.836
401.723
403.557
343.991
270
270
270
297.539
403.947
481.893
451.635
452.769
441.006
416.545
396.846
354.72
270
270
270
270
270
270
270
270
270
270
358.138
381.265
381.329
337.229
336.399
338.25
338.643
338.224
336.733
335.904
340.431
350.213
349.442
352.709
334.442
289.428
270
286.525
343.782
369.373
374.423
374.69
375.035
375.881
377.831
381.592
385.015
388.455
389.439
390.414
388.697
388.089
388.71
325.23
324.248
322.748
328.891
324.1
325.688
326.218
329.271
330.737
332.437
333.193
333.747
334.095
333.875
333.804
332.301
330.39
330.244
325.694
327.077
322.731
324.044
321.531
322.478
320.801
321.358
319.67
320.24
318.678
319.045
298.093
303.181
303.803
304.101
303.479
302.6
302.447
301.752
300.992
300.765
299.778
299.584
298.704
298.797
297.625
298.121
296.917
297.325
296.391
296.65
295.833
296.228
295.401
295.756
295.115
295.33
294.883
295.041
294.715
294.854
293.668
293.638
293.504
293.483
293.435
293.422
293.328
293.37
293.263
293.293
293.21
293.222
293.17
293.169
293.137
293.123
293.109
293.09
293.085
293.066
293.064
293.047
293.05
293.032
293.039
293.023
293.03
293.019
293.023
293.017
293.004
293.004
293.005
293.003
293.002
293.001
293.002
293
293
293.001
292.999
293
292.998
292.999
292.998
292.998
292.998
292.999
292.999
293
292.999
292.998
292.999
293
292.999
292.999
293
293
293
293
293
293
293
293
292.999
292.999
293
292.999
292.999
293
292.999
293
292.998
292.998
292.998
292.998
292.998
292.999
292.999
293
292.999
292.998
292.999
293
292.999
292.999
293
293
293
293
293
293
293
293
292.999
292.998
293
292.999
292.998
292.999
293
292.999
292.998
292.998
292.998
292.998
292.998
292.998
292.999
293
292.999
292.998
292.999
293
292.999
292.999
293
293
293
293
293
293
293
293
292.998
292.999
293
292.999
292.999
293
292.999
292.999
292.998
292.998
292.998
292.998
292.998
292.999
292.999
293
292.999
292.999
292.999
293
292.999
292.999
293
293
293
293
293
293
293
293
293
292.999
292.999
292.999
292.999
292.999
292.999
292.999
292.998
292.998
292.998
292.998
292.998
292.998
292.999
292.999
293
292.999
292.999
292.999
292.999
292.999
293
293
293
293
293
293
293
293
292.999
293
292.999
292.999
292.999
293
292.998
292.999
292.998
292.998
292.998
292.998
292.998
292.998
292.999
292.999
292.998
292.999
292.999
292.999
293
293
293
293
292.999
293
774.502
788.048
770.553
708.794
579.559
432.25
277.84
270
270
270
270
270
270
290.096
270
270
270
270
310.974
352.455
355.298
371.86
377.622
395.176
403.822
414.86
417.781
431.352
429.724
428.701
415.987
414.104
400.198
402.526
391.204
406.862
419.516
446.394
437.701
351.301
270
270
270
270
373.762
387.648
396.439
388.485
400.94
402.149
402.696
401.757
359.484
270
270
270
270
350.052
433.92
446.943
426.582
416.681
420.9
415.811
407.856
377.189
270
270
270
270
270
270
270
270
270
270
338.96
365.022
350.882
372.715
356.386
347.447
342.359
343.281
347.131
353.408
353.842
347.683
353.395
342.918
313.883
270
270
270
270
270
341.249
370.96
374.278
373.677
375.27
375.552
378.69
382.316
385.165
387.499
387.887
386.376
379.677
371.712
325.355
345.64
339.46
335.329
337.241
329.728
329.02
326.126
327.28
330.198
331.046
332.514
333.087
333.646
333.919
333.922
333.268
333.375
330.825
329.81
327.654
326.799
323.038
324.11
321.517
322.103
320.461
320.264
319.329
317.619
316.651
313.928
306.352
306.226
306.764
305.758
305.591
304.655
304.282
303.425
302.41
302.446
301.04
301.275
299.759
300.16
298.599
299.185
297.764
298.084
297.178
297.271
296.494
296.771
295.871
296.229
295.5
295.676
295.165
295.263
294.866
294.881
294.604
294.444
294.26
294.119
293.913
293.786
293.721
293.588
293.56
293.466
293.441
293.325
293.374
293.242
293.295
293.187
293.225
293.15
293.169
293.113
293.132
293.085
293.101
293.063
293.077
293.048
293.056
293.036
293.041
293.028
293.032
293.021
293.022
293.018
293.014
293.01
293.01
293.008
293.005
293.006
293.003
293.004
293.002
293.002
293.001
293.001
293.001
293
293
292.999
292.999
292.999
292.999
292.999
292.999
292.999
293
292.999
293
293
293
293
293
293.001
293
293.001
293
293
293.002
293
293.001
293.001
293
293
293
292.999
293
292.999
293
292.999
292.999
292.999
292.999
292.999
292.999
292.999
292.999
292.999
293
292.999
293
293
293
293
293
293.001
293
293.002
293
293
293.001
293
293.001
293
293
293
293
293
292.999
293
292.999
292.999
292.999
292.999
292.999
292.999
292.999
292.999
292.999
292.999
293
292.999
293
293
293.001
293
293.001
293.001
293
293.001
293
293
293.001
293
293.001
293.001
293
293
293
292.999
293
292.999
293
292.999
292.999
292.999
292.999
292.999
292.999
292.999
292.999
292.999
293
292.999
293
293
293
293
293.001
293.001
293
293.001
292.999
292.999
293.001
293
293.001
293.001
293.001
293
293
292.999
293
292.999
293
292.999
292.999
292.999
292.999
292.999
292.999
292.999
292.999
292.999
292.999
293
293
293
293
293
293
293.001
293
293.001
292.999
292.999
293.001
293
293.001
293
293.001
293
293.001
292.999
292.999
292.999
293
292.999
292.999
292.999
293
292.999
293
292.999
292.999
292.999
293
292.999
293
293
293
293.001
293.001
293
293
293
292.998
292.999
777.598
760.849
711.215
601.696
450.623
309.843
270
270
270
270
270
270
270
270
270
270
270
270
293.82
346.077
346.271
367.683
377.898
385.387
401.285
414.629
426.814
424.667
436.684
428.539
427.644
410.188
410.024
398.618
402.5
396.85
414.044
445.474
475.494
463.205
287.279
270
270
270
376.134
378.899
383.179
390.272
400.134
397.24
394.109
387.502
357.844
270
270
270
270
270
355.736
438.102
418.751
413.138
412.969
419.283
427.019
414.279
329.746
270
270
270
270
270
270
270
270
270
270
302.19
345.37
352.843
357.191
361.3
363.749
364.727
364.459
356.86
341.88
332.667
339.451
310.247
270
270
270
270
270
270
270.98
360.048
371.91
373.626
373.325
374.677
376.814
379.13
383.124
384.184
384.097
382.076
376.315
372.66
312.076
330.677
330.689
331.514
324.164
328.084
324.366
329.391
329.043
331.142
331.356
332.43
332.948
333.41
333.655
333.544
333.4
333.429
330.472
330.475
329.059
325.579
324.397
324.22
321.188
322.365
319.473
320.587
317.705
318.493
314.638
315.807
307.301
310.88
305.66
306.526
306.209
304.861
304.714
303.55
303.097
302.196
301.707
301.024
299.992
300.276
298.804
299.112
297.915
298.27
297.103
297.566
296.441
296.914
295.94
296.22
295.577
295.655
295.195
295.273
294.823
294.937
294.506
294.648
294.106
294.281
293.803
293.879
293.665
293.701
293.493
293.549
293.405
293.408
293.327
293.28
293.291
293.21
293.219
293.155
293.181
293.112
293.136
293.091
293.098
293.067
293.076
293.047
293.062
293.035
293.045
293.027
293.034
293.02
293.024
293.015
293.017
293.01
293.012
293.006
293.008
293.004
293.005
293.003
293.003
293.001
293.002
293
293
293
293
292.999
292.999
292.999
292.998
292.999
292.999
292.999
292.999
293
293
293
293
293
293
293
293
293.001
293.001
293.001
293
293
293
293
293
293
293
293
293
292.999
292.999
292.999
292.999
292.999
292.999
292.999
292.999
292.999
292.999
292.999
292.999
292.999
292.999
293
293
293
293
293
293
293.001
293.001
293.001
293.001
293
293
293
293
293
293
293
293
292.999
292.999
292.999
292.999
292.999
292.999
292.999
292.999
292.999
292.999
292.999
292.999
293
293
293
293
293
293
293
293
293
293
293
293
293
293
293
293
293
293
293
292.999
292.999
292.999
292.999
292.999
292.999
292.999
292.999
292.998
292.999
292.999
292.999
292.999
293
293
293
292.999
293
293
293
293
293
293
293
293
293
293
293.001
293.001
293
293
293
293
292.999
292.999
292.999
292.999
292.999
292.999
292.999
292.999
292.999
292.999
292.999
292.999
292.999
293
293
293
293
293.001
293
293
293
293
293
293
293
293
293.001
293
293
293
292.999
292.999
292.999
292.999
292.999
292.998
292.999
292.998
292.998
292.998
292.998
292.999
292.999
292.999
292.999
292.998
292.998
292.999
292.999
293
292.999
293
292.999
293
292.999
702.957
686.691
650.688
582.504
485.662
391.668
328.929
270
270
270
270
270
270
270
270
270
270
270
275.697
322.48
340.359
369.185
366.335
380.752
393.956
409.818
425.099
439.543
429.146
434.372
419.52
417.148
404.296
407.082
404.926
405.763
414.347
446.841
476.853
460.441
316.512
270
270
270
270
270
270
270
270
270
270
270
270
270
270
270
270
270
270
424.31
434.465
406.531
404.997
412.235
417.193
422.834
403.127
303.076
270
270
270
270
270
270
270
270
270
270
270
302.781
333.72
348.766
349.667
350.859
344.221
328.73
301.765
285.63
289.347
270
270
270
270
270
270
270
270
333.067
370.987
371.447
373.611
373.267
375.297
377.911
379.676
381.627
383.509
378.29
373.416
372.279
331.761
350.93
328.869
330.445
333.871
327.707
332.016
329.909
332.089
331.123
331.964
332.579
332.823
333.234
333.405
333.696
333.355
332.684
331.017
330.898
328.143
327.512
323.643
325.077
320.75
322.497
319.082
320.036
317.392
317.573
314.472
314.991
309.148
311.323
306.787
308.052
305.783
305.825
304.718
303.54
303.945
302.005
302.441
300.957
300.803
299.812
299.725
298.454
298.874
297.738
297.439
297.434
296.601
296.782
295.986
296.257
295.524
295.775
295.119
295.366
294.771
294.993
294.452
294.651
294.118
294.29
293.829
293.975
293.67
293.76
293.532
293.563
293.43
293.433
293.342
293.302
293.296
293.212
293.251
293.157
293.188
293.124
293.141
293.091
293.112
293.069
293.086
293.052
293.062
293.041
293.045
293.033
293.033
293.024
293.025
293.018
293.018
293.014
293.012
293.01
293.006
293.008
293.005
293.006
293.003
293.005
293.003
293.003
293.001
293.002
293.001
293.001
293
293.001
293
293
293.001
293.001
293
293.002
293.001
293.001
293.001
293.001
293.001
293.001
293.002
293.001
293.002
293.002
293.001
293.002
293.001
293.001
293.001
293.002
293.001
293.002
293.001
293
293
293.001
293.001
293
293
293
293
293
293
293
293
293.002
293.002
293.001
293.001
293.001
293.002
293.001
293.002
293.001
293.002
293.002
293.001
293.002
293.001
293.001
293.001
293.001
293.001
293.002
293.002
293
293.001
293.001
293.001
293
293
293
293
293
293
293.001
293.001
293.002
293.002
293.001
293.001
293.002
293.001
293.001
293.002
293.001
293.002
293.002
293.001
293.002
293.001
293.001
293.001
293.002
293.001
293.002
293.002
293.001
293