/*--------------------------------*- C++ -*----------------------------------*\
| =========                 |                                                 |
| \\      /  F ield         | OpenFOAM: The Open Source CFD Toolbox           |
|  \\    /   O peration     | Version:  2.1.1                                 |
|   \\  /    A nd           | Web:      www.OpenFOAM.org                      |
|    \\/     M anipulation  |                                                 |
\*---------------------------------------------------------------------------*/
FoamFile
{
    version     2.0;
    format      ascii;
    class       volScalarField;
    location    "0.006650000";
    object      HO2;
}
// * * * * * * * * * * * * * * * * * * * * * * * * * * * * * * * * * * * * * //

dimensions      [0 0 0 0 0 0 0];

internalField   nonuniform List<scalar> 
12384
(
1.13886e-05
1.23665e-05
1.23868e-05
1.22757e-05
1.20204e-05
1.11908e-05
1.08597e-05
1.06137e-05
1.03754e-05
1.02859e-05
1.02383e-05
1.02632e-05
1.02778e-05
8.74019e-06
1.00894e-05
1.06789e-05
1.12098e-05
1.16257e-05
1.18434e-05
1.19668e-05
1.19564e-05
1.19187e-05
1.17648e-05
1.152e-05
1.12482e-05
1.08124e-05
1.03901e-05
1.00831e-05
9.68571e-06
9.31203e-06
8.68111e-06
8.27045e-06
8.08942e-06
7.98152e-06
8.06108e-06
8.22385e-06
8.49915e-06
8.87464e-06
9.67625e-06
1.03178e-05
1.12516e-05
1.21921e-05
1.16883e-05
1.05987e-05
7.3715e-06
5.4799e-06
3.99618e-06
2.98957e-06
2.83999e-06
2.70691e-06
2.61679e-06
2.45882e-06
2.26706e-06
2.05952e-06
1.84922e-06
1.67428e-06
1.53988e-06
1.43465e-06
1.40679e-06
1.34778e-06
1.35541e-06
1.29231e-06
1.30285e-06
1.32614e-06
1.28347e-06
1.35948e-06
1.38484e-06
1.4482e-06
1.52054e-06
1.69295e-06
2.00362e-06
2.87883e-06
5.09843e-06
5.19772e-06
2.03575e-06
2.06453e-06
2.13621e-06
2.12116e-06
2.05566e-06
1.99317e-06
1.88941e-06
1.80326e-06
1.70333e-06
1.60929e-06
1.5526e-06
1.51443e-06
1.47728e-06
1.46789e-06
1.46951e-06
1.47756e-06
1.53983e-06
1.53516e-06
1.52165e-06
1.53684e-06
1.53555e-06
1.56374e-06
1.69257e-06
1.77552e-06
1.90197e-06
2.05966e-06
2.22911e-06
2.06088e-06
1.67566e-06
1.62085e-06
4.3718e-07
5.1898e-07
5.74233e-07
6.16657e-07
6.53174e-07
6.83512e-07
7.05013e-07
9.56252e-07
1.00196e-06
1.02434e-06
1.03613e-06
1.11559e-06
1.10827e-06
1.16608e-06
1.26026e-06
1.22418e-06
1.34059e-06
1.53185e-06
1.63561e-06
1.7156e-06
1.78474e-06
1.7909e-06
1.88347e-06
1.69733e-06
1.58833e-06
1.4838e-06
1.3869e-06
1.36373e-06
1.48671e-06
1.70458e-06
1.03519e-07
1.25257e-07
1.62799e-07
1.86342e-07
1.76224e-07
1.57857e-07
1.49962e-07
1.42706e-07
1.48449e-07
1.50904e-07
1.55681e-07
1.54046e-07
1.58148e-07
1.51615e-07
1.56867e-07
1.37831e-07
1.39971e-07
1.21146e-07
1.17477e-07
1.17229e-07
1.0428e-07
1.00349e-07
9.8818e-08
1.01682e-07
9.7902e-08
9.68716e-08
1.15862e-07
1.27098e-07
1.31273e-07
1.28174e-07
8.06359e-07
8.53572e-07
7.15696e-07
5.16652e-07
2.57433e-07
2.21724e-07
1.9239e-07
1.87786e-07
1.9206e-07
2.00828e-07
2.07579e-07
2.10784e-07
2.11023e-07
2.09925e-07
2.10613e-07
2.17279e-07
2.24561e-07
2.36206e-07
2.56429e-07
2.56753e-07
2.75158e-07
3.05897e-07
3.45207e-07
7.94294e-07
3.62114e-06
6.2505e-06
6.37508e-06
6.2061e-06
6.08692e-06
6.06307e-06
4.34666e-07
1.61429e-07
9.96335e-08
9.37053e-08
8.44996e-08
8.38641e-08
8.34686e-08
8.0816e-08
7.85029e-08
7.43153e-08
7.77433e-08
7.3036e-08
7.14814e-08
7.76592e-08
7.27251e-08
9.03062e-08
9.16743e-08
9.79746e-08
1.02814e-07
1.04321e-07
1.29994e-07
2.26788e-07
2.55356e-07
2.32014e-07
1.84188e-07
1.19987e-07
1.60522e-07
1.63904e-07
1.71004e-07
1.80674e-07
3.64564e-07
3.33593e-07
3.45232e-07
3.47552e-07
3.47583e-07
3.39698e-07
3.33993e-07
3.29475e-07
3.57358e-07
3.5864e-07
3.70042e-07
3.67425e-07
3.50053e-07
3.80912e-07
3.57379e-07
3.57984e-07
3.07852e-07
7.89042e-08
2.56903e-08
2.48195e-08
3.23566e-08
3.28804e-08
3.34275e-08
3.55239e-08
3.50862e-08
3.43387e-08
3.07152e-08
2.41354e-08
1.57233e-08
1.24524e-08
1.98234e-07
9.91127e-08
9.97234e-08
1.02465e-07
1.16975e-07
1.24942e-07
1.54481e-07
1.81308e-07
2.08088e-07
1.90803e-07
1.88728e-07
2.20718e-07
2.19996e-07
2.20766e-07
2.44834e-07
2.47579e-07
2.58929e-07
2.72775e-07
2.84928e-07
1.37676e-07
7.86164e-08
5.53017e-08
6.72657e-08
7.29658e-08
6.94275e-08
7.33176e-08
7.53032e-08
7.45868e-08
7.05567e-08
6.4836e-08
3.55753e-08
3.06483e-08
3.12495e-08
2.95656e-08
3.2175e-08
2.74059e-08
3.13745e-08
2.65957e-08
3.05294e-08
3.12359e-08
3.34797e-08
4.04941e-08
3.71353e-08
4.21368e-08
4.53172e-08
4.60945e-08
3.78353e-08
2.1346e-08
1.25779e-08
1.06711e-08
1.08054e-08
1.17206e-08
1.24614e-08
1.36853e-08
1.38243e-08
1.4113e-08
1.46483e-08
1.39835e-08
1.14452e-08
1.12952e-08
3.93033e-08
4.74513e-08
5.45082e-08
4.2928e-08
3.92526e-08
3.59483e-08
2.77964e-08
2.71256e-08
2.5921e-08
2.56722e-08
2.5237e-08
2.3332e-08
1.85995e-08
2.4653e-08
1.83452e-08
1.69507e-08
1.7833e-08
2.58859e-08
2.6746e-08
2.64611e-08
2.83409e-08
2.83418e-08
3.21297e-08
3.79064e-08
3.84731e-08
4.48207e-08
4.91839e-08
4.99389e-08
4.85852e-08
3.877e-08
1.34597e-08
1.22597e-08
1.18844e-08
1.64219e-08
4.44707e-08
1.42644e-06
5.8946e-06
1.15904e-08
1.85058e-09
2.31294e-09
2.31576e-09
2.04972e-09
2.11489e-09
1.80779e-09
1.8699e-09
1.83083e-09
1.878e-09
1.83486e-09
1.88113e-09
2.10125e-09
2.47536e-09
3.02269e-09
4.41939e-09
4.62038e-09
3.58755e-09
2.12792e-09
9.92174e-10
4.32633e-10
2.68533e-10
7.47437e-10
1.40796e-05
1.40051e-05
1.33028e-05
1.30551e-05
1.2616e-05
1.22783e-05
1.17891e-05
1.12909e-05
1.01074e-05
9.59811e-06
9.2993e-06
8.90289e-06
1.00099e-05
8.82916e-06
1.00723e-05
1.06917e-05
1.1608e-05
1.20202e-05
1.20932e-05
1.19761e-05
1.17335e-05
1.13512e-05
1.08269e-05
1.04501e-05
1.01586e-05
9.93052e-06
9.62107e-06
9.15451e-06
8.17571e-06
7.48851e-06
6.98779e-06
6.69289e-06
5.98801e-06
5.83343e-06
5.61424e-06
5.46746e-06
5.50413e-06
5.82553e-06
6.94695e-06
8.07888e-06
9.9176e-06
1.14572e-05
1.20337e-05
1.12922e-05
7.27432e-06
5.17488e-06
4.01153e-06
3.20309e-06
3.74445e-06
3.64438e-06
2.85688e-06
2.42076e-06
2.06021e-06
1.75043e-06
1.44272e-06
1.29201e-06
1.28857e-06
1.40422e-06
1.57126e-06
1.78945e-06
1.98869e-06
2.06111e-06
2.09594e-06
2.03566e-06
1.87972e-06
1.74718e-06
1.61972e-06
1.5283e-06
1.45674e-06
1.57805e-06
1.80221e-06
2.31747e-06
3.49552e-06
5.36955e-06
2.03458e-06
2.103e-06
2.10962e-06
1.98665e-06
1.79664e-06
1.65155e-06
1.48011e-06
1.31054e-06
1.16319e-06
1.10075e-06
1.03936e-06
1.0039e-06
1.00854e-06
1.04054e-06
1.17909e-06
1.38628e-06
1.64187e-06
1.78827e-06
1.90291e-06
1.93885e-06
1.93894e-06
1.91209e-06
1.91652e-06
1.93771e-06
1.97284e-06
2.00089e-06
2.14824e-06
2.16271e-06
1.94687e-06
1.69636e-06
3.8543e-07
4.5017e-07
5.38713e-07
6.06751e-07
6.51112e-07
9.58329e-07
1.02576e-06
1.06689e-06
1.07687e-06
1.08196e-06
1.09675e-06
1.13232e-06
1.16838e-06
1.28238e-06
1.34498e-06
1.41924e-06
1.54528e-06
1.62422e-06
1.74597e-06
1.78791e-06
1.78775e-06
1.79514e-06
1.83665e-06
1.73894e-06
1.30125e-06
1.00543e-06
6.70071e-07
6.39017e-07
6.03895e-07
6.42556e-07
1.19796e-07
1.33314e-07
1.80346e-07
1.75512e-07
1.42309e-07
1.2565e-07
1.35917e-07
1.49541e-07
1.62819e-07
1.71694e-07
1.70976e-07
1.76034e-07
1.72686e-07
1.69169e-07
1.64999e-07
1.66907e-07
1.46273e-07
1.52916e-07
1.40761e-07
1.29533e-07
1.31618e-07
1.23705e-07
1.18519e-07
1.11106e-07
1.00072e-07
9.89398e-08
1.04616e-07
1.20173e-07
1.34711e-07
1.23291e-07
7.89399e-07
6.50609e-07
2.49527e-07
2.09177e-07
1.01579e-07
9.08107e-08
8.70521e-08
1.47807e-07
2.06244e-07
2.68518e-07
2.92285e-07
3.01974e-07
3.01432e-07
2.9665e-07
2.90507e-07
2.84792e-07
2.834e-07
2.85409e-07
2.7437e-07
2.80914e-07
2.89942e-07
3.01764e-07
3.22814e-07
3.6804e-07
1.36635e-06
4.85047e-06
6.52344e-06
5.7436e-06
5.05457e-06
5.27992e-06
1.01165e-07
7.80902e-08
7.09374e-08
7.44465e-08
7.68742e-08
7.7195e-08
7.52664e-08
7.1298e-08
6.77043e-08
6.59646e-08
7.03779e-08
6.18485e-08
7.07572e-08
7.01639e-08
6.72494e-08
7.0991e-08
8.01512e-08
8.01725e-08
8.97535e-08
1.07096e-07
1.07871e-07
1.47385e-07
2.44291e-07
1.90094e-07
1.22331e-07
1.54527e-07
1.47036e-07
1.38877e-07
1.34426e-07
1.455e-07
3.36947e-07
3.4742e-07
3.63194e-07
3.86617e-07
4.10957e-07
4.5399e-07
4.76281e-07
4.88078e-07
4.93121e-07
4.93936e-07
4.99155e-07
5.07081e-07
4.84845e-07
4.38192e-07
4.18738e-07
4.02728e-07
3.56248e-07
1.75579e-07
4.49343e-08
3.08157e-08
4.03707e-08
4.2626e-08
4.17361e-08
4.30084e-08
4.65902e-08
4.6029e-08
5.82863e-08
5.59831e-08
4.89461e-08
3.41966e-08
2.28954e-07
9.96843e-08
1.04809e-07
1.19766e-07
1.65797e-07
2.05997e-07
2.49909e-07
2.56172e-07
2.74066e-07
2.70357e-07
2.80914e-07
2.82556e-07
2.93087e-07
2.9735e-07
3.1554e-07
3.25274e-07
3.19427e-07
3.19868e-07
3.19626e-07
2.35692e-07
1.1562e-07
6.37919e-08
7.25686e-08
6.9902e-08
7.65112e-08
8.03369e-08
8.68809e-08
8.76984e-08
6.80623e-08
6.46923e-08
3.57384e-08
2.95755e-08
3.43655e-08
3.65952e-08
3.99916e-08
4.10174e-08
4.52766e-08
4.82294e-08
4.76123e-08
4.83494e-08
4.97016e-08
5.05303e-08
5.08537e-08
5.24791e-08
4.81502e-08
4.96373e-08
4.69061e-08
2.60208e-08
1.38197e-08
1.04292e-08
1.02922e-08
1.24994e-08
1.38737e-08
1.70575e-08
1.75751e-08
1.74443e-08
1.66281e-08
1.66137e-08
1.32053e-08
1.07412e-08
2.50542e-08
3.60381e-08
4.08204e-08
3.98031e-08
3.50723e-08
3.07062e-08
2.45631e-08
2.67241e-08
2.86639e-08
2.84318e-08
2.86494e-08
2.8176e-08
2.45701e-08
2.31737e-08
1.85324e-08
1.6599e-08
2.18058e-08
1.36583e-08
2.25705e-08
2.3932e-08
2.44994e-08
2.68771e-08
2.68179e-08
2.97932e-08
3.39717e-08
3.71018e-08
4.18876e-08
4.51283e-08
4.81574e-08
3.99023e-08
1.05139e-08
9.167e-09
6.42347e-09
6.05515e-09
1.93961e-08
2.6178e-06
5.89526e-08
2.65998e-09
1.96883e-09
2.06214e-09
2.04174e-09
1.84208e-09
1.7937e-09
1.59218e-09
1.46236e-09
1.34683e-09
1.19795e-09
1.46824e-09
1.33366e-09
1.26621e-09
1.43574e-09
1.52315e-09
2.92452e-09
6.50367e-09
5.1941e-09
2.44074e-09
7.10018e-10
3.02297e-10
2.66093e-10
9.45411e-10
1.42156e-05
1.41755e-05
1.41148e-05
1.38432e-05
1.3315e-05
1.29924e-05
1.26335e-05
1.19171e-05
1.14658e-05
1.06539e-05
9.26427e-06
8.30315e-06
8.91662e-06
8.79492e-06
1.02052e-05
1.09556e-05
1.19114e-05
1.22461e-05
1.20054e-05
1.1631e-05
1.12712e-05
1.09977e-05
1.09077e-05
1.09692e-05
1.09747e-05
1.10121e-05
1.0566e-05
9.76077e-06
8.7577e-06
8.32933e-06
8.3797e-06
8.55411e-06
8.79595e-06
8.8115e-06
8.5995e-06
8.03186e-06
7.27132e-06
6.10121e-06
5.73074e-06
6.14824e-06
7.94266e-06
1.03226e-05
1.19205e-05
1.17215e-05
7.18302e-06
5.09477e-06
4.23018e-06
4.37608e-06
4.58793e-06
4.12785e-06
2.60223e-06
1.90335e-06
1.65603e-06
1.5554e-06
1.32853e-06
1.35213e-06
1.62967e-06
2.20255e-06
2.76571e-06
3.23158e-06
4.15976e-06
4.40213e-06
4.47312e-06
4.31964e-06
4.01675e-06
3.16552e-06
2.7179e-06
2.28794e-06
1.87181e-06
1.66084e-06
1.68811e-06
2.0167e-06
2.88251e-06
4.99658e-06
2.02183e-06
2.09944e-06
2.0162e-06
1.77346e-06
1.5636e-06
1.38439e-06
1.28805e-06
1.19694e-06
1.20178e-06
1.22875e-06
1.17379e-06
1.03382e-06
6.88762e-07
1.00467e-06
1.32737e-06
1.77972e-06
2.12537e-06
2.36035e-06
2.50229e-06
2.56752e-06
2.56352e-06
2.49974e-06
2.46612e-06
2.39383e-06
2.28201e-06
2.16842e-06
2.14735e-06
2.2033e-06
2.12504e-06
1.82392e-06
3.55637e-07
4.56422e-07
5.75298e-07
6.31735e-07
8.62408e-07
8.68186e-07
8.60345e-07
8.58383e-07
8.59784e-07
8.9362e-07
9.7636e-07
1.07367e-06
1.18351e-06
1.31307e-06
1.40064e-06
1.51936e-06
1.63026e-06
1.71557e-06
1.84941e-06
1.90993e-06
1.8896e-06
1.85863e-06
1.86054e-06
1.75807e-06
1.37507e-06
1.17623e-06
1.1216e-06
6.66767e-07
5.03904e-07
4.2582e-07
1.18254e-07
1.39466e-07
1.76994e-07
1.48913e-07
1.18088e-07
1.2703e-07
1.50478e-07
1.59633e-07
1.64674e-07
1.58265e-07
1.59761e-07
1.67867e-07
1.70109e-07
1.70699e-07
1.63714e-07
1.66459e-07
1.62044e-07
1.49409e-07
1.52351e-07
1.42245e-07
1.38173e-07
1.37746e-07
1.32535e-07
1.21266e-07
1.13519e-07
1.04772e-07
1.00396e-07
1.09454e-07
1.22199e-07
1.24376e-07
7.04791e-07
2.62378e-07
2.05448e-07
8.22283e-08
7.77914e-08
9.71513e-08
1.81423e-07
2.88498e-07
4.90784e-07
6.47929e-07
6.78759e-07
6.31937e-07
5.54407e-07
4.74099e-07
3.29425e-07
3.26768e-07
3.28499e-07
3.3268e-07
3.23535e-07
3.18264e-07
3.10434e-07
3.05738e-07
3.11318e-07
3.31911e-07
6.89466e-07
1.88927e-06
5.46287e-06
5.6288e-06
3.7167e-06
3.85681e-06
5.20035e-08
6.85064e-08
7.48414e-08
7.68685e-08
7.58824e-08
7.31981e-08
6.85605e-08
6.40914e-08
6.00258e-08
5.06374e-08
5.0922e-08
5.85892e-08
5.61231e-08
5.92491e-08
5.04072e-08
5.65532e-08
6.88419e-08
7.70361e-08
7.89307e-08
8.98531e-08
1.05214e-07
1.20386e-07
1.65692e-07
2.20263e-07
1.92533e-07
2.26289e-07
1.32028e-07
1.5223e-07
1.36852e-07
1.30649e-07
3.41613e-07
3.57583e-07
3.93062e-07
4.43941e-07
5.13784e-07
5.67446e-07
9.55603e-07
1.11594e-06
1.2318e-06
1.31752e-06
1.31834e-06
1.2677e-06
1.13547e-06
8.44402e-07
5.17622e-07
4.40609e-07
3.99961e-07
3.32202e-07
1.21375e-07
3.76553e-08
3.77799e-08
4.04005e-08
3.8796e-08
3.9198e-08
3.83755e-08
6.308e-08
7.79572e-08
8.99805e-08
7.89263e-08
5.74273e-08
2.77682e-07
1.11281e-07
1.19158e-07
1.79156e-07
2.49628e-07
2.66403e-07
2.91102e-07
3.0245e-07
3.14431e-07
5.43442e-07
6.562e-07
7.29708e-07
7.90556e-07
8.17802e-07
7.49076e-07
7.4043e-07
5.25428e-07
3.55881e-07
3.58094e-07
3.23481e-07
1.48361e-07
8.49552e-08
7.10359e-08
7.30539e-08
7.78372e-08
7.8919e-08
8.96301e-08
8.4742e-08
5.99446e-08
6.19463e-08
3.18522e-08
3.86725e-08
3.94726e-08
5.51219e-08
6.22267e-08
6.61985e-08
7.7981e-08
8.53089e-08
9.18605e-08
8.93006e-08
9.26225e-08
8.51442e-08
6.8333e-08
6.42715e-08
6.07685e-08
5.29238e-08
5.06746e-08
3.59751e-08
1.93005e-08
1.0467e-08
9.17845e-09
1.09587e-08
1.5161e-08
1.73071e-08
1.76953e-08
1.71646e-08
1.63285e-08
1.65928e-08
1.52587e-08
1.13456e-08
2.14165e-08
3.21723e-08
3.77936e-08
3.28935e-08
3.05858e-08
2.70924e-08
2.35411e-08
3.15801e-08
3.76433e-08
2.99071e-08
3.84006e-08
3.46384e-08
3.01968e-08
3.11257e-08
2.52289e-08
2.51244e-08
2.22067e-08
2.17153e-08
2.59505e-08
3.54535e-08
3.96479e-08
4.27474e-08
4.00149e-08
3.9048e-08
3.70087e-08
3.90908e-08
3.89825e-08
4.13599e-08
4.27494e-08
3.91415e-08
2.00038e-08
1.89475e-08
1.48365e-08
1.01475e-08
1.44321e-07
1.03112e-07
4.3067e-09
1.89096e-09
2.09009e-09
1.95116e-09
1.98192e-09
2.03828e-09
2.0531e-09
1.7508e-09
1.67044e-09
1.6895e-09
1.48087e-09
1.16844e-09
1.36215e-09
1.16084e-09
1.04977e-09
1.16828e-09
1.33049e-09
4.22717e-09
6.50484e-09
1.94366e-09
4.80787e-10
2.8857e-10
2.76468e-10
1.69918e-09
1.44525e-05
1.48921e-05
1.43018e-05
1.37561e-05
1.29805e-05
1.19824e-05
1.15993e-05
1.16455e-05
1.15703e-05
1.12132e-05
1.03955e-05
8.84761e-06
8.59069e-06
8.78362e-06
1.01674e-05
1.10119e-05
1.20427e-05
1.21146e-05
1.17666e-05
1.15303e-05
1.14683e-05
1.14812e-05
1.15195e-05
1.18335e-05
1.20585e-05
1.17578e-05
1.08561e-05
9.38786e-06
8.94864e-06
9.62209e-06
1.03484e-05
1.10319e-05
1.15169e-05
1.17038e-05
1.17423e-05
1.13735e-05
1.05173e-05
8.81451e-06
7.25624e-06
6.00057e-06
7.03855e-06
8.93591e-06
1.14495e-05
1.1816e-05
7.17247e-06
5.19039e-06
4.63747e-06
5.13708e-06
5.21303e-06
3.27177e-06
1.94645e-06
1.26735e-06
1.21877e-06
1.40103e-06
1.36113e-06
1.54051e-06
2.24916e-06
3.10352e-06
4.59654e-06
5.27257e-06
5.52335e-06
5.61401e-06
5.62762e-06
5.56304e-06
5.45677e-06
5.23345e-06
4.61385e-06
3.27686e-06
2.62009e-06
2.0308e-06
1.75373e-06
1.88819e-06
2.5077e-06
4.59995e-06
2.01418e-06
2.0701e-06
1.93493e-06
1.62779e-06
1.3885e-06
1.29206e-06
1.35006e-06
1.52343e-06
1.62275e-06
1.63146e-06
1.53397e-06
1.29943e-06
1.00695e-06
1.00544e-06
1.4997e-06
2.02426e-06
2.436e-06
2.68312e-06
3.40204e-06
3.57824e-06
3.64149e-06
3.65207e-06
3.59692e-06
3.41257e-06
2.62587e-06
2.41635e-06
2.24792e-06
2.218e-06
2.19192e-06
1.92557e-06
3.88578e-07
5.52414e-07
6.18904e-07
6.1873e-07
5.98782e-07
5.80652e-07
5.74354e-07
5.85894e-07
6.1942e-07
9.74358e-07
1.14505e-06
1.38332e-06
1.59136e-06
1.75719e-06
1.86235e-06
1.89636e-06
1.90474e-06
1.92095e-06
1.98195e-06
2.02936e-06
2.03324e-06
1.9375e-06
1.87202e-06
1.75205e-06
1.45079e-06
1.38074e-06
1.73307e-06
1.42471e-06
6.03883e-07
3.95778e-07
1.22136e-07
1.44896e-07
1.66582e-07
1.3708e-07
1.09216e-07
1.3141e-07
1.44853e-07
1.46563e-07
1.47697e-07
1.46198e-07
1.46785e-07
1.55864e-07
1.61824e-07
1.67502e-07
1.6561e-07
1.74095e-07
1.54499e-07
1.59877e-07
1.43799e-07
1.53067e-07
1.44727e-07
1.44644e-07
1.34402e-07
1.35085e-07
1.20999e-07
1.1013e-07
1.03233e-07
1.04036e-07
1.17465e-07
1.2415e-07
5.71461e-07
2.2651e-07
1.49813e-07
6.0847e-08
8.08479e-08
1.42405e-07
2.72759e-07
4.89196e-07
6.94088e-07
7.2581e-07
6.46412e-07
5.11914e-07
3.32355e-07
3.07125e-07
2.91408e-07
2.87558e-07
2.91414e-07
3.07138e-07
3.24012e-07
3.34083e-07
3.28715e-07
3.15351e-07
3.06831e-07
3.14503e-07
3.49724e-07
1.14044e-06
3.40266e-06
5.19316e-06
3.45169e-06
3.02207e-06
6.59565e-08
7.91163e-08
7.82818e-08
7.56567e-08
7.38358e-08
6.82341e-08
6.31059e-08
5.70205e-08
4.74839e-08
4.05828e-08
3.5109e-08
3.11844e-08
3.06124e-08
4.29682e-08
3.73254e-08
4.1347e-08
5.68408e-08
6.25691e-08
6.93468e-08
7.67699e-08
9.67195e-08
1.10744e-07
1.3895e-07
2.03323e-07
2.45625e-07
2.78949e-07
1.39517e-07
1.59572e-07
1.54493e-07
1.35026e-07
3.41621e-07
3.77483e-07
4.42752e-07
5.19026e-07
9.39697e-07
1.32265e-06
1.57236e-06
1.77636e-06
1.95535e-06
2.05222e-06
2.06597e-06
1.96953e-06
1.81653e-06
1.54824e-06
1.07968e-06
5.22034e-07
4.23773e-07
3.8708e-07
2.17212e-07
6.23715e-08
3.78552e-08
3.99538e-08
3.89803e-08
3.9992e-08
5.9425e-08
8.9638e-08
9.80305e-08
1.10549e-07
1.09168e-07
7.17986e-08
3.16339e-07
1.261e-07
1.75326e-07
2.25043e-07
2.69289e-07
3.06026e-07
3.25465e-07
7.05287e-07
9.3785e-07
1.12082e-06
1.24891e-06
1.30636e-06
1.32953e-06
1.36611e-06
1.28157e-06
1.13587e-06
9.97028e-07
7.02693e-07
3.84648e-07
3.58779e-07
2.82136e-07
1.13355e-07
7.57458e-08
7.1564e-08
7.80454e-08
8.82288e-08
9.0332e-08
7.65231e-08
6.51178e-08
5.22618e-08
3.48435e-08
4.99828e-08
6.32788e-08
6.853e-08
1.07065e-07
1.51509e-07
1.83631e-07
1.99817e-07
2.15661e-07
2.2114e-07
2.07632e-07
1.92133e-07
1.58999e-07
1.28292e-07
6.11342e-08
6.66804e-08
6.08165e-08
4.80789e-08
2.68968e-08
1.34997e-08
9.02746e-09
9.72853e-09
1.54879e-08
1.75616e-08
1.51233e-08
1.29818e-08
1.53289e-08
1.57844e-08
1.49297e-08
1.15533e-08
1.98277e-08
3.21821e-08
3.58996e-08
3.44503e-08
2.59834e-08
2.43398e-08
2.74612e-08
4.28149e-08
3.99175e-08
4.0411e-08
3.99605e-08
3.24331e-08
3.54149e-08
3.49899e-08
3.07774e-08
2.84805e-08
2.06611e-08
3.08969e-08
3.72905e-08
4.48782e-08
5.14215e-08
5.55887e-08
7.34351e-08
3.93801e-08
5.31987e-08
4.58066e-08
4.05228e-08
3.80501e-08
3.93586e-08
3.80178e-08
2.05941e-08
2.6362e-08
5.29122e-08
7.41408e-08
4.91973e-08
6.7351e-09
1.80141e-09
1.64976e-09
2.06391e-09
2.36949e-09
2.31744e-09
2.96075e-09
3.10934e-09
3.02552e-09
2.84063e-09
2.34197e-09
1.53633e-09
1.46743e-09
9.8968e-10
1.13939e-09
1.23022e-09
1.17027e-09
9.72287e-10
1.56324e-09
7.15151e-09
2.98155e-09
5.63637e-10
3.09265e-10
4.03359e-10
6.98953e-09
1.52311e-05
1.46712e-05
1.41949e-05
1.31126e-05
1.07862e-05
1.02189e-05
1.02377e-05
1.06052e-05
1.10943e-05
1.15998e-05
1.08567e-05
9.03158e-06
8.35051e-06
8.69243e-06
1.03147e-05
1.11899e-05
1.21997e-05
1.21799e-05
1.18686e-05
1.17948e-05
1.16761e-05
1.16944e-05
1.20166e-05
1.25715e-05
1.22365e-05
1.10706e-05
9.88224e-06
8.9731e-06
9.77625e-06
1.08094e-05
1.19022e-05
1.2584e-05
1.29903e-05
1.31777e-05
1.31494e-05
1.30515e-05
1.24072e-05
1.12196e-05
9.04997e-06
7.19767e-06
6.29423e-06
8.16761e-06
1.09901e-05
1.17877e-05
7.2466e-06
5.3855e-06
5.02068e-06
5.75947e-06
5.66043e-06
3.14579e-06
1.44699e-06
6.31994e-07
6.5216e-07
1.26481e-06
1.40547e-06
1.81667e-06
2.79623e-06
4.55375e-06
5.4241e-06
5.71412e-06
5.71989e-06
5.67664e-06
5.64116e-06
5.65885e-06
5.61887e-06
5.66755e-06
5.51102e-06
4.95362e-06
3.36044e-06
2.60103e-06
1.97029e-06
1.87609e-06
2.33736e-06
4.3067e-06
1.98742e-06
2.02528e-06
1.85006e-06
1.47555e-06
1.21909e-06
1.21999e-06
1.44248e-06
1.69886e-06
1.90345e-06
1.97615e-06
1.86773e-06
1.61604e-06
1.15242e-06
1.07532e-06
1.54868e-06
2.17517e-06
2.59361e-06
3.39339e-06
3.79905e-06
3.98252e-06
4.16319e-06
4.18626e-06
4.10373e-06
3.98055e-06
3.58757e-06
2.65707e-06
2.3893e-06
2.24987e-06
2.20584e-06
1.96814e-06
5.23615e-07
6.07305e-07
6.2425e-07
5.83377e-07
5.46703e-07
5.43093e-07
5.41582e-07
5.91485e-07
9.76273e-07
1.31303e-06
1.73196e-06
2.08892e-06
2.33529e-06
2.55161e-06
2.61449e-06
2.57271e-06
2.4642e-06
2.31923e-06
2.24462e-06
2.18891e-06
2.18389e-06
2.06561e-06
1.93554e-06
1.78843e-06
1.45702e-06
1.46804e-06
1.95541e-06
1.96018e-06
1.20938e-06
5.25518e-07
1.16663e-07
1.4313e-07
1.5495e-07
1.22337e-07
1.05704e-07
1.23508e-07
1.41631e-07
1.34504e-07
1.32557e-07
1.26988e-07
1.35955e-07
1.43938e-07
1.59923e-07
1.64046e-07
1.6455e-07
1.70575e-07
1.5149e-07
1.62906e-07
1.55376e-07
1.47987e-07
1.46595e-07
1.46986e-07
1.42833e-07
1.36772e-07
1.33149e-07
1.13359e-07
1.02507e-07
1.03505e-07
1.13834e-07
1.20583e-07
4.54845e-07
1.85484e-07
7.01818e-08
5.03296e-08
8.81074e-08
1.76233e-07
2.68432e-07
4.98839e-07
7.559e-07
7.40389e-07
5.35379e-07
3.26666e-07
3.00406e-07
2.80693e-07
2.45979e-07
2.37917e-07
2.36292e-07
2.47235e-07
2.71211e-07
3.02224e-07
3.28836e-07
3.21505e-07
3.05883e-07
3.04281e-07
3.24954e-07
8.05012e-07
1.76561e-06
3.7902e-06
3.0931e-06
1.94715e-06
8.58234e-08
7.78894e-08
7.60302e-08
7.70292e-08
7.19103e-08
6.59715e-08
5.74524e-08
5.17204e-08
3.4489e-08
4.18963e-08
3.86318e-08
3.7736e-08
3.6874e-08
3.74584e-08
3.84758e-08
4.14841e-08
4.24541e-08
5.12056e-08
7.13184e-08
8.14958e-08
8.5909e-08
1.02581e-07
1.18663e-07
1.62543e-07
2.35655e-07
2.51105e-07
1.62037e-07
1.57238e-07
1.66277e-07
1.3599e-07
3.5399e-07
4.03645e-07
4.91277e-07
8.59489e-07
1.34773e-06
1.75817e-06
2.06434e-06
2.37686e-06
2.57335e-06
2.68571e-06
3.18582e-06
2.6388e-06
2.41687e-06
2.11563e-06
1.65976e-06
9.99305e-07
4.81761e-07
4.19933e-07
3.71768e-07
1.28305e-07
4.31526e-08
3.81039e-08
3.8105e-08
4.33666e-08
7.73482e-08
1.08577e-07
1.10905e-07
1.12955e-07
1.20533e-07
7.94422e-08
3.11141e-07
1.25985e-07
2.12457e-07
2.69796e-07
3.0597e-07
4.73758e-07
7.86307e-07
1.17146e-06
1.4493e-06
1.62954e-06
1.70694e-06
1.80951e-06
1.84594e-06
1.79439e-06
1.78935e-06
1.56368e-06
1.38026e-06
1.09933e-06
7.53871e-07
3.92323e-07
3.25778e-07
1.40262e-07
9.49225e-08
8.49832e-08
8.78479e-08
9.49162e-08
7.51576e-08
5.6965e-08
5.06472e-08
4.29778e-08
4.79523e-08
7.17937e-08
1.07872e-07
1.54556e-07
2.0888e-07
3.65575e-07
6.70118e-07
8.79295e-07
1.05773e-06
1.05498e-06
1.00892e-06
8.01497e-07
4.834e-07
2.10208e-07
1.5985e-07
7.95826e-08
6.79174e-08
5.95099e-08
3.72713e-08
1.87637e-08
9.7855e-09
1.01984e-08
1.60155e-08
1.77302e-08
1.58653e-08
1.11213e-08
1.52695e-08
1.50177e-08
1.39962e-08
1.24207e-08
1.90806e-08
3.22279e-08
3.03597e-08
2.98433e-08
2.9102e-08
2.41897e-08
3.51817e-08
5.20214e-08
4.67652e-08
5.19783e-08
4.80904e-08
3.80417e-08
3.96833e-08
3.58048e-08
3.10202e-08
3.05556e-08
2.24441e-08
3.17688e-08
4.19032e-08
4.85164e-08
6.3341e-08
1.18915e-07
1.56147e-07
1.46179e-07
9.40841e-08
5.58148e-08
4.41126e-08
3.69772e-08
3.56847e-08
3.60774e-08
1.94387e-08
2.94905e-08
1.09088e-07
4.56383e-08
9.03669e-09
2.08633e-09
1.64256e-09
1.93012e-09
2.44057e-09
2.89974e-09
3.82166e-09
4.45419e-09
5.83003e-09
6.03302e-09
4.37287e-09
3.57993e-09
2.54875e-09
1.32206e-09
1.10815e-09
1.05364e-09
8.88083e-10
1.08191e-09
9.84032e-10
9.88879e-10
6.66343e-09
6.36617e-09
1.36982e-09
6.45545e-10
1.69256e-09
1.0606e-07
1.52983e-05
1.46179e-05
1.36152e-05
1.09316e-05
9.86268e-06
9.86869e-06
9.97953e-06
1.04981e-05
1.12597e-05
1.21514e-05
1.12849e-05
9.41922e-06
8.22647e-06
8.64306e-06
1.02379e-05
1.10278e-05
1.21273e-05
1.21477e-05
1.1871e-05
1.18107e-05
1.18252e-05
1.20237e-05
1.25753e-05
1.23071e-05
1.0763e-05
1.01336e-05
9.29133e-06
8.98625e-06
1.05743e-05
1.20569e-05
1.2903e-05
1.32693e-05
1.35432e-05
1.34423e-05
1.34477e-05
1.33015e-05
1.31492e-05
1.24065e-05
1.07866e-05
8.22578e-06
7.03339e-06
7.88932e-06
1.06734e-05
1.17385e-05
7.35658e-06
5.67689e-06
5.31182e-06
6.12005e-06
6.15307e-06
3.31959e-06
1.2896e-06
5.89404e-07
6.08386e-07
1.17294e-06
1.45553e-06
2.07685e-06
3.28911e-06
5.21131e-06
5.64556e-06
5.68967e-06
5.57912e-06
5.44417e-06
5.39835e-06
5.36905e-06
5.49892e-06
5.58888e-06
5.65533e-06
5.5692e-06
4.69472e-06
3.08692e-06
2.30503e-06
1.97007e-06
2.30788e-06
4.1338e-06
2.00064e-06
2.03825e-06
1.80278e-06
1.31053e-06
1.00682e-06
1.09172e-06
1.44232e-06
1.69836e-06
1.83112e-06
1.97188e-06
2.04003e-06
1.84941e-06
1.34542e-06
1.02667e-06
1.55766e-06
2.25852e-06
2.66651e-06
3.60073e-06
4.01755e-06
4.26492e-06
4.49902e-06
4.48929e-06
4.43774e-06
4.28382e-06
3.98405e-06
3.3936e-06
2.49889e-06
2.2857e-06
2.19593e-06
1.96224e-06
5.88755e-07
6.30266e-07
6.18119e-07
5.57171e-07
5.1848e-07
5.15382e-07
5.38553e-07
6.27038e-07
1.29996e-06
1.85636e-06
2.36052e-06
2.73263e-06
2.89693e-06
2.99157e-06
3.1007e-06
3.10858e-06
2.9817e-06
2.79845e-06
2.63585e-06
2.39353e-06
2.34583e-06
2.21329e-06
2.0195e-06
1.8066e-06
1.45514e-06
1.43422e-06
1.89044e-06
2.11828e-06
1.84097e-06
7.1344e-07
1.2162e-07
1.42457e-07
1.55045e-07
1.11538e-07
1.08496e-07
1.24271e-07
1.26735e-07
1.23099e-07
1.14059e-07
1.17998e-07
1.31548e-07
1.40158e-07
1.49089e-07
1.61994e-07
1.52107e-07
1.67476e-07
1.58323e-07
1.59418e-07
1.67557e-07
1.48423e-07
1.44802e-07
1.53093e-07
1.49328e-07
1.35662e-07
1.33855e-07
1.21209e-07
1.08735e-07
1.05659e-07
1.1031e-07
1.20957e-07
2.66898e-07
1.36255e-07
4.73532e-08
4.73442e-08
8.36511e-08
9.89639e-08
2.33721e-07
5.37247e-07
7.56656e-07
7.00821e-07
4.68422e-07
3.08259e-07
2.82757e-07
2.27941e-07
2.04187e-07
1.4418e-07
1.4543e-07
1.71945e-07
1.98205e-07
2.77558e-07
2.97905e-07
3.19936e-07
3.05676e-07
3.00333e-07
3.2335e-07
6.07506e-07
1.3072e-06
2.51065e-06
2.01223e-06
1.69868e-06
7.07811e-08
5.87269e-08
6.54617e-08
7.75048e-08
7.21149e-08
6.23373e-08
5.69255e-08
3.9744e-08
4.12194e-08
3.89908e-08
3.43902e-08
3.32454e-08
3.27953e-08
3.20896e-08
3.54193e-08
3.6134e-08
4.45316e-08
3.87518e-08
6.53368e-08
7.57952e-08
7.67883e-08
9.84398e-08
1.16182e-07
1.45299e-07
1.86214e-07
1.29482e-07
1.51521e-07
1.67466e-07
1.81032e-07
1.51479e-07
3.60453e-07
4.17973e-07
5.25268e-07
1.09563e-06
1.66389e-06
2.10229e-06
2.51121e-06
3.49396e-06
3.82001e-06
3.98976e-06
4.01478e-06
3.93174e-06
3.5784e-06
2.56461e-06
2.07385e-06
1.43046e-06
5.39532e-07
4.29844e-07
3.98652e-07
2.08037e-07
5.6162e-08
3.79977e-08
3.86313e-08
5.79311e-08
9.96936e-08
1.03249e-07
1.09583e-07
1.08874e-07
1.1863e-07
9.44269e-08
3.13086e-07
1.62276e-07
2.65062e-07
2.87289e-07
3.38737e-07
7.66734e-07
1.19252e-06
1.61239e-06
1.76691e-06
2.47128e-06
2.69006e-06
2.72293e-06
2.73917e-06
2.67508e-06
2.48906e-06
1.9535e-06
1.64498e-06
1.40751e-06
1.05016e-06
6.30745e-07
3.4779e-07
2.08161e-07
1.1501e-07
1.1026e-07
1.14695e-07
7.91572e-08
4.66834e-08
4.99632e-08
4.96012e-08
5.40207e-08
7.54577e-08
8.03404e-08
1.6536e-07
2.27002e-07
5.63301e-07
1.06164e-06
1.52033e-06
2.27023e-06
2.81026e-06
2.78809e-06
2.4939e-06
1.60842e-06
1.21923e-06
7.04089e-07
2.3628e-07
1.61108e-07
7.47677e-08
6.57074e-08
5.43182e-08
2.41472e-08
1.21291e-08
1.10603e-08
1.67899e-08
1.79245e-08
1.63088e-08
1.11124e-08
1.53669e-08
1.40686e-08
1.48153e-08
1.35402e-08
1.87078e-08
3.2188e-08
3.02432e-08
2.9987e-08
2.43797e-08
3.6439e-08
4.72397e-08
5.51259e-08
6.22784e-08
6.9003e-08
6.72885e-08
5.82437e-08
3.93483e-08
3.16069e-08
3.78716e-08
2.83037e-08
2.1638e-08
3.29766e-08
4.17412e-08
4.88514e-08
6.04649e-08
1.32157e-07
1.96557e-07
2.02579e-07
1.58932e-07
5.87644e-08
4.4424e-08
3.46516e-08
3.37095e-08
3.37193e-08
1.44314e-08
1.95348e-08
4.28284e-08
9.5102e-09
2.66148e-09
1.24836e-09
1.44088e-09
2.2513e-09
2.62093e-09
4.23377e-09
6.46952e-09
1.01358e-08
1.06535e-08
1.38368e-08
1.00728e-08
6.35498e-09
3.46559e-09
1.96951e-09
1.19072e-09
1.06227e-09
1.06948e-09
1.06797e-09
9.2089e-10
8.11854e-10
3.09057e-09
1.4634e-08
5.19464e-09
2.62442e-09
1.36771e-08
3.24978e-06
1.51924e-05
1.45176e-05
1.23235e-05
1.00228e-05
9.6406e-06
9.50779e-06
9.73182e-06
1.04009e-05
1.15428e-05
1.26084e-05
1.17323e-05
9.65166e-06
8.18425e-06
8.59538e-06
1.03798e-05
1.11072e-05
1.22641e-05
1.23078e-05
1.20498e-05
1.19046e-05
1.18865e-05
1.23223e-05
1.25322e-05
1.09151e-05
9.18478e-06
8.91684e-06
8.96763e-06
9.65729e-06
1.14223e-05
1.26756e-05
1.32704e-05
1.33136e-05
1.35069e-05
1.34008e-05
1.34141e-05
1.34138e-05
1.33453e-05
1.29129e-05
1.1571e-05
9.05492e-06
7.43945e-06
7.97685e-06
1.0616e-05
1.16962e-05
7.48762e-06
6.04182e-06
5.51813e-06
6.22953e-06
6.59196e-06
4.60882e-06
1.59869e-06
5.89105e-07
6.10606e-07
1.23239e-06
1.51135e-06
2.27993e-06
4.31925e-06
5.49663e-06
5.61732e-06
5.54645e-06
5.52581e-06
5.3488e-06
5.30863e-06
5.21449e-06
5.32616e-06
5.46163e-06
5.59377e-06
5.73999e-06
5.16664e-06
3.44312e-06
2.58745e-06
2.11184e-06
2.33431e-06
4.06466e-06
1.94872e-06
2.01126e-06
1.80185e-06
1.26324e-06
8.82278e-07
8.48683e-07
1.07935e-06
1.3664e-06
1.64684e-06
1.85572e-06
1.98891e-06
1.9628e-06
1.51995e-06
9.71263e-07
1.5185e-06
2.2701e-06
2.6897e-06
3.67078e-06
4.09817e-06
4.49137e-06
4.70689e-06
4.70116e-06
4.6338e-06
4.43685e-06
4.20327e-06
3.61939e-06
2.55795e-06
2.31015e-06
2.17958e-06
1.92808e-06
6.1802e-07
9.94914e-07
8.11167e-07
5.30106e-07
5.03641e-07
4.93781e-07
5.36061e-07
9.20811e-07
1.59703e-06
2.29133e-06
2.75276e-06
2.943e-06
3.03578e-06
3.05699e-06
3.13979e-06
3.15011e-06
3.25169e-06
3.08069e-06
2.93314e-06
2.63797e-06
2.55545e-06
2.31831e-06
2.10623e-06
1.81275e-06
1.47994e-06
1.39137e-06
1.7039e-06
2.0796e-06
2.04459e-06
1.17286e-06
1.15903e-07
1.38392e-07
1.48701e-07
1.0295e-07
1.01963e-07
1.12295e-07
1.15684e-07
1.13633e-07
1.07733e-07
1.07146e-07
1.16171e-07
1.28227e-07
1.44814e-07
1.61169e-07
1.49811e-07
1.61746e-07
1.66003e-07
1.48443e-07
1.62205e-07
1.5458e-07
1.52326e-07
1.39863e-07
1.47212e-07
1.41177e-07
1.36234e-07
1.2898e-07
1.1446e-07
1.0543e-07
1.11291e-07
1.19215e-07
2.50031e-07
5.54534e-08
3.66876e-08
3.83624e-08
5.82104e-08
8.77758e-08
1.87726e-07
4.54707e-07
7.3141e-07
6.83157e-07
4.69102e-07
3.12991e-07
2.58779e-07
2.14184e-07
1.54254e-07
1.35124e-07
1.26863e-07
1.48093e-07
1.63743e-07
2.29971e-07
2.78815e-07
2.9644e-07
3.02604e-07
2.96797e-07
3.18111e-07
5.56468e-07
1.05463e-06
1.59342e-06
1.64313e-06
1.3591e-06
6.47862e-08
4.97489e-08
6.23224e-08
7.95075e-08
7.09731e-08
6.39925e-08
5.3022e-08
4.38048e-08
4.01947e-08
3.69864e-08
3.19232e-08
3.00427e-08