/*--------------------------------*- C++ -*----------------------------------*\
| =========                 |                                                 |
| \\      /  F ield         | OpenFOAM: The Open Source CFD Toolbox           |
|  \\    /   O peration     | Version:  2.1.1                                 |
|   \\  /    A nd           | Web:      www.OpenFOAM.org                      |
|    \\/     M anipulation  |                                                 |
\*---------------------------------------------------------------------------*/
FoamFile
{
    version     2.0;
    format      ascii;
    class       volScalarField;
    location    "0.006650000";
    object      O2;
}
// * * * * * * * * * * * * * * * * * * * * * * * * * * * * * * * * * * * * * //

dimensions      [0 0 0 0 0 0 0];

internalField   nonuniform List<scalar> 
12384
(
0.0128941
0.0144565
0.0147388
0.014416
0.0137717
0.0130178
0.0122762
0.0116178
0.0109361
0.0104704
0.0101847
0.010139
0.00994068
0.00758997
0.0313595
0.0272218
0.0278448
0.0292329
0.0306698
0.0317178
0.0320028
0.0316426
0.0307935
0.029361
0.0276149
0.0258395
0.0242855
0.0227175
0.02094
0.0191203
0.0172805
0.0160823
0.0153587
0.0150574
0.0151289
0.0156131
0.0164123
0.0174723
0.0194829
0.0222331
0.0257876
0.0297658
0.0366635
0.0430645
0.01328
0.00800541
0.00460984
0.00375075
0.0035258
0.00332643
0.00317475
0.00294487
0.00261526
0.00224558
0.00187986
0.00156719
0.00133464
0.00115868
0.00110292
0.001038
0.00103484
0.000964979
0.00098014
0.000997416
0.000961121
0.00102624
0.00106272
0.001124
0.00125247
0.00145704
0.00197904
0.0033508
0.00669441
0.00680495
0.00221063
0.00222293
0.00226469
0.00223327
0.00212496
0.00201712
0.0018501
0.00167907
0.00149421
0.00132685
0.00121047
0.00112244
0.00104792
0.0010295
0.00104043
0.00108392
0.00126666
0.00132054
0.00136416
0.00147466
0.00150752
0.00158301
0.00176538
0.00190656
0.00201743
0.00223425
0.00242219
0.00224061
0.00169582
0.0015883
0.000313125
0.0003843
0.000438759
0.000483493
0.000521444
0.000553591
0.000576576
0.000186872
0.000280751
0.000345585
0.000396183
0.000574793
0.000531353
0.000695994
0.000731011
0.000717162
0.000706865
0.000998007
0.00101247
0.00101334
0.00106305
0.00122357
0.00169575
0.00140657
0.00120638
0.00101851
0.000838669
0.000780622
0.000986475
0.00137518
3.49249e-05
5.7619e-05
8.42323e-05
0.000108493
0.000101113
8.69412e-05
8.06331e-05
7.51452e-05
7.94933e-05
8.18207e-05
8.55539e-05
8.50649e-05
8.82673e-05
8.86941e-05
9.26919e-05
8.33691e-05
8.1234e-05
7.49525e-05
7.23789e-05
7.2075e-05
6.54525e-05
5.98687e-05
5.85263e-05
6.31024e-05
6.02988e-05
5.98148e-05
7.4998e-05
1.46744e-05
1.92576e-05
8.24268e-05
0.000731
0.000874231
0.000590775
0.000180653
0.000210763
0.000168394
0.000125642
0.000118269
0.00012173
0.000131213
0.000139474
0.000144257
0.000145895
0.00014586
0.000147082
0.000153773
0.000160551
0.000171632
0.000190659
0.000179656
0.000197376
0.000229927
0.00027305
0.000361659
0.00617733
0.0162572
0.016979
0.0165194
0.0159279
0.0160689
-7.67942e-05
8.03429e-05
6.14598e-05
5.55522e-05
4.50751e-05
4.42268e-05
4.37505e-05
4.17565e-05
4.0084e-05
3.72201e-05
3.97765e-05
3.66637e-05
3.5365e-05
3.98533e-05
3.6168e-05
4.8877e-05
4.99658e-05
5.0709e-05
5.45523e-05
5.16041e-05
7.65438e-05
9.03404e-05
0.000125461
9.44028e-05
4.27432e-05
-4.61455e-05
9.72492e-05
9.94107e-05
0.00010495
1.32447e-05
0.000219804
0.000178841
0.000190057
0.000193425
0.000196124
0.000191857
0.000189003
0.000187276
0.000232306
0.000234412
0.000244887
0.000241958
0.000206084
0.000232394
0.00018785
0.000186856
0.00013388
2.91185e-05
9.36958e-06
9.79927e-06
1.50011e-05
1.55796e-05
1.60558e-05
1.74527e-05
1.72939e-05
1.76795e-05
1.4459e-05
1.08781e-05
5.12785e-06
5.78387e-06
0.000115214
6.01872e-05
6.00892e-05
5.99071e-05
7.4381e-05
1.95758e-05
5.38545e-05
9.85716e-05
0.000126988
0.000113911
0.000113263
0.00015656
0.000144532
0.000148093
0.000153739
0.000158225
0.000148978
0.000162713
0.00016841
-6.28391e-06
3.72091e-05
1.81673e-05
2.70173e-05
3.16508e-05
2.49343e-05
2.77726e-05
2.89853e-05
2.8125e-05
2.47167e-05
2.01155e-05
1.76542e-05
1.19238e-05
1.22539e-05
1.0957e-05
1.28901e-05
9.44503e-06
1.25599e-05
9.14661e-06
1.22013e-05
1.2818e-05
1.45932e-05
1.9873e-05
1.54118e-05
1.92649e-05
2.17091e-05
2.22943e-05
1.55748e-05
1.13114e-05
5.35486e-06
4.03701e-06
4.14466e-06
4.7581e-06
5.30145e-06
6.14854e-06
6.30764e-06
6.51248e-06
7.30714e-06
6.82414e-06
5.19587e-06
5.0948e-06
2.39887e-05
3.08044e-05
9.32184e-06
2.70321e-05
2.39563e-05
1.98224e-05
1.13434e-05
1.06163e-05
9.62999e-06
9.38512e-06
8.9982e-06
7.53513e-06
1.78846e-06
8.3258e-06
1.41394e-06
3.60857e-07
9.73206e-07
9.118e-06
9.82486e-06
9.77042e-06
1.13467e-05
1.16435e-05
1.47275e-05
2.10278e-05
2.0144e-05
2.67633e-05
3.01772e-05
3.08009e-05
2.96465e-05
2.00651e-05
5.54701e-06
4.68427e-06
4.45219e-06
7.68396e-06
2.23993e-05
0.00196009
0.0210632
3.46517e-06
6.06923e-07
8.86664e-07
8.90397e-07
7.711e-07
7.99841e-07
6.61427e-07
6.88289e-07
7.10114e-07
7.32352e-07
7.1609e-07
7.41013e-07
6.55559e-07
8.70208e-07
1.25614e-06
1.62935e-06
1.7987e-06
1.14817e-06
7.83817e-07
3.45145e-07
1.37556e-07
9.50929e-08
2.43988e-07
0.0206113
0.0201135
0.0193733
0.0192613
0.0188265
0.0179325
0.0165431
0.0146045
0.0121611
0.0103206
0.00882509
0.00866145
0.00932218
0.00774895
0.031201
0.0267029
0.028571
0.0311589
0.0329169
0.0329251
0.0312466
0.0288368
0.0265859
0.0252274
0.0243981
0.023363
0.0217107
0.0189777
0.0159305
0.013454
0.0115207
0.0104007
0.0095369
0.00907573
0.00853804
0.00815838
0.00814597
0.00880437
0.0105567
0.0143493
0.019935
0.0260463
0.0330472
0.0390976
0.0127836
0.00731725
0.00471118
0.00411553
0.00433191
0.00413228
0.00356563
0.00281895
0.00223223
0.00169075
0.00114684
0.000880239
0.00086664
0.00106568
0.00132278
0.00171322
0.0020504
0.00219361
0.00225312
0.00213667
0.00189015
0.0016209
0.00138888
0.00118728
0.00107573
0.00123496
0.00161851
0.00242927
0.0042646
0.00725749
0.00221049
0.00227526
0.0022187
0.00201067
0.00169411
0.00147482
0.00116372
0.000869307
0.000556577
0.000425278
0.000308283
0.000231375
0.000226646
0.00028639
0.000551622
0.000952987
0.00148245
0.00181013
0.00211569
0.00224187
0.00227294
0.00228477
0.00224362
0.00224448
0.00224747
0.00220172
0.00237967
0.00233953
0.00206442
0.0016929
0.000273265
0.000325103
0.000402045
0.000477391
0.000525977
0.000278064
0.000405676
0.000490453
0.000526253
0.000559747
0.000607323
0.000681459
0.000760693
0.000931478
0.00103471
0.00107409
0.00121016
0.00123978
0.00135168
0.0012966
0.00117083
0.00114923
0.00137629
0.00143487
0.000706058
0.000171313
0.000524221
0.000486155
0.000446798
0.000489967
5.29948e-05
6.46003e-05
0.000103681
0.000100682
7.44003e-05
6.09397e-05
6.865e-05
8.00337e-05
9.08037e-05
9.81656e-05
9.84792e-05
0.000102608
0.000100865
9.89637e-05
9.65287e-05
0.000102452
8.81827e-05
9.30406e-05
8.78007e-05
7.99734e-05
8.10631e-05
7.80954e-05
7.39278e-05
6.79923e-05
5.95051e-05
6.12132e-05
6.59502e-05
7.63009e-05
8.76567e-05
7.80537e-05
0.000699726
0.000452815
0.000202092
0.000156295
2.34017e-05
5.69015e-05
-5.79997e-06
6.14852e-05
0.000127486
0.000205835
0.000233791
0.000246119
0.000246996
0.000242626
0.000236118
0.000229177
0.000225973
0.000225586
0.000202231
0.000205627
0.00021217
0.000224136
0.000247855
0.000297415
0.00144975
0.00903976
0.0173505
0.0141123
0.0103324
0.0118275
6.55902e-05
4.26663e-05
3.36272e-05
3.61678e-05
3.80053e-05
3.8231e-05
3.67781e-05
3.38684e-05
3.12382e-05
3.00537e-05
3.66331e-05
2.72549e-05
3.69513e-05
3.66042e-05
3.13789e-05
3.41634e-05
4.08876e-05
3.72552e-05
4.45535e-05
5.73097e-05
5.48499e-05
8.71773e-05
0.000111502
5.10074e-05
-2.36763e-05
9.6207e-05
8.63204e-05
7.8772e-05
7.44261e-05
8.28095e-05
0.000184899
0.000195739
0.000214259
0.000242121
0.000272585
0.000336659
0.000363043
0.000379374
0.000387756
0.000391242
0.000395794
0.000398884
0.000372119
0.000304685
0.000276333
0.000253744
0.000187284
0.000108547
2.24614e-05
1.39024e-05
2.0551e-05
2.21864e-05
2.16683e-05
2.25486e-05
2.50507e-05
8.2482e-06
1.86528e-05
1.70018e-05
1.79248e-05
1.78403e-05
0.000150215
6.10052e-05
6.42649e-05
7.66778e-05
6.52006e-05
0.00011404
0.000175294
0.00018636
0.000216626
0.000216447
0.000228079
0.000230504
0.000241994
0.000245426
0.000260544
0.000257374
0.00024693
0.00023005
0.000208768
0.000102926
6.44236e-05
2.48401e-05
3.14747e-05
2.619e-05
3.09781e-05
3.38239e-05
3.86497e-05
3.86448e-05
1.85368e-05
1.58152e-05
1.78903e-05
1.11885e-05
1.46022e-05
1.64693e-05
1.94385e-05
2.08477e-05
2.434e-05
2.87461e-05
2.68789e-05
2.74947e-05
2.8429e-05
2.87938e-05
2.87348e-05
2.96574e-05
2.42689e-05
2.52319e-05
2.28528e-05
7.51301e-06
6.16152e-06
3.81286e-06
3.75937e-06
5.26521e-06
6.31793e-06
8.92711e-06
9.3614e-06
9.32109e-06
8.80666e-06
8.70931e-06
6.37754e-06
4.71616e-06
1.2088e-05
2.12697e-05
2.52739e-05
2.44228e-05
1.92011e-05
1.36824e-05
6.62656e-06
8.14918e-06
9.64107e-06
9.57149e-06
9.70654e-06
9.29659e-06
6.49446e-06
5.18446e-06
1.51445e-06
-1.82023e-07
1.16054e-05
-2.51615e-06
6.36453e-06
7.52379e-06
8.17158e-06
1.01059e-05
1.02666e-05
1.26498e-05
1.60077e-05
1.87862e-05
2.2792e-05
2.54714e-05
2.92437e-05
2.09663e-05
2.90179e-06
4.21086e-06
2.52048e-06
2.29133e-06
9.01844e-06
0.0043001
3.63246e-05
6.90368e-07
6.59744e-07
7.13445e-07
6.9809e-07
6.06824e-07
5.81357e-07
4.89407e-07
4.30919e-07
3.77479e-07
3.09833e-07
4.82797e-07
4.21562e-07
3.92037e-07
5.15884e-07
5.70061e-07
1.20143e-06
2.94344e-06
2.16658e-06
9.4334e-07
1.99973e-07
7.48552e-08
9.39365e-08
3.44579e-07
0.0218572
0.0220308
0.0250114
0.0257406
0.0243004
0.0219057
0.0199584
0.018372
0.0167688
0.0136968
0.0102431
0.00813418
0.00859925
0.00782688
0.0311247
0.0265154
0.0292764
0.0326782
0.0335439
0.0319418
0.0299608
0.0290913
0.0298186
0.0312315
0.0307672
0.0285478
0.0251105
0.0208052
0.0172749
0.0158882
0.0157972
0.0162969
0.0165879
0.0164981
0.0156384
0.0138577
0.011381
0.00934489
0.00844295
0.00944215
0.0137558
0.0212219
0.0295834
0.0364101
0.0124184
0.00711996
0.00524579
0.00576726
0.00635043
0.00523596
0.00309812
0.00191457
0.00152163
0.00134397
0.00094669
0.000977313
0.00141554
0.00238931
0.00328941
0.00410089
0.00521036
0.00595511
0.00610964
0.00570376
0.00493258
0.00394072
0.00320631
0.00241882
0.00175166
0.00134874
0.00140488
0.00196449
0.00334132
0.00640325
0.00220319
0.0022761
0.00207561
0.00166112
0.00132865
0.00100966
0.000828264
0.000632987
0.000647105
0.000661112
0.000538501
0.000290515
0.0005549
0.000248598
0.000843125
0.00171214
0.00238181
0.00286713
0.00322167
0.00339286
0.00342154
0.0033736
0.00329323
0.00311042
0.00284083
0.00259011
0.00243898
0.00247161
0.00233304
0.00185823
0.000241145
0.00033296
0.00044513
0.000522527
0.00015727
0.000177147
0.000168166
0.000172068
0.000185672
0.000253144
0.000397814
0.000571352
0.000749767
0.000984458
0.00104365
0.00123475
0.00137099
0.00143764
0.0015957
0.00163833
0.00148876
0.00135452
0.00134606
0.00134923
0.00082824
0.000469909
0.00035216
0.00051712
0.000319761
0.000234143
5.22851e-05
7.02184e-05
0.00010169
7.9758e-05
5.45925e-05
6.15171e-05
8.04035e-05
8.87264e-05
9.30436e-05
8.89737e-05
9.04349e-05
0.00010126
0.000103483
0.000100384
0.000100209
9.84554e-05
9.95232e-05
9.09234e-05
9.28971e-05
8.60318e-05
8.62897e-05
8.60044e-05
8.19612e-05
7.33136e-05
6.98916e-05
6.5604e-05
6.25171e-05
6.98914e-05
7.78062e-05
7.89108e-05
0.000540768
0.000217369
0.000152267
5.24275e-05
4.55403e-05
6.1658e-05
0.00010084
0.000229612
-2.6619e-05
0.000281227
0.000347325
0.000265468
0.000125229
-2.57397e-05
0.000279096
0.000275554
0.000276168
0.000278502
0.000257717
0.000248472
0.000236214
0.000228623
0.000235058
0.000258742
0.000193284
0.00249942
0.0127303
0.0135835
0.00647292
0.00709364
1.83032e-05
3.13031e-05
3.66428e-05
3.81547e-05
3.73562e-05
3.52166e-05
3.16325e-05
2.81706e-05
2.49607e-05
1.80857e-05
1.81615e-05
2.70267e-05
2.52373e-05
2.74434e-05
1.79374e-05
2.25872e-05
3.18411e-05
3.81984e-05
3.60975e-05
4.44091e-05
5.60269e-05
6.46877e-05
2.18492e-05
8.43147e-05
5.49519e-05
8.7299e-05
-3.2677e-05
8.9754e-05
7.6452e-05
7.04663e-05
0.000191139
0.000209286
0.000250129
0.000308869
0.000402469
0.00046326
0.00037653
0.000699658
0.000942276
0.00109473
0.00111095
0.000990099
0.00069179
0.000149661
0.0004068
0.000303577
0.000255659
0.000181686
6.83145e-05
1.77442e-05
1.88609e-05
2.07685e-05
1.97327e-05
2.00421e-05
5.52349e-06
2.20212e-05
3.05776e-05
3.99776e-05
3.59362e-05
2.51754e-05
0.000203022
7.02666e-05
7.38649e-05
7.97423e-05
0.000171286
0.000194775
0.000233393
0.000249548
0.000272618
0.000190634
0.000405038
0.000554921
0.000638841
0.00067549
0.000562871
0.000400094
-4.70474e-05
0.000288846
0.000270221
0.000214456
4.54896e-06
4.22088e-05
3.02075e-05
3.19203e-05
3.55425e-05
3.31412e-05
4.16276e-05
3.66405e-05
1.17302e-05
1.31909e-05
1.28777e-05
1.79056e-05
1.6995e-05
3.18642e-05
3.80777e-05
4.36307e-05
2.12299e-05
3.26877e-05
4.09822e-05
3.90948e-05
4.0499e-05
3.01145e-05
4.39171e-05
4.01219e-05
3.67812e-05
2.84506e-05
2.62679e-05
1.41095e-05
9.87887e-06
3.83865e-06
2.95481e-06
4.20884e-06
7.60837e-06
9.17024e-06
9.85614e-06
9.53152e-06
8.996e-06
9.12009e-06
7.83823e-06
5.09658e-06
9.05202e-06
1.80488e-05
2.277e-05
1.76343e-05
1.37595e-05
8.63617e-06
3.62167e-06
9.93309e-06
1.48011e-05
6.61776e-06
1.55468e-05
1.26411e-05
9.15923e-06
1.18835e-05
7.08051e-06
8.70747e-06
6.34374e-06
6.20492e-06
9.8314e-06
1.9058e-05
2.25501e-05
2.51143e-05
2.16116e-05
2.07194e-05
1.89274e-05
2.02935e-05
2.03406e-05
2.23147e-05
2.34877e-05
2.03852e-05
1.012e-05
9.39232e-06
6.47989e-06
3.21246e-06
8.87505e-05
4.37195e-05
1.7178e-06
6.21151e-07
7.16535e-07
5.95938e-07
6.09862e-07
6.40777e-07
6.51694e-07
5.18204e-07
4.76978e-07
5.41621e-07
4.40215e-07
2.94853e-07
4.31936e-07
3.39183e-07
2.87478e-07
3.83244e-07
4.75221e-07
1.53537e-06
3.09031e-06
6.66766e-07
1.59842e-07
1.03368e-07
9.85537e-08
6.17329e-07
0.023919
0.0293187
0.0307003
0.026939
0.0209942
0.0166083
0.014841
0.0151409
0.016033
0.0157772
0.0128105
0.00889632
0.00822168
0.00778111
0.0309628
0.0262831
0.0298594
0.0334855
0.0340011
0.0331059
0.0333602
0.0353551
0.0370081
0.035995
0.0314568
0.0259066
0.0217217
0.0178701
0.0170569
0.0188574
0.0216941
0.0238748
0.0251634
0.0254926
0.0250578
0.0236364
0.0204468
0.0157358
0.0111407
0.00905411
0.0106416
0.0167862
0.0264353
0.0346391
0.0123566
0.00727763
0.0061398
0.00746117
0.00770969
0.00413742
0.0019583
0.000821008
0.000748142
0.00106886
0.00099936
0.00127179
0.00246118
0.00385286
0.00625728
0.00800616
0.00867134
0.00895828
0.00899656
0.00887164
0.00858482
0.00780948
0.00623683
0.00408197
0.00296546
0.00192625
0.00150563
0.001747
0.00273695
0.00552121
0.00220199
0.00224439
0.00198945
0.00144748
0.0010261
0.000857335
0.000964158
0.00125539
0.00139184
0.00141306
0.00121114
0.000775373
0.000270461
0.000292771
0.00121172
0.00218773
0.00297517
0.00352445
0.0042832
0.0049912
0.0053151
0.00535419
0.00523829
0.00454563
0.00350812
0.00307254
0.00267089
0.00253708
0.00244979
0.00202127
0.000261692
0.0004346
0.000509714
0.000511526
0.000490805
0.000471793
0.000465958
0.000478312
0.00051359
0.000363633
0.000636607
0.00103972
0.00139268
0.00165026
0.00182813
0.00179477
0.00178064
0.00178801
0.00184889
0.00188745
0.00184625
0.0015715
0.00139056
0.00124749
0.000944619
0.000846538
0.00143224
0.000862539
0.000430655
0.000201751
5.54513e-05
7.50481e-05
9.39866e-05
7.43582e-05
4.74606e-05
6.5285e-05
7.69717e-05
7.89474e-05
8.47014e-05
8.38324e-05
8.49176e-05
9.22804e-05
9.75912e-05
9.8195e-05
0.000101618
0.000103527
8.98879e-05
8.89016e-05
8.24338e-05
8.9036e-05
8.3393e-05
8.74295e-05
8.03135e-05
8.38475e-05
7.30056e-05
6.72721e-05
6.45408e-05
6.5529e-05
7.61529e-05
7.86414e-05
0.000282861
0.000176215
8.95519e-05
3.12798e-05
4.80092e-05
5.75882e-05
0.000212973
-7.22423e-06
0.000389158
0.000447164
0.000292329
2.6901e-05
0.000279883
0.000243085
0.000224886
0.000219121
0.000222867
0.000239204
0.000256662
0.000265832
0.000257779
0.000240797
0.000230842
0.000240616
0.000280447
0.00106309
0.00569105
0.0114192
0.00565607
0.00435316
2.60052e-05
3.99059e-05
3.91457e-05
3.71571e-05
3.56349e-05
3.13028e-05
2.72085e-05
2.23559e-05
1.49708e-05
9.58901e-06
5.22095e-06
2.19336e-06
1.69473e-06
1.44183e-05
7.06343e-06
1.04752e-05
2.20198e-05
2.68751e-05
2.84462e-05
3.46155e-05
4.92777e-05
6.04266e-05
8.02551e-05
6.49219e-05
0.000112612
0.000145898
-2.51867e-05
9.55397e-05
9.07691e-05
7.39868e-05
0.000193199
0.00023275
0.000306648
0.000394805
0.000319625
0.0010195
0.00152884
0.00194575
0.00225834
0.00243581
0.00245427
0.00229575
0.00198252
0.00143916
0.000587273
0.00041458
0.000289348
0.00024625
6.2054e-05
2.08972e-05
1.89782e-05
2.05112e-05
1.99457e-05
2.07528e-05
2.27809e-05
4.41422e-05
4.72541e-05
5.70594e-05
5.57884e-05
3.39649e-05
0.000244912
7.92186e-05
7.27549e-05
0.000134101
0.000197574
0.000249419
0.000274655
0.000460664
0.000918607
0.00127796
0.00154085
0.00166273
0.00173063
0.00169211
0.00157602
0.00123114
0.000841198
0.000301381
0.000317642
0.00025797
0.000165635
6.59368e-05
3.42677e-05
3.06947e-05
3.58858e-05
4.12098e-05
4.242e-05
3.0156e-05
1.98661e-05
4.9271e-06
1.25265e-05
2.50469e-05
3.68741e-05
4.55089e-07
4.61512e-05
0.000106331
0.000142639
0.000168756
0.000186823
0.000191986
0.000177432
0.000158799
0.00011409
7.68156e-05
-6.28004e-06
4.18001e-05
3.65783e-05
2.4238e-05
8.35532e-06
5.91058e-06
2.85459e-06
3.37836e-06
7.83604e-06
9.38823e-06
2.93329e-06
1.32254e-06
8.36201e-06
8.5978e-06
7.65412e-06
5.24123e-06
7.77101e-06
1.81063e-05
2.12255e-05
1.84897e-05
8.04669e-06
4.30767e-06
4.42616e-06
1.6392e-05
1.15649e-05
1.20263e-05
1.14611e-05
5.81727e-06
1.083e-05
1.29463e-05
1.17285e-05
1.14835e-05
5.45308e-06
1.53153e-05
2.08929e-05
2.71422e-05
3.26197e-05
2.70782e-06
2.16828e-05
-2.30758e-05
3.38377e-05
2.60335e-05
2.15812e-05
1.95817e-05
2.06676e-05
1.94638e-05
1.05663e-05
9.15033e-06
3.1537e-05
1.11499e-05
2.65257e-05
2.50219e-06
5.86372e-07
4.45323e-07
6.45178e-07
7.94353e-07
7.14359e-07
1.02824e-06
1.18124e-06
1.0796e-06
1.05376e-06
8.07351e-07
4.20865e-07
4.33803e-07
2.10361e-07
3.28679e-07
4.12856e-07
3.83118e-07
2.90991e-07
3.87108e-07
2.13301e-06
1.24692e-06
1.9831e-07
1.12723e-07
1.24296e-07
2.46263e-06
0.0305835
0.0343368
0.0302623
0.0201796
0.0129769
0.0107893
0.0104161
0.0113767
0.0131644
0.0153705
0.0143862
0.0101494
0.00808703
0.00767506
0.0309952
0.0258904
0.0299703
0.0342207
0.0354111
0.0360207
0.0379189
0.039592
0.038794
0.0316007
0.0231251
0.0182665
0.0164957
0.0161366
0.0189385
0.0236176
0.0268895
0.0286689
0.0286758
0.0283365
0.0278729
0.0274062
0.0259458
0.0222917
0.0162669
0.0109476
0.00978942
0.0144837
0.0242955
0.0335331
0.0126371
0.00770573
0.00696092
0.00873022
0.00855714
0.00388605
0.00109518
0.000518279
0.000540641
0.000823306
0.00107552
0.0017314
0.00333556
0.0061203
0.00828436
0.00916446
0.00915923
0.00921819
0.00909749
0.00904496
0.00899363
0.00902247
0.00847137
0.00690159
0.00421263
0.00288571
0.00183439
0.00173088
0.00247039
0.00492194
0.00223648
0.00219908
0.00185323
0.00119049
0.000758247
0.000777823
0.00118418
0.00163872
0.00196885
0.00207865
0.00189819
0.00141887
0.000539472
0.000448871
0.00134033
0.00249985
0.00334488
0.00421294
0.00544203
0.00624942
0.00672741
0.006877
0.00667384
0.00619535
0.00504245
0.00353246
0.00300195
0.00263636
0.00249973
0.00210374
0.000403172
0.000496855
0.000517585
0.000475302
0.00043658
0.000445633
0.000432386
0.000484237
0.000367747
0.000934807
0.00165765
0.00226411
0.00262535
0.00297131
0.00303263
0.00296955
0.00267203
0.00241136
0.00229951
0.00219684
0.00214125
0.00184817
0.00154041
0.00128657
0.00089069
0.00100663
0.0018353
0.00181816
0.000455107
0.000342257
5.20429e-05
7.4329e-05
8.51676e-05
6.26745e-05
4.46671e-05
5.96349e-05
7.88156e-05
7.41361e-05
7.27364e-05
6.90779e-05
7.64752e-05
8.36484e-05
9.63055e-05
0.000100117
9.66064e-05
0.000100698
8.25752e-05
8.47692e-05
8.53768e-05
7.45357e-05
7.93515e-05
8.47025e-05
8.20212e-05
8.18993e-05
8.22267e-05
6.7128e-05
6.15477e-05
6.49754e-05
7.31847e-05
7.59554e-05
5.71153e-05
0.000130551
4.21848e-05
2.00682e-05
5.41557e-05
0.000104598
0.000209254
2.41428e-05
0.000531915
0.000498951
8.60855e-05
0.000274149
0.000234047
0.000209469
0.000159584
0.000148156
0.000145612
0.000158457
0.000186305
0.000219868
0.000258104
0.000248883
0.00023135
0.000230772
0.000254982
0.000466025
0.00231351
0.00697424
0.00471907
0.00264671
4.50491e-05
3.84625e-05
3.71687e-05
3.8014e-05
3.41578e-05
2.94298e-05
2.27054e-05
1.77756e-05
4.63627e-06
2.26057e-05
2.04995e-05
2.05833e-05
2.00404e-05
1.96826e-05
2.04483e-05
2.23793e-05
1.05314e-05
1.7697e-05
3.30273e-05
4.12206e-05
4.10972e-05
5.38546e-05
6.36666e-05
0.000103032
0.000100015
0.000113701
9.85058e-05
9.36186e-05
0.00010031
7.13331e-05
0.000206047
0.000262423
0.000362024
0.000175631
0.00107626
0.00184601
0.0024707
0.00302144
0.0033875
0.00359083
0.0037609
0.00350053
0.00311631
0.00252855
0.00165326
0.000468381
0.000373429
0.000302046
0.000247765
7.56944e-05
2.26229e-05
1.93375e-05
1.94606e-05
2.30526e-05
3.47604e-05
5.96677e-05
6.20165e-05
5.97356e-05
6.55001e-05
3.72265e-05
0.000227872
3.87544e-06
0.000116348
0.000195508
0.000247933
-6.0365e-05
0.000583123
0.00131488
0.00190695
0.002288
0.00251393
0.0026744
0.00270965
0.00261637
0.00248103
0.00206575
0.0016561
0.00104004
0.000359267
0.000311774
0.000217973
8.82497e-05
5.03341e-05
4.18758e-05
4.09975e-05
4.67717e-05
2.96934e-05
1.39818e-05
8.3163e-06
-2.70519e-06
2.10786e-05
4.34688e-05
4.13212e-05
9.85058e-05
0.000166886
-2.87855e-06
0.000558099
0.00105442
0.00137368
0.00139009
0.00126151
0.000851708
0.000220532
0.000171546
0.000112262
1.46635e-05
4.28941e-05
3.55771e-05
1.54525e-05
9.52762e-06
3.40074e-06
3.68679e-06
8.20057e-06
9.52487e-06
3.53462e-06
-2.29916e-08
8.587e-06
8.0837e-06
7.03323e-06
5.82773e-06
7.14401e-06
1.81677e-05
1.56303e-05
1.32011e-05
1.02503e-05
1.84084e-06
7.79403e-06
2.09613e-05
1.41541e-05
1.79791e-05
1.49331e-05
6.8884e-06
1.10996e-05
1.11336e-05
9.98003e-06
1.33572e-05
6.88854e-06
1.63756e-05
2.49074e-05
3.04005e-05
1.12934e-05
7.27901e-05
0.000114569
9.61327e-05
3.80239e-05
3.46478e-05
2.46153e-05
1.85712e-05
1.7645e-05
1.79227e-05
9.73792e-06
1.20204e-05
5.11258e-05
2.51527e-05
4.09953e-06
7.81091e-07
4.94902e-07
5.77053e-07
8.29168e-07
9.9219e-07
1.45345e-06
1.19983e-06
1.96635e-06
2.08112e-06
1.21092e-06
1.42579e-06
9.14247e-07
3.19661e-07
2.63041e-07
2.86011e-07
2.12442e-07
3.4445e-07
2.93412e-07
3.03892e-07
3.20296e-06
2.88302e-06
5.55672e-07
2.4717e-07
6.06764e-07
6.94032e-05
0.0362393
0.0351051
0.0237813
0.012962
0.00979142
0.00951135
0.00970995
0.0106493
0.0125031
0.0150025
0.0151325
0.0111552
0.00802673
0.00754167
0.0310422
0.0254705
0.0293588
0.0347231
0.0372349
0.0389612
0.04049
0.0402273
0.0335365
0.0220877
0.0151614
0.0136996
0.0143038
0.0164811
0.022769
0.0282274
0.0297768
0.0291397
0.0274643
0.0262661
0.0259646
0.0262382
0.0264782
0.0252291
0.0205048
0.0139746
0.0106763
0.0136436
0.0231227
0.0328542
0.0132013
0.0083109
0.00745644
0.00942969
0.00952928
0.00414054
0.00079448
0.000470766
0.00049319
0.000669191
0.00116192
0.00217155
0.00414185
0.00772686
0.00887836
0.00913199
0.00891737
0.00875069
0.00864105
0.00856434
0.00867674
0.00886143
0.00892284
0.00841836
0.00625881
0.00372079
0.00239717
0.00189786
0.00248377
0.00457789
0.00225174
0.0022155
0.00178527
0.000955415
0.000443782
0.000583253
0.00116933
0.00164297
0.00191321
0.00213984
0.00222493
0.00187981
0.000966496
0.000402027
0.00139193
0.00273479
0.00350823
0.0048263
0.00619669
0.00714417
0.00769354
0.00778025
0.00761766
0.00716967
0.0061489
0.00441924
0.00323148
0.00273602
0.0025177
0.00211907
0.000474875
0.000525193
0.000513233
0.000447039
0.000419962
0.00041711
0.0004292
0.000523702
0.000950775
0.00186974
0.00267407
0.00327105
0.0035509
0.00361406
0.0037594
0.00373612
0.00352484
0.00319943
0.00287556
0.00252216
0.00238472
0.00219069
0.00171892
0.00132542
0.000886074
0.000971219
0.0017468
0.00211966
0.00155676
0.00054954
5.58072e-05
7.40941e-05
8.95356e-05
5.41904e-05
5.15115e-05
6.45513e-05
6.73496e-05
6.48178e-05
5.81008e-05
6.12832e-05
7.66754e-05
8.44444e-05
8.8671e-05
9.44457e-05
8.78657e-05
9.34613e-05
8.1336e-05
8.23879e-05
8.83576e-05
6.8687e-05
7.24828e-05
8.37195e-05
8.63215e-05
7.71257e-05
7.96657e-05
7.31754e-05
6.61892e-05
6.65003e-05
7.0508e-05
7.61031e-05
0.000229713
7.4466e-05
2.03281e-05
1.77452e-05
5.01747e-05
9.33631e-06
0.00017105
0.000115487
0.000543075
0.000443832
-2.82276e-05
0.000245144
0.000212671
0.000140751
0.000111929
3.6187e-05
3.54008e-05
6.106e-05
9.27128e-05
0.000189318
0.000214783
0.000247891
0.000232586
0.000227898
0.000263621
0.000133782
0.00146928
0.00303199
0.00277501
0.00215151
2.99302e-05
1.95081e-05
2.53134e-05
3.84062e-05
3.41929e-05
2.6602e-05
2.1823e-05
8.56587e-06
2.21643e-05
2.06024e-05
1.76336e-05
1.7587e-05
1.72464e-05
1.68619e-05
1.81996e-05
1.95401e-05
2.41204e-05
7.90168e-06
2.80528e-05
3.66624e-05
3.42216e-05
5.04533e-05
6.48143e-05
8.51169e-05
4.33564e-05
-3.51472e-05
8.98696e-05
0.000102144
0.000112714
8.38701e-05
0.000213646
0.000279876
0.00040127
0.000627252
0.00165644
0.00249926
0.00327803
0.00456992
0.00568964
0.00628091
0.00629542
0.00589311
0.00482415
0.00337194
0.00245675
0.00126038
0.000440084
0.000318871
0.000282442
7.27142e-05
1.97494e-05
1.93481e-05
1.98144e-05
2.19385e-05
5.32887e-05
5.69519e-05
6.47962e-05
6.45433e-05
6.83112e-05
4.91401e-05
0.000226226
4.63816e-05
0.000187132
0.00021656
0.000284413
0.000509063
0.00135429
0.0021354
0.0025758
0.00344643
0.00423084
0.00435506
0.00441888
0.0041527
0.00352638
0.00275891
0.00222079
0.00166886
0.000907178
8.27339e-05
0.000246787
8.37006e-05
6.3987e-05
6.28798e-05
6.33522e-05
3.32764e-05
5.82186e-06
2.56111e-05
2.53489e-05
2.81688e-05
4.40184e-05
1.97191e-06
0.000106623
0.000179603
0.00029965
0.00132678
0.00221335
0.00356156
0.00525558
0.00522919
0.00421064
0.00243047
0.00162873
0.000618763
0.00019891
0.000114132
9.03848e-06
4.0982e-05
3.12129e-05
1.32301e-05
5.00561e-06
4.29094e-06
8.7136e-06
9.65636e-06
3.92493e-06
7.92955e-09
8.65593e-06
7.46414e-06
7.88212e-06
6.61479e-06
6.95328e-06
1.8211e-05
1.54753e-05
1.31605e-05
4.40334e-06
1.12616e-05
1.74875e-05
2.10169e-05
2.32829e-05
2.8835e-05
2.71216e-05
2.29974e-05
7.68585e-06
4.98171e-06
1.51465e-05
1.00367e-05
6.43956e-06
1.74591e-05
2.50236e-05
3.06521e-05
8.68146e-06
8.76325e-05
0.000159352
0.00016604
0.000109986
-1.82254e-06
2.50013e-05
1.65765e-05
1.58901e-05
1.60858e-05
6.18405e-06
1.03385e-05
2.31884e-05
2.23667e-06
8.22988e-07
3.08321e-07
3.38951e-07
7.33311e-07
8.63672e-07
1.64346e-06
2.28331e-06
4.26233e-06
2.45444e-06
4.85572e-06
4.29553e-06
2.29079e-06
1.37668e-06
6.37623e-07
3.04167e-07
4.07618e-07
3.34536e-07
3.37319e-07
2.65671e-07
3.0974e-07
1.3584e-06
7.75032e-06
2.29832e-06
1.12521e-06
7.13219e-06
0.00693011
0.0383811
0.0321613
0.0167055
0.0103199
0.00986481
0.0102666
0.0103446
0.0109399
0.0129166
0.0154841
0.0156828
0.0117136
0.00808211
0.00746208
0.0312012
0.0248782
0.0283055
0.0347599
0.0383731
0.0401165
0.0406341
0.0368722
0.0254502
0.0152053
0.0115561
0.0116297
0.0137927
0.0183963
0.026436
0.0304427
0.0294074
0.0267946
0.0246331
0.0232952
0.023108
0.0239454
0.0251464
0.0255087
0.02266
0.016272
0.0120436
0.0140123
0.0230584
0.0326103
0.0137148
0.00925758
0.00783875
0.00944833
0.0103319
0.00584537
0.00130808
0.000470528
0.000494969
0.00075676
0.00121599
0.00251226
0.00546028
0.00841809
0.00883078
0.00884172
0.00878576
0.00859296
0.00841898
0.00823155
0.00834071
0.00855179
0.00882335
0.00886797
0.00743585
0.00427996
0.00288741
0.00215063
0.00255064
0.00449217
0.00219802
0.00220971
0.00183315
0.000895254
0.000214087
0.000153111
0.000587079
0.00108278
0.00156228
0.0019615
0.00220288
0.0021333
0.00132442
0.000344373
0.00134813
0.00279482
0.00356469
0.00507796
0.00660456
0.00768888
0.00820531
0.00826548
0.00806953
0.00765528
0.00677599
0.00507133
0.00336371
0.00284387
0.00251815
0.00208692
0.000509553
0.000437154
0.000134876
0.00041993
0.000403064
0.000395021
0.000442302
0.000353471
0.00150349
0.0026225
0.00336383
0.00369607
0.00375969
0.0037683
0.00383209
0.0038437
0.00387487
0.00368014
0.0033719
0.00294381
0.00272445
0.00240065
0.00188385
0.00135866
0.000907225
0.000907097
0.00144701
0.0020536
0.00191058
0.000402436
5.22102e-05
7.12337e-05
8.49265e-05
4.76352e-05
4.64141e-05
5.52477e-05
5.85211e-05
5.6786e-05
5.19144e-05
5.20307e-05
6.06152e-05
7.54762e-05
8.53483e-05
9.79971e-05
8.62281e-05
8.93543e-05
8.66179e-05
7.48238e-05
7.845e-05
7.33866e-05
7.80396e-05
6.88513e-05
7.97962e-05
8.09561e-05
8.1507e-05
7.89073e-05
7.04129e-05
6.63754e-05
7.11421e-05
7.47898e-05
0.000211219
-2.29397e-05
1.97047e-05
1.00865e-05
2.68245e-05
5.36851e-05
0.000117912
-2.73785e-05
0.00051509
0.000427241
-1.98449e-05
0.000258448
0.000188681
0.000124414
4.55334e-05
2.2544e-05
1.30025e-05
3.28997e-05
5.4217e-05
0.000124874
0.00019401
0.000213477
0.000230575
0.000225708
0.000259444
4.92873e-05
0.000988262
0.00201067
0.00210571
0.00148877
2.38895e-05
1.15483e-05
2.25718e-05
3.96732e-05
3.3396e-05
2.76213e-05
1.88004e-05
2.38899e-05
2.14404e-05
1.92336e-05
1.67457e-05
1.54288e-05
1.40372e-05
1.41601e-05
1.68763e-05
1.74381e-05
2.19706e-05
2.38417e-05
2.2028e-05
2.35326e-05
2.99329e-05
4.89277e-05
5.98752e-05
7.46707e-05
9.26954e-05
8.65899e-05
9.73459e-05
3.81811e-05
7.42082e-05
9.19085e-05
0.000199578
0.00028723
0.000450463
0.000954434
0.00202167
0.00293429
0.00456945
0.00651068
0.00789756
0.00856269
0.00860204
0.00793619
0.00674818
0.00481424
0.00305027
0.00178144
0.000432919
0.000343467
0.00027839
0.000151643
4.12519e-05
2.13329e-05
5.01494e-06
4.0588e-05
6.60728e-05
5.95489e-05
6.45052e-05
6.04856e-05
6.26168e-05
4.70321e-05
0.000189355
0.000120786
0.000198087
0.000233402
6.75204e-05
0.000965028
0.00189465
0.00259393
0.00362034
0.00459589
0.00488977
0.00498462
0.00489683
0.00489887
0.00453914
0.00371313
0.00269315
0.00200109
0.00128489
0.000353097
0.000292501
0.000131761
8.55406e-05
7.82791e-05
5.8997e-05
2.71313e-05
2.45307e-05
-1.00447e-06
-2.44262e-06
2.52268e-05
-3.67897e-06
5.49947e-05
0.000158467
8.76771e-05
0.00144199
0.00347092
0.00695444
0.0105092
0.0123389
0.0126158
0.0109785
0.00774816
0.00399718
0.00179897
0.000588895
0.000178947
9.56377e-05
4.62719e-05
3.60625e-05
1.45067e-05
7.02396e-06
5.24206e-06