/*--------------------------------*- C++ -*----------------------------------*\
| =========                 |                                                 |
| \\      /  F ield         | OpenFOAM: The Open Source CFD Toolbox           |
|  \\    /   O peration     | Version:  2.1.1                                 |
|   \\  /    A nd           | Web:      www.OpenFOAM.org                      |
|    \\/     M anipulation  |                                                 |
\*---------------------------------------------------------------------------*/
FoamFile
{
    version     2.0;
    format      ascii;
    class       volScalarField;
    location    "0.006650000";
    object      omegaC_burn;
}
// * * * * * * * * * * * * * * * * * * * * * * * * * * * * * * * * * * * * * //

dimensions      [1 -3 -1 0 0 0 0];

internalField   nonuniform List<scalar> 
12384
(
160495
208808
232049
251719
269015
283748
292568
294928
290071
281203
265650
241528
202269
146778
271099
312874
331757
340033
343518
345927
348880
356163
368878
386818
408145
431987
461425
495814
535765
577852
620893
655765
682320
694205
690600
671239
653237
631246
602304
562650
503458
410520
278214
200190
360706
404546
446467
470279
482623
488216
493168
499738
509384
527363
557858
606692
655891
708785
760397
807435
843653
867122
871405
860286
837993
827778
812484
799074
776456
741505
675102
553833
367483
304309
433909
479315
502580
523072
548438
579331
612545
648019
683097
716120
753784
794493
846438
914754
984162
1.05317e+06
1.11461e+06
1.16102e+06
1.18461e+06
1.18096e+06
1.14721e+06
1.09937e+06
1.0648e+06
1.02141e+06
966212
862629
686368
482330
407919
437876
469793
596015
704544
807108
901308
987767
1.06972e+06
1.14346e+06
1.20529e+06
1.25085e+06
1.2786e+06
1.2882e+06
1.28231e+06
1.25695e+06
1.21145e+06
1.16159e+06
1.12573e+06
1.07378e+06
1.008e+06
909088
777161
629551
521691
457743
426100
423213
438162
445668
434127
400074
348942
406123
443266
460924
469400
473184
484901
511809
559220
620222
692102
770197
847424
913273
975936
1.01348e+06
1.04322e+06
1.03789e+06
989266
938151
883406
850425
823929
794190
756369
699458
610829
502901
421822
409744
311969
345086
371368
396642
457844
546488
649754
753730
858151
948879
1.02392e+06
1.07392e+06
1.09971e+06
1.10289e+06
1.08615e+06
1.05048e+06
1.01987e+06
1.00008e+06
983462
963460
934535
889612
820261
707804
552014
465354
441940
421864
416107
434010
324915
337470
448533
590508
722479
838984
940694
1.02161e+06
1.08583e+06
1.11414e+06
1.13553e+06
1.10649e+06
1.07458e+06
1.05547e+06
1.03459e+06
1.02524e+06
992402
959871
898527
827412
734253
628559
525740
460516
433312
429554
430190
428880
424987
418442
392654
536364
699774
835084
944008
1.02981e+06
1.09578e+06
1.13157e+06
1.15266e+06
1.13411e+06
1.11486e+06
1.09454e+06
1.0796e+06
1.05719e+06
1.02088e+06
971208
908250
825187
723040
611261
520152
456904
427947
422620
422832
410687
392757
367684
342428
327950
397795
445995
486702
542353
658896
792261
917965
1.0175e+06
1.1016e+06
1.14683e+06
1.16439e+06
1.17071e+06
1.17773e+06
1.15736e+06
1.17921e+06
1.15029e+06
1.13454e+06
1.07973e+06
1.02142e+06
930642
810404
660658
535746
487545
483275
486172
481879
473872
468038
471147
419116
477821
541508
650054
790600
909874
1.0073e+06
1.06297e+06
1.09794e+06
1.11664e+06
1.12962e+06
1.14267e+06
1.13742e+06
1.12866e+06
1.11047e+06
1.0778e+06
1.02465e+06
961871
877812
770100
654772
558461
522108
531912
538217
533836
520550
506015
493070
484015
360846
368996
429138
486946
546655
592509
628439
669687
717059
780226
860284
911444
923701
900236
860265
807102
745237
698524
670389
664983
677579
697647
718278
739715
757243
763690
752361
721222
657299
522712
208299
244549
229842
210409
206899
289706
468289
624414
630152
696776
740041
761566
789748
807792
843568
842376
819827
775783
719300
652618
581766
503210
438433
391528
348517
296124
231550
164149
103981
62204.6
205304
153747
171612
195761
220542
243530
262142
275924
281623
278485
264758
241725
209662
228232
278980
237627
246038
249325
252328
257020
263892
271138
276252
279122
281736
292743
323550
375872
444453
518766
593026
657830
709020
744532
763250
771572
776090
765258
737402
684437
602887
494148
370261
343789
386392
341757
392889
422504
431247
424579
408655
392253
386669
397170
429306
483037
551467
629430
707321
762612
790865
782268
765529
756810
742026
779763
806378
836872
837840
819708
744869
621262
461052
469565
475030
445293
508836
559554
595629
617191
625419
620074
605924
586639
574116
579171
611927
679377
756146
808207
786711
674175
516812
379683
304083
268017
293002
363834
492694
666250
815252
748282
502196
493177
429599
354908
456190
575077
688433
773198
801561
760040
663059
540302
426996
342512
280256
261162
249965
297682
385035
505687
677933
863104
984251
896358
648784
413560
347409
346755
343145
340249
337635
452216
381875
286520
307262
321351
334443
356222
390947
430437
472717
521901
577174
647970
720273
789657
842915
867473
806106
790444
706402
620415
653029
626424
665077
712975
745764
748917
667672
492284
329629
463118
333143
208551
227207
292114
385125
492680
612501
693050
658399
510097
338226
208719
129558
87383.5
67102.3
61497.4
69775.4
93840.3
140620
225154
355891
507101
661938
744352
608927
409164
279686
259544
302932
485181
381741
326943
468621
612901
731191
791604
770875
676772
557679
455726
347123
313340
286093
289154
348264
418409
544433
703639
826326
868795
739949
562404
415789
363860
362811
357530
343013
331617
324622
443637
477670
539920
701614
820163
858298
805072
710255
592900
496685
433432
444876
522392
607643
734802
868148
912877
845740
725483
603825
521248
478003
476707
477063
459065
422759
378417
329566
284394
255721
381344
397314
250238
272239
423934
614399
727231
643201
438393
263128
138275
93500.6
66796
59749
66881
115210
199173
329831
583388
815197
828133
693992
548960
485190
465698
452872
429669
399869
368956
348077
483391
425640
322785
493206
667532
644602
457077
316671
173537
138125
118213
124099
158298
220427
330936
469054
614923
697675
685325
642356
608570
591827
589595
575667
547883
509098
466468
419567
366020
322290
496980
425933
246415
361931
541485
615904
615048
599760
562691
532313
507758
527913
569839
607142
653748
654244
636881
596810
567958
565957
591512
623013
645046
634192
635274
640941
641954
650472
635583
572677
652057
296221
270762
246980
239633
261170
356649
549062
626448
728588
784825
786098
744272
725795
701337
699423
710233
709515
691762
638128
563261
479086
401978
333650
274281
229127
203674
170003
129966
89578.3
71165.6
237694
177914
198285
222607
243517
260583
273101
282234
287529
288122
279983
261758
235860
263405
291909
241896
240676
243756
254232
268903
282713
292747
296424
297891
305210
329188
378415
444958
514692
571362
618869
654194
687160
711594
732063
744846
752578
749657
737749
708477
653305
562043
445287
434836
402739
351391
376980
381166
373054
364917
368380
386347
418648
461997
517388
577340
638951
692055
737037
758562
775180
760418
754016
748064
743466
779416
787331
822339
826923
825311
783120
699094
562338
585997
499376
476173
518934
554419
582310
602826
615211
618814
618935
626011
642515
671960
718564
779298
812341
792375
717558
604215
482223
377107
308485
267575
278842
307844
401037
511325
681698
796153
673090
592100
494547
418096
539417
668316
757005
783935
762892
709547
635733
556671
486637
424282
382762
344611
368893
370686
417222
480802
571795
684316
839345
948487
846353
592864
386057
328208
334587
356710
372843
480990
411119
282611
289993
303596
330216
373088
425904
479278
536886
597170
660592
723569
775671
819614
835240
858295
855208
809129
804495
757242
713008
706504
709607
706989
711868
722293
723793
624996
447262
527626
359468
216376
258808
344451
452827
581855
670432
625053
485119
351328
251434
183235
136856
108209
92917.2
84296.8
86941.3
104132
137474
196630
289539
407186
524616
656404
699722
562085
374900
260482
288285
505650
411827
435290
589818
716717
779878
777660
723326
643559
564236
454740
404343
345924
312878
322814
342231
387843
476151
562623
700594
812648
838674
712851
539663
401129
322016
298297
316983
340366
339240
456471
590364
724225
838690
853030
793255
714715
618356
526076
445099
409012
387027
428942
511854
586158
698250
821714
872273
823576
709696
584278
495024
438643
417895
406922
396848
384835
356302
310354
267641
401795
420446
245905
346989
573365
721485
607883
404999
243282
139921
77741
56885
42338.6
45707.6
46368
49914.8
122278
174124
298766
572927
781004
805671
663689
525001
450461
405543
396264
408241
404557
377752
492349
460310
478082
684673
629665
418642
203883
124326
64205.8
42708.9
33247.4
42917.3
60414.3
94894.8
149485
242716
379331
532961
639009
653306
615852
571033
545307
530722
524584
524040
519772
491751
427079
350003
516128
463127
334085
507908
582237
574717
584433
587287
588644
594275
606653
609620
616388
622754
611593
623952
618583
629588
617206
609532
603936
608988
612416
610489
611819
621701
639812
633665
626822
594736
709850
360486
303429
245546
256036
379469
556184
654359
722826
776343
784637
773565
759755
755709
725120
733223
721488
722541
704087
681359
632491
559602
467494
378211
303667
198941
125976
101255
85273.5
65768.9
58965.9
256553
199736
221882
244521
259714
268291
272328
276408
281015
286473
288632
283286
267071
290177
310593
262723
248546
246970
259011
274435
286451
291660
294294
303218
326017
372193
441653
519232
579743
610199
623755
630020
636683
644477
656385
668530
680446
695129
705621
703907
678771
616565
512011
493256
418865
376124
372761
349716
325515
321978
346388
395138
455339
521703
590503
653908
703817
734214
750922
754781
758118
754160
752157
744341
747836
775369
779849
802629
812909
820449
799586
749469
645794
663805
526060
525034
535670
546527
557918
570175
582556
597276
618062
650650
695660
744231
790621
821088
798265
724062
640917
562057
511328
448938
389809
361133
335161
359175
376216
449636
570964
741287
764118
681919
618968
480754
606371
725066
775852
768689
734176
701659
675838
649724
618105
582420
548987
533048
516106
544769
556523
570910
605613
649213
731484
871576
927045
755814
506978
339146
314057
360507
395921
496627
439495
300886
294627
304563
339067
394761
456426
521764
593384
670357
739747
796380
825832
847810
837860
856510
840798
861847
834057
845832
833706
808845
770838
753432
733850
721861
724857
699059
554739
588495
383336
240844
301166
387009
520609
649706
632227
489651
371032
304038
271400
259249
259613
256533
243507
235434
222868
220654
226944
252967
302619
379762
464631
560023
669380
655538
499510
333907
289184
507984
442618
524773
676499
766788
784078
750218
706128
662485
606354
551660
513773
470711
442378
406489
435061
435561
512431
535305
650806
722365
843485
815778
673324
510397
371767
299181
325814
357188
346929
463061
703227
846248
858325
792312
710672
660114
580644
506881
484143
457844
443829
434012
485488
558329
610384
698249
806523
850783
802696
684540
566113
469222
401336
373211
383048
401113
388786
335666
275841
406823
440721
274991
449775
692492
634668
422328
261144
158859
112558
86491.3
65727.6
51105.4
39548.4
63380.5
55848.7
86811
157216
188160
363811
626860
815670
780950
626131
491969
421037
413117
438311
442033
401417
498028
499361
672976
652477
368264
187574
81550.4
50719.7
25208.2
18408.2
18933.6
18135.6
25072.3
43813.8
76718.6
129114
212927
338761
498749
608853
640951
604902
548282
513773
521552
548034
558813
539898
477756
376908
528919
507462
438257
576233
560567
570852
597831
637527
688469
726764
735313
746931
726452
691330
633119
566370
545671
537324
559820
564871
582930
585572
586787
597353
606641
607059
630127
629762
626743
620487
748665
395990
316236
274005
374895
531655
653590
714240
770221
790675
793385
793040
813711
785135
796385
777363
766298
735533
719866
693862
669039
619047
531604
417708
324013
221436
109585
72202.4
64025.8
57455.4
53292.2
265809
217653
240993
260591
268472
267710
262956
258974
261915
273505
290955
303015
300748
311574
332708
291780
263523
252137
259317
270521
277456
281240
289141
311496
353575
418482
499835
581802
621820
623153
611873
592484
579924
571111
569492
576873
591878
617325
649833
681143
689391
658191
572806
531201
432643
404251
377762
329842
289030
288018
332205
405646
487709
570231
646271
708784
745432
756913
760130
748495
751348
737709
741366
748909
743537
754473
766145
779536
787737
806202
804830
781319
714153
719197
549049
578553
558748
540010
526460
523791
534163
560678
606139
664477
722453
775637
819098
812686
729760
630931
565031
551935
576482
551904
552367
515335
468522
449096
414254
428104
495682
657088
784193
737293
730939
526731
652795
751350
773097
741204
713043
714207
721391
715498
703129
692679
693693
686649
690630
671212
704274
694017
682025
665700
694292
789074
916516
858408
633635
410247
304066
354642
406951
509940
463945
324541
305807
310425
348377
407945
474911
547914
635455
725079
799854
838281
860961
856734
852808
838264
796657
783865
766277
782012
802863
816464
827699
795295
769178
733900
721669
724013
637573
636236
406036
271180
332801
432676
580353
668389
576212
403120
305679
282643
306183
365637
448205
507133
545289
554150
529436
482578
428742
398289
378104
399014
440066
496942
592643
668709
583320
414405
311089
503927
481959
589826
728069
787381
765067
727813
695702
704927
665098
665865
644313
608262
579565
583423
550983
552774
578072
573732
640755
685387
794697
846914
766509
606325
448308
355672
364459
377382
349550
469341
806559
881433
813601
711872
653913
626822
573759
583408
583430
576119
559343
534402
512738
549889
597838
626991
703911
798648
829135
766447
643541
524143
425259
381771
399416
430733
419437
358888
283678
408939
461209
320977
557386
704635
495992
313253
193639
156048
121503
98928.4
73182.7
72707.6
79818.7
76708.1
111260
97599.3
137476
178891
249262
451867
720574
831786
717954
559282
471457
467716
485494
475360
417037
505986
567198
729466
425217
193810
108236
46236.1
41722.7
19496.2
21814.3
16897.1
21794.5
22644.1
27851.8
44449.4
75219.1
120029
198185
327314
492282
607741
629776
581691
524156
528776
566288
556337
547846
520503
404943
543873
555460
519832
560683
546759
574777
640684
721416
769357
777005
776673
771539
775139
758882
683160
566733
461671
462299
446369
493590
540517
581282
577475
555769
546524
556884
590642
622272
633663
630187
771604
416775
331778
351885
482191
606742
687231
747911
787238
797276
815584
828406
832681
821838
818165
802716
779849
762155
725233
701663
675318
649963
578212
457898
335864
247203
121901
69941.9
61161.4
62517.4
52540.6
269584
231677
255797
270511
271490
263665
249113
236721
235735
255556
289893
322896
335125
330197
352857
320839
280414
255340
254043
260197
265695
270940
286904
322768
381754
458268
547280
622809
639606
619423
592324
556595
522442
493694
478006
480956
503254
540583
591894
651531
692207
689030
624151
551003
443926
427965
389975
322661
264437
261857
321054
412723
510675
603982
684473
741345
767850
768188
761517
745136
730945
707933
693410
689166
697542
708338
724405
746832
759264
787144
805937
801157
764229
755361
563690
628083
586082
535731
492373
470889
479113
516323
581807
665075
734783
771196
796996
775853
656565
538749
507621
562205
618683
625301
630552
615895
589384
529282
477152
418695
442453
578649
753616
746637
808646
552662
680581
765283
754982
715961
707824
720689
732017
745315
758912
771418
764773
777272
782480
792582
787933
782833
777160
707591
700971
726922
873664
901341
725958
500402
334278
348386
409694
521639
490105
350154
321099
317144
352467
410910
478474
559604
656685
760631
829897
849245
851163
880120
850210
827619
749578
667938
621054
624011
670157
741333
795128
813984
793221
750307
727944
727573
690094
668674
429292
306115
357296
470952
621250
686798
539869
340428
255628
247037
314711
460847
609755
693124
726545
733015
733488
727157
659695
588871
493797
453639
446390
468539
528452
621775
617966
476600
343545
500122
548644
628768
761889
785848
743889
696021
711141
706569
715858
743632
738867
719421
716775
690450
716280
636917
695885
618954
677604
674701
750728
846420
812853
667454
499547
401341
393255
388525
346141
477291
905523
860239
756762
645019
622711
612904
611568
660415
653173
642995
647560
656414
630932
584766
590255
613659
643224
719804
798004
803665
704177
572580
459617
409869
431249
460708
444488
372766
288453
413275
483517
381130
648482
635555
406051
248243
164749
171596
113238
161903
191688
220507
223092
195220
167444
188643
134011
178112
225718
314545
600986
824758
771086
609831
519023
510700
519684
496849
424161
519783
673458
564529
263235
132632
79303.2
48948.6
44839.7
30939.8
40583.2
38301.8
39042.4
38645.5
38973.5
42060.7
55979.9
70573.5
119454
207658
361217
520437
617358
613289
545195
537551
572590
535633
531260
548475
450495
570964
592760
559939
525094
530321
598535
697539
756652
769410
739511
696142
697631
737580
780267
731036
596025
439378
391792
384849
421857
526945
574619
565281
496304
432759
449678
539381
612582
637916
629808
774239
424837
355647
419183
534839
628620
705662
766493
796067
804247
840806
829136
809031
780049
756461
755894
773228
765523
740812
699238
677228
653063
608260
490381
348618
257636
148155
82655.9
71233.7
75338
52819.1
270931
241299
265718
275879
273845
260470
236884
212631
209224
238931
291697
341251
366315
341738
372662
350780
302067
260419
246283
246839
250488
258865
283138
331695
405517
487540
580907
643675
640169
611858
575629
523618
468188
411524
373634
374130
416432
475290
546873
628880
694737
710557
661046
546409
455395
443685
405799
331149
255694
242018
307818
412826
522653
622832
706397
758230
775566
773510
763020
737054
707050
644197
591736
565291
583205
621553
661446
703896
733367
771460
804279
812574
793065
768836
562210
660576
610683
541146
471466
425710
422678
469133
554162
654820
727802
750138
757803
739704
615456
474901
477165
565439
622002
605410
508710
538825
616678
581692
518234
422676
400502
519056
708907
710283
846149
563415
693801
765525
752023
696946
673967
682821
710254
746500
747478
712051
665282
631537
654425
704596
772005
792501
811250
742843
726390
696974
838985
908034
782268
571293
387415
355928
411597
540216
513875
375378
339209
326627
354179
405181
470185
553272
655738
769068
847992
834023
842552
869455
855231
833251
730157
585532
476035
461832
533870
640288
742475
800993
800986
774793
735830
716729
720837
681262
454822
340489
379173
492074
638878
716496
557702
293635
211134
211566
305022
495176
646875
695477
633580
604352
662062
734668
744067
718828
594746
522737
468915
457850
488537
587948
634085
512070
370278
502308
650329
652440
777708
787545
709106
680178
694189
704096
738019
751008
693674
648881
629529
676086
729216
717585
751347
688281
702727
713200
730253
843777
828913
690702
513621
409708
392964
384929
346636
505891
1.0089e+06
828397
704503
607499
589195
580703
637244
648811
612857
561416
550504
603281
647121
621170
565570
566394
608031
655331
734616
799963
739609
604909
481850
432601
458864
492242
469569
398213
310762
440338
515171
463918
698159
560523
328460
194550
153655
143308
131142
238054
271755
382790
433929
460407
316221
289839
186043
162858
196331
265957
511611
795520
791967
630120
533218
519963
547345
535119
453219
549776
851504
420506
193975
100745
80769.2
49786.9
85949.1
82016.8
148016
153927
147131
89047.6
68197.8
50050.8
54886.1
51399.2
77731.6
135631
256651
428349
572547
627698
566382
542619
577445
520056
506724
545799
508921
635932
625984
564955
478035
530326
625940
695172
761471
745593
648376
559130
555264
655846
761348
761343
629809
452140
391404
363312
404741
523538
579263
568957
492740
413867
442862
547111
617483
638233
634361
761970
425621
367860
450680
547646
635573
719368
775590
798502
818230
838902
789855
729873
643277
607045
656566
731422
776821
750852
702355
661408
652562
619326
508375
362770
262630
175759
105525
93166.3
94531.2
62865.9
270024
247330
270857
280671
278378
259945
226645
195688
190750
231178
298422
361191
390834
351292
389202
372023
324084
268101
236720
231089
234987
247745
279010
339156
421953
506077
596300
646981
633999
603852
563498
500044
427204
346745
276876
268452
342339
429979
521818
620926
700199
723974
681224
515074
469415
452361
421402
350399
266909
235069
295436
405417
520819
622967
707532
764971
780337
774241
764398
732953
679853
577170
471854
409130
439152
519741
596667
661738
712710
764401
802383
814442
804320
754172
574300
679269
637367
565723
478494
403321
380121
424862
520218
636325
719690
747709
757133
727238
592180
459640
463825
553368
613334
585098
432737
455816
588237
600001
529902
413708
380826
482623
677792
640212
851318
575134
701237
765650
735120
654510
633988
682252
716731
742992
724102
658942
541749
452912
463165
553446
669640
757143
828994
767177
751503
701340
825572
903225
805724
615343
435563
379466
423306
589582
541144
397055
358821
336480
352106
392967
449342
529982
634146
760148
846123
843501
802712
859770
855311
838563
756685
603765
446005
393934
465705
581398
701649
783612
809603
782576
728734
718022
725374
670830
493915
376320
396016
498453
639358
730601
622422
306073
185282
187814
268858
450590
639603
665968
513918
401478
485434
620697
714358
736401
666433
558817
494016
462802
465636
545294
621300
522743
398969
528992
770952
672638
794339
780609
697430
653569
665776
688760
758975
729069
639332
506494
401831
489387
633063
706015
782152
716532
743598
726655
743803
837059
828778
682907
492247
375425
394283
435990
441255
621324
1.13333e+06
809600
670145
581641
537738
541350
656046
629438
583578
466791
370682
474494
618100
647706
614616
548897
539331
625308
718275
780866
758615
622120
492434
449476
495477
548628
553618
518250
461425
530061
598790
608546
708273
480584
256584
161926
112085
107904
129201
231055
346354
473662
461275
491406
450946
352842
209419
181795
170006
240611
482866
765740
795882
630837
526501
561048
664292
701650
661988
678911
1.12355e+06
337196
160695
86511.1
73732.2
65261.7
119967
150104
258373
313311
358118
267371
152210
67088.3
52609.8
42364.5
63385.6
97214.3
183452
351720
524458
627443
583251
545262
580531
531912
487119
534474
541203
733805
641853
546657
443367
508902
598510
713227
773172
711012
579043
446500
427644
572171
740769
765100
676119
490686
419911
401685
438887
529437
591500
587801
560965
538444
556583
599756
629165
640931
642496
743041
436519
356284
453428
541728
635389
727394
771828
808041
821029
812553
733125
618654
477903
437222
558786
698353
767739
762234
698221
660210
642422
621004
513677
369229
264909
201035
141245
135989
137090
109573
266792
248566
273289
285676
283851
257627
220686
191312
193884
239069
311008
373223
401650
376868
432116
444227
410707
405645
361588
295868
241848
221996
222439
236314
272805
338778
427704
509402
594144
636802
624933
597583
556914
495277
420301
334184
254198
241402
323745
423487
524651
630460
708744
725860
684200
539156
497810
513445
443994
449157
431488
375570
296701
246940
286434
388770
503932
607990
697300
758896
781350
781265
768170
733115
671289
554737
422885
311321
338743
452149
556762
635837
702810
764757
801667
808531
800446
781843
640640
652441
642612
675517
646635
592388
517512
437765
393821
419311
505041
617761
706139
725991
746414
761687
633378
494696
469898
538297
610598
626494
541938
533559
606502
599845
502256
416802
384653
480303
660566
683644
698106
753042
548266
594976
701682
750829
716324
648377
640137
642761
668687
725097
727204
673309
557253
447860
423545
486701
609572
717790
820682
783717
761397
729055
823580
905327
802485
630506
475691
426995
454487
474155
613781
615474
534070
466356
414959
371013
359166
379202
422808
494146
597117
723835
835345
856362
798989
829268
861477
848221
800155
695324
563302
493616
512395
600098
700108
780873
808602
778125
744706
708096
734867
680068
618469
646258
508614
422131
413168
490270
622930
733155
692520
375355
201987
180276
230570
380605
590254
685932
590767
472565
487771
589308
685618
717871
681620
585165
514402
473861
455292
559971
625283
521873
487514
558422
741307
789604
562257
682755
804278
785890
676076
641295
634607
661708
748312
738232
676769
553786
427158
451481
586572
695281
778238
736995
773024
731126
771547
836344
826497
658182
470658
466382
586320
685639
754445
800911
886298
1.01552e+06
862397
807909
664308
562588
503076
498718
616853
601639
610944
560188
472194
518408
623293
635355
573004
541270
529324
554314
656635
776222
767364
631498
499057
465472
547852
652493
706661
725200
727564
728108
830108
943565
707973
682384
582100
349406
193671
122823
76302.3
64702.9
100298
141732
241399
377379
469274
511614
399162
345981
176243
162010
152326
231985
460934
768157
795558
650451
575502
683478
832490
857422
855279
871251
958416
1.13036e+06
627724
301508
140687
74664.4
66773.1
64289.4
102407
161494
237509
358619
390875
346954
221338
86033.9
50337.4
45506.6
54334.6
78010.9
157142
299632
487180
620614
598986
540904
583464
555986
481588
518608
539557
480822
605696
603110
604659
534590
411910
473610
603545
707351
760247
711072
589200
475035
462559
588991
735140
765506
694669
533096
477055
485904
479169
557275
593238
605295
606055
610130
616866
623552
628190
633655
637360
642137
582278
518323
397681
365748
441928
543846
632368
723679
772325
808156
808389
790957
686402
546605
387881
389309
555985
702775
775223
757937
690127
649098
639255
617309
503181
363477
265985
219258
186848
192613
185731
174139
106026
46357.1
262176
244997
273969
290540
284964
255007
218043
195811
203820
251891
317696
371747
391186
380676
287434
290478
390612
414676
383871
320753
256712
219943
213049
228172
268362
335907
423333
497688
574188
617211
609188
591153
559385
511987
453799
387476
335484
332518
384627
464399
553965
647553
709806
714880
666964
550771
302019
296851
395172
435395
436464
398092
332922
275965
288241
370862
475112
574457
664279
738006
771923
780851
772977
745865
696162
606890
501532
412640
408699
481368
563474
637886
708869
766391
797802
803111
799918
765209
426157
408082
600305
638410
636219
613960
572973
518198
470170
465177
519813
606127
689109
725180
747486
782032
709432
564631
500141
540695
605527
641783
637835
634250
640007
591656
502106
431439
426616
508943
688736
724010
461257
451489
486053
572978
684585
737887
737896
675334
616563
636159
647683
700656
713317
726021
663806
589996
552771
570828
655800
731503
819857
791829
762651
793540
851554
899015
776321
619473
489781
452028
467609
482806
468889
472828
506963
498270
467286
421306
384475
378027
400981
454686
546765
670019
795753
859108
821066
792255
854614
852525
830058
787728
706882
645897
636524
670786
734338
782538
808601
783816
743090
709107
739022
708548
457638
442370
500957
431543
405739
462674
586484
713104
751850
507968
245479
192398
202020
296636
470234
620839
674650
650844
634928
666198
696855
692746
663900
589780
527187
470831
472742
574729
608769
541578
543485
560608
514344
497363
529992
654977
792958
830225
715053
614683
629622
662241
722697
765676
746259
702700
651388
648967
692517
743507
777496
765190
761982
753542
790791
845105
819173
660481
508489
490152
551690
612540
644955
651103
657825
729161
869132
824376
662426
548769
478753
452269
530149
536214
540349
603406
604614
619559
619210
575595
531445
486580
503896
551056
635964
755683
761216
631748
500668
463064
550158
670254
732265
709641
672148
620437
620283
650250
703328
684796
538664
314815
167109
87219.1
52854.8
44394.7
51318.4
63626.5
88297.3
172739
217082
293605
216336
208877
127504
133593
145051
245569
481477
748282
798426
658557
548593
567968
691618
792464
824060
827603
819751
821804
533875
250012
114541
60934.4
52344.8
42640.4
73219.1
77746.3
131113
162501
210412
209507
120574
71785.8
51616.2
45664.2
52997.6
81892.8
156661
284496
465596
618855
605289
529947
559746
595240
503879
513083
544323
478203
404843
424147
564388
530048
422376
459314
576828
684739
750070
733534
664982
597308
600526
673465
753907
754999
698216
565584
546794
551826
546807
573948
591100
611802
617302
617134
627628
626137
619352
607808
592395
578928
478244
423211
384798
365302
449727
557035
631791
716388
767135
800527
798123
778135
685440
581507
495394
531149
638970
740603
778944
741033
681830
650686
639160
604042
477596
345146
265377
232767
196767
199205
199506
199950
58325.5
38474.6
256272
236422
271030
291640
284465
254536
223133
207779
219549
263172
319067
357774
364143
341421
258311
260909
366786
402980
386693
335080
275877
232101
217585
230639
268780
329843
405150
467408
536873
587898
590228
584025
572461
544143
512913
474466
447116
446660
475849
528307
597095
659775
696703
687804
631590
503104
270370
266958
353032
411494
429458
409526
362857
312720
304795
359669
442068
526922
612706
698505
752082
777284
776109
758765
732399
685048
623740
572563
555198
575259
614960
667534
718663
766418
802728
804366
799079
736477
397473
375834
515172
574328
604654
621078
618684
602210
574231
553999
568554
614121
668747
705341
735738
776220
778349
661740
565843
547339
564536
589041
619203
625661
603146
554986
494652
458220
484060
581506
726642
702863
415006
386898
430817
533060
650776
721027
750534
705944
645689
632289
625076
659241
669679
717464
724046
722402
710530
715384
752658
770108
833763
788331
774355
862029
880389
866377
724363
578582
474962
449865
461930
470364
454767
456504
491425
509379
499965
465850
424720
397253
395272
424329
495048
605655
727243
826362
841828
814010
819999
840460
844549
828447
812589
777072
751912
760487
774291
797622
800793
776030
738651
734048
733368
692143
451215
425484
485249
436935
398053
431332
539132
665136
755282
680479
373724
259481
227183
251970
355586
505878
612068
654752
690008
693844
685167
665116
619400
562167
511982
480642
509619
603008
601245
560346
558739
555966
481891
442539
472751
592119
743146
841112
788014
682242
618662
616915
646276
699371
751167
751312
761973
753850
739398
758935
770934
762921
752830
768516
814474
845869
806835
663389
532966
479199
479951
494906
508624
522617
573308
695272
860603
858638
707652
557555
474493
417323
426430
423485
421187
422986
464843
462611
484438
442872
454915
453938
474174
538458
659474
765852
754605
624114
491565
435115
482584
577053
657763
708330
715392
713836
702107
692299
683574
687152
564976
330316
150344
68295
45829.1
27870.6
27226.2
22353.4
34164
39690.9
57103.9
78889.1
77825.5
97932
80223.6
124708
151464
283205
516495
756575
785779