/*--------------------------------*- C++ -*----------------------------------*\
| =========                 |                                                 |
| \\      /  F ield         | OpenFOAM: The Open Source CFD Toolbox           |
|  \\    /   O peration     | Version:  2.1.1                                 |
|   \\  /    A nd           | Web:      www.OpenFOAM.org                      |
|    \\/     M anipulation  |                                                 |
\*---------------------------------------------------------------------------*/
FoamFile
{
    version     2.0;
    format      ascii;
    class       volScalarField;
    location    "0.006650000";
    object      rho;
}
// * * * * * * * * * * * * * * * * * * * * * * * * * * * * * * * * * * * * * //

dimensions      [1 -3 0 0 0 0 0];

internalField   nonuniform List<scalar> 
12384
(
0.812676
0.818966
0.819176
0.820461
0.818178
0.81798
0.815476
0.814523
0.812123
0.810458
0.809605
0.808987
0.808162
0.799268
0.915227
0.901425
0.896603
0.897247
0.900561
0.904742
0.905376
0.905231
0.903277
0.900464
0.89691
0.892796
0.889176
0.886057
0.881429
0.875919
0.872059
0.866402
0.865225
0.862684
0.865874
0.866579
0.870635
0.8767
0.884673
0.8925
0.901618
0.912544
0.952297
0.995208
0.856205
0.840769
0.83863
0.83815
0.838716
0.836654
0.837025
0.835434
0.834376
0.833266
0.831982
0.830554
0.829275
0.827216
0.826916
0.822447
0.823394
0.818487
0.819329
0.822077
0.81846
0.827398
0.828794
0.837312
0.838132
0.848346
0.852214
0.857759
0.861085
0.860955
0.855742
0.859498
0.860987
0.860463
0.859139
0.859069
0.856849
0.858344
0.858928
0.858322
0.859171
0.860809
0.861279
0.861139
0.859966
0.856773
0.852024
0.845308
0.837943
0.830226
0.827568
0.823562
0.831081
0.832717
0.842407
0.846303
0.850118
0.850126
0.847845
0.847016
0.817453
0.817165
0.824711
0.826006
0.831037
0.834566
0.837606
0.838179
0.838395
0.836762
0.834106
0.831817
0.832283
0.828711
0.840744
0.836028
0.85419
0.858832
0.869055
0.872547
0.874188
0.87789
0.885855
0.88297
0.88265
0.881084
0.880605
0.881831
0.884701
0.887697
0.881851
0.885156
0.890597
0.891968
0.890971
0.887396
0.885528
0.880009
0.879659
0.875333
0.87524
0.868524
0.868719
0.855383
0.856669
0.836223
0.841109
0.816052
0.815806
0.813871
0.800807
0.804802
0.806595
0.807516
0.808997
0.810325
0.808771
0.804099
0.803469
0.801921
0.876415
0.875131
0.871785
0.86359
0.863451
0.860457
0.859936
0.859878
0.860292
0.860006
0.858582
0.856265
0.85355
0.850992
0.850039
0.852136
0.855766
0.86094
0.869928
0.878977
0.887176
0.89398
0.898107
0.902964
0.94735
0.990018
0.991881
0.988763
0.98616
0.985126
0.855972
0.844852
0.833119
0.827012
0.824179
0.822071
0.820448
0.817268
0.81451
0.809323
0.809307
0.803167
0.80231
0.80856
0.804023
0.818913
0.815828
0.827497
0.824961
0.83203
0.833944
0.853818
0.85311
0.858562
0.855592
0.861742
0.862072
0.863265
0.863047
0.863045
0.850308
0.84897
0.849618
0.849329
0.847174
0.84295
0.839519
0.835888
0.833733
0.833086
0.836206
0.836638
0.839598
0.84586
0.847888
0.847393
0.845719
0.838091
0.831655
0.82933
0.828946
0.822952
0.819879
0.819946
0.814387
0.809567
0.811576
0.806006
0.805677
0.803739
0.819694
0.808721
0.805187
0.805917
0.807562
0.808582
0.810676
0.804478
0.809676
0.801266
0.800945
0.800807
0.809332
0.804061
0.824538
0.819906
0.835472
0.833355
0.841889
0.837784
0.844313
0.842829
0.84853
0.848587
0.853983
0.8552
0.856163
0.856335
0.856367
0.856646
0.802027
0.800139
0.796144
0.789912
0.789655
0.779744
0.782802
0.77348
0.778794
0.778941
0.77999
0.787121
0.789682
0.792078
0.794432
0.794599
0.793171
0.790318
0.786505
0.783123
0.779279
0.779285
0.777751
0.778456
0.777095
0.777739
0.77301
0.774585
0.768097
0.771892
0.829569
0.83592
0.836167
0.8276
0.81565
0.809841
0.803184
0.799081
0.795261
0.79355
0.792991
0.791023
0.798078
0.796762
0.802265
0.802605
0.805941
0.806618
0.809456
0.810092
0.813562
0.813553
0.819116
0.819371
0.827864
0.829609
0.836367
0.83815
0.838527
0.836623
0.829709
0.829061
0.828971
0.83518
0.848566
0.886518
0.94946
0.824456
0.779905
0.779332
0.778459
0.767583
0.769257
0.75787
0.760358
0.753863
0.756518
0.754753
0.756998
0.755944
0.760023
0.758711
0.765668
0.762394
0.759964
0.747604
0.736397
0.724458
0.714151
0.732654
0.837435
0.837073
0.835061
0.838149
0.837766
0.838497
0.834356
0.83066
0.822367
0.815542
0.80801
0.805728
0.806242
0.800533
0.913312
0.896236
0.893788
0.89931
0.905052
0.906519
0.90432
0.899951
0.895711
0.893428
0.892296
0.890364
0.885494
0.878572
0.871249
0.863831
0.858425
0.853782
0.850259
0.84995
0.848105
0.847876
0.851754
0.856089
0.863886
0.874827
0.889466
0.903246
0.931043
0.969119
0.855254
0.840439
0.839311
0.838471
0.839214
0.836562
0.834416
0.831827
0.830177
0.82834
0.826925
0.8256
0.825295
0.823982
0.82411
0.82077
0.821656
0.818169
0.818394
0.820046
0.817689
0.822769
0.82451
0.832792
0.833893
0.844259
0.850294
0.855794
0.859212
0.862978
0.855437
0.85993
0.86027
0.857872
0.855205
0.853423
0.852966
0.850273
0.851575
0.853033
0.853207
0.85406
0.855359
0.854851
0.853834
0.851985
0.848726
0.843244
0.836841
0.830577
0.826966
0.82273
0.825551
0.830079
0.837819
0.843738
0.848852
0.851512
0.850693
0.84897
0.816906
0.816567
0.822741
0.826138
0.832149
0.83626
0.839643
0.841243
0.84053
0.838425
0.836051
0.834644
0.832014
0.836934
0.837172
0.844575
0.853374
0.859782
0.867229
0.873238
0.875412
0.876403
0.880144
0.882991
0.878646
0.874809
0.8736
0.874819
0.874142
0.876064
0.880756
0.885043
0.892064
0.892448
0.888402
0.882296
0.879748
0.87526
0.874878
0.874244
0.869784
0.869287
0.862559
0.855693
0.848663
0.84004
0.823648
0.823809
0.809086
0.799717
0.803146
0.796556
0.798684
0.802719
0.805571
0.808734
0.809394
0.807684
0.804641
0.802141
0.875224
0.867201
0.857571
0.853984
0.849048
0.846065
0.848722
0.853777
0.857684
0.859856
0.859694
0.857781
0.854638
0.851696
0.849864
0.850641
0.853262
0.858314
0.864599
0.871844
0.879849
0.887279
0.893787
0.898674
0.914845
0.959667
0.991249
0.975621
0.960147
0.967246
0.837144
0.819938
0.81394
0.812781
0.812949
0.812761
0.811136
0.808022
0.805209
0.802448
0.796423
0.798308
0.797057
0.795628
0.801999
0.805372
0.811503
0.820797
0.823121
0.831345
0.831255
0.845301
0.853513
0.857442
0.857843
0.864214
0.865591
0.86444
0.860002
0.856437
0.84795
0.849177
0.849426
0.848533
0.845568
0.842107
0.840231
0.836312
0.834148
0.831841
0.832618
0.838643
0.840649
0.842597
0.84711
0.848333
0.846282
0.840774
0.832374
0.828954
0.828308
0.824677
0.820164
0.817685
0.812826
0.809985
0.804188
0.806136
0.804546
0.80658
0.821622
0.811332
0.806278
0.808361
0.811848
0.814211
0.81507
0.813459
0.812071
0.807358
0.809733
0.810551
0.810063
0.813014
0.820286
0.829045
0.833199
0.837579
0.847684
0.840862
0.843987
0.845196
0.849928
0.852087
0.856828
0.857754
0.857487
0.854601
0.851098
0.852296
0.804377
0.800509
0.797258
0.790552
0.788851
0.780935
0.78486
0.776978
0.780521
0.781168
0.783761
0.787279
0.790721
0.794702
0.796867
0.797197
0.795281
0.791643
0.786482
0.78229
0.777467
0.779033
0.777963
0.779884
0.779815
0.779071
0.775526
0.775632
0.768868
0.769958
0.816571
0.824922
0.824619
0.818612
0.810236
0.802885
0.795738
0.789874
0.786419
0.783064
0.785176
0.787852
0.789168
0.795203
0.796995
0.801246
0.802551
0.805193
0.806165
0.808864
0.809337
0.812689
0.812386
0.816135
0.822358
0.825882
0.831653
0.83673
0.838297
0.837111
0.82527
0.821727
0.814368
0.814367
0.834891
0.897989
0.851536
0.79226
0.778127
0.77312
0.767947
0.75656
0.753593
0.74734
0.744503
0.744029
0.742627
0.744443
0.743557
0.744285
0.743332
0.74663
0.755712
0.768614
0.761262
0.749817
0.729891
0.719248
0.713341
0.737204
0.841529
0.843364
0.853904
0.86064
0.857003
0.852985
0.847567
0.844642
0.84127
0.832057
0.819088
0.806604
0.804585
0.800014
0.915519
0.895591
0.895602
0.90511
0.909761
0.907628
0.902332
0.901863
0.905199
0.909515
0.906376
0.899655
0.889574
0.87869
0.871995
0.865276
0.864935
0.860746
0.861438
0.858524
0.8582
0.854733
0.853705
0.852996
0.85535
0.861862
0.874904
0.891741
0.915467
0.950478
0.854066
0.840191
0.839305
0.840107
0.840082
0.83612
0.831172
0.826914
0.82589
0.826158
0.82542
0.825498
0.826511
0.826333
0.828017
0.824211
0.827194
0.823184
0.824428
0.824249
0.821988
0.828498
0.824789
0.832552
0.832285
0.840483
0.846433
0.852525
0.858038
0.862573
0.853536
0.857932
0.856792
0.853577
0.851146
0.849462
0.848161
0.848065
0.845769
0.848438
0.851389
0.85193
0.852736
0.851989
0.852416
0.852031
0.84976
0.844706
0.839242
0.833408
0.829107
0.825195
0.828362
0.829096
0.83622
0.840454
0.84653
0.849942
0.851385
0.850201
0.817449
0.816291
0.824846
0.828626
0.833132
0.836415
0.838399
0.837965
0.835591
0.832767
0.830749
0.828281
0.829418
0.827165
0.836527
0.839064
0.84729
0.854983
0.863568
0.869416
0.873422
0.874441
0.87599
0.879406
0.878782
0.87696
0.877579
0.875369
0.871306
0.86847
0.878104
0.88427
0.89183
0.889808
0.883406
0.877562
0.876608
0.874397
0.876069
0.871785
0.87141
0.866282
0.861075
0.855765
0.839533
0.837478
0.822336
0.807343
0.806597
0.79508
0.790252
0.791712
0.793978
0.795998
0.800029
0.804124
0.807416
0.808442
0.806531
0.803393
0.871433
0.856931
0.85422
0.843393
0.839403
0.844649
0.852665
0.860469
0.864252
0.865289
0.86333
0.858817
0.853109
0.848305
0.846135
0.845852
0.848542
0.853919
0.86014
0.866598
0.87364
0.880487
0.887163
0.892499
0.898632
0.923284
0.969674
0.972259
0.941313
0.943612
0.81371
0.811671
0.810429
0.8123
0.812201
0.810639
0.80727
0.803309
0.800039
0.791942
0.791778
0.787874
0.784854
0.789964
0.79116
0.796903
0.805335
0.810665
0.820378
0.824647
0.829186
0.837671
0.847934
0.858102
0.859955
0.866346
0.867136
0.865738
0.860551
0.853719
0.848306
0.849311
0.848415
0.846415
0.842963
0.841911
0.836419
0.832799
0.828998
0.830128
0.828911
0.831824
0.838746
0.840428
0.842285
0.844888
0.843856
0.840433
0.83354
0.828036
0.825015
0.823196
0.820301
0.818154
0.811298
0.809193
0.800934
0.798594
0.798118
0.805463
0.826138
0.813412
0.809972
0.813147
0.817579
0.818692
0.819032
0.8154
0.812928
0.807888
0.808942
0.807504
0.813255
0.817376
0.813144
0.831898
0.835533
0.835442
0.846367
0.84555
0.842747
0.843621
0.850629
0.852161
0.855823
0.858693
0.859337
0.853528
0.846243
0.845222
0.805332
0.798124
0.795515
0.792396
0.795441
0.784593
0.78973
0.782229
0.78211
0.77997
0.785049
0.788764
0.792997
0.795472
0.797383
0.797722
0.79605
0.792765
0.788031
0.781813
0.778537
0.779
0.77791
0.781504
0.779774
0.780232
0.776437
0.775866
0.770283
0.770235
0.812642
0.818163
0.816329
0.810441
0.802352
0.794172
0.786569
0.782191
0.779284
0.779168
0.777873
0.780614
0.786472
0.79043
0.798488
0.800591
0.805025
0.806736
0.810728
0.81204
0.814431
0.815477
0.817661
0.819041
0.819548
0.826315
0.8283
0.832896
0.836379
0.835926
0.832261
0.831881
0.827488
0.825357
0.860352
0.858293
0.803542
0.777275
0.771318
0.764831
0.756702
0.750552
0.746663
0.739321
0.740903
0.737296
0.739898
0.739467
0.742073
0.740944
0.740387
0.738
0.741858
0.762009
0.764303
0.74704
0.722801
0.716303
0.714237
0.749147
0.847912
0.866587
0.873104
0.866057
0.848008
0.835987
0.828943
0.831865
0.836072
0.839412
0.830889
0.815325
0.805274
0.801374
0.911763
0.891072
0.894943
0.906692
0.910825
0.909643
0.912827
0.919135
0.922552
0.917758
0.901954
0.884518
0.875702
0.868458
0.867789
0.868003
0.870897
0.870966
0.869407
0.867297
0.866678
0.86683
0.863361
0.859332
0.856039
0.857511
0.865379
0.880749
0.904169
0.938397
0.853858
0.839999
0.839697
0.841098
0.839489
0.831711
0.826189
0.822378
0.822078
0.824382
0.825324
0.826241
0.828064
0.828717
0.831235
0.830263
0.829917
0.828015
0.827898
0.826895
0.826099
0.833109
0.829772
0.832982
0.832852
0.839014
0.842602
0.849458
0.855422
0.860727
0.85183
0.854981
0.853172
0.850048
0.847039
0.843957
0.841045
0.841764
0.843768
0.843259
0.846065
0.848975
0.848953
0.84753
0.849505
0.850441
0.84835
0.843102
0.840115
0.833298
0.82816
0.828372
0.827725
0.833105
0.832818
0.838365
0.843443
0.848137
0.850566
0.850369
0.817085
0.820211
0.826033
0.829602
0.832413
0.83427
0.833882
0.832468
0.830863
0.828971
0.827189
0.826452
0.825127
0.828838
0.826944
0.835605
0.841078
0.846945
0.855595
0.863627
0.86939
0.8718
0.873101
0.875632
0.876686
0.878085
0.884544
0.882311
0.873405
0.865834
0.878416
0.884434
0.890139
0.88562
0.878103
0.875309
0.873934
0.875259
0.871601
0.870918
0.866357
0.86412
0.855581
0.850737
0.833593
0.830279
0.805742
0.804682
0.782959
0.786135
0.781606
0.781959
0.782623
0.789142
0.794665
0.800093
0.80482
0.807672
0.808233
0.806411
0.86616
0.851241
0.849841
0.832681
0.836167
0.847442
0.857884
0.862225
0.865136
0.864249
0.859096
0.851773
0.845237
0.839146
0.834473
0.834353
0.83588
0.841645
0.849378
0.858425
0.865976
0.873116
0.880061
0.886394
0.891568
0.904449
0.936948
0.960543
0.936424
0.930897
0.811939
0.8109
0.813166
0.812368
0.811773
0.80737
0.803148
0.797527
0.790311
0.785143
0.781456
0.77843
0.779845
0.775734
0.78354
0.78562
0.798132
0.80071
0.815841
0.817437
0.829018
0.830679
0.843015
0.853504
0.860777
0.864891
0.865368
0.861737
0.85637
0.852534
0.848026
0.84817
0.846601
0.843675
0.840532
0.839829
0.833523
0.828361
0.83044
0.829859
0.831381
0.829479
0.832621
0.839373
0.839782
0.839268
0.840174
0.839355
0.834116
0.825796
0.822062
0.821397
0.817882
0.814301
0.811134
0.803525
0.79847
0.792661
0.794074
0.800147
0.827365
0.811225
0.81349
0.819175
0.821343
0.822134
0.81917
0.814003
0.814355
0.81339
0.810938
0.810757
0.806001
0.819889
0.816691
0.8237
0.838131
0.836028
0.841701
0.848607
0.845912
0.841237
0.847675
0.851056
0.853227
0.856501
0.855846
0.848674
0.842215
0.840785
0.796852
0.799826
0.800526
0.798172
0.799472
0.788399
0.791518
0.785204
0.784022
0.786724
0.783954
0.786068
0.790879
0.795552
0.798121
0.799089
0.797398
0.794435
0.789279
0.78381
0.779163
0.778615
0.778671
0.780991
0.779719
0.780207
0.77537
0.775573
0.771008
0.769076
0.808082
0.81261
0.810208
0.803645
0.794352
0.784986
0.779406
0.775604
0.771792
0.766991
0.769881
0.771339
0.777364
0.784931
0.792084
0.800248
0.802552
0.809127
0.811948
0.81505
0.815352
0.815899
0.818264
0.822435
0.819593
0.825121
0.827405
0.829423
0.833066
0.834676
0.832417
0.836175
0.845261
0.852768
0.847635
0.81457
0.78018
0.769874
0.765253
0.756051
0.749699
0.747743
0.736707
0.739537
0.734015
0.7351
0.732809
0.736542
0.737114
0.740326
0.739606
0.739047
0.733587
0.749026
0.769321
0.754311
0.726049
0.717869
0.723421
0.771781
0.868639
0.882766
0.873557
0.845264
0.821924
0.813237
0.811312
0.813856
0.822829
0.833833
0.836491
0.821316
0.807207
0.800152
0.917331
0.893704
0.899828
0.913927
0.918977
0.920421
0.9238
0.927944
0.925025
0.900687
0.874446
0.859886
0.858779
0.864066
0.869581
0.873264
0.877609
0.872517
0.870878
0.867515
0.86433
0.864647
0.865773
0.865379
0.859561
0.856897
0.859892
0.873407
0.895979
0.930036
0.855385
0.83988
0.839116
0.841253
0.838375
0.829488
0.822111
0.819984
0.821254
0.823549
0.825237
0.827435
0.829245
0.83152
0.833813
0.828862
0.830274
0.82352
0.825058
0.827666
0.825581
0.829928
0.832887
0.838182
0.832888
0.838256
0.840309
0.846201
0.852667
0.858306
0.845997
0.8509
0.85041
0.845619
0.839061
0.834601
0.832438
0.832916
0.837496
0.841409
0.840216
0.842461
0.846422
0.845696
0.845795
0.847391
0.844811
0.841785
0.839562
0.829325
0.831295
0.827765
0.828327
0.832817
0.833138
0.836219
0.840212
0.845227
0.848266
0.8486
0.819137
0.822585
0.827997
0.827726
0.829178
0.830093
0.829876
0.82881
0.826725
0.823291
0.820787
0.819
0.820602
0.819924
0.825999
0.824083
0.834447
0.839441
0.847449
0.854286
0.864781
0.868794
0.871294
0.873149
0.875404
0.878475
0.886421
0.887006
0.879297
0.870603
0.872834
0.88163
0.886996
0.881148
0.875196
0.872506
0.873287
0.869638
0.869329
0.864548
0.864468
0.858337
0.853137
0.84091
0.829852
0.815809
0.793654
0.791028
0.770354
0.770548
0.764939
0.766725
0.777034
0.780892
0.789401
0.795636
0.801488
0.806834
0.810019
0.806578
0.861888
0.847552
0.837063
0.829093
0.837717
0.845753
0.855769
0.861187
0.863262
0.860277
0.853057
0.844489
0.836605
0.828321
0.824433
0.823119
0.824448
0.828377
0.835036
0.847238
0.8567
0.865721
0.873122
0.88048
0.886393
0.894763
0.914978
0.939358
0.926334
0.913998
0.812249
0.813276
0.812699
0.813942
0.810222
0.805437
0.798435
0.793279
0.781173
0.777878
0.771395
0.767867
0.764253
0.772279
0.770987
0.778554
0.788064
0.793461
0.808329
0.814028
0.824259
0.829494
0.836823
0.85041
0.857877
0.862512
0.862289
0.856051
0.850311
0.848539
0.847423
0.846632
0.844789
0.840357
0.839307
0.83623
0.827724
0.829749
0.826519
0.826806
0.827657
0.829214
0.827264
0.831266
0.837227
0.83589
0.834561
0.834754
0.833211
0.825885
0.820382
0.817759
0.814165
0.812152
0.805763
0.79859
0.793734
0.793223
0.788459
0.793391
0.828081
0.811747
0.818837
0.823862
0.824686
0.822315
0.81806
0.819062
0.814564
0.809422
0.803213
0.803358
0.81008
0.807818
0.820629
0.82254
0.827875
0.840025
0.839277
0.847152
0.846064
0.841915
0.844498
0.848381
0.852304
0.852757
0.844124
0.838248
0.835696
0.837064
0.799266
0.804923
0.808389
0.802006
0.802647
0.785506
0.796393
0.779726
0.787767
0.782798
0.790208
0.79032
0.790001
0.793037
0.797279
0.799003
0.799016
0.795357
0.791997
0.785691
0.779321
0.780054
0.778688
0.780373
0.781031
0.77862
0.77545
0.775027
0.770421
0.769775
0.806789
0.80983
0.805736
0.796612
0.785793
0.778875
0.773699
0.76565
0.757592
0.756415
0.755732
0.760599
0.76808
0.775935
0.7877
0.794497
0.803192
0.807822
0.813262
0.812737
0.815348
0.818252
0.818758
0.823445
0.823242
0.822915
0.82556
0.828266
0.829529
0.832173
0.830252
0.837912
0.85361
0.844132
0.818757
0.786611
0.769726
0.765521
0.756779
0.751996
0.745625
0.740137
0.737516
0.735753
0.733133
0.729775
0.731671
0.729516
0.733557
0.735925
0.73962
0.737906
0.735204
0.735754
0.76846
0.766844
0.740159
0.730784
0.747315
0.800544
0.885697
0.886946
0.854206
0.822176
0.808774
0.810206
0.809287
0.812331
0.816576
0.829807
0.836494
0.828119
0.809763
0.80223
0.914689
0.88992
0.895734
0.913545
0.922849
0.92815
0.933862
0.932228
0.909126
0.871813
0.84966
0.846833
0.854132
0.863655
0.877623
0.879845
0.878491
0.868591
0.861724
0.855993
0.856282
0.856846
0.860199
0.863539
0.861851
0.857598
0.857957
0.8684
0.890181
0.92433
0.856492
0.841942
0.839208
0.840356
0.839542
0.830119
0.822716
0.820363
0.820659
0.822487
0.825222
0.828041
0.831379
0.833165
0.833283
0.828162
0.826774
0.823163
0.823102
0.822661
0.82706
0.828855
0.829664
0.840921
0.835453
0.836277
0.839243
0.843984
0.849824
0.8557
0.847422
0.851898
0.847657
0.837008
0.829395
0.82846
0.832071
0.832179
0.830096
0.834675
0.840466
0.839308
0.838369
0.840029
0.841967
0.843112
0.84188
0.841244
0.834492
0.826488
0.82977
0.825655
0.826874
0.828232
0.834312
0.834558
0.837243
0.842262
0.845252
0.845437
0.820808
0.825121
0.826948
0.826562
0.825775
0.827638
0.827489
0.824368
0.821671
0.82209
0.823919
0.824358
0.820667
0.82406
0.824605
0.829525
0.830895
0.833613
0.846747
0.845917
0.861692
0.862928
0.869264
0.870114
0.870401
0.874764
0.883732
0.886702
0.885308
0.875512
0.874434
0.880198
0.885406
0.877786
0.870717
0.870972
0.869237
0.867398
0.860162
0.860738
0.858379
0.85441
0.846625
0.842166
0.817315
0.811622
0.79022
0.772675
0.765013
0.758962
0.752633
0.760261
0.766316
0.774961
0.78486
0.7914
0.799499
0.80709
0.808951
0.808813
0.858931
0.844345
0.826205
0.825027
0.834386
0.841578
0.849918
0.858508
0.861815
0.856221
0.848656
0.841159
0.830107
0.820286
0.813125
0.808724
0.81031
0.819244
0.823792
0.837906
0.847238
0.85857
0.866692
0.874764
0.881221
0.885328
0.899437
0.916723
0.917633
0.908987
0.81351
0.813826
0.815542
0.813605
0.810755
0.802317
0.798369
0.784064
0.777445
0.773267
0.766865
0.761152
0.763136
0.759447
0.770535
0.766599
0.785951
0.784734
0.803981
0.810283
0.819117
0.829311
0.833276
0.847473
0.853168
0.859579
0.85549
0.849714
0.843947
0.845687
0.846382
0.844831
0.84358
0.838582
0.839065
0.832796
0.827689
0.830866
0.825794
0.822427
0.824668
0.830043
0.832733
0.828862
0.83078
0.834736
0.833305
0.830816
0.830012
0.826178
0.817197
0.814058
0.812381
0.806109
0.799247
0.792246
0.794857
0.787975
0.785308
0.789528
0.826256
0.817391
0.824771
0.827371
0.826761
0.821819
0.820336
0.823541
0.807942
0.815678
0.811769
0.811814
0.808786
0.813252
0.807842
0.829401
0.817795
0.83755
0.842358
0.843565
0.844927
0.843268
0.844718
0.846499
0.851658
0.841768
0.831432
0.829016
0.828875
0.830419
0.810187
0.81118
0.812307
0.804182
0.804692
0.789392
0.795128
0.784252
0.788365
0.787584
0.787235
0.789676
0.793356
0.793833
0.797947
0.796859
0.799385
0.798032
0.793469
0.788024
0.781046
0.780477
0.779506
0.779627
0.780459
0.779345
0.77552
0.775113
0.770767
0.770336
0.799567
0.804651
0.800269
0.789691
0.781229
0.774111
0.762933
0.754328
0.752803
0.749298
0.752941
0.75182
0.760935
0.766819
0.781935
0.791163
0.798426
0.808216
0.811337
0.812788
0.812813
0.817452
0.821609
0.822932
0.825961
0.823589
0.822537
0.825452
0.828292
0.82945
0.821387
0.832413
0.842223
0.823084
0.792009
0.771468
0.765171
0.760781
0.750469
0.751522
0.739618
0.740434
0.739191
0.734899
0.731386
0.732248
0.727057
0.728117
0.72872
0.733853
0.736894
0.739057
0.734873
0.730202
0.757772
0.778438
0.7638
0.755735
0.781343
0.844038
0.893065
0.87847
0.83367
0.812167
0.814495
0.820238
0.819735
0.815243
0.819317
0.828069
0.838444
0.829106
0.81297
0.802843
0.921728
0.895427
0.899453
0.919298
0.930858
0.934627
0.934541
0.921113
0.884088
0.850194
0.840502
0.841859
0.856468
0.869681
0.883809
0.882123
0.874067
0.857342
0.850275
0.840549
0.841353
0.846081
0.853273
0.857417
0.860864
0.856991
0.85697
0.865637
0.886555
0.919915
0.860393
0.843289
0.838471
0.839451
0.838484
0.832079
0.82302
0.82
0.821913
0.826024
0.828162
0.828239
0.833175
0.834807
0.832712
0.826369
0.828703
0.821104
0.824409
0.821951
0.827067
0.829414
0.827877
0.83974
0.837523
0.835175
0.837577
0.842429
0.847674
0.852551
0.8421
0.847384
0.842288
0.834213
0.828783
0.825532
0.822043
0.825721
0.830784
0.831303
0.833299
0.835663
0.834599
0.834962
0.83846
0.83912
0.840515
0.83876
0.828806
0.830517
0.831383
0.82766
0.82918
0.825626
0.833979
0.835021
0.834374
0.839541
0.842423
0.842175
0.821981
0.827287
0.82476
0.823441
0.825833
0.824559
0.820122
0.816192
0.817102
0.819614
0.817201
0.809699
0.809541
0.805364
0.81295
0.811533
0.827976
0.824491
0.841833
0.838436
0.860264
0.857357
0.867837
0.867129
0.870298
0.872377
0.879245
0.886593
0.88793
0.87677
0.868327
0.876802
0.881789
0.874852
0.86919
0.867948
0.866204
0.860905
0.850298
0.848946
0.854864
0.848849
0.846936
0.838323
0.81526
0.806545
0.787394
0.763523
0.764104
0.753859
0.747595
0.752636
0.763733
0.771684
0.779836
0.790865
0.799929
0.804996
0.810843
0.808675
0.854256
0.838282
0.821937
0.819968
0.82534
0.834589
0.845522
0.854834
0.858636
0.854172
0.848133
0.838396
0.822662
0.817072
0.809672
0.805895
0.80436
0.8124
0.814211
0.832724
0.839122
0.853647
0.86196
0.870981
0.878754
0.884571
0.894955
0.905869
0.903847
0.896382
0.816869
0.812711
0.814682
0.81574
0.809278
0.804159
0.794671
0.780812
0.775806
0.771019
0.758365
0.759732
0.754498
0.758483
0.762722
0.764283
0.779442
0.783248
0.797296
0.811888
0.815416
0.829749
0.831584
0.844408
0.850746
0.855434
0.850038
0.842057
0.8416
0.841398
0.84505
0.843566
0.842405
0.839339
0.835916
0.828347
0.828883
0.825498
0.820008
0.820917
0.818755
0.818182
0.822698
0.825258
0.82244
0.824722
0.829279
0.828154
0.825849
0.823515
0.816075
0.813065
0.80781
0.801014
0.794411
0.795539
0.791657
0.792791
0.787819
0.786453
0.824243
0.821547
0.828106
0.828804
0.825563
0.822228
0.824704
0.817521
0.810351
0.813479
0.800816
0.799838
0.798576
0.814156
0.803785
0.826232
0.818721
0.833423
0.838308
0.844725
0.84436
0.843716
0.845702
0.848211
0.846631
0.827697
0.825931
0.82693
0.825998
0.824364
0.816947
0.817258
0.814948
0.803981
0.812164
0.790156
0.809729
0.792587
0.806158
0.798901
0.799331
0.790154
0.794173
0.792252
0.800104
0.796772
0.799459
0.799018
0.795804
0.789894
0.782664
0.780534
0.780501
0.77911
0.780173
0.779579
0.776457
0.775956
0.772189
0.772256
0.799807
0.802375
0.796334
0.787731
0.777055
0.764452
0.757886
0.755182
0.749446
0.749599
0.747952
0.751147
0.7563
0.762012
0.775782
0.787542
0.797319
0.806893
0.811698
0.812804
0.811839
0.81486
0.820293
0.822015
0.821944
0.823135
0.820725
0.821783
0.826849
0.829233
0.810049
0.818278
0.825051
0.802843
0.778042
0.765051
0.761547
0.756102
0.748343
0.748281
0.73682
0.745973
0.73435
0.734251
0.734808
0.730627
0.73054
0.726171
0.726891
0.729252
0.736074
0.737076
0.735042
0.73008
0.747464
0.787397
0.780785
0.784352
0.812793
0.930197
0.894813
0.862943
0.820267
0.818464
0.830315
0.838688
0.828558
0.819294
0.819842
0.832902
0.839082
0.831573
0.81276
0.803442
0.920658
0.893465
0.889794
0.910888
0.927662
0.933577
0.929588
0.902822
0.862923
0.841794
0.840355
0.843245
0.858114
0.877571
0.888337
0.880557
0.870528
0.849038
0.840397
0.831438
0.830736
0.835499
0.845469
0.851962
0.857737
0.855935
0.856068
0.865315
0.885746
0.917451
0.8624
0.849375
0.84114
0.839049
0.840438
0.836942
0.827225
0.823199
0.824817
0.826773
0.827541
0.830871
0.834755
0.834649
0.833496
0.827706
0.829218
0.823979
0.825138
0.823676
0.825498
0.827831
0.830309
0.837776
0.836902
0.836867
0.836832
0.840937
0.846505
0.850244
0.843172
0.845058
0.845678
0.838222
0.827464
0.820035
0.817953
0.816642
0.819903
0.826878
0.831816
0.835865
0.836294
0.832147
0.832718
0.837688
0.838397
0.836206
0.82781
0.835287
0.832299
0.831379
0.832631
0.826982
0.834686
0.833914
0.834405
0.837229
0.84002
0.839402
0.825194
0.829915
0.826004
0.822833
0.81945
0.817231
0.816256
0.818166
0.818066
0.817924
0.812569
0.812653
0.807629
0.809003
0.807868
0.809735
0.822433
0.8187
0.844043
0.832898
0.859619
0.855363
0.86675
0.864972
0.867032
0.870707
0.874688
0.883988
0.885353
0.877984
0.869925
0.873685
0.881048
0.872071
0.866451
0.865886
0.861031
0.854825
0.836773
0.839044
0.845584
0.849981
0.840112
0.840915
0.816139
0.799442
0.791063
0.76731
0.759834
0.755742
0.749195
0.751551
0.763426
0.768977
0.780171
0.790975
0.797005
0.806901
0.810161
0.809859
0.852122
0.834665
0.817622
0.816613
0.817887
0.824123
0.838475
0.853144
0.856476
0.854342
0.848562
0.83764
0.823902
0.818896
0.808093
0.804205
0.804368
0.812051
0.814702
0.827584
0.839541
0.849313
0.858861
0.868289
0.875672
0.878336
0.884194
0.891122
0.894551
0.883239
0.814798
0.814646
0.815429
0.814514
0.812508
0.803878
0.793935
0.780157
0.779562
0.765901
0.761115
0.758548
0.755
0.75627
0.763622
0.759793
0.780067
0.780603
0.796593
0.810083
0.815861
0.828839
0.83181
0.842674
0.849041
0.850888
0.839277
0.839401
0.837023
0.839302
0.847669
0.843108
0.842292
0.839947
0.83121
0.827148
0.834877
0.82274
0.824041
0.82763
0.827746
0.824718
0.822226
0.824536
0.826982
0.824748
0.821766
0.826986
0.8284
0.821524
0.814534
0.809456
0.803692
0.795224
0.79471
0.794142
0.791782
0.784562
0.78406
0.779329
0.827174
0.829693
0.830926
0.828402
0.823736
0.82428
0.819668
0.814951
0.811848
0.809404
0.804161
0.802677
0.798164
0.809663
0.800667
0.825052
0.812929
0.837734
0.834017
0.843703
0.845655
0.84282
0.846036
0.847137
0.830306
0.821731
0.827961
0.827455
0.824684
0.825151
0.826617
0.822998
0.819413
0.809506
0.816648
0.799064
0.818092
0.800608
0.810872
0.802818
0.806236
0.799881
0.800985
0.793081
0.800027
0.796361
0.802289
0.80124
0.796311
0.79218
0.784376
0.781191
0.779929
0.77999
0.778158
0.780179
0.776646
0.777621
0.774258
0.77337
0.791528
0.796277
0.793619
0.782201
0.770757
0.765216
0.758487
0.748492
0.746123
0.743242
0.748563
0.746307
0.758259
0.758028
0.77692
0.785096
0.797371
0.805729
0.814857
0.811946
0.813034
0.812558
0.816108
0.81723
0.817248
0.820379
0.820013
0.821474
0.825518
0.828664
0.792268
0.801163
0.81126
0.78782
0.767693
0.761907
0.756911
0.756435
0.745375
0.745779
0.739145
0.743716
0.73384
0.739709
0.731212
0.731116
0.725645
0.726412
0.724613
0.729116
0.733624
0.736566
0.734695
0.729099
0.740541
0.78734
0.796156
0.809891
0.88619
1.01503
0.892675
0.849573
0.82115
0.831706
0.850037
0.847867
0.832181
0.815961
0.824206
0.834411
0.842035
0.830476
0.814527
0.8078
0.814756
0.851057
0.912484
0.907074
0.895371
0.903203
0.91905
0.925593
0.914186
0.879964
0.847885
0.838203
0.842609
0.845722
0.861093
0.88197
0.892739
0.879989
0.867119
0.846961
0.836248
0.827164
0.828004
0.831128
0.839658
0.848659
0.854546
0.8541
0.856921
0.866208
0.887932
0.915603
0.909843
0.892346
0.86891
0.853881
0.842525
0.839568
0.839055
0.836475
0.829504
0.826336
0.829003
0.833033
0.832206
0.83222
0.837656
0.837429
0.834832
0.828973
0.829164
0.824604
0.826324
0.82801
0.826556
0.826725
0.835486
0.83587
0.836036
0.83882
0.837065
0.840632
0.844091
0.848278
0.836927
0.83609
0.844091
0.846574
0.845732
0.840159
0.830201
0.82192
0.819771
0.820677
0.82162
0.82682
0.831692
0.830877
0.831781
0.833324
0.831859
0.837264
0.836065
0.835792
0.831364
0.83066
0.82734
0.82628
0.828214
0.829958
0.832518
0.835215
0.833796
0.83726
0.83688
0.836421
0.822366
0.827105
0.82883
0.830464
0.825488
0.817982
0.813959
0.815579
0.81628
0.811788
0.811965
0.81621
0.810233
0.806047
0.79979
0.796148
0.803277
0.800104
0.820656
0.811752
0.841775
0.831379
0.858473
0.85596
0.863193
0.865926
0.865513
0.868862
0.872135
0.881838
0.881356
0.878281
0.879639
0.876455
0.869147
0.871419
0.878357
0.87404
0.867404
0.863846
0.859171
0.847049
0.829538
0.822832
0.838968
0.849139
0.840508
0.840376
0.824526
0.800497
0.789927
0.779235
0.758277
0.762651
0.752723
0.759713
0.764716
0.772945
0.782869
0.788836
0.800561
0.807954
0.812825
0.811267
0.819462
0.831449
0.844508
0.825783
0.810543
0.809885
0.812257
0.816
0.82904
0.849534
0.857181
0.856082
0.851193
0.842337
0.830638
0.824001
0.819337
0.812681
0.812114
0.81451
0.820394
0.828371
0.841778
0.850514
0.85867
0.869441
0.874726
0.880963
0.88506
0.885684
0.883803
0.866835
0.823745
0.813745
0.812011
0.80817
0.813914
0.812828
0.812175
0.807965
0.795089
0.782653
0.780145
0.765753
0.760441
0.759321
0.758204
0.755367
0.761131
0.762382
0.780636
0.781483
0.799708
0.808261
0.819003
0.827505
0.834989
0.843398
0.84852
0.840886
0.841396
0.840129
0.842774
0.841656
0.847218
0.855788
0.844201
0.843488
0.844064
0.840703
0.830979
0.827161
0.835678
0.821597
0.822929
0.825833
0.821239
0.820052
0.820817
0.823352
0.820676
0.82255
0.823233
0.820086
0.820563
0.820992
0.812742
0.806248
0.797237
0.793609
0.792507
0.793716
0.79406
0.793951
0.792261
0.795574
0.796658
0.79323
0.80862
0.814335
0.818158
0.819524
0.82064
0.820222
0.815935
0.811329
0.815665
0.802336
0.803067
0.798023
0.797453