/*--------------------------------*- C++ -*----------------------------------*\
| =========                 |                                                 |
| \\      /  F ield         | OpenFOAM: The Open Source CFD Toolbox           |
|  \\    /   O peration     | Version:  2.1.1                                 |
|   \\  /    A nd           | Web:      www.OpenFOAM.org                      |
|    \\/     M anipulation  |                                                 |
\*---------------------------------------------------------------------------*/
FoamFile
{
    version     2.0;
    format      ascii;
    class       volScalarField;
    location    "0.003450000";
    object      fH;
}
// * * * * * * * * * * * * * * * * * * * * * * * * * * * * * * * * * * * * * //

dimensions      [0 0 0 0 0 0 0];

internalField   nonuniform List<scalar> 
12384
(
0.0227446
0.0224664
0.0221132
0.022158
0.0208921
0.0204198
0.0192814
0.0184328
0.0185004
0.0190391
0.0212073
0.0251887
0.0273081
0.0272282
0.0195199
0.0195967
0.0203528
0.0212339
0.0218846
0.0223796
0.0226965
0.0228882
0.0229176
0.0228977
0.0229227
0.022808
0.0227969
0.0228283
0.0228746
0.0228008
0.0225287
0.0221301
0.0217138
0.0208662
0.0198655
0.0189978
0.0183413
0.0181071
0.0184558
0.0197473
0.0218026
0.0251293
0.0276252
0.0287324
0.0256191
0.0256101
0.0249911
0.0245705
0.024469
0.024571
0.0247189
0.0248811
0.0250799
0.0254177
0.0259514
0.0268529
0.0278237
0.0287741
0.0295941
0.0301023
0.0305322
0.0307074
0.0307379
0.0307023
0.0305133
0.030251
0.0295667
0.0295743
0.0288405
0.0286406
0.0254529
0.0222343
0.0206106
0.0229853
0.0292641
0.0295751
0.0296921
0.0300649
0.0303371
0.029832
0.0288022
0.0278104
0.0270551
0.0265166
0.0261522
0.0258464
0.0256649
0.0254981
0.0253744
0.0251622
0.0251244
0.0249362
0.0250198
0.0252571
0.025673
0.0266345
0.027925
0.0287542
0.0291849
0.0300859
0.0313048
0.0306034
0.0255741
0.0244573
0.0285154
0.0296159
0.0303925
0.0310363
0.0316989
0.0321751
0.03244
0.0326068
0.0325746
0.0325378
0.0322572
0.0321077
0.0319001
0.0316782
0.0313795
0.0312391
0.0310216
0.0307845
0.0303669
0.0298053
0.0285955
0.027523
0.0268798
0.0270285
0.0274541
0.0265809
0.0232458
0.0215372
0.0239724
0.0263079
0.0227267
0.0238361
0.0262776
0.0275189
0.0276366
0.0270467
0.0280918
0.0289863
0.0310188
0.0309965
0.0302476
0.0307611
0.0289424
0.0298935
0.0282112
0.029217
0.0279106
0.0281891
0.0276893
0.0276283
0.0276159
0.0274266
0.02739
0.0267486
0.0234792
0.019776
0.0189874
0.0199714
0.0216661
0.0233349
0.0227271
0.0228574
0.0237261
0.0252832
0.0281356
0.0317131
0.036176
0.0413382
0.0462781
0.0492631
0.0478727
0.0424852
0.0301437
0.0210518
0.0188246
0.0185543
0.0185879
0.0185911
0.0185006
0.0183441
0.0181708
0.0178458
0.0174711
0.0170409
0.0169288
0.0171723
0.0174488
0.0179938
0.0188291
0.0192708
0.0207835
0.0208681
0.0210444
0.0208702
0.0227434
0.0232233
0.0246308
0.0254262
0.0257131
0.0254361
0.0248002
0.0220369
0.0189086
0.0175301
0.017244
0.0172802
0.0172217
0.0171798
0.0171345
0.0170949
0.0170548
0.0173047
0.0175506
0.0177917
0.0180046
0.0181401
0.0182752
0.0186009
0.0190871
0.0197181
0.0190372
0.0183653
0.0179097
0.0174274
0.0172923
0.0172595
0.0174826
0.017917
0.0189311
0.0199593
0.0205791
0.0209976
0.0210505
0.0208151
0.0209834
0.0204255
0.0202216
0.0198186
0.0195961
0.0195512
0.0198025
0.0202871
0.0210286
0.0218541
0.0229769
0.0236284
0.0246158
0.0254354
0.0260342
0.0260292
0.0210278
0.019878
0.0194284
0.0192745
0.0196663
0.0209879
0.0218735
0.0218731
0.0222672
0.0224617
0.0238222
0.0241968
0.0236237
0.0239783
0.0232435
0.0224452
0.0222958
0.0211193
0.020807
0.020252
0.0201359
0.0200659
0.0202231
0.0207369
0.0224512
0.0243899
0.0253614
0.0273704
0.0278573
0.0282861
0.0169738
0.0171351
0.0171195
0.0168469
0.0171557
0.0171607
0.0173783
0.0175675
0.0178155
0.0179487
0.0180856
0.0183751
0.0187324
0.0191743
0.0195629
0.0201523
0.0208314
0.0214928
0.0220395
0.0224681
0.0227269
0.022974
0.0230973
0.0233372
0.0238029
0.0242363
0.0246399
0.0251687
0.0253436
0.0257206
0.0172592
0.0170589
0.0169952
0.0166389
0.0166641
0.0166148
0.0166316
0.0167964
0.0168572
0.0170125
0.0171715
0.0174379
0.0175154
0.0178302
0.0181429
0.0186044
0.0190744
0.0197126
0.0205078
0.0208497
0.0212931
0.0215474
0.021667
0.0217024
0.0218231
0.0214946
0.0223315
0.0225789
0.0230037
0.0229133
0.0175033
0.0173813
0.0172543
0.0171278
0.0168302
0.0175139
0.0167205
0.017752
0.017055
0.0179998
0.0177034
0.0183586
0.0181618
0.0188138
0.0188336
0.0193203
0.0195406
0.0203001
0.0202493
0.0211918
0.0211545
0.0215275
0.0218444
0.0225472
0.0228416
0.0232455
0.0229111
0.0231519
0.0243499
0.0238357
0.0242399
0.0298642
0.0329187
0.0345184
0.0350809
0.0312701
0.028956
0.0243286
0.0219137
0.0197668
0.0199046
0.0222913
0.0261021
0.0271678
0.0190367
0.0212323
0.0232226
0.0243612
0.0246656
0.0247909
0.0247626
0.0247174
0.0246661
0.0245352
0.0242411
0.0238723
0.0234553
0.0232312
0.0232777
0.0233961
0.0235699
0.0233291
0.0231959
0.022366
0.0211112
0.0197448
0.0186652
0.0181544
0.018478
0.0197761
0.0220304
0.0251847
0.027797
0.0287003
0.0254456
0.0249603
0.0238099
0.0234753
0.0235776
0.0238555
0.0243332
0.0248201
0.0251217
0.0250276
0.0247292
0.0252416
0.0260806
0.0276119
0.0291947
0.0304524
0.0317029
0.0323124
0.0328511
0.0330553
0.032963
0.0325534
0.0314199
0.0304071
0.0288765
0.0281879
0.025293
0.0222849
0.0208004
0.0232408
0.0292509
0.0297175
0.0301562
0.0299103
0.0277163
0.025658
0.024717
0.0244412
0.0245527
0.0247256
0.024968
0.0250675
0.0251256
0.0251553
0.0249722
0.0247633
0.0246565
0.0242586
0.0238067
0.0237828
0.0242366
0.0254048
0.0271181
0.0279857
0.0284388
0.0286329
0.0297876
0.0307129
0.0273866
0.0245999
0.0283515
0.029637
0.0308137
0.0320811
0.0325552
0.032401
0.0315393
0.0303585
0.029263
0.0285265
0.0281042
0.0279465
0.0279262
0.0279634
0.0281017
0.0282984
0.0284769
0.0285675
0.0285557
0.0279878
0.0270342
0.0257903
0.0249465
0.0254531
0.0262868
0.0260189
0.0229979
0.0213474
0.0234851
0.0263073
0.0227948
0.0257476
0.0272704
0.0274564
0.0290764
0.032852
0.0359407
0.0371425
0.0375022
0.0378024
0.0387049
0.0379232
0.0380505
0.0366881
0.0361968
0.0346832
0.0333574
0.0318038
0.0304969
0.0293118
0.0286167
0.028161
0.027973
0.0274166
0.0248411
0.020984
0.0191877
0.0197748
0.0217234
0.0234124
0.0243373
0.0255427
0.0268628
0.029952
0.0322677
0.0373574
0.0424806
0.0468439
0.0500668
0.0502558
0.0453909
0.0359075
0.0256038
0.0205483
0.0197369
0.0203665
0.0210685
0.0217608
0.0223418
0.0226109
0.0229192
0.0226374
0.0221254
0.0202489
0.0185368
0.0176527
0.0175626
0.0180525
0.0190004
0.0192926
0.0205208
0.0206222
0.0211561
0.0227803
0.0259344
0.0288476
0.0298586
0.0305984
0.0297799
0.0270916
0.0247425
0.0207952
0.0183977
0.0175396
0.0175277
0.0174314
0.0171323
0.0167565
0.0165719
0.0168419
0.0177899
0.0194779
0.0211279
0.0227988
0.0218204
0.0214156
0.019228
0.0176722
0.0174508
0.0183504
0.019252
0.0184479
0.0179647
0.0174157
0.017245
0.0171318
0.0172552
0.0175486
0.0185905
0.0194227
0.0198183
0.0198204
0.0196176
0.0192129
0.0190973
0.0187781
0.0183185
0.0179145
0.0171818
0.016502
0.0158026
0.0152446
0.0149971
0.0150732
0.0156641
0.0165856
0.0180531
0.0192809
0.0210423
0.0224153
0.0204835
0.0194512
0.01832
0.0178449
0.0183724
0.019351
0.0193005
0.0192774
0.0183223
0.0186595
0.0193412
0.0189596
0.0192174
0.0188471
0.0182277
0.0172263
0.0167959
0.0161165
0.0153897
0.0147369
0.0142046
0.0137709
0.0134727
0.0134199
0.0138345
0.0152371
0.0188176
0.021811
0.0252223
0.0264322
0.0168507
0.017026
0.0168518
0.0165158
0.0166044
0.0167205
0.0168429
0.0169429
0.0168624
0.0168957
0.0167837
0.016886
0.0169628
0.0167615
0.0166618
0.0166599
0.0169023
0.0174958
0.0180536
0.0184256
0.0182664
0.0177644
0.0171895
0.0166992
0.0165074
0.0170435
0.0184204
0.0192729
0.0211696
0.0228366
0.0170401
0.0166443
0.0164039
0.0163099
0.0164063
0.016292
0.0162988
0.0164655
0.0162905
0.0166307
0.0165921
0.0165377
0.0165296
0.0162761
0.0161896
0.016439
0.0164761
0.0172483
0.0171204
0.0172273
0.0173383
0.0179364
0.0178827
0.017241
0.0168844
0.0170623
0.0169316
0.0174231
0.018811
0.0192583
0.0158113
0.0162404
0.0161107
0.016271
0.0160066
0.0160719
0.0161434
0.0156786
0.0163803
0.0160484
0.0169956
0.0165325
0.0173606
0.0167691
0.0177035
0.0172688
0.0180574
0.0177477
0.0183939
0.0178419
0.0180965
0.0174727
0.0175134
0.0170384
0.0180396
0.0175294
0.0175083
0.0176392
0.0184702
0.0178789
0.0422085
0.0500497
0.0546776
0.0552125
0.0556658
0.0518486
0.0481504
0.040661
0.0334303
0.0255979
0.0210685
0.0203626
0.0237718
0.0256281
0.0207297
0.0245248
0.025966
0.0263599
0.0264834
0.0262363
0.0256977
0.0250765
0.0247489
0.0246855
0.0246575
0.0244137
0.0238441
0.0233105
0.0232583
0.023723
0.0245414
0.024956
0.0252362
0.0244174
0.0226337
0.0205782
0.0189931
0.0181841
0.018429
0.0200133
0.0224916
0.0255508
0.027787
0.0286153
0.025251
0.0245204
0.0234633
0.0233072
0.023461
0.02381
0.024587
0.0257523
0.0266044
0.0268649
0.0262409
0.0252781
0.025126
0.0255986
0.0268296
0.028559
0.0304793
0.0323222
0.0338667
0.0350479
0.0359592
0.0361271
0.0346719
0.032545
0.0293621
0.0278054
0.0246743
0.0220118
0.0212882
0.0239267
0.0293421
0.0299776
0.0297425
0.0268476
0.0242816
0.0242007
0.0261009
0.0276165
0.0285683
0.0290262
0.0291576
0.028834
0.0284669
0.0278466
0.0271994
0.0267457
0.026067
0.0255899
0.0246611
0.0237337
0.0235627
0.0243871
0.0258538
0.0271291
0.0275701
0.027708
0.0286895
0.0302494
0.0283124
0.0247183
0.0281265
0.0297311
0.0316636
0.0322263
0.0312347
0.0288068
0.0263345
0.0246001
0.0235757
0.0231566
0.023082
0.0232327
0.0235351
0.0239461
0.0244084
0.0251695
0.0256686
0.0262474
0.0264434
0.0260211
0.0249331
0.0236512
0.0232078
0.0237788
0.0247401
0.023847
0.0216939
0.0216153
0.0240409
0.0260814
0.0234315
0.0268547
0.0278138
0.0299147
0.0342831
0.0375494
0.0385044
0.0386853
0.0396515
0.0407541
0.0429185
0.042925
0.044158
0.04339
0.0432879
0.0415349
0.0392522
0.0369679
0.0342081
0.031587
0.0298328
0.0287607
0.0282665
0.0279391
0.0259172
0.0224545
0.0198289
0.0197571
0.02181
0.0236346
0.0314225
0.0319415
0.0347356
0.0360516
0.0415316
0.0449769
0.050523
0.0530352
0.052508
0.046811
0.0369972
0.0268339
0.0222258
0.0215556
0.0228217
0.0250077
0.0269775
0.0288996
0.0308488
0.0323105
0.0335256
0.0334909
0.0325229
0.0279453
0.0230504
0.0195884
0.0178197
0.0181034
0.0189352
0.0190031
0.0199363
0.0207562
0.0238094
0.0275461
0.0312716
0.0326166
0.0334182
0.0334614
0.0327758
0.0290562
0.0242052
0.0201986
0.0186071
0.0184959
0.0184716
0.0178811
0.017295
0.0172233
0.0185171
0.0221566
0.0289726
0.0363969
0.0414018
0.0437115
0.0426846
0.040456
0.0343011
0.0258942
0.019515
0.0164867
0.0195399
0.0194389
0.019342
0.018329
0.0177393
0.0170768
0.0168218
0.0172309
0.0180727
0.0188103
0.0194799
0.020103
0.0212456
0.022895
0.0249436
0.0259456
0.0272267
0.0276005
0.0276049
0.026552
0.0240918
0.0209162
0.0176535
0.0154064
0.0140738
0.0137382
0.0139424
0.015064
0.0165498
0.0187131
0.0197452
0.0188472
0.0174976
0.0168266
0.0170894
0.0174325
0.0168904
0.0165142
0.0167974
0.0179079
0.0184982
0.0195675
0.0198707
0.0197472
0.0201701
0.0208282
0.0214118
0.0214118
0.0207112
0.0191306
0.0174234
0.0152868
0.0134198
0.0124656
0.0120895
0.0119082
0.0129641
0.0159586
0.0220704
0.0259227
0.0163991
0.0166094
0.0165183
0.01649
0.0164108
0.0167373
0.0169757
0.0175392
0.0184593
0.0200916
0.0221908
0.0235898
0.0243503
0.0241607
0.0225413
0.0199732
0.0174324
0.0156927
0.0149448
0.0145852
0.0144592
0.0143508
0.0140902
0.0138272
0.0134533
0.0133809
0.0136254
0.0147854
0.016068
0.0175392
0.01623
0.0163348
0.0161399
0.0162465
0.0164379
0.0175401
0.0175406
0.0186798
0.0196039
0.021172
0.0226396
0.0229909
0.0213674
0.0201201
0.0173175
0.0165514
0.015691
0.0156855
0.0154543
0.0152745
0.0151698
0.0149382
0.0146464
0.0144353
0.0142236
0.0139271
0.0139195
0.0138396
0.0143338
0.0151577
0.0154504
0.0158258
0.0165435
0.0161235
0.0172565
0.0164303
0.0169777
0.0157202
0.0160981
0.0154582
0.0156569
0.0155537
0.0156157
0.0154032
0.0154631
0.0152336
0.0153481
0.0151015
0.0149954
0.0146749
0.0141956
0.0139996
0.0132152
0.0135693
0.0128171
0.0135297
0.0126227
0.0129162
0.0128616
0.0133355
0.0633744
0.0629798
0.0611622
0.0602899
0.0596935
0.0599044
0.058414
0.0543517
0.0477215
0.0381195
0.0273629
0.0214808
0.0215699
0.0241939
0.0236369
0.0264132
0.0274327
0.0288853
0.0302599
0.0301175
0.0284727
0.0264234
0.0249037
0.024265
0.024423
0.0245503
0.0240284
0.0232275
0.0229717
0.0237146
0.0252341
0.0265054
0.0271789
0.0262717
0.0239071
0.0212103
0.0190765
0.0180101
0.0181772
0.0196239
0.0221929
0.0254006
0.0276267
0.0280975
0.0250691
0.0243464
0.0237597
0.0235317
0.0234438
0.023806
0.0250738
0.0270182
0.0287402
0.029199
0.0286044
0.0272512
0.0260598
0.025441
0.0257042
0.0268363
0.0286239
0.0310273
0.0335347
0.0359865
0.0379187
0.0387907
0.0376086
0.0350213
0.0304578
0.0276896
0.0239454
0.0217783
0.022091
0.0248564
0.0295294
0.0297464
0.0263899
0.0240504
0.0256399
0.0296737
0.0318208
0.0325154
0.0329302
0.0326227
0.03195
0.0307929
0.0295392
0.0282628
0.0272028
0.0266356
0.0260366
0.0253216
0.0246221
0.0238254
0.0234281
0.0242256
0.0251445
0.0264353
0.0269329
0.0270219
0.0278473
0.0296565
0.0276555
0.0246813
0.0280888
0.0302819
0.0319131
0.0301496
0.0267949
0.023757
0.0219068
0.0210449
0.020688
0.0205636
0.0206364
0.0207641
0.0210066
0.0213087
0.0219968
0.0225501
0.0235979
0.0245244
0.0248637
0.02432
0.0230409
0.0220778
0.0218054
0.022482
0.022443
0.0217064
0.0211386
0.0222628
0.0240389
0.0253333
0.0241053
0.0274834
0.0291004
0.0338793
0.0381559
0.0396226
0.0391388
0.0393023
0.0401905
0.0422224
0.0439772
0.0445582
0.044657
0.0450243
0.0449625
0.0445644
0.0435817
0.0409716
0.0377378
0.0337087
0.0307432
0.0290685
0.0284541
0.0282647
0.0268786
0.0235709
0.0204797
0.0199925
0.0219361
0.0232155
0.0386296
0.0405107
0.0417905
0.0461838
0.0485839
0.0541495
0.0567997
0.0556356
0.0495918
0.0382442
0.0273786
0.0229535
0.0228072
0.0250261
0.0281533
0.0312245
0.0341633
0.0368882
0.0391794
0.0408774
0.0419657
0.0421684
0.0412897
0.0379368
0.0301278
0.0228885
0.018679
0.0181722
0.0186991
0.0184636
0.0203182
0.0234701
0.0275813
0.0312547
0.0316933
0.0314464
0.0319678
0.033476
0.0335528
0.0296748
0.023805
0.0200836
0.0193239
0.0197806
0.0196174
0.0188348
0.018779
0.0210806
0.0278789
0.0377968
0.0471773
0.0509169
0.0524163
0.0530731
0.054146
0.0536811
0.051158
0.0450773
0.0318018
0.017442
0.0200103
0.0204841
0.0198715
0.0188414
0.0178092
0.0172702
0.0170124
0.0171373
0.0180607
0.0191818
0.0210159
0.024263
0.0296837
0.0351771
0.0400593
0.0440613
0.0469344
0.0491376
0.050277
0.0502517
0.0485333
0.0447837
0.039532
0.0324082
0.0250065
0.0191682
0.0148707
0.0134338
0.0137745
0.0150305
0.0188436
0.0178714
0.0176304
0.0172927
0.0169758
0.0164654
0.0157391
0.0157573
0.0178057
0.0215872
0.0247117
0.0261731
0.0289733
0.0302541
0.0344324
0.0361587
0.0393911
0.0387723
0.0380527
0.0371588
0.0350766
0.0305861
0.0236269
0.0182631
0.0137403
0.0119172
0.0115646
0.0126725
0.0160374
0.0194712
0.0159787
0.0162795
0.0163745
0.0173474
0.0172809
0.0179888
0.018381
0.0216426
0.0289278
0.0365003
0.0410317
0.0428265
0.0440238
0.0441009
0.0432579
0.040361
0.036344
0.0303729
0.0236404
0.0187492
0.015672
0.014453
0.0138561
0.0132946
0.0129268
0.0125346
0.0124231
0.0125827
0.0132531
0.0142689
0.0159565
0.0163914
0.0173962
0.0182095
0.019581
0.0207477
0.0233048
0.0261738
0.0318948
0.0367288
0.0406109
0.0408133
0.0388748
0.0357461
0.0301898
0.0234349
0.0201323
0.0168875
0.0162283
0.0153906
0.0148177
0.0144911
0.014057
0.0138426
0.013554
0.0133873
0.0130408
0.0129176
0.0129265
0.0128962
0.0157598
0.017615
0.018928
0.0226404
0.0215336
0.025686
0.0205602
0.0215956
0.018515
0.0179327
0.016352
0.0161058
0.0153279
0.0153073
0.0149251
0.0148531
0.014539
0.0144296
0.0140928
0.0139174
0.0135024
0.0135639
0.0131508
0.0133545
0.0128239
0.0130774
0.0132544
0.0126891
0.0127217
0.0120339
0.062096
0.0539587
0.0470197
0.0468995
0.048714
0.0530098
0.0557274
0.0558171
0.0533602
0.0479823
0.0378319
0.0265663
0.0211731
0.0227314
0.0253136
0.027169
0.0285976
0.0322203
0.0357362
0.0350554
0.0314779
0.0277518
0.0251134
0.0239748
0.0240414
0.0243623
0.0238786
0.0228864
0.022621
0.0237453
0.0260278
0.0278174
0.0285691
0.0276673
0.0249362
0.0214354
0.0189868
0.0173574
0.0169791
0.0179643
0.0202907
0.0237636
0.0267404
0.0275034
0.0249867
0.0244678
0.0240322
0.0235082
0.0231143
0.0235295
0.0253076
0.0283818
0.0306995
0.0314702
0.0307986
0.0294505
0.0277322
0.0266644
0.0265814
0.0273632
0.0292041
0.0318719
0.0347048
0.0373798
0.0390561
0.0393641
0.0384153
0.0358691
0.03081
0.0271893
0.023435
0.0216539
0.022785
0.0256198
0.0294674
0.0274259
0.0244663
0.026751
0.0324561
0.0342455
0.0349824
0.0359067
0.036355
0.0352475
0.0334626
0.0311426
0.0292153
0.0275911
0.0266381
0.0260364
0.0255199
0.0245701
0.0239749
0.023543
0.0235497
0.0242057
0.0251393
0.025998
0.0264271
0.0265526
0.0276761
0.0291316
0.0263698
0.0243904
0.0281721
0.0309261
0.0309259
0.0270013
0.0233796
0.0213954
0.0205185
0.0202436
0.0202436
0.0203075
0.0202255
0.0200544
0.0199641
0.0201161
0.0205691
0.0215182
0.0227706
0.0236075
0.0235396
0.0225609
0.0213292
0.0206533
0.0208191
0.0207129
0.0206107
0.0207723
0.0216805
0.0227889
0.0236449
0.0244097
0.0244836
0.0279884
0.0313301
0.0375106
0.0404263
0.0397665
0.0387255
0.0382945
0.0393853
0.0407783
0.0417719
0.0413597
0.0413478
0.0411435
0.0416466
0.0421077
0.0426011
0.0417948
0.0383776
0.0340059
0.0306739
0.0290297
0.0285781
0.028668
0.0277428
0.0248883
0.021085
0.0200514
0.0218261
0.0225435
0.0464263
0.0468626
0.0489703
0.0508131
0.0551852
0.0584074
0.0590248
0.0534216
0.0412899
0.0285571
0.0235011
0.0234468
0.0260102
0.0297771
0.0331254
0.036384
0.0389606
0.0409636
0.0421345
0.0431187
0.0437967
0.044259
0.0442333
0.043273
0.0369464
0.0277688
0.0206604
0.0184772
0.018304
0.0179263
0.0227598
0.0272658
0.0291337
0.0287331
0.0270796
0.0267221
0.0285636
0.0319549
0.0331664
0.0298199
0.0235021
0.020429
0.0206838
0.0216301
0.0218096
0.0218604
0.0243201
0.0319624
0.042747
0.0507714
0.0524962
0.0528099
0.053029
0.0542343
0.05655
0.0582431
0.0573073
0.0532636
0.0448279
0.0249053
0.0215393
0.0237344
0.0239997
0.0217326
0.0192315
0.017744
0.0173419
0.0180939
0.0201311
0.0232182
0.0278467
0.0347598
0.0424864
0.0488077
0.0519585
0.0541157
0.0554048
0.0562037
0.0569981
0.0577094
0.0583045
0.0581602
0.0580151
0.055893
0.0500122
0.0400608
0.0273825
0.0184265
0.0143724
0.0142485
0.0174862
0.0176408
0.0188188
0.0194091
0.0183908
0.0169587
0.0160247
0.0166582
0.0213409
0.0288541
0.0358812
0.0370653
0.0401889
0.0417248
0.0424146
0.0423158
0.0411055
0.0417678
0.0426776
0.0441252
0.0449768
0.0457277
0.043048
0.0376224
0.0266579
0.0172549
0.0127466
0.0116356
0.013187
0.0169934
0.015952
0.0163293
0.0170495
0.0194793
0.0199094
0.0210627
0.0236215
0.0331425
0.0418784
0.0443096
0.0441544
0.0428228
0.0418145
0.0423401
0.044567
0.0478259
0.0502017
0.0506004
0.0464049
0.0380283
0.0271527
0.0202771
0.0167452
0.0152446
0.0141405
0.0134037
0.0129637
0.012556
0.0124138
0.0126173
0.0158926
0.0169581
0.0196058
0.0224237
0.0256791
0.0298507
0.035018
0.0415703
0.0466426
0.0469123
0.0483342
0.0466446
0.0482317
0.0480099
0.0485209
0.0424267
0.032383
0.0248599
0.0207656
0.0187681
0.0171084
0.0162149
0.015712
0.0153019
0.0150787
0.0143817
0.0143349
0.0137274
0.0130998
0.0127163
0.0177536
0.0221593
0.0290852
0.0334892
0.0365938
0.0378334
0.037189
0.0326578
0.0294031
0.0246921
0.0215374
0.0188106
0.0175081
0.0161058
0.0159975
0.015524
0.0155852
0.0152066
0.0152315
0.0149308
0.0151244
0.0149033
0.0154034
0.0152936
0.0161155
0.0170532
0.0182804
0.0190511
0.0177779
0.01453
0.0504443
0.0380955
0.0311019
0.0317977
0.0355328
0.04106
0.0465606
0.0493255
0.0497392
0.0476909
0.043655
0.0340582
0.0237262
0.0221185
0.0260029
0.0275111
0.0289207
0.0343306
0.0387646
0.0367328
0.0309692
0.0264881
0.0242798
0.0236762
0.0238262
0.0239694
0.0232953
0.0223797
0.0224425
0.024111
0.0268457
0.0290565
0.0296916
0.0282519
0.0245209
0.0203724
0.0176878
0.0159517
0.0150949
0.0154136
0.0171299
0.0206222
0.0247988
0.0267103
0.0247728
0.0242653
0.0236323
0.0227675
0.0224161
0.0231016
0.0250063
0.0276531
0.0305656
0.0319837
0.0320429
0.0312432
0.0300641
0.0295057
0.0297435
0.0311547
0.0330381
0.0352239
0.0368292
0.0378833
0.0382972
0.0380463
0.036859
0.0339294
0.0296853
0.0265552
0.0231093
0.0214586
0.0230229
0.0259144
0.0288058
0.0255983
0.026683
0.0332057
0.0355449
0.0369326
0.0393153
0.040399
0.0386453
0.0353748
0.0322275
0.0294041
0.0277881
0.026537
0.0258383
0.0255469
0.0247502
0.0240823
0.0235828
0.0235632
0.0237835
0.0243061
0.025106
0.0257619
0.0259474
0.0266283
0.0278184
0.0277774
0.0246718
0.0244078
0.0286217
0.0308598
0.0279567
0.0243816
0.0227143
0.0220352
0.0215451
0.0210842
0.0207584
0.020674
0.0205303
0.0201513
0.019868
0.0201909
0.0208789
0.0220873
0.0228221
0.0227178
0.0218962
0.0208121
0.0200694
0.0200848
0.0204542
0.0209853
0.0217792
0.0228191
0.0238836
0.0242957
0.0240053
0.023944
0.0251839
0.0288591
0.0337836
0.0397123
0.04104
0.0399191
0.0382852
0.0376951
0.0386568
0.0397717
0.0401584
0.0389797
0.0383403
0.0375866
0.0377586
0.0383897
0.0396083
0.0412869
0.0412632
0.0362638
0.0316959
0.0295302
0.0291226
0.0294756
0.028844
0.025736
0.0217874
0.0203081
0.0213708
0.0215439
0.0485732
0.0497968
0.0513116
0.0548892
0.0583073
0.0607322
0.0575531
0.0466029
0.0324733
0.0244191
0.0237402
0.0260908
0.0298505
0.0333546
0.0361724
0.0385447
0.0399412
0.041034
0.041832
0.0425218
0.0434042
0.043924
0.0442342
0.0437069
0.0407846
0.0330152
0.0237289
0.0193052
0.018041
0.0174277
0.0268964
0.0286081
0.0257724
0.0234518
0.0227011
0.0235159
0.026421
0.030888
0.0327302
0.0286898
0.0230661
0.0214137
0.0222328
0.0241488
0.0252947
0.0276471
0.0339233
0.0428328
0.0503802
0.0526931
0.052412
0.052017
0.0523364
0.053967
0.0574464
0.0611465
0.0603874
0.0551858
0.0490579
0.0382661
0.022024
0.0263069
0.0250509
0.0224905
0.0194488
0.0182366
0.0171651
0.0182628
0.0210383
0.0289759
0.0381416
0.0456268
0.0512678
0.0530815
0.0536821
0.0540198
0.053062
0.0525216
0.0516989
0.0510473
0.0505688
0.0520938
0.0541606
0.0571941
0.0596245
0.0599184
0.0523157
0.0356954
0.0187254
0.0136129
0.0169693
0.0183155
0.0215517
0.0237934
0.0221922
0.0193556
0.0179319
0.020063
0.027566
0.0364767
0.0386103
0.039064
0.0369025
0.0345676
0.0322474
0.0342012
0.0325957
0.0339982
0.0353887
0.0370415
0.0400492
0.0437755
0.0477782
0.0486792
0.0467579
0.0364365
0.0217444
0.013656
0.0120793
0.0136683
0.0161313
0.0173879
0.0194821
0.0237988
0.0249099
0.0273817
0.0328484
0.0404314
0.0427536
0.0380979
0.0334601
0.0303895
0.0284209
0.028446
0.0300877
0.0349206
0.0411899
0.0491627
0.0547354
0.0561758
0.051147
0.0394172
0.0264583
0.0211452
0.0181253
0.0161875
0.0150361
0.0138149
0.0126015
0.0120547
0.0165549
0.0204785
0.0262523
0.0308009
0.0359011
0.0390834
0.0427738
0.0453948
0.0429205
0.0385344
0.0362603
0.0347646
0.0387037
0.0441698
0.051485
0.0559775
0.0524654
0.0388624
0.0321186
0.0256566
0.0226982
0.0206963
0.0194946
0.0189014
0.0184141
0.0182555
0.0171814
0.0164954
0.0145004
0.0127574
0.0196438
0.0284333
0.0393597
0.0417625
0.045035
0.0458337
0.0495902
0.0469688
0.0449956
0.0392568
0.0329334
0.0271683
0.0227685
0.0202751
0.0182525
0.0179861
0.0172001
0.0176999
0.0173594
0.01772
0.0176731
0.0183537
0.0184817
0.019901
0.0207907
0.0246422
0.0262022
0.0258087
0.0261815
0.0197995
0.0429201
0.027536
0.023424
0.0246835
0.0272298
0.0310705
0.0345415
0.0367931
0.0382083
0.0377554
0.0389493
0.0364193
0.0281841
0.0223785
0.0257249
0.0273414
0.028474
0.0341348
0.0390193
0.0356051
0.0284761
0.0241863
0.0227558
0.0229518
0.0233242
0.0230859
0.0223181
0.0217609
0.022403
0.0247612
0.0281408
0.0302011
0.0298005
0.0263513
0.021388
0.0178719
0.0160821
0.0149119
0.0143226
0.0143371
0.0152442
0.0183081
0.0226949
0.0255076
0.0239596
0.0234473
0.022618
0.0219133
0.02191
0.0227807
0.0239112
0.0250867
0.0267135
0.0291339
0.0310674
0.0321534
0.0324457
0.0324819
0.0326813
0.0332598
0.0339762
0.0344235
0.0347088
0.0342499
0.0336259
0.0327395
0.031805
0.029935
0.0277989
0.0257301
0.0227082
0.0209582
0.0227024
0.0259032
0.0275131
0.02607
0.0321552
0.0360236
0.038038
0.0418321
0.0436801
0.0413709
0.0361722
0.0314035
0.0286653
0.0267163
0.0260365
0.0255553
0.0253322
0.0250216
0.0243129
0.0238596
0.0238659
0.0240253
0.0243937
0.0247908
0.0252941
0.0256521
0.0260832
0.0266804
0.0268329
0.0249588
0.0234475
0.0250295
0.0290046
0.0301572
0.0269156
0.0256997
0.0260105
0.0258313
0.0245627
0.022938
0.0218119
0.021303
0.0212022
0.0212534
0.0213842
0.0216618
0.0221759
0.0223768
0.0219563
0.0212162
0.0206982
0.0207973
0.0219173
0.0235695
0.0254483
0.0271122
0.0289033
0.0303115
0.0299811
0.0286305
0.0261788
0.024247
0.0256114
0.0301232
0.0361336
0.0417487
0.0420697
0.0403477
0.0383753
0.0377546
0.0391289
0.0405561
0.0405155
0.0391091
0.0371856
0.0360183
0.0358408
0.036156
0.0368898
0.0385569
0.0401473
0.0388136
0.0345911
0.0318916
0.0305734
0.0313783
0.0303883
0.0270649
0.0229156
0.0204553
0.0206119
0.020363
0.0496253
0.0512484
0.05373
0.0570694
0.0607708
0.0595228
0.0517221
0.0366933
0.0263794
0.0239919
0.025596
0.0291298
0.0325097
0.0353589
0.0372858
0.0386517
0.0396601
0.0402485
0.040738
0.0415597
0.0426439
0.0433296
0.0434698
0.0427533
0.0410262
0.0358687
0.0274379
0.0209007
0.0181272
0.0170558
0.0289599
0.0260066
0.0220444
0.0209385
0.021303
0.0229148
0.0266163
0.0305896
0.0313216
0.0275762
0.0229448
0.0219883
0.0245468
0.0277582
0.0306702
0.0353944
0.0436282
0.0513126
0.0537822
0.053103
0.0521542
0.0520701
0.0518626
0.0529873
0.0570088
0.0616833
0.0619809
0.0561823
0.0496102
0.0435707
0.0243906
0.0315477
0.0314958
0.0286608
0.0255236
0.0240764
0.0227459
0.0237784
0.0268667
0.0337586
0.0422932
0.0513469
0.0528861
0.0528565
0.0522524
0.0509924
0.0495343
0.0486839
0.0485974
0.0488375
0.0495266
0.0499383
0.0501616
0.0509787
0.0528975
0.056415
0.0602863
0.0571493
0.0320592
0.0146605
0.0167175
0.0211699
0.0282123
0.0316494
0.0287161
0.0240382
0.0223066
0.0261485
0.0341275
0.038184
0.0358947
0.0333365
0.0291331
0.0292027
0.0305332
0.0310349
0.032776
0.0332729
0.0333052
0.0336849
0.0349087
0.036244
0.0401613
0.045356
0.0506531
0.0515316
0.0432957
0.024256
0.0133893
0.0126684
0.0170329
0.0200998
0.0245143
0.0307578
0.0325538
0.0360626
0.0405693
0.0416467
0.0373118
0.0311734
0.0287626
0.0279501
0.0282766
0.0271755
0.0269839
0.0269707
0.0307856
0.0376407
0.0469343
0.0558231
0.0602167
0.0592664
0.0498153
0.0367849
0.0270613
0.0217046
0.0188669
0.0168026
0.014336
0.0123239
0.0173706
0.024735
0.0345894
0.0395829
0.041801
0.0428417
0.0424137
0.0415091
0.0340413
0.033248
0.0253911
0.0289252
0.0263788
0.0328358
0.0409307
0.053396
0.0592878
0.0552728
0.0467281
0.0402332
0.0331266
0.0289137
0.0263081
0.0253989
0.0246117
0.0235855
0.0229921
0.0207013
0.0170775
0.013061
0.0224733
0.0371494
0.0413496
0.0449768
0.0433998
0.0417804
0.0473125
0.0524477
0.0544583
0.0534927
0.048282
0.0411765
0.0340764
0.0281461
0.0250261
0.022237
0.0227427
0.021389
0.0222706
0.0224587
0.0235158
0.0236463
0.0256889
0.0261964
0.0297872
0.0325102
0.0334491
0.0361044
0.0334428
0.0276956
0.0394389
0.0232474
0.0205865
0.0216604
0.0229986
0.0240804
0.0249525
0.0258474
0.0260323
0.0261683
0.0287003
0.0325024
0.0302244
0.0232227
0.0249656
0.0272931
0.0278425
0.0328868
0.0378618
0.0342581
0.0273839
0.0229662
0.0214521
0.0214963
0.0217728
0.0215478
0.0210988
0.0211855
0.0231337
0.026623
0.0296199
0.0301901
0.0260048
0.0207504
0.0178749
0.0169381
0.0166759
0.0164337
0.0158119
0.0152859
0.0157893
0.0183128
0.0220989
0.0240077
0.0230956
0.0225847
0.0218202
0.0216535
0.0222715
0.0228392
0.0230589
0.0232078
0.0235434
0.0241127
0.0252612
0.0266753
0.0277326
0.0285638
0.0292699
0.0291556
0.0286739
0.027808
0.0268503
0.0260293
0.0258631
0.0256273
0.0259961
0.0258904
0.025579
0.0243689
0.0219071
0.0202491
0.0219993
0.0253931
0.0268822
0.0278996
0.0349682
0.0382165
0.0422592
0.045132
0.0443505
0.0385135
0.0318228
0.0280368
0.0260255
0.0254653
0.0252585
0.025238
0.0250523
0.0246872
0.0242325
0.0241276
0.0242929
0.0244826
0.0247473
0.0250512
0.0253421
0.0255167
0.025487
0.0250933
0.0241616
0.0232853
0.02384
0.0254444
0.0292885
0.0297263
0.028819
0.0312041
0.0330978
0.0326839
0.030425
0.0276353
0.0250792
0.0232223
0.0225349
0.0221068
0.0220224
0.0221045
0.0218978
0.0221415
0.0223831
0.0237982
0.025777
0.0287267
0.0315604
0.0337745
0.0357137
0.0371109
0.0379785
0.037437
0.0352359
0.0316752
0.0283266
0.0253682
0.0263825
0.0312307
0.0380877
0.0428419
0.0432555
0.0415636
0.0389713
0.0380714
0.0393028
0.0413741
0.0412163
0.0397493
0.0370673
0.0357226
0.0352193
0.0354109
0.0360226
0.03674
0.0385778
0.0398912
0.0380885
0.0348947
0.0344413
0.03395
0.0330773
0.0292476
0.0244065
0.0207086
0.019584
0.0186924
0.0507786
0.0540835
0.0563465
0.0593509
0.0597499
0.0542827
0.0415257
0.0294762
0.0247133
0.0256007
0.0283687
0.0317118
0.034092
0.0363839
0.0379185
0.0391263
0.0398023
0.040191
0.0405582
0.0408439
0.0421712
0.0432979
0.0427256
0.0406314
0.0379047
0.0342508
0.0279898
0.0214536
0.0178859
0.0166218
0.028305
0.0235422
0.0206218
0.0207531
0.0219641
0.0243441
0.0274405
0.0297584
0.0294854
0.025769
0.0229991
0.0237302
0.0279585
0.0328666
0.0376424
0.0434993
0.0495752
0.0525896
0.0532118
0.0526212
0.0526171
0.0522995
0.0517678
0.0520578
0.0561648
0.0616415
0.060538
0.0570194
0.0495563
0.042268
0.0260445
0.0320451
0.0328878
0.0307743
0.0261815
0.0237269
0.0227764
0.0255842
0.0306208
0.0387229
0.0460598
0.0512006
0.052233
0.0518344
0.0498452
0.0479559
0.0464991
0.0471359
0.0480164
0.0487488
0.0501999
0.051515
0.0520693
0.0529987
0.0523591
0.0514265
0.0547682
0.0612061
0.0509034
0.0162947
0.0165865
0.023304
0.0354997
0.0417422
0.0378757
0.0311406
0.0290019
0.0327969
0.0373964
0.0372192
0.0323899
0.0293804
0.0302155
0.0321219
0.0345483
0.0353148
0.0350509
0.0363397
0.0359151
0.0367203
0.0365147
0.0359583
0.0363755
0.038972
0.0446863
0.0502631
0.0538439
0.0439631
0.0204418
0.0125177
0.0180043
0.0243196
0.0317004
0.0384015
0.0406228
0.0415705
0.0419255
0.0376516
0.0334766
0.0288833
0.0296217
0.0313172
0.0327346
0.0311948
0.0300499
0.0285962
0.0292191
0.0330739
0.0407504
0.0494375
0.0570358
0.0618788
0.0631378
0.0591499
0.0471628
0.0352161
0.0263666
0.0212925
0.0167144
0.0127181
0.0191727
0.0263144
0.0380176
0.0441635
0.0453387
0.0452928
0.0438789
0.0387161
0.0362992