/*--------------------------------*- C++ -*----------------------------------*\
| =========                 |                                                 |
| \\      /  F ield         | OpenFOAM: The Open Source CFD Toolbox           |
|  \\    /   O peration     | Version:  2.1.1                                 |
|   \\  /    A nd           | Web:      www.OpenFOAM.org                      |
|    \\/     M anipulation  |                                                 |
\*---------------------------------------------------------------------------*/
FoamFile
{
    version     2.0;
    format      ascii;
    class       volScalarField;
    location    "0.003450000";
    object      G;
}
// * * * * * * * * * * * * * * * * * * * * * * * * * * * * * * * * * * * * * //

dimensions      [0 0 0 0 0 0 0];

internalField   nonuniform List<scalar> 
12384
(
1
1
1
1
1
1
1
1
1
1
1
1
1
1
1
1
0.999997
0.99999
0.99997
0.999849
0.999588
0.997124
0.996304
0.971621
0.986059
0.951378
0.980153
0.983284
0.99259
0.994948
0.998931
0.999599
0.999996
0.999999
0.999992
0.999973
0.992862
0.937518
0.977871
0.999562
1
1
1
1
1
1
1
0.999999
0.999966
0.999886
0.999854
0.99996
0.999988
0.999998
1
1
1
1
1
1
1
1
1
1
1
1
1
1
1
1
1
1
1
1
0.999998
0.999297
0.995043
0.987633
0.979579
0.957098
0.8961
0.778754
0.614011
0.452951
0.319984
0.222216
0.159679
0.119606
0.107676
0.0785748
0.103596
0.0948661
0.181095
0.322655
0.548585
0.770978
0.927746
0.975838
0.995392
0.999658
0.999994
1
1
1
0.999953
0.995701
0.98414
0.971149
0.96105
0.946492
0.924481
0.90118
0.878872
0.864367
0.850421
0.843487
0.838625
0.837222
0.834535
0.837453
0.83888
0.846138
0.849656
0.853052
0.860535
0.877739
0.915811
0.970577
0.994494
0.99929
0.99942
0.999934
1
1
1
0.999957
0.999227
0.997919
0.989362
0.963373
0.999687
0.999623
0.999934
0.999766
0.987024
0.97178
0.632978
0.765043
0.685254
0.788638
0.691666
0.70525
0.682364
0.692242
0.764773
0.857041
0.956944
0.993936
0.996887
0.989893
0.997833
0.999997
1
1
1
0.999948
0.991661
0.981133
0.983928
0.987469
0.992062
0.992402
0.992128
0.989791
0.992837
0.993846
0.981136
0.522676
0.290167
0.161308
0.101452
0.0565829
0.039102
0.0259561
0.0247426
0.0264658
0.0585471
0.148689
0.397587
0.827321
0.990222
0.999982
1
1
1
1
1
1
1
1
1
1
1
1
1
1
1
1
1
1
1
1
1
1
1
1
1
1
1
1
1
1
1
1
1
1
1
1
1
1
1
1
1
1
1
1
1
1
1
1
1
1
1
1
1
1
1
1
1
1
1
1
1
1
1
1
1
1
1
1
1
1
1
1
1
1
1
1
1
1
1
1
1
1
1
1
1
1
1
1
1
1
1
1
1
1
1
1
1
1
1
1
1
1
1
1
1
1
1
1
1
1
1
1
1
1
1
1
1
1
1
1
1
1
1
1
1
1
1
1
1
1
1
1
1
1
1
1
1
1
1
1
1
1
1
1
1
1
1
1
1
1
1
1
1
1
1
1
1
1
1
1
1
1
1
1
1
1
1
1
1
1
1
1
1
1
1
1
1
1
1
1
1
1
1
1
1
1
1
1
1
1
1
1
0.999635
0.999572
1
1
1
0.999892
0.999806
0.999465
0.997275
0.988057
0.957634
0.87972
0.803072
0.589286
0.532274
0.36495
0.315215
0.333941
0.449432
0.46126
0.630029
0.591701
0.754375
0.864293
0.648095
0.452642
0.0333895
0.000548962
0.00187327
0.0281817
0.348463
0.961975
0.999998
1
1
0.99995
0.989009
0.745004
0.339346
0.163877
0.167641
0.164576
0.306542
0.55454
0.758289
0.958375
0.992479
0.999559
0.999921
0.999993
0.999985
0.999993
0.999932
0.999907
0.99973
0.99895
0.999467
0.996665
0.991421
0.879398
0.57734
0.535291
0.79046
1
0.998664
0.92851
0.877996
0.805101
0.566298
0.218112
0.0619139
0.017408
0.0055136
0.00177138
0.000591343
0.000171222
5.41603e-05
1.67845e-05
5.03821e-06
1.96651e-06
9.39757e-07
6.11e-07
4.77923e-07
1.12083e-06
6.08061e-06
8.78839e-05
0.00181521
0.0154151
0.0601222
0.142714
0.36188
0.731921
0.934976
1
0.992128
0.570973
0.496526
0.419715
0.296181
0.166962
0.0657385
0.0185754
0.00451438
0.00114362
0.000432468
0.000250244
0.000210668
0.00025253
0.000396097
0.000775717
0.0015763
0.00333546
0.00659585
0.0096962
0.010236
0.00936967
0.011087
0.0320382
0.106371
0.240698
0.205961
0.262004
0.81064
1
0.999207
0.434755
0.0850645
0.00971913
0.025852
0.792065
0.96112
0.958535
0.984212
0.97011
0.978644
0.912837
0.22713
0.325284
0.0890448
0.0609212
0.0255245
0.00902043
0.0028058
0.00114559
0.000790677
0.00101578
0.00238525
0.00905241
0.0223741
0.0189503
0.031287
0.23469
0.937336
1
0.999653
0.543542
0.253583
0.24547
0.246623
0.315056
0.336391
0.315997
0.261234
0.229317
0.260817
0.239635
0.0314344
0.000702255
0.000268419
0.000360951
0.000393389
0.000388345
0.000398751
0.000364774
0.000373224
0.000351374
0.000321898
9.83359e-05
3.18889e-05
3.96016e-05
0.000302573
0.00633349
0.240964
1
1
1
0.921827
0.730868
0.870504
0.960414
0.988402
0.999566
0.999992
1
1
0.999555
0.673615
0.197708
0.134076
0.0642644
0.0130204
0.0847842
0.333407
0.562774
0.790207
0.893653
0.942867
0.971398
0.999352
0.999995
1
1
1
1
1
1
1
1
1
1
1
1
1
1
1
1
1
1
1
1
1
1
1
1
1
1
1
1
1
1
1
1
1
1
1
1
1
1
1
1
1
1
1
1
1
1
1
1
1
1
1
1
1
1
1
1
1
1
1
1
1
1
1
1
1
1
1
1
1
1
1
1
1
1
1
1
1
1
1
1
1
1
1
1
1
1
1
1
1
1
1
1
1
1
1
1
1
1
1
1
1
1
1
1
1
1
1
1
1
1
1
1
1
1
1
1
1
1
1
1
1
1
1
1
1
1
1
1
1
1
1
1
1
1
1
1
1
1
1
1
1
1
1
1
1
1
1
1
1
1
1
1
1
1
1
1
1
1
1
1
1
1
1
1
0.999999
0.760774
0.998417
1
1
0.999856
0.9994
0.998134
0.996002
0.988986
0.965234
0.872226
0.768029
0.587142
0.55248
0.452418
0.40766
0.362989
0.495622
0.646232
0.812727
0.874422
0.933211
0.964575
0.854108
0.651842
0.0631502
0.00070263
0.00137403
0.0274734
0.345518
0.931428
0.999863
1
0.999998
0.998766
0.908067
0.235884
0.0215594
0.00476289
0.00608118
0.0379165
0.150991
0.245074
0.442357
0.597247
0.876065
0.96984
0.996855
0.999775
0.999849
0.999988
0.999963
0.999986
0.99999
0.999978
0.999996
0.999925
0.99926
0.953803
0.432509
0.367934
0.613739
1
0.995565
0.879985
0.801489
0.492786
0.148616
0.0634812
0.068826
0.0625379
0.0457759
0.0274495
0.0136119
0.00564569
0.00204184
0.000651108
0.000220607
7.96039e-05
2.9634e-05
1.44392e-05
7.21432e-06
3.38661e-06
4.37732e-06
2.1306e-05
0.000302452
0.00382728
0.0220304
0.0700115
0.208672
0.523632
0.773964
0.999986
0.976555
0.382804
0.386818
0.305467
0.168369
0.0493668
0.00738453
0.000913674
0.000148981
4.08955e-05
1.76877e-05
1.36124e-05
1.55526e-05
2.59614e-05
6.10585e-05
0.000199113
0.000639635
0.0022405
0.00538903
0.00771142
0.00674094
0.00446215
0.0059802
0.0180735
0.0651155
0.0885449
0.0516191
0.0914905
0.405712
0.999903
0.979133
0.170198
0.0163782
0.060031
0.758112
0.939481
0.949178
0.94916
0.980096
0.987048
0.983561
0.978998
0.703881
0.874287
0.177122
0.278204
0.0454641
0.0279681
0.0120516
0.00416719
0.00167485
0.00106875
0.00127879
0.00276254
0.00571681
0.00698188
0.00829613
0.0579207
0.629835
1
0.99935
0.653303
0.435554
0.305809
0.27308
0.235105
0.185897
0.142041
0.123012
0.134962
0.123897
0.0147363
0.000707228
0.000412069
0.00134354
0.00499045
0.010089
0.0155874
0.021283
0.0263615
0.0262973
0.0280729
0.0249911
0.00898163
0.000830451
4.98602e-05
1.38298e-05
0.000149726
0.00755948
0.998412
1
0.487003
0.432449
0.507861
0.672437
0.777509
0.927721
0.994123
0.99995
1
0.999861
0.788012
0.233027
0.159291
0.115494
0.0225454
0.00217958
0.000641616
0.00515188
0.22677
0.950708
0.995194
0.99515
0.995123
0.998953
0.999991
1
1
1
1
1
1
1
1
1
1
1
1
1
1
1
1
1
1
1
0.98832
0.999711
1
1
1
1
1
1
1
1
1
1
1
1
1
1
1
1
1
1
1
1
1
1
1
1
1
0.807669
1
1
1
1
1
1
1
1
1
1
1
1
1
1
1
1
1
1
1
1
1
1
1
1
1
1
1
1
1
1
1
1
1
1
1
1
1
1
1
1
1
1
1
1
1
1
1
1
1
1
1
1
1
1
1
1
1
1
1
1
1
1
1
1
1
1
1
1
1
1
1
1
1
1
1
1
1
1
1
1
1
1
1
1
1
1
1
1
1
1
1
1
1
1
1
1
1
1
1
1
1
1
1
1
1
1
1
1
1
1
1
1
1
1
1
1
1
1
0.997712
0.439458
1
1
0.998618
0.998213
0.99964
0.999911
0.999871
0.998954
0.983563
0.890454
0.736709
0.656911
0.646429
0.502153
0.432544
0.46821
0.693544
0.891834
0.976548
0.987909
0.994831
0.935881
0.718133
0.0513057
0.000182847
0.00079231
0.0163148
0.271413
0.875095
0.997802
1
0.999949
0.985501
0.751325
0.0707914
0.00108773
0.000985568
0.00453322
0.149889
0.488157
0.703579
0.564544
0.58041
0.559537
0.776349
0.915852
0.986962
0.994211
0.999618
0.999862
0.999948
0.999993
0.999989
0.999998
0.999997
0.99966
0.980249
0.278458
0.214731
0.449479
0.999999
0.989044
0.781166
0.445661
0.142068
0.137691
0.222891
0.1915
0.134453
0.0906306
0.0565916
0.0333963
0.0173157
0.00868485
0.00413181
0.00185599
0.00106063
0.000464154
0.000221109
8.87308e-05
3.92462e-05
1.94085e-05
5.51972e-05
0.000304032
0.00334932
0.0181093
0.0544746
0.145112
0.374646
0.486719
0.999047
0.953996
0.284486
0.281817
0.149332
0.029528
0.00229157
0.000192033
4.08912e-05
1.64267e-05
9.94774e-06
7.73226e-06
6.61322e-06
7.33683e-06
1.07736e-05
3.04445e-05
0.000106445
0.000644137
0.0027785
0.00640777
0.00735277
0.00451828
0.00315166
0.00397818
0.0121248
0.0202686
0.0181628
0.0153924
0.0462337
0.143677
0.985319
0.895327
0.0481006
0.00672306
0.559837
0.910035
0.901026
0.889466
0.895173
0.963979
0.94901
0.933946
0.821702
0.200153
0.254515
0.0692342
0.198149
0.0327103
0.0474441
0.0440858
0.0230537
0.00716034
0.00229923
0.00132931
0.00167183
0.00273192
0.00284553
0.00201541
0.00954072
0.183058
1
0.996239
0.638013
0.404756
0.255698
0.168138
0.0965256
0.0605595
0.0540603
0.0680192
0.067944
0.00700156
0.000362023
0.000400081
0.00277105
0.0139839
0.0311006
0.0436819
0.0462438
0.0458579
0.0454611
0.0394797
0.0390294
0.0386514
0.0370333
0.0143154
0.000361078
3.98098e-06
8.47519e-06
0.000223546
0.807135
0.999991
0.11805
0.212474
0.292995
0.33786
0.45986
0.731115
0.959052
0.996346
0.997642
0.847938
0.196758
0.101856
0.167962
0.108027
0.0166112
0.00470561
0.0367239
0.615431
0.879122
0.784739
0.61211
0.474565
0.577209
0.707638
0.672099
0.969472
0.999999
1
1
1
1
1
1
1
1
1
1
1
1
1
0.99997
0.997875
0.999489
0.999189
0.997962
0.998068
0.999208
0.999947
1
1
1
1
1
1
1
1
1
1
1
1
1
1
1
1
1
1
1
1
1
1
0.999748
0.999797
1
1
1
1
1
1
1
1
1
1
1
1
1
1
1
1
1
1
1
1
1
1
1
1
1
1
1
1
1
1
1
1
1
1
1
1
1
1
1
1
1
1
1
1
1
1
1
1
1
1
1
1
1
1
1
1
1
1
1
1
1
1
1
1
1
1
1
1
1
1
1
1
1
1
1
1
1
1
1
1
1
1
1
1
1
1
1
1
1
1
1
1
1
1
1
1
1
1
1
1
1
1
1
1
1
1
1
1
1
1
1
1
1
1
1
1
1
1
0.999998
0.332616
0.993251
1
0.984427
0.996984
0.999957
0.999998
0.999998
0.99997
0.998906
0.970978
0.856988
0.776387
0.718868
0.609778
0.4009
0.431657
0.708975
0.945622
0.994515
0.997376
0.998593
0.970379
0.679182
0.0331252
5.18808e-05
0.000108084
0.00230958
0.0859506
0.63228
0.964487
1
0.999626
0.858046
0.288711
0.00134884
0.000338248
0.00053209
0.0216421
0.559108
0.956556
0.962229
0.943601
0.776243
0.702045
0.710711
0.835491
0.962451
0.988956
0.999231
0.99987
0.999937
0.99999
0.999994
0.999995
0.999998
0.999614
0.942532
0.159975
0.103521
0.266918
0.999943
0.974293
0.496937
0.158241
0.196137
0.32003
0.22602
0.145462
0.096447
0.0642174
0.0420281
0.0265462
0.0153138
0.00945451
0.00663678
0.00712928
0.00874713
0.00896648
0.00382195
0.00136493
0.000352417
0.000167442
0.000232037
0.0010662
0.00656059
0.0270523
0.0635222
0.148311
0.295219
0.241443
0.982455
0.922454
0.217625
0.164074
0.0326899
0.00167142
0.000105725
2.04619e-05
1.13743e-05
1.54272e-05
3.21683e-05
5.15008e-05
5.58637e-05
4.82243e-05
4.98142e-05
0.000103386
0.000426858
0.00202359
0.00554146
0.00735799
0.00461498
0.00199954
0.00129951
0.00240468
0.00289671
0.00364148
0.00535024
0.0129049
0.0273429
0.0460369
0.848747
0.660666
0.0099725
0.0596783
0.818693
0.865488
0.855577
0.788335
0.797952
0.775172
0.642156
0.155078
0.00442843
0.000401431
0.00085633
0.00141502
0.00327254
0.00697986
0.016948
0.0304464
0.0295743
0.0127635
0.00389748
0.00161286
0.00139887
0.00189343
0.00190582
0.000510646
0.000760574
0.0158458
0.999903
0.970624
0.504186
0.266462
0.130211
0.055847
0.0258839
0.018207
0.0249126
0.036323
0.00478957
0.000200607
0.000258359
0.00240642
0.0149709
0.0323738
0.0428193
0.0451428
0.0420217
0.0389266
0.0384611
0.0357964
0.0366084
0.038034
0.0411896
0.036223
0.00485337
1.77986e-05
1.79328e-06
9.69161e-06
0.365433
0.985856
0.0555233
0.0743096
0.0747636
0.0683134
0.1241
0.392557
0.763884
0.870447
0.801724
0.217617
0.0283464
0.056056
0.149678
0.121499
0.0519999
0.107547
0.483761
0.486023
0.301757
0.209094
0.128322
0.0709564
0.0949378
0.236625
0.548639
0.632404
0.90524
0.999998
1
1
1
1
1
1
1
0.999982
1
0.999973
0.999979
0.987375
0.998323
0.995695
0.977036
0.942509
0.910203
0.913101
0.95164
0.985812
0.998793
0.999995
1
1
1
1
1
1
1
1
1
1
1
1
1
1
1
0.999864
0.980639
0.999951
1
1
0.999984
0.999994
0.999009
0.99999
1
1
1
1
1
1
1
1
1
1
1
1
1
1
1
1
1
1
1
1
1
1
1
1
1
1
0.999958
1
1
1
1
1
1
1
1
1
1
1
1
1
1
1
1
1
1
1
1
1
1
1
1
1
1
1
1
1
1
1
1
1
1
1
1
1
1
1
1
1
1
1
1
1
1
1
1
1
1
1
1
1
1
1
1
1
1
1
1
1
1
1
1
1
1
1
1
1
1
1
1
1
1
1
1
1
1
1
1
1
1
1
1
1
1
1
1
1
1
0.970861
0.808985
0.999836
0.83927
0.980295
0.999956
0.999999
0.999997
0.999942
0.997649
0.978625
0.908057
0.835935
0.756295
0.52863
0.369163
0.397343
0.768291
0.973446
0.998617
0.999208
0.999116
0.935432
0.340558
0.00177548
3.79238e-06
2.26738e-06
2.36554e-05
0.00225448
0.129661
0.697394
0.999996
0.997837
0.331448
0.00474187
0.000424599
0.000198952
0.000672712
0.0360643
0.658866
0.982386
0.997826
0.992933
0.982301
0.957749
0.958136
0.984638
0.998123
0.999929
0.999986
0.999986
0.999989
0.999992
0.999983
0.999986
0.999848
0.997251
0.792087
0.0799798
0.0399211
0.1243
0.997332
0.928343
0.197264
0.17256
0.320218
0.213836
0.123656
0.0755779
0.0457575
0.0269378
0.0168152
0.00907603
0.00496308
0.00412637
0.00455807
0.00816532
0.0243383
0.0442645
0.0378334
0.00921483
0.00211814
0.000889845
0.00127094
0.00415107
0.0171662
0.0400586
0.082045
0.149557
0.19131
0.0931426
0.923017
0.846345
0.135017
0.0406575
0.00285894
0.000285155
6.65737e-05
2.22543e-05
1.08812e-05
9.80189e-06
2.37281e-05
7.09721e-05
0.000156323
0.000249116
0.00048402
0.000951761
0.0027877
0.00506829
0.00481317
0.00265483
0.000992782
0.000482381
0.000640338
0.00128333
0.00305634
0.00771658
0.0181842
0.0333709
0.0349541
0.0224974
0.593398
0.445148
0.00190164
0.15675
0.762303
0.867447
0.753739
0.643151
0.472122
0.322798
0.0400394
9.39612e-05
9.82358e-05
0.000112552
0.000175498
0.000255252
0.000584858
0.00122552
0.00349923
0.00853753
0.0137253
0.0094257
0.00397996
0.00203025
0.0016126
0.00190993
0.00123454
0.000172298
9.12738e-05
0.000861432
0.93197
0.86562
0.307573
0.115504
0.038431
0.0140029
0.00669945
0.00747771
0.0170628
0.00831421
0.000167279
0.000133163
0.001249
0.00952162
0.0255054
0.035816
0.039635
0.0389563
0.0369665
0.0359594
0.0340065
0.0319108
0.0330649
0.0385113
0.0478816
0.0526739
0.0255514
0.000316892
2.50207e-06
9.32646e-07
0.11636
0.872342
0.0146049
0.00614822
0.00235657
0.00322881
0.0143607
0.115699
0.344872
0.36147
0.173626
0.0127152
0.00432925
0.0175126
0.084131
0.11285
0.163522
0.278135
0.215092
0.11168
0.0776504
0.0585395
0.0282973
0.00886381
0.00287669
0.00467484
0.088842
0.256891
0.400883
0.972581
1
1
1
1
0.999997
0.820624
0.246431
0.053636
0.673749
0.964183
0.994101
0.99879
0.992842
0.966642
0.927845
0.915426
0.920368
0.950446
0.977343
0.993277
0.999069
0.999989
1
1
1
1
1
1
1
1
1
1
1
1
1
1
1
0.985399
0.983065
0.999888
1
1
0.999995
0.999999
0.978935
0.992054
0.999892
1
1
1
1
1
1
1
1
1
1
1
1
1
1
1
1
1
1
1
1
1
1
1
0.999783
0.995045
0.997633
0.98081
0.999348
1
1
1
1
1
1
1
1
1
1
1
1
1
1
1
1
1
1
1
1
1
1
1
1
1
1
1
1
1
1
1
1
1
1
1
1
1
1
1
1
1
1
1
1
1
1
1
1
1
1
1
1
1
1
1
1
1
1
1
1
1
1
1
1
1
1
1
1
1
1
1
1
1
1
1
1
1
1
1
1
1
1
1
1
1
1
1
1
0.999813
0.519537
0.98746
0.407095
0.88586
0.99973
0.999995
0.999989
0.998859
0.977732
0.92912
0.886563
0.827881
0.601373
0.392867
0.255121
0.400718
0.852427
0.991793
0.999513
0.999137
0.991775
0.365471
0.00518891
1.68251e-06
4.67234e-07
3.72768e-07
1.29385e-06
2.94455e-05
0.00740746
0.235703
0.998574
0.811083
0.0128724
0.00126442
0.000251683
0.000283749
0.00144881
0.00959026
0.0477801
0.368801
0.922847
0.99742
0.999478
0.999752
0.999853
0.999972
0.999995
0.999999
1
0.999996
0.999901
0.999136
0.993489
0.996939
0.956549
0.923402
0.499976
0.0308439
0.00970699
0.0400912
0.967557
0.763574
0.101172
0.252568
0.199742
0.107422
0.0566945
0.0267503
0.0138788
0.00641913
0.00203704
0.000865764
0.000480773
0.000826741
0.00183931
0.00540936
0.0145059
0.0231878
0.0174636
0.00742679
0.0031093
0.0026787
0.0038702
0.0104031
0.0251363
0.0476586
0.0751762
0.100413
0.0644169
0.0382581
0.815624
0.700191
0.0599647
0.0109874
0.0025315
0.00140518
0.000632994
0.00014533
2.26522e-05
6.75211e-06
6.12198e-06
1.35884e-05
5.02183e-05
0.000189765
0.000466739
0.00102766
0.0013132
0.000977394
0.000508465
0.000329581
0.000457253
0.00193501
0.0101091
0.0401744
0.0957586
0.178253
0.233413
0.204289
0.115744
0.0323128
0.392117
0.268712
0.000447758
0.199959
0.700311
0.74921
0.725801
0.505985
0.299677
0.0534277
7.06367e-05
4.50633e-05
5.64332e-05
4.79583e-05
5.83709e-05
7.53595e-05
0.000146619
0.000311237
0.000917716
0.00289454
0.00669055
0.00779414
0.00533994
0.00274182
0.00294774
0.00257513
0.00119448
0.000124302
1.52856e-05
4.03019e-05
0.434064
0.604414
0.110819
0.0324623
0.00992132
0.00347399
0.0027628
0.00596464
0.00744727
0.000283028
6.14202e-05
0.000410981
0.00448027
0.0163294
0.0298087
0.0356536
0.0385713
0.0380076
0.0377685
0.0346292
0.0335287
0.0299844
0.0304524
0.0360608
0.055196
0.0725639
0.0557458
0.00524827
2.38437e-05
3.93923e-07
0.0434557
0.532695
0.00138934
0.000143763
9.41287e-05
0.000268427
0.00227723
0.0261103
0.0633759
0.0450627
0.0090723
0.000363549
0.000215612
0.0042234
0.0309208
0.0660967
0.100497
0.0790977
0.0355365
0.0246306
0.0278835
0.0230136
0.00834446
0.00166006
0.000343924
0.000135264
0.00109745
0.0361446
0.111688
0.733158
1
1
1
1
1
0.99979
0.99082
0.879998
0.894663
0.976951
0.997159
0.995015
0.96844
0.929466
0.907766
0.931015
0.964967
0.976589
0.971802
0.964913
0.976955
0.996392
0.99938
1
1
1
1
1
1
1
1
1
1
1
1
1
1
0.99765
0.997028
0.999995
1
1
1
1
0.996629
0.970567
0.987888
0.997882
0.999796
0.999999
1
1
1
1
1
1
1
1
1
1
1
1
1
1
1
1
1
1
1
1
0.999999
1
0.999939
1
1
1
0.999989
1
1
1
1
1
1
1
1
1
1
1
1
1
1
1
1
1
1
1
1
1
1
1
1
1
1
1
1
1
1
1
1
1
1
1
1
1
1
1
1
1
1
1
1
1
1
1
1
1
1
1
1
1
1
1
1
1
1
1
1
1
1
1
1
1
1
1
1
1
1
1
1
1
1
1
0.999999
0.999945
0.99999
0.999999
1
1
1
0.999999
0.999878
0.999966
0.999998
0.999846
0.794025
0.731107
0.24281
0.76168
0.999386
0.999987
0.999932
0.994611
0.893787
0.767854
0.739125
0.577784
0.419865
0.223259
0.20203
0.560892
0.959082
0.998234
0.999381
0.956718
0.230982
5.35162e-05
3.02182e-06
8.25528e-06
2.04563e-05
1.38053e-05
7.43941e-06
3.16952e-05
0.00253105
0.0774681
0.885545
0.325359
0.00351645
0.000688768
0.000415786
0.000976513
0.00246277
0.00475184
0.00972326
0.0259159
0.0681498
0.162054
0.569635
0.909192
0.988249
0.998411
0.999642
0.999249
0.990226
0.922564
0.511543
0.22019
0.142562
0.197735
0.189323
0.217418
0.111251
0.00731418
0.00163663
0.00915392
0.841712
0.557244
0.0888863
0.189954
0.104836
0.0482182
0.0191739
0.00765495
0.00314641
0.000573336
9.34775e-05
3.17102e-05
4.58045e-05
0.000124572
0.000418414
0.00113281
0.00200854
0.00202005
0.00161892
0.00137401
0.00115505
0.00157458
0.0031384
0.00706443
0.0151998
0.024373
0.0299461
0.0281867
0.0253615
0.0421855
0.647871
0.495468
0.0208681
0.0105691
0.0118235
0.0100963
0.00541709
0.00184654
0.000413032
6.33555e-05
1.23308e-05
9.88265e-06
1.18845e-05
2.18344e-05
4.41149e-05
5.85826e-05
0.000126713
0.000235043
0.00127436
0.00695639
0.0374798
0.102132
0.178583
0.250907
0.303377
0.344189
0.346268
0.279184
0.130118
0.0339308
0.279481
0.173414
8.26447e-05
0.119154
0.595929
0.850246
0.769287
0.592682
0.178035
0.00828915
5.37336e-05
4.35621e-05
4.8846e-05
3.40406e-05
3.3509e-05
3.23011e-05
4.47414e-05
8.87334e-05
0.000231826
0.000768485
0.00235212
0.00401695
0.00387239
0.00387289
0.00347002
0.00359551
0.00179563
0.000174303
4.84036e-06
1.61247e-06
0.0465693
0.337876
0.0290722
0.00814734
0.00260017
0.00149597
0.00252866
0.00533503
0.000831859
5.79015e-05
0.000228769
0.00210504
0.0103816
0.0212859
0.0329939
0.0386934
0.0420303
0.0420822
0.0390665
0.0369198
0.0332984
0.031479
0.0297716
0.0340175
0.0499913
0.0807552
0.0690025
0.0118398
6.67238e-05
1.07981e-07
0.00252284
0.165159
0.000124446
1.43413e-05
2.50079e-05
0.000112699
0.000904381
0.0048713
0.00697657
0.00344665
0.000334228
3.14479e-05
9.83126e-05
0.00251533
0.0111691
0.0180859
0.0186172
0.0122844
0.00902688
0.0112104
0.0179451
0.0152045
0.00461259
0.000556651
9.51258e-05
2.79714e-05
3.69104e-05
0.000721024
0.0323734
0.458037
0.99994
1
1
0.999999
0.99994
0.98168
0.781657
0.510128
0.806322
0.96412
0.985648
0.963984
0.904851
0.856485
0.8546
0.910413
0.946923
0.921724
0.842413
0.783263
0.763309
0.849499
0.885854
0.995034
0.999985
1
1
1
1
1
1
1
1
1
1
1
1
0.99997
0.999968
0.999999
1
1
1
1
1
1
0.9999
0.844731
0.79057
0.925247
0.967869
0.999969
1
1
1
1
1
1
1
1
1
1
1
1
1
1
1
1
1
1
1
1
1
1
1
0.999999
0.999256
1
1
1
1
1
1
1
1
1
1
1
1
1
1
1
1
1
1
1
1
1
1
1
1
1
1
1
1
1
1
1
1
1
1
1
1
1
1
1
1
1
1
1
1
1
1
1
1
1
1
1
1
1
1
1
1
1
1
1
1
1
1
1
1
1
1
1
1
1
1
1
1
1
1
1
0.99996
0.999475
0.999981
0.999999
0.999997
0.999992
0.999612
0.963366
0.757319
0.703467
0.9787
0.997814
0.334208
0.696883
0.557996
0.0206883
0.225651
0.635475
0.997043
0.999984
0.999914
0.994029
0.853309
0.542312
0.314538
0.250447
0.14055
0.155558
0.468254
0.916813
0.993456
0.99344
0.823381
0.013398
1.03617e-05
3.67918e-05
0.00064359
0.00262822
0.000901883
0.000100635
4.756e-05
0.000415411
0.00583082
0.0163882
0.0256922
0.271572
0.216653
0.00584176
0.0021178
0.00109463
0.00155369
0.00254142
0.00255095
0.00216703
0.00251756
0.00452462
0.00958409
0.0185241
0.0324729
0.0513685
0.0775891
0.289385
0.250099
0.14412
0.0799759
0.08722
0.0917881
0.0680044
0.0467184
0.0279192
0.0187728
0.0127744
0.00682894
0.000893965
0.000220815
0.00302141
0.0616309
0.267234
0.153236
0.0117109
0.0482373
0.0656866
0.0406396
0.018028
0.00638468
0.00231976
0.000612066
7.02341e-05
5.27243e-06
2.61684e-06
5.42036e-06
1.84488e-05
5.03382e-05
0.000108054
0.000152875
0.000133812
0.000139954
0.000170504
0.000187711
0.000354541
0.000599636
0.00120634
0.00188019
0.00276307
0.00433177
0.00819475
0.0222253
0.052349
0.0729828
0.235195
0.113373
0.00227424
0.00788066
0.015156
0.0159713
0.0110332
0.00723521
0.00512798
0.00349924
0.00192039
0.000967515
0.000364315
0.000222696
0.000227252
0.000474514
0.00135329
0.00397609
0.0114502
0.0242968
0.0436858
0.0673385
0.0946866
0.127799
0.16402
0.198423
0.21875
0.182866
0.102259
0.03204
0.0110574
0.0039676
0.159635
0.0175756
3.44504e-06
9.95887e-06
0.00805529
0.37909
0.814256
0.881955
0.640426
0.194179
0.000362467
7.07973e-05
6.03852e-05
5.73231e-05
4.60519e-05
3.33651e-05
2.34454e-05
2.1461e-05
2.7454e-05
5.75954e-05
0.000177418
0.000562359
0.00121972
0.00172743
0.00193065
0.00232062
0.00259725
0.00193795
0.000218023
1.38413e-06
6.35321e-08
1.26928e-06
0.127833
0.0964421
0.0116976
0.00548816
0.00225683
0.00123528
0.00149605
0.00324892
0.00171297
8.70428e-05
0.000101221
0.000742531
0.00513967
0.0146263
0.0294707
0.0390174
0.0487893
0.0500822
0.0465224
0.0424321
0.040647
0.0354425
0.0348631
0.0322641
0.0321061
0.0408188
0.0300309
0.00958561
0.000808765
1.39246e-05
5.00035e-08
2.87676e-09
0.410807
0.376911
0.000222528
2.09892e-05
6.46663e-06
1.11453e-05
5.37024e-05
0.000229316
0.000626874
0.000640357
0.000203785
2.46074e-05
1.24803e-05
0.000170014
0.0023359
0.00436111
0.00420495
0.0030308
0.00244023
0.00304984
0.00723842
0.014941
0.0158968
0.00484039
0.000535399
6.3361e-05
2.03523e-05
1.95422e-05
0.000354251
0.0141429
0.297223
0.835115
0.999978
0.9983
0.348589
0.992893
0.999584
0.998728
0.989265
0.895567
0.77155
0.854527
0.904916
0.861077
0.749947
0.648851
0.582681
0.604136
0.674249
0.653488
0.514812
0.377902
0.312337
0.277199
0.363849
0.386172
0.73492
0.935274
0.999679
1
1
1
1
1
1
1
0.999839
1
1
1
1
1
0.999994
0.999927
0.999977
0.999798
0.999953
0.999832
0.986999
0.999718
0.983933
0.645774
0.761394
0.253317
0.120163
0.609858
0.911198
0.975892
0.999999
1
1
1
1
1
1
0.999416
1
1
0.999821
1
1
1
1
1
1
0.999998
0.999998
0.99994
1
0.999986
0.998988
0.998036
0.9934
0.984305
0.998788
1
1
1
1
1
1
1
1
1
1
1
1
0.319611
0.999999
1
1
1
1
1
1
1
1
1
1
1
0.987807
1
1
1
1
1
1
1
1
1
1
1
1
1
1
1
1
1
1
1
1
1
1
1
1
1
1
1
1
1
1
1
1
1
1
1
1
1
1
1
1
1
1
1
1
1
1
1
1
1
1
1
1
1
1
0.99996
0.999902
1
1
1
0.999979
0.98929
0.698257
0.472662
0.281
0.452325
0.94305
0.610532
0.51615
0.256018
0.123918
0.345192
0.693914
0.988181
0.999935
0.999932
0.997534
0.942715
0.620461
0.355568
0.25132
0.36701
0.700301
0.924617
0.970517
0.943904
0.365633
0.00259383
8.33239e-06
0.000140943
0.000905111
0.00210611
0.0022556
0.000565868
0.00013409
0.000158584
0.000826088
0.00437826
0.0109635
0.0153197
0.0181631
0.0103505
0.00272965
0.00165815
0.00216274
0.00327073
0.00270317
0.00127682
0.000567588
0.00043017
0.000600293
0.0011395
0.00187608
0.00220362
0.00204141
0.00197811
0.00278867
0.00926772
0.0278872
0.0485416
0.0536047
0.0570494
0.0501497
0.0300974
0.0144496
0.0062136
0.0027262
0.000723327
6.30476e-05
0.00010955
0.00364537
0.00952896
0.00426819
0.00361293
0.00922222
0.0323584
0.027765
0.0182192
0.00774182
0.00270945
0.00083952
0.000220056
2.3453e-05
1.48269e-06
3.63076e-07
7.89955e-07
2.48376e-06
6.81714e-06
1.2032e-05
1.29671e-05
9.77578e-06
1.06276e-05
8.96058e-06
1.17731e-05
1.90026e-05
3.712e-05
8.56585e-05
0.000268218
0.000897553
0.0022884
0.00485417
0.00658152
0.00476564
0.00179388
0.000727293
0.00055477
0.00142387
0.00772395
0.0119896
0.0102396
0.00692157
0.00485969
0.00367251
0.0034132
0.00331263
0.0036396
0.00362383
0.00353275
0.00363689
0.00434317
0.00555511
0.00738406
0.00954621
0.0123971
0.0153342
0.0195201
0.0251573
0.0331742
0.0407775
0.0452079
0.0371135
0.020003
0.0050305
0.000918457
0.000170673
2.74523e-05
1.21787e-06
1.26626e-08
1.32079e-07
4.95196e-06
0.00950463
0.439553
0.888041
0.955759
0.81016
0.157177
0.00276091
0.000131672
0.000101669
9.75774e-05
7.74428e-05
5.51678e-05
3.34447e-05
1.78624e-05
1.38974e-05
1.71136e-05
3.93583e-05
0.000106634
0.000273474
0.000443112
0.000615091
0.000860767
0.00118493
0.00119295
0.000103164
2.14064e-07
7.92011e-09
1.38108e-06
0.0126892
0.00542952
0.00276307
0.00183016
0.00128916
0.00150888
0.00252033
0.00208112
0.000185846
0.00010263
0.000499327
0.00459144
0.0170115
0.0356252
0.0503331
0.0547463
0.0551455
0.0518152
0.0486012
0.0457415
0.0398463
0.0387999
0.0403987
0.0365391
0.0351871
0.0333943
0.00871382
0.000136518
4.32514e-06
1.18775e-05
1.36922e-05
3.01366e-08
0.000220624
0.00030808
3.13696e-05
4.48727e-06
2.43933e-06
3.04419e-06
7.38215e-06
1.90648e-05
4.23653e-05
3.71348e-05
1.51516e-05
7.43724e-06
3.69984e-05
0.000682353
0.00237528
0.0023501
0.00165018
0.00131206
0.00141754
0.00275853
0.00718188
0.0164088
0.0209483
0.00781498
0.000761817
8.66733e-05
2.61209e-05
2.21607e-05
0.000338828
0.0107861
0.197665
0.666756
0.721845
0.456617
0.492929
0.920086
0.950447
0.958543
0.945809
0.895759
0.822952
0.765136
0.678008
0.586117
0.428267
0.343806
0.264344
0.23223
0.18796
0.121871
0.0689599
0.0439746
0.0386853
0.0379452
0.0608293
0.0830337
0.215226
0.465179
0.988442
1
1
1
1
1
1
1
0.999999
0.999921
1
1
1
1
0.999968
0.998457
0.961776
0.9207
0.813173
0.111536
0.320953
0.279364
0.567463
0.495859
0.0310228
0.104496
0.0231439
0.032651
0.206247
0.471942
0.833336
0.950171
0.999998
1
1
1
1
1
0.48715
0.986005
0.999999
1
1
1
1
0.999987
0.999826
0.992514
0.995394
0.879175
0.674101
0.289384
0.0973655
0.0389914
0.0313535
0.790865
0.976563
0.999768
1
1
1
1
1
1
1
1
1
1
1
1
0.000320196
0.0183519
0.185594
0.11511
0.0087166
0.00659479
0.00287292
0.000972971
0.0037724
0.00274042
0.00539396
0.00132751
0.0377711
0.000566765
0.999187
1
1
1
1
1
1
1
1
1
1
1
1
1
1
1
1
1
1
1
1
1
1
1
0
1
1
1
1
1
1
1
1
1
1
1
1
1
1
1
1
1
1
1
1
1
1
1
1
1
1
1
1
0.999999
1
1
1
1
0.999999
0.985891
0.570351
0.46801
0.446569
0.217651
0.601118
0.67422
0.652785
0.358497
0.337638
0.759963
0.688853
0.945425
0.999487
0.999816
0.99879
0.986346
0.945153
0.88444
0.879607
0.910571
0.929649
0.904193
0.595548
0.0864096
0.000120608
1.00246e-05
5.3708e-05
0.000139575
0.000151542
0.000158679
9.8883e-05
4.51181e-05
3.5376e-05
0.000105048
0.000751634
0.00365375
0.00674323
0.00571575
0.00322869
0.00202292
0.00133866
0.0018374
0.00280653
0.00264394
0.00148001
0.000489884
0.000129122
5.12075e-05
3.96804e-05
4.82399e-05
5.96104e-05
7.19589e-05
0.000139566
0.000676021
0.00354836
0.00623633
0.00472577
0.00247222
0.00210679
0.00293069
0.00565823
0.00697207
0.00492999
0.00181002
0.000329966
2.73215e-05
1.00155e-05
0.000155728
0.00188686
0.00223299
0.00349596
0.00638363
0.0251506
0.0282823
0.0165038
0.0114839
0.00557062
0.00188766
0.000511397
0.000132987
3.26507e-05
1.95627e-06
1.70833e-07
1.20384e-07
3.34547e-07
9.44694e-07
1.50841e-06
1.03016e-06
6.30617e-07
7.22636e-07
6.21179e-07
1.16343e-06
3.76527e-06
2.2354e-05
9.29202e-05
0.000225164
0.000286945
0.000276801
0.000263777
0.000289696
0.000328956
0.000330428
0.000378241
0.000763153
0.0024758
0.00687142
0.00852641
0.00792335
0.00635732
0.00444851
0.00320977
0.00288552
0.00250476
0.00274012
0.00255197
0.00234871
0.00220314
0.00209355
0.0021777
0.00211093
0.0020404
0.00180573
0.00198026
0.00241106
0.003144
0.00410165
0.00471536
0.003788
0.00208551
0.000735859
0.000191364
2.0233e-05
3.06257e-06
8.96133e-07
5.57781e-08
6.19919e-08
2.5746e-07
5.03502e-06
0.00476146
0.592768
0.926435
0.975527
0.918809
0.489206
0.0106286
0.00032672
0.000268368
0.000193349
0.000143563
0.000106251
6.08107e-05
3.09476e-05
1.41941e-05
9.99369e-06
1.11492e-05
2.09174e-05
4.90978e-05
0.000101971
0.000171711
0.000259756
0.000360219
0.000209024
7.07279e-06
1.47813e-07
4.17246e-07
0.00109044
0.00394407
0.00191101
0.0014443
0.00145892
0.00187611
0.00257466
0.00215714
0.000493699
0.000157729
0.000389036
0.00306703
0.013654
0.0365293
0.0545207
0.063912
0.0601485
0.0543674
0.0486895
0.046471
0.0428729
0.0436002
0.0461365
0.0452421
0.044169
0.0388912
0.0353269
0.00739792
2.64452e-05
6.64473e-06
0.000719113
0.0073046
0.00082685
0.00139193
3.88768e-05
9.2369e-06
3.57105e-06
8.29813e-07
4.63321e-07
6.28812e-07
1.35922e-06
2.98509e-06
4.9863e-06
8.33407e-06
4.25587e-05
0.000509981
0.00213241
0.00255517
0.0019156
0.00144792
0.00128461
0.00176867
0.0035732
0.00830207
0.017568
0.0219343
0.00939875
0.00136972
0.000195916
5.48121e-05
4.24389e-05
0.000531445
0.0106327
0.0879457
0.184233
0.330946
0.468551
0.452307
0.552347
0.601453
0.653345
0.685887
0.665012
0.604719
0.514307
0.384007
0.266536
0.17016
0.1025
0.0667388
0.0350891
0.0189692
0.00795492
0.00451918
0.00275824
0.00285655
0.00333915
0.0062671
0.0120968
0.0341746
0.105436
0.795176
0.999828
1
1
1
1
1
0.999721
0.9993
0.995482
0.97928
0.982927
0.998986
0.999829
0.998056
0.944604
0.796804
0.455878
0.103932
0.0185638
0.00292181
0.00858783
0.00602263
0.0354622
0.0296344
0.000284171
0.00450363
0.000912569
0.00311492
0.0112658
0.0652005
0.316941
0.852969