/*--------------------------------*- C++ -*----------------------------------*\
| =========                 |                                                 |
| \\      /  F ield         | OpenFOAM: The Open Source CFD Toolbox           |
|  \\    /   O peration     | Version:  2.1.1                                 |
|   \\  /    A nd           | Web:      www.OpenFOAM.org                      |
|    \\/     M anipulation  |                                                 |
\*---------------------------------------------------------------------------*/
FoamFile
{
    version     2.0;
    format      ascii;
    class       volScalarField;
    location    "0.003450000";
    object      rhoUnburned;
}
// * * * * * * * * * * * * * * * * * * * * * * * * * * * * * * * * * * * * * //

dimensions      [1 -3 0 0 0 0 0];

internalField   nonuniform List<scalar> 
12384
(
1.50155
1.48032
1.48584
1.51863
1.53919
1.62076
1.73062
1.88546
2.28287
3.35978
5.80286
5.42083
5.36689
5.31813
8.22633
6.4827
5.22247
4.58644
4.30048
4.16138
4.12077
4.18759
4.17712
4.42588
4.31685
4.55152
4.43596
4.4607
4.38203
4.52147
4.23632
4.11121
3.37163
3.22592
3.31266
3.67793
4.68205
5.93833
5.5127
5.57271
5.2428
5.05435
4.91075
4.89977
4.55426
3.5151
3.52012
3.75566
3.93033
4.00617
3.94901
3.78164
3.59708
3.38503
3.15276
3.01382
2.85179
2.80781
2.73797
2.86981
2.9314
3.03799
3.33178
3.41522
3.64181
3.96825
4.05703
4.20669
5.35582
6.32876
6.54549
6.82422
6.92709
6.6994
6.83204
6.64536
6.79439
6.84386
6.89786
6.81584
6.88807
6.90455
6.87094
6.78654
6.71331
6.63494
6.40641
6.44853
6.64186
6.39714
7.18493
7.06669
7.81161
7.59222
7.37169
6.93133
6.92257
6.69993
6.69572
6.36013
6.33203
6.0835
6.45495
6.3444
6.25931
6.1882
6.10849
6.06538
5.93688
5.91901
5.65551
5.73999
5.45349
5.28871
5.43611
5.20285
5.21641
5.33288
5.47322
5.4347
5.44578
5.4618
6.14104
6.16547
8.00536
9.03811
9.39044
9.28804
9.09448
8.81306
9.00595
8.84858
8.63251
8.2285
11.1344
11.3793
10.9912
11.3382
11.6301
11.9872
6.48065
5.62045
4.6057
5.02623
5.17223
6.43077
5.53159
6.83454
4.56955
5.55014
4.43161
4.97763
4.51424
4.81872
4.91238
5.00425
5.16159
5.27219
5.43156
5.62415
5.66782
5.63313
5.6006
5.57406
4.16527
4.1747
4.21489
4.12517
4.16585
3.89579
3.99789
3.68047
3.84721
3.59508
4.08248
4.08078
5.20848
5.74391
6.21979
6.4154
6.33865
6.27463
6.20942
6.25349
6.58886
6.42513
8.29852
8.16109
8.55181
8.43055
8.25899
7.91978
7.8888
7.76683
3.05873
2.97317
4.44367
4.15024
6.42237
6.67954
7.58002
8.41451
8.57378
8.57676
8.6144
8.54902
8.5196
8.32833
8.09291
8.06218
8.2589
7.90504
6.58914
5.94601
5.5574
5.33011
5.16902
5.12782
4.98582
5.03345
4.92101
5.00533
4.90428
4.98866
5.42451
5.41682
5.41129
5.14511
5.05198
4.84841
4.76266
4.84311
4.95511
5.21675
5.24513
5.1724
4.9955
4.97495
4.97026
5.22565
5.0522
5.37595
5.24342
5.45828
5.56263
5.61192
5.83912
5.99751
6.29176
6.39614
6.68185
6.7711
7.10579
7.17662
9.12493
7.21824
6.53392
6.50794
6.85229
6.90293
6.87699
7.05052
6.42858
6.13077
7.13239
7.62919
7.09069
6.93459
7.06425
7.80252
8.14252
7.34898
8.01692
8.04326
7.79311
8.04179
8.08507
8.13916
7.8179
7.41675
7.31058
6.57432
5.85114
5.47776
7.46555
7.78886
7.82507
8.49222
8.68021
9.36543
9.33851
9.25466
9.50641
9.1464
9.21647
9.16131
9.08262
8.97964
9.41018
9.51037
9.6696
9.67242
9.44948
8.89971
8.51385
8.3821
8.19486
8.19138
8.23095
8.37792
8.6326
8.55675
8.67175
8.37012
5.24132
5.47134
5.59716
6.01101
5.66746
6.90988
5.7466
8.33844
9.66201
9.90859
11.5146
11.6249
11.7798
11.6929
11.8091
11.631
11.5917
11.269
11.1107
10.7911
10.6702
10.3621
10.2609
9.87452
9.61586
9.61434
8.87594
7.2663
6.42854
5.71786
6.46825
6.07518
6.70043
6.05771
6.76401
5.3544
6.39029
5.99392
7.02978
6.41134
7.05075
6.54453
6.51731
6.4957
6.18365
6.5967
6.35473
6.90656
6.75395
7.30137
6.91742
8.10887
7.05323
10.8405
6.89711
6.82716
6.28216
6.86606
6.52063
5.83962
1.34297
1.29253
1.24166
1.25869
1.23857
1.33192
1.40703
1.54775
1.79859
2.40181
4.0722
5.57896
5.44808
5.42249
5.92207
4.20548
3.76517
3.61017
3.60095
3.63822
3.7167
3.81611
3.86172
4.02425
4.03444
4.13396
4.13269
4.08137
3.90399
3.94538
3.68593
3.67856
3.20384
2.97869
3.03123
3.31467
4.25049
5.83983
5.52883
5.55795
5.33743
5.19142
5.03075
4.8893
4.48918
3.64585
4.19085
5.11956
5.71943
6.05397
5.87178
5.61569
4.97208
4.31854
3.73897
3.19308
2.88728
2.64305
2.51023
2.41212
2.39701
2.38586
2.47105
2.49763
2.59949
2.73209
2.88834
3.20439
3.96623
5.31389
6.58318
6.8091
6.90879
6.70597
6.94937
6.94645
6.73266
6.70373
6.72633
6.93537
6.978
6.93492
6.83041
6.75354
6.64497
6.35408
6.49374
6.33788
6.25908
6.60413
6.48238
7.19003
7.23819
7.42168
7.08964
7.04638
6.83271
6.82586
6.71638
6.62136
6.41164
6.2453
6.32836
6.49382
6.2926
6.20649
6.0995
6.00424
5.89108
5.91015
5.75345
5.75637
5.78744
5.50141
5.58312
5.52357
5.48031
5.63372
5.58493
5.71519
5.75439
6.19423
6.76579
7.51138
7.79619
8.26641
8.83716
8.84733
8.52869
8.51325
8.49363
8.5918
8.11929
7.99617
11.2203
10.7931
11.0048
10.9775
9.53827
4.91149
3.81069
3.73254
3.4467
3.56758
3.23712
3.82593
4.40112
5.01766
4.47634
5.06567
4.35501
4.70064
4.43576
4.6645
4.68879
5.01119
5.03273
5.13953
5.32297
5.54767
5.68757
5.71243
5.62999
5.58485
4.15368
4.1541
4.07465
4.02422
3.92993
3.85799
3.77724
3.66691
3.7312
3.63459
4.17014
4.36522
5.38899
5.88626
6.17348
6.20296
6.12275
5.96723
5.85866
6.1135
6.07112
6.97638
7.42573
7.98678
8.15168
8.22361
8.00092
7.92651
7.65646
7.72241
3.04784
3.57664
4.49927
5.10941
6.77697
6.33992
7.35901
7.17309
7.77159
8.09979
8.24295
8.49121
8.42025
8.2182
8.08182
8.0458
8.0951
7.11676
6.16006
5.88422
5.97107
6.57622
7.28256
8.18826
7.73973
8.00444
6.32773
5.73506
4.89225
5.12388
5.66987
5.42067
5.45511
5.10455
4.90514
4.87214
4.73108
4.70152
4.86162
4.95843
5.02167
4.88763
4.86149
4.9177
5.01119
5.02455
5.14539
5.1873
5.17509
5.05511
4.90612
4.84424
4.82236
4.95951
5.15079
5.36425
5.71074
6.01068
6.49927
6.70021
9.31507
6.96799
6.33775
6.21823
6.41662
6.4139
6.34908
6.21232
5.89889
5.77931
5.99052
7.34835
7.61491
7.34269
7.47796
6.94675
6.28959
6.44038
6.37781
6.43184
6.12057
5.99263
5.90474
5.86678
6.28293
6.75436
7.59931
7.38171
7.13136
6.9976
7.55352
7.75011
8.02302
8.4833
8.91512
9.63279
9.83346
9.52214
8.93091
9.27373
9.02963
8.80616
8.21077
8.2795
7.96625
7.96515
8.02696
8.13858
8.16841
8.16141
7.93964
7.70433
7.51609
7.33728
7.20232
7.20868
7.59829
8.10783
8.61126
8.86774
6.15177
5.89328
5.97752
6.14383
6.22479
6.741
6.23737
8.8606
8.77784
10.4594
9.08331
8.51871
8.60398
8.30715
8.85885
9.21124
9.90758
10.0724
10.6569
10.4121
10.3878
9.65311
9.10822
8.87181
8.45244
8.58069
8.3922
7.35061
6.80897
6.30261
6.38331
7.236
6.74897
7.10737
6.85888
7.75525
7.30656
8.04888
7.66281
8.16093
6.54187
7.12289
6.57554
6.68931
6.51531
6.81577
6.66797
7.13604
6.98848
7.6447
7.29782
8.61184
6.97534
9.61121
6.8606
7.17566
7.04242
7.35131
7.11352
6.03795
1.10142
1.07196
1.03754
1.05313
1.06037
1.09251
1.14316
1.21696
1.41261
1.73267
2.55253
5.29406
5.59199
5.45577
3.9739
3.53976
3.43541
3.38954
3.35106
3.379
3.51037
3.75235
3.93754
4.14625
4.17555
4.23374
4.20109
4.1377
3.86126
3.64051
3.33589
3.20199
2.85788
2.71009
2.76406
3.05338
3.97422
5.70137
5.64091
5.59224
5.35356
5.23251
5.07357
5.05671
4.58833
3.86266
4.72048
5.7202
6.62267
7.13865
6.90195
6.10969
5.40229
4.94824
4.45011
3.96688
3.40697
3.0085
2.71082
2.49499
2.40235
2.26512
2.24647
2.17012
2.14495
2.16731
2.29066
2.58948
3.32308
4.6449
6.62481
6.83488
6.86342
6.62864
7.07686
6.95978
6.95067
6.88964
7.11987
6.90152
6.79552
6.59358
6.47099
6.2898
6.08751
6.16307
5.86845
5.83657
6.1476
5.97756
6.45308
6.17281
6.85719
6.75542
6.97328
6.83988
6.9297
6.77269
6.81076
6.66398
6.58607
6.27956
6.4368
6.60759
6.28035
6.16786
6.08278
6.02171
6.05835
6.04285
6.20999
6.07202
6.09669
6.03909
5.85565
5.92558
5.88652
5.82266
6.06763
5.99215
6.50873
7.0923
7.60708
7.76041
7.94419
7.84962
8.00924
8.21058
8.21976
8.0641
8.25226
7.98385
7.88938
7.51103
10.5997
10.6982
10.5326
8.47367
4.68779
3.72333
3.52286
3.52459
3.06967
3.07163
2.61743
2.93868
2.73101
3.12651
3.51968
4.02884
4.08712
4.53204
4.23766
4.56117
4.62971
4.75785
5.0291
5.03646
5.20174
5.38597
5.6401
5.72465
5.61633
5.59459
3.94781
3.97892
3.9494
3.86085
3.77583
3.59215
3.58707
3.44451
3.62764
3.75784
4.50574
4.82683
5.61941
5.81642
5.99551
5.82654
5.69958
5.52507
5.28345
5.9025
5.41173
6.43899
6.64446
6.9815
7.53287
7.66219
7.7787
7.51729
7.56858
7.46081
4.11884
5.24928
5.85628
6.47491
6.44571
6.38853
6.27187
6.96965
6.90984
7.5095
8.02442
8.21904
8.19382
8.03412
7.82158
7.80185
7.98141
8.14277
8.31533
8.10402
7.78028
7.3224
7.02993
6.86049
6.90114
6.70867
7.16281
6.94038
7.65207
5.02906
6.3345
6.06031
5.99187
5.41178
4.96632
4.70861
4.69191
4.62601
4.80108
5.00288
5.12618
5.28292
5.51186
6.22013
7.02678
8.20335
8.23875
7.83529
7.94103
8.12169
8.28114
7.21347
5.83206
5.15932
4.87156
4.83483
4.99418
5.20985
5.53015
5.97134
9.23108
7.07379
6.10977
5.90206
5.94763
5.96991
5.78487
5.7633
5.56648
5.68696
5.85053
6.79472
7.81995
7.61508
7.61979
7.72343
7.80236
7.73311
7.37241
7.58425
7.36678
6.52778
5.99847
5.73317
5.61038
5.70678
6.46835
7.32214
6.91941
7.15437
7.55191
7.89357
8.1091
8.59915
9.11407
9.8002
9.24564
8.41113
8.02545
7.8421
7.53228
7.77258
8.08876
7.55875
7.13116
6.55031
6.2434
6.07367
6.04794
6.20095
6.39094
6.55792
6.53865
6.46733
6.2916
6.16359
6.2477
6.70472
7.25687
7.51813
5.39572
5.77219
5.93689
6.32988
6.18464
7.15278
6.17776
8.85974
8.16761
7.9447
6.57593
6.86392
6.43628
6.51183
6.33415
6.44448
6.71235
6.70155
6.99448
7.1783
7.25972
7.28339
7.10854
6.85005
6.78147
6.53551
6.50116
6.5325
6.8535
6.52089
7.31116
7.29941
7.93933
7.75585
8.09515
7.89633
9.01999
9.14541
9.64789
9.08026
9.36825
7.0471
7.07065
6.58941
6.88715
6.88914
7.19776
7.17239
7.58139
7.63267
7.9559
8.36185
7.57979
6.85699
6.11892
6.51752
6.77238
6.98784
7.16378
6.2975
1.03011
1.0866
1.14314
1.14939
1.14791
1.12175
1.12099
1.11714
1.18722
1.31466
1.82016
2.91306
5.74701
5.53798
3.39476
3.33091
3.07142
2.73626
2.52718
2.54905
2.77168
3.16031
3.59995
3.96057
4.15374
4.17109
4.27761
4.22437
3.99334
3.58693
3.15267
2.82223
2.54171
2.43295
2.57512
2.97626
4.01699
5.93586
5.77031
5.68659
5.48225
5.19753
5.07927
5.10984
4.74018
4.16047
4.7407
5.79459
7.16171
6.90311
6.59299
5.20888
4.34438
3.99929
4.16306
4.11388
3.99613
3.57464
3.21665
2.88073
2.70948
2.44796
2.30819
2.16272
2.0476
2.0214
2.1014
2.26421
3.04063
4.2328
6.67332
6.84219
6.79415
6.52364
7.41954
7.17036
7.14669
7.26943
6.90299
6.65209
6.28043
6.268
5.9805
5.89528
5.92393
5.6067
5.7956
5.85504
5.68961
6.01217
5.68957
6.25437
5.95023
6.69296
6.47997
6.81202
6.76956
6.87927
6.81938
6.80463
6.68095
6.51998
6.58353
6.79508
6.34031
6.23959
6.08914
6.13736
6.25922
6.4599
6.39412
6.52543
6.34757
6.2482
6.19682
6.17463
6.11043
6.20402
6.08873
6.85042
7.54215
7.95912
7.96884
7.84472
7.68765
7.8734
7.5129
7.56224
7.76104
7.9391
7.64099
7.64185
7.25681
7.43108
10.6713
10.2132
10.3972
5.10152
3.70939
3.49501
3.47937
3.40052
3.07962
3.03392
2.70202
3.03014
3.31833
3.46724
3.7524
3.67635
4.04766
4.44994
4.09214
4.4553
4.59637
4.68337
4.74949
4.95882
5.06351
5.3607
5.51607
5.66405
5.60345
5.52842
3.81119
3.67948
3.63249
3.62849
3.58567
3.64047
3.4088
3.63243
3.97441
4.37522
4.7807
5.28109
5.52702
5.65424
5.54392
5.44289
5.25419
5.04874
4.9357
5.47964
5.25497
5.67881
6.02034
6.31753
6.53903
7.12629
7.28142
7.385
7.12064
7.20147
7.74647
7.37616
7.06778
6.37995
6.19596
6.3371
6.29164
6.21925
6.69272
7.01816
7.59001
8.01668
7.87645
7.67584
7.64701
7.72712
7.79694
7.59232
7.24816
6.83755
6.38168
6.27745
6.2373
5.83685
5.43902
6.08917
6.05094
5.91526
6.55958
6.78669
7.0683
7.72634
7.79877
6.79027
5.65138
5.25477
4.86248
4.9156
4.93645
5.23984
5.83392
7.04906
8.61939
8.21549
7.36064
7.16085
6.65494
6.6379
6.53814
6.5615
6.76756
7.05359
7.43706
8.08232
8.67167
6.76614
5.29955
4.89867
5.07356
5.41199
8.26849
6.93995
6.08257
5.84552
5.796
5.68196
5.57048
5.51813
5.57081
6.02765
6.19799
7.53335
7.73366
6.50696
6.83397
6.7157
6.54041
6.22294
6.1976
5.8214
5.9516
6.36911
7.0012
7.68182
6.06847
5.51062
5.46397
6.02971
7.81457
8.19125
7.85842
8.00412
8.27578
8.71469
9.1982
7.79969
7.46961
7.43538
8.13935
6.92661
6.60306
6.34498
5.88003
5.77881
5.85718
6.04089
6.45822
6.98782
6.32487
5.8767
5.71014
5.74264
5.79004
5.82135
5.84827
5.73517
5.74591
5.99126
6.3232
6.4642
7.17155
7.03784
7.01612
6.81037
6.92624
6.938
6.78678
7.83975
7.43651
5.7647
5.8147
5.2273
5.62325
5.86038
6.6141
5.90058
5.71713
5.78805
5.76608
5.82718
5.88299
5.87734
5.87624
5.8837
5.77414
5.90266
5.75172
6.03019
6.36147
6.24669
9.62052
8.80447
7.8882
7.72667
7.38474
8.00723
8.20286
7.60468
6.7826
6.5814
6.34208
6.86538
7.96912
7.03977
6.7544
7.10911
7.15719
7.51124
7.4646
6.78745
7.23786
6.15579
6.42554
5.84162
5.8243
5.92318
6.23262
6.83153
6.87158
6.6051
1.24958
1.35709
1.45225
1.43448
1.38085
1.28278
1.21808
1.17025
1.16712
1.17862
1.37517
2.00115
4.45637
5.75038
3.40678
3.23262
2.72473
2.19758
1.94046
2.01478
2.2915
2.71678
3.25479
3.78847
4.0999
4.20674
4.29599
4.35301
4.08013
3.54295
2.96144
2.56645
2.28743
2.26278
2.43245
3.00564
4.12123
6.03181
5.90095
5.82484
5.61684
5.4467
5.26652
5.10456
4.93396
4.75591
5.34537
7.10185
6.97658
6.86996
5.85273
4.20127
3.37979
3.29014
3.41549
3.82066
3.9361
3.85995
3.59183
3.19564
2.9464
2.56991
2.36717
2.18421
2.07256
2.02457
2.10009
2.25958
2.99223
4.33505
6.73005
6.82427
6.71388
6.44343
7.59732
7.52078
7.47488
7.06994
6.62196
6.29229
6.23114
5.9085
5.88297
5.5677
5.607
5.59954
5.56903
5.48901
5.75276
5.50499
5.82269
5.44608
5.95785
5.68365
6.30913
6.26199
6.75895
6.72317
6.81867
6.77883
6.74087
6.59337
6.78799
6.91713
6.40895
6.20875
6.22312
6.47939
6.71904
6.76003
6.83593
6.63414
6.68259
6.42866
6.26324
6.27413
6.39076
6.4634
7.34814
7.98799
8.25501
8.14619
7.92105
7.73288
7.58086
7.33146
7.64491
7.41025
7.37924
7.43326
7.52074
7.12443
7.28478
6.90226
9.60954
9.83941
7.18467
3.92133
3.44833
3.5665
3.62595
3.64473
3.54574
3.75535
4.11679
6.17103
4.91102
5.78016
4.59822
4.85168
4.29157
4.36773
4.24345
4.35483
4.50105
4.67021
4.72566
4.8204
4.99653
5.15225
5.51817
5.54238
5.52219
5.56215
3.4869
3.57284
3.68133
3.58914
3.61238
3.46495
3.68661
3.71366
3.97807
4.57367
5.16909
5.2465
5.42073
5.29497
5.21963
5.00394
4.94308
4.88806
4.81422
5.27829
5.18921
5.64098
5.55249
5.78113
6.13458
6.3492
6.87216
6.83884
6.93485
6.95016
8.28267
8.11139
7.41104
6.97745
6.47725
6.39774
6.42402
6.13309
6.26062
6.78621
7.04228
7.09339
7.00331
6.97526
7.01576
6.96678
6.8551
6.55297
5.893
5.58831
5.76104
5.89502
6.03711
5.49784
4.72903
4.18067
4.8112
5.37768
5.7327
6.4941
6.92833
6.53324
6.57981
7.22762
6.26855
5.60144
5.40939
5.1399
5.72593
6.53803
8.8596
7.8971
7.41158
6.63421
6.70975
6.18899
6.26687
6.12622
6.10119
6.23848
6.26935
6.30206
6.49948
6.59666
6.95592
7.60864
8.50502
6.6232
5.0575
5.0484
7.34551
6.49072
6.06325
5.88813
5.84205
5.70205
5.53043
5.64747
5.78118
6.2403
5.36961
6.09287
5.99751
5.89627
5.99589
5.98006
5.62363
5.46039
5.14888
5.41051
5.5251
5.42988
5.8508
6.10719
7.27972
6.82259
5.68875
5.4139
5.88782
6.59595
7.96773
8.16759
8.42466
8.68115
8.62153
6.93839
7.13516
6.90745
6.05158
6.11184
5.81717
5.89984
6.12422
6.20897
5.41969
5.17128
4.84077
4.85319
5.22899
6.00902
6.70711
5.85296
5.71435
5.68884
5.73
5.71241
5.71463
5.73763
5.8663
5.91604
6.9191
7.05283
6.92276
6.86903
6.59535
6.87464
6.2833
6.36336
5.12079
4.88654
4.76824
4.92353
4.81037
4.61275
4.71309
5.13159
5.48748
5.82294
5.57982
5.53535
5.50104
5.45326
5.52045
5.46087
5.53867
5.41841
5.56217
5.62087
5.85943
5.78631
8.43052
8.97707
7.67317
6.0506
6.39035
6.01001
6.90922
7.32301
6.64521
6.09941
5.74475
5.59377
5.71154
6.51132
7.06886
6.7749
7.28418
7.28266
6.63694
6.97447
6.30068
6.68078
5.82413
5.84581
5.68057
5.68251
5.79931
5.97255
6.43868
6.69257
1.41226
1.67089
1.80417
1.75251
1.64881
1.48036
1.37272
1.2727
1.24381
1.21404
1.25074
1.48352
2.62925
5.82265
3.71517
3.34208
2.65534
1.97127
1.74536
1.88656
2.27708
2.72169
3.17958
3.70935
4.08009
4.2509
4.38482
4.34821
4.038
3.38592
2.77612
2.34033
2.11971
2.16589
2.54012
3.34482
4.73359
6.12471
6.09953
6.01581
5.90352
5.63361
5.36702
5.35983
5.12116
5.73319
7.10692
7.08747
6.95283
6.79594
5.72347
4.346
3.41782
3.10759
3.19094
3.34735
3.53492
3.50679
3.28555
2.93823
2.61681
2.4216
2.33083
2.24592
2.20853
2.23195
2.29843
2.60013
3.28076
4.64009
6.64541
6.83178
6.66213
6.51807
7.7729
7.78578
7.40544
6.7882
6.36765
6.33583
5.89277
5.8679
5.5289
5.7619
5.43589
5.60832
5.5501
5.55588
5.43343
5.61482
5.36755
5.62328
5.30136
5.79848
5.69504
6.39689
6.33744
6.71733
6.72308
6.77202
6.57196
6.54811
6.7652
6.90645
6.41057
6.35406
6.54132
6.73485
6.86261
6.9328
6.86248
6.87599
6.59221
6.5999
6.55309
6.5235
6.77114
7.66098
8.07605
8.28395
8.1233
7.96817
7.79599
7.64699
7.5022
7.50041
7.20417
7.41292
7.23885
7.00275
6.78786
6.9724
6.53975
6.61993
9.7586
8.82616
5.56574
3.65071
3.41275
3.53078
3.80196
4.12413
4.49962
5.52761
6.98243
6.45438
5.54982
5.72579
4.883
5.17397
4.415
4.58824
4.14975
4.37328
4.48669
4.55407
4.77835
4.72306
4.88393
5.22858
5.45089
5.60031
5.51722
5.58126
3.6528
3.67644
3.50436
3.53246
3.4776
3.66492
3.7237
4.26179
5.02799
5.41096
5.34015
5.34166
5.13018
5.09792
4.92573
4.86489
4.85807
4.72249
4.98223
5.08012
5.18537
5.41178
5.59858
5.4593
5.69231
6.06507
6.388
6.67822
6.62369
6.51457
8.36282
8.02298
8.00025
7.3185
7.24951
6.40509
6.30286
6.18817
5.93876
6.3363
7.07408
7.12894
7.00324
6.727
6.55118
6.58769
6.26324
5.86482
5.5818
5.60248
5.54053
5.54218
5.54689
5.7084
5.13138
4.00388
3.96928
5.28041
5.18848
5.76857
6.31216
6.59149
6.74718
6.64486
6.46629
7.01068
6.54221
6.34573
6.94243
7.95683
7.62939
7.24776
6.39876
6.50964
6.03714
6.27495
6.05549
6.0307
6.23138
6.49789
6.50523
6.73636
6.62541
6.59873
6.55931
6.49533
6.98463
7.9538
6.85414
4.91205
6.87945
6.44273
6.31418
6.19708
6.06398
5.90033
5.80224
5.8368
6.12001
5.20161
4.47527
5.26067
5.01561
6.7736
5.95066
6.35995
5.87618
5.48387
5.61178
5.82192
5.50972
5.8045
5.56659
5.85232
6.22218
6.82745
7.187
5.59592
5.52098
6.11462
8.17282
8.13822
8.52468
8.30999
8.07907
7.17937
6.51444
5.56401
5.52878
6.08627
6.24055
6.50619
6.7023
6.83345
6.88458
6.11972
5.54752
4.97539
4.60708
4.49211
4.83646
5.74769
6.45844
6.142
5.80153
5.77515
5.81662
5.79168
5.73293
5.66821
7.73545
7.5039
7.04849
6.60918
6.37184
6.06437
6.40716
5.38659
4.93845
5.13044
4.85629
4.92212
4.73307
4.59282
4.26598
4.11804
4.23576
4.70643
5.80972
5.78635
5.59657
5.58881
5.57572
5.59463
5.41741
5.35671
5.38465
5.4682
5.55477
5.55242
7.45274
8.29973
5.27617
6.03326
5.24364
5.51824
5.20388
4.64573
4.87901
5.10323
5.41888
5.41879
5.27863
5.37129
5.78168
7.24236
6.55366
7.46733
7.43459
7.16006
7.32259
6.77218
6.2113
5.5268
5.50444
5.39159
5.26999
5.53576
5.5673
5.96048
1.54165
1.95947
2.03029
1.98167
1.92088
1.76892
1.6517
1.51674
1.47192
1.43213
1.36879
1.40078
1.84868
5.82956
4.02813
3.59287
2.73012
1.90876
1.67948
1.92597
2.44326
2.90317
3.28111
3.6846
4.05257
4.33122
4.39512
4.30899
3.84929
3.15753
2.51522
2.16031
2.06755
2.33259
3.16557
4.4642
6.04021
6.24705
6.18001
6.19201
6.05962
5.7877
5.58453
5.37766
6.50924
7.06477
7.12245
7.04595
6.93424
6.69223
6.50672
6.31451
5.48988
4.23523
3.39911
3.10666
2.99976
2.96091
2.85921
2.75395
2.6645
2.61228
2.70167
2.85513
2.98212
3.1678
3.11226
3.49415
3.90138
5.0172
6.63254
6.77358
6.76042
6.49928
7.91109
7.82018
7.08313
6.65027
6.36164
6.03413
5.79588
5.80188
5.7013
5.83944
5.79417
5.50335
5.64123
5.45334
5.565
5.3849
5.4974
5.37898
5.47854
5.35136
5.86068
5.79291
6.3544
6.26726
6.35236
6.23748
6.36523
6.69008
6.81825
6.57862
6.49189
6.44309
6.68697
6.87267
6.82814
6.8366
6.82989
6.70418
6.64292
6.65916
6.527
6.8721
7.68235
7.96359
8.08215
7.95844
7.88886
7.74185
7.62998
7.47832
7.27954
7.03618
6.9646
6.64418
6.64888
6.4628
6.45715
6.19856
6.34881
6.10119
8.7256
8.92647
4.66525
3.34086
3.29912
3.53572
3.97674
4.5593
5.45894
8.22136
6.04086
6.63454
5.55381
5.7854
5.16915
5.34352
4.77122
4.61769
4.56175
4.50399
4.66457
4.77575
4.64127
4.87137
4.88181
5.03791
5.29035
5.52381
5.5254
5.63314
3.72015
3.55144
3.63115
3.61889
3.66647
3.63386
4.1201
4.77343
5.21002
5.24072
5.22487
5.00765
5.06403
4.8587
4.89074
4.76486
4.70596
4.90086
4.81072
5.16872
5.18072
5.31926
5.46323
5.74485
5.46243
5.7063
6.20083
6.70352
6.99616
7.15658
8.21447
8.48661
8.38266
7.94676
7.16665
6.63176
6.36624
5.95284
6.1525
6.16554
6.29693
6.23788
6.15738
6.15663
5.97154
5.47459
5.0087
4.7459
4.76389
4.74288
4.92073
5.10073
5.45682
5.38865
5.27986
4.31579
4.01688
4.76247
5.14609
5.10648
5.6901
4.98656
5.01832
5.12586
5.48347
5.635
6.75651
6.16667
6.62308
7.53594
6.5596
6.20858
6.3757
5.95729
6.18859
5.82979
6.15541
6.35291
6.2938
6.39777
6.62077
6.79732
6.91224
7.03523
6.94612
6.94509
6.73427
7.0654
8.58996
5.09978
6.34369
6.42407
6.61689
6.1396
6.38672
6.26113
6.20207
6.35772
5.47364
4.61633
4.34065
4.60353
4.56655
5.71608
5.90115
5.71981
5.19138
5.18699
5.82405
5.68508
6.08157
6.13567
6.16481
6.11397
6.28543
5.72269
5.83622
6.71679
5.53431
5.75204
8.59116
8.45546
8.30057
7.87421
6.92385
6.06504
5.45345
5.16238
5.94357
6.01225
5.35217
5.82868
5.49368
5.12279
5.39974
6.47375
6.68219
5.87976
5.23212
4.65903
4.34908
4.38931
4.86888
6.06302
6.78761
6.20203
6.07458
6.05115
5.92808
5.63387
7.87331
7.1835
6.52967
6.25742
6.03121
5.97596
5.89295
5.13113
5.02072
4.44598
3.69607
4.09753
4.44038
4.49924
4.72109
4.13035
3.88597
4.01563
4.26374
4.69952
5.34785
5.80942
5.88154
5.71653
5.60104
5.44935
5.30917
5.4111
5.52588
5.47434
6.71941
6.01994
5.02261
4.9709
5.22114
5.24503
4.32965
4.68024
4.06188
4.22351
4.25271
4.55025
4.85769
5.04851
5.22969
5.56401
8.11311
6.56134
7.78321
7.30498
7.66243
7.76506
5.94197
5.2208
5.1949
5.0353
5.05319
4.69592
4.93158
4.60118
1.65533
2.13239
2.2151
2.19764
2.1639
2.08092
1.9774
1.88986
1.9981
2.18124
2.0195
1.63499
1.66981
4.63352
4.41011
3.72184
2.85884
1.9574
1.6974
1.96139
2.5185
3.01505
3.35301
3.62746
3.96162
4.15597
4.25375
4.06189
3.48227
2.74849
2.22745
2.09379
2.42704
3.44778
5.24277
6.32164
5.9906
6.141
6.10947
6.12792
6.04398
5.96175
5.67276
5.45627
7.13517
7.08105
7.03496
7.00502
6.78827
6.64644
6.49827
6.30303
6.2284
6.20793
6.19699
5.28047
4.52599
4.01935
3.70402
3.61494
3.79028
4.15155
4.62387
5.31137
5.56853
5.44718
5.43538
5.18512
5.20269
5.77941
6.61118
6.94513
6.88892
6.86642
7.97896
7.73849
6.96105
6.60624
6.15548
5.88306
5.78511
5.96239
5.92943
6.08641
5.82825
5.69519
5.57574
5.40912
5.46331
5.42418
5.53733
5.33045
5.54797
5.38767
5.59076
5.92323
5.78527
6.16308
6.37554
6.54326
6.47707
6.39269
6.26887
6.06333
6.51052
6.56639
6.7361
6.61261
6.52016
6.40859
6.35175
6.4427
6.35514
6.45705
6.87042
7.48787
7.76295
7.83167
7.69196
7.61663
7.49038
7.332
7.07677
6.82257
6.55923
6.34993
6.12933
6.13798
5.88107
5.97817
5.84346
5.88554
5.94782
6.23641
7.96614
7.77807
4.44706
3.34403
3.17506
3.38108
3.87852
4.7841
6.31265
7.23491
6.16633
6.31728
5.60229
5.97093
5.49942
5.32367
5.06874
4.92793
4.59537
4.50129
4.50437
4.59133
4.79779
4.76912
4.98441
5.28626
5.5143
5.61515
5.64236
5.79179
3.78317
3.81167
3.74464
3.70958
3.6165
3.99726
4.52973
5.33404
5.87572
6.0628
5.67881
5.40031
4.97073
4.92705
4.70314
4.6369
4.81335
4.75334
4.96149
4.94773
5.33194
5.24646
5.7645
5.58652
6.33964
6.58236
6.97379
7.59258
8.25567
8.74566
7.85704
8.81612
8.88747
8.08358
7.3354
6.34365
6.3225
6.14229
6.08878
6.44039
6.46973
6.4425
5.90418
5.46857
5.36891
5.37609
5.15365
4.94341
4.80635
4.91115
4.83881
4.86345
4.72336
4.87897
4.62589
4.67988
4.4405
4.79353
4.80604
5.23099
5.66919
5.54127
5.35807
5.48539
5.56921
5.67921
5.31859
6.19119
5.65742
5.82563
6.61543
6.16897
5.83489
6.11868
5.82379
6.09362
5.85337
5.88023
6.12167
6.58475
6.38197
6.70156
6.9142
6.96509
7.23373
7.32555
7.34156
6.92277
7.73838
5.61561
6.00995
6.15844
5.6245
5.07276
5.38892
6.14066
6.31454
5.68166
4.90387
4.36994
4.2283
3.86341
4.12424
3.84255
3.88859
4.15452
4.97738
5.23604
5.24707
5.6503
5.55548
6.29632
6.60706
6.53091
6.93011
6.68719
4.93542
5.07414
6.02298
5.68618
9.1103
8.57006
7.9257
6.15235
5.61288
5.39577
5.1552
5.16421
5.52734
5.18172
4.38368
3.86638
3.78639
4.22284
4.81695
5.8775
6.30053
6.65888
5.9128
5.15161
4.69179
4.35125
4.1951
4.37093
5.02525
6.18835
6.71822
6.43364
6.20678
5.64966
7.83662
7.28516
6.41652
5.81033
5.05376
5.02491
4.78715
5.0042
4.42536
4.1156
3.76283
3.90853
3.93159
4.59085
4.48786
4.30534
4.03928
3.82073
3.78185
3.99867
4.21011
4.64556
4.91116
5.25955
5.26969
5.19272
5.38693
5.657
5.57169
5.27724
7.92986
7.24901
5.30834
4.0628
5.1581
4.59948
5.10188
4.48244
4.43177
3.90876
3.91125
3.92161
4.14506
4.40084
4.60147
4.89704
5.36652
7.26857
6.6126
7.54322
7.00001
6.21126
5.21333
4.82824
4.65895
4.84568
4.61541
4.75943
5.27197
4.03604
1.72047
2.23043
2.30793
2.255
2.18527
2.16852
2.16047
2.407
3.06486
3.59484
3.4315
2.43037
1.79802
3.1661
3.57816
4.25831
4.50069
3.74826
2.98052
2.07216
1.75298
1.95634
2.44036
2.95416
3.34863
3.65394
3.84344
4.0229
3.93297
3.46272
2.81137
2.3346
2.24113
2.72241
4.0598
6.41833
5.83033
6.04293
5.71404
5.93363
5.97307
6.01412
5.99941
5.82879
5.77945
5.92797
6.2135
6.33707
6.68827
6.85348
6.86327
6.74114
6.66297
6.52515
6.37324
6.29879
6.25676
6.24977
6.28328
6.27991
6.48759
6.48093
5.79708
5.92345
6.48012
6.74207
6.22057
6.22606
5.64067
5.58465
5.73258
5.75963
6.09957
6.36337
6.79526
7.00718
7.24083
7.27419
7.47927
7.29383
7.66177
7.20227
6.71982
6.3039
5.98235
5.74922
5.87904
5.88313
6.17097
5.9156
5.99858
5.56039
5.64131
5.40324
5.40815
5.57632
5.41834
5.70562
5.50179
5.76176
5.64856
5.72638
5.84115
5.62304
5.48719
5.54695
5.68265
5.67117
5.90821
6.14909
5.43871
5.1459
5.96453
6.23054
6.2663
6.19057
5.99629
5.82894
5.81653
5.74414
5.72886
6.42954
7.12696
7.29705
7.48584
7.29294
7.11966
6.75079
6.64501
6.49666
6.39315
6.24059
6.11935
6.00967
5.91219
5.75001
5.83921
5.74221
5.99726
5.73991
5.31227
4.57492
3.44076
3.59074
5.05041
5.38047
4.39404
3.05997
2.97679
3.16808
3.76988
4.78521
7.08082
7.17336
6.12947
5.96987
5.75702
5.92698
5.6089
5.5989
5.16152
5.06906
4.83106
4.82059
4.73232
4.83755
4.78913
4.82932
4.9897
5.11447
5.40208
5.7853
5.9513
5.78501
5.04585
4.28717
4.07091
3.85424
3.77425
3.67018
3.91713
4.34448
5.13146
5.6381
5.91863
5.69864
5.53082
5.23494
4.95809
4.78597
4.97931
4.92493
4.77098
4.72793
5.18126
4.99573
5.28648
5.75072
5.75943
6.57606
6.64746
7.1898
7.8708
8.88285
9.90968
10.9598
6.69827
7.82802
9.06562
9.47161
9.15907
8.4315
7.39488
6.37389
6.37627
6.25379
6.49109
6.52446
6.47361
6.22442
5.62001
5.2136
5.05199
4.62762
4.46237
4.31029
4.41603
4.34922
4.40443
4.46776
4.73792
4.66307
4.75507
4.40843
4.62363
4.47143
4.69622
4.89899
5.49469
5.2112
4.94264
4.52041
4.28664
4.3265
4.46139
4.53074
4.7714
4.43006
5.24454
4.8292
4.70335
5.15451
5.94994
5.69788
6.06308
5.8692
5.95656
6.15656
5.96844
6.1407
6.70851
6.56651
6.74004
7.12117
6.84017
6.38271
7.42368
7.58588
7.20799
8.25591
9.14032
6.16418
5.26085
5.34967
5.90692
4.8594
4.65384
5.07391
5.37087
5.00877
4.50638
4.43764
3.99851
3.71505
3.67934
3.35937
3.55111
4.31424
4.18463
5.02077
5.45236
4.96995
4.92402
5.51338
5.74777
6.53359
7.36011
7.04032
6.47633
4.57309
5.40928
5.74378
5.18271
6.27182
8.37276
6.61774
5.64718
5.22819
5.04879
5.19002
5.16133
5.15068
4.95904
4.80925
4.31528
4.28985
4.39754
4.30077
4.60311
5.35266
5.88904
6.23414
6.03257
5.54703
4.88224
4.53992
4.29631
4.15499
4.16847
4.56814
5.44565
6.88421
6.77158
5.79447
4.36409
4.51886
7.80171
7.54428
7.16164
6.64965
6.24422
5.69104
5.448
5.11714
5.05094
5.02599
5.53849
4.54846
4.72596
4.43449
4.55108
4.28494
4.07123
3.80519
3.71079
3.71226
3.83408
3.94709
4.20848
4.4835
4.52786
4.71627
5.43929
5.21765
6.07187
5.41404
5.09178
3.80289
4.21511
5.80137
5.87127
4.94607
4.23016
4.02876
3.80391
5.00778
4.55282
4.39089
3.78809
3.79157
3.68424
3.9298
4.1025
4.22641
4.4046
4.76233
5.6928
6.44492
6.02334
5.75096
4.56379
4.37416
4.43334
4.34451
4.379
5.44917
6.66345
7.06595
7.89232
8.16175
1.72539
2.24068
2.26108
2.10527
1.9509
2.04974
2.22048
2.90136
4.05197
4.34662
4.41008
3.63605
2.32077
2.57391
2.79502
3.33325
4.0039
3.64084
3.09469
2.30032
1.87369
1.94486
2.2742
2.68378
3.0771
3.35395
3.50051
3.38583
3.0316
2.64654
2.42661
2.4478
3.1788
4.78706
6.29287
6.30387
5.66198
5.89391
5.63751
5.85555
5.91274
5.91568
5.87855
5.88452
5.85973
5.80851
6.11735
6.36903
6.50532
6.69393
6.73607
6.57202
6.45596
6.37282
6.34348
6.27331
6.27291
6.21806
6.26643
6.46666
6.47994
6.74446
6.90203
6.91149
6.77307
6.59267
6.12994
5.83204
5.60185
5.54562
5.68012
5.68919
6.01191
6.40195
6.85717
7.14935
7.37255
7.47816
7.64625
7.52565
7.31817
6.78435
6.43008
6.11944
5.70411
5.73423
5.65178
5.90395
5.84148
6.06627
5.71924
5.75838
5.45429
5.38065
5.63495
5.50725
5.85495
5.62546
5.98291
5.77846
5.92346
5.76856
5.78966
5.7809
5.81988
5.73282
5.81153
5.9174
5.70177
5.42889
5.48416
5.57955
5.87851
5.76625
5.82491
5.66472
5.4905
5.43311
5.17084
5.40191
5.31256
6.01779
6.41466
6.59988
6.33497
6.25855
6.07713
6.20729
6.04372
6.06088
6.03927
6.13455
6.14717
6.10459
5.90113
5.9498
5.8659
6.06703
5.82867
5.48355
4.97238
4.71919
4.65766
4.21487
4.89801
6.38488
4.02843
3.05444
2.73495
2.98199
3.5066
4.70139
6.55535
6.85809
6.04251
6.11899
5.66017
5.76403
5.83456
5.60161
5.53684
5.12878
5.12781
5.03115
4.97897
4.77525
4.80594
4.9533
4.97565
5.24736
5.62911
5.91129
5.91202
5.93285
4.65192
4.38246
4.08798
3.99161
3.89775
4.19122
4.51465
4.9567
5.50103
6.0675
6.26611
6.32748
6.1123
5.91187
5.62011
5.24528
4.98712
5.07281
5.11936
5.41802
5.13343
5.06982
5.74847
5.64832
6.14874
6.31415
7.69138
8.17481
8.72396
9.29933
9.62124
10.5296
10.235
10.2217
9.74934
9.79396
9.3184
8.49776
7.62966
6.35621
6.4967
6.5832
6.64539
6.72641
6.37785
6.04789
5.67321
5.27295
4.90429
4.80698
4.7429
4.66616
4.59232
4.59054
4.48341
4.65378
4.59276
4.67686
4.76319
4.576
4.61254
4.71082
4.73308
5.14482
5.13201
5.20812
4.97245
4.40766
4.32334
4.39029
4.346
4.51778
4.45901
4.5675
4.07999
4.75617
4.813
5.29004
4.92261
5.64729
5.59516
5.97484
5.89175
6.15382
6.02277
6.16371
6.36576
6.5882
6.71847
6.88485
5.80537
4.75917
4.49175
4.96561
5.75467
6.44425
7.04255
8.01382
6.87729
5.43203
5.21974
5.77667
4.88975
4.45928
4.50355
4.46482
4.57474
4.34679
4.12737
4.20073
3.59651
3.4337
3.46312
3.66672
4.47719
4.47308
5.15326
5.37224
5.25877
5.54919
5.91571
6.7702
7.11928
7.20024
7.73646
6.02488