/*--------------------------------*- C++ -*----------------------------------*\
| =========                 |                                                 |
| \\      /  F ield         | OpenFOAM: The Open Source CFD Toolbox           |
|  \\    /   O peration     | Version:  2.1.1                                 |
|   \\  /    A nd           | Web:      www.OpenFOAM.org                      |
|    \\/     M anipulation  |                                                 |
\*---------------------------------------------------------------------------*/
FoamFile
{
    version     2.0;
    format      ascii;
    class       volScalarField;
    location    "0.001350000";
    object      H2O2;
}
// * * * * * * * * * * * * * * * * * * * * * * * * * * * * * * * * * * * * * //

dimensions      [0 0 0 0 0 0 0];

internalField   nonuniform List<scalar> 
12384
(
3.52687e-08
1.94566e-08
6.47731e-09
8.12295e-10
5.02235e-11
7.16583e-12
1.46438e-12
1.83843e-13
7.69963e-15
1.5661e-16
1.73275e-18
2.72996e-20
2.80047e-22
2.97231e-24
1.53095e-22
2.21998e-20
2.54566e-18
7.24552e-17
3.8548e-16
6.60609e-16
8.73894e-16
6.41928e-16
2.52866e-16
4.97019e-17
2.64468e-18
2.0756e-20
4.23066e-23
6.59822e-26
1.17868e-28
2.61947e-31
4.46804e-34
8.69447e-37
1.43997e-39
2.43521e-42
3.94371e-45
6.18356e-48
8.67682e-51
1.32859e-53
2.13586e-56
3.46945e-59
4.88702e-62
6.91945e-65
9.64863e-68
1.24201e-70
1.50724e-84
2.50858e-85
8.75203e-88
2.60208e-90
5.95369e-93
9.53815e-96
1.14641e-98
1.16747e-101
8.99192e-105
6.84846e-108
5.25384e-111
4.1214e-114
3.25437e-117
2.58572e-120
1.96178e-123
1.8158e-126
1.61751e-129
1.84724e-132
2.07644e-135
2.30286e-138
2.43983e-141
2.63225e-144
2.65141e-147
2.76504e-150
2.6997e-153
2.76496e-156
2.66353e-159
2.71786e-162
2.79774e-165
3.39906e-168
3.7849e-179
8.08223e-182
4.48306e-186
2.85495e-189
9.95156e-193
1.90351e-196
2.36114e-200
1.94079e-204
1.1317e-208
7.39108e-213
5.48818e-216
1.08748e-218
2.15046e-221
4.30421e-224
8.24395e-227
1.53984e-229
2.71023e-232
4.60059e-235
7.5479e-238
1.20486e-240
1.89141e-243
2.8984e-246
4.44665e-249
6.96849e-252
1.08297e-254
1.7185e-257
2.80145e-260
5.15708e-263
1.14086e-265
1.85972e-268
1.66606e-286
1.17996e-285
1.09873e-287
4.2798e-290
1.36993e-292
3.67006e-295
8.46502e-298
1.78276e-300
3.50827e-303
6.58062e-306
1.19446e-308
2.11907e-311
3.58521e-314
5.74456e-317
8.60317e-320
1.28457e-322
0
0
0
0
0
0
0
0
0
0
0
0
0
0
0
0
0
0
0
0
0
0
0
0
0
0
0
0
0
0
0
0
0
0
0
0
0
0
0
0
0
0
0
0
0
0
0
0
0
0
0
0
0
0
0
0
0
0
0
0
0
0
0
0
0
0
0
0
0
0
0
0
0
0
0
0
0
0
0
0
0
0
0
0
0
0
0
0
0
0
0
0
0
0
0
0
0
0
0
0
0
0
0
0
0
0
0
0
0
0
0
0
0
0
0
0
0
0
0
0
0
0
0
0
0
0
0
0
0
0
0
0
0
0
0
0
0
0
0
0
0
0
0
0
0
0
0
0
0
0
0
0
0
0
0
0
0
0
0
0
0
0
0
0
0
0
0
0
0
0
0
0
0
0
0
0
0
0
0
0
0
0
0
0
0
0
0
0
0
0
0
0
0
0
0
0
0
0
0
0
0
0
0
0
0
0
0
0
0
0
0
0
0
0
0
0
0
0
0
0
0
0
0
0
0
0
0
0
0
0
0
0
0
0
0
0
0
0
0
0
0
0
0
0
0
0
0
0
0
0
0
0
0
0
2.30594e-08
2.88256e-08
1.34341e-08
3.31347e-09
5.49667e-10
6.31222e-11
1.23862e-11
3.75284e-12
3.10939e-13
1.05388e-14
2.11326e-16
5.72728e-18
4.03328e-20
2.52436e-22
2.30625e-21
3.01424e-19
3.14124e-17
1.15645e-15
7.33815e-15
1.72748e-14
4.20821e-14
3.461e-14
8.44949e-15
1.28044e-15
9.20453e-17
6.60047e-19
1.16313e-21
3.11109e-25
8.00551e-28
6.76549e-30
4.28455e-33
4.09508e-36
3.24541e-39
4.05434e-42
5.03343e-45
6.52632e-48
8.06372e-51
9.80584e-54
1.30704e-56
1.53935e-59
3.50882e-62
6.57313e-65
9.8097e-68
1.31282e-70
3.67998e-82
3.84966e-83
1.28705e-85
4.34623e-88
1.13541e-90
2.01438e-93
2.78078e-96
3.26265e-99
1.28194e-102
6.50326e-106
3.82545e-109
2.94584e-112
2.45406e-115
2.21028e-118
2.0714e-121
8.25719e-124
9.28632e-127
2.24568e-129
2.46733e-132
2.68707e-135
2.58626e-138
2.54462e-141
2.40479e-144
2.25832e-147
2.09314e-150
1.981e-153
1.82292e-156
1.61577e-159
1.40978e-162
1.20807e-165
1.00944e-173
1.39057e-176
5.04077e-181
6.03467e-184
1.8446e-187
3.48323e-191
4.39702e-195
3.81081e-199
2.27285e-203
9.90865e-208
3.9552e-212
1.73275e-215
3.23982e-218
6.28478e-221
1.15753e-223
2.06435e-226
3.43977e-229
5.59927e-232
8.78229e-235
1.3817e-237
2.13222e-240
3.30457e-243
5.04957e-246
7.80377e-249
1.19856e-251
1.90217e-254
3.05839e-257
5.47483e-260
1.13262e-262
1.56312e-265
6.16175e-283
1.72317e-282
1.76237e-284
7.17593e-287
2.46846e-289
7.07209e-292
1.75725e-294
3.96875e-297
8.42871e-300
1.69609e-302
3.29618e-305
6.12895e-308
1.07092e-310
1.71703e-313
2.52772e-316
3.5425e-319
4.69362e-322
0
0
0
0
0
0
0
0
0
0
0
0
0
0
0
0
0
0
0
0
0
0
0
0
0
0
0
0
0
0
0
0
0
0
0
0
0
0
0
0
0
0
0
0
0
0
0
0
0
0
0
0
0
0
0
0
0
0
0
0
0
0
0
0
0
0
0
0
0
0
0
0
0
0
0
0
0
0
0
0
0
0
0
0
0
0
0
0
0
0
0
0
0
0
0
0
0
0
0
0
0
0
0
0
0
0
0
0
0
0
0
0
0
0
0
0
0
0
0
0
0
0
0
0
0
0
0
0
0
0
0
0
0
0
0
0
0
0
0
0
0
0
0
0
0
0
0
0
0
0
0
0
0
0
0
0
0
0
0
0
0
0
0
0
0
0
0
0
0
0
0
0
0
0
0
0
0
0
0
0
0
0
0
0
0
0
0
0
0
0
0
0
0
0
0
0
0
0
0
0
0
0
0
0
0
0
0
0
0
0
0
0
0
0
0
0
0
0
0
0
0
0
0
0
0
0
0
0
0
0
0
0
0
0
0
0
0
0
0
0
0
0
0
0
0
0
0
0
0
0
0
0
0
2.39207e-09
4.8934e-09
2.23418e-09
6.65683e-10
2.27303e-10
1.33569e-10
1.02547e-10
5.51274e-11
7.8035e-12
1.19585e-13
1.44118e-15
5.12336e-17
7.49574e-19
4.38242e-21
1.53403e-20
2.11047e-17
2.47124e-14
2.61371e-12
2.06242e-11
2.04347e-10
7.9338e-10
7.96549e-10
2.85356e-10
2.26149e-11
2.88162e-12
5.31626e-14
1.62309e-16
6.19872e-21
3.79858e-24
2.02058e-27
3.31661e-31
2.99398e-35
1.41808e-38
1.15219e-41
7.73355e-45
6.58783e-48
5.40124e-51
5.51545e-54
1.18141e-55
2.22361e-58
3.92929e-60
1.80618e-62
2.56544e-65
2.614e-68
1.57452e-80
5.27403e-81
2.29697e-83
7.73787e-86
1.70996e-88
2.37408e-91
2.28537e-94
1.62596e-97
7.87287e-102
4.72739e-105
3.11588e-108
2.18706e-111
1.47867e-114
1.19818e-117
8.63644e-121
1.9263e-123
7.65407e-127
9.50987e-129
7.72078e-132
8.76607e-135
7.37987e-138
7.96131e-141
7.45023e-144
9.56411e-147
1.04254e-149
1.23025e-152
1.53142e-155
1.29513e-158
1.02613e-161
4.85886e-165
1.9108e-173
8.14876e-175
1.1424e-178
2.35118e-181
6.3242e-185
1.19764e-188
1.57861e-192
1.5797e-196
9.61549e-201
4.59107e-205
1.51393e-209
4.19212e-214
7.69209e-218
1.34799e-220
2.45942e-223
4.18987e-226
6.62609e-229
1.00385e-231
1.47145e-234
2.22651e-237
3.3136e-240
5.16085e-243
7.80291e-246
1.22726e-248
1.85235e-251
2.97015e-254
4.79832e-257
8.66077e-260
1.76204e-262
1.64601e-265
3.82718e-282
4.52966e-282
4.0385e-284
1.82059e-286
6.45152e-289
1.91432e-291
5.18636e-294
1.23869e-296
2.73515e-299
5.7469e-302
1.14422e-304
2.19043e-307
3.96031e-310
6.56782e-313
9.47894e-316
1.24398e-318
1.41303e-321
0
0
0
0
0
0
0
0
0
0
0
0
0
0
0
0
0
0
0
0
0
0
0
0
0
0
0
0
0
0
0
0
0
0
0
0
0
0
0
0
0
0
0
0
0
0
0
0
0
0
0
0
0
0
0
0
0
0
0
0
0
0
0
0
0
0
0
0
0
0
0
0
0
0
0
0
0
0
0
0
0
0
0
0
0
0
0
0
0
0
0
0
0
0
0
0
0
0
0
0
0
0
0
0
0
0
0
0
0
0
0
0
0
0
0
0
0
0
0
0
0
0
0
0
0
0
0
0
0
0
0
0
0
0
0
0
0
0
0
0
0
0
0
0
0
0
0
0
0
0
0
0
0
0
0
0
0
0
0
0
0
0
0
0
0
0
0
0
0
0
0
0
0
0
0
0
0
0
0
0
0
0
0
0
0
0
0
0
0
0
0
0
0
0
0
0
0
0
0
0
0
0
0
0
0
0
0
0
0
0
0
0
0
0
0
0
0
0
0
0
0
0
0
0
0
0
0
0
0
0
0
0
0
0
0
0
0
0
0
0
0
0
0
0
0
0
0
0
0
0
0
0
0
3.86558e-08
8.65747e-08
6.72367e-08
1.82436e-08
7.39183e-09
4.43483e-09
3.98045e-09
3.0606e-09
1.33459e-09
1.65776e-10
1.54427e-12
1.30947e-14
2.17677e-17
5.715e-20
2.06324e-17
1.897e-13
5.07677e-11
9.42634e-10
1.70024e-09
2.60391e-09
1.88153e-09
1.18612e-09
1.02283e-09
6.55173e-10
3.32662e-10
1.14896e-10
7.46972e-12
2.4059e-14
1.70871e-17
5.6926e-21
1.02427e-24
3.80466e-29
1.51322e-32
7.89749e-36
4.55245e-39
2.01913e-42
9.97361e-46
3.74771e-49
5.82772e-53
1.91914e-56
6.581e-59
6.91824e-61
7.90126e-64
4.5481e-67
2.12115e-75
1.47154e-75
7.47252e-78
2.65697e-80
5.68584e-83
6.23609e-86
4.70533e-89
2.92239e-92
1.50271e-95
8.10294e-99
4.10942e-102
2.4377e-105
1.42752e-108
9.20708e-112
5.81125e-115
4.64948e-118
3.32061e-121
3.36507e-124
2.48438e-127
2.54023e-130
1.99746e-133
1.83044e-136
1.43448e-139
1.19672e-142
9.42904e-146
6.82669e-149
5.76222e-152
3.39806e-155
1.89736e-158
9.11318e-162
5.20568e-169
1.21326e-170
2.25647e-173
5.2093e-176
1.24466e-179
2.34588e-183
3.08182e-187
3.81912e-191
2.25234e-195
1.02306e-199
3.50052e-204
8.66148e-209
1.67454e-213
8.13629e-218
9.70266e-221
1.67394e-223
2.72765e-226
4.58553e-229
7.22534e-232
1.18909e-234
1.83108e-237
2.95959e-240
4.51795e-243
7.18249e-246
1.09443e-248
1.75373e-251
2.80604e-254
4.87177e-257
9.10637e-260
1.17915e-262
1.77443e-278
3.63174e-279
2.73432e-281
1.13861e-283
3.69389e-286
9.98326e-289
2.38997e-291
5.18418e-294
1.05701e-296
2.04008e-299
3.7717e-302
6.66359e-305
1.12838e-307
1.82944e-310
2.8518e-313
4.19583e-316
5.70241e-319
6.96633e-322
0
0
0
0
0
0
0
0
0
0
0
0
0
0
0
0
0
0
0
0
0
0
0
0
0
0
0
0
0
0
0
0
0
0
0
0
0
0
0
0
0
0
0
0
0
0
0
0
0
0
0
0
0
0
0
0
0
0
0
0
0
0
0
0
0
0
0
0
0
0
0
0
0
0
0
0
0
0
0
0
0
0
0
0
0
0
0
0
0
0
0
0
0
0
0
0
0
0
0
0
0
0
0
0
0
0
0
0
0
0
0
0
0
0
0
0
0
0
0
0
0
0
0
0
0
0
0
0
0
0
0
0
0
0
0
0
0
0
0
0
0
0
0
0
0
0
0
0
0
0
0
0
0
0
0
0
0
0
0
0
0
0
0
0
0
0
0
0
0
0
0
0
0
0
0
0
0
0
0
0
0
0
0
0
0
0
0
0
0
0
0
0
0
0
0
0
0
0
0
0
0
0
0
0
0
0
0
0
0
0
0
0
0
0
0
0
0
0
0
0
0
0
0
0
0
0
0
0
0
0
0
0
0
0
0
0
0
0
0
0
0
0
0
0
0
0
0
0
0
0
0
0
5.32678e-07
5.06187e-07
4.97147e-07
4.30753e-07
2.09989e-07
1.36199e-07
1.2855e-07
1.04522e-07
5.78441e-08
1.67759e-08
1.45971e-09
1.14205e-10
6.21293e-14
1.41249e-17
2.86286e-14
6.08895e-11
2.09461e-09
1.32884e-08
3.51485e-08
6.55844e-08
4.98987e-08
3.78647e-08
1.44831e-08
2.57342e-09
5.86136e-10
2.11939e-10
8.59549e-11
2.00568e-12
4.58858e-14
1.1435e-16
6.03233e-20
2.96406e-23
1.54334e-26
8.95025e-30
4.85984e-33
2.54318e-36
1.07027e-39
2.1037e-43
1.38263e-47
3.41255e-51
6.10764e-55
2.46924e-57
5.89852e-61
1.00675e-64
7.68314e-71
3.17914e-71
1.27355e-73
5.36884e-76
1.90237e-78
3.4076e-81
3.03455e-84
1.93731e-87
1.10129e-90
6.08285e-94
3.35333e-97
2.07303e-100
1.26147e-103
8.47452e-107
5.74862e-110
4.33734e-113
3.3193e-116
3.06481e-119
2.53434e-122
2.36012e-125
1.88002e-128
1.66304e-131
1.3218e-134
1.0671e-137
7.77766e-141
5.65193e-144
3.59394e-147
2.17486e-150
1.10983e-153
5.41927e-157
2.57442e-164
4.68673e-166
8.34279e-169
1.8922e-171
4.99948e-174
1.03282e-177
1.67637e-181
3.37628e-185
1.87058e-189
8.15645e-194
2.89524e-198
7.6568e-203
1.50362e-207
2.33347e-212
4.36907e-217
2.58375e-220
4.0213e-223
6.64816e-226
1.02884e-228
1.65852e-231
2.51526e-234
3.9806e-237
5.94083e-240
9.33688e-243
1.40205e-245
2.20824e-248
3.4267e-251
5.68339e-254
9.98948e-257
1.41416e-259
2.94649e-274
1.42202e-275
8.27842e-278
3.10251e-280
8.98464e-283
2.23617e-285
4.95479e-288
1.01809e-290
1.97745e-293
3.67749e-296
6.58108e-299
1.13349e-301
1.88324e-304
3.02102e-307
4.68626e-310
6.97129e-313
9.7366e-316
1.26482e-318
1.46737e-321
0
0
0
0
0
0
0
0
0
0
0
0
0
0
0
0
0
0
0
0
0
0
0
0
0
0
0
0
0
0
0
0
0
0
0
0
0
0
0
0
0
0
0
0
0
0
0
0
0
0
0
0
0
0
0
0
0
0
0
0
0
0
0
0
0
0
0
0
0
0
0
0
0
0
0
0
0
0
0
0
0
0
0
0
0
0
0
0
0
0
0
0
0
0
0
0
0
0
0
0
0
0
0
0
0
0
0
0
0
0
0
0
0
0
0
0
0
0
0
0
0
0
0
0
0
0
0
0
0
0
0
0
0
0
0
0
0
0
0
0
0
0
0
0
0
0
0
0
0
0
0
0
0
0
0
0
0
0
0
0
0
0
0
0
0
0
0
0
0
0
0
0
0
0
0
0
0
0
0
0
0
0
0
0
0
0
0
0
0
0
0
0
0
0
0
0
0
0
0
0
0
0
0
0
0
0
0
0
0
0
0
0
0
0
0
0
0
0
0
0
0
0
0
0
0
0
0
0
0
0
0
0
0
0
0
0
0
0
0
0
0
0
0
0
0
0
0
0
0
0
0
4.29241e-07
4.26458e-07
4.34689e-07
4.44922e-07
4.56728e-07
4.03077e-07
3.02328e-07
2.7095e-07
2.11084e-07
1.4379e-07
4.06539e-08
1.3597e-08
2.00557e-10
3.861e-14
7.42336e-12
1.98413e-09
3.34461e-08
1.79298e-07
3.05856e-07
2.90758e-07
3.04129e-07
1.57414e-07
4.7941e-08
1.05212e-08
3.97841e-09
1.16438e-09
1.20449e-10
3.51809e-11
7.18843e-13
1.08981e-14
1.14149e-16
1.90098e-19
1.45405e-22
1.0686e-25
7.36468e-29
4.76424e-32
2.72111e-35
1.24246e-38
4.78889e-42
1.40874e-45
2.95222e-49
5.17754e-53
6.147e-57
6.81373e-61
5.29126e-67
1.81181e-68
2.4484e-71
5.37249e-74
1.48878e-76
6.7238e-79
5.48006e-81
1.62343e-83
1.57162e-86
1.16256e-89
7.83467e-93
5.46811e-96
3.79868e-99
2.72008e-102
2.02982e-105
1.56484e-108
1.25386e-111
1.14851e-114
9.49607e-118
9.03239e-121
7.50262e-124
6.5934e-127
4.93391e-130
4.08117e-133
2.93657e-136
2.22183e-139
1.38377e-142
9.07677e-146
4.66311e-149
2.20042e-152
7.01008e-160
8.80229e-162
1.29262e-164
2.67819e-167
6.34862e-170
1.68059e-172
7.74718e-176
1.6315e-179
9.8397e-184
3.97352e-188
1.37333e-192
3.66656e-197
7.76895e-202
1.23955e-206
1.58658e-211
1.92605e-216
4.01776e-220
6.04831e-223
9.12206e-226
1.4075e-228
2.06117e-231
3.14751e-234
4.53196e-237
6.87277e-240
9.90373e-243
1.49665e-245
2.21187e-248
3.49796e-251
5.80418e-254
7.53462e-257
2.8309e-270
4.82669e-272
1.89374e-274
5.94619e-277
1.54124e-279
3.47653e-282
7.20753e-285
1.38861e-287
2.57644e-290
4.55477e-293
7.82599e-296
1.29265e-298
2.0838e-301
3.25243e-304
4.93967e-307
7.187e-310
9.98742e-313
1.30642e-315
1.58068e-318
1.70947e-321
0
0
0
0
0
0
0
0
0
0
0
0
0
0
0
0
0
0
0
0
0
0
0
0
0
0
0
0
0
0
0
0
0
0
0
0
0
0
0
0
0
0
0
0
0
0
0
0
0
0
0
0
0
0
0
0
0
0
0
0
0
0
0
0
0
0
0
0
0
0
0
0
0
0
0
0
0
0
0
0
0
0
0
0
0
0
0
0
0
0
0
0
0
0
0
0
0
0
0
0
0
0
0
0
0
0
0
0
0
0
0
0
0
0
0
0
0
0
0
0
0
0
0
0
0
0
0
0
0
0
0
0
0
0
0
0
0
0
0
0
0
0
0
0
0
0
0
0
0
0
0
0
0
0
0
0
0
0
0
0
0
0
0
0
0
0
0
0
0
0
0
0
0
0
0
0
0
0
0
0
0
0
0
0
0
0
0
0
0
0
0
0
0
0
0
0
0
0
0
0
0
0
0
0
0
0
0
0
0
0
0
0
0
0
0
0
0
0
0
0
0
0
0
0
0
0
0
0
0
0
0
0
0
0
0
0
0
0
0
0
0
0
0
0
0
0
0
0
0
0
4.22474e-07
4.248e-07
3.84332e-07
3.35865e-07
3.05319e-07
3.2225e-07
2.96437e-07
3.04689e-07
3.09358e-07
3.00129e-07
2.18524e-07
1.61112e-07
4.13837e-09
7.4137e-12
2.96213e-10
1.84131e-08
2.37167e-07
2.88948e-07
2.46011e-07
2.60667e-07
2.90959e-07
3.12226e-07
1.74281e-07
2.8036e-08
4.45471e-09
1.30159e-09
4.21036e-10
5.18466e-11
1.33152e-11
2.28121e-13
2.00017e-15
1.61478e-17
9.00985e-20
1.90412e-22
2.2942e-25
2.32339e-28
1.91464e-31
1.33546e-34
7.61155e-38
3.28509e-41
9.67822e-45
1.94368e-48
1.92356e-52
7.62432e-57
6.14156e-64
1.82285e-65
3.89711e-68
4.63447e-71
4.52629e-74
6.00402e-77
1.89973e-79
1.16357e-81
6.66154e-84
2.19459e-86
3.1312e-89
3.18082e-92
2.96572e-95
2.65212e-98
2.30118e-101
2.03583e-104
1.86145e-107
1.81507e-110
1.69763e-113
1.69475e-116
1.5457e-119
1.41923e-122
1.18734e-125
1.00629e-128
7.816e-132
5.89529e-135
4.07313e-138
2.57002e-141
1.35824e-144
6.14863e-148
8.06564e-156
7.1387e-158
8.53718e-161
1.47215e-163
3.50948e-166
9.36006e-169
2.76132e-171
4.64434e-174
2.88191e-178
1.20211e-182
4.24742e-187
1.2309e-191
2.86164e-196
5.064e-201
6.90284e-206
7.66068e-211
7.42676e-216
5.9081e-220
7.85883e-223
1.16895e-225
1.68652e-228
2.47586e-231
3.52765e-234
5.11551e-237
7.3072e-240
1.06927e-242
1.56427e-245
2.37273e-248
3.80265e-251
4.92994e-254
3.69621e-266
2.86045e-268
5.34592e-271
1.31995e-273
2.91844e-276
5.89521e-279
1.10685e-281
1.99322e-284
3.4439e-287
5.77805e-290
9.35083e-293
1.47723e-295
2.27425e-298
3.42594e-301
5.03446e-304
7.19746e-307
9.91366e-310
1.30826e-312
1.6254e-315
1.86152e-318
1.87745e-321
0
0
0
0
0
0
0
0
0
0
0
0
0
0
0
0
0
0
0
0
0
0
0
0
0
0
0
0
0
0
0
0
0
0
0
0
0
0
0
0
0
0
0
0
0
0
0
0
0
0
0
0
0
0
0
0
0
0
0
0
0
0
0
0
0
0
0
0
0
0
0
0
0
0
0
0
0
0
0
0
0
0
0
0
0
0
0
0
0
0
0
0
0
0
0
0
0
0
0
0
0
0
0
0
0
0
0
0
0
0
0
0
0
0
0
0
0
0
0
0
0
0
0
0
0
0
0
0
0
0
0
0
0
0
0
0
0
0
0
0
0
0
0
0
0
0
0
0
0
0
0
0
0
0
0
0
0
0
0
0
0
0
0
0
0
0
0
0
0
0
0
0
0
0
0
0
0
0
0
0
0
0
0
0
0
0
0
0
0
0
0
0
0
0
0
0
0
0
0
0
0
0
0
0
0
0
0
0
0
0
0
0
0
0
0
0
0
0
0
0
0
0
0
0
0
0
0
0
0
0
0
0
0
0
0
0
0
0
0
0
0
0
0
0
0
0
0
0
0
3.85701e-07
3.08383e-07
1.6186e-07
1.18348e-07
1.26132e-07
2.04831e-07
1.83535e-07
2.52684e-07
2.94733e-07
3.028e-07
3.02224e-07
1.59822e-07
4.98474e-09
3.89343e-11
3.36006e-09
7.23343e-08
1.2948e-07
2.10556e-07
2.28913e-07
2.55327e-07
2.85608e-07
3.13099e-07
2.514e-07
4.80627e-08
5.98887e-09
1.35785e-09
4.43164e-10
1.00517e-10
1.58419e-11
4.56182e-12
4.97742e-14
2.56031e-16
1.38737e-18
5.6352e-21
1.91141e-23
5.71106e-26
1.19659e-28
1.86837e-31
2.00748e-34
1.52813e-37
7.48371e-41
2.2383e-44
2.04543e-48
4.52258e-53
3.94247e-61
1.39301e-62
4.46585e-65
1.74166e-67
6.01663e-71
2.41476e-74
2.57373e-77
7.60578e-80
4.15778e-82
1.59946e-84
4.29171e-87
8.70626e-90
1.5941e-92
2.33872e-95
3.09323e-98
3.70283e-101
4.34575e-104
5.01349e-107
5.5458e-110
5.94965e-113
6.02404e-116
5.81882e-119
5.33869e-122
4.72167e-125
4.02155e-128
3.29554e-131
2.51755e-134
1.76928e-137
1.03922e-140
5.38719e-144
8.97933e-153
4.77643e-155
5.83332e-158
1.19254e-160
3.25464e-163
9.92671e-166
3.07578e-168
9.84546e-171
1.99982e-173
8.58064e-178
2.84051e-182
8.77044e-187
2.28463e-191
4.5419e-196
6.84318e-201
8.12441e-206
7.86716e-211
6.64489e-216
2.68842e-220
3.11793e-223
4.39897e-226
6.16684e-229
8.61328e-232
1.18263e-234
1.63277e-237
2.26309e-240
3.23975e-243
4.77373e-246
7.5543e-249
9.56842e-252
2.04043e-262
1.20943e-264
7.25778e-268
1.16574e-270
2.08278e-273
3.65021e-276
6.19997e-279
1.02135e-281
1.64239e-284
2.55329e-287
3.8827e-290
5.77736e-293
8.4824e-296
1.22173e-298
1.73143e-301
2.39447e-304
3.20723e-307
4.13226e-310
5.07756e-313
5.89805e-316
6.30482e-319
5.87938e-322
0
0
0
0
0
0
0
0
0
0
0
0
0
0
0
0
0
0
0
0
0
0
0
0
0
0
0
0
0
0
0
0
0
0
0
0
0
0
0
0
0
0
0
0
0
0
0
0
0
0
0
0
0
0
0
0
0
0
0
0
0
0
0
0
0
0
0
0
0
0
0
0
0
0
0
0
0
0
0
0
0
0
0
0
0
0
0
0
0
0
0
0
0
0
0
0
0
0
0
0
0
0
0
0
0
0
0
0
0
0
0
0
0
0
0
0
0
0
0
0
0
0
0
0
0
0
0
0
0
0
0
0
0
0
0
0
0
0
0
0
0
0
0
0
0
0
0
0
0
0
0
0
0
0
0
0
0
0
0
0
0
0
0
0
0
0
0
0
0
0
0
0
0
0
0
0
0
0
0
0
0
0
0
0
0
0
0
0
0
0
0
0
0
0
0
0
0
0
0
0
0
0
0
0
0
0
0
0
0
0
0
0
0
0
0
0
0
0
0
0
0
0
0
0
0
0
0
0
0
0
0
0
0
0
0
0
0
0
0
0
0
0
0
0
0
0
0
0
8.04973e-08
3.81479e-08
1.57556e-08
1.71103e-08
3.47165e-08
7.6104e-08
1.06176e-07
1.6689e-07
2.15384e-07
2.03957e-07
2.45234e-07
2.83339e-07
1.62871e-07
3.07088e-09
5.50398e-09
8.13499e-09
1.30447e-08
1.6241e-07
9.12688e-08
1.39367e-07
2.5984e-07
3.14449e-07
3.09501e-07
2.91517e-07
1.68696e-07
4.0294e-08
5.87097e-09
1.44991e-09
5.92092e-10
2.21696e-10
5.06694e-11
7.15823e-12
1.85197e-12
1.11325e-14
3.51041e-17
1.09807e-19
3.29087e-22
8.79163e-25
2.18605e-27
5.16784e-30
1.46831e-32
4.1752e-35
7.64519e-38
5.99334e-41
1.75593e-44
3.7886e-50
2.33088e-53
1.58344e-56
7.05959e-59
9.71833e-61
3.04939e-62
1.24483e-64
3.69722e-68
1.23326e-71
7.00057e-75
1.11731e-77
3.59809e-80
1.24833e-82
3.02163e-85
5.55592e-88
9.89945e-91
1.49356e-93
2.17407e-96
3.20406e-99
4.40424e-102
5.98629e-105
7.28893e-108
1.02661e-110
1.22991e-113
1.40562e-116
1.44664e-119
1.49644e-122
1.5266e-125
1.86584e-128
2.10905e-131
2.27617e-134
2.40651e-137
1.93718e-140
1.4049e-143
7.79532e-147
2.30609e-150
1.30042e-153
1.66525e-156
5.13572e-159
1.52634e-161
5.28708e-164
1.8316e-166
6.49592e-169
2.2612e-171
5.01465e-174
1.226e-178
3.19593e-183
9.16655e-188
2.09152e-192
3.59098e-197
4.61369e-202
4.69856e-207
4.00112e-212
3.09337e-217
2.34005e-221
2.55552e-224
3.05945e-227
3.68751e-230
4.56296e-233
5.638e-236
7.30352e-239
9.33954e-242
1.26243e-244
1.69714e-247
2.30962e-250
2.56389e-253
1.63035e-256
2.59805e-259
2.48275e-262
2.46547e-265
2.8817e-268
3.35969e-271
4.28633e-274
5.42741e-277
7.21518e-280
9.49139e-283
1.28558e-285
1.69769e-288
2.3211e-291
3.07034e-294
4.2055e-297
5.51578e-300
7.42759e-303
9.473e-306
1.20851e-308
1.45573e-311
1.71584e-314
1.89661e-317
1.91302e-320
1.4822e-323
0
0
0
0
0
0
0
0
0
0
0
0
0
0
0
0
0
0
0
0
0
0
0
0
0
0
0
0
0
0
0
0
0
0
0
0
0
0
0
0
0
0
0
0
0
0
0
0
0
0
0
0
0
0
0
0
0
0
0
0
0
0
0
0
0
0
0
0
0
0
0
0
0
0
0
0
0
0
0
0
0
0
0
0
0
0
0
0
0
0
0
0
0
0
0
0
0
0
0
0
0
0
0
0
0
0
0
0
0
0
0
0
0
0
0
0
0
0
0
0
0
0
0
0
0
0
0
0
0
0
0
0
0
0
0
0
0
0
0
0
0
0
0
0
0
0
0
0
0
0
0
0
0
0
0
0
0
0
0
0
0
0
0
0
0
0
0
0
0
0
0
0
0
0
0
0
0
0
0
0
0
0
0
0
0
0
0
0
0
0
0
0
0
0
0
0
0
0
0
0
0
0
0
0
0
0
0
0
0
0
0
0
0
0
0
0
0
0
0
0
0
0
0
0
0
0
0
0
0
0
0
0
0
0
0
0
0
0
0
0
0
0
0
0
0
0
0
0
0
0
0
0
0
0
0
0
0
0
0
0
0
0
0
0
0
2.73364e-09
2.66622e-09
1.73136e-09
1.94094e-09
3.82726e-09
1.23203e-08
3.14459e-08
3.58947e-08
3.67686e-08
2.76246e-08
2.49546e-08
5.74095e-08
2.97036e-07
7.35836e-08
1.42617e-07
1.81644e-07
9.50417e-08
7.96702e-08
1.2732e-07
3.02884e-07
1.38005e-07
6.33431e-08
6.88506e-08
6.02393e-08
2.72261e-08
8.03109e-09
2.36605e-09
9.02951e-10
3.28879e-10
2.06043e-10
9.28475e-11
2.12067e-11
4.34671e-12
5.27154e-13
1.25396e-15
2.11167e-18
4.76516e-21
1.27647e-23
3.11386e-26
6.28736e-29
1.42863e-31
3.40864e-34
8.60065e-37
2.60929e-39
7.92525e-42
6.23024e-45
7.20401e-49
1.74527e-52
3.08677e-55
2.52342e-57
1.83959e-59
1.30715e-62
6.30244e-66
3.12007e-69
1.96531e-72
2.06377e-75
4.43638e-78
9.8933e-81
2.12366e-83
3.79861e-86
6.03998e-89
9.23705e-92
1.34857e-94
1.81263e-97
2.36351e-100
3.12361e-103
4.02803e-106
4.61563e-109
5.28395e-112
5.82242e-115
7.2186e-118
7.99075e-121
8.54914e-124
9.03731e-127
9.44718e-130
1.13538e-132
1.29566e-135
1.92252e-138
1.24239e-141
6.24964e-145
2.95806e-148
1.6414e-151
1.65993e-154
2.24244e-157
2.87929e-160
3.57942e-163
4.96051e-166
9.43636e-169
2.5408e-171
8.7571e-174
3.21216e-178
1.20089e-182
4.00255e-187
1.00697e-191
1.71585e-196
2.14119e-201
2.05073e-206
1.59322e-211
1.09036e-216
6.52071e-221
7.32007e-224
9.17032e-227
1.14223e-229
1.45772e-232
1.88071e-235
2.46572e-238
3.28204e-241
4.43095e-244
6.1162e-247
8.48672e-250
1.06305e-252
1.3064e-255
1.50983e-258
1.83804e-261
2.4069e-264
3.22398e-267
4.34697e-270
5.80385e-273
7.65693e-276
9.97829e-279
1.29601e-281
1.67933e-284
2.18301e-287
2.82379e-290
3.63041e-293
4.61232e-296
5.82763e-299
7.26461e-302
8.92578e-305
1.07324e-307
1.25464e-310
1.41408e-313
1.52765e-316
1.5527e-319
1.43279e-322
0
0
0
0
0
0
0
0
0
0
0
0
0
0
0
0
0
0
0
0
0
0
0
0
0
0
0
0
0
0
0
0
0
0
0
0
0
0
0
0
0
0
0
0
0
0
0
0
0
0
0
0
0
0
0
0
0
0
0
0
0
0
0
0
0
0
0
0
0
0
0
0
0
0
0
0
0
0
0
0
0
0
0
0
0
0
0
0
0
0
0
0
0
0
0
0
0
0
0
0
0
0
0
0
0
0
0
0
0
0
0
0
0
0
0
0
0
0
0
0
0
0
0
0
0
0
0
0
0
0
0
0
0
0
0
0
0
0
0
0
0
0
0
0
0
0
0
0
0
0
0
0
0
0
0
0
0
0
0
0
0
0
0
0
0
0
0
0
0
0
0
0
0
0
0
0
0
0
0
0
0
0
0
0
0
0
0
0
0
0
0
0
0
0
0
0
0
0
0
0
0
0
0
0
0
0
0
0
0
0
0
0
0
0
0
0
0
0
0
0
0
0
0
0
0
0
0
0
0
0
0
0
0
0
0
0
0
0
0
0
0
0
0
0
0
0
0
0
0
0
0
0
0
0
0
0
0
0
0
0
0
0
0
0
0
1.17074e-10
1.97356e-10
2.06166e-10
2.93709e-10
4.07703e-10
6.97405e-10
1.91474e-09
4.5104e-09
7.68593e-09
6.12941e-09
5.41644e-09
4.16336e-09
2.81838e-09
9.66297e-09
6.109e-09
5.41482e-09
2.66335e-08
3.0396e-07
9.88672e-08
1.00361e-08
5.97019e-09
8.60605e-09
9.77978e-09
7.83617e-09
3.92754e-09
1.43826e-09
6.69436e-10
3.31531e-10
2.04949e-10
1.1988e-10
8.75852e-11
5.15291e-11
9.66259e-12
1.7257e-12
1.28444e-14
2.41244e-17
4.14098e-20
8.32737e-23
1.58116e-25
2.93851e-28
5.11278e-31
1.03653e-33
2.23674e-36
5.31517e-39
1.1517e-41
3.89305e-44
1.10801e-46
1.8031e-49
1.6443e-52
1.13363e-55
7.93573e-59
4.69306e-62
2.58773e-65
1.42974e-68
9.1668e-72
7.75247e-75
9.37345e-78
1.70237e-80
2.5914e-83
3.99224e-86
5.81076e-89
7.59628e-92
9.85636e-95
1.30796e-97
1.62687e-100
1.94294e-103
2.22606e-106
2.55587e-109
2.74565e-112
3.44245e-115
3.68177e-118
4.07895e-121
4.32378e-124
4.68263e-127
4.9914e-130
5.32335e-133
6.10097e-136
7.99864e-139
6.5015e-142
4.20405e-145
2.66008e-148
1.77761e-151
1.61925e-154
1.62104e-157
1.6645e-160
1.70264e-163
1.77649e-166
2.16766e-169
3.0613e-172
5.59195e-175
1.10295e-179
2.34387e-184
4.89399e-189
9.22431e-194
1.34342e-198
1.55897e-203
1.53901e-208
1.40088e-213
1.1978e-218
5.15825e-223
5.45805e-226
7.21256e-229
9.12442e-232
1.17504e-234
1.47956e-237
1.89009e-240
2.39754e-243
3.09045e-246
4.09737e-249
5.73361e-252
6.797e-255
8.91756e-258
1.12922e-260
1.54893e-263
2.1582e-266
2.95085e-269
3.96011e-272
5.21343e-275
6.77703e-278
8.70323e-281
1.11189e-283
1.41669e-286
1.81347e-289
2.33267e-292
3.02379e-295
3.921e-298
5.06739e-301
6.4597e-304
8.11021e-307
9.9909e-310
1.20294e-312
1.40294e-315
1.57114e-318
1.665e-321
0
0
0
0
0
0
0
0
0
0
0
0
0
0
0
0
0
0
0
0
0
0
0
0
0
0
0
0
0
0
0
0
0
0
0
0
0
0
0
0
0
0
0
0
0
0
0
0
0
0
0
0
0
0
0
0
0
0
0
0
0
0
0
0
0
0
0
0
0
0
0
0
0
0
0
0
0
0
0
0
0
0
0
0
0
0
0
0
0
0
0
0
0
0
0
0
0
0
0
0
0
0
0
0
0
0
0
0
0
0
0
0
0
0
0
0
0
0
0
0
0
0
0
0
0
0
0
0
0
0
0
0
0
0
0
0
0
0
0
0
0
0
0
0
0
0
0
0
0
0
0
0
0
0
0
0
0
0
0
0
0
0
0
0
0
0
0
0
0
0
0
0
0
0
0
0
0
0
0
0
0
0
0
0
0
0
0
0
0
0
0
0
0
0
0
0
0
0
0
0
0
0
0
0
0
0
0
0
0
0
0
0
0
0
0
0
0
0
0
0
0
0
0
0
0
0
0
0
0
0
0
0
0
0
0
0
0
0
0
0
0
0
0
0
0
0
0
0
0
0
0
0
0
0
0
0
0
0
0
0
0
0
0
0
0
0
1.96086e-11
2.25833e-11
2.55865e-11
3.68105e-11
4.91613e-11
6.48711e-11
1.22349e-10
2.40692e-10
4.54169e-10
6.40547e-10
6.67551e-10
6.57533e-10
5.25071e-10
9.77199e-10
9.05412e-10
9.22243e-10
1.85757e-09
4.97071e-09
2.04673e-09
1.3875e-09
1.79411e-09
2.00286e-09
1.92275e-09
1.37306e-09
9.67431e-10
5.26348e-10
2.77848e-10
1.86349e-10
1.11171e-10
6.8154e-11
5.73754e-11
4.46034e-11
1.21641e-11
2.33347e-12
1.48175e-13
1.6429e-16
1.44703e-19
1.96308e-22
3.18276e-25
5.7956e-28
8.93019e-31
1.3873e-33
2.19082e-36
3.91395e-39
6.27566e-42
1.19398e-44
2.10503e-47
3.19808e-50
3.86274e-53
3.44659e-56
3.03767e-59
2.2758e-62
1.52562e-65
1.02277e-68
8.68131e-72
7.88675e-75
8.31378e-78
1.01512e-80
1.28168e-83
1.53129e-86
1.8584e-89
2.32525e-92
2.87193e-95
3.24343e-98
3.65034e-101
3.91754e-104
4.20235e-107
4.33047e-110
5.31018e-113
5.47299e-116
5.56073e-119
5.64001e-122
5.57382e-125
5.52834e-128
5.37411e-131
5.23863e-134
4.91743e-137
4.9231e-140
4.20391e-143
3.36211e-146
2.35675e-149
1.47994e-152
1.2313e-155
1.05322e-158
9.4463e-162
9.07738e-165
8.44448e-168
7.83794e-171
7.5749e-174
3.43266e-177
1.10251e-182
4.34126e-188
4.63221e-193
8.48254e-198
1.30682e-202
1.57739e-207
1.51565e-212
1.27512e-217
1.77679e-222
1.19206e-225
1.55714e-228
2.11756e-231
2.74621e-234
3.64965e-237
4.724e-240
6.23167e-243
8.10988e-246
1.07458e-248
1.42296e-251
1.91873e-254
2.54515e-257
3.46127e-260
4.70511e-263
6.65898e-266
9.28815e-269
1.27017e-271
1.7097e-274
2.27237e-277
2.98929e-280
3.8999e-283
5.05405e-286
6.52054e-289
8.40323e-292
1.08214e-294
1.40174e-297
1.82227e-300
2.38221e-303
3.09808e-306
3.9974e-309
5.06599e-312
6.27184e-315
7.52042e-318
8.69556e-321
9.88131e-324
0
0
0
0
0
0
0
0
0
0
0
0
0
0
0
0
0
0
0
0
0
0
0
0
0
0
0
0
0
0
0
0
0
0
0
0
0
0
0
0
0
0
0
0
0
0
0
0
0
0
0
0
0
0
0
0
0
0
0
0
0
0
0
0
0
0
0
0
0
0
0
0
0
0
0
0
0
0
0
0
0
0
0
0
0
0
0
0
0
0
0
0
0
0
0
0
0
0
0
0
0
0
0
0
0
0
0
0
0
0
0
0
0
0
0
0
0
0
0
0
0
0
0
0
0
0
0
0
0
0
0
0
0
0
0
0
0
0
0
0
0
0
0
0
0
0
0
0
0
0
0
0
0
0
0
0
0
0
0
0
0
0
0
0
0
0
0
0
0
0
0
0
0
0
0
0
0
0
0
0
0
0
0
0
0
0
0
0
0
0
0
0
0
0
0
0
0
0
0
0
0
0
0
0
0
0
0
0
0
0
0
0
0
0
0
0
0
0
0
0
0
0
0
0
0
0
0
0
0
0
0
0
0
0
0
0
0
0
0
0
0
0
0
0
0
0
0
0
0
0
0
0
0
0
0
0
0
0
0
0
0
0
0
0
0
0
1.9016e-11
2.08305e-11
2.31722e-11
2.43846e-11
2.51889e-11
2.56745e-11
2.72735e-11
3.6047e-11
4.34075e-11
5.24317e-11
6.00591e-11
8.84618e-11
8.67346e-11
1.455e-10
2.05163e-10
2.58174e-10
4.13379e-10
5.96467e-10
4.80914e-10
4.52267e-10
5.0155e-10
5.25043e-10
4.79872e-10
4.19298e-10
2.78855e-10
1.87636e-10
1.19625e-10
8.30422e-11
5.86105e-11
4.97489e-11
4.19541e-11
3.75951e-11
8.61827e-12
1.61279e-12
1.46231e-14
1.37641e-17
1.86072e-20
2.64951e-23
3.43841e-26
4.90238e-29
6.09631e-32
8.50281e-35
1.12383e-37
1.63106e-40
2.58431e-43
4.05671e-46
5.76669e-49
7.63695e-52
8.95957e-55
9.3654e-58
8.33447e-61
8.14385e-64
7.6626e-67
6.78422e-70
5.9424e-73
6.00387e-76
5.8985e-79
6.2697e-82
6.01764e-85
6.23984e-88
6.06393e-91
6.21321e-94
6.35687e-97
6.20626e-100
6.20112e-103
5.85308e-106
5.68115e-109
5.71818e-112
5.38692e-115
4.78059e-118
4.39368e-121
3.93011e-124
3.6471e-127
3.31608e-130
3.07753e-133
2.75845e-136
2.43869e-139
2.17399e-142
1.72832e-145
1.33856e-148
9.63596e-152
7.09861e-155
5.32781e-158
4.07781e-161
3.22548e-164
2.47557e-167
1.97671e-170
1.58416e-173
1.20648e-176
7.86974e-182
4.66605e-187
2.93257e-192
2.34528e-197
2.71014e-202
3.27242e-207
3.58091e-212
3.27746e-217
3.41157e-222
1.0325e-225
1.44618e-228
1.97181e-231
2.76228e-234
3.71714e-237
5.06209e-240
6.74751e-243
9.08812e-246
1.21772e-248
1.65221e-251
2.23944e-254
3.06298e-257
4.14322e-260
5.76629e-263
8.14165e-266
1.17067e-268
1.65694e-271
2.2818e-274
3.11372e-277
4.15526e-280
5.51351e-283
7.22521e-286
9.46291e-289
1.2347e-291
1.6173e-294
2.12761e-297
2.83083e-300
3.79246e-303
5.08019e-306
6.76186e-309
8.91994e-312
1.15462e-314
1.45516e-317
1.77962e-320
1.97626e-323
0
0
0
0
0
0
0
0
0
0
0
0
0
0
0
0
0
0
0
0
0
0
0
0
0
0
0
0
0
0
0
0
0
0
0
0
0
0
0
0
0
0
0
0
0
0
0
0
0
0
0
0
0
0
0
0
0
0
0
0
0
0
0
0
0
0
0
0
0
0
0
0
0
0
0
0
0
0
0
0
0
0
0
0
0
0
0
0
0
0
0
0
0
0
0
0
0
0
0
0
0
0
0
0
0
0
0
0
0
0
0
0
0
0
0
0
0
0
0
0
0
0
0
0
0
0
0
0
0
0
0
0
0
0
0
0
0
0
0
0
0
0
0
0
0
0
0
0
0
0
0
0
0
0
0
0
0
0
0
0
0
0
0
0
0
0
0
0
0
0
0
0
0
0
0
0
0
0
0
0
0
0
0
0
0
0
0
0
0
0
0
0
0
0
0
0
0
0
0
0
0
0
0
0
0
0
0
0
0
0
0
0
0
0
0
0
0
0
0
0
0
0
0
0
0
0
0
0
0
0
0
0
0
0
0
0
0
0
0
0
0
0
0
0
0
0
0
0
0
0
0
0
0
0
0
0
0
0
0
0
0
0
0
0
0
0
0
2.20196e-11
2.31611e-11
2.39834e-11
2.40204e-11
2.36915e-11
2.32724e-11
2.26427e-11
2.16245e-11
2.05626e-11
1.99499e-11
2.11325e-11
2.56219e-11
3.81304e-11
5.11656e-11
6.1112e-11
8.55036e-11
1.18832e-10
1.45826e-10
1.31048e-10
1.25671e-10
1.34108e-10
1.25531e-10
1.18598e-10
1.08925e-10
8.82151e-11
6.13468e-11
5.21312e-11
4.39651e-11
3.8753e-11
2.91422e-11
2.80673e-11
2.69036e-11
1.1589e-11
2.02347e-12
9.2229e-14
6.91988e-17
5.23289e-20
5.18568e-23
5.69065e-26
6.09042e-29
5.54691e-32
5.42624e-35
4.43e-38
4.18945e-41
3.4771e-44
3.32985e-47
3.09746e-50
3.0674e-53
3.02312e-56
2.99115e-59
2.90738e-62
2.88947e-65
2.794e-68
2.71973e-71
2.67629e-74
2.53867e-77
2.42937e-80
2.26634e-83
2.09887e-86
1.98529e-89
1.76535e-92
1.65094e-95
1.45644e-98
1.31557e-101
1.15713e-104
1.01505e-107
8.75733e-111
7.61744e-114
6.452e-117
5.26288e-120
4.38496e-123
3.47039e-126
2.82847e-129
2.21035e-132
1.76284e-135
1.36821e-138
1.06721e-141
8.33311e-145
6.29685e-148
4.88125e-151
3.60025e-154
2.73761e-157
2.00389e-160
1.50936e-163
1.11254e-166
8.32069e-170
6.27874e-173
4.683e-176
3.39037e-181
2.41127e-186
1.69194e-191
1.24945e-196
9.62341e-202
8.34002e-207
7.88509e-212
7.47208e-217
7.3726e-222
1.4926e-225
2.0567e-228
3.03525e-231
4.27965e-234
6.1812e-237
8.64405e-240
1.22058e-242
1.68758e-245
2.34268e-248
3.2369e-251
4.50463e-254
6.27999e-257
8.8179e-260
1.23033e-262
1.75124e-265
2.53457e-268
3.67251e-271
5.25157e-274
7.31582e-277
1.0136e-279
1.37264e-282
1.85642e-285
2.47447e-288
3.30083e-291
4.37537e-294
5.81664e-297
7.74051e-300
1.03688e-302
1.39404e-305
1.87862e-308
2.52503e-311
3.37464e-314
4.45098e-317
5.75488e-320
7.41098e-323
0
0
0
0
0
0
0
0
0
0
0
0
0
0
0
0
0
0
0
0
0
0
0
0
0
0
0
0
0
0
0
0
0
0
0
0
0
0
0
0
0
0
0
0
0
0
0
0
0
0
0
0
0
0
0
0
0
0
0
0
0
0
0
0
0
0
0
0
0
0
0
0
0
0
0
0
0
0
0
0
0
0
0
0
0
0
0
0
0
0
0
0
0
0
0
0
0
0
0
0
0
0
0
0
0
0
0
0
0
0
0
0
0
0
0
0
0
0
0
0
0
0
0
0
0
0
0
0
0
0
0
0
0
0
0
0
0
0
0
0
0
0
0
0
0
0