/*--------------------------------*- C++ -*----------------------------------*\
| =========                 |                                                 |
| \\      /  F ield         | OpenFOAM: The Open Source CFD Toolbox           |
|  \\    /   O peration     | Version:  2.1.1                                 |
|   \\  /    A nd           | Web:      www.OpenFOAM.org                      |
|    \\/     M anipulation  |                                                 |
\*---------------------------------------------------------------------------*/
FoamFile
{
    version     2.0;
    format      ascii;
    class       volScalarField;
    location    "0.001350000";
    object      HO2;
}
// * * * * * * * * * * * * * * * * * * * * * * * * * * * * * * * * * * * * * //

dimensions      [0 0 0 0 0 0 0];

internalField   nonuniform List<scalar> 
12384
(
4.26528e-07
2.2741e-07
7.31159e-08
9.24176e-09
5.54702e-10
7.99543e-11
1.68939e-11
2.06941e-12
8.03082e-14
1.45146e-15
1.49351e-17
2.22264e-19
2.27524e-21
2.53723e-23
1.87454e-21
3.00217e-19
3.68839e-17
1.08361e-15
5.76892e-15
1.00224e-14
1.3182e-14
9.65276e-15
3.8331e-15
7.51067e-16
3.91595e-17
3.02153e-19
5.93047e-22
8.76142e-25
1.47426e-27
3.08102e-30
4.89673e-33
8.82411e-36
1.35761e-38
2.14956e-41
3.33685e-44
5.10813e-47
7.10559e-50
1.08845e-52
1.74626e-55
2.87212e-58
3.94883e-61
5.57341e-64
7.67956e-67
9.83651e-70
1.54364e-83
2.7416e-84
9.59655e-87
2.82668e-89
6.36999e-92
1.00401e-94
1.17398e-97
1.16397e-100
8.68517e-104
6.42347e-107
4.78075e-110
3.69022e-113
2.8571e-116
2.26892e-119
1.71306e-122
1.5926e-125
1.42956e-128
1.63686e-131
1.83639e-134
2.04594e-137
2.14448e-140
2.34027e-143
2.33258e-146
2.45761e-149
2.37763e-152
2.45711e-155
2.34978e-158
2.41514e-161
2.48762e-164
3.01957e-167
3.44086e-178
7.36426e-181
4.08256e-185
2.60073e-188
9.06054e-192
1.73573e-195
2.15181e-199
1.77166e-203
1.03246e-207
6.75279e-212
5.01299e-215
9.94417e-218
1.96705e-220
3.9399e-223
7.55297e-226
1.4108e-228
2.48483e-231
4.21873e-234
6.92112e-237
1.10556e-239
1.73505e-242
2.66108e-245
4.08038e-248
6.40092e-251
9.94109e-254
1.57887e-256
2.57332e-259
4.73858e-262
1.04828e-264
1.70466e-267
1.53049e-285
1.08706e-284
1.01234e-286
3.94415e-289
1.26252e-291
3.38288e-294
7.80361e-297
1.64386e-299
3.23529e-302
6.07016e-305
1.10196e-307
1.95561e-310
3.30988e-313
5.30577e-316
7.94705e-319
1.16599e-321
0
0
0
0
0
0
0
0
0
0
0
0
0
0
0
0
0
0
0
0
0
0
0
0
0
0
0
0
0
0
0
0
0
0
0
0
0
0
0
0
0
0
0
0
0
0
0
0
0
0
0
0
0
0
0
0
0
0
0
0
0
0
0
0
0
0
0
0
0
0
0
0
0
0
0
0
0
0
0
0
0
0
0
0
0
0
0
0
0
0
0
0
0
0
0
0
0
0
0
0
0
0
0
0
0
0
0
0
0
0
0
0
0
0
0
0
0
0
0
0
0
0
0
0
0
0
0
0
0
0
0
0
0
0
0
0
0
0
0
0
0
0
0
0
0
0
0
0
0
0
0
0
0
0
0
0
0
0
0
0
0
0
0
0
0
0
0
0
0
0
0
0
0
0
0
0
0
0
0
0
0
0
0
0
0
0
0
0
0
0
0
0
0
0
0
0
0
0
0
0
0
0
0
0
0
0
0
0
0
0
0
0
0
0
0
0
0
0
0
0
0
0
0
0
0
0
0
0
0
0
0
0
0
0
0
0
0
0
0
0
0
0
0
0
0
0
0
0
0
0
0
0
0
0
3.45318e-07
4.38202e-07
2.0634e-07
5.24301e-08
8.80653e-09
1.0023e-09
1.97675e-10
5.8782e-11
4.96778e-12
1.65998e-13
3.05466e-15
7.74777e-17
4.69587e-19
2.69683e-21
3.78379e-20
4.80675e-18
4.90976e-16
1.79923e-14
1.14241e-13
2.6992e-13
6.61378e-13
5.3821e-13
1.30457e-13
1.90832e-14
1.36634e-15
9.68152e-18
1.69474e-20
4.61759e-24
1.19084e-26
1.04326e-28
6.76975e-32
6.47529e-35
5.1194e-38
6.27504e-41
7.64709e-44
9.36778e-47
1.08777e-49
1.19805e-52
1.42571e-55
1.48968e-58
3.18238e-61
5.53771e-64
8.02038e-67
1.06045e-69
6.03235e-81
6.20554e-82
2.06713e-84
7.00581e-87
1.84062e-89
3.28875e-92
4.53929e-95
5.33045e-98
2.10885e-101
1.06447e-104
6.19497e-108
4.68754e-111
3.82354e-114
3.35015e-117
3.02847e-120
1.17683e-122
1.25451e-125
2.98234e-128
3.07276e-131
3.25203e-134
2.95012e-137
2.81123e-140
2.54786e-143
2.34539e-146
2.13023e-149
2.00366e-152
1.82503e-155
1.60828e-158
1.4037e-161
1.13554e-164
1.43242e-172
1.98547e-175
7.16825e-180
8.43183e-183
2.53881e-186
4.64886e-190
5.74805e-194
4.86662e-198
2.84876e-202
1.21234e-206
4.76004e-211
2.05731e-214
3.7953e-217
7.33588e-220
1.3359e-222
2.3807e-225
3.90431e-228
6.33519e-231
9.80027e-234
1.54045e-236
2.35591e-239
3.6468e-242
5.52939e-245
8.50057e-248
1.29763e-250
2.05881e-253
3.29387e-256
5.90174e-259
1.21576e-261
1.55271e-264
6.20258e-282
1.88309e-281
1.93605e-283
7.90184e-286
2.72028e-288
7.80038e-291
1.94705e-293
4.40313e-296
9.39423e-299
1.89286e-301
3.69578e-304
6.88673e-307
1.21281e-309
1.95529e-312
2.88699e-315
4.04975e-318
5.33591e-321
4.94066e-324
0
0
0
0
0
0
0
0
0
0
0
0
0
0
0
0
0
0
0
0
0
0
0
0
0
0
0
0
0
0
0
0
0
0
0
0
0
0
0
0
0
0
0
0
0
0
0
0
0
0
0
0
0
0
0
0
0
0
0
0
0
0
0
0
0
0
0
0
0
0
0
0
0
0
0
0
0
0
0
0
0
0
0
0
0
0
0
0
0
0
0
0
0
0
0
0
0
0
0
0
0
0
0
0
0
0
0
0
0
0
0
0
0
0
0
0
0
0
0
0
0
0
0
0
0
0
0
0
0
0
0
0
0
0
0
0
0
0
0
0
0
0
0
0
0
0
0
0
0
0
0
0
0
0
0
0
0
0
0
0
0
0
0
0
0
0
0
0
0
0
0
0
0
0
0
0
0
0
0
0
0
0
0
0
0
0
0
0
0
0
0
0
0
0
0
0
0
0
0
0
0
0
0
0
0
0
0
0
0
0
0
0
0
0
0
0
0
0
0
0
0
0
0
0
0
0
0
0
0
0
0
0
0
0
0
0
0
0
0
0
0
0
0
0
0
0
0
0
0
0
0
0
3.07688e-08
6.51844e-08
3.00027e-08
8.35435e-09
2.76406e-09
1.68926e-09
1.31469e-09
7.30822e-10
1.05295e-10
1.62378e-12
1.95357e-14
7.2746e-16
1.17977e-17
6.85427e-20
2.07494e-19
3.03637e-16
3.90719e-13
4.20543e-11
3.17909e-10
2.93195e-09
1.07733e-08
1.05661e-08
3.90165e-09
3.3738e-10
4.55936e-11
8.51409e-13
2.48302e-15
8.74654e-20
4.91988e-23
2.55068e-26
3.94475e-30
3.6413e-34
1.67177e-37
1.36515e-40
9.13796e-44
7.72038e-47
6.85773e-50
7.53962e-53
1.66877e-54
3.37697e-57
6.13011e-59
2.77976e-61
3.74178e-64
3.65434e-67
1.87303e-79
6.58371e-80
2.91575e-82
9.7942e-85
2.1338e-87
2.91048e-90
2.75269e-93
1.95511e-96
9.42217e-101
5.62194e-104
3.68967e-107
2.5896e-110
1.73818e-113
1.41961e-116
1.01595e-119
2.2894e-122
9.02136e-126
1.10993e-127
8.94739e-131
1.02373e-133
8.59329e-137
9.35596e-140
8.79459e-143
1.18011e-145
1.31442e-148
1.58612e-151
2.06274e-154
1.77663e-157
1.44682e-160
6.77668e-164
2.16463e-172
9.6974e-174
1.37161e-177
2.82807e-180
7.61718e-184
1.44531e-187
1.9067e-191
1.91421e-195
1.16483e-199
5.58298e-204
1.84054e-208
5.11004e-213
9.38796e-217
1.65005e-219
3.01673e-222
5.14322e-225
8.12405e-228
1.22987e-230
1.79981e-233
2.72569e-236
4.05153e-239
6.31611e-242
9.53429e-245
1.50114e-247
2.26156e-250
3.62984e-253
5.85754e-256
1.05816e-258
2.15077e-261
1.8871e-264
4.35886e-281
5.54299e-281
4.94957e-283
2.23422e-285
7.9228e-288
2.35318e-290
6.31941e-293
1.51774e-295
3.36465e-298
7.10228e-301
1.41919e-303
2.73109e-306
4.97439e-309
8.31273e-312
1.20187e-314
1.57971e-317
1.79049e-320
1.97626e-323
0
0
0
0
0
0
0
0
0
0
0
0
0
0
0
0
0
0
0
0
0
0
0
0
0
0
0
0
0
0
0
0
0
0
0
0
0
0
0
0
0
0
0
0
0
0
0
0
0
0
0
0
0
0
0
0
0
0
0
0
0
0
0
0
0
0
0
0
0
0
0
0
0
0
0
0
0
0
0
0
0
0
0
0
0
0
0
0
0
0
0
0
0
0
0
0
0
0
0
0
0
0
0
0
0
0
0
0
0
0
0
0
0
0
0
0
0
0
0
0
0
0
0
0
0
0
0
0
0
0
0
0
0
0
0
0
0
0
0
0
0
0
0
0
0
0
0
0
0
0
0
0
0
0
0
0
0
0
0
0
0
0
0
0
0
0
0
0
0
0
0
0
0
0
0
0
0
0
0
0
0
0
0
0
0
0
0
0
0
0
0
0
0
0
0
0
0
0
0
0
0
0
0
0
0
0
0
0
0
0
0
0
0
0
0
0
0
0
0
0
0
0
0
0
0
0
0
0
0
0
0
0
0
0
0
0
0
0
0
0
0
0
0
0
0
0
0
0
0
0
0
0
6.45645e-07
1.42477e-06
1.06379e-06
2.63944e-07
9.68632e-08
5.89126e-08
5.53203e-08
4.24848e-08
1.92159e-08
2.32447e-09
2.08156e-11
1.67359e-13
2.81759e-16
7.87917e-19
2.95416e-16
3.04402e-12
6.51764e-10
7.70354e-09
8.74437e-09
6.72022e-09
5.27253e-09
2.7474e-09
2.41045e-09
1.58615e-09
1.13825e-09
5.71322e-10
7.58433e-11
3.52238e-13
2.69183e-16
8.781e-20
1.55054e-23
5.56061e-28
2.1571e-31
1.08906e-34
6.02748e-38
2.60457e-41
1.25352e-44
4.57385e-48
7.05115e-52
2.29653e-55
8.30606e-58
9.30053e-60
1.13964e-62
6.88536e-66
3.15121e-74
2.3698e-74
1.21133e-76
4.33463e-79
9.09477e-82
9.77805e-85
7.19579e-88
4.37539e-91
2.19256e-94
1.14892e-97
5.70661e-101
3.32117e-104
1.89544e-107
1.1936e-110
7.52301e-114
5.98863e-117
4.20745e-120
4.26762e-123
3.06723e-126
3.14224e-129
2.43946e-132
2.23428e-135
1.73482e-138
1.44315e-141
1.13355e-144
8.08313e-148
6.92611e-151
4.0216e-154
2.24748e-157
1.07377e-160
6.79189e-168
1.58116e-169
2.92827e-172
6.7227e-175
1.59585e-178
2.98973e-182
3.9031e-186
4.81042e-190
2.82333e-194
1.27657e-198
4.35417e-203
1.07409e-207
2.0702e-212
1.00529e-216
1.19392e-219
2.06354e-222
3.34704e-225
5.64363e-228
8.85342e-231
1.46169e-233
2.24165e-236
3.63412e-239
5.52922e-242
8.81077e-245
1.33912e-247
2.14935e-250
3.43335e-253
5.9661e-256
1.11331e-258
1.44263e-261
2.17453e-277
4.45695e-278
3.36022e-280
1.39826e-282
4.53913e-285
1.2261e-287
2.93658e-290
6.36895e-293
1.29891e-295
2.50723e-298
4.63614e-301
8.19263e-304
1.38757e-306
2.25051e-309
3.50881e-312
5.16222e-315
7.01812e-318
8.55722e-321
9.88131e-324
0
0
0
0
0
0
0
0
0
0
0
0
0
0
0
0
0
0
0
0
0
0
0
0
0
0
0
0
0
0
0
0
0
0
0
0
0
0
0
0
0
0
0
0
0
0
0
0
0
0
0
0
0
0
0
0
0
0
0
0
0
0
0
0
0
0
0
0
0
0
0
0
0
0
0
0
0
0
0
0
0
0
0
0
0
0
0
0
0
0
0
0
0
0
0
0
0
0
0
0
0
0
0
0
0
0
0
0
0
0
0
0
0
0
0
0
0
0
0
0
0
0
0
0
0
0
0
0
0
0
0
0
0
0
0
0
0
0
0
0
0
0
0
0
0
0
0
0
0
0
0
0
0
0
0
0
0
0
0
0
0
0
0
0
0
0
0
0
0
0
0
0
0
0
0
0
0
0
0
0
0
0
0
0
0
0
0
0
0
0
0
0
0
0
0
0
0
0
0
0
0
0
0
0
0
0
0
0
0
0
0
0
0
0
0
0
0
0
0
0
0
0
0
0
0
0
0
0
0
0
0
0
0
0
0
0
0
0
0
0
0
0
0
0
0
0
0
0
0
0
0
7.27477e-06
6.27653e-06
6.17969e-06
6.23961e-06
3.22777e-06
2.0561e-06
1.9436e-06
1.60219e-06
8.87596e-07
2.54268e-07
2.20842e-08
1.69458e-09
8.44514e-13
1.69717e-16
4.52432e-13
7.21435e-10
1.4779e-08
6.78983e-08
1.98615e-07
3.51146e-07
2.26112e-07
1.4429e-07
3.87998e-08
4.44682e-09
7.10778e-10
2.31577e-10
1.50832e-10
6.40154e-12
3.78113e-13
1.58964e-15
9.40695e-19
4.68944e-22
2.41413e-25
1.37449e-28
7.29092e-32
3.74979e-35
1.54198e-38
2.9636e-42
1.89759e-46
4.48652e-50
7.87685e-54
3.11899e-56
7.39743e-60
1.27434e-63
1.25556e-69
4.60049e-70
1.61079e-72
6.24475e-75
2.51345e-77
5.0858e-80
4.85579e-83
3.16575e-86
1.80765e-89
9.90198e-93
5.39608e-96
3.27715e-99
1.97697e-102
1.3088e-105
8.72345e-109
6.59016e-112
4.99581e-115
4.57874e-118
3.74574e-121
3.46986e-124
2.73659e-127
2.41536e-130
1.91223e-133
1.53744e-136
1.11299e-139
8.02692e-143
5.03776e-146
3.00126e-149
1.52109e-152
7.37791e-156
4.01284e-163
7.31836e-165
1.29419e-167
2.91107e-170
7.64432e-173
1.56542e-176
2.52446e-180
5.04708e-184
2.81296e-188
1.22434e-192
4.33646e-197
1.14607e-201
2.24599e-206
3.48675e-211
6.51413e-216
3.85551e-219
5.98888e-222
9.91209e-225
1.53097e-227
2.4715e-230
3.74106e-233
5.92898e-236
8.83436e-239
1.39009e-241
2.08464e-244
3.28607e-247
5.09407e-250
8.45321e-253
1.48468e-255
2.10114e-258
4.38692e-273
2.11841e-274
1.23279e-276
4.62171e-279
1.33779e-281
3.33001e-284
7.37772e-287
1.51584e-289
2.94429e-292
5.47485e-295
9.79857e-298
1.68741e-300
2.80396e-303
4.4976e-306
6.97679e-309
1.03802e-311
1.44942e-314
1.8833e-317
2.18229e-320
1.97626e-323
0
0
0
0
0
0
0
0
0
0
0
0
0
0
0
0
0
0
0
0
0
0
0
0
0
0
0
0
0
0
0
0
0
0
0
0
0
0
0
0
0
0
0
0
0
0
0
0
0
0
0
0
0
0
0
0
0
0
0
0
0
0
0
0
0
0
0
0
0
0
0
0
0
0
0
0
0
0
0
0
0
0
0
0
0
0
0
0
0
0
0
0
0
0
0
0
0
0
0
0
0
0
0
0
0
0
0
0
0
0
0
0
0
0
0
0
0
0
0
0
0
0
0
0
0
0
0
0
0
0
0
0
0
0
0
0
0
0
0
0
0
0
0
0
0
0
0
0
0
0
0
0
0
0
0
0
0
0
0
0
0
0
0
0
0
0
0
0
0
0
0
0
0
0
0
0
0
0
0
0
0
0
0
0
0
0
0
0
0
0
0
0
0
0
0
0
0
0
0
0
0
0
0
0
0
0
0
0
0
0
0
0
0
0
0
0
0
0
0
0
0
0
0
0
0
0
0
0
0
0
0
0
0
0
0
0
0
0
0
0
0
0
0
0
0
0
0
0
0
0
4.56496e-06
4.50631e-06
4.60621e-06
4.87444e-06
5.42377e-06
4.991e-06
3.87245e-06
3.71906e-06
3.09131e-06
2.19438e-06
6.27805e-07
2.09311e-07
2.98091e-09
5.06877e-13
1.16188e-10
1.91431e-08
2.63511e-07
1.38386e-06
3.36473e-06
3.15412e-06
3.43226e-06
1.16948e-06
1.98727e-07
2.23435e-08
5.65022e-09
1.07866e-09
8.13787e-11
3.71278e-11
1.43523e-12
3.35079e-14
9.94015e-16
2.53357e-18
2.16596e-21
1.64169e-24
1.16435e-27
7.52135e-31
4.26866e-34
1.91989e-37
7.25137e-41
2.05474e-44
4.23572e-48
7.06752e-52
7.97634e-56
8.56312e-60
7.94821e-66
1.35744e-67
1.19874e-70
1.88727e-73
4.10045e-76
2.4805e-78
4.04316e-80
1.98138e-82
2.30363e-85
1.8141e-88
1.26033e-91
8.90404e-95
6.22879e-98
4.47904e-101
3.32547e-104
2.5727e-107
2.05048e-110
1.86836e-113
1.54809e-116
1.4667e-119
1.21513e-122
1.06247e-125
7.93479e-129
6.53828e-132
4.68073e-135
3.52337e-138
2.17498e-141
1.4192e-144
7.21198e-148
3.36515e-151
1.18115e-158
1.48579e-160
2.19177e-163
4.51223e-166
1.06142e-168
2.82465e-171
1.29531e-174
2.71616e-178
1.63149e-182
6.56278e-187
2.26199e-191
6.08908e-196
1.28823e-200
2.0536e-205
2.62476e-210
3.1858e-215
6.63536e-219
9.99507e-222
1.50453e-224
2.32446e-227
3.39698e-230
5.19428e-233
7.4662e-236
1.13343e-238
1.63095e-241
2.46665e-244
3.64089e-247
5.76075e-250
9.54863e-253
1.23473e-255
4.65751e-269
7.96738e-271
3.1265e-273
9.81253e-276
2.54357e-278
5.73521e-281
1.18925e-283
2.29052e-286
4.25052e-289
7.51277e-292
1.29102e-294
2.13216e-297
3.43752e-300
5.36504e-303
8.14841e-306
1.18559e-308
1.64758e-311
2.15516e-314
2.60761e-317
2.81766e-320
2.47033e-323
0
0
0
0
0
0
0
0
0
0
0
0
0
0
0
0
0
0
0
0
0
0
0
0
0
0
0
0
0
0
0
0
0
0
0
0
0
0
0
0
0
0
0
0
0
0
0
0
0
0
0
0
0
0
0
0
0
0
0
0
0
0
0
0
0
0
0
0
0
0
0
0
0
0
0
0
0
0
0
0
0
0
0
0
0
0
0
0
0
0
0
0
0
0
0
0
0
0
0
0
0
0
0
0
0
0
0
0
0
0
0
0
0
0
0
0
0
0
0
0
0
0
0
0
0
0
0
0
0
0
0
0
0
0
0
0
0
0
0
0
0
0
0
0
0
0
0
0
0
0
0
0
0
0
0
0
0
0
0
0
0
0
0
0
0
0
0
0
0
0
0
0
0
0
0
0
0
0
0
0
0
0
0
0
0
0
0
0
0
0
0
0
0
0
0
0
0
0
0
0
0
0
0
0
0
0
0
0
0
0
0
0
0
0
0
0
0
0
0
0
0
0
0
0
0
0
0
0
0
0
0
0
0
0
0
0
0
0
0
0
0
0
0
0
0
0
0
0
0
4.47881e-06
4.51879e-06
3.88939e-06
3.16546e-06
2.78417e-06
3.05783e-06
3.05373e-06
3.48961e-06
3.78972e-06
3.84479e-06
3.19222e-06
2.4171e-06
6.28692e-08
1.0721e-10
4.25174e-09
2.08407e-07
2.12652e-06
3.85307e-06
3.45746e-06
3.61932e-06
3.86974e-06
3.58665e-06
1.29654e-06
8.9406e-08
6.5296e-09
1.21806e-09
2.6133e-10
2.70897e-11
1.13044e-11
3.49159e-13
4.55107e-15
6.25829e-17
7.22065e-19
2.127e-21
2.9593e-24
3.22058e-27
2.82572e-30
2.02994e-33
1.17684e-36
5.1956e-40
1.53614e-43
2.94472e-47
2.7517e-51
9.96796e-56
6.72366e-63
1.56741e-64
3.06578e-67
1.75108e-70
9.19319e-74
8.95128e-77
3.30763e-79
3.24416e-81
3.7067e-83
2.06515e-85
3.7388e-88
4.24523e-91
4.20736e-94
3.90125e-97
3.47672e-100
3.14489e-103
2.90405e-106
2.85669e-109
2.7151e-112
2.71726e-115
2.49683e-118
2.29938e-121
1.94119e-124
1.64711e-127
1.28498e-130
9.74903e-134
6.74552e-137
4.26381e-140
2.25235e-143
1.01698e-146
1.22758e-154
1.07597e-156
1.3285e-159
2.35757e-162
5.67509e-165
1.53968e-167
4.55365e-170
7.68606e-173
4.77754e-177
1.99892e-181
7.07173e-186
2.06943e-190
4.81366e-195
8.52247e-200
1.16288e-204
1.29062e-209
1.25209e-214
9.96733e-219
1.32586e-221
1.97372e-224
2.84747e-227
4.18306e-230
5.96016e-233
8.64847e-236
1.23524e-238
1.80875e-241
2.64566e-244
4.01527e-247
6.43493e-250
8.34458e-253
6.2615e-265
4.84775e-267
9.06044e-270
2.23755e-272
4.94747e-275
9.99513e-278
1.8767e-280
3.37975e-283
5.8401e-286
9.79814e-289
1.58581e-291
2.5052e-294
3.85713e-297
5.81031e-300
8.53884e-303
1.22073e-305
1.68149e-308
2.21898e-311
2.75699e-314
3.15745e-317
3.18376e-320
2.47033e-323
0
0
0
0
0
0
0
0
0
0
0
0
0
0
0
0
0
0
0
0
0
0
0
0
0
0
0
0
0
0
0
0
0
0
0
0
0
0
0
0
0
0
0
0
0
0
0
0
0
0
0
0
0
0
0
0
0
0
0
0
0
0
0
0
0
0
0
0
0
0
0
0
0
0
0
0
0
0
0
0
0
0
0
0
0
0
0
0
0
0
0
0
0
0
0
0
0
0
0
0
0
0
0
0
0
0
0
0
0
0
0
0
0
0
0
0
0
0
0
0
0
0
0
0
0
0
0
0
0
0
0
0
0
0
0
0
0
0
0
0
0
0
0
0
0
0
0
0
0
0
0
0
0
0
0
0
0
0
0
0
0
0
0
0
0
0
0
0
0
0
0
0
0
0
0
0
0
0
0
0
0
0
0
0
0
0
0
0
0
0
0
0
0
0
0
0
0
0
0
0
0
0
0
0
0
0
0
0
0
0
0
0
0
0
0
0
0
0
0
0
0
0
0
0
0
0
0
0
0
0
0
0
0
0
0
0
0
0
0
0
0
0
0
0
0
0
0
0
3.91634e-06
2.75687e-06
1.0513e-06
6.53957e-07
7.38383e-07
1.52437e-06
1.43134e-06
2.39332e-06
3.2119e-06
3.50437e-06
3.80922e-06
2.4089e-06
7.68151e-08
5.96351e-10
4.49283e-08
9.60671e-07
1.95715e-06
3.07275e-06
3.29315e-06
3.56246e-06
3.82762e-06
3.87097e-06
2.29091e-06
1.90852e-07
1.01488e-08
1.29493e-09
2.69372e-10
4.09734e-11
6.39061e-12
3.15524e-12
5.43574e-14
3.82052e-16
3.07346e-18
1.93494e-20
9.49024e-23
4.03209e-25
1.07373e-27
2.08901e-30
2.59162e-33
2.1806e-36
1.14459e-39
3.50806e-43
3.18306e-47
6.08731e-52
5.90135e-60
2.16593e-61
6.30584e-64
1.50044e-66
1.6037e-70
2.84333e-74
2.35739e-77
8.90075e-80
8.05987e-82
4.58668e-84
1.70289e-86
4.66871e-89
1.10701e-91
1.90584e-94
2.77203e-97
3.70449e-100
4.71245e-103
5.77188e-106
6.74655e-109
7.4959e-112
7.85416e-115
7.82945e-118
7.35619e-121
6.65886e-124
5.81301e-127
4.85838e-130
3.81566e-133
2.74769e-136
1.66209e-139
8.77915e-143
7.63448e-152
3.69385e-154
5.03209e-157
1.21162e-159
3.75874e-162
1.22944e-164
3.97904e-167
1.30669e-169
2.73363e-172
1.18692e-176
3.97776e-181
1.23762e-185
3.25273e-190
6.50039e-195
9.85523e-200
1.17517e-204
1.14243e-209
9.68322e-215
3.94957e-219
4.58983e-222
6.48397e-225
9.10801e-228
1.27324e-230
1.75162e-233
2.41997e-236
3.36111e-239
4.81592e-242
7.11252e-245
1.12725e-247
1.4291e-250
3.01921e-261
1.79456e-263
1.07905e-266
1.73443e-269
3.10144e-272
5.43847e-275
9.23997e-278
1.52283e-280
2.44886e-283
3.80864e-286
5.79112e-289
8.61946e-292
1.26547e-294
1.8229e-297
2.58351e-300
3.57283e-303
4.78585e-306
6.16606e-309
7.57686e-312
8.80109e-315
9.40807e-318
8.80425e-321
4.94066e-324
0
0
0
0
0
0
0
0
0
0
0
0
0
0
0
0
0
0
0
0
0
0
0
0
0
0
0
0
0
0
0
0
0
0
0
0
0
0
0
0
0
0
0
0
0
0
0
0
0
0
0
0
0
0
0
0
0
0
0
0
0
0
0
0
0
0
0
0
0
0
0
0
0
0
0
0
0
0
0
0
0
0
0
0
0
0
0
0
0
0
0
0
0
0
0
0
0
0
0
0
0
0
0
0
0
0
0
0
0
0
0
0
0
0
0
0
0
0
0
0
0
0
0
0
0
0
0
0
0
0
0
0
0
0
0
0
0
0
0
0
0
0
0
0
0
0
0
0
0
0
0
0
0
0
0
0
0
0
0
0
0
0
0
0
0
0
0
0
0
0
0
0
0
0
0
0
0
0
0
0
0
0
0
0
0
0
0
0
0
0
0
0
0
0
0
0
0
0
0
0
0
0
0
0
0
0
0
0
0
0
0
0
0
0
0
0
0
0
0
0
0
0
0
0
0
0
0
0
0
0
0
0
0
0
0
0
0
0
0
0
0
0
0
0
0
0
0
3.71654e-07
1.31865e-07
3.69269e-08
4.44381e-08
1.20023e-07
3.5394e-07
6.10279e-07
1.25763e-06
1.82222e-06
1.66126e-06
2.30316e-06
3.81381e-06
2.45367e-06
4.54499e-08
8.15107e-08
1.23693e-07
1.93683e-07
2.4227e-06
1.38743e-06
2.1107e-06
3.63925e-06
3.8796e-06
3.59215e-06
3.05643e-06
1.26543e-06
1.55276e-07
1.01776e-08
1.40257e-09
4.09651e-10
1.04318e-10
1.72153e-11
1.92891e-12
1.10862e-12
9.21455e-15
3.58428e-17
1.4809e-19
5.89063e-22
1.93418e-24
5.34136e-27
1.81767e-29
7.12314e-32
3.11084e-34
8.07396e-37
8.3038e-40
2.77625e-43
5.95009e-49
3.69662e-52
2.51456e-55
1.15864e-57
1.60131e-59
4.5244e-61
1.00734e-63
9.61445e-68
1.40642e-71
4.82633e-75
7.49774e-78
3.34759e-80
1.69599e-82
5.26921e-85
1.13037e-87
2.38186e-90
3.99409e-93
6.13474e-96
1.06104e-98
1.57301e-101
2.24435e-104
2.83753e-107
4.38689e-110
6.11075e-113
7.33053e-116
7.79209e-119
8.34568e-122
8.72681e-125
1.33927e-127
1.70546e-130
2.01648e-133
2.59463e-136
2.55136e-139
1.48521e-142
6.19374e-146
9.15991e-150
3.68677e-153
4.72481e-156
1.76738e-158
5.84235e-161
2.09303e-163
8.23456e-166
3.17806e-168
1.14806e-170
2.64215e-173
6.57341e-178
1.74663e-182
5.06893e-187
1.16771e-191
2.02282e-196
2.61277e-201
2.67935e-206
2.28841e-211
1.77882e-216
1.34864e-220
1.47837e-223
1.77401e-226
2.14405e-229
2.65822e-232
3.29365e-235
4.27387e-238
5.48406e-241
7.4278e-244
1.00373e-246
1.35462e-249
1.47304e-252
9.35879e-256
1.49273e-258
1.45063e-261
1.44769e-264
1.69354e-267
1.9787e-270
2.5247e-273
3.20127e-276
4.25566e-279
5.60396e-282
7.58948e-285
1.00297e-287
1.37117e-290
1.8147e-293
2.48552e-296
3.26135e-299
4.39142e-302
5.60241e-305
7.14724e-308
8.61092e-311
1.01499e-313
1.12205e-316
1.13176e-319
9.88131e-323
0
0
0
0
0
0
0
0
0
0
0
0
0
0
0
0
0
0
0
0
0
0
0
0
0
0
0
0
0
0
0
0
0
0
0
0
0
0
0
0
0
0
0
0
0
0
0
0
0
0
0
0
0
0
0
0
0
0
0
0
0
0
0
0
0
0
0
0
0
0
0
0
0
0
0
0
0
0
0
0
0
0
0
0
0
0
0
0
0
0
0
0
0
0
0
0
0
0
0
0
0
0
0
0
0
0
0
0
0
0
0
0
0
0
0
0
0
0
0
0
0
0
0
0
0
0
0
0
0
0
0
0
0
0
0
0
0
0
0
0
0
0
0
0
0
0
0
0
0
0
0
0
0
0
0
0
0
0
0
0
0
0
0
0
0
0
0
0
0
0
0
0
0
0
0
0
0
0
0
0
0
0
0
0
0
0
0
0
0
0
0
0
0
0
0
0
0
0
0
0
0
0
0
0
0
0
0
0
0
0
0
0
0
0
0
0
0
0
0
0
0
0
0
0
0
0
0
0
0
0
0
0
0
0
0
0
0
0
0
0
0
0
0
0
0
0
0
0
0
0
0
0
0
0
0
0
0
0
0
0
0
0
0
0
0
3.39758e-09
3.26486e-09
1.67439e-09
2.10257e-09
5.40432e-09
2.59814e-08
1.05273e-07
1.27731e-07
1.27006e-07
9.05386e-08
7.9471e-08
2.64819e-07
3.3179e-06
1.12949e-06
2.18326e-06
2.72814e-06
1.45233e-06
1.22636e-06
1.93099e-06
3.87169e-06
9.37328e-07
3.00321e-07
3.31225e-07
2.79215e-07
8.98473e-08
1.52503e-08
2.86369e-09
7.41497e-10
1.79863e-10
9.6006e-11
3.26106e-11
5.834e-12
1.29175e-12
2.51154e-13
7.64341e-16
1.25685e-18
3.96928e-21
1.31724e-23
3.76812e-26
9.42092e-29
2.66051e-31
8.04078e-34
2.76816e-36
1.37207e-38
7.32957e-41
9.12021e-44
1.14664e-47
2.81942e-51
4.9092e-54
3.45323e-56
1.52903e-58
4.25046e-62
9.52967e-66
2.62339e-69
1.08269e-72
1.01274e-75
2.56325e-78
6.90865e-81
1.8625e-83
3.92927e-86
6.95487e-89
1.15835e-91
1.91486e-94
2.73876e-97
3.58734e-100
5.35524e-103
7.83891e-106
8.9566e-109
1.08662e-111
1.21562e-114
1.74774e-117
2.02163e-120
2.25194e-123
2.45334e-126
2.63735e-129
3.72786e-132
4.6348e-135
8.87679e-138
4.70672e-141
1.76638e-144
6.07558e-148
2.5728e-151
2.58037e-154
3.67136e-157
5.39751e-160
7.05149e-163
1.01349e-165
1.9739e-168
5.41069e-171
1.8783e-173
7.19909e-178
2.80594e-182
9.53979e-187
2.46429e-191
4.24493e-196
5.38429e-201
5.2018e-206
4.0795e-211
2.81193e-216
1.69032e-220
1.91081e-223
2.4002e-226
3.00895e-229
3.84706e-232
4.99249e-235
6.55913e-238
8.77461e-241
1.18769e-243
1.6458e-246
2.29332e-249
2.79695e-252
3.4493e-255
3.9948e-258
4.89466e-261
6.42474e-264
8.62986e-267
1.16493e-269
1.55748e-272
2.05668e-275
2.68213e-278
3.48634e-281
4.51886e-284
5.87757e-287
7.60319e-290
9.78004e-293
1.24229e-295
1.57053e-298
1.95711e-301
2.40588e-304
2.8918e-307
3.38208e-310
3.8107e-313
4.11796e-316
4.18469e-319
3.85371e-322
0
0
0
0
0
0
0
0
0
0
0
0
0
0
0
0
0
0
0
0
0
0
0
0
0
0
0
0
0
0
0
0
0
0
0
0
0
0
0
0
0
0
0
0
0
0
0
0
0
0
0
0
0
0
0
0
0
0
0
0
0
0
0
0
0
0
0
0
0
0
0
0
0
0
0
0
0
0
0
0
0
0
0
0
0
0
0
0
0
0
0
0
0
0
0
0
0
0
0
0
0
0
0
0
0
0
0
0
0
0
0
0
0
0
0
0
0
0
0
0
0
0
0
0
0
0
0
0
0
0
0
0
0
0
0
0
0
0
0
0
0
0
0
0
0
0
0
0
0
0
0
0
0
0
0
0
0
0
0
0
0
0
0
0
0
0
0
0
0
0
0
0
0
0
0
0
0
0
0
0
0
0
0
0
0
0
0
0
0
0
0
0
0
0
0
0
0
0
0
0
0
0
0
0
0
0
0
0
0
0
0
0
0
0
0
0
0
0
0
0
0
0
0
0
0
0
0
0
0
0
0
0
0
0
0
0
0
0
0
0
0
0
0
0
0
0
0
0
0
0
0
0
0
0
0
0
0
0
0
0
0
0
0
0
0
3.98669e-11
8.97897e-11
9.6253e-11
1.3118e-10
2.4461e-10
4.62978e-10
2.09854e-09
6.91814e-09
1.4345e-08
1.07349e-08
9.1092e-09
6.23219e-09
3.64315e-09
2.05618e-08
1.07069e-08
9.08145e-09
8.61627e-08
3.85041e-06
5.28517e-07
2.12788e-08
1.0248e-08
1.67725e-08
2.08748e-08
1.48691e-08
5.64384e-09
1.42485e-09
4.93211e-10
1.8356e-10
9.55036e-11
4.60744e-11
3.06732e-11
1.5e-11
2.47654e-12
4.51899e-13
5.33899e-15
1.03223e-17
1.88909e-20
3.94555e-23
9.86274e-26
2.02972e-28
4.33808e-31
1.04192e-33
2.94883e-36
8.87245e-39
2.36059e-41
1.26668e-43
5.47111e-46
9.86201e-49
7.19671e-52
3.29112e-55
1.54011e-58
5.59936e-62
2.12408e-65
7.97384e-69
3.92554e-72
2.84571e-75
3.48299e-78
7.54304e-81
1.27819e-83
2.20077e-86
3.59259e-89
4.97829e-92
6.4464e-95
9.6763e-98
1.28825e-100
1.60894e-103
1.90114e-106
2.27787e-109
2.47679e-112
3.51323e-115
3.88584e-118
4.42569e-121
4.82773e-124
5.34164e-127
5.83455e-130
6.33207e-133
8.12023e-136
1.18332e-138
9.09176e-142
4.88054e-145
2.68659e-148
1.51907e-151
1.39034e-154
1.39564e-157
1.47453e-160
1.52895e-163
1.62172e-166
1.93218e-169
2.86917e-172
5.41515e-175
1.09602e-179
2.37966e-184
5.0341e-189
9.64013e-194
1.41242e-198
1.66033e-203
1.64243e-208
1.51187e-213
1.29234e-218
5.61731e-223
5.94103e-226
7.90475e-229
1.0005e-231
1.29446e-234
1.63252e-237
2.0918e-240
2.65977e-243
3.43599e-246
4.56693e-249
6.40997e-252
7.56592e-255
9.94672e-258
1.2508e-260
1.72092e-263
2.39966e-266
3.28734e-269
4.41494e-272
5.82056e-275
7.57142e-278
9.73296e-281
1.24414e-283
1.58618e-286
2.03149e-289
2.61396e-292
3.39002e-295
4.39649e-298
5.68443e-301
7.24694e-304
9.10199e-307
1.12137e-309
1.3506e-312
1.57521e-315
1.76448e-318
1.86757e-321
0
0
0
0
0
0
0
0
0
0
0
0
0
0
0
0
0
0
0
0
0
0
0
0
0
0
0
0
0
0
0
0
0
0
0
0
0
0
0
0
0
0
0
0
0
0
0
0
0
0
0
0
0
0
0
0
0
0
0
0
0
0
0
0
0
0
0
0
0
0
0
0
0
0
0
0
0
0
0
0
0
0
0
0
0
0
0
0
0
0
0
0
0
0
0
0
0
0
0
0
0
0
0
0
0
0
0
0
0
0
0
0
0
0
0
0
0
0
0
0
0
0
0
0
0
0
0
0
0
0
0
0
0
0
0
0
0
0
0
0
0
0
0
0
0
0
0
0
0
0
0
0
0
0
0
0
0
0
0
0
0
0
0
0
0
0
0
0
0
0
0
0
0
0
0
0
0
0
0
0
0
0
0
0
0
0
0
0
0
0
0
0
0
0
0
0
0
0
0
0
0
0
0
0
0
0
0
0
0
0
0
0
0
0
0
0
0
0
0
0
0
0
0
0
0
0
0
0
0
0
0
0
0
0
0
0
0
0
0
0
0
0
0
0
0
0
0
0
0
0
0
0
0
0
0
0
0
0
0
0
0
0
0
0
0
0
3.72939e-12
4.51995e-12
5.31895e-12
8.6968e-12
1.33414e-11
1.9181e-11
4.6948e-11
1.1932e-10
2.84744e-10
4.61898e-10
4.8824e-10
4.79859e-10
3.53608e-10
8.26873e-10
7.33734e-10
7.49675e-10
1.96835e-09
7.95033e-09
2.26495e-09
1.33252e-09
1.82731e-09
2.20498e-09
2.08448e-09
1.33579e-09
8.18726e-10
3.56157e-10
1.46316e-10
8.21151e-11
4.14716e-11
2.08106e-11
1.70062e-11
1.25117e-11
2.65916e-12
5.25413e-13
3.87183e-14
5.25909e-17
4.56082e-20
6.61587e-23
1.17117e-25
2.3451e-28
4.19068e-31
6.52087e-34
1.40046e-36
2.90473e-39
5.31241e-42
1.16864e-44
2.35781e-47
3.67249e-50
4.2104e-53
3.0766e-56
2.27831e-59
1.3743e-62
7.24877e-66
3.803e-69
2.93119e-72
2.42021e-75
2.51903e-78
3.2708e-81
4.41237e-84
5.51871e-87
6.92974e-90
9.29093e-93
1.25271e-95
1.48648e-98
1.73452e-101
1.90794e-104
2.08838e-107
2.20474e-110
3.16593e-113
3.33247e-116
3.46373e-119
3.56362e-122
3.58332e-125
3.58856e-128
3.53583e-131
3.46976e-134
3.2772e-137
3.3192e-140
2.80726e-143
2.17974e-146
1.4408e-149
7.51228e-153
6.20969e-156
5.37057e-159
4.86356e-162
4.65726e-165
4.54571e-168
4.32521e-171
4.32649e-174
1.99363e-177
6.53844e-183
2.60491e-188
2.8131e-193
5.19904e-198
8.05638e-203
9.80957e-208
9.44011e-213
8.01302e-218
1.1151e-222
7.54497e-226
9.83291e-229
1.34666e-231
1.74353e-234
2.32909e-237
3.01332e-240
3.98874e-243
5.19339e-246
6.89632e-249
9.1366e-252
1.23416e-254
1.634e-257
2.22599e-260
3.01333e-263
4.2759e-266
5.95727e-269
8.16259e-272
1.09828e-274
1.46195e-277
1.92302e-280
2.51123e-283
3.25459e-286
4.20117e-289
5.41491e-292
6.9747e-295
9.03669e-298
1.17476e-300
1.53617e-303
1.99761e-306
2.57816e-309
3.26712e-312
4.04565e-315
4.85057e-318
5.61259e-321
4.94066e-324
0
0
0
0
0
0
0
0
0
0
0
0
0
0
0
0
0
0
0
0
0
0
0
0
0
0
0
0
0
0
0
0
0
0
0
0
0
0
0
0
0
0
0
0
0
0
0
0
0
0
0
0
0
0
0
0
0
0
0
0
0
0
0
0
0
0
0
0
0
0
0
0
0
0
0
0
0
0
0
0
0
0
0
0
0
0
0
0
0
0
0
0
0
0
0
0
0
0
0
0
0
0
0
0
0
0
0
0
0
0
0
0
0
0
0
0
0
0
0
0
0
0
0
0
0
0
0
0
0
0
0
0
0
0
0
0
0
0
0
0
0
0
0
0
0
0
0
0
0
0
0
0
0
0
0
0
0
0
0
0
0
0
0
0
0
0
0
0
0
0
0
0
0
0
0
0
0
0
0
0
0
0
0
0
0
0
0
0
0
0
0
0
0
0
0
0
0
0
0
0
0
0
0
0
0
0
0
0
0
0
0
0
0
0
0
0
0
0
0
0
0
0
0
0
0
0
0
0
0
0
0
0
0
0
0
0
0
0
0
0
0
0
0
0
0
0
0
0
0
0
0
0
0
0
0
0
0
0
0
0
0
0
0
0
0
0
3.58804e-12
4.07193e-12
4.68831e-12
5.01666e-12
5.22844e-12
5.36601e-12
5.79721e-12
8.56435e-12
1.12717e-11
1.46625e-11
1.74996e-11
2.97594e-11
2.88693e-11
5.89974e-11
9.45304e-11
1.31456e-10
2.42521e-10
4.15685e-10
3.04728e-10
2.77389e-10
3.24426e-10
3.47642e-10
3.07134e-10
2.52579e-10
1.46973e-10
8.29701e-11
4.57945e-11
2.6909e-11
1.70329e-11
1.39082e-11
1.12975e-11
9.76845e-12
1.86761e-12
3.68096e-13
3.7134e-15
3.6601e-18
4.87945e-21
6.98715e-24
9.19216e-27
1.20343e-29
1.65622e-32
2.62437e-35
4.03716e-38
6.08833e-41
1.07741e-43
1.82904e-46
2.6985e-49
3.59508e-52
4.09649e-55
3.95594e-58
3.09326e-61
2.85639e-64
2.4826e-67
1.95869e-70
1.60874e-73
1.60772e-76
1.56732e-79
1.67368e-82
1.60563e-85
1.68081e-88
1.6426e-91
1.63359e-94
1.75836e-97
1.76394e-100
1.83199e-103
1.75733e-106
1.75436e-109
1.99003e-112
1.89138e-115
1.68318e-118
1.55875e-121
1.39959e-124
1.30827e-127
1.19481e-130
1.11563e-133
1.00331e-136
8.88048e-140
7.94838e-143
6.26714e-146
4.7979e-149
3.38867e-152
2.45708e-155
1.82951e-158
1.33527e-161
1.06245e-164
8.18605e-168
6.58699e-171
5.3229e-174
4.07664e-177
2.68168e-182
1.59549e-187
1.00973e-192
8.09062e-198
9.40169e-203
1.13599e-207
1.24902e-212
1.14296e-217
1.19473e-222
3.61356e-226
5.07917e-229
6.92112e-232
9.72301e-235
1.30789e-237
1.78498e-240
2.37929e-243
3.20996e-246
4.30139e-249
5.84426e-252
7.92118e-255
1.08437e-257
1.46597e-260
2.04151e-263
2.87986e-266
4.14388e-269
5.86715e-272
8.07953e-275
1.10327e-277
1.47249e-280
1.95485e-283
2.56219e-286
3.35704e-289
4.38102e-292
5.74028e-295
7.55318e-298
1.0052e-300
1.34694e-303
1.80468e-306
2.40246e-309
3.16968e-312
4.10342e-315
5.17223e-318
6.32898e-321
9.88131e-324
0
0
0
0
0
0
0
0
0
0
0
0
0
0
0
0
0
0
0
0
0
0
0
0
0
0
0
0
0
0
0
0
0
0
0
0
0
0
0
0
0
0
0
0
0
0
0
0
0
0
0
0
0
0
0
0
0
0
0
0
0
0
0
0
0
0
0
0
0
0
0
0
0
0
0
0
0
0
0
0
0
0
0
0
0
0
0
0
0
0
0
0
0
0
0
0
0
0
0
0
0
0
0
0
0
0
0
0
0
0
0
0
0
0
0
0
0
0
0
0
0
0
0
0
0
0
0
0
0
0
0
0
0
0
0
0
0
0
0
0
0
0
0
0
0
0
0
0
0
0
0
0
0
0
0
0
0
0
0
0
0
0
0
0
0
0
0
0
0
0
0
0
0
0
0
0
0
0
0
0
0
0
0
0
0
0
0
0
0
0
0
0
0
0
0
0
0
0
0
0
0
0
0
0
0
0
0
0
0
0
0
0
0
0
0
0
0
0
0
0
0
0
0
0
0
0
0
0
0
0
0
0
0
0
0
0
0
0
0
0
0
0
0
0
0
0
0
0
0
0
0
0
0
0
0
0
0
0
0
0
0
0
0
0
0
0
0
4.38645e-12
4.69346e-12
4.91779e-12
4.92386e-12
4.83619e-12
4.73214e-12
4.57192e-12
4.30532e-12
4.04471e-12
3.88375e-12
4.21979e-12
5.39644e-12
9.37401e-12
1.41833e-11
1.78126e-11
2.78615e-11
4.49522e-11
5.87439e-11
5.12684e-11
4.82437e-11
5.25588e-11
4.81782e-11
4.47529e-11
4.01032e-11
2.96263e-11
1.80022e-11
1.45267e-11
1.14162e-11
9.54554e-12
6.27508e-12
6.10361e-12
5.80374e-12
2.42432e-12
4.13999e-13
2.27304e-14
1.74797e-17
1.31503e-20
1.3019e-23
1.42638e-26
1.54425e-29
1.38629e-32
1.38703e-35
1.18853e-38
1.139e-41
9.43197e-45
9.10294e-48
8.481e-51
8.4113e-54
8.25907e-57
8.12305e-60
7.8178e-63
7.71906e-66
7.40409e-69
7.1717e-72
7.0482e-75
6.65807e-78
6.35479e-81
5.90323e-84
5.45402e-87
5.16776e-90
4.57368e-93
4.29796e-96
3.78179e-99
3.42439e-102
3.01203e-105
2.64554e-108
2.28356e-111
2.04763e-114
1.73536e-117
1.41433e-120
1.17955e-123
9.32577e-127
7.60769e-130
5.94101e-133
4.7404e-136
3.67732e-139
2.86683e-142
2.23961e-145
1.68822e-148
1.30898e-151
9.62175e-155
7.31529e-158
5.34106e-161
4.02517e-164
2.97095e-167
2.22338e-170
1.67857e-173
1.25298e-176
9.07483e-182
6.4615e-187
4.53294e-192
3.35214e-197
2.58047e-202
2.23929e-207
2.11591e-212
2.00739e-217
1.97954e-222
4.01142e-226
5.525e-229
8.15937e-232
1.15015e-234
1.66193e-237
2.32396e-240
3.28229e-243
4.53854e-246
6.30094e-249
8.70759e-252
1.21183e-254
1.68964e-257
2.37257e-260
3.31057e-263
4.7121e-266
6.82055e-269
9.88183e-272
1.41347e-274
1.96854e-277
2.72839e-280
3.694e-283
4.99742e-286
6.66033e-289
8.88632e-292
1.17786e-294
1.56607e-297
2.08408e-300
2.79198e-303
3.75379e-306
5.05899e-309
6.80004e-312
9.08845e-315
1.19878e-317
1.54988e-320
1.97626e-323
0
0
0
0
0
0
0
0
0
0
0
0
0
0
0
0
0
0
0
0
0
0
0
0
0
0
0
0
0
0
0
0
0
0
0
0
0
0
0
0
0
0
0
0
0
0
0
0
0
0
0
0
0
0
0
0
0
0
0
0
0
0
0
0
0
0
0
0
0
0
0
0
0
0
0
0
0
0
0
0
0
0
0
0
0
0
0
0
0
0