/*--------------------------------*- C++ -*----------------------------------*\
| =========                 |                                                 |
| \\      /  F ield         | OpenFOAM: The Open Source CFD Toolbox           |
|  \\    /   O peration     | Version:  2.1.1                                 |
|   \\  /    A nd           | Web:      www.OpenFOAM.org                      |
|    \\/     M anipulation  |                                                 |
\*---------------------------------------------------------------------------*/
FoamFile
{
    version     2.0;
    format      ascii;
    class       volScalarField;
    location    "0.001350000";
    object      rhoEu;
}
// * * * * * * * * * * * * * * * * * * * * * * * * * * * * * * * * * * * * * //

dimensions      [1 -1 -2 0 0 0 0];

internalField   nonuniform List<scalar> 
12384
(
-111044
-108327
-104283
-102111
-101948
-101875
-100827
-100149
-99378.8
-98614.9
-98159.7
-98181.3
-98385.8
-98281.4
-104959
-105587
-105300
-105102
-104337
-103962
-101600
-101109
-102222
-102061
-101569
-101860
-101995
-102261
-102659
-100494
-100920
-98270.9
-97125.7
-95864.8
-95622.2
-96190.8
-97407.5
-97925.7
-96516.8
-96738.1
-94655.3
-94265.5
-92004.3
-90878
-106571
-106509
-106471
-106417
-106322
-106234
-106070
-105865
-105663
-105488
-105394
-105365
-105411
-105607
-105873
-105910
-106157
-106268
-106319
-106461
-106488
-106588
-106656
-106742
-106854
-106930
-107067
-107108
-107212
-107213
-107621
-107617
-107613
-107607
-107600
-107594
-107592
-107585
-107582
-107579
-107574
-107575
-107569
-107575
-107564
-107573
-107563
-107563
-107564
-107555
-107562
-107551
-107558
-107546
-107553
-107543
-107542
-107544
-107539
-107541
-107496
-107494
-107495
-107494
-107493
-107493
-107493
-107493
-107491
-107491
-107489
-107490
-107490
-107491
-107489
-107490
-107489
-107489
-107487
-107486
-107487
-107487
-107488
-107488
-107488
-107487
-107488
-107488
-107487
-107488
-107488
-107487
-107488
-107487
-107486
-107488
-107488
-107487
-107487
-107488
-107487
-107487
-107488
-107487
-107487
-107488
-107488
-107488
-107486
-107487
-107488
-107487
-107487
-107488
-107487
-107487
-107487
-107487
-107488
-107488
-107488
-107487
-107488
-107488
-107487
-107488
-107487
-107488
-107487
-107487
-107486
-107487
-107488
-107488
-107488
-107488
-107488
-107488
-107486
-107487
-107488
-107487
-107487
-107488
-107487
-107487
-107487
-107488
-107487
-107488
-107488
-107487
-107487
-107488
-107486
-107488
-107488
-107488
-107487
-107487
-107486
-107487
-107488
-107488
-107488
-107488
-107488
-107488
-107486
-107487
-107488
-107487
-107487
-107488
-107488
-107487
-107487
-107487
-107488
-107488
-107487
-107488
-107487
-107487
-107486
-107488
-107488
-107488
-107487
-107487
-107486
-107487
-107488
-107488
-107488
-107488
-107488
-107488
-107486
-107487
-107488
-107487
-107487
-107488
-107488
-107486
-107487
-107487
-107488
-107488
-107487
-107487
-107488
-107487
-107486
-107487
-107488
-107487
-107487
-107488
-107487
-107486
-107488
-107488
-107488
-107487
-107488
-107488
-107487
-107487
-107488
-107488
-107487
-107488
-107488
-107486
-107487
-107488
-107487
-107488
-107488
-107488
-107487
-107488
-107486
-107488
-107488
-107488
-107487
-107487
-107486
-107487
-107488
-107488
-107488
-107488
-107488
-107488
-107486
-107487
-107488
-107487
-107487
-107488
-107488
-107486
-107487
-107487
-107488
-107488
-107488
-107487
-107487
-107488
-107486
-107488
-107488
-107487
-107488
-107487
-107487
-107487
-107487
-107488
-107488
-107487
-107488
-107488
-107487
-107486
-107487
-107488
-107487
-107487
-107488
-107486
-107488
-107487
-107487
-107488
-107488
-107488
-107487
-107487
-107486
-107488
-107487
-107488
-107488
-107488
-107487
-107487
-107488
-107488
-107486
-107487
-107486
-107487
-107488
-107488
-107488
-107488
-107487
-107488
-107487
-107486
-107487
-107487
-107487
-107487
-93961.7
-100017
-102926
-102801
-102138
-101485
-101262
-99936.7
-99581.1
-98963.9
-98692.5
-98487.9
-98743.2
-99002
-105528
-105155
-105181
-104118
-103922
-102962
-101334
-100652
-101248
-101739
-101507
-101436
-101189
-100684
-101170
-100594
-100872
-98751.6
-97560.8
-96493.6
-95866.7
-96128.8
-96972.5
-97563.5
-96492.7
-96507
-94792.7
-93806.1
-92476.8
-91292.3
-106510
-106446
-106451
-106396
-106298
-106217
-106053
-105920
-105754
-105641
-105512
-105454
-105512
-105600
-105748
-105968
-106052
-106270
-106293
-106440
-106495
-106585
-106651
-106745
-106828
-106935
-107038
-107116
-107194
-107221
-107620
-107616
-107612
-107608
-107598
-107596
-107586
-107586
-107578
-107579
-107573
-107576
-107568
-107573
-107567
-107567
-107567
-107562
-107565
-107557
-107562
-107551
-107556
-107550
-107547
-107548
-107542
-107542
-107540
-107540
-107494
-107494
-107496
-107493
-107495
-107494
-107491
-107495
-107490
-107494
-107489
-107493
-107488
-107492
-107489
-107488
-107491
-107486
-107491
-107485
-107491
-107485
-107491
-107485
-107489
-107488
-107485
-107490
-107486
-107487
-107487
-107486
-107490
-107485
-107489
-107484
-107490
-107485
-107490
-107485
-107490
-107486
-107489
-107489
-107486
-107490
-107486
-107490
-107485
-107490
-107485
-107490
-107485
-107490
-107484
-107489
-107486
-107485
-107488
-107486
-107487
-107486
-107490
-107485
-107488
-107489
-107485
-107490
-107485
-107490
-107485
-107491
-107485
-107490
-107486
-107490
-107486
-107490
-107485
-107490
-107485
-107490
-107485
-107490
-107485
-107489
-107485
-107490
-107486
-107487
-107487
-107487
-107487
-107489
-107486
-107490
-107485
-107490
-107485
-107490
-107485
-107490
-107486
-107490
-107486
-107490
-107486
-107490
-107485
-107490
-107485
-107490
-107485
-107490
-107484
-107489
-107486
-107485
-107487
-107486
-107486
-107487
-107485
-107490
-107484
-107490
-107485
-107490
-107485
-107490
-107485
-107490
-107486
-107490
-107486
-107490
-107486
-107490
-107485
-107490
-107485
-107490
-107485
-107490
-107484
-107489
-107486
-107485
-107487
-107486
-107487
-107487
-107488
-107485
-107489
-107485
-107490
-107485
-107490
-107485
-107490
-107485
-107490
-107486
-107489
-107486
-107490
-107485
-107489
-107486
-107486
-107489
-107485
-107490
-107485
-107489
-107485
-107490
-107486
-107487
-107486
-107488
-107484
-107489
-107484
-107489
-107484
-107490
-107485
-107490
-107485
-107490
-107486
-107490
-107486
-107490
-107486
-107490
-107485
-107490
-107485
-107490
-107485
-107490
-107484
-107489
-107486
-107485
-107487
-107486
-107487
-107486
-107489
-107487
-107486
-107489
-107485
-107490
-107485
-107490
-107485
-107490
-107485
-107489
-107486
-107486
-107489
-107485
-107491
-107485
-107490
-107485
-107490
-107485
-107489
-107485
-107488
-107489
-107486
-107487
-107486
-107487
-107484
-107489
-107484
-107490
-107484
-107490
-107484
-107491
-107484
-107491
-107485
-107490
-107485
-107490
-107486
-107490
-107484
-107490
-107485
-107490
-107484
-107489
-107484
-107489
-107487
-107486
-107487
-107486
-38604.6
-61687.6
-70332.1
-84915.7
-94111.4
-98185.8
-99163.5
-99273.7
-98935.8
-99228
-98860.1
-98597.9
-98760.1
-99187.7
-104258
-104499
-103730
-103129
-100186
-96251.1
-96536.9
-96575.6
-96477.3
-99709.6
-101621
-101218
-100537
-99773.3
-99314.3
-99724.8
-100391
-99151.8
-98771.6
-97264.2
-96397.3
-96276.7
-96632.5
-97162.2
-96762.8
-97015.9
-95581.2
-94776.7
-93328.2
-93028.9
-106426
-106341
-106221
-106153
-106138
-105987
-105960
-105897
-105839
-105750
-105622
-105633
-105584
-105686
-105763
-106044
-106107
-106336
-106440
-106516
-106639
-106677
-106762
-106841
-106915
-107004
-107083
-107155
-107210
-107235
-107625
-107619
-107618
-107612
-107611
-107606
-107609
-107604
-107603
-107604
-107599
-107603
-107597
-107596
-107597
-107589
-107596
-107584
-107592
-107582
-107586
-107578
-107577
-107576
-107571
-107572
-107565
-107568
-107564
-107564
-107520
-107519
-107519
-107518
-107517
-107517
-107516
-107515
-107514
-107514
-107515
-107514
-107514
-107513
-107512
-107513
-107511
-107513
-107511
-107512
-107510
-107511
-107510
-107512
-107511
-107510
-107512
-107511
-107512
-107511
-107511
-107512
-107510
-107511
-107510
-107512
-107510
-107511
-107509
-107512
-107510
-107512
-107510
-107510
-107511
-107509
-107511
-107510
-107512
-107510
-107512
-107509
-107511
-107510
-107512
-107510
-107511
-107512
-107511
-107512
-107511
-107512
-107511
-107512
-107510
-107511
-107511
-107510
-107510
-107510
-107512
-107511
-107512
-107510
-107512
-107510
-107512
-107510
-107511
-107509
-107511
-107509
-107511
-107510
-107512
-107509
-107511
-107510
-107511
-107511
-107511
-107511
-107511
-107511
-107511
-107511
-107511
-107510
-107511
-107511
-107512
-107511
-107512
-107510
-107512
-107510
-107512
-107510
-107512
-107510
-107512
-107509
-107511
-107510
-107512
-107510
-107511
-107512
-107511
-107512
-107511
-107510
-107511
-107510
-107511
-107511
-107512
-107510
-107511
-107510
-107512
-107510
-107512
-107510
-107512
-107510
-107512
-107510
-107512
-107510
-107512
-107509
-107511
-107510
-107512
-107510
-107511
-107512
-107511
-107512
-107511
-107511
-107510
-107511
-107510
-107512
-107510
-107511
-107509
-107512
-107510
-107512
-107510
-107511
-107510
-107512
-107510
-107511
-107510
-107511
-107512
-107509
-107511
-107510
-107512
-107510
-107511
-107510
-107511
-107511
-107512
-107510
-107512
-107510
-107511
-107511
-107511
-107510
-107511
-107511
-107512
-107510
-107512
-107510
-107511
-107510
-107512
-107510
-107512
-107510
-107512
-107509
-107511
-107510
-107512
-107510
-107511
-107512
-107511
-107512
-107511
-107512
-107511
-107511
-107511
-107511
-107511
-107510
-107511
-107511
-107512
-107510
-107512
-107511
-107511
-107511
-107511
-107512
-107510
-107512
-107511
-107511
-107510
-107511
-107511
-107512
-107510
-107511
-107512
-107511
-107511
-107511
-107512
-107510
-107511
-107510
-107511
-107510
-107511
-107510
-107511
-107510
-107511
-107510
-107511
-107510
-107511
-107510
-107511
-107510
-107512
-107511
-107511
-107510
-107512
-107509
-107510
-107512
-107510
-107511
7042.19
-4295.63
-15408.7
-46755.4
-84583.2
-84803.1
-96127.6
-104908
-104506
-99818.5
-99939.6
-99878.1
-99123
-98192.6
-102795
-103152
-101900
-99203.5
-98256.2
-106330
-114299
-113765
-107574
-98690.6
-98445.2
-98240.1
-100247
-99465
-98101.2
-97671
-98498.7
-98888.3
-99053.8
-97983.9
-96813.2
-95752.3
-95721.7
-96161.6
-96743.2
-96670
-96346.5
-95124.4
-94659.3
-93816.1
-106263
-106125
-105981
-105798
-105624
-105734
-105709
-105678
-105703
-105655
-105693
-105613
-105561
-105588
-105651
-105823
-106063
-106185
-106436
-106453
-106627
-106652
-106774
-106831
-106932
-107001
-107072
-107154
-107184
-107229
-107593
-107582
-107586
-107587
-107586
-107591
-107588
-107597
-107589
-107596
-107595
-107592
-107598
-107588
-107597
-107585
-107593
-107584
-107586
-107585
-107576
-107583
-107570
-107579
-107565
-107573
-107560
-107566
-107559
-107565
-107516
-107517
-107518
-107516
-107516
-107517
-107514
-107515
-107512
-107514
-107511
-107513
-107510
-107512
-107510
-107509
-107512
-107508
-107511
-107507
-107511
-107507
-107511
-107508
-107511
-107510
-107507
-107511
-107508
-107509
-107509
-107508
-107511
-107507
-107511
-107508
-107511
-107507
-107511
-107507
-107511
-107507
-107510
-107510
-107507
-107511
-107507
-107510
-107507
-107511
-107507
-107510
-107507
-107511
-107508
-107510
-107507
-107507
-107509
-107509
-107509
-107508
-107510
-107507
-107508
-107511
-107507
-107511
-107507
-107510
-107507
-107511
-107507
-107510
-107507
-107510
-107507
-107511
-107507
-107510
-107507
-107510
-107507
-107511
-107508
-107511
-107507
-107511
-107508
-107510
-107509
-107508
-107507
-107511
-107507
-107511
-107507
-107511
-107507
-107511
-107507
-107511
-107507
-107511
-107506
-107510
-107507
-107510
-107507
-107511
-107507
-107510
-107507
-107511
-107508
-107510
-107507
-107507
-107509
-107509
-107509
-107509
-107506
-107510
-107507
-107511
-107507
-107511
-107506
-107511
-107507
-107511
-107506
-107510
-107507
-107510
-107507
-107510
-107507
-107511
-107507
-107510
-107507
-107511
-107508
-107510
-107507
-107507
-107509
-107509
-107509
-107509
-107510
-107507
-107511
-107508
-107511
-107507
-107511
-107507
-107511
-107507
-107510
-107507
-107510
-107506
-107510
-107507
-107509
-107507
-107507
-107510
-107507
-107511
-107508
-107511
-107507
-107511
-107508
-107509
-107509
-107509
-107506
-107511
-107507
-107511
-107507
-107511
-107506
-107511
-107507
-107511
-107506
-107510
-107506
-107510
-107506
-107510
-107507
-107511
-107506
-107510
-107507
-107511
-107508
-107510
-107508
-107507
-107509
-107509
-107509
-107508
-107510
-107510
-107507
-107512
-107507
-107511
-107507
-107510
-107507
-107511
-107507
-107510
-107507
-107507
-107510
-107507
-107511
-107507
-107511
-107507
-107511
-107508
-107512
-107507
-107510
-107510
-107508
-107510
-107509
-107509
-107506
-107511
-107507
-107512
-107507
-107511
-107506
-107510
-107506
-107511
-107507
-107511
-107507
-107511
-107507
-107511
-107507
-107511
-107507
-107510
-107507
-107511
-107508
-107510
-107507
-107507
-107509
-107509
47471.4
47633
42681
19000.8
-14982.7
-44548.6
-80435.9
-110979
-129880
-117006
-104561
-100251
-99547.6
-97932.4
-101268
-100710
-100227
-113220
-129437
-152802
-157434
-153687
-152643
-133930
-117347
-108577
-96064.3
-98426
-98459.9
-96731.2
-96635.9
-97596.6
-98553.4
-98142.9
-96983.8
-95449.3
-94730.9
-95114.6
-95987.1
-96870.6
-96616.1
-96483.1
-95398.4
-95135.2
-106248
-106051
-105555
-105115
-105071
-104949
-105126
-105292
-105386
-105514
-105531
-105518
-105499
-105495
-105550
-105632
-105891
-106005
-106278
-106405
-106536
-106622
-106755
-106815
-106911
-106982
-107066
-107110
-107178
-107183
-107566
-107531
-107548
-107552
-107557
-107562
-107570
-107572
-107581
-107577
-107587
-107582
-107590
-107583
-107589
-107586
-107585
-107581
-107586
-107573
-107580
-107573
-107571
-107570
-107564
-107565
-107559
-107561
-107557
-107558
-107517
-107515
-107515
-107513
-107514
-107512
-107512
-107512
-107510
-107509
-107509
-107509
-107509
-107508
-107508
-107508
-107506
-107508
-107506
-107507
-107505
-107506
-107506
-107507
-107505
-107506
-107506
-107505
-107506
-107505
-107506
-107506
-107504
-107506
-107504
-107506
-107505
-107507
-107504
-107506
-107505
-107507
-107505
-107505
-107506
-107505
-107507
-107505
-107507
-107504
-107506
-107504
-107507
-107505
-107506
-107505
-107506
-107506
-107505
-107505
-107505
-107506
-107505
-107506
-107505
-107505
-107506
-107505
-107506
-107504
-107506
-107505
-107507
-107505
-107507
-107505
-107507
-107505
-107507
-107505
-107506
-107505
-107507
-107505
-107506
-107505
-107506
-107505
-107506
-107505
-107505
-107506
-107506
-107505
-107506
-107505
-107507
-107505
-107507
-107504
-107506
-107505
-107506
-107505
-107507
-107505
-107507
-107505
-107507
-107504
-107506
-107504
-107507
-107505
-107506
-107505
-107506
-107506
-107506
-107505
-107506
-107505
-107506
-107504
-107506
-107504
-107507
-107506
-107506
-107504
-107506
-107505
-107507
-107505
-107507
-107505
-107507
-107505
-107507
-107504
-107506
-107505
-107507
-107505
-107506
-107505
-107506
-107506
-107506
-107505
-107506
-107506
-107505
-107506
-107505
-107507
-107505
-107508
-107504
-107506
-107504
-107507
-107505
-107507
-107505
-107507
-107505
-107507
-107505
-107506
-107505
-107505
-107507
-107505
-107506
-107504
-107506
-107504
-107506
-107505
-107505
-107505
-107507
-107505
-107507
-107504
-107507
-107506
-107507
-107504
-107506
-107505
-107507
-107505
-107507
-107505
-107507
-107505
-107507
-107504
-107506
-107505
-107507
-107505
-107506
-107505
-107505
-107506
-107506
-107505
-107505
-107506
-107505
-107505
-107506
-107505
-107507
-107505
-107506
-107504
-107506
-107505
-107506
-107505
-107507
-107506
-107505
-107506
-107505
-107506
-107504
-107506
-107505
-107506
-107504
-107506
-107505
-107505
-107506
-107505
-107506
-107505
-107507
-107505
-107506
-107504
-107507
-107506
-107508
-107505
-107507
-107505
-107507
-107505
-107507
-107505
-107507
-107505
-107507
-107505
-107506
-107504
-107507
-107506
-107507
-107506
-107506
-107506
-107506
-107506
50258.5
50313.7
51665.5
48340.9
31101.9
4269.82
-36442.9
-84527.8
-114534
-129255
-126218
-116429
-100636
-99022.7
-100343
-99962.8
-118175
-140110
-139384
-143198
-145204
-146577
-147449
-143036
-146268
-146356
-120082
-95658.9
-98339.7
-97829.7
-96273.5
-96178
-96818.5
-97262
-96694.7
-95261.6
-94289.2
-94271.6
-95113
-96146.5
-96870.1
-96726.3
-96713.6
-95900.5
-106091
-105804
-104811
-104225
-103776
-103871
-104069
-104586
-104914
-105084
-105317
-105379
-105408
-105403
-105416
-105499
-105707
-105822
-106167
-106218
-106500
-106513
-106728
-106756
-106902
-106940
-107029
-107084
-107134
-107146
-107542
-107464
-107491
-107508
-107520
-107532
-107540
-107553
-107556
-107571
-107569
-107576
-107580
-107578
-107582
-107578
-107583
-107573
-107583
-107569
-107576
-107569
-107566
-107567
-107562
-107561
-107558
-107558
-107555
-107555
-107512
-107515
-107513
-107514
-107510
-107512
-107509
-107509
-107508
-107507
-107507
-107506
-107506
-107506
-107506
-107504
-107505
-107504
-107505
-107503
-107504
-107503
-107504
-107503
-107504
-107503
-107503
-107504
-107503
-107504
-107503
-107503
-107503
-107503
-107504
-107503
-107504
-107502
-107504
-107502
-107503
-107502
-107503
-107503
-107503
-107503
-107503
-107503
-107502
-107503
-107502
-107503
-107502
-107504
-107503
-107503
-107503
-107503
-107503
-107503
-107503
-107503
-107503
-107503
-107503
-107503
-107503
-107503
-107502
-107503
-107502
-107503
-107503
-107503
-107503
-107503
-107503
-107503
-107502
-107503
-107502
-107504
-107502
-107504
-107502
-107504
-107503
-107503
-107503
-107503
-107503
-107503
-107503
-107503
-107503
-107503
-107503
-107503
-107502
-107503
-107502
-107503
-107503
-107503
-107503
-107503
-107503
-107503
-107502
-107503
-107502
-107503
-107502
-107504
-107503
-107504
-107503
-107503
-107503
-107503
-107503
-107503
-107502
-107504
-107503
-107504
-107502
-107503
-107503
-107503
-107502
-107503
-107502
-107503
-107503
-107503
-107503
-107503
-107502
-107503
-107502
-107504
-107502
-107504
-107503
-107504
-107503
-107503
-107503
-107503
-107503
-107503
-107503
-107502
-107504
-107502
-107504
-107502
-107504
-107502
-107503
-107502
-107503
-107503
-107503
-107503
-107503
-107503
-107503
-107503
-107503
-107504
-107502
-107504
-107503
-107503
-107503
-107503
-107503
-107503
-107503
-107503
-107502
-107504
-107502
-107504
-107502
-107503
-107502
-107503
-107502
-107503
-107502
-107503
-107503
-107503
-107503
-107503
-107502
-107503
-107502
-107503
-107502
-107504
-107503
-107503
-107503
-107503
-107503
-107503
-107503
-107503
-107503
-107503
-107503
-107504
-107503
-107503
-107502
-107503
-107502
-107503
-107502
-107503
-107503
-107503
-107503
-107502
-107503
-107502
-107503
-107502
-107503
-107503
-107503
-107503
-107503
-107503
-107503
-107503
-107503
-107503
-107502
-107503
-107502
-107503
-107502
-107503
-107503
-107503
-107502
-107504
-107503
-107503
-107503
-107504
-107504
-107503
-107502
-107503
-107502
-107503
-107503
-107504
-107503
-107503
-107502
-107502
-107504
-107503
47758
48094.6
46290.4
38604.9
27014.7
13620.8
-19870.3
-73551.1
-111419
-123396
-127467
-142201
-108561
-100250
-99916.6
-108074
-138144
-138972
-138507
-138253
-141791
-143630
-140483
-140656
-138795
-142506
-145899
-118646
-98332
-98690
-96917.9
-95546.8
-95485.3
-95650.8
-95582.3
-94897.9
-94096.8
-93876.6
-94551.3
-95471
-96493.1
-97139.7
-96728.4
-94230.2
-105910
-104510
-103074
-102175
-101950
-102182
-102825
-103353
-104120
-104567
-104884
-105125
-105202
-105241
-105290
-105347
-105468
-105680
-105983
-106090
-106378
-106443
-106647
-106692
-106826
-106884
-106947
-107040
-107044
-107031
-107443
-107341
-107391
-107444
-107468
-107490
-107509
-107521
-107538
-107541
-107560
-107557
-107569
-107569
-107568
-107574
-107572
-107567
-107573
-107562
-107570
-107558
-107565
-107554
-107561
-107548
-107555
-107546
-107551
-107544
-107513
-107510
-107510
-107506
-107507
-107505
-107505
-107503
-107502
-107502
-107501
-107501
-107500
-107500
-107499
-107500
-107499
-107499
-107498
-107499
-107497
-107497
-107497
-107497
-107497
-107497
-107496
-107496
-107497
-107497
-107497
-107497
-107496
-107497
-107496
-107498
-107497
-107498
-107496
-107497
-107497
-107497
-107497
-107497
-107497
-107497
-107497
-107497
-107498
-107497
-107498
-107496
-107498
-107497
-107497
-107496
-107496
-107497
-107496
-107497
-107497
-107497
-107496
-107496
-107497
-107497
-107497
-107497
-107496
-107497
-107498
-107497
-107498
-107497
-107497
-107497
-107497
-107497
-107498
-107497
-107497
-107496
-107498
-107497
-107497
-107496
-107497
-107496
-107497
-107497
-107497
-107497
-107497
-107496
-107497
-107497
-107498
-107497
-107497
-107497
-107498
-107497
-107498
-107497
-107497
-107497
-107498
-107497
-107498
-107497
-107498
-107496
-107498
-107497
-107498
-107496
-107496
-107497
-107496
-107497
-107498
-107497
-107497
-107496
-107497
-107497
-107498
-107497
-107497
-107497
-107498
-107497
-107498
-107497
-107497
-107497
-107498
-107497
-107498
-107497
-107498
-107496
-107498
-107497
-107498
-107496
-107496
-107497
-107496
-107497
-107497
-107497
-107497
-107497
-107496
-107498
-107497
-107498
-107496
-107498
-107497
-107498
-107497
-107498
-107497
-107497
-107497
-107497
-107497
-107497
-107497
-107496
-107498
-107497
-107498
-107497
-107497
-107497
-107497
-107497
-107497
-107497
-107497
-107496
-107498
-107496
-107498
-107497
-107497
-107497
-107498
-107497
-107498
-107497
-107497
-107497
-107498
-107497
-107498
-107497
-107498
-107496
-107498
-107497
-107497
-107496
-107496
-107497
-107496
-107497
-107497
-107497
-107496
-107496
-107497
-107497
-107497
-107497
-107496
-107497
-107498
-107497
-107498
-107497
-107497
-107497
-107496
-107497
-107496
-107498
-107496
-107496
-107497
-107497
-107497
-107497
-107496
-107496
-107496
-107497
-107497
-107497
-107497
-107496
-107498
-107496
-107497
-107496
-107497
-107496
-107497
-107496
-107497
-107496
-107497
-107496
-107497
-107497
-107497
-107497
-107498
-107496
-107498
-107497
-107498
-107497
-107498
-107497
-107498
-107497
46573.5
41257.9
30298.1
20774.5
13789.7
7354.91
-34177.4
-90948.4
-118322
-125973
-132533
-139880
-107614
-100304
-99434.4
-123673
-134905
-134694
-131161
-129671
-130819
-134083
-137121
-137535
-138779
-140932
-142833
-136611
-112665
-98879.1
-97527.4
-95141.3
-94180.5
-94078.2
-94044.4
-93925.3
-93966.8
-94065.9
-94331.7
-95079.7
-96150.1
-96498.4
-95901.1
-91880.2
-101604
-100304
-98799.5
-98230.5
-98648.6
-100016
-101349
-102400
-103133
-103912
-104503
-104697
-105005
-105056
-105130
-105199
-105315
-105450
-105756
-105952
-106215
-106395
-106519
-106679
-106748
-106868
-106921
-106966
-106924
-106901
-107005
-106971
-107175
-107314
-107394
-107444
-107469
-107495
-107510
-107525
-107537
-107548
-107550
-107563
-107557
-107567
-107561
-107567
-107561
-107560
-107561
-107555
-107559
-107549
-107554
-107546
-107549
-107542
-107545
-107540
-107502
-107509
-107503
-107507
-107502
-107504
-107499
-107501
-107499
-107498
-107497
-107496
-107497
-107497
-107496
-107496
-107495
-107495
-107493
-107493
-107493
-107493
-107493
-107492
-107493
-107493
-107492
-107492
-107492
-107492
-107492
-107492
-107492
-107492
-107493
-107493
-107492
-107493
-107493
-107492
-107492
-107492
-107493
-107493
-107493
-107493
-107493
-107493
-107492
-107492
-107492
-107493
-107493
-107492
-107493
-107493
-107492
-107492
-107492
-107492
-107492
-107492
-107492
-107492
-107493
-107493
-107492
-107493
-107493
-107492
-107492
-107492
-107493
-107493
-107493
-107493
-107493
-107493
-107492
-107492
-107492
-107493
-107493
-107492
-107493
-107493
-107492
-107492
-107492
-107492
-107492
-107492
-107492
-107492
-107493
-107493
-107492
-107493
-107493
-107492
-107492
-107492
-107493
-107493
-107493
-107493
-107493
-107493
-107492
-107492
-107492
-107493
-107493
-107492
-107493
-107493
-107492
-107492
-107492
-107492
-107492
-107492
-107492
-107492
-107493
-107493
-107492
-107493
-107493
-107492
-107492
-107492
-107493
-107493
-107493
-107493
-107493
-107493
-107492
-107492
-107492
-107493
-107493
-107492
-107493
-107493
-107492
-107492
-107492
-107492
-107492
-107492
-107492
-107492
-107493
-107493
-107492
-107493
-107493
-107492
-107492
-107492
-107493
-107493
-107493
-107493
-107493
-107493
-107492
-107492
-107492
-107493
-107493
-107492
-107493
-107493
-107492
-107492
-107492
-107492
-107492
-107492
-107492
-107492
-107493
-107493
-107492
-107493
-107493
-107492
-107492
-107492
-107493
-107493
-107493
-107493
-107493
-107493
-107492
-107492
-107492
-107493
-107493
-107492
-107493
-107493
-107492
-107492
-107492
-107492
-107492
-107492
-107492
-107492
-107492
-107493
-107492
-107493
-107493
-107492
-107492
-107492
-107493
-107493
-107493
-107493
-107493
-107493
-107492
-107492
-107492
-107493
-107493
-107492
-107493
-107493
-107492
-107492
-107492
-107492
-107492
-107492
-107492
-107492
-107492
-107492
-107492
-107493
-107493
-107492
-107493
-107493
-107493
-107493
-107493
-107493
-107493
-107493
-107492
-107492
-107493
-107493
-107492
-107492
-107492
-107492
-107492
-107493
-107493
-107492
31913.3
25784.1
15822.3
10254.7
8766.58
-2553.54
-42029
-84024.3
-108898
-115637
-117502
-127485
-127421
-112622
-117606
-114926
-105702
-138894
-133944
-128510
-125618
-123477
-124573
-125937
-131523
-137652
-138751
-139076
-140749
-143734
-134449
-110513
-96722.5
-94969.2
-93343.7
-92710
-92577.7
-92820.1
-93246.9
-93597.8
-93958
-94753
-95411.5
-95800.3
-93262.2
-79824.3
-84723.3
-91333.3
-92273.7
-91176.3
-92086.1
-92957.5
-95022
-97454.7
-99754.7
-101346
-102514
-103233
-103992
-104373
-104724
-104849
-104960
-105013
-105163
-105241
-105603
-105710
-106051
-106191
-106381
-106544
-106578
-106697
-106668
-106599
-106289
-105503
-106065
-106538
-106374
-106544
-106844
-107079
-107247
-107357
-107403
-107453
-107471
-107496
-107513
-107524
-107535
-107545
-107545
-107554
-107549
-107557
-107549
-107555
-107549
-107549
-107545
-107543
-107540
-107538
-107534
-107532
-107528
-107522
-107518
-107509
-107508
-107500
-107505
-107496
-107500
-107493
-107496
-107492
-107492
-107491
-107490
-107490
-107489
-107489
-107488
-107488
-107487
-107487
-107487
-107486
-107486
-107486
-107485
-107485
-107485
-107484
-107485
-107484
-107485
-107484
-107484
-107484
-107484
-107484
-107484
-107484
-107484
-107485
-107485
-107485
-107485
-107485
-107485
-107485
-107485
-107485
-107485
-107485
-107485
-107485
-107485
-107485
-107485
-107485
-107485
-107484
-107484
-107484
-107484
-107484
-107485
-107484
-107484
-107484
-107484
-107484
-107484
-107484
-107484
-107484
-107484
-107485
-107485
-107485
-107485
-107485
-107485
-107485
-107485
-107485
-107485
-107485
-107485
-107485
-107485
-107485
-107485
-107485
-107484
-107484
-107484
-107484
-107485
-107484
-107484
-107484
-107484
-107484
-107484
-107484
-107484
-107484
-107484
-107485
-107485
-107485
-107485
-107485
-107485
-107485
-107485
-107485
-107485
-107485
-107485
-107485
-107485
-107485
-107485
-107484
-107484
-107484
-107485
-107484
-107485
-107484
-107484
-107484
-107484
-107485
-107484
-107484
-107484
-107484
-107485
-107485
-107485
-107485
-107485
-107485
-107485
-107485
-107485
-107485
-107485
-107485
-107485
-107485
-107485
-107485
-107485
-107484
-107484
-107484
-107485
-107484
-107485
-107484
-107484
-107484
-107484
-107485
-107484
-107484
-107484
-107484
-107484
-107485
-107485
-107485
-107485
-107485
-107485
-107485
-107485
-107485
-107485
-107485
-107485
-107485
-107485
-107485
-107485
-107485
-107484
-107484
-107484
-107484
-107484
-107484
-107484
-107484
-107484
-107485
-107484
-107484
-107484
-107484
-107485
-107485
-107485
-107485
-107485
-107485
-107485
-107485
-107485
-107485
-107485
-107485
-107485
-107485
-107485
-107485
-107485
-107484
-107484
-107484
-107484
-107484
-107485
-107484
-107484
-107484
-107484
-107484
-107484
-107484
-107484
-107484
-107484
-107485
-107485
-107485
-107485
-107485
-107485
-107485
-107485
-107485
-107485
-107485
-107485
-107485
-107485
-107485
-107485
-107485
-107484
-107484
-107484
-107484
-107484
-107484
-107484
-107484
-107484
-107485
-107484
-107485
-107484
-107484
-107485
-107485
-107485
-107485
-107485
-107485
-107485
-107485
-107485
-107485
-107485
-107485
-107485
-107485
-107485
-107485
-107485
-107485
-107485
-107484
-107485
-107485
-107484
-107485
-107485
-107484
14632.1
13873.6
9641.38
5558.97
4659.51
6873.68
5903.12
-14564.3
-46011.4
-68416.1
-81926.7
-97662
-112736
-129768
-126334
-125626
-131587
-132718
-127880
-124124
-122181
-122740
-122956
-125866
-131710
-139221
-140403
-139550
-138958
-141804
-145107
-133703
-107617
-92608
-92319.1
-91855.3
-91399.8
-91292.6
-91901.2
-92690.8
-93862.6
-94197.7
-94562.6
-94132.4
-92150.8
-83225.8
-79600.5
-79665.8
-80432
-82823.4
-85922.4
-89373
-92955.5
-96182.8
-98580.1
-100521
-101634
-102892
-103307
-104122
-104330
-104603
-104773
-104833
-104991
-105111
-105422
-105535
-105905
-105990
-106274
-106366
-106513
-106570
-106573
-106573
-106364
-105865
-105908
-106117
-106237
-106582
-106950
-107126
-107279
-107332
-107396
-107427
-107457
-107478
-107499
-107510
-107526
-107526
-107543
-107536
-107546
-107543
-107546
-107545
-107543
-107544
-107536
-107540
-107531
-107535
-107525
-107530
-107519
-107520
-107514
-107506
-107505
-107498
-107501
-107492
-107494
-107490
-107490
-107488
-107487
-107486
-107486
-107484
-107485
-107483
-107483
-107483
-107482
-107482
-107481
-107482
-107481
-107480
-107479
-107480
-107480
-107479
-107479
-107480
-107480
-107479
-107480
-107480
-107479
-107480
-107480
-107479
-107479
-107480
-107479
-107479
-107480
-107480
-107480
-107480
-107480
-107480
-107480
-107480
-107480
-107480
-107480
-107480
-107480
-107480
-107479
-107479
-107480
-107479
-107479
-107480
-107480
-107479
-107480
-107480
-107479
-107480
-107480
-107479
-107479
-107480
-107479
-107479
-107479
-107480
-107480
-107480
-107480
-107480
-107480
-107480
-107480
-107480
-107480
-107480
-107480
-107479
-107479
-107479
-107480
-107479
-107479
-107480
-107480
-107479
-107480
-107480
-107479
-107480
-107480
-107479
-107479
-107480
-107479
-107479
-107480
-107480
-107480
-107480
-107480
-107480
-107480
-107480
-107480