/*--------------------------------*- C++ -*----------------------------------*\
| =========                 |                                                 |
| \\      /  F ield         | OpenFOAM: The Open Source CFD Toolbox           |
|  \\    /   O peration     | Version:  2.1.1                                 |
|   \\  /    A nd           | Web:      www.OpenFOAM.org                      |
|    \\/     M anipulation  |                                                 |
\*---------------------------------------------------------------------------*/
FoamFile
{
    version     2.0;
    format      ascii;
    class       volScalarField;
    location    "0.001350000";
    object      sL;
}
// * * * * * * * * * * * * * * * * * * * * * * * * * * * * * * * * * * * * * //

dimensions      [0 1 -1 0 0 0 0];

internalField   nonuniform List<scalar> 
12384
(
1.36762
1.53559
1.89776
2.03672
2.09775
2.08523
2.05597
2.08392
2.18637
2.30368
2.36623
2.39912
2.39999
2.37024
1.92474
1.74618
1.57281
1.47044
1.45173
1.42543
1.39956
1.3932
1.38955
1.41471
1.47042
1.56164
1.66695
1.7951
1.90152
2.01959
2.09181
2.20344
2.27662
2.34588
2.38034
2.391
2.37956
2.37455
2.38619
2.37756
2.41926
2.43264
2.46955
2.4851
2.09145
2.03504
2.03263
2.04208
2.05796
2.07214
2.09734
2.12409
2.15127
2.17387
2.19228
2.19961
2.2091
2.20229
2.19553
2.19596
2.18512
2.18216
2.1837
2.17604
2.17992
2.17483
2.1768
2.1746
2.1735
2.17258
2.16841
2.16941
2.16415
2.16637
2.10116
2.09945
2.099
2.0983
2.09825
2.09589
2.09533
2.09328
2.09184
2.09133
2.08861
2.08867
2.08534
2.08587
2.08215
2.08315
2.08049
2.07917
2.07966
2.07696
2.07773
2.07505
2.07611
2.07342
2.07434
2.07274
2.07198
2.07222
2.07113
2.07257
2.06527
2.06377
2.06375
2.0635
2.06354
2.06336
2.06329
2.06309
2.06299
2.06282
2.06269
2.06249
2.0622
2.062
2.06183
2.06178
2.06176
2.06189
2.06199
2.0621
2.06213
2.06221
2.06224
2.06232
2.06238
2.06245
2.06245
2.06253
2.06261
2.06418
2.06418
2.06261
2.06253
2.06247
2.06244
2.06235
2.0623
2.06223
2.06217
2.06208
2.06203
2.06193
2.06174
2.06163
2.06153
2.06154
2.06163
2.06176
2.06192
2.06201
2.06208
2.06216
2.06222
2.06228
2.06235
2.06241
2.06245
2.06251
2.06258
2.06418
2.06418
2.0626
2.06251
2.06243
2.06245
2.06239
2.06232
2.06224
2.06218
2.0621
2.06203
2.06192
2.06176
2.06165
2.06154
2.06153
2.06159
2.06175
2.06195
2.06205
2.06213
2.06222
2.06227
2.06233
2.06239
2.06245
2.06248
2.06253
2.0626
2.06418
2.06418
2.06262
2.06255
2.06247
2.06243
2.06234
2.06227
2.0622
2.06215
2.06208
2.06202
2.06192
2.06175
2.06163
2.06151
2.06152
2.06162
2.06176
2.06192
2.06201
2.06208
2.06216
2.06221
2.06228
2.06233
2.06241
2.06245
2.06252
2.06258
2.06418
2.06419
2.0626
2.06255
2.06247
2.06242
2.06234
2.06228
2.06222
2.06217
2.0621
2.06204
2.06194
2.06176
2.06163
2.06152
2.06153
2.06162
2.06175
2.06191
2.06201
2.06208
2.06216
2.06222
2.06229
2.06234
2.06242
2.06246
2.06252
2.06258
2.06418
2.06419
2.06264
2.06255
2.06247
2.06242
2.06233
2.06226
2.0622
2.06214
2.06207
2.06201
2.06193
2.06178
2.06165
2.06155
2.06152
2.0616
2.06175
2.06194
2.06204
2.06209
2.06218
2.06224
2.06231
2.06235
2.06245
2.06249
2.06256
2.06263
2.06418
2.06418
2.0626
2.06253
2.06245
2.06242
2.06233
2.06227
2.0622
2.06216
2.06209
2.06203
2.06193
2.06176
2.06164
2.06152
2.06152
2.0616
2.06175
2.06191
2.06201
2.06208
2.06216
2.06222
2.06229
2.06235
2.06243
2.06246
2.06251
2.06258
2.06418
2.06418
2.06259
2.06252
2.06248
2.06245
2.06239
2.0623
2.06224
2.06216
2.06209
2.06201
2.06191
2.06175
2.06162
2.06152
2.06153
2.06162
2.06174
2.06191
2.06202
2.06209
2.06215
2.06223
2.0623
2.06235
2.06243
2.06246
2.06253
2.06261
2.06418
2.06417
2.0626
2.06253
2.06245
2.0624
2.06232
2.06227
2.06221
2.06216
2.0621
2.06205
2.06196
2.0618
2.06166
2.06156
2.06153
2.06163
2.06177
2.06189
2.06199
2.06208
2.06217
2.06224
2.0623
2.06237
2.06244
2.06247
2.06252
2.06259
2.06419
0.495874
0.660358
0.731805
0.822271
0.904708
0.844251
0.701036
0.735653
0.825026
1.04027
1.53037
1.76997
2.0574
2.15867
0.880746
0.600937
0.482126
0.492827
0.524573
0.547038
0.582731
0.558758
0.503083
0.427539
0.393571
0.373487
0.365568
0.395331
0.422722
0.529336
0.589035
0.758417
0.864686
1.09368
1.32646
1.56377
1.7813
1.96527
2.13504
2.2546
2.33797
2.41028
2.45436
2.4785
0.731742
0.602054
0.588542
0.601992
0.626637
0.663602
0.714203
0.79056
0.870706
0.985511
1.08199
1.21038
1.32105
1.43401
1.55201
1.6266
1.73862
1.77733
1.87235
1.91139
1.97536
2.00935
2.04499
2.06125
2.07857
2.08406
2.09029
2.09482
2.09232
2.13301
1.63019
1.61697
1.62581
1.66292
1.69429
1.73793
1.76891
1.80303
1.82801
1.85168
1.86985
1.88497
1.89756
1.90129
1.91133
1.91123
1.92631
1.92761
1.94025
1.9395
1.94739
1.94706
1.95319
1.95342
1.95818
1.95927
1.96247
1.96244
1.96532
2.027
2.01231
1.94397
1.94261
1.94064
1.94
1.93917
1.93546
1.93428
1.93042
1.92926
1.92523
1.92337
1.91641
1.91148
1.90872
1.90787
1.91126
1.91524
1.92064
1.92215
1.92556
1.92644
1.93008
1.93132
1.93517
1.93653
1.93739
1.94051
1.94204
2.0196
2.0195
1.94248
1.94089
1.93764
1.93712
1.93359
1.93269
1.92899
1.92823
1.92434
1.92321
1.91877
1.91431
1.90985
1.9064
1.90772
1.90972
1.91539
1.9183
1.92236
1.92322
1.92702
1.92776
1.93153
1.93279
1.93623
1.93755
1.93934
1.94292
2.01777
2.01956
1.94206
1.94039
1.93726
1.93651
1.93478
1.93087
1.92965
1.92584
1.92487
1.92106
1.91972
1.91436
1.91114
1.90727
1.90741
1.90842
1.91469
1.91895
1.92387
1.92553
1.92959
1.93025
1.93375
1.93458
1.93794
1.93834
1.94118
1.94275
2.0194
2.01954
1.94191
1.93932
1.93789
1.93458
1.93366
1.92972
1.92886
1.92528
1.92464
1.92105
1.91972
1.91409
1.91051
1.90647
1.90736
1.90922
1.91506
1.91825
1.92238
1.9232
1.92698
1.92771
1.93149
1.93271
1.93615
1.93748
1.93934
1.9429
2.01777
2.01805
1.94378
1.93973
1.9387
1.93532
1.93444
1.93068
1.92989
1.92636
1.92569
1.92209
1.92053
1.9146
1.91053
1.9065
1.90746
1.90928
1.91493
1.9181
1.92227
1.92317
1.92698
1.92775
1.93155
1.93278
1.9362
1.93753
1.93938
1.94293
2.01773
2.01767
1.94286
1.93998
1.93676
1.93577
1.93219
1.93113
1.92748
1.92691
1.92341
1.92281
1.91888
1.91615
1.91037
1.90833
1.90628
1.9094
1.91352
1.92035
1.92331
1.92503
1.92875
1.92982
1.93341
1.93429
1.93772
1.93814
1.94129
1.94262
2.01956
2.0176
1.94335
1.93934
1.93825
1.93491
1.93407
1.93032
1.92949
1.92597
1.92538
1.92186
1.92043
1.91478
1.91089
1.90668
1.90727
1.90895
1.91461
1.91798
1.92221
1.92321
1.92707
1.92786
1.93164
1.9329
1.93632
1.93768
1.93938
1.94294
2.01776
2.01955
1.94189
1.93997
1.93838
1.93552
1.93443
1.93044
1.92935
1.92554
1.92464
1.92085
1.91937
1.91381
1.91039
1.9066
1.90664
1.91011
1.91392
1.91959
1.92113
1.92483
1.92567
1.92936
1.93032
1.93424
1.93514
1.93824
1.93971
1.94195
2.01947
2.01776
1.9432
1.93895
1.93784
1.93413
1.93336
1.92942
1.92878
1.92513
1.92487
1.9213
1.92047
1.91518
1.91161
1.90709
1.90716
1.90873
1.91423
1.9177
1.92185
1.92292
1.92682
1.9276
1.93151
1.93271
1.93621
1.93778
1.93941
1.94304
2.01767
0.219213
0.248535
0.246957
0.193881
0.17257
0.195632
0.219514
0.240798
0.256445
0.261579
0.289177
0.362083
0.687086
0.965795
0.242637
0.314846
0.615828
1.03441
1.28374
1.58306
1.75465
1.79385
1.7354
1.47638
1.13663
0.769113
0.47789
0.311218
0.226639
0.196159
0.16017
0.165942
0.14815
0.153724
0.153544
0.170482
0.201291
0.269436
0.357442
0.53846
0.871293
1.1929
1.49234
1.66748
0.144616
0.171553
0.180794
0.179245
0.171759
0.16519
0.159605
0.152432
0.148676
0.144452
0.142169
0.141681
0.137949
0.141495
0.137849
0.141592
0.137659
0.142321
0.137378
0.142399
0.139624
0.147036
0.15081
0.164816
0.177999
0.200977
0.223581
0.244316
0.267129
0.257825
0.116126
0.131134
0.135416
0.136201
0.136958
0.137756
0.138216
0.13997
0.139382
0.142017
0.141259
0.143223
0.143638
0.145714
0.147279
0.147409
0.146566
0.145431
0.144269
0.144567
0.143586
0.144119
0.142718
0.143493
0.141835
0.142613
0.141549
0.142212
0.141387
0.116358
0.114412
0.1421
0.143275
0.144256
0.144822
0.145608
0.146607
0.147826
0.148728
0.14986
0.150772
0.152211
0.154399
0.156953
0.157574
0.158145
0.157018
0.155063
0.153274
0.152299
0.151495
0.150813
0.14995
0.149168
0.148064
0.147531
0.147139
0.146306
0.14522
0.114448
0.114431
0.144903
0.146189
0.147044
0.147563
0.148343
0.149051
0.149893
0.150584
0.151513
0.152328
0.153558
0.155755
0.157466
0.158591
0.158475
0.157227
0.155353
0.153706
0.152628
0.151873
0.150981
0.150301
0.149448
0.148601
0.147775
0.147081
0.14641
0.145274
0.114454
0.114446
0.145217
0.146349
0.147253
0.147374
0.148242
0.149303
0.15011
0.150992
0.151766
0.15266
0.153624
0.155307
0.157049
0.158236
0.158599
0.157791
0.155704
0.153572
0.152164
0.151149
0.150102
0.149448
0.148673
0.14799
0.147264
0.146803
0.146026
0.144757
0.11443
0.114481
0.145311
0.146329
0.147247
0.148065
0.148744
0.149689
0.150379
0.151147
0.15181
0.152624
0.153618
0.155435
0.157331
0.15858
0.15861
0.157423
0.155482
0.153705
0.152602
0.151861
0.150986
0.150305
0.149452
0.148617
0.147816
0.147099
0.14641
0.145266
0.114453
0.114459
0.144864
0.146211
0.147046
0.147747
0.148444
0.149286
0.149984
0.15073
0.151428
0.15224
0.153325
0.155263
0.157347
0.158582
0.158579
0.157408
0.155538
0.153772
0.152652
0.151878
0.150988
0.150297
0.149432
0.148587
0.147785
0.147077
0.146396
0.14527
0.114454
0.114438
0.145188
0.146416
0.147366
0.148008
0.148814
0.14959
0.15038
0.151008
0.151764
0.152435
0.153462
0.155044
0.156958
0.158224
0.158686
0.157854
0.155794
0.153355
0.151994
0.151407
0.150369
0.149627
0.148805
0.148105
0.147343
0.146846
0.146034
0.14484
0.114434
0.114465
0.145125
0.146379
0.147198
0.147879
0.148568
0.149408
0.150128
0.150862
0.151527
0.152312
0.153344
0.155167
0.157184
0.1585
0.158652
0.157544
0.15567
0.15383
0.152686
0.15188
0.150963
0.150267
0.149406
0.148559
0.147729
0.147017
0.146389
0.145264
0.114454
0.114454
0.145328
0.146403
0.146863
0.147705
0.148451
0.149448
0.150217
0.15108
0.151833
0.152708
0.153756
0.155507
0.157332
0.158651
0.158622
0.157424
0.155479
0.153664
0.152602
0.151751
0.151023
0.150193
0.149464
0.14852
0.147853
0.147063
0.146429
0.145296
0.114463
0.114471
0.145165
0.146492
0.14736
0.148132
0.14883
0.14968
0.150385
0.151115
0.151721
0.152458
0.153327
0.154938
0.1569
0.158313
0.158736
0.157656
0.155807
0.153935
0.15283
0.151966
0.15106
0.150338
0.149447
0.148607
0.147746
0.146972
0.14637
0.145268
0.114456
0.81027
1.04773
0.806297
0.350283
0.241441
0.249271
0.287932
0.303699
0.340208
0.309519
0.252704
0.202213
0.213407
0.300774
0.319599
1.01286
1.88597
2.34133
2.49508
2.21665
2.03004
2.07553
2.25413
2.69175
2.78389
2.66804
2.19271
1.50079
0.965176
0.614824
0.466471
0.377921
0.320745
0.275859
0.244805
0.21439
0.196551
0.182287
0.17848
0.175406
0.198853
0.263089
0.392842
0.518371
0.353015
0.608802
0.684853
0.669663
0.59134
0.49448
0.417778
0.36265
0.315956
0.281299
0.254089
0.234183
0.216841
0.20598
0.193151
0.187886
0.17628
0.176536
0.166002
0.167454
0.160436
0.160523
0.156444
0.155598
0.154255
0.153155
0.154008
0.151884
0.152967
0.147171
0.177406
0.176844
0.173851
0.170806
0.167061
0.164323
0.161296
0.159278
0.157161
0.155554
0.154539
0.153228
0.152531
0.151898
0.151011
0.151051
0.149996
0.150456
0.149334
0.150042
0.148834
0.149629
0.148565
0.149229
0.148365
0.148863
0.148246
0.148558
0.148008
0.143177
0.143178
0.148242
0.148536
0.148385
0.148504
0.148377
0.14848
0.14843
0.148492
0.148501
0.148541
0.148579
0.148626
0.148702
0.148745
0.148722
0.148801
0.148682
0.148755
0.14864
0.148726
0.148603
0.148695
0.148573
0.148646
0.148603
0.148542
0.148603
0.148231
0.142499
0.142507
0.148246
0.148598
0.148529
0.148641
0.148556
0.148669
0.148585
0.148702
0.148623
0.148741
0.148664
0.148762
0.148803
0.148757
0.14885
0.148722
0.148781
0.148656
0.148735
0.148621
0.148703
0.148593
0.148669
0.148563
0.148628
0.148545
0.14851
0.148228
0.142562
0.142497
0.14823
0.1486
0.148545
0.148574
0.148643
0.148571
0.148687
0.148604
0.14872
0.148636
0.148751
0.148682
0.148812
0.148744
0.148848
0.148736
0.148788
0.148661
0.148734
0.148622
0.148696
0.148584
0.148661
0.148552
0.148635
0.148524
0.148591
0.148253
0.142503
0.1425
0.148257
0.14852
0.14861
0.148548
0.148658
0.148575
0.14869
0.148604
0.148722
0.148638
0.148753
0.148687
0.14882
0.148756
0.14885
0.148728
0.148782
0.148657
0.148735
0.148622
0.148703
0.148593
0.14867
0.148564
0.14863
0.148543
0.148515
0.148226
0.142564
0.142555
0.148251
0.148495
0.148617
0.148548
0.148654
0.148576
0.148686
0.148605
0.148717
0.148636
0.148749
0.148686
0.148819
0.148757
0.148849
0.148727
0.148782
0.148658
0.148735
0.148622
0.148703
0.148593
0.148669
0.148564
0.148629
0.148544
0.148515
0.148223
0.142565
0.142581
0.148228
0.148577
0.148528
0.148643
0.148563
0.148673
0.14859
0.148703
0.148619
0.148733
0.148653
0.148776
0.148717
0.14884
0.148758
0.148827
0.148695
0.148741
0.14865
0.148625
0.148697
0.148586
0.148663
0.148552
0.148635
0.148523
0.148592
0.148247
0.142505
0.142573
0.148238
0.148496
0.148621
0.148551
0.148658
0.148578
0.148688
0.148607
0.148718
0.148636
0.148749
0.148685
0.148816
0.148755
0.14885
0.14873
0.148785
0.148659
0.148735
0.148623
0.148703
0.148593
0.148669
0.148564
0.148626
0.148546
0.14851
0.148229
0.142562
0.142504
0.148234
0.148598
0.148593
0.14855
0.148656
0.148573
0.148688
0.148604
0.14872
0.148636
0.148751
0.148685
0.148816
0.148763
0.148764
0.148817
0.148686
0.148749
0.148636
0.14872
0.148605
0.148691
0.148576
0.148661
0.148551
0.148613
0.148578
0.148244
0.142509
0.142567
0.148246
0.148496
0.148621
0.148546
0.14866
0.148575
0.148692
0.148602
0.148723
0.148631
0.148752
0.148678
0.148813
0.148749
0.148853
0.148737
0.148791
0.148668
0.148746
0.148637
0.148718
0.148608
0.148684
0.148578
0.148635
0.14856
0.148518
0.148228
0.142568
6.22503
6.84694
6.31462
3.57973
1.36268
0.787433
0.767476
0.708374
0.554919
0.518596
0.47632
0.403177
0.261336
0.176871
0.655004
2.01401
2.39166
1.77044
1.78326
1.92587
1.9399
1.98044
2.14242
2.14595
2.1373
2.26122
3.01468
2.89396
2.35783
1.67249
1.12965
0.869919
0.712489
0.60792
0.516431
0.449131
0.381572
0.323472
0.276095
0.240377
0.213266
0.200082
0.198882
0.205558
0.800143
1.57947
1.86131
1.97845
1.79366
1.48848
1.14853
0.906262
0.751823
0.641542
0.561847
0.506595
0.461838
0.42901
0.401373
0.383437
0.361833
0.351576
0.336474
0.328986
0.318436
0.313276
0.303243
0.296163
0.285302
0.275408
0.262161
0.253653
0.242008
0.233604
0.367975
0.370835
0.359076
0.345227
0.337427
0.326493
0.320297
0.312848
0.308604
0.303713
0.300599
0.298087
0.295063
0.294486
0.291206
0.291904
0.288534
0.289584
0.286941
0.287921
0.285457
0.286949
0.28427
0.285789
0.283566
0.284638
0.282932
0.283602
0.282396
0.282039
0.282344
0.282895
0.282517
0.282776
0.282247
0.282303
0.282162
0.282074
0.28203
0.281887
0.281946
0.281779
0.2819
0.281803
0.28176
0.281943
0.281604
0.281901
0.28155
0.281882
0.28153
0.281865
0.281532
0.281842
0.281558
0.281626
0.281832
0.281548
0.281712
0.280855
0.280884
0.281719
0.281513
0.281853
0.281506
0.281851
0.281503
0.28186
0.281498
0.28186
0.281522
0.281857
0.281618
0.281611
0.281872
0.281549
0.281877
0.281533
0.281859
0.281505
0.281865
0.281516
0.281885
0.281556
0.281894
0.281621
0.281833
0.281851
0.281569
0.281177
0.280875
0.281726
0.281565
0.281839
0.281712
0.281563
0.28185
0.281514
0.281853
0.281489
0.281855
0.281494
0.281865
0.281538
0.281874
0.281559
0.281882
0.281552
0.281875
0.281547
0.281888
0.281535
0.281871
0.281517
0.281857
0.281515
0.281848
0.281536
0.281735
0.280883
0.280937
0.281678
0.281748
0.281563
0.281862
0.281519
0.281867
0.281502
0.281859
0.28149
0.281867
0.281516
0.281884
0.281566
0.281897
0.281579
0.281895
0.281547
0.281874
0.281518
0.281871
0.281524
0.281888
0.28156
0.281898
0.281614
0.281862
0.281842
0.281579
0.281184
0.281136
0.281548
0.281889
0.281567
0.281898
0.281539
0.281879
0.281521
0.281869
0.281506
0.281877
0.281534
0.28189
0.281574
0.281899
0.281578
0.281893
0.281547
0.281874
0.281517
0.28187
0.281523
0.281887
0.281559
0.281898
0.28162
0.281859
0.28185
0.281575
0.281183
0.281091
0.281595
0.281647
0.281861
0.281539
0.281867
0.281513
0.281868
0.281497
0.281858
0.281504
0.281867
0.281536
0.281883
0.281565
0.281888
0.281579
0.28189
0.281626
0.281796
0.281826
0.281556
0.281881
0.28152
0.281856
0.281516
0.281854
0.281504
0.281729
0.280884
0.281163
0.281541
0.281901
0.281565
0.281897
0.281537
0.281882
0.281518
0.281869
0.281502
0.281875
0.281529
0.281888
0.281573
0.2819
0.28158
0.281896
0.281554
0.281875
0.281522
0.281873
0.281531
0.281889
0.281563
0.281898
0.281624
0.281832
0.281855
0.281571
0.281177
0.280853
0.281695
0.281603
0.281647
0.281797
0.281519
0.281859
0.281508
0.281859
0.281495
0.281871
0.281519
0.28189
0.281584
0.281875
0.281858
0.281603
0.281896
0.281526
0.281871
0.281495
0.281856
0.2815
0.281856
0.281508
0.281828
0.281593
0.281632
0.281679
0.280857
0.281152
0.281538
0.281902
0.281552
0.281903
0.281526
0.281896
0.281507
0.281879
0.281482
0.28188
0.281504
0.281903
0.281563
0.281919
0.281599
0.281928
0.281591
0.281908
0.281539
0.281892
0.281541
0.281907
0.281575
0.28191
0.281627
0.281831
0.281866
0.281562
0.281176
7.92622
7.96204
8.0443
7.52608
5.54184
3.24513
1.2746
1.1512
0.998797
0.827379
0.643698
0.623541
0.434894
0.238338
1.1079
2.19751
1.62384
1.65269
1.4348
1.47176
1.43647
1.7012
1.91513
2.0875
2.1712
2.19934
2.13578
2.98621
3.06463
2.8237
2.33367
1.78417
1.44279
1.22418
1.05743
0.907805
0.780391
0.652247
0.540651
0.433294
0.340395
0.270596
0.219622
0.198242
1.46558
2.35974
2.59511
2.74796
2.81863
2.71694
2.38286
1.91354
1.54331
1.3086
1.13058
1.01378
0.917528
0.845122
0.787698
0.742654
0.697057
0.670191
0.632856
0.613839
0.583622
0.568668
0.540759
0.527544
0.501481
0.487031
0.459312
0.441441
0.411824
0.390694
0.741831
0.75987
0.714605
0.679664
0.642123
0.618977
0.593617
0.578537
0.561868
0.551308
0.541475
0.532326
0.527469
0.520737
0.516706
0.512844
0.509064
0.507449
0.503182
0.503692
0.498546
0.500811
0.495
0.497721
0.492722
0.494504
0.490506
0.491765
0.488315
0.478926
0.482988
0.492063
0.492112
0.491078
0.49085
0.489903
0.490162
0.489272
0.48969
0.488986
0.489368
0.488878
0.489209
0.488948
0.489018
0.48898
0.489037
0.488969
0.488988
0.488978
0.488973
0.48895
0.48894
0.488942
0.488907
0.488867
0.488996
0.488936
0.488335
0.47712
0.47706
0.488299
0.488894
0.488967
0.488908
0.488915
0.488887
0.488927
0.488897
0.488956
0.488936
0.488987
0.488959
0.489008
0.489026
0.488972
0.489013
0.488952
0.488959
0.488909
0.488947
0.488902
0.488947
0.488929
0.48897
0.488971
0.488994
0.48901
0.488385
0.477001
0.477131
0.488345
0.488956
0.489001
0.488882
0.488898
0.488934
0.488901
0.488927
0.488896
0.488944
0.488899
0.488981
0.48895
0.489001
0.488966
0.489013
0.488964
0.488988
0.488969
0.489008
0.488926
0.488947
0.488901
0.488924
0.488909
0.488954
0.488904
0.488326
0.477032
0.477129
0.488355
0.488902
0.488917
0.488953
0.488904
0.488933
0.488888
0.488926
0.488897
0.488963
0.488937
0.489019
0.488999
0.489049
0.489008
0.489039
0.488968
0.48898
0.488924
0.488959
0.488905
0.488949
0.488933
0.488977
0.488975
0.489014
0.489023
0.48839
0.477006
0.477031
0.488375
0.488982
0.488974
0.488987
0.488915
0.488938
0.488898
0.488932
0.488909
0.488974
0.488947
0.489022
0.489004
0.48905
0.489002
0.489033
0.488967
0.488979
0.488918
0.488957
0.488904
0.488948
0.488931
0.488976
0.488976
0.489019
0.489028
0.488388
0.477004
0.476991
0.488342
0.488973
0.488984
0.488936
0.488947
0.488895
0.488927
0.488882
0.488938
0.488909
0.48897
0.488955
0.489013
0.488978
0.48903
0.48899
0.489037
0.488998
0.488971
0.488977
0.488926
0.488959
0.488901
0.488922
0.488912
0.488966
0.488881
0.488303
0.47712
0.476968
0.488386
0.48901
0.488981
0.488993
0.488914
0.488942
0.488895
0.488934
0.488902
0.488966
0.488944
0.489022
0.489003
0.489047
0.489004
0.489035
0.488969
0.488982
0.488925
0.488963
0.488916
0.48896
0.488937
0.488974
0.488972
0.488998
0.489012
0.488387
0.477003
0.477112
0.488332
0.488966
0.488943
0.488896
0.488897
0.488933
0.488895
0.488933
0.488907
0.488972
0.488932
0.489021
0.489005
0.489041
0.489045
0.489021
0.489032
0.488938
0.488977
0.488904
0.488935
0.488894
0.488933
0.488905
0.488935
0.488963
0.488929
0.488327
0.477107
0.476966
0.488372
0.489001
0.488969
0.488987
0.488915
0.488945
0.488905
0.488938
0.488908
0.488968
0.488952
0.489048
0.48904
0.489121
0.489073
0.489125
0.489054
0.489067
0.488998
0.489017
0.48897
0.489005
0.48898
0.489014
0.488957
0.488999
0.489011
0.488345
0.476984
7.73145
7.73888
7.73637
7.17925
6.04827
4.61215
1.89979
1.42179
1.34338
1.28808
1.02262
0.861001
0.567145
0.340005
1.59902
1.62337
1.58002
1.17955
1.0516
1.09288
1.21865
1.39703
1.65434
1.95077
2.1465
2.17594
2.15456
2.09823
2.95146
3.1169
3.04271
2.79719
2.40114
2.09701
1.86744
1.6772
1.484
1.28995
1.09937
0.910836
0.713455
0.528714
0.367455
0.237439
2.04085
2.24569
2.34101
2.70827
2.93068
2.98626
2.95854
2.81546
2.47812
2.16725
1.94086
1.7665
1.64028
1.53463
1.44842
1.38339
1.32197
1.27646
1.22361
1.19535
1.15244
1.12613
1.09052
1.06341
1.02019
0.982422
0.926503
0.8663
0.791064
0.71694
1.45925
1.48776
1.39607
1.3035
1.23889
1.18562
1.15259
1.12139
1.10281
1.0826
1.07074
1.05834
1.04858
1.04208
1.03301
1.0301
1.02324
1.02058
1.01564
1.01449
1.00953
1.00945
1.00465
1.00466
1.00078
1.00017
0.99685
0.995619
0.991433
0.993722
1.00421
0.997634
0.995409
0.994747
0.993009
0.992676
0.991477
0.991474
0.990491
0.990605
0.989943
0.989929
0.989521
0.989536
0.989108
0.989292
0.988899
0.98909
0.988721
0.989007
0.988719
0.988959
0.988724
0.988909
0.988782
0.988801
0.988974
0.988846
0.988967
0.994006
0.993973
0.989022
0.988813
0.989002
0.988759
0.988911
0.988685
0.988867
0.988652
0.988866
0.988674
0.988786
0.988716
0.988744
0.988762
0.988653
0.988782
0.988646
0.988811
0.988644
0.988857
0.98866
0.988882
0.988729
0.988945
0.988848
0.988954
0.988976
0.988999
0.993917
0.994015
0.988972
0.988858
0.988967
0.98878
0.98875
0.988874
0.988663
0.988841
0.988637
0.988827
0.988613
0.988793
0.988644
0.98877
0.988676
0.988796
0.988672
0.988836
0.988709
0.988903
0.988697
0.988884
0.988699
0.988919
0.988778
0.988979
0.988807
0.989047
0.993948
0.994035
0.988916
0.988834
0.988857
0.988963
0.988726
0.988886
0.988647
0.988855
0.988638
0.988841
0.988652
0.988825
0.988679
0.988807
0.988701
0.988809
0.988663
0.988824
0.988652
0.988862
0.98866
0.988883
0.988727
0.988955
0.988861
0.988994
0.988985
0.989008
0.993925
0.993925
0.989012
0.989041
0.988881
0.989
0.988738
0.988901
0.988661
0.988854
0.988653
0.988848
0.98866
0.988822
0.988683
0.98881
0.988696
0.988799
0.988659
0.988822
0.988646
0.988859
0.988657
0.988882
0.988726
0.988952
0.988852
0.988985
0.988991
0.989005
0.993922
0.993853
0.988988
0.988917
0.989006
0.988801
0.988922
0.988685
0.988857
0.988639
0.988838
0.988633
0.988817
0.988654
0.988794
0.988682
0.988803
0.988697
0.98882
0.988767
0.988752
0.988807
0.988717
0.988895
0.988697
0.988923
0.988776
0.989007
0.988784
0.988986
0.99401
0.99387
0.988968
0.98905
0.988881
0.989004
0.988731
0.988896
0.988649
0.98885
0.988645
0.988845
0.988657
0.988823
0.988682
0.988807
0.988701
0.988801
0.988667
0.988825
0.988655
0.988871
0.988678
0.988891
0.988737
0.988951
0.988855
0.988959
0.988983
0.989005
0.993921
0.99399
0.988945
0.988899
0.988835
0.988869
0.988731
0.988889
0.988658
0.988859
0.988655
0.988853
0.988635
0.988838
0.988694
0.988789
0.98876
0.988707
0.988827
0.988643
0.988853
0.988655
0.988861
0.988653
0.988884
0.988727
0.988918
0.988888
0.98889
0.988924
0.994006
0.993874
0.988972
0.989058
0.988858
0.989035
0.988721
0.988947
0.988644
0.988904
0.988619
0.988877
0.98862
0.988849
0.988665
0.988846
0.988697
0.988808
0.988646
0.988824
0.988629
0.988859
0.988628
0.988877
0.988673
0.988941
0.988786
0.988906
0.988918
0.98893
0.9939
7.76192
7.68924
7.14538
6.26499
5.40758
4.43745
1.64472
1.55413
1.46176
1.41805
1.32532
0.865183
0.666414
0.488649
1.72808
1.22997
0.769807
0.987114
1.02061
1.08056
1.16203
1.3188
1.55241
1.89687
2.13057
2.18063
2.13077
2.06168
2.06314
2.96124
3.13264
3.15068
3.06484
2.8945
2.70339
2.52368
2.32759
2.10249
1.86651
1.60668
1.29086
0.967811
0.57705
0.28275
1.53462
1.38172
1.6733
2.24497
2.86778
2.98766
2.96876
2.9763
2.9433
2.78622
2.63661
2.51227
2.38117
2.28515
2.18784
2.11182
2.03721
1.97537
1.90896
1.8569
1.79923
1.74816
1.69714
1.64762
1.59204
1.53631
1.45793
1.36707
1.23313
1.11359
2.18239
2.25072
2.16308
2.03549
1.92257
1.84986
1.78618
1.74767
1.70814
1.68361
1.65703
1.64137
1.622
1.61142
1.59794
1.58895
1.58063
1.57335
1.56746
1.56147
1.55769
1.55188
1.5493
1.54374
1.54173
1.53581
1.53331
1.52668
1.5224
1.51977
1.54741
1.53914
1.53363
1.53134
1.52915
1.52742
1.52679
1.52539
1.52544
1.52418
1.52451
1.52368
1.52383
1.52346
1.52336
1.52337
1.52321
1.52326
1.5232
1.52324
1.52325
1.52322
1.52322
1.52319
1.52306
1.52287
1.52274
1.52234
1.52203
1.52677
1.52667
1.522
1.52232
1.5227
1.5229
1.52302
1.52312
1.52312
1.52315
1.52317
1.5232
1.52315
1.5232
1.52319
1.52315
1.52314
1.52314
1.52315
1.52315
1.52315
1.52314
1.52311
1.52312
1.52312
1.52305
1.5229
1.52267
1.52233
1.52206
1.52659
1.52677
1.52201
1.52234
1.52272
1.5228
1.52299
1.52314
1.52309
1.52312
1.52312
1.52315
1.52313
1.52313
1.52314
1.52311
1.52315
1.52314
1.52317
1.5232
1.52325
1.52324
1.52318
1.52316
1.52312
1.52301
1.52291
1.52266
1.52228
1.52201
1.52664
1.52676
1.52201
1.52222
1.52269
1.52291
1.52302
1.5231
1.5231
1.52312
1.52314
1.52317
1.52319
1.52318
1.52319
1.52317
1.52319
1.52316
1.52317
1.52316
1.52317
1.52315
1.52312
1.52312
1.52313
1.52306
1.52294
1.52272
1.52235
1.52207
1.52662
1.52667
1.52209
1.52234
1.52274
1.52292
1.52303
1.5231
1.5231
1.52311
1.52315
1.52318
1.52319
1.52317
1.52319
1.52316
1.52318
1.52316
1.52317
1.52316
1.52317
1.52314
1.52312
1.52311
1.52313
1.52306
1.52292
1.52271
1.52234
1.52206
1.52661
1.52654
1.52208
1.52233
1.52269
1.52292
1.52299
1.52309
1.52307
1.5231
1.52311
1.52314
1.52315
1.52315
1.52313
1.52316
1.52316
1.52317
1.52321
1.52322
1.52321
1.52317
1.5232
1.52314
1.52313
1.52302
1.52292
1.52268
1.52227
1.52197
1.52673
1.52656
1.52205
1.52235
1.52274
1.52291
1.52301
1.5231
1.5231
1.52311
1.52313
1.52317
1.52318
1.52317
1.52319
1.52316
1.52318
1.52316
1.52317
1.52317
1.52318
1.52316
1.52314
1.52314
1.52314
1.52307
1.52293
1.52268
1.52234
1.52208
1.52661
1.52676
1.522
1.52237
1.52264
1.52287
1.52301
1.52314
1.52311
1.52313
1.52316
1.52317
1.52317
1.52318
1.52319
1.52317
1.52318
1.52319
1.52319
1.52318
1.52319
1.52317
1.52315
1.52313
1.52315
1.52304
1.52293
1.52275
1.52236
1.52197
1.52676
1.52665
1.52207
1.52235
1.52272
1.5229
1.52305
1.52311
1.52314
1.52314
1.52318
1.52317
1.52321
1.52321
1.52324
1.52323
1.52325
1.52321
1.52321
1.52321
1.52322
1.52321
1.5232
1.52319
1.52312
1.52304
1.5228
1.52241
1.52152
1.52026
1.52475
7.77793
7.33815
6.33528
5.68596
5.34504
3.894
1.79223
1.679
1.61972
1.64037
1.56878
1.22472
0.874482
0.39245
0.426212
0.519144
1.0842
0.854922
0.659825
0.801646
1.12818
1.31729
1.39542
1.47832
1.6724
1.95965
2.1602
2.1748
2.14841
2.07638
1.99823
2.05015
2.95126
3.11964
3.16032
3.1705
3.13578
3.0765
2.99039
2.88657
2.71955
2.47386
2.16265
1.70219
1.16591
0.530939
0.451665
0.493205
0.733481
0.993193
1.53295
2.32757
2.87758
3.00116
2.91504
2.90987
2.9509
2.97373
2.9298
2.89817
2.85037
2.81137
2.77037
2.73193
2.70348
2.67122
2.62764
2.60029
2.55681
2.52607
2.49191
2.44564
2.40986
2.34037
2.27088
2.15341
2.01279
1.7732
2.01794
2.26177
2.53733
2.68104
2.67781
2.61709
2.56705
2.52072
2.49258
2.46089
2.44612
2.42102
2.4113
2.39426
2.38347
2.37535
2.36423
2.36034
2.35004
2.34846
2.33982
2.33812
2.33243
2.32944
2.32559
2.3229
2.31902
2.3166
2.31197
2.30918
2.30195
2.31243
2.3342
2.33403
2.3332
2.31408
2.30841
2.30676
2.30421
2.30368
2.30194
2.30178
2.30033
2.30054
2.29941
2.29958
2.29878
2.29889
2.2982
2.29835
2.29787
2.29787
2.29759
2.29752
2.29735
2.29733
2.2973
2.29723
2.29716
2.29694
2.29688
2.2969
2.29788
2.31552
2.33024
2.33023
2.31549
2.29787
2.29685
2.29685
2.29694
2.29706
2.29714
2.29717
2.29718
2.29719
2.29721
2.29721
2.29723
2.29725
2.2972
2.29721
2.29721
2.29721
2.2972
2.29718
2.29717
2.29716
2.29717
2.29714
2.29706
2.29696
2.29681
2.29685
2.2979
2.31542
2.33023
2.33023
2.31552
2.29786
2.29688
2.29684
2.29687
2.29707
2.29714
2.29715
2.29717
2.29715
2.29718
2.2972
2.29721
2.29721
2.29719
2.29721
2.29721
2.29723
2.29722
2.29722
2.29721
2.29721
2.29719
2.29715
2.29705
2.29695
2.29684
2.29685
2.29788
2.31548
2.33023
2.33023
2.31548
2.29785
2.29679
2.29684
2.29693
2.29705
2.29713
2.29716
2.29717
2.29716
2.29719
2.29721
2.29721
2.29722
2.2972
2.29722
2.29721
2.29721
2.29721
2.29719
2.29717
2.29717
2.29716
2.29714
2.29706
2.29697
2.29682
2.29687
2.29791
2.31543
2.33024
2.33024
2.31545
2.29792
2.29686
2.29686
2.29693
2.29705
2.29713
2.29716
2.29717
2.29717
2.29718
2.29721
2.29721
2.29722
2.2972
2.29721
2.29721
2.29721
2.2972
2.29718
2.29716
2.29716
2.29716
2.29714
2.29706
2.29696
2.29682
2.29686
2.29791
2.31544
2.33024
2.33024
2.3154
2.29791
2.29688
2.29684
2.29694
2.29702
2.29713
2.29714
2.29716
2.29715
2.29718
2.2972
2.29722
2.29721
2.29722
2.29721
2.29723
2.29723
2.29727
2.29719
2.2972
2.2972
2.29722
2.29714
2.29708
2.29693
2.29685
2.29685
2.29786
2.3155
2.33023
2.33023
2.3154
2.29791
2.29686
2.29685
2.29691
2.29704
2.29713
2.29715
2.29716
2.29716
2.29718
2.29721
2.29721
2.29722
2.2972
2.29721
2.29722
2.29721
2.29721
2.29719
2.29718
2.29717
2.29718
2.29715
2.29707
2.29698
2.29682
2.29687
2.29792
2.31543
2.33024
2.33023
2.3155
2.29783
2.29689
2.2968
2.29693
2.29705
2.29715
2.29715
2.29718
2.29716
2.29719
2.2972
2.29721
2.29722
2.29721
2.29721
2.29723
2.29722
2.29721
2.2972
2.29716
2.29718
2.29716
2.29715
2.29706
2.29694
2.29688
2.29691
2.29788
2.31555
2.33023
2.33023
2.31543
2.29793
2.29688
2.29682
2.29693
2.29703
2.29716
2.29714
2.29715
2.29712
2.29715
2.29714
2.29717
2.29718
2.29719
2.29721
2.29723
2.29724
2.29725
2.29721
2.29721
2.29717
2.29719
2.29711
2.29706
2.29699
2.29686
2.29693
2.29795
2.31539
2.3294
2.31634
6.03474
5.96686
5.47381
5.13073
5.13728
5.37147
5.05939
2.93613
1.96096
1.97972
2.01065
1.8841
1.45015
0.610282
0.82906
0.931011
0.6765
0.632425
0.76829
1.27746
1.73096
1.85072
1.81528
1.86307
1.99316
2.13767
2.19728
2.18765
2.11901
2.08522
2.01819
1.95101
2.1683
2.95942
3.05888
3.08902
3.13407
3.16559
3.17264
3.15698
3.10668
3.03805
2.89997
2.63677
2.25684
1.57136
1.15188
1.108
1.24953
1.73315
2.29459
2.79822
3.00536
2.96011
2.85371
2.80264
2.84877
2.88478
2.93551
2.92659
2.9424
2.93926
2.93304
2.93194
2.92132
2.91383
2.89286
2.88897
2.85698
2.85333
2.82057
2.81184
2.78332