/*--------------------------------*- C++ -*----------------------------------*\
| =========                 |                                                 |
| \\      /  F ield         | OpenFOAM: The Open Source CFD Toolbox           |
|  \\    /   O peration     | Version:  2.1.1                                 |
|   \\  /    A nd           | Web:      www.OpenFOAM.org                      |
|    \\/     M anipulation  |                                                 |
\*---------------------------------------------------------------------------*/
FoamFile
{
    version     2.0;
    format      ascii;
    class       volScalarField;
    location    "0.001350000";
    object      Tu;
}
// * * * * * * * * * * * * * * * * * * * * * * * * * * * * * * * * * * * * * //

dimensions      [0 0 0 1 0 0 0];

internalField   nonuniform List<scalar> 
12384
(
270
283.006
314.409
327.638
329.469
329.354
331.734
333.215
334.769
336.417
337.305
337.296
336.718
336.618
318.794
316.398
317.229
317.799
321.637
323.062
329.72
330.532
326.993
327.032
327.843
326.938
326.211
324.423
323.08
328.347
325.55
332.564
334.185
337.041
337.808
337.129
334.772
333.735
335.906
335.133
340.125
342.218
347.3
349.651
311.908
312.24
312.43
312.532
312.818
312.757
313.114
313.467
313.702
313.918
313.75
313.426
313.232
312.051
310.574
311.081
309.28
309.11
309.133
308.298
308.552
308.162
308.111
308.112
307.673
307.787
307.028
307.29
306.509
306.789
298.034
297.932
297.819
297.736
297.69
297.428
297.306
297.095
296.835
296.856
296.412
296.502
296.005
296.14
295.624
295.786
295.4
295.228
295.289
294.915
295.017
294.657
294.784
294.434
294.536
294.331
294.213
294.267
294.098
294.139
293.145
293.129
293.135
293.112
293.119
293.103
293.103
293.09
293.082
293.074
293.065
293.059
293.043
293.046
293.028
293.032
293.015
293.019
293.01
293.012
293.006
293.006
293.001
293.002
292.999
293.001
292.998
292.999
292.998
292.998
292.998
292.998
292.998
292.998
293
292.998
292.999
292.999
293
292.999
293.001
293
293
293.001
293
293
293
293
293.001
293.001
292.999
293
292.999
292.999
292.999
292.999
292.998
292.999
292.998
292.997
292.998
292.998
292.998
292.998
292.999
292.999
292.999
292.999
293
293.001
293.001
293.001
293
293
293
293
293
293
293.001
293.001
292.999
293
292.999
292.999
292.999
292.999
292.998
292.998
292.998
292.998
292.997
292.998
292.998
292.998
292.999
292.999
292.998
293
293
293.001
293.001
293.001
293
293
293
293
293
293
293.001
293.001
292.999
293
292.999
292.999
292.998
293
292.998
292.999
292.998
292.998
292.998
292.998
292.998
292.999
292.999
292.999
292.998
292.999
293
293.001
293.001
293.001
293
293
293
293
293
293
293.001
293.001
292.999
293
292.999
292.999
292.998
293
292.998
292.999
292.998
292.997
292.998
292.999
292.998
292.998
293
292.999
292.999
293
293
292.999
293.001
293.001
293
293
293
293
293
292.999
293.001
293.001
292.999
293
292.999
292.999
292.998
293
292.998
292.998
292.998
292.998
292.997
292.998
292.998
292.998
292.999
292.999
292.998
292.999
293
293.001
293.001
293.001
292.999
293
293
293
293
293
293.001
293.001
292.999
293
292.999
292.999
292.998
293
292.998
292.999
292.998
292.997
292.997
292.998
292.999
292.998
292.999
292.999
292.998
293
292.999
293.001
293
293.001
293
293
293
293.001
293
293
293.001
293.001
293.001
292.999
293
292.999
292.999
293
292.998
292.999
292.999
292.998
292.996
292.997
292.997
292.998
292.999
292.998
292.999
292.999
292.999
293
293
293.002
293
293.001
293.002
293.002
293.003
293.002
293.001
293.001
293
293.001
293
293
292.999
293.001
292.999
292.999
292.999
292.999
270
270
273.674
313.274
326.801
329.921
330.481
333.658
334.287
335.683
336.478
336.922
336.136
335.309
315.895
317.557
317.556
322.35
323.03
325.579
329.085
330.35
329.178
327.616
327.721
327.185
327.405
328.215
326.66
328.034
326.405
331.92
333.579
336.373
337.55
337.122
335.522
334.247
335.819
335.087
339.517
342.357
346.175
348.929
312.4
312.482
312.318
312.421
312.704
312.847
313.107
313.298
313.406
313.381
313.301
313.417
312.502
312.222
311.346
310.351
310.238
308.808
309.184
308.46
308.279
308.35
307.937
308.049
307.669
307.595
307.115
307.065
306.616
306.586
297.909
297.91
297.919
297.895
297.625
297.643
297.268
297.271
296.905
296.874
296.508
296.486
296.079
296.071
295.769
295.585
295.568
295.21
295.292
294.945
295.023
294.705
294.709
294.569
294.36
294.458
294.172
294.302
294.093
294.169
293.133
293.148
293.135
293.135
293.123
293.11
293.111
293.094
293.09
293.079
293.068
293.064
293.049
293.049
293.033
293.032
293.022
293.018
293.016
293.006
293.01
293.002
293.005
292.999
293.003
293
292.999
293.001
292.999
293.001
293.001
292.998
293.001
292.997
293.002
292.998
293.002
292.998
293.002
292.999
293.002
292.999
293.001
293.002
292.999
293.002
292.999
293.001
292.999
293.002
292.998
293.001
292.998
293.001
292.997
293
292.997
292.998
292.999
292.996
293.001
292.999
293
292.998
292.997
293.001
292.997
293.001
292.998
293.002
292.999
293.001
292.999
293.002
292.999
293.002
292.999
293.002
292.999
293.002
292.998
293.002
292.998
293.002
292.998
293.002
292.997
293.001
292.998
293.001
292.999
292.999
292.996
293.001
292.996
293.001
292.998
293.002
292.998
293.002
292.999
293.002
292.999
293.002
292.999
293.001
292.999
293.001
292.999
293.002
292.998
293.001
292.998
293.001
292.997
293
292.997
292.998
292.999
292.996
292.997
293
292.996
293
292.997
293.001
292.998
293.001
292.998
293.002
292.999
293.002
292.999
293.002
292.999
293.001
292.999
293.001
292.999
293.002
292.998
293.001
292.998
293.001
292.997
293
292.997
292.998
292.999
292.996
292.998
292.998
293.001
292.997
293.001
292.997
293.001
292.998
293.001
292.999
293.002
292.999
293.001
292.999
293.002
292.999
293.002
292.999
293.001
292.999
292.998
293.002
292.997
293.001
292.997
293.002
292.997
293.001
292.998
293.001
292.996
293
292.997
293
292.997
293.001
292.998
293.001
292.998
293.002
292.999
293.002
292.999
293.002
292.999
293.001
292.999
293.001
292.999
293.002
292.998
293.001
292.998
293.001
292.997
293
292.997
292.998
292.999
292.996
293.001
292.998
293
293
292.997
293.002
292.997
293.001
292.998
293.002
292.999
293.002
292.999
293.002
293
293
293.002
292.999
293.001
292.999
293.002
292.998
293.002
292.998
293.002
292.997
293.001
292.999
292.999
293.001
292.996
292.999
292.996
293
292.996
293.001
292.997
293.001
292.998
293.002
292.999
293.002
293
293.003
293.001
293.003
293
293.003
293.001
293.003
292.999
293.002
292.999
293.002
292.998
293.001
292.997
292.998
293
292.997
321.154
270
285.378
295.901
308.242
319.753
325.347
330.608
334.873
334.953
335.761
336.159
335.602
335.266
321.502
320.437
323.457
325.537
331.111
336.81
334.059
334.068
335.971
331.339
327.646
328.052
328.609
329.462
330.331
329.602
327.955
331.458
331.67
335.543
336.983
337.36
336.583
335.428
335.864
335.538
339.067
341.577
345.077
346.348
312.842
312.939
313.509
313.65
313.305
313.743
313.366
313.131
312.921
312.881
313.105
312.609
312.629
312.038
312.07
310.194
310.721
309.067
309.042
308.727
308.091
308.277
307.89
307.73
307.615
307.3
307.099
306.828
306.604
306.506
298.191
298.123
298.056
297.852
297.854
297.54
297.488
297.244
296.863
296.973
296.443
296.551
296.112
295.973
295.866
295.476
295.59
295.161
295.26
294.96
294.923
294.772
294.605
294.605
294.343
294.408
294.179
294.226
294.109
294.119
293.169
293.139
293.153
293.121
293.126
293.114
293.096
293.101
293.077
293.082
293.056
293.063
293.038
293.046
293.025
293.03
293.015
293.018
293.008
293.01
293.004
293.007
293.002
293.003
293
293.002
292.999
292.999
292.999
292.998
292.999
292.999
292.999
292.999
292.999
292.999
293
293
293.001
293.001
293
293.001
293.001
293.001
293.001
293.001
293.001
293.001
293
293
293.001
293.001
293
293
292.999
292.999
293
292.998
292.998
292.999
292.998
292.999
292.998
292.999
293.001
292.999
293
293
293.002
293.001
293.001
293
293.001
293.001
293
293
293.001
293.001
293.001
293.001
293.001
293.001
293
293
292.999
293
292.999
292.999
292.999
292.999
292.999
292.999
292.999
292.999
293
292.999
293
293
293.001
293
293.001
293
293.001
293.001
293
293
293.001
293.001
293
293
293.001
293.001
293
293
292.999
292.999
293
292.998
292.999
292.999
292.999
292.999
292.999
292.999
293
292.999
293
293
293.001
293.001
293.001
293.001
293.001
293.001
293
293
293.001
293.001
293
293
293.001
293.001
293
293
292.999
292.999
293
292.998
292.999
292.999
292.999
292.999
292.999
293
292.999
292.999
293
293
293.001
293
293
293.001
293.001
293.001
293.001
293
293.001
293.001
293.001
293.001
293
293.001
293
293
292.999
292.999
292.999
292.998
292.999
292.999
292.999
292.999
292.999
292.999
293
292.999
293
293
293.001
293
293
293.001
293.001
293.001
293.001
293
293.001
293.001
293
293
293.001
293.001
293
293
292.999
293
293
292.998
292.999
292.999
292.998
292.998
292.998
292.998
293
292.999
293
293
293.001
293
293
293.001
293.001
293
293.001
293.001
293
293.001
293.001
293.001
293
293.001
293
293
292.999
293
292.999
293
292.999
292.999
292.999
292.998
292.998
292.998
292.999
292.999
293
292.999
293.001
293.001
293.001
293.001
293.002
293.001
293.002
293.002
293.002
293.002
293.002
293.002
293.001
293.001
293.002
293.001
293
293.001
293.001
292.999
293.001
293
441.346
398.699
354.232
270
270
270
270
270
295.694
327.292
333.138
333.87
335.11
336.394
325.265
325.558
327.956
328.837
324.613
291.325
270
270
284.13
316.614
325.333
330.367
328.792
330.113
331.629
332.359
331.382
330.792
330.744
333.82
335.97
337.718
337.733
336.807
335.845
336.362
337.641
340.856
342.587
344.759
313.71
313.809
313.9
313.944
314.628
313.418
313.47
313.319
312.666
312.672
312.103
312.282
312.289
312.126
311.936
311.12
310.337
310.085
308.626
309.087
307.983
308.331
307.63
307.787
307.34
307.239
307.088
306.629
306.746
306.351
298.019
298.174
297.942
298.096
297.759
297.809
297.397
297.458
296.963
296.831
296.747
296.235
296.424
295.815
296.053
295.489
295.63
295.244
295.195
295.093
294.79
294.9
294.514
294.678
294.3
294.467
294.14
294.298
294.064
294.189
293.133
293.178
293.142
293.163
293.122
293.12
293.117
293.093
293.098
293.074
293.077
293.055
293.058
293.04
293.041
293.026
293.026
293.015
293.015
293.008
293.009
293.004
293.004
293.001
293.001
293
293
293
292.999
292.999
292.999
292.998
292.999
292.998
292.999
292.998
292.999
292.998
293
293
293.001
293
293.001
293.001
293.001
293.001
293
293.001
293
293.001
293
293
292.998
292.999
292.997
292.999
292.998
292.999
292.998
292.997
292.999
292.998
292.999
292.998
292.998
292.999
292.998
292.999
292.999
293.001
293
293.001
293
293.001
293
293.001
293
293.001
293
293.001
293
293
292.998
292.999
292.998
293
292.998
292.999
292.998
292.998
292.998
292.998
292.998
292.999
292.998
292.999
292.998
292.999
292.999
293
293
293.001
293
293.001
293.001
293.001
293
293.001
293
293.001
293
293
292.998
292.999
292.997
292.999
292.998
292.999
292.998
292.997
292.998
292.999
292.998
292.999
292.998
292.999
292.998
292.999
292.999
293.001
293
293.001
293.001
293.001
293
293.001
293
293.001
293
293.001
293
293
292.998
292.999
292.997
292.999
292.998
292.999
292.998
292.997
292.998
292.998
292.999
292.998
292.999
292.998
292.999
292.998
293
293
293.001
293
293.001
293
293.001
293.001
293.001
293
293.001
293
293
293
292.998
292.999
292.998
292.999
292.998
292.999
292.998
292.999
292.997
292.999
292.998
292.999
292.998
292.999
292.998
292.999
292.999
293
293
293.001
293.001
293.001
293.001
293.001
293
293.001
293
293.001
293
293
292.998
292.999
292.997
292.999
292.997
292.999
292.998
292.997
292.999
292.998
292.999
293
292.998
292.999
292.998
292.999
292.999
293
293
293.001
293
293.001
293.001
293.001
293.002
293
293.001
293
293.001
293
292.999
292.998
292.999
292.998
292.999
292.997
292.999
292.999
292.996
292.998
292.997
292.998
292.997
292.998
292.998
292.999
292.999
293.001
293
293.001
293
293.001
293.001
293.001
293.001
293.001
293.001
293.001
293
293.001
292.999
292.999
292.998
293
292.998
292.999
292.999
292.997
647.327
651.157
626.416
507.945
346.636
270
270
270
270
270
306.967
329.048
334.185
336.96
329.379
330.8
324.174
270
270
270
270
270
270
270
270
276.318
327.088
330.643
331.07
333.327
333.384
332.641
330.831
332.705
334.789
337.412
338.561
337.92
336.769
335.824
337.083
338.306
341.076
341.906
313.725
313.834
314.472
315.097
314.56
315.348
313.874
313.373
313.169
312.196
312.04
312.148
311.963
311.975
311.743
311.732
310.385
310.599
309.101
308.887
308.294
308.228
307.473
307.525
307.233
307.005
306.71
306.728
306.356
306.486
298.476
298.311
298.399
298.056
298.158
297.76
297.794
297.303
297.375
296.775
296.905
296.381
296.383
296.004
295.919
295.755
295.472
295.332
295.272
294.957
294.94
294.822
294.566
294.597
294.361
294.382
294.199
294.218
294.099
294.103
293.237
293.177
293.208
293.147
293.163
293.127
293.119
293.117
293.09
293.096
293.069
293.074
293.051
293.055
293.035
293.038
293.022
293.025
293.012
293.015
293.007
293.008
293.003
293.004
293.001
293.002
293
293
292.999
292.999
292.998
292.999
292.999
292.999
292.999
293
292.999
293
293
293.001
293
293.001
293
293.001
293.001
293
293.001
293
293
293.001
293.001
293
293
293
293
292.999
293
292.999
292.999
293
292.998
292.999
292.999
292.999
293
292.999
293
292.999
293.001
293
293.001
293
293.001
293
293.001
293.001
293.001
293
293
293
293.001
293
293
292.999
293
292.999
292.999
292.998
292.999
292.999
292.999
292.999
292.999
292.999
293
292.999
293
292.999
293
293
293.001
293
293.001
293.001
293.001
293.001
293.001
293.001
293.001
293.001
293.001
293
293
293
293
292.999
293
292.999
292.999
293
292.999
292.999
293
292.999
293
293
293
292.999
293.001
293
293.001
293
293.001
293.001
293.001
293.001
293.001
293.001
293.001
293.001
293.001
293
293
293
293
292.999
293
292.999
292.999
293
292.999
292.999
292.999
293
292.999
293
292.999
292.999
293
293.001
293.001
293.001
293
293.001
293.001
293.001
293.001
293.001
293
293.001
293.001
293
293
292.999
293
292.999
293
292.999
292.999
292.998
293
292.999
292.999
292.999
293
293
293
292.999
293
293
293.001
293
293.001
293.001
293.001
293.001
293.001
293.001
293.001
293.001
293.001
293
293
293
293
292.999
293
292.999
292.999
293
292.998
292.999
292.999
292.999
292.999
292.999
292.999
292.999
293.001
293
293.001
293
293.002
293.001
293.001
293.001
293.001
293.002
293.001
293.001
293.001
293.001
292.999
293
293
293
292.999
292.999
292.999
292.998
292.998
292.998
292.999
292.998
293
292.999
292.999
292.999
293
293
293.001
293
293.001
293.001
293.002
293.001
293.002
293.001
293.002
293.001
293.002
293.001
293.001
292.999
293
292.999
293
292.999
292.999
292.999
667.324
667.715
672.948
656.63
574.174
438.58
270
270
270
270
270
270
328.286
335.042
331.677
328.134
270
270
270
270
270
270
270
270
270
270
270
323.801
330.005
331.926
333.333
333.201
333.26
332.879
334.262
336.653
338.186
338.353
337.394
336.237
335.792
336.925
337.704
339.251
313.824
313.505
315.21
314.987
316.057
315.319
315.876
313.716
313.241
313.089
311.849
311.875
311.646
311.822
311.828
311.615
310.832
310.943
309.169
309.637
307.863
308.641
307.088
307.686
306.687
306.984
306.488
306.484
306.165
306.08
298.297
298.628
298.31
298.426
298.068
298.145
297.704
297.737
297.196
297.239
296.789
296.436
296.512
295.966
296.064
295.574
295.711
295.183
295.398
294.893
295.004
294.765
294.591
294.585
294.389
294.343
294.216
294.217
294.098
294.108
293.171
293.252
293.19
293.216
293.153
293.164
293.127
293.111
293.114
293.084
293.09
293.064
293.068
293.047
293.05
293.032
293.035
293.02
293.022
293.011
293.013
293.005
293.007
293.002
293.004
293
293.001
292.999
293
292.999
292.999
292.999
292.999
292.999
292.999
292.999
293
293
293
293
293.001
293.001
293.001
293.001
293.001
293.001
293.001
293.001
293.001
293.001
293
293
293
293
292.999
292.999
292.999
292.999
292.999
292.998
292.999
292.999
292.999
292.999
292.999
293
292.999
293
293
293.001
293.001
293.001
293.001
293.001
293.001
293.001
293.001
293.001
293.001
293.001
293
293
293
293
293
292.999
292.999
292.999
292.998
292.999
292.998
292.999
292.999
292.999
292.999
293
292.999
293
293
293.001
293.001
293.001
293.001
293.001
293.001
293.001
293.001
293.001
293.001
293.001
293
293
293
293
292.999
292.999
292.999
292.999
292.999
292.999
292.999
292.999
292.999
292.999
292.999
293
293
293
292.999
293.001
293.001
293.001
293.001
293.001
293.001
293.001
293.001
293.001
293.001
293.001
293
293
293
293
292.999
292.999
292.999
292.999
292.999
292.998
292.999
292.999
292.999
292.999
292.999
293
293
293
293
293
293.001
293.001
293.001
293.001
293.001
293.001
293.001
293.001
293.001
293.001
293.001
293
293
293
292.999
293
292.999
292.999
292.998
292.999
292.998
292.999
292.999
292.999
292.999
293
293
293
293
293.001
293.001
293.001
293.001
293.001
293.001
293.001
293.001
293.001
293.001
293.001
293.001
293
293
293
292.999
292.999
292.999
292.999
292.999
292.998
292.999
292.999
292.999
292.999
292.999
293
292.999
293
293
293.001
293.001
293.001
293.001
293.001
293.001
293.001
293.001
293.001
293.001
293.001
293.001
293
293
292.999
293
292.999
292.999
292.999
292.999
292.999
292.998
292.999
292.998
292.999
292.999
293
293
293
292.999
293.001
293.001
293.001
293.001
293.001
293.001
293.001
293.001
293.002
293.002
293.001
293.001
293.001
293
293
292.999
293
292.999
293
292.998
292.997
657.372
658.588
650.205
614.147
557.945
489.278
306.848
270
270
270
270
270
290.19
331.557
331.987
290.703
270
270
270
270
270
270
270
270
270
270
270
270
321.207
329.939
332.492
333.624
333.46
334.148
334.462
335.874
337.165
337.736
337.041
336.155
334.875
334.199
335.476
336.284
313.595
314.857
314.581
316.23
315.92
316.87
315.702
316.083
313.629
313.234
312.71
311.726
311.823
311.803
311.636
311.656
311.34
310.849
309.407
309.852
308.003
308.408
307.09
307.439
306.527
306.667
306.26
305.963
306.052
305.857
298.857
298.793
298.794
298.496
298.49
298.033
298.108
297.588
297.635
297.075
297.097
296.62
296.436
296.269
295.824
295.878
295.556
295.269
295.308
294.926
295.014
294.674
294.73
294.417
294.53
294.208
294.342
294.084
294.169
294.004
293.356
293.269
293.288
293.204
293.212
293.158
293.157
293.134
293.102
293.114
293.077
293.089
293.058
293.067
293.043
293.047
293.032
293.031
293.018
293.02
293.008
293.011
293.006
293.003
293.004
293.001
293.002
293.001
293
292.999
292.999
292.999
292.999
293
292.999
292.999
292.999
293
293
293
293
293
293
293.001
293
293.001
293
293
293
293
293
293.001
293
292.999
292.999
292.999
293
292.999
292.999
292.999
292.998
292.999
292.999
293
293
292.999
293
293
293.001
293
293
293
293
293.001
293
293.001
293
293
293
293
293
293
293
292.999
292.999
292.999
292.999
292.999
292.999
292.999
292.998
292.999
292.999
293
293
292.999
293
293
293.001
293
293
293
293
293.001
293
293.001
293
293
293
293
293
293.001
293
292.999
292.999
292.999
293
292.999
292.999
292.999
292.998
292.999
292.999
293
293
292.999
293
293
293
293
293
293
293
293.001
293.001
293.001
293
293
293
293
293
293.001
293
292.999
292.999
292.999
293
292.999
292.999
292.999
292.999
292.999
292.999
293
292.999
292.999
292.999
293
293.001
293
293
293
293
293
293.001
293.001
293.001
293
293
293
293
293
293
292.999
292.999
292.999
293
292.999
292.999
292.998
292.999
292.999
292.999
293
292.999
292.999
292.999
293
293.001
293
293
293
293
293.001
293
293.001
293
293
293
293
293
293.001
293
292.999
292.999
292.999
293
292.999
292.999
292.999
292.998
292.999
292.999
293
293
292.999
293
292.999
293.001
293
293
293
293
293.001
293.001
293.001
293.001
293.001
293.001
293
293.001
293.001
293
293
292.999
293
293
292.999
292.999
292.998
292.998
292.998
292.998
292.999
292.999
292.999
293
293
293.001
293
293.001
293.001
293.001
293.001
293.002
293.002
293.002
293.001
293.001
293.001
293.001
293
293
292.999
293
292.998
292.999
292.998
292.998
292.999
651.926
628.04
575.21
526.859
490.738
456.066
270
270
270
270
270
270
293.185
331.743
326.626
270
270
270
270
270
270
270
270
270
270
270
270
270
270
324.227
331.05
333.863
334.535
334.521
335.101
335.625
335.999
336.223
336.342
335.739
334.119
334.141
333.137
333.351
312.843
314.455
316.04
314.931
317.501
316.726
317.28
315.791
315.949
313.43
312.605
312.742
311.421
311.832
311.571
311.628
311.178
311.201
309.878
309.731
308.457
307.975
307.594
306.822
306.797
306.25
306.152
306.069
305.777
305.69
299.606
299.208
299.06
298.772
298.532
298.384
297.967
297.964
297.485
297.417
296.91
296.981
296.281
296.529
295.828
295.951
295.501
295.469
295.201
295.023
294.999
294.671
294.763
294.403
294.541
294.213
294.341
294.079
294.197
294.005
293.243
293.363
293.24
293.291
293.203
293.211
293.152
293.15
293.123
293.1
293.103
293.077
293.074
293.06
293.054
293.048
293.033
293.037
293.022
293.022
293.013
293.009
293.008
293.006
293.003
293.003
293.001
293.002
293.001
293
293
293
293
293
292.999
292.999
293
292.999
293
293.001
293.001
293.001
293
293
293
293
293
293
293.001
293.001
293.001
293
292.999
293
292.999
292.999
293
293
293
293
293
293
293
293
292.999
292.999
293
293
293
293.001
293.001
293.001
293
293
293
293
293
293
293.001
293.001
293.001
293
292.999
293
292.999
292.999
293
293
292.999
293
292.999
293
293
293
292.999
292.999
293
293
293
293.001
293.001
293.001
293
293
293
293
293
293
293.001
293.001
293.001
293
292.999
293
292.999
292.999
293
293
293
293
292.999
293
293
293
292.999
292.999
293
293
293
293.001
293.001
293.001
293
293
293
293
293
293
293.001
293.001
293.001
293
292.999
293
292.999
292.999
293
293
293
293
293
293
293
293
292.999
292.999
293
292.999
293
293.001
293.001
293.001
293
293
293
293
293
293
293.001
293.001
293.001
293
292.999
293
292.999
292.999
293
293
293
293
293
293
293
293
292.999
292.999
293
293
293
293.001
293.001
293.001
293
293
293
293
293
293
293.001
293.001
293.001
293
292.999
293
292.999
292.999
293
293
293
293
292.999
293
293
293
292.999
292.999
293
293
293
293.001
293.001
293.001
293
293
293
293
293
293
293.001
293.001
293.001
293
293
293
292.999
292.999
293
293
293
292.999
292.999
292.999
292.999
292.999
292.998
293
293
293
292.999
293.001
293
293
293.001
293.001
293.001
293.001
293.001
293.001
293.002
293.001
293
293
293
293
293
293
292.999
292.998
292.998
292.999
580.487
548.801
498.053
470.277
463.123
401.943
270
270
270
270
270
270
270
270
270
270
292.179
270
270
270
270
270
270
270
270
270
270
270
270
270
270
272.585
327.886
333.656
334.945
335.343
335.366
335.559
335.318
335.445
335.12
333.791
332.93
329.696
327.832
324.817
312.195
318.086
316.617
312.831
315.425
317.843
317.404
318.494
317.551
317.335
315.366
315.313
312.812
312.854
311.716
311.689
311.47
311.463
311.092
311.268
309.78
310.191
308.287
308.432
307.421
306.525
306.838
305.535
305.883
304.736
304.465
303.288
302.052
301.95
299.375
300.437
299.628
299.497
299.014
298.638
298.376
297.872
297.998
297.253
297.413
296.811
296.549
296.476
295.934
296.076
295.447
295.662
295.099
295.21
294.885
294.797
294.636
294.532
294.394
294.31
294.195
294.125
293.989
293.955
293.805
293.597
293.615
293.373
293.433
293.262
293.311
293.189
293.217
293.145
293.134
293.126
293.093
293.099
293.07
293.077
293.051
293.06
293.038
293.039
293.028
293.024
293.017
293.012
293.01
293.005
293.006
293.003
293.004
293.001
293.001
293.001
292.999
292.999
293
293
293
293
293
293
292.999
293
293
293
293
293
293
293
293
293
293
293
293
293
293
293
293
293
293
293
293
293
292.999
293
292.998
292.999
293
292.999
293
293
293
293
293
293
293
293
293
293
293
293
293
293
293
293
293
293
293
293
293
292.999
293
293
293
293
292.999
293
292.998
292.999
293
292.999
293
293
293
293
293
293
293
293
293
293
293
293
293
293
293
293
293
293
293
293
293
293
293
293
293
293
292.999
293
292.999
292.999
293
292.999
293
293
293
293
293
292.999
293
293
293
293
293
293
293
293
293
293
293
293
293
293
293
293
293
293
293
293
292.999
293
292.999
292.999
293
292.999
293
293
293
293
293
293
293
293
293
293
293
293
293
293
293
293
293
293
293
293
293
292.999
293
293
293
293
292.999
293
292.999
292.998
293
292.999
293
293
293
293
293
293
293
293
293
293
293
293
293
293
293
293
293
293
293
293
293
293
293
293
293
293
292.999
293
292.998
292.999
293
292.999
293
293
293
293
293
293
293
293
293
293
293
293
293
293
293
293
293
293
293
293
293
293
293
293
292.999
293
292.999
292.999
292.998
292.998
292.999
292.998
292.999
292.999
292.999
292.999
293
292.999
293
293
293.001
293
293.001
293.001
293.001
293.001
293.001
293.001
293.001
293.001
293.001
293
293.001
292.999
292.999
293
292.999
292.999
292.999
292.999
292.996
292.997
487.931
484.636
463.944
444.351
440.432
452.595
447.855
336.075
270
270
270
270
270
270
270
270
270
270
270
270
270
270
270
270
270
270
270
270
270
270
270
270
285.404
333.534
335.334
335.282
335.432
335.487
335.334
334.774
333.179
333.339
331.407
329.501
326.746
323.647
318.205
316.666
314.367
318.237
316.673
318.033
318.928
318.682
318.779
317.254
317.054
314.164
314.991
311.939
312.554
311.758
311.26
311.522
311.086
311.008
309.884
310.273
308.272
308.873
306.963
307.353
306.045
305.937
305.467
304.552
304.718
303.637
303.274
301.008
301.277
300.317
299.615
299.838
298.763
299.146
298.144
298.246
297.795
297.422
297.358
296.806
296.927
296.199
296.377
295.808
295.67
295.487
295.208
295.196
294.824
294.938
294.528
294.676
294.301
294.399
294.118
294.17
293.943
293.918
293.855
293.584
293.643
293.387
293.463
293.275
293.325
293.216
293.216
293.166
293.153
293.113
293.124
293.079
293.093
293.062
293.065
293.055
293.039
293.045
293.025
293.033
293.015
293.02
293.007
293.012
293.003
293.007
293.002
293.002
293
293.001
293
293
293
292.999
292.999
293
293
292.999
293.001
293.001
293
293
293
293
293.001
293.001
293.001
293.001
293.001
293
293
293
293
293
293.001
293
293
293
293
292.999
292.999
293
292.999
292.999
293
292.999
292.999
293
293
293
293.001
293.001
293.001
293
293
293
293.001
293
293.001
293.001
293.001
293
293
293
293
293.001
293.001
293
293
293
293
292.999
292.999
293
292.999
292.999
293
292.999
292.999
293
293
293
293.001
293.001
293
293
293
293
293
293
293.001
293
293
293
293
293
293
293
293.001
293
293
293
293
292.999
292.999
293
292.999
292.999
293
292.999
292.999
293
293
293
293
293.001
293
293
293
293
293.001
293
293.001
293.001
293.001
293
293
293
293
293
293.001
293
293
293
293
292.999
292.999
293
292.999
292.999
293
292.999
292.999
293
293
293
293
293.001
293
293
293
293
293
293.001
293.001
293.001
293.001
293.001
293
293
293
293.001
293.001
293.001
292.999
293
293
292.999
292.999
293
292.999
292.999
293
292.999
292.999
293
293
293
293
293.001
293
293
293
293
293
293
293.001
293.001
293
293
293
293
293
293
293.001
293.001
293
293
293
292.999
292.999
293
292.999
292.999
293
292.999
292.999
293
293
293
293.001
293.001
293
293
293
293
293.001
293.001
293.001
293.001
293.001
293.001
293.001
293
293
293
293.001
293.001
292.999
293
293
292.999
292.999
292.999
292.999
292.999
292.999
292.999
292.999
293
292.999
293
293
293.001
293
293
293
293
293.001
293.001
293
293
293
293
293.001
293.001
293.001
293
293
292.999
292.999
292.998
292.998
292.998
292.999
292.998
292.998
292.998
376.211
405.667
408.813
412.877
385.103
337.476
324.962
344.29
338.76
270
270
270
270
270
270
270
270
270
270
270
270
270
270
270
270
270
270
270
270
270
270
270
270
318.769
335.563
335.097
335.019
335.295
335.46
333.743
332.686
331.711
329.871
329.181
325.194
325.223
319.733
317.812
318.338
317.199
319.673
319.021
319.806
319.28
318.587
318.612
315.987
316.065
314.518
312.392
312.786
311.686
311.473
311.216
311.06
310.739
310.12
309.986
308.399
308.961
306.806
307.66
305.631
306.256
304.906
304.947
303.924
303.9
302.378
301.528
301.65
299.978
300.476
299.616
299.046
299.202
298.239
298.481
297.713
297.908
297.09
297.195
296.701
296.416
296.32
295.8
295.937
295.328
295.505
295.004
295.034
294.777
294.654
294.567
294.337
294.404
294.09
294.196
293.906
293.961
293.757
293.646
293.664
293.419
293.492
293.315
293.344
293.221
293.263
293.149
293.193
293.111
293.134
293.091
293.092
293.073
293.069
293.055
293.052
293.042
293.033
293.033
293.019
293.024
293.01
293.012
293.007
293.006
293.005
293.001
293.003
293
293.001
293
292.999
293
292.999
293.001
293
293.001
293
293.001
293.001
293.001
293.001
293.001
293.001
293.001
293.001
293.001
293.001
293.001
293.001
293.001
293.001
293.001
293.001
293
293.001
293.001
293
293
293
292.999
293
293
292.999
293
292.999
293.001
293
293.001
293
293.001
293.001
293.001
293.001
293.001
293.001
293.001
293.001
293.001
293.001
293.001
293.001
293.001
293.001
293.001
293
293
293.001
293.001
293
292.999
293
292.999
292.999
293
292.999
293
292.999
293.001
293
293.001
293
293.001
293.001
293.001
293.001
293.001
293.001
293.001
293.001
293.001
293.001
293.001
293.001
293.001
293.001
293.001
293.001
293
293.001
293.001
293
293
293
292.999
293
293
292.999
293
292.999
293
293
293.001
293
293.001
293
293.001
293.001
293.001
293.001
293.001
293.001
293.001
293.001
293.001
293.001
293.001
293.001
293.001
293.001
293
293.001
293.001
293
293
293
292.999
293
293
292.999
293
293
293
293.001
293.001
293
293.001
293.001
293.001
293.001
293.001
293.002
293.001
293.001
293.001
293.002
293.001
293.001
293.001
293.001
293.001
293.001
293
293.001
293
293.001
292.999
293
292.999
293
293
292.999
293
292.999
293.001
293
293.001
293
293.001
293.001
293.001
293.001
293.001
293.001
293.001
293.001
293.001
293.001
293.001
293.001
293.001
293.001
293.001
293.001
293
293.001
293.001
293
293
293
292.999
293
293
292.999
293
293
293
293.001
293.001
293
293.001
293.001
293.001
293.001
293.001
293.001
293.002
293.002
293.002
293.002
293.002
293.001
293.001
293.001
293.001
293.001
293.001
293.001
293.001
293.001
293
293
292.999
292.999
292.999
292.999
292.999
292.999
293
293
293
293
293
293.001
293.001
293.001
293.001
293.001
293.001
293.001
293.001
293.001
293.001
293.001
293.001
293.001
293
293
293
293
293
292.999
292.999
292.998
292.998
292.999
292.997
270
270
270
270
270
270
270
270
270
270
270
270
270
270
270
270
270
270
270
270
270
270
270
270
270
270
270
270
270
270
270
270
270
293.618
334.316
335.731
334.664
335.087
335.146
333.148
332.705
331.082
328.539
327.845
325.854
324.027
322.025
321.051
319.537
320.212
319.575
320.853
320.263
320.5
319.077
318.671
316.389
316.119
314.445
312.77
313.148
311.269
311.982
310.874
311.188
310.34
310.57
309.404
309.041
308.498
307.114
307.393