/*--------------------------------*- C++ -*----------------------------------*\
| =========                 |                                                 |
| \\      /  F ield         | OpenFOAM: The Open Source CFD Toolbox           |
|  \\    /   O peration     | Version:  2.1.1                                 |
|   \\  /    A nd           | Web:      www.OpenFOAM.org                      |
|    \\/     M anipulation  |                                                 |
\*---------------------------------------------------------------------------*/
FoamFile
{
    version     2.0;
    format      ascii;
    class       volScalarField;
    location    "0.005800000";
    object      H2O;
}
// * * * * * * * * * * * * * * * * * * * * * * * * * * * * * * * * * * * * * //

dimensions      [0 0 0 0 0 0 0];

internalField   nonuniform List<scalar> 
12384
(
0.234133
0.232391
0.230624
0.230135
0.230554
0.231164
0.231709
0.232011
0.232134
0.232042
0.232126
0.232992
0.23766
0.236615
0.202188
0.210741
0.216167
0.217546
0.217767
0.217692
0.217735
0.2174
0.217135
0.216516
0.215536
0.215833
0.214563
0.215406
0.214275
0.215386
0.214399
0.21563
0.214887
0.216044
0.21551
0.216343
0.216138
0.216658
0.216442
0.216366
0.21407
0.208954
0.20421
0.201986
0.244375
0.229399
0.225469
0.227275
0.2296
0.231273
0.232623
0.233647
0.234444
0.234903
0.235513
0.235767
0.236343
0.236394
0.236357
0.236203
0.235648
0.235348
0.235074
0.234911
0.235004
0.234524
0.234229
0.233925
0.233249
0.233091
0.237273
0.235417
0.23549
0.239648
0.248948
0.247738
0.247331
0.24752
0.247512
0.247673
0.247768
0.247858
0.247961
0.248091
0.248133
0.248312
0.248315
0.248625
0.248746
0.24879
0.248915
0.248955
0.248686
0.248615
0.248222
0.248001
0.247688
0.24751
0.247053
0.245233
0.245804
0.247202
0.247609
0.247636
0.251752
0.251597
0.251383
0.251149
0.250984
0.250903
0.250999
0.251325
0.251149
0.250998
0.250935
0.250713
0.250627
0.25052
0.250278
0.250061
0.249805
0.249298
0.249363
0.248975
0.249172
0.248899
0.243227
0.242456
0.24571
0.246487
0.247196
0.247435
0.247421
0.247219
0.251665
0.251494
0.251559
0.251616
0.251684
0.251647
0.251655
0.251626
0.25159
0.251526
0.251512
0.251529
0.251559
0.251593
0.251632
0.251642
0.251648
0.251675
0.251688
0.251638
0.251629
0.251572
0.251508
0.25142
0.251343
0.251276
0.251353
0.251447
0.251331
0.251067
0.251125
0.251027
0.24985
0.249443
0.250319
0.251718
0.251809
0.251804
0.251858
0.251896
0.251926
0.251957
0.25195
0.251989
0.251965
0.252062
0.252053
0.252064
0.252081
0.252069
0.252036
0.251996
0.251951
0.252085
0.245623
0.229622
0.231234
0.234614
0.236411
0.237772
0.248687
0.250388
0.251698
0.251739
0.251663
0.251601
0.251575
0.251579
0.251599
0.251617
0.251573
0.251594
0.251596
0.251615
0.251599
0.251571
0.251549
0.251536
0.251504
0.251494
0.251494
0.251503
0.251567
0.251642
0.251207
0.251272
0.251228
0.251261
0.251249
0.25124
0.251166
0.251054
0.251166
0.251376
0.251418
0.251451
0.25166
0.25154
0.25188
0.251707
0.251964
0.251817
0.251855
0.251876
0.251875
0.251743
0.251711
0.251718
0.251693
0.251677
0.251958
0.250993
0.250411
0.250416
0.250539
0.250626
0.250693
0.250615
0.250473
0.250374
0.247057
0.251089
0.251648
0.251733
0.251669
0.251661
0.251696
0.251712
0.251788
0.251854
0.251978
0.252089
0.252208
0.252077
0.252137
0.252051
0.252069
0.251935
0.251878
0.251846
0.251696
0.251511
0.251878
0.251621
0.251608
0.251578
0.251626
0.25161
0.251617
0.251636
0.252011
0.251884
0.25182
0.251807
0.251807
0.25182
0.251838
0.251878
0.251898
0.251932
0.251895
0.251971
0.251985
0.251966
0.251911
0.251936
0.25182
0.251812
0.251732
0.25171
0.251647
0.251645
0.251444
0.251428
0.251432
0.251416
0.251446
0.251469
0.251495
0.25153
0.252301
0.252327
0.252267
0.252123
0.25176
0.251399
0.251458
0.251623
0.251752
0.251924
0.251987
0.252038
0.252048
0.252066
0.252091
0.252084
0.25208
0.252053
0.252062
0.252024
0.25198
0.251927
0.251773
0.251696
0.251596
0.251525
0.251429
0.251318
0.251445
0.249994
0.177868
0.180762
0.174903
0.164308
0.15834
0.177715
0.250748
0.24822
0.247901
0.247696
0.247549
0.247438
0.247343
0.247255
0.247175
0.247105
0.247038
0.246971
0.246918
0.246879
0.24687
0.246893
0.246959
0.247073
0.247202
0.247336
0.247644
0.248556
0.25069
0.215237
0.21862
0.220086
0.225491
0.231105
0.234513
0.235685
0.23611
0.236067
0.235546
0.234892
0.234029
0.23337
0.236193
0.237047
0.203419
0.213668
0.219301
0.220176
0.219841
0.218916
0.217965
0.215938
0.21434
0.21211
0.210964
0.210132
0.210602
0.20998
0.210527
0.210266
0.211019
0.211284
0.211591
0.21197
0.212464
0.213367
0.214217
0.215217
0.215712
0.216078
0.215234
0.212157
0.207211
0.201222
0.242747
0.227833
0.226551
0.23092
0.234152
0.2356
0.236841
0.237665
0.238815
0.239885
0.24074
0.241096
0.240952
0.240371
0.239583
0.238815
0.238208
0.237776
0.237541
0.237371
0.237211
0.236821
0.236163
0.23513
0.234295
0.233296
0.234847
0.237858
0.241594
0.24392
0.248849
0.247653
0.247386
0.247706
0.24796
0.248202
0.248247
0.248271
0.248283
0.248276
0.248203
0.24816
0.248124
0.248284
0.248266
0.248305
0.248213
0.248339
0.248327
0.248392
0.248297
0.248176
0.247877
0.247585
0.24742
0.246746
0.246834
0.248581
0.249285
0.248933
0.251238
0.250804
0.250919
0.251045
0.250722
0.25081
0.250919
0.25103
0.250913
0.251347
0.251142
0.250876
0.250825
0.250438
0.249851
0.249544
0.249058
0.248815
0.248631
0.248391
0.248592
0.24904
0.246134
0.243088
0.247148
0.249038
0.249985
0.249977
0.249409
0.248673
0.251653
0.251519
0.251604
0.251675
0.251702
0.251633
0.251588
0.251514
0.251704
0.251638
0.251594
0.251712
0.251719
0.251858
0.251816
0.251904
0.251932
0.251956
0.251932
0.251888
0.251945
0.251792
0.251794
0.251488
0.251397
0.251279
0.25128
0.251417
0.251454
0.251407
0.251363
0.25072
0.249739
0.251599
0.25182
0.251876
0.251933
0.251864
0.251879
0.252496
0.251796
0.251257
0.251015
0.250877
0.250887
0.250839
0.250917
0.251079
0.251262
0.251734
0.25196
0.252127
0.252179
0.252252
0.250515
0.240677
0.229329
0.226363
0.228886
0.2332
0.251731
0.251599
0.251314
0.251309
0.251502
0.251498
0.25152
0.251559
0.251534
0.251583
0.251633
0.251603
0.251599
0.251629
0.251587
0.251624
0.251537
0.251509
0.251493
0.251538
0.251534
0.251556
0.251574
0.25149
0.251351
0.251297
0.251386
0.251425
0.251411
0.25143
0.250983
0.251355
0.25129
0.251286
0.251362
0.251502
0.251516
0.251458
0.251546
0.251524
0.251657
0.251627
0.251709
0.251697
0.251743
0.251715
0.251708
0.251727
0.251706
0.251631
0.251666
0.251758
0.250634
0.250768
0.251253
0.251456
0.251601
0.251449
0.25127
0.250946
0.2483
0.25165
0.251709
0.251567
0.251536
0.251563
0.251722
0.251882
0.251849
0.251945
0.251996
0.251972
0.252065
0.252049
0.252014
0.251967
0.25186
0.251824
0.251764
0.251762
0.251739
0.251602
0.251581
0.251571
0.251579
0.251581
0.251497
0.251475
0.251491
0.251524
0.251999
0.251808
0.251816
0.251824
0.251817
0.251857
0.251905
0.25196
0.25198
0.252057
0.252097
0.252296
0.252282
0.252297
0.252299
0.252087
0.252028
0.251949
0.251866
0.25182
0.251756
0.251663
0.251624
0.251416
0.251282
0.251263
0.251267
0.251282
0.251348
0.251433
0.252128
0.252107
0.252061
0.25181
0.251565
0.251592
0.25193
0.25208
0.252252
0.252495
0.252345
0.252329
0.252317
0.252308
0.252308
0.252306
0.252314
0.252337
0.252482
0.25227
0.25212
0.252025
0.252006
0.251958
0.25188
0.251692
0.251517
0.251363
0.251398
0.252262
0.252231
0.25221
0.250155
0.199903
0.192208
0.25227
0.248985
0.247978
0.247793
0.247655
0.247577
0.247549
0.247534
0.247503
0.247452
0.247366
0.247254
0.247121
0.246997
0.246937
0.246974
0.247119
0.247231
0.247062
0.247029
0.247189
0.247737
0.248856
0.250785
0.216653
0.218145
0.225129
0.233694
0.236513
0.237517
0.237469
0.237404
0.236833
0.236538
0.236029
0.23554
0.234199
0.235069
0.236583
0.205315
0.217151
0.222171
0.22212
0.220881
0.219535
0.217595
0.214087
0.211456
0.208932
0.209107
0.208552
0.209951
0.21037
0.211482
0.212569
0.213177
0.213419
0.213303
0.212891
0.212775
0.212481
0.213021
0.213721
0.214342
0.215192
0.215432
0.214125
0.209974
0.202845
0.240704
0.227367
0.229547
0.234972
0.237333
0.237108
0.237874
0.239595
0.241536
0.243194
0.24414
0.24422
0.243766
0.242125
0.240478
0.239166
0.238424
0.238187
0.238223
0.238335
0.238255
0.237846
0.237296
0.236509
0.235356
0.234106
0.233803
0.237105
0.242579
0.244718
0.248812
0.247615
0.24758
0.248019
0.248292
0.248337
0.248317
0.248303
0.24824
0.248014
0.247757
0.247343
0.247125
0.246876
0.246996
0.246148
0.246371
0.246315
0.24709
0.24732
0.247732
0.247911
0.248008
0.247809
0.2476
0.247326
0.247042
0.248439
0.249868
0.249454
0.249871
0.250522
0.25092
0.251127
0.251297
0.251305
0.251212
0.251333
0.25117
0.251163
0.251454
0.251105
0.250699
0.250274
0.249952
0.249467
0.249125
0.248726
0.248172
0.247936
0.247981
0.248786
0.247701
0.243938
0.247215
0.249949
0.251043
0.251291
0.250508
0.249114
0.251617
0.251563
0.251644
0.251687
0.251657
0.251578
0.25152
0.251712
0.25163
0.251737
0.251952
0.251972
0.251835
0.251848
0.251867
0.251878
0.25185
0.251867
0.251833
0.251832
0.251897
0.251963
0.251772
0.251747
0.251442
0.251333
0.251255
0.251336
0.251436
0.251449
0.251183
0.250367
0.252019
0.25182
0.251909
0.251918
0.25182
0.251511
0.250384
0.249802
0.249695
0.24964
0.250055
0.250216
0.250608
0.25068
0.25089
0.250806
0.250914
0.25101
0.251178
0.251597
0.251833
0.25198
0.25174
0.249471
0.241055
0.233855
0.227539
0.229876
0.25165
0.251266
0.251305
0.251496
0.25151
0.251551
0.251549
0.251578
0.251625
0.251613
0.251624
0.251629
0.251652
0.251642
0.251587
0.251591
0.251623
0.251533
0.251501
0.251558
0.251533
0.251538
0.25149
0.251568
0.251467
0.251372
0.251449
0.251556
0.251613
0.251529
0.251282
0.251252
0.251289
0.251552
0.251278
0.251106
0.251469
0.251139
0.250473
0.250426
0.250285
0.250298
0.250425
0.25083
0.25129
0.251469
0.251551
0.251553
0.251691
0.251665
0.251665
0.251933
0.251405
0.25088
0.251456
0.251681
0.251705
0.251664
0.251656
0.251416
0.251315
0.251755
0.251501
0.251447
0.251529
0.251971
0.251782
0.25175
0.251778
0.251819
0.251127
0.250914
0.25056
0.250217
0.250016
0.250041
0.250105
0.25045
0.251104
0.252157
0.251679
0.251605
0.251538
0.251724
0.251605
0.251583
0.251473
0.251509
0.251517
0.25148
0.251844
0.251749
0.251776
0.251813
0.251826
0.251901
0.251971
0.252036
0.252182
0.252134
0.25207
0.251998
0.252044
0.252377
0.251954
0.251997
0.252007
0.252071
0.252249
0.25195
0.251878
0.251745
0.251688
0.251507
0.251289
0.251097
0.251005
0.251004
0.251116
0.251228
0.252026
0.251984
0.251759
0.251607
0.251708
0.251989
0.252214
0.252432
0.252381
0.25236
0.252322
0.252311
0.252325
0.252337
0.252391
0.252311
0.252305
0.252328
0.252386
0.25221
0.252037
0.25204
0.25206
0.252105
0.252095
0.25196
0.251822
0.251458
0.251353
0.25209
0.250421
0.250258
0.252122
0.224043
0.252378
0.249701
0.248195
0.247905
0.247817
0.247832
0.247925
0.248018
0.248087
0.248064
0.247996
0.247877
0.247717
0.247533
0.247366
0.24732
0.247561
0.248248
0.249031
0.249038
0.248573
0.248515
0.249004
0.24987
0.251375
0.213978
0.220389
0.230113
0.235769
0.236606
0.236965
0.236515
0.235838
0.235209
0.23497
0.235142
0.235363
0.234953
0.234948
0.236512
0.207248
0.220522
0.224969
0.22461
0.223356
0.221282
0.217801
0.212326
0.20918
0.207854
0.20909
0.211015
0.212675
0.215244
0.216468
0.218101
0.218451
0.218936
0.21831
0.217517
0.215766
0.214405
0.213434
0.213249
0.21364
0.214439
0.215241
0.214918
0.211685
0.204158
0.239675
0.227709
0.232679
0.238261
0.238067
0.237396
0.238411
0.240774
0.243267
0.244651
0.24528
0.245286
0.244674
0.243224
0.240989
0.239425
0.238722
0.238703
0.239048
0.239476
0.239694
0.239515
0.23879
0.237786
0.236632
0.234953
0.233797
0.236152
0.241846
0.244887
0.248718
0.247693
0.247748
0.24821
0.248333
0.248328
0.248399
0.24838
0.248185
0.247781
0.247146
0.246726
0.245783
0.244305
0.243443
0.242604
0.242424
0.242619
0.243301
0.244609
0.246732
0.247432
0.247829
0.2479
0.24778
0.247488
0.247261
0.248339
0.249928
0.249559
0.250649
0.251236
0.251627
0.251626
0.251587
0.251461
0.251211
0.251126
0.251275
0.250523
0.249626
0.249137
0.248681
0.248416
0.24827
0.248277
0.248219
0.24816
0.247824
0.247436
0.247444
0.248263
0.248482
0.246093
0.246595
0.249657
0.251418
0.251101
0.251002
0.249451
0.251595
0.251595
0.251665
0.25167
0.251645
0.251569
0.25173
0.251795
0.251947
0.251799
0.2518
0.251763
0.25176
0.251741
0.251687
0.251704
0.251625
0.25165
0.251597
0.251591
0.251556
0.25159
0.251537
0.251515
0.251472
0.251371
0.251261
0.251273
0.251404
0.251473
0.25117
0.251373
0.251935
0.252029
0.251916
0.251812
0.250994
0.249886
0.249492
0.249567
0.250161
0.250973
0.251889
0.251837
0.251817
0.251809
0.251895
0.251935
0.251989
0.252046
0.251756
0.251556
0.251553
0.251748
0.251737
0.250917
0.249044
0.243999
0.233878
0.229431
0.251424
0.251288
0.251488
0.251515
0.251533
0.251572
0.25158
0.251604
0.251578
0.251564
0.251568
0.251585
0.251594
0.251639
0.251625
0.251611
0.251567
0.251606
0.251522
0.251494
0.251554
0.251541
0.251566
0.251511
0.251545
0.251634
0.251436
0.251625
0.251745
0.251502
0.251221
0.251274
0.251495
0.25105
0.251234
0.25041
0.249508
0.249225
0.248794
0.248369
0.248476
0.248342
0.24852
0.248585
0.249014
0.249657
0.250547
0.251399
0.251499
0.251634
0.251657
0.251638
0.251849
0.251165
0.251406
0.251677
0.251637
0.251667
0.251727
0.251678
0.251683
0.251637
0.25132
0.251439
0.251939
0.251785
0.251709
0.252172
0.251253
0.250619
0.250114
0.249757
0.249395
0.249043
0.248904
0.248701
0.248709
0.248918
0.249314
0.250213
0.251537
0.251575
0.251584
0.251656
0.251568
0.251615
0.251538
0.251465
0.251495
0.251471
0.251736
0.251687
0.251738
0.251785
0.251857
0.251939
0.252293
0.252041
0.251972
0.251842
0.250439
0.24951
0.248795
0.248679
0.248359
0.248962
0.250037
0.251678
0.251943
0.252095
0.251985
0.251879
0.251737
0.251689
0.251359
0.250988
0.250895
0.2509
0.250963
0.251112
0.252001
0.251732
0.251601
0.251708
0.252024
0.252191
0.25236
0.25239
0.252278
0.252009
0.251936
0.251903
0.251921
0.251929
0.252068
0.252193
0.252472
0.252375
0.252406
0.252164
0.252052
0.252078
0.252359
0.252148
0.2521
0.252192
0.252023
0.251597
0.251361
0.251936
0.250037
0.249882
0.252504
0.252332
0.25013
0.24842
0.248008
0.247953
0.24805
0.24824
0.248471
0.248628
0.248722
0.248714
0.248616
0.248412
0.248165
0.247896
0.247615
0.247455
0.247569
0.248502
0.250156
0.251129
0.251015
0.250687
0.250543
0.250792
0.251905
0.202186
0.221969
0.230119
0.232685
0.232734
0.232928
0.232992
0.232491
0.231498
0.230925
0.231491
0.233796
0.234409
0.234379
0.236022
0.20904
0.223368
0.228313
0.228231
0.226901
0.223109
0.217201
0.210247
0.207913
0.20885
0.211054
0.214611
0.216439
0.218925
0.219158
0.221171
0.221196
0.222842
0.222118
0.221225
0.219349
0.217517
0.215521
0.214347
0.214116
0.214416
0.214957
0.214967
0.212445
0.2049
0.238928
0.228724
0.236132
0.24038
0.238545
0.23732
0.238329
0.240744
0.243445
0.245032
0.24587
0.246009
0.245459
0.244274
0.241541
0.239529
0.238704
0.238825
0.23936
0.240001
0.240637
0.240802
0.240259
0.238984
0.237568
0.235693
0.234123
0.235247
0.241076
0.245052
0.248805
0.247792
0.247927
0.248273
0.248264
0.248359
0.248528
0.248488
0.248145
0.247618
0.247095
0.246122
0.244367
0.242739
0.241591
0.24078
0.240559
0.240297
0.240935
0.242217
0.244354
0.246837
0.247552
0.247785
0.247695
0.247612
0.247497
0.248406
0.250081
0.249621
0.251534
0.251392
0.251403
0.251419
0.251397
0.25109
0.250968
0.250546
0.249364
0.248507
0.24767
0.24724
0.246869
0.246689
0.246509
0.246716
0.246918
0.247196
0.247273
0.247107
0.247034
0.247724
0.2487
0.247464
0.246575
0.248851
0.251323
0.251117
0.251205
0.249714
0.251581
0.251621
0.251666
0.251657
0.251638
0.25184
0.251753
0.252023
0.251806
0.251754
0.251699
0.251647
0.251625
0.251609
0.251565
0.25154
0.251479
0.251445
0.251353
0.251332
0.251278
0.251316
0.251341
0.251386
0.251394
0.251374
0.251249
0.25126
0.251397
0.251528
0.251322
0.251732
0.251711
0.252067
0.25187
0.251438
0.249901
0.249342
0.249577
0.250418
0.251793
0.251666
0.251703
0.251774
0.251794
0.2518
0.251819
0.251884
0.251883
0.251892
0.251915
0.252092
0.25169
0.25159
0.251679
0.251386
0.250328
0.249098
0.240227
0.230372
0.251253
0.251472
0.2515
0.251564
0.251571
0.251587
0.25159
0.251616
0.251593
0.251583
0.251445
0.251429
0.251411
0.251397
0.251443
0.251563
0.251577
0.251541
0.251571
0.251514
0.251494
0.251559
0.251554
0.251503
0.251511
0.251577
0.251654
0.251752
0.251851
0.251719
0.251238
0.251314
0.251045
0.25098
0.249873
0.249332
0.248583
0.248095
0.247588
0.246797
0.245911
0.24513
0.245394
0.245917
0.246999
0.247824
0.248773
0.250179
0.251385
0.251544
0.251665
0.25168
0.25194
0.251534
0.251318
0.25165
0.251431
0.251516
0.25173
0.251727
0.251799
0.251452
0.251294
0.251527
0.251918
0.251807
0.251697
0.251418
0.250595
0.249929
0.2494
0.248745
0.248502
0.24771
0.247135
0.247044
0.247201
0.247525
0.248326
0.248913
0.249955
0.251685
0.251515
0.251491
0.251888
0.251596
0.251583
0.251509
0.251487
0.25154
0.25169
0.251653
0.251688
0.251797
0.251891
0.251991
0.252121
0.251929
0.251229
0.249235
0.246618
0.242392
0.238745
0.236097
0.237084
0.238864
0.243296
0.248517
0.250817
0.251957
0.25215
0.251959
0.251845
0.251705
0.25145
0.251013
0.250885
0.250904
0.250942
0.251094
0.25182
0.251602
0.251605
0.251896
0.25212
0.252202
0.252123
0.251957
0.251774
0.251696
0.25162
0.251601
0.251627
0.251703
0.251773
0.251839
0.252034
0.25229
0.252413
0.25217
0.252027
0.252108
0.252168
0.250475
0.249089
0.250901
0.252214
0.251783
0.251377
0.251877
0.250225
0.250066
0.252085
0.251186
0.248778
0.248094
0.248036
0.248147
0.248393
0.248748
0.249074
0.249359
0.249475
0.249467
0.249286
0.249025
0.248677
0.248289
0.247914
0.247575
0.247445
0.247894
0.249832
0.251456
0.251662
0.25151
0.251199
0.251355
0.252335
0.19354
0.221012
0.227828
0.228244
0.228368
0.230051
0.23065
0.229703
0.22839
0.226728
0.227881
0.231949
0.234207
0.234434
0.235314
0.210568
0.225917
0.231423
0.231856
0.22976
0.224705
0.215694
0.208999
0.207679
0.210365
0.213535
0.217721
0.219307
0.221067
0.220812
0.22202
0.22271
0.22444
0.224197
0.223596
0.221485
0.219633
0.217651
0.215845
0.21491
0.214696
0.215037
0.215144
0.212806
0.205127
0.23874
0.230304
0.239439
0.242525
0.239099
0.236968
0.237533
0.23957
0.242453
0.245097
0.246384
0.246718
0.246364
0.245102
0.242277
0.239649
0.238618
0.238637
0.239012
0.239919
0.240946
0.241498
0.240958
0.239721
0.237993
0.236378
0.234421
0.235132
0.240765
0.245162
0.24876
0.247912
0.24802
0.248185
0.248219
0.248398
0.248601
0.248613
0.248227
0.247678
0.247188
0.245941
0.243864
0.242094
0.240973
0.239922
0.239374
0.239202
0.240018
0.240959
0.243124
0.2458
0.24724
0.247615
0.247576
0.247567
0.247606
0.248598
0.250008
0.249504
0.251345
0.251347
0.251365
0.251492
0.250982
0.250614
0.249513
0.247945
0.247147
0.246313
0.245859
0.245599
0.245415
0.245426
0.245466
0.245539
0.245946
0.24636
0.246672
0.246724
0.246591
0.247248
0.248565
0.248344
0.247437
0.248793
0.251147
0.251624
0.251116
0.25021
0.251588
0.251578
0.251641
0.251924
0.251899
0.251821
0.252018
0.251789
0.251737
0.251665
0.251638
0.251573
0.251558
0.251536
0.251509
0.251413
0.251258
0.251188
0.251109
0.251046
0.251009
0.251061
0.25111
0.251228
0.251297
0.251308
0.25126
0.251271
0.251405
0.25153
0.251959
0.251895
0.251692
0.251998
0.251847
0.250516
0.249223
0.249172
0.249983
0.251301
0.251625
0.251631
0.25171
0.251823
0.251751
0.251887
0.251864
0.251869
0.251939
0.251867
0.251913
0.251955
0.252304
0.2517
0.251539
0.251421
0.251137
0.250159
0.244853
0.231609
0.25122
0.251451
0.251515
0.251549
0.251593
0.251599
0.251606
0.251537
0.251436
0.251395
0.251348
0.251278
0.251216
0.251216
0.25127
0.251358
0.25141
0.251528
0.25158
0.251553
0.251491
0.251483
0.251553
0.251494
0.25152
0.251573
0.251543
0.251575
0.251552
0.251489
0.251278
0.251261
0.250891
0.250341
0.24941
0.248791
0.247977
0.24715
0.245214
0.24286
0.241609
0.240807
0.241239
0.241666
0.243005
0.245001
0.247427
0.248774
0.250589
0.251375
0.251638
0.251669
0.251764
0.251814
0.251367
0.251421
0.251365
0.251514
0.251703
0.25173
0.251724
0.251194
0.251331
0.251618
0.25186
0.251742
0.252321
0.251002
0.250128
0.249307
0.248434
0.24725
0.246449
0.245875
0.245952
0.245968
0.246069
0.246155
0.246723
0.248001
0.249006
0.250515
0.251575
0.251511
0.251587
0.251604
0.251555
0.251542
0.251466
0.251534
0.251609
0.251443
0.251636
0.251801
0.251918
0.252169
0.251947
0.251907
0.249599
0.246455
0.240305
0.234781
0.231101
0.229761
0.228435
0.230552
0.234536
0.241643
0.248552
0.251371
0.252071
0.25204
0.251886
0.251788
0.251537
0.251121
0.250917
0.250982
0.250987
0.251141
0.251761
0.251547
0.251671
0.251975
0.252095
0.252049
0.251884
0.251679
0.251575
0.251396
0.251345
0.251323
0.251348
0.251373
0.251445
0.251568
0.251852
0.252057
0.252524
0.252212
0.251987
0.252062
0.252138
0.250505
0.248445
0.249699
0.252153
0.251812
0.251383
0.251862
0.250725
0.25011
0.251606
0.250012
0.248351
0.248085
0.248157
0.248378
0.248788
0.249276
0.249714
0.25
0.250189
0.250171
0.24995
0.249633
0.249176
0.248711
0.248236
0.247795
0.247476
0.247448
0.248745
0.251201
0.251788
0.251548
0.251369
0.251628
0.250819
0.181825
0.218732
0.222636
0.221716
0.225473
0.228741
0.228246
0.226043
0.224212
0.223648
0.224747
0.229994
0.233511
0.233923
0.235461
0.211646
0.228813
0.234898
0.234981
0.232162
0.22569
0.215059
0.208471
0.2079
0.211468
0.21486
0.219241
0.220972
0.222689
0.221522
0.221159
0.221462
0.22401
0.224581
0.224612
0.223118
0.221055
0.219183
0.217557
0.216155
0.215523
0.215416
0.214957
0.21238
0.2051
0.23879
0.231854
0.242151
0.24471
0.240087
0.236611
0.23631
0.237786
0.240904
0.245053
0.246979
0.247679
0.247446
0.246045
0.243142
0.239522
0.238383
0.238507
0.238721
0.239199
0.240372
0.241129
0.240776
0.239518
0.238037
0.236066
0.234662
0.235297
0.240926
0.245196
0.248817
0.24789
0.248049
0.248038
0.248095
0.248424
0.248575
0.248623
0.248469
0.247958
0.247362
0.246366
0.243834
0.24213
0.240912
0.240152
0.239979
0.239825
0.240249
0.241084
0.243062
0.245504
0.247112
0.247358
0.247435
0.247525
0.247888
0.24897
0.25007
0.249746
0.251302
0.251307
0.251585
0.250963
0.250471
0.248456
0.246779
0.245708
0.245324
0.2447
0.244796
0.244576
0.24475
0.244772
0.244832
0.245013
0.245284
0.245779
0.246249
0.246389
0.246338
0.246867
0.248358
0.248969
0.248586
0.249449
0.250965
0.251294
0.251304
0.251086
0.251583
0.251641
0.251657
0.251896
0.251817
0.251753
0.251776
0.251757
0.251683
0.251644
0.251581
0.251568
0.251538
0.251533
0.251404
0.251225
0.251114
0.251019
0.250867
0.250843
0.250833
0.250855
0.250954
0.251115
0.25118
0.251239
0.251175
0.251275
0.251453
0.251512
0.251777
0.251737
0.251725
0.252044
0.252152
0.249686
0.248622
0.24904
0.250271
0.251602
0.251609
0.251609
0.251788
0.251786
0.251716
0.251729
0.251718
0.251956
0.25181
0.251887
0.251923
0.251909
0.251969
0.251729
0.25147
0.251389
0.2513
0.250712
0.246707
0.232075
0.251333
0.251441
0.251519
0.25156
0.251609
0.251619
0.25155
0.251534
0.251393
0.251345
0.25122
0.25113
0.251105
0.251089
0.251144
0.251245
0.251322
0.251437
0.251566
0.25156
0.251479
0.251546
0.251542
0.251547
0.251567
0.251518
0.251531
0.251552
0.251493
0.251402
0.251719
0.251014
0.251233
0.250172
0.249388
0.248653
0.24746
0.246133
0.242278
0.24057
0.238302
0.237295
0.237273
0.238185
0.240102
0.24236
0.245059
0.247853
0.249618
0.251312
0.251581
0.251681
0.251676
0.251874
0.251458
0.251351
0.251372
0.251596
0.251612
0.251689
0.251606
0.251116
0.251387
0.251642
0.251934
0.251821
0.252136
0.250844
0.249848
0.248756
0.247322
0.246216
0.24552
0.245564
0.245882
0.245906
0.246064
0.245978
0.245908
0.246651
0.248592
0.249866
0.251777
0.251535
0.251541
0.251587
0.251598
0.25155
0.251521
0.251476
0.251572
0.251365
0.25163
0.251801
0.251933
0.252127
0.251903
0.251167
0.248735
0.243116
0.235824
0.229863
0.226189
0.223872
0.224252
0.225067
0.228907
0.235322
0.244021
0.249973
0.251952
0.25223
0.251944
0.251858
0.251684
0.251195
0.250991
0.251112
0.251099
0.251176
0.251712
0.251505
0.251675
0.252001
0.252022
0.251862
0.251644
0.251488
0.251314
0.251427
0.251391
0.251414
0.251289
0.251288
0.251342
0.25142
0.251553
0.251883
0.252254
0.252292
0.251983
0.252004
0.252234
0.252052
0.250494
0.251204
0.252327
0.251684
0.251394
0.25186
0.251709
0.249966
0.251216
0.249557
0.248277
0.248151
0.248271
0.248607
0.249141
0.249722
0.250247
0.250552
0.250753
0.250779
0.250526
0.250155
0.249626
0.249051
0.248554
0.248019
0.247594
0.247346
0.247829
0.250519
0.25194
0.251678
0.251627
0.252412
0.229626
0.172707
0.216158
0.216705
0.217301
0.224918
0.228998
0.226639
0.223887
0.222912
0.22315
0.22493
0.230407
0.23341
0.233976
0.234786
0.212729
0.230316
0.237009
0.237426
0.233171
0.227139
0.215512
0.20839
0.207928
0.211135
0.214577
0.218951
0.221776
0.224726
0.223825
0.222161
0.220125
0.221594
0.223301
0.224495
0.223639
0.221901
0.220186
0.218626
0.217249
0.216101
0.215745
0.215035
0.212241
0.204903
0.239381
0.232881
0.244575
0.246328
0.242557
0.236891
0.234871
0.235732
0.239257
0.245022
0.247629
0.248718
0.248701
0.247103
0.243921
0.239436
0.238327
0.238106
0.238113
0.238327
0.239265
0.239786
0.239378
0.238486
0.2374
0.235822
0.234824
0.236273
0.242317
0.245635
0.248708
0.247993
0.247986
0.247957
0.247865
0.248253
0.248557
0.248513
0.248571
0.248187
0.247581
0.24697
0.24453
0.242477
0.241484
0.240984
0.240898
0.240711
0.241287
0.241964
0.243845
0.24571
0.246895
0.247245
0.247352
0.247637
0.248209
0.249127
0.250338
0.250721
0.251265
0.251311
0.251184
0.250474
0.248293
0.246366
0.245252
0.244599
0.244409
0.244422
0.244406
0.24463
0.244505
0.244524
0.244628
0.244577
0.245086
0.245475
0.245937
0.246207
0.246057
0.246598
0.248288
0.249364
0.249524
0.250306
0.251028
0.251254
0.251227
0.251178
0.251592
0.25164
0.251866
0.251922
0.251686
0.251778
0.251759
0.251729
0.251633
0.251619
0.251586
0.251576
0.251534
0.251493
0.251313
0.251119
0.250983
0.250893
0.250846
0.250856
0.250828
0.250857
0.250925
0.250998
0.251092
0.251137
0.251144
0.251269
0.25152
0.251489
0.251817
0.251662
0.251689
0.251961
0.251903
0.249392
0.247806
0.248941
0.249956
0.251126
0.251641
0.251621
0.251814
0.251912
0.251641
0.251581
0.251603
0.251722
0.251828
0.2519
0.251925
0.25186
0.251927
0.251859
0.251458
0.25122
0.251276
0.250955
0.246556
0.232585
0.251424
0.251403
0.251497
0.25155
0.251622
0.251585
0.25156
0.251533
0.251375
0.251292
0.251179
0.251136
0.251094
0.251067
0.251121
0.251216
0.251325
0.251386
0.251519
0.251506
0.251476
0.251532
0.251497
0.251532
0.251557
0.25155
0.251579
0.251482
0.251349
0.251337
0.251426
0.25101
0.250975
0.250174
0.249617
0.248639
0.247325
0.245249
0.241224
0.239335
0.237267
0.236485
0.236163
0.237272
0.238866
0.24143
0.243803
0.247464
0.249139
0.251496
0.251563
0.251669
0.251646
0.252147
0.251552
0.251355
0.251612
0.251413
0.251484
0.251587
0.251514
0.251088
0.251372
0.251666
0.252055
0.251838
0.2521
0.250915
0.249596
0.24855
0.246903
0.245615
0.245259
0.245774
0.246108
0.246401
0.246101
0.246087
0.245693
0.246111
0.248447
0.249795
0.251565
0.251568
0.251619
0.251898
0.251607
0.2516
0.251455
0.251244
0.251319
0.251295
0.251658
0.251783
0.251935
0.252127
0.251908
0.251038
0.248603
0.241955
0.233982
0.227528
0.223569
0.222118
0.221602
0.223063
0.226313
0.232263
0.241673
0.249151
0.251902
0.252177
0.251976
0.251847
0.251743
0.251263
0.251132
0.25116
0.251145
0.251211
0.251689
0.251481
0.251659
0.251951
0.251934
0.251758
0.251511
0.251481
0.251368
0.251336
0.25126
0.251229
0.251344
0.251376
0.251284
0.251345
0.251439
0.251558
0.25208
0.252462
0.251987
0.251963
0.25203
0.25214
0.252224
0.252262
0.251975
0.251559
0.251418
0.251912
0.251009
0.250865
0.250888
0.24953
0.2483
0.248206
0.248357
0.248749
0.249393
0.249999
0.250539
0.25084
0.251069
0.251075
0.250878
0.250474
0.249909
0.249289
0.248762
0.2482
0.247738
0.24736
0.24729
0.249595
0.252089
0.252193
0.252232
0.2502
0.196942
0.167474
0.212423
0.210083
0.214422
0.226025
0.228825
0.226417
0.225229
0.225495
0.226195
0.227696
0.230967
0.233025
0.233493
0.234265
0.232039
0.223017
0.215062
0.228482
0.237864
0.239129
0.233829
0.228841
0.217869
0.208792
0.207426
0.209508
0.212037
0.215633
0.220787
0.225591
0.227263
0.22651
0.221913
0.219427
0.219793
0.222228
0.222934
0.222387
0.220908
0.219468
0.218172
0.217045
0.215938
0.214252
0.209588
0.204276
0.211653
0.231749
0.239092
0.235301
0.246082
0.248072
0.24574
0.239058
0.234745
0.234291
0.237644
0.244841
0.248392
0.24977
0.249606
0.247842
0.244336
0.239398
0.2381
0.237857
0.237673
0.237599
0.237797
0.23798
0.237787
0.237366
0.236319
0.235608
0.235294
0.237658
0.242802
0.245195
0.246095
0.246774
0.24871
0.248
0.247814
0.247608
0.247591
0.247931
0.24835
0.24848
0.248443
0.248474
0.247873
0.247226
0.24592
0.243404
0.242146
0.241679
0.241897
0.242161
0.242599
0.243272
0.244651
0.245855
0.24685
0.247207
0.247364
0.247817
0.248883
0.25077
0.251496
0.251477
0.251419
0.251311
0.251312
0.251317
0.251025
0.250089
0.247256
0.245508
0.244671
0.244297
0.244206
0.244508
0.244679
0.244823
0.244699
0.244865
0.244837
0.244859
0.245245
0.245596
0.245922
0.245886
0.245906
0.246593
0.248311
0.24956
0.249985
0.250877
0.25092
0.25124
0.251699
0.251742
0.251634
0.251573
0.251628
0.251637
0.251851
0.251843
0.251715
0.251758
0.251757
0.251698
0.251615
0.251625
0.25163
0.251609
0.251546
0.251453
0.25129
0.251142
0.250948
0.250879
0.250775
0.250748
0.250795
0.250805
0.250896
0.250982
0.251037
0.251113
0.251189
0.251392
0.251545
0.251561
0.251818
0.251996
0.252075
0.251586
0.251718
0.252016
0.252409
0.24956
0.247447
0.248535
0.249744
0.250763
0.251943
0.251679
0.251777
0.251961
0.251612
0.251587
0.251623
0.251637
0.251771
0.251954
0.251858
0.251907
0.251881
0.25193
0.251328
0.251337
0.25142
0.250761
0.2424
0.251367
0.251461
0.251456
0.251449
0.251439
0.251502
0.251554
0.251646
0.251604
0.251583
0.251544
0.251403
0.251321
0.251225
0.251194
0.251173
0.251195
0.251227
0.251268
0.251351
0.251386
0.251556
0.251481
0.251536
0.251457
0.251471
0.251502
0.25152
0.251505
0.251418
0.25118
0.251292
0.251282
0.251319
0.251196
0.251437
0.251069
0.251182
0.250418
0.249894
0.248998
0.247618
0.245436
0.241999
0.240184
0.238652
0.238174
0.23783
0.23835
0.239801
0.241784
0.243999
0.247527
0.249232
0.251608
0.251575
0.251655
0.251643
0.252066
0.251675
0.251428
0.251331
0.251104
0.251289
0.251279
0.251319
0.25146
0.251316
0.251189
0.251436
0.251659
0.252098
0.251962
0.251857
0.251067
0.2497
0.248795
0.246977
0.245812
0.24545