/*--------------------------------*- C++ -*----------------------------------*\
| =========                 |                                                 |
| \\      /  F ield         | OpenFOAM: The Open Source CFD Toolbox           |
|  \\    /   O peration     | Version:  2.1.1                                 |
|   \\  /    A nd           | Web:      www.OpenFOAM.org                      |
|    \\/     M anipulation  |                                                 |
\*---------------------------------------------------------------------------*/
FoamFile
{
    version     2.0;
    format      ascii;
    class       volScalarField;
    location    "0.005800000";
    object      HO2;
}
// * * * * * * * * * * * * * * * * * * * * * * * * * * * * * * * * * * * * * //

dimensions      [0 0 0 0 0 0 0];

internalField   nonuniform List<scalar> 
12384
(
8.52485e-06
9.74855e-06
1.03592e-05
1.04556e-05
1.02928e-05
1.00472e-05
9.82739e-06
9.78033e-06
9.6562e-06
9.79388e-06
9.7546e-06
9.47493e-06
6.86454e-06
7.40456e-06
1.21724e-05
1.17459e-05
1.17704e-05
1.21117e-05
1.21922e-05
1.2391e-05
1.22961e-05
1.26006e-05
1.25947e-05
1.25558e-05
1.28941e-05
1.23509e-05
1.27808e-05
1.19727e-05
1.24132e-05
1.1536e-05
1.19744e-05
1.11816e-05
1.1531e-05
1.08652e-05
1.11808e-05
1.07096e-05
1.09077e-05
1.0635e-05
1.07061e-05
1.03846e-05
9.90098e-06
9.11133e-06
8.88801e-06
8.94382e-06
3.64572e-06
7.84357e-06
8.42244e-06
8.47574e-06
8.04768e-06
7.98609e-06
7.71382e-06
7.72445e-06
7.55592e-06
7.56463e-06
7.43374e-06
7.45196e-06
6.89879e-06
6.90388e-06
6.9358e-06
6.99662e-06
7.6106e-06
7.67522e-06
7.72488e-06
7.78865e-06
7.74339e-06
8.00299e-06
8.15438e-06
8.39661e-06
8.67716e-06
8.69704e-06
6.84594e-06
7.79435e-06
7.83129e-06
6.0742e-06
1.64704e-06
2.1052e-06
2.24793e-06
2.18425e-06
2.17332e-06
2.11624e-06
2.08254e-06
2.04765e-06
2.0055e-06
1.95005e-06
1.90411e-06
1.80388e-06
1.79942e-06
1.65121e-06
1.59631e-06
1.57726e-06
1.5087e-06
1.49198e-06
1.62162e-06
1.62255e-06
1.82343e-06
1.89794e-06
2.04278e-06
2.12632e-06
2.28079e-06
3.22789e-06
3.05963e-06
2.21944e-06
2.07439e-06
2.06548e-06
2.2516e-07
2.75472e-07
3.51497e-07
4.26108e-07
4.79654e-07
5.08821e-07
4.86379e-07
6.98765e-07
7.63784e-07
7.97163e-07
8.29635e-07
8.98236e-07
9.41435e-07
9.6751e-07
1.09342e-06
1.15594e-06
1.30116e-06
1.49334e-06
1.49675e-06
1.64907e-06
1.57594e-06
1.68069e-06
4.13803e-06
4.35277e-06
2.85223e-06
2.52746e-06
2.25584e-06
2.16751e-06
2.16548e-06
2.24136e-06
1.19536e-07
6.1647e-08
4.07101e-08
3.77044e-08
4.29506e-08
5.85386e-08
7.02536e-08
8.32082e-08
9.68629e-08
1.13506e-07
1.20685e-07
1.22255e-07
1.20894e-07
1.18019e-07
1.1416e-07
1.1284e-07
1.13552e-07
1.0857e-07
1.07205e-07
1.13041e-07
1.13307e-07
1.18325e-07
1.27341e-07
1.34913e-07
1.40208e-07
1.43552e-07
1.18827e-07
1.1727e-07
2.98327e-07
4.02132e-07
8.37565e-07
8.73467e-07
1.28298e-06
1.40322e-06
1.11365e-06
6.26757e-07
2.8801e-07
2.69085e-07
2.47077e-07
2.37994e-07
2.33044e-07
2.29353e-07
2.41134e-07
2.30585e-07
2.41761e-07
2.18206e-07
2.24856e-07
2.1803e-07
2.18471e-07
2.23456e-07
2.32689e-07
2.43576e-07
2.56044e-07
4.53258e-07
2.71228e-06
5.62587e-06
5.62595e-06
5.10488e-06
4.83433e-06
4.63826e-06
1.67015e-06
1.08202e-06
2.48012e-07
1.0786e-07
8.01939e-08
6.80404e-08
6.76021e-08
6.53882e-08
6.17983e-08
5.9119e-08
6.67833e-08
6.3717e-08
6.23157e-08
5.87936e-08
5.95387e-08
6.04589e-08
6.25919e-08
6.35222e-08
6.78652e-08
6.8672e-08
6.82923e-08
6.57893e-08
7.00371e-08
1.73276e-07
3.30786e-07
3.21262e-07
3.40954e-07
3.35126e-07
3.37712e-07
3.39818e-07
4.50453e-07
4.64017e-07
4.00433e-07
3.01101e-07
2.65341e-07
2.46623e-07
1.87985e-07
2.28652e-07
1.37004e-07
1.93645e-07
1.28242e-07
1.73675e-07
1.64935e-07
1.59917e-07
1.64362e-07
1.89502e-07
1.99415e-07
1.97451e-07
2.09487e-07
2.30417e-07
1.45504e-07
9.11102e-09
3.33103e-09
3.59683e-09
5.121e-09
6.37111e-09
7.29284e-09
6.18115e-09
4.36154e-09
2.95117e-09
2.41866e-06
4.7601e-07
2.41136e-07
1.19933e-07
1.12944e-07
1.0835e-07
1.03186e-07
1.05291e-07
9.96115e-08
9.92815e-08
8.35613e-08
1.01581e-07
7.31382e-08
1.11783e-07
1.10448e-07
1.22084e-07
1.27799e-07
1.47803e-07
1.64685e-07
1.63571e-07
2.06253e-07
2.66397e-07
1.22161e-07
7.70116e-08
7.13681e-08
7.03763e-08
5.78911e-08
5.64294e-08
5.36533e-08
5.03773e-08
5.07158e-08
3.09533e-08
3.45876e-08
4.14212e-08
4.63876e-08
4.82847e-08
4.87274e-08
4.56876e-08
4.49515e-08
4.32316e-08
4.90511e-08
4.0919e-08
3.98595e-08
4.56477e-08
4.69508e-08
4.7167e-08
5.53916e-08
5.15353e-08
6.16908e-08
6.05927e-08
6.27103e-08
4.89292e-08
3.1912e-08
2.76429e-08
2.5693e-08
2.73911e-08
2.68388e-08
2.72172e-08
2.82647e-08
2.80299e-08
1.56198e-07
1.32713e-07
4.56188e-08
3.30988e-08
1.6487e-08
1.18974e-08
1.30043e-08
1.55065e-08
1.77757e-08
1.48795e-08
1.94361e-08
2.61398e-08
3.48726e-08
3.89456e-08
3.89481e-08
4.06622e-08
3.90859e-08
3.76606e-08
2.91089e-08
2.53452e-08
2.02919e-08
1.49918e-08
1.83548e-08
1.69769e-08
1.70986e-08
1.60265e-08
1.43593e-08
1.643e-08
1.91178e-08
1.25649e-06
4.25032e-06
4.45682e-06
4.14794e-06
3.26224e-06
2.72238e-06
4.01026e-06
7.65879e-09
1.05836e-09
7.63347e-10
5.38126e-10
5.64995e-10
4.54028e-10
4.6668e-10
4.33635e-10
4.26496e-10
3.77988e-10
3.71916e-10
3.62688e-10
3.47563e-10
3.33379e-10
3.24589e-10
3.22123e-10
3.45009e-10
3.63367e-10
4.38592e-10
4.64143e-10
5.65016e-10
1.04492e-09
5.55632e-09
6.24893e-06
1.38792e-05
1.36791e-05
1.2143e-05
1.00407e-05
8.22618e-06
7.65059e-06
7.49241e-06
7.5512e-06
7.82026e-06
8.08085e-06
8.52936e-06
9.28657e-06
7.51249e-06
7.16541e-06
1.21007e-05
1.17011e-05
1.17861e-05
1.19983e-05
1.21274e-05
1.25095e-05
1.27672e-05
1.33874e-05
1.37179e-05
1.36511e-05
1.37912e-05
1.34559e-05
1.35684e-05
1.306e-05
1.31919e-05
1.26204e-05
1.27824e-05
1.21846e-05
1.2297e-05
1.17522e-05
1.1818e-05
1.13772e-05
1.13732e-05
1.10868e-05
1.10145e-05
1.07101e-05
1.03166e-05
9.60244e-06
9.02895e-06
8.97614e-06
4.11418e-06
8.06397e-06
8.38256e-06
7.83617e-06
7.2767e-06
7.19903e-06
6.49473e-06
6.35977e-06
5.90625e-06
5.5819e-06
5.30267e-06
5.20869e-06
5.27328e-06
5.48388e-06
5.75853e-06
6.02512e-06
6.22716e-06
6.36632e-06
6.48645e-06
6.54499e-06
6.60929e-06
6.77091e-06
7.05147e-06
7.91519e-06
8.2484e-06
8.60839e-06
8.12225e-06
6.57525e-06
5.33674e-06
3.89062e-06
1.68552e-06
2.14446e-06
2.2125e-06
2.10108e-06
2.00885e-06
1.91987e-06
1.9019e-06
1.89049e-06
1.88075e-06
1.87478e-06
1.86854e-06
1.8738e-06
1.85678e-06
1.78053e-06
1.76436e-06
1.7186e-06
1.75387e-06
1.70793e-06
1.71638e-06
1.71986e-06
1.76836e-06
1.83643e-06
1.95341e-06
2.08226e-06
2.16488e-06
2.39713e-06
2.34982e-06
1.71709e-06
1.46069e-06
1.58995e-06
3.93207e-07
5.40435e-07
8.83613e-07
8.31467e-07
5.57908e-07
5.30775e-07
4.98453e-07
4.67195e-07
5.01883e-07
6.72456e-07
7.40015e-07
8.4041e-07
8.60188e-07
1.00251e-06
1.2296e-06
1.35799e-06
1.55542e-06
1.66921e-06
1.76788e-06
1.86745e-06
1.79341e-06
1.62282e-06
2.73381e-06
4.13245e-06
2.28395e-06
1.57592e-06
1.21687e-06
1.20815e-06
1.41409e-06
1.68015e-06
1.07942e-07
5.32107e-08
4.13801e-08
5.46147e-08
7.53704e-08
1.02589e-07
1.18935e-07
1.43673e-07
1.42727e-07
1.71168e-07
1.9621e-07
1.69685e-07
1.72279e-07
1.37699e-07
1.53238e-07
1.31531e-07
1.24578e-07
1.19196e-07
1.23993e-07
1.35007e-07
1.10619e-07
1.45844e-07
1.30299e-07
1.49601e-07
1.51943e-07
1.57497e-07
1.40842e-07
1.09945e-07
1.30753e-07
1.62393e-07
7.56644e-07
9.86633e-07
1.31794e-06
6.6822e-07
2.30478e-07
1.81435e-07
1.75491e-07
2.19942e-07
2.49491e-07
3.39816e-07
5.76427e-07
7.64379e-07
8.31842e-07
8.77646e-07
8.73805e-07
8.73672e-07
8.4786e-07
7.9008e-07
7.24696e-07
5.75217e-07
4.97278e-07
4.39544e-07
4.20146e-07
3.98911e-07
9.99191e-07
4.07108e-06
5.65783e-06
5.86048e-06
5.70586e-06
5.27915e-06
2.22223e-07
6.59737e-08
3.76341e-08
4.04178e-08
3.99694e-08
6.9199e-08
8.55781e-08
8.95368e-08
9.76663e-08
9.13957e-08
8.36471e-08
8.72097e-08
8.63206e-08
7.90829e-08
8.28644e-08
7.29755e-08
8.11634e-08
8.05647e-08
7.79597e-08
6.54019e-08
6.28341e-08
5.64109e-08
5.76664e-08
1.14784e-07
2.87573e-07
3.33861e-07
3.17594e-07
3.01136e-07
2.96277e-07
2.95551e-07
4.61864e-07
2.79214e-07
1.79361e-07
1.74506e-07
1.70146e-07
2.22666e-07
2.45597e-07
2.89205e-07
2.82188e-07
2.98109e-07
2.70093e-07
2.76168e-07
2.52485e-07
2.50505e-07
2.32027e-07
2.28544e-07
2.21301e-07
2.0526e-07
2.05208e-07
2.32623e-07
2.36607e-07
5.12105e-08
5.94759e-09
7.52502e-09
2.01402e-08
3.2082e-08
3.48557e-08
3.02512e-08
1.90978e-08
9.99738e-09
1.92746e-06
2.41493e-07
1.02662e-07
9.98005e-08
1.05468e-07
1.16992e-07
1.17719e-07
1.61823e-07
2.04127e-07
2.06203e-07
2.15603e-07
2.33097e-07
2.23236e-07
2.34406e-07
2.45464e-07
2.55335e-07
2.69305e-07
2.60772e-07
2.57849e-07
2.3845e-07
2.24893e-07
2.53504e-07
2.4073e-07
1.24515e-07
7.49121e-08
5.82284e-08
6.31161e-08
6.45392e-08
6.07419e-08
5.3359e-08
4.68289e-08
3.21348e-08
3.50326e-08
4.38322e-08
5.38837e-08
5.46253e-08
5.50115e-08
5.61599e-08
6.27911e-08
6.34495e-08
6.5571e-08
5.9828e-08
6.95273e-08
6.5198e-08
6.42745e-08
6.97717e-08
6.72997e-08
6.6611e-08
6.66995e-08
6.12763e-08
5.69899e-08
5.81919e-08
3.82104e-08
2.95432e-08
2.18827e-08
1.90144e-08
1.83379e-08
1.85778e-08
1.99238e-08
2.2639e-08
3.38647e-08
3.20471e-08
2.79857e-08
1.6548e-08
1.38603e-08
1.48175e-08
1.45393e-08
3.50845e-08
4.69972e-08
5.67164e-08
1.17775e-07
1.34922e-07
1.46822e-07
1.5608e-07
1.57636e-07
1.59473e-07
1.52615e-07
1.29469e-07
6.62362e-08
4.72439e-08
3.87143e-08
3.20657e-08
2.30044e-08
2.04553e-08
1.84018e-08
1.9214e-08
1.78453e-08
1.56143e-08
1.74726e-08
1.54606e-07
5.03533e-08
5.39531e-08
1.17673e-06
5.85704e-06
5.27283e-06
5.14814e-08
1.77862e-09
9.42931e-10
7.33468e-10
6.39572e-10
5.83101e-10
5.22128e-10
5.2481e-10
5.25449e-10
4.69996e-10
5.2905e-10
4.89695e-10
4.36704e-10
3.78588e-10
3.33297e-10
3.74289e-10
4.11957e-10
4.40232e-10
3.71838e-10
3.68141e-10
4.08725e-10
6.21911e-10
1.45723e-09
6.6232e-09
6.23884e-06
1.41151e-05
1.24227e-05
9.17336e-06
7.3432e-06
6.86132e-06
6.84707e-06
6.86683e-06
7.18962e-06
7.34111e-06
7.69855e-06
7.89494e-06
8.56099e-06
8.12704e-06
7.48301e-06
1.20166e-05
1.17603e-05
1.16599e-05
1.19284e-05
1.23205e-05
1.29794e-05
1.34903e-05
1.4005e-05
1.41688e-05
1.40637e-05
1.40763e-05
1.37796e-05
1.4079e-05
1.36851e-05
1.4055e-05
1.34347e-05
1.36416e-05
1.29353e-05
1.29885e-05
1.22849e-05
1.22868e-05
1.18157e-05
1.18045e-05
1.15203e-05
1.13769e-05
1.11252e-05
1.08449e-05
1.02177e-05
9.47531e-06
8.97737e-06
4.7645e-06
8.19359e-06
7.93247e-06
7.03336e-06
6.2017e-06
6.43362e-06
6.16778e-06
5.63807e-06
4.94493e-06
4.41779e-06
3.57183e-06
3.58852e-06
3.77496e-06
4.84429e-06
5.43328e-06
5.88425e-06
6.13569e-06
6.20907e-06
6.18495e-06
6.1473e-06
6.17252e-06
6.33634e-06
6.60604e-06
6.93678e-06
7.85902e-06
8.26969e-06
8.36354e-06
6.82354e-06
4.98063e-06
3.56307e-06
1.70296e-06
2.14038e-06
2.14724e-06
1.98579e-06
1.88424e-06
1.86532e-06
1.87095e-06
1.87281e-06
1.88818e-06
1.96337e-06
2.04543e-06
2.16528e-06
2.20543e-06
2.28865e-06
2.20022e-06
2.789e-06
2.64274e-06
2.66911e-06
2.16676e-06
2.09537e-06
1.95558e-06
1.92808e-06
1.9012e-06
1.97842e-06
2.07603e-06
2.19922e-06
2.29058e-06
1.76444e-06
1.25315e-06
1.40933e-06
1.27724e-06
6.22346e-07
4.69864e-07
3.80858e-07
3.26155e-07
3.27345e-07
3.67803e-07
3.49346e-07
4.12483e-07
4.23466e-07
6.32539e-07
7.51187e-07
9.03585e-07
1.05125e-06
1.19169e-06
1.36848e-06
1.52266e-06
1.69447e-06
1.91224e-06
2.02903e-06
2.01548e-06
1.70853e-06
2.1031e-06
3.85473e-06
2.25497e-06
1.23424e-06
8.16848e-07
7.26595e-07
1.00927e-06
1.51906e-06
9.66433e-08
4.74494e-08
5.5298e-08
8.56218e-08
1.07951e-07
1.2978e-07
1.4513e-07
1.5177e-07
1.96024e-07
1.74162e-07
1.1263e-07
1.05303e-07
1.0108e-07
9.77025e-08
9.44821e-08
9.244e-08
9.58559e-08
9.41813e-08
9.947e-08
1.01073e-07
1.16047e-07
9.54969e-08
1.41363e-07
1.41715e-07
1.57029e-07
1.63301e-07
1.58886e-07
1.26614e-07
1.06102e-07
1.2456e-07
8.17827e-07
1.0981e-06
5.22651e-07
1.86915e-07
1.45657e-07
1.82934e-07
2.6579e-07
6.87248e-07
1.05844e-06
1.26063e-06
1.29093e-06
1.30928e-06
1.15916e-06
1.10181e-06
9.61572e-07
9.3464e-07
8.6192e-07
8.75242e-07
8.41679e-07
8.07698e-07
7.53926e-07
6.21346e-07
5.40632e-07
4.87688e-07
5.75325e-07
1.34347e-06
3.99874e-06
5.12835e-06
5.77788e-06
5.66192e-06
8.24185e-08
3.22734e-08
4.22155e-08
7.4778e-08
1.14695e-07
1.20031e-07
1.19034e-07
1.09622e-07
9.58339e-08
9.12116e-08
8.45301e-08
8.05484e-08
7.57318e-08
7.63917e-08
8.38681e-08
8.2578e-08
7.70354e-08
8.80459e-08
8.87146e-08
7.2607e-08
6.89752e-08
6.21035e-08
6.6861e-08
7.11815e-08
1.53636e-07
3.13551e-07
3.04493e-07
2.5799e-07
2.25137e-07
2.61147e-07
1.82008e-07
1.53876e-07
1.59302e-07
1.99399e-07
3.39192e-07
4.28058e-07
6.58439e-07
7.80949e-07
9.70927e-07
1.01394e-06
1.02124e-06
1.03136e-06
9.73249e-07
8.38952e-07
6.73699e-07
3.60665e-07
3.16969e-07
2.87171e-07
2.27002e-07
2.22312e-07
2.33847e-07
1.39031e-07
2.14435e-08
9.16824e-09
3.29483e-08
5.56292e-08
5.6701e-08
5.65521e-08
4.59665e-08
2.61142e-08
8.00363e-07
1.05868e-07
1.0284e-07
1.11022e-07
1.25905e-07
1.16509e-07
2.25702e-07
2.76271e-07
3.02284e-07
5.71186e-07
7.92721e-07
8.67816e-07
9.64475e-07
1.08704e-06
1.14974e-06
1.17049e-06
1.14351e-06
1.0542e-06
8.23759e-07
4.69029e-07
2.96061e-07
2.80207e-07
2.78697e-07
1.8089e-07
9.54688e-08
5.7157e-08
6.47493e-08
5.87294e-08
6.02192e-08
6.05896e-08
4.06045e-08
3.93825e-08
4.38933e-08
4.5848e-08
5.48352e-08
5.63805e-08
6.32936e-08
7.51566e-08
1.03797e-07
1.50407e-07
1.93388e-07
2.31059e-07
2.39108e-07
3.61462e-07
2.55791e-07
2.30085e-07
1.99099e-07
1.50254e-07
6.78368e-08
7.34533e-08
6.08156e-08
6.13727e-08
4.99801e-08
3.6599e-08
1.80958e-08
1.31074e-08
1.25283e-08
1.23563e-08
1.21318e-08
1.39772e-08
2.4413e-08
1.6798e-08
1.6212e-08
1.53465e-08
1.72579e-08
3.02942e-08
4.71203e-08
7.00643e-08
1.05764e-07
1.18558e-07
1.24266e-07
1.21723e-07
1.18562e-07
1.23969e-07
1.27126e-07
1.55318e-07
1.60493e-07
1.376e-07
8.27741e-08
4.28375e-08
3.52797e-08
3.01497e-08
3.90885e-08
4.68012e-08
4.81842e-08
4.16165e-08
1.81293e-08
1.69311e-08
1.83329e-08
6.10819e-08
4.19988e-09
3.81929e-09
5.78677e-08
6.11634e-06
1.06273e-07
3.29336e-09
1.09602e-09
9.33192e-10
9.05774e-10
9.88873e-10
1.10945e-09
1.20984e-09
1.14347e-09
1.25613e-09
1.17786e-09
1.05252e-09
8.61971e-10
6.34407e-10
5.28432e-10
4.51561e-10
4.46e-10
8.53524e-10
1.56228e-09
1.63667e-09
1.06977e-09
1.01693e-09
1.56828e-09
3.06087e-09
1.1043e-08
6.25407e-06
1.37052e-05
1.0467e-05
7.65523e-06
7.17443e-06
6.93831e-06
7.47334e-06
7.73016e-06
8.08155e-06
8.0205e-06
8.02439e-06
8.01617e-06
8.17412e-06
8.16179e-06
7.49742e-06
1.19685e-05
1.15127e-05
1.14545e-05
1.18411e-05
1.24607e-05
1.32106e-05
1.37911e-05
1.42962e-05
1.42744e-05
1.39843e-05
1.42189e-05
1.42012e-05
1.44634e-05
1.43276e-05
1.43757e-05
1.3877e-05
1.40595e-05
1.34832e-05
1.35305e-05
1.30049e-05
1.29734e-05
1.24281e-05
1.21765e-05
1.19343e-05
1.17989e-05
1.15832e-05
1.11609e-05
1.04931e-05
9.75197e-06
9.16711e-06
5.06405e-06
8.1678e-06
7.30045e-06
5.83677e-06
6.01087e-06
6.34713e-06
6.01344e-06
5.19496e-06
4.34048e-06
3.3663e-06
3.12914e-06
3.13186e-06
3.37496e-06
4.44681e-06
5.20028e-06
5.76004e-06
5.99967e-06
6.00453e-06
5.88111e-06
5.72159e-06
5.65043e-06
5.72775e-06
6.01358e-06
6.43992e-06
6.89674e-06
7.9499e-06
8.2906e-06
7.11982e-06
5.15722e-06
3.4395e-06
1.74245e-06
2.11592e-06
2.08427e-06
1.91328e-06
1.86447e-06
1.86415e-06
1.8355e-06
1.83809e-06
1.90097e-06
2.04068e-06
2.24277e-06
2.38483e-06
2.96156e-06
3.4107e-06
3.49096e-06
3.75703e-06
3.7358e-06
3.70868e-06
3.49731e-06
3.2515e-06
2.63709e-06
2.0906e-06
1.96037e-06
1.94375e-06
2.00958e-06
2.11705e-06
2.20271e-06
1.81301e-06
1.22466e-06
1.36758e-06
5.59797e-07
3.31779e-07
1.80276e-07
1.76374e-07
2.0309e-07
2.67448e-07
3.6788e-07
4.22678e-07
7.07725e-07
9.61868e-07
1.29651e-06
1.464e-06
1.62918e-06
1.73348e-06
1.78748e-06
1.81317e-06
1.84319e-06
1.89299e-06
2.03088e-06
2.185e-06
2.20827e-06
1.89634e-06
1.79718e-06
2.69989e-06
2.47958e-06
1.33779e-06
6.77522e-07
4.51778e-07
8.24735e-07
1.39057e-06
8.83796e-08
4.87553e-08
7.58355e-08
1.09776e-07
1.21836e-07
1.37417e-07
1.5468e-07
1.54197e-07
1.16694e-07
1.03655e-07
9.28656e-08
9.35727e-08
9.2492e-08
9.53149e-08
1.02734e-07
9.93064e-08
1.09502e-07
1.03978e-07
1.09858e-07
1.1027e-07
1.17179e-07
1.16563e-07
1.3071e-07
1.4024e-07
1.51402e-07
1.6346e-07
1.6746e-07
1.43643e-07
1.07206e-07
1.09183e-07
8.25057e-07
7.52279e-07
1.48654e-07
9.115e-08
1.76477e-07
2.76974e-07
8.71195e-07
1.23538e-06
1.36901e-06
1.33735e-06
1.12385e-06
8.49926e-07
5.28829e-07
2.75936e-07
2.62236e-07
2.53862e-07
2.33788e-07
2.36063e-07
2.40507e-07
4.50273e-07
5.56242e-07
6.30314e-07
6.35098e-07
5.69096e-07
5.69929e-07
8.47803e-07
1.48983e-06
3.13214e-06
5.09927e-06
5.64465e-06
3.77069e-08
3.89445e-08
8.65102e-08
1.26778e-07
1.29849e-07
1.1658e-07
1.01258e-07
8.31433e-08
7.54514e-08
6.75127e-08
5.88897e-08
5.12377e-08
4.76978e-08
4.31627e-08
4.94397e-08
5.6581e-08
7.19907e-08
7.17957e-08
8.72043e-08
8.93063e-08
7.23617e-08
6.63577e-08
5.50465e-08
6.85002e-08
1.03162e-07
2.06123e-07
2.98639e-07
2.26938e-07
1.7286e-07
2.56194e-07
1.30294e-07
1.46391e-07
2.24473e-07
4.3198e-07
7.74219e-07
1.06735e-06
1.36974e-06
1.46413e-06
1.58243e-06
1.71325e-06
1.6634e-06
1.70654e-06
1.64721e-06
1.60936e-06
1.47637e-06
1.25076e-06
9.38366e-07
3.80671e-07
3.12761e-07
2.44509e-07
2.31896e-07
2.49397e-07
7.035e-08
1.46609e-08
3.0109e-08
5.10156e-08
4.54492e-08
3.62036e-08
5.11587e-08
3.54422e-08
2.41311e-07
9.55085e-08
1.26477e-07
1.29853e-07
1.09433e-07
2.19673e-07
2.88358e-07
4.60188e-07
7.64311e-07
9.83398e-07
1.1336e-06
1.24807e-06
1.37481e-06
1.46743e-06
1.54259e-06
1.58534e-06
1.62071e-06
1.54441e-06
1.44522e-06
1.13363e-06
6.87776e-07
3.30518e-07
2.92966e-07
2.34124e-07
1.32491e-07
6.58779e-08
5.44007e-08
7.37506e-08
7.9569e-08
6.96618e-08
3.09274e-08
4.69349e-08
3.93428e-08
4.58909e-08
5.59136e-08
6.712e-08
5.05179e-08
1.62931e-07
2.30591e-07
5.65888e-07
1.03196e-06
1.34743e-06
1.59023e-06
1.63078e-06
2.04305e-06
1.53319e-06
1.16615e-06
6.16903e-07
2.27426e-07
1.30698e-07
7.27187e-08
5.82801e-08
5.87067e-08
3.92082e-08
2.35887e-08
1.17398e-08
1.12444e-08
1.1326e-08
1.13334e-08
1.01817e-08
1.29112e-08
1.61939e-08
1.46003e-08
1.69874e-08
2.65191e-08
5.0416e-08
7.15671e-08
6.51775e-08
6.58342e-08
6.27341e-08
5.45684e-08
5.14449e-08
4.78832e-08
5.25335e-08
4.9592e-08
5.2975e-08
5.11078e-08
9.34945e-08
6.38057e-08
3.97659e-08
3.25968e-08
4.15915e-08
6.15668e-08
1.82997e-07
2.2131e-07
1.48901e-07
5.01718e-08
2.05135e-08
1.7061e-08
4.64344e-08
3.24711e-09
2.83846e-09
2.40285e-08
1.48655e-07
4.17699e-09
1.2622e-09
1.0687e-09
1.08951e-09
1.16605e-09
1.45743e-09
1.50842e-09
2.08108e-09
2.14766e-09
2.01358e-09
1.70749e-09
1.60795e-09
1.30771e-09
9.37095e-10
7.60441e-10
4.60006e-10
5.00892e-10
6.84887e-10
4.23063e-09
7.01429e-09
1.02183e-08
7.85886e-09
6.52699e-09
7.6606e-09
2.58779e-08
5.99405e-06
1.36731e-05
1.05487e-05
9.39458e-06
9.03414e-06
8.71542e-06
8.59975e-06
9.20416e-06
9.77274e-06
9.86565e-06
1.02925e-05
8.84818e-06
8.65948e-06
8.58703e-06
7.80968e-06
1.1862e-05
1.11972e-05
1.05219e-05
1.09468e-05
1.17324e-05
1.32463e-05
1.4043e-05
1.4245e-05
1.40505e-05
1.4087e-05
1.43093e-05
1.40088e-05
1.41153e-05
1.36493e-05
1.41541e-05
1.36652e-05
1.40489e-05
1.29435e-05
1.3572e-05
1.31342e-05
1.31664e-05
1.27343e-05
1.2634e-05
1.22265e-05
1.1943e-05
1.17591e-05
1.16132e-05
1.11502e-05
1.01823e-05
9.26393e-06
5.33477e-06
8.08238e-06
6.55799e-06
5.17663e-06
5.87493e-06
6.38846e-06
6.04342e-06
5.22378e-06
4.27197e-06
3.17819e-06
2.86857e-06
2.82049e-06
3.03143e-06
3.52864e-06
4.96469e-06
5.65492e-06
5.97257e-06
5.90885e-06
5.65416e-06
5.44878e-06
5.25408e-06
5.22917e-06
5.46802e-06
5.94353e-06
6.50749e-06
7.65015e-06
8.09815e-06
7.76137e-06
5.35975e-06
3.35735e-06
1.71e-06
2.08296e-06
2.01864e-06
1.88644e-06
1.88693e-06
1.85045e-06
1.78353e-06
1.79215e-06
1.91147e-06
2.07301e-06
2.25135e-06
2.96249e-06
3.35555e-06
3.78984e-06
4.01375e-06
4.27524e-06
4.23113e-06
4.35072e-06
4.17032e-06
3.91541e-06
3.30519e-06
2.29877e-06
2.05181e-06
1.98392e-06
2.02027e-06
2.07014e-06
2.13622e-06
1.78092e-06
1.17294e-06
1.33903e-06
2.07162e-07
1.54145e-07
1.47738e-07
1.62253e-07
2.65225e-07
3.96333e-07
4.73301e-07
9.71238e-07
1.40488e-06
1.69795e-06
2.03205e-06
2.17066e-06
2.31187e-06
2.37479e-06
2.45997e-06
2.38611e-06
2.32674e-06
2.23511e-06
2.21965e-06
2.29338e-06
2.35007e-06
2.08946e-06
1.70323e-06
2.17291e-06
2.48266e-06
1.61654e-06
7.0894e-07
4.49087e-07
7.4823e-07
1.29512e-06
8.23815e-08
5.66867e-08
9.69855e-08
1.23135e-07
1.2742e-07
1.21721e-07
1.60132e-07
9.11088e-08
9.56726e-08
8.60519e-08
8.94867e-08
1.01684e-07
1.0948e-07
1.12349e-07
1.16703e-07
1.1594e-07
1.20443e-07
1.18346e-07
1.25708e-07
1.25005e-07
1.33992e-07
1.31057e-07
1.36254e-07
1.42602e-07
1.52486e-07
1.59758e-07
1.71951e-07
1.49275e-07
1.07787e-07
9.52658e-08
7.67742e-07
2.68167e-07
1.07738e-07
9.48764e-08
2.34509e-07
7.19601e-07
1.23328e-06
1.42424e-06
1.33454e-06
1.0517e-06
5.62542e-07
2.99585e-07
2.61327e-07
2.23988e-07
2.04824e-07
1.96366e-07
1.90333e-07
1.76274e-07
1.89587e-07
2.12911e-07
2.4175e-07
4.36589e-07
5.83245e-07
6.22509e-07
5.91427e-07
6.89405e-07
1.04959e-06
1.46965e-06
4.15383e-06
5.57683e-06
3.22372e-08
7.43505e-08
1.29455e-07
1.31047e-07
1.20614e-07
9.92368e-08
7.85761e-08
5.76911e-08
4.63146e-08
3.2991e-08
3.79835e-08
3.35862e-08
3.18628e-08
3.37741e-08
3.50932e-08
3.44316e-08
4.44283e-08
6.49751e-08
7.00689e-08
8.4067e-08
8.52123e-08
6.736e-08
6.00532e-08
6.50652e-08
8.50926e-08
1.27728e-07
2.00396e-07
1.66076e-07
1.25658e-07
1.74189e-07
1.17603e-07
1.82478e-07
4.31686e-07
8.80229e-07
1.27451e-06
1.44395e-06
1.69403e-06
1.86791e-06
1.99691e-06
2.61425e-06
2.73779e-06
2.99016e-06
2.85099e-06
2.7323e-06
2.42403e-06
1.8942e-06
1.55838e-06
1.08503e-06
3.84178e-07
2.93817e-07
2.34077e-07
2.37567e-07
1.4283e-07
2.75317e-08
2.3592e-08
3.08044e-08
3.04825e-08
3.06041e-08
4.67697e-08
4.29589e-08
1.00224e-07
1.01973e-07
1.39315e-07
1.3336e-07
1.46086e-07
2.39989e-07
3.13736e-07
7.10975e-07
9.87638e-07
1.21411e-06
1.36402e-06
1.59315e-06
1.64168e-06
2.19355e-06
2.30753e-06
2.40053e-06
2.32092e-06
2.33079e-06
1.7477e-06
1.57763e-06
1.22889e-06
6.33792e-07
3.37477e-07
3.01383e-07
1.31982e-07
9.15559e-08
5.33164e-08
7.37361e-08
9.9155e-08
6.28416e-08
3.84072e-08
4.04417e-08
3.60972e-08
4.69483e-08
6.37411e-08
8.01549e-08
1.35698e-07
2.457e-07
7.78725e-07
1.45103e-06
2.47587e-06
3.59074e-06
4.45519e-06
4.86533e-06
4.8342e-06
4.42162e-06
3.36969e-06
1.68147e-06
9.13046e-07
2.31314e-07
1.1009e-07
6.6634e-08
5.51803e-08
5.37151e-08
2.95373e-08
1.22476e-08
1.13339e-08
1.18509e-08
1.17944e-08
1.13798e-08
1.70532e-08
1.67881e-08
1.5965e-08
2.34711e-08
4.53078e-08
5.91332e-08
6.58559e-08
6.3238e-08
5.45461e-08
3.92588e-08
3.83396e-08
3.61779e-08
3.1421e-08
2.50959e-08
2.91298e-08
3.89972e-08
3.97841e-08
4.80393e-08
5.60421e-08
4.0492e-08
3.39506e-08
5.05606e-08
1.58678e-07
1.0654e-06
1.54695e-06
9.27865e-07
1.12454e-07
2.34677e-08
1.62576e-08
3.7803e-08
4.04801e-09
3.39841e-09
4.51509e-08
7.59162e-09
1.49198e-09
1.14399e-09
1.18062e-09
1.28733e-09
1.75264e-09
2.72762e-09
3.78561e-09
3.91742e-09
4.65999e-09
4.60098e-09
4.06022e-09
3.07527e-09
1.92193e-09
1.45026e-09
9.70371e-10
7.3169e-10
4.0345e-10
6.89905e-10
3.14712e-09
1.90156e-08
2.5227e-08
2.26669e-08
1.3002e-08
1.48677e-08
1.26278e-07
5.44206e-06
1.37328e-05
1.15088e-05
1.0849e-05
1.02541e-05
9.66949e-06
9.64932e-06
1.01389e-05
1.07032e-05
1.17953e-05
1.20701e-05
9.86619e-06
8.70534e-06
8.53749e-06
8.33154e-06
1.17982e-05
1.0938e-05
9.876e-06
1.01648e-05
1.1149e-05
1.26182e-05
1.42669e-05
1.41099e-05
1.40093e-05
1.39918e-05
1.3725e-05
1.30282e-05
1.28915e-05
1.24713e-05
1.31893e-05
1.31962e-05
1.33127e-05
1.26213e-05
1.27815e-05
1.26098e-05
1.31917e-05
1.29576e-05
1.2763e-05
1.25711e-05
1.24011e-05
1.23014e-05
1.19405e-05
1.11852e-05
1.0195e-05
9.51915e-06
5.40292e-06
7.64704e-06
5.35751e-06
4.51095e-06
5.75222e-06
6.56193e-06
6.38138e-06
5.62879e-06
4.62876e-06
3.15327e-06
2.64387e-06
2.49464e-06
2.65663e-06
3.16641e-06
4.63749e-06
5.55984e-06
5.91549e-06
5.91056e-06
5.76717e-06
5.37449e-06
5.03771e-06
4.92661e-06
5.17736e-06
5.65973e-06
6.34488e-06
6.90839e-06
7.89934e-06
7.67204e-06
5.40884e-06
3.30189e-06
1.72862e-06
2.03862e-06
1.982e-06
1.91634e-06
1.899e-06
1.83358e-06
1.75362e-06
1.73782e-06
1.87652e-06
2.05069e-06
2.18843e-06
2.97867e-06
3.48088e-06
3.96634e-06
4.16849e-06
4.55524e-06
4.80947e-06
4.90784e-06
4.42873e-06
4.27453e-06
3.65393e-06
2.94035e-06
2.16209e-06
2.04087e-06
2.06347e-06
2.08661e-06
2.07072e-06
1.72162e-06
1.19418e-06
1.38051e-06
1.55596e-07
1.34755e-07
1.51815e-07
2.24455e-07
4.32635e-07
5.90691e-07
1.36168e-06
1.96146e-06
2.23752e-06
2.56206e-06
2.72244e-06
2.80423e-06
2.90318e-06
2.90023e-06
2.8589e-06
2.84999e-06
2.71023e-06
2.54874e-06
2.42626e-06
2.42031e-06
2.48194e-06
2.2615e-06
1.74606e-06
1.8183e-06
2.15551e-06
1.63484e-06
7.71803e-07
5.94699e-07
7.78468e-07
1.10712e-06
7.69996e-08
7.91612e-08
1.15547e-07
9.54045e-08
1.03041e-07
1.35725e-07
8.6267e-08
9.50979e-08
8.28087e-08
8.5757e-08
1.00744e-07
1.20584e-07
1.24655e-07
1.24148e-07
1.21585e-07
1.25341e-07
1.37612e-07
1.33865e-07
1.36095e-07
1.40947e-07
1.46988e-07
1.42877e-07
1.46037e-07
1.44412e-07
1.52814e-07
1.61956e-07
1.66144e-07
1.44818e-07
1.0591e-07
9.31976e-08
5.43784e-07
1.56846e-07
1.03033e-07
1.37184e-07
2.6797e-07
1.0407e-06
1.46927e-06
1.47867e-06
1.20796e-06
7.4028e-07
3.15221e-07
2.80754e-07
2.38278e-07
1.88731e-07
1.87983e-07
1.45863e-07
1.48876e-07
1.50661e-07
1.39357e-07
1.71177e-07
1.90602e-07
2.26247e-07
3.73082e-07
5.81141e-07
6.41105e-07
6.79319e-07
7.83882e-07
1.12179e-06
2.93823e-06
5.47435e-06
3.62987e-08
1.18876e-07
1.35461e-07
1.31362e-07
1.09584e-07
8.34404e-08
5.98779e-08
5.45402e-08
4.25977e-08
3.41649e-08
2.64102e-08
2.29304e-08
2.27376e-08
2.29418e-08
2.36043e-08
2.82823e-08
3.81115e-08
4.77591e-08
5.49676e-08
7.00069e-08
8.30032e-08
8.05991e-08
6.23743e-08
6.57236e-08
7.13127e-08
9.62197e-08
1.29106e-07
1.27545e-07
1.25587e-07
1.53835e-07
1.40051e-07
3.37557e-07
5.23598e-07
1.10962e-06
1.44193e-06
1.63914e-06
1.89917e-06
2.20287e-06
3.02753e-06
3.672e-06
3.94425e-06
4.12417e-06
3.99971e-06
3.87368e-06
3.52026e-06
3.00673e-06
2.02747e-06
1.58305e-06
9.35354e-07
3.62777e-07
2.5166e-07
2.38244e-07
2.14118e-07
5.28811e-08
2.33754e-08
3.028e-08
2.59364e-08
3.22556e-08
5.1753e-08
4.89499e-08
8.45059e-08
1.3838e-07
1.4689e-07
1.24495e-07
1.75182e-07
2.66511e-07
3.99298e-07
8.51885e-07
1.143e-06
1.4032e-06
1.69119e-06
2.33096e-06
2.48232e-06
2.60447e-06
2.62869e-06
2.58218e-06
2.64383e-06
2.57793e-06
2.49742e-06
2.19074e-06
1.55121e-06
1.0342e-06
3.47489e-07
3.15492e-07
2.41686e-07
1.12855e-07
7.29559e-08
8.38454e-08
1.14459e-07
6.95879e-08
4.64941e-08
4.27326e-08
3.73436e-08
5.38924e-08
7.34275e-08
9.33259e-08
2.11453e-07
5.51837e-07
1.34415e-06
2.57751e-06
4.30991e-06
5.30916e-06
5.80565e-06
5.95684e-06
5.9642e-06
5.96e-06
5.2798e-06
3.78454e-06
1.66879e-06
7.11278e-07
1.76384e-07
7.49615e-08
6.15632e-08
5.23438e-08
3.35727e-08
1.49916e-08
1.18909e-08
1.34183e-08
1.34757e-08
9.46284e-09
1.63789e-08
1.63967e-08
1.78138e-08
3.50514e-08
5.61185e-08
6.529e-08
6.03028e-08
5.08268e-08
3.80809e-08
4.57084e-08
4.66471e-08
4.75344e-08
4.41768e-08
4.11215e-08
3.76397e-08
3.29698e-08
2.13023e-08
3.80897e-08
2.85765e-08
4.29022e-08
3.19379e-08
5.2943e-08
1.62609e-07
1.05648e-06
2.15478e-06
1.34395e-06
1.60937e-07
2.59462e-08
1.60501e-08
3.26616e-08
6.50081e-09
3.63582e-09
2.00683e-08
3.94491e-09
1.25883e-09
1.22501e-09
1.24986e-09
1.70801e-09
2.98708e-09
4.53696e-09
7.54584e-09
1.12406e-08
1.27586e-08
1.17394e-08
1.04582e-08
6.53268e-09
3.60728e-09
1.98108e-09
1.3178e-09
9.86895e-10
5.85174e-10
4.92952e-10
1.17413e-09
1.04103e-08
2.70309e-08
2.36203e-08
1.80777e-08
1.9956e-08
9.36672e-07
4.64785e-06
1.42539e-05
1.31361e-05
1.24221e-05
1.10666e-05
1.0431e-05
1.09357e-05
1.18527e-05
1.27158e-05
1.31988e-05
1.36156e-05
1.14512e-05
9.23311e-06
8.94071e-06
8.15757e-06
1.16456e-05
1.0021e-05
8.27518e-06
8.52019e-06
9.90703e-06
1.24841e-05
1.40979e-05
1.39734e-05
1.3949e-05
1.34482e-05
1.29976e-05
1.20547e-05
1.16245e-05
1.12335e-05
1.2071e-05
1.2453e-05
1.34096e-05
1.25592e-05
1.26422e-05
1.23347e-05
1.2656e-05
1.28945e-05
1.27421e-05
1.25845e-05
1.24357e-05
1.22707e-05
1.21031e-05
1.16676e-05
1.0699e-05
9.62134e-06
5.44991e-06
7.3303e-06
4.49241e-06
3.3114e-06
5.39778e-06
6.69538e-06
6.81135e-06
6.24908e-06
5.12695e-06
3.17363e-06
2.39322e-06
2.11414e-06
2.2257e-06
2.77892e-06
4.31935e-06
5.60371e-06
5.98358e-06
5.89574e-06
5.74403e-06
5.61144e-06
5.29621e-06
5.06584e-06
5.20774e-06
5.70448e-06
6.20352e-06
7.36409e-06
7.72242e-06
7.56235e-06
5.30847e-06
3.23785e-06
1.70751e-06
2.0258e-06
1.96888e-06
1.96763e-06
1.9434e-06
1.81935e-06
1.76076e-06
1.73364e-06
1.77634e-06
1.96684e-06
2.12614e-06
2.8094e-06
3.50088e-06
3.95455e-06
4.23659e-06
4.50278e-06
4.47612e-06
4.55412e-06
4.39465e-06
4.26699e-06
3.6439e-06
3.03936e-06
2.20296e-06
2.13512e-06
2.11005e-06
2.10306e-06
1.98436e-06
1.58023e-06
1.1697e-06
1.2853e-06
1.40899e-07
1.35579e-07
1.70558e-07
4.31875e-07
1.02818e-06
1.77295e-06
2.42826e-06
2.84059e-06
2.95639e-06
3.22503e-06
3.15657e-06
3.23804e-06
3.14806e-06
3.13418e-06
3.14963e-06
3.0602e-06
2.95852e-06
2.7642e-06
2.58863e-06
2.52867e-06
2.5627e-06
2.37e-06
1.81668e-06
1.57993e-06
1.72445e-06
1.39233e-06
8.31723e-07
7.15221e-07
7.04486e-07
7.84583e-07
7.76213e-08
8.82631e-08
1.23705e-07
1.05356e-07
1.30533e-07
1.13171e-07
9.80959e-08
8.08798e-08
7.6916e-08
9.17276e-08
1.18306e-07
1.27359e-07
1.29724e-07
1.237e-07
1.29968e-07
1.41683e-07
1.41013e-07
1.37971e-07
1.5873e-07
1.58046e-07
1.60646e-07
1.6002e-07
1.54623e-07
1.45014e-07
1.5716e-07
1.63088e-07
1.72323e-07
1.38825e-07
9.68393e-08
9.65795e-08
2.85652e-07
1.04339e-07
9.49978e-08
1.36335e-07
4.6854e-07
1.31125e-06
2.01748e-06
1.52216e-06
1.11375e-06
6.35489e-07
3.16964e-07
2.82694e-07
2.04284e-07
1.66408e-07
1.14354e-07
1.02356e-07
1.0798e-07
9.57241e-08
1.51299e-07
1.42225e-07
1.53123e-07
2.00211e-07
2.38876e-07
5.70924e-07
6.64657e-07
6.9125e-07
7.30164e-07
9.30777e-07
2.46097e-06
5.42072e-06
4.67797e-08
1.28607e-07
1.34427e-07
1.27438e-07
1.01246e-07
7.20307e-08
6.05009e-08
4.48028e-08
3.77648e-08
2.61492e-08
2.10981e-08
1.90576e-08
1.56983e-08