/*--------------------------------*- C++ -*----------------------------------*\
| =========                 |                                                 |
| \\      /  F ield         | OpenFOAM: The Open Source CFD Toolbox           |
|  \\    /   O peration     | Version:  2.1.1                                 |
|   \\  /    A nd           | Web:      www.OpenFOAM.org                      |
|    \\/     M anipulation  |                                                 |
\*---------------------------------------------------------------------------*/
FoamFile
{
    version     2.0;
    format      ascii;
    class       volScalarField;
    location    "0.005800000";
    object      O2;
}
// * * * * * * * * * * * * * * * * * * * * * * * * * * * * * * * * * * * * * //

dimensions      [0 0 0 0 0 0 0];

internalField   nonuniform List<scalar> 
12384
(
0.00808646
0.00974673
0.0115217
0.012075
0.0117185
0.011177
0.0106838
0.0103704
0.0102904
0.010299
0.0102408
0.00930837
0.00495969
0.0053387
0.0433958
0.0351324
0.0294862
0.0277761
0.027455
0.0274109
0.0273924
0.0274849
0.0277323
0.0283331
0.0291686
0.0291108
0.030205
0.0297045
0.0306518
0.0299335
0.0307179
0.0298704
0.0304285
0.0295853
0.0299821
0.0293597
0.0294522
0.0290684
0.0292633
0.0295356
0.0322754
0.037854
0.0426565
0.0447893
0.00477878
0.0179591
0.0216146
0.0196777
0.0173806
0.0155391
0.0141854
0.0130312
0.0122583
0.0117595
0.0111895
0.0108891
0.0103879
0.01032
0.0103267
0.0104419
0.0108917
0.0111717
0.0114397
0.0115715
0.0115076
0.0118537
0.0120489
0.0122149
0.0127054
0.0129224
0.00955034
0.0112414
0.0110774
0.007485
0.00140733
0.00216004
0.00255921
0.00253153
0.00255202
0.00247088
0.00240958
0.00235644
0.00230532
0.00224564
0.00224932
0.00220041
0.00220543
0.00210168
0.00206169
0.00204628
0.00202463
0.00202041
0.0021172
0.00216624
0.00231332
0.00242132
0.00255078
0.00261855
0.00294234
0.00449786
0.00405642
0.00299901
0.00270905
0.00268459
0.000145056
0.000186941
0.000256607
0.000336031
0.000393117
0.000426086
0.000409083
0.000142648
0.000239156
0.000411578
0.00041102
0.000598364
0.000609169
0.000730637
0.000759648
0.000926067
0.000959483
0.00124563
0.00113563
0.00135842
0.00121479
0.00144686
0.00562959
0.00629186
0.00373143
0.0032352
0.00280206
0.00263566
0.00267916
0.00281617
7.75212e-05
2.58569e-05
1.20889e-05
1.00175e-05
1.49533e-05
2.73201e-05
3.70536e-05
4.47932e-05
5.57628e-05
6.89453e-05
7.47787e-05
7.64592e-05
7.5919e-05
7.41869e-05
7.16695e-05
7.32577e-05
7.39124e-05
7.03148e-05
6.94405e-05
7.11312e-05
7.1292e-05
7.45776e-05
7.79312e-05
7.92674e-05
8.22108e-05
8.36579e-05
6.36781e-05
6.68845e-05
0.000158215
0.000271261
0.000560007
0.000727241
0.00166767
0.00195889
0.0013339
0.000319241
0.000241437
0.000219202
0.000196816
0.000178476
0.000184101
0.000181742
0.000195064
0.000192946
0.000204572
0.000181921
0.000188917
0.000188247
0.000183144
0.000188512
0.000197904
0.000209044
0.000222129
0.00010633
0.00505175
0.0196523
0.0180024
0.0148188
0.0131445
0.0118739
0.00216921
0.00101188
0.000170694
6.73808e-05
4.12774e-05
3.06811e-05
3.01823e-05
2.86332e-05
2.61825e-05
2.44103e-05
3.33762e-05
3.12056e-05
3.00825e-05
2.74701e-05
2.77948e-05
2.48577e-05
2.62106e-05
2.66783e-05
2.94119e-05
2.97201e-05
2.92914e-05
2.72393e-05
2.7935e-05
1.56304e-05
0.000184607
0.000178723
0.000216577
0.000211365
0.000213094
0.000215262
0.000357925
0.000367596
0.000281683
0.000154438
0.000132242
0.000111745
7.62591e-05
0.000116504
4.76478e-05
0.000103507
5.55899e-05
9.98033e-05
0.000103468
8.7161e-05
9.35192e-05
0.000113534
0.00012426
0.000109403
0.000122449
0.000145736
6.58843e-05
4.33638e-06
8.50849e-07
1.00413e-06
1.91535e-06
2.65542e-06
3.20142e-06
2.54176e-06
1.45606e-06
6.21487e-07
0.002858
0.000381305
0.000137151
7.27709e-05
6.65091e-05
6.28393e-05
5.91968e-05
6.40618e-05
6.29562e-05
6.31953e-05
5.40975e-05
2.51323e-05
9.81102e-06
4.81742e-05
5.0641e-05
4.68276e-05
5.63568e-05
5.60666e-05
7.47358e-05
3.82297e-05
8.28972e-05
0.000124646
-3.26033e-05
3.47368e-05
2.97316e-05
2.85412e-05
1.46479e-05
1.32112e-05
1.09828e-05
8.54985e-06
2.96752e-05
9.27306e-06
1.17962e-05
1.72005e-05
2.11544e-05
2.27649e-05
2.32593e-05
2.12358e-05
2.08475e-05
2.20744e-05
2.63738e-05
2.24835e-05
1.99373e-05
2.62926e-05
2.4977e-05
2.54337e-05
2.86297e-05
2.29364e-05
3.01461e-05
2.60902e-05
2.72089e-05
1.58458e-05
1.55979e-05
1.27521e-05
1.14795e-05
1.33657e-05
1.30766e-05
1.33668e-05
1.40946e-05
1.40291e-05
0.000121337
9.5031e-05
2.89754e-05
1.84833e-05
8.78235e-06
5.08239e-06
5.86069e-06
7.64923e-06
9.25109e-06
2.26372e-07
4.17608e-06
9.69903e-06
1.83288e-05
2.16004e-05
2.17015e-05
2.30239e-05
2.17594e-05
2.05141e-05
1.21864e-05
9.01156e-06
4.81524e-06
3.77406e-07
9.65037e-06
8.68637e-06
8.63437e-06
7.32215e-06
5.47706e-06
6.62712e-06
7.80336e-06
0.00166972
0.0693066
0.0665594
0.0721114
0.0820863
0.0876753
0.0695308
3.00899e-06
3.51903e-07
2.1642e-07
1.14227e-07
1.4805e-07
9.8628e-08
1.63834e-07
1.49993e-07
1.46465e-07
1.1753e-07
1.14271e-07
1.09739e-07
1.03022e-07
9.69067e-08
9.33322e-08
9.26783e-08
1.02572e-07
1.11189e-07
1.51403e-07
1.62869e-07
1.51429e-07
2.6266e-07
2.06797e-06
0.0335706
0.0237926
0.0222873
0.0168405
0.0113615
0.00823774
0.00722369
0.0067809
0.00668273
0.00702437
0.00763117
0.00840035
0.00901508
0.00640213
0.0051063
0.0422039
0.0320953
0.0261361
0.024977
0.0251987
0.0259229
0.0266865
0.0284018
0.029902
0.0321897
0.0333266
0.0343717
0.0338012
0.0346584
0.0339984
0.0345214
0.0337044
0.0337039
0.0333355
0.0332038
0.0326746
0.0319555
0.0310997
0.0302348
0.0297996
0.0295996
0.0307875
0.0344062
0.0396221
0.0455394
0.00618095
0.0194319
0.020514
0.0160827
0.0128676
0.0112502
0.0101109
0.00932688
0.00844656
0.00757541
0.00691107
0.00661006
0.00671947
0.0071745
0.00780384
0.00841317
0.00890496
0.00926096
0.00948044
0.00961675
0.00973365
0.0100085
0.0104617
0.0112657
0.0119007
0.012767
0.0114672
0.00912167
0.00598689
0.00418227
0.00147032
0.00226832
0.00262264
0.00248541
0.00232287
0.00215239
0.00210744
0.00208796
0.00208644
0.00210771
0.00219393
0.0022525
0.00232922
0.00229606
0.00235233
0.00236532
0.00243384
0.00237127
0.00236335
0.00229174
0.00231426
0.00234802
0.00248759
0.00260736
0.00267366
0.00319184
0.00322334
0.00207192
0.00155521
0.00179627
0.00029988
0.000442299
0.000250583
0.000165278
0.000461808
0.000435951
0.000404904
0.000391245
0.000424317
0.000161917
0.000320874
0.000480009
0.000502789
0.000737235
0.00106916
0.00122837
0.00148385
0.00159652
0.00165265
0.00176415
0.00159328
0.00131453
0.00335125
0.00575227
0.00277273
0.0015628
0.000971034
0.000990113
0.0013771
0.00186707
6.54743e-05
1.91142e-05
1.29627e-05
2.43892e-05
4.16245e-05
6.33572e-05
7.39885e-05
9.09197e-05
1.00975e-05
4.13125e-05
8.4504e-05
5.9578e-05
7.67175e-05
4.39241e-05
7.18082e-05
5.16531e-05
4.51454e-05
4.08009e-05
4.54281e-05
5.59929e-05
1.93066e-05
5.1597e-05
1.833e-05
9.56502e-05
9.30386e-05
9.55734e-05
8.13808e-05
5.70875e-05
7.82133e-05
0.000100659
0.000432186
0.000994695
0.00170992
0.000344231
0.000152569
9.66381e-05
9.33865e-05
0.000154256
0.00020046
-0.000191421
0.00034827
0.000713145
0.000917014
0.00101652
0.00101471
0.00105997
0.00100844
0.000899703
0.000776582
0.000466962
0.000293111
0.000154078
9.3782e-05
2.21132e-05
0.00120289
0.00933211
0.0199206
0.0227722
0.0203304
0.0161824
0.000130882
3.20995e-05
1.90853e-05
2.00258e-05
3.17866e-06
2.744e-05
4.14869e-05
4.54768e-05
5.52975e-05
5.09603e-05
4.5438e-05
5.08509e-05
5.01036e-05
4.16311e-05
4.71103e-05
3.64816e-05
4.16544e-05
4.05928e-05
3.80809e-05
2.43251e-05
2.17878e-05
1.65444e-05
1.77542e-05
6.43442e-05
0.000140875
0.000212447
0.000212445
0.00019405
0.000186549
0.000172804
0.000345262
0.000122863
0.000107547
0.000107688
0.000105792
8.61619e-05
0.000139753
0.000189266
0.000216964
0.000233763
0.000219858
0.000224958
0.000201876
0.000198324
0.000168865
0.000161418
0.000151703
0.000120398
0.00011838
0.000145661
0.000161938
2.6607e-05
2.41427e-06
3.17761e-06
9.18482e-06
1.7356e-05
1.02089e-05
1.61236e-05
8.50732e-06
4.6528e-06
0.0020704
0.000138158
5.82306e-05
5.12452e-05
5.57852e-05
6.91187e-05
7.15597e-05
7.1045e-05
0.000133903
0.000142171
0.000167384
0.000194491
0.00018723
0.000200337
0.000210678
0.000220763
0.000222797
0.00021138
0.000192434
0.000155836
0.000123769
0.000132622
9.62768e-05
6.99848e-05
3.2506e-05
1.46442e-05
1.76844e-05
1.86216e-05
1.56497e-05
9.91312e-06
2.46295e-05
9.71096e-06
9.6922e-06
1.6898e-05
2.73187e-05
2.81515e-05
2.88413e-05
3.02986e-05
3.77858e-05
3.90563e-05
4.26272e-05
7.81826e-07
1.14897e-05
7.03665e-06
6.71718e-06
4.44303e-05
4.19696e-05
3.86375e-05
3.77696e-05
3.04163e-05
2.34913e-05
2.35965e-05
6.87963e-06
1.39922e-05
9.52712e-06
7.63249e-06
7.20863e-06
7.39791e-06
8.40452e-06
1.0329e-05
1.92079e-05
1.7676e-05
1.42723e-05
8.87414e-06
6.52679e-06
7.16673e-06
-2.08561e-08
1.8644e-05
2.88503e-05
4.9302e-06
7.81483e-05
9.71154e-05
0.000110326
0.000120567
0.000122149
0.00012418
0.00011653
9.07868e-05
1.50699e-05
2.90922e-05
2.17224e-05
1.61212e-05
7.22413e-06
4.94937e-06
2.85551e-06
9.61593e-06
8.46541e-06
6.15008e-06
6.63573e-06
9.70271e-05
3.11571e-05
3.39396e-05
0.00155026
0.0482883
0.0557659
3.20308e-05
5.66394e-07
2.96312e-07
2.01585e-07
1.59106e-07
1.34418e-07
1.09414e-07
1.10995e-07
1.10544e-07
8.51737e-08
1.82599e-07
1.65195e-07
1.41963e-07
1.16739e-07
9.74238e-08
1.23136e-07
1.39615e-07
1.52138e-07
1.1473e-07
1.13091e-07
1.30957e-07
1.78196e-07
4.70231e-07
2.70613e-06
0.0321992
0.024255
0.0170783
0.00885349
0.00646076
0.00581144
0.00593514
0.00599918
0.0062032
0.00613595
0.0062087
0.00673587
0.00802189
0.00726416
0.00536798
0.0403467
0.028441
0.0230443
0.0228674
0.0238429
0.0248186
0.0264786
0.0298663
0.032609
0.0353487
0.0351581
0.035757
0.0341092
0.0337881
0.0323823
0.0314513
0.0306712
0.0308047
0.0309612
0.0317857
0.0319754
0.0325432
0.0320288
0.0314788
0.0309242
0.0302176
0.0301893
0.0320078
0.0366609
0.04394
0.0078429
0.01982
0.0175567
0.012216
0.00989815
0.00986789
0.00923796
0.00783652
0.00634831
0.00502885
0.00435417
0.00429302
0.00456559
0.00581178
0.00713315
0.00816861
0.00875526
0.00894626
0.00892829
0.00883469
0.00890793
0.00920837
0.00962974
0.0101804
0.0110622
0.0121072
0.0123981
0.00969272
0.00521519
0.0036869
0.0015055
0.00236179
0.00254645
0.00229168
0.0020854
0.00203261
0.00203804
0.00204592
0.00209987
0.00225851
0.00246515
0.00277383
0.00298709
0.00318667
0.00320343
0.00384437
0.00378683
0.00381229
0.0031597
0.00297527
0.00269747
0.00253327
0.00244796
0.00253236
0.00259286
0.00275502
0.00301332
0.00212426
0.00110919
0.00142323
0.000851172
0.000510839
0.000346769
0.00026482
0.000209
0.000228407
0.000271615
0.000263184
0.00033012
0.000359034
0.00011957
0.000356716
0.000602205
0.000885564
0.00102811
0.00131974
0.00147104
0.0016814
0.00199547
0.00210825
0.00202993
0.00148434
0.0022897
0.0050759
0.00273595
0.000976132
0.000305229
0.000166091
0.000688781
0.00158913
5.58317e-05
1.4741e-05
2.46849e-05
4.98833e-05
6.79905e-05
8.27904e-05
9.49182e-05
2.19627e-05
8.50593e-05
7.70872e-05
1.31729e-05
1.71124e-05
6.60448e-05
6.35845e-05
6.13737e-05
6.00885e-05
6.26922e-05
6.17415e-05
6.57514e-05
6.7128e-05
3.25329e-05
2.12042e-07
4.3411e-05
2.76048e-05
0.000101119
0.000101592
9.64954e-05
7.03383e-05
5.77029e-05
7.31718e-05
0.000613937
0.00124636
2.72825e-05
9.8872e-05
5.44019e-05
0.000100058
0.000215731
0.000481653
0.00130646
0.00170567
0.00182766
0.00183165
0.00158772
0.00143866
0.00120683
0.00114632
0.0010219
0.00107711
0.00100699
0.000942332
0.000832982
0.000545779
0.000367059
0.000238588
0.000384423
0.00192255
0.00899222
0.0156474
0.0216495
0.0193643
4.60479e-05
1.54625e-05
2.1222e-05
3.21393e-05
6.54119e-05
7.03954e-05
7.27435e-05
6.54302e-05
5.49401e-05
5.39864e-05
4.88084e-05
4.57229e-05
4.21299e-05
4.25818e-05
4.78755e-05
4.69522e-05
3.98335e-05
4.73053e-05
4.7226e-05
3.10125e-05
2.72977e-05
2.13963e-05
2.82355e-05
2.91775e-05
9.66111e-05
0.000192401
0.000200315
0.000148211
0.000110612
0.000136111
0.00010954
8.54688e-05
9.0774e-05
3.91704e-05
0.000219233
0.000335034
0.000122436
0.000369948
0.000937113
0.000950985
0.00115595
0.0011199
0.00107647
0.000769772
0.000452615
0.000318654
0.000261329
0.000222377
0.000145665
0.00013604
0.000149199
5.63984e-05
1.07976e-05
4.15815e-06
1.79275e-05
2.54361e-05
2.64559e-05
2.82951e-05
1.95676e-05
1.33393e-05
0.000160651
6.4111e-05
5.29584e-05
5.55349e-05
7.27022e-05
-8.51967e-06
0.000142552
0.000214242
0.000257917
0.000255797
0.000765424
0.000919703
0.00119189
0.0014045
0.00155463
0.00149913
0.00145046
0.00114803
0.000691408
-8.2671e-05
0.000221434
0.000182674
0.000160722
2.90749e-05
4.62409e-05
1.396e-05
1.8972e-05
9.86031e-06
1.12636e-05
1.55925e-05
1.89403e-05
1.52615e-05
1.67279e-05
1.85246e-05
2.80479e-05
2.98575e-05
3.60285e-05
4.62438e-05
3.70911e-05
9.23407e-05
0.000149932
0.00019178
0.0002044
-4.51191e-05
0.000219483
0.000191347
0.000145369
8.83824e-05
-1.47134e-05
4.38566e-05
3.06041e-05
2.99207e-05
1.72108e-05
1.88308e-05
6.23699e-06
3.49872e-06
5.88174e-06
5.78921e-06
2.92832e-06
4.3256e-06
1.11703e-05
3.54019e-06
8.20274e-06
7.50874e-06
8.85099e-06
1.44587e-05
2.87818e-05
1.85852e-05
5.84412e-05
7.27723e-05
7.82064e-05
7.49922e-05
7.15653e-05
7.78363e-05
8.27623e-05
0.000119567
0.000125384
9.99171e-05
3.87504e-05
2.53592e-05
1.86792e-05
1.31802e-05
2.04356e-05
2.68511e-05
2.78584e-05
2.17654e-05
-8.78002e-08
7.167e-06
7.87935e-06
3.52403e-05
1.16789e-06
1.55738e-06
3.53034e-05
0.0251118
6.33912e-05
1.13062e-06
3.67962e-07
2.91662e-07
2.79223e-07
3.18133e-07
3.75116e-07
4.22871e-07
3.70597e-07
4.45187e-07
4.09505e-07
3.51342e-07
2.63447e-07
1.58507e-07
1.81895e-07
1.49256e-07
9.64822e-08
3.04779e-07
5.26282e-07
5.62008e-07
2.74392e-07
2.47546e-07
5.29374e-07
1.0601e-06
4.01338e-06
0.0347896
0.0219069
0.0122218
0.00728877
0.0070287
0.00725897
0.00806202
0.00868201
0.008844
0.00806029
0.00718018
0.00657831
0.00727271
0.00742346
0.00563156
0.0384248
0.0250204
0.0200815
0.0200872
0.0208778
0.0224895
0.0259413
0.0316135
0.0349843
0.0363589
0.0350167
0.0328601
0.030847
0.0279229
0.026415
0.0247429
0.0242341
0.0240399
0.0248266
0.0261116
0.0281935
0.0300366
0.0312883
0.0316784
0.0313525
0.0306774
0.0301406
0.0309558
0.0348517
0.0425586
0.00872167
0.0194822
0.0146277
0.00927411
0.00920526
0.00959902
0.00877401
0.00692142
0.00499398
0.00406065
0.00367387
0.00366282
0.00402888
0.00499687
0.0067576
0.00800804
0.00855617
0.00856987
0.00830681
0.00798961
0.00780642
0.00791603
0.00843898
0.00921585
0.0100657
0.0114344
0.0124638
0.0104776
0.00585014
0.00361504
0.00156651
0.00235053
0.00244844
0.00214273
0.00202625
0.00202586
0.00198638
0.00200124
0.00214127
0.00242962
0.00287676
0.00322137
0.00406257
0.00525274
0.00616579
0.00681758
0.00705694
0.00686236
0.00631002
0.00508398
0.00333706
0.00285879
0.0025754
0.00250965
0.00253349
0.00265241
0.00281768
0.00213884
0.00102093
0.0013149
0.000440077
0.000193155
2.94064e-05
4.19529e-05
7.42824e-05
0.000149955
0.000273927
0.000342317
0.000144143
0.000690421
0.00125286
0.00158949
0.00187704
0.00202734
0.00211075
0.00205724
0.0020673
0.00206623
0.00224836
0.00246796
0.00242263
0.00185564
0.00176147
0.00344945
0.003159
0.00118536
8.5009e-05
0.000383963
0.00040206
0.0013903
4.88015e-05
1.60995e-05
4.16861e-05
6.9587e-05
7.68978e-05
8.89303e-05
3.9771e-05
4.27155e-05
1.69358e-05
6.73133e-05
5.86942e-05
5.91222e-05
5.64065e-05
5.89825e-05
6.4713e-05
6.26398e-05
7.02021e-05
6.65035e-05
6.83928e-05
6.88868e-05
7.39784e-05
7.38508e-05
8.42707e-05
9.15994e-05
9.72633e-05
0.000102602
0.000104199
8.40286e-05
5.84953e-05
6.06655e-05
0.00065619
0.000521541
4.62748e-05
-1.83355e-05
9.16036e-05
0.000227729
0.000845666
0.00164601
0.00192635
0.00186106
0.00144465
0.000849424
0.000191656
0.000235521
0.000219361
0.000209177
0.000190661
0.000194393
0.000208677
0.000180777
0.000416186
0.000570249
0.000573417
0.000428969
0.000403903
0.000936058
0.00221467
0.00640021
0.0156576
0.0198305
1.93673e-05
1.90456e-05
4.18444e-05
7.55437e-05
8.13744e-05
7.09419e-05
5.85381e-05
4.41779e-05
4.08624e-05
3.43845e-05
2.76102e-05
2.17308e-05
1.91258e-05
1.5995e-05
2.0893e-05
2.31847e-05
3.82147e-05
3.53625e-05
4.65221e-05
4.76644e-05
3.0779e-05
2.53327e-05
1.60547e-05
2.99794e-05
5.56945e-05
7.47944e-05
0.000191738
0.000114033
5.34908e-05
0.000142384
6.52406e-05
7.9569e-05
6.63647e-05
0.000316069
0.000184677
0.000800734
0.00145061
0.00168824
0.00204098
0.00233156
0.00232785
0.00241666
0.00230835
0.00227873
0.00196718
0.00151815
0.000902164
0.000329765
0.000251066
0.000162659
0.00014732
0.000176299
4.08835e-05
6.04103e-06
1.59841e-05
2.1596e-05
1.90476e-05
1.1667e-05
2.42966e-05
1.10857e-05
0.000140397
5.17738e-05
6.68212e-05
7.1288e-05
-2.03881e-05
0.000134576
0.000226034
-6.411e-05
0.000614963
0.00104348
0.00142993
0.00169693
0.00192652
0.0021713
0.00224925
0.00239193
0.0023405
0.00221848
0.00189915
0.0012941
0.000343332
0.000256772
0.000183488
9.62072e-05
7.6782e-05
2.19254e-05
1.14159e-05
2.65012e-05
2.73877e-05
2.31571e-05
5.50304e-06
1.82836e-05
9.76089e-06
1.81548e-05
2.90894e-05
3.87125e-05
-3.38624e-05
0.000101092
0.000180501
0.000245354
0.00122615
0.00186475
0.00233567
0.00241542
0.00261571
0.00218899
0.00145087
0.000330369
0.00017565
6.45929e-05
4.36318e-05
2.86571e-05
2.77619e-05
8.50173e-06
1.00193e-05
5.18043e-06
4.86364e-06
4.91938e-06
4.95371e-06
1.66763e-06
5.82346e-07
8.57774e-06
7.0383e-06
8.69404e-06
9.99019e-06
3.12955e-05
1.81214e-05
3.93436e-06
1.61721e-06
3.75754e-05
2.87549e-05
2.5962e-05
2.31476e-05
2.88446e-05
2.71041e-05
3.19747e-05
-2.74701e-06
5.07048e-05
1.76305e-05
2.27457e-05
1.50949e-05
2.2596e-05
-6.75617e-08
0.000134547
0.000177669
9.50462e-05
2.69379e-05
9.72398e-06
7.09e-06
2.27308e-05
1.24185e-06
1.01512e-06
-4.31704e-05
0.000110841
1.72708e-06
4.66857e-07
3.53118e-07
3.62706e-07
3.73718e-07
5.09701e-07
3.04382e-07
5.89903e-07
6.35895e-07
5.74283e-07
4.21337e-07
5.85389e-07
4.45852e-07
2.75061e-07
2.16542e-07
7.97818e-08
1.21802e-07
8.84669e-08
1.77796e-06
-2.25072e-07
4.63993e-06
3.17446e-06
2.36165e-06
3.10062e-06
9.07323e-06
0.0461575
0.0201294
0.0121724
0.0103723
0.0111743
0.011569
0.0116645
0.0120505
0.012566
0.0122919
0.0103447
0.00765749
0.00721484
0.00759291
0.005872
0.0366157
0.0220721
0.0167115
0.0163276
0.0170353
0.0203644
0.0264862
0.0338314
0.0363141
0.0353756
0.0328717
0.0290367
0.0268951
0.0242527
0.023458
0.0212964
0.020926
0.0195167
0.020129
0.0215457
0.0238044
0.0262928
0.0287008
0.0302771
0.0307283
0.0305252
0.0301142
0.0305069
0.0338226
0.0417705
0.00927811
0.0184896
0.0114596
0.00749516
0.00877108
0.00962401
0.00882091
0.00691569
0.00487554
0.00386168
0.00337107
0.00329678
0.00362552
0.00434561
0.00643257
0.00798201
0.00863734
0.00857932
0.00820419
0.00768694
0.00714702
0.00694274
0.00732738
0.00828101
0.00939691
0.0108388
0.0122696
0.01132
0.00655155
0.00356969
0.00152474
0.00231313
0.00233333
0.00208047
0.00205659
0.00200613
0.00191148
0.00193934
0.00216491
0.00255776
0.00297355
0.00366549
0.00526225
0.00664172
0.00767407
0.00832954
0.00861362
0.00875972
0.00823212
0.00706703
0.00529856
0.00324792
0.00276934
0.00259285
0.00261926
0.00260513
0.0026405
0.0020523
0.000881708
0.00127576
5.57199e-05
9.35454e-05
8.84924e-05
0.0001045
0.00014011
0.000286681
0.000381524
0.000533257
0.00130152
0.00188396
0.0023546
0.00265952
0.00286717
0.002995
0.00307895
0.00296334
0.00283049
0.00265898
0.00260792
0.00270863
0.00272809
0.00224015
0.00161911
0.00254985
0.00319386
0.00173219
0.000159521
0.000381355
0.000289419
0.00121293
4.3715e-05
2.28835e-05
5.90365e-05
7.80157e-05
8.14477e-05
5.32376e-06
5.97022e-05
-1.04921e-05
6.07905e-05
5.26544e-05
5.28757e-05
6.27831e-05
6.67544e-05
6.94541e-05
7.28241e-05
7.25209e-05
7.29923e-05
7.17393e-05
7.36339e-05
7.32835e-05
7.96798e-05
7.76826e-05
8.15454e-05
9.00322e-05
9.76729e-05
0.000100125
0.000108115
8.90807e-05
5.92155e-05
5.0207e-05
0.000554749
0.000203329
6.65403e-05
-1.17045e-05
0.000170362
0.000532303
0.00163257
0.00201474
0.00183889
0.00120463
0.000220368
0.000246039
0.000193425
0.000165195
0.000132994
0.000134884
0.000128784
0.000116258
0.000130717
0.000166482
0.000207076
0.000150545
0.000461809
0.000543047
0.000467507
0.000624751
0.00131864
0.00216136
0.00973551
0.0189382
1.53943e-05
3.16253e-05
7.76823e-05
7.97329e-05
7.4212e-05
5.69149e-05
4.02269e-05
2.38401e-05
1.4543e-05
3.67528e-06
2.08679e-05
1.803e-05
1.68572e-05
1.80744e-05
1.90234e-05
8.1268e-06
1.29136e-05
3.23247e-05
3.3485e-05
4.39406e-05
4.4392e-05
2.67698e-05
2.02593e-05
2.71439e-05
4.36961e-05
7.64904e-05
8.33511e-05
4.60486e-05
1.3305e-06
3.88777e-05
5.48187e-05
0.000114404
0.000315054
0.000327478
0.00111727
0.00155057
0.00206784
0.00241433
0.00282844
0.00335253
0.00423617
0.00485836
0.00472435
0.00427292
0.00338817
0.00272243
0.00209007
0.00112728
0.000333846
0.000219185
0.000151536
0.000154708
6.15634e-05
1.49745e-05
1.15407e-05
4.74182e-06
1.62253e-05
1.64263e-05
2.06476e-05
1.75481e-05
6.00546e-05
4.82731e-05
7.32169e-05
7.89993e-05
3.93024e-05
0.000161134
0.000257301
0.000466115
0.00103522
0.00149524
0.00191069
0.00231707
0.00252497
0.00313601
0.00363333
0.00364944
0.00355773
0.00319532
0.00258488
0.00218396
0.00144379
0.000231075
0.000249166
0.000186992
-1.72272e-05
4.30687e-05
1.10558e-05
2.71528e-05
4.36998e-05
1.39766e-05
1.14321e-05
9.96459e-06
6.57294e-06
1.89503e-05
3.55324e-05
4.96376e-05
6.09086e-05
0.000196058
0.000652572
0.00198119
0.00410591
0.0076214
0.0109117
0.0133536
0.0123523
0.0108099
0.00683084
0.00246582
0.000913816
0.000181085
4.25181e-05
3.85812e-05
2.59121e-05
2.34845e-05
1.41106e-05
5.48741e-06
4.9206e-06
5.22587e-06
5.21343e-06
2.42262e-06
9.14542e-06
8.40625e-06
7.40239e-06
6.8395e-06
2.5419e-05
3.69919e-05
4.05306e-05
3.58016e-05
2.54661e-05
9.95247e-06
8.67296e-06
6.73639e-06
2.9494e-06
-1.78532e-06
4.58845e-06
1.74153e-05
2.07115e-05
2.97678e-05
9.07159e-06
2.33546e-05
1.60925e-05
2.99795e-05
0.000107241
0.00121422
0.00214214
0.000954009
5.18889e-05
3.91282e-06
6.61953e-06
1.5608e-05
1.6736e-06
1.32031e-06
2.48477e-05
7.68535e-07
4.22229e-07
3.87827e-07
4.03919e-07
4.29045e-07
6.42251e-07
9.00002e-07
1.43203e-06
9.08853e-07
1.33592e-06
1.30592e-06
1.59233e-06
1.10561e-06
5.29349e-07
5.12588e-07
2.90545e-07
2.0301e-07
5.44474e-08
2.28273e-07
1.18746e-06
8.79194e-06
1.31364e-05
1.12713e-05
4.53228e-06
6.5143e-06
8.77758e-05
0.0544317
0.0211549
0.0147158
0.0152643
0.0159757
0.0145761
0.0138348
0.0143876
0.0152823
0.0160099
0.0137524
0.00900959
0.00735754
0.00749775
0.00629776
0.0352048
0.0194747
0.0136134
0.0126354
0.0140063
0.0186473
0.0279669
0.0352851
0.0365844
0.0338101
0.0305604
0.0264256
0.0247427
0.0228882
0.0225052
0.0208263
0.0195356
0.0178559
0.0180277
0.0189077
0.0212212
0.0236482
0.0261637
0.0284066
0.0295689
0.0299048
0.0298059
0.0302572
0.0334185
0.0414591
0.00941995
0.0170393
0.00858368
0.0057048
0.00829493
0.00989921
0.00942263
0.0078718
0.00566475
0.00386735
0.00314743
0.00296274
0.00317305
0.0039187
0.00596864
0.00798698
0.00876605
0.0087638
0.00852528
0.00787109
0.0070196
0.00648902
0.0067836
0.00772375
0.00906826
0.0103763
0.0120759
0.011532
0.00687864
0.003534
0.00156461
0.00225063
0.00225405
0.00210503
0.00208764
0.00198726
0.00187145
0.0018722
0.00211205
0.00251803
0.00295347
0.00387603
0.00570457
0.00717457
0.00819002
0.00894719
0.00951228
0.00961614
0.00896341
0.00808988
0.00630832
0.00406158
0.00297398
0.00271554
0.00271192
0.00264988
0.00257136
0.0018789
0.000904914
0.00131454
9.3977e-05
7.6792e-05
9.15754e-05
7.96699e-05
0.000307754
0.000488856
0.00112385
0.00206184
0.00257933
0.00304533
0.00329067
0.00343486
0.00350293
0.00349429
0.00350528
0.00347899
0.00330016
0.0031057
0.00296447
0.00295632
0.00303208
0.00257183
0.00171243
0.00196074
0.00264168
0.00178585
0.000289308
3.5179e-05
0.000343388
0.000895431
3.93961e-05
4.37446e-05
7.40002e-05
-2.1085e-05
-1.45489e-05
3.407e-05
-1.70612e-05
6.01359e-05
4.97305e-05
4.93687e-05
5.91371e-05
7.50145e-05
7.86049e-05
7.83487e-05
7.34795e-05
7.62483e-05
8.17119e-05
7.53402e-05
7.21734e-05
7.56762e-05
7.98762e-05
7.71323e-05
8.41328e-05
8.36084e-05
9.41898e-05
0.000101458
0.000100414
8.20231e-05
5.78894e-05
4.84029e-05
0.000118619
6.67837e-05
6.25279e-05
4.84867e-05
0.000217931
0.00121107
0.00210787
0.00212845
0.00150491
0.000518605
0.000262522
0.000212987
0.000167356
0.000116954
0.000110917
7.09229e-05
7.34566e-05
7.56321e-05
6.64692e-05
0.000109419
0.000133206
0.000184026
9.18652e-06
0.000467226
0.000563201
0.000608731
0.000789499
0.00141587
0.00564162
0.0177633
1.80132e-05
6.8316e-05
8.28531e-05
8.28311e-05
6.54533e-05
4.41718e-05
2.53809e-05
2.36143e-05
2.31012e-05
1.82831e-05
1.32457e-05
1.07992e-05
1.12336e-05
1.13311e-05
1.12172e-05
1.4452e-05
2.08491e-05
1.83351e-05
2.13812e-05
3.31584e-05
4.26784e-05
4.04322e-05
2.24043e-05
2.77455e-05
3.25061e-05
5.01264e-05
8.00458e-05
7.90171e-05
7.72092e-05
9.68362e-05
7.42705e-05
0.000192473
0.000421425
0.000806217
0.00143017
0.00188759
0.00247884
0.00302941
0.00466126
0.00666246
0.00780362
0.00849732
0.00815881
0.00781112
0.00668524
0.00499562
0.00298546
0.00206145
0.000845055
0.000304762
0.0001724
0.00015545
0.000139867
2.63504e-05
1.14605e-05
1.60955e-05
1.31352e-05
1.75007e-05
2.45203e-05
2.23941e-05
4.68659e-05
7.16209e-05
8.47675e-05
7.62056e-05
8.46038e-05
0.0002018
-0.000167886
0.000736109
0.001347
0.00192658
0.00250564
0.00347665
0.00420645
0.00470382
0.00461351
0.00462344
0.0044593
0.00443607
0.00391801
0.00283789
0.00210908
0.00104719
0.000280398
0.000207523
0.000117397
6.51691e-05
3.13347e-05
3.62078e-05
6.07323e-05
1.9835e-05
1.41535e-05
2.21076e-05
6.86129e-06
2.43957e-05
4.34351e-05
9.98043e-06
0.00015422
0.000182963
0.00171872
0.00417088
0.0093701
0.0143936
0.0178693
0.0191353
0.0204449
0.0183371
0.0146835
0.00822591
0.00244911
0.000587789
0.000120032
4.79634e-05
3.38631e-05
2.32133e-05
1.77434e-05
4.86552e-06
5.25503e-06
6.15932e-06
6.19103e-06
3.65357e-07
8.29463e-06
8.12915e-06
8.71041e-06
1.65291e-05
3.40135e-05
3.95877e-05
3.07172e-05
1.9018e-05
5.00725e-06
2.34825e-05
2.40559e-05
2.45269e-05
2.23658e-05
2.1255e-05
1.97987e-05
1.75525e-05
1.01086e-06
2.09434e-05
-2.71302e-05
2.54316e-05
1.42673e-05
3.15808e-05
0.000110595
0.00119839
0.00258334
0.00174133
0.000107008
6.13437e-06
6.50746e-06
1.15199e-05
2.34939e-06
1.44573e-06
1.00319e-05
1.50431e-06
4.43176e-07
4.23924e-07
4.1164e-07
6.21232e-07
1.02291e-06
1.72927e-06
2.66859e-06
4.66321e-06
3.59645e-06
2.99511e-06
4.43551e-06
2.33866e-06
1.36923e-06
5.59143e-07
4.53659e-07
3.21099e-07
1.36473e-07
1.16822e-07
3.71439e-07
2.81647e-06
7.52791e-06
1.195e-05
8.07876e-06
1.01464e-05
0.00110208
0.0655188
0.0234701
0.0200126
0.0219546
0.0187771
0.0153906
0.0152897
0.016882
0.0181238
0.0182364
0.0160851
0.0103838
0.00756778
0.00762049
0.00621809
0.0341719
0.0167187
0.0104162
0.00980686
0.0116902
0.017587
0.028769
0.0358627
0.0364032
0.0329851
0.0296687
0.025626
0.024007
0.0222937
0.0228415
0.0226672
0.0213349
0.018538
0.017729
0.0179498
0.0195102
0.0220373
0.0244081
0.0265022
0.0281656
0.0289979
0.0292729
0.030163
0.0335808
0.0414282
0.00936768
0.0156199
0.00633516
0.00406702
0.00748404
0.010168
0.0103658
0.00923779
0.00690369
0.00392855
0.00286102
0.00245725
0.00256617
0.00337738
0.00535374
0.00809964
0.00897556
0.00896152
0.00888291
0.00845358
0.00742328
0.00674147
0.00696414
0.007926
0.00912981
0.0106947
0.0119737
0.0114476
0.00681001
0.00354768
0.00153722
0.00228273
0.00222303
0.00218302
0.00216431
0.00198689
0.00188836
0.00185914
0.00197295
0.00232179
0.0028296
0.00359643
0.00570854
0.00714431
0.00818189
0.0087183
0.00894256
0.00903966
0.00874934
0.00793552
0.00639202
0.00428578
0.00307219
0.00288104
0.00282181
0.00267351
0.00237033
0.00159361
0.000864853
0.00119662
8.11196e-05
7.69152e-05
1.48761e-05
0.000304995
0.000429097
0.00174972
0.00272568
0.00334707
0.00357431
0.00384686
0.00378154
0.00384562
0.00374316
0.00371562
0.0036612
0.00361854
0.00354182
0.0033585
0.00318064
0.00316098
0.00321235
0.00284663
0.00186287
0.00153948
0.00188404
0.00136328
0.000432065
0.000239983
0.000202834
0.000289094
3.98352e-05
4.91501e-05
7.85474e-05
-1.10134e-05
2.73585e-05
7.27773e-05
6.24796e-05
4.82714e-05
4.21543e-05
5.14979e-05
7.29093e-05
8.05662e-05
8.24015e-05
7.50157e-05
7.9256e-05
8.42335e-05
7.53136e-05
6.79318e-05
8.24386e-05
8.22233e-05
8.42054e-05
8.37092e-05
8.533e-05
7.89627e-05
9.29548e-05
0.000102019
0.000104408
7.73872e-05
5.09231e-05
5.44039e-05
0.000237147
6.42257e-05
5.6548e-05
5.0379e-05
5.45472e-05
0.00179057
0.00255311
0.00219942
0.00128462
0.00027883
0.000264169
0.000213766
0.00013178
8.70102e-05
7.50883e-05
6.60456e-05
7.05558e-05
5.13213e-06
7.38795e-05
6.69267e-05
8.01277e-05
0.000143716
0.000205286
0.000402839
0.000607983
0.000642683
0.000665158
0.00103312
0.00408336
0.0173401
2.43328e-05
7.63315e-05
8.20886e-05
7.9772e-05
5.88449e-05
3.5191e-05
2.84224e-05
1.58302e-05
1.98905e-05
1.30107e-05
9.47416e-06
8.63679e-06
6.4513e-06
6.26744e-06
6.21107e-06
9.66375e-06
1.74365e-05
2.16978e-05
1.23455e-05
2.44006e-05
3.94859e-05
2.75528e-05
2.42866e-05
1.76007e-05
1.75005e-05
4.34338e-05
5.73383e-05
6.16584e-05
5.74252e-05
7.89184e-05
-5.87296e-05
0.000326379
0.000153487
0.000940539
0.00146268
0.00195845
0.00280063
0.00379164
0.00711049
0.00856845
0.0107814
0.0116873
0.011793
0.0108826
0.00915439
0.00716731
0.00494068
0.00267412
0.00148822
0.000347445
0.000200043
0.000151951
0.000173443
4.95425e-05
1.3445e-05
1.37674e-05
1.35929e-05
1.90954e-05
4.07576e-05
3.12572e-05
4.94499e-05
8.81408e-05
7.94303e-05
7.30733e-05
6.99454e-05
0.000191502
-4.4325e-05
0.000860719
0.00155548
0.00226859
0.00338256
0.00440505
0.00497317
0.00493904
0.00474549
0.00464844
0.00456678
0.00457185
0.00460155
0.00401984
0.00243335
0.00148729
0.000115367
0.000232941
0.000154664
8.09525e-05
4.0397e-05
5.4937e-05
4.54499e-05
2.29156e-05
3.96079e-06
2.16219e-05
6.99945e-06
2.90633e-05
4.85519e-05
3.78212e-05
0.00018579
0.000675012
0.00228438
0.00698726
0.0133903
0.018945
0.0225713
0.024849
0.0245304
0.0238098
0.020035
0.0140583
0.00615352
0.00154982
0.000199118
1.91072e-05
3.55153e-05
2.19245e-05
7.63897e-06
7.28557e-06
5.71112e-06
2.73035e-06
3.16711e-06
1.81834e-06
8.88629e-06
7.85017e-06
1.10054e-05
1.93727e-05
3.56017e-05
3.86966e-05
2.53493e-05
1.47555e-05
2.85214e-05
3.1311e-06
1.25796e-05
1.03626e-05