/*--------------------------------*- C++ -*----------------------------------*\
| =========                 |                                                 |
| \\      /  F ield         | OpenFOAM: The Open Source CFD Toolbox           |
|  \\    /   O peration     | Version:  2.1.1                                 |
|   \\  /    A nd           | Web:      www.OpenFOAM.org                      |
|    \\/     M anipulation  |                                                 |
\*---------------------------------------------------------------------------*/
FoamFile
{
    version     2.0;
    format      ascii;
    class       volScalarField;
    location    "0.005800000";
    object      omegaC_burn;
}
// * * * * * * * * * * * * * * * * * * * * * * * * * * * * * * * * * * * * * //

dimensions      [1 -3 -1 0 0 0 0];

internalField   nonuniform List<scalar> 
12384
(
154971
228308
257720
278886
297297
310443
315001
312439
299371
283778
258983
225984
177499
119634
293105
376442
424014
446454
460967
469280
470644
473704
479825
488225
519322
544817
590446
614509
652917
661391
678079
662732
653689
624195
614729
595406
587067
563820
540271
499340
438932
331512
216167
181484
422646
454610
487968
522136
543024
568861
575561
585460
584753
597850
621311
659320
707098
760532
814777
865226
902826
922068
907622
875454
838757
817941
797235
772712
731930
673230
585939
438029
314487
333811
465594
546084
608588
643830
663649
673052
686579
730936
795074
871954
949733
1.01586e+06
1.07051e+06
1.08047e+06
1.06001e+06
1.05385e+06
1.00425e+06
978562
1.0243e+06
1.00564e+06
1.03132e+06
999144
958441
882438
792196
694927
606947
516756
467543
500129
504160
556720
630265
714870
798442
876250
939992
995180
1.04591e+06
1.0696e+06
1.10435e+06
1.11228e+06
1.12802e+06
1.11616e+06
1.1417e+06
1.1238e+06
1.12806e+06
1.0965e+06
1.06568e+06
1.01453e+06
945947
856688
734405
650587
572911
480113
410433
409041
424582
417368
347841
423564
489772
534066
565168
587111
596736
596665
593576
599148
625594
668011
723472
783151
847928
905233
959847
998328
1.01547e+06
1.02842e+06
1.00481e+06
980087
955097
925202
892259
849988
791080
694221
548454
466405
345454
398588
462193
496998
516319
550619
612337
698740
780177
864656
934771
981964
1.02452e+06
1.0183e+06
1.03218e+06
998992
998655
974678
977902
968636
954047
917702
846068
743515
652506
587053
562362
533958
490882
458159
363682
363135
427957
524474
637378
752278
864011
962702
1.04505e+06
1.10287e+06
1.14324e+06
1.15588e+06
1.15329e+06
1.1315e+06
1.11176e+06
1.10205e+06
1.08512e+06
1.07365e+06
1.05811e+06
1.02793e+06
981879
915150
817376
664390
553778
514528
495962
478797
476629
480949
443039
572694
669202
770311
868290
969004
1.04209e+06
1.12376e+06
1.13537e+06
1.18138e+06
1.13197e+06
1.15058e+06
1.10802e+06
1.1153e+06
1.09162e+06
1.091e+06
1.06117e+06
1.03571e+06
989175
931146
852080
686333
554709
498014
465220
437244
421317
403996
377805
350082
434796
520450
650639
780923
906815
1.0246e+06
1.13514e+06
1.23349e+06
1.28752e+06
1.32289e+06
1.22944e+06
1.25229e+06
1.08714e+06
1.1725e+06
1.10934e+06
1.25733e+06
1.21669e+06
1.2964e+06
1.24899e+06
1.20727e+06
1.08934e+06
943665
770321
667873
632451
617312
609545
611679
613012
614081
479438
585508
758056
916957
1.05636e+06
1.17465e+06
1.26447e+06
1.30183e+06
1.30278e+06
1.18522e+06
1.21976e+06
999502
1.0521e+06
1.05432e+06
1.22013e+06
1.21867e+06
1.35107e+06
1.35584e+06
1.34924e+06
1.27872e+06
1.13845e+06
937739
748169
679788
646606
639046
651533
672696
680524
653458
378841
445952
562843
637147
661065
661445
678965
698748
713868
725501
730458
733593
725358
717821
717354
732605
767964
816331
868284
921222
967024
994641
996126
961101
927823
894999
848845
769150
621765
390077
121832
167668
164675
151122
164465
318100
620983
661030
718798
754703
779074
796548
811841
821872
819038
796848
757153
703066
638172
564772
493567
427556
369065
305294
237396
171609
115263
74087.5
50245
32236.3
213255
187297
207486
234308
262903
289788
311607
324805
330550
324997
309571
280164
238351
229309
307091
295712
340227
361910
369361
366339
360102
361388
381517
412563
466315
512003
574919
614300
669608
683017
720616
701319
719814
684837
700025
676466
680429
652961
620714
557375
475247
374611
269145
279365
468620
406031
430753
441905
434117
425178
414824
425816
454810
514290
593052
684636
778503
855631
899443
903935
872541
822527
772725
743312
749984
803259
892134
966844
978550
861965
666146
461648
317046
465431
530838
439534
465415
465322
457421
476090
535076
624244
695943
721007
648751
509683
339777
181577
102276
53702.7
43004.5
35554.3
44626.1
73526.4
132991
232803
407832
632066
725602
602896
433818
353703
382936
621831
489782
497584
617509
726138
777847
742071
634834
432525
376148
234244
161935
146557
134337
139756
184224
235417
341421
460150
630550
777728
859968
803393
645880
509104
479029
472173
457208
446087
456975
511478
456035
358510
402535
422489
425264
413822
398179
391411
401405
438408
500512
578382
656545
693756
666768
571761
471984
379354
326508
307077
329065
406683
528284
684863
813462
883836
840894
704652
507343
602324
399131
279329
303020
317123
374145
487030
605705
664106
541658
350191
150226
80853.4
30056.6
15922.3
10954.4
6203.07
5753.72
6329.93
8044.78
12963.1
27858.2
65010
147799
323907
442014
420905
365169
325254
322734
557343
470286
297511
377247
517056
666172
788359
824798
752951
611744
453878
320157
241616
209152
205179
191794
233390
339125
425992
544961
698669
817664
858768
780798
618460
462680
392430
367728
368997
405654
542456
573093
457512
556371
690043
803621
846324
683273
531045
251206
181474
82227
76036.4
59559
70451.3
100567
155196
230089
386781
540900
690150
716202
657129
493532
398157
387680
390702
378368
361798
347537
446019
512643
382573
458678
571034
705430
814544
776993
529595
258437
102648
27669.2
11286.5
3780.44
2345.18
2350.17
2984.13
9745.25
19788.3
65260.5
167521
388041
769693
897154
655515
453570
424561
419685
420726
442871
637924
549756
439994
562797
683122
726688
630071
438849
245047
121433
48930.5
20726.4
8398.5
6041.55
4553.97
4324.04
10869.2
19904.8
53058.8
118135
254887
532406
833570
808987
542886
473382
491281
499073
504826
526331
700682
516768
327501
411493
487883
552099
611297
637046
611040
557931
502792
498676
520198
544469
555556
551639
544471
550544
557872
539701
504575
459241
376944
322625
285664
321619
441371
611142
783781
744819
734451
257052
247004
250594
247985
281855
601774
630689
698652
739777
724221
685711
638659
622243
632948
653056
676539
684185
659199
599060
512234
420479
339092
285058
248389
211532
162942
114717
77618.8
52430.6
44393.9
258489
218680
238385
261748
285485
305930
320534
330766
331912
331622
322913
308318
279194
276917
339473
313276
342872
353317
356530
357228
367429
391693
437655
481119
530849
557680
597739
611913
650322
659953
695914
694512
718453
696102
703749
673512
674984
651818
632388
589513
527929
440379
337347
355026
498851
429684
434206
430065
418979
419459
433303
476998
535907
605827
672019
733046
788264
834236
870262
892139
895030
878728
848524
826448
811887
831772
868942
921098
947015
904457
760615
569332
399193
544563
569059
458151
461909
459793
485118
557989
649465
716435
728397
705504
633457
526930
370785
261430
126795
108340
55914.9
55071.3
63350.5
87336.4
116028
189077
265085
417521
633730
686929
545650
388599
371205
673695
499758
627647
731382
789731
794936
719265
659541
475334
403175
274810
213799
172359
167010
150107
200167
232184
330377
424520
531698
644530
761679
821816
752432
605007
486458
422292
404394
439649
499688
564091
516349
388458
412702
416736
409461
400748
401229
421824
465238
529695
599689
650852
674666
666709
617310
540302
490288
403303
374390
334945
359836
381430
476785
588732
727114
827601
860615
788109
620230
701963
446699
296096
308951
347388
457180
589968
627995
492669
256308
157391
64430.5
53381.7
25051.8
25688.9
13913.5
11408.3
8916.69
7475.8
8373.22
10313.4
14187.6
25770.3
52366.3
122786
261747
354009
404370
366468
330602
591951
528367
349394
472908
631913
765574
814849
766562
666853
532275
403046
314093
255406
207838
195553
221080
221917
276946
391582
480812
584483
709199
800487
824270
746661
594142
451638
358985
345550
412079
570001
651761
551055
683523
814221
811423
691086
438307
324147
124876
114164
39625.9
39657
27103.4
37855.6
48989
89710.5
141826
249284
370105
532953
641791
686763
630084
469952
373631
346457
355391
377264
380551
485109
571514
423527
515041
667097
811440
776643
517314
265753
104195
40396.5
12811.9
6809.9
2047.97
1688.52
952.091
1946.2
2307.65
8230
15302.6
48257.2
147062
402715
764350
857498
599341
410228
370313
407731
457687
653423
600488
518302
646592
731501
663443
467186
280309
160769
71906.2
30294.3
10942
6878.02
2761.08
2196.02
3536.26
4155.91
11041.9
21333.2
46661.1
96005.8
208557
466076
792691
774588
520650
447401
461251
506102
567575
720370
593093
401746
484783
566347
627273
611200
534549
448834
411447
403611
446688
490024
521988
541704
529574
532013
523669
502877
476962
491658
518608
501015
483892
426173
405278
460141
566670
704552
777058
826911
303102
249975
272967
387431
582348
663663
707106
740768
732271
711977
692834
677668
677631
682002
689422
701821
708265
705787
685015
635205
554035
450092
346013
241419
160046
112431
83164.8
62842.7
48430.1
44353.2
284684
242817
263413
287395
307791
319591
324552
324925
325915
325185
328705
326324
317610
309250
378814
346321
354705
350056
348043
358843
389809
435977
495806
539569
574671
583172
593481
588013
598213
592386
610299
612804
635777
642175
656619
653780
653063
642789
632730
605602
558223
486819
395972
406331
526880
465727
445183
422537
409386
420900
460946
528110
608079
682746
736147
772561
799221
819543
837115
852981
867593
878215
880667
870266
865059
870390
887951
905174
923663
902925
807421
640441
465887
589935
606498
502254
478295
478078
537718
643885
720268
732852
700400
649180
588738
500289
362021
361732
209160
200948
133260
126349
109771
166296
152926
205093
251212
326097
499872
678853
631839
462593
376614
691239
553449
739656
803271
814454
797245
748433
687463
555826
503600
372227
342064
278841
256818
262517
268929
331379
384697
457462
525670
588377
667937
759052
781756
700953
571772
451318
398187
442394
527178
588520
565480
429293
430514
414394
401442
400583
420002
468903
540675
611757
659213
686358
699910
696922
704471
666903
680387
618332
638584
606189
605589
576751
626596
652484
715185
796690
851017
832053
700567
766309
492601
319574
327053
404412
549175
622050
490950
295780
204621
178289
163367
191794
203820
179223
162348
154195
106426
82181.1
48661.3
36728.7
26710.5
25053.5
31976.5
56961.2
133925
273249
396307
428857
356070
609520
555571
401738
562797
724663
799441
774390
715094
636105
529963
470699
410553
348310
299364
246982
255435
319116
315710
382763
496565
570770
651530
742163
801006
805641
717102
567759
429619
367467
419726
581741
707051
650756
795548
823189
658478
484911
350285
253855
144645
108201
58274
47445.7
41967.8
36662.4
50110.7
69647.7
104786
184435
281361
422567
545415
631721
683305
595965
443285
336968
331960
388074
398121
506101
617159
448873
570641
756939
814028
562252
315412
161812
70695.2
45244.7
19158.3
8190.35
6367.42
3124.21
3496.95
2221.2
5077.37
4624.21
12398.7
19131.2
56307.3
200323
506624
844677
781317
523003
360362
399410
463824
658898
657659
579464
711473
736096
539828
344128
186501
97845.5
44120.5
22889.4
7395.94
3422.88
2041.64
1567.59
1063.92
2538.85
5202.05
11999.8
23461.1
45852.8
96352.9
229294
521990
816177
708939
465320
411983
487591
590099
720775
671078
469425
559198
626395
610292
526003
455466
456147
528624
613511
668256
690776
688292
685180
647608
595189
502536
431224
398755
454398
547278
587653
593024
551506
472263
479764
569713
659206
763279
861873
352696
264495
378394
559605
655500
701920
745611
749275
751717
752667
755543
764661
749235
742182
742551
745168
738092
726482
711853
688449
633286
547112
440061
299844
163754
97899.7
72373.1
59181.8
50667.1
43725.9
304371
264399
289282
315488
329245
327019
314664
306294
305249
318952
336255
356944
366662
338775
418552
381639
367966
346953
343057
367742
418178
478102
541483
582426
606901
597278
593663
566874
552895
520865
516333
498980
514571
522719
554820
574427
599794
609723
613301
605235
582044
530572
450904
436532
559592
509914
463257
419114
401069
423963
481766
568082
661038
737569
777873
794250
802386
808112
809149
808765
804007
793609
781642
790451
814803
840738
861057
880732
892130
888168
820238
679821
512972
616389
648478
561148
511102
511605
598015
706398
732323
692825
646673
572734
482213
460766
396806
408008
370986
400411
310222
304999
259771
286594
245429
254005
262837
309327
415909
618593
673092
512114
392904
695260
635695
809853
839320
825200
800675
777188
699200
673870
655070
574788
606670
540453
537318
506867
536593
525299
543784
552207
563012
568625
597489
668484
739871
720577
650215
512788
427323
459804
541286
601555
609774
475257
449655
415910
400201
409449
448259
519348
600786
661907
701398
717261
728252
728356
735032
733845
756022
751837
783266
783734
801095
793518
797076
767759
769181
790621
844650
845693
752267
799255
534164
339944
357180
474088
611888
541149
325175
248963
248947
346184
415537
498328
541504
451382
470911
400779
352961
292028
261803
179801
110387
56794.1
38730.8
40764.4
76818.2
197167
385401
469928
389782
625989
570495
451370
636827
775570
784204
730496
673313
615667
603584
600771
543176
482839
450953
438803
406135
420917
474979
452491
518720
589568
637363
696813
769064
806983
781005
657494
507451
421431
429810
588268
758711
741818
824923
698145
546286
409199
341342
311744
200867
199817
113350
114949
74676.6
73011.7
63759.4
92535.2
104526
158833
225513
352166
455640
562967
643491
669053
539032
384655
335847
402326
405070
519338
659757
459369
627751
813397
696082
407852
227155
117313
78441.5
62716.6
26975.8
27966.9
12239.3
12414.9
7478.98
10976.8
7127.29
12533.2
11591.2
15166.4
30725.8
78918.3
327085
694205
857302
662545
438186
414502
469193
660388
746284
618194
753394
696880
444391
250592
135240
60341.9
30418.3
20858.5
5022.82
4896.12
3067.57
2144.48
3303.33
1679.38
3162.59
6424.89
14906.8
27192.5
51072
116661
295173
643634
819121
600116
386629
457608
597613
719483
749268
531292
624543
650758
571088
495804
542288
634896
724648
766602
786564
791975
787898
774432
739336
682357
578154
397288
331844
404143
557216
624327
619063
564119
522837
459272
528808
623422
714915
866070
398857
301657
480548
626003
671250
733726
759226
767621
792346
813714
829673
832210
826077
824909
813480
790532
767591
748363
729070
711806
672624
588690
493728
356669
188812
99703.3
71844.2
61781.3
57302.9
44687
311111
276663
306073
331155
336113
319158
291886
270450
274879
299843
339637
373803
405822
375839
457740
415812
381588
345062
340965
378921
442735
507483
574723
614471
631602
623782
617582
580732
548881
495559
457852
415083
400492
401310
438770
479583
526007
562529
592647
605442
594602
555174
493905
460126
589800
555633
487720
420509
395144
424387
493450
587922
696157
766878
781010
778067
781287
789724
788936
774138
745180
696619
623417
578935
625966
711230
786894
836513
866969
860396
814704
696425
545385
630529
700529
627490
555989
553711
648605
732928
706810
621637
573391
508497
376745
372477
367947
441482
457993
532663
503866
519195
457878
439156
352138
314387
291629
299614
379693
575769
678781
527937
399236
691760
744629
849003
854516
822888
803951
756610
735555
756072
737442
741930
749131
739537
756650
759016
751804
756513
728343
687453
632738
583631
562403
601609
681119
708785
680872
571513
472498
485990
543884
607590
654559
524799
471379
421449
406310
424496
480826
563036
645287
702871
729910
742520
740536
736174
740044
735743
731636
706716
681958
663381
678702
725172
781954
816497
814296
811294
842322
856812
780902
803989
578385
365918
402216
542265
621891
386360
226338
212381
336153
480113
559011
615790
625367
598982
660717
620788
615818
581780
491786
404408
293909
153008
72472.6
40513.3
62267.7
144869
340193
509707
422086
634923
587020
498028
691940
791012
742948
680026
628063
612665
668676
643511
612042
632458
626596
625203
608863
574179
607280
575371
591519
612152
662832
689003
742277
789679
799558
709284
559031
467040
440060
590396
814602
800522
774333
573772
486564
427850
355169
374451
305386
312204
265469
241139
209288
169778
143526
135509
129773
168830
202656
312313
397648
504811
583545
678152
606443
442361
372342
419384
404965
531937
711452
476576
677218
811717
586287
311419
153421
105716
82486.4
61498.4
60045.6
60806.5
44400.2
40353.1
45385.5
25903.7
32991.5
16910.6
17169.7
14393.5
22441.3
48907.9
173406
553103
840240
746291
523149
448857
471537
661725
853453
644150
786465
657596
370593
193990
90069.5
46405
35197.4
18512.8
16526.2
27394
16382.1
15773.7
8718.08
10787.6
7864.31
5628.31
9254.14
14110
33089.7
67629.3
179602
436721
762584
723598
444007
428229
595098
722155
808434
577547
655158
624828
562164
584689
691178
778378
818114
836431
840594
850720
843910
827897
802887
756889
668811
456369
307553
357861
560381
650973
582624
471828
520014
499483
500941
591013
670409
830682
445878
339171
522185
633858
693824
752499
770685
795609
828020
856850
867225
866896
861357
860922
855964
841811
806491
770896
736137
722778
695841
610830
501721
392492
224326
109844
76991
67998.3
65581.7
45895.1
318127
286513
319915
343875
341507
310738
271394
245087
251946
293429
344195
400935
451997
394478
498131
447223
393756
341532
334085
382583
452870
523288
594876
634277
657851
661088
659318
632371
601292
538054
485652
419293
371471
341324
361127
403911
461422
516333
561361
590817
600709
583328
536450
467681
622202
596616
513637
425255
388731
418117
491401
592218
708508
780722
745707
725836
751995
779441
780559
761438
719512
651052
544880
453887
485520
597582
706895
788040
824890
833827
792390
692789
562711
632712
764766
691608
605442
591696
680932
729688
673315
577488
485445
445201
319452
263170
307470
389538
465271
538028
435100
439978
516898
534772
393410
363986
287838
300569
349259
575082
679962
510140
390485
686635
886316
870937
850017
801668
787471
752149
771901
762858
729735
714162
676629
640453
600974
582959
612192
673029
736274
750794
697403
605261
538485
544134
632026
699019
693954
601832
505961
508446
536405
613357
703805
578493
494408
433531
419114
445712
511664
599526
680922
731421
753811
753120
752574
750252
748066
735388
694583
629985
554627
468286
448311
551607
676893
783636
835242
823949
862299
855881
790815
773767
618858
396417
451184
601500
545280
254838
140167
187808
335874
488194
548647
628968
629705
669267
663455
599075
566181
628025
665853
599394
491224
297606
117900
65771.2
56338.2
119294
341808
520975
437494
638526
623774
551429
736550
785276
689891
608184
574139
593900
679445
645343
683736
680488
649072
633474
675206
691862
725396
676075
679781
657825
700144
700444
740461
795243
812892
720427
573749
482929
440156
602406
889916
820811
704952
497966
432851
441366
388344
395973
376172
443668
401288
451055
401701
371941
262215
242553
170745
193999
207324
290657
373771
461762
548457
660816
640197
475709
404833
424619
398885
553128
772752
521351
727883
801273
499845
214524
125249
83712.1
62448.2
77850.3
81459.6
91394.4
149425
225029
175049
150385
64565.6
51182.2
31222.9
14457.8
15373.7
42899.7
121663
399568
797206
785793
569466
482179
478466
676005
938201
667248
803500
620087
320115
152823
71159.1
40443.9
38596.8
21295.3
48667.9
74054.5
68639.4
56753.9
33858
12624.7
11888
7658.92
13580.7
8836.69
24023
44871.9
122999
301073
665236
785251
531957
424703
585170
744811
864820
617943
689686
641780
610872
696162
795673
843221
840719
838258
833607
843604
865944
863720
844311
799221
748809
578203
328729
332189
547856
644014
596830
501917
544852
552306
549533
577283
646675
776840
502953
352951
531015
638426
711092
761653
783109
815506
846385
858967
830131
773150
726165
730445
780768
831801
835191
799005
742736
729189
714349
632547
498561
403513
262123
130844
91876.7
86446.7
81803.5
59305.9
316097
285802
322128
346676
336053
301304
263105
239936
251996
290583
349616
413121
485854
433535
541888
476895
408882
340228
324322
375502
450114
523945
595129
640523
675212
685772
703269
697225
683852
631085
577182
507531
456527
405793
388077
399233
440841
491851
545194
586233
601289
589479
552886
476254
657833
632727
541874
431503
379513
402592
477596
581762
706814
774068
711834
681176
718286
759548
765683
745633
712465
663415
587428
516602
516199
589802
684300
754738
800491
796469
763505
673183
568062
622182
836633
734702
639932
601876
686624
731914
639263
557452
450080
365584
313724
210297
213754
309139
347334
496792
537977
534183
531710
522734
367839
311763
285000
260060
368705
582505
665197
474361
389133
708234
1.06819e+06
883271
834103
756529
762984
779999
773277
763976
730433
682304
627461
553161
481718
422169
424472
519254
642719
739531
726249
620817
537559
538162
601081
684483
702007
604762
514836
510651
514119
610254
756717
629341
511418
434883
423593
459332
535058
628596
708376
752643
764870
763041
766984
769097
779979
760704
717557
644212
557024
457233
420577
518815
659354
787068
849888
858472
866922
853825
788861
741599
677280
441087
504603
642687
485491
160154
92617
124261
256614
391406
457789
582928
617789
688867
660907
551851
431224
483028
617687
672488
565488
407701
190806
75883.6
56652.2
138015
371397
537661
454713
642231
721112
618405
774303
772714
635980
534626
517450
563259
636702
639856
664854
641627
544205
438721
481658
613766
711463
748619
701207
730703
717200
722838
770537
795910
813488
711650
552178
460361
458026
664678
1.02006e+06
830317
631971
461586
386939
394460
376305
402506
373603
463199
445533
437680
407540
466656
383383
327633
211857
221209
217645
286934
363559
448018
521992
645049
651129
479317
405079
417985
417297
623664
860205
595855
775651
780048
402665
186846
88146
53172.5
60713.9
63906.2
62035
147242
265918
373531
423978
303705
210111
70376.3
53842.6
17214.7
14279.4
25655.9
111282
338655
719142
787883
586751
488239
492427
741226
1.02083e+06
720807
833167
600009
286438
130814
60997.5
38858.6
32425
31438.1
68912.6
123074
222269
296032
189151
63559.5
33766.2
8916.23
15063.6
9349.75
26906.7
27866.3
107522
237191
558009
796772
601124
447900
572273
800924
897414
639685
701078
652233
668281
769009
845849
848874
790515
742591
732524
788622
853870
893297
855615
821449
805973
693019
460961
355507
578819
661530
641448
594787
620511
640507
647817
619499
642249
716856
547012
373796
518738
641053
719380
766762
789327
824059
847693
830993
748490
623271
516454
547876
662811
775437
838507
813501
758615
744953
721902
648095
495097
392348
291742
162956
128936
132532
126380
113483
312184
278050
321810
347092
333068
300041
273325
265109
281850
314764
365482
441095
528851
525153
599836
634560
561451
512221
433671
343503
304035
354713
432828
506241
578840
632130
668173
688299
728297
735207
748135
716491
681142
610513
557125
505691
472883
454353
461357
490027
528424
566171
592749
596781
573625
503665
580525
714066
712198
652298
567481
443518
375513
386597
453965
558117
688003
771861
681859
665321
706735
755114
765315
747209
725557
699146
668521
640481
638534
663281
706489
749531
767580
763349
711307
623252
555395
542581
720608
960187
890956
752768
674154
608503
678817
732186
655975
534890
465232
351464
299951
222770
149458
207806
239932
333400
345753
376925
381534
374149
259674
249138
223420
262898
403000
659437
659216
588105
706253
847015
1.03069e+06
1.11632e+06
840191
852519
764594
703683
733360
757311
775642
783135
770220
723641
676811
611235
548515
496057
498358
557956
661095
744594
707671
614758
527054
545151
624491
705112
697185
582419
495586
484970
479971
473889
782046
931141
806290
677357
548131
464499
449401
480803
555433
646766
724317
763035
759251
759078
768842
794513
812766
813289
789324
744183
685934
632025
621360
679420
768055
854776
885067
879087
862879
829467
777682
665893
781560
873513
691650
558445
599833
670670
433930
119793
66676.2
71406
149520
255053
329495
453692
550624
644526
713358
690329
623353
629513
677777
667643
614321
458728
221021
99381.2
94129.7
160557
402429
543606
433832
607447
848237
895770
666696
698557
791716
747132
578487
476660
456139
510148
565688
619453
644336
669807
625104
523003
509836
605008
700906
753271
739890
749134
743239
777111
787736
823268
821110
690716
555324
613354
744858
825402
937871
1.03756e+06
821208
809266
564542
411806
363817
325322
330620
373290
296474
397751
377500
465661
461292
470356
368148
330366
239362
235271
236373
309054
368555
445747
511546
664426
645810
457575
387828
476398
591042
719881
918949
962969
804370
734400
805763
728464
399046
153485
63223
47900.5
44481.4
29777.7
59105.3
93313.8
130880
285759
345172
305698
188342
100189
28162.6
20243.8
21040.8
18760.9
98958.3
355714
707398
761106
544748
488967
604410
773479
982569
991260
794401
804009
821498
560691
259369
118625
59182.5
33378.2
23881.5
23197.2
51365.8
54638.4
159944
210415
192305
58663.4
45032.5
11400.1
12835.6
10885.5
30993.7
28433.9
90397.5
243162
525002
791235
641711
486894
570581
651814
764018
778501
656302
667862
728449
683463
701684
807427
864071
832276
707587
598322
584484
695341
825512
897519
872484
838706
822872
767514
630207
393390
548547
675044
661961
649838
666152
694967
694338
687753
677948
679811
615894
561517
422097
441349
521546
653976
727176
769569
789594
820928
844796
815812
712235
554888
408934
475332
627739
760056
828240
813024
783584
747172
726171
657036
493856
368654
307133
202187
193700
204013
202511
239707
98027.8
45327.8
302357
265841
313827
340890
327330
303387
288450
290294
301069
321926
362980
428109
518898
581012
516431
501018
547339
520246
448527
348546
290486
330939
403616
474101
549708
602938
638253
669741
716957
739120
776572
755250
750918
699012
647389
587340
545209
516582
501985
502395
518941
542434
562399
573929
563170
533096
470009
562682
705041
659510
579403
450983
372064
371380
426292
520015
650800
764844
701724
679954
721512
761134
765195
750919
739697
738040
735150
731424
728343
731751
738841
742229
737139
703187
640283
556251
515226
573577
673765
842012
794330
752823
684397
589699
638548
729957
693957
577267
478262
404853
320303
239226
162567
135912
133164
162183
211440
214065
192684
169673
170006
162061
203067
265235
480764
675293
710317
724551
750750
766058
787065
804260
842173
801466
699541
624118
629166
691927
744165
773836
774316
778786
760719
752401
721748
708056
715597
731974
752795
733256
649415
567297
515254
576067
645182
716848
681949
557267
468220
462315
507353
609225
727831
768483
770401
692491
575369
492421
471806
495151
563913
655297
733078
764063
759223
753712
759234
792541
838328
866015
873585
864574
846813
830898
838609
857920
894833
902789
879354
872663
853888
812579
749133
626577
618352
692204
711939
608890
627761
696798
556278
142163
58311.7
47973.4
85101.8
148279
189063
277450
411668
483597
550472
684672
712333
676334
657742
671743
560329
359407
175423
102107
110729
249150
515455
521359
391237
642556
659131
670403
649063
693815
797855
769182
582780
461084
409416
456112
493645
550754
574178
626660
650001
683915
695825
712091
749527
757110
755815
762783
781418
786883
818364
854152
834114
719787
629363
683763
763402
790923
770545
775648
842031
810590
539082
376404
327286
282964
264540
308250
200425
255736
197850
263740
255543
291277
242235
274363
210633
245094
265716
347052
380751
447348
529830
676549
647059
457347
431019
532990
637275
715257
764711
771355
729871
690583
791583
761583
412715
144039
69983
41428.9
19167.4
29477.4
34490
22185.3
48559.8
74751.7
101494
89019.4
79270.8
37004.4
26844.3
10587.2
23546
30659.6
103109
354352
715659
733183
538213
499817
561167
639199
687724
692346
712258
796490
859868
607492
277943
126819
63047.6
30862.6
20337.4
15905
23436
11204.7
37441.7
19401.4
32836.5
19171.1
26470
9888.94
8863.48
18006.1
29294.8
50646.7
94445.8
275769
547944
795389
669565
563769
616617
671715
587918
564152
624818
695398
741570
706883
704439
812623
878128
846870
696235
545314
540005
685582
825828
908103
886046
831228
839649
796126
713905
528247
558976
665692
668874
674066
690641
718374
732691
745171
752210
719786
504348
437319
432812
449622
543461
671562
742457
769979
782953
810516
840164
831903
766806
663111
587496
618469
714447
805570
833349
826277
782876
744614
729056
655575
486495
344620
301501
201761
185771
200549
227129
189116
56067.8
38905.8
291491
247825
301429
332572
324094
309315
305743
307562
314334
329141
349952
399997
472535
557234
491034
468757
518866
509114
441831
341217
273057
298523
359287
429577
501727
556793
599733
634592
673338
713693
774214
767104
782052
736938
720521
662580
610540
563556
530683
511098
501816
504567
515093
526582
532546
528474
468738
542115
683826
656852
574630
446402
366437
357805
398740
474752
593678
734433
740582
704964
742916
771594
771667
760668
757206
762755
770108
771724
770950
762922
751225
729084
694251
640388
569228
514763
544923
660862
781013
827736
699351
745712
666927
540479
562328
678792
739575
662760
547280
466250
389318
300317
205722
141909
108241
94438.9
89357.2
100647
99814
103445
105863
148026
195774
341934
519508
678533
713246
714712
716788
728735
731908
779254
814014
790322
664473
513848
517861
590999
640371
662074
672922
696356
696708
709046
698510
709124
698380
677525
652310
561861
534641
498048
532157
592790
673919
714562
660307
536508
464911
486192
587718
703652
744562
733018
753176
680788
575161
497647
473683
489503
551004
644245
726486
764511
754983
735795
738082
766522
807153
856042
893845
920831
936216
937422
925385
922782
896844
892921
879957
850861
807827
786856
717827
638059
647016
698075
688120
590467
599226
674767
670638
255884
66684
46884.9
54034.9
95811.8
129142
145336
188773
297473
321243
361012
451027
485324
521571
419941
317970
241547
180788
153975
217044
392313
504908
382703
374035
675618
648179
620941
593130
641850
768688
812870
647900
475450
397658
402379
429153
468780
494975
510257
539353
574292
601996
674639
712378
731179
767012
803639
800228
833735
855394
864678
844238
746389
663675
667265
693521
689488
673928
718594
828303
840165
586035
357261
300339
244477
219200
209160
141496
122492
108409
107066
117217
131499
140579
181923
177282
265143
289146
365364
401382
461314
557548
708610
644971
466473
425258