/*--------------------------------*- C++ -*----------------------------------*\
| =========                 |                                                 |
| \\      /  F ield         | OpenFOAM: The Open Source CFD Toolbox           |
|  \\    /   O peration     | Version:  2.1.1                                 |
|   \\  /    A nd           | Web:      www.OpenFOAM.org                      |
|    \\/     M anipulation  |                                                 |
\*---------------------------------------------------------------------------*/
FoamFile
{
    version     2.0;
    format      ascii;
    class       volScalarField;
    location    "0.005800000";
    object      p;
}
// * * * * * * * * * * * * * * * * * * * * * * * * * * * * * * * * * * * * * //

dimensions      [1 -1 -2 0 0 0 0];

internalField   nonuniform List<scalar> 
12384
(
825853
824293
824340
822050
822523
821218
819587
821934
818304
824565
824176
828850
828907
831488
959655
959001
958540
958318
956343
955883
947135
949271
941545
927789
933605
906660
916567
883356
896052
860002
874286
840058
853985
825311
837442
816946
825810
812363
817695
808790
810528
804797
805508
801988
831662
832978
830277
839288
833158
849757
843823
860362
858974
868746
870522
878259
882738
886446
889762
891235
891266
890256
888888
891783
889671
900416
907048
917409
924678
928119
930508
931514
931148
932424
857334
856694
857751
857882
862517
862972
863837
862696
859351
853207
844100
828044
825610
799823
790798
785886
772154
768307
791493
785148
813856
812669
825698
827287
831115
830789
832930
832244
835553
836662
849092
851596
850982
847894
846274
840395
825910
821859
821867
803886
811611
802328
811118
801541
827053
819636
846910
849933
860962
864582
866250
864597
860891
856052
848081
844217
836932
837844
831262
831651
825899
825523
824695
825831
823723
826334
825163
826676
825838
825183
824480
820124
814663
808947
803234
796036
795404
789975
786899
797033
798302
803523
816051
830513
837260
843682
847423
847970
848693
848143
867871
865821
863786
861846
858354
855829
850083
848437
839733
843437
831540
828476
829068
817298
821626
809447
812847
804636
807535
808037
810418
812381
812861
811900
811005
809759
807857
808984
809047
808850
844135
844942
847185
849458
850903
850796
848987
844532
838875
834088
828491
824690
824760
822817
824172
837398
842681
844769
854328
859656
861398
862796
863188
861898
860069
857916
857182
857701
859507
859128
878201
877839
874057
874534
862243
859908
830351
839234
796980
812255
776802
791903
775092
787225
783005
799356
797927
810132
811332
817014
819216
820207
820939
821171
820538
821246
822098
821917
822452
821493
891235
888300
887846
885018
883280
879932
874760
869755
854611
853323
825186
834631
809383
822887
812874
840498
831924
865659
861580
889507
886693
903634
904918
913415
917904
919576
921843
922563
922492
921187
866773
868201
869168
871110
873391
873662
872883
867142
864967
849046
856531
831530
839136
831506
848999
843246
870526
877664
890660
896650
899408
900248
901406
901274
900551
899150
895936
895513
895221
891250
868670
869533
870965
871797
872373
872520
872511
872297
872437
873161
872240
875910
874792
877712
877341
878665
877775
877964
876372
875524
873088
870904
872380
870959
878540
887918
897159
906307
912867
919011
889460
890110
891025
891435
893203
894290
894513
893113
890450
886463
880522
875231
873838
869430
871359
873895
876977
879748
880630
880345
879022
876858
877243
874632
874370
872731
873035
872070
872085
873030
823459
823287
821691
821031
819548
818847
819916
819377
822993
820986
824924
824074
826496
826387
958663
957828
957356
956704
955484
953372
948452
943370
943101
927330
930642
906321
912935
883822
891583
860782
870071
841894
851310
826318
835408
817802
824268
813827
817782
810399
810405
806078
805740
808139
829307
832830
829795
839202
836751
849255
845373
860785
859563
867987
871653
877444
881203
884501
886629
888344
888088
886994
885996
886053
887764
892169
901105
908900
918098
924605
927929
929128
929555
929029
857624
858609
858038
859035
860182
861463
861468
860113
856219
849610
838106
829231
815704
797400
788313
775042
775709
772529
777968
787417
800934
810920
821479
827741
830682
830668
831529
831558
833774
834734
849721
850615
849657
846437
842347
836205
830106
813672
822208
805233
800332
804079
803643
805458
816836
822590
836960
844692
854932
861317
864376
863980
860172
854344
846998
841433
835266
833325
830757
827836
826416
825882
825206
825066
824968
826131
825764
826705
827445
827985
823125
821429
815818
808728
803929
796421
794729
790320
790822
793081
795227
804232
812544
825365
832664
840825
844600
847049
847063
848963
867574
865357
864049
860968
858693
854994
850584
848446
839540
841230
829563
832093
820818
819422
816878
808562
809165
804696
800625
803972
806148
808994
810788
811994
811573
810595
808632
808543
808184
808012
844686
845981
847373
848313
849642
848986
845807
841606
836690
829550
822478
818764
818126
822750
821023
823106
836687
843636
847220
854560
860326
862653
862913
861913
859534
857642
856269
857105
858573
859018
877515
876775
874835
869877
859632
856441
828595
833139
796915
803228
779875
783780
775891
778954
784361
791982
794133
806938
809695
817756
819752
821433
821579
821455
820710
820936
821756
822189
821924
822986
889387
886633
886227
884342
881943
879153
872160
863515
852144
844553
825280
822757
814090
810319
819994
819634
841620
841823
861636
873097
883436
897002
905650
912940
915797
918648
920612
920732
920425
919768
871838
869965
872723
873548
872791
873363
871114
865952
860829
849347
841871
835328
834346
833866
829193
845675
850690
867542
879904
890275
896767
899977
900542
900931
900230
897789
896387
895167
892913
892023
866604
867194
867431
869380
870486
872633
872730
873146
872270
872877
872120
873980
875106
876174
877913
878156
877984
876703
876345
873038
872348
868410
868474
869616
874265
884793
894160
905452
914254
920997
887262
889053
890430
891261
893397
895246
895437
893535
889299
884164
878132
870160
868244
868926
868390
870217
872984
875831
877928
878322
877473
877132
875237
874018
873225
873180
872229
872649
872446
872985
832032
830561
829746
829063
827713
828349
825754
829551
825635
833076
831422
838958
838509
841546
956420
955838
955507
954340
953916
951332
949145
939947
942619
925245
927091
903883
911695
879580
891097
857370
869389
838767
849849
824977
835315
817101
824981
814429
817330
812110
815306
814373
812013
806567
836734
836032
835062
842359
837486
850767
847676
859109
860999
868412
871406
876256
879900
882124
884029
885020
884780
883255
881003
880838
881125
885987
891775
901893
909266
916962
921906
924443
926042
927037
858589
857911
859630
859028
860509
860218
859558
857387
851461
845445
834555
824070
806461
798874
773442
779103
760248
764571
772169
783803
789000
806471
814795
821700
827671
829253
830972
831631
833347
833628
849873
850190
848534
844571
840493
829187
833241
812837
818660
801531
803952
797496
803102
798213
814594
815674
830028
838493
846239
852843
856754
857459
854881
850548
843934
838763
832116
831211
827737
827461
826254
826225
825429
825691
825167
826730
826769
828164
828156
826763
827097
821231
816741
811191
804078
796832
796808
789352
791403
789418
796457
800300
810079
818579
828482
834471
840102
842612
844811
844710
865626
865466
862713
861717
856669
857278
849417
849018
838596
841344
827623
831861
817562
820819
808423
808722
803822
797768
800772
799000
801597
805103
807916
809060
809877
809384
808443
809752
810530
810253
844732
845668
847771
847999
847967
846255
842751
839214
830610
823435
819295
816204
812325
811352
820608
820161
822883
836657
843975
847633
853815
857858
858842
858953
858127
856754
855765
857841
857991
859435
876236
876323
873540
868345
854310
850180
826232
825557
790096
803799
769534
781851
769237
777774
776428
787035
789650
801136
805254
813573
817295
820520
821439
821605
820905
821056
822129
823003
823812
822755
886950
885609
885904
883757
881610
876543
868104
860507
844587
837066
819219
819163
801040
809726
801297
821990
817500
843405
844108
860268
874197
890185
895249
909404
912852
916025
917534
920060
919201
917485
867835
868941
871020
872461
875676
872957
869741
864647
853061
842836
831630
830043
818334
815641
828459
824834
841567
850269
864773
877332
885896
891885
896769
899153
898935
897926
896243
894412
893466
891094
874453
875743
875918
875520
875757
873477
873795
872583
872483
871522
872325
872136
873249
875615
877249
877794
877370
876168
875283
872159
871585
866671
868364
868653
871038
880627
892364
901700
911220
918445
888234
890375
890581
891816
893526
894180
893644
890301
886098
879702
873279
868165
865720
863876
863774
865886
868291
871267
874142
876297
876991
875699
874353
874123
873413
872255
871983
871678
871341
871277
826996
826668
825709
824169
823682
822487
825495
824428
831012
826446
832780
828349
832938
836158
953866
953612
953286
953279
951781
949365
946409
940304
939741
921540
925550
903975
904231
881275
885691
857681
864481
839237
845337
827007
830368
820275
822721
818498
821342
818166
813644
809765
811831
815643
835368
837777
839621
842973
843500
850702
852064
857732
860603
867257
870900
873493
876502
878347
879107
878846
878394
877923
877016
875267
875482
877305
883887
890773
901317
907944
914440
918200
919127
919824
860982
858577
858711
859311
859190
857929
856183
853075
846204
838617
829555
815998
793894
798821
767134
773241
757206
763802
757275
782320
780707
797524
809678
818025
823569
828346
829069
831011
831923
833894
849920
849369
848199
840918
838654
831067
825673
811804
816267
797867
803713
794225
793628
800187
801429
812903
819697
828960
837681
844069
848476
849811
848677
844863
839490
834790
829416
825314
825125
822721
826351
826459
825706
825247
825848
827976
828181
830481
830743
831224
826589
824337
818341
810088
808738
795959
799876
786694
793039
789095
794828
793103
806520
813018
820800
829033
834053
839471
841331
844657
865063
863290
863480
860230
859052
854553
852600
845638
842816
837850
828552
825811
821913
809246
806598
805033
794226
796703
790079
794590
796482
800170
804262
806742
808067
808803
809497
811469
809762
809686
845959
845814
846969
847534
845374
842609
839596
832424
821829
819280
812890
807021
803006
798197
800049
817235
817421
822651
836654
843734
847384
852029
854586
855278
855796
856312
856958
857043
858540
857926
876142
875146
870068
867042
850575
841138
824304
814208
792074
788172
771360
767945
769739
765799
774383
778506
782628
795508
800002
810234
813964
818887
820758
821221
820795
821613
822820
823828
823404
824729
884330
884253
884313
882255
878989
871535
864959
853554
834556
832416
811432
801057
804054
790965
803273
793515
818500
812245
839206
842164
858056
879948
891434
898383
909165
910516
912614
915056
916400
915803
880318
879245
878936
877782
876655
875901
866500
857270
846010
838961
820994
813572
811956
811945
800825
815926
821042
835478
845738
858985
872928
883096
890163
894365
896534
896676
895088
893553
892441
890231
871013
870795
871261
872313
874229
876250
874068
873263
870846
871250
868751
870391
871273
873980
875419
876635
876776
875518
874418
871294
870938
865631
865751
868725
869606
875333
889126
898764
906840
914670
889579
890202
890821
892297
892901
893035
891467
887050
882239
873584
867171
862836
854676
852531
853978
858720
863053
866521
868718
871700
873210
874167
873930
874027
872789
872483
872139
871372
871488
871249
838727
838111
837206
837279
836782
837011
834839
839731
836068
845785
843775
852804
853589
845996
950114
949902
949990
950612
949225
946101
945862
938369
932674
921109
923414
897825
905615
876894
885260
853880
865389
835230
846805
824050
832652
819319
823804
818602
816447
815338
819916
824597
823359
817054
843766
842149
842494
845482
845844
852415
851106
860052
860362
864146
868579
870945
871707
873237
874195
875320
874983
871731
866797
868311
870066
872964
875602
882597
889518
899983
904841
908616
910708
910746
860574
860009
858832
858148
857843
856516
853042
848984
843556
831902
818846
815695
792404
785067
765016
765095
748157
756511
755679
774637
776209
793020
802167
816167
821702
825242
829797
828668
831022
830009
849854
848885
846536
838922
837638
831109
816475
816395
810836
794989
803006
787810
791366
787660
799642
801108
811156
818367
826367
833526
838817
841835
841571
838573
835321
829963
826428
825640
822199
823563
826547
826461
825808
827046
825791
828909
830617
831255
832497
830876
831039
824408
821214
812421
809526
799314
799849
786973
791944
785546
791208
791791
801792
805607
815582
821410
829883
832743
836594
836920
861278
862110
860093
860481
856159
855794
849258
849221
840703
837594
825643
826340
820684
800919
807208
792446
792211
784996
791721
790883
795125
796766
801439
805235
806516
809608
811961
810224
811272
812674
846980
846273
846280
845494
843605
839982
833434
823022
818394
813257
801092
794253
794642
797780
797889
799039
816457
815650
825236
835749
841855
846057
851766
853998
854811
855081
854743
856567
857951
860155
875726
873593
867575
861483
848947
833148
816478
811655
779235
787899
757859
769403
754393
762120
759412
775463
775765
789705
793064
807273
810164
816911
819818
820537
822070
823199
824912
824524
825460
824744
880756
880654
882165
879449
873756
868674
857650
842009
830997
822282
796468
803957
781018
789210
776449
796117
785902
811916
814350
830519
849710
858157
885278
894087
898867
909395
912150
912786
915572
916176
877040
879587
881535
881132
879965
875521
865508
849654
839983
829552
800122
799375
785727
778256
797548
783623
799129
812473
830115
843959
857896
871621
882789
889800
895803
895307
892812
892426
891507
891274
881921
882902
882496
881347
879463
876407
875817
872254
870029
866518
865182
865508
867378
869958
872861
874662
875652
874848
873157
871115
870598
865026
865773
865611
870153
872565
884057
896695
902685
909285
889371
891486
891966
892249
892803
892120
888867
883324
876882
867184
858669
848846
843452
842908
843758
845708
851631
860073
865411
868969
872102
873536
873755
873378
873131
872629
871967
870946
870463
870113
833948
833561
832317
831818
831133
832331
836249
834931
843818
839351
849393
844180
850116
868138
947703
947705
948374
947735
946535
944581
943600
932123
933335
920133
914866
898553
903174
875449
883145
855454
861904
837232
844830
826339
831218
824681
826598
823414
827278
829486
826185
819446
818974
827483
846107
846534
847675
849897
849548
852697
854415
855489
861954
862343
864359
866134
867298
867715
868716
868189
868244
869645
869007
859722
857426
861245
870226
875246
886290
889941
896830
898298
901871
904881
860919
859691
858676
857881
854743
854636
850288
843192
841056
830664
810087
810309
788646
781583
757837
766726
750710
758281
752521
772446
773878
788654
800121
811970
820630
824726
826516
828273
828733
831464
851246
848471
844618
839054
838620
823981
819167
818182
801680
799153
792481
785613
788082
789449
787533
796803
801576
808764
816344
823448
830846
835570
836605
834859
830231
827247
824166
819142
821034
819014
825468
825506
827249
825687
829919
828444
832469
834619
835074
834898
830749
828808
821928
815818
811857
801394
801046
788754
789183
785182
788117
789867
793473
801986
810587
817248
824217
831310
834450
838610
860785
858875
860232
856866
857084
852259
851949
845109
843021
833829
827720
824204
813867
798631
803805
785623
785890
786798
782529
784812
792238
794048
801995
801287
807964
811275
810703
814286
815774
812829
847310
847108
845863
844370
841030
836396
825711
817712
814182
798865
787663
790509
784911
787316
791126
791191
805140
810051
821214
827387
839312
842611
848492
851850
852993
857851
859687
860318
859917
860982
875531
873328
866032
854451
847717
832987
804211
807594
775144
776014
759446
755152
755789
753138
757144
766112
769365
786577
787542
803965
807490
815157
818107
821625
823080
822938
824117
825998
825888
826408
875293
876449
874600
872520
870152
861712
847728
839107
822461
809037
797441
787648
776235
766850
779363
767111
789744
779159
801610
811538
837309
852357
867869
887952
896553
895784
903290
908145
909417
911965
888376
888285
888513
887218
883573
876325
861071
849728
836377
809378
797978
797724
777900
783220
770089
789779
792145
793583
812064
823038
846044
859762
875984
883190
887814
889859
892515
891829
892547
892546
879091
878670
879478
880405
880977
879661
874289
872837
863488
863263
859279
863015
862432
864557
868983
872477
874657
874526
875006
871549
872705
870470
867512
866650
868338
876422
881557
893821
900873
904478
890781
892805
892702
893026
892445
890672
886224
879590
869911
861340
851214
847417
845225
844469
841467
842899
844723
852476
858271
864865
868553
871749
872344
872974
872864
872163
872285
870620
871045
869816
845408
844460
846400
844496
848140
846605
846344
852208
850455
860673
858301
866793
869877
860352
941538
942778
941972
942946
942038
941997
935981
931773
931929
913463
915649
898480
896784
875870
883108
853967
863984
837139
845658
829645
832686
824478
825498
825580
824155
823031
828423
835373
838570
829931
850081
850082
850252
850284
851116
854087
854504
856109
857301
862220
861482
862806
865798
867678
867914
869384
866777
860750
857939
860901
863045
863085
864947
872692
873475
884397
887358
892979
894014
895213
860858
858543
857760
856777
853807
850616
849060
842398
833225
832720
811183
801871
791103
780539
761207
766462
748886
757456
750787
776374
767489
791280
794991
813381
816121
825427
826646
828628
827580
824658
851871
849249
843821
839043
837002
820853
824469
811385
796975
800831
785919
786151
776003
774300
782839
782285
792011
798429
807398
813616
821436
826040
831134
831296
827927
825299
820620
820874
817826
819997
826008
826022
825925
827441
828906
830326
834890
835477
837180
835583
834061
828753
825922
819173
813092
807092
799702
791182
792538
785596
785928
790092
790280
797060
811138
810887
824631
827356
833660
833200
852238
854792
853057
854577
851157
852738
847700
846052
839306
835693
826130
825643
806565
802863
795464
781420
782522
782785
785611
784120
791250
797191
795961
806693
809427
810238
814009
815549
813444
814095
846713
846537
845203
842968
838725
831860
820798
813251
808369
791193
791653
788335
782108
780179
791488
787139
804432
802826
819291
822596
838752
841744
847701
854003
858488
856687
858902
858887
860957
864322
876270
872482
866215
851232
842242
834331
802027
802381
769897
777998
747185
758848
744394
754753
747709
767142
761737
783965
784917
800986
806941
813239
819259
822774
824109
829474
828338
826293
827221
826451
875769
875088
873132
869844
863125
851169
845748
829332
812406
809278
783945
776615
766693
769937
755367
770662
761885
779291
794079
798476
819883
847539
863804
873916
890353
899455
896916
905318
909904
907618
891716
892552
892659
891647
887592
875918
861331
846504
831281
794215
798545
776462
759895
746719
754164
746652
769344
774443
810410
807493
836961
848703
870851
877503
886856
891039
891916
892450
892894
892232
889935
891268
890586
888275
884653
881400
874349
870974
859545
860174
853982
850775
855744
860128
867413
868960
873149
875763
873683
872094
869552
867833
867166
868530
872612
877554
884992
890005
899261
902730
892420
893527
894094
893797
892416
889221
883820
875157
864378
857069
846423
839020
832133
827225
830484
836557
840048
849385
851413
861016
868293
870497
872173
872902
872855
872082
872092
870553
870359
868733
844445
847148
843510
845730
844328
847779
850539
852484
857121
857073
866716
865788
869151
882565
942590
941790
943088
942813
942628
935865
935093
931554
922996
912265
915770
893918
898291
876296
880181
856172
864856
839557
848671
829928
838067
829999
834107
832148
836046
839547
835893
833369
830567
842380
856188
854220
853446
853636
853088
853261
855375
855286
857442
857443
861759
861124
860362
860680
861076
860500
861552
863664
862741
859707
860056
859551
867194
865749
875833
875123
882563
884699
882111
876120
858815
856902
856144
853652
851655
849555
844312
844535
832094
825684
820866
799209
791778
788417
762717
765530
762522
765405
758018
776758
771754
783694
801360
806357
817787
819658
823854
821181
822535
824006
858992
851331
844874
837318
834859
825444
815213
810235
800314
792061
789408
775524
778065
777515
775454
783159
783120
792861
802859
807083
816608
824902
825884
826798
828009
822931
819870
819049
816677
816710
824796
824404
828716
826054
832269
832735
836428
838537
838591
837274
836934
832481
829422
821340
819513
808596
805580
790894
791652
782322
783852
785708
789041
797976
807377
815006
821483
829004
831744
834194
855568
855578
855783
852882
853355
848467
847321
842156
840593
833924
826902
824994
808134
802662
794806
783961
782743
776863
777381
789792
788796
794455
801632
805170
806781
815795
821567
819365
820876
821357
850815
849824
846431
842106
836252
827970
818831
811589
802567
791402
782568
782889
778711
781643
785838
788139
795903
811557
811822
828009
838419
841170
852875
855792
859738
864996
864822
863972
862345
864523
882202
873642
865223
854175
837107
829236
802085
803475
766036
777925
745184
755574
744646
750809
746276
766331
758709
783273
783424
800636
805800
814719
820623
823190
829769
827777
829261
828017
824802
825071
871397
870217
869400
860764
852640
849988
833238
821378
814130
796808
774099
782264
761127
751150
759019
748561
770281
759718
792785
788717
817121
828011
858606
870092
878450
888706
893153
889675
895022
905370
903058
902964
900230
895746
889298
876497
860671
844352
824261
797352
794466
770722
757019
754952
754706
753740
773815
761235
801396
801797
840928
834902
867779
876428
881231
888673
890714
892631
893121
894136
890786
891040
890098
890323
887901
883399
874470
870774
853203
854442
848119
852522
849074
858806
861616
866779
874665
875645
875838
878710
879535
874548
877296
878157
880569
882948
890846
893813
896452
901081
891625
893977
895368
894692
892290
887985
881291
872316
861221
852819
842252
832720
824283
825401
823042
826789
839471
846749
847293
861641
866411
869003
871492
872680
871894
871651
870327
870152
869211
866938
850900
848040
852119
854602
855929
857556
861032
859801
868516
875243
873766
882078
888458
894724
904644
910678
920610
926466
930088
933439
931604
932566
933048
924956
919279
915623
909378
892890
899242
874192
881194
856757
865552
842711
849955
834722
838501
831612
830921
833296
834555
836628
844446
847004
850542
845765
854423
841992
850745
851870
852645
853167
852803
853601
854195
855922
856164
858220
857704
858665
858773
860100
861973
864060
864342
861831
861202
860363
864001
863139
863991
869912
869773
876653
873185
868260
868160
877563
838363
853534
859575
855708
855594
852226
850403
847593
844417
840769
838662
824852
824701
810767
792119
796550
779417
775310
758920
759553
763046
779465
771814
790016
798047
809032
814086
822195
824945
828087
827477
828106
830065
845568
842457
841860
838875
837836
831773
820028
813733
807987
801788
784938
785076
774392
776932
768162
770943
774993
778338
789226
796854
804584
812911
821085
827030
828437
825583
821781
820688
814173
809143
811479
807542
802105
819746
822296
826672
825411
834302
831553
838638
838254
838997
839564
836055
834617
831833
827834
820114
813089
807963
800287
797194
793229
786952
793108
792409
804423
812712
817341
822752
829400
834191
836015
832050
829165
838801
841500
842358
845204
844437
845600
842580
842989
837667
834774
828053
825009
813065
802783
803868
792651
781183
790667
796211
787421
794740
805658
810266
813503
820886
819721
818191
821961
823854
825855
826664
822825
835622
836714
837658
836334
832215
826519
817169
810706
799882
796003
783221
784713
784216
779609
786038
793018
797983
811651
819321
831574
839736
851429
856655
859790
865721
869097
870641
869300
870147
872617
874546
888029
876024
871532
864169
854930
840389
821388
807263
804470
765475
778625
745269
754300
747756
753334
745407
764210
762292
784197
784176
802715
806447
817731
821760
830669
831847
836945
834349
834688
829931
825563
826687
801262
840685
848011
847313
847021
849844
837572
826278
822311
805814
786388
784944
771459
750479
758173
744447
749922
757000
767291
776638
784633
825055
817505
845617
866908
878408
880258
892442
896739
893314
892131
891351
877561
889576
890829
892170
892249
887037
875938
862255
841196
821941
797653
795604
760302
763317
740917
749547
740959
772405
760147
795741
798554
841811
833894
859998
878770
881223
887663
892733
894189
896853
897640
906865
902629
899809
899374
897884
894871
890901
885168
874366
872244
850776
855114
842629
842504
845213
854327
858693
868156
872964
875671
878382
878939
876489
880636
879861
879746
881900
887221
892271
896455
895641
896673
877294
892827
890740
894219
896923
896417
893314
887590
880309
869470
860099
849205
840969
831350
825457
827416
824129
830192
837728
841681
851182
861842
865294
869326
872179
872301
872204
871969
871199
870685
869501
868365
868523
867354
852898
855869
857612
855878
858013
862320
861642
870791
873026
873137
884773
885756
897151
896570
908182
915208
927826
929641
933615
933807
934726
933609
927058
920789
922512
910609
904678
897405
895193
874940
882027
860738
866610
846716
851221
840511
839452
840492
843016
842435
846245
849281
847977
849553
849206
848845
852190
851569
855878
853672
853133
852935
852436
854270
854399
855529
856974
858285
858872
860388
859915
860807
861628
863474
862997
864509
863783
864364
863833
867307
868023
867967
872168
870546
873993
875857
869156
866508
853810
853033
856604
856245
852184
850801
847630
847065
843058
841965
839138
833675
825826
818840
806964
798739
789229
786504
787203
778688
776863
775220
784144
788326
803366
803442
814282
814620
817005
816058
816286
815352
822870
831740
833999
833355
835403
831375
821876
818855
812410
806038
794320
789473
778635
778524
770209
769340
772797
771333
779544
785825
796076
804805
810842
822180
825034
827057
825453
824450
818902
816825
810533
812193
808024
804058
820080
818886
824510
823996
833996
830920
838048
838964
841319
840940
840115
838671
835091
831877
828733
821789
816902
808978
803248
799845
804272
801521
809407
809182
809605
818335
828757
832929
834746
836151
833706
830250
843806
842633
844731
844862
846611
843586
843246
839378
839053
834546
827588
827153
825689
807386
800240
807318
799205
789952
789343
804484
808640
806044
809233
814772
818952
823595
829439
831221
830776
828210
829084
827238
835928
835577
835816
834342
832172
827995
818344
813925
801722
798549
786644
786540
779595
784347
789935
794459
808165
818824
827394
836906
849021
854069
861505
870207
873999
873605
871704
870490
868625
871126
871804
878883
873466
870546
862659
856716
843346
823020
808137
809239
767407
781226
747944
759304
744766
754387
748471
770490
767052
786642
789064
807691
810064
820344
828353
831582
837562
837769
839279
834686
835431
830824
828428
825345
840081
837383
838863
838997
833807
829598
828841
816040
794859
798790
779975
757264
761622
753314
750232
746667
760808
756889
786839
777690
820562
820494
840238
855023
871197
875765
870464
877309
883858
886395
882970
880421
890084
889918
892650
892008
887229
877807
863610
841477
824629
804978
793381
759100
770857
739148
749262
742702
772372
767225
789470
810587
834439
848483
857870
881623
880490
889717
891386
895218
896128
899283
906635
904551
901821
901943
900897
898644
893669
887915
876207
874387
850529
855270
840514
845719
841623
854015
860542
867890
872838
880331
882693
880253
884274
885560
885781
888510
891104
896560
897888
901915
900756
898613
888255
895736
894739
895954
896799
896018
892713
887411
880089
869165
860138
850285
843450
829499
824167
824022
825333
839124
837303
846724
855017
861255
865660
870637
871879
872677
871774
871446
869888
870216
868769
867767
867812
866773
858933
859572
857613
862714
865865
864365
871923
876061
874105
886507
885521
894320
895986
904843
907046
919368
925353
927989
928304
927698
927165
924566
921224
923502
916006
906731
908642
898020
887772
878846
881895
861177
868456
849978
855091
843221
846036
842038
841619
844548
845552
848006
852957
855234
854422
852475
854318
854401
857355
854464
853121
852978
853849
854053
855092
856046
858275
858473
860154
861026
861780
861673
862596
863422
865117
865267
866390
865711
867332
868303
870009
870295
870521
871588
868231
862628
861651
863093
859605
848491
855158
851897
850448
846266
846917
844144
844583
842754
841343
838844
834024
827511
818454
809614
800203
793861
788222
788967
783388
786600
786342
798344
797056
807024
806314
813127
810282
810111
810044
814612
813138
821749
824036
829647
828023
820070
818954
816023
809282
801792
795300
792007
782499
780441
770623
773403
771332
773651
786625
782614
799811
804072
815122
820163
825630
825451
825481
820666
819627
815473
811643
812506
810561
809251
817647
818473
823912
821710
833175
831125
835940
840901
840551
841097
842469
841956
838203
835003
830243
825495
820308
819331
816651
813357
806835
809113
805089
812586
820306
829665
831184
832752
835684
834896
832019
836295
835006
835349
835066
836828
837313
839702
839097
839759
837659
839297
836304
827586
826229
828263
811349
804554
811137
808654
815247
810256
809925
819633
830012
829946
830161
832425
831316
827596
828028
829541
832260
829345
833968
833055
833469
834114
832030
828941
822203
816210
807659
804699
799395
794902
794537
794564
795636
805006
819657
826446
839494
853886
858041
867454
875423
876739
875511
875462
875316
871477
870515
870300
872175
874576
872633
868995
865013
855101
849032
827889
814176
806513
777898
774503
761268
756881
755882
756985
757875
773997
771698
793051
796283
811426
816362
827538
832874
837769
839722
841231
838349
839346
833872
834357
829915
823283
836006
832865
838595
837600
831137
831115
821124
806944
806547
795534
770483
770741
757867
755315
748244
746751
763644
763563
782242
792980
806836
823424
845883
849839
857446
871480
877753
875428
880037
884818
880177
880298
886247
887344
889672
890112
887417
878902
865771
845466
831837
811425
790498
776137
774303
753650
751106
761416
780958
773782
799376
815036
841108
853318
864701
880986
885539
890708
895029
896360
899468
900499
906915
905969
905558
905021
902954
901492
897138
890167
880215
876839
856965
857519
844688
845354
843155
859648
859102
867218
876723
882964
882126
885978
886541
887194
890389
892488
896001
897896
901577
903021
904804
903850
891214
896991
895536
895444