/*--------------------------------*- C++ -*----------------------------------*\
| =========                 |                                                 |
| \\      /  F ield         | OpenFOAM: The Open Source CFD Toolbox           |
|  \\    /   O peration     | Version:  2.1.1                                 |
|   \\  /    A nd           | Web:      www.OpenFOAM.org                      |
|    \\/     M anipulation  |                                                 |
\*---------------------------------------------------------------------------*/
FoamFile
{
    version     2.0;
    format      ascii;
    class       volScalarField;
    location    "0.005800000";
    object      Tu;
}
// * * * * * * * * * * * * * * * * * * * * * * * * * * * * * * * * * * * * * //

dimensions      [0 0 0 1 0 0 0];

internalField   nonuniform List<scalar> 
12384
(
872.87
850.363
833.669
824.134
823.998
824.967
826.37
830.99
828.195
834.19
833.257
845.422
918.008
947.8
580.735
560.711
577.867
600.663
606.874
615.717
613.106
629.781
628.877
629.448
639.947
620.739
634.398
606.212
620.948
589.227
604.853
574.342
588.72
562.671
574.581
556.552
565.507
554.488
556.596
540.738
507.042
458.754
450.982
457.423
433.842
456.534
468.911
485.552
492.696
517.425
523.707
542.012
544.106
551.815
551.803
557.166
558.9
561.359
563.859
565.382
566.528
566.398
565.363
567.375
565.315
575.408
581.876
593.025
603.378
599.284
570.631
562.808
569.549
574.18
457.995
467.947
447.295
430.85
428.042
423.432
423.183
421.717
418.289
412.745
404.76
389.954
388.608
363.962
356.88
352.092
336.575
332.184
352.718
349.507
377.912
385.057
401.444
411.862
408.046
385.012
380.636
378.912
382.535
383.801
364.701
378.446
391.572
400.931
407.526
407.79
397.376
397.581
400.139
386.083
394.15
386.417
395.71
385.902
412.371
407.74
434.337
444.092
456.415
463.096
464.991
457.075
451.725
450.306
432.26
426.272
417.809
419.021
412.375
412.143
387.69
405.21
384.791
378.053
371.551
378.469
379.796
392.382
397.571
406.137
408.295
405.729
401.706
396.891
391.46
385.242
384.533
380.432
378.313
389.644
392.125
399.111
412.751
430.529
440.216
448.568
441.043
424.34
432.972
435.91
346.332
326.325
290.241
282.381
294.813
314.447
324.051
329.716
326.406
330.271
318.225
315.453
312.59
302.57
303.893
293.851
294.255
288.617
290.818
291.462
294.334
297.815
301.199
302.932
274.941
274.805
285.678
288.995
289.397
291.027
346.428
354.035
365.406
379.814
390.697
396.481
399.021
397.829
394.631
391.875
387.902
384.664
384.413
382.205
382.433
396.827
401.494
402.401
407.3
409.514
409.646
408.417
411.183
433.901
443.663
436.108
428.079
425.239
426.642
427.228
396.589
409.352
420.47
431.782
427.463
428.771
402.848
409.187
371.393
381.488
350.242
360.719
346.553
355.122
353.144
368.149
369.372
378.258
377.935
374.475
353.668
338.288
335.931
337.592
340.503
343.887
346.39
343.411
339.697
335.846
431.162
401.249
389.365
390.037
396.376
396.476
391.688
384.15
369.606
362.245
336.992
341.298
317.711
328.563
318.515
341.955
335.806
365.369
367.53
395.701
403.212
422.138
418.196
402.078
403.736
407.087
411.603
413.422
412.561
410.128
309.318
330.687
339.601
344.044
346.354
345.702
343.798
337.22
334.607
319.748
327.159
303.133
312.007
307.132
323.606
320.263
347.908
356.06
368.86
379.127
386.789
384.578
380.142
374.475
370.926
368.161
364.129
363.047
362.608
358.7
270
270
270
270
286.832
306.149
305.023
299.845
296.896
293.923
290.471
290.489
287.042
289.217
286.618
289.036
287.91
289.333
290.03
291.276
291.747
293.281
297.159
298.62
308.11
318.692
331.362
346.93
351.128
270
287.692
287.005
294.455
297.593
296.258
270
357.684
432.658
432.828
430.683
427.467
425.657
426.99
425.427
428.102
430.525
432.932
434.967
435.485
435.303
434.496
433.074
433.11
430.21
429.157
427.098
422.316
404.527
336.413
270
768.589
772.758
789.839
816.426
834.503
848.504
860.709
872.078
875.669
863.57
852.23
842.879
888.794
940.763
576.913
568.58
599.653
620.566
627.255
639.957
649.748
664.52
672.137
666.642
667.958
652.715
659.414
640.301
647.986
626.848
632.91
611.106
616.093
595.785
599.099
583.875
585.016
574.552
571.038
557.726
532.431
486.063
455.323
458.686
432.008
460.435
474.119
498.533
515.229
538.01
539.747
550.581
540.321
538.027
532.992
533.598
535.204
538.951
542.736
546.672
548.776
549.68
549.944
550.677
552.676
558.04
568.142
578.216
589.265
596.435
585.233
563.504
559.44
564.346
458.603
460.085
429.749
416.696
415.458
417.03
419.541
420.027
418.398
414.616
405.93
399.88
387.116
371.968
361.362
350.497
348.185
343.893
347.953
356.551
366.107
377.098
388.993
404.024
413.163
400.175
382.723
380.008
388.821
387.8
399.211
419.94
428.153
427.91
424.618
419.165
411.985
397.19
405.14
388.598
384.957
388.541
389.957
394.745
406.834
415.98
429.89
439.131
451.877
460.896
466.849
462.954
450.665
448.116
429.673
418.862
410.645
407.656
406.231
406.479
391.752
401.593
380.069
374.607
375.511
388.17
400.025
414.602
419.207
419.045
408.359
399.17
387.115
376.429
369.681
361.595
359.614
356.579
359.091
362.665
369.975
382.834
398.31
417.457
432.692
447.257
448.299
433.871
423.726
433.283
340.32
312.673
297.164
326.558
354.534
361.311
353.742
341.612
322.686
311.628
293.555
292.274
278.206
277.08
274.622
270
270
270
270
270.955
276.73
283.678
289.842
297.164
290.083
273.887
276.16
275.937
277.822
283.69
374.912
387.262
401.589
411.117
416.465
417.502
414.75
410.019
405
397.754
391.001
387.666
387.404
391.078
389.89
390.516
402.158
407.445
409.129
413.214
414.53
412.219
410.154
420.856
436.607
420.001
404.825
404.89
409.133
413.664
427.421
444.291
453.286
449.897
439.98
428.344
404.376
398.658
367.355
366.967
345.414
348.827
342.088
345.01
351.19
358.255
362.175
373.409
377.145
380.96
368.54
348.368
340.034
350.059
362.384
368.096
368.38
365.299
359.13
353.139
421.887
388.685
391.23
414.236
417.67
408.333
389.39
368.487
349.861
332.525
312.389
305.192
293.273
292.35
296.112
300.215
320.309
328.292
347.656
363.459
380.791
403.262
421.109
418.441
406.976
416.363
426.287
428.823
426.911
422.863
316.573
340.046
350.597
352.253
348.142
344.136
338.565
332.345
326.032
317.408
308.263
303.635
301.777
300.927
299.957
317.135
322.234
337.489
348.534
359.142
373.46
384.277
384.932
378.738
369.146
365.104
363.391
362.203
358.998
356.934
270
270
270
282.49
298.68
300.015
292.799
283.616
277.042
270.133
270
270
270
270
270
270
270
270
270.539
275.328
282.87
286.019
290.763
293.96
300.372
312.984
325.315
340.873
352.164
298.367
284.079
289.815
270
278.857
270
281.708
413.378
438.809
436.716
438.367
438.666
436.568
437.633
439.298
438.707
438.872
438.788
437.853
435.816
432.532
429.15
428.627
428.019
431.848
432.843
430.933
421.184
400.384
337.799
270
770.988
797.479
836.434
864.243
857.496
849.618
847.829
866.248
889.651
914.322
900.601
876.347
886.54
948.51
572.564
581.704
619.11
634.904
649.618
672.773
686.441
688.521
684.026
670.775
671.787
665.062
681.193
671.606
690.963
675.509
686.636
659.734
658.639
628.878
625.264
604.343
603.493
592.453
587.585
577.198
562.058
524.044
475.399
457.514
440.04
465.559
481.372
506.627
520.014
541.839
539.61
535.539
520.128
513.306
508.27
511.141
517.076
525.972
534.702
541.637
545.41
546.139
544.961
544.827
544.5
549.2
555.84
567.192
577.859
587.036
587.258
568.858
553.361
556.813
456.663
448.31
420.729
413.788
417.948
421.888
423.215
423.145
420.37
418.559
411.129
403.514
388.001
381.176
358.1
364.317
346.66
350.379
353.947
362.838
363.103
374.584
379.947
389.204
404.729
409.85
396.627
387.836
398.937
392.42
445.024
439.872
433.359
426.306
418.575
408.163
408.719
391.678
396.117
383.507
384.256
382.308
387.571
387.05
401.945
407.968
423.407
434.256
445.001
453.855
462.15
462.473
449.824
443.303
427.865
414.318
402.407
397.574
397.456
403.145
394.697
396.241
378.257
379.114
386.298
402.296
410.114
414.742
404.085
386.3
374.773
364.761
361.082
357.885
354.225
351.875
355.719
352.667
358.173
358.262
368.054
373.392
388.674
403.071
423.12
439.867
449.892
442.11
424.962
423.833
328.563
308.091
333.72
369.303
368.272
354.872
328.327
307.959
286.96
283.899
270.925
278.617
270.081
280.109
272.368
276.056
271.068
270
270
270
270
273.902
279.333
286.596
291.704
281.049
272.56
276.255
275.456
279.728
384.596
398.585
413.404
417.837
416.971
412.006
406.155
401.57
393.55
387.752
385.07
383.387
379.382
379.574
388.537
389.451
391.058
403.535
409.102
410.55
413.756
413.682
409.636
410.582
423.817
415.523
399.468
400.005
402.995
410.904
454.18
459.892
454.833
440.498
420.484
408.018
384.206
378.436
349.419
356.265
328.917
335.376
326.125
334.399
336.309
347.337
353.836
365.573
371.295
378.43
375.316
359.885
344.711
352.446
369.794
373.496
371.098
367.792
365.831
360.164
401.813
381.219
422.14
434.65
418.852
389.786
363.752
344.236
323.62
311.731
298.167
294.734
282.663
286.746
281.877
295.058
295.817
315.757
321.176
336.836
357.227
384.127
403.808
421.505
413.883
415.772
428.719
434.333
433.269
427.691
329.182
349.644
357.246
353.992
347.971
339.708
334.475
331.315
319.803
313.006
302.657
302.862
292.813
294.058
302.812
302.3
318.059
323.238
332.404
341.299
352.257
367.378
379.707
381.972
371.31
368.25
369.512
368.475
364.288
357.665
270
276.324
290.92
300.854
298.988
288.499
281.182
276.538
276.419
276.757
281.161
283.381
282.084
279.631
271.316
270
270
270
270
277.312
288.139
292.155
296.409
297.747
299.608
309.009
322.025
335.48
348.899
319.575
347.01
354.467
305.691
270
270
390.033
436.062
441.967
444.793
448.061
449.546
450.236
450.593
449.525
448.997
448.625
446.651
443.697
438.882
430.792
418.69
404.168
393.593
395.671
404.268
405.93
395.33
373.856
315.765
270
777.582
816.606
838.671
806.936
760.267
724.535
722.141
748.364
822.231
887.36
923.337
891.429
879.795
933.036
570.181
594.147
634.435
656.349
683.772
709.242
707.068
692.381
678.699
668.218
681.196
691.863
711.991
727.199
748.542
748.55
759.591
739.774
731.484
697.734
673.944
642.938
625.348
611.42
606.652
598.374
579.78
542.692
490.449
464.887
439.353
466.352
483.29
504.746
526.48
543.745
540.727
526.673
508.118
499.552
494.17
495.41
503.107
514.92
527.226
535.757
540.048
540.217
537.426
533.607
533.675
537.388
546.134
555.441
568.003
577.941
581.983
570.177
549.735
548.57
457.413
441.25
418.039
417.37
423.123
423.654
422.154
421.259
418.955
415.43
409.244
395.738
378.205
384.824
360.05
367.271
355.65
359.854
355.782
373.176
366.222
372.375
377.556
382.19
393.456
407.605
405.43
397.748
407.559
399.301
443.346
435.493
429.91
421.989
418.382
412.437
406.59
398.116
401.51
391.849
399.351
396.471
399.561
405.4
408.092
418.442
424.163
432.463
440.926
448.677
456.273
458.665
449.453
435.839
426.213
411.474
396.546
388.714
389.602
397.913
396.513
392.763
379.747
385.335
393.819
404.122
403.514
393.833
374.937
367.27
363.601
367.73
370.953
372.881
379.916
376.095
386.983
381.773
393.98
394.022
399.81
395.296
404.053
408.403
418.581
434.677
448.053
448.253
428.244
420.825
321.144
320.984
372.62
376.957
357.631
327.499
303.393
285.284
280.794
283.209
287.862
303.034
313.73
315.881
323.568
325.378
316.884
310.71
295.979
288.058
278.569
273.901
274.063
278.089
285.543
287.862
278.534
278.6
273.252
275.423
391.45
411.282
418.807
416.573
409.285
403.381
400.609
394.987
388.465
388.807
385.337
380.996
379.533
373.556
375.41
389.909
389.732
392.484
404.702
409.878
410.978
412.642
409.978
407.079
413.603
413.81
403.966
400.238
401.221
409.317
465.158
457.577
440.785
425.262
402.943
391.529
380.423
370.051
354.129
349.626
335.074
334.618
332.901
329.521
335.778
340.502
345.509
357.238
365.142
375.036
376.407
368.33
351.294
349.252
368.614
373.12
367.569
361.902
359.586
360.708
383.498
398.436
449.062
434.77
398.034
365.859
347.653
330.177
314.766
313.171
297.55
290.831
292.94
286.685
293.428
288.273
303.461
298.942
316.048
318.691
333.718
363.039
391.056
410.251
418.079
411.898
420.478
429.429
434.798
428.974
358.942
368.647
370.643
357.606
345.198
340.18
331.437
325.866
315.572
310.553
296.691
290.092
291.094
290.419
287.092
299.088
305.346
315.544
320.235
326.327
336.513
351.111
367.332
377.36
373.966
370.459
374.74
374.79
369.8
360.513
270.453
287.757
298.295
297.66
291.782
286.833
286.681
294.138
309.367
324.185
334.71
337.351
333.968
327.573
311.203
293.821
275.325
270
270
279.11
292.988
296.187
298.089
299.392
297.649
302.09
317.416
332.009
344.743
327.562
358.625
361.132
290.605
270
369.289
430.067
444.088
447.934
454.65
457.375
459.004
459.677
454.518
452.523
452.789
454.166
453.91
451.464
446.364
438.105
421.716
395.946
367.231
351.857
352.734
361.773
363.788
352.693
303.063
274.874
791.333
820.949
794.535
735.771
694.781
682.65
684.68
712.564
765.726
863.791
930.073
931.128
902.922
940.69
568.133
604.354
648.757
681.003
716.17
730.572
711.735
682.962
668.347
674.028
691.196
702.01
725.583
733.445
766.429
772.93
793.231
780.196
784.34
751.754
728.771
685.27
656.921
631.472
616.619
608.986
600.823
574.281
514.534
469.998
447.86
467.373
479.831
502.741
529.141
547.645
542.322
529.373
505.608
488.226
477.283
474.749
481.148
495.946
514.225
528.679
534.2
530.026
521.035
518.45
518.244
524.537
533.397
545.52
555.717
568.806
573.14
565.312
544.837
538.889
454.693
436.648
417.086
420.703
425.694
423.166
419.623
419.18
419.089
409.805
397.342
393.407
377.306
376.751
366.918
370.828
357.794
367.173
365.115
376.621
373.162
373.805
374.815
380.52
387.637
400.954
409.692
405.104
413.957
398.68
435.106
435.058
433.413
427.005
425.307
422.61
410.449
419.961
421.64
419.793
436.104
431.663
439.767
438.065
445.675
441.729
442.447
440.681
441.363
444.094
450.554
454.475
447.829
431.211
422.1
409.483
394.46
387.193
385.13
398.288
397.473
390.656
383.542
392.786
395.165
398.325
389.649
372.167
364.53
367.312
378.9
385.924
394.227
394.918
400.307
401.561
414.359
416.658
433.023
434.775
441.516
437.459
435.418
426.457
426.938
433.284
448.821
448.671
428.4
413.091
320.977
349.73
383.895
370.096
337.726
308.312
286.49
283.765
287.313
306.524
321.64
344.356
354.266
345.377
357.623
347.992
347.65
340.504
337.599
322.375
307.09
288.433
278.579
275.966
279.72
288.062
289.926
282.901
275.303
274.468
399.804
420.413
418.287
410.789
404.015
399.721
396.376
390.5
392.176
390.348
381.227
375.449
374.384
380.067
378.305
379.08
392.991
390.805
396.689
405.634
409.417
410.117
411.114
407.574
408.565
410.378
404.707
402.063
401.625
413.203
464.121
446.581
426.372
409.755
398.951
384.507
380.026
374.857
355.139
359.039
340.102
345.792
334.119
335.88
331.849
342.618
343.313
352.322
357.664
371.572
373.79
371.597
357.457
348.117
363.595
372.809
367.762
360.266
358.198
357.434
374.792
433.931
456.296
418.98
378.016
355.474
339.608
324.056
318.589
311.867
295.004
302.238
286.577
292.101
286.975
299.303
293.015
306.756
304.337
311.051
324.613
336.72
376.466
403.588
411.456
413.98
415.534
424.372
434.675
430.111
365.722
380.27
375.816
356.849
344.694
339.707
331.276
318.291
311.963
305.729
285.681
297.385
293.918
295.235
305.914
293.082
299.181
302.087
311.898
316.774
323.874
336.986
353.957
369.332
375.263
371.245
375.921
377.299
373.999
364.523
284.606
306.696
310.731
303.044
295.712
296.981
314.102
336.267
360.348
373.816
382.007
383.795
380.294
370.972
353.873
329.845
300.437
274.192
270
279.281
296.243
299.415
302.098
299.541
298.202
295.934
308.822
329.61
341.32
328.549
360.751
359.201
300.614
336.142
417.524
443.872
448.639
455.309
463.192
465.265
465.411
461.352
459.232
459.504
457.385
454.007
452.971
453.629
451.919
446.775
435.51
409.138
368.669
338.425
335.476
342.482
346.315
328.788
270
277.233
785.745
788.489
732.239
679.151
667.217
680.194
702.107
722.696
774.929
842.262
931.218
930.62
906.551
953.245
566.548
612.144
662.75
701.391
738.755
742.795
706.11
671.211
667.286
675.176
677.042
676.423
683.339
687.293
727.473
752.227
790.531
790.993
795.032
773.704
756.587
720.792
686.025
654.866
640.856
634.147
617.988
579.037
516.927
480.06
450.011
466.392
476.095
500.09
531.376
551.502
551.365
533.897
511.99
481.122
456.474
448.98
455.2
473.453
497.675
518.503
527.158
526.156
518.856
505.889
503.835
510.788
526.38
538.22
552.604
558.938
564.983
556.826
538.487
533.348
453.082
433.517
419.898
426.4
425.243
421.719
417.552
415.55
418.909
408.854
387.014
386.299
375.008
377.373
366.844
383.376
372.565
378.579
370.168
381.531
376.323
375.541
375.395
378.345
384.815
398.539
407.831
413.567
418.495
405.756
440.534
440.726
437.516
432.7
435.087
429.612
437.287
456.167
456.814
473.854
480.879
486.236
495.219
495.984
488.707
486.352
472.744
459.405
448.26
444.56
447.886
451.956
446.936
429.952
416.877
406.728
391.788
380.152
386.012
395.198
396.166
389.908
389.784
393.852
395.967
387.225
374.796
366.502
368.736
382.349
393.086
402.012
403.009
404.989
412.548
422.281
445.224
456.433
473.06
479.297
482.819
478.305
465.024
452.855
441.341
440.543
450.767
452.233
427.263
413.092
323.735
367.23
385.09
357.597
325.19
292.684
280.776
282.942
304.643
328.44
345.611
360.698
359.301
356.851
368.127
357.585
360.395
359.073
351.552
344.638
332.816
310.197
291.693
275.994
278.775
287.229
290.619
295.178
283.249
273.453
408.365
423.767
416.643
407.519
400.194
396.375
391.898
389.25
394.083
379.062
371.248
372.524
368.412
367.977
374.158
373.517
385.347
388.069
394.529
399.097
409.059
409.963
410.935
408.56
406.084
410.687
409.808
406.085
408.451
421.838
457.865
435.902
416.181
399.84
399.232
387.866
376.616
378.014
360.943
361.18
350.286
347.058
344.135
342.199
342.073
342.38
342.167
352.053
353.445
368.569
371.552
372.91
360.538
350.239
359.248
367.747
364.347
364.056
362.784
358.97
379.851
467.389
445.884
402.306
368.914
348.067
331.104
325.444
315.637
306.797
305.47
296.836
288.666
285.914
292.646
286.001
300.533
293.155
300.441
300.516
314.451
330.084
355.39
392.731
410.76
405.567
407.54
420.311
429.844
429.726
386.909
399.993
382.563
359.047
345.957
339.191
326.822
316.863
313.31
296.523
306.609
317.27
307.686
311.522
305.644
315.389
311.248
299.565
301.53
301.874
315.287
325.845
343.868
359.472
368.963
369.247
376.8
380.029
379.92
370.271
291.554
309.764
310.052
303.125
305.884
321.928
350.463
378.674
398.057
410.359
415.594
418.807
412.857
402.397
387.29
364.322
331.227
288.972
271.982
277.068
299.432
306.082
305.511
298.939
293.441
298.087
305.838
327.218
340.194
327.085
351.554
360.779
324.081
379.393
436.877
448.655
453.127
462.113
468.068
471.525
472.195
475.829
477.941
476.481
469.591
462.455
455.309
452.294
450.391
449.115
443.685
427.386
387.398
339.841
328.346
341.401
343.71
319.704
270
293.789
783.434
761.807
701.859
674.097
697.001
732.903
760.885
788.809
813.971
878.358
941.686
956.091
929.652
949.278
562.629
615.401
667.638
709.553
750.226
752.026
695.875
667.238
663.365
655.419
649.42
631.264
624.579
624.638
663.299
693.43
755.653
774.236
791.866
774.888
764.31
733.442
701.35
671.509
650.332
637.841
627.615
599.452
539.12
485.295
453.235
465.012
469.659
490.713
527.454
554.467
559.559
547.272
518.257
476.08
436.6
424.371
433.467
456.954
486.556
517.98
525.757
517.263
506.816
509.024
513.527
516.795
523.671
535.975
540.491
552.415
555.208
551.794
531.581
524.157
451.183
429.933
421.96
429.692
426.032
418.406
417.576
416.069
413.78
412.491
388.179
376.723
378.497
377.023
375.528
386.706
376.565
381.172
372.79
386.978
372.241
378.499
372.424
379.836
381.466
399.254
410.984
419.632
417.883
397.466
446.394
445.404
439.452
438.853
446.13
451.078
477.412
490.753
495.512
519.075
516.428
529.26
525.62
527.333
530.969
518.553
503.462
480.407
459.39
447.098
445.17
447.112
444.123
429.536
414.477
403.32
388.209
383.336
388.399
398.788
396.881
391.346
392.67
395.166
389.506
377.305
368.877
366.149
379.171
392.325
401.408
403.171
406.446
410.663
425.259
449.705
473.047
490.423
505.671
507.823
508.454
507.11
489.335
471.745
459.26
447.639
459.715
451.805
421.328
407.139
329.916
380.076
379.307
350.451
309.056
283.29
273.441
286.85
311.387
336.028
347.007
363.472
357.466
370.932
376.923
372.367
375.24
371.088
368.204
358.7
350.564
332.148
300.466
286.495
280.202
283.913
293.928
299.609
281.152
270.444
415.641
425.06
416.025
405.758
397.29
392.432
388.601
387.479
390.422
370.483
374.92
368.146
363.578
364.256
373.31
371.805
385.519
385.445
394.816
396.767
409.894
411.528
412.09
412.201
410.737
408.194
408.407
406.489
420.398
436.751
450.047
428.001
410.481
395.316
395.746
392.575
380.212
377.192
364.98
365.098
345.071
349.223
339.7
346.519
340.687
350.084
342.472
351.478
353.894
365.43
371.815
371.973
363.881
352.153
356.609
368.183
365.496
382.376
385.554
366.649
401.14
480.802
439.753
399.039
360.992
338.625
331.063
318.77
310.799
312.986
300.391
291.076
290.169
289.621
278.968
289.678
282.549
294.626
301.101
296.261
299.479
326.226
349.415
377.197
404.195
410.463
403.652
418.804
430.21
427.537
401.844
406.862
383.785
361.26
347.379
337.937
325.806
316.262
313.398
297.608
324.175
318.608
309.171
302.885
299.119
291.482
301.508
295.542
308.294
292.334
308.802
316.741
337.319
350.589
366.01
369.891
374.862
378.929
381.45
370.484
300.156
322.977
321.456
314.659
322.802
349.843
383.945
410.006
425.74
436.654
439.684
436.66
434.447
424.063
410.512
388.283
360.425
313.093
276.329
274.067
296.133
305.439
308.376
302.99
299.211
301.842
311.564
327.029
338.159
326.867
321.494
366.538
342.161
398.778
443.87
450.854
457.099
466.01
471.808
477.8
480.989
483.627
483.11
478.222
475.075
468.927
461.005
455.024
447.901
447.781
448.4
438.966
408.281
347.04
312.498
329.652
326.965
283.33
270
300.8
775.45
733.482
673.713
676.56
726.341
776.416
804.405
824.413
853.81
894.015
950.953
955.882
930.933
965.566
559.66
617.543
670.259
708.401
763.628
762.851
696.058
663.561
648.487
637.572
628.234
601.481
592.533
580.035
599.382
626.507
696.982
731.816
769.683
759.054
757.61
732.686
711.864
684.265
669.093
660.89
639.578
597.55
530.685
496.585
457.308
463.492
463.369
481.924
514.751
549.01
565.198
559.555
529.8
468.369
421.918
408.384
414.597
438.985
473.945
511.335
521.935
522.056
512.765
513.147
515.212
517.714
527.181
530.052
541.356
543.839
548.993
541.213
517.153
505.283
447.142
427.845
424.989
431.236
427.504
419.855
414.287
419.737
413.977
409.532
399.718
373.606
376.304
381.59
372.878
383.232
384.457
388.362
374.594
386.463
371.344
370.245
376.089
373.747
384.108
396.873
412.929
420.354
413.506
407.174
457.147
449.875
444.501
444.616
462.572
479.394
494.471
513.83
521.11
530.453
538.851
536.985
549.94
555.033
552.181
550.342
521.726
497.791
468.839
450.493
446.522
449.917
441.122
425.699
413.481
398.209
386.278
385.761
394.626
402.199
395.552
392.106
398.433
392.751
386.345
372.562
367.457
373.09
385.7
396.008
401.905
402.889
407.255
415.748
441.428
465.945
494.223
502.736
515.181
513.131
516.072
513.996
499.765
484.341
467.577
463.178
463.386
447.882
413.263
409.936
339.102
386.714
382.522
348.325
306.425
275.637
270.754
281.861
308.31
329.466
340.522
361.152
358.995
379.259
384.38
388.782
388.441
375.434
367.769
372.534
357.453
341.97
313.911
290.227
277.709
288.867
301.344
306.315
287.274
270.504
426.235
429.907
418.788
406.603
395.102
388.435
386.846
386.257
385.117
368.292
366.698
360.871
363.617
365.919
371.189
373.755
378.448
395.564
388.847
403.107
410.364
412.675
418.063
415.129
412.241
413.311
410.51
421.745
444.896
452.248
450.918
426.016
407.001
397.17
390.519
389.647
382.542
378.591
365.663
364.013
341.82
344.456
336.266
341.93
341.227
351.491
343.52
351.91
354.861
364.629
371.06
372.817
364.998
351.994
359.559
362.022
379.321
425.32
417.022
396.483
418.85
482.215
440.676
393.823
352.901
338.491
320.835
313.48
315.696
304.326
296.177
302.752
290.603
276.954
284.343
276.06
291.369
284.227
299.73
292.334
298.045
309.766
344.522
372.56
392.691
401.176
404.807
411.83
428.177
442.314
423.746
421.01
392.309
364.815
348.127
337.525
324.889
316.684
309.841
309.418
325.567
318.045
309.909
306.02
305.323
301.255
309.998
290.433
302.992
289.758
313.763
305.739
333.227
347.502
359.037
369.43
374.479
381.023
384.381
375.272
305.489
325.953
325.395
323.009
339.625
372.422
408.398
431.937
441.978
453.003
458.633
462.181
451.396
441.777
423.02
401.952
383.201
338.326
290.871
275.185
298.779
309.891
316.287
313.886
310.5
310.538
323.595
331.997
335.808
323.498
270.24
348.363
352.503
403.451
445.849
451.71
458.88
467.878
474.107
480.89
486.775
489.426
488.759
488.907
479.367
468.183
467.387
457.067
446.805
449.279
448.61
443.244
425.7
365.858
295.027
295.886
290.711
270
280.493
310.48
766.458
708.545
673.082
700.333
776.193
821.258
842.125
854.964
882.827
918.778
949.857
960.734
952.55
977.969
923.294
703.241
569.166
587.095
640.149
687.635
769.246
782.566
702.821
655.84
639.642
631.73
618.138
596.371
586.127
558.982
558.115
560.738
620.26
663.62
726.653
740.261
742.98
726.949
708.464
691.112
676.013
663.2
646.355
599.697
538.443
500.573
500.289
464.341
454.201
456.147
454.676
467.408
491.212
529.745
558.654
565.206
539.27
468.937
410.169
400.483
408.536
433.372
472.298
514.421
525.369
522.593
516.157
516.195
520.666
522.567
525.508
532.765
536.914
542.928
537.711
521.673
505.11
508.343
474.303
491.229
455.186
427.689
429.775
436.222
431.407
422.201
416.272
417.268
420.833
411.089
408.458
387.4
371.028
384.244
379.757
383.672
372.936
371.732
372.627
379.34
365.686
369.847
371.48
376.203
387.048
407.851
421.114
421.676
413.334
418.717
425.717
444.797
444.451
442.185
441.394
450.865
469.962
485.821
502.974
518.372
526.719
526.055
534.756
538.304
549.569
550.455
550.462
545.92
519.179
496.918
465.785
454.247
447.342
449.353
442.588
427.33
409.637
394.692
388.046
391.488
396.928
399.538
392.965
395.172
391.161
393.48
397.302
387.069
381.789
368.659
370.417
375.745
387.467
395.691
396.501
399.477
406.635
421.246
443.831
471.884
497.992
511.474
520.939
522.382
517.335
517.417
501.437
491.932
480.467
473.019
460.118
434.365
410.63
403.579
342.433
330.504
351.57
388.635
374.979
349.747
304.538
272.939
270
274.38
295.991
317.587
331.201
350.633
359.347
372.869
390.455
393.589
384.734
389.913
388.791
372.722
365.319
350.544
320.218
294.952
290.359
291.961
300.043
308.627
280.783
310.563
408.034
409.715
421.767
423.425
416.667
404.993
392.023
386.503
383.741
384.968
381.466
373.903
366.435
364.072
368.05
366.023
372.106
380.007
381.062
395.263
395.085
407.193
411.806
422.963
422.301
418.39
416.987
419.673
438.68
457.858
457.876
456.218
451.085
463.652
440.373
423.257
403.559
395.961
390.442
382.772
384.404
381.878
362.14
365.702
339.557
342.804
339.304
344.892
338.685
349.36
347.684
354.259
356.872
367.285
371.391
373.548
363.453
357.853
359.693
376.816
441.421
470.113
450.919
446.26
442.107
416.984
443.744
462.905
424.767
387.937
354.415
329.134
315.786
315.35
307.317
295.801
308.294
294.695
283.9
285.106
276.598
278.431
279.385
290.763
280.039
287.229
305.783
302.73
334.235
370.416
392.505
394.461
409.567
423.953
437.988
439.899
436.639
420.223
422.098
414.709
390.486
363.555
345.74
336.154
325.64
313.464
306.082
308.8
320.149
305.463
308.953
291.292
297.508
289.984
306.818
291.353
294.434
286.865
313.752
306.549
325.903
348.183
357.974
368.499
375.89
381.511
387.256
377.535
371.039
361.113
330.708
332.011
335.962
333.71
351.068
385.961
421.476
445.974
453.736
469.182
469.971
468.466
461.945
452.654
431.191
412.817
392.078
359.431
311.389
274.464
287.344
313.8
318.971
319.944
320.344
323.942
330.096
335.544
333.567
321.702
272.931
270
270
276.275
347.984
393.167
441.713
451.568
458.637
466.804
474.323
479.17
488.282
491.688
494.929
496.215
485.778
473.444
469.659
453.3
451.161
449.239
447.856
445.64
435.279
386.421
284.84
270
270
270.335
290.761
270
488.015
511.042
763.358
698.902
675.049
725.17
813.36
854.188
864.807
880.872
889.546
905.107
940.868
954.783
957.938
973.994
978.573
827.743
633.365
586.775
624.696
672.281
786.434
815.048
719.652
655.844
640.366
625.738
619.225
608.776
593.378
558.398
545.918
522.101
543.104
575.262
647.149
690.659
717.072
719.67
714.739
701.682
690.606
675.495
644.833
594.957
536.705
510.626
507.079
479.126
460.466
453.631
448.526
453.946
466.863
495.509
533.362
561.349
548.185
476.41
411.683
400.194
409.981
434.485
470.711
510.291
523.764
527.002
523.649
523.41
523.603
528.1
531.083
533.152
537.815
535.243
531.934
522.943
505.036
498.766
489.116
488.07
451.475
429.38
432.672
441.879
437.454
429.505
419.365
418.64
422.225
422.838
414.868
400.963
383.36
377.319
376.139
381.133
384.88
378.35
371.919
365.636
365.652
364.045
372.881
376.356
395.634
408.706
410.39
407.449
406.602
410.444
421.335
434.084
437.011
436.362
438.872
445.201
460.839
484.137
500.275
509.738
513.043
517.77
517.309
524.183
523.473
529.28
529.493
517.215
498.117
479.537
460.717
454.473
447.259
450.621
438.455
422.545
405.293
394.278
391.261
402.619
398.906
397.514
393.787
389.203
392.993
393.42
392.592
382.615
379.779
369.392
372.838
377.708
388.081
392.906
393.807
396.354
402.507
418.418
443.512
469.706
494.708
509.365
516.592
520.433
523.834
515.658
510.125
494.128
477.175
465.973
448.376
422.669
404.619
383.327
346.474
352.8
382.062
396.873
389.245
367.699
325.191
278.602
270
270
285.308
303.698
316.332
337.305
355.866
359.806
371.17
393.455
391.901
383.137
377.658
382.069
369.136
341.398
310.885
293.997
290.35
299.504
315.19
307.544
281.506
356.934
416.98
422.572
433.843
432.66
424.918
411.079
395.407
386.805
381.935
385.552
381.559
377.421
369.51
365.974
361.961
366.478
376.042
377.631
391.427
398.028
403.515
411.298
422.445
425.32
426.325
425.69
424.368
434.804
455.011
455.556
452.534
452.857
452.156
455.597
441.793
424.259
402.072
394.108
389.167
381.037
380.942
384.068
359.622
366.65
341.808
343.61
333.544
341.524
336.737
353.446
348.424
357.636
361.105
372.684
372.51
371.319
364.903
357.853
368.518
417.302
489.962
492.912
485.548
483.276
480.629
477.996
489.663
472.12
433.616
397.044
349.334
326.023
320.031
307.938
294.911
308.726
297.511
280.57
291.586
279.73
276.931
272.249
278.481
274.242
285.772
277.343
301.411
310.589
332.685
362.258
385.973
391.22
393.466
408.541
436.65
450.742
446.19
444.1
449.508
438.809
406.656
368.501
346.361
336.891
326.768
312.075
307.419
303.347
308.9
289.954
308.049
279.978
292.571
282.685
298.792
288.917
280.987
294.939
307.03
318.697
324.963
349.174
357.059
369.892
375.376
383.266
386.821
379.658
372.628