/*--------------------------------*- C++ -*----------------------------------*\
| =========                 |                                                 |
| \\      /  F ield         | OpenFOAM: The Open Source CFD Toolbox           |
|  \\    /   O peration     | Version:  2.1.1                                 |
|   \\  /    A nd           | Web:      www.OpenFOAM.org                      |
|    \\/     M anipulation  |                                                 |
\*---------------------------------------------------------------------------*/
FoamFile
{
    version     2.0;
    format      ascii;
    class       volScalarField;
    location    "0.006950000";
    object      cSound;
}
// * * * * * * * * * * * * * * * * * * * * * * * * * * * * * * * * * * * * * //

dimensions      [0 1 -1 0 0 0 0];

internalField   nonuniform List<scalar> 
12384
(
1135.97
1132.75
1131.33
1130.63
1130.48
1131.03
1132.53
1134.8
1137.73
1140.51
1142.94
1144.46
1145.44
1150.5
1083.34
1089.85
1090.19
1088.3
1087.35
1087.96
1089.55
1091.48
1092.39
1093.16
1094.3
1096.24
1098.52
1100.46
1101.97
1102.7
1103.07
1103.13
1103.02
1103.16
1103.72
1104.37
1104.95
1106.19
1107.14
1108.1
1107.41
1102.02
1082.8
1052.12
1114.9
1119.22
1119.85
1121.04
1122.27
1124.02
1124.53
1126.66
1126.52
1127.89
1127.86
1128.53
1128.51
1128.57
1128.54
1128.5
1128.18
1127.84
1127.56
1127.39
1127.32
1127.26
1127.49
1127.77
1128.24
1128.67
1128.67
1126.88
1123.49
1122.21
1118.36
1116.88
1118.73
1121.21
1122.45
1123.15
1123.41
1123.75
1124.08
1124.35
1124.65
1124.96
1125.27
1125.42
1125.43
1125.56
1124.99
1124.34
1123.56
1122.65
1121.79
1120.9
1120.43
1120.19
1120.63
1121.2
1121.62
1121.56
1119.76
1119.83
1124.34
1123.14
1122.14
1121.16
1120.6
1120.34
1120.22
1120.01
1119.81
1119.31
1118.53
1118.07
1117.52
1116.77
1115.93
1117.08
1116.91
1117.49
1118.83
1119.4
1120.25
1120.74
1117.45
1115.34
1116.57
1117.59
1118.29
1118.59
1118
1115.77
1132.6
1126.93
1125.17
1125.67
1126.38
1126.82
1126.15
1126.18
1125.23
1125.36
1125.06
1125.24
1125.26
1125.33
1125.16
1124.82
1124.48
1123.79
1123.51
1123.7
1123.88
1123.47
1124.85
1124.86
1126.44
1127.36
1128.52
1128.11
1128.64
1129.65
1095.2
1102.63
1109.14
1112.54
1113.08
1112.54
1111.44
1110.64
1110.09
1109.74
1109.54
1109.35
1109.1
1108.86
1108.67
1108.41
1108.45
1109.01
1108.81
1110.55
1110.68
1112.61
1113.72
1115.08
1102.43
1062.82
1060.26
1064.21
1067.23
1067.92
1110.12
1124.37
1132.24
1135.59
1136.72
1137.61
1136.89
1137.52
1135.11
1136.14
1133.4
1134.35
1132.7
1133.59
1133.17
1134.15
1134.41
1135.07
1135.14
1134.5
1128.93
1124.55
1125
1125.2
1125.34
1125.85
1126.83
1128.06
1128.92
1129.15
1139.83
1140.81
1141.14
1140.96
1140.41
1139.38
1138.39
1137.25
1136.81
1136.62
1136.7
1137.09
1137.54
1137.66
1137.99
1138.8
1140.69
1145.58
1147.46
1147.16
1147.03
1147.31
1147.24
1147.87
1148.13
1148.81
1148.99
1149
1149.24
1150.14
1132.13
1135.07
1136.93
1137.46
1137.57
1137.05
1136.74
1135.91
1135.9
1136.45
1135.77
1137.52
1138.08
1139.81
1139.85
1140.09
1138.77
1137.56
1139.51
1141.5
1141.39
1140.9
1140.64
1140.19
1140.4
1140.96
1141.91
1142.94
1143.48
1143.41
1143.21
1144.92
1144.72
1144.14
1143.02
1141.85
1141.45
1141.12
1141.66
1142.73
1144.54
1146.58
1148.35
1148.24
1148.23
1149.96
1149.73
1149.48
1148.52
1146.56
1145.96
1145.34
1144.1
1143.99
1144.01
1143.26
1143.31
1144.25
1144.82
1145.15
1128.77
1124.1
1125.55
1141.62
1147.99
1147.82
1147.39
1147.11
1146.92
1146.11
1147.22
1146.07
1147.33
1146.47
1147.12
1146.64
1146.75
1146.67
1146.51
1146.47
1146.49
1146.66
1147.06
1147.31
1147.72
1147.61
1146.73
1143.37
1139.53
1139.74
1149.36
1149.79
1151.42
1151.86
1150.23
1139.11
1134.06
1178.77
1189.32
1189.2
1189.92
1190.29
1190.34
1190.75
1190.61
1190.68
1190.2
1189.57
1188.68
1187.51
1186.81
1184.82
1183.58
1178.89
1173.57
1166.82
1164.02
1165.55
1179.5
1190.63
1123.63
1121.33
1117.65
1114.09
1113.25
1114.31
1117.19
1120.09
1124.55
1130.52
1137.93
1143.97
1146.22
1150.37
1084.15
1090.65
1089.19
1087.59
1088.43
1090.52
1090.8
1090.65
1090.05
1094.24
1101.36
1107.42
1111.27
1112.04
1111
1109.03
1106.27
1104.14
1102.62
1101.91
1101.85
1102.37
1103.37
1105.41
1107.36
1109.43
1110
1107.28
1093.53
1066.5
1115.36
1119.2
1119.92
1121.95
1124.46
1126.65
1127.97
1128.8
1128.84
1128.92
1128.53
1128.28
1127.68
1127.18
1126.44
1125.79
1124.67
1123.68
1122.93
1122.43
1122.47
1122.99
1124.41
1125.52
1126.59
1127.71
1128.5
1127.92
1125.75
1123.35
1118.13
1117.64
1120.15
1122.28
1123.44
1124.11
1124.32
1124.18
1124.06
1123.95
1124.08
1124.32
1124.75
1125.07
1125.11
1124.62
1123.58
1122.19
1120.51
1118.79
1117.36
1116.5
1116
1116.04
1116.78
1118.31
1119.88
1120.67
1120.29
1119.75
1124.74
1123.83
1122.11
1120.46
1120.14
1120.45
1120.71
1120.57
1119.94
1118.71
1117.85
1116.77
1115.14
1114.59
1114.55
1114.07
1115.09
1115.67
1116.58
1118.12
1118.59
1120.27
1119.3
1116.92
1117.03
1119.87
1120.98
1122.1
1122.83
1122.05
1132.23
1126.52
1125.53
1126.86
1127.33
1126.93
1125.89
1125.43
1125.58
1126.22
1127.16
1127.29
1126.87
1126.09
1125.34
1124.73
1124.14
1123.68
1124.01
1123.98
1124.02
1124.42
1125.24
1125.65
1126.63
1127.14
1128.21
1128.4
1128.35
1129.02
1095.92
1105.81
1113.98
1116.1
1114.1
1111.38
1110.01
1108.66
1107.96
1107.8
1107.14
1106.76
1106.5
1106.36
1106.24
1106.33
1106.56
1106.74
1107.06
1107.51
1108.93
1109.96
1111.27
1113.78
1110.69
1091.22
1065.37
1068.12
1078.79
1082.05
1114.01
1133.1
1138.47
1139.73
1140.23
1140.43
1139.41
1138.72
1137.31
1137.41
1135.83
1136.09
1135.32
1135.22
1136.08
1136.42
1136.28
1136.4
1136.17
1135.63
1132.81
1127.07
1123.78
1122.85
1122.15
1122.92
1125.17
1128.04
1130.68
1132.43
1140.3
1140.73
1140.36
1139.36
1137.89
1136.45
1134.98
1133.43
1133.09
1132.93
1133.04
1133.93
1135.2
1136.11
1136.82
1137.72
1139.5
1143.19
1146.83
1146.85
1146.24
1146.26
1146.49
1147.37
1148.36
1149.36
1150.45
1150.79
1149.37
1149.03
1129.33
1130.66
1131.46
1131.32
1130.63
1129.35
1128.49
1127.4
1127.14
1126.49
1127.68
1129.85
1130.9
1133.51
1135.81
1137.6
1137.95
1137.58
1137.97
1140.39
1140.65
1139.23
1138.31
1137.85
1138.69
1140.49
1142.25
1143.62
1145.5
1144.87
1143.36
1143.22
1141.67
1139.45
1137.25
1135.45
1133.86
1133.24
1134.13
1136.19
1139.01
1142.27
1146.02
1148.31
1148.34
1149.8
1149.9
1148.54
1147.11
1145.1
1143.73
1143.29
1142.77
1142.17
1142.3
1142.19
1141.85
1142.77
1144.04
1144.97
1132.87
1126.92
1134.41
1145.67
1148.4
1148.04
1148.06
1147.92
1147.24
1147.54
1146.65
1145.67
1145.34
1144.02
1143.05
1142.67
1142.01
1141.7
1141.63
1141.58
1141.53
1141.68
1142.14
1143
1144.67
1146.07
1146.43
1144.69
1140.75
1139.75
1147.02
1146.26
1148.78
1156.21
1151.91
1136.1
1157.82
1186.76
1191.69
1193.1
1194.89
1195.89
1196.55
1196.19
1196.42
1195.68
1195.02
1193.94
1192.62
1191.24
1189.94
1189.15
1188.79
1184.61
1175.13
1164.55
1163.63
1167.41
1183.95
1191.61
1117.72
1112.02
1104
1102.92
1107.29
1113.18
1118.29
1120.4
1120.96
1122.5
1128.61
1139.33
1145.98
1150.67
1084.86
1091.03
1088.38
1087.36
1088.66
1088.48
1086.39
1085.76
1091.25
1105.84
1117.19
1121.75
1120.67
1116.73
1111.26
1104.9
1100.17
1097.98
1097.04
1097
1097.18
1097.75
1098.8
1100.77
1103.82
1107.88
1110.86
1110.35
1101.89
1076.59
1115.4
1119.16
1119.95
1122.84
1126.15
1129.09
1130.08
1130.44
1129.58
1128.71
1127.45
1126.97
1126.18
1125.64
1124.36
1122.74
1121.69
1120.88
1120.15
1119.62
1119.36
1119.25
1119.79
1121.28
1123.69
1125.95
1127.64
1128.29
1126.95
1124.22
1117.83
1118.23
1121.13
1123.11
1124.01
1124.19
1123.57
1122.94
1122.62
1122.23
1122.45
1122.59
1122.98
1123.83
1124.53
1123.96
1122.28
1119.94
1117.57
1115.48
1113.99
1112.96
1112.21
1112.23
1113.07
1114.67
1116.99
1119.09
1119.85
1119.58
1125.24
1124.37
1121.22
1119.95
1120.43
1121.26
1121.33
1120.42
1118.67
1116.58
1115.23
1112.81
1110.48
1110.06
1109.1
1109.7
1110.62
1112.51
1114.07
1116.29
1117.52
1118.21
1118.98
1118.01
1117.03
1119.01
1119.08
1120.47
1122.54
1124.31
1131.99
1126.31
1125.83
1127.61
1127.47
1126.55
1125.85
1127.28
1130.52
1134.1
1135.48
1134.44
1130.94
1127.4
1125.38
1124.43
1124.36
1125.06
1126.08
1126.38
1127.83
1128.15
1128.72
1128.4
1128.32
1127.83
1128.07
1128.23
1128.15
1128.53
1097
1109.08
1116.99
1116.82
1114.55
1114.07
1113.21
1111.03
1109.4
1108.29
1107.58
1106.79
1106.54
1106.77
1107.46
1108.44
1108.7
1109.17
1108.95
1109.48
1109.22
1109.65
1109.74
1111.78
1112.83
1105.68
1085.48
1069.41
1079.07
1088.48
1122.72
1138.4
1140.14
1142.21
1141.93
1140.87
1139.23
1138.68
1137.99
1138.26
1137.06
1137.67
1137.43
1138.15
1137.63
1138.12
1138.4
1137.94
1137.28
1136.41
1134.94
1130.58
1124.86
1122.06
1120.94
1121.82
1124.47
1128.22
1131.37
1133.36
1140.81
1140.51
1139.27
1137.44
1135.19
1133.42
1130.81
1128.7
1128.63
1128.03
1129.24
1130.3
1131.97
1133.53
1135.04
1136.33
1137.8
1140.99
1145.44
1146.51
1145.89
1145.8
1146.27
1147.82
1148.9
1149.43
1150.52
1151.85
1151.22
1148.48
1129.41
1130.71
1130.5
1129.12
1127.17
1125.46
1123.69
1121.85
1120.54
1120.45
1120.32
1122.51
1125.33
1127.3
1129.94
1132.96
1135.06
1135.98
1136.44
1138.46
1140.53
1138.96
1137.99
1138.04
1139.86
1143.54
1146.47
1146.47
1147.21
1146.93
1142.84
1141.41
1138.44
1135.49
1132.64
1130.27
1127.8
1127.52
1128.24
1129.99
1132.89
1136.96
1141.64
1146.18
1148.03
1148.79
1150.17
1148.83
1147.03
1145.11
1143.24
1142.77
1142.42
1141.49
1142.22
1142.47
1142.1
1142.59
1143.86
1145.19
1133.29
1131.68
1141.04
1147.87
1148.99
1149.66
1150.44
1151.39
1152
1151.57
1151.02
1149.71
1147.25
1145.96
1143.18
1141.66
1141.04
1140.77
1141.19
1141.56
1141.38
1140.71
1140.24
1140.02
1141.3
1143.48
1145.33
1144.86
1141.61
1139.82
1147.14
1143.28
1141.13
1153.15
1145.9
1144.7
1176.13
1191.73
1194.68
1196.57
1197.69
1197.88
1197.43
1197.88
1197.49
1197.66
1197.25
1196.07
1194.51
1192.36
1191.09
1189.77
1189.1
1185.54
1173.04
1163.68
1166.18
1176.63
1192.93
1191.88
1109.36
1098.96
1097.95
1106.85
1119.57
1128.78
1134.33
1135.87
1133.07
1127.7
1126.23
1133.72
1143.94
1150.68
1085.32
1091.18
1087.62
1086.63
1086.68
1084.07
1081.26
1085.23
1102.63
1120.01
1126.88
1125.86
1121.41
1113.43
1103.82
1097.06
1094.69
1095.27
1096.65
1098.31
1099.03
1098.77
1098.63
1098.96
1100.74
1104.76
1109.89
1111.79
1106.84
1083.12
1115.25
1118.65
1119.7
1123.04
1127.1
1130.57
1130.86
1130.89
1130.18
1127.76
1125.91
1125.58
1125.08
1124.57
1122.79
1121.56
1120.41
1119.57
1118.99
1118.44
1117.96
1117.65
1117.74
1118.41
1120.07
1123.31
1126.34
1128.15
1127.73
1125.12
1117.68
1118.68
1121.65
1123.55
1124.02
1123.69
1123.04
1122.57
1122.4
1122.08
1121.52
1121.28
1121.48
1122.46
1123.81
1123.28
1120.82
1117.77
1115
1112.84
1110.54
1108.86
1107.95
1107.89
1109.08
1111.31
1113.76
1117.18
1119.26
1119.24
1125.69
1124.4
1120.08
1119.65
1120.78
1121.6
1120.89
1118.96
1116.28
1112.32
1109.56
1106.45
1105.23
1103.95
1103.95
1104.02
1105.1
1107.33
1110.48
1112.38
1115.61
1117.21
1118.25
1118.08
1117.43
1117.83
1116.2
1115.91
1118.22
1120.85
1132.02
1126.17
1125.88
1127.83
1127.41
1126.4
1126.98
1131.76
1138.2
1143.59
1144.88
1141.65
1134.48
1127.63
1124.63
1124.02
1125.25
1127.09
1129.07
1131.39
1132.94
1133.8
1133.71
1133.01
1131.64
1129.6
1128.44
1128.11
1127.84
1128.05
1098.25
1111.63
1118.67
1118.45
1118.87
1119.97
1119.21
1116.38
1112.45
1109.5
1107.89
1106.47
1106.22
1108.04
1109.43
1111.2
1112.58
1113.22
1113.6
1112.66
1111.15
1111.09
1109.79
1110.72
1112.85
1111.23
1099.27
1080.09
1077.86
1090.51
1132.48
1140.01
1143.09
1144.4
1142.35
1140.38
1139.14
1138.78
1140.46
1139.28
1140
1140.2
1140.13
1139.6
1140.58
1139.89
1140.29
1139.25
1138.59
1137.43
1135.96
1133.24
1127.45
1122.79
1120.84
1121.64
1125.07
1129.26
1133
1134.34
1140.95
1140.57
1138.43
1135.73
1132.66
1129.78
1125.94
1124.87
1123.39
1123.53
1123.69
1125.46
1127.33
1129.95
1133.26
1134.82
1136.49
1138.93
1143.26
1145.97
1145.87
1145.84
1146.67
1148.4
1148.84
1148.77
1149.62
1151.61
1152.59
1148.81
1132.43
1131.62
1129.89
1127.3
1125.07
1121.52
1118.3
1116.23
1115
1114.66
1114.92
1115.32
1117.83
1121.34
1124.48
1128.34
1131.24
1133.57
1134.72
1136.45
1139.42
1139.45
1138.76
1138.76
1142.19
1146.78
1150.46
1151.34
1149.73
1148.79
1140.89
1139.46
1135.52
1131.46
1126.57
1122.74
1120.91
1120.47
1121.35
1123.64
1127.43
1131.56
1137.13
1142.97
1146.79
1148.04
1149.86
1149.68
1147.53
1145.42
1143.46
1142.45
1142.16
1141.25
1141.84
1142.67
1142.83
1143.4
1143.73
1145.27
1133.98
1135.79
1144.73
1149.33
1150.62
1152.24
1154.6
1155.89
1157.16
1156.94
1155.5
1155.23
1151.13
1148.85
1145.54
1142.48
1141.13
1141.44
1142.92
1143.4
1142.36
1140.68
1138.91
1138.21
1139.1
1141.19
1143.89
1144.45
1141.84
1139.93
1151.87
1143.44
1135.41
1143.21
1141.48
1157.06
1186.09
1194.74
1196.66
1197.87
1197.33
1196.09
1195.57
1194.98
1195.96
1196.91
1197.7
1197.73
1196.07
1194.17
1192.09
1190.93
1189.36
1185.35
1167.41
1164.05
1175.51
1190.15
1198.93
1188.48
1095.25
1092.98
1103.66
1121.34
1132.75
1137.66
1139.89
1142.05
1141.84
1136.82
1129.15
1130.84
1141.71
1151.02
1085.53
1091.51
1086.89
1084.92
1083.13
1079.74
1078.53
1089.66
1112.83
1127.27
1128.22
1124.99
1119.08
1108.32
1097.1
1093.58
1095.03
1098.79
1102.92
1105.82
1107.02
1106.56
1104.2
1101.31
1100.12
1102.62
1108.2
1112.18
1109.11
1087.37
1115.06
1118.29
1118.52
1122.24
1126.29
1130.3
1130.95
1131.23
1129.74
1126.86
1124.52
1124.17
1124.34
1123.26
1121.79
1120.75
1119.85
1118.9
1118.02
1117.33
1116.97
1117.02
1117.09
1117.35
1118.02
1120.6
1125.23
1127.52
1128.04
1125.6
1117.6
1118.74
1121.73
1123.72
1123.87
1123.61
1123.14
1123.67
1124.19
1124.19
1122.59
1120.56
1119.87
1121.56
1123.22
1122.41
1119.21
1115.75
1112.99
1109.61
1106.6
1104.55
1104.21
1104.8
1105.61
1107.85
1111.16
1114.43
1117.87
1119.27
1125.92
1123.15
1119.32
1119.44
1121.01
1121.48
1119.97
1117.12
1111.83
1108.32
1105.14
1102.05
1101.65
1100.24
1099.79
1100.98
1101.97
1103.02
1105.86
1109.51
1112.54
1115.91
1117.5
1117.61
1117.38
1117.4
1114.28
1111.65
1113.37
1117.28
1132.53
1126.39
1125.49
1127.85
1127.49
1126.44
1127.96
1134.63
1143.38
1149.26
1150.23
1146.56
1136.61
1127.29
1123.99
1124.19
1126.37
1129.6
1133.11
1136.29
1137.67
1138.57
1138.95
1137.7
1135.49
1132.06
1129.29
1127.97
1127.49
1127.43
1099.08
1113.17
1119.94
1121.31
1124.3
1126.83
1125.66
1122.2
1116.39
1110.4
1107.22
1105.7
1106.8
1108.84
1111.35
1113.9
1116.13
1117.38
1117.39
1117.33
1114.76
1113.19
1111.43
1110.52
1112.38
1112.89
1107.24
1091.42
1081.3
1091.92
1138.43
1142.14
1147.1
1145.32
1141.44
1139.21
1140.22
1139.6
1142.85
1140.52
1143.16
1142.13
1142.05
1142.54
1142.14
1141.82
1141.85
1140.41
1140.07
1138.03
1136.71
1134.82
1130.25
1124.95
1122.41
1123.1
1126.24
1130.56
1134.56
1135.31
1141.64
1140.31
1137.34
1133.95
1130.11
1125.93
1122.44
1120.82
1117.61
1117.04
1118.59
1121.06
1123.44
1126.31
1129.78
1133.92
1135.23
1137.57
1141.61
1145.23
1146.23
1146.29
1147.92
1148.01
1146.86
1146.81
1147.94
1150.75
1152.79
1149.3
1133.04
1131.35
1128.74
1126.04
1121.77
1117.73
1113.89
1112.02
1110.38
1109.13
1109.63
1110.84
1112.18
1115.56
1118.91
1123.62
1127.71
1130.75
1132.87
1134.71
1137.96
1139.58
1139.79
1140.4
1145.6
1149.61
1152.49
1154.03
1152.38
1150.51
1140.4
1137.62
1132.17
1126.27
1120.64
1116.84
1112.85
1110.64
1111.99
1117
1121.62
1127.35
1132.85
1139.19
1144.86
1147.2
1148.95
1150.03
1148.46
1145.63
1144.13
1142.61
1142.13
1141.34
1141.13
1142.01
1143.29
1144.19
1144.8
1145.62
1134.81
1138.06
1146.44
1150.39
1152.43
1155.44
1158.12
1160.3
1160.49
1161.51
1159.47
1159.23
1155.69
1152.06
1147.8
1144.26
1141.6
1141.84
1144.39
1144.73
1142.69
1140.13
1137.22
1136.17
1137.31
1139.91
1142.76
1143.76
1141.62
1140.06
1157.82
1146
1133.31
1135.92
1143.7
1167.74
1190.77
1196.2
1197.23
1196.63
1194.21
1191.86
1190.88
1191.32
1192.19
1193.55
1195.8
1197.14
1197.32
1195.2
1192.88
1192.02
1190.64
1183.71
1166.92
1164.94
1184.3
1197.58
1197.23
1178.43
1089.72
1096.92
1117.71
1131.86
1133.54
1131.65
1132.38
1136.39
1141.23
1140.41
1132.49
1130.35
1140.2
1150.78
1085.29
1092.27
1086.57
1082.82
1079.93
1076.33
1076.89
1094.37
1118.58
1129.84
1128.32
1123.78
1117.15
1103.19
1093.39
1093.62
1098.31
1104.45
1109.17
1113.13
1114.94
1114.55
1111.45
1106.8
1102.46
1102.02
1106.62
1112.03
1110.29
1090.09
1114.4
1118.41
1117.71
1119.29
1124
1127.94
1129.76
1130.78
1128.96
1126.58
1123.43
1123.32
1123.66
1122.54
1121.02
1120.1
1118.99
1118.02
1117.23
1116.73
1116.43
1116.09
1116.27
1116.87
1117.19
1118.99
1123.09
1126.99
1128.06
1125.84
1117.57
1118.55
1121.46
1123.7
1123.85
1124
1124.28
1125.4
1126.93
1126.97
1124.24
1120.75
1119.13
1120.63
1122.59
1121.09
1117.5
1114.07
1110.8
1106.44
1103.79
1102.01
1100.7
1100.89
1103.03
1105.67
1109.35
1112.91
1115.9
1117.98
1125.58
1121.21
1118.23
1119.78
1121.27
1121.21
1118.5
1113.83
1108.98
1105.32
1102.18
1100.12
1100.31
1099.54
1100.1
1099.26
1100.28
1101.15
1102.68
1106.45
1110.3
1113.68
1116.5
1117.23
1116.89
1117.11
1113.42
1109.98
1111.97
1116.33
1132.71
1126.79
1124.64
1127.51
1127.71
1126.69
1127.47
1133.96
1143.51
1149.68
1150.94
1147.92
1137.5
1126.97
1123.63
1124.21
1127.57
1132.4
1135.63
1139.33
1141.58
1143.04
1143.17
1141.81
1138.59
1134.34
1130.12
1127.89
1126.89
1126.82
1099.84
1114.09
1121.74
1125.1
1129.96
1132.84
1132.35
1127.93
1120.03
1111.09
1107.15
1105.57
1107.69
1110.13
1113.79
1117.27
1119.45
1120.58
1120.9
1120.59
1118.1
1115.59
1113.19
1111.63
1112.02
1113.56
1110.44
1097.62
1086.31
1093.91
1141
1144.95
1149.77
1144.1
1140.21
1139.25
1141.24
1141.83
1143.45
1142.38
1145
1143.21
1144.37
1143.38
1143.49
1142.86
1142.83
1141.44
1140.96
1138.53
1137.07
1135.71
1132.02
1127.39
1125.51
1125.58
1128.85
1133.94
1136.56
1136.63
1142.48
1139.66
1135.96
1131.89
1127.48
1122.48
1119.42
1115.64
1112.88
1113.45
1114.24
1116.7
1120.91
1123.65
1127.32
1131.81
1134.23
1136.48
1140.12
1144.16
1146.09
1147.16
1148.08
1145.85
1144.16
1144.95
1146.4
1149.43
1152.95
1150.18
1132.92
1131.07
1128.19
1124.37
1119.05
1114.6
1111.86
1108.11
1105.95
1104.51
1104.41
1106.39
1107.54
1111.88
1114.5
1119.35
1124.57
1128.31
1131.09
1133.37
1136.56
1139.12
1139.74
1144.24
1148.93
1150.62
1152.62
1154.9
1154.04
1152.01
1139.79
1135.34
1129.64
1122.05
1115.59
1108.05
1102.24
1100.97
1102.33
1107.51
1115.51
1122.26
1129.9
1136.21
1142.52
1145.92
1147.87
1150.05
1149.15
1146.37
1144.76
1143.24
1142.68
1141.54
1140.91
1140.86
1142.29
1143.72
1145.31
1145.65
1135.57
1139.75
1147.58
1151.32
1154.06
1157.36
1160.41
1161.46
1162.28
1162.85
1162.16
1161.49
1158.68
1155.67
1149.88
1145.88
1142.45
1142.05
1145.14
1145.72
1143.27
1140.37
1137.04
1135.07
1136.71
1139.49
1142.23
1142.89
1141.15
1140.18
1164.18
1152.77
1136.6
1136.09
1149.19
1175.39
1193.08
1196.94
1196.42
1194.02
1190.33
1188
1186.68
1186.48
1187.88
1190.85
1193.23
1196.3
1197.8
1196.43
1193.34
1192.5
1191.68
1184.33
1166.65
1163.11
1183.87
1195.31
1186.85
1158.58
1089.41
1106.39
1126.52
1129.28
1123.24
1120
1122.48
1129.93
1138.19
1140.57
1134.48
1130.8
1140.05
1151.54
1084.42
1093.78
1086.99
1081.15
1077.09
1074.52
1076.91
1097.36
1121.67
1131.29
1128.58
1123.08
1115.84
1099.45
1092.06
1095.19
1102.19
1108.18
1113.21
1117.18
1119.59
1119.73
1116.81
1111.28
1105.58
1102.68
1106.03
1111.9
1110.72
1091.15
1113.05
1117.93
1118.22
1118.07
1120.08
1124
1126.02
1127.77
1127.78
1126.1
1122.68
1122.55
1123.44
1121.94
1121.02
1120.12
1118.48
1117.33
1116.85
1116.17
1115.53
1115.32
1115.39
1116.32
1116.75
1118.28
1121.88
1126.69
1128.01
1125.92
1117.56
1118.13
1121.01
1123.33
1124.15
1124.52
1125.01
1126.92
1128.85
1128.14
1124.53
1120.26
1118.73
1120.07
1122.36
1120.6
1116.28
1112.49
1109.28
1104.25
1101.62
1098.64
1097.91
1098.44
1099.79
1102.56
1107.02
1112.48
1116.09
1117.04
1125.13
1119.33
1118.13
1120.66
1121.58
1120.75
1117.06
1111.81
1107.04
1103.48
1100.35
1100.17
1099.55
1098.96
1099.38
1099.32
1100.11
1100.59
1101.18
1104.27
1108.98
1112.21
1115.22
1116.57
1116.74
1116.67
1113.07
1109.95
1112.75
1116.8
1133.1
1128.46
1124.44
1126.4
1128.07
1127.1
1126.97
1131.06
1138.93
1145.39
1149.03
1146.96
1138.47
1127.28
1123.03
1124.4
1128.88
1133.12
1136.72
1141.35
1143.06
1145.02
1145.63
1144.28
1140.83
1135.83
1130.71
1127.69
1126.33
1125.87
1100.51
1114.93
1122.93
1127.54
1133.38
1136.58
1136.47
1132.41
1122.8
1111.77
1107.69
1105.56
1106.98
1111.19
1115.02
1117.87
1120.42
1122.22
1122.36
1121.93
1120.79
1116.66
1114.63
1112.57
1112.28
1113.85
1112.02
1100.96
1090.76
1096.98
1141.99
1149.24
1149.57
1142.42
1139.9
1139.74
1142.33
1141.76
1144.66
1143.3
1146.01
1143.92
1145.6
1145.1
1144.99
1143.71
1143.63
1142.13
1141.18
1138.93
1137.73
1136.08
1133.18
1129.68
1127.98
1127.93
1133.4
1136.78
1137.93
1137.48
1142.04
1138.5
1135.35
1130.16
1125.25
1120.53
1117.06
1112
1110.58
1110.15
1110.62
1113.01
1117.44
1121.54
1125.4
1130.47
1133.53
1135.83
1139.46
1143.63
1146.08
1148.25
1146.45
1142.96
1142.17
1144.19
1146.32
1149.97
1152.99
1150.3
1133.81
1131.56
1128.06
1123.42
1117.61
1113.04
1110.4
1105.61
1104.79
1103.71
1102.78
1103.99
1104.49
1108.44
1111.92
1116.43
1121.33
1126.74
1129.51
1132.42
1135.52
1138.77
1139.86
1149.29
1149.13
1149.42
1152.65
1155.12
1155.1
1153.69
1139.05
1133.51
1126.95
1119.07
1109.57
1101.76
1097.08
1095.65
1096.83
1101.02
1109.77
1118.56
1126.97
1133.76
1140.69
1144.83
1147.03
1149.45
1149.75
1146.99
1145.66
1144.1
1143.63
1142.13
1141.52
1140.12
1140.7
1141.54
1143.45
1145.01
1135.17
1139.53
1147.47
1151.82
1155.5
1159.64
1161.63
1162.44
1161.98
1163.25
1162.55
1163.41
1160.14
1157.9
1151.89
1147.37
1143.19
1142.09
1145.41
1146.93
1144.42
1141.39
1138.76
1136.98
1137.96
1140.1
1142.04
1142.09
1140.84
1140.52
1170.02
1161.48
1144.2
1141.13
1155.94
1180.62
1194.28
1196.93
1195.25
1191.3
1187.09
1183.92
1181.85
1182.24
1184.9
1187.47
1190.93
1194.1
1197.17
1197.64
1194.28
1191.74
1192.66
1185.3
1164.5
1157.01
1173.85
1180.3
1161.72
1131.74
1093.84
1116.59
1128
1120.85
1115.35
1116.28
1122.58
1131.99
1138.38
1139.21
1133.57
1130.72
1140.47
1151.97
1083.39
1093.95
1089.33
1080.91
1076.01
1074.14
1077.27
1098.23
1122.3
1132.22
1129.65
1122.87
1114.59
1096.73
1091.66
1096.81
1104.07
1110.06
1114.51
1118.7
1121.24
1121.21
1119.06
1113.72
1107.24
1103.82
1106.33
1112.28
1110.88
1090.84
1111.43
1116.66
1118.43
1118.51
1118.65
1119.93
1121.34
1123.82
1125.55
1125.74
1121.88
1121.97
1123.28
1121.85
1120.77
1119.75
1118.36
1117.29
1116.78
1115.68
1115.29
1114.83
1115.12
1116.24
1116.55
1117.91
1121.76
1126.59
1127.7
1125.96
1117.65
1117.53
1120.13
1122.62
1124.14
1125.04
1125.96
1127.95
1129.58
1127.54
1122.93
1119.36
1118.52
1120.01
1122.28
1119.87
1115.17
1111.57
1108.28
1102.65
1100.1
1097.52
1097.91
1098.51
1100.02
1102.4
1106.74
1111.22
1115.32
1117.35
1123.42
1117.3
1119.93
1122.2
1121.72
1120.32
1116.55
1110.49
1106.2
1102.12
1100.72
1099.51
1099.21
1099.24
1099.67
1099.77
1099.59
1100.2
1101.49
1102.92
1108.1
1111.58
1114.11
1115.67
1116.38
1116.33
1112.64
1110.55
1113.57
1117.37
1132.57
1129.71
1124.93
1125.16
1127.22
1127.63
1127.47
1128.83
1133.22
1139.01
1142.78
1144.05
1138.73
1127.25
1122.87
1124.75
1128.82
1133.18
1137.37
1141.46
1144.74
1147.25
1146.85
1145.52
1141.8
1135.76
1130.31
1127.39
1125.74
1125.41
1100.32
1114.28
1123.95
1129.55
1135.5
1137.98
1137.49
1134.29
1125.66
1112.77
1107.28
1105.86
1107.16
1111.75
1115
1118.17
1120.73
1122.7
1122.82
1122.82
1121.09
1117.03
1115.35
1112.81
1112.96
1114.15
1112.69
1102.18
1094.53
1105.89
1143.81
1153.22
1147.82
1141.21
1139.97
1140.21
1142.61
1142.34
1144.92
1144.03
1146.43
1144.44
1146.3
1144.89
1145.31
1143.6
1144.25
1142.07
1140.53
1139.62
1137.62
1136
1134.03
1131.5
1129.77
1132.6
1137.19
1138.26
1138.52
1138.08
1142.09
1137.45
1134.06
1129.08
1124.26
1120.19
1115.09
1111.23
1110.45
1109.45
1110.53
1112.36
1116.77
1120.81
1124.43
1129.65
1133.76
1135.53
1139.24
1143.46
1146.67
1148.35
1144.13
1141.25
1141.76
1145.5
1148.46
1151.17
1152.13
1150.98
1135.67
1132.8
1128.55
1123.39
1117.67
1112.83
1109.26
1105.25
1104.64
1103.08
1102.27
1103.59
1103.39
1106.6
1110.36
1114.78
1119.59
1125.33
1128.78
1131.77
1135.11
1138.84
1145.41
1150
1147.48
1148.59
1150.75
1152.67
1153.6
1153.61
1136.23
1131.88
1125.13
1117.64
1107.47
1099.01
1093.51
1091.54
1093.12
1096.62
1106.69
1116.04
1125.11
1131.86
1139.27
1143.71
1145.81
1148.87
1149.88
1147.9
1146.42
1145.55
1144.85
1143.04
1142.23
1140.84
1139.84
1139.77
1140.54
1141.93
1136.18
1139.82
1147.35
1152.04
1155.81
1159.39
1161.81
1162.08
1162.01
1163.35
1162.2
1163.64
1160.92
1158.83
1153.18
1148.75
1144.28
1141.84
1145.16
1147.94
1146.12
1143.24
1141.22
1139.97
1139.97
1141.08
1141.82
1141.48
1140.9
1141.08
1174.74
1171.1
1154.3
1150.28
1162.61
1183.71
1194.93
1196.95
1193.97
1189.93
1184.88
1181.53
1179.12
1179.89
1182.06
1186.15
1189.2
1192.92
1196.41
1198.66
1195.41
1190.51
1192.74
1188.28
1164.85
1150.52
1156.19
1154.93
1131.6
1073.36
1097.91
1120.68
1122.88
1115.81
1115.53
1123.28
1132.86
1139.22
1140.1
1136.58
1131.72
1131.91
1143.07
1152.13
1136.43
1107.89
1084.01
1094.53
1092.94
1083.3
1076.61
1075.11
1079.5
1099.69
1122.36
1132.76
1130.29
1122.73
1114.13
1095.8
1091.75
1097.32
1104.72
1110.25
1114.07
1117.37
1120.28
1120.79
1118.35
1113.19
1107.42
1104.33
1107.73
1112.79
1110.75
1090.06
1085.22
1096.06
1109.79
1115.39
1118.27
1119.07
1119.6
1120.13
1120.87
1121.89
1123.37
1123.75
1120.17
1121.21
1123.51
1121.78
1121.03
1120
1118.71
1117.31
1116.93
1115.89
1115.42
1114.99
1115.2
1116.37
1116.64
1118.64
1121.96
1126.6
1127.94
1126.21
1125.54
1123.73
1118.13
1117.01
1118.9
1121.38
1123.55
1125.32
1126.93
1128.02
1127.22
1124.1
1120.38
1118.18
1118.73
1120.42
1122.44
1119.31
1115.19
1111.18
1108.08
1102.29
1100.18
1097.57
1097.73
1097.97
1099.52
1102.78
1107.33
1111.8
1115
1116.95
1117.04
1117.85
1120.47
1117.45
1122.31
1123.07
1121.68
1120.23
1116.3
1110.64
1105.63
1102.63
1100.41
1100.21
1098.62
1099.44
1099.51
1099.27
1100.05
1099.3
1101.76
1103.06
1107.77
1111.13
1113.63
1115.12
1115.81
1116.05
1112.74
1111.26
1114.85
1117.58
1120.72
1122.38
1128.94
1130.5
1127.16
1124.99
1125.81
1127.37
1127.8
1128.17
1130.2
1133.1
1136.68
1139.62
1138.29
1128.07
1122.83
1124.65
1128.35
1133.02
1136.12
1141.3
1144.18
1146.81
1145.99
1145.01
1140.9
1134.35
1129.49
1126.6
1124.95
1122.94
1111.72
1102.96
1102.62
1115.9
1125.53
1130.76
1136.01
1138.26
1137.13
1133.27
1127.66
1114.41
1108.19
1106.01
1107.02
1110.81
1114.3
1116.66
1119.54
1121.13
1121.83
1121.47
1120.06
1116.72
1115.37
1112.78
1113.9
1114.82
1111.87
1101.09
1107.09
1125.69
1148.89
1151.46
1152.21
1155.95
1147.72
1141.16
1139.66
1140.53
1142.23
1142.34
1144.93
1143.81
1146.47
1144.48
1145.62
1144.99
1144.59
1143.67
1144.35
1141.09
1140.4
1139.63
1137.03
1135.97
1134.42
1132.41
1132.86
1138
1138.91
1139.41
1139.54
1139.59
1140.81
1142.45
1140.04
1136.57
1133.54
1128.71
1124.54
1120.58
1114.78
1112.83
1111.2
1110
1110.48
1112.89
1116.88
1120.99
1124.76
1129.37
1133.58
1135.62
1139.54
1143.97
1148.05
1147.69
1143.18
1140.69
1141.29
1143.61
1145.28
1144.59
1143.4
1140.17
1136.77
1136.99
1135.89
1133.5
1129.2
1124.95
1118.49
1113.97
1109.9
1106.69
1104.72
1102.94
1102.58
1103.32
1103.24
1106.7
1109.83
1114.77
1119.15
1124.85
1128.57
1131.7
1135.45
1141.69
1149.88
1148.81
1146.57
1145.95
1145.73
1145.85
1146.32
1146.23
1145.4
1147.28
1139.61
1133.01
1125.25
1117.78
1107.47
1098.93
1092.69
1091.17
1092.13
1096.02
1105.58
1115.81
1123.88
1131.69
1138.46
1143.04
1145.39
1147.79
1149.83
1148.85
1147.09
1146.57
1146.18
1144.54
1142.99
1141.98
1140.58
1139.35
1139.16
1140.04
1141.35
1140
1135.45
1138.31
1146.14
1151.34
1155.22
1159.35
1161.24
1162.34
1161.69
1163.63
1162.33
1163.23
1161.1
1158.87
1153.54
1149.09
1145.32
1141.93
1144.07
1148.54
1147.98
1145.22
1143.22
1142.4
1141.87
1141.69
1141.57
1141.45
1143.1
1150.49
1163.38
1175.46
1182.12
1176.28
1163.87
1161.22
1168.94
1185.66
1195.17
1196.77
1193.67
1189.67
1184.64
1180.63
1178.69
1178.65
1181.64
1185.43
1188.91
1192.3
1196.08
1198.88
1197.27
1188.77
1191.56
1190.01
1164.82
1143.32
1137.7
1126.66
1095.16
1068.23
1203.91
1242.33
1103.57
1122.27
1119.61
1117.25
1126.69
1137.2
1142.88
1141.72
1136.85
1132.3
1130.03
1135.21
1147.04
1152.26
1140.91
1112.67
1086.67
1094.53
1096.47
1088.84
1082.31
1079.26
1084.82
1101.59
1122.08
1132.92
1130.75
1122.88
1114.21
1095.34
1091.15
1096.91
1104.1
1109.37
1112.4
1114.54
1116.24
1116.36
1114.54
1110.73
1106.9
1105.84
1110.19
1113.69
1108.36
1088.57
1083.07
1090.96
1103.78
1110
1115.21
1117.94
1119.39
1120.48
1121.1
1121.81
1122.31
1122.44
1118.46
1120.57
1123.74
1121.87
1121.3
1120.36
1119.38
1117.9
1117.33
1116.39
1116.05
1115.65
1116
1116.38
1117.45
1119.48
1122.84
1127.04
1128.43
1126.11
1125.46
1125.24
1119.5
1116.96
1117.85
1119.61
1121.64
1123.16
1124.23
1124.32
1122.63
1120.01
1118.33
1118.57
1119.61
1121.13
1122.62
1119.51
1114.83
1111.94
1108.16
1103.52
1100.73
1098.4
1098.31
1098.65
1100.46
1104.3
1109.1
1112.61
1115.33
1117.13
1116.01
1116.83
1117.95
1119.49
1123.66
1124.32
1122.13
1120.47
1116.73
1111.12
1106.55
1103.16
1101.54
1100.34
1099.32
1099.21
1099.23
1098.58
1099.81
1099.64
1101.49
1104.58
1108.24
1110.78
1113.34
1114.91
1115.4
1115.18
1112.42
1112.43
1113.85
1117.34
1120.41
1122.91
1125.44
1128
1128.35
1126.1
1125.28
1126.05
1126.81
1127.91
1128.12
1129.4
1131.96
1135.33
1137.6
1129.09
1122.65
1124.16
1127.67
1131.68
1135.08
1138.97
1142.5
1144.82
1144.39
1142.31
1138.26
1132.42
1128.28
1126.07
1124.23
1121.35
1111.4
1105.15
1106.72
1116.56
1124.83
1130.8
1135.44
1137.53
1133.5
1130.7
1128.56
1117.13
1109.6
1107.35
1107.67
1110.13
1113.58
1115.93
1117.51
1119.19
1119.55
1119.3
1117.96
1115.89
1114.11
1113.79
1114.45
1113.54
1108.64
1105.32
1128.76
1148.07
1156.32
1157.75
1160.84
1160.29
1150.05
1141.8
1139.46
1140.18
1142.21
1141.85
1144.15
1143.79
1144.53
1144.78
1144.9
1144.96
1144.44
1143.47
1142.77
1140.57
1140.11
1138.61
1136.78
1135.51
1134.09
1132.68
1135.46
1137.91
1138.09
1138.81
1139.31
1139.91
1141.55
1141.41
1140.08
1136.31
1133.85
1129.87
1125.45
1121.28
1117.75
1114.26
1112.51
1112.29
1112.7
1115.53
1118.78
1121.85
1125.96
1130.3
1133.23
1136.19
1140.47
1144.84
1149.54
1148.97
1144.84
1141.3
1140.22
1139.59
1140.09
1138.99
1139.13
1138.21
1138.61
1138.13
1137.43
1135.24
1131.54
1126.94
1120.95
1116.1
1112.02
1108.93
1106.11
1105.14
1104.4
1104.09
1104.86
1108.43
1110.72
1115.71
1120.26
1125.21
1128.91
1132.15
1137.34
1146.27
1153.27
1151.08
1149.16
1148.46
1147.44
1147.28
1146.97
1146.76