/*--------------------------------*- C++ -*----------------------------------*\
| =========                 |                                                 |
| \\      /  F ield         | OpenFOAM: The Open Source CFD Toolbox           |
|  \\    /   O peration     | Version:  2.1.1                                 |
|   \\  /    A nd           | Web:      www.OpenFOAM.org                      |
|    \\/     M anipulation  |                                                 |
\*---------------------------------------------------------------------------*/
FoamFile
{
    version     2.0;
    format      ascii;
    class       volScalarField;
    location    "0.006950000";
    object      O2;
}
// * * * * * * * * * * * * * * * * * * * * * * * * * * * * * * * * * * * * * //

dimensions      [0 0 0 0 0 0 0];

internalField   nonuniform List<scalar> 
12384
(
0.0133966
0.014909
0.0155915
0.0157508
0.0157334
0.0152771
0.0145881
0.0133977
0.0123312
0.0113499
0.0105763
0.0101804
0.00990563
0.00806269
0.0298373
0.0278018
0.0296025
0.0312552
0.0317292
0.0311756
0.0294792
0.0276868
0.0263851
0.0257279
0.0249434
0.023873
0.0225668
0.0212714
0.0201936
0.0195048
0.0190239
0.018708
0.0184326
0.0181603
0.0175938
0.0171067
0.0165201
0.01587
0.0151475
0.0146664
0.0153769
0.0201994
0.0309265
0.0415215
0.00846788
0.00367985
0.00298387
0.00264128
0.0022807
0.00186411
0.00164308
0.00128782
0.00123976
0.00115833
0.001162
0.00117455
0.00135367
0.00161075
0.00188904
0.00207839
0.00231821
0.00248247
0.00256172
0.00253586
0.0024294
0.00234281
0.00218685
0.00200127
0.0017358
0.00138921
0.00113213
0.00156225
0.00411636
0.00643184
0.00227445
0.00221024
0.00173546
0.00113903
0.000770616
0.0006027
0.000480422
0.00045778
0.000459719
0.000494492
0.000543361
0.000594404
0.000655968
0.000738445
0.000843744
0.000833676
0.00107768
0.00119701
0.00129943
0.00136835
0.0013965
0.00152489
0.00153084
0.00155621
0.00154879
0.00153155
0.00151408
0.00156814
0.00182666
0.00166943
0.000442992
0.00050295
0.000522723
0.00052924
0.000520707
0.00050289
0.000484007
0.000490901
0.000477429
0.000463176
0.000440582
0.000437229
0.00042833
0.000447647
0.000437265
0.000456557
0.000454446
0.000491836
0.000517854
0.0005582
0.000601543
0.000425697
0.00105756
0.00102484
0.000677166
0.000424286
0.000226108
0.000155671
0.000284277
0.000752094
5.48504e-05
8.20778e-05
8.3843e-05
7.47302e-05
7.17933e-05
7.58511e-05
7.55291e-05
7.92014e-05
8.31107e-05
8.43708e-05
8.17987e-05
8.31545e-05
8.41449e-05
7.66032e-05
7.73376e-05
8.62057e-05
8.62042e-05
8.36891e-05
8.24839e-05
8.56364e-05
8.78359e-05
8.52364e-05
8.66614e-05
8.64524e-05
9.70274e-05
9.26628e-05
9.65867e-05
0.000103514
0.000127152
0.000114803
0.000802538
0.000128846
0.000171538
8.72338e-05
9.09145e-05
0.000128608
0.0001702
0.000203775
0.000235922
0.000263198
0.00028457
0.000298344
0.000305906
0.000309811
0.00031001
0.000306498
0.000305507
0.000300389
0.000296144
0.000283648
0.000280962
0.000290599
0.000273346
0.000233518
0.00105981
0.0148122
0.0161319
0.014656
0.0133092
0.0129867
0.000191959
7.86017e-05
6.53485e-05
4.53006e-05
4.01595e-05
3.84821e-05
4.66785e-05
4.90451e-05
4.68873e-05
3.6929e-05
3.5031e-05
3.98031e-05
4.21216e-05
3.41032e-05
2.98125e-05
3.90416e-05
4.54177e-05
4.04358e-05
4.99002e-05
6.00424e-05
9.12268e-05
7.76428e-05
2.95006e-05
9.93162e-05
8.99384e-05
8.83125e-05
8.68131e-05
8.72308e-05
9.06214e-05
9.82954e-05
0.000215417
0.000211989
0.000241468
0.000259844
0.00026603
0.000252741
0.000288074
0.000262378
0.000245435
0.000228352
0.000239603
0.000252602
0.000266696
0.000282649
0.000293906
0.000249663
0.000119404
1.92753e-05
1.54361e-05
1.8139e-05
2.13634e-05
2.39597e-05
2.61184e-05
2.70087e-05
2.84338e-05
2.97378e-05
2.7212e-05
2.08299e-05
1.28693e-05
2.0913e-06
9.00686e-05
4.43565e-05
-2.68273e-05
-2.64991e-05
-2.79503e-05
2.22431e-05
1.93499e-05
1.42256e-06
2.54926e-06
1.84712e-05
8.06341e-06
-1.04757e-05
2.27492e-05
1.04533e-05
4.31385e-05
9.50223e-05
0.000132599
0.000134224
7.30829e-05
3.32762e-05
2.39753e-05
2.50434e-05
2.68719e-05
2.73803e-05
2.91968e-05
2.84898e-05
2.62945e-05
2.27288e-05
1.88169e-05
1.50603e-05
1.43906e-05
2.01961e-05
3.60094e-05
4.49915e-05
4.77467e-05
4.64467e-05
4.46636e-05
4.4354e-05
4.1121e-05
3.76284e-05
2.63445e-05
1.91309e-05
1.51024e-05
1.38874e-05
1.35127e-05
7.2232e-06
4.63131e-06
5.01626e-06
6.36074e-06
7.64982e-06
7.89832e-06
8.96959e-06
8.16678e-06
7.99591e-06
7.9966e-06
7.30888e-06
6.96234e-06
6.90911e-06
5.98627e-06
5.1067e-06
2.15636e-05
2.87261e-05
3.03005e-05
1.01451e-05
4.43037e-06
3.53539e-06
2.80647e-06
2.64773e-06
2.82224e-06
9.0315e-06
5.54763e-06
1.04619e-05
8.35532e-06
7.20207e-06
1.04891e-05
1.02029e-05
1.12964e-05
1.17344e-05
1.21325e-05
1.20303e-05
1.17586e-05
1.06152e-05
9.76425e-06
8.12766e-06
8.46088e-06
9.06686e-06
1.02029e-05
1.96917e-05
2.30143e-05
2.09847e-05
5.85364e-06
5.68786e-06
2.73406e-06
3.66667e-06
4.13716e-06
9.05567e-06
2.85235e-05
6.57967e-07
5.70317e-07
5.2227e-07
4.63621e-07
4.3083e-07
3.5041e-07
3.2656e-07
2.78127e-07
2.68418e-07
4.30262e-07
4.23876e-07
4.20587e-07
4.04772e-07
4.2686e-07
4.98341e-07
5.42363e-07
6.17539e-07
7.52813e-07
1.22187e-06
1.58764e-06
1.01262e-06
4.19186e-07
1.54685e-07
0.0192646
0.0204084
0.0220244
0.0233397
0.0233946
0.0223642
0.0208046
0.0189507
0.0169458
0.0141934
0.0114549
0.0096515
0.00945342
0.00813987
0.0296125
0.0284097
0.0310213
0.0319764
0.0307504
0.0285505
0.0273608
0.027258
0.0276362
0.0263547
0.0231548
0.0199141
0.0173983
0.0163327
0.0163246
0.0170332
0.0183308
0.0196065
0.0205526
0.0209728
0.0208701
0.020151
0.0189492
0.0171999
0.015516
0.0138945
0.0135655
0.016067
0.0250034
0.0371055
0.00818277
0.00371105
0.00315244
0.00265565
0.00201322
0.0014022
0.000996432
0.000828714
0.000804991
0.000983874
0.00117687
0.00147905
0.00208515
0.00275405
0.00351012
0.00410783
0.00488529
0.00559122
0.00599207
0.00615192
0.00609943
0.00556398
0.00449946
0.00382497
0.00311511
0.00229322
0.00158524
0.00135163
0.00251026
0.00462078
0.00228559
0.00200556
0.00135531
0.000839583
0.000587835
0.000562416
0.000719293
0.000919266
0.00112818
0.0012831
0.00133567
0.00132083
0.0012619
0.00118395
0.00113529
0.00128817
0.00156232
0.00187555
0.00217581
0.0024008
0.00262325
0.00269842
0.00270069
0.00262538
0.00240744
0.00211951
0.00180687
0.00170215
0.00181853
0.00181956
0.000414356
0.00046578
0.000502962
0.000511472
0.000502855
0.000462658
0.000432583
0.000419272
0.000413098
0.000413366
0.000439088
0.000464
0.000461851
0.000473945
0.000493412
0.000487246
0.000504515
0.000512835
0.000513883
0.000527394
0.000554104
0.000175764
0.000625824
0.00105663
0.000701562
0.000460881
0.000402785
0.000355432
0.000334354
0.000358786
5.59825e-05
8.03708e-05
7.83428e-05
6.99369e-05
7.38899e-05
7.98155e-05
7.54658e-05
7.9942e-05
7.41521e-05
6.88878e-05
6.88039e-05
6.8784e-05
7.12326e-05
7.46408e-05
7.88977e-05
8.29758e-05
8.57012e-05
8.62759e-05
9.07599e-05
8.37728e-05
8.35983e-05
8.72478e-05
9.34878e-05
9.64846e-05
9.38182e-05
9.65149e-05
9.89167e-05
9.98541e-05
0.000112391
0.000120152
0.000718142
0.000213983
6.19554e-05
4.09924e-05
0.000113391
0.000183641
0.000223846
0.000267397
0.0003015
6.74014e-05
0.000254493
0.000374031
0.000441754
0.000457153
0.000423651
0.000384351
0.000333212
0.00031258
0.0003162
0.000263395
0.000218456
-8.57332e-06
0.000306899
0.00027631
0.000331524
0.00277891
0.0137205
0.0129055
0.00808219
0.00684019
0.000109478
4.59918e-05
4.14694e-05
3.62841e-05
2.6317e-05
2.5744e-05
2.06206e-05
3.82453e-05
2.85417e-05
2.78446e-05
3.15402e-05
3.02917e-05
3.73131e-05
3.49689e-05
2.68266e-05
2.9889e-05
3.44327e-05
4.37309e-05
3.95243e-05
5.23951e-05
7.33541e-05
-3.63844e-05
4.55991e-05
9.8488e-05
0.000100516
9.54241e-05
8.92243e-05
8.14696e-05
7.53022e-05
7.48926e-05
0.000211646
0.000252891
0.000314798
0.000366993
0.000400815
0.000421148
0.000457611
0.000436195
0.000452062
0.000431117
0.000404981
0.000392098
0.000349404
0.000331119
0.000313043
0.000310302
0.000196673
8.01373e-05
2.28124e-05
2.03862e-05
2.41423e-05
2.62993e-05
2.5979e-05
3.44482e-06
2.74163e-05
2.98574e-05
4.02978e-05
3.47059e-05
2.76584e-06
1.28267e-05
0.000164939
0.00017055
0.000167849
0.000163482
0.000161577
0.00018771
0.000188424
0.000182762
0.000185307
0.000197262
0.000182927
0.000191845
0.000147
0.000156772
0.000121712
8.99606e-05
0.000120314
0.000150693
0.000103377
6.10581e-05
2.69258e-05
2.70862e-05
3.03952e-05
3.30149e-05
3.74869e-05
3.52858e-05
3.09946e-05
2.76457e-05
2.41406e-05
1.97957e-05
1.701e-05
4.62469e-05
3.57709e-05
8.77126e-05
0.000115475
0.000161664
0.000159197
0.00014625
0.000120949
7.62445e-05
1.22784e-05
4.03236e-05
2.26584e-05
1.73688e-05
6.02662e-06
8.53233e-06
5.05548e-06
7.30717e-06
8.61752e-06
9.42122e-06
8.93707e-06
5.95129e-06
6.25403e-06
6.02974e-06
8.97517e-06
8.82422e-06
8.70914e-06
8.1931e-06
6.60822e-06
5.07715e-06
1.62575e-05
2.74177e-05
2.24351e-05
1.15657e-05
5.79645e-06
6.31408e-06
8.06723e-06
9.20923e-06
8.64649e-06
1.14749e-05
1.09153e-05
1.09523e-05
1.32843e-05
1.83812e-05
1.91509e-05
2.1082e-05
2.23757e-05
2.39736e-05
2.53395e-05
2.61939e-05
2.70726e-05
2.73929e-05
2.65704e-05
2.38033e-05
1.46504e-05
1.10581e-05
1.02861e-05
1.25534e-05
2.2423e-05
2.19146e-05
8.19016e-06
8.42839e-06
6.94198e-06
3.03966e-06
2.5087e-06
2.1037e-05
4.03299e-06
6.93047e-07
5.27922e-07
4.85753e-07
2.09697e-07
1.45629e-07
4.04774e-07
3.74649e-07
3.72943e-07
3.82729e-07
3.64338e-07
3.41984e-07
3.18358e-07
2.43697e-07
2.31803e-07
2.34994e-07
2.53135e-07
4.17244e-07
7.20485e-07
8.92833e-07
1.75066e-06
1.13309e-06
3.07228e-07
1.44673e-07
0.0222079
0.0249569
0.0286249
0.0285563
0.0258314
0.0225032
0.0197798
0.0186169
0.0182154
0.0172843
0.0143531
0.0104838
0.00907959
0.00810451
0.0295228
0.0290621
0.0318456
0.0318669
0.0300233
0.0293016
0.0304049
0.0317306
0.0297684
0.0224373
0.0162538
0.0133528
0.0126714
0.0136534
0.0160717
0.0197064
0.0230695
0.0251809
0.0263385
0.0268361
0.0268744
0.0263996
0.0252475
0.0230251
0.0196714
0.0158103
0.0131142
0.0136363
0.01974
0.0329891
0.00809282
0.00388372
0.00342494
0.00273177
0.00168603
0.000776558
0.00032752
0.000334792
0.000496627
0.000945606
0.00139255
0.00185462
0.00273545
0.00369371
0.00484729
0.00621096
0.00694805
0.00735839
0.0076505
0.0078841
0.00805378
0.00814745
0.00792656
0.00706936
0.0053082
0.00369178
0.00245329
0.00157875
0.00179605
0.00359731
0.00225883
0.0017855
0.00109022
0.000719341
0.000761525
0.00111624
0.00157544
0.00186301
0.00202375
0.00215222
0.00209065
0.00208291
0.00200648
0.00177389
0.00137769
0.00146813
0.00187657
0.00238004
0.00280797
0.00318977
0.00340428
0.00350818
0.00353403
0.00348708
0.00329667
0.00291366
0.00239995
0.0019279
0.00180815
0.00188396
0.000361003
0.000414713
0.000511295
0.000522367
0.000473298
0.00042067
0.000406859
0.00042285
0.000473508
0.000515664
0.000410486
0.000821918
0.00107531
0.00134005
0.00136802
0.00136916
0.00115877
0.000911855
0.000488644
0.000161117
0.000550493
0.000574123
0.000455233
0.000917467
0.000976179
0.000237506
0.000475268
0.000414415
0.00034735
0.000281163
5.43209e-05
7.67888e-05
7.2e-05
6.61359e-05
7.37456e-05
7.49855e-05
7.4824e-05
6.60932e-05
5.84055e-05
4.31148e-05
4.16512e-05
4.35214e-05
5.94391e-05
6.6798e-05
7.62394e-05
8.39506e-05
8.20139e-05
8.8105e-05
9.36468e-05
9.11243e-05
8.81935e-05
8.87629e-05
9.56095e-05
9.57161e-05
0.000100731
0.000101526
0.000102294
9.9073e-05
0.000103719
0.000114444
0.000544231
0.000160189
6.62178e-06
4.592e-05
0.00011389
0.000133365
0.000165131
0.000216131
0.000266942
0.000305167
0.00015278
0.000329191
0.00036289
0.000275441
0.00014971
1.71988e-05
0.000323554
0.000326595
0.000324409
2.11589e-06
0.000122052
4.4461e-05
7.66262e-05
0.000302345
0.000285722
0.000519168
0.00483281
0.0121628
0.00797526
0.00449019
7.86901e-05
4.16671e-05
3.5922e-05
1.5511e-05
1.07434e-05
1.68921e-05
3.8311e-05
3.51438e-05
2.8945e-05
3.76986e-05
2.49756e-05
2.02297e-05
3.00855e-05
1.61406e-05
2.90053e-05
1.95069e-05
2.63474e-05
3.41996e-05
4.38975e-05
4.01669e-05
5.52734e-05
8.3359e-05
4.43049e-05
4.30596e-05
7.79606e-05
1.46788e-05
0.000101095
9.4349e-05
8.67873e-05
6.98907e-05
0.000228136
0.000308221
0.000381048
0.000450906
0.000514552
0.000653395
0.00102566
0.00133687
0.00135342
0.00131816
0.00110428
0.000718431
0.00031134
0.000444011
0.000389815
0.00034434
0.000318351
9.63895e-05
1.6651e-05
2.16172e-05
2.3204e-05
2.41022e-05
2.52512e-05
-1.54435e-06
3.30231e-05
5.61615e-05
5.74842e-05
6.59433e-05
4.40256e-05
2.64776e-05
0.00021376
0.000198444
0.000186429
0.000218365
0.000232313
0.000254687
0.000108507
0.000315619
0.000434826
0.000494811
0.000451295
0.00036323
1.54467e-05
0.000276237
0.000232976
0.000182637
0.000167949
0.000180473
0.000156294
2.83685e-05
3.99903e-05
2.53534e-05
2.65124e-05
3.07083e-05
3.92264e-05
3.35985e-05
2.70453e-05
2.29944e-05
2.11618e-05
2.15373e-05
4.78532e-05
5.15877e-05
0.000105958
0.00015398
0.000220692
-4.91836e-05
0.000392519
0.000480382
0.000287952
0.000225649
0.000145723
4.96613e-05
4.06062e-05
2.12271e-05
1.38879e-05
1.15719e-05
5.79829e-06
6.96345e-06
8.35569e-06
9.72605e-06
4.12758e-07
6.66355e-06
6.66397e-06
6.18242e-06
8.81162e-06
8.48027e-06
8.3896e-06
8.32683e-06
7.0765e-06
5.23135e-06
1.72952e-05
2.37801e-05
1.13832e-05
6.63763e-06
9.15368e-06
4.7907e-06
8.00357e-06
1.08025e-05
1.2699e-05
1.25424e-05
1.29421e-05
1.20017e-05
1.66458e-05
1.78513e-05
2.04786e-05
2.13715e-05
2.34967e-05
2.45694e-05
2.52409e-05
2.67634e-05
3.01596e-05
3.38788e-05
-4.57597e-06
3.59434e-05
3.11614e-05
1.8912e-05
1.27703e-05
1.21909e-05
2.10611e-05
2.18712e-05
8.13556e-06
3.65943e-06
1.0297e-05
1.85717e-06
7.90381e-06
9.59682e-06
1.31524e-06
6.18278e-07
3.56019e-07
3.58559e-07
3.88299e-07
4.35797e-07
4.37731e-07
4.42196e-07
3.03667e-07
4.2445e-07
3.63211e-07
3.50202e-07
3.11181e-07
3.04917e-07
3.00335e-07
1.45366e-07
1.83633e-07
3.68054e-07
8.57627e-07
1.66308e-06
5.40325e-07
1.65619e-07
1.60721e-07
1.39947e-07
0.0266615
0.0319808
0.0318009
0.0263241
0.0193319
0.0149135
0.0125122
0.0120764
0.0132973
0.0153799
0.0154101
0.0119464
0.00923107
0.00802099
0.0295413
0.0294197
0.0323428
0.032087
0.0311381
0.0324453
0.0347212
0.0337127
0.0245567
0.0153258
0.0110939
0.0104185
0.0110875
0.0144398
0.0199972
0.0251161
0.0279701
0.0290226
0.0290519
0.0287512
0.0286074
0.028616
0.0284134
0.0272246
0.024469
0.0197695
0.0145139
0.0124825
0.0162484
0.029848
0.00833215
0.00448042
0.00384858
0.00301194
0.00155463
0.000274128
0.000456209
0.000474992
0.000206257
0.00105556
0.00169632
0.00220843
0.00318869
0.00422681
0.00584871
0.00662744
0.00699956
0.00735102
0.00770915
0.0080262
0.00827409
0.0084823
0.00868508
0.00865347
0.00781328
0.00570622
0.00351508
0.00203459
0.0016156
0.00302473
0.00222343
0.00161896
0.000978618
0.000804123
0.0011844
0.00171888
0.00205983
0.00219042
0.00214306
0.00206269
0.00210242
0.00214683
0.00221707
0.00209123
0.00150687
0.00155399
0.00209966
0.00273411
0.00330721
0.00368408
0.00424565
0.00475285
0.00496447
0.00484855
0.0043549
0.00357061
0.00302192
0.00231153
0.00191138
0.00187921
0.000297166
0.000406644
0.000528987
0.000523404
0.000461304
0.000408674
0.00041894
0.00046736
0.000293455
0.00114866
0.00179725
0.0022511
0.00260909
0.00279756
0.00287977
0.00277479
0.00255607
0.00215371
0.00160308
0.000980856
0.000377608
0.000572291
0.000256286
0.000722493
0.000971413
0.00062785
0.000615428
0.000614818
0.000133976
0.000411355
5.14915e-05
7.2299e-05
6.6811e-05
6.15151e-05
6.9802e-05
7.71548e-05
6.68255e-05
5.68783e-05
3.8059e-05
1.79698e-05
1.78062e-05
3.70225e-05
4.18744e-05
6.37923e-05
7.56439e-05
8.61349e-05
8.89172e-05
9.58434e-05
8.91802e-05
9.53509e-05
8.8817e-05
9.30209e-05
9.36428e-05
9.59343e-05
9.70505e-05
0.000106619
0.000105443
0.000100379
9.82278e-05
0.000107435
0.000358828
0.0001163
5.78615e-05
6.68304e-05
-3.38582e-05
6.49829e-05
-1.24556e-05
7.24748e-05
0.00020321
0.000273464
3.37332e-05
0.000258017
0.000353039
-2.04489e-06
0.000310868
0.00027596
0.000264909
0.000258392
0.000270638
0.000277279
0.000295275
0.000344445
5.74112e-05
0.000330436
0.00028706
0.000310637
0.00156881
0.00717448
0.00832093
0.00378355
4.56842e-05
4.01931e-05
3.58615e-05
2.99448e-05
3.70522e-05
2.25876e-05
4.21243e-05
2.81315e-05
2.55755e-05
2.10941e-05
1.26589e-05
6.63283e-06
2.96214e-06
1.46955e-05
5.98156e-06
7.43946e-06
1.87635e-05
2.36329e-05
3.4553e-05
2.99654e-05
4.28175e-05
6.41722e-05
9.52126e-05
5.95289e-05
0.000111789
0.000110747
-3.74494e-05
0.00010048
0.000100395
7.82594e-05
0.000284645
0.000289427
0.00040833
0.000501824
0.000835403
0.00166109
0.00222699
0.00271143
0.00291431
0.00285541
0.00261359
0.00217258
0.00157954
0.000935718
8.68843e-05
0.000408573
0.000360872
0.000248556
7.3206e-05
2.70623e-05
2.2109e-05
2.30036e-05
2.62167e-05
1.64577e-05
5.7522e-05
7.51023e-05
8.10124e-05
7.44445e-05
5.79097e-05
2.00385e-05
0.000156917
0.000175292
0.000183318
0.000241761
-1.95797e-06
0.000704074
0.00110416
0.00143084
0.00165379
0.00177636
0.00176535
0.00161563
0.00141814
0.000951538
0.000385055
0.000289397
0.000244987
0.000196287
0.000205801
0.000125339
6.61774e-05
2.92736e-05
2.30169e-05
3.07613e-05
3.63679e-05
2.88515e-05
2.05579e-05
1.49207e-05
1.53747e-05
2.00328e-05
5.73873e-05
9.65124e-05
0.000168366
0.000233845
0.000753175
0.0014587
0.0019302
0.00208613
0.00189296
0.00134356
0.00047337
0.00017879
2.60181e-05
3.51133e-05
1.73599e-05
9.91956e-06
7.25223e-06
4.80872e-06
7.67167e-06
9.04213e-06
2.30604e-06
6.83516e-06
6.87552e-06
6.32469e-06
8.73897e-06
8.16291e-06
7.77995e-06
6.94611e-06
6.9097e-06
5.19546e-06
1.73878e-05
2.0579e-05
1.29118e-05
9.66452e-06
6.9501e-06
1.30493e-05
1.01491e-05
1.28287e-05
5.2207e-06
3.07429e-06
1.10572e-05
1.35368e-05
1.34142e-05
1.38282e-05
1.7579e-05
2.04466e-05
2.06033e-05
2.08314e-05
1.96278e-05
2.19318e-05
2.92206e-05
-1.39793e-06
5.02671e-05
6.21082e-05
3.16229e-05
3.17968e-05
1.71278e-05
1.26484e-05
2.08243e-05
2.15864e-05
4.29705e-06
2.16646e-06
2.90912e-05
3.02839e-06
8.20188e-06
3.91602e-06
7.23681e-07
4.46345e-07
4.55034e-07
3.5276e-07
6.28979e-07
8.44122e-07
9.73789e-07
8.78494e-07
7.04572e-07
6.40054e-07
3.16363e-07
3.71242e-07
3.20389e-07
2.68594e-07
2.69532e-07
2.66734e-07
1.05439e-07
4.09456e-07
1.30911e-06
1.03273e-06
3.6792e-07
2.01444e-07
9.45342e-08
1.99074e-07
0.0343623
0.034833
0.0281454
0.0183532
0.0126593
0.0106014
0.00994793
0.00974506
0.0103218
0.0122817
0.0147135
0.0131553
0.00959326
0.00789783
0.0295642
0.0294433
0.0327402
0.0331435
0.0336176
0.0359789
0.0372325
0.0319638
0.0191442
0.0115881
0.00974294
0.0098256
0.0114802
0.0169881
0.0244887
0.0286539
0.029571
0.0286307
0.0270938
0.0260694
0.0257234
0.0260586
0.0270566
0.0281287
0.0273097
0.0233742
0.0169058
0.0125311
0.0145733
0.0275766
0.00883342
0.00521555
0.00508464
0.00373818
0.00219461
0.000489429
0.000460295
0.000469044
0.00042908
0.00145246
0.00219026
0.00260212
0.0035131
0.00498056
0.00601051
0.00633776
0.00681426
0.00750292
0.00810693
0.0084394
0.00856734
0.00864196
0.00876811
0.00902247
0.00889714
0.00759815
0.00434154
0.00265742
0.00164584
0.00272215
0.00220117
0.00155812
0.000966711
0.000969168
0.00152086
0.00200887
0.00214959
0.00194142
0.00154921
0.00132735
0.00151697
0.00193326
0.00227028
0.00217501
0.00157666
0.00162949
0.00232097
0.00309384
0.00364274
0.004605
0.00558587
0.00616616
0.00646276
0.00635975
0.00580667
0.00472528
0.00343296
0.00266994
0.0020236
0.00192545
0.0003101
0.000456384
0.000295245
0.000527058
0.000450418
0.00040493
0.000429958
0.00020764
0.00132487
0.00222233
0.00290093
0.00325421
0.00351096
0.00358968
0.00363349
0.00362301
0.00348557
0.00318493
0.00267173
0.00185727
0.000980192
0.000343621
0.000212535
0.000554294
0.000946554
0.000871679
0.00108691
0.00152384
0.00118652
0.000239546
4.87216e-05
6.94444e-05
7.41554e-05
5.50252e-05
6.34535e-05
7.16432e-05
6.2548e-05
3.82804e-05
1.65771e-05
1.57837e-05
1.66462e-05
1.91029e-05
4.07411e-05
6.11184e-05
7.5025e-05
8.9188e-05
9.19741e-05
8.99129e-05
8.65796e-05
8.26343e-05
8.23004e-05
8.61506e-05
9.18e-05
9.13604e-05
9.14481e-05
0.000101064
0.000108116
0.000100431
9.43571e-05
0.000100064
0.000176341
7.76539e-05
5.01894e-05
5.38064e-05
4.62574e-05
2.84023e-05
3.48432e-05
6.35765e-05
8.52738e-05
0.000249307
0.000117742
0.000362379
0.000212941
0.000297442
0.000246584
0.000225554
0.000176489
0.000174468
0.000177942
0.000212728
0.000219941
0.000280942
0.000333997
0.000333066
0.000301978
0.000290226
0.000314178
0.0028628
0.00700175
0.00317683
4.31472e-05
5.84335e-06
2.45722e-05
2.76234e-05
1.90784e-05
4.46067e-05
4.15131e-05
3.22296e-05
1.6866e-05
3.66774e-06
2.80305e-05
2.36044e-05
2.35896e-05
2.22582e-05
2.31809e-05
2.51037e-05
7.41834e-06
1.39864e-05
2.89695e-05
3.5434e-05
3.36603e-05
5.17527e-05
8.19816e-05
3.51821e-05
9.8103e-05
1.7096e-05
-4.38543e-05
0.000104227
0.000109467
8.67051e-05
0.000241504
0.000334268
0.000433744
0.000499184
0.00161659
0.00257502
0.0033277
0.00438631
0.00529023
0.0053071
0.00449869
0.00346319
0.00275946
0.00191939
0.00104514
-7.67636e-06
0.000397762
0.00032867
1.58505e-05
2.11551e-05
2.42229e-05
2.40228e-05
-1.21994e-06
5.46254e-05
8.90425e-05
9.64271e-05
8.85694e-05
7.76185e-05
6.42604e-05
4.30968e-05
0.000161622
0.000168302
0.000232183
-8.9373e-05
0.00068211
0.00146603
0.00191169
0.00231887
0.00254341
0.00265214
0.00268604
0.00259953
0.00236861
0.00205782
0.00140368
0.000740735
0.000306257
0.000262581
0.000217626
0.000206131
5.17009e-05
4.58856e-05
2.91265e-05
3.55006e-05
3.14257e-05
2.32894e-05
1.4794e-05
8.49628e-06
1.00278e-05
1.69119e-05
5.87924e-05
9.87102e-05
0.000193998
0.000751032
0.0019179
0.00348215
0.00572398
0.006423
0.0055898
0.00303597
0.00179439
0.000450955
0.000138728
4.22028e-05
2.79045e-05
1.02253e-05
9.89822e-06
4.95882e-06
7.08759e-06
8.7604e-06
1.02917e-05
1.38612e-06
6.98036e-06
6.86832e-06
9.00099e-06
8.31544e-06
7.45609e-06
6.4035e-06
6.46779e-06
5.32428e-06
1.7187e-05
1.85444e-05
6.94574e-06
4.54122e-06
1.32472e-05
1.36147e-05
1.09223e-05
6.29277e-06
6.44951e-06
1.02736e-05
1.15307e-05
-7.77272e-07
1.26017e-05
7.84687e-06
1.21655e-05
1.63567e-05
1.85244e-05
1.70605e-05
1.44598e-05
1.75322e-05
2.77538e-05
1.42586e-05
9.94499e-05
0.000118218
8.59359e-05
2.65753e-06
2.54519e-05
1.97298e-05
2.09686e-05
2.11986e-05
3.33285e-06
7.94923e-06
1.0447e-05
2.10111e-05
9.38413e-06
1.50977e-06
6.8011e-07
5.09132e-07
4.31048e-07
8.71892e-07
1.3531e-06
1.3539e-06
1.92767e-06
1.83075e-06
1.01368e-06
1.05346e-06
7.58336e-07
2.64013e-07
3.6513e-07
2.74415e-07
2.56631e-07
2.37732e-07
2.61994e-07
4.33746e-07
1.33946e-06
8.119e-07
2.31977e-07
5.60141e-08
9.48824e-08
3.66361e-07
0.0376232
0.0328301
0.0206513
0.0128906
0.0110605
0.010787
0.0105791
0.0101529
0.0100507
0.011266
0.013821
0.01349
0.00985195
0.00783035
0.0297035
0.028952
0.0330055
0.034579
0.0360651
0.0385836
0.0387065
0.0292476
0.0164317
0.0105021
0.00921202
0.00961031
0.0121978
0.0199291
0.0275772
0.0298148
0.0286116
0.026233
0.0243878
0.0231192
0.0225421
0.0228602
0.024253
0.0263112
0.0276876
0.0255479
0.0192673
0.0130975
0.0137952
0.0260634
0.00954323
0.00593133
0.00601314
0.00595784
0.00368403
0.00194226
0.000953042
0.000715049
0.00136181
0.00217401
0.00273043
0.00297559
0.00375174
0.00539413
0.00582953
0.00608413
0.0070695
0.00817932
0.00879541
0.00888202
0.00881048
0.00873763
0.00876114
0.00898187
0.00919329
0.00852797
0.00586945
0.00314982
0.00176241
0.00257076
0.00220363
0.00157891
0.00100325
0.00107301
0.00164289
0.00202538
0.00190613
0.00152042
0.000857474
0.000577915
0.000943029
0.00164671
0.00217174
0.00227174
0.00156008
0.00177627
0.00260958
0.00332913
0.00405681
0.00552224
0.00670257
0.00735972
0.00754513
0.0073443
0.00680556
0.00579075
0.00399273
0.00288387
0.0021305
0.00185975
0.000315099
0.000512834
0.00049002
0.000521093
0.000434371
0.000411137
0.000500945
0.000947265
0.00204623
0.00289611
0.00337371
0.00362708
0.00378946
0.00382164
0.0038652
0.0037984
0.00384338
0.00367717
0.00332794
0.00261332
0.00159119
0.000632587
0.000267064
0.00049381
0.000894521
0.000864522
0.00128585
0.00184542
0.00141668
0.000332569
4.17842e-05
6.33743e-05
7.34745e-05
5.8992e-05
6.56142e-05
6.78484e-05
5.90928e-05
4.96478e-05
1.60623e-05
1.61127e-05
1.76778e-05
2.04247e-05
3.74061e-05
5.72782e-05
7.48577e-05
8.88594e-05
9.25777e-05
8.72194e-05
9.40863e-05
9.19107e-05
7.94385e-05
8.70066e-05
8.7594e-05
8.48436e-05
9.73865e-05
0.000105741
0.000108707
9.91361e-05
9.91816e-05
9.41538e-05
-1.68319e-07
5.0504e-05
4.42944e-05
4.15791e-05
1.08744e-05
2.30336e-05
2.41397e-05
2.58398e-05
-1.13635e-05
0.000233724
4.10481e-05
0.000297118
-0.00010186
0.0002743
0.000225698
0.000176572
0.000101897
8.91818e-05
9.47536e-05
0.000125743
0.000188679
0.000245705
0.000294715
0.000338155
0.000307554
0.000287911
0.000329139
0.001938
0.00508649
0.00287505
2.65384e-05
3.22524e-05
1.95156e-05
3.15009e-05
3.53409e-05
4.4691e-05
3.26614e-05
1.18942e-05
3.04874e-05
2.39886e-05
2.44422e-05
2.01488e-05
2.03738e-05
1.89011e-05
2.09097e-05
2.29979e-05
2.54155e-05
6.2695e-06
2.32916e-05
2.8315e-05
4.16683e-05
4.47885e-05
6.96636e-05
9.42588e-05
-1.1937e-05
-3.55276e-05
0.000102429
7.8077e-06
3.40771e-05
9.61775e-05
0.000183336
0.000332491
0.00048103
0.00108365
0.00230145
0.00331266
0.00521077
0.00708879
0.00800157
0.00818441
0.0074359
0.00593542
0.00368946
0.00273156
0.0017236
0.000532633
0.000437702
0.00037119
0.000163884
5.75156e-05
2.76204e-05
2.64349e-05
4.62463e-05
9.65269e-05
6.12163e-05
-2.19807e-05
9.18035e-05
8.43323e-05
6.85179e-05
4.33218e-05
0.000159431
0.00017669
0.000255219
0.000309218
0.00126028
0.0019613
0.00249427
0.00295122
0.00389534
0.00427739
0.00444447
0.0043186
0.00366691
0.00275682
0.00224508
0.00149302
0.000546785
0.000304592
0.000239458
0.000226001
0.000126278
6.48403e-05
4.60222e-05
3.81314e-05
2.50657e-05
3.21925e-05
1.38144e-05
5.19448e-06
5.0769e-06
1.38328e-05
4.82306e-05
0.000126022
-2.10852e-05
0.00158867
0.00392712
0.00794617
0.0111482
0.0122048
0.0112428
0.00781373
0.00358774
0.00145729
0.000211375
5.28552e-05
3.09889e-05
2.32329e-05
1.28719e-05
5.87297e-06
6.65004e-06
8.69118e-06
1.00967e-05
4.03459e-06
1.71149e-06
7.19699e-06
7.11354e-06
8.95267e-06
8.0519e-06
6.88112e-06
6.02581e-06
5.51221e-06
1.66817e-05
1.71488e-05
8.80978e-06
7.48886e-06
8.6774e-06
9.62474e-06
1.15558e-05
2.18016e-05
1.76286e-05
1.90381e-05
5.78502e-06
1.00083e-05
9.29026e-06
3.60492e-06
1.35944e-05
1.75437e-05
1.84768e-05
1.55677e-05
1.02006e-05
1.27876e-05
2.44217e-05
7.77586e-06
9.98403e-05
0.000140325
0.000102733
9.04705e-06
2.63994e-05
2.03217e-05
2.10982e-05
2.05591e-05
1.91362e-06
2.7683e-06
2.35505e-05
2.08601e-05
6.67277e-06
1.31233e-06
5.17874e-07
6.18136e-07
7.76605e-07
1.43652e-06
2.59108e-06
3.72095e-06
1.92214e-06
4.41812e-06
3.21872e-06
1.76993e-06
1.09618e-06
6.59939e-07
4.02333e-07
3.01402e-07
2.56947e-07
2.29419e-07
2.25746e-07
4.46739e-07
5.0744e-07
1.88339e-06
3.3976e-07
1.32955e-07
2.23924e-07
1.89857e-06
0.0375799
0.0270092
0.0153138
0.0117315
0.0122032
0.0127916
0.0122129
0.0111813
0.0107054
0.0115358
0.0136769
0.013658
0.00992552
0.00772992
0.0300101
0.0279179
0.0328756
0.0358134
0.0380837
0.0399253
0.0387353
0.0275346
0.0151022
0.0100259
0.00886356
0.00960956
0.012947
0.0223965
0.0292616
0.0295521
0.0267449
0.0243702
0.0226419
0.0214557
0.0206996
0.0208362
0.0220586
0.0245128
0.0268516
0.026403
0.0206834
0.0135079
0.0135593
0.0255364
0.0107118
0.00696671
0.00652759
0.00751336
0.00715698
0.00475969
0.00361022
0.00307897
0.0030773
0.00326491
0.00344341
0.00327341
0.00390421
0.00547444
0.0055099
0.00605657
0.00755977
0.00883168
0.00905535
0.0087891
0.00857744
0.00854382
0.00861229
0.00886663
0.00919976
0.00889103
0.00668283
0.00345726
0.0018731
0.00251471
0.00223393
0.00168054
0.00107586
0.00103364
0.00154046
0.00188744
0.00175855
0.00118124
0.000432625
0.000222612
0.000730879
0.00156764
0.0021416
0.00228567
0.00160244
0.00185002
0.00279383
0.00345517
0.0046396
0.00625575
0.0074269
0.00790537
0.00806587
0.0078316
0.00725558
0.0062766
0.00453627
0.00307583
0.00223879
0.00191191
0.000324596
0.000383459
0.000512799
0.000486645
0.000423184
0.00042253
0.000563568
0.00138162
0.00253399
0.00320239
0.00351148
0.00377908
0.00381672
0.00378748
0.00382023
0.00379285
0.00388249
0.00388089
0.0035613
0.00302217
0.00193371
0.00089346
0.0003307
0.000501537
0.000905128
0.00092322
0.00139083
0.00183503
0.00120908
0.000501339
4.29157e-05
5.79934e-05
7.36987e-05
5.65506e-05
5.57174e-05
6.01564e-05
5.53339e-05
4.95582e-05
3.36174e-05
1.28607e-05
2.03904e-05
2.52789e-05
3.97053e-05
5.70239e-05
7.14643e-05
8.7753e-05
8.67937e-05
8.75984e-05
9.60948e-05
8.34773e-05
7.86439e-05
8.85335e-05
9.31243e-05
8.95638e-05
8.24089e-05
9.24886e-05
9.68588e-05
9.61528e-05
9.43182e-05
9.72553e-05
-9.48531e-05
2.89878e-05
3.51672e-05
1.37871e-05
2.06417e-05
1.54588e-05
1.67084e-05
2.42354e-05
5.94512e-05
0.000216767
-1.19465e-05
0.000232285
0.000298141
0.000257721
0.000213297
0.000150081
7.08563e-05
6.24852e-05
5.63773e-05
8.98903e-05
0.000134751
0.000210622
0.000290205
0.000338139
0.000313087
0.000285917
0.00031124
0.0014642
0.00337563
0.00242964
1.95143e-05
2.27629e-05
2.02664e-05
1.92101e-05
4.13549e-05
3.87246e-05
3.08172e-05
1.90667e-05
2.91781e-05
2.15318e-05
2.15128e-05
1.64147e-05
1.74401e-05
1.71717e-05
1.90836e-05
2.07068e-05
2.32782e-05
2.69313e-05
1.61014e-05
2.43122e-05
3.98518e-05
3.91875e-05
6.21334e-05
8.54118e-05
9.66486e-05
9.5217e-05
-6.35485e-06
7.22797e-05
7.16983e-05
0.00010214
0.000104722
0.00036545
7.87933e-05
0.00148035
0.00273441
0.00403872
0.00678891
0.00844384
0.00922309
0.00932832
0.00880271
0.00758501
0.00540315
0.00324637
0.00219101
0.000966586
0.000472917
0.000399556
0.000184407
8.00065e-05
1.37594e-05
3.0992e-05
9.39759e-05
9.91175e-05
8.38828e-05
4.94609e-05
8.8435e-05
8.46575e-05
6.79193e-05
4.89941e-05
0.000154149
0.000184287
0.000268836
0.000513659
0.00152032
0.00224079
0.00279254
0.00389343
0.00460314
0.00489913
0.00495103
0.00494163
0.00471373
0.00400948
0.00272428
0.00202665
0.00121675
0.000213105
0.000286485
0.000242287
0.000167612
3.78852e-06
5.96431e-05
3.0879e-05
3.5865e-05
3.67315e-05
1.70751e-05
5.57961e-06
2.09883e-05
1.06219e-05
5.72806e-05
0.00012157
0.000478729
0.00216884
0.00669475
0.0117465
0.0150708
0.0162278
0.0154861
0.012475
0.00681187
0.00218556
0.000375191
9.85453e-05
3.6029e-05
2.59092e-05
1.22506e-05
7.32691e-06
4.98204e-06
8.29918e-06