/*--------------------------------*- C++ -*----------------------------------*\
| =========                 |                                                 |
| \\      /  F ield         | OpenFOAM: The Open Source CFD Toolbox           |
|  \\    /   O peration     | Version:  2.1.1                                 |
|   \\  /    A nd           | Web:      www.OpenFOAM.org                      |
|    \\/     M anipulation  |                                                 |
\*---------------------------------------------------------------------------*/
FoamFile
{
    version     2.0;
    format      ascii;
    class       volScalarField;
    location    "0.006950000";
    object      omega;
}
// * * * * * * * * * * * * * * * * * * * * * * * * * * * * * * * * * * * * * //

dimensions      [0 0 -1 0 0 0 0];

internalField   nonuniform List<scalar> 
12384
(
13047.6
18512.1
21407
23846.9
26134.5
27989.5
29257.8
29624.7
29135.8
28030.9
26152
23117.3
18266.1
11636.3
23252.6
28364.3
31177.7
32593.5
33327.1
33874
34609
35741.5
37271.5
38949.6
40558.4
42324.4
44935.3
49213.6
54907.6
61087
67363.4
72985.9
77293.3
79468.1
79348
76673.5
74239
71623
68332.5
63843
57233
46643.8
29658.7
16965.8
32620.8
37648.2
41219.8
43037.9
44095.6
44685.3
45399.3
46361.9
47480.3
49070.1
51760.7
56400.5
63163
71310.7
80238.9
89319.4
97293.5
103296
105829
104323
99070.7
93963.2
90209.1
86635.3
82511.1
77064.7
68940.2
55777.5
35344.1
25136.5
36407.4
41936.2
46426.3
50968.6
55770.5
60335.3
64478.4
68300.1
72293.6
75916.1
78129.9
79927.3
82373.4
86367.8
92433.8
101793
111845
122308
132140
139960
143984
142650
135535
128770
121505
111941
96477.4
70402.6
41828.5
36119.6
45754.8
59901.4
69586.7
77077.5
85040.4
94948.1
105388
116871
128848
140530
151065
158596
163829
162990
158386
152484
146708
140883
133123
122389
106136
82090.2
53237.9
37063.3
33682.6
33691.5
34965.7
35317.2
34328.1
31285.2
26261.2
31857.7
35240.1
36974.6
37951.4
39409.2
42136.6
46500.4
51995.1
58356.7
64829.3
71812.5
79547.2
89127.8
98485.9
107932
116802
124169
129086
129421
124512
115410
107570
100222
92268.3
82211.4
68465
50938.8
36723.1
34848.2
21264.3
24271.1
27599.2
32359
39755.3
48856
58851
69605
80790
92472.7
104102
115615
126191
135069
141044
142752
138579
128611
119671
112225
105207
97221.5
86724.5
71880.6
50581.6
35757.5
32654.6
30767.2
30536.3
32723.9
23552.2
27986.7
42023.6
59314.7
76539.2
92343.2
107545
121999
134282
144873
150497
152748
147778
139565
132575
126240
119730
112061
101685
87917.7
69131.7
51649
40948.5
35943.3
34461.9
34547.2
34487.3
33702.5
32888.4
32236.5
31210.7
55851.2
82159.1
102445
118535
130955
139140
142756
140668
134872
130026
125422
120511
114753
107423
97974.9
85762.9
72550.9
60040.1
48957.6
40961.1
37334.3
37188.7
37689
36439.6
34254.1
31376.3
28557.1
26172.1
24783.1
29684.7
34363.2
43181.5
59984.2
79600.4
97629.2
112522
123626
129427
130837
128855
127548
126718
125395
122371
117407
110259
101009
89368.7
76515.3
62215.9
49088.6
41333.4
39836.5
40621.1
39811.1
38035.5
36218.6
35295.5
35491.7
30782.4
52641
84958.6
107028
121135
128303
127869
118776
114055
112730
112513
111738
109060
103818
97886.3
91964.9
85024.9
77135.7
68088.3
59079.4
53016
50605
49913.5
48858.7
46919.5
44468.8
42255.8
40636.8
39319
37829.7
23278.4
23549.9
29436
37825.3
47541.8
56819.2
65269.6
73293.3
81407.9
89709.7
94830.1
94372.2
90635.2
84449
77450
70207.5
63444.2
59207
57686.1
57880.6
59139.4
59933.7
59307.8
58771.2
59274.8
59581.6
58679.8
55771.4
49684.7
38755.3
13104.2
16367.1
14929.3
12561.6
11532.8
16821.7
34461.3
55481.2
70494.8
79684.4
86424
91433.7
96277.4
101837
107328
105213
99793.6
90995.2
80709.3
69623.5
58305.4
48222.2
40587.8
34807.6
30393.6
26379
21759.8
16230.3
10207.8
4727.5
18332.7
55881.1
70381
84793.6
98973.5
112067
123152
130859
133266
129511
119727
104225
83886.5
20879.3
24066.7
86422.6
100603
112542
123765
134480
143419
148441
148250
142459
136409
136736
150105
180815
220418
266734
316870
367708
415595
456092
484635
495893
487784
463824
426038
376545
317035
249372
174284
36452.6
36170.6
140776
174063
198233
214006
219173
214941
202970
191879
186511
191284
212195
251698
306601
372127
443848
517491
587837
649225
695691
721885
717880
689179
639070
571285
489197
395504
295798
198771
46392.1
44079.2
188001
252024
313404
366819
408593
436128
446577
436422
409101
375248
342204
317923
310275
326672
373595
438178
514779
597564
680595
755396
811586
837953
821737
773075
697557
595859
465537
311093
59672.7
38500.3
129949
162034
205847
258962
320708
396699
485711
584953
689882
795758
895078
982244
1.05005e+06
1.09195e+06
1.10072e+06
1.07169e+06
1.01735e+06
935592
834493
712167
566943
401746
231735
126946
115821
116712
114368
105048
36173.2
28433.2
97393.4
119355
141885
165223
189511
210994
226513
234102
240385
249712
265870
293710
338290
394334
461600
536974
615513
691087
756180
804166
825978
811709
767705
698142
603811
483213
337950
187954
42526.9
22344.2
83426.1
111618
144226
176060
204410
235620
273025
320724
381129
452803
534762
623843
715256
802957
880091
939696
976767
975491
938468
874251
783998
669213
528282
366704
209311
102210
77547.9
83298.6
36757.8
28757.7
107699
172252
242850
318578
403526
495244
592057
689955
785657
872328
943225
990357
1.00537e+06
983005
931952
855861
760324
643925
508950
362789
225611
143556
136764
144622
139807
131051
119172
101820
34934.3
41185.9
272210
422871
551294
670202
784837
892709
985905
1.0544e+06
1.08307e+06
1.06855e+06
1.01885e+06
938780
832743
704713
560690
414855
285875
206461
183422
185668
188570
181059
171103
158676
142987
123174
101783
81259.3
28483.3
29708.5
118684
236393
381529
523482
656247
778482
886810
975683
1.03888e+06
1.06657e+06
1.057e+06
1.01501e+06
945298
851346
737640
606209
470003
347167
252300
199950
188733
192610
186656
172917
157389
139448
120102
101316
36702.9
32803.7
309393
498953
637232
748784
842386
914957
957796
949743
897954
810788
692831
555992
425708
326472
274454
264757
274344
289149
296478
288058
268639
243380
216779
190799
165180
139998
119710
103359
38224.6
28385.5
83959.3
171208
284533
387132
469799
532684
574881
594281
586569
554586
507151
451139
392157
336067
286695
248396
230082
235460
257166
288155
321855
351120
363949
355028
329888
291257
242249
186816
49357.4
20490.5
82228.3
85650.8
84746
84639.1
121659
223499
354216
477194
577469
653991
704515
729395
717599
677572
618101
545493
467017
387786
311958
244280
188148
148882
123003
109962
102099
91854.6
76453
58030.1
5882.2
22477.2
70143
88097.5
103029
115258
125139
132728
137846
140343
139529
134125
123379
106979
25410.2
25366.4
101323
110843
121382
132614
142269
148076
149020
146306
144498
150170
168570
202699
243637
285670
326830
365911
402643
436505
465762
486997
497800
496914
484818
461846
427662
380642
319168
242029
48783.1
37913.1
166196
182921
188876
187811
183854
181171
183811
193775
211003
238153
277991
329656
389280
450397
508394
561882
610559
653424
687864
710181
715794
703817
675419
631466
571189
492050
394031
283923
60640.3
48546
237142
293344
339810
373145
393945
403425
402371
392731
380155
370244
366820
372363
389797
426067
482037
544430
604049
657921
706481
750187
786225
809155
810909
793837
758528
697788
596910
447035
82683.1
41171.5
143218
182744
246015
317581
396788
483572
573397
661997
746644
827282
901439
965973
1.01772e+06
1.05192e+06
1.06499e+06
1.05477e+06
1.02454e+06
978105
917631
837728
727119
579138
401688
223899
124692
114175
122289
121762
39443
30751.6
112250
125307
142002
163321
186374
206773
223815
239998
261397
289400
323817
365642
412419
461241
512071
564165
616932
668398
715102
754007
779388
783843
769818
738899
686813
600782
470536
304453
57212.8
24324.8
106837
129532
160570
196759
238541
286123
337940
394791
454039
513560
573031
633126
694223
754876
812030
860536
896319
912006
904508
878326
834960
768784
668631
526859
357787
200995
102313
86593.5
38052.7
33394.4
147277
220331
307038
403327
500099
588969
667835
738803
803666
863101
913496
951063
970817
967019
944091
905345
850458
773184
664479
523096
368010
229802
147120
117590
116617
130671
131444
114803
36404.3
58794
413612
587268
701316
784154
853601
917777
977204
1.02728e+06
1.05884e+06
1.06375e+06
1.04275e+06
998254
930845
837567
714974
568219
417038
288958
213487
180198
165889
166471
176248
178169
167884
147698
123222
98986.9
30774.6
32621.4
213543
383953
530872
652096
755165
846476
928073
997855
1.05142e+06
1.08201e+06
1.08737e+06
1.06998e+06
1.03118e+06
971594
889280
778224
642372
496799
365692
266068
206947
175861
163379
167425
169704
159008
140224
119049
38109.8
48502.8
514120
721891
834507
899093
943247
978392
1.00333e+06
1.00674e+06
987515
942794
864971
749055
607418
469634
360381
303349
285341
281938
280278
276383
272006
266325
256340
237645
207017
167641
131595
113690
40226.4
33806.4
155416
277870
395630
485013
545362
583670
605122
611624
602878
579631
547139
508422
466300
420733
373723
328761
293853
276213
271700
274127
283343
299113
316308
325335
323268
306699
273711
226327
54796.1
24920.7
96262.2
79900.5
83703.7
131534
226273
356960
491467
597798
671869
719274
745248
752698
741120
711362
669231
617736
558158
489320
411135
326886
245319
177002
123010
85296
67997.6
64659
64810
63928.8
4239
25045.5
83873.5
103943
118105
127571
133366
136537
138479
139963
141004
140535
136834
127759
29121.8
27447.2
116418
118659
124733
133089
139315
141216
139692
139260
147292
169554
206920
254232
299100
339340
372553
398233
417856
433647
447589
460248
469535
472249
468808
459136
441620
412412
366312
298748
57769.9
39580.6
185640
183699
171001
156049
148149
152613
171043
199888
236991
282927
336318
397681
461073
516047
556373
583797
603628
621374
639335
656151
665577
665269
654761
633204
597659
542218
461163
356275
71186.3
52310.8
275244
311397
335122
345915
347535
344127
339285
336950
343834
361899
389796
424062
463514
514712
579295
640545
682489
703409
709542
712303
719940
732445
741857
747810
747769
730337
671639
548947
97792.6
51202
158469
204274
281102
369119
464191
561794
650793
724331
782049
827972
867402
902366
933558
957385
970254
969615
956341
935637
908413
868883
801650
689264
528901
337728
174406
112985
123443
133179
41542.4
33410.2
126311
129346
138609
155652
175364
193453
212536
238421
275947
323464
377295
433003
484140
527994
562956
589206
609974
629522
650851
674415
696419
709486
714514
713012
698286
651948
552507
396322
70012.8
26687.2
132907
146740
173562
213969
267436
330049
396585
464146
525673
576073
612895
639955
663098
687161
714262
743812
772805
794245
804512
806140
799087
777468
723837
619305
465564
295450
159696
99301.1
37861.5
37253.9
178294
260016
367007
482633
586255
665527
718536
754005
779266
802692
826187
848944
867820
876006
875584
867333
850097
816317
748153
634088
486024
333839
208654
131306
115285
140569
143764
123009
37254.8
78436.9
549177
719443
801037
836419
852218
865531
884491
910208
937016
954861
959437
949923
924329
876471
794986
674445
528075
383045
269866
200889
171231
178743
202629
209151
195548
170615
142668
116273
32265.1
36721.2
333870
513325
637562
725158
788596
838587
883234
925112
964127
996602
1.01428e+06
1.01607e+06
1.00356e+06
976521
931019
857273
749954
615356
475355
352432
256024
191508
174401
192516
199529
184056
158852
134186
39406.5
80382.2
708877
900654
959205
959125
942901
934137
940838
952247
960999
960280
934980
867914
753324
610765
474811
371294
317813
288957
274123
272236
281697
295365
301671
289599
253813
200839
147947
118484
42026
41240.5
225803
358597
466158
533452
568658
584981
591304
590812
582871
571267
558794
542468
519706
486892
444352
396419
354059
324249
300142
273984
250788
241179
251067
269853
287632
294730
284003
254059
58734.3
27676
105716
83718.4
118520
205336
326966
464956
583145
659870
702102
722346
729864
728277
717795
701543
684206
662183
628256
575468
499224
402387
299580
208261
134973
80989.5
54600.6
52547.8
60603.5
68263.7
2908.27
26623.7
96917.5
117790
130622
136833
137678
135114
132617
132745
136506
142916
148631
148989
32268.4
29755.2
133601
127410
126553
129986
131932
130370
128266
132957
153235
191741
243235
295647
342092
379359
404663
416856
417963
413301
408963
410134
416425
424300
432338
438645
440160
431535
404946
352846
64692.5
40411.7
204316
189141
160218
131264
118452
129571
162001
207084
261072
319489
382694
451381
517379
565138
585657
583366
569339
556280
552820
561440
576506
592264
604212
608633
600278
571504
513477
423898
79538.1
55104
311016
325058
325044
312985
295035
278017
269553
277077
306225
353055
409693
467742
523792
583691
656831
717424
742140
728860
687523
640904
612998
614215
637252
673703
713180
740139
725651
636771
106983
63070.5
171291
222830
312193
414158
522732
629042
714073
767812
792082
796190
793303
792176
797866
810520
825836
838683
849213
856800
861488
858051
830522
755729
620150
433284
243549
127204
121410
141095
43385.4
35985.7
140997
136187
137654
148924
163529
177748
197648
231916
283947
349131
420701
487498
543616
584822
607016
609318
596392
577419
564650
566613
584027
608743
636361
664470
684624
675392
608425
471402
79244.4
29134.1
162160
164305
183292
224844
287840
364097
444545
522800
588288
633365
651105
647235
630471
610666
598242
600453
618313
646757
677180
707563
734515
751009
737386
668147
535533
366120
213318
121175
37747.1
41850.3
201578
295193
422874
552533
655908
719298
741888
736831
717365
698037
688909
694620
713898
738638
764859
790715
811135
817934
789352
706749
574639
419933
277058
172884
140184
157618
153464
127201
38067.3
97465.8
664010
812293
855623
844608
808856
770985
746250
742187
759544
788952
820884
849260
867783
866807
829699
743076
612203
463493
329550
236887
197943
208645
233384
233763
210934
180608
153332
131510
33544.6
43789.2
442123
608147
705826
759153
779377
782710
783099
788827
804326
831056
860829
888083
908015
917776
911227
878192
807963
698525
565133
430656
311675
227589
205839
221949
222606
198509
167799
144373
40635
121477
887297
1.02752e+06
1.01492e+06
945734
870604
818939
805416
826223
867049
912974
943004
932825
861902
736808
591695
462638
373940
316205
281797
274036
291205
320445
342312
339194
302935
241111
172664
122813
43502.3
48124.2
287652
420335
513620
557516
566616
557818
543126
530011
523008
526293
539171
550136
549378
531001
494144
444891
399312
365936
333444
288997
234929
190952
183167
210491
249145
279756
290258
277411
61136.8
29519.4
113026
107185
166757
276661
413796
549291
644470
689091
698221
688203
671580
655647
645705
647181
659852
672349
669525
638369
570146
466638
347311
236747
148916
86722.5
55230.1
52882
62683.8
70076.9
2409.59
27410.8
108170
129174
140103
142224
137245
128402
120561
119452
127900
143733
160472
170473
34851.2
31828.5
151410
137555
128013
125175
122815
118762
117280
128272
160407
211311
270599
325297
372017
407084
425642
425353
407680
379889
353159
338755
341624
358197
382573
408724
431655
444900
438952
404067
69328.4
41286.5
216907
200186
161513
119917
99729.1
114166
156721
213665
277733
344072
413415
487675
556310
596566
597181
565202
516139
468553
439277
438042
461226
497760
536819
570083
590405
589558
556571
487308
85767
56022.6
342091
338284
317767
284813
247592
216218
203963
223285
275043
346931
425084
498120
561728
626615
708047
769316
779207
734101
645562
543512
472553
465268
514651
593445
677406
747140
772034
713165
109860
72383.9
179783
237996
338148
450436
569239
681989
760575
792809
782431
743746
694587
651006
626425
626246
647162
681078
719890
759178
796807
826903
834733
794123
683557
505865
306764
155709
120692
145775
45434.3
38533.6
153114
145977
141074
146047
154848
164228
183212
222817
285363
364336
448841
523993
584921
625887
639615
623127
580102
520331
463534
435981
449207
492193
549946
611141
664435
687772
649700
532715
84146.2
31455.2
192159
180339
188516
228092
297738
385326
477661
564746
634315
677397
682512
655870
605676
541500
480244
444895
448248
486103
541173
604091
663641
712392
730191
688025
574007
410643
252289
144244
38259.4
49196.3
220020
326344
470015
607022
705563
751803
745967
703107
639984
574403
524702
507926
527835
575369
635803
699282
756566
798821
803821
748859
632629
479176
325824
208608
165204
168874
156398
127102
39177.4
116653
747424
865264
876839
829878
752284
668073
596732
555704
557894
597960
659496
727471
788939
831591
835392
780731
666880
518014
370795
262706
217222
225825
245120
237777
206170
172663
152463
140703
34500
57730.4
524377
675200
754188
780427
761382
718672
671180
632302
612695
622889
659580
713025
769835
821037
855533
863370
830825
749629
628018
486562
349461
251303
221642
231082
225163
195004
163653
146676
41787.8
162871
1.02818e+06
1.09923e+06
1.01919e+06
892148
767330
674683
637918
665063
737001
828114
911318
955782
932960
837236
697295
556920
442212
357489
299960
278404
295265
334944
371297
380459
350186
286512
206844
136360
45749.5
53107.9
338880
466961
546113
567706
550060
511311
466692
432132
423524
447553
492429
533645
555692
551607
521173
470848
423096
390943
359630
311618
244172
173115
132657
164196
223999
273016
296954
291560
61565.5
31349.1
120346
133572
209477
335343
481929
610202
682482
696575
671514
626850
578110
541659
530305
553943
602300
652026
682228
675454
619948
515006
384797
260018
161260
93850.4
59735.7
56758.4
65543.6
69243.6
2328.17
27618
117355
137916
146114
143589
132770
117831
104404
102328
117778
145239
173121
191057
36584.5
33735.1
167678
149867
131131
120456
113651
107679
107698
124922
166333
224939
286633
342326
388959
423257
437198
427285
392431
340719
287165
251258
250443
281964
328938
378105
422944
456879
469690
449868
71018.1
42396.4
218382
210484
173521
126939
98092.3
109359
154570
216229
285011
354564
426955
505265
576706
610781
595330
538233
458081
375319
315461
303684
339922
401602
469191
530455
577086
601272
592016
543495
89415
54026.7
363222
351374
317537
269238
216390
172942
158089
191271
261317
347371
432868
509014
573030
640303
729883
794197
794365
724593
597859
442356
320984
314311
408089
534817
659667
763311
815440
773635
103125
77824.3
186321
251007
358342
476353
601773
719382
791924
805684
766196
691095
598914
507492
439984
420078
453259
516238
589877
663340
732292
791411
828171
814989
725089
555686
353600
185793
125257
149220
48694.1
41120.5
158200
157830
150524
149831
152683
157024
173050
213712
281100
367209
459053
540228
605601
648477
658364
630491
566481
472971
369327
304410
314271
383194
475087
568460
650692
699551
682421
579795
84031.1
33673.7
219141
193496
188764
223529
296743
392229
492923
586106
659289
703174
703710
665413
594835
497113
386866
305323
291453
342663
425498
517946
604922
677572
715538
689311
588534
430843
273090
162628
39607.1
59053.5
236871
354248
505710
646080
739868
772640
746160
676454
580006
472067
372961
318068
342449
423269
520660
619576
707687
776308
805070
769345
664238
509868
346920
221275
169944
165225
150900
126613
43320.5
137053
793868
885246
879859
811612
705853
585858
470330
382752
355725
408868
506156
614295
714030
791988
827620
797013
696018
545775
388645
269491
217919
226373
248948
243256
210050
173853
155066
143890
36615
81611
580809
725091
797445
808488
760637
681728
591275
504936
437645
411293
445021
525783
623146
716987
790759
835254
835107
777737
665623
516916
362692
248704
213865
231688
235873
213424
180071
149944
45153.1
201950
1.11257e+06
1.11915e+06
992061
827949
666578
534764
465641
491687
595208
729429
859499
950868
971739
908607
782974
641243
511845
405465
324754
283584
290181
333645
382907
407557
390570
332993
248993
163717
51394.5
55771.4
378467
500333
568571
573092
532308
463802
384252
316764
298097
348410
431268
502749
544606
552285
527101
474703
423624
394679
372241
334930
276168
207948
158592
173762
229424
278712
303126
291183
60649.3
33525.3
125737
153178
239995
376558
528573
649021
702408
691128
634942
555829
469185
402418
386423
441117
529373
614274
673311
688653
647735
545272
408888
275168
169721
100424
65550.2
61246.6
67698.6
67170.9
2763.45
27437.2
124362
143566
148579
141639
125825
106227
89088.7
87691.3
111695
150404
186718
208022
37406.1
35616
177673
164067
138151
117719
105612
97921.7
99644.6
121650
168656
229763
290680
346202
393195
428416
441167
426024
379462
309071
229891
165324
157752
213379
286153
356470
419450
469883
497118
487163
68560.1
43673.3
210958
217380
191629
150232
116666
118052
156425
215215
282256
350491
422804
504104
579206
610502
585424
512801
413516
304243
210733
187393
242522
328062
417875
499591
565755
609324
619479
588937
89780.8
53525.2
365369
360965
324418
271937
214771
169623
159194
199636
271142
353073
431123
499692
557724
625055
723273
794093
791600
708900
563642
380217
223671
227313
362420
522342
673303
794268
853191
806704
91730.1
80306.9
197679
264855
372842
491164
619157
740613
810887
814205
757137
659756
539021
408893
291925
235975
287916
385216
489680
590495
683375
764360
820877
825082
749077
584654
382846
209785
134078
154578
52766.7
43886.6
158171
167190
162986
159735
158050
158019
169779
207045
272101
357869
451304
535669
604717
651723
662608
631184
559323
452178
323151
227755
229535
317751
433089
548947
650445
713956
706592
607790
79471.2
36257.4
241605
204795
186222
213527
286143
384613
488972
584416
660486
707971
712116
673618
599627
493227
362600
249061
213919
269295
365911
472928
574354
658012
702064
679058
581293
427339
276872
177054
44423.8
69882.2
261719
384589
535231
673441
763732
789635
754204
674225
564989
436027
298470
185122
214628
333651
458521
578442
683667
764661
802263
773379
671162
512319
341530
207785
151898
165429
175458
168959
60302.9
159677
806226
884052
877790
803155
687429
551801
409941
281997
203388
265131
401802
542355
667464
766256
819175
801515
706325
554146
391746
267743
216887
239428
284260
299458
281183
244961
211955
175067
45565
117047
616118
763114
839144
847482
788584
691504
575233
456512
347031
270157
277387
375440
510499
640121
743284
813470
834596
792896
685015
527721
360854
243967
234460
287134
322347
321966
289341
227719
64515.1
238490
1.1255e+06
1.09474e+06
950575
776313
599749
438611
325097
332982
464129
639021
806614
930529
984716
950930
845508
709102
574020
453500
353100
289664
276716
314385
372943
414421
417313
374573
294694
200234
56471.1
56087.9
403920
519540
581539
578795
525127
437444
331429
230125
190479
266519
380880
471541
524630
538726
515019
458621
401613
375921
367659
351704
317907
274511
239786
232607
258121
289055
302071
277966
59064.3
37576.9
127975
162005
255742
397913
552510
666930
707817
680805
603283
497304
375082
266787
242292
341398
465683
575252
654271
685365
656077
556875
417778
280307
172684
104497
70486.2
65048.9
69415.8
67375.2
5632.89
26888.8
127421
145489
148059
138517
119450
97984
81833.6
84636.6
115484
160723
200139
218611
151450
46099
45598.5
135033
185149
175673
149302
121169
102355
92562
95498.8
119909
166889
225369
282811
336821
384519
422299
438243
423948
375701
300683
211863
130393
113190
185373
270336
350675
423549
483507
518172
509687
294326
51893.4
48502.2
136675
199440
211481
201440
174484
145172
137925
163715
212241
271018
332653
401695
484660
564802
599109
571671
496222
396383
285643
180530
144468
206642
296788
392560
482459
558362
613603
636493
617501
393881
68687.8
60387.2
219759
358045
361059
333228
290409
244999
212050
210218
246058
302855
364847
422489
473172
518445
583419
690165
771249
774682
694417
557525
395140
271074
278548
403508
562168
712339
826413
871541
808924
380226
67702.3
72373.4
241129
231509
284300
383670
494422
618940
742330
816450
821027
761887
662593
539107
403516
272510
189466
233178
335805
448617
558949
662176
753061
817347
826276
755103
592067
393782
225065
149468
164141
178610
52999.1
52111.5
142046
174553
185506
184753
179658
173693
169324
175583
204954
261099
339162
427624
511076
582326
635000
652130
624588
559137
462947
349315
257645
243560
320259
435263
555632
661484
725524
718631
616939
321589
60720.2
55043.9
205826
248912
210069
184724
203676
270154
364835
465906
559469
637309
691619
705951
676168
613902
524337
417832
319578
272472
301398
379482
477818
574128
651431
687288
658846
559139
408290
271329
207263
190809
70796.6
78827.5
298058
331102
424496
560574
691343
779661
805921
774696
703068
605405
489815
367316
270396
270345
362363
475372
589036
690553
766079
797153
763712
658400
495532
320632
201115
219190
278711
316742
325245
284026
93426.6
115408
621375
786581
871664
876291
810464
704555
578276
444215
319435
236351
274616
399232
537074
662570
762521
815501
799266
703015
550925
391676
274929
237558
281410
354807
410561
438598
440326
424802
391878
315423
104420
121055
488439
650874
794007
876990
890817
837318
743530
629612
507890
391329
298028
276492
352676
484624
619701
730806
808842
835571
799326
691056
532425
372977
288890
319681
391651
445173
466202
457232
419675
345069
108719
138634
943958
1.07485e+06
1.04014e+06
916137
757994
593710
431610
295905
265215
389762
583700
768273
907171
978078
965986
879995
754292
622811
495306
381495
297081
256912
275082
334574
393490
421003
401280
335183
244751
160978
46558.3
49600.1
231301
412658
522189
582244
581774
529641
441477
335390
237005
199278
264677
368889
454506
504999
517917
491404
429072
362571
337464
344413
353250
347898
330013
309939
297405
299868
309879
308744
277400
182326
44477.3
41799.4
141161
144635
168564
259441
399528
552598
664850
702023
671355
587525
472208
338251
210545
186262
306843
437860
551212
635108
672315
647095
550083
410379
273759
169300
106360
76263.4
72931.7
77095.4
75400.6
48124
8167.88
3402.58
26261.2
126758
144078
145982
135520
115808
95136
83025.8
92262
126295
170779
207624
222619
186731
114223
112902
155223
183501
181972
161649
132473
107983
94622.1
96988.5
120015
162076
213321
263848
314963
363548
405243
428252
421968
384119
322156
250012
189969
173635
216775
285675
359868
431499
492620
528252
517697
376349
133813
114900
144974
178003
198507
204852
195259
176197
164850
176169
208912
253598
303917
366384
449857
535673
576244
555918
491985
409780
324374
251513
218856
246976
312747
393762
476337
550282
608195
636782
623623
498934
173124
137208
247971
332655
348562
336850
313460
290899
279964
288577
312908
345823
379305
408581
433778
460548
521464
636283
729201
748247
690837
585964
468969
391203
401667
498207
632438
761233
849503
864780
768009
454515
186698
207261
255662
220358
281747
377510
477366
595957
721360
806231
824649
781257
699983
599174
490365
392250
329134
332138
391961
478643
574443
669721
754914
812547
815585
741489
579909
389882
231501
156999
161334
182306
161503
160796
172141
191075
207268
212937
209134
200512
191772
191016
209226
251500
314866
391784
469268
540439
599215
626391
611967
565531
495954
415941
350551
333564
381697
472834
577816
673146
729239
721317
623943
419372
208101
188159
240993
233154
202488
180443
195474
252995
336581
427032
513485
591254
654016
684699
674301
634531
574259
502973
436840
397594
403995
451117
522838
597142
654717
673086
633098
530842
391931
276823
238451
253519
260428
282712
309842
317773
423169
556291
686131
782167
821962
809209
761499
693357
613385
533811
474137
458918
497869
568636
650442
726560
779578
791827
745162
634852
476599
319590
233553
245680
282042
306074
311490
304330
306942
371065
607649
756906
855854
878530
834443
752453
653893
552134
463785
412405
424416
495843
595326
695217
775074
812611
787828
689229
541200
393371
285765
242331
269404
336577
401215
443556
464087
464606
449375
424939
405693
412424
501314
650524
797801
896028
927852
894317
821661
729075
630188
536423
465215
439057
475609
559295
661969
754328
819531
838370
798203
689742
538602
393210
304962
291296
322981
363755
390427
398925
394047
393254
428160
538794
900232
999714
998643
910526
786368
652287
521288
414889
376975
447859
594441
754119
883236
955072
955801
887022
774722
650968
524742
405750
307295
240360
226842
272621
343882
396738
403086
356138
274001
189780
133425
139525
283136
402716
504842
567216
576042
537998
467966
386051
319519
301223
339131
403010
460244
492754
495304
461927
393589
315310
285524
303556
333228
351238
352396
342467
329206
317665
308938
293815
260860
206885
163046
156643
155134
149274
169620
251602
383394
532428
643913
684099
660367
586512
484385
373703
287839
282742
357905
458079
551238
621580
652023
623177
527173
387546
255128
158929
104662
78861.9
76238.9
79795.5
77601.2
61136.8
26917.1
2664.02
25429.6
120430
139352
143231
134722
118043
101334
93919.5
105390
136446
175040
205784
215774
185048
109205
104049
145480
174201
182280
171472
148056
123144
107074
107138
125808
158615
197516
236142
281490
331132
378598
412706
422248
404669
366193
319511
279783
263004
279858
322598
378478
438201
492159
524206
511030
391307
132730
106871
129966
157757
183543
201192
205793
198412
188807
189757
205846
232942
267731
320465
403852
493687
544748
542491
500786
443781
387700
342514
318455
324318
359759
414619
477848
539340
590646
618332
606468
509379
171676
130590
219633
289824
319305
327352
327471
329240
338136
353160
368510
381267
388073
388649
386459
391676
447159
567761
674194
719353
698256
636579
565874
523392
536657
606506
706669
800636
852676
830645
700820
434540
194571
200438
220506
193953
267039
352886
436550
545930
675261
777881
822663
810156
762313
697642
626686
562453
516453
501410
521833
568671
632207
701888
765116
802474
789343
705987
547168
366860
224477
162048
164596
182413
171712
171200
180617
200989
223127
237160
239901
233824
223740
216657
221708
246279
290222
348939
414535
483000
547166
587595
594253
574480
537131
492554
454390
441549
466027
525468
601679
673649
714114
700851
610509
440599
217361
176470
213835
205424
189175
178975
194046
240489
306899
378820
451411
526304
597762
648150
664291
652917
624649
588056
552204
527147
523404
543617
583090
626372
655699
651594
599023
498378
374041
276442
242615
247811
244485
247935
251846
281460
392050
520153
654024
765862
830566
847359
832772
801227
760993
719026
684891
667540
673719
701691
740403
777216
796106
781262
717883
604956
460063
327507
252655
237651
241901
243629
241123
242449
276917
365345
558076
710485
826964
875739
863974
816573
754322
690209
635952
603005
600860
632474
687172
747351
793230
804001
761800
659494
522001
387623
288002
230952
220846
253424
302807
343785
369590
376330
365345
343019
327761
349884
448782
599530
756526
878948
941479