/*--------------------------------*- C++ -*----------------------------------*\
| =========                 |                                                 |
| \\      /  F ield         | OpenFOAM: The Open Source CFD Toolbox           |
|  \\    /   O peration     | Version:  2.1.1                                 |
|   \\  /    A nd           | Web:      www.OpenFOAM.org                      |
|    \\/     M anipulation  |                                                 |
\*---------------------------------------------------------------------------*/
FoamFile
{
    version     2.0;
    format      ascii;
    class       volScalarField;
    location    "0.006950000";
    object      rho;
}
// * * * * * * * * * * * * * * * * * * * * * * * * * * * * * * * * * * * * * //

dimensions      [1 -3 0 0 0 0 0];

internalField   nonuniform List<scalar> 
12384
(
0.802924
0.80767
0.811838
0.811523
0.815282
0.812941
0.814927
0.810458
0.809245
0.805282
0.802466
0.800866
0.799023
0.792497
0.900604
0.888955
0.887576
0.889553
0.888683
0.886953
0.880643
0.878073
0.873217
0.873239
0.870066
0.867055
0.864059
0.860843
0.858682
0.857333
0.856344
0.85524
0.85368
0.853505
0.8516
0.851578
0.849538
0.851904
0.850109
0.850925
0.852592
0.862206
0.894818
0.950056
0.829653
0.82368
0.822282
0.822552
0.819238
0.820925
0.816835
0.821484
0.818736
0.825044
0.824417
0.829494
0.831519
0.835105
0.837704
0.83897
0.839157
0.838009
0.836396
0.834163
0.832297
0.831232
0.832133
0.833273
0.835001
0.835747
0.836916
0.839856
0.845067
0.847285
0.866212
0.867892
0.864204
0.860039
0.856188
0.85493
0.850653
0.850257
0.850104
0.850922
0.853021
0.855755
0.859034
0.861741
0.864013
0.865678
0.865808
0.864039
0.860988
0.856456
0.851093
0.846963
0.844032
0.843669
0.845365
0.846483
0.84572
0.845856
0.846309
0.84484
0.831795
0.832924
0.834886
0.836375
0.837529
0.838104
0.837912
0.837337
0.836005
0.833198
0.826518
0.824906
0.82052
0.818235
0.814128
0.82314
0.822761
0.827681
0.838003
0.840734
0.846634
0.847084
0.853121
0.854735
0.853032
0.850818
0.849553
0.849748
0.851585
0.855228
0.860697
0.867806
0.868424
0.865461
0.860139
0.857812
0.85258
0.854183
0.849628
0.851365
0.848813
0.849978
0.850191
0.850157
0.849246
0.84779
0.845333
0.840175
0.836887
0.837536
0.83719
0.832447
0.842184
0.841154
0.852776
0.853978
0.858392
0.861841
0.863252
0.86431
0.898253
0.884832
0.873563
0.866885
0.863085
0.866335
0.869079
0.872488
0.876441
0.880213
0.883296
0.884883
0.885003
0.884429
0.883178
0.880701
0.879575
0.88122
0.877394
0.888758
0.885479
0.895622
0.893932
0.897391
0.917485
0.991276
0.996531
0.993339
0.987725
0.986723
0.90594
0.882462
0.870144
0.863209
0.858788
0.858114
0.849434
0.851323
0.83355
0.838786
0.818855
0.826315
0.81373
0.820989
0.81691
0.826751
0.830746
0.836586
0.840277
0.844104
0.853566
0.861117
0.860615
0.860187
0.860556
0.85996
0.858677
0.857357
0.85589
0.855508
0.865623
0.86561
0.866996
0.866537
0.863638
0.857076
0.851926
0.843608
0.839549
0.835656
0.837413
0.840498
0.84435
0.84732
0.849533
0.849313
0.846045
0.840666
0.838792
0.838221
0.837751
0.838583
0.837768
0.839499
0.838799
0.838788
0.838365
0.839198
0.839138
0.837061
0.81333
0.810062
0.807457
0.804831
0.802301
0.79871
0.7961
0.78912
0.789195
0.793239
0.788075
0.799064
0.804421
0.815811
0.817032
0.823869
0.827384
0.830312
0.828755
0.8256
0.823606
0.821621
0.821392
0.819523
0.819645
0.817933
0.816644
0.814515
0.813952
0.81422
0.806133
0.809549
0.811402
0.812202
0.809664
0.805385
0.803498
0.799433
0.799076
0.799385
0.799005
0.796787
0.793214
0.791089
0.7896
0.785608
0.777987
0.776918
0.777483
0.771953
0.773293
0.773081
0.767279
0.766953
0.766847
0.760618
0.758196
0.758885
0.756364
0.75662
0.808753
0.814216
0.812235
0.790767
0.782194
0.782911
0.783058
0.784074
0.785594
0.784221
0.793367
0.790379
0.801784
0.800512
0.808024
0.808465
0.810287
0.810874
0.810801
0.810266
0.80945
0.807994
0.80728
0.805467
0.807259
0.808301
0.810355
0.815606
0.821122
0.821269
0.801262
0.800784
0.798283
0.797645
0.799568
0.814136
0.820672
0.76409
0.750364
0.750228
0.745135
0.744847
0.739399
0.740416
0.738086
0.739508
0.739617
0.739848
0.739581
0.737661
0.738502
0.734085
0.736859
0.735171
0.74262
0.745163
0.750193
0.744904
0.730324
0.717394
0.822232
0.826472
0.832978
0.837574
0.841909
0.838736
0.838372
0.832522
0.829033
0.819599
0.810136
0.801185
0.79851
0.792647
0.899526
0.88786
0.889472
0.890719
0.887083
0.882038
0.878111
0.879271
0.877335
0.871222
0.858597
0.849425
0.8435
0.842529
0.844045
0.847055
0.85025
0.852951
0.854101
0.85472
0.854563
0.853578
0.851933
0.851375
0.849496
0.84776
0.848308
0.854086
0.876953
0.924524
0.830591
0.823872
0.823125
0.820126
0.81643
0.815494
0.812613
0.816392
0.815464
0.822207
0.823484
0.828179
0.832268
0.835952
0.838988
0.840872
0.842044
0.842191
0.841113
0.839049
0.838408
0.835227
0.8341
0.834221
0.835213
0.835995
0.836936
0.839209
0.842914
0.846913
0.867898
0.867572
0.862611
0.857916
0.853567
0.851075
0.849636
0.848138
0.84843
0.850115
0.852399
0.854586
0.857664
0.860366
0.862085
0.863665
0.864466
0.86395
0.861624
0.856976
0.852914
0.850309
0.846676
0.845509
0.844418
0.84591
0.846056
0.844973
0.845939
0.846233
0.831258
0.831841
0.834422
0.837087
0.837681
0.837393
0.836871
0.836058
0.833174
0.828708
0.827041
0.825356
0.817632
0.816586
0.820223
0.816953
0.825675
0.826976
0.832781
0.841096
0.844113
0.847174
0.850091
0.853115
0.851904
0.848369
0.846049
0.844846
0.84467
0.845544
0.860629
0.867649
0.867399
0.862598
0.858262
0.856796
0.853048
0.8526
0.849903
0.846378
0.846296
0.845376
0.846161
0.847217
0.847706
0.84672
0.843463
0.838682
0.837733
0.833433
0.830899
0.830839
0.836018
0.838493
0.847238
0.851332
0.857373
0.8608
0.863705
0.864298
0.895831
0.878723
0.865207
0.860249
0.86182
0.865733
0.869163
0.87374
0.878639
0.881422
0.88432
0.885961
0.88641
0.885424
0.882659
0.880591
0.879628
0.878392
0.880579
0.881502
0.889483
0.890279
0.894747
0.898927
0.904623
0.938837
0.988223
0.984761
0.965334
0.959284
0.900678
0.868751
0.860434
0.857743
0.853017
0.852956
0.84514
0.843881
0.830164
0.83118
0.81655
0.81644
0.81153
0.808527
0.814184
0.818649
0.822272
0.83113
0.837406
0.842668
0.84832
0.856986
0.861884
0.8628
0.86403
0.86367
0.861217
0.85686
0.853204
0.850408
0.865305
0.864852
0.866103
0.865846
0.862365
0.857794
0.852501
0.842508
0.841776
0.83938
0.836301
0.839366
0.843719
0.846617
0.848402
0.850143
0.849498
0.844937
0.840751
0.840158
0.839362
0.839475
0.839991
0.838551
0.838359
0.836066
0.835246
0.834559
0.836695
0.839117
0.817436
0.816188
0.814278
0.812083
0.810009
0.806003
0.804452
0.799417
0.799173
0.795461
0.799896
0.808815
0.805654
0.816391
0.82164
0.826525
0.828575
0.831326
0.83097
0.827187
0.825096
0.824214
0.82465
0.822446
0.821539
0.817796
0.815192
0.813366
0.810368
0.811756
0.805229
0.808562
0.81154
0.812118
0.810564
0.80945
0.804046
0.800208
0.800481
0.801676
0.801948
0.800991
0.796981
0.792203
0.789824
0.786655
0.779213
0.776529
0.778624
0.776024
0.773636
0.773541
0.771883
0.767892
0.767279
0.764213
0.759941
0.760773
0.757092
0.755903
0.802381
0.810764
0.799995
0.784608
0.780788
0.780154
0.780538
0.780666
0.779055
0.785878
0.787382
0.791397
0.800523
0.804274
0.808547
0.813831
0.815118
0.816207
0.81639
0.815682
0.814439
0.813777
0.813095
0.811325
0.810095
0.809063
0.810394
0.81378
0.819959
0.822114
0.803499
0.804962
0.801322
0.792037
0.797848
0.818426
0.790268
0.754604
0.746998
0.744049
0.737493
0.734544
0.732439
0.729783
0.731679
0.73122
0.732676
0.733808
0.734122
0.734182
0.732281
0.730715
0.729716
0.728405
0.740431
0.747825
0.750352
0.74281
0.725772
0.716416
0.830855
0.839419
0.853152
0.855414
0.850524
0.841295
0.8362
0.832881
0.83407
0.832566
0.823805
0.808813
0.799002
0.793278
0.898211
0.887148
0.89069
0.890794
0.886644
0.884884
0.886276
0.88784
0.875666
0.852903
0.833849
0.827492
0.828897
0.835328
0.843732
0.853328
0.859671
0.86313
0.861849
0.861377
0.860498
0.859796
0.859366
0.857481
0.853824
0.849866
0.845893
0.848102
0.86281
0.906491
0.829722
0.824211
0.822577
0.819258
0.813289
0.812614
0.808612
0.814728
0.813253
0.822139
0.824332
0.829308
0.832881
0.836987
0.840246
0.843281
0.844488
0.843919
0.842238
0.840856
0.839855
0.83907
0.839295
0.83827
0.837062
0.836594
0.836727
0.837987
0.84143
0.846397
0.867849
0.866062
0.860475
0.855446
0.851657
0.850746
0.848958
0.84808
0.849414
0.850567
0.853218
0.855569
0.857663
0.859448
0.860166
0.861461
0.863103
0.863063
0.860134
0.856876
0.85339
0.849405
0.845628
0.844928
0.845083
0.844764
0.845254
0.843719
0.842814
0.84478
0.830251
0.830745
0.835573
0.837754
0.837214
0.836182
0.835584
0.834297
0.831954
0.82851
0.828976
0.825609
0.817464
0.822592
0.81798
0.821647
0.824689
0.829456
0.830977
0.835276
0.843917
0.844329
0.847564
0.850551
0.851466
0.849392
0.849622
0.84738
0.845216
0.842623
0.859014
0.866536
0.865341
0.860343
0.857393
0.85588
0.851992
0.848929
0.840711
0.835046
0.831191
0.833266
0.838124
0.843614
0.845999
0.844552
0.840754
0.836938
0.832404
0.823092
0.823781
0.821808
0.827594
0.82949
0.839592
0.845671
0.853778
0.857894
0.861897
0.864242
0.891475
0.871406
0.858509
0.857265
0.859896
0.861918
0.865356
0.869096
0.874384
0.878988
0.881933
0.884035
0.883295
0.879556
0.875256
0.872269
0.869459
0.871996
0.868534
0.874954
0.880204
0.888038
0.890079
0.896309
0.89899
0.913175
0.950675
0.983274
0.966051
0.949007
0.887048
0.862654
0.858165
0.854472
0.851176
0.850076
0.843712
0.839374
0.827277
0.825929
0.808216
0.809082
0.803274
0.806143
0.803902
0.810243
0.81622
0.823258
0.831298
0.8374
0.842675
0.850475
0.859445
0.863626
0.865851
0.864644
0.861328
0.856061
0.85134
0.848538
0.86413
0.86484
0.865966
0.865081
0.860565
0.859232
0.851052
0.842272
0.843315
0.836632
0.840144
0.838281
0.839931
0.845086
0.847814
0.849025
0.849589
0.846885
0.84176
0.840142
0.841035
0.841171
0.840753
0.837887
0.83718
0.835328
0.834863
0.831935
0.833117
0.838769
0.817777
0.815836
0.81485
0.814047
0.811467
0.810136
0.806238
0.80213
0.798966
0.800765
0.797844
0.807867
0.812871
0.819412
0.822185
0.827289
0.82914
0.83077
0.831861
0.828767
0.825526
0.825226
0.82489
0.822254
0.820216
0.812634
0.809583
0.808854
0.808118
0.80858
0.804255
0.808995
0.810626
0.81187
0.810772
0.803701
0.79943
0.800398
0.79892
0.799948
0.801475
0.801205
0.798207
0.792759
0.789418
0.78571
0.781424
0.776831
0.778386
0.778013
0.773206
0.774452
0.774088
0.767567
0.768722
0.765277
0.759942
0.76163
0.75864
0.757389
0.801518
0.802141
0.788957
0.779373
0.777063
0.776107
0.773212
0.773142
0.774311
0.774749
0.780293
0.786288
0.790525
0.803245
0.806444
0.811972
0.816178
0.816602
0.815567
0.81456
0.814071
0.814007
0.81333
0.813707
0.813414
0.811259
0.810975
0.812681
0.818215
0.821571
0.803308
0.808666
0.81136
0.796063
0.80538
0.806805
0.766521
0.746702
0.741961
0.736561
0.731135
0.72946
0.725662
0.728118
0.724926
0.726458
0.72776
0.729134
0.731517
0.731153
0.732189
0.729537
0.727778
0.727438
0.743283
0.748605
0.746994
0.733044
0.715665
0.716004
0.847329
0.864783
0.867321
0.852502
0.834026
0.819583
0.813009
0.810496
0.81659
0.825038
0.827719
0.816412
0.802139
0.792742
0.897424
0.886687
0.891864
0.891822
0.889583
0.892872
0.895303
0.888946
0.857134
0.831122
0.819188
0.8213
0.828029
0.840188
0.85533
0.866069
0.868098
0.866816
0.861268
0.858893
0.857343
0.856436
0.859041
0.859329
0.857199
0.853822
0.846751
0.844807
0.854044
0.895037
0.830596
0.825421
0.82327
0.81905
0.812328
0.809746
0.808019
0.813292
0.81235
0.822359
0.825318
0.830284
0.832972
0.836009
0.840718
0.842099
0.841947
0.84088
0.839926
0.838688
0.837199
0.835626
0.836493
0.838844
0.83888
0.838557
0.837053
0.837299
0.840132
0.845404
0.867614
0.865143
0.858979
0.853776
0.851138
0.84988
0.848048
0.847385
0.848714
0.849455
0.85185
0.855416
0.857441
0.857395
0.856754
0.85821
0.859566
0.858967
0.857199
0.854099
0.849507
0.845184
0.842058
0.839871
0.840629
0.840679
0.841363
0.84362
0.842873
0.841531
0.829186
0.830934
0.837466
0.838017
0.836662
0.835
0.834184
0.833912
0.831838
0.831132
0.832505
0.823983
0.824535
0.821298
0.823302
0.822336
0.823108
0.827561
0.836978
0.831681
0.839355
0.844146
0.844404
0.848255
0.850891
0.849977
0.853226
0.854256
0.850807
0.847011
0.856904
0.864313
0.863542
0.858605
0.855922
0.854054
0.849908
0.840833
0.827647
0.818865
0.816538
0.820844
0.831922
0.841551
0.843578
0.841448
0.837729
0.829788
0.819993
0.815475
0.812939
0.812431
0.813512
0.819298
0.828979
0.837359
0.847707
0.854542
0.858861
0.861717
0.887491
0.865433
0.854201
0.852757
0.851015
0.850129
0.854298
0.861497
0.86794
0.874362
0.879303
0.88034
0.877401
0.873716
0.871082
0.865217
0.862017
0.856677
0.861993
0.862446
0.866094
0.884792
0.882597
0.894162
0.89702
0.904049
0.925805
0.963561
0.967923
0.946886
0.873991
0.859585
0.855885
0.850579
0.850748
0.849477
0.841132
0.830311
0.826904
0.809621
0.803164
0.797017
0.795202
0.790421
0.799237
0.799285
0.810124
0.813872
0.824062
0.832047
0.83777
0.843727
0.853568
0.860947
0.865467
0.864333
0.860305
0.853954
0.84858
0.84693
0.863873
0.864638
0.864518
0.861875
0.858272
0.858735
0.845197
0.847601
0.842519
0.841761
0.837344
0.8395
0.8388
0.841312
0.844485
0.848185
0.849094
0.848064
0.843598
0.840206
0.840775
0.841013
0.84027
0.836861
0.83647
0.83498
0.834481
0.831555
0.83108
0.83558
0.814555
0.815034
0.815067
0.813914
0.812516
0.811431
0.806417
0.80441
0.803723
0.805739
0.806847
0.805298
0.811824
0.822401
0.820605
0.829137
0.829561
0.831559
0.832688
0.831009
0.826706
0.824753
0.824184
0.822203
0.816557
0.80809
0.803185
0.802092
0.803853
0.80594
0.805103
0.808936
0.809447
0.807688
0.801997
0.798106
0.798595
0.799845
0.800459
0.799654
0.799113
0.798442
0.797066
0.79402
0.788416
0.785859
0.782064
0.777838
0.776856
0.778095
0.774987
0.773542
0.774499
0.768814
0.768369
0.766062
0.760266
0.760503
0.757958
0.757285
0.798013
0.796287
0.78354
0.776077
0.773124
0.768597
0.765738
0.761033
0.762893
0.763287
0.765369
0.780367
0.779972
0.794225
0.804009
0.808914
0.812861
0.814713
0.812408
0.811206
0.811881
0.812232
0.814143
0.814906
0.814936
0.812994
0.811822
0.81263
0.817517
0.82109
0.79699
0.808516
0.818863
0.808812
0.8108
0.790091
0.753331
0.742306
0.73558
0.73176
0.72847
0.726871
0.7261
0.722954
0.72448
0.72488
0.725121
0.726656
0.726714
0.729899
0.729045
0.72808
0.726207
0.730608
0.746862
0.750195
0.736171
0.718779
0.709584
0.72111
0.868533
0.872288
0.855397
0.828432
0.812348
0.806364
0.80523
0.804483
0.804301
0.812843
0.825043
0.823019
0.806607
0.794203
0.896832
0.886229
0.892579
0.895312
0.894692
0.901868
0.899883
0.881866
0.841444
0.820124
0.817615
0.823162
0.831882
0.848993
0.86603
0.871865
0.867625
0.859726
0.850057
0.844407
0.840851
0.842653
0.847071
0.854884
0.857255
0.854984
0.848336
0.843675
0.849235
0.887187
0.832945
0.826477
0.826693
0.821261
0.814042
0.810102
0.807759
0.812616
0.813005
0.822598
0.827405
0.830326
0.832973
0.835714
0.838606
0.840115
0.84003
0.838727
0.836966
0.834658
0.833484
0.834895
0.835477
0.837566
0.838013
0.840283
0.836911
0.83726
0.838828
0.844392
0.867322
0.864749
0.857841
0.853753
0.850162
0.849712
0.845546
0.845827
0.843872
0.84526
0.848899
0.853718
0.857125
0.856165
0.854206
0.854682
0.855898
0.855859
0.85436
0.849446
0.843701
0.837999
0.840332
0.842807
0.839175
0.837268
0.835952
0.835698
0.838541
0.842961
0.829369
0.832322
0.838018
0.837747
0.835164
0.833502
0.833901
0.834148
0.832786
0.836111
0.833135
0.821575
0.825025
0.816837
0.813764
0.819771
0.824577
0.821849
0.832496
0.835163
0.835461
0.839751
0.843794
0.84456
0.848893
0.850373
0.855235
0.859586
0.85849
0.851387
0.855294
0.863204
0.862643
0.85682
0.854277
0.85217
0.848265
0.833534
0.81898
0.80976
0.807615
0.812966
0.827294
0.838899
0.841453
0.839546
0.831017
0.820126
0.81161
0.806817
0.797418
0.795434
0.800236
0.805587
0.817795
0.828104
0.84075
0.849195
0.855048
0.857903
0.881411
0.858726
0.84762
0.84491
0.842241
0.839444
0.841143
0.85049
0.862025
0.870812
0.875418
0.877771
0.874995
0.868391
0.857374
0.850376
0.84446
0.846182
0.843344
0.856222
0.854402
0.871776
0.881898
0.888385
0.896056
0.900743
0.91401
0.942398
0.963302
0.943638
0.863318
0.859452
0.849996
0.849681
0.851743
0.845593
0.84072
0.820288
0.823599
0.795838
0.800901
0.787681
0.78153
0.785441
0.786127
0.791775
0.801255
0.805473
0.819827
0.825057
0.833637
0.840005
0.849059
0.857804
0.862471
0.862097
0.8571
0.850598
0.844932
0.844027
0.86278
0.863718
0.862162
0.858462
0.859185
0.852661
0.843501
0.851342
0.839335
0.834989
0.835282
0.836911
0.838077
0.839363
0.8423
0.84679
0.84795
0.849454
0.844954
0.842422
0.842011
0.84227
0.83894
0.836821
0.836858
0.837842
0.834647
0.83214
0.827023
0.832467
0.81435
0.815879
0.816297
0.813941
0.81385
0.813128
0.805244
0.806892
0.804934
0.800646
0.804502
0.809679
0.807869
0.82153
0.820058
0.829368
0.829841
0.832474
0.833003
0.832781
0.827955
0.825221
0.824012
0.820089
0.81159
0.804381
0.799539
0.797638
0.800326
0.803019
0.80087
0.80543
0.802475
0.800311
0.798454
0.803629
0.805361
0.798802
0.797287
0.797421
0.799469
0.798036
0.796355
0.79187
0.788651
0.785865
0.782269
0.778439
0.77691
0.775861
0.778006
0.772567
0.773986
0.771067
0.768715
0.766054
0.763091
0.759686
0.75967
0.758327
0.794407
0.787577
0.775913
0.770415
0.766386
0.761403
0.755739
0.754968
0.750763
0.758428
0.754774
0.769502
0.774514
0.784989
0.79606
0.807343
0.810078
0.811487
0.810001
0.808988
0.809998
0.811844
0.815445
0.816271
0.816463
0.81389
0.812776
0.81364
0.817651
0.820842
0.790042
0.80551
0.821802
0.818452
0.807823
0.775999
0.746407
0.738416
0.731369
0.729911
0.726393
0.724514
0.723501
0.725151
0.723224
0.720963
0.722332
0.721616
0.724571
0.726428
0.727365
0.72686
0.726028
0.731889
0.74828
0.750101
0.726009
0.712333
0.710739
0.731424
0.884786
0.872763
0.839811
0.818617
0.815848
0.818087
0.817271
0.81092
0.805171
0.807498
0.819405
0.82236
0.808023
0.793355
0.897859
0.884732
0.893558
0.898612
0.900926
0.907486
0.904157
0.872679
0.834105
0.815884
0.818471
0.824393
0.834503
0.856574
0.873376
0.871456
0.861684
0.850291
0.838451
0.833439
0.82898
0.829007
0.833494
0.844006
0.854034
0.854155
0.849505
0.84334
0.846791
0.881597
0.834062
0.828325
0.826514
0.824099
0.816869
0.814117
0.809495
0.812849
0.813355
0.823086
0.827279
0.831367
0.831627
0.835883
0.837527
0.836208
0.836232
0.835472
0.834419
0.832752
0.832334
0.830795
0.831648
0.835847
0.836408
0.839887
0.837946
0.83712
0.838002
0.843566
0.867402
0.864932
0.857989
0.854352
0.849657
0.849402
0.844306
0.842122
0.838873
0.840216
0.845297
0.852701
0.855812
0.854547
0.849721
0.849052
0.852412
0.851835
0.848839
0.841078
0.842467
0.840801
0.835074
0.832244
0.837554
0.838862
0.835654
0.831311
0.828396
0.832974
0.829004
0.835113
0.839646
0.837316
0.833753
0.83294
0.834367
0.834151
0.836269
0.835167
0.828746
0.818178
0.823797
0.815589
0.818473
0.812014
0.819004
0.821426
0.826014
0.833381
0.835844
0.833749
0.842317
0.844361
0.845278
0.848318
0.854287
0.860148
0.857955
0.851461
0.849161
0.858045
0.861297
0.855061
0.852064
0.851251
0.846359
0.83314
0.818706
0.807381
0.803715
0.807539
0.820812
0.835582
0.840353
0.834657
0.824582
0.817138
0.803084
0.797407
0.791298
0.789729
0.791034
0.79538
0.806493
0.819957
0.833543
0.843527
0.850131
0.854246
0.876323
0.854769
0.84511
0.840596
0.832564
0.829727
0.832136
0.838367
0.853813
0.868605
0.872346
0.875217
0.870494
0.861192
0.852896
0.847858
0.840943
0.836719
0.837791
0.847271
0.847919
0.863273
0.875552
0.88833
0.892593
0.901276
0.908704
0.933489
0.955104
0.943229
0.863394
0.8552
0.848764
0.851052
0.85409
0.842606
0.835392
0.818849
0.81337
0.789909
0.796098
0.775431
0.780436
0.77315
0.779064
0.780984
0.794045
0.798649
0.815001
0.818664
0.82977
0.837751
0.844369
0.853135
0.857971
0.858002
0.853493
0.845153
0.841875
0.8419
0.862065
0.861238
0.860273
0.859081
0.857162
0.844202
0.850884
0.848657
0.839866
0.846016
0.842157
0.840563
0.839929
0.838971
0.841013
0.84554
0.847367
0.849361
0.848168
0.844919
0.843595
0.841968
0.839521
0.839456
0.839139
0.839634
0.835837
0.829629
0.825878
0.832047
0.817224
0.816508
0.817894
0.816074
0.814689
0.81065
0.811747
0.799493
0.799739
0.796612
0.797411
0.811708
0.803821
0.822636
0.816852
0.828578
0.830062
0.833074
0.833248
0.833806
0.831079
0.827384
0.825038
0.816165
0.806184
0.804435
0.798793
0.796843
0.797709
0.801225
0.796631
0.798492
0.796241
0.798029
0.801193
0.801453
0.797125
0.799205
0.798742
0.793884
0.794805
0.79401
0.797523
0.791893
0.787654
0.78544
0.782804
0.779466
0.776515
0.775818
0.777678
0.7726
0.772937
0.771216
0.770352
0.767749
0.766537
0.761041
0.75964
0.758248
0.792254
0.786699
0.774859
0.766396
0.758976
0.750351
0.74653
0.742677
0.744217
0.749643
0.750109
0.759998
0.766452
0.781967
0.787882
0.80277
0.808996
0.8104
0.807176
0.806388
0.808579
0.81174
0.815671
0.81735
0.817347
0.813773
0.813484
0.81385
0.818271
0.820365
0.782886
0.797308
0.817736
0.818302
0.800641
0.766162
0.742025
0.736214
0.728655
0.728942
0.7252
0.728156
0.7253
0.723934
0.721906
0.724273
0.72192
0.723206
0.722834
0.7239
0.726331
0.727473
0.724023
0.733059
0.748502
0.754461
0.727185
0.714502
0.724243
0.755036
0.881447
0.85368
0.822895
0.819147
0.829926
0.836424
0.833762
0.824247
0.813809
0.810552
0.819856
0.825221
0.811241
0.795765
0.898867
0.883224
0.892589
0.902146
0.90634
0.911031
0.90442
0.8691
0.828746
0.814533
0.817462
0.826761
0.838719
0.864999
0.876028
0.869441
0.856164
0.842937
0.832928
0.824928
0.820311
0.8209
0.824335
0.834462
0.848294
0.853293
0.849336
0.842898
0.845773
0.879471
0.837644
0.828825
0.829284
0.828907
0.825201
0.819508
0.815781
0.816252
0.815844
0.822205
0.828911
0.830843
0.83163
0.833933
0.835838
0.836734
0.834368
0.832797
0.831633
0.829423
0.828855
0.829263
0.828791
0.833851
0.83448
0.839494
0.837928
0.837231
0.837721
0.842798
0.866819
0.866055
0.859603
0.854096
0.85042
0.84848
0.843314
0.841183
0.836034
0.836752
0.84444
0.851312
0.855183
0.852206
0.848265
0.84899
0.850901
0.845091
0.848105
0.836823
0.842217
0.829177
0.826544
0.82363
0.821871
0.824941
0.828251
0.834207
0.832708
0.827607
0.828471
0.836733
0.838318
0.833733
0.832603
0.832316
0.832864
0.835659
0.836981
0.833613
0.821001
0.822386
0.816208
0.806952
0.807625
0.804864
0.816102
0.819491
0.82091
0.828012
0.836677
0.831109
0.83765
0.843219
0.845611
0.846242
0.854763
0.858779
0.856849
0.850571
0.849845
0.855501
0.85949
0.854947
0.850766
0.84848
0.845407
0.837675
0.824263
0.811072
0.80753
0.808203
0.819687
0.835953
0.836802
0.831461
0.823236
0.80968
0.796159
0.793221
0.778675
0.777549
0.780753
0.785817
0.798418
0.812853
0.827937
0.838387
0.845399
0.849195
0.872675
0.8514
0.839392
0.831128
0.824501
0.82179
0.826214
0.833035
0.846738
0.866043
0.873642
0.873646
0.865914
0.857611
0.848364
0.839204
0.831689
0.832854
0.828943
0.839777
0.847604
0.854037
0.873934
0.887973
0.893061
0.901144
0.90842
0.929462
0.948615
0.93942
0.862664
0.85172
0.848979
0.854658
0.85515
0.837704
0.836458
0.809958
0.812609
0.785328
0.791111
0.770062
0.776173
0.774468
0.776311
0.776515
0.787925
0.79521
0.808435
0.815117
0.829213
0.835194
0.841631
0.850291
0.853431
0.8539
0.844988
0.840568
0.839102
0.839869
0.858463
0.859612
0.858929
0.857358
0.85167
0.843654
0.854803
0.8392
0.838119
0.835922
0.83236
0.834642
0.838209
0.835489
0.838676
0.846533
0.847131
0.849922
0.849934
0.847427
0.845752
0.841798
0.841253
0.844516
0.841272
0.839092
0.831843
0.828405
0.825019
0.826855
0.818149
0.817818
0.818762
0.817513
0.815449
0.81136
0.812694
0.798161
0.804818
0.80328
0.797684
0.807945
0.801289
0.822666
0.815239
0.827983
0.829147
0.834411
0.833426
0.835347
0.832807
0.828603
0.826227
0.8107
0.807067
0.805205
0.799042
0.796012
0.796529
0.798857
0.786556
0.792371
0.794685
0.796095
0.795028
0.800667
0.803801
0.806889
0.808133
0.801373
0.798257
0.789319
0.794598
0.79183
0.788889
0.786149
0.784789
0.779154
0.777884
0.774651
0.77768
0.771422
0.772995
0.769198
0.772415
0.768341
0.770024
0.766674
0.763337
0.761984
0.784421
0.778056
0.767513
0.76111
0.754932
0.749733
0.742776
0.742262
0.738499
0.746195
0.745234
0.75987
0.758072
0.778108
0.783279
0.798444
0.805863
0.810459
0.805777
0.804517
0.807185
0.810261
0.813308
0.816045
0.815817
0.813983
0.814204
0.815741
0.819067
0.819874
0.776537
0.787073
0.808928
0.812123
0.791647
0.759612
0.739682
0.734114
0.728252
0.727339
0.725275
0.726776
0.722606
0.722373
0.724185
0.721192
0.72144
0.720477
0.720439
0.721608
0.726517
0.727818
0.724754
0.732012
0.753757
0.760488
0.740884
0.732641
0.752549
0.790284
0.884094
0.846932
0.828656
0.839157
0.844858
0.843072
0.834325
0.820439
0.811647
0.810914
0.819715
0.823847
0.810208
0.794065
0.901978
0.882264
0.89011
0.901844
0.910529
0.911565
0.904146
0.868218
0.828833
0.813852
0.81835
0.827981
0.839952
0.868353
0.877142
0.867708
0.853493
0.841207
0.830608
0.822951
0.817507
0.816637
0.821218
0.831495
0.843919
0.85336
0.848444
0.843134
0.845008
0.881074
0.84122
0.833394
0.829127
0.829175
0.827265
0.826672
0.823249
0.823674
0.819036
0.823838
0.829229
0.832409
0.830508
0.834466
0.833551
0.833334
0.833543
0.832026
0.830129
0.826865
0.828772
0.827291
0.82949
0.834398
0.832435
0.837644
0.839988
0.837405
0.83587
0.843701
0.867267
0.866148
0.862758
0.85655
0.851835
0.848878
0.844154
0.83993
0.838768
0.841145
0.846853
0.853742
0.854356
0.849898
0.845819
0.846519
0.847278
0.841272
0.846657
0.831367
0.838086
0.82546
0.830967
0.830347
0.828416
0.82746
0.826687
0.824264
0.826779
0.832037
0.828641
0.838325
0.835467
0.832252
0.83103
0.830152
0.832291
0.833928
0.838618
0.825658
0.826243
0.8146
0.811816
0.804781
0.806059
0.80611
0.80822
0.816616
0.825249
0.820973
0.835113
0.830907
0.835329
0.839603
0.844704
0.844643
0.850312
0.856978
0.851097
0.846735
0.842505
0.847351
0.855409
0.85474
0.849406
0.845833
0.845084
0.840078
0.829835
0.82153
0.81404
0.811177
0.819178
0.831343
0.836136
0.831533
0.818807
0.806095
0.796538
0.786604
0.777271
0.777631
0.775678
0.782171
0.795169
0.807612
0.823798
0.835201
0.841866
0.845825
0.873298
0.849937
0.836366
0.829146
0.822653
0.819071
0.821326
0.830459
0.84336
0.862765
0.870642
0.872977
0.865817
0.858832
0.845656
0.84163
0.832899
0.832884
0.828216
0.841575
0.844849
0.854053
0.875769
0.886902
0.895422
0.901976
0.909733
0.930765
0.944894
0.927636
0.864283
0.850262
0.854158
0.855979
0.855544
0.836238
0.835114
0.808404
0.809555
0.783896
0.789043
0.767686
0.776002
0.768521
0.774644
0.772481
0.787986
0.791422
0.801613
0.817703
0.825753
0.832718
0.840737
0.846509
0.850525
0.846604
0.837438
0.836752
0.835368
0.831476
0.861362
0.858803
0.857739
0.853531
0.847869
0.848334
0.845656
0.835586
0.843087
0.83936
0.836433
0.8357
0.841209
0.834802
0.836652
0.846015
0.846787
0.850127
0.850584
0.848802
0.845735
0.84189
0.844482
0.847086
0.840598
0.833678
0.829164
0.825475
0.820871
0.821759
0.825656
0.822072
0.819824
0.817774
0.818225
0.813323
0.809043
0.80026
0.807196
0.802056
0.79609
0.809051
0.799457
0.81998
0.817574
0.82697
0.827755
0.836712
0.835236
0.836114
0.835017
0.83043
0.820049
0.81072
0.810936
0.806473
0.802356
0.799768
0.79886
0.800149
0.766966
0.787276
0.792269
0.79371
0.796747
0.802833
0.802895
0.800763
0.804069
0.797158
0.803052
0.788714
0.796544
0.790844
0.791664
0.786748
0.784081
0.781841
0.778052
0.775362
0.775215
0.772148
0.770844
0.768177
0.770002
0.770178
0.769992
0.770545
0.768507
0.765443
0.78623
0.780817
0.768459
0.759614
0.751552
0.741952
0.739128
0.737345
0.735246
0.74334
0.739627
0.757763
0.755506
0.774427
0.780308
0.797511
0.803526
0.810372
0.806628
0.804047
0.806148
0.809442
0.811754
0.812855
0.814624
0.81461
0.814919
0.816554
0.818473
0.818208
0.772315
0.776279
0.796763
0.801398
0.784091
0.755208
0.73864
0.735362
0.726287
0.728458
0.72545
0.728667
0.725814
0.726352
0.722018
0.723293
0.720192
0.721815
0.720418
0.721091
0.724188
0.730451
0.726306
0.729273
0.753858
0.771423
0.761013
0.763678
0.79117
0.87926
0.872728
0.836016
0.833076
0.84405
0.848776
0.83766
0.824391
0.815051
0.814705
0.819577
0.826834
0.825813
0.809229
0.797757
0.817139
0.861172
0.901172
0.883061
0.883662
0.899896
0.908589
0.911932
0.900098
0.866929
0.828921
0.813836
0.816622
0.82803
0.842944
0.87384
0.879786
0.867957
0.854024
0.842051
0.833781
0.824365
0.821758
0.822143
0.824815
0.833037
0.844596
0.851398
0.847959
0.841125
0.846694
0.882637
0.887428
0.870216
0.847565
0.837032
0.832196
0.829308
0.828541
0.828032
0.826821
0.826628
0.824066
0.826568
0.833186
0.832929
0.831022
0.83432
0.833855
0.83304
0.833419
0.830326
0.829989
0.826983
0.828176
0.827692
0.82981
0.834968
0.831534
0.841599
0.838738
0.835978
0.838615
0.84755
0.847528
0.854669
0.867158
0.866391
0.863484
0.859179
0.853692
0.850217
0.847459
0.841918
0.840589
0.845556
0.851754
0.853837
0.853881
0.849417
0.845602
0.843717
0.850986
0.838427
0.845552
0.82764
0.838631
0.824239
0.827239
0.824137
0.82234
0.826652
0.824255
0.824247
0.823573
0.829882
0.819276
0.816378
0.828359
0.833599
0.827018
0.8256
0.826863
0.829315
0.830247
0.836542
0.832597
0.828747
0.821045
0.819506
0.806164
0.806633
0.804143
0.803001
0.813174
0.809933
0.826471
0.81973
0.830766
0.829143
0.834666
0.838061
0.841849
0.845045
0.851962
0.853226
0.851399
0.844935
0.849102
0.843581
0.847333
0.846246
0.85071
0.853019
0.849693
0.846538
0.843498
0.838942
0.836491
0.829183
0.8218
0.81768
0.817834
0.830473
0.836352
0.832648
0.816987
0.809511
0.793224
0.789117
0.774957
0.775085
0.772603
0.781665
0.796678
0.804617
0.822345
0.831439
0.837432
0.842162
0.854628
0.856919
0.863725
0.845819
0.833798
0.825806
0.820184
0.817655
0.823921
0.82917
0.841883
0.860101
0.871429
0.871553
0.867542
0.856766
0.847855
0.838385
0.835198
0.831053
0.833891
0.841885
0.848402
0.860888
0.881506
0.886954
0.899384
0.904105
0.911764
0.933348
0.923188
0.893726
0.858338
0.855241
0.855118
0.847475
0.855604
0.857401
0.854406
0.839137
0.835546
0.808447
0.812167
0.783623
0.79069
0.770386
0.773885
0.770601
0.772362
0.775248
0.791301
0.788171
0.803546
0.819433
0.822601
0.832573
0.840169
0.84516
0.846481
0.838035
0.838266
0.837818
0.838896
0.839193
0.845323
0.851509
0.850677
0.855129
0.852975
0.848559
0.847629
0.847518
0.83676
0.841112
0.838546
0.832275
0.830322
0.834462
0.83688
0.834322
0.838163
0.843477
0.845619
0.850175
0.850124
0.8477
0.84307
0.842577
0.848568
0.847819
0.844409
0.838318
0.834831
0.82997
0.831877
0.83462
0.829328
0.825574
0.819186
0.81906
0.815716
0.819696
0.816415
0.815215
0.807347
0.80723
0.8061
0.798963
0.799498
0.806006
0.799846
0.821248
0.815772