/*--------------------------------*- C++ -*----------------------------------*\
| =========                 |                                                 |
| \\      /  F ield         | OpenFOAM: The Open Source CFD Toolbox           |
|  \\    /   O peration     | Version:  2.1.1                                 |
|   \\  /    A nd           | Web:      www.OpenFOAM.org                      |
|    \\/     M anipulation  |                                                 |
\*---------------------------------------------------------------------------*/
FoamFile
{
    version     2.0;
    format      ascii;
    class       volScalarField;
    location    "0.006950000";
    object      Tu;
}
// * * * * * * * * * * * * * * * * * * * * * * * * * * * * * * * * * * * * * //

dimensions      [0 0 0 1 0 0 0];

internalField   nonuniform List<scalar> 
12384
(
831.969
822.558
816.95
810.42
806.703
802.789
804.681
807.902
816.854
827.301
838.566
848.644
855.823
889.733
516.304
560.716
583
587.903
584.669
578.887
566.407
555.956
542.983
539.436
538.622
542.955
546.303
546.802
545.032
541.671
537.7
533.166
527.795
524.285
519.419
517.038
512.679
513.465
510.438
510.93
514.62
537.399
550.467
502.728
480.783
450.123
434.574
432.435
430.978
433.087
430.591
436.467
434.937
443.221
443.884
450.956
455.414
461.988
467.99
472.389
475.015
475.666
475.014
473.071
470.428
467.872
466.803
465.241
463.744
460.276
456.81
456.529
484.417
505.759
454.337
463.162
462.088
459.04
457.337
456.979
453.477
453.49
454.048
455.468
457.994
461.173
464.716
467.331
469.142
470.195
469.611
466.634
462.337
456.631
450.363
445.14
441.435
440.062
442.984
446.973
449.596
453.565
440.377
424.186
466.325
466.807
463.694
459.461
456.134
453.444
451.481
449.717
447.916
444.432
438.229
436.695
432.757
428.968
424.209
434.386
433.604
440.984
453.746
461.187
471.983
481.333
464.802
432.952
430.334
430.727
431.251
432.287
432.485
431.453
444.265
443.746
439.255
435.4
434.831
437.47
433.603
435.336
428.588
429.554
426.544
428.162
429.13
430.066
430.071
429.588
428.304
424.067
422.494
425.303
427.218
423.647
435.035
434.096
446.556
452.217
459.441
459.158
467.183
470.676
324.71
324.905
341.427
352.44
355.597
357.721
357.261
357.499
358.822
360.567
362.381
363.154
362.687
361.775
360.594
358.772
358.489
361.407
358.672
370.493
370.422
382.945
386.961
393.617
368.225
353.487
356.483
357.454
356.269
354.974
410.275
435.04
448.514
452.239
452.245
454.1
446.661
449.876
429.87
436.087
413.636
421.709
407.756
414.079
410.237
420.426
426.356
434.95
442.026
448.207
439.655
429.478
428.1
429.421
430.391
432.062
433.361
434.904
435.618
436.52
455.847
462.164
466.419
466.504
463.126
455.248
448.867
439.189
434.595
431.745
433.261
437.435
442.271
445.756
449.398
453.319
449.601
429.5
417.924
419.4
422.71
427.183
429.383
435.228
436.803
440.529
437.946
430.462
418.592
410.664
359.481
366.124
370.769
372.034
371.186
367.814
364.909
357.378
357.196
362.096
356.897
370.217
377.937
392.503
396.662
404.759
402.464
396.425
390.952
383.279
380.128
378.622
378.462
375.922
376.771
376.617
377.431
377.986
377.258
374.758
315.211
332.45
342.246
345.622
342.069
335.433
332.076
327.034
326.98
329.012
332.103
335.571
339.764
337.827
327.259
319.927
312.635
312.635
309.982
297.417
292.814
288.069
278.026
276.73
276.663
271.288
272.785
280.178
281.43
280.136
270
270
270
270.6
297.348
296.052
293.611
292.396
292.265
287.754
297.01
289.906
301.085
295.844
302.541
300.01
301.405
301.122
300.567
299.959
299.65
299.35
300.622
300.242
302.727
302.985
300.036
288.653
274.325
271.705
287.539
288.533
290.464
288.873
284.138
272.46
270.507
370.324
395.934
394.511
395.005
394.979
392.606
392.796
391.13
390.706
388.893
386.285
382.827
377.836
375.969
366.55
364.239
347.59
334.118
314.329
308.796
309.054
337.022
354.565
796.173
790.932
774.841
754.788
745.418
737.532
741.975
740.462
751.221
768.014
796.725
828.68
851.908
886.969
520.269
573.25
590.064
587.992
575.801
560.387
543.025
538.087
538.115
563.778
593.905
612.065
609.771
597.797
583.841
573.293
566.542
563.435
561.485
559.5
555.847
549.225
539.679
530.033
520.576
513.538
512.536
523.213
547.216
529.091
481.31
449.508
437.39
434.638
433.825
433.15
432.54
435.715
436.287
443.448
446.412
454.261
464.116
475.265
485.616
493.036
498.058
500.06
499.442
497.224
496.329
492.363
488.955
484.985
479.393
471.856
463.79
458.068
468.51
492.142
458.527
463.87
461.261
458.912
457.346
456.26
455.906
454.227
454.449
455.683
458.042
460.714
464.59
467.875
469.314
468.934
466.766
463.289
457.786
450.281
444.432
440.084
436.125
434.467
434.367
438.44
442.141
446.98
446.808
436.242
464.604
465.165
459.865
453.316
449.588
447.869
446.965
446.18
444.226
440.217
441.174
440.29
432.643
432.601
435.456
431.881
439.203
441.909
445.513
455.431
459.084
471.721
474.306
457.139
434.291
434.108
436.619
438.422
440.001
438.106
443.609
441.666
437.403
435.988
437.945
438.017
430.546
425.93
422.996
421.54
424.867
425.558
426.212
426.559
427.18
427.666
427.283
426.273
430.466
430.052
430.255
433.65
440.352
443.484
450.519
453.486
459.34
460.039
462.728
468.122
324.531
333.259
355.945
365.372
363.921
358.436
356.495
355.109
355.965
355.719
356.074
356.426
356.351
355.688
353.954
353.611
353.887
354.837
357.173
359.181
368.024
368.704
377.199
388.089
383.082
356.87
357.941
359.542
360.997
359.752
417.314
450.744
459.443
461.472
460.009
460.187
451.111
445.674
432.577
430.544
416.411
415.709
408.937
406.796
412.911
416.576
419.806
427.893
435.413
444.852
447.29
435.685
426.665
425.627
428.015
432.351
435.97
437.927
439.663
441.84
459.019
464.581
467.117
464.996
458.55
451.469
443.618
431.843
429.856
426.302
424.255
428.199
434.063
438.255
441.725
447.732
452.351
442.972
424.91
422.818
425.576
428.676
431.009
436.697
444.899
452.005
459.638
460.344
438.623
416.719
358.247
364.796
365.317
360.99
354.861
346.778
341.345
333.941
332.513
327.693
334.687
348.631
351.279
367.014
379.484
390.669
396.517
398.391
395.94
388.533
380.774
377.634
375.835
373.017
373.949
373.823
375.056
378.207
383.496
380.469
318.191
342.274
347.026
342.854
335.129
328.658
319.004
313.246
313.815
317.836
322.541
328.691
335.97
341.345
334.104
322.561
314.276
308.801
301.739
287.606
276.143
270.173
270
270
270
270
270
270
278.395
279.05
270
270
270
287.992
300.078
299.11
300.738
301.382
297.57
302.178
298.201
294.14
295.822
290.264
286.578
286.719
284.595
284.111
284.448
284.523
284.6
285.292
286.509
288.106
292.698
296.945
298.55
293.064
279.785
273.106
284.427
280.752
286.242
301.298
295.694
273.703
325.408
392.609
403.289
407.171
411.327
412.893
414.371
410.778
411.535
406.769
403.041
397.476
390.959
384.979
379.763
376.666
375.776
361.284
339.841
310.649
308.91
314.152
346.521
356.73
782.15
762.79
731.922
719.706
722.686
729.565
740
739.769
736.845
734.682
747.781
790.934
839.076
885.42
525.136
582.514
592.488
580.214
561.973
546.043
538.614
551.029
592.229
642.78
668.989
664.575
640.097
608.338
583.486
575.691
578.593
587.785
595.158
601.481
602.564
598.917
589.697
573.209
552.029
530.847
515.303
516.044
536.746
540.995
480.636
451.82
441.113
438.932
434.934
434.225
430.626
435.582
433.996
441.362
444.4
453.869
467.305
483.114
494.814
501.938
504.542
504.176
502.499
501.262
500.884
500.599
501.03
499.287
494.125
485.543
474.383
463.441
462.645
481.15
459.334
462.843
460.668
458.948
457.732
457.116
454.117
450.62
450.203
449.851
452.125
454.925
458.539
462.983
466.076
465.284
462.516
457.723
451.155
445.507
440.634
436.006
431.151
429.838
430.659
431.98
435.168
439.548
443.295
440.563
459.074
460.346
455.336
449.719
447.483
447.003
447.94
448.771
449.851
450.384
456.17
455.928
450.384
457.558
452.154
455.414
453.769
457.056
451.501
452.786
457.914
461.083
468.495
469.155
449.396
434.368
437.739
440.606
443.24
443.665
441.608
438.733
434.596
435.815
437.353
432.898
423.969
423.21
426.176
433.338
435.845
434.974
429.173
425.602
425.586
426.946
430.559
436.731
443.031
442.403
451.252
452.608
458.504
457.493
460.311
458.736
460.346
459.453
460.003
465.082
324.343
341.029
364.886
369.427
365.534
365.683
365.944
361.429
359.268
357.87
355.613
354.736
354.002
353.571
355.566
359.499
363.75
366.926
365.319
366.792
368.213
371.007
369.689
379.496
384.988
372.333
356.227
359.91
363.4
365.642
431.784
461.675
463.211
467.971
464.82
459.151
448.71
440.057
430.616
427.417
413.117
413.097
409.781
412.429
410.073
414.338
420.057
423.799
429.607
436.383
443.316
442.14
429.961
423.663
425.878
430.656
435.93
439.445
442.069
442.841
463.219
467.79
465.905
460.297
452.105
449.225
439.068
429.544
430.83
424.442
427.523
425.187
426.726
432.762
437.003
441.325
448.646
448.66
433.083
423.5
424.466
425.488
427.89
435.068
443.134
448.025
457.358
469.545
462.273
428.123
365.933
365.628
358.318
349.643
339.769
333.319
324.139
317.6
312.012
313.452
311.249
324.3
337.019
348.198
358.899
372.468
382.292
389.185
392.902
391.273
383.685
377.852
375.133
373.406
375.986
375.552
377.097
375.944
381.331
385.217
340.957
347.761
340.033
331.239
323.057
310.941
304.091
304.848
304.072
306.746
311.412
317.596
325.549
335.393
337.619
325.118
317.724
308.712
300.568
289.092
273.656
270
270
270
270
270
270
270
278.598
280.531
270
270
271.523
297.948
305.166
310.691
316.252
322.302
327.007
324.971
323.152
318.01
305.187
302.587
288.337
282.153
281.098
280.352
281.61
283.591
285.11
284.955
284.16
283.938
286.145
290.31
295.213
293.406
282.571
273.598
283
270.457
270.072
293.234
288.824
294.726
367.142
406.834
414.726
421.289
425.733
427.366
425.43
427.246
421.708
418.898
413.059
404.827
396.125
385.255
380.54
374.976
374.037
362.189
335.06
308.197
314.681
332.973
363.296
357.162
766.555
731.472
717.476
729.009
756.175
782.715
800.641
806.528
794.107
763.021
740.57
757.697
818.194
880.767
528.761
586.535
590.72
571.42
552.683
544.286
551.625
588.823
644.027
686.017
683.824
654.951
615.591
578.709
569.389
579.513
599.48
620.765
635.637
648.05
652.333
648.517
640.689
622.347
593.936
561.158
528.782
514.097
527.404
543.181
483.032
457.659
447.509
445.217
438.045
433.657
431.931
435.452
433.334
440.046
442.524
452.878
469.071
486.26
497.356
499.628
496.933
495.723
496.352
496.66
496.444
496.068
498.707
502.246
501.653
496.847
484.678
470.449
462.788
475.779
459.307
462.633
460.552
459.075
458.066
455.334
450.702
447.831
448.327
448.097
448.74
450.634
452.533
455.791
460.682
460.888
456.651
450.828
445.819
441.214
436.005
431.478
427.614
424.418
424.731
425.214
427.291
434.536
440.988
439.13
451.366
458.377
451.653
447.794
447.044
447.463
449.437
453.485
457.927
465.063
474.47
471.296
477.572
476.279
478.653
475.248
472.994
472.722
473.194
458.923
456.897
459.408
460.842
469.052
461.365
439.676
436.11
440.999
442.634
445.094
439.447
435.344
431.696
433.836
434.37
427.861
423.399
428.735
440.36
451.802
454.965
448.478
434.44
424.046
422.174
426.686
437.71
447.884
455.856
467.6
474.885
479.791
479.851
478.946
475.208
467.617
462.904
459.61
457.026
460.697
325.062
346.921
370.585
373.822
374.012
379.184
379.053
375.047
366.757
359.477
353.523
350.094
349.766
355.587
366.338
374.602
381.635
384.879
388.56
383.912
376.625
382.075
370.351
377.044
383.833
382.041
363.839
355.248
360.182
368.618
452.853
464.435
472.307
473.376
466.316
455.487
444.301
432.152
435.894
418.874
417.468
414.032
411.275
407.049
415.152
413.401
421.954
420.921
426.113
430.735
437.102
441.56
435.335
424.697
423.852
428.952
434.38
438.868
444.019
445.029
468.97
469.85
462.835
454.132
448.161
447.87
433.117
437.449
431.231
430.769
425.489
427.5
425.875
428.172
431.934
437.47
443.847
449.283
440.721
427.288
422.775
424.134
429.719
437.817
443.789
444.547
449.629
463.881
474.485
439.338
371.463
361.568
350.499
340.963
332.799
327.34
317.368
313.495
312.125
313.698
314.963
312.48
324.2
336.917
342.735
358.515
368.57
378.213
385.681
389.9
387.096
379.455
376.165
376.056
377.474
376.124
378.32
378.596
379.66
386.727
345.59
344.161
330.235
318.346
306.729
300.475
301.329
302.842
303.504
303.527
303.983
306.635
313.849
326.728
334.451
329.692
319.948
311.914
302.413
293.049
278.753
270
270
270
270
270
270
271.391
277.457
281.018
270
270
285.862
306.443
316.174
327.509
341.624
349.254
356.305
354.264
345.847
348.56
323.861
315.843
300.34
285.538
279.039
280.408
284.339
287.185
287.873
285.951
286.107
285.007
284.704
286.341
291.35
291.535
283.455
273.854
293.81
270.596
270
280.16
285.371
323.187
391.553
417.438
424.147
431.949
436.22
436.433
437.744
432.941
432.601
428.881
422.902
415.019
401.778
390.891
379.832
375.483
371.666
363.646
319.704
310.079
333.239
359.423
373.572
349.516
736.023
714.887
729.222
764.23
790.359
808.376
822.765
837.683
836.831
813.821
763.149
750.018
798.562
878.261
529.72
588.086
588.115
566.897
550.55
550.34
566.697
616.629
673.493
697.129
666.221
622.103
589.013
563.833
570.548
599.67
629.065
653.91
672.453
687.175
694.009
693.426
682.473
665.074
634.761
593.886
548.876
517.827
521.796
541.929
488.244
466.084
458.492
455.904
447.091
437.681
433.602
438.103
439.228
444.704
445.484
452.332
471.036
488.605
493.467
491.079
490.608
492.558
494.778
495.244
495.305
497.099
498.208
501.812
502.84
502.866
492.002
477.17
464.208
472.815
459.023
462.53
460.241
460.062
457.236
454.641
448.773
449.413
448.33
449.039
449.401
449.499
449.633
451.356
456.667
455.791
450.287
445.601
441.716
435.87
429.987
424.944
427.59
429.842
424.468
421.448
419.895
422.435
432.961
441.095
447.367
457.16
448.359
446.099
446.084
447.446
452.275
459.915
468.921
482.628
488.812
484.484
496.07
491.813
489.826
495.552
493.565
484.737
482.441
476.337
460.79
457.777
458.596
463.592
465.067
447.552
436.568
440.788
444.398
443.152
438.685
434.108
429.091
430.467
431.448
424.848
423.878
431.963
450.694
464.28
466.575
458.908
438.196
420.492
419.534
429.5
443.064
458.435
474.789
490.082
493.896
498.313
502.378
498.237
491.521
478.028
466.876
458.736
454.119
455.249
323.045
348.344
371.87
379.159
388.05
394.995
392.399
387.879
376.119
360.635
348.363
345.596
350.28
360.934
371.848
384.815
396.066
403.78
404.077
407.641
392.764
389.465
382.883
376.625
382.794
385.506
373.551
355.833
360.847
368.004
463.351
470.309
481.297
475.083
462.693
447.741
444.866
427.792
440.524
413.604
426.554
412.026
407.802
410.913
411.091
414.459
421.152
419.472
427.645
425.584
431.911
439.126
439.11
429.146
425.548
430.076
433.866
436.526
442.746
445.161
474.16
469.197
458.175
449.021
449.265
442.231
434.433
444.108
431.203
426.784
427.339
427.442
427.15
426.465
429.228
434.243
439.136
447.761
444.865
434.208
426.329
427.041
434.686
440.328
439.248
438.653
439.932
455.887
472.337
446.585
365.895
356.085
347.174
336.862
330.832
325.808
313.826
315.13
311.686
306.208
310.777
315.673
316.174
329.346
333.968
347.791
357.795
368.728
377.214
385.827
387.227
383.01
379.804
378.889
376.83
373.242
374.68
378.725
380.569
387.305
342.93
334.141
315.631
304.729
299.596
306.407
310.212
303.24
300.777
300.736
302.489
302.558
306.039
314.467
328.647
331.412
322.057
314.664
306.452
295.332
288.218
273.429
270
270
270
270
270
275.678
282.208
283.931
270
270
292.173
312.705
328.314
347.043
363.087
376.762
377.572
385.224
370.005
369.682
349.187
330.657
309.608
294.174
279.832
279.287
286.677
289.109
287.298
285.091
285.474
283.9
284.737
284.28
288.777
289.852
282.404
273.885
308.47
279.093
270
270.903
292.354
347.261
405.71
424.122
431.504
439.459
441.927
441.025
442.49
443.602
439.004
431.895
428.082
419.055
409.782
394.35
380.735
375.751
373.857
358.709
318.894
311.813
350.317
372.899
369.069
323.872
726.648
727.995
763.91
786.94
776.588
755.472
763.429
798.269
835
834.628
788.714
751.647
787.768
873.563
526.685
587.68
588.612
566.468
553.935
556.507
575.284
627.617
688.373
699.941
642.792
591.67
574.217
560.124
583.252
619.98
650.296
675.414
695.258
716.751
728.063
729.593
717.821
697.469
667.757
622.351
569.678
524.775
520.389
539.982
491.197
477.134
467.327
469.934
464.03
454.073
444.945
450.498
454.576
459.204
450.422
454.74
471.347
489.836
486.42
482.415
486.506
493.463
498.344
499.223
499.086
496.134
496.273
500.852
502.467
504.315
497.178
482.097
465.855
471.086
458.88
462.668
460.251
461.007
456.878
455.439
449.939
449.541
448.011
448.725
449.974
450.193
448.338
448.459
451.509
448.391
444.837
440.476
435.72
428.088
430.971
431.771
424.903
420.399
424.673
424.458
420.003
416.758
419.694
429.405
446.135
454.125
445.956
445.739
445.115
448.557
456.19
467.251
480.601
491.016
493.529
495.724
510.762
510.24
516.54
504.553
506.375
498.343
488
484.236
469.858
455.49
457.016
461.747
463.045
451.035
435.91
438.394
441.177
441.425
433.992
430.522
425.513
425.589
428.515
424.15
420.52
429.866
450.957
464.367
467.402
460.868
437.055
416.603
418.164
429.081
447.732
472.76
486.113
503.057
511.852
519.394
520.323
515.515
503.567
487.483
469.683
457.398
449.877
450.285
320.952
348.894
377.089
389.357
399.781
406.859
406.433
396.86
382.206
361.918
345.025
342.822
350.192
365.529
383.752
402.444
412.454
418.702
421.228
422.51
409.842
400.3
390.973
384.134
381.532
387.98
380.314
363.171
361.624
371.23
470.083
477.858
489.26
471.934
459.193
444.101
443.559
434.045
435.236
414.688
424.348
402.672
407.436
400.37
405.636
408.638
418.295
418.8
427.597
421.847
427.768
436.751
438.878
434.32
431.351
434.751
436.167
436.309
442.376
446.999
477.909
464.893
453.768
448.942
447.325
434.608
445.341
443.168
433.678
441.702
436.839
433.5
431.043
426.986
428.359
432.38
436.688
444.757
448.711
440.339
431.407
433.248
440.967
437.218
429.478
430.559
433.275
445.885
472.553
453.811
364.11
354.955
347.657
337.658
328.687
321.213
321.119
308.417
309.965
306.27
308.044
320.012
314.127
327.675
328.115
339.913
351.25
361.331
370.483
380.981
387.416
386.048
383.7
381.52
370.931
369.186
371.232
377.845
380.133
387.665
337.685
321.8
304.977
300.697
303.861
306.309
304.068
308.453
306.176
299.986
297.146
296.628
303.247
307.735
320.313
329.418
324.414
317.385
309.322
300.367
295.536
283.417
275.317
270
270
270
270
270
282.93
284.532
270
270
297.608
318.383
337.196
358.497
379.673
389.837
397.666
401.161
392.167
385.304
365.918
350.523
318.828
301.288
283.982
279.599
286.405
289.248
286.598
284.599
283.931
281.717
284.406
282.869
287.021
286.302
280.052
273.442
324.584
294.612
270
272.385
305.23
365.193
413.645
429.687
436.413
443.473
446.721
451.71
452.154
448.614
442.833
441.029
431.72
427.157
417.122
400.777
382.072
376.003
372.842
362.361
317.265
308.871
348.01
367.563
349.136
289.59
724.401
742.455
771.573
739.162
683.355
658.712
682.132
746.502
818.725
843.756
808.794
759.202
786.759
877.425
519.062
587.54
590.684
569.46
558.88
560.774
576.263
634.667
698.063
702.044
626.855
574.193
569.967
562.474
595.471
632.932
660.097
682.853
707.451
731.693
748.201
753.093
741.888
719.321
688.822
643.259
584.585
529.698
520.584
539.71
495.285
486.55
481.292
486.196
490.013
483.129
476.136
477.835
479.952
477.133
460.011
455.615
473.12
487.204
482.522
481.443
486.598
495.841
499.923
498.336
496.381
495.142
493.267
498.602
501.073
504.768
499.262
485.338
467.336
470.293
457.779
463.406
461.84
460.392
459.028
456.712
451.693
451.308
447.419
447.67
450
448.482
447.797
445.251
449.942
447.106
441.033
432.763
434.365
425.216
431.793
421.273
418.825
414.145
409.007
409.139
410.876
419.055
424.103
422.658
450.399
449.572
444.68
444.167
445.272
449.244
458.636
473.712
486.684
493.902
492.284
510.382
515.551
515.565
520.413
515.514
516.136
508.82
491.585
485.691
476.39
456.278
452.666
459.269
464.22
451.965
436.56
435.763
438.931
439.905
435.301
431.477
424.25
420.538
424.627
422.007
417.659
424.071
440.229
452.403
464.094
460.087
440.221
417.046
413.655
429.281
454.304
474.533
490.168
512.345
514.426
524.437
528.459
523.77
510.915
491.994
470.554
454.913
445.025
443.794
320.275
349.836
377.351
390.387
404.702
411.454
412.735
405.684
387.3
362.875
346.988
340.648
348.375
369.564
389.334
402.994
415.29
426.56
426.594
427.39
424.564
403.106
398.862
389.722
383.795
388.872
384.582
367.677
362.912
375.751
472.884
489.531
488.545
468.678
457.272
441.592
446.931
428.699
437.689
412.475
420.729
396.275
405.058
402.113
406.124
405.686
416.013
419.606
424.42
420.521
428.103
433.923
438.513
438.411
436.952
436.9
435.507
437.543
443.994
447.082
470.966
459.829
450.186
446.761
441.786
436.3
450.648
433.4
432.49
429.968
426.64
428.148
430.252
423.639
425.654
433.504
435.682
443.49
449.912
444.847
437.027
442.665
440.705
429.215
423.209
429.542
431.864
448.895
472.581
454.628
367.817
358.425
349.077
337.678
327.73
320.572
322.908
308.418
318.951
317.943
311.516
318.774
313.507
327.577
326.166
335.342
346.37
357.463
365.763
378
386.217
387.452
387.093
379.036
363.774
366.815
374.933
380.681
384.429
389.421
329.967
310.63
301.7
296.558
298.677
307.593
314.864
319.721
319.571
312.877
302.578
291.675
297.247
303.04
315.974
326.431
326.919
318.217
312.684
303.332
302.456
292.927
288.881
274.17
270
270
270
270
270
279.267
270
270
295.825
321.522
347.067
374.569
391.214
404.368
405.657
413.974
403.584
402.96
375.215
362.748
329.569
307.816
286.94
280.68
286.108
290.382
286.997
283.972
282.79
282.334
283.229
283.241
285.228
283.241
277.642
273.683
340.106
314.667
283.462
285.828
320.112
378.083
418.626
432.324
440.691
444.934
452.631
456.21
456.915
454.792
453.914
442.855
435.77
427.206
420.106
407.994
387.181
372.247
373.943
363.813
315.382
292.481
325.173
335.818
303.148
270
741.206
762.824
746.935
665.685
619.187
627.969
681.358
762.913
827.382
843.584
809.86
757.959
787.545
879.962
511.55
576.715
596.235
574.039
564.348
563.183
574.605
631.819
704.777
700.596
624.718
564.26
566.218
562.646
603.871
638.073
660.629
682.675
708.239
738.964
758.249
759.768
752.625
731.286
697.64
654.739
590.965
532.196
520.697
542.624
497.076
496.719
491.803
496.184
504.474
511.285
511.042
511.939
505.568
496.856
468.188
456.812
473.91
487.175
476.414
477.082
488.961
499.022
499.868
494.553
493.785
490.534
493.255
499.273
498.877
503.52
502.188
486.877
465.643
471.34
456.87
462.436
463.687
461.24
459.596
457.958
454.411
451.62
451.231
451.01
449.686
449.66
447.667
443.714
448.057
443.696
436.002
428.933
432.006
420.979
428.038
419.845
426.034
423.28
418.123
413.075
410.122
406.978
416.429
427.339
451.939
444.68
444.993
445.179
443.424
448.347
459.626
474.834
488.513
487.482
498.339
505.363
513.87
520.053
526.166
522.848
514.292
509.101
501.162
480.657
477.111
457.663
450.056
454.766
463.838
451.904
431.654
433.311
433.697
435.719
429.739
427.816
423.2
417.57
418.194
418.484
417.451
418.217
424.861
437.822
447.979
453.998
441.635
413.116
411.886
430.895
452.337
473.68
494.021
510.63
522.575
535.326
531.562
527.84
514.028
490.034
467.465
451.794
439.944
440.144
321.622
346.368
378.171
395.007
409.536
413.464
411.557
407.286
392.967
364.526
345.488
340.69
348.791
371.746
387.862
405.412
417.047
428.746
428.43
431.628
425.301
405.326
403.725
390.138
388.286
389.688
387.07
370.133
369.296
393.112
479.572
500.328
486.143
466.115
456.383
442.277
446.871
429.477
435.406
412.656
418.081
394.46
405.164
395.524
404.229
400.955
417.719
416.855
417.962
425.016
425.154
430.82
438.607
439.603
439.218
436.976
434.644
440.302
444.16
441.79
470.944
456.838
447.878
442.074
438.539
442.937
440.825
430.508
438.95
433.844
431.391
430.008
434.918
423.902
423.358
432.591
435.065
443.134
450.119
446.609
442.684
448.754
432.772
422.289
421.688
433.654
445.523
458.831
465.508
457.086
380.162
367.293
351.356
337.512
330.059
321.832
318.875
310.48
324.348
317.366
312.786
322.355
314.165
324.075
330.646
332.546
343.645
356.792
364.991
375.955
386.959
389.756
387.473
367.99
361.881
365.845
372.902
378.863
383.504
387.963
305.796
303.033
297.172
296.495
302.448
312.655
315.256
314.838
316.037
310.745
307.598
292.818
296.734
299.194
313.694
324.51
326.697
321.12
314.769
307.317
306.136
302.03
298.979
287.799
279.083
270
270
270
270
270
270
270
294.951
322.616
348.478
373.058
395.816
407.075
411.229
420.211
406.964
409.126
382.797
367.35
336.196
314.447
291.44
281.246
286.126
292.968
289.448
285.038
283.612
281.819
283.074
283.303
282.577
279.429
275.387
274.408
353.571
338.905
302.386
305.988
335.25
385.808
421.825
435.525
441.192
447.896
457.432
462.048
466.044
464.437
454.825
449.833
436.576
429.949
422.483
414.821
392.423
369.343
372.808
369.073
316.216
281.298
287.502
291.748
270
270
749.062
753.455
687.844
618.518
618.152
681.205
764.104
830.601
857.143
846.227
799.021
760.744
803.459
881.578
779.215
623.571
512.796
569.598
599.455
585.185
569.028
567.95
576.236
634.328
705.491
696.407
621.081
557.35
565.99
566.991
608.12
636.326
654.987
673.723
701.202
731.893
756.568
760.289
750.546
728.633
696.526
652.133
588.831
528.234
522.659
544.018
511.016
492.668
500.791
502.869
503.165
504.841
512.814
522.193
527.579
529.555
525.05
512.53
478.14
455.22
475.711
487.049
474.839
476.704
490.308
497.806
499.905
493.974
492.03
490.305
493.565
499.712
498.603
507.856
500.929
484.223
468.574
477.099
493.184
476.344
457.478
461.258
463.205
463.487
461.606
460.839
459.853
455.094
452.347
451.859
450.158
449.081
448.235
444.214
448.615
440.707
438.677
426.63
429.523
418.139
427.616
418.838
421.597
415.775
411.151
411.009
407.117
408.065
412.826
424.95
434.765
433.953
447.606
440.368
442.559
440.72
440.066
447.149
458.525
476.374
480.596
487.159
489.679
505.31
501.866
515.401
518.928
513.436
514.822
497.474
500.102
477.767
470.849
454.606
449.372
453.717
461.012
451.012
431.587
429.857
433.982
432.484
441.342
439.187
441.206
432.816
424.955
417.056
413.065
414.543
413.977
412.091
416.673
421.642
431.437
444.191
440.474
414.404
410.541
430.301
449.075
474.262
486.817
511.346
518.77
531.468
525.999
524.428
510.759
481.594
462.191
445.304
433.566
425.915
368.987
325.427
320.856
350.843
381.123
396.27
408.375
412.318
408.564
399.997
396.976
369.173
349.689
340.128
347.364
366.092
383.395
395.759
410.391
418.536
424.527
425.613
420.865
405.987
405.123
388.663
392.173
391.855
384.872
371.984
389.764
434.882
495.105
502.25
500.784
506.332
486.509
467.294
454.358
445.178
444.786
429.652
436.804
412.542
420.403
397.214
402.525
399.257
401.311
403.991
421.456
411.342
418.835
426.548
421.442
430.709
438.506
440.323
439.057
436.183
442.245
445.718
446.367
446.178
455.72
467.099
457.19
451.837
442.195
435.636
438.32
441.324
430.085
437.491
433.801
426.376
424.304
428.372
430.368
423.976
425.554
429.931
433.556
443.464
449.754
445.602
449.566
449.552
430.528
419.109
420.776
429.867
435.351
430.106
423.35
408.313
387.278
385.172
377.216
368.099
350.531
341.356
328.621
324.553
315.955
318.797
319.972
313.59
314.216
318.761
312.939
325.96
329.012
334.791
344.402
356.151
365.852
377.007
388.313
391.215
381.093
365.846
359.027
357.536
356.68
357.364
361.595
363.926
362.852
380.351
331.359
316.743
304.644
299.777
304.757
313.491
311.305
319.478
317.013
312.845
305.089
299.462
293.372
303.97
311.901
324.445
329.578
322.129
317.288
311.781
306.969
305.154
304.59
298.698
291.428
281.724
270
270
270
270
270
270
270
270
288.063
317.061
343.928
372.76
390.567
408.133
408.115
421.723
408.677
406.302
386.116
366.815
338.565
315.917
296.574
283.009
285.713
294.974
293.1
287.359
284.134
284.173
282.916
281.22
279.455
277.858
281.349
300.074
331.4
357.881
369.741
350.5
322.492
327.585
349.296
390.171
422.877
436.177
441.689
448.901
460.607
461.184
468.472
464.792
459.157
448.911
438.552
430.244
424.936
417.061
401.379
365.057
368.479
372.331
320.12
273.608
270
270
270
270
397.5
466.058
766.238
737.914
651.833
625.852
691.485
789.828
854.376
871.047
853.29
819.902
776.578
767.146
829.854
884.057
806.488
646.082
523.935
560.139
598.645
595.118
583.685
576.654
590.244
638.013
698.818
690.341
619.529
555.818
564.134
566.032
605.108
631.49
644.416
658.95
682.114
712.72
734.324
738.619
732.764
715.156
685.816
639.973
575.741
527.473
525.709
547.092
507.026
486.826
492.84
500.834
503.926
509.644
515.104
524.151
529.57
533.638
531.154
520.956
483.102
454.706
475.645
486.318
474.466
475.112
489.181
496.268
499.765
494.967
495.803
494.775
496.787
497.319
503.566
509.029
496.6
483.547
471.257
477.376
494.612
482.949
458.839
461.411
465.574
465.371
464.999
461.645
459.063
460.108
457.363
453.823
453.526
453.158
449.383
445.709
448.481
443.153
434.428
430.683
423.17
418.707
420.513
415.756
415.154
409.714
404.975
407.616
405.884
408.85
415.58
426.44
436.434
439.215
439.971
436.682
441.04
439.943
438.356
444.344
457.974
471.332
479.822
479.459
485.926
491.272
494.694
501.761
505.508
497.87
503.935
489.347
483.719
476.612
464.969
449.342
449.293
455.626
459.264
444.79
424.976
427.375
427.951
432.258
433.857
434.383
439.658
437.994
430.132
420.28
413.744
410.136
408.481
410.263
408.625
410.688
419.822
433.882
440.513
416.815
408.161
427.342
445.527
466.96
483.329
500.369
512.72
522.897
520.113
512.448
499.376
472.442
453.999
440.806
430.13
416.609
363.447
330.384
330.285
353.339
376.843
394.722
404.83
410.296
396.21
392.005
396.583
377.569
355.247
346.199
348.627
363.288
380.613
393.976
402.168
412.684
414.741
416.188
411.267
404.117
395.777
393.115
393.046
389.534
382.38
385.795
445.664
495.541
512.588
515.995
518.3
513.054
491.659
470.509
456.061
445.598
448.242
430.023
436.972
420.056
414.568
408.317
406.565
407.683
408.615
409.602
416.003
412.278
420.765
422.468
423.356
430.571
436.952
437.123
432.38
433.618
436.631
440.919
441.566
441.721
454.312
457.164
453.618
447.49
436.341
435.442
434.502
430.352
436.259
429.885
425.717
425.52
421.732
428.516
423.248
420.038
427.378
431.465
433.536
443.499
447.164
445.126
454.45
455.076
436.354
419.413
415.466
410.103
411.025
402.495
403.934
394.095
392.982
388.777
383.431
372.359
359.612
346.839
331.661
328.11
321.443
321.25
320.38
322.138
322.243
317.88
318.5
330.564
327.806
337.904
349.488
356.658
368.747
379.346
389.038
389.821
379.474
370.644
363.67
362.536
358.242
359.637
359.988
362.389
359.161
364.323
328.899
314.291
305.71
303.13
303.782
310.399
311.835
315.949
316.299
316.015
302.624
299.501
298.715
307.492
315.217
324.241
330.414
326.099
317.338
314.266
310.832
306.936
303.877
304.284
298.033
293.42
280.079
270
270
270
270
270
270
270
279.73
310.14
337.529
361.908
383.775
399.288
403.068