/*--------------------------------*- C++ -*----------------------------------*\
| =========                 |                                                 |
| \\      /  F ield         | OpenFOAM: The Open Source CFD Toolbox           |
|  \\    /   O peration     | Version:  2.1.1                                 |
|   \\  /    A nd           | Web:      www.OpenFOAM.org                      |
|    \\/     M anipulation  |                                                 |
\*---------------------------------------------------------------------------*/
FoamFile
{
    version     2.0;
    format      ascii;
    class       volScalarField;
    location    "0.002100000";
    object      p;
}
// * * * * * * * * * * * * * * * * * * * * * * * * * * * * * * * * * * * * * //

dimensions      [1 -1 -2 0 0 0 0];

internalField   nonuniform List<scalar> 
12384
(
195994
194883
197277
195833
199180
201528
201900
191404
193404
187388
185655
187003
190656
194763
228943
228938
227592
227535
224623
208931
213420
210772
211799
208674
209222
208215
206714
202055
202192
205896
210493
209278
215000
220823
234494
246762
249854
246929
246998
247443
248307
246993
248963
245266
303942
304329
301988
294351
270431
253005
249302
287744
315696
334160
334794
327533
310868
293153
288317
273557
268274
242174
234934
238720
251907
254317
256219
244595
246440
235873
232339
234460
225160
225185
152328
151545
153328
150810
155611
152616
153984
167826
162147
179485
176538
189737
187883
194257
195523
197822
198311
200611
199766
203185
204652
206656
209504
211849
213770
213781
212737
208631
191184
196945
135457
135871
136225
136833
137443
138021
138542
138740
138793
138379
137787
136310
136078
133587
132836
132303
130530
130720
128860
129292
127276
126106
126757
123274
124888
121465
122578
121362
120895
121055
106449
106359
106339
106091
106043
105784
105536
105514
105047
105127
104530
104710
104035
104307
103656
103697
103588
103157
103312
102872
103019
102637
102766
102456
102562
102331
102409
102260
102308
102252
101454
101450
101450
101429
101434
101414
101420
101400
101406
101386
101391
101374
101377
101362
101366
101353
101357
101347
101349
101341
101343
101337
101338
101333
101334
101330
101331
101328
101329
101328
101325
101325
101325
101326
101325
101326
101326
101327
101326
101327
101327
101327
101327
101328
101327
101328
101327
101328
101327
101327
101327
101327
101326
101326
101326
101326
101325
101326
101325
101325
101325
101325
101325
101326
101325
101326
101326
101327
101326
101327
101327
101327
101327
101328
101327
101328
101327
101327
101327
101327
101326
101327
101326
101326
101326
101326
101325
101326
101325
101325
101325
101325
101326
101325
101326
101326
101326
101326
101327
101327
101327
101327
101327
101327
101328
101327
101328
101327
101327
101327
101326
101327
101326
101326
101326
101326
101325
101325
101325
101325
101325
101325
101325
101326
101325
101326
101326
101326
101326
101327
101327
101327
101327
101327
101327
101327
101327
101327
101327
101327
101326
101327
101326
101326
101326
101326
101325
101326
101325
101325
101325
101325
101325
101325
101325
101326
101326
101326
101326
101327
101326
101327
101327
101327
101327
101327
101328
101327
101327
101327
101327
101326
101327
101326
101326
101325
101326
101325
101325
101325
101324
101324
101324
101325
101324
101325
101325
101326
101326
101327
101327
101328
101327
101328
101328
101328
101328
101328
101328
101328
101327
101328
101327
101327
101326
101327
101326
101326
101326
101326
194690
196170
195484
198882
199032
190452
198512
198307
192175
191588
189591
185600
189400
192055
225567
221462
220187
222863
208748
213596
213541
212584
210887
211238
210385
208604
203851
205122
203245
209254
208898
212155
215543
220199
224680
237084
243701
246655
245067
242753
239657
239410
236460
242595
301022
300342
294906
280299
262485
253394
270548
295854
306773
291300
277121
271620
263918
264271
260551
293450
266806
282090
254333
244893
249673
254771
253859
250460
242219
238026
233362
228002
230310
224788
150954
151483
150726
150790
152522
150016
158438
158272
164894
175452
178228
187926
191668
195709
198036
198609
198303
199661
200347
203947
204345
208421
209757
211678
211414
212443
208917
203116
202277
190764
135059
135688
136195
136827
137484
137954
138243
138429
138230
137954
137400
136547
135567
134608
132514
132841
130212
130831
129026
128083
128329
125661
126663
123722
124427
121947
122132
121584
120794
120865
106388
106409
106240
106301
105961
105983
105535
105610
105087
105195
104578
104760
104135
104232
103860
103602
103626
103205
103289
102910
102987
102663
102750
102466
102565
102337
102404
102268
102293
102249
101443
101446
101437
101445
101428
101429
101412
101411
101401
101388
101391
101372
101378
101360
101365
101351
101354
101346
101343
101340
101337
101335
101332
101331
101328
101328
101326
101326
101325
101325
101321
101322
101321
101322
101322
101323
101322
101324
101323
101324
101323
101324
101324
101324
101324
101324
101324
101324
101323
101324
101323
101324
101323
101323
101322
101323
101322
101322
101321
101321
101321
101322
101321
101323
101322
101323
101322
101323
101323
101324
101323
101324
101324
101324
101324
101324
101324
101324
101323
101324
101323
101324
101323
101323
101322
101323
101322
101322
101321
101321
101321
101321
101322
101322
101323
101322
101323
101322
101324
101323
101324
101323
101324
101324
101324
101324
101324
101323
101324
101323
101323
101323
101322
101323
101322
101323
101321
101322
101321
101322
101321
101322
101321
101323
101322
101323
101322
101323
101323
101324
101323
101324
101323
101324
101324
101324
101324
101324
101323
101324
101323
101324
101323
101323
101322
101323
101322
101322
101321
101321
101321
101321
101321
101322
101321
101323
101322
101323
101322
101324
101323
101324
101323
101324
101324
101324
101324
101324
101324
101323
101324
101323
101323
101322
101323
101322
101322
101321
101321
101321
101320
101321
101320
101322
101321
101322
101321
101323
101322
101324
101323
101325
101324
101325
101324
101325
101325
101325
101325
101325
101324
101325
101323
101324
101323
101324
101322
101323
101322
101322
197886
196728
198780
200461
196187
199049
204415
195643
200513
193566
190663
186686
187658
190456
214561
214090
209894
199810
203897
211429
211907
211172
211864
212598
212043
210039
207113
207959
206588
206018
206587
211859
212878
217973
221621
223863
230787
237898
240131
239792
235140
229429
229664
229207
289807
286633
280843
268224
253297
251966
286618
304494
269424
250217
272348
278435
270325
261083
310931
291248
303596
289250
281979
264652
252692
253873
253805
253818
242303
240871
226949
230669
223329
224376
150050
149026
149321
149532
147849
150176
152792
152083
164002
167004
180026
185638
194842
200687
202463
204090
203507
202919
202319
204886
206369
208899
210954
210792
210941
206799
202838
204622
200706
196831
134800
135467
135799
136666
137336
137830
138064
138078
137918
137694
137041
137022
135207
135697
132911
132946
131030
130237
129733
127471
128357
125392
126301
123437
124285
121946
122057
121230
120811
120683
106884
106707
106752
106288
106359
105864
105887
105416
105421
104939
104935
104449
104494
103952
104099
103518
103712
103167
103351
102870
103043
102624
102782
102443
102560
102327
102395
102254
102295
102221
101477
101459
101467
101441
101445
101426
101428
101408
101411
101390
101393
101378
101379
101364
101368
101354
101359
101349
101352
101345
101346
101341
101341
101337
101338
101335
101336
101333
101334
101333
101330
101330
101331
101329
101331
101330
101331
101330
101331
101330
101332
101331
101332
101331
101332
101331
101332
101331
101332
101330
101332
101330
101331
101330
101331
101329
101331
101329
101330
101330
101330
101329
101331
101329
101331
101330
101331
101330
101331
101330
101332
101331
101332
101331
101332
101331
101332
101331
101332
101330
101332
101330
101331
101330
101331
101329
101331
101329
101330
101330
101330
101330
101329
101331
101329
101331
101330
101331
101330
101332
101330
101332
101331
101332
101331
101332
101331
101332
101331
101331
101331
101330
101331
101330
101331
101329
101331
101329
101330
101330
101330
101329
101331
101329
101331
101330
101331
101330
101331
101330
101332
101330
101332
101331
101332
101331
101332
101331
101332
101330
101332
101330
101331
101330
101331
101329
101331
101329
101330
101330
101329
101330
101330
101329
101330
101329
101331
101330
101331
101330
101332
101330
101332
101331
101332
101332
101331
101332
101331
101332
101330
101331
101330
101331
101330
101331
101329
101330
101330
101330
101329
101328
101330
101328
101330
101329
101330
101329
101331
101330
101332
101331
101332
101331
101333
101332
101333
101332
101333
101331
101333
101331
101332
101331
101332
101330
101331
101330
101331
101330
196805
196994
197588
201670
198149
200340
202027
202101
200586
199221
195023
191306
189244
189642
203579
203464
204925
199170
200456
206746
208376
211061
212978
215111
214565
212242
209250
207347
205779
208610
206724
211832
217361
219614
223562
229053
235006
238052
239097
233481
230148
227749
219979
213203
279273
278773
272228
255885
251486
257741
283104
320660
281554
284560
278350
268735
267877
275448
257848
326913
265220
226382
302377
277750
255895
254349
254494
254759
248591
236715
225954
225058
223712
224552
151665
148604
147090
145215
146156
143568
142431
148261
153719
157444
177098
182250
196009
200638
206491
208580
208244
207551
206889
206768
208054
207866
208385
208090
203866
201132
203775
200343
203652
201041
134561
134151
135783
136097
137273
137868
138163
137811
138015
137301
137156
136758
135548
135464
133869
132405
132160
129495
130328
127147
128230
125219
126148
123368
124272
121808
122429
120664
121430
120149
106602
106894
106447
106722
106137
106288
105736
105777
105245
105250
104762
104687
104402
104084
104023
103620
103645
103238
103299
102924
103007
102666
102760
102476
102552
102337
102398
102232
102308
102199
101450
101458
101447
101469
101438
101446
101420
101423
101401
101398
101393
101375
101380
101362
101366
101354
101354
101348
101345
101344
101339
101339
101334
101336
101330
101333
101328
101331
101327
101329
101325
101325
101324
101326
101324
101327
101324
101327
101325
101328
101325
101328
101326
101328
101326
101328
101326
101328
101325
101328
101325
101327
101325
101327
101324
101327
101324
101326
101324
101325
101324
101326
101323
101326
101324
101327
101324
101327
101325
101328
101325
101328
101326
101328
101326
101328
101326
101328
101325
101328
101325
101327
101325
101327
101324
101327
101324
101326
101324
101325
101325
101324
101326
101324
101327
101324
101327
101325
101327
101325
101328
101325
101328
101326
101328
101326
101328
101325
101328
101325
101325
101327
101324
101327
101324
101327
101324
101326
101324
101325
101324
101325
101323
101326
101324
101327
101324
101327
101325
101328
101325
101328
101325
101328
101326
101328
101326
101328
101325
101328
101325
101327
101325
101327
101324
101327
101324
101326
101324
101325
101324
101324
101324
101326
101323
101327
101324
101327
101324
101327
101325
101328
101325
101328
101326
101326
101328
101326
101328
101325
101328
101325
101327
101324
101327
101324
101326
101324
101324
101324
101323
101324
101322
101325
101323
101326
101323
101327
101324
101328
101325
101328
101326
101329
101326
101329
101327
101329
101326
101329
101326
101328
101325
101328
101325
101327
101324
101326
101325
101325
201383
201546
202366
200417
203646
201437
202745
199728
199662
200888
199947
195770
193215
191606
188639
198084
204360
204625
206706
203231
209654
209745
214207
216493
216187
213134
211040
208074
207339
208139
208606
211507
215103
217236
219846
222318
226522
228088
230283
225217
222873
216557
213135
218583
260755
255500
254282
250556
245898
257447
311625
303549
315585
276959
286937
270158
265444
269487
275782
259194
276259
261312
263227
489838
256872
251215
257631
264122
254458
238441
220957
226962
222902
224585
145738
150852
149067
142511
143264
138796
140088
139739
147824
151673
169363
179257
192557
201959
209173
212301
214355
213278
210918
208937
207275
206275
204641
200863
199102
201168
197182
202206
202336
207740
132806
132869
134711
135246
136897
137960
138235
138651
137783
137877
136804
136980
135587
136104
133767
133352
132492
129709
130097
127311
127869
125046
126077
123241
124309
121544
122697
120415
121405
120142
107500
107171
107376
106679
106880
106195
106289
105621
105720
105029
105168
104489
104667
103984
104207
103546
103788
103177
103421
102875
103100
102631
102830
102443
102613
102299
102444
102200
102309
102189
101522
101498
101507
101462
101473
101439
101445
101418
101421
101397
101400
101385
101374
101375
101361
101363
101351
101353
101344
101346
101339
101341
101335
101336
101331
101333
101329
101329
101328
101328
101325
101324
101325
101324
101325
101325
101326
101325
101326
101326
101327
101326
101327
101326
101327
101326
101327
101326
101327
101326
101326
101325
101326
101325
101325
101324
101325
101324
101324
101324
101324
101324
101325
101324
101325
101325
101326
101325
101326
101325
101327
101326
101327
101326
101327
101326
101327
101326
101327
101326
101326
101325
101326
101325
101325
101324
101325
101324
101324
101324
101324
101325
101324
101325
101324
101325
101325
101326
101325
101326
101326
101327
101326
101327
101326
101327
101326
101327
101326
101327
101326
101325
101326
101325
101325
101324
101325
101324
101324
101324
101324
101324
101325
101324
101325
101324
101326
101325
101326
101325
101327
101326
101327
101326
101327
101326
101327
101326
101327
101326
101326
101325
101326
101325
101325
101324
101325
101324
101325
101324
101324
101324
101324
101324
101325
101324
101325
101325
101326
101325
101326
101326
101327
101326
101327
101327
101326
101327
101326
101327
101326
101326
101325
101326
101325
101325
101324
101325
101324
101325
101323
101323
101324
101323
101325
101324
101325
101325
101326
101326
101327
101326
101327
101327
101328
101327
101328
101327
101328
101327
101327
101326
101327
101325
101326
101325
101325
101324
101325
101324
200383
200423
200760
201496
202448
205330
202249
203395
202533
201241
201034
200290
196451
196140
187860
200168
202346
206214
204303
204988
209122
209809
214416
216516
216287
213220
211294
208618
209345
209256
211891
211702
216068
215533
221160
222225
227597
227274
227203
219159
216737
215368
214581
206703
255004
256676
249257
244974
248300
255322
285717
312047
294556
294614
281831
276608
274986
269372
271097
280004
272572
283228
267580
259439
259072
258918
281222
266736
266500
250808
229614
219621
222095
225098
158162
148578
145347
148702
137382
141956
136380
141577
134031
154978
161328
178626
190141
201329
209241
215381
217254
216849
214505
210884
205731
202732
197608
195300
197467
193766
197528
200030
204356
208326
132966
131262
132137
133902
136706
137380
138765
138532
138888
137693
137700
136432
136260
135217
134984
132726
132469
130974
128672
128765
126629
125825
125244
123817
123628
121943
122059
120731
120677
120391
107272
107795
107065
107487
106687
106867
106151
106200
105543
105554
104961
104951
104476
104329
104072
103771
103697
103315
103377
102956
103071
102687
102803
102466
102594
102292
102422
102212
102269
102162
101490
101523
101486
101513
101469
101477
101439
101446
101414
101420
101395
101391
101385
101372
101371
101360
101359
101350
101350
101343
101343
101338
101337
101334
101334
101332
101330
101330
101329
101329
101325
101325
101325
101325
101325
101326
101325
101326
101326
101327
101326
101327
101327
101327
101327
101327
101327
101327
101326
101327
101326
101326
101325
101326
101325
101325
101325
101325
101325
101325
101325
101325
101325
101325
101325
101326
101325
101326
101326
101327
101326
101327
101327
101327
101327
101327
101327
101327
101326
101327
101326
101326
101325
101326
101325
101325
101325
101325
101325
101325
101325
101325
101325
101325
101325
101325
101326
101325
101326
101326
101327
101326
101327
101327
101327
101327
101327
101327
101327
101326
101326
101326
101325
101326
101325
101325
101325
101325
101324
101325
101325
101325
101325
101325
101325
101326
101325
101326
101326
101326
101326
101327
101326
101327
101327
101327
101327
101327
101326
101327
101326
101326
101325
101326
101325
101325
101325
101325
101325
101325
101325
101324
101325
101325
101325
101325
101325
101326
101325
101326
101326
101327
101327
101327
101327
101327
101327
101327
101327
101326
101327
101326
101326
101325
101326
101325
101325
101325
101325
101325
101324
101324
101324
101324
101324
101325
101325
101326
101325
101327
101326
101327
101327
101328
101327
101328
101328
101328
101327
101328
101327
101327
101326
101327
101325
101326
101325
101325
101325
101325
205688
206246
206920
206708
205818
206376
203887
204189
203697
202764
201619
199992
200201
197894
197255
197891
203613
204376
205486
203635
209282
210126
214144
215636
214560
213101
210071
208928
208108
211211
211706
215126
215139
218999
221117
223757
224378
226027
220257
219459
210762
211145
204898
211555
231043
231285
239612
247662
242083
266326
310225
283579
297673
297968
287877
287309
281627
280323
276955
276866
280851
274212
278017
258944
260111
299602
290198
299868
273536
267025
244116
227908
220492
224703
154906
158356
157121
147402
151941
135869
131974
131008
139642
156264
162253
179354
190260
200182
208297
214728
218013
217936
215753
210706
202950
201609
194548
195366
190444
194149
194489
198122
201545
206955
130674
130867
130123
134032
135600
138493
139437
139931
138874
138884
137345
137462
135747
135931
134146
134130
131247
132207
128163
129343
126257
126564
124303
124556
122731
122418
121315
120655
120076
120039
108373
108078
108430
107315
107667
106679
106893
105970
106175
105307
105509
104700
104902
104164
104367
103680
103895
103267
103487
102946
103144
102675
102867
102455
102624
102288
102427
102191
102275
102142
101600
101546
101561
101505
101513
101472
101475
101441
101441
101416
101408
101398
101383
101386
101365
101371
101354
101357
101348
101343
101342
101339
101337
101334
101334
101331
101331
101328
101329
101328
101324
101324
101324
101324
101325
101324
101325
101325
101325
101325
101326
101325
101326
101326
101326
101326
101326
101326
101326
101325
101326
101325
101325
101324
101325
101324
101324
101324
101324
101324
101324
101324
101324
101324
101324
101324
101325
101324
101325
101325
101326
101325
101326
101326
101326
101326
101326
101326
101326
101325
101326
101325
101325
101324
101325
101324
101324
101324
101324
101324
101324
101324
101324
101324
101324
101325
101324
101325
101325
101326
101325
101326
101326
101326
101326
101326
101326
101326
101325
101326
101325
101325
101325
101324
101325
101324
101324
101324
101324
101324
101324
101324
101324
101324
101324
101324
101325
101324
101325
101325
101326
101325
101326
101326
101326
101326
101326
101326
101326
101325
101326
101325
101325
101324
101325
101324
101324
101324
101324
101324
101324
101323
101324
101323
101324
101324
101325
101324
101325
101325
101326
101325
101326
101326
101326
101326
101326
101326
101326
101326
101325
101326
101325
101325
101324
101324
101324
101324
101324
101324
101323
101323
101323
101323
101324
101323
101325
101324
101325
101325
101326
101326
101327
101326
101327
101327
101327
101327
101327
101326
101326
101325
101326
101325
101325
101324
101324
101323
101324
101323
204893
205127
205641
206311
206233
206074
205757
203897
204419
203498
201086
199775
197699
197478
199979
200826
201950
204093
203721
206554
208683
210645
213136
214328
213954
210947
208924
207593
209773
207831
214687
214207
218615
221271
223925
224005
224109
220517
221436
215140
217333
209488
205987
206101
239353
242170
242760
238642
256257
300928
278886
318665
285703
288377
293494
290895
289346
278280
281391
280308
278179
278497
259889
259306
262000
257928
287943
250422
266680
274506
263810
241732
230732
219124
169462
166243
164425
163930
152082
157844
151203
153904
143028
169358
169190
183997
190724
198471
205124
210928
215248
216987
214049
210204
201775
201751
189855
190507
191402
189944
192961
197065
201230
205905
124264
128401
127101
137060
135256
140334
139775
139700
139961
138507
138475
136984
136593
135407
134826
133473
131530
131734
128272
129620
125768
127235
123868
124831
122043
123167
120499
121551
119298
120407
105887
108622
107492
108541
107234
107579
106538
106656
105842
105851
105237
105137
104714
104473
104243
103890
103863
103385
103489
102987
103174
102704
102871
102492
102599
102319
102414
102190
102270
102117
101529
101603
101516
101559
101499
101511
101466
101469
101434
101437
101406
101412
101385
101390
101371
101370
101361
101357
101349
101350
101340
101343
101336
101338
101333
101334
101330
101331
101329
101329
101325
101325
101325
101325
101325
101325
101325
101326
101326
101326
101326
101326
101326
101327
101327
101327
101326
101327
101326
101326
101326
101326
101325
101325
101325
101325
101325
101325
101325
101324
101325
101325
101324
101325
101325
101325
101325
101326
101326
101326
101326
101326
101326
101327
101326
101327
101326
101326
101326
101326
101326
101326
101325
101325
101325
101325
101325
101325
101325
101325
101325
101325
101325
101325
101325
101325
101326
101325
101326
101326
101326
101326
101327
101326
101327
101327
101327
101326
101326
101326
101326
101326
101325
101325
101325
101325
101325
101325
101324
101324
101324
101325
101324
101325
101325
101325
101325
101326
101325
101326
101326
101326
101326
101327
101326
101327
101326
101326
101326
101326
101326
101326
101325
101325
101325
101325
101325
101325
101325
101325
101324
101324
101324
101325
101324
101325
101325
101326
101326
101326
101326
101326
101327
101327
101327
101327
101327
101327
101327
101326
101326
101326
101326
101325
101325
101325
101325
101324
101324
101324
101324
101324
101324
101324
101324
101325
101325
101326
101326
101326
101326
101327
101327
101327
101327
101327
101327
101327
101327
101327
101326
101327
101326
101326
101325
101325
101324
101324
101324
101324
210653
211213
211089
210166
209555
208582
206270
206323
203959
204004
202296
199600
193673
194254
199024
197215
200423
203271
201965
204351
204779
206114
207107
210245
212219
213618
212650
209583
207246
206603
206544
208526
212072
217308
221637
225018
227176
226692
224428
223237
220951
219254
213980
215844
206184
214030
214851
222295
226338
228618
236509
244891
246260
258267
310010
259636
274336
283226
282817
287080
278258
280016
280862
277584
272618
268100
257785
254853
250978
254787
263473
237090
243416
254966
263161
246859
227851
203279
141340
167185
162753
168984
167311
159345
165849
150579
158090
152434
167735
169366
179216
185341
193482
196096
201477
205641
210586
212789
212768
209198
201037
201299
189713
192051
188670
188031
186524
188216
185815
168820
118513
133311
138350
131352
133744
134498
142294
140409
142811
140874
139730
139646
137677
137867
135853
136121
133784
134270
131222
132048
128281
129564
125712
127147
123530
124953
121636
122821
119979
119961
118047
115431
112708
111789
111390
109930
110340
108492
109034
107275
107754
106384
106720
105583
105854
104903
105146
104310
104566
103797
104057
103396
103550
103076
103145
102784
102836
102530
102604
102308
102418
102155
102179
102039
101977
101806
101807
101628
101666
101554
101567
101498
101514
101451
101470
101426
101416
101413
101390
101392
101373
101375
101358
101363
101347
101352
101342
101341
101337
101335
101334
101331
101331
101328
101328
101327
101327
101325
101325
101324
101324
101324
101324
101324
101325
101324
101325
101325
101325
101325
101325
101325
101325
101325
101325
101325
101325
101325
101325
101324
101325
101324
101324
101324
101324
101323
101323
101323
101323
101323
101323
101323
101323
101323
101324
101324
101324
101324
101325
101325
101325
101325
101325
101325
101325
101325
101325
101325
101325
101325
101325
101325
101325
101324
101324
101324
101324
101323
101323
101323
101323
101323
101323
101323
101323
101324
101324
101324
101324
101325
101325
101325
101325
101325
101325
101325
101325
101325
101325
101325
101325
101325
101325
101325
101325
101324
101324
101323
101324
101323
101323
101323
101323
101323
101323
101323
101323
101323
101324
101324
101324
101324
101325
101325
101325
101325
101325
101325
101325
101325
101325
101325
101325
101325
101325
101325
101325
101324
101324
101324
101324
101323
101323
101323
101323
101323
101323
101323
101323
101323
101324
101324
101324
101324
101325
101325
101325
101325
101325
101325
101326
101326
101326
101325
101325
101325
101325
101325
101324
101324
101324
101324
101323
101323
101323
101323
101323
101323
101323
101322
101323
101323
101323
101323
101324
101324
101325
101325
101326
101325
101326
101326
101326
101326
101326
101326
101326
101326
101326
101325
101325
101324
101324
101323
101324
101323
101323
101322
101322
101322
209758
209929
210337
210691
210224
209443
207936
206122
205939
203100
201873
200996
196943
199874
197415
199894
203071
204853
205632
205421
205724
205392
205835
209040
211997
213208
212597
208406
206410
205216
205310
210808
211776
218072
224100
227022
228576
227925
224877
222330
222270
220282
216267
213713
209468
216463
220252
223776
231543
233347
240465
247756
250430
258315
250315
262994
267115
276784
284765
274024
273555
276109
270724
268462
271055
263059
254314
254162
255740
254095
253509
256370
242958
225888
240259
242172
228527
216556
172113
167653
175619
168152
172225
173684
169293
173372
164482
168519
164616
181328
182165
190983
193325
195879
196943
200920
204990
209498
211023
207359
201526
201421
188536
193201
184840
187894
187915
183732
180016
171756
144454
145887
135534
143965
142335
145322
143606
145561
142799
143126
140142
139136
138720
136834
137046
135185
134263
134038
131593
131813
128574
129446
125753
127111
123526
124721
121657
122498
119403
120410
116730
117832
111978
114227
109655
111166
109626
108980
108839
107559
107770
106680
106614
105841
105707
105158
105015
104502
104438
103924
103979
103418
103604
103048
103231
102754
102912
102506
102653
102298
102422
102129
102219
101981
102028
101783
101819
101646
101679
101559
101595
101500
101523
101464
101469
101432
101437
101402
101413
101381
101389
101368
101369
101358
101352
101353
101342
101345
101336
101339
101333
101335
101330
101331
101328
101329
101327
101327
101325
101326
101325
101325
101325
101325
101325
101325
101325
101326
101326
101326
101326
101326
101326
101326
101326
101326
101326
101326
101326
101325
101325
101325
101325
101324
101324
101324
101324
101324
101324
101324
101324
101324
101324
101324
101324
101325
101325
101325
101325
101326
101326
101326
101326
101326
101326
101326
101326
101326
101326
101326
101326
101325
101325
101325
101325
101324
101324
101324
101324
101324
101324
101324
101324
101324
101324
101324
101325
101325
101325
101325
101325
101326
101326
101326
101326
101326
101326
101326
101326
101326
101326
101326
101326
101325
101325
101325
101325
101324
101324
101324
101324
101324
101324
101324
101324
101324
101324
101324
101324
101325
101325
101325
101325
101326
101326
101326
101326
101326
101326
101326
101326
101326
101326
101326
101326
101325
101325
101325
101325
101325
101324
101324
101324
101324
101324
101324
101324
101324
101324
101324
101324
101325
101325
101325
101325
101326
101326
101326
101326
101326
101326
101326
101326
101326
101326
101326
101326
101326
101325
101325
101325
101324
101324
101324
101324
101324
101324
101323
101323
101323
101324
101324
101324
101324
101325
101325
101325
101326
101326
101326
101327
101327
101327
101327
101327
101327
101327
101326
101326
101326
101325
101325
101325
101324
101324
101323
101323
101323
101323
101322
214294
214376
214024
213320
211961
210491
208900
207198
205316
205074
201408
202008
198965
198600
198993
201879
202058
206172
205610
205894
205043
205007
206944
207379
211845
213492
212934
208428
207351
204105
205821
211469
212723
219501
223299
227504
229205
228802
226796
225473
222937
223462
221780
218597
221575
229168
230746
232896
244284
246562
254517
256101
251543
254469
243448
260653
270064
266651
263134
269144
269945
261584
265049
270487
263569
256780
256587
247618
247595
255639
254976
254194
238631
241689
237993
234565
219710
212649
192315
189163
174686
179550
174907
171461
172153
168361
176969
174467
181603
179924
190893
190939
195654
194293
195785
197723
200954
206571
208130
207185
202381
200725
189501
192584
184421
185147
180683
181222
175124
172175
157622
155736
151037
142619
146888
145516
147522
145334
145827
142046
142191
139556
137564
138017
135721
136066
133736
134334
131244
132207
128587
129658
125796
127143
123413
124741
121322
122493
119277
119990
116817
117386
112871
114587
110391
112020
109469
110023
108421
108209
107864
106640
106979
105798
106062
104987
105341
104388
104683
103877
104120
103462
103609
103111
103221
102802
102894
102539
102633
102316
102413
102132
102207
101979
102028
101793
101833
101673
101694
101585
101598
101527
101526
101483
101476
101439
101445
101404
101415
101386
101390
101369
101373
101358
101357
101350
101347
101343
101338
101337
101333
101333
101330
101330
101327
101326
101326
101325
101325
101324
101324
101324
101324
101324
101324
101324
101324
101324
101325
101325
101325
101325
101325
101325
101325
101325
101325
101325
101324
101324
101324
101324
101323
101323
101323
101323
101323
101323
101322
101323
101323
101323
101323
101323
101323
101323
101324
101324
101324
101324
101324
101325
101325
101325
101325
101325
101325
101325
101325
101325
101324
101324
101324
101324
101324
101323
101323
101323
101323
101323
101322
101322
101323
101323
101323
101323
101323
101324
101324
101324
101324
101324
101325
101325
101325
101325
101325
101325
101325
101325
101325
101325
101324
101324
101324
101324
101324
101323
101323
101323
101323
101323
101322
101322
101323
101323
101323
101323
101323
101323
101324
101324
101324
101324
101325
101325
101325
101325
101325
101325
101325
101325
101325
101325
101324
101324
101324
101324
101324
101323
101323
101323
101323
101323
101323
101322
101323
101323
101323
101323
101323
101323
101324
101324
101324
101324
101325
101325
101325
101325
101325
101325
101325
101325
101325
101325
101325
101324
101324
101324
101324
101323
101323
101323
101322
101323
101322
101322
101322
101322