/*--------------------------------*- C++ -*----------------------------------*\
| =========                 |                                                 |
| \\      /  F ield         | OpenFOAM: The Open Source CFD Toolbox           |
|  \\    /   O peration     | Version:  2.1.1                                 |
|   \\  /    A nd           | Web:      www.OpenFOAM.org                      |
|    \\/     M anipulation  |                                                 |
\*---------------------------------------------------------------------------*/
FoamFile
{
    version     2.0;
    format      ascii;
    class       volScalarField;
    location    "0.002100000";
    object      rhoUnburned;
}
// * * * * * * * * * * * * * * * * * * * * * * * * * * * * * * * * * * * * * //

dimensions      [1 -3 0 0 0 0 0];

internalField   nonuniform List<scalar> 
12384
(
1.87461
1.85346
1.87407
1.8601
1.89924
1.90257
1.92417
1.44005
1.4486
1.39835
1.3663
1.35163
1.35529
1.3768
1.64615
1.69471
1.7064
1.70699
1.71867
1.69887
1.91099
1.94696
1.95785
1.91546
1.92092
1.8838
1.8503
1.80696
1.75308
1.68297
1.67095
1.65441
1.65625
1.68945
1.75283
1.81909
1.8282
1.77883
1.71229
1.67874
1.64411
1.62715
1.6388
1.62204
1.9593
2.0358
2.07967
2.03615
1.87521
1.73854
1.69219
1.86141
1.98746
2.08326
2.09177
2.05458
1.96952
1.88624
1.86402
1.82018
1.83129
1.73146
1.74509
1.79557
1.85636
1.85461
1.82163
1.73
1.69754
1.61111
1.56461
1.57096
1.52754
1.52848
1.17908
1.18984
1.22087
1.22966
1.27497
1.26545
1.28387
1.37301
1.34173
1.44273
1.429
1.51101
1.49545
1.52619
1.51846
1.51297
1.49671
1.48792
1.4629
1.46425
1.45683
1.45509
1.46086
1.46721
1.47424
1.47377
1.46963
1.44924
1.36141
1.39099
1.08157
1.09196
1.09484
1.0981
1.1011
1.10296
1.10317
1.10055
1.09697
1.09083
1.08435
1.07366
1.07034
1.05543
1.05004
1.04739
1.03649
1.03825
1.02707
1.03
1.01819
1.01159
1.01529
0.995324
1.00453
0.984916
0.991211
0.984303
0.981505
0.982317
0.896213
0.895831
0.895768
0.894164
0.893971
0.892354
0.890924
0.890756
0.887984
0.888454
0.884881
0.885957
0.881938
0.883562
0.879681
0.879893
0.879275
0.876607
0.877564
0.874861
0.875776
0.873422
0.874223
0.872317
0.872968
0.87155
0.872036
0.871119
0.87141
0.870781
0.865925
0.866206
0.866216
0.866103
0.866135
0.866023
0.86607
0.865966
0.866009
0.865901
0.865941
0.865851
0.865895
0.865828
0.865869
0.865792
0.865809
0.865724
0.865714
0.865651
0.865651
0.865595
0.865598
0.865556
0.865555
0.865519
0.865522
0.865497
0.865488
0.865157
0.86514
0.865463
0.865479
0.865495
0.8655
0.865517
0.865526
0.86554
0.865548
0.865559
0.865568
0.865584
0.865605
0.865626
0.865638
0.865639
0.865625
0.865607
0.86558
0.865571
0.86556
0.865548
0.865537
0.865528
0.865514
0.865504
0.865493
0.865482
0.865465
0.865146
0.865141
0.865463
0.865477
0.865491
0.865497
0.865514
0.865522
0.865536
0.865541
0.865555
0.865563
0.86558
0.865606
0.865625
0.865638
0.865638
0.865625
0.865607
0.865582
0.865571
0.865559
0.865547
0.865536
0.865527
0.865513
0.8655
0.865492
0.865482
0.865465
0.865146
0.865143
0.865458
0.865481
0.865494
0.865501
0.865516
0.86553
0.865535
0.865549
0.865559
0.86557
0.865581
0.865604
0.865622
0.865635
0.865638
0.865629
0.865608
0.86558
0.865562
0.865555
0.865544
0.865528
0.86552
0.865508
0.865494
0.865486
0.865477
0.865458
0.86514
0.865144
0.865465
0.86548
0.865494
0.865499
0.865516
0.865523
0.865538
0.865542
0.865557
0.865565
0.86558
0.865602
0.865622
0.865636
0.865639
0.865626
0.865607
0.86558
0.86557
0.865558
0.865546
0.865536
0.865526
0.865512
0.865499
0.865492
0.865482
0.865464
0.865142
0.86514
0.865461
0.865481
0.865492
0.86549
0.865511
0.865518
0.865531
0.865543
0.865557
0.865566
0.865584
0.865602
0.865625
0.865638
0.865635
0.865627
0.865606
0.865582
0.865565
0.865561
0.865544
0.865535
0.865521
0.865515
0.865499
0.865495
0.86548
0.865465
0.865144
0.865138
0.865462
0.865473
0.865491
0.865495
0.865513
0.865519
0.865535
0.865541
0.865555
0.865562
0.865582
0.865601
0.865625
0.865634
0.865642
0.865628
0.865613
0.865595
0.865583
0.865566
0.865556
0.865537
0.865532
0.865516
0.865504
0.865493
0.86549
0.865469
0.865144
1.87132
1.89508
1.89958
1.95271
1.96947
1.87266
1.91737
1.58851
1.54916
1.52748
1.47807
1.41584
1.40253
1.38545
1.70513
1.7519
1.75257
1.87844
2.15149
2.18987
2.18963
2.16721
2.15471
2.15973
2.15225
2.13651
2.09191
2.11019
2.09558
2.16382
2.17238
2.09107
2.06904
1.9168
1.83623
1.86753
1.90487
1.92631
1.87123
1.82545
1.70188
1.62929
1.57905
1.60696
2.00619
2.08582
2.02216
1.87418
1.72865
1.65697
1.75729
1.94932
2.20555
2.60457
2.71407
2.64314
2.5309
2.30958
1.98813
1.82991
1.63473
1.6736
1.61909
1.68095
1.84357
1.98403
1.98568
1.95433
1.84667
1.76372
1.66357
1.56952
1.55351
1.52421
1.23643
1.29202
1.32151
1.33676
1.34699
1.33086
1.35593
1.32417
1.33731
1.38288
1.41701
1.48059
1.55464
1.62249
1.66971
1.68819
1.68579
1.68835
1.68143
1.68363
1.66158
1.65776
1.62676
1.59372
1.54628
1.50994
1.46836
1.42906
1.42356
1.3616
1.2319
1.25326
1.25705
1.26098
1.26485
1.26508
1.26073
1.254
1.24173
1.22793
1.212
1.19143
1.17493
1.15356
1.13359
1.12267
1.10167
1.09348
1.0792
1.06318
1.0619
1.03774
1.04152
1.01775
1.02013
1.00232
1.00221
0.998449
0.993512
0.987014
0.931767
0.936106
0.935154
0.933097
0.92827
0.925679
0.920627
0.918913
0.913854
0.9131
0.907938
0.908336
0.903648
0.90403
0.901323
0.899231
0.898777
0.895381
0.895373
0.892499
0.892672
0.890222
0.890575
0.888389
0.888891
0.887083
0.887472
0.88649
0.886402
0.87725
0.872757
0.882226
0.882426
0.882716
0.882684
0.882767
0.883045
0.883107
0.883421
0.883428
0.883827
0.883803
0.884316
0.884441
0.884835
0.884718
0.884694
0.884136
0.883806
0.883348
0.883186
0.882778
0.882719
0.882385
0.882335
0.882019
0.882015
0.881749
0.881446
0.871466
0.871442
0.881489
0.88196
0.882037
0.88235
0.882397
0.882751
0.882805
0.883135
0.88319
0.883527
0.883609
0.88408
0.884333
0.884681
0.884582
0.884465
0.883977
0.883751
0.883396
0.88332
0.882966
0.882911
0.882563
0.882485
0.882162
0.882087
0.881867
0.881368
0.871777
0.871753
0.881286
0.881865
0.881922
0.882237
0.882286
0.88263
0.882678
0.883009
0.883073
0.883421
0.88354
0.884034
0.884325
0.884675
0.884569
0.884454
0.883983
0.883759
0.883404
0.883324
0.882966
0.882907
0.882557
0.882478
0.882155
0.882081
0.881865
0.881362
0.871779
0.871784
0.881374
0.881847
0.882149
0.882208
0.882534
0.8826
0.882935
0.882976
0.883304
0.88336
0.883697
0.883885
0.884364
0.884498
0.884683
0.884409
0.884115
0.883566
0.883305
0.883131
0.882774
0.882698
0.882364
0.882319
0.882005
0.881998
0.881719
0.881425
0.87144
0.871798
0.881322
0.881902
0.881962
0.882272
0.88232
0.882663
0.882715
0.883045
0.883102
0.883442
0.883547
0.884019
0.884297
0.884658
0.884584
0.884483
0.884008
0.883769
0.883405
0.883323
0.882958
0.882895
0.882543
0.882461
0.882137
0.882064
0.881867
0.881357
0.871773
0.871419
0.88146
0.881872
0.88194
0.882234
0.882292
0.882663
0.882734
0.883091
0.883171
0.883535
0.883633
0.884096
0.884337
0.884644
0.884645
0.884363
0.884089
0.883616
0.883513
0.883159
0.883092
0.882746
0.882686
0.882332
0.882289
0.881978
0.88191
0.881476
0.871427
0.871757
0.881336
0.881944
0.882
0.88234
0.882377
0.882736
0.882765
0.883105
0.883124
0.883477
0.883552
0.883994
0.884248
0.884633
0.884591
0.884495
0.884033
0.88379
0.883436
0.883356
0.882987
0.882927
0.882565
0.88249
0.882156
0.882073
0.881876
0.881362
0.871778
1.92429
1.97321
2.04074
2.09157
2.07026
2.08177
2.13418
1.929
1.88407
1.69977
1.60799
1.54289
1.50353
1.44766
1.73205
1.84661
2.16447
2.05049
2.17327
2.17189
2.13056
2.11645
2.12387
2.05511
2.14145
2.13738
2.11635
2.13363
2.14107
2.15254
2.15231
2.21305
2.23444
2.32455
2.36671
2.03944
1.98065
1.99456
1.9432
1.92631
1.84588
1.68718
1.57209
1.54364
2.02391
2.03772
1.88923
1.74111
1.65334
1.68234
1.93491
2.36755
2.80083
2.58625
2.79986
2.86679
2.77748
2.65783
3.1001
2.82672
2.47383
1.99844
1.62207
1.49189
1.51221
1.70814
1.91153
2.01664
1.96054
1.94459
1.79811
1.68342
1.55161
1.52683
1.34108
1.37233
1.35499
1.29687
1.22098
1.15493
1.11795
1.07769
1.12887
1.12507
1.18565
1.20464
1.27144
1.35829
1.48474
1.60262
1.67708
1.71679
1.73669
1.76522
1.78517
1.80402
1.81995
1.81788
1.8059
1.74691
1.65722
1.59803
1.52654
1.47773
1.3216
1.31267
1.31051
1.31581
1.32206
1.32883
1.3342
1.33735
1.33815
1.33879
1.33465
1.33562
1.3222
1.326
1.30473
1.30595
1.29006
1.28696
1.28057
1.26807
1.27116
1.25239
1.25589
1.23601
1.23854
1.21892
1.21497
1.20496
1.19789
1.20363
1.12696
1.11787
1.11488
1.11322
1.11178
1.10954
1.10786
1.10566
1.1038
1.10144
1.09949
1.09691
1.09525
1.0919
1.09149
1.08801
1.0888
1.08578
1.08689
1.08391
1.08498
1.08227
1.08334
1.0811
1.08199
1.08039
1.08096
1.07989
1.08038
1.09162
1.08616
1.07386
1.07339
1.07287
1.07284
1.07238
1.07211
1.07164
1.07141
1.07094
1.0707
1.07028
1.06988
1.0693
1.06904
1.06882
1.06903
1.06941
1.06994
1.07024
1.07055
1.0708
1.071
1.07117
1.07135
1.0715
1.07164
1.07184
1.07243
1.08503
1.08499
1.07224
1.07169
1.07142
1.07123
1.07103
1.07082
1.07062
1.07043
1.07022
1.07001
1.06975
1.06934
1.06888
1.06862
1.06858
1.06888
1.06931
1.06975
1.06999
1.07024
1.07046
1.07068
1.07087
1.07111
1.07129
1.07151
1.0717
1.07223
1.08501
1.085
1.07235
1.07177
1.07151
1.07135
1.07115
1.07097
1.07076
1.07057
1.07034
1.07012
1.06982
1.06938
1.06888
1.06861
1.06859
1.06888
1.0693
1.06973
1.06998
1.07023
1.07045
1.07068
1.07088
1.07112
1.0713
1.07152
1.0717
1.07223
1.08501
1.08502
1.07225
1.07166
1.07141
1.07121
1.07104
1.07082
1.07064
1.07044
1.07026
1.07003
1.06981
1.06941
1.06899
1.06867
1.06859
1.06876
1.06926
1.0698
1.07018
1.07035
1.07064
1.07088
1.07107
1.07127
1.07144
1.0716
1.0718
1.07238
1.08501
1.085
1.07228
1.07172
1.07147
1.07132
1.07112
1.07093
1.07072
1.07054
1.07031
1.0701
1.06981
1.06941
1.06891
1.06863
1.06857
1.06885
1.06926
1.06972
1.06997
1.07022
1.07046
1.07069
1.07089
1.07113
1.07132
1.07155
1.07171
1.07224
1.08501
1.085
1.07225
1.0717
1.07156
1.07135
1.07114
1.0709
1.07068
1.07046
1.07022
1.06999
1.06971
1.06933
1.06888
1.0686
1.0686
1.06886
1.06934
1.06974
1.07002
1.07024
1.07047
1.07068
1.07089
1.0711
1.0713
1.0715
1.07171
1.07222
1.085
1.08499
1.07225
1.07166
1.07141
1.07124
1.07105
1.07087
1.07067
1.0705
1.07029
1.07009
1.06982
1.06946
1.06898
1.06868
1.06856
1.06883
1.06924
1.0697
1.06994
1.0702
1.07044
1.07067
1.07088
1.07112
1.07131
1.07154
1.0717
1.07223
1.08501
1.9699
2.08011
2.1469
2.22887
2.20934
2.1935
2.3236
2.35558
2.33785
2.06897
1.79767
1.66536
1.60969
1.54787
1.69446
2.12444
2.05855
1.95333
1.86462
1.57613
1.57245
1.47159
1.46632
1.46597
1.51434
1.59813
1.63259
1.7261
1.67819
1.61286
1.58518
1.64106
2.18048
2.27725
2.29341
2.33115
2.43941
2.55849
2.13414
1.89468
1.88756
1.82055
1.60359
1.47733
2.01417
1.98009
1.79814
1.65216
1.63941
1.72842
2.024
3.26486
2.86907
2.88439
2.80425
2.69437
2.66729
2.73569
2.58043
3.36595
2.70609
2.23482
2.80459
1.68524
1.4194
1.39884
1.56815
1.82404
1.95524
1.94168
1.88316
1.78449
1.63063
1.5494
1.40606
1.35829
1.2707
1.15724
1.08124
1.03696
1.0199
1.06909
1.10804
1.13899
1.19449
1.17626
1.1834
1.17612
1.21425
1.31619
1.44901
1.55968
1.63099
1.67701
1.71462
1.73849
1.76289
1.7768
1.76507
1.75586
1.76874
1.73264
1.71078
1.66224
1.26425
1.20751
1.19729
1.19229
1.20612
1.23071
1.25492
1.27156
1.28762
1.29448
1.30193
1.30737
1.30376
1.30911
1.2999
1.29396
1.29225
1.27719
1.28206
1.26279
1.26933
1.25071
1.25619
1.23862
1.24432
1.22793
1.23197
1.21961
1.22527
1.21805
1.11206
1.11354
1.11184
1.11278
1.11027
1.11069
1.10794
1.10764
1.10483
1.1042
1.10154
1.10042
1.09891
1.09624
1.09608
1.09297
1.09331
1.09024
1.0908
1.08796
1.08866
1.08606
1.08685
1.08466
1.08532
1.08364
1.08416
1.08287
1.08359
1.08472
1.07899
1.07698
1.07677
1.07695
1.0767
1.07675
1.07654
1.07655
1.07637
1.07633
1.07627
1.07612
1.07614
1.07598
1.07599
1.07588
1.0759
1.07586
1.07588
1.07586
1.07586
1.07586
1.07585
1.07585
1.07585
1.07584
1.07585
1.07585
1.07598
1.07817
1.07815
1.07596
1.07582
1.0758
1.07579
1.07578
1.07578
1.07577
1.07576
1.07575
1.07574
1.07573
1.07572
1.07569
1.07568
1.07568
1.07569
1.07571
1.07573
1.07574
1.07575
1.07576
1.07577
1.07578
1.07579
1.07579
1.0758
1.07582
1.07596
1.07811
1.0781
1.07597
1.07582
1.0758
1.07579
1.07579
1.07578
1.07577
1.07576
1.07575
1.07574
1.07573
1.07571
1.07569
1.07568
1.07568
1.07569
1.07571
1.07573
1.07574
1.07575
1.07576
1.07577
1.07578
1.07579
1.07579
1.0758
1.07582
1.07596
1.07811
1.0781
1.07596
1.07581
1.0758
1.07579
1.07579
1.07577
1.07577
1.07576
1.07575
1.07574
1.07573
1.07572
1.0757
1.07568
1.07568
1.07568
1.07571
1.07573
1.07575
1.07576
1.07576
1.07578
1.07578
1.0758
1.07579
1.07581
1.07582
1.07595
1.07815
1.0781
1.07597
1.07582
1.0758
1.07579
1.07578
1.07578
1.07577
1.07576
1.07575
1.07574
1.07573
1.07571
1.07569
1.07568
1.07567
1.07569
1.07571
1.07573
1.07574
1.07575
1.07576
1.07577
1.07578
1.07579
1.07579
1.07581
1.07583
1.07596
1.07811
1.07814
1.07596
1.0758
1.0758
1.07579
1.07578
1.07578
1.07577
1.07576
1.07575
1.07574
1.07573
1.07572
1.07569
1.07568
1.07568
1.07569
1.07572
1.07573
1.07575
1.07575
1.07576
1.07577
1.07578
1.07579
1.07579
1.0758
1.07581
1.07595
1.07814
1.0781
1.07596
1.07581
1.07579
1.07578
1.07578
1.07577
1.07576
1.07576
1.07575
1.07575
1.07574
1.07572
1.0757
1.07569
1.07568
1.0757
1.07571
1.07574
1.07575
1.07575
1.07576
1.07577
1.07578
1.07579
1.0758
1.0758
1.07583
1.07597
1.07811
2.11012
2.1819
2.22935
2.22481
2.26691
2.24745
2.24545
2.21776
2.22556
2.30371
2.3404
1.88482
1.71112
1.65204
1.62957
2.1047
1.97654
1.74451
1.5682
1.56926
1.47652
1.45552
1.39783
1.3905
1.4172
1.44774
1.41685
1.41006
1.40926
1.43631
1.47734
1.52445
1.66075
1.66693
1.58069
1.70844
2.22728
2.31158
2.41783
1.85515
1.84147
1.79902
1.66143
1.53329
1.96361
1.83852
1.68052
1.61718
1.61141
1.72789
2.35473
3.13391
3.23803
2.75011
2.33102
2.63453
2.59133
2.6278
2.70448
2.54084
2.71784
2.66308
2.62602
4.57643
1.82869
1.37539
1.3868
1.53669
1.76825
1.87389
1.85193
1.8738
1.73184
1.59959
1.36055
1.30549
1.18213
1.07226
1.05787
1.06759
1.12031
1.15947
1.2257
1.25162
1.31319
1.31419
1.285
1.22005
1.16902
1.16574
1.23574
1.35626
1.46851
1.54716
1.59531
1.6295
1.65241
1.66062
1.67664
1.71113
1.70915
1.75138
1.75503
1.78511
1.18365
1.08727
1.06273
1.04579
1.05059
1.08184
1.12672
1.17208
1.20098
1.2246
1.23353
1.24844
1.2475
1.26061
1.2489
1.25362
1.24867
1.23638
1.23873
1.22481
1.22813
1.21287
1.2194
1.20354
1.21045
1.19531
1.20348
1.19128
1.19893
1.19295
1.08124
1.0798
1.08128
1.07973
1.08081
1.07846
1.07886
1.07603
1.07623
1.07287
1.07327
1.06962
1.07035
1.06641
1.06747
1.06346
1.06481
1.0609
1.06241
1.05879
1.06028
1.05707
1.05845
1.05574
1.05698
1.05473
1.05586
1.05403
1.05503
1.0542
1.04916
1.04879
1.04888
1.04853
1.04865
1.04845
1.04846
1.04833
1.0483
1.04819
1.04815
1.0481
1.04797
1.04803
1.04787
1.04793
1.04779
1.04786
1.04775
1.04781
1.0477
1.04779
1.04768
1.04776
1.04765
1.04774
1.04764
1.04772
1.04766
1.04793
1.04788
1.04766
1.04762
1.04768
1.0476
1.04768
1.04761
1.04769
1.04761
1.04769
1.04761
1.04768
1.04761
1.04768
1.04761
1.04768
1.04761
1.04768
1.04761
1.04768
1.04761
1.04768
1.04761
1.04767
1.0476
1.04767
1.0476
1.04764
1.04768
1.04782
1.04783
1.04768
1.0476
1.04768
1.0476
1.04768
1.04761
1.04769
1.04761
1.04768
1.04761
1.04768
1.04761
1.04768
1.04761
1.04768
1.04761
1.04768
1.04761
1.04768
1.04761
1.04768
1.04761
1.04768
1.0476
1.04767
1.0476
1.04764
1.04768
1.04782
1.04785
1.04769
1.04767
1.0476
1.04768
1.04761
1.04769
1.04761
1.04769
1.04761
1.04769
1.04762
1.04768
1.04761
1.04768
1.04761
1.04767
1.04761
1.04766
1.04764
1.04762
1.04768
1.04761
1.04768
1.0476
1.04768
1.0476
1.04768
1.04763
1.0479
1.04782
1.04769
1.0476
1.04768
1.0476
1.04768
1.04761
1.04769
1.04761
1.04769
1.04761
1.04768
1.04761
1.04768
1.04761
1.04768
1.04761
1.04768
1.04761
1.04768
1.04761
1.04768
1.0476
1.04767
1.0476
1.04767
1.0476
1.04764
1.04768
1.04782
1.0479
1.04765
1.04766
1.04767
1.04761
1.04769
1.04761
1.04769
1.04761
1.04769
1.04761
1.04769
1.04761
1.04768
1.04762
1.04762
1.04768
1.04761
1.04769
1.04761
1.04769
1.04761
1.04769
1.04761
1.04768
1.0476
1.04767
1.04765
1.04765
1.04789
1.04782
1.04768
1.04759
1.04767
1.04759
1.04768
1.0476
1.04769
1.04761
1.04769
1.04761
1.04769
1.04761
1.04768
1.04761
1.04768
1.04761
1.04768
1.04762
1.04769
1.04761
1.04769
1.04761
1.04768
1.0476
1.04767
1.04761
1.04764
1.04768
1.04783
2.05622
1.64071
1.56825
1.60001
1.66394
2.21146
1.88127
2.1036
2.12718
2.15466
2.22262
2.29919
1.92876
1.72033
1.68614
2.0771
1.96065
1.59471
1.51025
1.50725
1.47442
1.45546
1.4099
1.37472
1.35141
1.34058
1.31942
1.32419
1.33891
1.36416
1.39065
1.47663
1.55004
1.62922
1.63692
1.55307
1.86613
2.22114
2.28435
2.28465
1.77076
1.79604
1.7429
1.51776
1.95904
1.82574
1.64374
1.58478
1.63016
1.72957
2.5311
3.28837
2.588
1.68969
1.54588
1.5887
1.69445
1.88423
2.28775
2.45895
2.58787
2.75194
2.59778
2.59584
2.27454
2.04993
1.5262
1.39459
1.52005
1.7386
1.83222
1.84049
1.81506
1.68052
1.4089
1.2141
1.09579
1.09348
1.06108
1.15301
1.17041
1.21461
1.17843
1.30706
1.33312
1.38054
1.36555
1.31815
1.23453
1.16048
1.14176
1.18081
1.27598
1.37855
1.44512
1.49195
1.50895
1.53563
1.58422
1.60032
1.65612
1.70479
1.75648
1.79229
1.11772
1.01574
1.00424
0.991169
0.976195
0.961509
0.991614
1.04421
1.10031
1.13479
1.16008
1.17217
1.18424
1.1903
1.19662
1.19144
1.19398
1.19163
1.17913
1.18596
1.17302
1.17371
1.17019
1.16679
1.16571
1.16065
1.16164
1.15863
1.15914
1.16374
1.03481
1.03549
1.03702
1.04006
1.04023
1.04163
1.04067
1.04089
1.03942
1.03901
1.03726
1.03661
1.03507
1.03356
1.03293
1.0306
1.03076
1.02804
1.02888
1.02591
1.02703
1.02428
1.0254
1.02291
1.02413
1.02187
1.0231
1.02152
1.02226
1.02332
1.01789
1.01633
1.01607
1.0163
1.01605
1.01618
1.01588
1.01601
1.01574
1.01585
1.01563
1.01566
1.01556
1.01552
1.01547
1.01543
1.01538
1.01535
1.01532
1.0153
1.01527
1.01528
1.01524
1.01525
1.01522
1.01523
1.0152
1.01522
1.01532
1.01728
1.01724
1.0153
1.01518
1.01518
1.01516
1.01518
1.01516
1.01519
1.01517
1.01519
1.01517
1.01519
1.01517
1.01518
1.01517
1.01518
1.01516
1.01519
1.01517
1.01519
1.01517
1.01519
1.01516
1.01518
1.01516
1.01518
1.01515
1.01518
1.0153
1.01726
1.01726
1.0153
1.01516
1.01518
1.01516
1.01518
1.01516
1.01519
1.01517
1.01519
1.01517
1.01519
1.01517
1.01518
1.01516
1.01518
1.01516
1.01519
1.01517
1.01519
1.01517
1.01519
1.01516
1.01518
1.01516
1.01518
1.01515
1.01517
1.0153
1.01726
1.01727
1.01532
1.01518
1.01516
1.01518
1.01516
1.01519
1.01517
1.0152
1.01517
1.01519
1.01517
1.01519
1.01517
1.01519
1.01517
1.01519
1.01516
1.01518
1.01518
1.01517
1.01519
1.01516
1.01519
1.01516
1.01518
1.01516
1.01519
1.01529
1.01724
1.01727
1.0153
1.01516
1.01517
1.01515
1.01518
1.01516
1.01519
1.01517
1.01519
1.01517
1.01519
1.01516
1.01518
1.01517
1.01518
1.01516
1.01519
1.01517
1.01519
1.01517
1.01519
1.01516
1.01518
1.01516
1.01518
1.01516
1.01517
1.0153
1.01726
1.01724
1.0153
1.01519
1.01518
1.01517
1.01519
1.01516
1.01519
1.01517
1.01519
1.01517
1.01519
1.01517
1.01519
1.01517
1.01517
1.01518
1.01517
1.01519
1.01517
1.01519
1.01517
1.01519
1.01517
1.01518
1.01516
1.01518
1.01519
1.0153
1.01724
1.01726
1.01529
1.01515
1.01517
1.01515
1.01518
1.01516
1.01519
1.01517
1.01519
1.01517
1.01519
1.01517
1.01518
1.01516
1.01518
1.01516
1.01518
1.01517
1.01519
1.01517
1.01519
1.01516
1.01518
1.01516
1.01518
1.01516
1.01517
1.01531
1.01726
1.33097
0.994255
0.915981
0.893755
0.91461
1.0913
1.21847
1.80772
2.01701
2.03681
2.08721
2.16431
2.2603
1.82968
1.98668
2.03208
1.98431
1.88146
1.53769
1.55033
1.53096
1.51107
1.45007
1.39929
1.36363
1.33294
1.32364
1.30245
1.30346
1.29663
1.34415
1.41323
1.51997
1.58922
1.63212
1.59748
1.53495
2.15333
2.15299
2.20039
1.99015
1.74283
1.71224
1.60837
1.85466
1.68294
1.58201
1.58494
1.58596
1.8742
3.24108
3.039
2.48956
1.56449
1.30482
1.27387
1.30845
1.40614
1.53802
1.60601
1.89926
2.53575
2.59592
2.44226
2.42503
2.40422
2.15633
1.89843
1.42041
1.53435
1.70157
1.8292
1.84205
1.75382
1.36073
1.22601
1.13356
1.09106
1.15902
1.12887
1.13665
1.14164
1.19528
1.29477
1.30931
1.36198
1.35792
1.32849
1.27272
1.20061
1.1349
1.1146
1.13888
1.20217
1.26709
1.34405
1.37064
1.42281
1.4406
1.50306
1.54886
1.61781
1.68764
1.76246
1.05797
1.0409
1.04894
1.04433
0.993505
0.943899
0.917443
0.941327
0.990268
1.04332
1.07093
1.09477
1.10236
1.11662
1.11775
1.12637
1.11635
1.12895
1.10822
1.12198
1.1043
1.11289
1.09897
1.10731
1.09581
1.10158
1.09598
1.10032
1.10214
1.1118
0.971672
0.972065
0.97934
0.980801
0.985479
0.984517
0.986359
0.984297
0.985141
0.982558
0.982988
0.980208
0.980517
0.97768
0.978061
0.975068
0.975747
0.972694
0.973645
0.970788
0.971811
0.969167
0.970293
0.96787
0.968941
0.96693
0.967906
0.966518
0.96725
0.966065
0.961282
0.961672
0.961869
0.961589
0.96172
0.961517
0.961552
0.96138
0.96139
0.96126
0.96122
0.961168
0.96108
0.9611
0.960975
0.961021
0.960899
0.960936
0.960856
0.960846
0.960805
0.960822
0.960775
0.960792
0.960755
0.960766
0.960734
0.960752
0.960712
0.960162
0.960122
0.960711
0.960714
0.960716
0.960688
0.960727
0.960699
0.960739
0.960708
0.960744
0.960711
0.960745
0.960718
0.960743
0.960721
0.960741
0.96072
0.960744
0.960717
0.960743
0.960707
0.960736
0.9607
0.960728
0.960689
0.960716
0.960689
0.960712
0.960702
0.960144
0.960149
0.960695
0.960688
0.960712
0.960689
0.960729
0.9607
0.960742
0.960709
0.960744
0.960712
0.960744
0.960719
0.960743
0.960721
0.960742
0.960721
0.960744
0.960714
0.960744
0.960708
0.960737
0.960701
0.960728
0.960689
0.960717
0.96069
0.96071
0.960702
0.960145
0.960173
0.960721
0.960712
0.960687
0.96072
0.960696
0.960735
0.960707
0.960741
0.960711
0.960747
0.960719
0.960747
0.960723
0.960744
0.960722
0.960742
0.960717
0.960728
0.960734
0.96072
0.960732
0.960701
0.960732
0.960695
0.960723
0.960687
0.960724
0.960686
0.960128
0.960155
0.960701
0.960687
0.960711
0.960688
0.960728
0.960702
0.96074
0.960711
0.960744
0.960712
0.960744
0.960719
0.960743
0.960722
0.960741
0.960721
0.960744
0.960717
0.960742
0.960706
0.960735
0.9607
0.960728
0.960691
0.960717
0.960696
0.960707
0.960701
0.960143
0.960129
0.960696
0.960719
0.960719
0.960697
0.960728
0.960698
0.960737
0.960707
0.960743
0.96071
0.960748
0.960718
0.960743
0.960729
0.960735
0.960743
0.96072
0.960748
0.960715
0.960742
0.960706
0.960738
0.9607
0.960726
0.960691
0.96071
0.960728
0.960704
0.960124
0.960146
0.960695
0.960682
0.960708
0.960682
0.960726
0.960693
0.960739
0.960702
0.960745
0.960712
0.960754
0.960721
0.960749
0.960722
0.960747
0.960726
0.960751
0.960722
0.960751
0.960716
0.960748
0.960706
0.960735
0.960693
0.960725
0.960702
0.960711
0.960707
0.960152
0.818692
0.688232
0.662417
0.667592
0.720781
0.889722
1.35555
1.92618
1.95965
1.9784
1.99992
2.05459
2.13948
1.83967
2.04043
2.05704
2.03699
1.97879
1.79089
1.59573
1.66342
1.62033
1.57135
1.50019
1.41468
1.38533
1.36352
1.33897
1.29644
1.29686
1.28618
1.36066
1.44162
1.53376
1.58844
1.56304
1.52415
1.90563
2.10878
2.10641
2.20935
1.8749
1.70947
1.61765
1.90173
1.73734
1.58703
1.52838
1.63653
2.32132
2.99055
3.44029
2.6571
1.61461
1.27036
1.2023
1.19507
1.26468
1.38262
1.49432
1.60095
2.50677
2.35085
2.34246
2.39105
2.26828
2.23291
1.78481
1.87814
1.4292
1.52583
1.70924
1.86481
1.78866
1.36947
1.24257
1.17392
1.18792
1.15467
1.22787
1.21936
1.2615
1.19265
1.31967
1.27026
1.29251
1.2756
1.26063
1.23191
1.19041
1.14062
1.09941
1.07881
1.09045
1.12338
1.20512
1.2236
1.28276
1.33523
1.37463
1.44054
1.5224
1.62362
1.74468
1.03588
1.08802
1.08287
1.10735
1.02573
0.966493
0.898125
0.880535
0.911464
0.952035
0.991155
1.00978
1.02613
1.03439
1.04412
1.0467
1.04536
1.05337
1.04041
1.05428
1.0363
1.05166
1.03427
1.04815
1.03331
1.0498
1.03607
1.05416
1.04715
1.06978
0.891349
0.902938
0.909914
0.922528
0.925718
0.930323
0.930092
0.931858
0.930776
0.93134
0.929965
0.929937
0.928569
0.927837
0.926854
0.925561
0.925361
0.923338
0.923681
0.921442
0.922282
0.920039
0.920865
0.918996
0.919588
0.918241
0.918889
0.917922
0.918624
0.917551
0.911666
0.91292
0.912724
0.9131
0.912867
0.913017
0.912755
0.912853
0.912633
0.912707
0.912499
0.912577
0.912391
0.912442
0.912324
0.912317
0.912257
0.912229
0.912174
0.912175
0.912112
0.912138
0.912097
0.912114
0.912094
0.912113
0.912109
0.912147
0.912134
0.911577
0.911542
0.912119
0.912119
0.912078
0.912055
0.912051
0.912036
0.912046
0.912041
0.912043
0.91204
0.912041
0.912043
0.912044
0.912044
0.912047
0.912044
0.912044
0.912041
0.912041
0.91204
0.912045
0.912037
0.912038
0.912038
0.912057
0.91207
0.912106
0.912112
0.911562
0.911562
0.912104
0.912099
0.912073
0.912054
0.912051
0.912037
0.912047
0.912042
0.912042
0.91204
0.912041
0.912044
0.912044
0.912044
0.912048
0.912044
0.912045
0.912041
0.912041
0.91204
0.912045
0.912037
0.912039
0.912038
0.912059
0.912071
0.912106
0.912112
0.911563
0.911581
0.912123
0.912104
0.912071
0.912059
0.912049
0.912045
0.912043
0.91205
0.912045
0.912045
0.912043
0.912047
0.912048
0.91205
0.912045
0.912048
0.912036
0.912038
0.912041
0.912041
0.912042
0.912035
0.91204
0.912043
0.91206
0.912073
0.912112
0.912112
0.911538
0.911572
0.912109
0.912097
0.912072
0.912054
0.912052
0.912037
0.912048
0.912042
0.912043
0.91204
0.912041
0.912044
0.912047
0.912045
0.912047
0.912045
0.912045
0.912041
0.91204
0.912038
0.912041
0.912035
0.912038
0.912039
0.912059
0.912076
0.912104
0.91211
0.911563
0.911541
0.912112
0.912109
0.912083
0.912058
0.912052
0.912036
0.912045
0.91204
0.912043
0.91204
0.912046
0.912044
0.912048
0.912049
0.912049
0.912048
0.912044
0.912046
0.912041
0.912042
0.91204
0.912044
0.912036
0.912049
0.912052
0.91207
0.912115
0.912115
0.911539
0.911559
0.912102
0.912093
0.91207
0.912052
0.912044
0.912035
0.912043
0.91204
0.912041
0.912047
0.912045
0.912044
0.912048
0.912042
0.912046
0.912044
0.912047
0.91204
0.912044
0.912042
0.912041
0.912035
0.91204
0.912038
0.912065
0.912096
0.912172
0.91229
0.911734
0.63706
0.620572
0.626321
0.684297
0.869547
1.2663
1.89509
1.90076
1.90092
1.95536
2.00882
2.03857
2.05003
1.99895
2.24166
2.1719
2.14117
2.09997
2.03727
1.92619
1.86822
1.78332
1.79137
1.73535
1.6656
1.6263
1.56609
1.49459
1.44985
1.40555
1.35858
1.3165
1.29166
1.29483
1.35267
1.42984
1.49238
1.53679
1.54142
1.58958
2.04425
2.09746
2.12081
2.25267
1.79245
1.69517
1.68037
1.7651
1.79232
1.63478
1.55063
1.56219
1.62605
2.5064
3.31722
2.78303
2.78818
1.58582
1.29566
1.20096
1.17173
1.16709
1.22555
1.3611
1.47784
1.69627
2.2577
2.2169
2.20108
2.18949
2.16247
1.71239
1.66068
1.74312
1.39472
1.46296
1.66114
1.67198
1.24873
1.36864
1.3217
1.31334
1.28838
1.23577
1.28456
1.20229
1.24879
1.20285
1.24847
1.19934
1.18814
1.17002
1.17424
1.15987
1.15352
1.13502
1.115
1.0855
1.06385
1.04807
1.03776
1.08825
1.10246
1.17082
1.20541
1.248
1.29049
1.35873
1.42375
1.40978
1.10157
1.19131
1.2183
1.15756
1.13602
1.07841
1.04096
0.951354
0.896893
0.855689
0.856905
0.886867
0.910381
0.935358
0.943748
0.958095
0.959281
0.970436
0.964607
0.974445
0.962059
0.973094
0.95797
0.969814
0.954376
0.966884
0.95225
0.965711
0.955303
0.965921
0.967443
0.970924
0.930856
0.908469
0.869896
0.850784
0.853438
0.858088
0.863207
0.862488
0.864177
0.862588
0.863105
0.860994
0.861327
0.858913
0.859388
0.856679
0.857486
0.854519
0.855564
0.852773
0.853348
0.851379
0.851506
0.850053
0.850111
0.848881
0.849135
0.847933
0.848494
0.847496
0.847666
0.845158
0.841623
0.840562
0.84145
0.843176
0.843791
0.843319
0.84352
0.843163
0.843323
0.842983
0.843158
0.842912
0.842906
0.842879
0.842788
0.842786
0.842709
0.84272
0.842638
0.842665
0.842578
0.842611
0.842553
0.842557
0.842531
0.842539
0.842534
0.84254
0.842547
0.842537
0.842339
0.839815
0.83759
0.837583
0.839804
0.842334
0.842521
0.842521
0.842496
0.842496
0.842474
0.842482
0.842469
0.842482
0.842468
0.842475
0.842467
0.842472
0.842469
0.842472
0.842468
0.842474
0.842468
0.842478
0.842469
0.842479
0.842468
0.842482
0.84248
0.842503
0.842511
0.842512
0.842317
0.839806
0.837567
0.837569
0.839806
0.842312
0.8425
0.842515
0.842498
0.842494
0.842474
0.842483
0.84247
0.842481
0.842468
0.842476
0.842469
0.842473
0.84247
0.842473
0.842469
0.842474
0.842468
0.842478
0.842469
0.84248
0.842469
0.842482
0.84248
0.842504
0.842512
0.842512
0.842317
0.839805
0.837567
0.837567
0.839818
0.84233
0.842507
0.842508
0.842507
0.842486
0.842485
0.842472
0.842483
0.842472
0.84248
0.842469
0.842474
0.842469
0.842472
0.842468
0.842472
0.842465
0.842465
0.842478
0.842473
0.842474
0.842467
0.842479
0.842482
0.842506
0.842508
0.842511
0.842314
0.83979
0.837567
0.837569
0.839812
0.842317
0.842499
0.842514
0.842499
0.842495
0.842475
0.842483
0.84247
0.842482
0.842469
0.842476
0.842469
0.842473
0.84247
0.842472
0.842468
0.842474
0.842468
0.842478
0.842467
0.842478
0.842465
0.842479
0.84248
0.842503
0.842514
0.842509
0.842316
0.839807
0.837569
0.837569
0.839793
0.842323
0.842511
0.842521
0.8425
0.842494
0.842473
0.84248
0.842471
0.84248
0.842468
0.842477
0.842469
0.842473
0.842473
0.842474
0.842473
0.842469
0.842477
0.842472
0.842482
0.84247
0.842481
0.842473
0.842493
0.842496
0.842511
0.842513
0.842321
0.839788
0.837569
0.837565
0.839802
0.842309
0.842495
0.842516
0.842492
0.842493
0.842467
0.842481
0.842473
0.842487
0.842477
0.842488
0.842479
0.842482
0.842474
0.842477
0.84247
0.842475
0.84247
0.842482
0.842471
0.842486
0.842471
0.842491
0.842486
0.842506
0.842518
0.842512
0.842311
0.839813
0.837703
0.839576
0.600166
0.614098
0.654355
0.778493
1.05363
1.4981
1.69481
1.79454
1.79506
1.84521
1.96164
2.06078
2.09384
2.22507
2.22909
2.24066
2.18622
2.09254
1.9313
1.89848
1.85752
1.86944
1.85959
1.79776
1.72097
1.66105
1.61918
1.63156
1.59687
1.51046
1.4354
1.34068
1.30571
1.27231
1.27882
1.33741
1.40071
1.4662
1.52749
1.54568
1.60145
2.00819
2.03346
2.12011
1.85429
1.7478
1.76753
1.82941
1.83539
1.74252
1.69408
1.70909
1.81516
2.53668
2.61164
2.82585
2.69683
1.53663
1.27953
1.24225
1.19584
1.15672
1.16089
1.22588
1.316
1.36887
1.54815
2.12257
2.13371
2.09902
2.05877
1.93235
1.69345
1.47642
1.60248
1.28845
1.36189
1.52171
1.38527
1.36552
1.41013
1.35006
1.33216
1.28612
1.21045
1.19942
1.12417
1.1146
1.06317
1.10022
1.06704
1.07576
1.07106
1.07529
1.07136
1.07223
1.06875
1.066
1.05268
1.03354
1.01112
1.02904
1.01167
1.07596
1.08563
1.14145
1.18439
1.21371
1.25132
1.28948
1.20046
1.22262
1.15773
1.17874
1.12175
1.0666
0.985028
0.929061
0.867595
0.840729
0.82347
0.832768
0.852526
0.863423
0.880257
0.884166
0.891344
0.899161
0.896574
0.903558
0.895298
0.903756
0.891695