/*--------------------------------*- C++ -*----------------------------------*\
| =========                 |                                                 |
| \\      /  F ield         | OpenFOAM: The Open Source CFD Toolbox           |
|  \\    /   O peration     | Version:  2.1.1                                 |
|   \\  /    A nd           | Web:      www.OpenFOAM.org                      |
|    \\/     M anipulation  |                                                 |
\*---------------------------------------------------------------------------*/
FoamFile
{
    version     2.0;
    format      ascii;
    class       volScalarField;
    location    "0.003200000";
    object      cSound;
}
// * * * * * * * * * * * * * * * * * * * * * * * * * * * * * * * * * * * * * //

dimensions      [0 1 -1 0 0 0 0];

internalField   nonuniform List<scalar> 
12384
(
1038.91
1029.01
1017.93
1001.63
988.848
983.417
978.944
979.092
990.567
995.582
1008.26
1010.35
1013.16
1006.54
997.98
994.175
1007.31
1023.87
1033.04
1036.29
1035.93
1037.42
1040.22
1032.77
1036.61
1037.35
1041.83
1044.52
1046
1036.77
1031.17
1022.82
1002
994.555
972.399
965.032
954.531
948.387
948.291
975.857
1008.83
1056.33
1050.81
1029.17
1043.14
1083.68
1093.37
1091.94
1087.76
1091.99
1094.53
1100.83
1108.11
1111.46
1115.44
1113.48
1114.28
1109.81
1110.03
1103.45
1103.39
1096.78
1093.24
1095.52
1087.21
1088.49
1073.97
1040.69
999.191
971.78
959.68
970.237
1001.23
1020.05
1122.91
1116.42
1103.25
1089.85
1099.36
1099.87
1106.11
1105.76
1100.05
1087.71
1087.96
1074.43
1076.44
1067.99
1069.1
1066.02
1071.99
1068.77
1073.67
1074.64
1078.37
1079.04
1080.73
1078.64
1080.27
1074.14
1027.35
989.595
1019.19
1055.63
1049.27
1065.56
1072.95
1070.59
1067.67
1057.74
1058.85
1057.35
1065.09
1065.63
1067.51
1060.81
1055.27
1047.65
1043.35
1037.67
1037.17
1030.93
1030.05
1021.12
1017.5
1010.53
1007.65
1000.2
978.707
937.421
945.714
976.427
1004.64
1004.29
1013.82
1001.89
1011.68
1016.97
1036.54
1044.71
1044.84
1048.32
1039.92
1030.86
1023.77
1022.89
1015.45
1014.62
989.364
962.898
952.265
958.694
957.598
954.504
948.069
949.077
942.225
937.659
942.307
962.086
976.954
991.323
988.976
663.243
902.937
932.74
990.503
1039.79
1050.7
1060.7
1063.9
1071.2
1072.44
1072.07
1074.29
1071.89
1072.99
1067.93
1068.36
1059.57
1050.4
1024.24
1013.25
1007.02
959.897
944.733
721.918
597.404
559.087
553.029
552.138
552.24
556.258
556.375
938.385
971.237
1001.47
1039.67
1080.83
1084.58
1102.07
1106.45
1098.03
1092.82
1080.84
1063
1046.39
1037.68
999.982
917.329
922.641
903.003
916.464
918.488
931.698
938.261
948.219
954.234
966.709
983.428
1000.53
1022.89
1045.02
1050.65
969.883
952.82
945.371
939.556
933.137
919.868
920.645
923.041
924.36
922.234
925.559
936.109
922.933
951.241
971.015
997.685
1021.71
1035.73
1045.95
1066.1
1084.74
1099.48
1112.35
1125.03
1131.08
1133.16
1125.43
1141.19
1137.67
1129.83
955.577
964.502
982.579
997.59
1016.29
1011.99
1033.14
1027.03
1062.86
1041.11
1065.13
1054.85
1066.26
1076.45
1077.57
1090.77
1107.83
1106.23
1128.12
1125.89
1143.38
1147.04
1158.81
1161.15
1168.16
1169.81
1180
1147.62
951.776
406.863
405.111
404.971
404.961
404.957
404.956
404.951
404.949
404.945
404.944
404.939
404.938
404.933
404.928
404.921
404.917
404.916
404.92
404.926
404.933
404.936
404.939
404.942
404.946
404.948
404.952
404.955
404.957
404.961
404.97
405.111
405.112
404.97
404.96
404.957
404.956
404.952
404.949
404.946
404.943
404.938
404.936
404.932
404.926
404.92
404.917
404.917
404.92
404.926
404.932
404.937
404.938
404.943
404.945
404.949
404.951
404.955
404.956
404.96
404.969
405.112
405.111
404.969
404.96
404.955
404.954
404.949
404.948
404.944
404.943
404.939
404.938
404.933
404.928
404.921
404.918
404.916
404.921
404.925
404.932
404.934
404.939
404.941
404.946
404.948
404.952
404.955
404.958
404.96
404.97
405.111
1030.33
1025.67
1036.45
1028.48
1028.97
1019.23
1006.08
990.705
975.354
966.231
989.686
1005.95
1015.59
999.478
971.977
1025.94
1079.67
1095.85
1098.71
1100.17
1105.34
1112.58
1120.81
1124.88
1131.17
1134.02
1136.1
1135.5
1129.01
1108.68
1087.51
1067.42
1039.51
1014.33
982.45
964.288
953.16
949.5
955.582
988.771
1029.62
1061.97
1057.2
1035.89
1049.58
1081.48
1085.22
1078.65
1077.61
1079.28
1090.61
1102.41
1115.8
1125
1129.85
1133.87
1132.43
1131.52
1127.52
1121.92
1118.05
1111.28
1102.33
1096.57
1090.9
1092.35
1083.53
1052.16
1001.74
967.269
966.417
988.332
1017.12
1018.12
1120.78
1119.66
1105.31
1108.13
1120.41
1121.48
1113.17
1092.45
1081.3
1067.84
1069.16
1056.94
1057.68
1049.29
1051.7
1049.46
1053.4
1051.65
1051.87
1052.78
1059.16
1064.49
1070.97
1070.56
1076.96
1068.28
1023.07
988.472
1018.23
1058.12
1042.09
1054.59
1060.91
1069.12
1070.66
1069.06
1072.07
1075.24
1081.42
1079.3
1074.27
1064.06
1041.36
1023.89
1002.12
993.551
984.128
984.114
981.293
985.653
983.512
990.574
994.096
989.266
963.578
937.702
948.973
980.604
1015.18
1020.72
1006.71
1017.92
1051.13
1091.83
1086.59
1084.21
1061.81
1049.92
1034.58
1015.33
982.645
961.667
957.397
954.266
947.215
939.132
937.34
936.709
941.054
945.007
947.423
928.274
923.379
918.241
924.964
944.05
949.353
967.1
1003.66
649.354
939.864
954.927
1028.43
1060.11
1087.56
1094.09
1104.51
1104.83
1110.72
1110.39
1111.81
1111.08
1108.28
1106.79
1098.23
1088.97
1071.9
1046.85
1018.51
1016.8
966.978
936.935
934.88
958.628
696.781
669.183
606.401
593.955
561.313
538.24
952.467
999.284
1069.35
1121.28
1131.12
1133.15
1118.29
1097.86
1082.64
1061.15
1059.3
1041.13
1021.93
1003.55
954.681
918.224
905.624
917.991
923.81
935.978
943.801
952.076
955.202
961.863
968.645
980.734
991.585
1013.82
1035.51
1040.56
967.319
949.724
948.799
944.119
933.047
931.403
921.7
918.94
920.429
915.105
910.656
913.578
906.605
916.176
923.347
961.757
975.885
979.793
992.697
1010.03
1039.8
1063.23
1080.75
1078.48
1070.39
1055.06
1072.96
1074.39
1104.35
1115.59
917.563
932.612
942.96
940.803
931.402
923.654
914.727
919.682
915.007
925.574
917.989
924.372
923.286
930.189
944.074
941.378
960.922
963.2
975.575
985.3
992.25
1005.89
1004.13
1018.13
1008.27
1034.11
1041.76
1072.25
1084.33
485.376
402.849
400.097
399.9
399.881
399.832
399.814
399.757
399.737
399.682
399.661
399.605
399.575
399.492
399.428
399.366
399.371
399.4
399.484
399.54
399.602
399.628
399.691
399.712
399.771
399.795
399.847
399.872
399.913
400.094
402.857
402.963
400.078
399.9
399.883
399.829
399.812
399.753
399.731
399.671
399.646
399.585
399.556
399.475
399.417
399.367
399.366
399.414
399.476
399.56
399.59
399.65
399.672
399.729
399.749
399.807
399.822
399.877
399.896
400.073
402.96
402.86
400.095
399.892
399.871
399.816
399.8
399.738
399.724
399.667
399.654
399.595
399.573
399.495
399.437
399.37
399.371
399.4
399.482
399.539
399.6
399.625
399.687
399.708
399.768
399.789
399.845
399.87
399.912
400.096
402.862
1034.08
1052.3
1102.87
1116.44
1127.8
1129.52
1110.52
1072.65
1018.85
972.75
960.271
988.137
1006.97
983.772
974.498
1076.29
1095.26
1084.4
1070.46
1060.31
1055.31
1058.14
1067.11
1082.61
1097.34
1109.86
1122.83
1134.78
1145.56
1150.36
1146.88
1128.45
1093.22
1043.53
990.528
965.242
950.833
949.39
958.56
988.144
1028.63
1057.29
1059.23
1045.2
1047.48
1078.04
1075.67
1068.28
1063.44
1064.33
1071.88
1087.65
1104.05
1120.78
1133.03
1138.28
1142.8
1141.08
1141.23
1135.57
1133.63
1126.2
1119.12
1105.29
1087.1
1086.21
1080.24
1056.53
1004.57
968.758
972.321
1003.47
1024.79
1015.76
1117.91
1120.21
1116.42
1125.6
1130.21
1114.93
1090.37
1069.94
1071.03
1063.76
1051.91
1043.54
1041.88
1037.08
1041.95
1043.11
1049.69
1048.47
1044.49
1035.51
1034.02
1037.31
1052.58
1059.25
1065.66
1046.69
1000.59
987.694
1023.29
1059.3
1033.37
1035.37
1040.69
1060.05
1069.74
1076.48
1082.38
1085.37
1087.01
1077.02
1055.93
1012.64
976.62
958.767
947.071
938.302
936.163
931.095
931.537
932.648
937.503
950.849
963.976
962.695
941.721
929.495
954.118
997.148
1033.38
1033.61
1009.9
1041.89
1109.22
1121.63
1110.87
1089.27
1063.92
1041.03
1018.06
974.708
942.257
924.164
915.946
907.274
913.613
922.92
949.694
1000.25
1064.01
1092.01
1098.27
1057.54
996.233
931.507
897.995
895.265
921.266
942.975
949.722
609.92
955.216
1009.41
1069.63
1102.36
1112.55
1124.94
1123.35
1123.54
1117.09
1113.95
1112.47
1110.26
1113.42
1110.71
1111.04
1099.92
1085.32
1050.69
1039.19
1039.05
985.647
944.724
925.016
937.994
958.298
938.425
893.837
870.053
906.549
550.064
978.562
1043.71
1127.66
1149.9
1134.48
1122.82
1083.97
1071
1045.54
1027.61
1013.45
999.255
980.3
960.718
936.956
932.658
941.131
955.073
978.707
972.543
983.388
983.828
972.014
965.734
972.838
971.009
978.216
988.453
1011.32
1014.64
963.241
953.596
958.573
958.268
964.504
965.069
959.582
959.207
957.075
940.627
959.143
933.742
941.547
918.163
936.192
955.657
969.506
964.989
953.962
952.539
972.62
988.839
1005.72
1003.93
992.591
968.353
984.969
995.133
1040.59
1080.67
889.94
916.514
923.298
925.408
914.275
926.181
933.19
928.22
918.712
911.678
899.365
897.338
885.811
882.231
887.278
880.243
889.221
883.477
892.678
885.434
894.657
880.668
892.021
863.108
877.681
840.528
863.604
832.847
644.687
622.165
362.007
364.774
364.935
364.977
365
365.032
365.06
365.094
365.121
365.156
365.188
365.235
365.296
365.373
365.416
365.425
365.381
365.319
365.248
365.209
365.169
365.134
365.099
365.068
365.029
365.001
364.965
364.938
364.777
362.032
362.035
364.773
364.937
364.963
364.993
365.028
365.064
365.1
365.132
365.17
365.205
365.25
365.308
365.377
365.421
365.42
365.38
365.307
365.246
365.202
365.167
365.13
365.1
365.066
365.033
365.002
364.973
364.935
364.777
362.036
362.034
364.775
364.943
364.986
365.01
365.041
365.069
365.101
365.126
365.159
365.19
365.234
365.288
365.362
365.409
365.427
365.386
365.325
365.253
365.215
365.174
365.138
365.101
365.069
365.031
365.001
364.966
364.939
364.779
362.032
1111.35
1132.22
1173.41
1191.9
1200.94
1202.7
1191.04
1170.89
1119.65
1033.26
968.807
961.162
988.096
974.758
1031.9
1087.48
1085.04
1074.19
1063.2
1052.8
1041.94
1030.87
1020.56
1019.53
1019.38
1028.41
1042.97
1069.73
1109.23
1142.93
1156.96
1159.21
1133.71
1071.39
1007.82
967.785
951.788
942.05
942.725
960.226
996.206
1037.15
1050.83
1031
1051.81
1068.61
1063.73
1058.47
1057.42
1061.05
1063
1073.07
1088.54
1108.26
1125.04
1137.29
1142.28
1147.67
1147.43
1149.74
1146.79
1144.18
1134.38
1122.81
1094.67
1077.83
1077.35
1056.07
1010.5
967.41
973.971
1005.9
1026.52
1018.8
1112.08
1124.58
1125.85
1132.98
1128.4
1095.05
1074.14
1067.85
1055.71
1038.84
1025.4
1023.79
1022.62
1024.62
1026.26
1031.84
1041.64
1046.8
1043.04
1029.75
1016.4
1018.01
1029.88
1034.64
1026.84
1001.86
981.767
994.361
1036.58
1060.82
1024.73
1017.12
1017.49
1043.01
1064.34
1077.98
1088.5
1090.96
1082.55
1063.71
1007.48
977.834
964.782
961.29
961.21
963.828
953.298
944.08
933.781
928.113
925.627
926.564
939.263
936.768
919.729
920.516
963.907
1010.54
1036.91
1037.98
999.574
1066.56
1129.79
1132.79
1103.69
1079.8
1052.92
1028.53
990.603
943.684
914.434
901.716
899.937
916.852
965.178
1052.62
1122.67
1167.16
1190.58
1196.87
1199.84
1174.04
1150.97
1089.66
976.637
901.438
880.58
904.233
915.408
601.836
1004.19
1070.66
1111.41
1124.74
1133.65
1128.62
1123.93
1108.71
1101.17
1095.08
1095.39
1099.22
1103
1109.53
1107.14
1102.54
1087.06
1053.88
1042.41
1031.86
1015.56
963.938
966.289
1020.44
1057.12
1032.93
971.447
911.822
851.258
605.632
988.389
1089.2
1152.87
1146.95
1122.11
1070.23
1036.28
1014.01
1001.82
987.409
987.799
987.873
982.464
973.577
965.236
979.511
985.737
991.677
1001.17
1001.8
1016.94
1008.79
1006.81
987.785
982.685
971.975
965.5
971.366
978.256
994.097
956.872
962.22
987.503
1009.88
1027.43
1025.98
1025.16
1022.13
1020.26
1022.12
1028.25
1026.34
1034.19
1004.69
1026.96
1029.48
1022.2
991.52
959.322
949.761
935.506
941.719
943.724
941.868
940.726
919.249
926.311
941.584
979.337
1021.39
892.335
936.604
966.429
1003.84
1013.8
1052.54
1071.38
1079.2
1053.37
1021.64
989.895
966.185
953.561
946.246
943.855
948.017
954.993
958.201
974.141
977.414
990.871
976.802
983.476
962.885
945.97
929.039
894.191
873.041
864.223
876.919
363.053
363.304
363.37
363.379
363.378
363.383
363.383
363.388
363.388
363.393
363.393
363.4
363.402
363.411
363.412
363.416
363.409
363.407
363.398
363.398
363.392
363.392
363.386
363.386
363.38
363.381
363.374
363.372
363.329
362.843
362.833
363.33
363.369
363.377
363.377
363.383
363.383
363.389
363.388
363.395
363.394
363.401
363.403
363.411
363.411
363.411
363.411
363.403
363.4
363.394
363.394
363.388
363.389
363.383
363.383
363.378
363.378
363.369
363.331
362.833
362.842
363.33
363.37
363.379
363.378
363.383
363.383
363.389
363.388
363.394
363.393
363.4
363.401
363.41
363.411
363.415
363.408
363.406
363.398
363.398
363.392
363.392
363.386
363.387
363.381
363.381
363.374
363.373
363.329
362.842
1187.11
1199.22
1225.12
1230.81
1229.37
1222.84
1214.11
1203.46
1180.11
1127.96
1023.79
966.288
964.019
964.179
1081.37
1085.24
1088.91
1093.86
1095.27
1089.3
1078.08
1063.61
1044.95
1025.82
1013.77
1003.37
998.42
1001.61
1042.53
1109.17
1153.56
1167.12
1150.93
1093.7
1021.21
974.425
945.724
924.12
906.567
904.339
936.005
992.069
1029.65
1009.04
1049.52
1054.17
1050.33
1055.16
1062.93
1069.22
1076.3
1080.48
1092.1
1108.47
1125.86
1137.24
1148.02
1149.64
1155.83
1155.19
1153.28
1148.01
1140.01
1123.53
1096.12
1069.41
1073.61
1056.21
1007.9
961.85
964.255
998.004
1030.95
1025.66
1106.98
1125.14
1133.97
1134.41
1111.5
1083.18
1062.27
1054.2
1026.41
1017.21
1014.78
1031.77
1032.23
1032.4
1027.72
1031.56
1040.01
1047.62
1037.9
1010.72
997.358
998.164
993.493
986.047
978.92
972.431
978.45
1005.39
1044.91
1056.99
1015.77
1000.1
998.805
1028.15
1061.65
1082.11
1093.04
1089.51
1074.15
1036.06
1005.21
1001.12
1007.01
1013.57
1015.2
1008.59
998.005
981.847
963.859
945.818
931.707
924.787
925.542
921.195
908.785
921.666
964.734
1010.2
1031.97
1038.88
1007.97
1105.77
1138.34
1120.47
1091.44
1061
1047.07
1013.21
967.849
923.134
902.078
901.385
940.715
1027.84
1118.12
1176.69
1212.8
1228.95
1240.64
1248.73
1243.89
1227.81
1206.35
1169.59
1122.94
985.225
882.22
868.728
875.948
675.168
1033.31
1101.03
1130.34
1141.95
1133.61
1128.48
1108.19
1096.15
1083.53
1080.79
1082.69
1086.48
1094.77
1098.91
1094.99
1085.78
1060.43
1039.51
1048.1
1050.03
1028.18
1007.62
1043.67
1093.74
1104.83
1097.57
1042.52
961.29
892.805
876.838
999.316
1127.05
1160.36
1133.46
1079.62
1037.42
1001.92
985.851
995.853
1018.2
1040.7
1078.26
1089.91
1077.95
1081
1084.36
1089.49
1088.72
1074.6
1071.7
1060.36
1055.57
1051.38
1040.71
1022.2
992.613
988.631
969.517
968.802
984.573
950.313
970.116
1026.6
1031.99
1029.42
1029.64
1027.48
1029.31
1035.92
1028.82
1042.56
1028.58
1045.42
1018.61
1062.3
1100.01
1124.04
1074.87
1017.13
971.469
950.944
943.014
933.503
929.799
919.863
915.715
912.43
917.312
942.832
965.349
907.411
989.046
1074.46
1114.98
1141.07
1164.93
1175.85
1175.92
1173.95
1158.72
1143.06
1105.47
1085.74
1064.15
1060.29
1059.95
1063.07
1073.37
1070.47
1078.48
1061.1
1066.26
1032.81
1026.97
1005.74
983.511
974.975
955.802
952.627
957.628
366.086
368.291
368.029
368.072
368.083
368.071
368.083
368.071
368.084
368.072
368.084
368.073
368.085
368.075
368.086
368.076
368.086
368.075
368.084
368.073
368.084
368.072
368.084
368.071
368.084
368.071
368.082
368.069
368.063
368.015
368.009
368.071
368.071
368.071
368.085
368.072
368.085
368.073
368.085
368.073
368.085
368.074
368.086
368.076
368.084
368.084
368.076
368.087
368.074
368.086
368.073
368.085
368.072
368.085
368.072
368.085
368.072
368.076
368.069
368.01
368.015
368.065
368.081
368.069
368.083
368.07
368.083
368.071
368.084
368.071
368.084
368.073
368.085
368.075
368.086
368.075
368.086
368.075
368.085
368.072
368.084
368.072
368.084
368.072
368.084
368.071
368.082
368.069
368.061
368.013
1249.3
1253
1250.14
1243.82
1235.79
1222.89
1212.35
1202.77
1191.91
1171.79
1107.98
1002.19
958.655
951.144
1078.23
1085.72
1102.84
1112.56
1114.33
1108.14
1093.68
1081.75
1067.22
1051.68
1032.08
1017.11
999.956
989.777
1005.88
1080.95
1148.99
1167.27
1156.26
1100.45
1026.73
969.708
926.629
887.726
862.74
854.814
876.694
933.481
997.465
991.772
1045.53
1030.94
1033.99
1050
1069.62
1085.78
1097.94
1107.05
1114.92
1127.97
1137.75
1148.2
1155.38
1154.72
1155.06
1151.82
1143.76
1132.96
1124.86
1102.53
1073.98
1063.39
1075.51
1058.3
1007.38
953.51
945.795
981.993
1025.34
1033.03
1103.56
1127.05
1139
1130.43
1091.38
1068.84
1052.34
1027.6
1001.07
1004.25
1021.65
1039.93
1043.98
1039.09
1036.35
1040.75
1042.07
1031.72
1004.5
982.55
971.683
967.894
968.902
971.994
972.328
974.828
979.193
1002.77
1035.82
1048.92
1006.16
988.603
991.531
1024.71
1066.37
1087.2
1093.87
1085.61
1065.93
1040.2
1032.56
1038.12
1041
1048.66
1033.14
1020.99
1003.8
998.594
984.316
966.6
946.833
929.642
921.147
909.11
909.376
913.512
963.683
1001.06
1013.9
1028.08
1023.85
1121.72
1131.87
1104.46
1069.42
1051.94
1030.76
991.737
947.108
919.336
911.607
954.004
1061.78
1138.87
1192.75
1215.62
1226.94
1241.94
1254.17
1260.95
1262.69
1252.91
1230.92
1205.39
1175.56
1113.88
963.289
874.703
820.381
810.107
1074.74
1121.71
1141.19
1141.04
1134.89
1113.46
1099.64
1081.27
1073.36
1066.81
1062.77
1066.91
1069.34
1071.1
1060.27
1057.75
1029.97
1052.8
1062.59
1072.4
1059.34
1075.29
1108.63
1112.74
1108.64
1107.98
1098.13
1042.59
1004.29
958.5
1014.01
1146.75
1166.2
1116.82
1055.47
1011.25
1013.7
1010.11
1087.84
1122.48
1159.36
1187.7
1165.45
1135.79
1122.36
1129.01
1130.56
1142.85
1140.77
1136.78
1127.14
1101.52
1082.08
1073.41
1059.73
1062.03
1040.08
1015.42
992.676
997.603
942.92
987.489
1029.16
1030.75
1031.04
1036.68
1041.85
1043.79
1047.18
1047.39
1053.93
1056.83
1054.29
1060.41
1059.58
1121
1131.11
1154.83
1121.22
1068.74
1006.36
980.33
955.532
948.298
931.77
924.489
918.571
918.874
930.823
931.35
922.452
1050.7
1106.72
1140.85
1167.77
1188.7
1206.83
1219.41
1219.5
1215.14
1202.16
1191.02
1167.86
1160.45
1150.1
1146.06
1149.32
1141.83
1136.55
1121.92
1119.75
1088.21
1088.46
1069.21
1061.09
1059.12
1043.42
1035
1027.41
1029.75
397.047
375.309
374.379
373.992
374.042
374.035
374.04
374.035
374.04
374.036
374.04
374.036
374.041
374.037
374.042
374.037
374.041
374.037
374.04
374.036
374.041
374.037
374.041
374.036
374.041
374.036
374.038
374.03
373.996
373.567
373.573
374.002
374.028
374.034
374.039
374.036
374.041
374.037
374.041
374.037
374.041
374.037
374.042
374.038
374.038
374.039
374.038
374.042
374.037
374.042
374.037
374.041
374.037
374.041
374.037
374.041
374.036
374.031
374
373.573
373.565
374.001
374.036
374.035
374.04
374.035
374.04
374.035
374.04
374.035
374.04
374.037
374.042
374.038
374.043
374.038
374.042
374.038
374.042
374.037
374.041
374.037
374.042
374.037
374.041
374.036
374.039
374.03
373.994
373.565
1262.14
1257.69
1244.35
1231.98
1222.33
1214.21
1201.12
1186.98
1177.55
1170.99
1149.04
1067.64
979.971
946.785
1069.5
1089.52
1108.5
1116.13
1114.39
1100.49
1084.64
1071.54
1068.38
1057.93
1047.47
1027.76
1006.81
996.074
1013.91
1096.43
1153.23
1168.48
1148.74
1087
1001.73
935.151
883.974
855.019
843.845
848.701
860.873
894.594
959.473
978.918
1037.86
1009.51
1026.54
1057.09
1087.3
1108.3
1122.16
1130.34
1139.23
1145
1152.83
1156.69
1157
1146.43
1138.92
1126.88
1114.52
1104.31
1086.91
1066.69
1062.42
1072.77
1077.86
1048.29
992.222
939.926
940.361
975.932
1021.37
1039.38
1102.45
1131.86
1137.04
1115.54
1077.08
1055.34
1035.25
1006.98
981.627
992.204
1006.18
1022.62
1033.01
1037.29
1027.61
1018.41
1002.89
980.161
967.553
967.204
992.142
1025.77
1042.02
1043.49
1032.89
1016.93
1001.79
999.129
1020.14
1036.08
992.347
976.345
990.997
1037.06
1075.54
1093.48
1095.18
1082.3
1065.99
1053.63
1054.17
1062.93
1066.5
1050.35
1005.36
975.837
958.477
966.22
971.133
967.814
955.286
937.634
924.978
911.831
900.208
922.477
952.229
990.689
1004.43
1015.4
1080.1
1127.07
1114.34
1076.18
1055.29
1038.67
1014.04
975.328
945.313
937.19
967.294
1068.34
1139.45
1189.18
1204.85
1209.23
1224
1237.64
1246.15
1253.34
1264
1262.98
1249.75
1222.67
1201.23
1164.83
1106.73
957.417
837.211
824.823
1088.55
1129.45
1142.85
1143.12
1126.85
1113.33
1096.53
1082.39
1069.95
1057.59
1050.43
1043.76
1042.12
1034.15
1037.54
1031.57
1042.05
1066.03
1096.89
1103.2
1106.6
1118.36
1118.75
1112.29
1109.05
1099.4
1074.48
1071.52
1055.96
1029.32
1044.68
1160.35
1151.48
1101.24
1030.62
1022.65
1060.22
1097.15
1142.84
1198.81
1237.67
1252.71
1234.11
1193.99
1182.1
1172.6
1179.28
1185.04
1199.51
1206.91
1212.74
1202.71
1172.96
1142.94
1107.1
1086.67
1083.52
1081
1079.71
1038.96
939.264
991.069
1031.94
1029.86
1035.85
1036.01
1039.75
1044.68
1049.68
1049.69
1063.05
1063.23
1073.55
1061.28
1088.41
1113.95
1163.19
1157.63
1165.05
1157.57
1134.12
1056.28
1012.2
980.481
973.795
951.077
937.76
936.448
931.187
927.509
951.511
1084.6
1117.52
1132.82
1154.03
1181.91
1213.46
1236.48
1245.32
1236.82
1228.58
1213.45
1205.49
1196.23
1179.32
1175.15
1157.28
1143.27
1135.14
1129.48
1119.69
1110.65
1121.52
1110.23
1116.83
1107.97
1109.82
1099.91
1098.74
1093.4
660.653
613.758
394.362
384.694
384.312
384.356
384.362
384.356
384.362
384.356
384.361
384.356
384.361
384.356
384.36
384.356
384.36
384.356
384.362
384.357
384.363
384.358
384.364
384.358
384.364
384.358
384.36
384.352
384.354
384.475
384.489
384.359
384.349
384.355
384.363
384.358
384.364
384.358
384.363
384.358
384.363
384.357
384.362
384.356
384.356
384.357
384.357
384.361
384.357
384.363
384.357
384.364
384.358
384.364
384.359
384.365
384.357
384.351
384.356
384.488
384.474
384.36
384.36
384.357
384.363
384.357
384.363
384.356
384.363
384.356
384.361
384.355
384.361
384.356
384.36
384.356
384.359
384.355
384.361
384.356
384.361
384.356
384.363
384.357
384.364
384.357
384.36
384.351
384.349
384.469
1264.04
1248.91
1218.82
1204.23
1204.2
1203.38
1190.47
1161.26
1138.53
1139.19
1144.35
1110.12
1014
944.176
1058.79
1094.77
1109.66
1115.07
1104.32
1083.23
1062.57
1058.96
1060.09
1061.23
1050.33
1034.13
1016.85
1020.02
1067.38
1136.53
1163.3
1164.65
1133.08
1039.43
948.042
886.493
863.453
866.722
892.216
908.248
898.173
899.8
937.919
963.291
1017.82
1006.8
1036.67
1083.56
1115.53
1131.15
1140.61
1146.98
1152.58
1156.94
1154.11
1151.08
1131.9
1113.08
1098.19
1089.16
1075.33
1070.14
1058.84
1052.51
1051.39
1043.9
1019.73
990.994
952.665
940.315
955.752
990.659
1030.32
1038.08
1098.57
1132.43
1132.37
1098.53
1064.18
1047.41
1019.48
983.019
965.549
967.174
972.139
981.067
987.156
984.66
978.848
967.635
966.264
981.271
1026.92
1071.41
1081.48
1077.33
1064.69
1052.03
1038.89
1031.11
1010.47
995.018
1001.14
1018.11
989.111
980.007
1007.91
1058.86
1087.17
1099.39
1095.88
1082.55
1067.13
1063.5
1070.27
1081.72
1072.77
1017.32
960.679
928.375
917.468
922.828
940.433
954.045
950.682
943.728
928.288
918.21
907.192
919.849
966.726
994.032
1008.07
1012.11
1103.98
1122.78
1087.2
1055.82
1036.93
1030.67
1004.57
977.563
966.265
989.503
1067.66
1131.94
1180.8
1197
1192.07
1199.32
1212.36
1228.26
1234.95
1231.06
1235.98
1250.28
1248.65
1232.7
1211.32
1188.74
1151.5
1093.06
933.565
852.674
1098.97
1131.89
1139.03
1138.05
1126.01
1110.3
1102.37
1090.39
1080.8
1069.72
1055.46
1045.85
1035.01
1035.81
1036.21
1042.98
1041.76
1085.42
1104.98
1126.97
1129.73
1128.35
1123.44
1113.87
1104.82
1081.46
1105.16
1139.73
1146.17
1088.25
1097.53
1169.34
1133.85
1064.72
1050.59
1074.62
1095.38
1135.43
1188.54
1222.59
1239.33
1229.46
1218.38
1178.9
1171.4
1155.55
1147.14
1152.83
1152.03
1176.42
1191.07
1218.64
1222.76
1215.11
1183.86
1140.74
1113.24
1105.68
1097.81
1100.87
925.488
1001.77
1029.51
1035.25
1031.74
1033
1038.8
1038.17
1038.64
1049.87
1052.08
1063.35
1083.82
1080.16
1099.69
1132.92
1169.36
1189.53
1192.08
1183.3
1187.07
1175.58
1118.04
1081.96
1030.25
1012.91
986.307
962.944
949.401
918.914
930.767
1089.92
1126.39
1134.69
1144.56
1175.14
1203.12
1237.6
1255.82
1253.69
1237.37
1232.36
1221.75
1209.78
1188.92
1154.72
1154.49
1151.16
1144.6
1134.76
1132.45
1139.07
1132.82
1133.71
1136.56
1128.93
1134.25
1139.82
1146.3
1146.74
1096.12
1106.09
703.923
399.374
395.114
394.643
394.691
394.689
394.691
394.69
394.692
394.691
394.692
394.691
394.692
394.691
394.692
394.691
394.693
394.691
394.693
394.691
394.693
394.691
394.691
394.685
394.68
394.67
394.674
394.838
394.851
394.678
394.668
394.678
394.686
394.688
394.692
394.691
394.693
394.691
394.693
394.691
394.693
394.691
394.689
394.69
394.691
394.693
394.691
394.693
394.691
394.693
394.691
394.693
394.69
394.689
394.681
394.669
394.675
394.85
394.84
394.679
394.675
394.68
394.687
394.688
394.692
394.69
394.692
394.691
394.692
394.691
394.693
394.692
394.694
394.692
394.692
394.691
394.693
394.692
394.693
394.691
394.693
394.69
394.691
394.683
394.675
394.656
394.636
394.798
1262.52
1209.92
1164.85
1160.38
1175.18
1177.85
1156.27
1110.1
1059.92
1059.01
1106.91
1116.45
1055.67
964.995
966.489
1018.78
1031.28
1090.61
1115.37
1109.78
1097.25
1063.59
1050.23
1053.03
1069.39
1074.32
1068.68
1057.01
1057.06
1088.49
1137.65
1164.4
1168.67
1148.39
1065.93
953.493
891.571
872.415
898.497
953.823
995.996
1004.33
997.006
953.514
940.845
948.678
942.958
959.411
978.575
1012.86
1064.63
1108.88
1131.21
1142.66
1148.04
1150.14
1147.59
1143.18
1122.31
1098.03
1075.67
1054.93
1055.16
1047.56
1031.51
1015.51
997.298
986.373
973.577
968.072
961.013
955.206
958.997
967.899
990.124
1030.45
1048.03
1050.34
1059.85
1075.49
1107.81
1132.69
1115.37
1079.25
1054.13
1042.65
1005.88
971.56
957.511
957.556
960.818
961.748
961.944
966.375
979.899
1015.75
1061.47
1081.69
1093.13
1090.64
1076.62
1055.9
1031.34
1012.88
1005.16
1001.88
1000.05
989.628
994.073
1006.57
981.211
981.74
981.105
989.112
1038.49
1078.45
1098.53
1104.06
1095.86
1081.26
1070.09
1075.84
1086.38
1091.53
1070.95
1000.22
942.696
913.677
903.705
905.767
922.769
935.605
946.848
939.727
930.592
917.35
915.61
951.133
981.522
1024.62
1053.11
1097.84
1138.3
1135.88
1120.05
1091.71
1061.01
1043.91
1036.94
1020.71
1014.79
1006.94
1020.11
1068.99
1117.62
1166.66
1191.31
1188.18
1180.47
1186.75
1203.41
1222.92
1225.88
1203.79
1189.24
1203.03
1210.65
1198.6
1177.68
1166.27
1142.35
1126.54
1075.69
948.363
1052.7
1084.57
1106.07
1127.05
1132.76
1135.39
1127.71
1120.93
1114.11
1112.94
1109.16
1102.39
1095.03
1086.55
1081.6
1073.42
1078.96
1067.68
1098.36
1108.22
1123.82
1124.61
1134.51
1128.77
1124.07
1132.94
1099.83
1091.9
1144.26
1173.54
1188.24
1162.73
1143.89
1140.82
1152.48
1153.88
1101.96
1079.64
1077.13
1104.19
1143.4
1179.92
1207.96
1214.37
1205.61
1198.23
1178.62
1190.15
1165.17
1164.2
1142.44
1128.06
1143.16
1137.8
1169.94
1178.15
1222.72
1231.48
1244.52
1224.07
1189.72
1155.58
1133.99
1095.2
1058.21
1017.1
927.453
959.913
1034.52
1027.05
1033.58
1026.37
1031.08
1026.34
1033.2
1033.4
1034.6
1056.52
1057.52
1092.88
1110.28
1141.09
1198.92
1220.96
1209.17
1200.19
1192.34
1192.48
1192.78
1160.07
1130.66
1061.13
1024.31
1009.02
952.663
921.517
884.174
946.911
936.885
1069.06
1127.37
1125.52
1143.93
1145.26
1189.05
1212.36
1233.84
1233.06
1237.48
1231.34
1211.43
1196.41
1168.76
1178.84
1161.82
1151.72
1148.62
1151.71
1151.71
1153.98
1148.34
1155.19
1149.92
1156.16
1147.77
1160.37
1163.03
1170.2
1166.1
1163.63
1155.8
1161.69
1142.58
674.623
410.075
410.721
410.403
410.436
410.438
410.436
410.439
410.439
410.441
410.44
410.441
410.44
410.441
410.44
410.441
410.438
410.44
410.438
410.44
410.436
410.434
410.427
410.422
410.42
410.491
411.256
412.006
412.006
411.263
410.494
410.416
410.419
410.427
410.431
410.437
410.437
410.439
410.438
410.44
410.439
410.441
410.44
410.438
410.439
410.44
410.441
410.439
410.44
410.437
410.439
410.437
410.438
410.432
410.43
410.423
410.419
410.492
411.263
412.005
412.005
411.257
410.498
410.425
410.421
410.428
410.43
410.437
410.435
410.438
410.435
410.437
410.436
410.438
410.438
410.44
410.439
410.441
410.439
410.44
410.437
410.438
410.434
410.436
410.429
410.429
410.421
410.416
410.414
410.487
411.25
411.957
411.393
1246.02
1182.51
1132.59
1128.54
1145.63
1133.29
1080.79
1036.06
1024.42
1022.32
1052.43
1096.14
1076.5
996.631
971.76
992.798
990.881
1072.74
1122.38
1123.29
1094.47
1056.76
1040.13
1064.15
1098.74
1118.74
1122.85
1124.66
1135.91
1154.16
1169.91
1177.38
1149
1083.83
964.996
904.74
894.022
936.139
1007.77
1049.49
1059.01
1057.19
1046.54
1035.4
999.297
974.336
964.361
979.539
1011.95
1057.94
1092.8
1112.18
1123.36
1127.29
1123.63
1114.41
1086.24
1053.51
1030.84
1022.77
1018.36
1009.06
995.963
976.818
963.726
960.962
967.371
975.914
985.432
994.581
991.473
999.129
992.499
994.001
1018.99
1048.97
1066.05
1078.97
1094.04
1107.29
1124.72
1124.26
1094.22
1063.17
1053.51
1037.5
1000.11
971.588
958.89
965.862
982.423
1003.8
1031.92
1065.64
1084.46
1097.34
1110.65
1107.68
1094.83
1075.14
1057.27
1035.97
1015.12
1001.88
990.274
986.636
985.321
982.734
988.657
991.949
983.902
983.272
997.598
1030.49
1072.94
1095.82
1107.63
1107.14
1095.06
1080.56
1074.25
1082.57
1098.65
1100.37
1080.34
1018.24
951.164
916.855
899.936
907.147
917.675
931.203
938.168
941.298
929.255
929.41
946.199
982.175
1053.49
1123.73
1132.2
1142.01
1140.34
1121.92
1096.61
1067.87
1043.28
1033.8
1024.58
1035.29
1037.51
1054.41
1075.34
1105.29
1145.93
1175.8
1183.85
1173.7
1169.83
1178.6
1195.49
1217.04
1218.32
1174.01
1137.55
1125.59
1116.96
1101.33
1087.85
1088.55
1088.53
1104.83
1099.04
1016.69
1060.02
1097.54
1107.81
1116.57
1121.95
1130.38
1132.42
1125.06
1123.91
1128.13
1132.3
1134.77
1134.42
1134.84
1133.29
1130.77
1134.61
1118.42
1141.74
1134.23
1142.09
1143.12
1137.95
1127.79
1140.9
1148.02
1120.74
1103.07
1140.2
1182.86
1208.8
1202.53
1179.23
1166.56
1157.8
1131.95
1102.68
1095.38
1107.46
1139.17
1181.02
1206.08
1213.03
1202.3
1184.6
1169.65
1177.77
1160.69
1173.35
1144.66
1156.01
1098.79
1107.73
1128.38
1122.28
1148.54
1167.97
1207.7
1232.66
1252.58
1241.41
1211.01
1164.91
1137.33
1089.47
1056.96
948.188
949.992
1030.12
1032.38
1024.34
1029.34
1023.76
1030.33
1016.98
1025.47
1032.08
1033.69
1053.11
1074.82
1110.08
1126.54
1177.7
1234.78
1252.11
1229.15
1212.69
1203.72
1207.35
1211.04
1192.72
1172.76
1147.13
1106.83
1017.57
976.747
886.129
964.59
1063.83
1134.23
1138.69
1138.13
1125.09
1164.83
1173.69
1193.28
1201.79
1220.86
1228.28
1203.16
1212.87
1198.63
1186.93
1161.39
1162.39
1160.6
1167.51
1163.01
1170.85
1165.68
1173.35
1167.93
1175.78
1169.31
1178.92
1169.98
1183.62
1188.91
1184.16
1190.07