/*--------------------------------*- C++ -*----------------------------------*\
| =========                 |                                                 |
| \\      /  F ield         | OpenFOAM: The Open Source CFD Toolbox           |
|  \\    /   O peration     | Version:  2.1.1                                 |
|   \\  /    A nd           | Web:      www.OpenFOAM.org                      |
|    \\/     M anipulation  |                                                 |
\*---------------------------------------------------------------------------*/
FoamFile
{
    version     2.0;
    format      ascii;
    class       volScalarField;
    location    "0.003200000";
    object      HO2;
}
// * * * * * * * * * * * * * * * * * * * * * * * * * * * * * * * * * * * * * //

dimensions      [0 0 0 0 0 0 0];

internalField   nonuniform List<scalar> 
12384
(
1.41638e-05
1.43199e-05
1.40279e-05
1.27094e-05
1.11617e-05
9.60005e-06
6.77931e-06
4.98735e-06
3.51497e-06
4.50466e-06
5.35618e-06
4.83316e-06
3.15484e-06
3.81844e-06
4.11911e-06
4.34481e-06
5.5989e-06
7.13007e-06
7.65096e-06
7.61921e-06
7.41524e-06
7.34988e-06
7.7793e-06
7.15702e-06
7.81225e-06
8.0416e-06
8.86391e-06
9.27659e-06
1.01121e-05
9.5816e-06
9.49509e-06
9.12632e-06
6.52279e-06
5.35156e-06
3.25272e-06
2.51679e-06
2.39463e-06
2.61812e-06
3.3248e-06
4.83718e-06
5.62153e-06
3.61325e-06
2.24839e-06
2.38582e-06
5.66539e-06
5.20111e-06
5.50798e-06
5.8112e-06
5.51527e-06
5.82752e-06
5.39495e-06
4.94283e-06
4.11144e-06
3.20884e-06
2.2731e-06
1.79016e-06
1.47591e-06
1.23409e-06
1.13121e-06
1.19671e-06
1.18979e-06
1.27146e-06
1.33315e-06
1.44115e-06
1.48418e-06
1.94495e-06
3.00271e-06
5.32077e-06
5.23546e-06
4.17561e-06
3.66552e-06
4.13357e-06
5.33916e-06
5.00415e-06
1.64438e-06
1.22372e-06
1.41854e-06
1.25431e-06
1.06662e-06
7.76677e-07
5.31851e-07
6.49534e-07
6.69873e-07
1.25472e-06
1.30163e-06
1.48997e-06
1.84863e-06
1.52431e-06
1.78418e-06
1.54757e-06
1.43232e-06
1.45702e-06
1.22278e-06
9.47885e-07
5.47554e-07
2.222e-07
1.9117e-07
2.00912e-07
3.76801e-07
1.2744e-06
5.7691e-06
4.73535e-06
5.60375e-06
5.29357e-06
4.74134e-06
1.87732e-06
1.31346e-06
1.13588e-06
9.69948e-07
8.67856e-07
7.01068e-07
6.78712e-07
2.2187e-07
2.19641e-07
1.97645e-07
2.16202e-07
4.30814e-07
6.59393e-07
8.82218e-07
1.05903e-06
1.20341e-06
1.26792e-06
1.40991e-06
1.54832e-06
2.32123e-06
2.75806e-06
3.81925e-06
4.23682e-06
5.37843e-06
3.903e-06
3.44218e-06
4.81008e-06
5.54879e-06
5.05769e-06
5.97504e-06
6.02426e-06
6.24561e-06
6.16288e-06
5.3478e-06
4.55378e-06
3.22651e-06
2.15125e-06
1.28699e-06
1.03074e-06
1.02646e-06
1.83229e-06
3.98253e-06
5.64067e-06
5.41421e-06
3.60758e-06
2.92791e-06
3.07507e-06
3.02001e-06
3.04092e-06
3.04607e-06
3.28904e-06
3.52819e-06
3.93923e-06
4.43803e-06
5.04116e-06
5.42242e-06
5.58417e-06
5.53452e-06
1.24557e-06
4.56156e-06
5.08048e-06
4.99046e-06
1.35791e-06
1.83584e-07
3.27576e-08
1.55028e-08
5.57498e-09
4.39688e-09
3.60228e-09
1.87183e-09
1.93267e-09
1.79704e-09
2.19969e-09
3.13102e-09
5.62097e-09
1.24333e-08
4.47409e-08
2.06887e-07
4.58619e-06
4.63359e-06
2.57041e-06
1.70594e-06
4.77109e-07
1.48913e-07
6.69531e-08
3.06662e-08
1.37368e-08
3.35678e-09
3.09138e-10
4.77594e-06
5.36623e-06
5.60702e-06
6.48516e-06
9.85339e-06
1.04632e-05
9.81092e-06
1.23504e-05
1.19146e-05
1.18671e-05
1.07375e-05
9.06896e-06
7.14515e-06
6.63837e-06
4.94414e-06
2.44765e-06
2.54545e-06
2.23344e-06
2.32152e-06
2.04507e-06
2.11323e-06
2.11744e-06
2.4289e-06
2.83287e-06
3.71763e-06
5.04184e-06
7.15483e-06
9.71221e-06
1.23801e-05
1.32798e-05
3.8965e-06
3.00639e-06
2.61796e-06
2.42602e-06
2.18014e-06
2.00142e-06
2.01485e-06
2.0335e-06
2.14402e-06
2.04474e-06
2.16687e-06
2.26857e-06
2.1012e-06
2.44295e-06
2.84972e-06
5.74919e-06
9.45624e-06
1.01341e-05
1.02624e-05
1.19769e-05
1.18397e-05
1.19872e-05
1.25031e-05
1.20959e-05
1.22376e-05
1.10673e-05
1.22509e-05
8.2768e-06
9.83461e-06
1.07715e-05
4.45251e-06
4.39826e-06
4.59704e-06
4.82967e-06
5.36379e-06
5.24891e-06
5.77292e-06
5.56267e-06
6.27138e-06
6.04789e-06
6.87776e-06
6.43035e-06
8.25122e-06
7.05693e-06
9.74644e-06
8.82993e-06
1.17161e-05
1.01817e-05
1.33564e-05
1.2799e-05
1.60484e-05
1.59286e-05
1.81117e-05
1.94441e-05
1.80061e-05
1.40856e-05
1.25566e-05
4.88227e-06
1.59052e-06
9.39057e-11
3.27436e-34
2.08304e-35
9.61348e-39
8.33922e-43
5.66176e-47
3.38161e-51
1.86143e-55
9.99353e-60
5.41868e-64
2.94552e-68
1.55684e-72
7.80089e-77
3.66026e-81
1.60248e-85
6.55783e-90
2.51701e-94
9.10495e-99
3.11918e-103
1.01699e-107
3.16981e-112
9.48665e-117
2.74182e-121
7.71494e-126
2.13889e-130
5.94502e-135
1.69313e-139
5.04428e-144
1.58899e-148
5.21146e-153
1.54822e-157
2.64204e-174
1.72673e-177
6.10306e-182
2.53497e-186
1.02809e-190
3.68331e-195
1.16007e-199
3.06616e-204
6.99751e-209
1.40738e-213
2.54544e-218
4.20506e-223
6.44183e-228
9.25061e-233
1.25961e-237
1.63991e-242
2.0571e-247
2.5047e-252
2.97345e-257
3.46027e-262
3.95459e-267
4.45366e-272
4.94652e-277
5.42993e-282
5.89139e-287
6.32814e-292
6.72636e-297
7.08101e-302
6.98274e-307
2.21668e-312
0
0
0
0
0
0
0
0
0
0
0
0
0
0
0
0
0
0
0
0
0
0
0
0
0
0
0
0
0
0
1.59472e-05
1.66411e-05
1.77009e-05
1.64395e-05
1.64456e-05
1.47974e-05
1.21756e-05
8.46211e-06
4.29027e-06
2.81926e-06
4.78204e-06
5.28967e-06
3.76845e-06
4.02013e-06
3.2042e-06
8.78397e-06
1.41065e-05
1.42907e-05
1.31517e-05
1.2451e-05
1.10171e-05
1.02217e-05
8.10283e-06
7.27346e-06
5.69347e-06
5.40306e-06
5.069e-06
5.48618e-06
6.85072e-06
1.05115e-05
1.23604e-05
1.31515e-05
1.04318e-05
7.61315e-06
4.15544e-06
2.68221e-06
2.28813e-06
2.68023e-06
3.62514e-06
5.275e-06
5.22662e-06
2.88647e-06
2.33305e-06
2.49711e-06
5.64616e-06
5.39135e-06
6.2035e-06
6.55855e-06
6.98775e-06
7.54544e-06
7.59957e-06
6.99842e-06
4.97077e-06
3.38168e-06
2.00744e-06
1.14092e-06
8.37341e-07
7.24337e-07
6.36196e-07
5.16128e-07
9.77449e-07
1.14162e-06
1.36028e-06
2.43075e-06
2.86105e-06
2.77168e-06
2.94435e-06
5.14355e-06
5.21662e-06
3.94145e-06
3.91791e-06
4.9087e-06
5.55235e-06
4.63425e-06
2.05253e-06
1.21585e-06
1.4278e-06
1.14105e-06
7.51216e-07
6.53995e-07
1.09924e-06
2.4231e-06
3.85347e-06
4.28318e-06
4.49098e-06
4.89136e-06
4.94106e-06
4.95644e-06
4.96317e-06
4.94166e-06
4.90363e-06
4.73996e-06
4.58366e-06
4.10809e-06
2.92867e-06
1.51578e-06
1.02167e-06
7.31983e-07
8.13437e-07
2.34939e-06
5.80218e-06
4.65986e-06
5.57608e-06
5.22475e-06
5.21544e-06
2.88634e-06
2.30416e-06
1.25211e-06
8.7127e-07
5.4087e-07
2.03598e-07
1.47609e-07
9.11032e-08
9.14312e-08
1.80796e-07
6.66825e-07
2.69765e-06
4.56176e-06
5.46582e-06
5.52877e-06
5.51353e-06
5.504e-06
5.3793e-06
5.3615e-06
5.20052e-06
5.1596e-06
5.13731e-06
5.13564e-06
4.98527e-06
3.72547e-06
3.56961e-06
4.83004e-06
5.56253e-06
4.87617e-06
5.80071e-06
6.07715e-06
5.98843e-06
2.67221e-06
1.06587e-06
1.01184e-06
1.25623e-06
1.30394e-06
1.48548e-06
4.48894e-06
5.73268e-06
4.57808e-06
4.19013e-06
3.81711e-06
3.22034e-06
2.82325e-06
2.60778e-06
2.75498e-06
2.97982e-06
3.22938e-06
3.37038e-06
2.91057e-06
2.85342e-06
2.85248e-06
3.56019e-06
4.12988e-06
4.67199e-06
5.16352e-06
5.48934e-06
1.13761e-06
5.00574e-06
5.4141e-06
2.67954e-06
5.25771e-08
3.37984e-09
6.26075e-10
1.53088e-10
4.10598e-11
2.66775e-11
2.18028e-11
2.09183e-11
2.07261e-11
2.87667e-11
4.69983e-11
1.49774e-10
4.45926e-10
2.16526e-09
1.47759e-08
1.20283e-07
4.56837e-06
4.05656e-06
2.59102e-06
2.00319e-06
3.26538e-06
1.25389e-06
1.03598e-06
5.86307e-07
4.84913e-07
2.40028e-07
2.34214e-08
4.65155e-06
5.52715e-06
7.01227e-06
4.16938e-06
1.04281e-06
2.39574e-06
4.56821e-06
8.21163e-06
1.04153e-05
9.06595e-06
9.1888e-06
8.11031e-06
6.8209e-06
4.84998e-06
3.21289e-06
2.59105e-06
2.60927e-06
2.94088e-06
3.07598e-06
3.31496e-06
3.12169e-06
3.05936e-06
2.63984e-06
3.38033e-06
4.25244e-06
5.50862e-06
7.20797e-06
9.82683e-06
1.20574e-05
1.2611e-05
3.83263e-06
3.01027e-06
2.94574e-06
2.81682e-06
2.58921e-06
2.62364e-06
2.21685e-06
2.1172e-06
2.248e-06
1.94604e-06
1.73741e-06
1.65877e-06
1.41328e-06
1.29699e-06
1.3055e-06
4.60676e-06
6.20189e-06
6.55017e-06
7.60222e-06
8.54964e-06
1.09404e-05
1.27364e-05
1.35867e-05
1.41987e-05
1.35384e-05
1.28501e-05
1.3291e-05
1.35264e-05
1.39695e-05
1.27541e-05
2.41526e-06
2.49014e-06
2.27536e-06
1.89774e-06
1.67888e-06
1.73088e-06
1.61041e-06
1.84279e-06
1.9497e-06
2.27802e-06
2.05825e-06
2.00772e-06
2.23341e-06
2.45073e-06
3.45215e-06
3.25858e-06
4.99794e-06
5.21434e-06
6.78549e-06
8.19599e-06
9.55881e-06
1.18209e-05
1.21633e-05
1.43874e-05
1.21395e-05
1.57699e-05
1.46788e-05
1.7964e-05
9.39189e-06
9.41116e-08
7.98125e-30
1.06213e-30
7.85108e-34
5.35219e-38
2.8144e-42
1.3879e-46
6.54859e-51
2.97055e-55
1.35157e-59
6.34677e-64
3.08728e-68
1.50219e-72
7.12075e-77
3.20928e-81
1.3685e-85
5.49268e-90
2.08834e-94
7.5231e-99
2.59076e-103
8.52696e-108
2.70291e-112
8.25058e-117
2.45533e-121
7.15404e-126
2.08072e-130
6.11731e-135
1.86076e-139
5.90441e-144
1.88799e-148
3.90013e-153
1.95067e-169
6.01041e-172
1.99338e-176
8.20699e-181
3.30705e-185
1.17439e-189
3.72109e-194
9.77225e-199
2.22479e-203
4.47021e-208
8.12837e-213
1.34959e-217
2.08625e-222
3.01625e-227
4.13435e-232
5.39986e-237
6.771e-242
8.23352e-247
9.73023e-252
1.12984e-256
1.28434e-261
1.44238e-266
1.59309e-271
1.74462e-276
1.88354e-281
2.02038e-286
2.13911e-291
2.25042e-296
2.22568e-301
7.75366e-307
0
0
0
0
0
0
0
0
0
0
0
0
0
0
0
0
0
0
0
0
0
0
0
0
0
0
0
0
0
0
1.94503e-05
1.84502e-05
1.20717e-05
9.51811e-06
7.74648e-06
7.55198e-06
1.1069e-05
1.47466e-05
9.66714e-06
3.9983e-06
2.85032e-06
5.12433e-06
4.92802e-06
5.0116e-06
3.88049e-06
1.45407e-05
1.47988e-05
1.26713e-05
1.09475e-05
9.70306e-06
9.1138e-06
9.1909e-06
9.66567e-06
1.0122e-05
9.77089e-06
8.63959e-06
6.74135e-06
4.65124e-06
3.39468e-06
2.86193e-06
3.63917e-06
7.24975e-06
1.16006e-05
1.06001e-05
5.1094e-06
2.9777e-06
2.18217e-06
2.63524e-06
3.70764e-06
5.33088e-06
5.15055e-06
3.27717e-06
2.8315e-06
3.21549e-06
5.6367e-06
5.78461e-06
6.56715e-06
7.12885e-06
7.40543e-06
7.93605e-06
8.72693e-06
8.64526e-06
7.66753e-06
4.50986e-06
2.49246e-06
1.14556e-06
7.17403e-07
4.32521e-07
3.91542e-07
3.25412e-07
3.23256e-07
3.99487e-07
5.58623e-07
1.7332e-06
3.65686e-06
4.22346e-06
3.90002e-06
5.19245e-06
5.20492e-06
4.0677e-06
4.31878e-06
5.4032e-06
5.33026e-06
4.38943e-06
2.25008e-06
1.23849e-06
1.2981e-06
9.09305e-07
7.55339e-07
1.17634e-06
3.22024e-06
4.48459e-06
4.69776e-06
5.12803e-06
5.36146e-06
5.5371e-06
5.54008e-06
5.49053e-06
5.50868e-06
5.41165e-06
5.38417e-06
5.36041e-06
5.44258e-06
5.47213e-06
5.27227e-06
4.62051e-06
3.25668e-06
2.12107e-06
2.54125e-06
5.17085e-06
5.22192e-06
4.54338e-06
5.66971e-06
5.15826e-06
5.51744e-06
4.53763e-06
4.08856e-06
2.02995e-06
9.78347e-07
2.24488e-07
1.24495e-07
5.16541e-08
4.86972e-08
1.48418e-07
2.57e-06
5.64981e-06
5.19421e-06
4.66581e-06
4.17021e-06
3.8371e-06
3.65223e-06
3.50236e-06
3.45504e-06
3.46529e-06
3.7854e-06
4.25056e-06
4.71921e-06
4.70018e-06
4.14754e-06
3.31034e-06
3.78705e-06
5.32189e-06
5.23425e-06
4.75815e-06
5.78156e-06
6.63893e-06
1.46107e-06
1.0029e-07
9.12586e-08
1.94708e-07
8.51254e-07
1.48402e-06
4.71653e-06
5.57909e-06
3.9024e-06
3.02724e-06
2.66917e-06
2.3164e-06
2.43581e-06
2.76905e-06
3.73185e-06
5.54241e-06
5.08712e-06
2.5541e-06
1.53213e-06
5.52718e-06
5.19077e-06
2.93795e-06
2.04013e-06
2.05253e-06
3.35393e-06
4.25728e-06
4.35229e-06
7.37982e-07
5.0621e-06
5.27841e-06
1.6038e-07
1.77216e-09
1.40985e-10
2.16145e-11
8.59431e-12
8.06345e-12
7.74765e-12
9.0118e-12
9.41638e-12
1.00506e-11
1.0544e-11
1.87831e-11
3.05346e-11
8.70856e-11
6.36187e-10
4.48028e-09
9.8662e-08
4.45451e-06
4.35621e-06
2.71064e-06
2.04618e-06
2.78233e-06
3.65536e-06
2.92096e-06
1.54156e-06
1.1377e-06
1.52037e-06
1.30723e-07
4.63731e-06
6.46437e-06
7.59097e-07
4.31774e-08
3.9972e-08
9.16845e-07
6.48329e-06
8.57593e-06
7.85678e-06
6.97892e-06
6.1122e-06
5.31485e-06
3.92324e-06
3.46657e-06
3.64723e-06
4.038e-06
4.78911e-06
5.52597e-06
6.26065e-06
5.87958e-06
6.17079e-06
5.7142e-06
4.46357e-06
3.16391e-06
4.22028e-06
4.96639e-06
6.41188e-06
7.93309e-06
1.05571e-05
1.06181e-05
3.78648e-06
3.46574e-06
3.8028e-06
4.10922e-06
4.74572e-06
4.87754e-06
4.63991e-06
4.65329e-06
4.6033e-06
3.80941e-06
4.56875e-06
3.13676e-06
3.26646e-06
2.2321e-06
2.10644e-06
3.27008e-06
6.21457e-06
6.3575e-06
5.11575e-06
4.7302e-06
6.13019e-06
7.3346e-06
8.85757e-06
8.85321e-06
7.49115e-06
5.87622e-06
6.66621e-06
7.99674e-06
1.16955e-05
1.47891e-05
1.15055e-06
1.39314e-06
1.38573e-06
1.57298e-06
1.47094e-06
1.89805e-06
2.4364e-06
2.54319e-06
2.31903e-06
2.0647e-06
1.62224e-06
1.65658e-06
1.20987e-06
1.24912e-06
1.47636e-06
1.31838e-06
1.72382e-06
1.6014e-06
2.09808e-06
1.91953e-06
2.45927e-06
1.86497e-06
2.3468e-06
1.17128e-06
1.73847e-06
6.36247e-07
1.20492e-06
5.58685e-07
1.01018e-07
2.89489e-08
3.66707e-28
1.83798e-28
2.7125e-31
1.59221e-35
6.45201e-40
2.43624e-44
9.01108e-49
3.26406e-53
1.15648e-57
4.17472e-62
1.59314e-66
6.54958e-71
2.83611e-75
1.24793e-79
5.33239e-84
2.18192e-88
8.4296e-93
3.10575e-97
1.09687e-101
3.78352e-106
1.26249e-110
4.10849e-115
1.31512e-119
4.20026e-124
1.34862e-128
4.43528e-133
1.49342e-137
5.17142e-142
1.55472e-146
3.57486e-152
2.37696e-167
1.45909e-169
1.33889e-173
6.12973e-178
2.48457e-182
8.72293e-187
2.76601e-191
7.05554e-196
1.54055e-200
2.99507e-205
5.27004e-210
8.57668e-215
1.30726e-219
1.88048e-224
2.53771e-229
3.21477e-234
3.85849e-239
4.42279e-244
4.95773e-249
5.47368e-254
5.96062e-259
6.38374e-264
6.76504e-269
7.08176e-274
7.34134e-279
7.54646e-284
7.7006e-289
7.7621e-294
6.9989e-299
1.0595e-304
0
0
0
0
0
0
0
0
0
0
0
0
0
0
0
0
0
0
0
0
0
0
0
0
0
0
0
0
0
0
1.16683e-05
6.42749e-06
1.15042e-06
5.40801e-07
3.2204e-07
3.33368e-07
5.73589e-07
1.44543e-06
8.72466e-06
1.0064e-05
3.46526e-06
3.33237e-06
5.30583e-06
5.28645e-06
9.5898e-06
1.27423e-05
1.20267e-05
1.08244e-05
9.48903e-06
8.37058e-06
7.27746e-06
6.5658e-06
5.90704e-06
6.07867e-06
6.17439e-06
7.17339e-06
8.22443e-06
9.49269e-06
7.68267e-06
3.3348e-06
1.92347e-06
1.96386e-06
5.80978e-06
1.15601e-05
6.98381e-06
3.37902e-06
2.17452e-06
2.34155e-06
2.99624e-06
4.26681e-06
5.57711e-06
5.0303e-06
4.04915e-06
5.07094e-06
5.64309e-06
5.71286e-06
6.2373e-06
6.27211e-06
6.65365e-06
7.17335e-06
7.72058e-06
8.54294e-06
8.29068e-06
6.69422e-06
3.28766e-06
1.25676e-06
5.19229e-07
3.16903e-07
1.72378e-07
1.50792e-07
1.2651e-07
1.42716e-07
1.83441e-07
6.00824e-07
3.30024e-06
4.90298e-06
4.65424e-06
5.30528e-06
5.3106e-06
4.11681e-06
4.4948e-06
5.49123e-06
5.25284e-06
4.50486e-06
2.46772e-06
1.22557e-06
1.16183e-06
7.99471e-07
8.9202e-07
2.67244e-06
4.45156e-06
4.99996e-06
5.49083e-06
5.72427e-06
5.5857e-06
5.51945e-06
5.48608e-06
5.52791e-06
5.55605e-06
5.54766e-06
5.5593e-06
5.56131e-06
5.58536e-06
5.61194e-06
5.61003e-06
5.58152e-06
5.23933e-06
5.27123e-06
5.69846e-06
5.23244e-06
4.35609e-06
4.74203e-06
5.8488e-06
4.90375e-06
5.77321e-06
5.53153e-06
5.38798e-06
3.66771e-06
1.26596e-06
2.07539e-07
5.23126e-08
3.68272e-08
8.3497e-08
1.45375e-06
5.70483e-06
5.11789e-06
4.82143e-06
4.77034e-06
4.90607e-06
4.95417e-06
4.69568e-06
4.24052e-06
3.62403e-06
3.35402e-06
3.24563e-06
3.20886e-06
3.53445e-06
3.73383e-06
3.13133e-06
2.93952e-06
4.29814e-06
5.63241e-06
5.18547e-06
4.97905e-06
5.63099e-06
6.3199e-06
8.415e-08
2.08445e-08
4.99215e-08
1.95088e-07
1.09188e-06
3.36129e-06
5.88987e-06
4.37333e-06
2.98797e-06
2.53178e-06
2.52844e-06
3.00957e-06
4.68584e-06
5.04681e-06
8.13629e-08
1.39802e-08
1.20562e-08
1.06555e-08
1.04061e-08
1.00571e-08
1.5483e-08
1.42309e-06
4.57871e-06
2.10455e-06
1.76113e-06
2.62588e-06
3.03744e-06
5.79231e-07
5.85492e-06
2.20528e-07
1.26098e-09
5.6888e-11
1.0288e-11
7.41999e-12
8.30007e-12
2.0979e-11
3.24075e-11
6.00528e-11
5.75868e-11
4.86835e-11
2.93698e-11
2.77141e-11
3.2591e-11
1.31053e-10
5.70267e-10
8.21385e-09
1.93894e-07
6.27795e-06
4.90241e-06
3.29453e-06
3.91745e-06
6.18347e-06
5.67376e-06
6.26884e-06
4.21772e-06
1.75949e-06
5.41981e-07
3.74238e-07
4.37733e-06
6.68756e-06
2.30794e-08
7.05375e-09
1.55035e-07
6.72821e-06
6.7131e-06
5.95359e-06
5.0164e-06
4.18855e-06
4.17573e-06
4.57241e-06
5.20675e-06
5.96191e-06
6.14116e-06
6.13863e-06
5.57746e-06
5.57534e-06
4.38567e-06
5.81139e-06
3.73959e-06
6.29875e-06
6.59686e-06
5.82118e-06
4.31317e-06
3.92332e-06
4.61388e-06
6.23247e-06
7.13872e-06
8.74626e-06
3.60909e-06
4.19432e-06
5.42816e-06
4.95426e-06
1.23346e-06
6.31029e-07
1.92563e-07
1.02581e-07
1.93455e-07
1.5221e-07
1.92508e-07
7.74173e-07
1.41189e-06
4.06284e-06
5.51246e-06
5.64511e-06
9.3603e-06
8.25701e-06
5.61101e-06
5.0786e-06
3.6615e-06
4.16313e-06
4.20003e-06
4.13413e-06
4.07239e-06
2.81128e-06
3.08328e-06
4.15561e-06
6.76918e-06
1.11199e-05
8.63349e-07
1.8066e-06
2.83074e-06
4.30689e-06
4.77661e-06
6.9067e-06
8.31116e-06
1.02764e-05
1.02464e-05
9.17238e-06
6.33748e-06
4.65714e-06
3.8565e-06
3.41961e-06
3.47952e-06
3.89266e-06
4.50249e-06
5.00224e-06
6.4614e-06
7.22038e-06
8.31201e-06
7.02356e-06
6.75832e-06
5.44559e-06
3.37361e-06
2.95408e-06
1.20681e-06
7.79922e-07
8.72198e-07
1.36375e-06
5.30764e-23
8.38826e-24
1.46975e-26
8.02944e-31
2.93705e-35
9.91055e-40
3.31152e-44
1.11916e-48
3.72938e-53
1.25712e-57
4.43403e-62
1.70885e-66
7.07213e-71
3.05965e-75
1.32111e-79
5.61421e-84
2.29671e-88
9.07992e-93
3.4287e-97
1.24998e-101
4.36304e-106
1.48111e-110
4.88325e-115
1.59868e-119
5.21144e-124
1.73248e-128
5.86105e-133
2.04249e-137
6.64119e-142
4.31004e-147
8.00015e-162
7.63728e-165
5.79401e-169
3.08606e-173
1.20823e-177
4.03353e-182
1.2587e-186
2.99445e-191
5.97565e-196
1.06852e-200
1.73755e-205
2.64571e-210
3.75708e-215
5.06483e-220
6.45974e-225
7.89961e-230
9.32032e-235
1.05949e-239
1.17932e-244
1.27871e-249
1.36873e-254
1.4353e-259
1.4945e-264
1.53126e-269
1.56347e-274
1.57532e-279
1.58435e-284
1.57233e-289
1.48218e-294
5.41258e-300
6.86751e-322
0
0
0
0
0
0
0
0
0
0
0
0
0
0
0
0
0
0
0
0
0
0
0
0
0
0
0
0
0
9.71193e-07
4.70483e-07
8.38926e-08
4.73292e-08
4.90121e-08
7.27404e-08
1.368e-07
3.06616e-07
1.06774e-06
7.07199e-06
8.75844e-06
2.75652e-06
4.18522e-06
5.38245e-06
1.16259e-05
1.02819e-05
1.03865e-05
1.04082e-05
9.95758e-06
9.10203e-06
8.34705e-06
7.61984e-06
6.85517e-06
5.99061e-06
5.77394e-06
5.39336e-06
5.41105e-06
5.55602e-06
8.20679e-06
7.59287e-06
1.82009e-06
1.30137e-06
2.59414e-06
1.08283e-05
8.50462e-06
4.05377e-06
2.017e-06
1.77867e-06
1.66762e-06
1.86629e-06
3.19022e-06
5.38946e-06
5.43218e-06
5.66805e-06
5.63626e-06
5.66707e-06
5.59784e-06
5.63297e-06
5.8914e-06
6.43983e-06
6.98311e-06
7.3955e-06
7.43774e-06
5.81981e-06
3.08868e-06
8.63271e-07
3.47871e-07
1.27826e-07
1.03668e-07
8.18556e-08
8.45282e-08
9.51152e-08
1.645e-07
4.43211e-07
3.4152e-06
5.19373e-06
5.01847e-06
5.39965e-06
5.17617e-06
3.85017e-06
4.18931e-06
5.33031e-06
5.56111e-06
4.7899e-06
2.91072e-06
1.29867e-06
1.17955e-06
8.58062e-07
1.32917e-06
3.99068e-06
5.19744e-06
5.81835e-06
5.59128e-06
5.43011e-06
5.33976e-06
5.5307e-06
5.51401e-06
5.5217e-06
5.50613e-06
5.56992e-06
5.55765e-06
5.57468e-06
5.60242e-06
5.6219e-06
5.53527e-06
5.48726e-06
5.19476e-06
4.74914e-06
4.28715e-06
3.90874e-06
4.14888e-06
5.14754e-06
5.78283e-06
5.16462e-06
5.782e-06
5.76276e-06
5.73111e-06
4.55881e-06
1.34223e-06
1.58031e-07
3.69193e-08
3.48044e-08
3.96488e-07
4.75806e-06
5.68746e-06
5.61524e-06
5.42997e-06
4.9829e-06
4.76684e-06
4.96429e-06
5.1704e-06
5.30864e-06
5.08208e-06
4.48147e-06
3.7679e-06
3.21648e-06
3.10982e-06
2.84969e-06
2.73066e-06
3.00087e-06
4.50212e-06
5.69715e-06
5.60414e-06
5.53103e-06
5.71341e-06
1.35392e-06
1.34996e-08
1.44967e-08
7.86736e-08
6.01583e-07
1.47503e-06
5.16286e-06
5.43593e-06
3.64239e-06
2.78519e-06
2.82232e-06
4.05785e-06
5.69161e-06
5.18852e-08
7.42832e-09
1.00786e-08
1.0582e-08
1.22342e-08
1.28686e-08
1.28115e-08
8.48238e-09
7.65793e-09
4.01408e-09
5.20711e-08
5.065e-06
1.70581e-06
1.49732e-06
1.64579e-06
6.38716e-07
5.67812e-06
1.43947e-08
1.66927e-10
1.6934e-11
8.01976e-12
9.74814e-12
4.74287e-11
1.46513e-10
2.66628e-10
3.80266e-10
2.59139e-10
1.96424e-10
9.50203e-11
8.20186e-11
1.57676e-10
3.80158e-10
3.20736e-09
8.90978e-08
4.10078e-06
6.23387e-06
5.33755e-06
5.05045e-06
6.46807e-06
9.54039e-07
1.79179e-07
9.22004e-07
6.35399e-06
3.29356e-06
1.16398e-06
8.55651e-07
5.27264e-06
1.68632e-06
4.16197e-09
3.02582e-08
6.12561e-06
7.06168e-06
5.0294e-06
4.0365e-06
4.74893e-06
6.2763e-06
7.18443e-06
3.53638e-06
8.57818e-08
6.30332e-09
4.44892e-09
1.52958e-09
1.26944e-09
1.25273e-09
3.04204e-09
3.14585e-09
1.40549e-08
2.3842e-08
1.78339e-07
2.65701e-06
6.61127e-06
5.17914e-06
4.114e-06
4.60562e-06
5.87617e-06
7.25065e-06
3.40201e-06
4.90424e-06
2.38838e-06
1.13577e-07
1.03884e-08
3.1057e-09
9.94834e-10
5.21882e-10
4.54148e-10
3.53612e-10
2.45866e-10
1.43225e-09
6.9459e-10
6.04005e-09
3.30376e-09
2.41599e-08
8.5393e-07
1.12163e-05
1.02068e-05
6.31501e-06
4.6385e-06
4.28243e-06
3.59788e-06
3.40043e-06
2.86353e-06
2.6754e-06
2.49299e-06
2.80596e-06
4.25598e-06
6.18808e-06
1.08154e-06
3.91007e-06
5.34882e-06
1.25482e-07
1.3229e-08
7.46e-09
1.25261e-08
3.70346e-08
1.31324e-07
7.41959e-07
5.05726e-06
1.02398e-05
1.09277e-05
1.02999e-05
9.79906e-06
1.05706e-05
1.11716e-05
1.25346e-05
1.27565e-05
1.2443e-05
1.05798e-05
9.57185e-06
8.00197e-06
5.43409e-06
6.22968e-06
3.37984e-06
3.61859e-06
3.26217e-06
3.81803e-06
5.76943e-06
6.16672e-17
6.19209e-18
1.14234e-20
4.57863e-25
1.60819e-29
5.02711e-34
1.56252e-38
4.93723e-43
1.58824e-47
5.0764e-52
1.6995e-56
6.13202e-61
2.46386e-65
1.05374e-69
4.67415e-74
2.04479e-78
8.78942e-83
3.60868e-87
1.43087e-91
5.37606e-96
1.95084e-100
6.74701e-105
2.2832e-109
7.50193e-114
2.47216e-118
8.1303e-123
2.75008e-127
9.44727e-132
3.17274e-136
3.77725e-141
1.49239e-155
4.42177e-159
2.92309e-163
1.46107e-167
6.65918e-172
2.13854e-176
6.9933e-181
1.54667e-185
2.81758e-190
4.53504e-195
6.81189e-200
9.63795e-205
1.30204e-209
1.65961e-214
2.03623e-219
2.39517e-224
2.71382e-229
3.00496e-234
3.21842e-239
3.40077e-244
3.49974e-249
3.57733e-254
3.58078e-259
3.57754e-264
3.51328e-269
3.45523e-274
3.34724e-279
3.24618e-284
3.02801e-289
1.46671e-294
2.33196e-315
1.82071e-318
4.94066e-323
0
0
0
0
0
0
0
0
0
0
0
0
0
0
0
0
0
0
0
0
0
0
0
0
0
0
0
5.89541e-08
3.07734e-08
1.33761e-08
1.51631e-08
2.20787e-08
4.82992e-08
1.30526e-07
2.97361e-07
5.66405e-07
1.784e-06
1.02614e-05
5.87795e-06
3.48954e-06
5.04546e-06
9.0847e-06
8.72993e-06
9.13263e-06
9.07556e-06
8.93994e-06
8.40973e-06
7.83191e-06
7.42595e-06
7.17979e-06
7.25938e-06
6.87889e-06
6.87991e-06
5.95076e-06
5.04119e-06
5.99714e-06
9.27986e-06
1.89444e-06
9.71672e-07
1.7933e-06
1.00344e-05
9.13093e-06
3.83781e-06
1.51492e-06
9.02813e-07
6.60815e-07
5.84677e-07
1.06229e-06
2.82624e-06
5.4353e-06
5.65601e-06
5.64882e-06
5.43337e-06
5.44053e-06
5.66417e-06
5.61745e-06
5.23099e-06
5.28776e-06
5.03396e-06
4.27623e-06
2.5094e-06
8.17212e-07
3.07169e-07
1.33452e-07
7.66619e-08
6.05944e-08
7.28565e-08
7.82429e-08
1.21734e-07
3.57622e-07
1.74669e-06
5.08481e-06
5.3521e-06
4.97496e-06
5.32921e-06
5.04359e-06
3.33524e-06
3.34434e-06
4.65335e-06
5.68886e-06
5.14145e-06
3.14218e-06
1.24409e-06
9.46453e-07
7.33023e-07
2.6771e-06
4.9081e-06
5.77851e-06
5.6209e-06
4.94245e-06
5.04403e-06
5.39267e-06
5.54804e-06
5.50944e-06
5.51099e-06
5.51805e-06
5.55712e-06
5.55741e-06
5.60674e-06
5.44698e-06
5.02055e-06
4.47419e-06
4.0712e-06
4.06651e-06
4.22424e-06
4.17707e-06
4.18044e-06
4.34785e-06
5.15295e-06
5.76224e-06
5.41903e-06
5.62199e-06
5.64724e-06
5.75138e-06
4.70289e-06
1.05247e-06
5.53251e-08
2.28338e-08
4.42602e-08
1.0809e-06
4.27419e-06
4.52691e-06
3.72962e-06
2.68295e-06
2.70458e-06
3.9659e-06
4.97678e-06
5.25621e-06
5.20424e-06
5.2481e-06
5.09328e-06
4.52775e-06
3.53855e-06
2.86457e-06
2.56012e-06
2.65333e-06
2.8381e-06
4.64115e-06
5.59174e-06
5.76188e-06
5.79138e-06
6.17765e-06
3.76028e-08
4.98709e-09
2.30902e-08
1.74584e-07
9.64173e-07
3.31608e-06
5.89594e-06
4.75237e-06
3.61333e-06
3.22313e-06
4.67176e-06
3.44883e-06
1.41939e-08
5.40847e-09
9.51768e-09
1.07435e-08
1.15783e-08
1.06787e-08
9.36524e-09
9.63384e-09
1.06826e-08
7.9606e-09
5.50811e-09
3.65714e-09
4.56072e-08
4.42856e-06
1.48649e-06
6.44522e-07
4.2572e-07
2.22935e-06
1.38251e-09
3.16273e-11
9.45053e-12
1.00517e-11
6.49248e-11
2.34983e-10
6.85317e-10
1.1266e-09
1.39294e-09
1.4544e-09
1.15733e-09
7.5879e-10
7.75265e-10
1.90137e-09
5.80902e-09
2.1584e-07
3.17361e-06
6.21875e-06
6.37401e-06
6.46842e-06
6.07271e-06
4.12811e-07
6.8824e-08
9.11297e-08
7.44692e-07
5.933e-06
8.26741e-06
6.43741e-06
3.45193e-06
7.12601e-06
1.48111e-07
2.27657e-09
7.74684e-07
7.01085e-06
5.32531e-06
5.42075e-06
6.21454e-06
2.37818e-06
2.94244e-08
5.23691e-09
2.34271e-09
5.11288e-10
5.47279e-10
4.37254e-10
4.88331e-10
4.54544e-10
2.24612e-10
1.97964e-10
2.13104e-10
3.09263e-10
6.77393e-10
3.41319e-09
9.96433e-09
1.36875e-07
1.50601e-06
6.19317e-06
5.91395e-06
5.33605e-06
6.88434e-06
3.23234e-06
5.52206e-06
1.43958e-07
5.06522e-09
4.95971e-10
1.11902e-10
4.59275e-11
3.19731e-11
2.14865e-11
1.88566e-11
1.90113e-11
1.85416e-11
2.54762e-11
2.31937e-11
6.0498e-11
8.20923e-11
8.52234e-10
8.15866e-09
6.48085e-06
1.21309e-05
8.67756e-06
6.78074e-06
4.91619e-06
4.43148e-06
3.33997e-06
2.91915e-06
2.7355e-06
2.7642e-06
3.51347e-06
3.68613e-06
1.59796e-06
5.67815e-06
4.86163e-08
2.03609e-09
5.52246e-10
6.38229e-10
1.52687e-09
2.9646e-09
6.81701e-09
1.60345e-08
3.89475e-08
9.5326e-08
2.21846e-07
5.1405e-07
1.32422e-06
1.25454e-06
1.63107e-06
2.05358e-06
1.30975e-06
2.3473e-06
2.10398e-06
5.66768e-06
3.46749e-06
6.34604e-06
5.8998e-06
6.31645e-06
6.41361e-06
7.01473e-06
8.49748e-06
1.25154e-05
2.35801e-10
2.18475e-12
8.49969e-15
2.07477e-19
5.87885e-24
1.82003e-28
5.31214e-33
1.58114e-37
4.83631e-42
1.48422e-46
4.67358e-51
1.57936e-55
5.96994e-60
2.50045e-64
1.11687e-68
5.06811e-73
2.26978e-77
9.80602e-82
4.05775e-86
1.59601e-90
5.98697e-95
2.14228e-99
7.38989e-104
2.47335e-108
8.16652e-113
2.68891e-117
8.98026e-122
3.0595e-126
1.02808e-130
1.58287e-135
1.12373e-149
1.75011e-153
1.02973e-157
4.85479e-162
2.11727e-166
8.98047e-171
3.35994e-175
7.01062e-180
1.12465e-184
1.58209e-189
2.08117e-194
2.69597e-199
3.38204e-204
4.07857e-209
4.74524e-214
5.33781e-219
5.82314e-224
6.18905e-229
6.41447e-234
6.52392e-239
6.50981e-244
6.40983e-249
6.22467e-254
5.99196e-259
5.71123e-264
5.41448e-269
5.09502e-274
4.77126e-279
4.31011e-284
1.95351e-289
4.41616e-309
1.09144e-312
2.46456e-317
4.10074e-322
0
0
0
0
0
0
0
0
0
0
0
0
0
0
0
0
0
0
0
0
0
0
0
0
0
0
4.90005e-09
5.07387e-09
5.73141e-09
1.243e-08
2.43568e-08
6.49999e-08
2.22974e-07
6.72423e-07
1.20864e-06
1.62579e-06
4.25925e-06
1.13941e-05
3.58199e-06
4.5707e-06
8.01849e-06
7.16323e-06
7.60375e-06
7.73646e-06
8.39352e-06
8.6505e-06
7.95099e-06
7.16954e-06
7.3207e-06
7.25892e-06
8.42597e-06
8.19677e-06
6.96258e-06
5.85653e-06
6.71562e-06
8.7932e-06
1.19663e-06
8.82828e-07
2.17076e-06
1.11597e-05
6.87367e-06
2.18135e-06
7.56719e-07
4.83255e-07
4.08513e-07
4.74537e-07
6.41143e-07
1.32759e-06
3.90255e-06
5.3869e-06
5.66266e-06
4.95798e-06
5.37117e-06
5.6419e-06
4.97394e-06
3.41481e-06
1.95296e-06
1.67545e-06
7.93903e-07
4.65801e-07
2.51044e-07
1.12035e-07
1.11289e-07
6.11206e-08
9.9516e-08
9.02806e-08
4.93138e-07
1.27534e-06
3.6376e-06
5.17068e-06
5.41596e-06
5.03337e-06
4.71828e-06
5.57203e-06
4.35842e-06
2.65989e-06
2.72723e-06
4.00734e-06
5.56792e-06
5.7341e-06
3.08291e-06
1.07305e-06
6.12427e-07
1.12439e-06
4.10282e-06
5.45966e-06
5.7814e-06
5.03796e-06
4.43012e-06
4.78864e-06
5.13218e-06
5.40326e-06
5.54175e-06
5.5592e-06
5.54649e-06
5.49165e-06
5.29648e-06
4.76347e-06
4.32027e-06
4.25535e-06
5.1579e-06
5.57663e-06
4.51379e-06
4.20159e-06
5.09672e-06
5.61906e-06
5.52674e-06
5.33713e-06
5.7265e-06
5.72504e-06
5.35681e-06
5.45955e-06
5.67328e-06
3.89476e-06
2.23128e-07
3.03194e-08
1.47726e-08
5.2014e-08
1.01764e-06
2.26086e-06
1.90424e-06
1.31892e-06
1.43439e-06
3.82096e-06
5.38197e-06
4.8153e-06
4.19206e-06
4.62671e-06
5.00472e-06
5.07053e-06
4.77125e-06
4.06467e-06
3.22497e-06
2.60187e-06
2.49877e-06
2.99312e-06
4.35784e-06
5.309e-06
5.35804e-06
5.54139e-06
3.31577e-06
4.58229e-09
5.3063e-09
5.58784e-08
7.77977e-07
2.04142e-06
5.28447e-06
5.70357e-06
4.69831e-06
4.3175e-06
5.19587e-06
2.61461e-06
1.30716e-08
5.07509e-09
7.26817e-09
8.63257e-09
9.12714e-09
8.19725e-09
6.46905e-09
5.62617e-09
7.20685e-09
9.00662e-09
1.0519e-08
6.51911e-09
3.76302e-09
1.40798e-09
5.562e-08
4.33673e-06
7.93328e-07
6.4352e-07
6.90788e-07
4.79248e-10
2.6875e-11
1.5128e-11
2.86867e-11
1.84113e-10
7.19719e-10
1.66033e-09
2.13664e-09
3.64729e-09
4.90984e-09
8.26751e-09
1.27878e-08
3.71886e-08
8.48438e-08
1.45974e-06
4.32208e-06
6.06841e-06
6.30986e-06
6.03129e-06
4.1488e-06
5.60111e-07
8.91435e-08
9.24365e-08
7.11681e-07
5.06772e-06
7.81921e-06
1.03556e-05
1.04044e-05
7.5787e-06
9.32695e-06
1.9346e-08
3.76352e-09
3.48817e-06
6.27021e-06
6.39285e-06
5.06284e-06
4.20936e-08
2.38007e-09
2.82642e-09
7.5921e-09
1.04328e-08
2.95704e-09
1.76156e-10
1.81305e-10
1.25628e-10
7.68747e-11
4.19755e-11
3.6305e-11
2.90435e-11
5.71366e-11
3.96214e-11
6.11561e-11
1.45971e-10
9.70617e-10
4.27735e-09
2.60447e-08
1.43248e-07
3.11381e-06
6.48188e-06
2.93294e-06
5.48042e-06
1.3626e-08
7.3394e-10
8.74632e-11
3.39008e-11
3.23208e-11
2.46775e-11
1.9644e-11
1.28002e-11
1.04082e-11
9.09094e-12
6.24192e-12
8.97484e-12
6.77469e-12
8.05171e-12
1.54542e-11
9.59897e-11
4.8966e-10
7.60465e-08
4.94515e-06
1.24329e-05
8.8882e-06
6.12091e-06
5.71082e-06
4.10073e-06
3.41131e-06
3.60854e-06
3.33349e-06
3.46288e-06
2.3193e-06
1.53041e-06
5.97255e-09
1.66379e-09
9.51273e-10
1.5253e-09
2.12797e-09
3.15384e-09
3.53069e-09
4.31e-09
5.29516e-09
7.74628e-09
1.02546e-08
1.9772e-08
1.50562e-08
2.59246e-08
8.68144e-09
9.45652e-09
1.64059e-08
3.2481e-08
4.58029e-08
1.13686e-07
1.49833e-07
4.51058e-07
8.7463e-07
1.53138e-06
3.62506e-06
6.04702e-06
9.76745e-06
1.50432e-05
1.00332e-06
6.26419e-07
3.31721e-09
8.40904e-14
1.82637e-18
5.08797e-23
1.50548e-27
4.31009e-32
1.2648e-36
3.70689e-41
1.10021e-45
3.44931e-50
1.206e-54
4.78681e-59
2.10968e-63
9.79323e-68
4.58176e-72
2.0866e-76
9.1099e-81
3.7681e-85
1.47866e-89
5.49677e-94
1.95489e-98
6.6846e-103
2.2331e-107
7.3643e-112
2.44202e-116
8.22163e-121
2.78882e-125
6.71512e-130
7.52921e-144
5.8916e-148
3.03281e-152
1.34129e-156
5.60444e-161
2.30076e-165
9.49949e-170
3.23401e-174
4.96212e-179
5.98296e-184
6.47085e-189
7.29226e-194
8.26098e-199