/*--------------------------------*- C++ -*----------------------------------*\
| =========                 |                                                 |
| \\      /  F ield         | OpenFOAM: The Open Source CFD Toolbox           |
|  \\    /   O peration     | Version:  2.1.1                                 |
|   \\  /    A nd           | Web:      www.OpenFOAM.org                      |
|    \\/     M anipulation  |                                                 |
\*---------------------------------------------------------------------------*/
FoamFile
{
    version     2.0;
    format      ascii;
    class       volScalarField;
    location    "0.003200000";
    object      omegaC_burn;
}
// * * * * * * * * * * * * * * * * * * * * * * * * * * * * * * * * * * * * * //

dimensions      [1 -3 -1 0 0 0 0];

internalField   nonuniform List<scalar> 
12384
(
17294
25480.8
34608.1
32796.3
37157.3
40055.3
42203
46763.5
48628.9
44936.4
37453.7
30447.3
27364.4
17698.2
56974.6
140744
208213
278107
335217
377415
411494
433145
470326
457099
470898
453596
424491
418208
385851
322049
278969
242354
158648
159892
161702
155283
141130
167867
154652
134415
118192
94697.9
70059
37370.6
183384
317984
354145
397938
414675
430162
435210
435773
443418
439805
440229
435213
435951
429117
423290
387897
385344
351170
319257
300753
245503
235779
220662
210048
176778
158301
126899
110542
87093.4
52102.4
447349
628292
719050
682951
753527
731238
749690
755048
723345
645584
661464
560719
584522
524645
544917
525589
571930
562106
605410
604095
585335
510800
427059
331953
256495
194377
144928
105888
89576.8
52787.7
300538
491199
621925
641416
666863
632734
657622
670086
727436
737753
751196
693770
652798
600038
583059
545339
545462
501808
476386
404541
358047
310485
279506
222590
224773
167126
138933
103918
76947.6
36801.2
157436
251995
345323
404165
453947
494527
463667
437991
441135
450462
453621
484675
471425
518812
434291
326646
286383
311764
311111
330541
324206
306823
268503
203592
172332
156179
118289
94152.5
47281.7
1950.88
32345.2
77537.5
149786
281617
367689
431495
460089
454816
434679
397567
343666
298620
240711
191524
141499
100326
70233
62524.3
85825.3
181589
313244
340877
16193.7
1386.02
270.054
208.257
107.48
85.763
40.2703
3.49934
26213.3
45245.8
64984.8
96667.5
114708
103083
104722
84284.3
67885.1
63948.5
59879.4
61990.5
63710.8
62764.1
54287.1
32308.8
43221.3
39386.2
49781.6
53985.9
60914.2
61902.3
60958.4
58487.3
55104.2
52195.5
51569.4
49002.9
47658.8
33482.7
13100.6
13739.4
13863.5
12993.8
12881
11766.1
11308.3
11440.6
11690
11227
12120.6
12952.2
11504.3
15645.9
16556.8
23366.2
30628.8
31197.4
31744.2
34409.3
35018.1
36174.1
38501.9
39379.9
40707.1
41745.1
39785.2
43987.5
43466.2
44452.2
18018.2
18385.6
18359.4
19686.8
20234.3
20638.5
23076.9
23123.9
24705.8
24520.9
26567
26634.9
29602.7
28393.4
33430.8
33026.3
41031.8
38619.5
49636.8
48816.5
59534.6
61798.6
70684
71553.6
75916.8
67312
78071.8
41958.8
5645.73
33.8763
3.60291e-22
2.60095e-23
1.19944e-26
9.73347e-31
6.50058e-35
3.8818e-39
2.11175e-43
1.10553e-47
5.87293e-52
3.19034e-56
1.71537e-60
8.81867e-65
4.2509e-69
1.9095e-73
7.99821e-78
3.13616e-82
1.1566e-86
4.032e-91
1.33466e-95
4.21371e-100
1.27445e-104
3.71344e-109
1.05006e-113
2.91411e-118
8.06642e-123
2.27619e-127
6.69642e-132
2.0837e-136
6.80923e-141
2.1937e-145
5.61129e-162
0
0
0
0
0
0
0
0
0
0
0
0
0
0
0
0
0
0
0
0
0
0
0
0
0
0
0
0
0
0
0
0
0
0
0
0
0
0
0
0
0
0
0
0
0
0
0
0
0
0
0
0
0
0
0
0
0
0
0
23962
29613.6
42020.5
46700.1
58463
62604.5
68856
71780.3
75582
72118.2
79660
63467.6
42572.1
34734
112128
204282
345270
459377
515709
550452
565660
595519
615815
643072
660292
678535
675819
668129
640828
602109
532415
478604
373545
241906
28981.8
1440.25
288.588
1333.53
13250.6
122327
200595
164315
105583
69668.1
317055
224137
317074
301343
330058
356494
369320
374099
373168
378671
374022
377223
369703
370638
370532
367454
361986
335413
187526
162016
155870
193977
222655
177992
78498.9
31827.3
50939.6
135816
125368
99315.3
704768
412479
231362
162280
147387
118487
82399
50565.5
46977.4
48195.6
57300.8
34129.8
22063
10167.8
7240.75
5242.32
6225.25
7070.81
9546.97
14697.8
28748
54290.7
103142
163090
254793
273108
188040
141038
142585
121444
495693
186317
84245.2
60689.3
45817.6
41602.7
42654.9
53452.2
66880.8
77464.3
67403.2
55922.9
24520.2
13779.5
5948.41
3589.55
2067.86
1647.04
1443.82
1837.5
2175.7
3463.56
4892.94
5860.91
1901.62
611.628
1916.66
41549.2
165194
115445
256043
222402
222029
259916
185102
148899
96505.9
82422.7
55106.7
16557.8
1203.16
55.5955
12.1874
3.4776
0.658066
0.168951
0.12173
0.191706
0.740594
5.20999
25.6105
20.6095
58.1446
205.568
2693.73
17898.9
58084.7
95632.4
58262
2283.8
146783
118277
190435
237627
224068
164637
115379
83815.1
69106.4
60478.2
55682.5
54516.2
66928.6
88146
139340
175854
146961
135925
182992
196260
1823.97
89.56
536.152
125765
6205.3
3125.83
1441.38
1045.89
864.1
39.3717
39187.6
41453.7
66554.3
98456
109388
106841
91449.5
70341.5
57924.5
48122.5
49391
51617.6
54945.2
54507.2
40626.7
30801.9
26777.5
29806.1
29556
33062.8
33404.5
33453.3
31543.5
29308.8
27367.9
25235
25051.6
25397.9
27135.7
36582
15176.8
9214.18
8746.97
8575.25
7915.85
7616.44
6772.76
6557.55
6741.55
6587.93
6865.45
7304.99
7341.01
8543.39
9113.12
15733
18753
20274.3
22130.5
22472.3
24961.4
26370.2
27103.2
26439.6
24387.3
23058.7
23753.4
23528.4
26622.1
44096.8
15851.7
8498.34
8431.03
8020.49
7698.75
8035.36
7922.75
8974.05
9203.86
9918.42
9595.57
9615.33
9914.83
10373.4
12126.4
11792.9
14295.8
14602.3
16431.7
18218.4
19339.3
21974.3
21199.8
23860.4
21132.1
26069.9
23783.7
31304.9
16767.9
231.02
5.346e-18
6.02569e-19
4.63105e-22
2.80455e-26
1.39766e-30
6.85577e-35
3.25417e-39
1.47713e-43
6.61122e-48
3.06303e-52
1.48476e-56
7.32635e-61
3.53374e-65
1.62669e-69
7.06332e-74
2.89288e-78
1.11878e-82
4.1063e-87
1.43299e-91
4.77726e-96
1.52495e-100
4.69222e-105
1.39795e-109
4.07801e-114
1.17818e-118
3.43852e-123
1.03273e-127
3.24642e-132
1.06381e-136
3.54373e-141
1.9211e-157
3.47473e-160
0
0
0
0
0
0
0
0
0
0
0
0
0
0
0
0
0
0
0
0
0
0
0
0
0
0
0
0
0
0
0
0
0
0
0
0
0
0
0
0
0
0
0
0
0
0
0
0
0
0
0
0
0
0
0
0
0
0
30062.9
43691.2
71172.9
90497.5
111885
125174
134073
126623
115405
106484
51876.5
94381.3
65328.5
55931.8
151391
364396
545633
635800
542508
370715
270467
271599
343376
486184
593391
662164
712409
714798
696807
651393
609347
551797
483576
386402
63580.5
3154.82
115.545
858.877
11706.3
105630
214739
189080
130219
86422.6
357086
166371
254591
280101
298901
333291
373093
386444
396638
394922
397536
385678
384300
370293
371009
360755
368096
369411
384370
337106
115180
129801
167220
150097
57587.1
24294.1
53179.4
158137
166257
118109
785525
318645
205796
166893
256921
74866.9
32841.2
18699.5
18183.9
11828.2
4636.86
1519.28
830.674
536.15
673.4
1021.23
2110.03
4146.03
7203.69
10325
18434.1
37579.3
83100.2
134976
188925
161077
73431.6
81770.2
193664
193774
523207
94917.8
56522
51613.4
48759.5
52788.7
62378.1
72378.7
76971
59129.4
18390.5
3155.15
475.16
211.347
105.648
52.4589
25.6789
11.3217
6.87134
8.0598
11.3561
37.3653
102.906
141.55
45.6591
17.7617
176.77
8474.65
115047
187155
366773
216835
333388
317849
198385
109753
60557.1
26038.8
5717.25
144.741
1.43286
0.0481354
0.00561681
0.000853679
0.00115029
0.00337423
0.085955
11.0644
909.952
6284.85
16970.9
9061.43
966.136
35.7339
6.79789
28.6412
3278.98
47187.1
59692.6
1640.82
257517
89330.2
170120
156359
60212.4
27812.4
16944.5
19144.6
19036.8
26259.3
32598.9
38765.2
45995.9
52959
92034.8
140708
177632
179641
271563
59605.2
204.207
2.81764
1.83316
54.045
1573.97
1467.98
296.69
2529.34
18342.7
615.445
60320.8
66151.8
115662
156907
159638
141578
102955
72158.7
64741.6
71339.5
81815.6
87536.7
85077.4
67535.6
48863.3
41478.6
39223.8
40460.5
43497.8
44041.4
47676.5
45336.9
42175
37606.7
33669.3
28756.4
27621.7
26134.5
28778.4
34384.8
16324.1
10070.7
10019.2
9953.33
10086.3
9587.28
8811.73
8461.06
8393.08
7765.71
9149.55
8306.12
9481.98
8356.63
10908.2
13703.5
19565.1
19676
18569.1
17493
19010.9
19501.5
20516.6
19612.9
17620.1
15189
15868.3
17312.1
21451
41375.6
14423.3
7946.19
7343.57
7691.59
7375.96
8157.35
9330.72
9702.62
9521.32
9075.88
8274.41
8452.34
7693.76
7834.77
8377.31
8109.09
8915.72
8639.61
9378.24
8754.28
9304.31
8040.4
8745.91
6394.54
7351.55
4957.22
6721.17
4982.31
510.305
450.735
4.59688e-14
6.68419e-15
6.55077e-18
3.30117e-22
1.26233e-26
4.72106e-31
1.76181e-35
6.3587e-40
2.21895e-44
7.84912e-49
2.96172e-53
1.21064e-57
5.20718e-62
2.26408e-66
9.63112e-71
3.95078e-75
1.54961e-79
5.81722e-84
2.09332e-88
7.26873e-93
2.43857e-97
7.9694e-102
2.56515e-106
8.24869e-111
2.6845e-115
8.95767e-120
3.07505e-124
1.08391e-128
3.60455e-133
3.64245e-138
3.73626e-153
3.93161e-156
3.05659e-160
0
0
0
0
0
0
0
0
0
0
0
0
0
0
0
0
0
0
0
0
0
0
0
0
0
0
0
0
0
0
0
0
0
0
0
0
0
0
0
0
0
0
0
0
0
0
0
0
0
0
0
0
0
0
0
0
0
44812.8
69590.3
101963
123553
147076
167121
186296
202970
203136
176016
83776.9
39378.3
109380
86127.8
220919
527793
661616
522138
306907
148287
60694.8
30662.1
12537.1
19419.7
19910.8
47139.3
98177.2
284619
618606
692211
631439
577837
543411
458855
170734
6359.94
91.7741
303.793
3284.59
38982.3
167407
202239
163439
97147.8
419989
60328.5
103352
102890
149647
229351
295335
390717
422459
439973
430797
430118
409096
403799
384179
382242
371406
375224
377164
408866
236606
98837.3
134446
124145
51409.5
17919.8
45724.4
151794
203427
154099
815934
264025
245961
340516
133821
32569.4
13707.6
8203.64
2824.61
487.098
110.52
53.8226
49.1116
82.3334
168.494
461.245
1583.05
4988.57
10893.6
15530.4
20667.3
34141
55737.2
66453.8
54183.7
25500.5
14436.4
44365.7
206597
303916
496214
44230.3
33056.1
40153
50542.9
64969.7
83237.8
85948.6
69177.9
22467
1445.63
217.324
152.711
186.488
273.38
260.701
91.1753
20.393
4.67672
1.37865
0.738849
0.515114
1.549
2.42498
0.734342
0.894446
58.7615
2565.42
24818
304260
479088
176272
345415
253039
135046
68860.5
26792
5766.36
259.342
1.45157
0.0128662
0.00100436
0.000368347
0.00109465
0.0891205
39.9058
2013.4
206418
709054
794822
811427
572656
224723
50864.8
597.697
4.28768
4.52717
842.575
35292.3
1610.61
418305
145791
114270
26453.1
10578.9
6284.07
7634.06
12105.3
19601.2
25840.3
30022.3
35101.4
36097.6
44993.9
60837.2
132633
185813
249377
184923
13243.8
183.917
4.26896
50.2601
4523.06
28862
22830.7
3092.91
376.263
55.7154
1523.27
92104.1
106477
177944
223237
233291
172195
128439
111847
101423
19404.5
6171.87
18767.4
77450.6
84860.3
61092.4
56396.1
53071.8
54781.2
55119.5
59319.2
59599.5
62444.7
58063.6
53859.4
47871.1
39122.3
33259.3
28842.2
28262
36974.6
15886.9
11857
12641
13781.1
14252.5
13647.4
13249.3
12486.6
12253.4
12361.4
13210
12903.1
14185
12023.2
16936.3
19703
28193.1
24351.1
20095
18493.9
15831.9
16035.2
15103.7
14253.8
13473.7
11401.2
11907
13250.1
17092.4
33586
15708.3
9596.39
10206.6
12218
11933.6
15641.1
18599.9
21573.1
20660.8
18903.9
15741.7
13273
12573.1
11753.1
12156.9
12785.9
13714.4
14460.2
16166.4
17007.4
17830.4
15921.6
14651.7
13371.1
9777.93
9595.68
6360.91
5536.51
5881.69
13941.1
5.03913e-09
7.54828e-10
7.99663e-13
2.82198e-17
9.58677e-22
3.14367e-26
1.06715e-30
3.66227e-35
1.22664e-39
4.10594e-44
1.44914e-48
5.62094e-53
2.36562e-57
1.0361e-61
4.53159e-66
1.93567e-70
7.96345e-75
3.14228e-79
1.18469e-83
4.27908e-88
1.48317e-92
4.97657e-97
1.63028e-101
5.29438e-106
1.7265e-110
5.74127e-115
1.9588e-119
6.87215e-124
2.34313e-128
3.58301e-133
9.93587e-148
3.11871e-151
2.1198e-155
1.09308e-159
0
0
0
0
0
0
0
0
0
0
0
0
0
0
0
0
0
0
0
0
0
0
0
0
0
0
0
0
0
0
0
0
0
0
0
0
0
0
0
0
0
0
0
0
0
0
0
0
0
0
0
0
0
0
0
0
54936.3
80731.2
108500
133562
163700
187485
212043
235903
262632
267400
225416
2295.71
49961.1
145140
346364
563818
543010
568442
529157
367058
197404
87140.4
37808.3
15891.3
18455.3
13063.1
13300.6
11866.3
100458
611228
652045
594651
559187
505942
264962
19716.4
32.5777
46.0153
106.511
799.284
24309.7
150656
200508
123278
443449
21558.1
12674.2
11148.3
26202.3
87544.9
205250
300017
425574
467022
484767
459025
450999
416049
404346
389593
382399
376128
386959
399895
260311
87191.6
119365
113920
40511.1
9958.96
21175.6
93564.5
212652
207911
841323
246827
502125
383018
48726.7
14987.2
4733.38
1186.82
89.6559
18.7282
8.24255
17.5551
38.0566
112.11
321.515
1005.64
2991.37
8386.2
14553.4
13126.8
11995.9
11597.6
6896.29
3727.21
2381.27
1747.36
3496.37
23309.3
137287
467445
469856
15845.1
15449
26091.6
44827.2
73680.7
89818.5
81319.7
39787.9
5171.79
860.826
843.984
1731.16
3084.49
3712.53
2448.84
1105.66
330.037
54.7152
6.33064
0.712077
0.128037
0.0783564
0.0659519
0.0406495
0.200475
16.6707
645.84
3352.73
459427
589901
200113
268654
166652
89634.1
31049
9337.08
841.21
11.6873
0.0496147
0.00113013
0.00043287
0.00964323
4.28657
619.537
147746
770527
931660
953388
930450
882339
819303
775542
330750
76864.6
551.767
0.232655
0.605368
92.7302
11551.6
555144
109599
28288.9
6765.81
3193.77
3986.7
6970.9
11026.6
12882.9
13311.4
13233.6
12964.9
14305.2
17156.1
33172.3
69751.5
181904
227558
79136.1
4856.3
404.377
109.609
5351.97
57236.7
86841
86250.6
20024
722.448
59.3537
101991
150870
189616
254821
348316
177779
134405
14895.5
424.575
1884.29
17798.8
101580
245784
200242
119652
100350
74991.5
73504.5
69897
73252
72708.5
79527.2
78977.7
79836.1
73596.9
65015.1
56434.4
51062.7
36059.4
32677.7
47068.6
16535.3
13647
16344.8
17630.6
17058.1
15940.8
14375.3
13085.4
12990.4
12280.1
13164.1
13895.8
15374.1
14910.2
20377.3
30034.5
41262.3
38288.8
31600.5
23205.3
19565.9
17591.1
15398.9
14081.3
12261.3
11733.9
11266.9
11866.4
14543.7
27474.6
17444.6
13398.9
16933.7
17646.5
19190.3
23314.6
27167.2
31171.3
34156.2
33085.9
31713.8
26558.5
23738.9
22322.4
21044.1
22438
23152.1
25046.7
24980.1
24176.2
20499.2
18062.9
16356.1
11477.5
13588.2
8896.68
9557.76
9389.19
10188.7
25415.8
0.00184747
0.000123301
2.82784e-07
5.67497e-12
1.45712e-16
4.32366e-21
1.31502e-25
4.21217e-30
1.36179e-34
4.36003e-39
1.44763e-43
5.23269e-48
2.11522e-52
9.21489e-57
4.14468e-61
1.84295e-65
7.97317e-70
3.2972e-74
1.30407e-78
4.89647e-83
1.76071e-87
6.05894e-92
2.02728e-96
6.63284e-101
2.16867e-105
7.14333e-110
2.41434e-114
8.35833e-119
2.88717e-123
5.94915e-128
3.21035e-142
4.62184e-146
2.77847e-150
1.34979e-154
6.06218e-159
0
0
0
0
0
0
0
0
0
0
0
0
0
0
0
0
0
0
0
0
0
0
0
0
0
0
0
0
0
0
0
0
0
0
0
0
0
0
0
0
0
0
0
0
0
0
0
0
0
0
0
0
0
0
0
49970.6
86440.6
122582
158156
190568
217264
245555
270182
290056
317337
316153
132043
2011.22
228540
506036
382370
514935
660551
672812
538012
244605
110008
57997.8
70575.6
62812.9
79850.2
36301.7
11578.7
21898.9
366651
677223
599580
578442
519284
306120
12631.5
4.438
0.506087
0.218517
0.557833
63.6247
7478.49
119603
163100
447913
4429.61
1709.92
2753.06
6516.55
17538.7
121940
309407
429811
522062
508193
480829
446499
415092
397060
395985
391746
397512
402123
192071
104246
90480.9
133646
120401
33593.1
3495.13
3879.21
26667.9
108437
332630
847947
245984
542318
94604.2
18741.5
4944.7
1017.51
59.1763
2.94901
1.37734
2.75109
9.14752
23.9302
64.9377
200.827
619.107
1465.46
2352.32
1867.66
1054.75
511.033
287.278
346.841
571.637
640.686
821.044
1545.25
8120.08
48089.8
546090
423626
4304.93
6557.85
15619.3
40565.8
73898.5
81349.5
66454.7
20421.8
4280.19
2714.11
3626.7
4558.93
4932.06
2349.13
957.383
408.633
362.615
149.83
30.1012
2.53413
0.135972
0.0137149
0.00425741
0.00893946
0.0286808
6.90049
117.511
295.313
469126
423490
228261
175421
110457
39210.8
11794.1
1725.91
65.6139
0.650892
0.0109541
0.00123798
0.0221632
14.7327
418.988
198144
664361
827764
933938
944116
899045
844896
823913
784993
715407
323564
40991.2
52.3033
0.0354553
0.00074049
59274.7
721166
32560.6
5997.57
2237.8
2167.54
4042.51
6189.35
5839.11
4820.06
4291.63
4077.55
4855.45
6006.09
9818.19
17007.8
39021.6
35538.4
49356.5
14810.1
7324.49
2743.44
8674.27
64592.6
75042.5
66254.5
73087.7
55049.4
250889
262820
181537
254883
320577
426727
294664
23642.4
1118.65
522.72
1759.76
114969
322980
566715
445854
282252
184843
121083
106126
88717.6
83425.6
77483.9
79339.5
82761.4
85896.8
90436.9
93085.9
85279.4
80265.3
66999.5
58812.1
47474.6
80341.9
14533.2
16663
20343.1
20759.5
19304.2
16961.2
15244.8
13711.9
12777.4
12037.4
12494.8
12851.7
13517.2
14330.8
16615.5
29694.9
39717.4
54474.1
47867.3
41522.9
29020.5
24354.9
19451
17336.4
14485.1
13191.5
12541.8
12607.6
14420.8
23028.3
16073.1
16749.7
17804.2
18083.6
19681.7
23702
29095.9
32960.9
36428
39000.2
39075.8
38934.9
33742.7
31195.5
29895.4
27788.7
30119.9
27554.7
22765.7
19583.3
18417
17059.6
14143
15097
12443.2
13142.1
13114.2
13268.6
15424.7
35119.3
12.5544
6.52669
0.0508611
1.11596e-06
2.06418e-11
4.88946e-16
1.36302e-20
4.00431e-25
1.22421e-29
3.7569e-34
1.17676e-38
3.94442e-43
1.48285e-47
6.24988e-52
2.83152e-56
1.30834e-60
5.94981e-65
2.60263e-69
1.08455e-73
4.28169e-78
1.60467e-82
5.72608e-87
1.96394e-91
6.53759e-96
2.14557e-100
7.04136e-105
2.34766e-109
8.01706e-114
2.76853e-118
7.19554e-123
6.48379e-137
5.34172e-141
2.86257e-145
1.31272e-149
5.65456e-154
2.38699e-158
1.12521e-162
0
0
0
0
0
0
0
0
0
0
0
0
0
0
0
0
0
0
0
0
0
0
0
0
0
0
0
0
0
0
0
0
0
0
0
0
0
0
0
0
0
0
0
0
0
0
0
0
0
0
0
0
0
50635.3
100557
151058
190797
217910
245078
271752
301915
326667
345483
372723
367111
219.546
266220
663243
170215
439485
603050
642658
389632
123242
31469
49858.1
62346.9
200496
177321
87251.7
28473
40140.7
500366
683364
630872
582862
527942
124746
213.653
0.0196539
0.00331003
0.00461185
0.0532232
0.700513
39.6496
8630.2
223140
409022
239.255
109.112
647.502
4678.56
46990.6
209676
447312
555344
537732
501019
447458
433007
397185
413105
389000
215033
204078
157880
110632
95214.1
131123
156283
96671.8
14124
763.265
736.277
5761.63
35564.6
481043
802042
277049
304811
33096
6667.19
1480.79
103.839
3.83509
0.224752
0.182515
0.308451
0.815661
2.27654
5.07148
8.09306
12.5299
14.8474
11.2656
12.5328
24.5644
316.221
4337.56
13705.5
17846
14236.8
10000.7
5184.39
4671.15
13088.8
418987
290859
764.932
2399.45
10416.9
35471.3
62085.9
65103.6
46411.5
14384.3
5426.87
4203.14
4851.88
3741.95
1168.81
70.1233
5.71533
2.2485
10.0337
30.6821
22.4917
3.60978
0.190704
0.00842948
0.00134591
0.00134468
0.0215782
1.42562
23.078
34.0566
215301
582179
182963
117705
49525.3
11374.5
2261.8
223.638
6.54671
0.175279
0.0201723
0.066504
15.0095
213.991
96450.3
378301
487821
707417
774962
758649
762742
835068
802987
804674
762708
592921
29514
20288.7
23.4516
0.000163973
9973.26
708575
7357.22
1781.38
1360.36
1760.06
3319.55
3499.18
2362.57
1595.37
1247.26
1312.5
1560.7
2342.73
3020.77
5152.54
2287.19
2211.16
1490.52
11092.8
26145.9
35248.9
68889.9
90722.7
68023.6
46740.5
28152.6
76943
450075
293951
249341
415256
552310
369850
41748.5
319.883
236.515
6543.48
68895.1
97641.9
839845
852416
793060
574465
145169
179214
157446
129070
100812
89727.6
76394.1
80109.7
79082.8
90693.9
93894.1
95959
92113.8
88965.7
77729.3
72544
160629
14506.1
20361.7
26946.2
25802.9
24260
21758.6
19655.6
17745.4
16497.1
14494.8
15082.7
14011.9
14793.6
14267.8
17869.2
23700.8
42830.3
46870.3
56222.8
59338.8
51158.9
36526.6
27349.2
21637.9
20521.1
16876.4
15100.9
15261.2
15180.8
23666.2
19357.5
19266.3
17645.3
17088.3
21340.2
29028.3
34676.9
38536.7
39219
38287.1
37977.2
36496.4
34352.2
35018.8
28546.7
29928.3
22396.8
19626.5
19026.2
18620.7
17727.7
16015.1
17851.1
15711.5
16500.6
15184.6
15790.8
15947
20577.1
42242.6
1070.23
512.711
21.5924
0.0957443
2.13176e-06
4.73536e-11
1.12184e-15
3.1189e-20
8.99288e-25
2.60831e-29
7.67901e-34
2.38292e-38
8.18369e-43
3.20234e-47
1.40878e-51
6.62054e-56
3.15297e-60
1.46362e-64
6.48895e-69
2.71817e-73
1.07464e-77
4.0151e-82
1.4286e-86
4.88078e-91
1.62396e-95
5.33601e-100
1.76159e-104
5.918e-109
2.03343e-113
6.59772e-118
8.77167e-132
4.69863e-136
2.24904e-140
9.75802e-145
4.03688e-149
1.64826e-153
6.77725e-158
2.9755e-162
0
0
0
0
0
0
0
0
0
0
0
0
0
0
0
0
0
0
0
0
0
0
0
0
0
0
0
0
0
0
0
0
0
0
0
0
0
0
0
0
0
0
0
0
0
0
0
0
0
0
0
0
57853.6
142313
214723
262092
276206
279970
300273
322213
341974
371443
401573
429577
13547.3
171015
582472
172176
300541
575024
383820
141672
11024.5
8222.09
15760.8
166015
269309
241949
125744
84778.1
303856
749810
695162
646891
611285
339529
1509.51
0.00203276
0.000833318
0.0362328
7.72452
81.2882
28.1509
18.6942
275.115
292595
110660
10.2948
19.9776
1080.14
118518
469482
589027
574867
533091
497023
453906
443672
438604
178779
134106
123697
102107
93990.2
80531
74875.7
79474.1
76362.7
41008.3
12670.6
1460.36
396.985
751.409
4093.65
15982.4
412249
710294
167226
47237.6
12283.5
2297.59
408.043
14.3171
0.311569
0.0269778
0.0116872
0.00937617
0.0133932
0.0209968
0.0218755
0.0209483
0.0220732
0.0719676
1.18332
133.441
4136.49
13292.7
14199.9
9329.47
6233.13
5944.53
10357.5
9273.77
4928.87
4171.93
235129
165909
172.433
1345.03
9491.27
33520.1
47246.9
47654.5
32717.8
10466.2
5471.58
4833.71
4524.11
1561.24
39.834
0.224968
0.00692164
0.00497574
0.0411571
1.01654
3.38025
1.30457
0.139428
0.0056573
0.000817191
0.000677532
0.00676731
0.727541
4.99178
12.2295
36778.4
728418
123740
59455.5
12238
1950.74
487.128
46.5385
2.87253
0.432425
0.587416
16.9524
158.226
36564.6
174561
166221
302999
430223
585608
588068
561325
720628
811432
801811
772012
633912
256729
13732.6
14416.1
1.1025
939.747
530596
1835.61
856.514
953.74
1552.27
2519.59
2036.8
1187.07
775.458
622.631
567.575
649.015
638.511
758.355
636.496
591.443
304.248
1472.47
5766.61
40694.7
82513.3
110060
117649
78669.3
26922.4
8670.35
442123
505289
383068
470509
804361
639054
108928
1349.83
293.548
2291.96
9150.22
10015.6
311154
1.04287e+06
1.21326e+06
509626
26283.4
41805
71605.4
118750
142227
152735
117628
112281
94450
91677.3
81492.6
89142.8
98768.1
95807.6
91675.6
86353.7
78333.2
240644
22415.7
30857.4
35630
35621.7
32737.4
32084.4
31022.1
28182.2
25063.6
23180
21171.9
19471.9
20295.4
18044.2
20120.4
26406.8
38906.1
52196.5
57361.8
56870.7
62292.4
62298.3
46821.6
39687.6
28947
26661.3
22013.9
19019.2
18718.6
23652.3
17265.8
22500.8
22692.5
21383.3
25458.6
36911.7
43089.8
44744
40079.1
35497.7
31413.4
29783.2
31641
26111.5
24388.8
16270.6
16994.4
17889.4
17505
16825.9
16661.8
18027.8
17056
17471.1
17845.4
16897
17471
18787.4
23385
49001.4
23118.8
21110.3
1378.6
29.568
0.0184762
1.49266e-06
4.96792e-11
1.26961e-15
3.70186e-20
1.03855e-24
2.81394e-29
7.91715e-34
2.4694e-38
8.84293e-43
3.65166e-47
1.68978e-51
8.29177e-56
4.07759e-60
1.93384e-64
8.67176e-69
3.65079e-73
1.44301e-77
5.38049e-82
1.9076e-86
6.50333e-91
2.16182e-95
7.1216e-100
2.36284e-104
8.00411e-109
2.78571e-113
5.4485e-127
2.36855e-131
9.92645e-136
4.03295e-140
1.59192e-144
6.25335e-149
2.48668e-153
1.00893e-157
4.40636e-162
0
0
0
0
0
0
0
0
0
0
0
0
0
0
0
0
0
0
0
0
0
0
0
0
0
0
0
0
0
0
0
0
0
0
0
0
0
0
0
0
0
0
0
0
0
0
0
0
0
0
0
79535.5
200268
285972
307703
305552
302705
314584
326810
315558
337845
414566
477680
345783
105.821
26874.9
52092.4
7365.13
151439
343563
325643
268779
10741.9
2121.21
2464.75
86774
314783
426255
374282
307220
492322
796292
789905
713025
702276
457340
888.79
0.000728018
0.0011686
0.608907
448.84
8135.48
11966.5
7270.12
276.602
17.0579
81.1583
57834.8
49450.7
8.28333
1.97603
40.1408
79417.6
591700
633758
569306
522323
498377
492579
444029
89185.6
52185.1
30418.3
30587.7
24732.1
15150.9
8861.07
5745.63
4935.5
4292.66
3869.73
3277.2
2274.71
2008.64
1647.69
2463.94
6725.68
7109.83
12913.8
268364
251177
6432.62
24434.1
13996.3
3918.54
962.561
142.819
3.25334
0.0753104
0.00968222
0.00410069
0.00278063
0.00169657
0.00126584
0.00246173
0.0201204
1.09323
66.0558
766.974
2151.65
2872.82
1605.54
463.594
118.714
47.4042
45
120.823
397.897
573.967
817.826
2767.12
21152.4
7506.66
7.25427
45.0169
1263.58
11138
27012
32821.4
32854.4
20917.5
7613.51
5725.48
5689.08
3967.52
602.741
3.04362
0.00570806
0.000189573
0.000173612
0.00170156
0.0361452
0.217745
0.248688
0.0409411
0.00234967
0.000393493
0.00053888
0.00983492
0.401052
16.5856
634.94
10917.7
751991
671197
54791.8
30929.3
10266
2069.77
533.111
127.033
38.9355
9.8487
8.28561
37.61
162.789
5496.66
104631
116979
67739
120816
336585
557843
582119
354498
235742
522659
690512
571773
202922
51096.6
13366.4
17566.3
2850.52
0.788634
106181
178850
2879.46
628.893
601.569
795.786
1291.16
2279.56
1807.82
1127.28
748.039
579.86
593.151
699.733
1116.48
1703.18
3900.97
4466.61
14469.7
12460
26570.2
33108.9
95833.2
105266
129794
103463
18804
7918.66
650391
792531
716343
766268
931521
1.50384e+06
361503
71200.3
12616
873.101
784.91
2139.91
1586.39
7797.94
326891
253956
7294.8
693.764
950.731
3670.54
5764.45
18703.5
30028.3
53717.9
88648.9
91307.3
101958
83083.9
83467.2
70645.8
77878.4
79155.2
89037.4
81486.6
76781.1
83059.2
141841
100218
4976.58
39960.6
54735.6
46912
49656.2
45471.3
47332.5
46383.2
45005.8
41900.8
35472.3
35943.8
29530.3
31240
29191.1
32364.3
48246
57974.5
59646.4
57492.1
54818.5
56721.4
65464
57232.4
48871.1
32508.8
26386
24668.7
20120.2
24057.8
17906.4
16337.9
24073.4
24317.1
26997.7
21852.6
33932.8
36801.9
39807.6
36885.3
31298.7
24348.1
23604.5
25212.6
20240.9
18447.3
13857.7
17057.6
15532.5
14603.4
14747.4
15560.3
16152
16682.7
16528.5
17557.4
17168.2
17997.8
17059.6
20304.1
22276.4
29130.6
45191.5
43212.8
22039.8
27121.8
21320.8
1090.73
21.715
0.00335634
2.80284e-07
1.63337e-11
7.12704e-16
2.3929e-20
6.34887e-25
1.52077e-29
4.00492e-34
1.30667e-38
5.13183e-43
2.30728e-47
1.14372e-51
5.9105e-56
3.00905e-60
1.45611e-64
6.59433e-69
2.78467e-73
1.0997e-77
4.08811e-82
1.44463e-86
4.91337e-91
1.63318e-95
5.39563e-100
1.80224e-104
6.20835e-109
2.19682e-113
7.27363e-118
2.2297e-122
7.47311e-127
2.73632e-131
1.0099e-135
3.73861e-140
1.3991e-144
5.34426e-149
2.09817e-153
8.47671e-158
4.28751e-162
0
0
0
0
0
0
0
0
0
0
0
0
0
0
0
0
0
0
0
0
0
0
0
0
0
0
0
0
0
0
0
0
0
0
0
0
0
0
0
0
0
0
0
0
0
0
0
0
0
0
0
0
0
0
114425
271199
336013
341015
342148
336200
311944
294985
300666
313700
378340
467227
493454
34.9752
236.808
944.389
984.596
107841
477010
509614
150071
4099
187.782
18692.3
331060
694399
729272
739023
806019
869135
842127
802393
765310
590461
536.462
0.000514735
0.00202297
4.04405
3173.82
26729.4
36922.6
31181.6
17993.4
7586.54
348.156
10.7492
1.63843
0.788564
1.83036
29.5525
13392.3
261476
538394
577305
508407
360643
41385.9
12504.1
4555.8
2721.61
2309.4
1525.86
794.546
315.897
201.633
316.132
829.124
2301.8
4717.52
7553.65
9563.61
11169.1
4708.67
1701.53
1820.67
2635.14
1998.77
1125.66
654.923
659.224
1934.1
6612.8
4089.5
1439.17
606.222
78.0599
1.76382
0.0680661
0.0133301
0.0156195
0.039733
0.197055
1.41471
14.0352
89.9977
228.276
431.88
538.985
515.087
214.961
64.3282
17.2869
4.15788
1.37338
0.538899
0.467783
0.673089
1.28757
2.21596
2.06494
0.472609
0.296528
1.94
131.522
2745.09
12012.2
18706
21527.8
22245.4
13693.3
6653.03
6060.02
6982.91
4769.91
792.927
6.0743
0.0050297
5.11139e-05
2.23136e-05
0.000272869
0.00395817
0.031641
0.0488236
0.0156486
0.00139494
0.00032054
0.00049834
0.0842469
140.756
19736.2
19035.5
50744.4
34652.3
18898.3
11450.1
5118.68
1153.74
445.029
157.747
127.547
80.7557
98.2723
152.356
262.732
276.874
21715.3
58298.9
22314.7
19479.5
70659
228821
503956
554725
80938.1
291.66
129.116
233.824
248.346
458.253
1223.93
5118.1
11464.4
10578.5
48.2317
783.197
857.977
530.982
506.627
742.858
866.681
1205.68
2417.63
2734.07
2138.48
1691.12
1499.59
1498.52
1975.64
2562.54
4622.27
8221.94
12159.8
31247.5
39691.7
69926.6
110233
135652
154109
162841
137044
32291.7
9776.88
33708.4
1.1145e+06
1.11266e+06
1.25309e+06
1.03971e+06
172183
17932.6
16999.4
5906.88
1992.59
1529.87
939.607
13748.8
251038
136133
2897.62
38.9444
52.5629
151.815
222.114
866.909
1252.24
5459.84
5476.08
12242.2
31635.1
40856.5
57516.3
66215.5
74784.1
71876.6
79496
77156.6
71786.2
63850.7
69631.5
61678.7
61990.6
16347.5
52.8853
74972.5
77547.1
61160.9
49811.6
45670
63945.2
70622.8
71534.6
68018.1
57996.7
54410.1
51689
51608.8
44948.3
52932.4
61844.9
70202.5
62729.6
57767
55213.6
54992.1
65359.6
68618.2
64336.4
57361
44782
27519.3
34267.1
0
25313.2
53807.7
47060.7
34904.2
41117.1
38739.7
43060.8
32223.3
27662.7
21895.7
20981
22899.2
16991.7
18107.4
15438.3
15612.1
12832.1
13037.5
13076.1
14160.8
14001.5
15162.1
14982.8
16147.9
15889
17280
16520.2
19049.5
17716.9
21975.9
25257.6
25645.1
29234.1
26732.1
22357.3
31864
15445.8
225.053
1.80243
1.60208e-05
1.18872e-10
5.39224e-15
2.32737e-19
8.62493e-24
3.50036e-28
1.88108e-32
1.16812e-36
7.00774e-41
3.80106e-45
1.84234e-49
8.02195e-54
3.17824e-58
1.16935e-62
4.12308e-67
1.45866e-71
5.46942e-76
2.26226e-80
1.03069e-84
4.98399e-89
2.44972e-93
1.18667e-97
5.57038e-102
2.51707e-106
1.09567e-110
4.60807e-115
1.88302e-119
7.62432e-124
3.11835e-128
1.30229e-132
5.59951e-137
2.47692e-141
1.11753e-145
5.08273e-150
2.30607e-154
1.03667e-158
0
0
0
0
0
0
0
0
0
0
0
0
0
0
0
0
0
0
0
0
0
0
0
0
0
0
0
0
0
0
0
0
0
0
0
0
0
0
0
0
0
0
0
0
0
0
0
0
0
0
0
0
0
0
145240
316515
319636
328418
321449
292717
282801
301094
310854
319469
375839
464308
505834
2568.07
139.194
101.646
13.7831
48341.8
561215
656615
203255
4978.22
750.142
124264
805722
816811
794453
813925
839422
853926
846842
867650
544556
1721.95
0.000141385
0.0011257
2.18569
1176.53
17098.6
25192.2
11868.6
3505.62
1818.22
1516.93
1196.28
156.335
71.8516
99.1768
253.547
851.387
2040.42
3328.16
4602.92
3975.33
2055.08
725.645
308.234
153.548
106.563
67.6346
42.6835
20.9864
21.6536
33.583
175.211
789.94
1707.04
1947.18
1295.26
942.27
938.642
825.334
333.78
321.71
660.481
1678.71
2054.47
1715.71
1354.77
1364.56
2404.39
3114.65
1583.11
1039.44
706.176
89.6577
2.77339
0.168142
0.09741
0.381353
5.25105
51.1048
169.634
238.065
240.228
233.604
252.316
209.666
136.524
60.7187
20.5249
5.58687
1.45166
0.376397
0.122747
0.0598774
0.0604105
0.0720405
0.138181
0.271153
0.434492
1.37899
30.7626
1000.83
4650.67
8878.04
11257.4
14149.4
15739
10402.6
6342.89
7168.47
9346.55
7813.79
2704.52
112.919
0.199994
0.000118147
8.38386e-06
1.17876e-05
0.000261613
0.00338448
0.00706851
0.00318408
0.000610509
7.0838e-05
0.232899
5939.69
143179
37152.6
13949.5
10777.6
6970.08
3541.06
1596.04
592.512
206.058
133.765
126.787
155.013
347.702
538.753
669.854
633.063
1945.22
20250
19969.9
6077.29
6566.99
22923
85418.3
226675
316724
8862.59
2.51619
0.91453
0.928983
1.89344
3.54025
7.3635
26.5352
224.516
579.877
62.1828
108.854
217.351
258.704
785.611
1818.56
1864.05
1752.75
2081.6
3766.57
4634.55
4738.1
4900.77