/*--------------------------------*- C++ -*----------------------------------*\
| =========                 |                                                 |
| \\      /  F ield         | OpenFOAM: The Open Source CFD Toolbox           |
|  \\    /   O peration     | Version:  2.1.1                                 |
|   \\  /    A nd           | Web:      www.OpenFOAM.org                      |
|    \\/     M anipulation  |                                                 |
\*---------------------------------------------------------------------------*/
FoamFile
{
    version     2.0;
    format      ascii;
    class       volScalarField;
    location    "0.003200000";
    object      rho;
}
// * * * * * * * * * * * * * * * * * * * * * * * * * * * * * * * * * * * * * //

dimensions      [1 -3 0 0 0 0 0];

internalField   nonuniform List<scalar> 
12384
(
0.50148
0.522525
0.550717
0.576441
0.604869
0.638867
0.646174
0.654947
0.648264
0.636365
0.607661
0.60485
0.595418
0.59912
1.12688
1.14114
1.07652
1.00917
0.941094
0.896404
0.869789
0.824888
0.829613
0.799051
0.807466
0.784325
0.788679
0.769786
0.779624
0.772928
0.764012
0.774016
0.739262
0.766052
0.733577
0.767024
0.76057
0.792284
0.779131
0.773842
0.713111
0.681609
0.689213
0.736147
0.706314
0.64762
0.621759
0.629417
0.608083
0.609499
0.593217
0.581275
0.57651
0.559474
0.551947
0.531408
0.531566
0.512944
0.519041
0.501451
0.509454
0.495721
0.495414
0.522256
0.505992
0.57042
0.597077
0.666738
0.734369
0.779466
0.782031
0.764791
0.693627
0.671505
0.894363
0.828731
0.828817
0.744102
0.767556
0.719726
0.714461
0.711752
0.684323
0.657328
0.67039
0.602631
0.632235
0.579382
0.60567
0.587324
0.618986
0.614046
0.635938
0.632265
0.638325
0.632599
0.645416
0.648637
0.674987
0.687146
0.778184
0.859643
0.822994
0.774104
0.81349
0.782054
0.768637
0.751038
0.745273
0.722647
0.733065
0.727723
0.735722
0.738419
0.738221
0.704643
0.688714
0.656908
0.65107
0.626671
0.633769
0.605125
0.608267
0.57502
0.573018
0.565204
0.580494
0.551811
0.704684
0.768108
0.871447
0.810281
0.770244
0.759566
1.52783
1.26995
1.18025
1.00962
0.913215
0.901129
0.831838
0.827325
0.801911
0.820329
0.808045
0.823784
0.81711
0.874824
0.914996
1.03079
1.08553
1.12668
1.16072
1.18275
1.17918
1.1482
1.06696
0.936853
0.867892
0.836972
0.699849
0.718509
0.696099
1.63787
0.789413
0.794583
0.643378
0.606035
0.549498
0.55121
0.540571
0.55039
0.548864
0.548535
0.555346
0.553581
0.573833
0.570802
0.606048
0.600059
0.671567
0.68528
0.794742
0.852443
1.13748
1.40947
2.79235
3.66514
3.65339
4.11471
4.1612
4.04602
3.95229
3.85591
1.30456
1.38125
1.2978
1.31423
1.3989
1.38094
1.38697
1.47422
1.48118
1.55407
1.60186
1.67085
1.6865
1.71006
1.64121
1.32603
1.5613
1.38159
1.51286
1.47318
1.54453
1.52174
1.5401
1.50374
1.51855
1.46064
1.4556
1.39177
1.34268
1.33583
0.754691
0.784823
0.790825
0.783237
0.790808
0.75571
0.735815
0.733128
0.746203
0.722292
0.7543
0.795575
0.729421
0.902876
1.03391
1.21295
1.43255
1.37534
1.29999
1.28714
1.20737
1.17413
1.18452
1.16002
1.15613
1.19964
1.19871
1.22351
1.26306
1.3252
1.00358
1.00784
0.953725
0.978335
0.951074
0.980513
1.01239
1.05111
0.975722
1.04824
1.03549
1.06411
1.15817
1.05968
1.24425
1.14974
1.33966
1.25433
1.47539
1.43082
1.64509
1.65515
1.82448
1.83811
1.89628
1.70674
1.87636
1.24467
1.37854
0.868678
0.865216
0.865819
0.865857
0.865876
0.865881
0.865905
0.865912
0.865932
0.865937
0.86596
0.865965
0.865987
0.866009
0.86604
0.866055
0.86606
0.866042
0.86602
0.865985
0.865974
0.865955
0.865945
0.865923
0.865916
0.865895
0.865883
0.865871
0.865858
0.865815
0.865215
0.865215
0.865817
0.86586
0.865874
0.865876
0.865898
0.865908
0.865927
0.865939
0.865961
0.865967
0.86599
0.866011
0.86604
0.866054
0.866054
0.86604
0.866013
0.865987
0.865964
0.865959
0.865937
0.865931
0.865908
0.865902
0.865881
0.865876
0.865858
0.865818
0.865211
0.865208
0.865813
0.865851
0.865875
0.865876
0.865903
0.865905
0.865929
0.865931
0.865952
0.865958
0.865983
0.866002
0.866033
0.866044
0.866054
0.866034
0.866018
0.865986
0.865976
0.865951
0.865944
0.865919
0.865914
0.865889
0.865881
0.865864
0.865857
0.865809
0.865208
0.53944
0.547133
0.539922
0.548129
0.575723
0.588121
0.616472
0.654799
0.668788
0.676777
0.644396
0.610274
0.597344
0.611311
1.18511
1.06762
0.929657
0.875599
0.823444
0.792972
0.744687
0.726613
0.688674
0.678848
0.660126
0.658918
0.650454
0.654068
0.654211
0.678002
0.678856
0.708775
0.689536
0.736161
0.733077
0.768816
0.783674
0.79562
0.775467
0.754735
0.692979
0.66944
0.688421
0.727457
0.692096
0.643992
0.635911
0.637251
0.633592
0.631862
0.609551
0.597559
0.567308
0.557187
0.532557
0.527318
0.508169
0.50791
0.499587
0.491264
0.492915
0.494979
0.492829
0.5155
0.522135
0.568345
0.588888
0.650224
0.723503
0.774546
0.77465
0.720437
0.678096
0.671301
0.886028
0.840584
0.805127
0.748218
0.733363
0.701807
0.71158
0.709884
0.730908
0.673075
0.682387
0.630823
0.642259
0.605575
0.621961
0.611808
0.641572
0.639128
0.659227
0.660165
0.656358
0.644297
0.660892
0.648135
0.683728
0.695064
0.788675
0.86286
0.828759
0.772317
0.80982
0.789704
0.771749
0.749215
0.731301
0.715001
0.706459
0.708834
0.699981
0.711752
0.7028
0.705392
0.668171
0.688248
0.677313
0.689044
0.676835
0.675496
0.643681
0.638036
0.595293
0.59864
0.603012
0.573724
0.697638
0.795626
0.854614
0.811398
0.752061
0.739978
1.40874
1.32901
1.00273
0.949775
0.818432
0.851469
0.799773
0.834379
0.809093
0.836431
0.887047
0.920452
0.949488
0.956266
0.998754
1.05234
1.10724
1.14532
1.16671
1.16005
1.14353
1.13361
1.09698
1.0515
0.869261
0.88001
0.740649
0.742431
0.668716
1.66253
0.877886
0.760199
0.653782
0.567457
0.56719
0.538902
0.537071
0.514173
0.521678
0.520598
0.520415
0.530354
0.530536
0.552599
0.5572
0.602182
0.613446
0.707063
0.774857
0.962398
1.22693
1.46899
1.36437
1.83585
2.32304
2.46378
3.10774
3.2432
3.4912
3.50992
1.28553
1.35573
1.24246
1.20812
1.13972
1.24598
1.2891
1.34841
1.49516
1.51494
1.59801
1.68525
1.77683
1.77144
1.6417
1.42176
1.29546
1.40318
1.34903
1.43478
1.44327
1.47271
1.47848
1.48072
1.51314
1.45869
1.49111
1.42995
1.38033
1.37542
0.74892
0.774667
0.772844
0.780016
0.764987
0.764609
0.729837
0.737678
0.746593
0.748048
0.785307
0.809108
0.820395
0.925121
0.96094
1.46599
1.57329
1.54833
1.53503
1.40478
1.33397
1.28013
1.23337
1.27193
1.2817
1.37829
1.33121
1.35949
1.34514
1.35648
1.11121
1.05784
1.05635
1.0922
1.12928
1.27402
1.3436
1.41991
1.51595
1.51058
1.55422
1.41717
1.51393
1.47185
1.61804
1.59423
1.75011
1.76642
1.89667
2.01318
2.12263
2.27013
2.31118
2.35822
2.26509
2.27093
1.9397
2.00596
1.16043
0.960777
0.874976
0.886957
0.887829
0.88792
0.888134
0.888219
0.888468
0.888562
0.888804
0.8889
0.889146
0.889287
0.889651
0.88994
0.890213
0.890191
0.89006
0.889691
0.889436
0.889163
0.88904
0.888767
0.888664
0.888408
0.888296
0.888069
0.887951
0.887775
0.886967
0.874877
0.874418
0.887041
0.887823
0.887908
0.888141
0.888223
0.888482
0.888588
0.888847
0.888965
0.889233
0.889366
0.889724
0.889985
0.890204
0.890208
0.889999
0.889717
0.889348
0.88921
0.888946
0.888841
0.888593
0.888496
0.888245
0.888171
0.887933
0.88784
0.887062
0.874431
0.874857
0.88696
0.887852
0.887953
0.888191
0.888274
0.88854
0.888613
0.888862
0.888927
0.889181
0.88929
0.889629
0.889894
0.890186
0.890185
0.890054
0.889693
0.889433
0.889167
0.889051
0.88878
0.88868
0.888417
0.888314
0.888075
0.887955
0.887772
0.886956
0.874849
0.523583
0.517082
0.47094
0.479502
0.473923
0.479423
0.513793
0.551549
0.620164
0.684341
0.687332
0.643739
0.604445
0.63546
1.06035
0.936732
0.908522
0.894461
0.877803
0.851411
0.82642
0.795493
0.763029
0.730467
0.700623
0.681067
0.664386
0.642951
0.633732
0.61931
0.618978
0.620659
0.631059
0.701239
0.731987
0.781592
0.785566
0.799676
0.78449
0.75879
0.698895
0.678497
0.686035
0.715729
0.687698
0.647251
0.646102
0.657819
0.66315
0.651538
0.644228
0.611502
0.595408
0.557329
0.546537
0.517238
0.515243
0.4934
0.496818
0.47896
0.486896
0.479766
0.494943
0.516138
0.537371
0.586223
0.588047
0.640515
0.710725
0.771331
0.754735
0.701298
0.665147
0.664942
0.887597
0.833591
0.799736
0.747012
0.722148
0.71184
0.756422
0.736714
0.732322
0.694576
0.673112
0.649565
0.648503
0.626429
0.634502
0.623617
0.644603
0.6466
0.668362
0.678248
0.689892
0.6731
0.684314
0.658813
0.694738
0.726561
0.831213
0.866175
0.823528
0.772008
0.804643
0.798714
0.78731
0.752638
0.719589
0.705869
0.689731
0.687577
0.695077
0.704247
0.730992
0.750698
0.754708
0.751104
0.743961
0.738885
0.750647
0.732741
0.726343
0.700086
0.665349
0.652662
0.633258
0.626989
0.721418
0.828946
0.83656
0.7787
0.720338
0.713148
1.42718
1.1852
0.980334
0.871223
0.816147
0.812357
0.831302
0.811375
0.862788
0.89157
0.976744
0.997974
1.03115
1.03421
1.08194
1.0772
1.05121
0.976492
0.873924
0.833812
0.806058
0.859244
0.955498
1.04248
0.974316
0.948829
0.790067
0.750533
0.731009
1.83069
0.813312
0.746613
0.617919
0.595885
0.542522
0.54267
0.516836
0.525683
0.514849
0.520145
0.528551
0.524629
0.542131
0.535588
0.570274
0.562113
0.651365
0.640135
0.870606
0.984427
1.28596
1.43997
1.48108
1.18823
1.20027
1.19566
1.37988
1.38704
1.30934
3.38334
1.40464
1.32996
1.1247
1.15496
1.12404
1.18414
1.31031
1.4098
1.4617
1.57569
1.68581
1.80578
1.87121
1.71891
1.47257
1.33372
1.25758
1.23274
1.19096
1.25131
1.33881
1.32768
1.42416
1.43368
1.49656
1.48071
1.53834
1.51114
1.46048
1.45889
0.736326
0.754126
0.751319
0.732264
0.714695
0.698055
0.676367
0.667737
0.677341
0.692672
0.721084
0.747408
0.797339
0.777046
0.961458
1.25128
1.69558
1.74722
1.71197
1.60279
1.55874
1.483
1.43937
1.47778
1.49652
1.65257
1.54755
1.64036
1.49888
1.46331
1.18011
1.11507
1.05432
1.11957
1.24251
1.27563
1.37186
1.51405
1.63767
1.63538
1.6366
1.67779
1.62681
1.71805
1.84339
1.88798
2.06655
2.14751
2.3391
2.45719
2.62335
2.70837
2.77418
2.65811
2.72684
2.44473
2.77791
2.38903
2.31353
1.75417
1.08233
1.06657
1.0656
1.06534
1.06522
1.06503
1.06487
1.06467
1.06452
1.06431
1.06413
1.06385
1.0635
1.06305
1.06281
1.06275
1.06301
1.06336
1.06378
1.064
1.06424
1.06443
1.06464
1.06481
1.06504
1.0652
1.06542
1.06556
1.06651
1.08269
1.08267
1.06653
1.06558
1.06542
1.06525
1.06504
1.06485
1.06463
1.06445
1.06422
1.06403
1.06376
1.06343
1.06302
1.06277
1.06278
1.06301
1.06344
1.06378
1.06405
1.06424
1.06446
1.06463
1.06483
1.06501
1.0652
1.06536
1.06559
1.06651
1.08266
1.08267
1.06651
1.06554
1.06528
1.06515
1.06496
1.06481
1.06461
1.06448
1.06428
1.06411
1.06385
1.06354
1.06311
1.06284
1.06273
1.06298
1.06333
1.06375
1.06396
1.0642
1.0644
1.06463
1.0648
1.06503
1.06519
1.06541
1.06555
1.06649
1.08268
0.481063
0.459032
0.435528
0.427888
0.425314
0.439064
0.454075
0.475052
0.519313
0.610258
0.688818
0.67895
0.63874
0.642974
0.910971
0.853904
0.907141
0.912508
0.891236
0.865045
0.837593
0.837537
0.81938
0.83082
0.81024
0.800406
0.766187
0.727985
0.661076
0.627594
0.597921
0.585933
0.602782
0.647696
0.739682
0.776306
0.813063
0.821765
0.834848
0.802088
0.754055
0.705523
0.697337
0.733373
0.684001
0.652675
0.662866
0.665137
0.667987
0.663823
0.654209
0.644852
0.611133
0.588714
0.548182
0.536259
0.505969
0.503877
0.480785
0.483272
0.470203
0.479028
0.478403
0.520112
0.547298
0.588538
0.603424
0.632435
0.701566
0.759698
0.755325
0.700049
0.655805
0.681584
0.871797
0.835112
0.794385
0.737744
0.743073
0.747033
0.775114
0.758961
0.726306
0.729627
0.689184
0.668138
0.645511
0.648528
0.64502
0.643422
0.650842
0.652884
0.666469
0.689184
0.705984
0.706428
0.702995
0.700475
0.740161
0.799258
0.867432
0.855743
0.796756
0.766317
0.796833
0.811399
0.811389
0.756271
0.718216
0.688533
0.678153
0.683871
0.692307
0.725197
0.768995
0.792364
0.750107
0.736342
0.693128
0.704463
0.690238
0.70716
0.702011
0.702
0.697059
0.678323
0.687453
0.655969
0.782773
0.836234
0.821835
0.746536
0.698789
0.684832
1.27234
1.12162
0.935933
0.872651
0.817743
0.843086
0.832148
0.831385
0.901564
0.965765
1.02786
1.05746
1.03699
1.03514
0.93192
0.81686
0.737078
0.697634
0.676932
0.662771
0.65624
0.681745
0.68303
0.754288
0.853646
0.924102
0.854832
0.813738
0.759165
1.79727
0.852272
0.691513
0.639315
0.568878
0.569379
0.537482
0.548219
0.535635
0.546506
0.540895
0.539419
0.548146
0.5383
0.556243
0.546387
0.600163
0.590973
0.73505
0.89823
1.09125
1.2092
1.38632
1.31017
1.11223
0.994411
1.03484
1.13899
1.43082
1.7431
3.00004
1.53681
1.30801
1.162
1.12406
1.18337
1.25099
1.36388
1.48356
1.59117
1.68298
1.81155
1.84916
1.7067
1.44799
1.20053
1.12885
1.07999
1.12025
1.09317
1.19781
1.14533
1.27446
1.26612
1.36933
1.41875
1.47753
1.5558
1.58451
1.54656
1.53094
0.737282
0.730388
0.679804
0.652869
0.616073
0.606707
0.601571
0.583543
0.594309
0.593646
0.62722
0.61089
0.664013
0.59647
0.812599
0.993784
1.53141
1.66153
1.69014
1.72722
1.62512
1.67491
1.63305
1.67128
1.68563
1.76256
1.76007
1.82505
1.72598
1.64996
1.18215
1.02635
0.945242
0.97054
0.953826
1.0091
1.08084
1.18356
1.30251
1.45191
1.49453
1.50763
1.5205
1.47876
1.5811
1.63113
1.68378
1.78035
1.77866
1.91726
1.84435
1.90444
1.67337
1.85686
1.52194
1.79205
1.49349
1.59446
1.92791
2.26439
1.08067
1.07459
1.07472
1.07469
1.07467
1.07466
1.07464
1.07463
1.07462
1.0746
1.07459
1.07457
1.07454
1.0745
1.07448
1.07448
1.0745
1.07453
1.07456
1.07458
1.07459
1.07461
1.07463
1.07464
1.07466
1.07467
1.07469
1.07472
1.07496
1.07784
1.07789
1.07495
1.07472
1.07469
1.07467
1.07466
1.07464
1.07462
1.07461
1.07459
1.07458
1.07456
1.07453
1.0745
1.07448
1.07448
1.0745
1.07453
1.07456
1.07458
1.07459
1.07461
1.07462
1.07464
1.07465
1.07466
1.07468
1.07472
1.07495
1.07789
1.07783
1.07495
1.0747
1.07467
1.07466
1.07465
1.07463
1.07462
1.07461
1.0746
1.07458
1.07456
1.07454
1.07451
1.07449
1.07448
1.0745
1.07453
1.07456
1.07458
1.07459
1.0746
1.07462
1.07463
1.07465
1.07466
1.07468
1.07471
1.07496
1.07784
0.410853
0.408577
0.402563
0.401745
0.414898
0.428967
0.442651
0.457635
0.480461
0.511506
0.618219
0.683992
0.668419
0.668747
0.770787
0.826833
0.863101
0.864252
0.836729
0.799858
0.776842
0.766693
0.781344
0.797345
0.824477
0.826728
0.840022
0.816569
0.755488
0.653088
0.598577
0.58011
0.580921
0.628776
0.722242
0.783939
0.82395
0.868902
0.909147
0.910784
0.863386
0.771514
0.718915
0.758157
0.678905
0.671861
0.676494
0.669926
0.660636
0.652574
0.644937
0.630077
0.618588
0.583587
0.565113
0.524675
0.521647
0.485159
0.485875
0.472104
0.472811
0.473394
0.493745
0.513456
0.563319
0.597289
0.608188
0.632847
0.695836
0.772816
0.76593
0.707064
0.694474
0.709794
0.873068
0.828741
0.789727
0.748852
0.741994
0.796594
0.770593
0.783573
0.752407
0.749106
0.668052
0.669476
0.610826
0.621987
0.627978
0.648477
0.644865
0.653164
0.672225
0.714525
0.737073
0.736501
0.748646
0.769093
0.8172
0.844389
0.866514
0.834901
0.771833
0.756422
0.791665
0.812568
0.809101
0.763142
0.701
0.684041
0.673744
0.677541
0.704971
0.740584
0.759936
0.727273
0.673488
0.644161
0.619058
0.618748
0.613033
0.625486
0.646378
0.668283
0.680149
0.695088
0.69395
0.719393
0.793133
0.841453
0.806895
0.744956
0.73669
0.741998
1.22662
0.963274
0.903006
0.860746
0.861723
0.827825
0.851154
0.845468
0.950547
1.01026
1.07319
1.03359
0.974146
0.808015
0.699485
0.645105
0.631645
0.622964
0.613359
0.60698
0.603185
0.604068
0.621664
0.632751
0.662311
0.783476
0.855931
0.863728
0.783557
1.39173
0.832526
0.700032
0.614771
0.601968
0.553127
0.568538
0.550666
0.567606
0.558215
0.561555
0.563405
0.551688
0.55968
0.547899
0.582984
0.583567
0.674571
0.782171
0.975296
1.06403
1.21201
1.26044
1.12381
0.950152
0.952438
0.931502
1.06103
1.30875
1.51903
1.73772
1.79044
1.30838
1.13345
1.1844
1.23962
1.35976
1.43782
1.51959
1.66974
1.71675
1.68712
1.55698
1.33206
1.02995
0.982071
0.867701
0.912977
0.909211
0.974686
0.981263
1.07837
1.09899
1.16863
1.19477
1.25475
1.39396
1.47429
1.54127
1.6126
1.5364
0.743677
0.696043
0.623527
0.609081
0.605754
0.603519
0.590349
0.578818
0.592006
0.575993
0.614731
0.608838
0.652022
0.596873
0.744985
0.961357
1.18818
1.33147
1.54899
1.5705
1.61607
1.64634
1.67676
1.70653
1.71558
1.77688
1.80183
1.90213
1.84443
1.86627
1.09633
0.897804
0.773594
0.691144
0.739407
0.823876
0.908667
1.00214
1.08409
1.14273
1.19315
1.2188
1.22508
1.2654
1.22131
1.29446
1.32578
1.36747
1.42048
1.34095
1.33355
1.19273
1.28499
1.00891
1.31544
1.0211
1.2038
1.33623
1.54867
2.12011
1.02352
1.05055
1.04673
1.04755
1.04747
1.04753
1.04747
1.04753
1.04747
1.04753
1.04747
1.04753
1.04746
1.04752
1.04746
1.04751
1.04746
1.04752
1.04747
1.04752
1.04747
1.04753
1.04746
1.04753
1.04746
1.04752
1.04747
1.04754
1.04757
1.04784
1.04788
1.04753
1.04753
1.04753
1.04746
1.04752
1.04746
1.04752
1.04746
1.04752
1.04746
1.04752
1.04746
1.04751
1.04747
1.04747
1.04751
1.04746
1.04752
1.04746
1.04752
1.04746
1.04752
1.04746
1.04752
1.04745
1.04752
1.0475
1.04754
1.04787
1.04784
1.04755
1.04747
1.04753
1.04746
1.04753
1.04746
1.04753
1.04746
1.04753
1.04747
1.04753
1.04746
1.04752
1.04746
1.04752
1.04746
1.04752
1.04746
1.04753
1.04746
1.04752
1.04746
1.04752
1.04746
1.04752
1.04746
1.04753
1.04758
1.04785
0.406043
0.402271
0.400996
0.412208
0.428961
0.439455
0.457695
0.46797
0.470042
0.486626
0.525935
0.638119
0.684071
0.676077
0.713241
0.782417
0.816435
0.809454
0.794207
0.76352
0.740009
0.736958
0.734073
0.761997
0.775335
0.80634
0.823789
0.840225
0.809521
0.684026
0.602817
0.566591
0.578545
0.614919
0.716284
0.791072
0.872814
0.944659
1.00081
1.02686
0.972764
0.862022
0.752576
0.764422
0.683177
0.686987
0.694774
0.671892
0.652031
0.630865
0.618492
0.606946
0.587628
0.575511
0.543189
0.529478
0.506726
0.48045
0.47332
0.478354
0.478136
0.487257
0.520064
0.534728
0.594884
0.600913
0.607919
0.622772
0.70292
0.801342
0.81121
0.775228
0.728258
0.708487
0.867817
0.809654
0.783034
0.766955
0.762706
0.808081
0.794413
0.792233
0.775412
0.745125
0.664646
0.627978
0.608302
0.60968
0.618311
0.639984
0.645004
0.674784
0.720379
0.754742
0.775994
0.788005
0.784096
0.790776
0.802066
0.841653
0.83871
0.814452
0.76264
0.750181
0.789089
0.823103
0.817095
0.749599
0.700223
0.670698
0.663931
0.683188
0.703262
0.723633
0.699214
0.666046
0.605949
0.611459
0.580855
0.600171
0.592689
0.591303
0.604845
0.621327
0.660751
0.675946
0.730346
0.711525
0.832878
0.820978
0.827602
0.797174
0.794611
0.788348
1.03007
0.864897
0.849486
0.881053
0.848282
0.841981
0.831076
0.90611
0.972598
1.04167
1.04081
0.9413
0.759232
0.664458
0.600477
0.605728
0.601296
0.599924
0.587552
0.568103
0.554315
0.565458
0.570723
0.599182
0.584369
0.631191
0.698884
0.888135
0.841305
0.914269
0.782721
0.688568
0.637816
0.594979
0.58869
0.57001
0.590939
0.572822
0.584081
0.585496
0.576881
0.585794
0.574968
0.602012
0.589671
0.687586
0.685949
0.861134
0.947346
1.06643
1.14191
1.10976
0.982711
0.950725
0.92615
1.02614
1.27604
1.46995
1.56496
1.57396
1.86905
1.27338
1.18144
1.20731
1.36296
1.37299
1.4822
1.4536
1.47224
1.50305
1.57353
1.46008
1.15498
0.906039
0.763523
0.81046
0.808563
0.830662
0.839149
0.860101
0.932409
0.99729
1.06945
1.14864
1.15362
1.2134
1.24861
1.40924
1.52978
1.54874
0.730496
0.683136
0.608119
0.606958
0.60683
0.588851
0.579741
0.569631
0.570909
0.563303
0.590293
0.605619
0.611316
0.633039
0.676701
1.01617
1.10215
1.27706
1.23677
1.34725
1.47178
1.57018
1.61623
1.65282
1.6648
1.68648
1.781
1.84084
1.89112
1.95531
0.940674
0.708093
0.582597
0.607467
0.677789
0.77112
0.88445
0.965627
1.03896
1.09323
1.12153
1.13779
1.10266
1.08745
1.09617
1.06071
1.1223
1.10417
1.01509
0.984663
0.921412
0.979569
0.79117
1.01191
0.853552
0.999634
1.04892
1.16289
1.33693
1.76117
1.14135
1.0215
1.01863
1.01395
1.01448
1.0145
1.01448
1.0145
1.01448
1.0145
1.01448
1.0145
1.01447
1.0145
1.01447
1.0145
1.01447
1.0145
1.01448
1.0145
1.01447
1.0145
1.01446
1.0145
1.01446
1.01449
1.01448
1.01452
1.0147
1.01703
1.017
1.01467
1.01453
1.0145
1.01447
1.01449
1.01447
1.01449
1.01447
1.01449
1.01447
1.0145
1.01447
1.01449
1.01449
1.01448
1.01449
1.01446
1.01449
1.01447
1.0145
1.01447
1.01449
1.01446
1.01449
1.01446
1.01449
1.01452
1.01468
1.01699
1.01703
1.01467
1.01448
1.01449
1.01446
1.0145
1.01447
1.0145
1.01447
1.0145
1.01447
1.0145
1.01447
1.01449
1.01446
1.01449
1.01447
1.01449
1.01447
1.0145
1.01447
1.01449
1.01446
1.01449
1.01446
1.01449
1.01447
1.01452
1.01471
1.01704
0.385189
0.390221
0.405307
0.419511
0.428705
0.44891
0.465981
0.488291
0.493833
0.485247
0.498447
0.568548
0.673363
0.724577
0.72913
0.7236
0.753883
0.762795
0.760864
0.757103
0.745318
0.729691
0.739058
0.732475
0.756569
0.776297
0.813448
0.829971
0.784261
0.66708
0.581346
0.570987
0.563242
0.635843
0.736251
0.858315
0.93576
1.0001
1.03647
1.02898
1.00191
0.920835
0.789053
0.751501
0.68851
0.709724
0.707482
0.666779
0.636595
0.61096
0.592659
0.583092
0.570307
0.549069
0.539379
0.507483
0.510451
0.471092
0.49243
0.488355
0.494221
0.522065
0.54497
0.586506
0.598164
0.601082
0.597691
0.643601
0.740114
0.831565
0.888218
0.870093
0.7842
0.755739
0.844195
0.792577
0.760681
0.779971
0.795755
0.795765
0.792215
0.820818
0.767152
0.755757
0.676892
0.666383
0.628325
0.639154
0.639545
0.671261
0.702684
0.743051
0.776281
0.786127
0.747951
0.694267
0.669273
0.662275
0.691488
0.719722
0.780287
0.79595
0.77818
0.753115
0.766879
0.798247
0.77915
0.731385
0.676276
0.662391
0.666091
0.680726
0.696284
0.688568
0.649026
0.620002
0.587866
0.601269
0.613467
0.659864
0.62947
0.629558
0.605002
0.61812
0.643826
0.663216
0.725496
0.744613
0.783402
0.88207
0.837425
0.893297
0.946002
0.951533
0.919234
0.794858
0.831625
0.842278
0.848369
0.811927
0.865082
0.909464
0.985465
1.01029
0.925811
0.755371
0.650971
0.593436
0.596061
0.589574
0.596437
0.580604
0.563363
0.54879
0.546353
0.53976
0.558105
0.567784
0.560132
0.546724
0.547355
0.716912
0.817543
0.900149
0.758379
0.680276
0.630739
0.611571
0.572347
0.589656
0.588156
0.588131
0.593213
0.59144
0.608257
0.605033
0.629116
0.618438
0.666934
0.697587
0.731491
0.861407
0.950584
1.00821
1.04895
1.01089
0.978656
0.95726
1.05726
1.26021
1.33981
1.39768
1.4462
1.3701
1.64879
1.23705
1.17361
1.28818
1.37169
1.35991
1.24375
1.22238
1.1977
1.25772
1.28066
1.31497
1.14223
0.830371
0.789287
0.706163
0.721868
0.709877
0.755297
0.731564
0.807084
0.820995
0.898664
0.991363
1.08406
1.12869
1.21171
1.22089
1.26459
1.39447
0.804441
0.670436
0.628749
0.600198
0.601112
0.576582
0.562416
0.559214
0.564072
0.54439
0.584465
0.569191
0.616532
0.580679
0.703084
0.862732
1.28352
1.22197
1.26063
1.2648
1.19539
1.31159
1.41987
1.43876
1.53742
1.55774
1.62191
1.76394
1.78373
1.94409
0.916718
0.592438
0.524205
0.519672
0.619533
0.784986
0.914297
1.0177
1.06302
1.07669
1.08382
1.07639
1.05261
1.08022
0.967568
1.01068
0.88899
0.819036
0.813621
0.80202
0.781737
0.738184
0.844733
0.789024
0.870169
0.857341
0.951623
1.02728
1.18792
1.46755
1.18485
1.19369
1.00064
0.964954
0.960235
0.960892
0.960871
0.960901
0.960876
0.960902
0.96088
0.960903
0.960883
0.960905
0.960888
0.960905
0.960886
0.960903
0.960878
0.960897
0.960869
0.960889
0.960862
0.960886
0.960857
0.960883
0.960875
0.96091
0.960905
0.960299
0.96023
0.960878
0.96093
0.960899
0.960861
0.960883
0.960862
0.960889
0.960865
0.960892
0.960871
0.9609
0.960878
0.960905
0.960907
0.960902
0.960901
0.960879
0.9609
0.960871
0.960895
0.960864
0.960887
0.960859
0.96088
0.960852
0.960887
0.960917
0.960894
0.960233
0.960299
0.96087
0.96087
0.960886
0.960858
0.96089
0.960861
0.960897
0.960866
0.960902
0.960877
0.960908
0.960881
0.960906
0.960886
0.960909
0.960891
0.960911
0.960883
0.960905
0.960878
0.960898
0.960866
0.960891
0.960856
0.960886
0.960873
0.960915
0.960926
0.960327
0.40642
0.428732
0.450273
0.466025
0.470369
0.473071
0.493816
0.510708
0.532882
0.526646
0.502598
0.523797
0.625663
0.713734
0.730306
0.70204
0.707498
0.737709
0.73635
0.757244
0.749186
0.754754
0.726476
0.735414
0.738268
0.769189
0.796636
0.786832
0.710084
0.612514
0.566792
0.558237
0.577667
0.66798
0.810132
0.919963
0.981873
0.952162
0.868622
0.837833
0.860761
0.870073
0.799186
0.752691
0.716276
0.738487
0.714515
0.664767
0.61761
0.598967
0.583513
0.568438
0.555041
0.547606
0.521109
0.53054
0.510519
0.497112
0.504255
0.518755
0.525132
0.563274
0.572217
0.598867
0.615107
0.622676
0.6734
0.741477
0.812046
0.907065
0.945489
0.880539
0.803397
0.747789
0.826623
0.770649
0.757176
0.780578
0.797459
0.783421
0.794317
0.804708
0.787504
0.768265
0.72992
0.726027
0.732737
0.721062
0.745246
0.750715
0.762496
0.745939
0.676887
0.6225
0.611721
0.609284
0.610202
0.625951
0.636431
0.670585
0.709099
0.757138
0.749482
0.727941
0.799854
0.817691
0.76782
0.695859
0.667096
0.658398
0.665017
0.68391
0.679466
0.659277
0.608667
0.594116
0.588306
0.634271
0.691152
0.712427
0.697053
0.673102
0.636807
0.636918
0.630296
0.68624
0.700744
0.796949
0.812218
0.896387
1.0567
1.10731
1.06375
1.04239
0.814515
0.795895
0.823981
0.81306
0.787224
0.833218
0.84292
0.901684
0.925663
0.885035
0.760269
0.667276
0.607397
0.589552
0.584392
0.601187
0.588163
0.582991
0.573116
0.56524
0.565707
0.54259
0.546403
0.554456
0.541645
0.518229
0.480746
0.558251
0.725676
0.851397
0.744244
0.67312
0.635514
0.605545
0.585311
0.581798
0.593158
0.581924
0.587649
0.598912
0.599966
0.627226
0.626035
0.659515
0.661539
0.719162
0.743059
0.879516
0.946915
0.978126
0.996411
0.985996
0.978306
1.0213
1.29015
1.44818
1.39223
1.25335
1.16708
1.00187
1.4282
1.1561
1.23651
1.26379
1.31553
1.14144
1.02005
0.961008
0.927512
0.948486
1.05079
1.06815
1.02745
0.856437
0.82336
0.742022
0.699973
0.715719
0.663833
0.741248
0.718942
0.800952
0.794667
0.859438
0.94264
1.02912
1.11162
1.19629
1.18823
1.2382
0.77642
0.696714
0.623876
0.623856
0.584135
0.574046
0.566837
0.549233
0.535676
0.557099
0.558784
0.561545
0.6104
0.582589
0.65133
0.844654
1.15091
1.41919
1.46041
1.34864
1.3489
1.31156
1.26588
1.3513
1.39101
1.518
1.53614
1.54723
1.71754
1.74723
0.696332
0.527884
0.547082
0.525469
0.575873
0.782901
0.958913
1.05621
1.06387
1.02319
0.974818
0.974208
1.01156
0.915563
0.905949
0.689045
0.725718
0.753285
0.729651
0.709662
0.714916
0.780219
0.754443
0.794734
0.834645
0.828067
0.882989
0.96982
1.0699
1.33396
0.785833
1.06343
1.21746
0.932227
0.915895
0.910913
0.911381
0.911388
0.911379
0.911388
0.911376
0.911384
0.911377
0.911385
0.911379
0.911385
0.911377
0.911383
0.911373
0.911381
0.91137
0.91138
0.911366
0.911378
0.911374
0.911402
0.911422
0.911468
0.911448
0.910694
0.910637
0.911433
0.91148
0.911435
0.911396
0.91139
0.91137
0.911378
0.911368
0.911381
0.91137
0.911382
0.911375
0.911386
0.911392
0.911388
0.911385
0.911374
0.911382
0.91137
0.911381
0.91137
0.911378
0.911367
0.911384
0.911384
0.91142
0.911472
0.911448
0.91064
0.910684
0.911426
0.911445
0.911426
0.911392
0.911392
0.91137
0.911383
0.911371
0.911385
0.911377
0.911385
0.911375
0.911383
0.911374
0.911383
0.911379
0.911386
0.911375
0.911382
0.91137
0.91138
0.911366
0.911383
0.911375
0.911412
0.911444
0.911534
0.911622
0.910877
0.429093
0.449609
0.478908
0.484551
0.481562
0.486982
0.514035
0.574858
0.619286
0.61154
0.560904
0.549931
0.607927
0.737058
0.69127
0.718848
0.697235
0.683625
0.681872
0.687737
0.72939
0.737071
0.766836
0.728272
0.715676
0.690783
0.706991
0.731328
0.728746
0.686849
0.619597
0.584321
0.551383
0.57534
0.623667
0.801543
0.876736
0.893746
0.848101
0.764347
0.705338
0.69139
0.698847
0.758393
0.771054
0.728176
0.650777
0.735034
0.794595
0.769618
0.720864
0.661399
0.624403
0.595866
0.580866
0.565038
0.556635
0.558376
0.549693
0.560699
0.574546
0.52992
0.555345
0.544634
0.573596
0.617695
0.649135
0.689894
0.699417
0.749058
0.75515
0.807523
0.864363
0.934625
0.914368
0.851822
0.789222
0.743042
0.725358
0.662936
0.734619
0.724973
0.747187
0.77439
0.766145
0.765373
0.777324
0.800859
0.802618
0.795472
0.791291
0.786448
0.783709
0.78931
0.742352
0.692993
0.624965
0.602756
0.595993
0.590686
0.590696
0.60269
0.628978
0.631173
0.654158
0.660973
0.686949
0.730366
0.754146
0.746777
0.691949
0.718097
0.77941
0.778224
0.713697
0.670927
0.655974
0.656223
0.665012
0.671762
0.654212
0.631823
0.580348
0.579611
0.593638
0.664271
0.72459
0.745579
0.729786
0.685731
0.674684
0.632938
0.67135
0.667637
0.770549
0.74172
0.900878
1.1784
1.22749
1.13506
1.06941
0.934503
0.863939
0.825579
0.824223
0.824129
0.804797
0.791128
0.803892
0.758021
0.824134
0.841054
0.821806
0.748072
0.67592
0.619205
0.589775
0.581708
0.58999
0.602397
0.609009
0.61301
0.614834
0.631034
0.623249
0.60825
0.582011
0.582767
0.537983
0.547125
0.471154
0.521283
0.580147
0.850201
0.758286
0.68444
0.695323
0.6564
0.622705
0.595152
0.574964
0.586629
0.574548
0.569284
0.566581
0.563798
0.576824
0.57624
0.607959
0.593197
0.677968
0.615914
0.778102
0.809121
0.914025
0.979137
0.975432
0.969205
0.943728
1.19086
1.40536
1.49194
1.44093
1.25748
1.1571
1.0314
1.1619
1.17126
1.17746
1.19526
1.16207
1.22231
1.10226
1.05435
0.957773
0.789505
0.757323
0.781231
0.810031
0.844197
0.776583
0.865191
0.714251
0.751889
0.629683
0.557703
0.609808
0.551032
0.623173
0.577933
0.69519
0.683128
0.785264
0.853154
0.960887
1.02676
1.10342
0.99151
0.805317
0.793779
0.949744
0.706993
0.656409
0.602143
0.609212
0.559248
0.556641
0.533921
0.546902
0.550763
0.542666
0.6089
0.583208
0.662913
0.691843
0.789537
1.13541
1.45217
1.5123
1.49285
1.39991
1.32649
1.34316
1.32608
1.33143
1.26596
1.23324
1.31325
1.34572
1.34372
0.42729
0.368056
0.559789
0.474291
0.54182
0.4255
0.626407
0.703044
0.869374
0.919496
0.898728
0.824081
0.85384
0.873709
0.792135
0.781224
0.630704
0.745543
0.674479
0.638069
0.646486
0.681881
0.706569
0.732082
0.73346
0.787235
0.78471
0.838909
0.819684
0.915599
0.976457
1.12412
1.14147
1.12068
0.972178
1.1011
0.948802
1.05791
0.836794
0.846115
0.842619
0.84298
0.842962
0.842969
0.842958
0.842959
0.842952
0.842955
0.842951
0.842955
0.84295
0.842955
0.842951
0.842958
0.842955
0.842959
0.842951
0.842965
0.842974
0.842999
0.843022
0.843025
0.842735
0.839611
0.836566
0.836567
0.839581
0.842721
0.843043
0.84303
0.842999
0.842984
0.842962
0.84296
0.842956
0.842959
0.842953
0.842956
0.842951
0.842957
0.842966
0.84296
0.842957
0.84295
0.842958
0.842954
0.842964
0.842956
0.842961
0.842959
0.84298
0.842988
0.843016
0.843033
0.842733
0.839583
0.836571
0.83657
0.839605
0.842705
0.843006
0.843021
0.842997
0.842988
0.842963
0.842969
0.842962
0.842973
0.842968
0.842974
0.842966
0.842966
0.842958
0.842962
0.842956
0.842963
0.842958
0.84297
0.842964
0.842979
0.84297
0.842994
0.842994
0.843026
0.843046
0.843053
0.842751
0.839633
0.836765
0.839053