/*--------------------------------*- C++ -*----------------------------------*\
| =========                 |                                                 |
| \\      /  F ield         | OpenFOAM: The Open Source CFD Toolbox           |
|  \\    /   O peration     | Version:  2.1.1                                 |
|   \\  /    A nd           | Web:      www.OpenFOAM.org                      |
|    \\/     M anipulation  |                                                 |
\*---------------------------------------------------------------------------*/
FoamFile
{
    version     2.0;
    format      ascii;
    class       volScalarField;
    location    "0.003200000";
    object      sL;
}
// * * * * * * * * * * * * * * * * * * * * * * * * * * * * * * * * * * * * * //

dimensions      [0 1 -1 0 0 0 0];

internalField   nonuniform List<scalar> 
12384
(
6.80751
6.32029
5.70725
4.89026
4.18218
3.42763
2.50592
1.62772
0.698681
0.81036
1.00974
1.14117
1.23313
1.21554
0.653623
0.776616
1.12862
1.53206
1.68439
1.66089
1.60967
1.6215
1.78719
1.61217
1.86137
1.99161
2.31645
2.52257
2.85177
2.71667
2.744
2.68729
1.87966
1.5193
0.846494
0.599721
0.568331
0.584255
0.658966
0.807013
0.970872
1.1698
1.2256
1.2146
0.992961
1.06918
1.43902
1.53694
1.36566
1.68131
1.72822
2.01378
2.19711
2.23334
2.22816
1.91045
1.74464
1.33584
1.34463
1.35189
1.3487
1.34835
1.34182
1.31372
1.31959
1.2651
1.21467
1.05795
0.864013
0.734818
0.689589
0.73525
0.89972
1.09831
1.28992
1.21046
1.1949
1.24579
1.25455
1.30044
1.32598
1.31449
1.32499
1.27939
1.26764
1.27987
1.25091
1.289
1.26661
1.28373
1.28117
1.28199
1.29783
1.33015
1.36851
1.40098
1.41827
1.41019
1.36986
1.27142
0.969031
0.763064
0.864706
1.05249
1.08165
1.20763
1.23879
1.26565
1.28737
1.31134
1.32481
1.32963
1.36015
1.36067
1.37694
1.38257
1.3733
1.36629
1.34557
1.33946
1.31972
1.32763
1.30992
1.30938
1.29631
1.27088
1.21865
1.18936
0.926447
0.728853
0.649724
0.788756
1.02654
1.08581
0.703633
0.762893
0.828911
0.926977
1.04295
1.07896
1.14591
1.1918
1.24665
1.27408
1.28237
1.2165
1.13284
1.01112
0.822776
0.623677
0.559342
0.56484
0.554446
0.554278
0.558531
0.588173
0.61835
0.690204
0.755629
0.819155
0.938342
0.974977
0.996219
1.54986
0.816884
0.864359
1.1091
1.31523
1.49399
1.61581
1.67131
1.70651
1.71705
1.7235
1.72614
1.7281
1.71582
1.71671
1.69357
1.68178
1.62014
1.55128
1.38117
1.09804
0.699358
0.494832
1.48891
1.90486
1.95134
1.9963
2.09338
2.34967
2.65165
2.72093
0.686819
0.695513
0.717479
0.779971
1.85368
2.07041
2.29212
2.96689
2.63719
2.45076
1.92864
1.35019
0.821106
0.721165
0.609828
0.500679
0.47397
0.474472
0.46019
0.451896
0.437821
0.438244
0.531644
0.645222
0.867389
1.18028
1.70701
2.24362
2.83462
3.05873
0.716395
0.626043
0.585428
0.572899
0.544404
0.533669
0.550419
0.551869
0.551384
0.55708
0.55106
0.552614
0.56135
0.546782
0.654391
1.38916
2.15694
2.21584
2.16405
2.59749
2.7112
3.08878
3.62537
4.15844
4.53314
4.24861
4.07644
4.19569
4.10034
3.80171
0.711243
0.698982
0.72486
0.734364
0.786593
0.762121
0.804924
0.769987
0.902993
0.811853
1.05269
0.875726
1.42491
1.16332
1.89432
1.8793
3.01022
2.64258
4.16389
3.98955
5.42058
5.73621
6.78791
7.16033
7.49411
7.10705
7.71509
3.53687
3.55574
2.05819
2.06314
2.05673
2.05626
2.05612
2.056
2.05586
2.05572
2.05558
2.05545
2.05531
2.05517
2.05501
2.05471
2.05446
2.05425
2.05424
2.05439
2.05467
2.05494
2.05513
2.05527
2.05544
2.05557
2.05573
2.05587
2.05602
2.05611
2.05626
2.05672
2.06315
2.06318
2.05669
2.05625
2.05615
2.05604
2.0559
2.05574
2.0556
2.05544
2.05529
2.05513
2.05495
2.05467
2.05443
2.05423
2.05424
2.05441
2.05466
2.05497
2.05514
2.05528
2.05543
2.05558
2.05571
2.05585
2.05598
2.05612
2.05624
2.05668
2.06317
2.06313
2.0567
2.05623
2.05607
2.05595
2.0558
2.05569
2.05555
2.05544
2.05532
2.05518
2.05501
2.05476
2.05449
2.05429
2.05425
2.0544
2.05466
2.0549
2.05509
2.05525
2.05542
2.05558
2.05572
2.05586
2.05601
2.05612
2.05624
2.05672
2.06315
6.95128
7.12901
7.88369
6.92039
6.63518
5.71044
4.34822
2.93616
1.3774
0.627079
0.845419
1.06433
1.21822
1.19788
0.638614
2.15053
4.19385
4.8964
4.76503
4.68106
4.74682
5.25219
5.61554
6.04274
6.4863
6.92657
7.21073
7.44675
7.0514
6.03869
5.16117
4.60718
3.20887
2.20171
1.14562
0.699593
0.551495
0.589883
0.688528
0.866743
1.06823
1.19889
1.21938
1.20947
1.00592
1.06868
1.49605
1.55057
1.79679
2.16004
2.76661
3.40835
4.00776
4.59224
4.64472
4.77282
4.33814
4.09031
3.54001
2.84078
2.44584
1.96955
1.37638
1.27996
1.25036
1.22806
1.21548
1.07955
0.864101
0.717591
0.715278
0.83076
1.00795
1.12709
1.17058
1.20625
1.20011
1.24887
1.28928
1.30994
1.26285
1.19501
1.13729
1.13072
1.11663
1.11112
1.1037
1.1076
1.10435
1.10854
1.10891
1.11807
1.1219
1.14873
1.20249
1.26406
1.3121
1.34898
1.32258
1.21205
0.938052
0.754408
0.856053
1.06034
1.06077
1.16755
1.19458
1.25427
1.30153
1.34255
1.38419
1.42283
1.46128
1.45678
1.40237
1.33644
1.21696
1.12625
1.04362
0.997142
0.969857
0.968351
0.988694
1.01266
1.0529
1.08129
1.08663
1.07924
0.867776
0.702416
0.665892
0.788191
1.02497
1.09643
0.71207
0.747889
0.971693
1.12745
1.24298
1.2407
1.23984
1.23075
1.2238
1.10179
0.894387
0.743206
0.695311
0.664915
0.607003
0.559518
0.538598
0.538509
0.556113
0.581016
0.597186
0.559877
0.56265
0.57087
0.672657
0.714931
0.81352
0.870357
1.03472
1.34969
0.817429
0.924979
1.22884
1.57197
1.7024
1.72029
1.67663
1.64582
1.60845
1.59213
1.58844
1.58278
1.61118
1.6152
1.6679
1.67971
1.6889
1.59005
1.45298
1.07825
0.630093
0.484048
0.452969
0.629412
1.22968
1.31281
1.4759
1.61231
1.84792
2.08065
0.669201
0.700367
0.969764
1.72224
1.57421
1.98778
1.59263
1.72347
1.95036
1.44917
1.43298
1.18764
0.977558
0.594221
0.50883
0.502624
0.524737
0.52757
0.545662
0.542325
0.523902
0.512886
0.479553
0.771445
1.07721
1.44156
1.85632
2.38879
2.81097
2.92006
0.712328
0.629987
0.624055
0.609977
0.593127
0.597425
0.58151
0.565979
0.565049
0.538045
0.501812
0.486426
0.453737
0.426656
0.422988
1.41017
1.73248
1.78782
1.93308
2.05616
2.44256
2.8588
3.18114
3.32192
3.08719
2.83563
2.96486
2.99957
3.51307
3.56929
0.52397
0.534978
0.50694
0.4698
0.478416
0.617724
0.66436
0.725019
0.808031
0.851689
0.843024
0.783233
0.854189
0.872014
1.12253
1.08504
1.43082
1.46706
1.73555
1.94681
2.14852
2.45808
2.46922
2.74906
2.50008
2.99281
2.96716
3.45723
2.13485
2.09216
1.9572
1.8215
1.81086
1.81071
1.80741
1.80728
1.80359
1.80336
1.79981
1.7995
1.7959
1.79505
1.79012
1.7875
1.78367
1.78462
1.78542
1.7904
1.79259
1.79649
1.7971
1.80102
1.80137
1.80515
1.80558
1.809
1.80954
1.81223
1.82118
1.95785
1.96316
1.82022
1.81117
1.81076
1.80731
1.80722
1.80343
1.80302
1.79927
1.79871
1.79485
1.79408
1.78923
1.78696
1.78382
1.78377
1.78679
1.78932
1.79431
1.79511
1.7989
1.79931
1.80296
1.80323
1.8069
1.80693
1.81045
1.81083
1.82006
1.96294
1.95787
1.82142
1.81048
1.81025
1.80662
1.8066
1.80267
1.80274
1.79901
1.79918
1.7954
1.79498
1.79028
1.78804
1.78391
1.78466
1.78546
1.79037
1.79258
1.79639
1.79692
1.80083
1.80113
1.80499
1.80532
1.80888
1.80943
1.81222
1.82123
1.95811
9.05255
9.67867
13.2869
13.4497
13.5742
12.8262
10.2108
6.80454
3.20589
1.27299
0.630111
0.895509
1.12481
1.11091
1.0114
4.27224
4.77426
3.70117
2.93204
2.49133
2.30885
2.38287
2.66201
3.23361
3.86488
4.48741
5.33763
6.45221
7.95568
9.28435
9.81743
8.75833
5.79802
3.25774
1.44646
0.836993
0.539466
0.584197
0.693254
0.869444
1.07692
1.1804
1.19738
1.17721
1.00331
1.159
1.49589
1.65744
1.80356
2.10295
2.61792
3.26763
4.20315
4.8096
5.6493
5.72077
5.96613
5.55695
5.53864
4.89815
4.76306
3.90596
3.16432
2.02338
1.22994
1.15207
1.17163
1.07395
0.866354
0.726593
0.758573
0.908822
1.05876
1.14367
1.14798
1.20539
1.21159
1.26595
1.53136
1.25415
1.14822
1.10472
1.09397
1.07594
1.05112
1.03416
1.0291
1.03156
1.03713
1.05036
1.05106
1.05385
1.0424
1.03894
1.06246
1.12098
1.18165
1.23754
1.20478
1.07039
0.821797
0.741067
0.876512
1.0679
1.02664
1.09968
1.12518
1.2119
1.29481
1.36484
1.44359
1.48916
1.49231
1.42386
1.19703
1.01085
0.864969
0.80369
0.75821
0.729293
0.7071
0.697847
0.694458
0.720299
0.756202
0.824765
0.886145
0.889413
0.765805
0.653713
0.690838
0.857463
1.06461
1.10487
0.704908
0.849431
1.14789
1.35928
1.39195
1.33608
1.27231
1.22107
1.08348
0.864603
0.674768
0.596381
0.556715
0.5278
0.531709
0.556535
0.638157
0.810896
1.04932
1.15653
1.19013
1.02309
0.775412
0.576412
0.508726
0.515641
0.67134
0.767663
0.78164
1.20517
0.839772
1.06047
1.4644
1.68359
1.66624
1.57232
1.53993
1.52831
1.53377
1.54831
1.54921
1.55971
1.55446
1.57318
1.59368
1.64957
1.66389
1.67691
1.41398
1.07533
0.637138
0.492672
0.450985
0.538706
0.600009
0.547166
0.409282
0.369195
0.409994
1.48462
0.63539
0.775895
1.20398
1.87954
1.32588
1.1498
0.928684
1.35377
1.18158
1.06471
0.929733
0.805957
0.578818
0.519612
0.567057
0.623864
0.695411
0.760882
0.864395
0.785734
0.771527
0.727562
0.617891
0.520584
0.97761
1.35597
1.76626
2.11554
2.59632
2.56698
0.712863
0.678216
0.712545
0.74862
0.825542
0.850413
0.842754
0.853412
0.838657
0.742813
0.804802
0.656592
0.65057
0.5578
0.506249
1.08159
1.74564
1.77198
1.56888
1.48516
1.72613
1.93689
2.19155
2.18639
1.93483
1.66015
1.74982
1.98024
2.53919
3.26542
0.383318
0.418509
0.425171
0.524811
0.600081
0.690115
0.859555
0.949621
0.932434
0.894361
0.784491
0.806939
0.685163
0.700536
0.760859
0.716931
0.811855
0.768707
0.854865
0.788189
0.867095
0.735263
0.832501
0.593903
0.705517
0.457228
0.596381
0.436472
0.440764
0.263951
0.126818
0.189286
0.193443
0.194505
0.195116
0.195921
0.196651
0.19751
0.19823
0.199147
0.199993
0.201192
0.202812
0.204802
0.205933
0.206174
0.205045
0.203395
0.201564
0.200533
0.199498
0.198569
0.197648
0.196861
0.195886
0.195128
0.194233
0.193524
0.189449
0.126863
0.126919
0.189345
0.193518
0.194168
0.194951
0.195852
0.196754
0.197671
0.198514
0.199519
0.200431
0.201581
0.203119
0.204939
0.206091
0.206065
0.205013
0.203098
0.201494
0.200325
0.199439
0.198486
0.197681
0.19682
0.195979
0.195168
0.194419
0.193472
0.189421
0.126951
0.126919
0.189373
0.193659
0.194743
0.195393
0.196182
0.196895
0.197708
0.198372
0.19921
0.200029
0.201159
0.202603
0.204532
0.205766
0.206247
0.205162
0.203537
0.20168
0.200672
0.199623
0.198675
0.197725
0.196904
0.195938
0.19516
0.194245
0.193558
0.189502
0.126863
16.3152
17.3981
19.1349
18.939
17.8339
17.3589
16.5286
14.7159
8.49232
3.30994
1.04432
0.693319
0.979214
1.06603
2.6037
3.99246
3.3756
2.77215
2.32366
1.95752
1.65465
1.49238
1.33585
1.4607
1.51664
1.79097
2.09027
2.71324
4.12834
7.34719
10.4312
11.8453
9.27993
4.26214
2.00838
0.982425
0.547222
0.554227
0.617967
0.744064
0.923753
1.08956
1.14355
1.08325
1.00057
1.03169
1.21001
1.25036
1.43551
1.6893
1.98522
2.55131
3.11726
3.98333
4.62159
5.32648
5.4445
5.86779
5.6994
6.0136
5.74007
5.63702
4.61861
3.39527
1.56351
1.1121
1.12436
1.0611
0.879496
0.736518
0.777675
0.92942
1.0688
1.13095
1.14448
1.24711
1.32718
1.6934
1.35853
1.17236
1.09842
1.07202
1.03184
0.95637
0.93877
0.941084
0.949172
0.954979
0.966702
0.987276
1.00992
1.02386
1.01322
0.991635
0.990641
1.02671
1.06583
1.06174
0.974792
0.834503
0.723509
0.762842
0.939484
1.07831
0.99043
1.02577
1.04261
1.15381
1.26557
1.38568
1.49034
1.52044
1.46965
1.24184
0.967722
0.839257
0.82178
0.82133
0.859068
0.859355
0.834767
0.779766
0.741082
0.70715
0.695031
0.697131
0.731998
0.754281
0.654116
0.620803
0.739559
0.927303
1.07162
1.09719
0.7227
0.939667
1.34241
1.4463
1.42285
1.32975
1.25172
1.1467
0.940538
0.717949
0.591194
0.550648
0.55433
0.591029
0.750335
1.06341
1.42549
2.96555
4.57212
4.94938
5.1182
3.1788
1.90049
1.22323
0.75453
0.523629
0.504099
0.597342
0.65036
1.02195
0.934031
1.37986
1.65697
1.60614
1.5277
1.51185
1.5196
1.5819
1.61746
1.64045
1.63892
1.62317
1.61126
1.59265
1.61448
1.63701
1.69401
1.60607
1.33559
0.940561
0.674662
0.537153
0.600571
0.838509
1.00648
0.903345
0.66161
0.425065
0.265934
1.06887
0.594192
1.08979
1.94436
1.42103
1.23079
0.898081
0.92817
0.906099
0.730218
0.594001
0.546418
0.572177
0.632256
0.737717
0.855481
0.954268
1.01681
1.01718
1.07382
0.992966
1.07582
0.939865
0.89495
0.727733
0.602905
0.845691
1.27254
1.75748
1.96284
2.25467
0.696729
0.75689
0.942982
1.10812
1.32846
1.40276
1.47569
1.53633
1.47856
1.50088
1.46056
1.38298
1.28428
1.19511
1.02746
0.802387
2.04661
2.105
1.64163
1.55181
1.28838
1.38349
1.39183
1.37555
1.35985
1.08841
1.1305
1.33654
1.78268
2.519
0.344026
0.467773
0.568751
0.710431
0.72728
1.12574
1.51698
2.15467
2.07045
2.04987
1.56998
1.3449
1.18731
1.11427
1.15812
1.24357
1.37829
1.46669
1.71452
1.8277
2.03677
1.79503
1.75606
1.53843
1.12078
1.07269
0.659687
0.545805
0.579797
0.70594
0.144738
0.154917
0.155836
0.156082
0.156013
0.156189
0.156124
0.1563
0.156236
0.156411
0.156358
0.156549
0.15655
0.156797
0.156776
0.156897
0.156708
0.156699
0.156461
0.156504
0.156319
0.156373
0.156192
0.156256
0.156068
0.156132
0.15593
0.155939
0.154949
0.144144
0.143961
0.154958
0.155851
0.156047
0.155998
0.15619
0.156127
0.156315
0.15625
0.156438
0.156383
0.156574
0.156569
0.156799
0.156769
0.156771
0.156806
0.156568
0.156566
0.156377
0.156431
0.156248
0.156313
0.156132
0.156195
0.156016
0.156066
0.155824
0.154976
0.143956
0.14412
0.154994
0.155843
0.156097
0.156025
0.15621
0.156139
0.156321
0.156245
0.156426
0.156359
0.156554
0.156535
0.156785
0.15676
0.156905
0.156715
0.156711
0.15647
0.156521
0.156334
0.156394
0.156208
0.156275
0.156085
0.156145
0.155943
0.155951
0.154945
0.144137
23.1811
21.5743
17.9319
16.0882
15.4769
15.2606
15.7171
16.2355
14.9851
8.5856
2.77048
0.618084
0.796447
0.984298
3.80941
2.9088
2.8482
2.97158
2.90806
2.52141
2.08029
1.71744
1.47031
1.31983
1.40845
1.42556
1.50974
1.52124
2.10622
4.08292
8.96419
12.3414
10.9809
5.41946
2.47098
1.19012
0.519056
0.490187
0.474984
0.501585
0.635623
0.871994
1.04146
0.995993
0.993627
0.956528
0.929095
0.93802
1.06749
1.3773
1.7359
2.07237
2.6437
3.18986
4.05755
4.55503
5.51057
5.39958
6.03457
6.09219
6.03888
5.54469
4.79829
2.99808
1.53129
1.07687
1.09621
1.04951
0.866521
0.710463
0.745052
0.893806
1.02743
1.10798
1.12822
1.32864
1.8943
1.80544
1.22897
1.11625
1.06325
0.992067
0.89959
0.871226
0.904945
0.934557
0.971469
0.966059
0.96175
0.969778
0.997857
1.01193
0.992161
0.94568
0.923452
0.911692
0.855846
0.790346
0.732428
0.693574
0.702276
0.807148
0.989083
1.06824
0.944856
0.95943
0.985083
1.10759
1.26465
1.42341
1.52407
1.52969
1.35871
1.09863
0.96154
0.976886
1.04772
1.10511
1.13443
1.11132
1.08362
1.02123
0.930824
0.831904
0.749894
0.692606
0.677743
0.656381
0.612358
0.625564
0.766888
0.947686
1.01944
1.02741
0.749186
1.16463
1.45521
1.47639
1.39556
1.30132
1.20741
1.06729
0.828293
0.650052
0.567221
0.578084
0.692289
1.00637
1.46163
3.37569
6.11068
7.55571
8.58918
9.26444
8.92214
7.22807
5.42921
2.51297
1.47753
0.829488
0.495927
0.4704
0.518556
0.525134
1.00711
1.55954
1.62319
1.5185
1.50849
1.52421
1.61561
1.66242
1.70096
1.70428
1.69687
1.68875
1.66042
1.65398
1.65664
1.6888
1.66232
1.45488
1.09218
0.839535
0.713146
0.67217
0.89788
1.21467
1.28766
1.22345
0.9059
0.559038
0.357841
0.304828
0.7928
1.41277
1.70992
1.3398
0.94747
1.04677
0.782392
0.568099
0.600472
0.695822
0.810691
1.00387
1.27329
1.49268
1.5117
1.57002
1.55301
1.55506
1.52993
1.52942
1.44071
1.41141
1.25115
1.09211
0.906356
0.667161
0.588143
1.22282
1.67144
1.94907
0.675856
0.851618
1.25192
1.52518
1.68075
1.72077
1.73797
1.73652
1.71903
1.73302
1.69083
1.72554
1.68879
1.70859
1.62611
1.43517
1.15666
2.29509
2.36831
1.78542
1.49052
1.40999
1.26666
1.22975
1.11465
1.06017
1.01495
1.06962
1.35559
1.68986
0.37649
0.672245
1.04488
1.42305
1.51904
2.31513
3.17747
3.68278
4.12871
3.55494
3.4495
2.62872
2.37702
2.06337
1.95044
2.15248
2.31103
2.68376
2.70027
2.6836
2.14122
1.88592
1.55496
0.802447
1.30528
0.604254
0.855857
0.94074
1.19124
1.57517
0.273312
0.283741
0.283062
0.282744
0.283257
0.282756
0.283255
0.282773
0.283254
0.282788
0.283269
0.282829
0.283295
0.282879
0.283319
0.282889
0.283311
0.282861
0.283282
0.282811
0.283267
0.282788
0.283273
0.282774
0.283264
0.282763
0.283209
0.28271
0.28257
0.281115
0.280869
0.282825
0.282836
0.282758
0.283286
0.282805
0.283302
0.282813
0.283287
0.282815
0.283299
0.282848
0.283323
0.2829
0.283233
0.283259
0.282916
0.283329
0.282856
0.283301
0.282818
0.283286
0.282812
0.283297
0.282813
0.2833
0.28278
0.283017
0.282748
0.280911
0.281123
0.282608
0.283225
0.282714
0.283267
0.282741
0.283279
0.282762
0.283275
0.282768
0.283277
0.282802
0.283303
0.282858
0.283327
0.282882
0.283322
0.282859
0.283287
0.282806
0.283271
0.282794
0.283287
0.282797
0.283285
0.282775
0.283221
0.282721
0.28255
0.281071
19.0319
17.1049
14.667
13.7242
13.7131
14.0945
15.0221
15.792
15.7482
14.3807
6.98597
1.68156
0.698307
0.905299
2.738
2.34698
2.83317
3.29289
3.42011
3.04681
2.29424
1.81677
1.56335
1.60225
1.6353
1.83882
1.71073
1.51843
1.66058
2.94483
7.99334
11.904
11.4016
5.89028
2.6921
1.13386
0.457804
0.374307
0.32868
0.317143
0.394519
0.597787
0.889404
0.940379
0.977369
0.899961
0.89359
0.950112
1.01396
1.10026
1.55448
2.04307
2.50518
3.26127
3.95623
4.96587
5.69356
5.58639
5.61991
5.52249
4.48033
3.35146
2.68532
1.28277
1.08981
1.0577
1.10125
1.05887
0.844853
0.653233
0.65453
0.784793
0.954682
1.07694
1.12039
1.45507
2.14061
1.30433
1.16979
1.06893
0.995387
0.88123
0.805632
0.829735
0.913706
0.975712
0.992134
0.983978
0.984777
0.990468
1.00262
0.976897
0.905801
0.835947
0.769795
0.722415
0.722751
0.737137
0.727725
0.715413
0.732405
0.816891
0.969555
1.03963
0.902431
0.906094
0.955277
1.10342
1.29526
1.48625
1.55997
1.5112
1.29121
1.12889
1.12261
1.17322
1.23842
1.23221
1.18528
1.11059
1.06827
1.07413
1.03538
0.960931
0.845589
0.742874
0.654509
0.623716
0.594731
0.61573
0.777101
0.899565
0.927252
0.957437
0.871316
1.42447
1.52355
1.45795
1.34865
1.26421
1.14809
0.946663
0.756035
0.642433
0.614623
0.752169
1.14845
1.55473
4.23653
6.28291
7.37259
8.68246
9.60084
9.93021
10.2209
9.63081
7.50273
5.08919
2.89654
1.51728
0.79614
0.463804
0.357277
0.30187
1.18955
1.62521
1.54895
1.50279
1.51436
1.61852
1.66651
1.70905
1.71087
1.71391
1.72161
1.71332
1.71712
1.70085
1.71242
1.63339
1.4133
1.14023
0.895027
0.841819
0.818711
0.960292
1.252
1.35605
1.357
1.21167
1.07769
1.35855
1.25511
0.854096
1.19339
2.00032
1.84926
1.16269
0.879281
0.737928
0.664917
0.73782
1.04206
1.27529
1.80503
2.9593
1.4488
1.53481
1.5846
1.56347
1.56138
1.5357
1.53069
1.52715
1.5169
1.52048
1.49233
1.43807
1.28748
1.11293
0.946155
0.714691
1.07874
1.62332
0.664265
0.981589
1.50651
1.70331
1.71649
1.68434
1.64858
1.62998
1.60519
1.60233
1.5766
1.56612
1.58726
1.56794
1.59732
1.47313
1.47611
1.54345
2.21834
2.56551
2.12622
1.85147
1.52269
1.41798
1.20118
1.11725
1.06969
1.06775
1.2218
1.24246
0.457013
1.01059
1.5373
1.64742
1.59595
2.58536
3.9497
5.01657
5.57184
5.92619
5.56903
5.29692
3.81105
3.44493
2.96918
2.60742
2.98491
2.52208
1.8621
1.15392
1.14834
1.00787
1.12911
0.916173
0.980358
0.876421
0.987509
1.28609
1.79315
2.65896
0.608132
0.493199
0.501872
0.498489
0.498995
0.49879
0.498941
0.498778
0.498933
0.498794
0.498957
0.498828
0.499005
0.498867
0.49902
0.49887
0.499017
0.498857
0.498984
0.498829
0.498976
0.498817
0.498988
0.498828
0.498996
0.498824
0.498907
0.498605
0.497193
0.479799
0.480063
0.497438
0.498485
0.498743
0.498961
0.498843
0.499001
0.498841
0.498984
0.498839
0.499005
0.498848
0.499027
0.498871
0.49889
0.498923
0.498886
0.499034
0.49885
0.499005
0.498834
0.498986
0.498843
0.499008
0.498868
0.499034
0.498813
0.498604
0.497367
0.48006
0.479704
0.497418
0.498843
0.498787
0.498961
0.498796
0.498953
0.498798
0.498943
0.498802
0.498957
0.498834
0.499014
0.498892
0.499068
0.498907
0.499058
0.498897
0.49902
0.498862
0.498993
0.498855
0.499021
0.498879
0.499041
0.498832
0.49893
0.49861
0.497122
0.479694
12.9761
12.612
12.3528
12.351
12.7623
13.9296
14.8259
15.2529
14.9802
14.5247
11.84
4.33705
0.702945
0.811637
1.99401
1.87894
2.61453
3.22871
3.48174
2.86984
2.09279
1.60606
1.60667
1.62126
2.16803
2.24114
2.03743
1.73391
1.84692
3.43758
8.41753
12.0648
10.4154
5.19409
1.97284
0.742136
0.348216
0.294366
0.275825
0.291128
0.325393
0.437159
0.712712
0.896286
0.95313
0.828933
0.87512
0.984903
1.09653
1.38029
1.81144
2.47534
3.21913
4.00572
5.0726
5.43108
5.90227
4.56716
3.79715
2.45567
1.43707
1.32859
1.19805
1.08129
1.05024
1.09539
1.12218
0.998553
0.758735
0.584456
0.579756
0.696272
0.879242
0.998325
1.12818
1.6932
1.84408
1.23701
1.11215
1.03251
0.91307
0.796605
0.761943
0.7978
0.870046
0.914361
0.968525
0.977614
0.972144
0.936328
0.882163
0.806406
0.754125
0.744049
0.851913
1.02822
1.12682
1.14636
1.08366
1.00477
0.890922
0.852161
0.920401
0.997144
0.867191
0.888471
0.977506
1.14859
1.38041
1.54483
1.57832
1.49415
1.30127
1.22458
1.25306
1.29876
1.29669
1.18162
0.994284
0.851125
0.821769
0.867883
0.943096
0.954841
0.896328
0.800191
0.681861
0.618422
0.59129
0.617069
0.748845
0.817739
0.796238
0.809702
1.11089
1.55272
1.53884
1.42577
1.28089
1.20464
1.05259
0.883437
0.74762
0.704286
0.805429
1.18318
1.56806
3.90236
5.30607
5.7794
7.00755
7.99972
8.45418
8.8922
9.96252
10.27
9.47258
6.66858
4.66976
1.81839
1.54586
0.780618
0.393776
0.348513
1.30164
1.61733
1.53735
1.50652
1.57719
1.64986
1.69087
1.70029
1.70125
1.70524
1.68981
1.68027
1.64563
1.59292
1.5087
1.27068
1.12405
0.905674
0.929329
0.970123
1.04831
1.22581
1.33018
1.3425
1.20616
0.988526
1.19193
1.98353
1.98386
1.32673
1.60441
2.26188
1.4223
1.03068
0.749089
0.76703
0.998541
1.31193
1.43115
3.71354
6.47313
7.1237
4.74368
1.51033
1.53075
1.54743
1.52662
1.49913
1.81874
2.17057
2.71602
2.15012
1.45689
1.47095
1.49209
1.46201
1.36732
1.25335
1.05184
0.758007
0.619278
1.01689
1.64827
1.7286
1.66819
1.64571
1.63703
1.61902
1.6025
1.59669
1.55818
1.54966
1.48772
1.54203
1.45339
1.4101
1.312
1.39504
1.41286
2.45689
2.73504
2.76614
2.15923
1.68184
1.59509
1.31914
1.18467
1.22511
1.17067
1.19436
0.531835
1.27373
1.69198
1.71172
1.63427
2.61246
4.44892
5.98306
6.5932
6.24641
5.97236
5.2629
4.88005
4.70826
3.41711
3.3362
1.80541
1.5144
1.48583
1.45372
1.43621
1.41002
1.33573
1.30408
1.235
1.16927
1.08709
1.31575
2.30778
3.45272
1.57578
1.51679
1.01256
0.988987
0.985067
0.985051
0.985442
0.984989
0.985394
0.984994
0.985382
0.98501
0.98534
0.985016
0.985302
0.985025
0.985324
0.985024
0.985392
0.985041
0.985474
0.985063
0.985526
0.985115
0.985556
0.985134
0.985342
0.98487
0.984956
0.991285
0.991958
0.985245
0.984707
0.984971
0.985482
0.985139
0.985549
0.985095
0.985492
0.985067
0.985457
0.985028
0.985388
0.985018
0.985073
0.985113
0.985031
0.985376
0.985027
0.98545
0.985054
0.985489
0.985091
0.985558
0.985179
0.985601
0.985111
0.984875
0.985061
0.991953
0.991279
0.985242
0.985348
0.985063
0.985526
0.985042
0.985527
0.984991
0.985478
0.984958
0.98541
0.984939
0.985353
0.98497
0.985319
0.984974
0.985266
0.984945
0.985324
0.984956
0.985403
0.984988
0.985499
0.985057
0.985585
0.985084
0.985341
0.984795
0.984731
0.990996
12.5414
12.5016
12.2634
12.5851
13.4343
14.4064
14.9974
13.0336
11.0225
11.2511
11.71
7.50403
1.34641
0.783118
1.61652
1.90934
2.29656
3.17952
2.89781
2.31392
1.57809
1.46007
1.49942
2.19129
2.55473
2.60919
2.2892
2.15755
2.92134
5.72307
10.517
12.0175
8.73832
3.16709
1.04975
0.343363
0.303218
0.337613
0.429075
0.482047
0.451783
0.458216
0.63609
0.853481
0.858268
0.811278
0.906965
1.13416
1.92277
2.69308
3.29332
3.89643
4.60732
5.45385
5.29358
5.33191
3.25473
1.43322
1.31444
1.25651
1.19092
1.12024
1.07312
1.02956
1.01421
0.992231
0.880547
0.75112
0.614726
0.54981
0.588313
0.714517
0.87111
0.945884
1.13251
1.65202
1.31775
1.19535
1.07651
0.991188
0.845956
0.739175
0.715699
0.732826
0.764529
0.790633
0.808394
0.812595
0.784154
0.755286
0.753721
0.823547
1.0483
1.31694
1.43367
1.40933
1.32247
1.23205
1.17043
1.11666
1.01642
0.91057
0.909993
0.969168
0.8466
0.892261
1.02873
1.25256
1.48946
1.59163
1.59553
1.49221
1.33519
1.30385
1.35589
1.37612
1.27898
1.01039
0.769534
0.657185
0.641072
0.679692
0.786756
0.868247
0.891292
0.818774
0.7198
0.616551
0.590428
0.601379
0.67485
0.700482
0.723237
0.727024
1.40346
1.56974
1.50984
1.35537
1.2379
1.14176
1.02305
0.891978
0.836341
0.903407
1.18939
1.54293
3.32088
4.45276
4.20092
4.84615
5.8213
7.09176
7.54942
7.34358
7.82249
9.08189
9.11956
7.62466
5.45384
3.26439
1.72953
1.51132
0.687068
0.428235
1.41813
1.60516
1.54477
1.53769
1.60004
1.6763
1.68622
1.69803
1.69683
1.68814
1.67374
1.62647
1.54669
1.43256
1.29555
1.15713
0.997247
0.956494
0.955826
1.06016
1.16166
1.25914
1.2957
1.22404
0.998578
0.8479
1.66386
2.61748
2.96096
1.35781
1.9195
2.03704
1.34848
0.956044
0.911368
1.15522
1.44355
1.50915
2.75302
5.21053
5.56716
3.04071
1.46936
1.52209
1.54169
1.57632
1.59493
1.58123
1.59205
1.51214
1.4756
2.94593
3.09892
3.26121
1.45733
1.47235
1.47961
1.45608
1.43861
1.28423
0.591887
1.06012
1.67945
1.68965
1.65887
1.65135
1.65177
1.67283
1.69488
1.65185
1.65763
1.61466
1.54897
1.53361
1.47521
1.36968
1.27187
1.21907
1.25984
1.34771
2.95305
4.40164
3.68354
3.23472
2.25709
2.06193
1.65402
1.34507
1.3405
0.986349
0.609158
1.39841
1.6529
1.67941
1.61398
3.25454
4.73763
6.55862
6.72391
6.14641
5.03086
4.71069
4.7084
3.6756
2.73407
1.60395
1.59813
1.58504
1.58912
1.59492
1.58497
1.54211
1.53962
1.496
1.45485
1.41643
1.36092
1.67372
2.64729
4.50907
1.13902
1.65775
2.3983
1.55173
1.5444
1.53721
1.53796
1.53791
1.53798
1.53795
1.53804
1.538
1.53805
1.53799
1.53804
1.53799
1.53805
1.53801
1.53807
1.53803
1.53808
1.53802
1.53807
1.538
1.53795
1.53769
1.53741
1.53691
1.53709
1.54586
1.54652
1.5373
1.53673
1.53729
1.53771
1.53785
1.53804
1.538
1.53806
1.53803
1.53809
1.53801
1.53807
1.53797
1.53789
1.53794
1.53798
1.53808
1.53801
1.53809
1.53801
1.53806
1.53801
1.53807
1.53792
1.53785
1.53747
1.53682
1.53713
1.54647
1.54594
1.53739
1.53712
1.53741
1.53772
1.53783
1.538
1.53796
1.53802
1.53798
1.538
1.538
1.53804
1.53801
1.53807
1.53801
1.53804
1.538
1.53806
1.53802
1.53807
1.53803
1.53809
1.53798
1.53795
1.53759
1.53715
1.53611
1.53503
1.54373
12.3468
12.0114
10.4505
10.6699
12.4789
13.1716
11.415
7.82914
5.46279
5.5061
8.36321
8.92541
3.3956
0.765861
0.763505
0.816651
1.02116
1.73817
2.39505
2.52711
2.65775
1.64064
1.3931
1.41063
2.2093
2.92252
3.36023
3.22789
3.03765
3.68438
6.00541
10.2196
12.2603
10.8577
4.06379
1.14265
0.371373
0.35402
0.44563
0.630441
0.779922
0.808659
0.782498
0.637684
0.628115
0.764547
0.817942
0.796263
0.776965
0.836593
0.980631
2.04504
3.29297
4.0302
4.43298
4.82365
4.76543
4.58041
2.48784
1.2839
1.13753
1.10949
1.08771
1.06686
0.989944
0.903916
0.837969
0.789953
0.756494
0.713474
0.692166
0.649085
0.629288
0.621578
0.687924
0.835711
0.938015
0.997901
1.05528
1.16218
1.221
1.41687
1.28213
1.15333
1.06551
0.95857
0.805918
0.712628
0.696526
0.710076
0.723085
0.726956
0.729267
0.74983
0.833957
1.00768
1.26178
1.46827
1.54141
1.52783
1.41055
1.26097
1.13783
1.07071
1.02029
1.00948
0.991001
0.924226
0.899764
0.92631
0.875067
0.833752
0.852727
0.949376
1.15538
1.40921
1.57999
1.62389
1.60226
1.49685
1.37635
1.37948
1.44864
1.43038
1.25499
0.924056
0.690676
0.601066
0.595824
0.645993
0.715069
0.810769
0.845668
0.824167
0.69832
0.641698
0.570693
0.557149
0.61903
0.739093
0.975028
1.07723
1.49046
1.54729
1.55333
1.53675
1.42748
1.29888
1.1986
1.14962
1.06083
1.00882
1.04702
1.23341
1.50842
2.42717
3.95168
3.77699
3.23256
3.68802
5.16628
6.81624
7.27696
5.80176
4.67017
5.50938
6.08562
4.94251
3.2175
2.14735
1.73447
1.68633
1.31396
0.651092
1.01536
1.28742
1.58537
1.61387
1.57521
1.55931
1.61166
1.66454
1.68768
1.69322
1.69699
1.70151
1.69347
1.68847
1.65361
1.62033
1.53982
1.48219
1.38503
1.23782
1.17775
1.06703
1.15698
1.18111
1.2381
1.10272
0.912776
0.863782
1.96036
3.75515
4.77957
3.42631
3.18933
2.05742
1.77457
1.43089
1.29148
1.08981
1.21498
1.44483
1.50703
1.95878
4.1501
4.04985
2.16805
1.51124
1.54833
1.50798
1.57227
1.55609
1.61702
1.66061
1.6186
1.65097
1.55741
1.55031
2.65109
3.09846
4.52642
3.12291
1.46481
1.43501
1.45338
1.525
1.55782
1.03705
0.518723
0.849759
1.61735
1.70249
1.65189
1.66527
1.6839
1.75237
1.74478
1.75949
1.75747
1.69867
1.69866
1.59144
1.52262
1.43192
1.2684
1.86991
1.34788
1.2032
1.27831
2.29774
5.05638
5.09793
4.42879
2.43737
1.56903
1.51685
0.958998
0.929758
0.43393
0.718721
0.818224
1.42812
1.58734
1.59029
2.1166
1.54772
3.27922
4.1379
4.51536
3.56406
3.76468
3.82543
2.55851
1.97435
1.54931
1.5271
1.57323
1.59942
1.60894
1.59929
1.59576
1.58435
1.58787
1.56029
1.55835
1.52902
1.5239
2.08099
2.58815
3.90023
3.76008
3.57937
2.78286
3.38114
1.99798
3.1417
2.2646
2.29238
2.28783
2.28815
2.28831
2.2882
2.28837
2.2883
2.28842
2.28836
2.28842
2.28836
2.28844
2.28835
2.28843
2.28829
2.2884
2.28825
2.28838
2.28816
2.28816
2.28784
2.28771
2.28762
2.29036
2.31925
2.34646
2.34645
2.31954
2.29047
2.2875
2.28758
2.28793
2.288
2.28828
2.28822
2.28837
2.28827
2.28841
2.28833
2.28843
2.28835
2.28829
2.28832
2.28835
2.28844
2.28832
2.2884
2.28823
2.28836
2.28821
2.28831
2.28804
2.28802
2.28772
2.28759
2.29037
2.31953
2.34643
2.34646
2.31933
2.2906
2.28784
2.28763
2.28794
2.28796
2.28829
2.28815
2.28832
2.28815
2.28831
2.28818
2.28833
2.28827
2.28837
2.28832
2.28839
2.28832
2.28838
2.28821
2.28831
2.2881
2.28826
2.28794
2.28801
2.28761
2.28748
2.28735
2.2902
2.31902
2.34469
2.32409
12.4523
11.587
8.73968
8.86078
10.0432
8.76134
5.57663
3.99767
3.80221
3.82914
5.09598
7.44398
5.13659
0.809794
0.746607
0.742974
0.776273
1.54615
2.60018
2.98202
2.25262
1.50668
1.16241
1.95415
3.32706
4.94972
5.44583
5.31638
5.96416
8.26252
11.6028
13.8763
11.0616
5.00803
1.25016
0.408911
0.405613
0.556098
0.849534
1.02026
1.05534
1.0433
0.999745
0.954793
0.825119
0.77734
0.782742
0.791289
0.834865
0.940607
1.55957
2.345
2.86914
3.08437
2.66046
2.01353
1.14989
1.00557
0.92132
0.897008
0.899174
0.908303
0.852818
0.798754
0.756004
0.751295
0.779495
0.825017
0.849435
0.849694
0.85854
0.799634
0.729668
0.698861
0.781218
0.934276
1.05294
1.14102
1.20233
1.27038
1.32052
1.34059
1.23657
1.13263
1.06366
0.945019
0.79634
0.712757
0.717685
0.768282
0.835211
0.934094
1.0636
1.24814
1.43447
1.57336
1.61841
1.62257
1.56158
1.41876
1.2774
1.17118
1.08746
1.02492
0.97542
0.936996
0.912192
0.904176
0.891711
0.890588
0.874927
0.874896
0.941511
1.11937
1.36486
1.55792
1.63414
1.64299
1.61196
1.50501
1.42332
1.4569
1.51051
1.49713
1.33069
1.00139
0.723093
0.595713
0.591768
0.638386
0.724093
0.785387
0.834465
0.786324