/*--------------------------------*- C++ -*----------------------------------*\
| =========                 |                                                 |
| \\      /  F ield         | OpenFOAM: The Open Source CFD Toolbox           |
|  \\    /   O peration     | Version:  2.1.1                                 |
|   \\  /    A nd           | Web:      www.OpenFOAM.org                      |
|    \\/     M anipulation  |                                                 |
\*---------------------------------------------------------------------------*/
FoamFile
{
    version     2.0;
    format      ascii;
    class       volScalarField;
    location    "0.006850000";
    object      H2O;
}
// * * * * * * * * * * * * * * * * * * * * * * * * * * * * * * * * * * * * * //

dimensions      [0 0 0 0 0 0 0];

internalField   nonuniform List<scalar> 
12384
(
0.228308
0.226795
0.226403
0.226459
0.226853
0.22749
0.228403
0.229634
0.230552
0.231395
0.231891
0.23208
0.232226
0.234198
0.216084
0.218256
0.216469
0.214626
0.213539
0.213446
0.214212
0.215835
0.217655
0.219328
0.220342
0.221251
0.222343
0.223663
0.22499
0.226306
0.227318
0.228194
0.229162
0.229936
0.230567
0.23126
0.231894
0.232296
0.232371
0.231585
0.228949
0.222329
0.212736
0.204187
0.237192
0.243832
0.245614
0.246042
0.246515
0.247074
0.247554
0.248228
0.2486
0.248966
0.249136
0.249171
0.249088
0.248916
0.24866
0.248404
0.248195
0.248192
0.248075
0.248218
0.248313
0.248511
0.248684
0.248913
0.249227
0.24946
0.249387
0.248092
0.243487
0.241316
0.248066
0.247874
0.248056
0.24864
0.249239
0.249688
0.250021
0.250152
0.2503
0.250322
0.250326
0.250448
0.250341
0.250178
0.249983
0.249745
0.249536
0.249352
0.249193
0.249092
0.249048
0.248848
0.24881
0.248795
0.248925
0.248888
0.248621
0.248014
0.248333
0.248876
0.250681
0.250484
0.25043
0.250392
0.250384
0.250384
0.250408
0.25043
0.250478
0.250461
0.250527
0.250476
0.250618
0.250596
0.250553
0.250568
0.250401
0.250913
0.25051
0.250226
0.250029
0.249543
0.249231
0.249659
0.250114
0.250423
0.250745
0.250853
0.250652
0.2501
0.251541
0.251534
0.251541
0.251531
0.251551
0.251534
0.251519
0.251516
0.251555
0.251562
0.251527
0.251521
0.251565
0.251557
0.251554
0.251548
0.251547
0.251556
0.25155
0.251514
0.251539
0.251442
0.25145
0.251379
0.251324
0.251314
0.25136
0.251337
0.251282
0.251279
0.250706
0.251043
0.251633
0.251682
0.251816
0.251699
0.251743
0.25162
0.25156
0.251499
0.251422
0.251403
0.251525
0.251521
0.251641
0.251638
0.251769
0.251708
0.25172
0.251704
0.251718
0.2517
0.251697
0.251757
0.246856
0.233071
0.232648
0.233866
0.235018
0.235118
0.251465
0.251615
0.251493
0.251433
0.25146
0.251441
0.251439
0.251458
0.251424
0.251466
0.251493
0.251534
0.251512
0.25155
0.251427
0.251443
0.251341
0.251361
0.251255
0.251254
0.251202
0.251405
0.251476
0.251617
0.25126
0.251232
0.251225
0.251209
0.251197
0.251177
0.250967
0.25111
0.251083
0.250992
0.251014
0.251068
0.251037
0.251169
0.251217
0.251302
0.251204
0.251159
0.251231
0.251175
0.251147
0.251145
0.251443
0.251299
0.25123
0.251272
0.251315
0.251319
0.251339
0.251347
0.251362
0.251354
0.251358
0.251327
0.251214
0.251083
0.251891
0.251797
0.251747
0.251717
0.251729
0.251784
0.251788
0.252087
0.252036
0.251981
0.252042
0.251943
0.251944
0.251916
0.25181
0.251722
0.251693
0.251678
0.251964
0.251758
0.251737
0.251729
0.251726
0.251727
0.251736
0.251743
0.251724
0.251742
0.251736
0.251758
0.251942
0.251882
0.251858
0.251876
0.251917
0.251958
0.251941
0.251945
0.251929
0.251886
0.251907
0.251847
0.251809
0.251823
0.251857
0.251703
0.251438
0.251374
0.251362
0.251413
0.251474
0.251546
0.251594
0.25162
0.251624
0.251609
0.251567
0.251493
0.251422
0.251408
0.25214
0.252238
0.252278
0.25213
0.25193
0.251874
0.251873
0.251886
0.251871
0.251866
0.251885
0.25189
0.251895
0.2519
0.251905
0.251912
0.251918
0.251926
0.251942
0.25195
0.251955
0.251964
0.25198
0.251986
0.251973
0.252002
0.252064
0.252156
0.252202
0.252159
0.251496
0.25146
0.251354
0.251368
0.251483
0.252078
0.251103
0.25121
0.249258
0.249139
0.249056
0.249005
0.248976
0.248915
0.248898
0.248865
0.248876
0.248888
0.248931
0.248989
0.249064
0.249175
0.249411
0.249851
0.250283
0.25054
0.25045
0.249854
0.248359
0.248025
0.222201
0.221514
0.22076
0.220137
0.220499
0.22176
0.223341
0.22529
0.227545
0.230456
0.232389
0.233409
0.232864
0.234049
0.216302
0.217783
0.214846
0.212996
0.213173
0.215315
0.217718
0.219209
0.218868
0.218244
0.219261
0.221324
0.223791
0.226246
0.227927
0.22837
0.228341
0.228124
0.227621
0.227827
0.228775
0.230123
0.23181
0.233495
0.234873
0.235187
0.233376
0.227741
0.217733
0.207826
0.237592
0.243844
0.245193
0.245612
0.246432
0.247499
0.248514
0.249152
0.249458
0.249554
0.249469
0.249039
0.248406
0.247301
0.246167
0.245295
0.244648
0.24398
0.243685
0.243618
0.244072
0.244778
0.245541
0.246561
0.247704
0.248638
0.249264
0.248846
0.246487
0.24257
0.247984
0.247977
0.248493
0.249324
0.250003
0.250347
0.25044
0.250436
0.250287
0.250091
0.250152
0.250149
0.250181
0.250172
0.249896
0.249453
0.248884
0.248318
0.247833
0.247485
0.247142
0.247047
0.247057
0.247217
0.247613
0.248057
0.248503
0.248247
0.248133
0.24834
0.250802
0.250633
0.250511
0.250475
0.250462
0.25053
0.250593
0.250629
0.250657
0.250646
0.250634
0.250665
0.250676
0.250645
0.250603
0.250581
0.250548
0.250443
0.250741
0.250678
0.250264
0.249972
0.249293
0.249386
0.250513
0.250749
0.250877
0.250936
0.251034
0.250983
0.251537
0.251541
0.251568
0.251544
0.251527
0.251542
0.251541
0.251568
0.25156
0.251577
0.251589
0.251582
0.251566
0.251552
0.251532
0.251559
0.25154
0.251511
0.251486
0.251469
0.251417
0.251422
0.251384
0.251344
0.251309
0.251306
0.25133
0.251346
0.251306
0.251283
0.250789
0.251899
0.251767
0.251922
0.251997
0.25171
0.251534
0.251318
0.251251
0.251357
0.251226
0.251155
0.251134
0.251033
0.251368
0.251323
0.251529
0.251771
0.251877
0.252072
0.251617
0.251673
0.251703
0.251725
0.251398
0.244274
0.233777
0.236396
0.241392
0.241884
0.251789
0.25146
0.251438
0.251418
0.251407
0.251407
0.251424
0.251455
0.251422
0.251475
0.251505
0.251529
0.251538
0.251518
0.251493
0.251433
0.251444
0.251384
0.251341
0.251264
0.251251
0.251176
0.251448
0.251692
0.251282
0.25125
0.251209
0.251199
0.251261
0.251224
0.250972
0.25106
0.250891
0.250873
0.250877
0.250868
0.250898
0.250849
0.250999
0.250981
0.251027
0.251003
0.251031
0.251042
0.25114
0.251109
0.251357
0.25149
0.251254
0.251308
0.251344
0.251353
0.251375
0.251554
0.251506
0.251427
0.251408
0.251425
0.251549
0.251303
0.25181
0.25186
0.252007
0.251989
0.251867
0.251901
0.251823
0.251899
0.251928
0.251865
0.25188
0.251843
0.251904
0.251879
0.251794
0.251826
0.251739
0.251656
0.251791
0.251765
0.251715
0.251712
0.251744
0.251763
0.251773
0.251793
0.251773
0.251721
0.251681
0.251709
0.251921
0.251934
0.251978
0.252128
0.252157
0.252122
0.252196
0.252256
0.252318
0.252147
0.252025
0.251958
0.251866
0.251818
0.25183
0.251828
0.251509
0.251364
0.251387
0.2515
0.251613
0.251718
0.251779
0.251876
0.251877
0.251775
0.251738
0.251673
0.251502
0.251408
0.252033
0.252197
0.252194
0.252015
0.25185
0.251818
0.251833
0.251851
0.251861
0.251901
0.251916
0.251903
0.251937
0.251975
0.252017
0.252017
0.252044
0.252071
0.252093
0.252106
0.252106
0.252096
0.252067
0.252027
0.251998
0.251996
0.252026
0.252109
0.252187
0.252167
0.251684
0.251706
0.251488
0.250938
0.251004
0.252245
0.252378
0.249955
0.249055
0.248918
0.248771
0.248651
0.248565
0.24851
0.248483
0.24847
0.248471
0.248499
0.248545
0.248606
0.248664
0.248686
0.248748
0.249336
0.250373
0.250638
0.25044
0.2495
0.247934
0.248017
0.219895
0.218098
0.215007
0.215063
0.217706
0.220785
0.223158
0.224463
0.225245
0.227002
0.230569
0.233605
0.233626
0.234112
0.216348
0.217285
0.213664
0.212527
0.214197
0.21599
0.216113
0.214308
0.212827
0.215241
0.220917
0.225892
0.228715
0.229901
0.229318
0.226976
0.224187
0.221855
0.220453
0.219763
0.219938
0.220953
0.223299
0.227106
0.2315
0.235023
0.235804
0.232726
0.223267
0.211185
0.237838
0.243282
0.244396
0.244945
0.246481
0.248473
0.249808
0.250281
0.25012
0.249756
0.249292
0.248429
0.247042
0.245329
0.243314
0.241372
0.240351
0.239726
0.239536
0.239353
0.239393
0.23969
0.240752
0.24285
0.245187
0.247007
0.248481
0.249088
0.247913
0.244572
0.247978
0.248191
0.24898
0.249808
0.250176
0.25003
0.249572
0.249097
0.248766
0.248634
0.248486
0.248715
0.249039
0.249481
0.249571
0.249076
0.248248
0.247382
0.246694
0.246133
0.245854
0.245732
0.245747
0.24582
0.24619
0.246894
0.24768
0.248248
0.24812
0.248082
0.250926
0.250802
0.250512
0.250479
0.250588
0.250689
0.250718
0.250686
0.250572
0.250425
0.250837
0.25016
0.24987
0.249597
0.249596
0.249782
0.250011
0.250372
0.25054
0.250575
0.250612
0.250164
0.249572
0.249299
0.250144
0.251015
0.250732
0.250862
0.251052
0.251163
0.251539
0.251555
0.251542
0.251549
0.251561
0.251541
0.251534
0.251584
0.2516
0.251589
0.251583
0.251571
0.251567
0.251555
0.251534
0.251542
0.251485
0.25143
0.251414
0.251332
0.251304
0.251276
0.251256
0.251278
0.251276
0.251298
0.251302
0.251347
0.251343
0.251316
0.251035
0.251714
0.252021
0.25165
0.251857
0.25165
0.251537
0.251301
0.251484
0.251058
0.251114
0.251076
0.251137
0.251345
0.251668
0.251953
0.251539
0.251554
0.251563
0.251567
0.251549
0.251618
0.25167
0.251732
0.251689
0.250263
0.243114
0.235995
0.242941
0.245491
0.251551
0.251439
0.251413
0.251401
0.251397
0.251414
0.251444
0.251412
0.251447
0.251486
0.251497
0.251517
0.2515
0.251514
0.251447
0.251455
0.251441
0.251428
0.251357
0.251351
0.251245
0.251247
0.251543
0.251547
0.251501
0.25138
0.251183
0.251217
0.251207
0.251219
0.251062
0.250985
0.250772
0.250709
0.250633
0.251247
0.250598
0.250352
0.250219
0.250361
0.250456
0.250802
0.251326
0.250889
0.250969
0.251109
0.251163
0.251797
0.251358
0.251308
0.251355
0.251353
0.251371
0.251569
0.251515
0.251432
0.251441
0.251337
0.251406
0.251603
0.251678
0.251728
0.251694
0.251766
0.251748
0.251725
0.25177
0.251803
0.252242
0.252049
0.251804
0.251886
0.252187
0.251794
0.251788
0.251751
0.251759
0.251719
0.251634
0.251963
0.25173
0.251726
0.251741
0.251772
0.251795
0.251768
0.251762
0.25175
0.251669
0.251654
0.251918
0.252184
0.252039
0.252048
0.251997
0.252047
0.252082
0.25209
0.252134
0.252138
0.252307
0.252144
0.251978
0.251902
0.251848
0.251845
0.251656
0.251373
0.251348
0.251483
0.251628
0.251758
0.251895
0.251867
0.251862
0.251784
0.25175
0.251705
0.251564
0.25141
0.252032
0.252162
0.25211
0.251919
0.25185
0.251827
0.251811
0.251796
0.251787
0.251801
0.251836
0.251828
0.251923
0.251962
0.252055
0.252077
0.252126
0.252175
0.252202
0.252219
0.252237
0.252262
0.252262
0.25222
0.252135
0.252058
0.252036
0.252081
0.252165
0.252167
0.251814
0.251972
0.252039
0.251407
0.251537
0.25239
0.251289
0.249284
0.248867
0.248743
0.248631
0.248616
0.248609
0.248599
0.248551
0.248492
0.248398
0.248372
0.248405
0.248494
0.248572
0.248616
0.248619
0.248948
0.250241
0.250552
0.249869
0.248526
0.247337
0.248209
0.216301
0.211457
0.211531
0.216683
0.223361
0.227508
0.229726
0.229908
0.2285
0.22739
0.228613
0.232679
0.234186
0.234255
0.216363
0.217008
0.213085
0.212279
0.213543
0.213503
0.211129
0.209093
0.212071
0.221279
0.228647
0.231802
0.232692
0.231452
0.227634
0.222307
0.2187
0.216423
0.215564
0.215471
0.215522
0.215848
0.216927
0.21987
0.224766
0.231329
0.235724
0.235058
0.227601
0.213707
0.237678
0.242533
0.242883
0.243725
0.2464
0.249223
0.250302
0.250387
0.250911
0.249911
0.249112
0.247992
0.24604
0.243606
0.241003
0.239937
0.23951
0.239279
0.239077
0.238876
0.238634
0.238557
0.238638
0.23943
0.241786
0.245074
0.247338
0.248797
0.248528
0.245529
0.248005
0.248402
0.249321
0.249971
0.249948
0.249345
0.248654
0.248277
0.248098
0.248039
0.247996
0.247904
0.248064
0.248855
0.249458
0.248883
0.247795
0.246649
0.245886
0.24517
0.244273
0.243729
0.243559
0.243851
0.24466
0.245908
0.246901
0.247758
0.248096
0.248025
0.251046
0.250705
0.250419
0.250518
0.250675
0.250761
0.250727
0.250547
0.250316
0.249722
0.248549
0.247837
0.247387
0.247227
0.247116
0.247433
0.248126
0.24887
0.249765
0.250179
0.250393
0.250397
0.24987
0.249328
0.249634
0.250427
0.250032
0.250515
0.250735
0.250967
0.251542
0.251566
0.251555
0.251546
0.251561
0.251558
0.251575
0.251585
0.251545
0.251543
0.251539
0.251501
0.251549
0.251565
0.251539
0.251524
0.251428
0.251377
0.251249
0.251192
0.251158
0.251151
0.251071
0.251155
0.251158
0.251226
0.251295
0.251326
0.251367
0.25131
0.251311
0.2518
0.251721
0.251615
0.251887
0.251845
0.251674
0.251368
0.251718
0.251293
0.250977
0.251095
0.251552
0.251435
0.251444
0.251544
0.251523
0.251547
0.251548
0.251531
0.251555
0.251563
0.25162
0.251704
0.251711
0.251712
0.249101
0.240116
0.242397
0.2474
0.251436
0.251417
0.251388
0.251371
0.251388
0.251427
0.251469
0.251439
0.251455
0.251474
0.251489
0.251512
0.25138
0.251347
0.251343
0.251428
0.251456
0.251445
0.251377
0.25135
0.251314
0.251211
0.251186
0.251543
0.251391
0.251326
0.251487
0.251199
0.251155
0.251174
0.250994
0.250857
0.250616
0.250484
0.250108
0.249298
0.248491
0.248265
0.247783
0.248068
0.248422
0.248869
0.249614
0.250472
0.250813
0.250955
0.251109
0.25133
0.251512
0.251322
0.251347
0.25136
0.25136
0.251531
0.251501
0.251468
0.251435
0.251349
0.251305
0.251563
0.251598
0.251643
0.251719
0.25169
0.251726
0.251958
0.251207
0.250645
0.250225
0.250078
0.250026
0.25007
0.250308
0.250921
0.251358
0.252099
0.251696
0.251716
0.25162
0.251782
0.251775
0.251695
0.251694
0.251711
0.251764
0.251726
0.251673
0.251693
0.251678
0.251667
0.252124
0.252122
0.252044
0.25195
0.2518
0.250922
0.250353
0.250417
0.25092
0.251871
0.25216
0.252167
0.252339
0.252
0.251925
0.251876
0.25183
0.251455
0.251323
0.251416
0.251596
0.251753
0.251849
0.251882
0.251887
0.251779
0.25172
0.251649
0.251577
0.251402
0.252036
0.252129
0.252014
0.251885
0.251778
0.251797
0.251708
0.251718
0.251699
0.251707
0.251705
0.251779
0.25183
0.251914
0.252006
0.252076
0.252137
0.252183
0.252194
0.252206
0.252258
0.252347
0.252317
0.252322
0.252361
0.252172
0.252082
0.252083
0.252147
0.252162
0.251593
0.251965
0.252272
0.252171
0.252157
0.251974
0.250104
0.248955
0.248773
0.248687
0.248749
0.248875
0.248983
0.249021
0.248949
0.248799
0.248598
0.24839
0.248317
0.248363
0.248462
0.248552
0.248569
0.248775
0.250338
0.250526
0.249142
0.247628
0.24731
0.248893
0.209258
0.208345
0.214332
0.224177
0.230147
0.232097
0.232604
0.232339
0.231228
0.229151
0.228337
0.231535
0.23426
0.23452
0.216337
0.217199
0.212778
0.211455
0.211433
0.209766
0.207273
0.207668
0.217711
0.228046
0.233224
0.234433
0.233816
0.23007
0.222889
0.217423
0.215033
0.214871
0.215584
0.216622
0.216825
0.216613
0.215935
0.216411
0.219714
0.226366
0.233825
0.236021
0.2306
0.215676
0.236734
0.241756
0.241673
0.241495
0.245158
0.248766
0.250311
0.250478
0.250361
0.249712
0.248689
0.247505
0.245193
0.241977
0.240479
0.240148
0.239902
0.239583
0.239234
0.23905
0.2389
0.238723
0.238522
0.238456
0.239522
0.242775
0.246057
0.248223
0.248705
0.246118
0.248048
0.248545
0.249464
0.249968
0.24963
0.248819
0.248387
0.248189
0.24825
0.248399
0.248249
0.24804
0.247886
0.248263
0.249417
0.248704
0.247174
0.246173
0.245302
0.243779
0.242684
0.242024
0.241812
0.242094
0.242978
0.244478
0.24628
0.247481
0.247916
0.248061
0.251044
0.250544
0.25087
0.250551
0.250717
0.250773
0.25064
0.250354
0.249505
0.248006
0.246806
0.246097
0.245712
0.245489
0.245495
0.245656
0.246113
0.247184
0.248311
0.249495
0.250032
0.250193
0.250051
0.249485
0.249544
0.250003
0.24924
0.249013
0.249777
0.250647
0.251533
0.251567
0.251562
0.25155
0.251568
0.251524
0.251576
0.251548
0.251508
0.251458
0.251395
0.25147
0.251526
0.251582
0.251539
0.251512
0.251399
0.251269
0.251129
0.251084
0.251032
0.250997
0.250942
0.251016
0.251078
0.251141
0.251247
0.251307
0.25138
0.251344
0.251688
0.251852
0.251679
0.251555
0.251556
0.251569
0.251867
0.251559
0.251363
0.251411
0.251105
0.251369
0.251388
0.25145
0.25146
0.251558
0.251566
0.251611
0.251511
0.251553
0.251562
0.25153
0.251591
0.25168
0.251707
0.251746
0.250744
0.244701
0.243307
0.248315
0.251411
0.251395
0.251201
0.251186
0.251394
0.251454
0.251434
0.251447
0.251442
0.251477
0.251337
0.251322
0.25129
0.251302
0.251275
0.251285
0.251289
0.25145
0.251385
0.251391
0.251344
0.251274
0.2512
0.251219
0.251422
0.251384
0.251508
0.251198
0.251118
0.251134
0.250924
0.25064
0.250468
0.250089
0.248691
0.247413
0.246612
0.246057
0.245716
0.246189
0.246498
0.247164
0.248022
0.249112
0.250313
0.250819
0.250982
0.251166
0.251473
0.251375
0.251348
0.251342
0.251374
0.251495
0.251512
0.251541
0.251517
0.251446
0.251295
0.251482
0.251636
0.251675
0.251683
0.25165
0.251557
0.250441
0.249743
0.249
0.248753
0.248515
0.248516
0.248634
0.248861
0.249322
0.249959
0.250801
0.251773
0.251602
0.25163
0.251612
0.25198
0.251742
0.251711
0.251728
0.251742
0.251682
0.251653
0.25162
0.251646
0.251667
0.252164
0.252068
0.251958
0.251303
0.249742
0.248539
0.24653
0.24632
0.248125
0.249469
0.250891
0.252664
0.252214
0.252341
0.251985
0.251932
0.251886
0.251602
0.251344
0.25136
0.251549
0.251737
0.251885
0.251886
0.251904
0.251801
0.251718
0.251596
0.251518
0.251391
0.252034
0.252104
0.251972
0.251818
0.251774
0.251718
0.251657
0.251607
0.251559
0.251585
0.251645
0.251676
0.251739
0.251846
0.25197
0.252057
0.252122
0.252161
0.252148
0.252152
0.252238
0.252333
0.252272
0.252263
0.2523
0.252277
0.252141
0.252097
0.252141
0.252153
0.251252
0.251759
0.252378
0.252263
0.252102
0.251193
0.249377
0.248822
0.248737
0.248838
0.249089
0.249379
0.249576
0.249657
0.249566
0.249296
0.248959
0.248613
0.248332
0.248284
0.248354
0.24844
0.248467
0.248647
0.250086
0.250691
0.249015
0.247576
0.24774
0.250249
0.205502
0.209589
0.221186
0.229762
0.232136
0.232702
0.232757
0.232599
0.231624
0.229849
0.228302
0.230568
0.23423
0.234614
0.216147
0.217892
0.212938
0.210392
0.208928
0.206716
0.205414
0.210134
0.22259
0.231912
0.234988
0.235607
0.233821
0.227391
0.219
0.214887
0.214842
0.216702
0.218294
0.219296
0.219592
0.219065
0.217921
0.216673
0.217453
0.222726
0.231457
0.236053
0.231965
0.216961
0.235801
0.240793
0.241007
0.239306
0.241744
0.246444
0.249589
0.250247
0.250427
0.249042
0.248083
0.24703
0.244566
0.241365
0.240909
0.240726
0.240041
0.239331
0.239025
0.239043
0.239106
0.239072
0.238803
0.238473
0.238732
0.240972
0.245093
0.247665
0.248744
0.246372
0.248081
0.248571
0.249518
0.24999
0.249581
0.248864
0.248554
0.248767
0.249199
0.249425
0.249065
0.248372
0.248046
0.248192
0.249279
0.248523
0.24702
0.245992
0.244566
0.242827
0.241547
0.240828
0.24071
0.24106
0.241883
0.243371
0.245816
0.247212
0.247945
0.248039
0.250818
0.250414
0.250619
0.250527
0.250711
0.250757
0.250589
0.250077
0.248292
0.246605
0.245704
0.245175
0.244842
0.24491
0.244911
0.24493
0.245258
0.245871
0.247156
0.248525
0.249646
0.249971
0.250077
0.249565
0.249413
0.249946
0.249019
0.248497
0.249091
0.250611
0.251533
0.251564
0.251569
0.251561
0.251524
0.251528
0.251575
0.251564
0.251417
0.251332
0.25134
0.25145
0.251498
0.251598
0.251541
0.251491
0.251338
0.251216
0.251055
0.251017
0.250868
0.250884
0.250898
0.250904
0.251013
0.25113
0.251204
0.251298
0.251406
0.251372
0.251975
0.251918
0.251609
0.251589
0.25149
0.251473
0.251553
0.251766
0.251418
0.251418
0.251271
0.251565
0.251433
0.251526
0.251484
0.251621
0.251612
0.251634
0.251651
0.25162
0.251539
0.25156
0.251569
0.25165
0.251696
0.251751
0.251596
0.248276
0.245184
0.248722
0.251409
0.25121
0.251063
0.251148
0.25141
0.251418
0.251451
0.251431
0.251448
0.251333
0.251294
0.251262
0.251265
0.251247
0.251257
0.251277
0.251259
0.2513
0.251371
0.251403
0.251335
0.251293
0.251228
0.251211
0.251514
0.251511
0.251177
0.251575
0.251419
0.251091
0.250886
0.250592
0.250856
0.249171
0.24757
0.245787
0.243997
0.242213
0.241616
0.241915
0.243155
0.245045
0.246717
0.24794
0.249363
0.2508
0.250923
0.251008
0.25157
0.251541
0.251372
0.251351
0.251493
0.251501
0.251557
0.251575
0.251539
0.251455
0.251318
0.251421
0.251686
0.251678
0.251656
0.251778
0.250542
0.249327
0.248506
0.24797
0.247015
0.246321
0.246188
0.246351
0.247206
0.248218
0.248973
0.24974
0.250776
0.251848
0.251607
0.251589
0.251801
0.251718
0.251682
0.251725
0.251724
0.251674
0.251675
0.251628
0.251544
0.251638
0.252052
0.252026
0.252143
0.249884
0.247086
0.242494
0.239596
0.238981
0.240944
0.244305
0.248875
0.250696
0.25215
0.252203
0.252131
0.25201
0.251933
0.251826
0.251407
0.251354
0.251506
0.251707
0.25185
0.251853
0.251908
0.251913
0.251765
0.251634
0.251495
0.251406
0.25203
0.252087
0.251917
0.251778
0.251751
0.251659
0.251534
0.251526
0.251476
0.251504
0.251569
0.251595
0.251655
0.251788
0.251872
0.252024
0.2521
0.252143
0.252101
0.252085
0.252188
0.252349
0.252266
0.252235
0.252273
0.252349
0.252175
0.252113
0.252139
0.252146
0.250725
0.251262
0.251989
0.252047
0.251608
0.250279
0.249029
0.248763
0.248826
0.249087
0.249536
0.249896
0.250149
0.250217
0.250076
0.249801
0.249398
0.248884
0.248482
0.248252
0.248284
0.248347
0.248338
0.248499
0.249811
0.251002
0.249681
0.248297
0.24932
0.251896
0.20487
0.214242
0.227317
0.231855
0.232645
0.232659
0.232688
0.232322
0.231189
0.229413
0.227811
0.23021
0.234164
0.234836
0.215881
0.218946
0.21365
0.209598
0.207153
0.205376
0.205501
0.21338
0.226289
0.233317
0.236065
0.236247
0.233417
0.224814
0.21622
0.214406
0.216235
0.218609
0.220334
0.221319
0.221671
0.221203
0.21968
0.217753
0.217087
0.220785
0.229785
0.235802
0.232597
0.217584
0.234797
0.239458
0.240561
0.238837
0.238161
0.241527
0.2459
0.248012
0.248621
0.247874
0.247345
0.24663
0.243924
0.241386
0.241531
0.241033
0.239723
0.238871
0.238855
0.239214
0.239353
0.239348
0.239053
0.238625
0.238597
0.240152
0.24452
0.247308
0.248726
0.246458
0.248086
0.248474
0.249433
0.250039
0.249792
0.249101
0.248958
0.249509
0.250309
0.250537
0.249741
0.248764
0.248045
0.248175
0.249407
0.248376
0.246919
0.245898
0.244036
0.242104
0.240862
0.24033
0.240245
0.240633
0.241309
0.242771
0.24543
0.24703
0.247869
0.247984
0.250669
0.250407
0.250376
0.250511
0.250704
0.250728
0.250453
0.249149
0.247286
0.245834
0.244945
0.244915
0.244668
0.244762
0.2447
0.244813
0.244821
0.245319
0.246222
0.247674
0.249042
0.249715
0.249784
0.24963
0.249393
0.249843
0.249076
0.24857
0.249159
0.250924
0.251518
0.25155
0.251559
0.251581
0.251526
0.251528
0.251558
0.251555
0.251447
0.251293
0.25118
0.251378
0.251537
0.251615
0.251542
0.251481
0.251289
0.251147
0.250983
0.25095
0.250874
0.250752
0.25077
0.250863
0.250891
0.251081
0.251171
0.251297
0.251418
0.25141
0.25169
0.251969
0.251576
0.251517
0.251275
0.251245
0.251473
0.251583
0.251484
0.25177
0.251356
0.251594
0.251485
0.251472
0.251513
0.25164
0.251756
0.251784
0.25176
0.251629
0.251532
0.251558
0.251555
0.251655
0.251697
0.251755
0.251821
0.248855
0.247628
0.249319
0.251403
0.251076
0.250917
0.251141
0.251442
0.251442
0.251447
0.251439
0.251344
0.251306
0.25126
0.25124
0.251205
0.251222
0.251229
0.251245
0.251227
0.251264
0.251429
0.251386
0.251338
0.251348
0.251233
0.251209
0.251182
0.251173
0.251486
0.251375
0.251246
0.251069
0.250802
0.250593
0.250562
0.248461
0.246744
0.243905
0.241646
0.239849
0.239435
0.23975
0.240785
0.242567
0.245598
0.247073
0.248631
0.250113
0.250895
0.250938
0.251426
0.251501
0.251547
0.25152
0.251445
0.251743
0.251772
0.251796
0.251564
0.251464
0.251299
0.251387
0.251651
0.25164
0.251592
0.251138
0.249848
0.248662
0.247833
0.246411
0.245595
0.245433
0.245355
0.24539
0.245614
0.246578
0.248147
0.248872
0.250107
0.251234
0.251507
0.251532
0.251636
0.251713
0.251687
0.251648
0.251715
0.251758
0.251687
0.251686
0.251523
0.251499
0.252151
0.252048
0.251396
0.248895
0.24335
0.2376
0.234324
0.233123
0.234455
0.238034
0.243771
0.249177
0.251381
0.252173
0.252327
0.252066
0.251983
0.251892
0.251518
0.251372
0.251472
0.251656
0.251733
0.251853
0.251865
0.251922
0.251848
0.251756
0.25162
0.251517
0.25202
0.252077
0.251899
0.25181
0.251681
0.251593
0.25153
0.251512
0.251487
0.251517
0.251484
0.251529
0.251524
0.251691
0.251849
0.251963
0.252073
0.252134
0.252065
0.25201
0.252103
0.252242
0.252321
0.252272
0.25229
0.252358
0.25218
0.252119
0.252134
0.252129
0.250253
0.250525
0.251348
0.251347
0.250852
0.249652
0.248863
0.248751
0.248944
0.249356
0.249892
0.250329
0.250574
0.250625
0.250466
0.250176
0.249707
0.249137
0.24863
0.248254
0.248237
0.248299
0.248228
0.24835
0.24975
0.251353
0.2507
0.250049
0.251394
0.250104
0.206302
0.21992
0.230248
0.231812
0.231456
0.231571
0.232147
0.231872
0.229979
0.227892
0.227263
0.230221
0.234451
0.234895
0.215463
0.219488
0.215594
0.21006
0.206705
0.20551
0.206819
0.216252
0.228117
0.234178
0.236722
0.236627
0.232954
0.222883
0.215
0.214849
0.217486
0.219816
0.221305
0.222163
0.222462
0.222025
0.220632
0.218435
0.217386
0.220337
0.229162
0.235754
0.232583
0.217371
0.23396
0.237665
0.23967
0.239091
0.237508
0.237722
0.240449
0.24431
0.24615
0.246524
0.246602
0.246367
0.243531
0.241702
0.242117
0.241102
0.239403
0.238559
0.238923
0.239628
0.239829
0.239624
0.239285
0.238704
0.238587
0.239989
0.244367
0.247175
0.248702
0.246459
0.248008
0.248329
0.249189
0.249967
0.250233
0.249889
0.24997
0.250645
0.250681
0.250964
0.249942
0.248769
0.247999
0.248173
0.249362
0.248435
0.246823
0.245883
0.243842
0.241854
0.240685
0.240261
0.24014
0.240442
0.241219
0.242801
0.245682
0.247064
0.247844
0.247954
0.25041
0.249859
0.250201
0.250478
0.250682
0.250703
0.250321
0.248624
0.246595
0.245666
0.244762
0.244859
0.244507
0.244694
0.24462
0.244769
0.244759
0.245121
0.245754
0.247141
0.248571
0.249437
0.249823
0.24958
0.249368
0.249758
0.249213
0.248796
0.249579
0.250681
0.251522
0.25154
0.251544
0.25158
0.251558
0.251543
0.251546
0.2515
0.251418
0.2513
0.251175
0.251309
0.251515
0.251615
0.251557
0.251485
0.251275
0.251136
0.251019
0.250935
0.250827
0.250752
0.250806
0.250848
0.250858
0.251054
0.251174
0.251287
0.25141
0.251408
0.251686
0.252012
0.251546
0.251338
0.25118
0.25114
0.251231
0.25153
0.251623
0.251414
0.251439
0.25168
0.251484
0.2515
0.251524
0.251653
0.251759
0.251776
0.251786
0.251656
0.251531
0.251576
0.251593
0.251676
0.251716
0.251759
0.251823
0.249332
0.249022
0.251799
0.251353
0.250869
0.250817
0.251123
0.251454
0.251452
0.251459
0.25146
0.25133
0.25129
0.251235
0.251237
0.251197
0.251223
0.251201
0.25122
0.251237
0.251251
0.251413
0.251413
0.251338
0.251376
0.251258
0.251213
0.251198
0.251176
0.251236
0.25124
0.251198
0.251025
0.250988
0.250597
0.250446
0.248215
0.246194
0.242969
0.240562
0.239095
0.238182
0.238511
0.239759
0.241323
0.24456
0.246435
0.248269
0.249732
0.250799
0.250949
0.251349
0.25145
0.251488
0.251429
0.251462
0.251698
0.25168
0.25169
0.25153
0.251449
0.251316
0.251312
0.251535
0.251637
0.251533
0.250914
0.249437
0.248351
0.247225
0.245856
0.245231
0.2451
0.245159
0.245051
0.245224
0.245817
0.246979
0.248439
0.249657
0.250914
0.25199
0.251506
0.251532
0.251705
0.251681
0.251667
0.25177
0.251819
0.251752
0.251715
0.251687
0.25165
0.252158
0.252073
0.250848
0.248051
0.241028
0.235384
0.231661
0.230681
0.231243
0.234171
0.239372
0.246841
0.250139
0.252184
0.252193
0.25215
0.252005
0.251935
0.251643
0.251425
0.251473
0.2516
0.251663
0.251699
0.251842
0.251885
0.251946
0.2519
0.251795
0.251693
0.252008
0.252073
0.251901
0.251783
0.251663
0.251562
0.251473
0.251474
0.251422
0.251448
0.251503
0.251538
0.251591
0.251587
0.251791
0.251956
0.252062
0.252134
0.252052
0.251941
0.252004
0.252121
0.252224
0.252369
0.252359
0.252234
0.252149
0.252112
0.25212
0.252121
0.249933
0.249753
0.250687
0.250451
0.250106
0.249249
0.248789
0.248771
0.24904
0.249521
0.250148
0.250552
0.250826
0.250856
0.250759
0.250357
0.249886
0.249315
0.248756
0.24827
0.248197
0.248306
0.248168
0.248187
0.249582
0.251479
0.251633
0.251694
0.252231
0.209242
0.207942
0.2242
0.231802
0.231382
0.23095
0.231673
0.232175
0.230697
0.228423
0.226225
0.227122
0.231422
0.235046
0.234912
0.233214
0.226344
0.216139
0.219956
0.218004
0.212272
0.208166
0.206836
0.209722
0.219243
0.229345
0.234941
0.237228
0.236786
0.232673
0.221837
0.214649
0.215239
0.21801
0.220224
0.221477
0.22207
0.222277
0.221896
0.220498
0.218639
0.217748
0.221045
0.229901
0.23581
0.231453
0.21667
0.21718
0.223868
0.231695
0.23542
0.238352
0.238909
0.237994
0.237287
0.237806
0.240242
0.243821
0.245017
0.245785
0.24625
0.243423
0.241968
0.242589
0.241293
0.239321
0.238431
0.238931
0.239612
0.239828
0.239562
0.239262
0.238773
0.238639
0.24024
0.244621
0.247325
0.248676
0.246315
0.245152
0.246581
0.247899
0.248192
0.248801
0.249653
0.250257
0.250461
0.250764
0.250695
0.250668
0.250619
0.24946
0.248515
0.247981
0.248143
0.249376
0.248447
0.246848
0.245987
0.244037
0.242137
0.240799
0.240432
0.240346
0.240591
0.241558
0.243306
0.246067
0.247191
0.247785
0.247953
0.250069
0.250384
0.250548
0.249628
0.250721
0.250521
0.250672
0.250692
0.250279
0.248556
0.24656
0.24553
0.244801
0.244855
0.244575
0.2447
0.244727
0.244888
0.24475
0.245065
0.245703
0.247028
0.248396
0.249351
0.249665
0.249433
0.249369
0.249822
0.249383
0.249197
0.249854
0.250776
0.250953
0.251111
0.251417
0.251503
0.251566
0.251575
0.251567
0.251541
0.25154
0.251508
0.251484
0.251391
0.251329
0.251299
0.251457
0.251615
0.25156
0.25149
0.251296
0.251153
0.250995
0.250946
0.250883
0.25082
0.250762
0.250869
0.250895
0.251061
0.251178
0.251314
0.251412
0.25142
0.251684
0.25173
0.251763
0.25203
0.25161
0.251274
0.251148
0.251087
0.251141
0.251477
0.25191
0.251481
0.25168
0.251558
0.251536
0.25151
0.25158
0.251675
0.251586
0.251657
0.251698
0.251642
0.251537
0.251545
0.251642
0.251639
0.251721
0.251761
0.251213
0.249397
0.25155
0.251547
0.251107
0.251016
0.250923
0.250502
0.250733
0.251158
0.251474
0.251467
0.251473
0.251478
0.251321
0.251302
0.251263
0.251229
0.251215
0.251216
0.251222
0.251236
0.251234
0.251262
0.251436
0.251412
0.251354
0.251368
0.251264
0.251195
0.251177
0.25124
0.251303
0.251428
0.251311
0.25123
0.251311
0.251177
0.251051
0.250547
0.250362
0.248396
0.246253
0.243393
0.240427
0.239361
0.238326
0.238866
0.239822
0.241506
0.244385
0.246363
0.248222
0.24956
0.250817
0.251019
0.251437
0.251442
0.251426
0.251415
0.251476
0.251684
0.251699
0.251702
0.251682
0.25166
0.251796
0.251661
0.251592
0.251575
0.25162
0.251617
0.251526
0.251322
0.249559
0.248398
0.247411
0.245957
0.245288
0.245156
0.244968
0.244984
0.245108