/*--------------------------------*- C++ -*----------------------------------*\
| =========                 |                                                 |
| \\      /  F ield         | OpenFOAM: The Open Source CFD Toolbox           |
|  \\    /   O peration     | Version:  2.1.1                                 |
|   \\  /    A nd           | Web:      www.OpenFOAM.org                      |
|    \\/     M anipulation  |                                                 |
\*---------------------------------------------------------------------------*/
FoamFile
{
    version     2.0;
    format      ascii;
    class       volScalarField;
    location    "0.006850000";
    object      omega;
}
// * * * * * * * * * * * * * * * * * * * * * * * * * * * * * * * * * * * * * //

dimensions      [0 0 -1 0 0 0 0];

internalField   nonuniform List<scalar> 
12384
(
13114.7
18852.5
21867.2
24391.2
26756.6
28658.9
29934
30236.6
29669.2
28484.7
26483.1
23308.8
18273.2
11497
23523.5
28891.5
31863
33357.4
34106.2
34580
35211.7
36256.7
37832.8
39692.3
41588.8
43716.1
46716.6
51234.1
56971.8
63285.5
69678
75363.9
79631.1
81764.4
81330.1
78407.2
75895.9
73105.4
69568.6
64799
57766.4
46482.2
28718
16660
33250
38424.7
42178.2
44126.9
45224.8
45777
46450
47352.1
48415.1
50180.7
53223.9
58557.4
65562.2
73587.5
82123.5
90616.5
97639.3
102930
103931
102852
97494.5
93774.9
90667.7
87463.9
83619
78233.5
69858.8
55992.9
34759.4
25320.7
37111.2
42754.5
46815
50689.4
55047.1
59461.9
63706.9
67794.7
71984.1
75711.6
78514.5
81359.2
85236.5
91227.4
99962.8
110493
121637
132739
142533
149453
151511
146555
138263
130636
122615
111398
92649.5
63237.8
38285.2
36978.8
45946.2
61540.4
72691.7
82443.8
92747.2
103958
115292
127112
138694
149848
158636
165711
167990
167151
160937
155835
148975
141740
132323
119450
100857
75002.5
49044.3
37627.3
34660.2
34612.4
36042.8
36513.6
35380.3
32002.2
26406.7
32213.5
35822.5
37654
38484.8
39479.7
41581.5
45669.7
51128.1
58055.8
65811.9
74725.1
84378
95134.9
105789
116013
124928
131394
134263
130714
122041
111917
104581
97439.8
89623.7
79474.6
65920.8
49591.3
37078.5
35686.1
21372.5
24227.1
27079.3
31108.7
38167.7
47983.2
59321.4
72125.1
84911.7
97450
109486
120774
129835
137132
139367
138325
128922
120172
113038
106865
100787
93151.5
82697.9
67894.2
47266.4
36256.3
33648.9
31626.2
31223.6
33276.1
23741.5
26964.6
41559.9
60735.3
78932.2
96091.2
112334
127181
139809
149242
154205
153537
146264
138126
131181
126012
120062
112917
102979
89922.4
73036.8
55551.5
43457.3
37324
35365.3
35272.6
35390.7
34750.9
34024.1
33271.9
31336.5
53366.1
77918.6
97785.1
114261
127161
136606
141578
140829
136322
131078
127071
122693
117737
110838
101852
89795.5
76636.1
63586.7
51556.8
42577.1
37827.2
36922.5
37651
36817.3
34735.9
31906.4
28935.6
26533.9
25200.8
30542.5
35245.1
40281.1
51483.7
69782
88172.7
104470
117791
125849
131385
131443
132471
132516
131107
128220
123708
117219
108661
97181.8
83589.6
67696
52559.2
42772.2
40192.3
40994.9
40601.8
39123.7
37399.1
36474.8
36645.1
30888.3
44574.4
68340.4
89279.1
104977
115219
118617
117612
116785
118527
120297
120655
118484
114025
108216
101641
93836.3
85291.8
75195.4
64128.8
54547
49923.4
49593.5
49441
48135.6
46005.3
43766.1
41950.2
40658.9
39086.9
23665.5
24001.2
29660.1
36952.8
45529.5
54070.5
62079.2
69909.7
78179.9
87673.5
95296.9
96756
93770.5
87939.5
80709.4
73092.6
65729.4
60689.6
58410
58156.9
58954.6
59964.9
59650
60382.7
61354.9
61757.1
60660.8
57478.8
51024.1
39152.7
12844.8
16123.2
14783.6
12437.8
11515.3
16318.5
32244.3
53152.4
69252.7
78693.3
85628.4
91084.4
95771.6
100155
104991
104187
99299.8
91471.6
81623.8
71016.1
59637
49060.7
40563.1
34532.1
30055.9
25957.6
21077.9
15359.8
9365.61
4217.32
18638
57913.7
72961.3
87947.9
102753
116420
128051
136279
138931
134882
124396
108002
86607.2
21192.6
24419.3
88574.7
102260
112326
120783
128528
135658
140433
141717
138621
135194
138052
154539
187703
230360
279130
331137
383322
431919
472841
501718
513855
505282
480736
442109
391762
330113
259233
178730
36150.6
36695.3
141045
174600
199001
214464
218848
212203
200013
191059
189071
198227
225036
269184
327748
396748
471444
547014
617856
677104
718558
734653
722252
686124
631137
561276
479814
389486
294484
200587
46642.9
43941.8
184944
241732
294356
339834
374375
395922
401570
389760
365860
339611
317700
307947
319732
360120
422193
497868
582943
671880
758130
832640
885086
901752
875051
816474
729280
613209
465562
292409
54610.1
38908.7
137991
179639
237141
299012
369049
450959
544220
646273
753930
860888
960968
1.04605e+06
1.10825e+06
1.14079e+06
1.1356e+06
1.09328e+06
1.02584e+06
932661
819331
685030
528337
355473
189523
125612
126880
127426
123939
112195
37292.3
28908.2
94844.3
112659
129397
146329
165770
185385
203475
217768
234396
257318
290264
334232
391703
458459
533520
613844
694396
768998
830892
873129
881028
857237
799628
717892
607491
466690
307329
164561
42318.1
22513.8
70722.5
92326.8
124175
160561
201794
249028
304351
366915
438414
518664
605385
694354
781161
858993
921488
962130
971056
943828
888733
809943
710266
591079
453770
306657
173880
94363.8
81071.9
85987.1
37634.2
29538.7
111738
192932
276443
364398
459938
563509
672964
784965
893900
992763
1.07332e+06
1.12752e+06
1.14349e+06
1.11569e+06
1.0598e+06
968835
854754
715419
555820
388163
242121
151949
135492
143229
140048
133150
123850
108237
36176.4
41815.5
257225
395992
512973
619548
718503
808940
885241
940310
965767
953212
911500
841992
754258
649979
531018
405668
288987
218558
196919
199082
205791
199146
183645
164900
145180
123457
101581
81664.2
29504.9
30357.9
89075
161023
291514
437356
577059
706618
823296
921389
994897
1.03845e+06
1.04087e+06
1.00902e+06
947770
861519
754310
630745
501707
385103
289863
228092
207109
207819
203576
188101
169551
149689
128811
107427
38110.9
32578
246915
428559
569304
685170
782693
859566
909663
916168
885909
825023
739865
634991
522811
419096
334626
286761
269886
273759
282665
285128
273932
253302
229096
204737
180476
154509
130449
109859
39840.7
29116.3
76770.7
149600
263794
378151
473625
545998
595353
620057
616884
584707
535228
475867
413803
354528
302398
261139
240104
243389
264619
295635
329623
357937
368098
358599
334058
296362
248804
194185
50638.6
20450.9
84183.8
89294.5
89754.9
87665.9
107260
184942
295459
412285
518591
605624
669377
707251
714167
684901
631039
560714
482438
402639
326544
258129
200480
155774
123852
107947
100004
89093.1
73374.2
55241.6
5112.7
22928.6
72600.4
91298.4
106770
119426
129520
137325
142598
145404
144867
139462
128293
111083
25918.7
25774.6
103247
111035
119216
128555
137530
144100
146834
146103
145916
152116
171343
207465
251713
296959
339855
379872
416963
450756
479798
501000
511662
510584
498401
475451
441375
394180
331406
250381
48975.7
38560.2
165062
181778
187571
186097
182408
180980
187251
201383
222856
253652
297239
350953
411263
472368
530332
584595
634042
676785
708254
725082
722442
702162
666509
617821
556105
479450
386986
283020
61276.6
48041.6
232092
279619
319117
347988
366328
374777
374383
367382
360058
357453
362516
378310
411219
464559
527999
591734
651029
705298
755665
800860
837475
858271
856593
836063
796254
726118
608294
436968
77118
43009.3
157760
212641
286440
364032
445089
528774
613090
696543
778758
858459
932860
998188
1.0488e+06
1.0812e+06
1.0882e+06
1.07274e+06
1.03691e+06
985653
918887
829222
704801
541575
351488
186733
123932
124671
133526
130885
40649.7
31559.6
109815
118962
130565
147945
170558
193572
215708
239068
269567
307341
352080
400762
452778
504972
558651
614263
670849
725447
774137
813000
835605
836471
817371
779669
714680
606791
452608
276281
54064
24678.1
86870.9
108618
145524
192630
249646
312046
376407
440197
501939
562482
621854
680847
739621
796036
845696
885005
904977
903179
881001
842464
787068
708493
597793
457305
305145
173394
95654.9
88925
39153.6
34384.6
163674
255621
350933
450503
548723
641941
728557
810322
887955
959734
1.02149e+06
1.06886e+06
1.09428e+06
1.09302e+06
1.06707e+06
1.02006e+06
951556
856231
724516
561301
390369
246726
157769
120042
115847
130836
135883
122602
37745.7
58590.4
392595
549702
654890
731550
791310
842564
887026
922281
943843
946914
929697
896060
845349
775177
677672
554198
418998
299046
228092
195244
177669
169721
170788
170672
163311
145634
121664
97353.7
31802
32803.4
133911
272502
436489
581948
704084
807402
895746
970254
1.02844e+06
1.06546e+06
1.07454e+06
1.05982e+06
1.02246e+06
964107
884640
781801
657537
526033
405192
304337
238344
200041
178705
170646
170436
164083
148510
126090
39566.3
42708.2
458213
652043
762250
833896
888874
935204
970760
985650
979149
950967
898653
817526
709457
586349
467425
369546
312317
285379
273808
265634
259588
256480
253364
244726
223835
187901
147972
122584
42020.9
33570.3
137728
255499
384836
490032
562071
606228
629839
636841
627576
603436
569124
529021
485467
439192
390990
343498
305438
285455
281257
286104
298666
316449
332554
339738
335464
317419
284520
238510
56550.4
25123.4
99566.7
83773
84455.4
119870
197718
308848
433953
545868
631177
688220
721902
736381
732044
708025
670354
622162
566179
500956
426184
344842
263219
192092
131508
86319.5
65860.7
61642
61472.2
60306.5
3655.55
25586
86795.8
107635
122081
131556
137127
140121
142111
143970
145614
145707
142309
132983
29743.3
27996.6
118321
118275
122097
129761
137074
141212
142050
143267
151753
173395
211956
261979
311035
353879
387243
412032
430698
445731
459047
471185
480129
482462
478884
469546
452761
424849
379522
309667
58145.4
40373.7
183269
181456
168898
154684
148854
157122
181213
215101
256559
305467
362098
425112
486041
536066
571882
597982
619122
639427
657831
671479
674316
665956
647051
618470
579172
524368
448287
351065
71747.3
51802.3
270283
297617
316555
326469
329781
329480
329298
332699
345734
369567
402768
443306
494520
557613
623543
677036
709270
723126
727960
733585
746574
762634
774543
782479
783430
761595
688192
543126
92404.8
55353.2
180028
241098
326021
416038
507212
593707
668972
730757
782057
826661
868202
907635
941709
967349
978786
977508
966020
947260
921111
878246
799776
669052
486642
290341
151375
118755
135745
144371
42830.2
34448.2
124513
124723
130961
147321
170358
193861
219252
252870
298311
352250
410138
465364
515038
554862
585865
611243
634954
660740
689039
718479
744029
758737
765655
764237
741990
677297
551381
374359
65347.2
27000.3
104973
125132
164709
221750
293112
369449
443832
511524
565750
606632
635004
657166
679418
705501
734175
764012
787086
799265
800670
793457
776851
740576
668425
553142
406969
258764
143872
98310.2
39136.9
38434.6
205605
304344
413292
525380
625646
705537
763218
805590
841329
876269
911629
945532
971883
985636
985176
972569
946297
897949
811634
679697
515793
353995
225886
142885
118724
141767
148806
131093
38578.9
76626
525906
675973
750839
785490
799192
806048
814785
828596
844130
855009
857171
852638
838855
810386
752606
656945
529408
394225
284794
215076
173621
162916
179682
191785
187944
167981
140226
111916
33154.2
35582.8
211403
394894
557277
678385
765742
829702
879185
921293
957316
987177
1.00254e+06
1.00339e+06
989656
961583
917235
850500
755953
637808
511557
393315
292244
220356
184224
185360
194769
187591
167218
140850
40758.8
63804.9
656996
825017
881862
895589
899421
909043
928795
949401
962867
965356
951439
909979
833758
724689
599662
480557
384654
321456
281426
259885
255683
267749
284568
289983
270441
223955
167364
129330
43823.5
40020.9
204654
340653
465453
549250
593253
611390
616268
613486
603067
588561
574888
559426
537926
506557
464130
413818
366265
331449
305323
282253
265722
262308
273710
290282
304811
309783
299515
272413
60888.4
28031.9
110905
87360.1
114340
186559
291937
417850
539351
628516
681193
705357
712424
710736
702205
686955
672762
655753
629989
585767
517073
425466
322580
228163
148005
86329
55553.5
51130.4
57581.1
63550.2
2642.84
27215.2
100160
121616
134356
140293
140509
137328
134599
135157
140058
147774
154704
155414
32953.3
30405
135556
126916
123942
127554
131731
133251
133618
139443
159439
197531
251051
307144
357358
395496
418647
427929
427045
421118
416036
416570
422537
430341
438683
445933
448987
442812
418737
366094
65075.6
41531.8
201062
185773
157014
130148
121464
138603
177920
228478
286595
348433
415404
485687
545368
581880
592437
585546
572777
564924
567015
577022
588832
597912
600855
595759
580339
549635
495467
414027
79868.2
54786.1
307433
312835
309303
298913
286067
276213
276153
291255
325565
375463
434664
496705
561585
631225
700493
745802
752770
725161
677959
634470
617285
629767
661810
704290
747537
772150
743525
630976
101531
68928.8
197692
263876
358210
458845
559828
649569
715559
754014
770437
773399
773973
780046
793658
812060
830666
847067
860504
873518
884021
883128
848750
754894
591043
388523
209287
122935
133843
153734
44658.4
37233
140146
133202
133362
146606
167002
188806
216533
259340
318297
386952
457091
519140
569293
600479
611885
606852
592721
579827
578536
594589
623699
656872
691229
723163
739838
716350
623723
460772
74177.2
29402.5
125778
141704
181151
244844
327995
417548
502034
575128
625592
650431
649735
632564
610921
596230
595588
612024
638850
667123
693808
717084
733741
733350
696319
608421
477239
327993
195233
117160
38898.3
43538.2
236882
343153
466641
590053
690313
754594
780342
778428
764705
754028
755565
772708
800731
830612
859422
883126
896831
891444
849132
753777
609258
444962
298001
190722
150413
163014
160742
135392
39447.5
94346.2
643668
766208
802933
793382
761117
723482
694998
683308
690442
710318
736401
764481
789025
801906
786577
726376
617534
480407
347757
251175
193865
183120
207648
219569
209359
182784
151777
124520
34266.9
39131.1
302699
500011
641592
728433
773317
790518
794701
797869
806881
824414
846266
868640
887075
897283
894096
869460
813208
720355
600727
472922
352394
256859
212823
216726
224354
208573
179522
150424
41941.1
96444.3
822170
938035
932223
886831
839520
811082
811138
836277
872659
907778
934781
937996
904531
827762
717155
594271
477981
380852
309863
267761
257865
278390
311029
329901
314440
261970
192037
135448
45450.8
46378.2
265834
406701
520478
581131
597007
587247
568093
549464
537218
536502
549265
563354
566467
551281
515887
464540
412700
370951
332933
288233
241525
207282
204309
228817
264854
295858
310228
303017
63587.6
29978.9
120406
110693
159828
251948
374154
506584
615164
676264
693805
682846
660503
638767
624212
621388
635979
656373
666573
649419
592810
496104
375802
260862
164850
93293.4
56413.9
51202.9
59061.9
65070.6
2287.6
28017.4
111223
132669
143420
145207
139538
129757
121257
120388
130422
148319
167067
178135
35632.6
32649.7
153599
137265
125581
123413
124031
123485
124564
136363
168081
219365
281188
339783
389251
423023
437267
432574
412523
383738
356676
341815
344287
360951
385883
413683
438858
455503
453422
419761
69547.6
42656.3
213657
195899
156402
117124
103027
125356
175504
238720
307516
378142
452535
528077
586110
609263
595149
554440
505097
463782
445944
453275
477950
509854
539241
560550
570645
564707
534397
473104
85734.5
56049.8
340813
328456
304392
274065
244104
223396
222280
248944
303177
375596
455036
532433
604122
677800
751871
792300
779744
715415
614847
513469
460502
475547
539878
625408
712843
779991
789489
704553
103668
79083.8
210018
281204
383555
493174
602907
695696
752597
768917
750762
710262
664141
629111
615338
626604
655255
694159
737903
784055
829500
865784
869870
809912
666797
467052
271133
144607
131807
159861
46654.9
39975.6
154047
144151
138675
147040
162870
181405
210101
259069
328085
408451
488739
556889
608582
635059
632697
602679
551754
493273
451409
448122
484150
541917
609080
675497
727933
740683
679134
535929
79696.5
31779.3
147572
155930
191628
258656
351120
451609
545379
624020
674451
689403
667515
617870
554159
491163
449201
444693
473591
522301
577570
631906
678292
707118
698203
634633
519647
375765
235881
138883
39078
51728.1
259614
372797
510129
642312
741131
790127
786399
742673
679627
616737
575182
568524
597865
650089
712209
773625
827004
859739
855198
791099
666714
505720
348324
228436
179002
178269
165989
135292
40434.2
111930
734712
824399
828242
781306
709458
630548
562889
519619
511798
540311
593544
657099
722157
774809
799160
772198
682925
545791
398574
282827
215668
205246
229060
237423
219152
184183
152497
131645
35286.4
45801.5
390767
582419
699454
754036
758744
730538
688814
648511
621444
617720
640571
684461
740150
794525
837086
856493
839274
774410
665520
531448
394731
284101
233647
234959
236877
214434
180440
152730
43264.1
136442
946202
998579
937207
842776
751137
683038
655127
675419
729495
799327
868194
917333
929501
893451
809888
695856
572815
451552
352167
285740
262227
283259
327354
359637
352791
301144
223359
149454
47926.4
51647.9
318356
456483
557483
596647
585588
545228
494630
450949
431951
449377
495604
543190
571479
572003
544064
492345
437728
395288
354911
303104
239739
176347
142351
172263
233129
287993
320622
326419
64193.6
31870.3
129203
136759
198634
304667
438733
571343
663258
696601
679905
632679
575776
527357
504815
519906
569884
630799
677533
688952
648219
551716
419044
287762
179146
100756
59847
53945.1
61277.3
64443.2
2273.22
28255.6
120285
141123
149345
146458
135114
119083
104658
102563
119871
149771
180361
199883
37376.7
34736.9
169721
149989
128596
118683
115202
113181
115890
134016
175209
234781
299426
358769
407115
438047
445982
430735
393561
341703
288747
252886
251478
283169
330864
381806
429283
466991
484610
467787
71135.6
43906
215769
206894
167249
120471
97390.3
118457
172847
242296
316804
392086
470906
550564
608105
620810
586804
517594
434281
357048
314005
319052
362373
420332
477104
524183
558065
575190
567139
525937
88903
54574.4
364809
345076
306920
260062
214195
182629
179715
216927
286662
373554
463638
546195
618093
693111
772154
812701
790042
700378
557332
397175
303312
332997
441018
571044
697756
797198
831880
760549
95670
84527.3
218921
294117
401900
518244
634588
730431
780091
779045
732760
656050
563972
479417
423917
421980
469341
539396
617939
697022
774140
841118
876245
843032
717764
522730
321243
174163
135474
164628
49937.7
42801.2
162383
157177
148105
150911
160855
174942
201941
252944
327437
415180
502864
575856
629382
654707
645527
600498
522645
421266
331511
305266
351064
437291
537802
635079
716965
757678
720317
597950
82287.4
34255.4
167545
166942
195426
262032
359823
468040
569201
653284
706505
719002
686792
618607
525599
417438
323386
290445
323283
394498
477440
557531
627645
677236
688047
643257
542915
405383
263377
158830
40142.2
63292.1
277312
395665
540569
679275
777163
815267
790285
715695
612781
500247
404433
359016
392949
475432
573644
670751
756699
819179
842707
800938
692497
534020
369160
241669
184588
175297
160550
133410
44147.9
130830
794503
859115
842903
770494
671065
559934
454817
371021
334100
370413
458033
561011
663665
749960
806173
804240
727450
588572
431271
302459
227961
216435
241972
254831
235411
192407
154787
133490
37843.6
62746.2
475376
652149
749492
780267
754136
690854
610968
529776
460272
418579
428180
488311
583485
685085
772349
831118
847399
806012
706125
565222
412768
289004
235016
242875
253751
236298
197368
156099
46843.8
177854
1.02169e+06
1.02014e+06
923727
796958
670287
562024
494927
495239
559889
663231
772723
866957
922692
927983
875677
778186
656048
521381
399553
309802
266770
280461
331709
376890
382898
339049
259766
174785
54033.5
54758.9
359168
490693
580799
603770
570776
502327
417374
339169
303449
341104
427118
508590
558715
571840
549881
497027
439407
399071
364836
320663
262298
197992
152220
171149
232426
291685
329348
333930
63052.7
34242.7
135257
155321
224525
340081
481522
611365
688061
698551
652784
571848
477231
395154
362012
405852
496951
594813
671988
707215
682098
589209
449162
306238
189190
107610
64752.7
57702.1
63473.6
63440.1
2778.46
28053.1
126519
146271
151495
144554
128592
108366
90374
88560.2
113895
155145
194543
217612
38298.7
36808.1
179665
164692
135666
115255
106698
103419
108317
131539
178612
240997
305047
363718
411393
441757
447409
426794
378112
308217
230567
167294
159010
214503
287935
359833
425211
479340
512072
506752
67968.6
45338.4
209820
215404
184921
139026
108026
119892
169869
238950
313788
389184
469685
553049
612719
620607
575090
488537
382872
274977
199228
202270
269172
351462
429411
495541
547653
583377
593908
569252
88530
54537.6
369631
358999
318056
265040
211254
173702
170883
212845
284774
370707
457857
536277
603744
677946
763454
809605
786030
687634
528749
341235
219200
262746
402797
561347
711955
826608
866292
781725
84890.8
86746.1
232658
307470
414738
532347
652076
751212
798771
789198
726778
628935
506342
379506
273155
242601
312935
415927
525698
631512
732716
821547
877008
859912
746825
554934
353664
199620
145210
171748
55079.9
45722.8
165785
168399
160083
158421
162305
171081
193994
243305
318087
408097
498848
574379
629846
657515
648482
600171
514145
395794
275566
224338
270569
373665
494313
611191
711391
768192
746054
644253
80266.7
37641.3
184479
175978
193608
255738
353825
465117
570254
658882
717682
734137
702167
632518
534327
410769
283090
218404
243709
325816
421318
514235
596238
656096
675281
640695
549384
416561
276420
175911
44516.6
75335.1
293731
414270
560694
698583
797332
832286
798657
710560
589116
448090
305260
195429
231609
351361
478769
599798
705996
785756
822852
792088
691271
531960
360405
223771
161100
173615
186200
176920
60299.6
152848
815542
873507
852778
771503
662507
538473
412619
295419
212057
238035
365090
505976
635857
743704
816210
825798
754598
613874
450070
314180
235451
230608
274433
312009
311793
276796
228157
176884
47616
100270
557904
716901
803281
821930
778218
696361
596485
489870
388638
306041
282211
338577
466322
608903
728979
814087
851316
824766
728087
580379
418455
291261
254718
298553
345786
354797
322483
247178
66112.3
217267
1.04154e+06
1.01449e+06
909087
772527
627592
488619
376317
331065
392776
526164
674457
807627
899437
939609
916743
838490
721860
582014
445608
336615
271565
269843
321903
379768
401466
372084
297753
206203
60536.1
56428.6
387528
509535
591207
606426
562374
477063
369088
261105
199691
253396
371318
473993
536368
556579
536878
481166
418952
381632
359877
335508
300665
261204
232151
229739
260883
301675
330390
325574
61570
38716.6
137936
162680
236927
357556
502677
629563
694361
691333
627151
521999
394400
271354
221234
315418
443666
565565
660756
710635
696296
606990
463221
313743
193124
112313
70065.7
62153.5
66289.5
64885.5
5837.32
27510.3
129287
147914
151026
141577
122894
101429
85170.9
87492.1
118615
165465
208055
228799
160773
48143.4
47542.4
140667
189680
178798
148727
119028
102817
97419.4
103657
129456
176935
237191
297809
354601
402304
434430
442752
423036
373148
298975
212246
133932
119098
188888
273756
354885
429046
492187
532720
529183
303515
54008.5
50798.3
142698
205003
217389
201258
165050
131557
130975
169367
230352
299157
369770
449380
536221
601251
611864
565143
477182
370502
256637
160816
152794
231456
320552
405204
479616
541781
589426
611878
596619
379361
69150.1
63134.5
229631
366322
364468
332489
288491
243029
210709
208270
243221
302498
372548
443679
507885
564147
634160
726193
782855
768743
681422
540236
382995
281447
309547
436816
594798
747261
857904
885162
777691
340395
71118.7
76700
268197
269579
326740
424489
535348
652507
754387
807246
800494
738560
641764
517864
385833
262973
203771
264290
370972
489277
605393
717400
815023
876048
862613
752445
562824
367333
217672
163053
183666
196774
55642.6
54828.2
154033
188011
191213
182347
174898
171588
174242
191031
233027
301225
387622
476718
552307
610167
644221
641013
598196
521953
419994
314924
254463
277174
366259
484075
602994
706667
766920
752254
665811
371349
64198
56685.9
170059
204916
188977
193642
244077
335382
443811
547881
638507
704203
730325
707411
650757
568827
467899
364096
292205
286109
342275
422713
507342
585028
642184
661078
629590
543540
416016
287001
218687
197617
73138.8
78581.7
299225
342656
437914
572493
703770
802259
840177
810533
729968
617139
484990
348655
237926
237854
338485
458833
578697
686101
766397
802807
772415
671273
509725
334031
212036
234363
308272
355487
360998
302677
97429.5
118621
633824
797878
868388
859872
789954
691496
578945
462004
350067
267643
274055
382007
519997
650944
760012
830577
838635
766191
624456
461577
327988
255512
264532
337244
419939
474740
497001
485413
443081
340172
105136
124287
499822
640945
779304
860140
876346
830742
749540
650233
542773
439248
349854
311582
349033
464309
605665
729085
818687
858523
835661
737629
588283
431797
328846
331657
405197
479253
519963
524902
490969
394014
112029
139108
904417
1.01152e+06
997124
909587
785952
647154
504743
372423
280085
305294
436147
605615
762366
875990
936615
935748
874700
765811
627113
485217
363658
277579
252430
294255
361637
402633
393792
332088
244267
166855
48861
51955.8
232830
398356
510516
587635
603026
560481
475626
368851
265610
209791
255437
358932
453385
512816
532452
511050
450702
381260
345531
338471
338544
331792
317522
301204
290627
295964
311774
324024
310574
196234
46187.7
42919.8
147319
151115
162924
236218
357640
502382
627149
687520
682050
614603
503653
367577
231392
188061
301799
433889
555648
651614
704882
693223
604220
458981
308063
189469
113814
75408.3
70312.3
74999.3
74030.3
48896.6
8262.07
3392.45
26814.9
127772
146030
148856
138979
120077
99860.6
87354.6
94950.3
128088
173533
213129
231417
200324
123581
120107
162774
191860
189397
165111
132435
108262
98219.7
103734
128583
171806
225027
278531
332237
380342
416437
431947
420797
381933
321021
250702
193096
179710
223141
291713
365481
436548
498404
538188
532814
394380
139846
118529
154257
192737
213989
213059
190834
161546
150772
173174
219566
275889
336736
412408
502137
574850
595120
559015
485411
398176
309903
241578
222021
263997
331309
404230
474309
537005
588366
615315
602277
469850
174463
150036
264847
345276
356588
342387
319314
296301
281567
283603
304093
338929
381082
425118
465750
504561
568509
666624
736416
744266
686969
584669
474494
405130
421092
518106
654823
790684
882655
887149
753688
430083
202723
222959
268956
251826
319833
415389
517284
630331
737426
803539
811534
766696
689592
589034
484678
389891
338606
356323
426116
521601
625241
728378
816937
867747
848029
736204
549177
362705
224420
171585
182723
200864
179534
177776
190594
209077
218167
213634
202759
192487
187461
195285
226126
282343
357057
439253
511495
571400
614059
623456
596599
542068
469958
396398
348401
351532
409245
501550
602640
692539
744090
730226
650334
474354
207998
169582
213026
214505
193700
188636
227897
308160
407148
504032
592466
664569
704894
701853
667903
614014
548259
480572
427254
406247
425841
474474
534651
593212
635507
645219
610438
527723
408588
296153
247673
251016
245854
258692
290953
317103
424519
556216
684344
787921
839149
828116
770763
685869
587880
491928
420318
400477
442727
521432
612236
698016
760337
782761
745597
644136
490249
332034
239753
248091
288634
319878
331714
324009
324525
389787
619775
766329
857087
871772
827245
754403
670902
585438
508827
456623
454663
512965
606952
709135
796530
848281
841443
761712
621876
467122
339836
264362
258494
319175
405262
476084
520532
539011
534553
513269
493743
478450
527724
667479
811766
904563
933476
901322
834648
751475
662312
580041
514227
485376
505812
576101
674220
769491
840327
867371
836948
737214
593715
447371
341403
302701
324321
376593
422775
446899
452084
452747
478682
587681
884831
985934
1.00393e+06
942531
843976
728184
610098
497840
413666
403482
480037
610643
749011
858066
922506
932943
884689
786124
653972
513079
386225
284321
232352
252042
320700
381375
395959
352114
270555
191419
142310
150592
284137
390210
491853
566821
589036
559111
491907
408865
337181
307649
335379
396808
458058
497484
505771
477938
412766
334495
296561
301763
322989
339065
342339
334644
321416
309486
302015
294839
276146
219578
166452
165180
169332
160925
171748
237679
351527
489005
609637
670906
670550
613776
519025
408111
315554
302535
373028
472075
569891
649212
692256
674799
581519
435547
288102
177401
111563
78116.5
73922.9
77905.4
76094
61112.1
27769
2650.55
25939
121099
141007
146164
138250
122431
105928
97697.1
107258
137159
175878
207938
220552
196623
118471
111868
154668
185289
192618
177551
149247
122464
108310
111418
132519
167109
208112
249571
297554
346816
389268
416473
421828
403665
367026
322642
285594
271545
289585
331839
385871
442648
493499
524349
512892
401455
136095
111960
142014
176733
203954
215247
207486
187929
174325
181826
209622
248038
293938
362421
454116
535483
572480
558344
509242
448731
390196
346247
325450
336408
372567
422014
476760
530621
577054
601995
585522
471439
169963
143604
237965
302551
328078
336477
339845
343686
350353
360043
369759
380726
392749
405229
416633
432476
487837
589682
676509
714668
697073
641058
575691
534431
543960
611570
715864
822375
887556
866737
716338
438671
206771
201371
219168
221670
297619
383937
473554
582112
697905
784910
820143
807024
762331
698579
630910
569464
529243
523024
553650
611008
683669
759027
821708
847960
810871
692539
513120
336905
217546
176698
184684
198550
185058
184045
197706
220403
238689
243200
236373
224127
213014
210430
226336
265571
323349
390618
456048
516988
568771
595014
590990
563412
522419
479031
447582
442555
471603
530034
600302
663896
697077
677885
600559
475528
226686
170902
208411
207242
190418
186195
217007
280758
362160
444626
525205
601098
657775
681244
675829
653553
622169
587363
556250
536717
534391
551391
580312
610156
627980
619956
575958
493409
384371
291094
252459
248481
229709
221366
235515
277775
386172
510453
636354
749946
822978
842305
819636
772860
715988
659405
614729
592035
599599
633928
682555
731262
762861
761484
711901
609853
471022
337292
255668
235300
238357
242936
246509
252705
286580
383813
569136
724044
836881
881307
871215
834213
788489
741279
699721
670110
662805
685538
732774
791495
840674
859826
828935
738515
602990
459653
340012
259430
228160
249309
305334
362562
404548
427655
429993
415303
395122
403598
482482
637083
797790
918002
975386
971667
930871
874557