/*--------------------------------*- C++ -*----------------------------------*\
| =========                 |                                                 |
| \\      /  F ield         | OpenFOAM: The Open Source CFD Toolbox           |
|  \\    /   O peration     | Version:  2.1.1                                 |
|   \\  /    A nd           | Web:      www.OpenFOAM.org                      |
|    \\/     M anipulation  |                                                 |
\*---------------------------------------------------------------------------*/
FoamFile
{
    version     2.0;
    format      ascii;
    class       volScalarField;
    location    "0.006850000";
    object      p;
}
// * * * * * * * * * * * * * * * * * * * * * * * * * * * * * * * * * * * * * //

dimensions      [1 -1 -2 0 0 0 0];

internalField   nonuniform List<scalar> 
12384
(
849151
849021
848963
849243
849226
848084
847745
846362
846092
844335
844321
843392
843226
842945
853929
853701
854433
854448
855227
855462
856172
856900
857192
857698
858043
858201
858199
858012
857800
856539
854748
851190
851576
846477
847759
844769
846017
845960
846200
846937
846845
846787
846428
846783
871170
870369
869978
868774
868420
865027
866249
864009
864799
864828
865752
866215
866682
866364
864951
862288
859963
855276
854314
849468
850567
850256
853047
856850
859497
862311
863806
864294
864820
865208
853733
853377
853154
852722
852049
851677
850147
853326
852441
858380
860083
866492
871298
875933
879866
882740
883259
881329
877241
871820
866444
863131
861284
861415
865633
868462
868767
867974
866543
864567
837653
839451
839982
841819
843851
846367
847481
847839
846229
842349
836198
838558
826051
827681
830298
828209
838332
842376
850137
853974
855386
854313
852150
850942
847221
847821
842179
844361
840707
841644
854394
854151
853803
852837
851103
849786
846974
844496
844901
843453
841892
842678
842387
842260
840946
839806
837478
834052
833039
835263
831151
844414
840884
858780
861331
866938
866751
867357
867683
868369
885600
888223
886351
893709
892597
899787
901708
906191
907341
906108
901743
899365
885534
878502
866139
865678
848638
854700
855887
857190
862223
865351
866464
866045
864626
862877
857972
858638
855307
856176
870257
868976
872146
872309
874104
875022
874267
871107
866022
859510
854675
847195
851069
844770
865980
858787
885996
883118
897658
902035
903280
907997
911687
910758
913255
915005
915628
916049
915537
915580
918557
918776
917440
910789
906969
889586
890486
868462
873082
856251
863927
866326
871063
873818
874739
874479
873346
871467
868588
866578
863116
862790
860628
860715
857038
858018
852558
854433
850460
851667
840827
839352
838910
837697
834888
826916
828352
815058
818220
808684
814777
810390
821764
821367
829062
834445
836681
839327
842655
842350
842267
842214
843335
843197
841436
839810
840017
835809
836028
835366
846881
847969
848671
845092
838531
830796
822633
817384
815865
818823
819425
821108
823343
825065
825558
826520
826261
827313
827516
828781
831647
833100
835953
837446
839275
840003
840305
839383
839227
839524
841137
840556
839078
838505
837218
831873
832122
827302
820695
823433
821597
823033
824756
826384
827981
828823
829076
828794
826987
826894
826338
824710
821833
824325
823917
824669
825016
824711
824578
823707
844934
844392
843844
843054
846719
846228
849336
851069
852925
853522
853498
852375
850567
853615
854087
857831
861346
864519
866019
866563
865185
863301
860831
859772
857858
858345
857169
857582
857466
857727
850259
849999
849911
848930
849074
847733
847299
846445
846200
845986
845022
843929
843805
843456
853624
853726
854308
854121
855007
855281
855702
856166
856891
857023
857438
857642
857497
857370
856501
855198
852999
851682
849251
846438
846175
844669
843621
844641
845564
846015
846792
847256
847380
847169
871220
870263
869019
867905
866510
865411
863896
864201
863339
863798
864187
864945
865152
864760
863467
860793
858060
852792
851085
850151
846447
848996
850890
853838
857248
861000
863049
864866
865315
865773
854237
853488
852720
851450
850478
849551
850574
849191
851120
854716
860502
863640
868478
873809
876904
879106
879614
877372
872783
867311
862289
860320
856788
858174
858381
863009
866407
866853
866508
866319
838270
838838
839716
841012
843136
845070
846474
845827
842941
840126
836309
828359
824430
825921
821605
828290
830381
837750
843295
849179
852230
853494
852161
850742
847839
847658
842125
844434
840516
841348
854854
854500
853778
852715
851368
849236
846732
845297
843395
843474
841748
841555
841752
840774
839928
837644
834808
833186
831044
828560
832398
837903
840923
851146
857397
863603
866012
868014
868005
868520
885865
885775
887043
890270
893263
896947
901414
903139
904384
903278
900160
889986
883490
881410
857829
854548
856327
843531
848328
853656
856479
862036
865016
865893
864674
862629
858215
857968
854605
853830
869887
869317
871106
872025
873272
873423
871703
867937
862778
854581
850338
845907
843691
847470
852269
860038
874279
878599
896732
896471
907037
906919
911510
911075
913555
913678
915670
915300
915502
916031
918237
917917
915087
909138
901899
886352
880117
872954
858078
860720
857044
861995
866109
870132
874009
875043
873760
871299
869004
865706
863837
861894
860299
860496
857100
857795
852740
854399
851234
852294
839598
840275
838527
837317
834129
828033
825455
815246
812806
810795
807690
812519
815209
817726
827557
832736
837973
842750
843775
845157
846872
847009
843660
844187
843498
839878
838197
838204
835295
834884
845684
846340
844870
840412
833508
824127
816649
812390
811120
809200
815397
819644
823089
824913
826144
826487
826600
826407
826262
828920
830509
832533
834333
836772
838039
839058
839133
839139
838990
839938
841427
840908
839732
838210
836980
832093
828476
823734
823868
819826
821569
821492
823226
825330
826619
827801
827976
827038
827525
826903
823727
824445
823372
822564
822987
824086
824772
825458
825386
825954
842690
844069
843217
845079
845120
848785
848866
851301
851888
851772
850349
848998
848985
849477
852307
855332
858675
862336
864443
864875
864127
862358
860314
858637
857909
857232
857317
857109
857387
857486
848603
848716
848647
849288
848247
848912
847403
847581
845769
844728
844894
844864
844139
844570
853153
853161
853201
854158
853980
854852
855245
855600
856169
856938
857000
857071
856987
856324
855376
853932
851790
850630
847381
845623
845110
842814
843937
843485
844179
845235
845965
846814
846881
848494
869601
868368
867700
866517
865432
863531
864031
862496
863064
862311
862765
863103
863531
863015
861574
858657
855644
850551
849346
844312
846148
845014
847745
851189
854444
858104
861352
863252
864633
865661
852836
851836
850738
849332
848136
847762
847923
849896
850546
850484
856242
862063
865373
869816
873952
875690
875471
872499
867861
862387
856741
852050
848716
851288
854672
856561
860833
863337
864286
865152
837446
837929
840041
841065
842883
844566
844898
843041
841332
835852
831766
821743
823946
814350
817908
816398
826624
829740
836989
842093
846637
848371
849063
848204
847573
846413
842833
843592
840506
841018
854536
854160
853705
852590
851300
849437
846503
845501
843484
843005
841173
841459
840689
840107
838022
835604
833579
829768
826499
829302
824813
835291
838082
844830
851858
859397
862906
865147
867071
868433
882754
885686
884425
890101
891075
895862
898520
901667
902221
901305
892758
890062
880142
871548
853184
857954
845818
844632
844783
846151
852261
856561
860483
862318
862594
860446
858053
856918
855010
853049
869652
869192
871248
871722
872494
871583
869238
863948
857908
849865
846898
840995
843676
837999
853041
849122
868992
871619
886681
893268
901890
904718
909820
910105
912910
913823
915291
915818
916454
915832
918150
917209
913235
904431
897918
878235
882167
857268
857101
849332
853777
856800
859898
864513
868426
870817
871319
870537
867806
866132
863267
862436
860004
860633
857360
858030
852958
854037
851357
851253
839515
843137
839993
836285
831948
832177
819495
814486
811113
808437
806634
803879
813851
813973
823311
828904
838079
839647
844232
846904
845464
844471
844212
842094
843133
843825
839373
837697
837975
835687
844616
845495
840984
834546
825874
815724
809506
804948
803049
808986
808683
811692
816639
821380
823827
825800
826203
826882
826346
827802
829956
830812
834089
835354
837611
837979
838944
838796
839247
839588
841594
840832
839214
836658
835733
829626
826957
821746
821022
818953
819731
821636
821348
824142
825522
826525
826145
827453
826912
825581
824364
824991
821832
822033
822076
823273
824125
824885
825688
825230
842439
843692
842790
845643
845478
846769
848957
848654
849057
848162
846411
845843
844052
846370
848264
853058
855170
859906
862075
863299
862621
861439
859266
858827
857243
856787
856219
856445
856524
857097
852045
851724
851638
850069
850465
848400
848688
847168
846847
846728
845219
844601
844462
844039
852639
852515
853004
852679
853871
853567
854513
854872
855321
855725
856291
856338
855888
855213
854138
852073
851006
847389
846932
842983
842424
841454
840097
841456
843081
843653
845302
846079
848045
847961
867832
867456
866301
865049
863202
863491
861014
861342
859660
861036
860672
860935
861117
860684
858730
855639
851919
847130
842918
842327
839337
842041
843117
846973
850823
854822
858397
861597
863003
864314
851421
850079
848655
847268
845419
843003
842865
843929
847972
849973
850679
856635
862192
864528
867179
868941
868165
865332
860761
853878
846322
842081
839420
837305
841761
848245
853294
859895
862236
861324
839858
839258
840854
841903
842803
843217
842367
841181
836990
829020
827056
817580
809680
811946
807762
812911
811645
822823
827540
833700
839320
843548
845440
846400
845552
845219
842908
842929
840018
841128
854573
854198
853658
852798
850842
850123
845967
845630
843067
843054
840699
840311
839337
837714
836352
833165
830659
825060
824858
821462
826528
822643
835650
839171
844707
853578
859140
863248
864758
866973
882587
881355
885776
885705
891239
892245
896178
897646
898243
892261
891265
884733
872651
860238
860488
845143
837467
835598
834947
841609
844603
851907
856212
859640
860040
859761
856913
856061
853814
852551
869383
868844
871050
871110
870888
869505
865804
858281
853289
844672
839159
833033
828771
837540
838104
844201
859522
861241
882005
884328
898417
900726
907900
908009
912333
911900
915265
916015
916238
917856
916653
915953
909151
898756
890411
873296
871992
845829
857056
846387
840349
842795
852850
858181
863496
865797
868842
868451
867820
865283
863998
862240
860813
859916
858079
857706
853955
855570
853622
855125
845920
842191
842393
838178
831382
829290
814400
816339
801413
800347
797885
803988
806791
808986
817222
829273
832426
839631
846088
848358
848369
850298
851632
851060
844084
843026
843720
839296
837907
840233
842068
841614
833765
825643
814753
806479
798129
793946
792111
791110
798058
808708
812304
816345
820234
823348
825564
825530
826763
826531
828506
831078
831631
834784
835364
836799
836693
837143
837144
838131
841529
839944
838326
836016
833341
825479
827449
819007
816104
817140
815152
818325
820909
821393
823975
824584
826233
826475
825675
825352
825783
823517
821202
822849
822436
823220
823184
825312
825029
826790
841976
843462
842420
845115
845576
846688
846192
847508
845472
844714
844272
841849
842237
842349
844993
848827
851992
855570
859423
860994
860925
859631
859378
857488
857479
855944
856460
855982
855837
855384
850268
850713
850758
851387
850062
850296
848218
848191
846157
846003
845315
845241
844599
845123
850909
851449
851541
852424
852260
853503
853315
854181
854718
855278
855251
855324
854868
854043
852560
851087
849034
844710
845138
839393
840376
839124
840882
840757
841401
841787
844219
846739
846733
849000
865857
864661
863754
862762
862408
859953
860420
858821
859911
858343
858904
858815
858458
857367
855380
851583
848147
841639
841561
836673
838582
838812
842021
843261
847530
851439
855058
858314
860489
862428
849444
847746
847073
845143
843678
843553
841428
839539
840786
846581
849568
850540
856599
862081
863901
865274
865080
860264
852977
845473
839136
835540
836237
837805
837080
840604
846547
850976
857781
863363
838691
840369
840747
841904
842347
842402
841949
838778
830489
826492
819615
808544
805112
800165
804357
802819
812296
808206
820070
826557
832635
836596
840873
842462
843821
843728
842516
841807
840753
840400
854753
854518
853877
852887
851279
850176
846613
845773
842639
843662
839732
840177
838605
835601
835752
829442
829041
821125
820826
817122
816989
818560
826748
833632
838906
846535
854292
859453
862486
864284
877389
880696
880640
885970
886449
891610
891649
894362
891609
892394
886077
877059
868105
857801
849576
843769
830090
835486
836277
835355
839722
845558
850714
854928
857844
857712
857035
854136
854231
850775
869186
869327
870017
869753
869459
866974
860626
854213
849173
836177
832287
826119
830443
823002
834094
835038
849626
853816
874990
875330
897046
895829
904476
906511
910629
911256
915522
915283
917601
917980
915186
911825
904389
893243
881355
869525
857127
846103
842865
828393
833233
835791
838075
847195
857485
863410
865370
867276
866588
866534
863555
863565
860627
860333
858661
856866
854952
853546
853129
852760
847405
846455
841481
839652
833999
824010
809463
814506
795976
796030
797305
793800
803330
803032
818527
819225
831916
841013
846402
847506
853996
851415
847257
849116
851039
844442
843644
844864
839774
839224
836825
834293
826279
815765
802173
792205
782611
777247
777530
782397
785441
791407
800811
811598
817145
821251
822820
825022
824632
825782
827640
828371
831705
832166
834802
835814
837215
837195
837235
837973
840613
838568
838054
834172
829776
825510
822795
812767
814545
810838
812497
813383
818064
819968
822566
823827
825443
825619
826198
825431
825591
823241
821687
822575
821219
822361
824117
824422
826477
825678
841259
843725
842485
844552
845122
845974
845382
843278
842565
838863
834792
833330
830747
833329
836506
843366
847131
851824
854826
858299
858655
859373
857867
857194
856538
856038
855049
855068
855219
855755
854598
853847
853437
852334
851771
849947
849686
848435
847865
846441
846146
845217
845198
844876
850791
849975
850563
850835
851632
851643
853020
853173
854186
854847
854306
854329
854110
852295
851576
850227
846828
843885
841570
840089
838723
837961
837484
837283
841031
840579
844897
844931
848056
848457
864809
864029
862419
861572
859049
858999
856813
857794
855208
856217
855863
856148
855653
854518
851977
847505
844494
839007
836856
833002
830672
831250
834905
838725
842888
848806
851937
855114
857529
857942
847814
846353
844045
842392
840146
838508
840366
840553
837331
838242
845406
849055
849335
852463
854439
854144
853705
849924
843878
836129
829363
824047
819212
822893
828066
831616
841529
846762
850406
854669
842466
842048
843293
843880
843569
841968
841127
836812
826447
821221
813185
802803
801347
793023
789315
796874
798811
806722
812520
816175
826748
832708
837593
840946
842308
842555
841999
841336
840933
841596
855125
854755
853927
853683
850917
851001
846448
847537
842488
843625
839775
839399
838377
834465
833997
827094
826581
817603
819422
810903
814727
815357
816916
830675
833557
840473
849307
855236
858274
861755
878648
877545
881246
880308
886306
886459
890930
887927
889770
886964
879747
872598
866658
846602
851051
832187
829265
827337
824667
833003
833043
842370
846383
852796
855446
857036
855104
854454
852936
849207
868318
868565
870121
869840
867897
863259
856968
851785
842408
828745
828417
820597
814575
821211
823497
821983
851730
840037
874222
869087
889062
895344
902449
903207
910775
910461
913051
916089
917191
918955
911703
907140
899571
889154
870290
871349
843000
846143
833428
832668
831798
831310
840624
841061
851317
857361
863460
865684
868718
867145
865515
866055
862718
860498
859164
858311
856829
857793
857768
860104
850540
850501
847816
839359
832641
823599
810172
809058
789567
797789
788158
793391
795160
806376
806853
819481
834114
840458
845814
855564
855772
859248
860270
853078
852351
851539
845092
844717
845966
841672
835523
826580
816395
806628
788488
787245
773648
768829
762902
772692
779842
790394
794899
805712
810279
818180
821331
822244
824203
824434
826291
827273
828901
831565
832409
833930
835209
836187
837025
837821
838870
838330
836790
830538
829833
822889
816657
812524
813634
811574
811473
812622
817225
818621
820856
823871
825191
825959
826798
827194
826005
825483
822248
823863
823685
823096
823224
826310
825898
828783
841206
842235
843336
843764
844488
845280
844916
842930
840175
837010
833980
831198
832412
831116
831447
836122
842378
848655
851788
855226
857939
857579
857465
856632
856567
854932
855538
854600
854148
854014
853174
853703
853205
853014
852187
851823
849655
848984
847545
847108
845754
845995
845071
845357
848598
849477
849166
849860
850798
851460
851710
852582
853078
854234
854509
854234
853239
852626
850111
849165
845671
842901
838644
838343
835561
835053
837235
836242
840128
841298
842605
846544
847077
849462
860414
859723
860074
859355
859791
857137
857199
854639
856353
855527
855171
854377
854138
852387
848738
843966
843797
834093
836123
828857
831984
830662
834192
837477
839239
844359
850139
851655
854228
858032
847145
845715
842869
841449
840585
836897
835152
834930
838665
837509
838798
845375
850168
851205
854655
856741
850535
847295
839036
834485
825389
819898
818122
815042
823416
828182
832554
846598
848877
855118
842500
843164
844324
844444
844384
842284
839427
835198
822861
813877
813635
792572
794470
786946
791947
786761
798306
794894
810023
810123
822714
826373
834709
837298
839524
840091
840779
840379
841684
840292
855390
855001
854561
853372
853377
851243
848885
846869
845374
841957
842240
838263
838702
833091
833481
825103
826125
815758
816319
808096
809534
814068
817773
819104
834692
834007
846232
851207
856574
857586
872276
875189
876255
881084
878979
883587
883461
888161
887262
881563
878565
872300
856536
851108
846388
826836
829035
824030
826821
828630
829446
838474
844747
849973
853821
854816
855326
852781
853022
847824
867531
867548
868667
867737
865004
860816
855602
846702
836115
825929
828433
814319
819610
812837
828140
815393
843758
839437
864042
868206
889777
888855
903683
902499
908268
910748
912442
915587
917211
919853
907058
903520
896794
884053
867200
870414
837579
841104
829982
819896
819521
825977
829041
836028
849728
854901
860024
868148
868214
867534
868350
865380
864571
861108
858779
856441
855146
856159
857021
857814
857140
854020
850402
844561
831006
824427
812353
803056
792774
794089
788006
787663
799427
796828
806445
825423
832106
839489
853242
859454
860861
861251
862809
860796
852878
852904
851442
846152
846261
846845
823744
820015
806262
799696
777522
779958
762845
767334
766557
765296
762753
779107
785523
800873
806244
813508
819961
820423
821805
823004
823634
825956
826960
828240
831546
833236
834293
835873
837423
837396
838660
837615
834012
830157
829486
818514
814167
811814
808565
805663
808857
808081
814613
818898
821190
823768
826148
826215
827346
827076
826009
824840
826152
822058
823153
825430
826147
825631
828798
827218
841383
842466
842008
843994
844076
843934
843368
841005
835021
832239
825775
824210
820755
823837
826087
831472
834618
846445
847779
852983
856009
857202
856845
856830
855421
855527
854689
854183
854148
854168
856923
856109
855475
854064
852695
851856
851311
849591
848331
847627
846586
845154
845029
844538
848427
847778
848449
848237
849432
849338
851950
851489
853401
853176
854017
853787
853920
851955
851035
845990
847159
840175
840080
837033
834644
835038
836198
838149
838842
840984
844582
845760
847621
848883
859944
861097
859640
858106
855983
856626
854292
854645
852410
852642
852241
852355
851151
849452
847206
843074
841062
833243
834509
829491
828702
829866
828955
837262
839439
840661
847241
850781
851398
851426
846062
844542
842161
841632
838317
837035
835733
834155
834898
836925
839413
841166
846544
849314
848991
847809
849165
842025
836974
827008
822174
813170
815267
812365
822755
822916
833439
843002
849453
852870
848777
848241
848729
847626
845629
842844
839805
830590
826219
808688
809421
789674
795967
783517
786252
786954
794326
793199
807409
805725
821367
823796
833844
836427
839607
840779
841258
842167
842187
844725
854499
855422
855009
855330
852826
851214
850313
847983
845998
845228
841355
842172
837238
834844
832457
823994
825807
814186
817681
806379
810754
808684
819325
815007
832794
832303
842194
852611
852389
858198
874348
871412
874865
875234
880849
879341
883370
884804
881748
881475
878687
866188
859315
850428
846049
826419
828911
825658
825601
826721
829096
838421
841381
847949
851463
854009
853203
851658
849634
844035
869484
871217
870207
868044
863776
859554
852464
842811
835520
826346
823475
811289
813570
808401
823632
816199
841748
833869
867219
860780
889454
886443
901340
902841
906232
911542
911519
914551
916914
919986
894818
902800
896125
884020
874265
867315
842536
832741
836252
817504
822648
826353
824546
839302
848077
852697
864340
866620
868645
872829
871537
870210
867946
865436
863561
861385
861723
861975
864550
866012
870491
862431
854976
845685
837932
824279
810706
800752
800969
792765
786083
793247
796055
794487
816057
824862
830036
848418
856825
861193
867442
869014
865510
866155
861007
852089
852011
851874
845708
845950
812449
813481
804920
794096
777261
773197
754096
752190
746121
758886
761710
771745
786504
792923
803875
811965
816385
820568
820222
821935
823392
823261
825389
827009
830232
830558
832979
836192
836505
836181
838035
836964
833451
832782
827602
816971
816262
809690
809253
805999
808091
810718
813587
819517
821639
825186
827842
829712
828638
829587
829895
829124
826096
828991
826059
826083
826373
827818
827088
831775
843347
842293
843739
843548
844388
844349
843141
840910
834299
831109
827491
822446
823334
820951
827691
825411
834595
842346
847132
850346
855568
856287
856914
855954
855697
854803
853668
852999
851898
851373
856709
856606
855705
856041
854349
852980
851001
851031
848362
847574
846889
846326
845265
845486
845027
845749
845789
845819
846549
847588
849220
848624
851291
851012
852373
853748
853993
854375
853228
852632
851671
848301
845546
841588
841326
837623
837538
837211
838192
837160
840204
843142
843830
846824
848075
851391
847540
854831
856236
855566
855827
856463
856311
854675
854762
853181
853838
852632
852762
852034
850649
848909
848323
841531
841359
832984
835156
828595
830384
830964
829976
833915
840499
842141
843943
848765
848885
851755
842286
847719
847449
845063
843045
840723
839481
835590
836498
833536
835707
834515
839951
841806
846056
848344
851247
851602
847532
844303
835044
829329
821502
815405
814197
816868
820396
827721
834330
843578
847802
857070
846845
839684
848277
847160
847271
846845
845338
842850
839398
832365
825427
812030
806558
793158
791736
784105
781964
782196
794100
794755
807964
806081
820908
825233
831796
837112
838974
840265
842060
840725
844553
843818
851272
850565
856076
855990
856444
855365
855827
854779
852880
851412
849013
846329
845205
840821
841831
835187
835272
827225
826618
816731
817315
810561
810583
807567
818376
815543
832284
831595
843426
848838
853910
856365
846608
865035
865342
869554
870014
872401
875366
880092
880294
879432
881908
881511
875401
870289
858547
854003
845444
828043
833392
824038
821949
829121
833233
837674
840162
847865
851956
854030
854908
854192
852040
847516
848924
834980
855682
858287
860608
860772
860868
857144
851418
841340
838156
824548
824971
814422
813190
810790
826291
814850
841771
834512
864961
862033
887391
887662
900932
905341
907562
911579
912124
914120
916037
920623
921274
931296
908711
907641
906500
891613
879562
866564
856647
829487
839250
818684
829566
828831
827867
841026
845093
859280
861200
869036
874081
872435
871752
871713
868552
865853
862720
861113
860438
861995
866604
870680
871934
882098
868582
866112
857717
848365
841399
828812
814342
801573
798190
794335
800016
797414
797024
804911
819338
821676
839606
850213
858245
866505
870706
871493
870035
865192
865922
860449
854545
853411
855288
849914
853614
870230
829353
824861
807589
795880
773497
767998
748074
755142
750336
752552
756650
764153
786493
788036
802776
809713
816850
817872
820586
819778
821082
822291
823917
826086
827361
829219
834556
836174
837335
837494
840362
835312
838772
836159
834596
831459
827863
818880
816637
810013
810264
811454
809760
810977
815693
819844
823965
827184
829075
829950
832120
831220
831633
830137
830349
827580
830124
828146
830909
831514
833947
833409
837430
836772
838276
840205
841538
842041
844051
844973
843100
840735
834096
829679
829308
821353
821227
823287
822743
829257
830449
844510
843887
851630
854897
856472
856349
856532
855514
855039
853589
853828
851878
852738
851032
851421
857686
857904
857495
855843
855653
853726
852535
850534
850540
847914
847515
845486
846041
844024
844936
843762
846252
845965
846553
845818
848235
847739
850761
850382
853315
853017
854583
855280
856153
854497
852217
849647
846956
843638
840351
835907
836144
835765
836215
839946
842255
843371
845428
848742
849227
849057
848328
853191
855397
857375
857411
855872
855148
853709
853316
852899
851776
851922
851668
851362
850543
849442
847060
842964
841883
835424
835537
830062
828792
829481
830561
835589
840449
843101
845058
848082
849556
851201
846411
847680
848054
846094
844436
841835
840276
837089
836833
835316
834984
836182
839448
843997
845572
849997
851465
852177
849766
843542
839351
830274
826382
818677
820970
821045
826570
832295
840873
846546
853665
858864
850751
847312
852969
848104
846459
846804
846627
844840
840388
835299
825828
816992
803309
800211
790060
792634
794946
796720
799420
794673
806211
809977
823142
828775
834263
839373
841707
841652
841977
842659
845071
845757
851133
851453
854971
856606
857128
856996
856500
855634
853537
851231
850295
847959
847233
846215
841514
841120
835067
830037
827709
819988
818062
812716
814554
810738
817166
823290
830911
834255
846100
849890
853758
855971
852509
860017
869095
867749
870614
872093
873756
874467
878945
881142
882429
879681
877924
871465
861799
855218
849319
834815
833958
833818
831739
828050
833224
837256
843816
848299
851347
852880
852450
851658
850476
847731
849913
847411
856387
856569
859211
861379
860066
857373
851770
844468
839232
829725
826676
817529
821332
822638
822647
819576
846990
836927
867922
863132
884011
891547
897154
902559
906075
908409
909619
914487
916660
920819
920365
929574
916591
917245
906895
898662
889661
868379
865944
845032
838888
826349
820529
825678
834391
848979
852868
855493
868479
872099
871588
874595
875996
872511
873365
872310
872152
871194
871377
871891
872304
871876
871393
875286
868885
867441
861481
854038
844482
834355
823329
819561
801665
793735
791471
801295
801700
818306
814492
830681
846031
851412
862701
868144
870611
870091
868066
866135
862521
859700
860231
851407
855548
849974
852770
859527
832982
821855
809196
793662
777095
764798
750238
754867
745438
755613
753086
768971
782791
789862
803199
810097
816303
818329
819422
819892
820026
820463
823007
823155
825263
831242
833257
835849
838089
839257
840164
837906
839004
838054
836548
833382
830447
821031
822360
813601
813229
806582
809995
816336
821175
823383
826142
829632
831414
833146
833255
834580
834259
834442
832897
832819
831960
832923
831363
831118
833287
833124
836223
835755
839958
839725
842551
842647
845427
845074
843074
842860
837104
829107
830700
823598
821065
821901
823311
829771
829998
844617
843971
852044
854499
856452
856353
856491
855054
855040
853076
853250
851924
852725
850091
851039
860828
859358
858356
857603
855392
854707
852524
851062
849316
848415
847741
845925
845954
844011
844161
843692
844920
844889
845970
846237
847420
849008
848755
852308
852407
854003
855654
856309
855860
855878
854296
852353
847775
846621
845039
842646
840599
840264
841992
841818
842090
844596
847876
848254
848496
849374
846833
852309
853451
854410
854681
855375
854076
854253
853069
853024
852207
852218
851844
851721
851544
849802
847929
845075
842654
837682
836581
835548
835106
834373
836333
839041
841555
843313
847318
849065
849895
850519
847277
847220
849048
847343
845865
843871
841330
839226
837400
836505
836943
836929
842400
843117
847667
851065
853683
854589
852809
847692
842129
837300
833755
830322
825058
827892
833834
840306
845873
852300
855157
857523
850584
853090
852692
849950
850784
850128
849056
846759
843012
838566
827560
823824
809773
805681
799420
791914
789888
788731
795429
804929
819263
819885
825573
832727
838848
842216
843423
843701
844132
843236
846614
846971
851961
851847
855479
856690
858081
858553
858093
857102
857526
856509
855229
852907
850053
847947
846324
841128
841248
833162
831717
824471
822284
817269
815081
821955
816652
830170
831841
837734
848785
852790
854023
856772
855149
859518
866680
867400
867536
871101
873286
874040
878107
880425
881996
881167
879450
874513
866802
857422
856532
842973
834186
835561
831260
837740
839433
843937
846835
848392
851152
852133
851148
849650
847951
847469
850149
848919
856112
854532
857745
859412
860370
858407
854564
847973
842437
835164
831260
828353
822741
818437
828727
829535
848370
841134
868504
874141
878443
894599
894032
901587
900227
908428
908047
913747
916652
921257
920956
929013
920795
923159
918138
907216
895251
885307
862771
862028
848546
846564
846115
841734
851601
850684
852661
868715
872825
873817
876785
877188
873172
873566
871872
871116
870004
869763
870020
870127
871080
871223
871308
873399
870315
870510
865418
858945
850388
839083
826926
822615
825414
815412
812140
804374
813658
821475
822763
837850
849226
855665
865431
868956
870366
869247
866389
865249
864613
857898
861594
853193
854966
848094
851581
850913
835637
823552
814479
792675
785006
762107
760944
754408
751875
751354
757008
774554
781765
794184
805519
811723
818375
820381
822059
820829
819494
820312
822570
821903
827991
830116
834049
837032
839486
840034
841273
838398
841529
839764
838469
835949
833381
824972
822649
818905
814767
819949
820720
822029
820610
825222
829728
831939
834254
834898
836387
836320
836933
835978
836138
833565
834088
834239
834304
834732
834509
834350
834034
838322
838314
839985