/*--------------------------------*- C++ -*----------------------------------*\
| =========                 |                                                 |
| \\      /  F ield         | OpenFOAM: The Open Source CFD Toolbox           |
|  \\    /   O peration     | Version:  2.1.1                                 |
|   \\  /    A nd           | Web:      www.OpenFOAM.org                      |
|    \\/     M anipulation  |                                                 |
\*---------------------------------------------------------------------------*/
FoamFile
{
    version     2.0;
    format      ascii;
    class       volVectorField;
    location    "0.006850000";
    object      U;
}
// * * * * * * * * * * * * * * * * * * * * * * * * * * * * * * * * * * * * * //

dimensions      [0 1 -1 0 0 0 0];

internalField   nonuniform List<vector> 
12384
(
(-1.80232 -3.64542 0)
(-1.93797 -4.55565 0)
(-0.442246 -5.90715 0)
(3.227 -6.15984 0)
(8.09301 -6.18267 0)
(12.966 -5.19054 0)
(16.9792 -4.82464 0)
(19.0563 -2.96968 0)
(20.0116 -0.680008 0)
(18.8471 0.666991 0)
(15.2654 1.99765 0)
(10.7241 2.69392 0)
(5.6885 2.49634 0)
(1.60616 2.15597 0)
(-3.52512 3.14852 0)
(-10.8444 2.63321 0)
(-17.5089 2.64069 0)
(-24.0752 2.69655 0)
(-31.3135 2.95084 0)
(-38.1835 3.18038 0)
(-44.7176 2.57528 0)
(-49.4074 2.68289 0)
(-51.3507 -0.248264 0)
(-49.7116 -2.19873 0)
(-43.4009 -5.06527 0)
(-32.2935 -7.47978 0)
(-17.0592 -9.5149 0)
(1.68623 -11.2495 0)
(23.1581 -12.6688 0)
(46.1655 -13.3297 0)
(70.3421 -12.492 0)
(91.3427 -11.9369 0)
(109.809 -8.75828 0)
(124.001 -7.27618 0)
(131.67 -3.0574 0)
(134.543 -0.504557 0)
(128.416 3.78235 0)
(116.741 7.94454 0)
(97.9567 10.8714 0)
(74.382 12.5861 0)
(49.0321 12.1882 0)
(25.9611 9.6085 0)
(9.03107 5.76402 0)
(1.32533 0.796051 0)
(-8.94913 7.36163 0)
(-27.5125 8.74583 0)
(-46.6974 8.737 0)
(-65.0594 7.65862 0)
(-78.3797 5.28276 0)
(-85.8926 1.85878 0)
(-87.3756 0.295297 0)
(-83.1848 -3.16312 0)
(-73.0882 -5.31084 0)
(-57.2843 -8.26305 0)
(-36.6269 -10.2624 0)
(-10.9252 -12.4162 0)
(18.9984 -14.7389 0)
(52.8414 -16.442 0)
(89.8172 -17.2704 0)
(126.786 -17.0058 0)
(162.462 -15.0846 0)
(190.798 -11.8163 0)
(211.663 -6.34148 0)
(225.293 -6.36313 0)
(228.643 1.58718 0)
(223.892 5.36018 0)
(205.685 10.8498 0)
(178.01 15.7502 0)
(141.654 19.1084 0)
(100.706 20.0306 0)
(61.0757 17.3097 0)
(28.5107 12.3764 0)
(7.27744 4.78293 0)
(-0.169076 -2.94126 0)
(-7.4266 4.88047 0)
(-25.8132 8.39882 0)
(-50.0819 11.0473 0)
(-77.9595 12.6335 0)
(-106.008 12.1988 0)
(-129.925 9.80005 0)
(-148.772 6.19817 0)
(-157.345 3.03787 0)
(-160.252 -1.39607 0)
(-155.902 -5.71955 0)
(-141.581 -8.84131 0)
(-120.654 -12.2312 0)
(-93.0367 -14.9966 0)
(-60.5985 -17.3098 0)
(-23.5509 -19.4278 0)
(18.1905 -22.1281 0)
(63.5285 -24.4792 0)
(111.793 -23.9154 0)
(157.805 -21.5429 0)
(197.667 -17.0168 0)
(227.529 -10.9862 0)
(245.562 -5.56791 0)
(248.53 4.29708 0)
(232.789 14.1153 0)
(200.181 23.6299 0)
(152.004 30.0308 0)
(94.4741 30.7882 0)
(41.9131 25.0353 0)
(6.37844 14.5505 0)
(-6.27139 -0.359739 0)
(-12.7749 13.6166 0)
(-26.5877 7.05258 0)
(-29.7376 2.54432 0)
(-20.7384 -5.85398 0)
(2.29962 -11.9343 0)
(35.0095 -16.8166 0)
(75.1435 -20.5671 0)
(119.926 -23.0478 0)
(166.864 -22.8867 0)
(213.667 -22.1801 0)
(255.03 -19.0137 0)
(288.459 -17.2771 0)
(316.306 -8.49986 0)
(332.133 -9.2514 0)
(338.778 2.4306 0)
(332.719 2.40533 0)
(306.643 14.1977 0)
(276.355 18.9594 0)
(228.149 27.2533 0)
(171.657 31.6973 0)
(110.779 30.6589 0)
(56.7936 25.0097 0)
(17.0028 16.8286 0)
(-5.57413 8.08092 0)
(-14.9748 -0.340954 0)
(-12.6977 -1.13795 0)
(-10.4085 -2.51366 0)
(-7.37005 -1.50284 0)
(-2.51984 -1.9314 0)
(-1.07269 2.08135 0)
(-8.11769 6.94343 0)
(-24.1557 6.87118 0)
(-39.6258 6.71734 0)
(-54.0124 6.56106 0)
(-67.4246 6.10075 0)
(-79.4325 5.09695 0)
(-88.0991 3.51184 0)
(-92.134 0.731216 0)
(-91.3997 -1.1773 0)
(-82.5015 -5.63768 0)
(-65.853 -10.1672 0)
(-42.5182 -13.068 0)
(-12.5872 -15.7858 0)
(21.8565 -17.9171 0)
(60.2485 -19.1124 0)
(99.5411 -19.3763 0)
(138.186 -17.9176 0)
(173.052 -15.5593 0)
(199.826 -12.9982 0)
(221.873 -5.17696 0)
(230.314 -5.47097 0)
(228.999 6.53928 0)
(218.623 7.58009 0)
(182.369 21.0411 0)
(139.798 27.1481 0)
(85.8428 28.8974 0)
(37.7008 24.3958 0)
(2.54023 15.9144 0)
(-11.4043 1.72499 0)
(-9.8369 -4.70329 0)
(-8.47817 8.53402 0)
(-20.4672 9.33328 0)
(-31.0622 5.10505 0)
(-35.4825 4.01843 0)
(-33.1143 -1.62565 0)
(-24.5288 -6.54104 0)
(-3.47984 -13.049 0)
(25.2911 -16.9848 0)
(60.3123 -20.512 0)
(100.393 -22.216 0)
(143.548 -25.1422 0)
(186.715 -22.2569 0)
(228.189 -21.7026 0)
(264.909 -17.1715 0)
(292.929 -17.3199 0)
(310.468 -7.31531 0)
(325.772 -4.92797 0)
(318.96 0.545792 0)
(302.838 8.68705 0)
(274.551 14.5366 0)
(230.4 22.2541 0)
(175.413 26.6026 0)
(115.9 25.6506 0)
(61.8387 20.1989 0)
(20.1329 12.1472 0)
(-4.66771 2.982 0)
(-18.2365 -5.39486 0)
(-20.8443 -6.35036 0)
(-16.438 -10.9391 0)
(-7.24083 -12.7386 0)
(-9.63294 10.6153 0)
(-18.1741 3.63426 0)
(-18.5546 1.169 0)
(-7.08598 -8.22019 0)
(18.9913 -15.1152 0)
(56.8631 -20.3699 0)
(102.11 -23.0414 0)
(151.479 -23.4358 0)
(200.119 -22.4585 0)
(244.345 -18.1162 0)
(281.552 -14.7816 0)
(307.5 -8.63028 0)
(324.714 0.694259 0)
(323.367 -0.232928 0)
(306.28 13.2868 0)
(282.538 13.3244 0)
(233.723 27.0815 0)
(176.376 30.6389 0)
(111.73 31.8188 0)
(54.0494 26.6515 0)
(5.87527 17.2446 0)
(-21.419 11.3098 0)
(-38.0741 5.88104 0)
(-47.5124 3.31883 0)
(-49.704 0.406733 0)
(-44.3929 -3.03428 0)
(-33.3513 -5.43656 0)
(-19.7965 -5.53929 0)
(-8.63641 -3.58993 0)
(-2.09702 -0.405222 0)
(-7.82663 4.90354 0)
(3.69561 -12.275 0)
(37.6683 -22.944 0)
(86.1652 -27.517 0)
(140.45 -26.9893 0)
(183.732 -25.395 0)
(222.741 -14.6468 0)
(253.835 -16.833 0)
(265.735 -1.39742 0)
(272.433 -1.08181 0)
(247.989 10.4932 0)
(218.797 18.4071 0)
(174.61 23.967 0)
(120.225 28.4645 0)
(63.7184 26.7675 0)
(13.6868 22.4663 0)
(-24.537 16.06 0)
(-50.0148 10.94 0)
(-65.516 6.60501 0)
(-74.549 4.9149 0)
(-79.7885 2.17778 0)
(-78.8702 0.416008 0)
(-70.0189 -4.28822 0)
(-53.2174 -7.92404 0)
(-33.7472 -8.52136 0)
(-14.7692 -6.21366 0)
(-1.33554 -3.85227 0)
(5.86389 0.510469 0)
(7.34084 2.26481 0)
(2.40831 5.33798 0)
(3.20141 -3.81636 0)
(16.9434 -10.734 0)
(42.713 -16.0824 0)
(76.8145 -19.2545 0)
(118.807 -21.3892 0)
(159.299 -21.781 0)
(200.31 -18.3741 0)
(236.566 -17.8742 0)
(262.822 -9.92925 0)
(284.328 -7.70006 0)
(287.438 1.5632 0)
(280.875 5.7072 0)
(260.551 14.6248 0)
(228.105 19.6067 0)
(182.396 24.7516 0)
(135.21 24.9025 0)
(87.8769 21.4266 0)
(49.8085 15.9392 0)
(23.3104 10.549 0)
(5.22704 6.29897 0)
(-9.29475 4.68331 0)
(-21.4332 4.0556 0)
(-29.4412 -0.175923 0)
(-30.6445 -2.14552 0)
(-23.0348 -8.30819 0)
(-10.9326 -8.97047 0)
(1.0124 -8.97646 0)
(10.0821 -4.43767 0)
(9.86971 -2.63997 0)
(3.85771 2.61494 0)
(-12.0787 9.81066 0)
(0.671731 -12.4774 0)
(38.6862 -25.9513 0)
(93.1406 -29.1183 0)
(148.009 -26.5024 0)
(193.811 -19.9009 0)
(224.397 -10.228 0)
(235.412 0.0803102 0)
(223.693 11.0112 0)
(193.45 21.0584 0)
(145.57 26.3735 0)
(90.4418 27.6112 0)
(38.899 24.387 0)
(-4.58417 18.8156 0)
(-36.661 12.6925 0)
(-58.0341 8.36126 0)
(-72.3514 5.5544 0)
(-82.7807 5.16801 0)
(-91.2049 3.00074 0)
(-95.6226 1.27085 0)
(-92.0211 -4.0822 0)
(-80.0716 -8.93258 0)
(-59.8616 -12.1806 0)
(-34.9261 -13.8469 0)
(-9.29362 -12.8696 0)
(12.2689 -10.1995 0)
(25.1599 -4.42261 0)
(28.0276 -0.702 0)
(22.1859 4.56978 0)
(9.64174 7.79835 0)
(6.23398 -4.54857 0)
(7.57168 0.328496 0)
(0.394499 8.25615 0)
(-20.5245 14.6634 0)
(-51.6922 18.1989 0)
(-86.969 20.1676 0)
(-121.184 15.5557 0)
(-145.05 11.1911 0)
(-156.285 4.48969 0)
(-155.503 -3.34384 0)
(-144.094 -5.76237 0)
(-123.953 -10.1363 0)
(-96.9958 -13.4415 0)
(-64.9973 -15.27 0)
(-30.4655 -15.8873 0)
(4.1619 -15.4947 0)
(36.5371 -14.5203 0)
(66.2026 -13.1303 0)
(93.2748 -11.7711 0)
(116.156 -10.7389 0)
(133.878 -8.02927 0)
(145.792 -3.78924 0)
(148.318 -0.366209 0)
(142.184 3.92527 0)
(128.169 8.07972 0)
(105.139 11.6592 0)
(77.3388 12.4151 0)
(49.1462 10.9062 0)
(25.4197 8.12697 0)
(7.32908 4.02856 0)
(2.44463 -6.3872 0)
(9.08515 -5.94006 0)
(13.6516 -2.31632 0)
(13.2083 -0.854321 0)
(7.29621 3.19273 0)
(-6.1709 6.28057 0)
(-24.6834 9.67285 0)
(-50.2567 14.6855 0)
(-86.3085 19.0748 0)
(-127.45 21.2505 0)
(-167.575 18.4374 0)
(-197.921 12.8303 0)
(-217.781 4.61003 0)
(-220.939 -0.483699 0)
(-212.815 -7.7951 0)
(-193.597 -11.0516 0)
(-164.593 -16.4469 0)
(-129.847 -17.873 0)
(-91.7027 -19.2252 0)
(-54.4613 -18.1613 0)
(-20.5354 -15.4033 0)
(6.98323 -11.3259 0)
(26.7692 -7.64567 0)
(39.3359 -2.77782 0)
(43.3489 1.11479 0)
(41.9626 2.66678 0)
(37.9345 3.79941 0)
(30.1669 5.79615 0)
(19.8076 7.18789 0)
(7.22877 8.48817 0)
(-0.278812 -6.76233 0)
(1.39662 -10.4232 0)
(5.11012 -13.746 0)
(10.2678 -15.0237 0)
(15.8775 -15.0648 0)
(21.1715 -13.7681 0)
(25.5585 -11.5118 0)
(28.8087 -7.66182 0)
(29.3934 -3.36115 0)
(27.633 0.724007 0)
(24.0312 3.5667 0)
(18.1599 5.67466 0)
(10.8807 6.23496 0)
(3.62843 5.27724 0)
(-4.80481 10.6129 0)
(-14.2321 8.94354 0)
(-22.3731 8.85728 0)
(-29.9142 8.26902 0)
(-36.8734 9.0257 0)
(-42.9322 8.36151 0)
(-47.8331 6.44542 0)
(-49.96 2.63613 0)
(-49.2683 -2.46768 0)
(-44.9381 -8.22039 0)
(-36.4325 -15.8087 0)
(-23.6613 -22.8111 0)
(-7.13201 -28.867 0)
(12.7123 -34.0965 0)
(35.1313 -37.7696 0)
(59.0836 -39.4616 0)
(82.8889 -37.0791 0)
(104.03 -34.8249 0)
(122.918 -26.0534 0)
(136.506 -20.1846 0)
(143.614 -9.23922 0)
(146.421 0.131926 0)
(142.411 10.123 0)
(132.059 20.6757 0)
(117.23 29.6966 0)
(97.8937 35.2513 0)
(74.5649 36.2639 0)
(49.5932 31.4356 0)
(25.8474 21.784 0)
(7.4448 8.19562 0)
(-10.53 23.6526 0)
(-30.0971 26.3387 0)
(-48.0556 24.6765 0)
(-62.1232 20.7034 0)
(-72.1664 12.7944 0)
(-76.5477 6.01907 0)
(-76.0629 -1.79278 0)
(-70.4343 -8.71292 0)
(-59.426 -17.0578 0)
(-43.737 -23.2811 0)
(-22.6937 -30.3916 0)
(2.6809 -36.5458 0)
(32.8205 -42.9993 0)
(66.9768 -48.4519 0)
(103.699 -51.0644 0)
(140.306 -49.7955 0)
(175.65 -43.9286 0)
(204.857 -35.235 0)
(226.49 -21.2225 0)
(241.441 -11.9786 0)
(242.96 3.59954 0)
(236.266 16.1077 0)
(222.944 29.2238 0)
(201.315 42.0052 0)
(173.299 51.5268 0)
(139.901 55.9846 0)
(102.874 52.4647 0)
(66.3947 41.4198 0)
(33.8831 25.706 0)
(9.64697 5.69996 0)
(-12.6615 20.077 0)
(-38.8988 28.5024 0)
(-66.5117 33.957 0)
(-92.5698 35.5805 0)
(-115.346 31.8942 0)
(-133.722 24.4042 0)
(-145.232 15.2316 0)
(-151.729 6.06117 0)
(-152.373 -4.63811 0)
(-143.69 -15.6453 0)
(-128.752 -26.56 0)
(-107.854 -36.037 0)
(-80.2385 -44.018 0)
(-47.1531 -51.2325 0)
(-10.02 -57.5739 0)
(31.4658 -64.5514 0)
(76.9486 -69.6427 0)
(123.805 -69.2486 0)
(168.538 -62.156 0)
(207.346 -49.3324 0)
(236.464 -32.1509 0)
(253.228 -10.9236 0)
(255.32 11.8321 0)
(246.123 35.9963 0)
(224.755 60.6749 0)
(191.935 80.4402 0)
(147.881 88.2602 0)
(96.5627 78.4129 0)
(48.4169 54.4133 0)
(11.7615 16.2274 0)
(-8.19029 35.4444 0)
(-15.0233 16.7516 0)
(-11.8052 1.54575 0)
(2.22326 -19.1875 0)
(26.0338 -35.6283 0)
(57.7617 -48.8148 0)
(96.0011 -59.0584 0)
(138.96 -65.5335 0)
(184.144 -66.0761 0)
(228.347 -64.1873 0)
(268.166 -55.6351 0)
(303.402 -45.7555 0)
(330.088 -30.244 0)
(346.194 -18.5632 0)
(350.435 0.635392 0)
(342.644 12.8487 0)
(328.323 33.8572 0)
(303.047 52.0921 0)
(271.649 70.0229 0)
(230.654 84.1333 0)
(183.024 88.6748 0)
(129.874 78.633 0)
(78.9379 59.3 0)
(38.3053 35.5762 0)
(9.81519 11.3601 0)
(-4.87097 6.00267 0)
(-10.3567 -2.2095 0)
(-10.5269 -2.19476 0)
(-7.47397 -6.70111 0)
(-3.65751 0.790158 0)
(-8.85968 21.5368 0)
(-25.4973 20.8222 0)
(-40.6854 19.7742 0)
(-54.2765 18.7138 0)
(-66.5761 17.0036 0)
(-76.6793 14.423 0)
(-84.7779 9.45293 0)
(-87.6043 2.32404 0)
(-85.1393 -5.3443 0)
(-76.2355 -17.0636 0)
(-60.1173 -28.4949 0)
(-37.6009 -38.0954 0)
(-8.70301 -46.111 0)
(25.0557 -52.0822 0)
(61.8357 -55.8695 0)
(100.152 -55.9685 0)
(137.322 -52.3027 0)
(170.773 -45.7318 0)
(199.543 -36.1722 0)
(219.038 -19.6767 0)
(227.409 -9.8191 0)
(230.398 13.1007 0)
(221.286 25.0128 0)
(202.005 51.9992 0)
(175.891 68.5424 0)
(138.224 79.3539 0)
(95.7633 74.1513 0)
(54.5122 54.5896 0)
(21.4562 25.2727 0)
(2.18232 2.53353 0)
(-6.59543 26.8585 0)
(-18.8831 24.9638 0)
(-28.1031 16.8944 0)
(-31.2654 8.47568 0)
(-27.1396 -4.34036 0)
(-15.0583 -21.2222 0)
(5.2623 -35.8589 0)
(32.7956 -49.2216 0)
(66.6259 -58.1099 0)
(104.522 -66.4353 0)
(145.004 -69.1435 0)
(188.889 -65.9419 0)
(226.446 -61.7744 0)
(258.539 -52.1291 0)
(292.271 -41.1821 0)
(310.201 -25.7013 0)
(317.075 -11.1781 0)
(322.36 0.838665 0)
(308.714 19.4659 0)
(288.049 38.1157 0)
(259.821 55.5313 0)
(220.287 69.1348 0)
(173.196 72.8413 0)
(120.897 62.7354 0)
(71.4661 43.1504 0)
(33.5425 20.329 0)
(8.06837 -3.07063 0)
(-5.05054 -11.2947 0)
(-7.68352 -26.1996 0)
(-4.69261 -31.7251 0)
(-6.03162 26.9563 0)
(-11.3657 9.03728 0)
(-6.38769 -3.94564 0)
(11.4172 -26.9502 0)
(39.7964 -45.4011 0)
(77.8503 -58.8427 0)
(122.662 -66.5478 0)
(170.143 -67.5069 0)
(217.077 -63.662 0)
(259.279 -51.5932 0)
(294.311 -40.9938 0)
(320.498 -24.6812 0)
(332.784 -5.47744 0)
(332.226 6.65079 0)
(324.495 32.182 0)
(302.734 43.839 0)
(272.566 70.4318 0)
(230.679 82.8032 0)
(181.96 91.364 0)
(125.928 81.0766 0)
(71.2457 61.7066 0)
(25.1119 42.3267 0)
(-7.22885 25.8969 0)
(-28.1398 14.6205 0)
(-37.3413 4.96627 0)
(-35.9753 -7.24014 0)
(-27.4115 -14.8625 0)
(-15.7393 -15.3295 0)
(-5.90251 -9.37193 0)
(-0.346257 -0.562802 0)
(4.22343 -3.34051 0)
(34.3201 -48.3668 0)
(80.8488 -72.2956 0)
(131.368 -80.7031 0)
(182.207 -77.064 0)
(227.305 -66.6118 0)
(259.547 -43.5809 0)
(285.377 -34.8353 0)
(295.892 -6.08096 0)
(290.272 6.11211 0)
(282.114 28.1106 0)
(255.056 47.2847 0)
(219.199 66.0413 0)
(175.215 78.9432 0)
(123.396 80.6368 0)
(68.3971 71.7387 0)
(17.9424 55.9823 0)
(-21.7108 39.3041 0)
(-48.6899 25.3692 0)
(-65.2126 16.6992 0)
(-73.4026 7.85947 0)
(-70.859 -2.14188 0)
(-60.0763 -14.6028 0)
(-41.9315 -24.0502 0)
(-23.2265 -24.055 0)
(-5.67212 -17.3547 0)
(4.63752 -8.7728 0)
(8.74059 3.25234 0)
(8.17665 8.25552 0)
(2.29457 16.4645 0)
(7.49379 -16.0873 0)
(30.0649 -36.5537 0)
(65.2146 -52.2478 0)
(106.769 -61.736 0)
(152.927 -64.9721 0)
(197.579 -67.079 0)
(240.101 -55.6222 0)
(277.295 -50.9804 0)
(303.704 -29.9152 0)
(324.039 -20.305 0)
(329.94 -0.439557 0)
(325.486 17.2915 0)
(314.275 36.3306 0)
(290.028 52.1804 0)
(257.902 65.306 0)
(218.334 71.1511 0)
(169.897 67.4651 0)
(120.886 56.3584 0)
(74.5289 41.0886 0)
(36.3368 28.6281 0)
(8.23496 21.4669 0)
(-10.434 15.8522 0)
(-20.0316 0.886459 0)
(-21.2082 -9.68702 0)
(-12.8455 -25.4559 0)
(0.986497 -26.3768 0)
(10.8311 -24.8602 0)
(15.9075 -11.3532 0)
(14.677 -5.69227 0)
(5.37764 5.85127 0)
(1.30829 3.09447 0)
(34.192 -53.1329 0)
(88.3995 -81.2447 0)
(147.215 -86.4443 0)
(200.263 -75.1933 0)
(242.247 -53.9791 0)
(269.672 -27.9542 0)
(281.079 -0.358233 0)
(276.734 27.6626 0)
(255.599 53.5938 0)
(220.602 73.1333 0)
(174.2 83.3283 0)
(117.359 79.1708 0)
(59.4785 65.8893 0)
(8.98526 48.4173 0)
(-30.6825 33.0968 0)
(-58.4105 22.5195 0)
(-77.0884 17.1111 0)
(-88.4583 10.714 0)
(-93.1302 1.78707 0)
(-92.2667 -9.75921 0)
(-81.6097 -24.733 0)
(-63.7478 -34.1002 0)
(-42.1801 -37.7629 0)
(-19.7284 -36.2429 0)
(0.0380095 -28.8602 0)
(14.0632 -15.0285 0)
(19.6395 -2.66488 0)
(16.7999 10.3526 0)
(7.4222 20.3199 0)
(-1.13072 -0.993447 0)
(-11.8133 12.533 0)
(-31.2205 30.2654 0)
(-59.6667 46.8771 0)
(-92.4884 54.4476 0)
(-124.368 53.9842 0)
(-148.121 42.241 0)
(-166.179 29.0673 0)
(-174.964 11.7881 0)
(-171.364 -5.29496 0)
(-160.779 -18.4894 0)
(-141.212 -30.3268 0)
(-114.579 -39.2525 0)
(-82.9289 -45.1113 0)
(-49.2383 -46.7186 0)
(-15.422 -45.5992 0)
(16.9171 -42.5298 0)
(46.3203 -38.8687 0)
(72.1729 -35.5607 0)
(95.5507 -31.9925 0)
(115.556 -24.209 0)
(129.64 -14.8159 0)
(136.287 -3.81424 0)
(135.199 8.0541 0)
(127.354 20.253 0)
(111.365 29.7106 0)
(89.3084 33.8882 0)
(63.7123 32.8466 0)
(36.5343 26.4871 0)
(11.575 17.3795 0)
(1.4045 -16.9838 0)
(6.88545 -15.8744 0)
(9.43831 -7.02923 0)
(5.70144 2.68335 0)
(-6.6269 12.9441 0)
(-28.1517 24.4377 0)
(-56.102 33.9408 0)
(-93.2106 49.6979 0)
(-135.254 58.7337 0)
(-174.765 60.4322 0)
(-206.672 50.9961 0)
(-230.127 34.101 0)
(-242.638 15.602 0)
(-244.681 -1.63937 0)
(-237.224 -20.8773 0)
(-217.435 -33.6997 0)
(-188.222 -47.6996 0)
(-153.189 -54.0953 0)
(-114.561 -56.3299 0)
(-76.4306 -53.2664 0)
(-42.4253 -44.9707 0)
(-15.1047 -33.8694 0)
(4.88416 -21.7203 0)
(17.5434 -9.68323 0)
(24.2241 0.830702 0)
(26.111 5.3204 0)
(24.8761 9.79471 0)
(21.1327 14.6776 0)
(14.4965 19.1307 0)
(5.68031 23.0041 0)
(0.210385 -12.1335 0)
(2.24994 -18.1784 0)
(5.70959 -22.5951 0)
(10.0684 -24.2746 0)
(14.6866 -24.3169 0)
(19.4238 -21.815 0)
(22.9332 -18.2187 0)
(24.6831 -11.8728 0)
(26.0802 -6.42556 0)
(25.7249 0.253885 0)
(22.511 5.4505 0)
(17.4435 10.0792 0)
(10.9213 11.5976 0)
(3.54212 10.5737 0)
(-4.91197 18.8781 0)
(-13.9754 16.8295 0)
(-22.3513 15.5465 0)
(-29.3683 14.4136 0)
(-35.6135 14.4226 0)
(-40.4769 12.7649 0)
(-43.6899 8.6794 0)
(-44.6618 1.98916 0)
(-42.592 -6.58865 0)
(-36.7728 -16.3473 0)
(-27.2162 -28.0253 0)
(-13.8159 -39.0729 0)
(3.15833 -48.9893 0)
(22.7618 -57.2017 0)
(44.1469 -63.0283 0)
(66.7866 -64.6575 0)
(88.5035 -61.8518 0)
(107.973 -55.6938 0)
(125.161 -43.7737 0)
(136.944 -32.2622 0)
(143.93 -15.5653 0)
(145.669 0.154716 0)
(142.036 15.5803 0)
(134.076 31.3098 0)
(121.525 44.6807 0)
(104.66 54.5803 0)
(84.1645 59.1156 0)
(60.6362 55.7583 0)
(35.0915 44.3277 0)
(11.2766 26.0549 0)
(-9.22969 41.012 0)
(-25.0997 41.7697 0)
(-39.1644 37.2317 0)
(-50.3591 30.3742 0)
(-56.8111 18.0725 0)
(-60.302 8.62201 0)
(-59.2864 -4.67107 0)
(-53.8551 -14.0202 0)
(-43.9097 -28.3307 0)
(-28.9676 -38.0968 0)
(-9.75414 -49.7479 0)
(14.3543 -60.3751 0)
(42.7492 -71.3469 0)
(75.3077 -80.2025 0)
(110.123 -84.1154 0)
(144.303 -81.4745 0)
(176.618 -71.2031 0)
(202.394 -58.0003 0)
(222.166 -36.3285 0)
(235.349 -16.8135 0)
(237.816 4.41307 0)
(234.235 25.6382 0)
(221.78 45.377 0)
(203.052 63.0616 0)
(178.803 77.9375 0)
(150.445 86.5335 0)
(118.176 86.0085 0)
(83.0608 74.8024 0)
(47.5144 55.1699 0)
(15.1916 27.8281 0)
(-13.6048 42.2156 0)
(-40.1958 51.4624 0)
(-65.5559 55.8085 0)
(-87.9083 54.7169 0)
(-106.569 47.3477 0)
(-120.468 35.8871 0)
(-129.781 21.4906 0)
(-134.111 5.8088 0)
(-132.761 -9.53508 0)
(-125.411 -26.1779 0)
(-111.079 -43.8524 0)
(-90.2692 -60.3836 0)
(-64.6779 -73.4047 0)
(-34.0823 -84.6955 0)
(0.573491 -95.4202 0)
(38.6472 -106.537 0)
(80.5979 -114.223 0)
(123.957 -112.841 0)
(164.224 -101.299 0)
(198.206 -80.5351 0)
(223.505 -52.208 0)
(238.596 -16.2247 0)
(242.345 18.1252 0)
(235.571 53.3993 0)
(219.187 87.8272 0)
(193.133 118.333 0)
(158.804 136.298 0)
(115.607 132.733 0)
(67.1222 105.616 0)
(21.6235 56.7999 0)
(-4.78583 49.7495 0)
(-6.76971 21.8342 0)
(0.734088 -4.26376 0)
(15.7982 -34.0234 0)
(38.018 -58.6056 0)
(67.3156 -79.428 0)
(102.904 -95.6394 0)
(142.893 -105.7 0)
(184.622 -108.196 0)
(224.661 -102.818 0)
(261.936 -89.7646 0)
(292.249 -72.1265 0)
(313.826 -52.3189 0)
(328.72 -24.8502 0)
(333.175 -0.635318 0)
(330.745 22.6073 0)
(316.107 48.8494 0)
(297.819 74.9198 0)
(272.009 100.912 0)
(243.154 123.074 0)
(207.268 135.634 0)
(164.489 131.974 0)
(116.827 110.471 0)
(70.6284 76.2565 0)
(33.4467 40.0065 0)
(10.3314 21.4039 0)
(-4.65625 3.13292 0)
(-9.50489 -0.796955 0)
(-7.70823 -10.7214 0)
(-4.24582 -3.0519 0)
(-7.31244 35.499 0)
(-21.5022 33.8333 0)
(-34.6494 31.7927 0)
(-46.65 29.5609 0)
(-57.7968 26.9451 0)
(-67.1307 22.8453 0)
(-74.7318 14.6005 0)
(-78.1414 3.95156 0)
(-76.4916 -10.3974 0)
(-68.4349 -27.9388 0)
(-54.0798 -45.5397 0)
(-34.0597 -61.5142 0)
(-7.443 -75.1317 0)
(23.385 -85.2209 0)
(57.0706 -90.7099 0)
(91.5708 -90.9264 0)
(124.823 -85.3378 0)
(155.457 -74.144 0)
(180.321 -58.3733 0)
(200.319 -37.6306 0)
(210.317 -17.1949 0)
(214.666 13.5421 0)
(211.723 35.5269 0)
(192.316 71.9426 0)
(175.699 98.3455 0)
(150.153 117.925 0)
(117.282 119.987 0)
(79.4561 100.517 0)
(41.9165 63.8928 0)
(12.2575 25.9193 0)
(-6.66551 44.0734 0)
(-16.5124 38.9227 0)
(-23.7283 27.2259 0)
(-26.6778 11.282 0)
(-22.0291 -8.94599 0)
(-10.7993 -35.2771 0)
(7.62085 -57.9845 0)
(31.7782 -79.1281 0)
(61.7074 -94.6976 0)
(95.7742 -108.2 0)
(133.764 -109.731 0)
(170.631 -109.251 0)
(204.593 -100.017 0)
(236.219 -83.5477 0)
(264.165 -64.0964 0)
(281.473 -47.8617 0)
(292.098 -17.2499 0)
(294.558 2.4587 0)
(287.982 27.4988 0)
(273.74 52.4635 0)
(250.491 77.6718 0)
(222.247 98.5313 0)
(187.319 109.999 0)
(145.885 104.221 0)
(102.085 80.48 0)
(62.2969 45.9015 0)
(31.7366 10.3618 0)
(11.8682 -9.9653 0)
(2.84684 -32.7608 0)
(-0.49735 -46.3651 0)
(-3.95751 38.2481 0)
(-6.59379 12.4287 0)
(0.635708 -14.5193 0)
(19.7692 -47.7072 0)
(48.1848 -75.9019 0)
(85.0184 -96.65 0)
(127.147 -108.589 0)
(170.776 -109.217 0)
(213.764 -101.824 0)
(250.527 -84.1574 0)
(280.403 -64.8939 0)
(302.536 -40.8159 0)
(315.756 -12.0759 0)
(317.939 10.6438 0)
(310.217 40.3486 0)
(294.649 68.3943 0)
(267.677 97.1277 0)
(240.78 123.654 0)
(200.734 136.912 0)
(157.623 134.541 0)
(108.347 115.107 0)
(60.8596 84.5256 0)
(22.1696 57.7171 0)
(-3.94414 33.4207 0)
(-17.742 13.3133 0)
(-19.4134 -8.54862 0)
(-14.7976 -22.2334 0)
(-6.60592 -22.3109 0)
(-0.873878 -12.6261 0)
(0.914321 1.31922 0)
(16.1902 -29.5545 0)
(56.9611 -95.1789 0)
(107.83 -126.65 0)
(155.245 -131.428 0)
(199.968 -124.308 0)
(236.191 -98.8529 0)
(259.987 -78.0978 0)
(282.048 -42.3291 0)
(290.234 -16.4152 0)
(286.699 11.8658 0)
(272.159 40.5156 0)
(253.206 69.6095 0)
(225.867 96.1812 0)
(190.708 119.709 0)
(150.076 129.777 0)
(103.422 125.529 0)
(54.3584 104.45 0)
(10.6638 77.9614 0)
(-22.8944 52.2861 0)
(-44.7682 33.1431 0)
(-55.4767 14.5884 0)
(-52.4646 -6.54444 0)
(-40.3486 -26.9731 0)
(-22.8613 -39.6279 0)
(-5.46462 -38.1213 0)
(8.46486 -25.953 0)
(15.836 -10.9956 0)
(16.7252 7.37098 0)
(13.1682 17.1586 0)
(4.77214 26.8233 0)
(11.9943 -36.5016 0)
(42.3404 -69.9461 0)
(82.3414 -94.013 0)
(127.983 -108.336 0)
(172.615 -111.414 0)
(214.982 -111.602 0)
(256.005 -91.8956 0)
(288.912 -82.543 0)
(312.838 -52.6106 0)
(328.452 -31.6748 0)
(337.932 -3.37591 0)
(334.056 23.7316 0)
(323.551 50.8949 0)
(305.834 75.9042 0)
(277.434 96.6458 0)
(246.267 110.491 0)
(205.665 114.658 0)
(158.269 103.99 0)
(110.681 85.0499 0)
(68.3725 63.9592 0)
(33.3505 44.7919 0)
(8.28547 27.0615 0)
(-2.20809 1.33704 0)
(0.967559 -22.1821 0)
(10.9978 -43.078 0)
(21.3897 -42.0698 0)
(27.7841 -36.8244 0)
(27.2877 -16.1047 0)
(19.2474 -3.82577 0)
(6.45548 10.7193 0)
(18.7463 -25.2851 0)
(67.5222 -108.246 0)
(127.034 -142.912 0)
(181.472 -142.379 0)
(226.514 -119.316 0)
(260.481 -85.0227 0)
(281.832 -45.6452 0)
(290.491 -3.89402 0)
(286.758 38.1171 0)
(273.313 73.7076 0)
(248.095 106.719 0)
(211.543 128.209 0)
(165.884 134.652 0)
(113.118 122.966 0)
(58.1405 99.5003 0)
(8.89787 72.1887 0)
(-30.088 50.7343 0)
(-57.9989 35.5771 0)
(-76.3372 22.0557 0)
(-85.9317 4.66093 0)
(-85.8531 -14.3693 0)
(-78.9489 -37.3056 0)
(-66.0638 -51.5499 0)
(-49.9375 -58.2169 0)
(-31.9918 -56.7693 0)
(-15.1442 -46.1296 0)
(-1.6011 -27.4743 0)
(5.58734 -6.21462 0)
(5.32922 12.8098 0)
(2.33382 27.2913 0)
(-6.60997 10.7784 0)
(-23.7909 33.8563 0)
(-48.7563 60.1596 0)
(-79.1799 81.2849 0)
(-109.477 87.662 0)
(-136.481 82.1511 0)
(-155.496 64.0674 0)
(-170.877 40.4398 0)
(-176.46 18.4545 0)
(-174.981 -7.61629 0)
(-165.824 -31.1194 0)
(-146.451 -50.8761 0)
(-122.435 -64.3942 0)
(-93.3121 -73.6841 0)
(-62.1879 -76.8062 0)
(-31.0363 -74.9167 0)
(-1.30915 -69.2561 0)
(25.2069 -64.062 0)
(49.4576 -58.3392 0)
(72.4287 -52.7211 0)
(90.8065 -41.463 0)
(105.744 -29.4759 0)
(114.861 -9.30162 0)
(115.532 8.34422 0)
(110.987 27.1191 0)
(99.0624 42.4373 0)
(82.2877 51.3404 0)
(60.7269 52.8538 0)
(37.0662 47.3295 0)
(12.4666 35.5878 0)
(-0.588793 -25.4154 0)
(1.32954 -22.6464 0)
(0.308622 -9.75544 0)
(-6.26268 10.8395 0)
(-21.9771 27.2498 0)
(-47.0974 49.2077 0)
(-78.0558 66.8735 0)
(-117.989 89.3382 0)
(-157.824 97.976 0)
(-191.336 93.2137 0)
(-218.138 75.4319 0)
(-236.02 50.2487 0)
(-248.241 22.5979 0)
(-251.983 -5.43189 0)
(-243.447 -34.2813 0)
(-224.353 -57.2072 0)
(-197.841 -78.732 0)
(-165.018 -90.5155 0)
(-128.267 -93.9787 0)
(-91.7948 -89.1321 0)
(-58.9943 -74.8093 0)
(-32.1019 -55.8545 0)
(-12.7588 -35.9686 0)
(-0.516134 -16.9154 0)
(6.56953 -1.53427 0)
(9.68174 6.415 0)
(10.0656 13.5268 0)
(8.84787 20.431 0)
(5.96349 27.297 0)
(2.12529 33.2551 0)
(1.74549 -18.0445 0)
(5.59857 -25.5291 0)
(10.3752 -30.9988 0)
(15.775 -33.171 0)
(21.5018 -32.4911 0)
(27.0314 -29.2739 0)
(30.8192 -23.5844 0)
(33.948 -15.9534 0)
(33.9829 -7.93243 0)
(31.8081 0.671238 0)
(27.7091 8.1281 0)
(20.9771 14.5529 0)
(12.8616 17.9389 0)
(4.3545 16.6735 0)
(-4.16498 27.4156 0)
(-12.5451 24.6708 0)
(-20.2732 21.9936 0)
(-26.6014 20.3475 0)
(-31.4395 18.5975 0)
(-34.9722 15.8756 0)
(-36.8114 9.7404 0)
(-36.5115 0.595803 0)
(-33.8082 -11.3848 0)
(-27.6676 -24.9225 0)
(-18.1356 -40.522 0)
(-5.3584 -54.9773 0)
(10.152 -67.9248 0)
(27.7111 -78.6163 0)
(46.9862 -85.8019 0)
(66.6832 -87.4808 0)
(86.0192 -83.9887 0)
(103.176 -73.7124 0)
(117.591 -59.6308 0)
(128.808 -41.4785 0)
(134.569 -20.1734 0)
(136.539 0.320911 0)
(133.861 20.7993 0)
(126.062 40.6222 0)
(115.181 57.1559 0)
(101.19 71.5795 0)
(83.1607 79.046 0)
(61.5058 78.7712 0)
(36.999 69.0665 0)
(12.2099 48.2416 0)
(-5.91669 54.1304 0)
(-17.1366 53.5017 0)
(-27.2521 46.8829 0)
(-34.7631 37.6343 0)
(-41.2477 21.7561 0)
(-43.5959 9.94581 0)
(-42.2129 -6.64865 0)
(-37.4577 -19.3043 0)
(-28.4479 -37.7586 0)
(-15.6372 -51.7098 0)
(2.03707 -67.2532 0)
(22.8838 -81.9715 0)
(48.1568 -97.0667 0)
(77.4073 -108.988 0)
(108.456 -114.297 0)
(138.797 -109.41 0)
(166.633 -96.1633 0)
(189.887 -75.5485 0)
(206.171 -49.7199 0)
(217.759 -22.4986 0)
(222.399 4.87531 0)
(217.424 32.492 0)
(206.429 58.3386 0)
(189.633 81.4732 0)
(169.503 100.288 0)
(145.194 112.58 0)
(117.439 115.462 0)
(85.9501 106.686 0)
(51.6772 87.5272 0)
(17.2091 57.4676 0)
(-12.2937 63.7389 0)
(-35.1455 72.4015 0)
(-56.1352 73.8221 0)
(-73.784 69.552 0)
(-88.7611 58.2024 0)
(-100.71 44.2745 0)
(-107.775 26.7729 0)
(-109.747 7.77468 0)
(-106.938 -16.1431 0)
(-99.8964 -37.9382 0)
(-88.0317 -59.9925 0)
(-69.5781 -81.433 0)
(-46.1878 -101.028 0)
(-20.054 -116.012 0)
(9.41911 -130.264 0)
(42.2805 -145.69 0)
(78.0665 -156.264 0)
(114.772 -153.077 0)
(149.145 -136.16 0)
(178.732 -107.15 0)
(200.325 -69.1716 0)
(212.817 -23.6633 0)
(214.586 21.6916 0)
(206.168 68.4135 0)
(192.117 111.205 0)
(172.182 149.013 0)
(145.296 175.798 0)
(110.889 179.255 0)
(68.6231 154.438 0)
(22.8076 104.04 0)
(-0.756126 59.0873 0)
(0.576343 24.4168 0)
(7.6556 -10.1552 0)
(21.8302 -47.7996 0)
(41.6153 -79.1023 0)
(68.2635 -106.979 0)
(100.911 -129.12 0)
(136.654 -143.072 0)
(175.159 -145.526 0)
(210.903 -136.685 0)
(242.522 -120.177 0)
(269.111 -94.6795 0)
(285.673 -64.677 0)
(300.827 -34.35 0)
(302.346 -3.91479 0)
(295.944 30.3777 0)
(287.733 62.5815 0)
(270.795 95.0901 0)
(252.692 124.736 0)
(228.757 152.22 0)
(202.49 171.625 0)
(170.601 175.489 0)
(131.194 158.156 0)
(88.9006 120.93 0)
(51.1229 76.0194 0)
(22.7479 42.2396 0)
(3.48996 16.0379 0)
(-4.33488 2.27299 0)
(-6.31359 -12.6721 0)
(-3.94287 -7.91675 0)
(-5.05382 45.6281 0)
(-15.2099 44.2115 0)
(-25.6566 41.6121 0)
(-35.7917 39.029 0)
(-45.7657 35.5371 0)
(-54.3139 30.5174 0)
(-61.3513 19.5985 0)
(-64.8757 5.26085 0)
(-64.1412 -14.6091 0)
(-58.2573 -36.5847 0)
(-45.6844 -61.0849 0)
(-28.8222 -82.132 0)
(-6.44364 -100.819 0)
(20.2708 -113.571 0)
(48.902 -122.162 0)
(78.0037 -121.405 0)
(107.094 -114.998 0)
(133.695 -99.0913 0)
(155.989 -79.1184 0)
(171.328 -53.0349 0)
(183.175 -24.2919 0)
(186.146 16.9182 0)
(181.453 44.4144 0)
(172.697 89.5943 0)
(156.604 120.387 0)
(138.844 147.727 0)
(115.704 157.199 0)
(84.0596 143.421 0)
(48.5118 106.149 0)
(15.2655 60.8298 0)
(-3.70987 59.3084 0)
(-12.8378 52.5995 0)
(-18.3855 36.9994 0)
(-20.4356 13.6523 0)
(-17.4175 -12.9157 0)
(-7.96938 -47.1108 0)
(6.97776 -76.7349 0)
(27.9091 -105.14 0)
(53.2267 -126.3 0)
(82.4518 -142.568 0)
(113.477 -147.605 0)
(144.122 -147.842 0)
(176.302 -130.212 0)
(202.606 -116.836 0)
(223.672 -86.3472 0)
(243.524 -66.6784 0)
(253.287 -29.0648 0)
(257.479 -0.0421606 0)
(250.935 30.4707 0)
(235.883 62.9606 0)
(220.973 94.5592 0)
(199.208 119.003 0)
(174.61 136.317 0)
(144.693 135.635 0)
(109.959 112.902 0)
(74.3473 73.5521 0)
(43.8701 29.5406 0)
(21.6366 -2.41364 0)
(9.60928 -33.1575 0)
(2.23676 -52.5342 0)
(-3.15483 46.4041 0)
(-4.08735 13.6456 0)
(3.39107 -26.0023 0)
(21.9606 -68.3093 0)
(48.9779 -104.927 0)
(82.6039 -131.848 0)
(120.523 -146.105 0)
(158.586 -145.157 0)
(195.205 -134.506 0)
(225.419 -111.382 0)
(248.361 -83.9393 0)
(269.301 -51.8196 0)
(276.243 -18.8328 0)
(279.28 14.9167 0)
(279.641 49.755 0)
(260.163 86.7064 0)
(244.469 121.254 0)
(221.775 152.501 0)
(192.951 170.343 0)
(162.077 178.527 0)
(119.772 159.763 0)
(80.2476 130.141 0)
(42.9811 91.5 0)
(16.4232 56.016 0)
(3.05592 24.2702 0)
(0.000457877 -7.39309 0)
(2.21346 -25.6388 0)
(6.08253 -24.6513 0)
(6.41029 -11.7281 0)
(3.59441 7.98641 0)
(21.1618 -69.3382 0)
(67.6856 -146.675 0)
(116.014 -177.39 0)
(154.802 -175.603 0)
(191.462 -162.265 0)
(216.652 -128.671 0)
(234.898 -99.7577 0)
(254.224 -55.9513 0)
(251.734 -23.0261 0)
(251.95 18.1937 0)
(245.299 55.0016 0)
(227.777 90.6549 0)
(206.107 120.713 0)
(180.473 150.849 0)
(147.745 165.806 0)
(111.339 169.621 0)
(70.7863 150.008 0)
(30.6414 118.731 0)
(-3.60328 82.848 0)
(-26.3637 51.8003 0)
(-35.9856 21.0845 0)
(-31.7682 -11.7726 0)
(-19.2625 -39.7862 0)
(-2.99046 -52.7873 0)
(11.1794 -49.7892 0)
(21.0334 -30.0442 0)
(24.1289 -9.78843 0)
(19.4887 15.7384 0)
(12.0082 28.9895 0)
(3.31077 39.74 0)
(15.6507 -62.3957 0)
(50.5291 -109.039 0)
(90.6306 -137.141 0)
(133.55 -152.894 0)
(172.907 -155.046 0)
(212.02 -151.615 0)
(244.725 -125.705 0)
(270.039 -108.746 0)
(296.951 -73.923 0)
(307.654 -39.1957 0)
(316.226 -7.52511 0)
(313.389 30.0948 0)
(307.403 62.3927 0)
(289.745 95.4498 0)
(268.554 121.089 0)
(244.389 143.699 0)
(210.051 151.845 0)
(170.874 147.516 0)
(128.677 128.718 0)
(85.6137 100.607 0)
(52.4558 70.6776 0)
(34.2071 40.542 0)
(27.6143 1.95793 0)
(28.6419 -32.7718 0)
(36.6331 -59.189 0)
(41.2533 -55.6194 0)
(40.9986 -41.6521 0)
(35.7987 -16.4687 0)
(24.1927 2.82728 0)
(8.34198 20.2792 0)
(27.2426 -73.8823 0)
(86.2973 -170.629 0)