/*--------------------------------*- C++ -*----------------------------------*\
| =========                 |                                                 |
| \\      /  F ield         | OpenFOAM: The Open Source CFD Toolbox           |
|  \\    /   O peration     | Version:  2.1.1                                 |
|   \\  /    A nd           | Web:      www.OpenFOAM.org                      |
|    \\/     M anipulation  |                                                 |
\*---------------------------------------------------------------------------*/
FoamFile
{
    version     2.0;
    format      ascii;
    class       volScalarField;
    location    "0.000500000";
    object      HO2;
}
// * * * * * * * * * * * * * * * * * * * * * * * * * * * * * * * * * * * * * //

dimensions      [0 0 0 0 0 0 0];

internalField   nonuniform List<scalar> 
12384
(
8.32101e-10
4.2902e-10
5.61603e-11
1.08175e-12
2.10646e-14
3.7646e-16
6.04724e-18
8.69197e-20
1.02043e-21
1.03078e-23
8.80574e-26
6.78118e-28
4.69021e-30
2.96341e-32
1.76623e-47
7.05882e-49
3.88789e-51
1.82464e-53
7.75963e-56
2.96948e-58
1.17487e-60
4.2184e-63
1.63419e-65
6.14164e-68
2.38999e-70
9.63068e-73
4.1455e-75
1.89473e-77
9.27692e-80
4.74557e-82
2.52985e-84
1.38698e-86
7.86129e-89
4.57829e-91
2.69624e-93
1.57756e-95
8.97673e-98
4.87722e-100
2.5608e-102
1.26385e-104
6.08924e-107
2.79165e-109
1.25108e-111
5.00285e-114
1.41218e-124
6.24661e-125
4.95413e-127
2.51063e-129
1.02817e-131
3.69771e-134
1.22168e-136
3.79421e-139
1.12756e-141
3.25057e-144
9.09761e-147
2.47681e-149
6.60618e-152
1.7108e-154
4.31521e-157
1.05456e-159
2.49035e-162
5.69362e-165
1.26473e-167
2.73397e-170
1.02092e-173
2.28024e-177
2.04603e-180
2.97134e-183
4.57902e-186
6.51321e-189
8.16965e-192
8.3363e-195
7.09007e-198
5.9273e-202
1.54245e-220
5.41396e-218
1.26295e-220
1.60865e-223
1.46802e-226
1.13592e-229
7.96189e-233
5.17673e-236
3.24194e-239
1.97182e-242
1.14758e-245
6.3438e-249
3.34746e-252
1.70114e-255
8.04885e-259
3.44708e-262
1.31585e-265
4.64746e-269
1.50793e-272
4.62174e-276
1.34111e-279
3.75799e-283
1.04414e-286
2.90568e-290
8.13242e-294
2.3253e-297
6.92322e-301
1.96464e-304
5.45479e-308
3.03588e-312
0
0
0
0
0
0
0
0
0
0
0
0
0
0
0
0
0
0
0
0
0
0
0
0
0
0
0
0
0
0
0
0
0
0
0
0
0
0
0
0
0
0
0
0
0
0
0
0
0
0
0
0
0
0
0
0
0
0
0
0
0
0
0
0
0
0
0
0
0
0
0
0
0
0
0
0
0
0
0
0
0
0
0
0
0
0
0
0
0
0
0
0
0
0
0
0
0
0
0
0
0
0
0
0
0
0
0
0
0
0
0
0
0
0
0
0
0
0
0
0
0
0
0
0
0
0
0
0
0
0
0
0
0
0
0
0
0
0
0
0
0
0
0
0
0
0
0
0
0
0
0
0
0
0
0
0
0
0
0
0
0
0
0
0
0
0
0
0
0
0
0
0
0
0
0
0
0
0
0
0
0
0
0
0
0
0
0
0
0
0
0
0
0
0
0
0
0
0
0
0
0
0
0
0
0
0
0
0
0
0
0
0
0
0
0
0
0
0
0
0
0
0
0
0
0
0
0
0
0
0
0
0
0
0
0
0
0
0
0
0
0
0
0
0
0
0
0
0
0
0
0
0
0
0
0
0
0
0
0
0
0
0
0
0
0
0
0
0
0
0
6.31009e-08
3.58849e-08
3.76284e-09
5.86905e-11
8.06332e-13
8.7054e-15
1.43185e-16
1.7444e-18
1.84073e-20
1.66172e-22
1.42488e-24
9.95362e-27
6.84798e-29
4.73782e-31
8.43265e-45
3.4596e-46
1.51954e-48
6.22489e-51
2.32928e-53
8.25647e-56
2.79996e-58
9.88437e-61
3.5413e-63
1.27943e-65
4.7232e-68
1.75101e-70
6.68073e-73
2.49526e-75
1.04333e-77
4.50001e-80
2.11901e-82
1.18131e-84
6.40524e-87
4.06169e-89
2.52238e-91
1.50904e-93
9.46542e-96
5.15504e-98
2.91014e-100
1.50493e-102
7.66166e-105
3.85927e-107
1.86445e-109
7.2526e-112
6.70229e-122
3.18587e-122
2.5301e-124
1.25779e-126
5.09079e-129
1.82135e-131
6.04315e-134
1.88956e-136
5.67071e-139
1.66073e-141
4.69379e-144
1.29346e-146
3.49373e-149
9.18137e-152
2.34998e-154
5.79048e-157
1.37911e-159
3.16445e-162
7.09061e-165
1.5465e-167
3.30926e-170
1.83539e-173
1.68675e-176
2.51918e-179
3.93441e-182
5.52624e-185
6.85423e-188
7.07008e-191
5.96326e-194
8.27979e-198
4.39602e-216
5.2437e-214
1.23393e-216
1.58308e-219
1.48888e-222
1.18437e-225
8.46195e-229
5.49971e-232
3.39974e-235
1.98005e-238
1.10934e-241
5.85252e-245
3.01057e-248
1.48338e-251
7.01415e-255
3.03578e-258
1.207e-261
4.39396e-265
1.50467e-268
4.83549e-272
1.49377e-275
4.38185e-279
1.26107e-282
3.55435e-286
9.95307e-290
2.7616e-293
7.89949e-297
2.25433e-300
6.25747e-304
5.68073e-308
0
0
0
0
0
0
0
0
0
0
0
0
0
0
0
0
0
0
0
0
0
0
0
0
0
0
0
0
0
0
0
0
0
0
0
0
0
0
0
0
0
0
0
0
0
0
0
0
0
0
0
0
0
0
0
0
0
0
0
0
0
0
0
0
0
0
0
0
0
0
0
0
0
0
0
0
0
0
0
0
0
0
0
0
0
0
0
0
0
0
0
0
0
0
0
0
0
0
0
0
0
0
0
0
0
0
0
0
0
0
0
0
0
0
0
0
0
0
0
0
0
0
0
0
0
0
0
0
0
0
0
0
0
0
0
0
0
0
0
0
0
0
0
0
0
0
0
0
0
0
0
0
0
0
0
0
0
0
0
0
0
0
0
0
0
0
0
0
0
0
0
0
0
0
0
0
0
0
0
0
0
0
0
0
0
0
0
0
0
0
0
0
0
0
0
0
0
0
0
0
0
0
0
0
0
0
0
0
0
0
0
0
0
0
0
0
0
0
0
0
0
0
0
0
0
0
0
0
0
0
0
0
0
0
0
0
0
0
0
0
0
0
0
0
0
0
0
0
0
0
0
0
0
0
0
0
0
0
0
0
0
0
0
0
0
0
0
0
0
0
1.60343e-09
1.85556e-09
2.67249e-10
1.24161e-11
2.97643e-14
5.7063e-16
1.94811e-18
1.94848e-21
3.17158e-24
8.65021e-27
1.52945e-29
1.4274e-31
5.58432e-33
7.09043e-35
2.93528e-45
1.43502e-46
5.18837e-49
2.02826e-51
8.37929e-54
2.62015e-56
9.94418e-59
3.3663e-61
1.44229e-63
5.49755e-66
2.3044e-68
8.26532e-71
3.41057e-73
1.16008e-75
4.55511e-78
1.63065e-80
5.8558e-83
2.13589e-85
8.22212e-88
3.23521e-90
1.62412e-92
7.56055e-95
4.40259e-97
2.4913e-99
1.49631e-101
1.00439e-103
5.88049e-106
4.11477e-108
2.50788e-110
2.33742e-113
7.39562e-122
4.19833e-122
3.16107e-124
1.47807e-126
5.71674e-129
1.99339e-131
6.55847e-134
2.04166e-136
6.10497e-139
1.78875e-141
4.97663e-144
1.35608e-146
3.61822e-149
9.39783e-152
2.39573e-154
5.82466e-157
1.38591e-159
3.18877e-162
7.30782e-165
1.63916e-167
3.65103e-170
7.82786e-173
1.56208e-175
2.65386e-178
4.33942e-181
6.22858e-184
7.69467e-187
7.83721e-190
6.34072e-193
5.96659e-197
2.66575e-214
8.35811e-213
1.79641e-215
2.14592e-218
1.91295e-221
1.45051e-224
9.90061e-228
6.14624e-231
3.57899e-234
1.94524e-237
1.00072e-240
4.83921e-244
2.27685e-247
1.0325e-250
4.53616e-254
1.8657e-257
7.23028e-261
2.6387e-264
9.30222e-268
3.17894e-271
1.06357e-274
3.41096e-278
1.05787e-281
3.15596e-285
9.11454e-289
2.53697e-292
7.05188e-296
1.98759e-299
5.48306e-303
3.48372e-307
0
0
0
0
0
0
0
0
0
0
0
0
0
0
0
0
0
0
0
0
0
0
0
0
0
0
0
0
0
0
0
0
0
0
0
0
0
0
0
0
0
0
0
0
0
0
0
0
0
0
0
0
0
0
0
0
0
0
0
0
0
0
0
0
0
0
0
0
0
0
0
0
0
0
0
0
0
0
0
0
0
0
0
0
0
0
0
0
0
0
0
0
0
0
0
0
0
0
0
0
0
0
0
0
0
0
0
0
0
0
0
0
0
0
0
0
0
0
0
0
0
0
0
0
0
0
0
0
0
0
0
0
0
0
0
0
0
0
0
0
0
0
0
0
0
0
0
0
0
0
0
0
0
0
0
0
0
0
0
0
0
0
0
0
0
0
0
0
0
0
0
0
0
0
0
0
0
0
0
0
0
0
0
0
0
0
0
0
0
0
0
0
0
0
0
0
0
0
0
0
0
0
0
0
0
0
0
0
0
0
0
0
0
0
0
0
0
0
0
0
0
0
0
0
0
0
0
0
0
0
0
0
0
0
0
0
0
0
0
0
0
0
0
0
0
0
0
0
0
0
0
0
0
0
0
0
0
0
0
0
0
0
0
0
0
0
0
0
0
0
4.65732e-06
3.48054e-06
6.42611e-08
2.58761e-09
2.60484e-10
1.24939e-11
2.76086e-14
9.78331e-18
8.73995e-21
1.14276e-23
2.69238e-26
5.37574e-29
1.26223e-31
3.47693e-34
4.05101e-41
1.74622e-42
6.26959e-45
2.77356e-47
1.02269e-49
3.61532e-52
1.08514e-54
3.82819e-57
1.40317e-59
5.54114e-62
2.09618e-64
8.38243e-67
2.92767e-69
1.07456e-71
4.05129e-74
1.37875e-76
5.13771e-79
1.73761e-81
6.12955e-84
2.18818e-86
7.96043e-89
3.0014e-91
1.28047e-93
5.6243e-96
2.98107e-98
1.6172e-100
9.40299e-103
5.90864e-105
3.78212e-107
7.53653e-110
7.83585e-118
1.02224e-118
7.26075e-121
3.3793e-123
1.30272e-125
4.5198e-128
1.46415e-130
4.5159e-133
1.33965e-135
3.84714e-138
1.07477e-140
2.92592e-143
7.78332e-146
2.02494e-148
5.15881e-151
1.28815e-153
3.15407e-156
7.58313e-159
1.78971e-161
4.15241e-164
9.46575e-167
2.12301e-169
4.68282e-172
1.00098e-174
1.74047e-177
2.65064e-180
3.42742e-183
3.5949e-186
2.9842e-189
5.76026e-193
1.59121e-209
5.51371e-209
1.05862e-211
1.1508e-214
9.40555e-218
6.47111e-221
3.9678e-224
2.23977e-227
1.18436e-230
5.93451e-234
2.83448e-237
1.29744e-240
5.70578e-244
2.41919e-247
9.90379e-251
3.92455e-254
1.50688e-257
5.6188e-261
2.03611e-264
7.18831e-268
2.4738e-271
8.32173e-275
2.73744e-278
8.82932e-282
2.7936e-285
8.68888e-289
2.65848e-292
8.00917e-296
2.34116e-299
3.09254e-303
4.94066e-324
4.94066e-324
0
0
0
0
0
0
0
0
0
0
0
0
0
0
0
0
0
0
0
0
0
0
0
0
0
0
0
0
0
0
0
0
0
0
0
0
0
0
0
0
0
0
0
0
0
0
0
0
0
0
0
0
0
0
0
0
0
0
0
0
0
0
0
0
0
0
0
0
0
0
0
0
0
0
0
0
0
0
0
0
0
0
0
0
0
0
0
0
0
0
0
0
0
0
0
0
0
0
0
0
0
0
0
0
0
0
0
0
0
0
0
0
0
0
0
0
0
0
0
0
0
0
0
0
0
0
0
0
0
0
0
0
0
0
0
0
0
0
0
0
0
0
0
0
0
0
0
0
0
0
0
0
0
0
0
0
0
0
0
0
0
0
0
0
0
0
0
0
0
0
0
0
0
0
0
0
0
0
0
0
0
0
0
0
0
0
0
0
0
0
0
0
0
0
0
0
0
0
0
0
0
0
0
0
0
0
0
0
0
0
0
0
0
0
0
0
0
0
0
0
0
0
0
0
0
0
0
0
0
0
0
0
0
0
0
0
0
0
0
0
0
0
0
0
0
0
0
0
0
0
0
0
0
0
0
0
0
0
0
0
0
0
0
0
0
0
0
0
2.90494e-06
2.63011e-06
4.11742e-06
4.2591e-07
2.93046e-08
1.53894e-08
6.63594e-10
2.52936e-13
1.20854e-16
1.31589e-19
2.48217e-22
5.3906e-25
1.24443e-27
3.27025e-30
7.92971e-37
3.50118e-38
1.50084e-40
6.81234e-43
2.80189e-45
9.49192e-48
3.16031e-50
1.02868e-52
3.98481e-55
1.53054e-57
6.46594e-60
2.45915e-62
9.98758e-65
3.6061e-67
1.42268e-69
4.82844e-72
1.86058e-74
6.27615e-77
2.25346e-79
7.82449e-82
2.65707e-84
9.61706e-87
3.40009e-89
1.27069e-91
5.18393e-94
2.22108e-96
1.06651e-98
5.49237e-101
3.08208e-103
1.00726e-105
2.35494e-113
8.94281e-115
6.04911e-117
2.83685e-119
1.11519e-121
3.95957e-124
1.31554e-126
4.16004e-129
1.26438e-131
3.72236e-134
1.06455e-136
2.96628e-139
8.06594e-142
2.14372e-144
5.57602e-147
1.41887e-149
3.54019e-152
8.65428e-155
2.0768e-157
4.88918e-160
1.13115e-162
2.5677e-165
5.73491e-168
1.25902e-170
2.69435e-173
4.08404e-176
5.24851e-179
5.32686e-182
4.19508e-185
8.4855e-189
3.39983e-204
1.37811e-204
2.20901e-207
2.09941e-210
1.52147e-213
9.36292e-217
5.19263e-220
2.67729e-223
1.30793e-226
6.10888e-230
2.74729e-233
1.19172e-236
5.00561e-240
2.036e-243
8.03993e-247
3.08164e-250
1.14899e-253
4.16494e-257
1.47133e-260
5.06306e-264
1.70193e-267
5.58506e-271
1.7951e-274
5.64907e-278
1.74578e-281
5.29952e-285
1.58298e-288
4.65668e-292
1.33113e-295
1.84034e-299
6.38619e-319
1.89731e-319
2.56914e-322
0
0
0
0
0
0
0
0
0
0
0
0
0
0
0
0
0
0
0
0
0
0
0
0
0
0
0
0
0
0
0
0
0
0
0
0
0
0
0
0
0
0
0
0
0
0
0
0
0
0
0
0
0
0
0
0
0
0
0
0
0
0
0
0
0
0
0
0
0
0
0
0
0
0
0
0
0
0
0
0
0
0
0
0
0
0
0
0
0
0
0
0
0
0
0
0
0
0
0
0
0
0
0
0
0
0
0
0
0
0
0
0
0
0
0
0
0
0
0
0
0
0
0
0
0
0
0
0
0
0
0
0
0
0
0
0
0
0
0
0
0
0
0
0
0
0
0
0
0
0
0
0
0
0
0
0
0
0
0
0
0
0
0
0
0
0
0
0
0
0
0
0
0
0
0
0
0
0
0
0
0
0
0
0
0
0
0
0
0
0
0
0
0
0
0
0
0
0
0
0
0
0
0
0
0
0
0
0
0
0
0
0
0
0
0
0
0
0
0
0
0
0
0
0
0
0
0
0
0
0
0
0
0
0
0
0
0
0
0
0
0
0
0
0
0
0
0
0
0
0
0
0
0
0
0
0
0
0
0
0
0
0
0
0
0
0
0
2.42761e-06
2.34807e-06
2.42179e-06
3.89297e-06
1.44947e-06
5.62914e-07
7.58881e-08
9.81218e-10
6.13473e-13
5.59257e-16
9.05365e-19
1.8875e-21
4.93738e-24
1.20426e-26
5.11403e-33
2.48336e-34
1.19494e-36
6.11144e-39
2.54776e-41
9.86978e-44
3.19381e-46
1.03133e-48
3.61744e-51
1.4428e-53
5.93475e-56
2.39517e-58
9.77587e-61
3.61245e-63
1.4734e-65
5.03908e-68
2.00188e-70
6.65604e-73
2.47152e-75
8.47032e-78
2.96752e-80
1.03681e-82
3.53334e-85
1.26544e-87
4.58923e-90
1.7168e-92
7.1129e-95
3.05206e-97
1.45916e-99
5.84173e-102
2.10408e-109
3.22676e-111
2.10876e-113
1.04119e-115
4.26323e-118
1.56886e-120
5.37632e-123
1.75059e-125
5.46138e-128
1.64867e-130
4.83743e-133
1.37881e-135
3.83952e-138
1.04183e-140
2.77065e-143
7.19476e-146
1.83014e-148
4.55891e-151
1.11213e-153
2.66275e-156
6.24587e-159
1.43602e-161
3.23908e-164
7.18311e-167
1.56513e-169
3.33827e-172
4.23287e-175
4.11131e-178
3.04266e-181
6.09017e-185
3.87534e-199
1.93198e-200
2.43114e-203
1.94386e-206
1.22749e-209
6.69838e-213
3.33209e-216
1.56179e-219
7.00165e-223
3.03398e-226
1.2755e-229
5.22034e-233
2.0822e-236
8.10439e-240
3.07625e-243
1.13981e-246
4.11944e-250
1.45351e-253
5.00228e-257
1.68183e-260
5.51871e-264
1.76966e-267
5.54649e-271
1.70321e-274
5.1264e-278
1.51555e-281
4.40683e-285
1.25442e-288
3.47648e-292
4.74687e-296
8.13756e-314
3.02819e-315
3.17915e-318
2.14424e-321
0
0
0
0
0
0
0
0
0
0
0
0
0
0
0
0
0
0
0
0
0
0
0
0
0
0
0
0
0
0
0
0
0
0
0
0
0
0
0
0
0
0
0
0
0
0
0
0
0
0
0
0
0
0
0
0
0
0
0
0
0
0
0
0
0
0
0
0
0
0
0
0
0
0
0
0
0
0
0
0
0
0
0
0
0
0
0
0
0
0
0
0
0
0
0
0
0
0
0
0
0
0
0
0
0
0
0
0
0
0
0
0
0
0
0
0
0
0
0
0
0
0
0
0
0
0
0
0
0
0
0
0
0
0
0
0
0
0
0
0
0
0
0
0
0
0
0
0
0
0
0
0
0
0
0
0
0
0
0
0
0
0
0
0
0
0
0
0
0
0
0
0
0
0
0
0
0
0
0
0
0
0
0
0
0
0
0
0
0
0
0
0
0
0
0
0
0
0
0
0
0
0
0
0
0
0
0
0
0
0
0
0
0
0
0
0
0
0
0
0
0
0
0
0
0
0
0
0
0
0
0
0
0
0
0
0
0
0
0
0
0
0
0
0
0
0
0
0
0
0
0
0
0
0
0
0
0
0
0
0
0
0
0
0
0
0
2.39237e-06
2.37664e-06
2.41307e-06
2.7207e-06
3.03189e-06
3.54322e-06
9.1513e-07
6.57664e-08
1.80321e-10
4.78502e-13
1.32303e-15
4.04493e-18
1.17478e-20
2.77608e-23
1.26219e-29
6.17433e-31
3.85138e-33
2.14357e-35
1.02349e-37
4.31859e-40
1.59254e-42
5.26518e-45
1.9154e-47
7.65014e-50
3.33958e-52
1.39104e-54
5.93401e-57
2.33116e-59
9.41365e-62
3.51827e-64
1.33312e-66
4.8903e-69
1.7514e-71
6.32971e-74
2.19969e-76
7.85264e-79
2.71229e-81
9.60402e-84
3.3556e-86
1.22273e-88
4.55153e-91
1.78827e-93
7.50679e-96
3.21614e-98
1.49592e-105
1.14177e-107
6.59784e-110
3.38612e-112
1.50733e-114
5.87866e-117
2.10364e-119
7.09293e-122
2.27263e-124
7.0456e-127
2.12032e-129
6.18965e-132
1.76398e-134
4.89539e-137
1.33049e-139
3.52857e-142
9.16287e-145
2.32777e-147
5.7843e-150
1.40897e-152
3.35775e-155
7.82133e-158
1.78511e-160
4.00135e-163
8.80051e-166
1.90637e-168
4.05043e-171
3.64366e-174
2.51389e-177
5.30901e-181
6.08334e-194
3.65187e-196
3.21717e-199
2.0142e-202
1.05386e-205
4.94002e-209
2.16909e-212
9.14553e-216
3.75e-219
1.50257e-222
5.89231e-226
2.26147e-229
8.52249e-233
3.15808e-236
1.1491e-239
4.09988e-243
1.43497e-246
4.92384e-250
1.65358e-253
5.4379e-257
1.7462e-260
5.45269e-264
1.65601e-267
4.90601e-271
1.42096e-274
4.02181e-278
1.12388e-281
3.09466e-285
8.10712e-289
1.11734e-292
1.3755e-308
6.39163e-311
4.68668e-314
2.47771e-317
1.10028e-320
4.94066e-324
0
0
0
0
0
0
0
0
0
0
0
0
0
0
0
0
0
0
0
0
0
0
0
0
0
0
0
0
0
0
0
0
0
0
0
0
0
0
0
0
0
0
0
0
0
0
0
0
0
0
0
0
0
0
0
0
0
0
0
0
0
0
0
0
0
0
0
0
0
0
0
0
0
0
0
0
0
0
0
0
0
0
0
0
0
0
0
0
0
0
0
0
0
0
0
0
0
0
0
0
0
0
0
0
0
0
0
0
0
0
0
0
0
0
0
0
0
0
0
0
0
0
0
0
0
0
0
0
0
0
0
0
0
0
0
0
0
0
0
0
0
0
0
0
0
0
0
0
0
0
0
0
0
0
0
0
0
0
0
0
0
0
0
0
0
0
0
0
0
0
0
0
0
0
0
0
0
0
0
0
0
0
0
0
0
0
0
0
0
0
0
0
0
0
0
0
0
0
0
0
0
0
0
0
0
0
0
0
0
0
0
0
0
0
0
0
0
0
0
0
0
0
0
0
0
0
0
0
0
0
0
0
0
0
0
0
0
0
0
0
0
0
0
0
0
0
0
0
0
0
0
0
0
0
0
0
0
0
0
0
0
0
0
0
2.34134e-06
2.41225e-06
2.49629e-06
2.26769e-06
1.53993e-06
2.08453e-06
2.44489e-06
2.89346e-07
7.72724e-09
2.14072e-11
6.96298e-14
2.33243e-16
8.04335e-19
2.71873e-21
2.70674e-27
1.0651e-28
1.23513e-30
9.34e-33
5.38347e-35
2.67462e-37
1.08719e-39
3.79497e-42
1.38803e-44
5.88672e-47
2.68266e-49
1.19416e-51
5.24962e-54
2.21277e-56
9.00433e-59
3.59591e-61
1.36307e-63
5.19815e-66
1.88545e-68
6.93139e-71
2.46898e-73
8.82415e-76
3.13252e-78
1.1104e-80
3.92802e-83
1.41143e-85
5.06401e-88
1.89577e-90
7.28067e-93
2.91638e-95
1.62172e-102
8.65193e-105
4.33179e-107
2.11934e-109
9.91603e-112
4.19326e-114
1.59882e-116
5.63805e-119
1.87015e-121
5.95633e-124
1.83938e-126
5.50481e-129
1.60577e-131
4.566e-134
1.26831e-136
3.43983e-139
9.12061e-142
2.3649e-144
5.99136e-147
1.48593e-149
3.60336e-152
8.53454e-155
1.97851e-157
4.50228e-160
1.0041e-162
2.20084e-165
4.7559e-168
1.00241e-170
6.33674e-174
1.71772e-177
3.10823e-189
2.48097e-192
1.34257e-195
6.08311e-199
2.50084e-202
9.66702e-206
3.60664e-209
1.31662e-212
4.75371e-216
1.71236e-219
6.1506e-223
2.18594e-226
7.67986e-230
2.67551e-233
9.22732e-237
3.14327e-240
1.05834e-243
3.52052e-247
1.1521e-250
3.70356e-254
1.16252e-257
3.52945e-261
1.03466e-264
2.94342e-268
8.12814e-272
2.17889e-275
5.74529e-279
1.49992e-282
3.7881e-286
5.31829e-290
7.25764e-304
4.66691e-307
2.14261e-310
8.20481e-314
2.86304e-317
9.40701e-321
4.94066e-324
0
0
0
0
0
0
0
0
0
0
0
0
0
0
0
0
0
0
0
0
0
0
0
0
0
0
0
0
0
0
0
0
0
0
0
0
0
0
0
0
0
0
0
0
0
0
0
0
0
0
0
0
0
0
0
0
0
0
0
0
0
0
0
0
0
0
0
0
0
0
0
0
0
0
0
0
0
0
0
0
0
0
0
0
0
0
0
0
0
0
0
0
0
0
0
0
0
0
0
0
0
0
0
0
0
0
0
0
0
0
0
0
0
0
0
0
0
0
0
0
0
0
0
0
0
0
0
0
0
0
0
0
0
0
0
0
0
0
0
0
0
0
0
0
0
0
0
0
0
0
0
0
0
0
0
0
0
0
0
0
0
0
0
0
0
0
0
0
0
0
0
0
0
0
0
0
0
0
0
0
0
0
0
0
0
0
0
0
0
0
0
0
0
0
0
0
0
0
0
0
0
0
0
0
0
0
0
0
0
0
0
0
0
0
0
0
0
0
0
0
0
0
0
0
0
0
0
0
0
0
0
0
0
0
0
0
0
0
0
0
0
0
0
0
0
0
0
0
0
0
0
0
0
0
0
0
0
0
0
0
0
0
0
2.41612e-06
2.39529e-06
2.04138e-06
5.58974e-07
2.42364e-07
4.37615e-07
3.33019e-07
5.14981e-08
4.57211e-09
3.6373e-11
2.19856e-13
1.66469e-15
1.33309e-17
1.48499e-19
6.68435e-22
3.06979e-24
1.38826e-26
9.32835e-29
9.97286e-31
9.6067e-33
1.06654e-34
8.5778e-37
5.79824e-39
3.71196e-41
2.11749e-43
1.16535e-45
5.88876e-48
2.9595e-50
1.33098e-52
6.2412e-55
2.61705e-57
1.10846e-59
4.49357e-62
1.71686e-64
6.7145e-67
2.43982e-69
9.10001e-72
3.28406e-74
1.19896e-76
4.33242e-79
1.58627e-81
5.74904e-84
2.09326e-86
7.77686e-89
2.88416e-91
1.05836e-93
4.06028e-96
1.65152e-98
7.22907e-101
3.03311e-103
1.31993e-105
5.778e-108
2.62625e-110
1.14739e-112
4.68513e-115
1.75111e-117
6.08981e-120
2.01076e-122
6.3857e-125
1.96236e-127
5.86427e-130
1.7081e-132
4.85651e-135
1.34838e-137
3.65471e-140
9.67209e-143
2.49996e-145
6.31731e-148
1.56167e-150
3.77336e-153
8.92224e-156
2.06685e-158
4.6944e-161
1.04546e-163
2.28801e-166
4.91334e-169
1.02427e-171
3.80832e-175
7.72793e-179
8.69649e-183
3.02216e-186
1.06033e-189
3.2217e-193
9.87952e-197
3.08386e-200
9.67432e-204
3.03282e-207
9.4414e-211
2.9266e-214
9.10546e-218
2.85474e-221
8.99191e-225
2.85331e-228
9.14776e-232
2.94939e-235
9.50281e-239
3.05094e-242
9.71561e-246
3.0495e-249
9.40422e-253
2.83158e-256
8.23371e-260
2.30227e-263
6.18198e-267
1.58809e-270
3.88431e-274
9.07889e-278
2.014e-281
4.23152e-285
8.50965e-289
1.01728e-292
4.15207e-297
7.16076e-301
1.9607e-304
5.13331e-308
1.36823e-311
3.68667e-315
9.93601e-319
2.66795e-322
0
0
0
0
0
0
0
0
0
0
0
0
0
0
0
0
0
0
0
0
0
0
0
0
0
0
0
0
0
0
0
0
0
0
0
0
0
0
0
0
0
0
0
0
0
0
0
0
0
0
0
0
0
0
0
0
0
0
0
0
0
0
0
0
0
0
0
0
0
0
0
0
0
0
0
0
0
0
0
0
0
0
0
0
0
0
0
0
0
0
0
0
0
0
0
0
0
0
0
0
0
0
0
0
0
0
0
0
0
0
0
0
0
0
0
0
0
0
0
0
0
0
0
0
0
0
0
0
0
0
0
0
0
0
0
0
0
0
0
0
0
0
0
0
0
0
0
0
0
0
0
0
0
0
0
0
0
0
0
0
0
0
0
0
0
0
0
0
0
0
0
0
0
0
0
0
0
0
0
0
0
0
0
0
0
0
0
0
0
0
0
0
0
0
0
0
0
0
0
0
0
0
0
0
0
0
0
0
0
0
0
0
0
0
0
0
0
0
0
0
0
0
0
0
0
0
0
0
0
0
0
0
0
0
0
0
0
0
0
0
0
0
0
0
0
0
0
0
0
0
0
0
0
0
0
0
0
0
0
0
0
0
0
0
0
0
0
0
0
0
0
0
0
0
0
0
0
0
0
0
0
2.35144e-06
2.20973e-06
4.97084e-07
1.96085e-08
2.16141e-08
7.22107e-08
8.47164e-08
1.12306e-08
5.34932e-10
3.82243e-12
2.7708e-14
1.9953e-16
2.28363e-18
3.09522e-20
1.98765e-22
1.31211e-24
4.97969e-27
3.05582e-29
2.81453e-31
2.6583e-33
2.22239e-35
1.71934e-37
1.28105e-39
9.7751e-42
6.32093e-44
4.11988e-46
2.34486e-48
1.41384e-50
7.05016e-53
3.85527e-55
1.90442e-57
8.81624e-60
4.25875e-62
1.83867e-64
8.04657e-67
3.40422e-69
1.39382e-71
5.59419e-74
2.25021e-76
8.68892e-79
3.4305e-81
1.3338e-83
5.33861e-86
2.157e-88
9.10126e-91
3.96152e-93
1.7368e-95
8.06284e-98
3.90875e-100
1.86997e-102
8.94152e-105
4.24653e-107
1.97419e-109
8.84595e-112
3.72476e-114
1.44548e-116
5.18261e-119
1.75071e-121
5.66219e-124
1.77023e-126
5.38297e-129
1.59617e-131
4.61902e-134
1.30492e-136
3.60098e-139
9.7121e-142
2.55997e-144
6.59782e-147
1.66351e-149
4.10378e-152
9.9103e-155
2.34474e-157
5.43758e-160
1.23743e-162
2.76948e-165
6.10669e-168
1.32863e-170
2.76688e-173
8.5619e-177
2.78804e-180
7.50861e-184
1.63228e-187
3.56434e-191
8.01166e-195
1.9081e-198
4.79586e-202
1.2544e-205
3.35213e-209
9.01438e-213
2.43367e-216
6.62329e-220
1.82149e-223
5.08537e-227
1.44642e-230
4.16764e-234
1.20707e-237
3.50041e-241
1.01158e-244
2.89796e-248
8.21363e-252
2.29157e-255
6.24523e-259
1.65221e-262
4.21744e-266
1.02994e-269
2.40379e-273
5.42064e-277
1.18982e-280
2.58284e-284
5.49391e-288
1.27295e-291
3.45201e-295
8.53913e-299
1.82589e-302
4.02122e-306
8.92893e-310
2.01719e-313
4.64202e-317
1.08447e-320
4.94066e-324
0
0
0
0
0
0
0
0
0
0
0
0
0
0
0
0
0
0
0
0
0
0
0
0
0
0
0
0
0
0
0
0
0
0
0
0
0
0
0
0
0
0
0
0
0
0
0
0
0
0
0
0
0
0
0
0
0
0
0
0
0
0
0
0
0
0
0
0
0
0
0
0
0
0
0
0
0
0
0
0
0
0
0
0
0
0
0
0
0
0
0
0
0
0
0
0
0
0
0
0
0
0
0
0
0
0
0
0
0
0
0
0
0
0
0
0
0
0
0
0
0
0
0
0
0
0
0
0
0
0
0
0
0
0
0
0
0
0
0
0
0
0
0
0
0
0
0
0
0
0
0
0
0
0
0
0
0
0
0
0
0
0
0
0
0
0
0
0
0
0
0
0
0
0
0
0
0
0
0
0
0
0
0
0
0
0
0
0
0
0
0
0
0
0
0
0
0
0
0
0
0
0
0
0
0
0
0
0
0
0
0
0
0
0
0
0
0
0
0
0
0
0
0
0
0
0
0
0
0
0
0
0
0
0
0
0
0
0
0
0
0
0
0
0
0
0
0
0
0
0
0
0
0
0
0
0
0
0
0
0
0
0
0
0
0
0
0
0
0
0
0
0
0
0
0
0
0
0
0
0
2.03291e-06
7.18682e-07
3.55112e-09
4.67686e-10
1.01599e-09
8.90277e-09
1.06389e-08
9.05543e-10
2.71722e-11
1.08043e-13
6.43718e-16
3.96881e-18
3.1489e-20
4.37342e-22
2.63408e-24
1.88571e-26
8.82921e-29
5.14909e-31
3.77997e-33
2.70446e-35
1.94269e-37
1.34176e-39
9.09972e-42
5.63081e-44
3.40207e-46
1.95277e-48
1.0312e-50
5.57138e-53
2.79361e-55
1.34346e-57
6.73533e-60
2.97522e-62
1.38594e-64
6.0862e-67
2.57543e-69
1.09022e-71
4.46235e-74
1.77002e-76
7.13537e-79
2.74645e-81
1.07439e-83
4.21339e-86
1.64732e-88
6.7502e-91
2.79313e-93
1.21968e-95
5.5282e-98
2.56966e-100
1.22134e-102
5.87054e-105
2.86245e-107
1.38156e-109
6.62559e-112
3.10039e-114
1.39804e-116
5.86441e-119
2.24796e-121
7.98659e-124
2.6922e-126
8.71466e-129
2.73125e-131
8.32694e-134
2.47369e-136
7.16659e-139
2.0251e-141
5.58081e-144
1.5009e-146
3.94527e-149
1.01492e-151
2.5573e-154
6.31568e-157
1.52961e-159
3.63191e-162
8.46013e-165
1.93737e-167
4.36813e-170
9.70571e-173
1.74101e-175
4.13155e-179
1.00031e-182
2.1643e-186
4.68178e-190
1.1494e-193
2.92801e-197
7.47247e-201
1.89415e-204
4.7981e-208
1.21444e-211
3.07093e-215
7.81123e-219
2.01607e-222
5.30666e-226
1.42892e-229
3.94446e-233
1.10956e-236
3.15153e-240
8.9696e-244
2.53552e-247
7.07187e-251
1.94558e-254
5.2724e-258
1.40279e-261
3.65375e-265
9.26741e-269
2.26472e-272
5.30812e-276
1.20265e-279
2.65206e-283
5.77003e-287
1.21707e-290
2.9643e-294
8.32113e-298
2.0339e-301
4.43235e-305
1.00366e-308
2.29725e-312
5.34437e-316
1.2613e-319
2.96439e-323
0
0
0
0
0
0
0
0
0
0
0
0
0
0
0
0
0
0
0
0
0
0
0
0
0
0
0
0
0
0
0
0
0
0
0
0
0
0
0
0
0
0
0
0
0
0
0
0
0
0
0
0
0
0
0
0
0
0
0
0
0
0
0
0
0
0
0
0
0
0
0
0
0
0
0
0
0
0
0
0
0
0
0
0
0
0
0
0
0
0
0
0
0
0
0
0
0
0
0
0
0
0
0
0
0
0
0
0
0
0
0
0
0
0
0
0
0
0
0
0
0
0
0
0
0
0
0
0
0
0
0
0
0
0
0
0
0
0
0
0
0
0
0
0
0
0
0
0
0
0
0
0
0
0
0
0
0
0
0
0
0
0
0
0
0
0
0
0
0
0
0
0
0
0
0
0
0
0
0
0
0
0
0
0
0
0
0
0
0
0
0
0
0
0
0
0
0
0
0
0
0
0
0
0
0
0
0
0
0
0
0
0
0
0
0
0
0
0
0
0
0
0
0
0
0
0
0
0
0
0
0
0
0
0
0
0
0
0
0
0
0
0
0
0
0
0
0
0
0
0
0
0
0
0
0
0
0
0
0
0
0
0
0
0
0
0
0
0
0
0
0
0
0
0
0
0
0
0
0
0
0
1.8255e-07
4.18811e-09
1.06817e-10
3.91371e-11
1.28345e-10
2.06911e-10
3.03701e-10
3.44426e-11
3.20872e-13
9.9639e-16
4.42811e-18
1.94669e-20
1.10033e-22
9.90665e-25
6.95406e-27
5.1239e-29
3.20245e-31
1.93025e-33
1.37269e-35
9.22608e-38
6.49301e-40
4.18493e-42
2.68247e-44
1.62267e-46
9.06821e-49
5.23392e-51
2.64364e-53
1.37746e-55
6.94943e-58
3.17675e-60
1.56048e-62
6.87387e-65
3.03437e-67
1.33236e-69
5.45808e-72
2.25403e-74
9.12314e-77
3.53555e-79
1.40555e-81
5.38326e-84
2.09755e-86
8.28372e-89
3.27102e-91
1.37683e-93
5.80109e-96
2.62552e-98
1.20622e-100
5.77146e-103
2.79506e-105
1.37263e-107
6.75945e-110
3.31361e-112
1.60232e-114
7.62036e-117
3.51747e-119
1.54099e-121
6.20532e-124
2.27955e-126
7.77855e-129
2.52269e-131
7.87904e-134
2.3876e-136
7.04474e-139
2.02636e-141
5.68522e-144
1.5565e-146
4.15843e-149
1.08406e-151
2.75975e-154
6.8774e-157
1.68203e-159
4.04202e-162
9.53302e-165
2.20575e-167
5.01826e-170
1.12358e-172
2.42256e-175
8.25903e-179
2.62611e-182
8.27895e-186
2.23304e-189
5.63393e-193
1.49709e-196
4.07922e-200
1.13898e-203
3.22817e-207
9.25497e-211
2.64756e-214
7.48293e-218
2.09425e-221
5.85765e-225
1.65616e-228
4.76121e-232
1.3927e-235
4.12947e-239
1.23303e-242
3.68057e-246
1.09053e-249
3.18184e-253
9.05725e-257
2.49676e-260
6.67841e-264
1.7469e-267
4.48736e-271
1.12364e-274
2.72896e-278
6.47115e-282
1.50234e-285
3.45159e-289
7.58272e-293
1.78098e-296
4.66979e-300
1.13052e-303
2.62463e-307
6.39848e-311
1.56368e-314
3.85354e-318
9.58487e-322
0
0
0
0
0
0
0
0
0
0
0
0
0
0
0
0
0
0
0
0
0
0
0
0
0
0
0
0
0
0
0
0
0
0
0
0
0
0
0
0
0
0
0
0
0
0
0
0
0
0
0
0
0
0
0
0
0
0
0
0
0
0
0
0
0
0
0
0
0
0
0
0
0
0
0
0
0
0
0
0
0
0
0
0
0
0
0
0
0
0
0
0
0
0
0
0
0
0
0
0
0
0
0
0
0
0
0
0
0
0
0
0
0
0
0
0
0
0
0
0
0
0
0
0
0
0
0
0
0
0
0
0
0
0
0
0
0
0
0
0
0
0
0
0
0
0
0
0
0
0
0
0
0
0
0
0
0
0
0
0
0
0
0
0
0
0
0
0
0
0
0
0
0
0
0
0
0
0
0
0
0
0
0
0
0
0
0
0
0
0
0
0
0
0
0
0
0
0
0
0
0
0
0
0
0
0
0
0
0
0
0
0
0
0
0
0
0
0
0
0
0
0
0
0
0
0
0
0
0
0
0
0
0
0
0
0
0
0
0
0
0
0
0
0
0
0
0
0
0
0
0
0
0
0
0
0
0
0
0
0
0
0
0
0
0
0
0
0
0
0
0
0
0
0
0
0
0
0
0
0
0
0
9.78607e-10
3.8559e-11
1.08767e-11
9.95156e-12
4.72388e-12
3.39001e-12
2.92065e-12
1.50553e-13
3.3017e-16
8.42046e-19
3.47224e-21
1.72266e-23
1.18401e-25
1.07981e-27
9.0474e-30
7.03087e-32
5.35445e-34
3.6369e-36
2.44819e-38
1.65209e-40
1.0467e-42
6.53626e-45
3.83945e-47
2.21793e-49
1.17787e-51
6.29853e-54
3.2074e-56
1.51869e-58
7.65824e-61
3.40065e-63
1.56835e-65
6.96213e-68
2.9171e-70
1.24148e-72
5.03583e-75
1.99926e-77
7.97358e-80
3.0516e-82
1.18956e-84
4.57724e-87
1.78414e-89
7.14224e-92
2.91092e-94
1.24441e-96
5.48313e-99
2.53011e-101
1.19445e-103
5.81156e-106
2.83509e-108
1.40676e-110
6.92044e-113
3.39985e-115
1.64128e-117
7.77516e-120
3.6067e-122
1.6205e-124
6.71212e-127
2.49619e-129
8.52646e-132
2.7497e-134
8.49862e-137
2.53881e-139
7.36698e-142
2.08169e-144
5.73803e-147
1.545e-149
4.06643e-152
1.04695e-154
2.63894e-157
6.52122e-160
1.58144e-162
3.76613e-165
8.80935e-168
2.02571e-170
4.58588e-173
1.01664e-175
4.97482e-179
2.07736e-182
7.77582e-186
2.67405e-189
8.47432e-193
2.5928e-196
7.89721e-200
2.43672e-203
7.6074e-207
2.38439e-210
7.44231e-214
2.30119e-217
7.03928e-221
2.1334e-224
6.4263e-228
1.93023e-231
5.79509e-235
1.74019e-238
5.22188e-242
1.56217e-245
4.64641e-249
1.37065e-252
4.00083e-256
1.15354e-259
3.28147e-263
9.2091e-267
2.55031e-270
6.97067e-274
1.87988e-277
5.00127e-281
1.31308e-284
3.40627e-288
8.7541e-292
2.21264e-295
5.5435e-299
1.38567e-302
3.43985e-306
8.50853e-310
2.1004e-313
5.19211e-317
1.28309e-320
4.94066e-324
0
0
0
0
0
0
0
0
0
0
0
0
0
0
0
0
0
0
0
0
0
0
0
0
0
0
0
0
0
0
0
0
0
0
0
0
0
0
0
0
0
0
0
0
0
0
0
0
0
0
0
0
0
0
0
0
0
0
0
0
0
0
0
0
0
0
0
0
0
0
0
0
0
0
0
0
0
0
0
0
0
0
0
0
0
0
0
0
0
0
0
0
0
0
0
0
0
0
0
0
0
0
0
0
0
0
0
0
0
0
0
0
0
0
0
0
0
0
0
0
0
0
0
0
0
0
0
0
0
0
0
0
0
0
0
0
0
0
0
0
0
0
0
0
0
0
0
0
0
0
0
0
0
0
0
0
0
0
0
0
0
0
0
0
0
0
0
0
0
0
0
0
0
0
0
0
0
0
0
0
0
0
0
0
0
0
0
0
0
0
0
0
0
0
0
0
0
0
0
0
0
0
0
0
0
0
0
0
0
0
0
0
0
0
0
0
0
0
0
0
0
0
0
0
0
0
0
0
0
0
0
0
0
0
0
0
0
0
0
0
0
0
0
0
0
0
0
0
0
0
0
0
0
0
0
0
0
0
0
0
0
0
0
0
0
0
0
0
0
0
0
0
0
0
0
0
0
0
0
0
0
0
6.04761e-12
5.45405e-12
2.11965e-12
1.06033e-12
2.07061e-13
9.14493e-15
2.34523e-15
9.80197e-17
2.70253e-19
1.15131e-21
6.1978e-24
4.4549e-26
3.75306e-28
3.63575e-30
3.42997e-32
2.88914e-34
2.33425e-36
1.68833e-38
1.16159e-40
7.44525e-43
4.70274e-45
2.76152e-47
1.57526e-49
8.59288e-52
4.41046e-54
2.25597e-56
1.09138e-58
5.20474e-61
2.40935e-63
1.08628e-65
4.73895e-68
2.03512e-70
8.44051e-73
3.42597e-75
1.36597e-77
5.3253e-80
2.05068e-82
7.89777e-85
3.00985e-87
1.17271e-89
4.60016e-92
1.87584e-94
7.86989e-97
3.44772e-99
1.56722e-101
7.36996e-104
3.5329e-106
1.73357e-108
8.46202e-111
4.19457e-113
2.04552e-115
1.00141e-117
4.7995e-120
2.28049e-122
1.06117e-124
4.80126e-127
2.02289e-129
7.64276e-132
2.60762e-134
8.31547e-137
2.53138e-139
7.43544e-142
2.11964e-144
5.88471e-147
1.59459e-149
4.22411e-152
1.09509e-154
2.78092e-157
6.92338e-160
1.69118e-162
4.05612e-165
9.55715e-168
2.2137e-170
5.04493e-173
1.12978e-175
6.07708e-179
3.04436e-182
1.36395e-185
5.5033e-189
2.04316e-192
7.12686e-196
2.402e-199
7.99615e-203
2.66003e-206
8.85092e-210
2.93263e-213
9.63006e-217
3.12526e-220
1.00196e-223
3.17702e-227
9.97977e-231
3.11047e-234
9.62836e-238
2.96076e-241
9.04083e-245
2.73884e-248
8.22327e-252
2.44499e-255
7.19369e-259
2.09357e-262
6.02583e-266
1.71534e-269
4.83001e-273
1.34539e-276
3.70747e-280
1.01089e-283
2.72792e-287
7.28987e-291
1.93106e-294
5.06943e-298
1.32094e-301
3.41833e-305
8.78342e-309
2.24208e-312
5.68193e-316
1.42997e-319
3.45846e-323
0
0
0
0
0
0
0
0
0
0
0
0
0
0
0
0
0
0
0
0
0
0
0
0
0
0
0
0
0
0
0
0
0
0
0
0
0
0
0
0
0
0
0
0
0
0
0
0
0
0
0
0
0
0
0
0
0
0
0
0
0
0
0
0
0
0
0
0
0
0
0
0
0
0
0
0
0
0
0
0
0
0
0
0
0
0
0
0
0
0
0
0
0
0
0
0
0
0
0
0
0
0
0
0
0
0
0
0
0
0
0
0
0
0
0
0
0
0
0
0
0
0
0
0
0
0
0
0
0
0
0
0
0
0
0
0
0
0
0
0
0
0
0
0
0
0
0
0
0
0
0
0
0
0
0
0
0
0
0
0
0
0
0
0
0
0
0
0
0
0
0
0
0
0
0
0
0
0
0
0
0
0
0
0
0
0
0
0
0
0
0
0
0
0
0
0
0
0
0
0
0
0
0
0
0
0
0
0
0
0
0
0
0
0
0
0
0
0
0
0
0
0
0
0
0
0
0
0
0
0
0
0
0
0
0
0
0
0
0
0
0
0
0
0
0
0
0
0
0
0
0
0
0
0
0
0
0
0
0
0
0
0
0
0
0
0
0
0
0
0
0
0
0
0
0
0
0
0
0
0
0
0
0
5.1219e-13
3.9373e-13
1.87649e-13
5.08164e-14
1.1129e-15
4.16778e-17
5.25987e-18
1.4182e-19
7.76869e-22
4.87662e-24
3.66997e-26
3.33821e-28
3.21713e-30
3.18372e-32
3.06726e-34
2.6205e-36
2.06011e-38
1.47434e-40
1.00173e-42
6.26386e-45
3.86244e-47
2.21939e-49
1.22032e-51
6.47065e-54
3.21767e-56
1.61067e-58
7.52748e-61
3.54179e-63
1.57994e-65
6.99987e-68
2.97527e-70
1.24155e-72
5.03754e-75
2.00333e-77
7.78345e-80
3.00122e-82
1.1359e-84
4.35184e-87
1.66008e-89
6.51811e-92
2.60837e-94
1.08752e-96
4.69901e-99
2.11093e-101
9.82455e-104
4.68274e-106
2.2697e-108
1.11297e-110
5.43599e-113
2.66851e-115
1.2964e-117
6.27668e-120
3.00615e-122
1.42852e-124
6.70462e-127
3.05782e-129
1.30261e-131
4.89298e-134
1.64902e-136
5.1902e-139
1.55747e-141
4.50515e-144
1.26426e-146
3.45487e-149
9.21672e-152
2.40456e-154
6.14285e-157
1.5381e-159
3.77806e-162
9.11053e-165
2.15822e-167
5.02527e-170
1.1509e-172
2.59212e-175
3.60957e-178
1.04343e-181
3.96182e-185
1.67846e-188
6.86812e-192
2.64054e-195
9.65601e-199
3.42703e-202
1.19963e-205
4.17352e-209
1.44348e-212
4.94798e-216
1.67584e-219
5.60043e-223
1.84682e-226
6.01581e-230
1.93789e-233
6.17923e-237
1.95117e-240
6.10208e-244
1.8897e-247
5.7928e-251
1.75721e-254
5.27376e-258
1.56581e-261
4.59902e-265
1.33649e-268
3.84334e-272
1.0939e-275
3.08199e-279
8.59748e-283
2.37497e-286
6.49813e-290
1.76162e-293
4.7342e-297
1.26166e-300
3.33524e-304
8.74811e-308
2.27683e-311
5.8793e-315
1.50607e-318
3.80431e-322
0
0
0
0
0
0
0
0
0
0
0
0
0
0
0
0
0
0
0
0
0
0
0
0
0
0
0
0
0
0
0
0
0
0
0
0
0
0
0
0
0
0
0
0
0
0
0
0
0
0
0
0
0
0
0
0
0
0
0
0
0
0
0
0
0
0
0
0
0
0
0
0
0
0
0
0
0
0
0
0
0
0
0
0
0
0
0
0
0
0
0
0
0
0
0
0
0
0
0
0
0
0
0
0
0
0
0
0
0
0
0
0
0
0
0
0
0
0
0
0
0
0
0
0
0
0
0
0
0
0
0
0
0
0
0
0
0
0
0
0
0
0
0
0
0
0
0
0
0
0
0
0
0
0
0
0
0
0
0
0
0
0
0
0
0
0
0
0
0
0
0
0
0
0
0
0
0
0
0
0
0
0
0
0
0
0
0
0
0
0
0
0
0
0
0
0
0
0
0
0
0
0
0
0
0
0
0
0
0
0
0
0
0
0
0
0
0
0
0
0
0
0
0
0
0
0
0
0
0
0
0
0
0