/*--------------------------------*- C++ -*----------------------------------*\
| =========                 |                                                 |
| \\      /  F ield         | OpenFOAM: The Open Source CFD Toolbox           |
|  \\    /   O peration     | Version:  2.1.1                                 |
|   \\  /    A nd           | Web:      www.OpenFOAM.org                      |
|    \\/     M anipulation  |                                                 |
\*---------------------------------------------------------------------------*/
FoamFile
{
    version     2.0;
    format      ascii;
    class       volScalarField;
    location    "0.005450000";
    object      G;
}
// * * * * * * * * * * * * * * * * * * * * * * * * * * * * * * * * * * * * * //

dimensions      [0 0 0 0 0 0 0];

internalField   nonuniform List<scalar> 
12384
(
1
1
1
1
1
1
1
1
1
1
1
1
1
1
1
0.999998
0.999959
0.999955
0.999973
0.999981
0.999982
0.999981
0.999985
0.999983
0.999988
0.999982
0.999985
0.999966
0.999967
0.999917
0.999931
0.999866
0.999919
0.999888
0.999935
0.999937
0.999963
0.999974
0.99998
0.999994
1
1
1
1
1
1
1
0.999999
0.999996
0.999989
0.999977
0.99997
0.999979
0.999986
0.999992
0.99999
0.999988
0.999927
0.99991
0.999019
0.99905
0.995826
0.996673
0.993273
0.993344
0.993792
0.994167
0.995944
0.997349
0.99934
0.999961
1
1
1
1
1
1
0.999999
0.999998
0.999982
0.999974
0.999907
0.999849
0.999384
0.998533
0.993369
0.987735
0.957821
0.950778
0.897038
0.919184
0.921305
0.919452
0.966862
0.969063
0.993046
0.994811
0.999261
0.999668
0.999702
0.9998
0.999997
1
1
1
1
0.999999
0.999995
0.999972
0.999719
0.999096
0.994924
0.990835
0.966823
0.966652
0.933065
0.94855
0.9355
0.95193
0.953645
0.94817
0.961834
0.969146
0.976343
0.982167
0.988735
0.995954
0.998107
0.999539
0.999973
1
1
1
1
1
1
1
1
1
1
0.999999
0.999997
0.999997
0.999996
0.999995
0.999991
0.999976
0.99992
0.999765
0.999448
0.999011
0.998789
0.998899
0.999282
0.999165
0.999073
0.999098
0.999121
0.999293
0.999652
0.999939
0.999999
1
1
1
1
0.999997
0.999856
0.999516
0.999531
0.999929
0.999783
0.999394
0.994257
0.98384
0.941132
0.904944
0.843306
0.832403
0.828842
0.895557
0.953106
0.973298
0.98778
0.995245
0.997723
0.998275
0.997172
0.991406
0.983158
0.988089
0.99698
0.999737
0.999993
1
1
1
1
0.999999
0.99999
0.999927
0.999617
0.998447
0.997183
0.991681
0.989473
0.984514
0.981967
0.988196
0.988348
0.993177
0.994533
0.996834
0.998166
0.999178
0.99973
0.999941
0.999993
1
1
1
1
1
1
1
0.999992
0.999861
0.999238
0.997144
0.992311
0.982491
0.966839
0.945062
0.925249
0.904444
0.891405
0.903512
0.917017
0.896285
0.950756
0.945289
0.985923
0.990111
0.998483
0.999557
0.999984
1
1
1
1
1
1
1
1
1
1
0.999999
0.999959
0.999336
0.995657
0.982509
0.960506
0.894836
0.897193
0.769328
0.839673
0.81131
0.908478
0.906008
0.957118
0.971048
0.984556
0.991665
0.995165
0.997795
0.99973
0.999969
0.999975
0.999965
0.999972
0.999981
0.99998
0.999967
0.999971
0.999999
0.999993
0.999587
0.993331
0.967207
0.910161
0.786839
0.719712
0.488746
0.489172
0.410029
0.416414
0.43305
0.457585
0.491026
0.516308
0.726433
0.839427
0.92726
0.976235
0.995222
0.998768
0.999563
0.999862
0.999946
0.999972
0.999976
0.999962
0.999944
0.999964
1
1
0.999999
0.999947
0.999909
0.999946
0.999925
0.999952
0.999756
0.999526
0.999549
0.999637
0.999549
0.999733
0.999579
0.999223
0.998286
0.995643
0.991416
0.98599
0.977855
0.982286
0.984647
0.987925
0.990414
0.993908
0.997483
0.999262
0.999972
1
1
1
0.999998
0.999998
0.999981
0.998528
1
0.999988
0.999854
0.999477
0.998789
0.99823
0.996241
0.996805
0.996001
0.9985
0.999154
0.999822
0.999962
0.999997
1
1
1
1
1
1
1
1
1
1
1
1
1
1
1
1
1
1
1
1
1
1
1
1
1
0.999914
0.99873
0.998958
0.999326
0.999359
0.999409
0.999557
0.999826
0.999885
0.999921
0.999751
0.999423
0.996957
0.992636
0.97788
0.967035
0.943093
0.945242
0.937254
0.956022
0.960847
0.974147
0.977596
0.985905
0.993085
0.997895
0.999809
0.999999
1
1
0.999992
0.996756
0.971369
0.948333
0.95782
0.978533
0.992442
0.99804
0.999519
0.999766
0.999521
0.998531
0.986992
0.960075
0.809969
0.743632
0.525154
0.490641
0.440067
0.447352
0.485324
0.558038
0.663808
0.780014
0.911193
0.98726
0.999434
0.999994
1
1
0.999921
0.999756
0.999009
0.997844
0.995688
0.994971
0.986845
0.971174
0.878898
0.726813
0.447329
0.257704
0.0992651
0.0461422
0.0190881
0.0102356
0.00692811
0.00818093
0.019949
0.0346628
0.122975
0.235452
0.577619
0.843031
0.980778
0.997455
0.999911
0.999994
0.999998
1
1
0.999978
0.99836
0.981887
0.916218
0.814786
0.610111
0.48954
0.282754
0.235915
0.136292
0.123673
0.094267
0.0906545
0.0929533
0.109843
0.130865
0.168611
0.217495
0.308534
0.471916
0.756867
0.948411
0.992373
0.998853
0.999829
0.999982
0.999995
0.999999
1
1
0.999982
0.999852
0.999602
0.999469
0.999526
0.999675
0.999702
0.999557
0.998571
0.994515
0.980253
0.945256
0.881246
0.792286
0.692065
0.603876
0.53901
0.505512
0.51134
0.530734
0.578613
0.653183
0.744985
0.853614
0.959579
0.997803
0.999991
1
1
0.999998
0.999477
0.998832
0.999931
0.999985
0.99985
0.984921
0.86883
0.483206
0.230038
0.0798111
0.0223304
0.012336
0.0054157
0.00586115
0.00487951
0.00736931
0.0210949
0.0376197
0.0798359
0.17821
0.325702
0.512555
0.662593
0.741773
0.799828
0.880788
0.974532
0.99863
1
1
1
0.999996
0.999438
0.99079
0.951815
0.853848
0.723738
0.563972
0.385704
0.292246
0.220994
0.189473
0.161034
0.180943
0.197392
0.257446
0.326405
0.433551
0.565266
0.720583
0.878503
0.971743
0.99741
0.999973
1
1
1
1
0.999997
0.995154
0.972988
0.91496
0.805044
0.634736
0.455842
0.288955
0.176598
0.0985554
0.0646242
0.0426023
0.0302292
0.0215751
0.0228803
0.0284225
0.0431523
0.0946572
0.156202
0.374247
0.61375
0.913081
0.998154
0.999996
1
1
1
1
1
1
1
0.999866
0.989065
0.905709
0.71257
0.468986
0.251812
0.121023
0.0427343
0.0167529
0.00484729
0.00345856
0.00282819
0.00357244
0.00758667
0.0144547
0.0356674
0.0755038
0.172557
0.358758
0.644262
0.923859
0.99753
0.999698
0.998886
0.997926
0.998466
0.998996
0.998636
0.999919
0.999994
0.996856
0.900685
0.591561
0.265841
0.0901201
0.022949
0.00715649
0.00190849
0.000844846
0.000418765
0.000237344
0.000174491
0.00015761
0.000192119
0.000274995
0.000645129
0.00295303
0.0174649
0.0820207
0.368294
0.836764
0.991022
0.997513
0.992891
0.985934
0.986594
0.987471
0.988202
0.999759
1
1
0.999771
0.9964
0.990321
0.971493
0.899454
0.872628
0.74409
0.717269
0.718884
0.808796
0.86613
0.931564
0.954477
0.953701
0.920623
0.852204
0.735181
0.561072
0.428496
0.303214
0.239614
0.242604
0.277672
0.371542
0.56851
0.803319
0.948579
0.998804
1
0.99997
0.999882
0.992839
0.667663
0.884121
0.965946
0.880783
0.731791
0.613749
0.529273
0.481815
0.519266
0.54233
0.655886
0.775058
0.875626
0.950241
0.987
0.997981
0.999898
0.999998
1
1
1
1
1
1
1
1
1
1
1
1
1
1
1
1
1
1
1
1
1
1
1
0.999015
0.998902
0.999687
0.999741
0.999534
0.999371
0.999366
0.999534
0.999402
0.999423
0.998467
0.997283
0.992061
0.988185
0.976085
0.975751
0.964889
0.971055
0.970771
0.983777
0.988567
0.994
0.994692
0.995533
0.995724
0.996768
0.999023
0.999954
1
1
0.999844
0.989982
0.972019
0.977349
0.988872
0.99419
0.997659
0.998944
0.99923
0.998772
0.995618
0.984239
0.947894
0.889985
0.720756
0.639989
0.535861
0.404581
0.411519
0.431608
0.46488
0.527957
0.599118
0.693071
0.815712
0.929948
0.992772
0.999749
0.999996
0.999999
0.999658
0.999709
0.99921
0.997724
0.990904
0.97591
0.92686
0.845624
0.661913
0.550104
0.329858
0.255365
0.110359
0.0801428
0.0327518
0.0203139
0.012914
0.0131913
0.0191553
0.0206792
0.0773
0.126105
0.35865
0.59757
0.91045
0.987153
0.99911
0.999964
0.999977
1
0.999995
0.999504
0.992989
0.970489
0.92369
0.85998
0.737242
0.67421
0.464563
0.43635
0.277882
0.268761
0.206071
0.210191
0.20238
0.195104
0.214639
0.218813
0.221565
0.235331
0.27687
0.410034
0.680587
0.917892
0.987997
0.998933
0.99993
0.999983
0.999986
1
0.999984
0.999824
0.999508
0.999429
0.99943
0.999536
0.999407
0.999128
0.998137
0.99639
0.992785
0.985804
0.971913
0.946897
0.908693
0.857266
0.807075
0.753186
0.721038
0.715529
0.739473
0.752037
0.779317
0.807735
0.851259
0.915683
0.985004
0.999736
0.999999
1
0.999907
0.999321
0.999933
0.999995
0.999854
0.979405
0.741952
0.47663
0.199169
0.0654619
0.0349559
0.0188248
0.0120226
0.00894588
0.0110641
0.017342
0.0142621
0.0163142
0.0331397
0.0483755
0.087491
0.184814
0.346711
0.561142
0.717694
0.771837
0.797228
0.900993
0.993765
1
1
0.999999
0.999811
0.996384
0.981974
0.943494
0.872543
0.777281
0.624355
0.485719
0.397417
0.272783
0.234976
0.236602
0.214843
0.259696
0.285964
0.349618
0.415056
0.499477
0.595763
0.720583
0.862186
0.961068
0.995369
0.999892
0.999999
1
1
0.999945
0.984617
0.961991
0.919282
0.832591
0.704703
0.537208
0.386175
0.249375
0.164171
0.109709
0.0736573
0.0521366
0.049101
0.0375538
0.0605554
0.0550427
0.11401
0.13805
0.229307
0.396467
0.672766
0.939115
0.99897
0.999999
1
1
1
1
1
0.999998
0.992362
0.924493
0.774983
0.590007
0.389958
0.225685
0.123435
0.0409503
0.0181434
0.00717311
0.004044
0.00248678
0.00390814
0.00484142
0.011654
0.0188017
0.0442979
0.0837588
0.160417
0.318259
0.618538
0.933145
0.99497
0.998513
0.999762
0.999952
0.999811
0.998948
0.999935
0.999994
0.962482
0.673603
0.327932
0.123254
0.0443242
0.0190252
0.00742421
0.00217619
0.00106485
0.000540373
0.000313936
0.000219159
0.000171652
0.000193222
0.000240292
0.000393909
0.000806778
0.004146
0.0166724
0.091325
0.414267
0.859323
0.984523
0.995517
0.997758
0.998299
0.992376
0.968143
0.999407
0.999998
0.999874
0.997084
0.987046
0.951573
0.863354
0.674939
0.580391
0.411753
0.420491
0.358432
0.402455
0.471735
0.579167
0.697838
0.766845
0.807832
0.8061
0.773914
0.70678
0.595361
0.496536
0.420768
0.360801
0.339486
0.359186
0.468571
0.659981
0.862874
0.996401
1
1
1
0.988342
0.739477
0.896796
0.849115
0.700515
0.588958
0.534348
0.524996
0.521619
0.529845
0.617029
0.639675
0.744516
0.79427
0.868197
0.92396
0.97436
0.996432
0.999919
1
1
1
1
1
1
1
1
1
1
1
1
1
1
1
1
1
1
1
1
1
1
0.999998
0.993212
0.999002
0.999834
0.999864
0.99978
0.99962
0.999268
0.998646
0.997894
0.996703
0.993136
0.988394
0.980385
0.981434
0.980678
0.988625
0.98923
0.994473
0.994699
0.997371
0.998155
0.999134
0.999238
0.999265
0.998634
0.998074
0.998623
0.999783
1
1
0.998348
0.982618
0.981358
0.993162
0.997041
0.997897
0.998439
0.998316
0.99735
0.990286
0.967337
0.907825
0.887216
0.777935
0.793401
0.640317
0.675086
0.487423
0.509828
0.450155
0.494811
0.545858
0.610028
0.69155
0.757059
0.872
0.969062
0.998335
0.999965
0.999996
0.998607
0.999589
0.999253
0.99705
0.980339
0.938221
0.810593
0.641989
0.47975
0.390987
0.281833
0.27063
0.178933
0.149791
0.116162
0.0708356
0.0544385
0.0509215
0.0351131
0.0556979
0.0723066
0.10311
0.273897
0.442059
0.813674
0.957926
0.99753
0.999879
0.999954
1
0.999955
0.998202
0.98692
0.96494
0.938204
0.909042
0.838695
0.811232
0.663415
0.636262
0.501298
0.488896
0.439653
0.429609
0.39859
0.398005
0.373123
0.356446
0.319532
0.276553
0.250987
0.275384
0.421839
0.685175
0.903276
0.985475
0.998935
0.999933
0.999966
1
0.999806
0.999323
0.999336
0.999448
0.999538
0.999317
0.998791
0.997291
0.995505
0.993245
0.989578
0.982709
0.971904
0.959968
0.948131
0.939203
0.926303
0.916919
0.892055
0.875942
0.885563
0.89061
0.900418
0.898157
0.898821
0.913162
0.966627
0.998053
0.999998
1
0.999116
0.999724
0.999991
0.999969
0.985356
0.829417
0.590149
0.295579
0.158485
0.0709862
0.0784796
0.0767728
0.150038
0.201324
0.220248
0.226813
0.251518
0.159305
0.107445
0.102351
0.102552
0.149752
0.304014
0.522515
0.72954
0.789097
0.756927
0.809582
0.987226
1
1
0.999978
0.998791
0.991508
0.973188
0.938693
0.888149
0.803719
0.697467
0.582352
0.432543
0.366098
0.330304
0.282429
0.297624
0.30216
0.368724
0.414117
0.465085
0.51016
0.559907
0.626601
0.736842
0.867571
0.964518
0.996733
0.999944
0.999998
1
0.999916
0.982983
0.958425
0.903858
0.813181
0.682352
0.545847
0.402793
0.274872
0.175983
0.122968
0.0890874
0.0782761
0.0572322
0.0710531
0.0701506
0.120232
0.124605
0.209086
0.202007
0.298838
0.465854
0.768028
0.97241
0.999778
1
1
1
1
1
0.999993
0.967362
0.846953
0.661525
0.477738
0.313342
0.194928
0.106248
0.0426084
0.0257074
0.0110239
0.00535844
0.00477566
0.00365453
0.00778391
0.0101532
0.022033
0.0337074
0.0567499
0.0944886
0.166266
0.337987
0.693053
0.947843
0.987993
0.999401
0.999989
0.999865
0.998919
0.999953
0.999984
0.862161
0.452915
0.179905
0.0855239
0.0557021
0.0299171
0.0167084
0.00385577
0.00308089
0.000753052
0.000400327
0.000266695
0.000221546
0.000226076
0.000267173
0.000400058
0.00060716
0.00214177
0.0060863
0.0244046
0.149418
0.536458
0.874229
0.982284
0.999214
0.999844
0.99667
0.962281
0.999331
0.999978
0.997351
0.987109
0.952492
0.849629
0.716393
0.55218
0.493553
0.359088
0.336125
0.236618
0.21356
0.227984
0.285618
0.344028
0.386564
0.504271
0.585002
0.66457
0.719668
0.744377
0.643242
0.544781
0.501635
0.490269
0.43919
0.463099
0.584834
0.765155
0.994021
1
1
0.999996
0.902621
0.759885
0.834372
0.716049
0.606857
0.57289
0.578068
0.585898
0.63276
0.663595
0.683773
0.725004
0.752674
0.771303
0.809591
0.848929
0.909396
0.976378
0.998689
0.999998
1
1
1
1
1
1
1
1
1
1
1
1
1
1
1
1
1
1
1
1
1
0.999985
0.97582
0.998844
0.99991
0.999956
0.999952
0.999863
0.99926
0.997977
0.994692
0.991129
0.979705
0.972193
0.969214
0.98421
0.993037
0.998439
0.999406
0.999881
0.999907
0.999952
0.999942
0.999953
0.999938
0.999902
0.999691
0.999135
0.998797
0.999548
0.999998
1
0.991447
0.97265
0.988048
0.997993
0.999179
0.999051
0.998503
0.997041
0.991332
0.956506
0.904453
0.797656
0.838861
0.761407
0.891266
0.7969
0.895696
0.817107
0.723932
0.64029
0.574636
0.60168
0.672148
0.697749
0.77618
0.840642
0.943558
0.992331
0.99993
0.999983
0.994791
0.999124
0.999091
0.995448
0.964964
0.878021
0.642911
0.490288
0.311562
0.280537
0.210429
0.287684
0.221893
0.311486
0.297447
0.257985
0.20802
0.187285
0.119282
0.154026
0.09805
0.167928
0.209437
0.411914
0.705605
0.934389
0.995194
0.999726
0.99993
1
0.999871
0.995596
0.978241
0.953016
0.92398
0.90533
0.854176
0.869757
0.818607
0.845462
0.794486
0.813872
0.751485
0.749812
0.713629
0.661627
0.625874
0.554612
0.479895
0.393459
0.313944
0.291823
0.341972
0.502649
0.776787
0.946704
0.994343
0.999705
0.999927
0.999996
0.998631
0.998509
0.999249
0.999621
0.999456
0.998871
0.996887
0.994073
0.991375
0.987145
0.977774
0.961384
0.946561
0.94643
0.961609
0.976935
0.987758
0.990674
0.990545
0.982284
0.976769
0.969958
0.964611
0.956058
0.942248
0.925742
0.951842
0.993778
0.999995
0.999994
0.997555
0.999914
0.999981
0.997895
0.9462
0.770234
0.49803
0.150633
0.108936
0.0887598
0.261644
0.446666
0.658224
0.706149
0.740994
0.685975
0.640975
0.628093
0.414034
0.240965
0.195518
0.185616
0.299907
0.535457
0.752716
0.823509
0.726144
0.703733
0.976689
0.999999
1
0.999833
0.996143
0.982283
0.955537
0.914641
0.862922
0.789759
0.740788
0.611315
0.550394
0.487821
0.395669
0.388356
0.360673
0.397248
0.421538
0.498772
0.525658
0.54354
0.556414
0.582982
0.647146
0.773745
0.907986
0.982148
0.999211
0.999987
0.999999
0.999901
0.981954
0.944142
0.86344
0.747064
0.621874
0.508624
0.395494
0.282218
0.241227
0.183584
0.137641
0.0961961
0.102819
0.0770111
0.11215
0.139878
0.18486
0.227779
0.259672
0.253746
0.348468
0.571779
0.885724
0.993339
0.999987
1
1
1
1
0.999975
0.945998
0.774927
0.544778
0.371625
0.226918
0.141986
0.0921933
0.0589929
0.0576505
0.0312818
0.0251129
0.0145668
0.0124983
0.0104392
0.0172031
0.0218736
0.0388899
0.0525934
0.0703434
0.103111
0.188559
0.436495
0.815905
0.957649
0.995393
0.99993
0.999847
0.999416
0.999968
0.999944
0.728957
0.295103
0.142762
0.0950328
0.0952202
0.0551096
0.0357708
0.0119785
0.00656516
0.00116211
0.00110088
0.000372481
0.000270071
0.000277647
0.000311171
0.000482933
0.000602268
0.00128979
0.00352119
0.00883651
0.0544621
0.282266
0.650928
0.908194
0.995479
0.999801
0.997654
0.955496
0.999263
0.99982
0.985715
0.960502
0.889212
0.755836
0.679164
0.596591
0.576597
0.470565
0.435949
0.286307
0.234081
0.129282
0.148901
0.174991
0.208544
0.248639
0.341688
0.453825
0.630151
0.767578
0.847989
0.787501
0.657125
0.588487
0.525563
0.487009
0.532942
0.654713
0.993402
1
1
0.999206
0.82228
0.810455
0.748961
0.637916
0.589947
0.611222
0.656538
0.721935
0.74577
0.796643
0.824107
0.814342
0.8219
0.778024
0.787192
0.791482
0.842558
0.932664
0.992673
0.999964
1
1
1
1
1
1
1
1
1
1
1
1
1
1
1
1
1
1
1
1
1
0.999858
0.9545
0.998484
0.99995
0.999995
0.999996
0.999968
0.999596
0.997067
0.991997
0.980359
0.96001
0.952678
0.967248
0.992805
0.998646
0.999909
0.999992
1
1
1
1
0.999999
0.999997
0.999986
0.999921
0.999598
0.999084
0.999345
0.999996
1
0.973921
0.961709
0.991445
0.999463
0.999804
0.999498
0.998637
0.995144
0.978707
0.907398
0.826854
0.72147
0.804305
0.76942
0.898346
0.884687
0.974196
0.961454
0.947654
0.855667
0.747206
0.728543
0.722802
0.77469
0.791797
0.853579
0.918632
0.986547
0.999858
0.999938
0.983066
0.997867
0.998441
0.992971
0.950571
0.784691
0.534897
0.350543
0.1947
0.185436
0.16697
0.178972
0.278986
0.345676
0.532026
0.609387
0.688145
0.574992
0.369515
0.331642
0.19675
0.269562
0.226362
0.417442
0.662665
0.926169
0.993399
0.999586
0.999906
1
0.999656
0.990308
0.955505
0.911846
0.862412
0.844853
0.811748
0.853054
0.878093
0.949385
0.964947
0.98831
0.987545
0.984798
0.963919
0.936975
0.874485
0.795652
0.679232
0.545681
0.443775
0.377937
0.363373
0.47082
0.655197
0.875958
0.980668
0.999366
0.999933
0.999973
0.994538
0.996995
0.999293
0.99963
0.999445
0.998344
0.995228
0.989466
0.984622
0.973998
0.944743
0.896239
0.872373
0.899814
0.948857
0.985156
0.998174
0.999862
0.999945
0.999698
0.998669
0.995584
0.98956
0.982919
0.965586
0.933367
0.941145
0.988036
0.999995
0.999965
0.996295
0.999875
0.999704
0.986636
0.939062
0.629161
0.234226
0.0670179
0.0912186
0.20534
0.579157
0.740263
0.851655
0.880946
0.94798
0.966192
0.933333
0.856368
0.772158
0.47162
0.299287
0.275655
0.344511
0.565755
0.789329
0.853546
0.677821
0.582744
0.97225
0.999999
0.999996
0.999308
0.990195
0.961747
0.912427
0.853186
0.802724
0.75224
0.719659
0.695244
0.694414
0.634926
0.641031
0.60121
0.610684
0.597879
0.568732
0.571183
0.624648
0.625171
0.598334
0.584097
0.618854
0.711554
0.847847
0.964252
0.998026
0.999963
0.999999
0.999868
0.981297
0.922945
0.802223
0.659012
0.537014
0.472767
0.367158
0.354263
0.348815
0.272111
0.251105
0.229239
0.170824
0.183764
0.159359
0.215152
0.219584
0.282527
0.260967
0.288216
0.273403
0.435893
0.758532
0.966011
0.999439
0.999999
0.999999
0.999999
1
0.999914
0.937667
0.72143
0.459956
0.267937
0.143928
0.0824328
0.0653186
0.071854
0.108366
0.106298
0.10903
0.0966862
0.0562917
0.0513951
0.0315126
0.0459635
0.0428413
0.0595155
0.0655459
0.0789202
0.123433
0.284927
0.637301
0.901852
0.988287
0.99936
0.999478
0.999554
0.999974
0.999585
0.600653
0.238247
0.139144
0.124614
0.107539
0.0670627
0.0442404
0.0141972
0.0135831
0.0064402
0.00526458
0.00192168
0.00132829
0.00138316
0.000860403
0.00148074
0.000740917
0.00156395
0.00218029
0.00507001
0.0234157
0.146711
0.472046
0.799272
0.977468
0.998784
0.997924
0.970008
0.999428
0.999135
0.956769
0.915366
0.82677
0.744573
0.737903
0.720279
0.70402
0.624041
0.58005
0.467192
0.335908
0.21321
0.103113
0.111134
0.117385
0.151593
0.195733
0.297557
0.425588
0.640483
0.859781
0.924585
0.804952
0.633416
0.572353
0.487712
0.498368
0.566634
0.995669
1
1
0.993218
0.821898
0.770368
0.672262
0.590716
0.603448
0.681534
0.78445
0.868396
0.926294
0.937956
0.948234
0.915748
0.887518
0.827047
0.777997
0.766911
0.798271
0.889779
0.979376
0.999763
1
1
1
1
1
1
1
1
1
1
1
1
1
1
1
1
1
1
1
1
1
0.999663
0.930668
0.998667
0.999968
0.999999
1
0.999995
0.999736
0.997143
0.987771
0.969043
0.933845
0.939274
0.974986
0.996814
0.999704
0.999991
1
1
1
1
1
1
0.999999
0.999994
0.999958
0.99972
0.99925
0.999145
0.999995
1
0.942106
0.95286
0.994323
0.99981
0.999941
0.999774
0.99878
0.99368
0.966362
0.867723
0.747466
0.675953
0.715569
0.679441
0.828408
0.838327
0.951759
0.969396
0.981638
0.941834
0.872473
0.79693
0.820522
0.815082
0.846431
0.860822
0.925473
0.977703
0.99992
0.999761
0.957065
0.99359
0.996718
0.990565
0.928449
0.732201
0.474887
0.233441
0.158007
0.117194
0.109607
0.116803
0.217087
0.314024
0.578854
0.820379
0.961757
0.945833
0.807498
0.525081
0.358427
0.323094
0.289798
0.441024
0.691817
0.930066
0.993908
0.999448
0.999901
1
0.998855
0.973527
0.902695
0.827327
0.752908
0.724072
0.676024
0.748247
0.804484
0.939421
0.984092
0.999238
0.999958
0.999995
0.999906
0.997892
0.984691
0.935268
0.837402
0.718858
0.599491
0.50299
0.474068
0.519894
0.668076
0.845917
0.97013
0.99852
0.999948
0.999903
0.985255
0.99585
0.999374
0.999753
0.999345
0.997543
0.991759
0.983168
0.971013
0.942348
0.871778
0.771653
0.7332
0.796621
0.902569
0.972653
0.997483
0.999977
1
1
0.999947
0.999253
0.997078
0.990478
0.972149
0.93134
0.929684
0.984749
0.999998
0.99983
0.994484
0.999465
0.998019
0.98126
0.883291
0.34367
0.0933788
0.0418273
0.0957986
0.302328
0.631131
0.726321
0.820737
0.895336
0.982794
0.99941
0.998396
0.963821
0.858642
0.605376
0.359889
0.314818
0.418616
0.624359
0.822203
0.80786
0.516387
0.459735
0.967662
0.999998
0.999972
0.99728
0.975137
0.918509
0.835792
0.759549
0.688263
0.663055
0.698439
0.69582
0.729752
0.814732
0.851352
0.906295
0.881971
0.840686
0.811492
0.739186
0.673536
0.671797
0.633366
0.587253
0.603486
0.673961
0.820252
0.954705
0.996288
0.999906
0.999998
0.999793
0.979942
0.895868
0.725645
0.555656
0.445529
0.39075
0.343318
0.415505
0.441233
0.491763
0.544492
0.469436
0.454096
0.323219
0.34633
0.261912
0.34632
0.279418
0.341127
0.249877
0.295305
0.347785
0.654302
0.931936
0.997586
0.999971
0.999995
0.999999
1
0.999518
0.934944
0.692271
0.386558
0.186106
0.0864374
0.0353302
0.0346907
0.0718452
0.16143
0.331251
0.494873
0.523956
0.339299
0.206756
0.0934654
0.095577
0.0663028
0.0780226
0.0728181
0.0676652
0.117191
0.263687
0.560486
0.877503
0.990472
0.999268
0.999432
0.9998
0.999979
0.995713
0.504683
0.21998
0.140984
0.116506
0.0846368
0.048229
0.0298305
0.012886
0.0257553
0.0155772
0.0223811
0.0322057
0.0205932
0.0163608
0.00538052
0.00486565
0.00189896
0.00306343
0.00171872
0.00373958
0.0149981
0.102477
0.358566
0.702672
0.942463
0.995157
0.997139
0.982793
0.999661
0.997111
0.905537
0.860485
0.790388
0.779078
0.827871
0.819238
0.813233
0.779392
0.707157
0.610051
0.484396
0.337991
0.18488
0.105098
0.0923562
0.0987809
0.143635
0.192165
0.300817
0.444743
0.625773
0.740857
0.725964
0.623607
0.526538
0.492291
0.459232
0.495788
0.998335
1
0.999998
0.985454
0.820246
0.741491
0.620618
0.575062
0.647919
0.739539
0.866284
0.94631
0.983618
0.99551
0.993948
0.980593
0.945301
0.864007
0.805158
0.740913
0.781385
0.858745
0.965624
0.999319
1
1
1
1
1
1
1
1
1
1
1
1
1
1
1
1
1
1
1
1
1
0.999145
0.907036
0.997857
0.999984
1
1
0.999999
0.999869
0.997062
0.985516
0.954459
0.914132
0.928544
0.980325
0.998038
0.999821
0.999994
1
1
1
1
1
1
0.999998
0.999986
0.999929
0.99967
0.999156
0.998763
0.999991
0.999999
0.90071
0.952098
0.9965
0.999923
0.999987
0.999897
0.999136
0.994226
0.962696
0.834211
0.714188
0.634499
0.573078
0.587886
0.694348
0.69741
0.813683
0.848794
0.92134
0.900521
0.860087
0.853353
0.847918
0.871366
0.864388
0.896052
0.926869
0.976554
0.999952
0.999351
0.909826
0.986505
0.995991
0.98985
0.932933
0.744166
0.42063
0.210461
0.123745
0.0721708
0.077608
0.0714999
0.145735
0.192083
0.427683
0.685867
0.93001
0.971345
0.921409
0.601032
0.463144
0.303219
0.350512
0.474016
0.74166
0.944596
0.995157
0.998983
0.999919
0.999994
0.994126
0.932626
0.815354
0.707377
0.614862
0.577502
0.495645
0.579522
0.618039
0.821122
0.927735
0.99004
0.998795
0.999971
0.999982
0.999792
0.996901
0.976699
0.92291
0.840633
0.728553
0.651314
0.598834
0.632327
0.715526
0.866102
0.968811
0.998038
0.999931
0.999562
0.966614
0.994717
0.999599
0.999788
0.99948
0.997295
0.990919
0.978466
0.95857
0.907788
0.795891
0.64612
0.589047
0.663548
0.811932
0.921429
0.982459
0.998747
0.99997
0.999994
0.999928
0.999423
0.997456
0.989235
0.960307
0.911768
0.930804
0.987738
0.999999
0.999442
0.988836
0.998695
0.996995
0.972468
0.763143
0.195873
0.0463403
0.0253201
0.0631734
0.219322
0.499085
0.5812
0.681312
0.72096
0.881859
0.969952
0.980175
0.92132
0.777686
0.523208
0.312569
0.37383
0.461001
0.703617
0.815015
0.605921
0.325323
0.342186
0.962168
0.999991
0.999742
0.991603
0.942031
0.843312
0.732025
0.615968
0.547201
0.570906
0.550012
0.626682
0.750694
0.844864
0.947202
0.990565
0.998716
0.990998
0.938548
0.881219
0.787065
0.720533
0.669559
0.610314
0.596877
0.660211
0.804442
0.941024
0.995455
0.999915
0.999998
0.999685
0.974812
0.859415
0.645704
0.45699
0.344486
0.30325
0.317155
0.383965
0.44106
0.635055
0.785605
0.919451
0.911454
0.684724
0.552046
0.398451
0.408033
0.347182
0.359721
0.292515
0.268934
0.357724
0.588668
0.891526
0.994103
0.999879
0.999976
0.999988
0.999999
0.998819
0.953383
0.717524
0.350542
0.139681
0.0521569
0.0179906
0.020248
0.0553278
0.1453
0.398753
0.77858
0.954465
0.853707
0.574817
0.245163
0.176154
0.1241
0.0909357
0.0711711
0.0943091
0.135923
0.223715
0.538928
0.873845
0.99072
0.999456
0.999698
0.999788
0.999922
0.979009
0.483764
0.207422
0.120695
0.0858123
0.0487925
0.0258899
0.0169205
0.00788319
0.0196425
0.0152245
0.0851171
0.23212
0.302425
0.136404
0.0230161
0.0135616
0.00551821
0.0030899
0.00265935
0.00348701
0.0152892
0.0890247
0.349482
0.695217
0.93702
0.993205
0.997201
0.991978
0.999841
0.992907
0.835968
0.802504
0.76847
0.827349
0.893333
0.904404
0.92597
0.918194
0.834097
0.73985
0.604204
0.481117
0.34554
0.171819
0.115886
0.0877841
0.114305
0.16197
0.217263
0.310929
0.431907
0.511651
0.549348
0.548006
0.514471
0.44201
0.440063
0.523339
0.999674
0.999994
0.999996
0.987031
0.828035
0.702775
0.595694
0.593691
0.653119
0.790826
0.931673
0.987258
0.999515
0.999984
0.999843
0.994475
0.9751
0.886255
0.822706
0.736248
0.767691
0.852528
0.959433
0.998776
1
1
1
1
1
1
1
1
1
1
1
1
1
1
1
1
1
1
1
0.999997
1
0.999997
0.998533
0.59696
0.891704
0.997007
0.999964
1
1
1
0.999941
0.997773
0.985121
0.948989
0.894137
0.917898
0.979482
0.997043
0.999708
0.999974
0.999997
1
1
0.999999
0.999994
0.999973
0.999921
0.999794
0.999526
0.998892
0.997836
0.996897
0.998499
0.999985
0.999934
0.944951
0.862298
0.957258
0.997652
0.999969
0.999996
0.999953
0.999566
0.996283
0.966024
0.853049
0.698936
0.563917
0.505852
0.496814
0.488121
0.540483
0.62724
0.622594
0.712817
0.720789
0.790634
0.809192
0.854259
0.864068
0.894681
0.911927
0.952884
0.985385
0.993831
0.999892
0.963835
0.576177
0.820021
0.969765
0.993617
0.992222
0.955666
0.769671
0.486887
0.230079
0.107787
0.0671566
0.0541707
0.0531588
0.0908811
0.124696
0.18523
0.300433
0.472494
0.60072
0.642403
0.451494
0.339854
0.277656
0.371725
0.533277
0.794113
0.954144
0.990673
0.995586
0.99727
0.999881
0.998068
0.897776
0.870674
0.797215
0.686869
0.58326
0.487572
0.447324
0.35993
0.398642
0.400686
0.574629
0.694439
0.869959
0.929884
0.974668
0.986011
0.987692
0.984577
0.961117
0.936494
0.867879
0.814862
0.744941
0.723895
0.723689
0.793834
0.889528
0.970395
0.996537
0.998381
0.999786
0.996787
0.87376
0.949982
0.995192
0.999661
0.999861
0.999655
0.998191
0.991447
0.973795
0.942325
0.874247
0.727828
0.54971
0.475504
0.536812
0.706161
0.812164
0.90933
0.967696
0.994266
0.997582
0.997777
0.996117
0.989251
0.96673
0.923348
0.89694
0.951793
0.995691
0.999974
0.999931
0.98943
0.798787
0.967547
0.992371
0.992168
0.948962
0.676752
0.172102
0.0258494
0.0148319
0.0217539
0.0893231
0.27835
0.391371
0.460653
0.430484
0.499839
0.54811
0.578808
0.501879
0.471601
0.305256
0.272137
0.401673
0.559729
0.69311
0.586122
0.242392
0.184056
0.505532
0.989731
0.999646
0.998133
0.958586
0.97973
0.954881
0.886495
0.766463
0.603364
0.48036
0.445455
0.391745
0.427216
0.527517
0.526593
0.716484
0.853845
0.964005
0.994401
0.995715
0.954641
0.898816
0.828365
0.723162
0.666573
0.622824
0.584366
0.659713
0.797359
0.950039
0.996885
0.999231
0.997533
0.999736
0.999576
0.977725
0.922442
0.784479
0.561598
0.370108
0.272432
0.21928
0.253428
0.294459
0.344556
0.530832
0.718963
0.896107
0.971043
0.840097
0.707091
0.477977
0.493681
0.369962
0.394552
0.287082
0.308953
0.337563
0.599418
0.896967
0.996404
0.999994
0.999992
0.998046
0.992323
0.999139
0.998902
0.98096
0.960512
0.76569
0.359943
0.120992
0.0404484
0.013167
0.011637
0.0375206
0.10443
0.312479
0.589139
0.797292
0.784139
0.529566
0.297698
0.198297
0.130401
0.124881
0.121945
0.112872
0.146794
0.283562
0.60471
0.934279
0.998947
0.999478
0.979857
0.891862
0.83702
0.983754
0.977844
0.742412
0.412349
0.170317
0.0927788
0.0572398
0.0314933
0.0140949
0.00767837
0.00276539
0.00788556
0.00633314
0.0271848
0.0766418
0.155488
0.149249
0.0404993
0.0193679
0.00850647
0.00426587
0.00366425
0.00594957
0.0224045
0.11685
0.368912
0.708452
0.934082
0.98937
0.994315
0.991515
0.990603
0.999883
0.999104
0.788641
0.727632
0.74282
0.762641
0.860543
0.931384
0.966854
0.99307
0.99068
0.962673
0.866786
0.718585
0.558312
0.456917
0.386155
0.213536
0.126745
0.109525
0.150425
0.196717
0.256162
0.34323
0.408647
0.458703
0.473723
0.464447
0.434516
0.424989
0.534891
0.886833
0.985946
0.9796
0.999577
0.999995
0.993574
0.83802
0.698609
0.593308
0.578005
0.661726
0.805635
0.941801
0.990902
0.999907
1
0.999975
0.995372
0.975357
0.89571
0.815628
0.740372
0.767746
0.849672
0.960704
0.998731
1
1
1
1
0.999999
0.999076
0.999988
1
1
1
1
1
1
1
1
1
1
1
1
0.999999
0.994122
0.951553
0.967902
0.812952
0.560639
0.493996
0.922284
0.996747
0.999971
1
1
1
0.999985
0.998637
0.989224
0.947185
0.883436
0.897404
0.962751
0.99389
0.998463
0.999512
0.99976
0.999811
0.999386
0.998925
0.996466
0.995285
0.993798
0.994162
0.994123
0.993776
0.992824
0.994058
0.995704
0.992793
0.947391
0.814268
0.89171
0.976087
0.999077
0.999986
0.999998
0.99998
0.999831
0.998103
0.981546
0.888129
0.69123
0.585109
0.473589
0.426069
0.342151
0.436562
0.420631
0.460955
0.52318
0.588803
0.637904
0.725738
0.773382
0.855345
0.894405
0.951118
0.980316
0.991631
0.99467
0.97636
0.61233
0.485484
0.81692
0.962789
0.995174
0.997219
0.980192
0.877717
0.614452
0.302448
0.148403
0.0691221
0.0489834
0.0453994
0.0573237
0.0785294
0.113027
0.167917
0.189312
0.220777
0.249853
0.224645
0.206687
0.259547
0.377573
0.574539
0.796421
0.917568
0.961402
0.964855
0.92368
0.85551
0.811558
0.84531
0.820242
0.741814
0.626563
0.508413
0.410889
0.354563
0.284873