/*--------------------------------*- C++ -*----------------------------------*\
| =========                 |                                                 |
| \\      /  F ield         | OpenFOAM: The Open Source CFD Toolbox           |
|  \\    /   O peration     | Version:  2.1.1                                 |
|   \\  /    A nd           | Web:      www.OpenFOAM.org                      |
|    \\/     M anipulation  |                                                 |
\*---------------------------------------------------------------------------*/
FoamFile
{
    version     2.0;
    format      ascii;
    class       volScalarField;
    location    "0.005450000";
    object      N2;
}
// * * * * * * * * * * * * * * * * * * * * * * * * * * * * * * * * * * * * * //

dimensions      [0 0 0 0 0 0 0];

internalField   nonuniform List<scalar> 
12384
(
0.743181
0.7443
0.745032
0.745345
0.745372
0.745274
0.745164
0.745091
0.74498
0.744793
0.744268
0.742623
0.740712
0.744295
0.749634
0.749226
0.748746
0.748279
0.748016
0.747917
0.747897
0.747908
0.747918
0.747926
0.747927
0.747919
0.74793
0.747932
0.747974
0.747984
0.748031
0.748042
0.748088
0.7481
0.748154
0.748173
0.748255
0.748327
0.748443
0.748601
0.7488
0.749118
0.749229
0.749427
0.743795
0.743942
0.745438
0.746802
0.747197
0.747258
0.747261
0.747203
0.747069
0.746919
0.746767
0.746619
0.746481
0.746403
0.746333
0.746307
0.746255
0.746227
0.746187
0.746133
0.746082
0.74598
0.745872
0.745644
0.745142
0.744198
0.744096
0.745867
0.74664
0.746378
0.743856
0.742923
0.742716
0.743279
0.743612
0.74387
0.743943
0.743996
0.743993
0.743973
0.743989
0.743924
0.744016
0.743904
0.74401
0.74391
0.743971
0.743947
0.743912
0.74393
0.743902
0.743871
0.743852
0.743711
0.743205
0.743674
0.745015
0.745293
0.745292
0.745235
0.741412
0.741294
0.741244
0.741337
0.74158
0.741788
0.742111
0.742109
0.742542
0.742339
0.742698
0.742531
0.742569
0.742586
0.742534
0.742639
0.742857
0.742803
0.742843
0.742832
0.742762
0.742455
0.74272
0.744493
0.745623
0.745825
0.745696
0.745446
0.745286
0.745206
0.741502
0.739334
0.738663
0.738309
0.738086
0.738018
0.738062
0.73819
0.738299
0.7384
0.73851
0.738633
0.738746
0.738861
0.738954
0.739016
0.739047
0.739055
0.739041
0.739015
0.738979
0.738941
0.738899
0.73888
0.738876
0.738847
0.73881
0.739014
0.740892
0.742923
0.743131
0.742912
0.744183
0.744771
0.744855
0.744422
0.74338
0.742874
0.742619
0.742541
0.742521
0.742599
0.742622
0.742717
0.74273
0.742741
0.742758
0.742714
0.742643
0.742572
0.742518
0.742547
0.742857
0.744081
0.746166
0.747427
0.747651
0.747074
0.746264
0.745882
0.745153
0.744965
0.744215
0.742934
0.741462
0.740388
0.739662
0.739156
0.738828
0.738629
0.738578
0.738548
0.738525
0.738514
0.738531
0.738528
0.738524
0.738505
0.738472
0.738429
0.738392
0.7385
0.738855
0.740075
0.741091
0.741038
0.741064
0.741116
0.741135
0.741114
0.742319
0.742567
0.742717
0.742704
0.742615
0.742518
0.742434
0.742372
0.742342
0.742366
0.742381
0.742416
0.742504
0.742557
0.742703
0.742763
0.742709
0.742765
0.742827
0.742728
0.742312
0.739325
0.733049
0.732144
0.732553
0.732803
0.732893
0.732806
0.732524
0.732336
0.745361
0.74434
0.743156
0.742333
0.74195
0.741724
0.741659
0.741638
0.74166
0.741711
0.741623
0.741804
0.741904
0.741857
0.741966
0.741904
0.741964
0.742027
0.742193
0.742548
0.742957
0.741549
0.739112
0.73887
0.739006
0.739038
0.739042
0.739024
0.739009
0.738998
0.740562
0.739442
0.738905
0.738713
0.738677
0.738714
0.738741
0.738839
0.738793
0.73897
0.738856
0.739079
0.739017
0.739354
0.739227
0.739423
0.739271
0.739326
0.739376
0.739344
0.73844
0.736634
0.737198
0.737632
0.737658
0.737588
0.737502
0.737502
0.737658
0.737774
0.743959
0.740084
0.738499
0.740429
0.739869
0.737756
0.736435
0.736041
0.736006
0.736176
0.736363
0.736614
0.736789
0.736954
0.737055
0.737042
0.736993
0.736917
0.736884
0.736868
0.736917
0.736979
0.737032
0.737069
0.73706
0.73692
0.736743
0.737342
0.741278
0.749281
0.754082
0.753782
0.753627
0.753648
0.753753
0.752869
0.732362
0.725737
0.725922
0.726317
0.726586
0.72673
0.726766
0.726808
0.726693
0.726588
0.726353
0.725987
0.725575
0.725051
0.724625
0.724412
0.724579
0.725802
0.728387
0.731475
0.733492
0.73551
0.743667
0.752524
0.747238
0.747174
0.746676
0.745777
0.744937
0.744461
0.744276
0.744355
0.744696
0.745246
0.745363
0.744591
0.741864
0.743247
0.749584
0.749007
0.748307
0.747686
0.747399
0.747398
0.747528
0.74764
0.747685
0.747676
0.747691
0.747739
0.747816
0.74792
0.747971
0.74802
0.748012
0.747977
0.747972
0.747911
0.747945
0.747933
0.748041
0.748143
0.748289
0.748489
0.748694
0.748962
0.749207
0.749827
0.74377
0.744462
0.746474
0.747651
0.747841
0.747592
0.747246
0.746979
0.746694
0.74635
0.746043
0.745834
0.745751
0.745712
0.745755
0.745748
0.745753
0.745804
0.74581
0.745855
0.745901
0.745889
0.74585
0.745752
0.745427
0.744707
0.744043
0.744234
0.744883
0.744918
0.743792
0.742801
0.742837
0.743508
0.743954
0.744159
0.744177
0.744075
0.744065
0.744134
0.744212
0.744344
0.744394
0.744484
0.744487
0.744491
0.744431
0.744356
0.744252
0.744169
0.744025
0.743972
0.743916
0.743862
0.743515
0.743293
0.743894
0.744489
0.744575
0.744779
0.741368
0.741193
0.741726
0.742553
0.74325
0.743734
0.743956
0.744175
0.74421
0.744284
0.74428
0.744302
0.744296
0.744264
0.744195
0.744064
0.743923
0.743738
0.74352
0.74329
0.743072
0.742752
0.742501
0.743067
0.744325
0.745151
0.745274
0.744902
0.744633
0.744718
0.740755
0.738904
0.73829
0.73809
0.738131
0.738521
0.738928
0.739113
0.739232
0.739392
0.739597
0.73976
0.739856
0.73986
0.739802
0.739729
0.739672
0.739648
0.739649
0.73967
0.73967
0.739646
0.739574
0.739441
0.739268
0.73909
0.738954
0.738929
0.739561
0.741204
0.742957
0.743405
0.744376
0.744384
0.743324
0.741628
0.741317
0.741751
0.742257
0.742722
0.743176
0.743495
0.743768
0.743892
0.743903
0.743866
0.743777
0.743664
0.743502
0.743269
0.742955
0.742676
0.742661
0.743129
0.744344
0.74592
0.747242
0.74769
0.747088
0.746191
0.741921
0.740735
0.738561
0.736863
0.736188
0.736243
0.736564
0.737005
0.737488
0.737838
0.738109
0.7383
0.738405
0.73847
0.73849
0.738438
0.738319
0.738206
0.738134
0.738112
0.738126
0.738234
0.738468
0.739181
0.740549
0.741296
0.741522
0.741512
0.741494
0.741324
0.743117
0.74297
0.74246
0.741881
0.741367
0.741089
0.740949
0.74091
0.740944
0.741036
0.741153
0.741285
0.741451
0.741627
0.741845
0.74209
0.742364
0.74262
0.742817
0.742963
0.742743
0.741516
0.736893
0.732883
0.734283
0.735521
0.735844
0.735482
0.734242
0.732937
0.743225
0.741564
0.740759
0.740633
0.740712
0.740927
0.741181
0.741445
0.741678
0.741996
0.742163
0.742303
0.742339
0.742318
0.742265
0.742182
0.742104
0.742018
0.742063
0.742282
0.74272
0.742528
0.740324
0.738887
0.738932
0.738902
0.738807
0.738718
0.7387
0.738664
0.738911
0.7383
0.738192
0.738291
0.738531
0.738788
0.739018
0.739186
0.739353
0.739485
0.739682
0.739878
0.739996
0.740072
0.74008
0.740116
0.740062
0.739967
0.739831
0.739724
0.739214
0.737615
0.73682
0.737549
0.737265
0.736729
0.736358
0.736475
0.737148
0.737732
0.740002
0.738634
0.739209
0.738461
0.736389
0.735455
0.735716
0.736544
0.737424
0.738016
0.738424
0.738601
0.738622
0.738373
0.737888
0.737234
0.736554
0.736145
0.735994
0.736081
0.736338
0.736683
0.737086
0.737428
0.73763
0.737534
0.737103
0.737171
0.738968
0.744711
0.751474
0.749077
0.74837
0.749975
0.751321
0.741541
0.728016
0.725967
0.726749
0.727256
0.727542
0.727646
0.727677
0.727567
0.727525
0.727347
0.727207
0.726725
0.725976
0.724791
0.723503
0.722786
0.722566
0.724057
0.727997
0.732345
0.734489
0.735744
0.742239
0.751878
0.74763
0.746709
0.744647
0.743391
0.742948
0.743002
0.74306
0.742979
0.742946
0.743382
0.744598
0.745109
0.743193
0.742871
0.749494
0.748655
0.747691
0.747027
0.746944
0.747195
0.747457
0.747604
0.74767
0.747706
0.74779
0.747928
0.748077
0.74818
0.748198
0.748137
0.748066
0.747932
0.747897
0.747772
0.747767
0.747663
0.747764
0.74786
0.748104
0.748334
0.748587
0.748839
0.749106
0.749736
0.743801
0.745029
0.747117
0.747678
0.747235
0.746639
0.746466
0.746367
0.746098
0.745764
0.745552
0.745529
0.745617
0.745734
0.745841
0.74588
0.745883
0.745862
0.745842
0.745802
0.745789
0.745775
0.745763
0.745754
0.745611
0.745179
0.744423
0.74392
0.744019
0.744396
0.743726
0.742631
0.742674
0.743403
0.743955
0.74414
0.74405
0.744078
0.744235
0.744452
0.744634
0.744881
0.744989
0.745201
0.745189
0.745307
0.745225
0.745162
0.744981
0.744773
0.744474
0.744202
0.744036
0.743979
0.74377
0.743379
0.743189
0.743454
0.743758
0.74438
0.741249
0.741947
0.743293
0.744168
0.744526
0.74468
0.744613
0.744759
0.744554
0.744771
0.74458
0.744699
0.744668
0.744621
0.744638
0.744578
0.744493
0.74441
0.74422
0.743942
0.743602
0.743222
0.742772
0.742551
0.74285
0.743614
0.744209
0.744144
0.744054
0.7444
0.740168
0.738558
0.738259
0.738582
0.739289
0.739726
0.73982
0.739794
0.739815
0.739989
0.740093
0.740033
0.739861
0.739669
0.739491
0.739338
0.739225
0.739162
0.739136
0.739153
0.739212
0.739326
0.739467
0.739558
0.739538
0.739417
0.739215
0.739038
0.73914
0.740355
0.74293
0.743674
0.74412
0.742941
0.740809
0.740665
0.74218
0.742918
0.743407
0.743765
0.744202
0.744314
0.744373
0.744089
0.743782
0.743537
0.743374
0.743389
0.743488
0.743526
0.743399
0.743073
0.742743
0.7427
0.743166
0.744318
0.745937
0.747426
0.747575
0.746558
0.740489
0.738637
0.735806
0.735514
0.736384
0.737643
0.738689
0.739286
0.739581
0.739578
0.739638
0.739506
0.739515
0.739518
0.739599
0.739652
0.739686
0.739576
0.739281
0.738885
0.738467
0.738157
0.738165
0.738522
0.739618
0.740838
0.741504
0.741754
0.741691
0.741523
0.742822
0.741856
0.7409
0.740344
0.740172
0.740193
0.740338
0.740618
0.740937
0.741198
0.741393
0.741531
0.74156
0.741582
0.741611
0.741667
0.741872
0.742121
0.742511
0.74286
0.742989
0.742588
0.739947
0.734876
0.734969
0.737646
0.738542
0.738221
0.736637
0.734133
0.740871
0.740331
0.740389
0.740604
0.740969
0.741427
0.741988
0.74252
0.743039
0.743362
0.743632
0.743824
0.743967
0.743923
0.743803
0.74351
0.743045
0.742523
0.742169
0.742137
0.742409
0.742754
0.741795
0.739342
0.738809
0.738685
0.73849
0.738443
0.738459
0.738366
0.737842
0.737968
0.738241
0.738666
0.739092
0.739438
0.739744
0.739989
0.740345
0.74067
0.74097
0.741232
0.741376
0.741591
0.741524
0.741464
0.7412
0.740901
0.740621
0.740311
0.739891
0.738683
0.737124
0.737353
0.736957
0.735941
0.735405
0.735468
0.7365
0.737709
0.738806
0.738688
0.737954
0.736184
0.735631
0.736536
0.737669
0.738465
0.738897
0.739173
0.739445
0.739586
0.739564
0.739193
0.738403
0.73727
0.736149
0.735568
0.735606
0.736139
0.737098
0.737822
0.738068
0.738175
0.7383
0.738247
0.737735
0.737277
0.738025
0.742246
0.74433
0.739832
0.739575
0.746135
0.744662
0.731517
0.726417
0.726652
0.727394
0.727598
0.727528
0.727345
0.72713
0.726999
0.726844
0.72684
0.726815
0.726703
0.726215
0.724852
0.722878
0.721689
0.722077
0.724295
0.73027
0.735131
0.73614
0.736025
0.741193
0.751509
0.74743
0.745313
0.743116
0.742911
0.743466
0.744152
0.74451
0.744513
0.743672
0.743007
0.743718
0.744946
0.743882
0.742858
0.749378
0.74823
0.747044
0.746446
0.746582
0.747014
0.747402
0.747661
0.747813
0.747911
0.748046
0.748231
0.74836
0.748363
0.748243
0.748096
0.747898
0.747734
0.747571
0.747466
0.747388
0.74734
0.747397
0.747511
0.747829
0.748163
0.748495
0.748762
0.749033
0.749664
0.743859
0.745419
0.747184
0.747204
0.746143
0.745673
0.745967
0.746097
0.74587
0.745612
0.745573
0.745717
0.7459
0.746005
0.746008
0.746015
0.745988
0.746053
0.745996
0.745948
0.74585
0.745769
0.745706
0.745677
0.745663
0.745476
0.744885
0.744164
0.743862
0.744179
0.743669
0.742378
0.742359
0.743299
0.744015
0.744115
0.744097
0.744279
0.744463
0.744616
0.744802
0.744983
0.745198
0.745319
0.745466
0.745507
0.745592
0.745611
0.74555
0.74538
0.744985
0.744641
0.744261
0.744124
0.743962
0.743571
0.743127
0.742984
0.743207
0.744066
0.741256
0.743425
0.744436
0.744677
0.744708
0.744699
0.744669
0.744647
0.744596
0.744653
0.744542
0.744573
0.744473
0.744465
0.744461
0.744505
0.744553
0.744545
0.74454
0.744405
0.744117
0.74372
0.743221
0.742756
0.74252
0.742611
0.743071
0.743421
0.743568
0.744233
0.739775
0.738468
0.738645
0.739534
0.740192
0.740226
0.740143
0.740041
0.740086
0.740234
0.740133
0.739904
0.739708
0.739548
0.739391
0.739217
0.739057
0.738945
0.738887
0.738853
0.738846
0.738902
0.739075
0.739321
0.739522
0.739585
0.739472
0.739221
0.739121
0.739927
0.742979
0.743696
0.743141
0.740906
0.740235
0.742352
0.742833
0.74277
0.743279
0.74386
0.744166
0.743873
0.743138
0.742148
0.741314
0.74078
0.740572
0.740799
0.741431
0.742277
0.742927
0.743116
0.742921
0.74264
0.742676
0.743287
0.744755
0.746858
0.747725
0.74682
0.739544
0.736225
0.735193
0.736751
0.738446
0.739477
0.739817
0.739752
0.739451
0.739043
0.738629
0.738309
0.738084
0.737987
0.738043
0.738294
0.738757
0.739218
0.739518
0.739539
0.73916
0.738585
0.738158
0.73824
0.738844
0.740052
0.741007
0.741417
0.741543
0.741525
0.741445
0.740594
0.740075
0.739955
0.740137
0.740612
0.741271
0.741965
0.742585
0.74306
0.743372
0.743497
0.743477
0.743295
0.742923
0.742548
0.74215
0.742027
0.742238
0.742678
0.743035
0.74303
0.74158
0.7371
0.735212
0.737923
0.739061
0.739266
0.738486
0.735582
0.739719
0.740047
0.740281
0.740525
0.741032
0.741791
0.742708
0.743539
0.744169
0.74453
0.744729
0.744846
0.744852
0.744874
0.744746
0.744545
0.744117
0.743466
0.74275
0.742242
0.742244
0.742574
0.742482
0.740537
0.738898
0.738563
0.738336
0.738339
0.738418
0.738239
0.738254
0.73825
0.738716
0.739244
0.739615
0.739918
0.740334
0.740899
0.741612
0.742295
0.74285
0.743273
0.74343
0.743418
0.743317
0.743195
0.742809
0.742318
0.741668
0.74108
0.740542
0.739554
0.737761
0.737185
0.737043
0.736076
0.735286
0.734931
0.735993
0.737753
0.738637
0.73823
0.736629
0.735725
0.736521
0.737798
0.738491
0.738749
0.73895
0.739258
0.739639
0.740074
0.740444
0.740552
0.740085
0.738892
0.737297
0.736188
0.736255
0.737441
0.739654
0.741558
0.741865
0.740975
0.739995
0.739324
0.738487
0.737611
0.73777
0.74109
0.737517
0.731198
0.734725
0.742555
0.736272
0.727422
0.726412
0.727183
0.727565
0.727562
0.727558
0.727659
0.727759
0.727677
0.727315
0.726836
0.726487
0.72647
0.72647
0.725592
0.723166
0.720875
0.721759
0.725958
0.733837
0.738182
0.737083
0.736067
0.741254
0.751606
0.747165
0.744347
0.742987
0.74381
0.744816
0.745443
0.745872
0.746001
0.745182
0.743766
0.743702
0.744775
0.744136
0.742936
0.749227
0.747785
0.746421
0.745882
0.746189
0.746769
0.74732
0.747724
0.747969
0.748117
0.748292
0.748471
0.748501
0.748378
0.748123
0.74788
0.747611
0.747436
0.747193
0.747087
0.746963
0.746924
0.747035
0.747208
0.747574
0.747992
0.748417
0.748719
0.748999
0.749642
0.743897
0.745485
0.74696
0.746345
0.744917
0.74479
0.745596
0.745937
0.745756
0.745594
0.745689
0.745909
0.746029
0.745995
0.745852
0.74568
0.745552
0.745604
0.745697
0.745816
0.745799
0.745732
0.745645
0.745593
0.745619
0.745581
0.745221
0.744498
0.743962
0.744142
0.743589
0.742095
0.742031
0.743309
0.744091
0.744132
0.744192
0.74431
0.744366
0.744443
0.744633
0.744848
0.745078
0.745215
0.745335
0.745444
0.745548
0.745644
0.745703
0.745665
0.745418
0.744998
0.744562
0.744292
0.744102
0.743743
0.74324
0.742892
0.742975
0.743916
0.74182
0.744404
0.74464
0.744613
0.744566
0.74456
0.744582
0.744622
0.744573
0.744483
0.744432
0.744328
0.74428
0.744298
0.744228
0.744295
0.744368
0.744459
0.744543
0.744569
0.744424
0.744118
0.743674
0.743138
0.742697
0.74246
0.742544
0.742845
0.743226
0.744002
0.739563
0.738572
0.739265
0.740164
0.74039
0.740384
0.7403
0.740197
0.740266
0.740324
0.740122
0.739995
0.739982
0.739906
0.739688
0.73939
0.739129
0.738965
0.738895
0.738887
0.738846
0.738799
0.738853
0.739072
0.73938
0.739618
0.739644
0.739411
0.739195
0.739759
0.743018
0.743312
0.741535
0.740078
0.741647
0.742373
0.741784
0.742531
0.743781
0.74433
0.743954
0.742601
0.741065
0.739976
0.739386
0.7392
0.739048
0.739076
0.739486
0.740469
0.741805
0.742682
0.742893
0.742657
0.742469
0.742758
0.743999
0.746432
0.74774
0.746923
0.738337
0.734916
0.736398
0.738295
0.739403
0.739706
0.739476
0.738986
0.738388
0.737889
0.737451
0.737145
0.736902
0.736681
0.736561
0.736587
0.73692
0.737642
0.738522
0.73923
0.739425
0.739091
0.738462
0.73812
0.738417
0.739359
0.740379
0.740971
0.741292
0.741473
0.740602
0.740066
0.739899
0.740083
0.740659
0.741557
0.742538
0.743433
0.744126
0.744583
0.744859
0.745047
0.745058
0.744987
0.744657
0.744079
0.743278
0.742619
0.742318
0.742571
0.743009
0.7432
0.742461
0.738863
0.735848
0.737115
0.738535
0.739298
0.739293
0.736818
0.739616
0.739944
0.739975
0.740253
0.741109
0.742317
0.74361
0.744467
0.745006
0.745091
0.745253
0.745253
0.745271
0.745268
0.745184
0.74511
0.744809
0.744244
0.743431
0.74262
0.742235
0.742412
0.742693
0.741588
0.739507
0.738588
0.738299
0.738402
0.73846
0.738212
0.738146
0.73851
0.739223
0.739606
0.7398
0.740183
0.741019
0.742065
0.74323
0.744173
0.74484
0.745244
0.745427
0.74546
0.74524
0.744959
0.744437
0.743814
0.742932
0.742014
0.741242
0.740255
0.738444
0.737163
0.737132
0.736595
0.73578
0.734893
0.735693
0.73754
0.738505
0.737528
0.736013
0.736173
0.737476
0.738259
0.738426
0.738489
0.73857
0.73875
0.739122
0.739714
0.740542
0.741325
0.741612
0.740842
0.73896
0.737204
0.7368
0.738128
0.741384
0.74453
0.745433
0.744045
0.742126
0.740563
0.739221
0.737918
0.737767
0.740693
0.733944
0.727021
0.733941
0.738554
0.731061
0.726487
0.72671
0.727452
0.727755
0.72816
0.728944
0.729827
0.730413
0.730386
0.729677
0.728509
0.727196
0.726402
0.726342
0.726342
0.724577
0.720647
0.720905
0.727221
0.735651
0.738995
0.737255
0.736334
0.742355
0.751981
0.746903
0.744166
0.743691
0.744731
0.745402
0.745828
0.746281
0.746517
0.745888
0.744543
0.744246
0.744822
0.744151
0.742975
0.749063
0.747306
0.745772
0.745287
0.745705
0.746438
0.747156
0.74771
0.748069
0.748275
0.748482
0.748617
0.748528
0.748253
0.747906
0.747613
0.747391
0.747217
0.746957
0.746764
0.746588
0.746532
0.746707
0.746951
0.747428
0.747913
0.748394
0.748719
0.749
0.749671
0.74394
0.745384
0.746507
0.74533
0.743702
0.743983
0.745321
0.745852
0.745715
0.745621
0.745757
0.745939
0.745975
0.745853
0.745583
0.745199
0.745027
0.74496
0.745203
0.745522
0.745668
0.745652
0.745562
0.745525
0.745557
0.745592
0.745384
0.744779
0.744112
0.74419
0.74351
0.741828
0.741805
0.743443
0.744158
0.744153
0.744188
0.74421
0.744198
0.744264
0.744485
0.744707
0.74499
0.745139
0.745273
0.745379
0.745494
0.745629
0.745769
0.745808
0.745657
0.745289
0.744817
0.744458
0.744217
0.743883
0.743366
0.742881
0.742928
0.74393
0.742946
0.744575
0.744495
0.744371
0.744298
0.744338
0.744441
0.74455
0.744515
0.744366
0.744281
0.744114
0.744112
0.744027
0.744054
0.744114
0.74418
0.7443
0.744439
0.744563
0.744549
0.74436
0.744016
0.743524
0.743028
0.742671
0.742519
0.742657
0.743039
0.74395
0.739456
0.738812
0.739749
0.740242
0.740328
0.74046
0.740394
0.740286
0.740385
0.740401
0.740292
0.740372
0.74048
0.740366
0.739992
0.739543
0.739203
0.739
0.738898
0.738898
0.738896
0.738823
0.738784
0.738929
0.739278
0.739628
0.739768
0.739568
0.739266
0.739729
0.743015
0.742446
0.740406
0.740754
0.741794
0.740919
0.74168
0.743564
0.744725
0.744482
0.743019
0.741005
0.739687
0.739324
0.739444
0.739656
0.739498
0.739152
0.73908
0.739675
0.740986
0.74224
0.742725
0.742609
0.742317
0.742434
0.743604
0.746388
0.747833
0.746861
0.737091
0.735064
0.73755
0.738829
0.739474
0.73947
0.739023
0.738437
0.737895
0.737482
0.737192
0.737007
0.73682
0.736553
0.736306
0.736031
0.735985
0.736341
0.737229
0.738384
0.739186
0.739312
0.738782
0.738206
0.738259
0.738868
0.739829
0.740561
0.741044
0.741428
0.740072
0.739789
0.739926
0.740383
0.741267
0.742438
0.74353
0.744408
0.744947
0.74524
0.745425
0.74551
0.745642
0.745632
0.74555
0.745225
0.744432
0.743568
0.742764
0.742633
0.742997
0.743325
0.742848
0.7401
0.736726
0.736647
0.737678
0.738918
0.73941
0.73776
0.739679
0.739651
0.739584
0.740029
0.741278
0.742872
0.744304
0.744998
0.745304
0.745245
0.745272
0.745256
0.745258
0.745244
0.745227
0.745219
0.745095
0.744721
0.743986
0.743063
0.742399
0.742353
0.742652
0.742209
0.740445
0.739066
0.738572
0.738633
0.738551
0.738196
0.738044
0.738917
0.739552
0.739671
0.739805
0.74056
0.74199
0.743397
0.744803
0.745676
0.746264
0.746611
0.746722
0.74673
0.746568
0.746301
0.745773
0.745131
0.74412
0.74296
0.741909
0.74083
0.739029
0.737313
0.73705
0.736834
0.736188
0.734902
0.735471
0.73764
0.738289
0.736985
0.735947
0.736789
0.737928
0.738203
0.738128
0.738085
0.738087
0.738158
0.738363
0.738784
0.739637
0.740954
0.742189
0.742435
0.740875
0.738481
0.7372
0.737966
0.74119
0.744808
0.746293
0.745519
0.743456
0.741474
0.739621
0.73796
0.737816
0.740795
0.733
0.726285
0.733088
0.735169
0.728578
0.726318
0.726982
0.727726
0.728421
0.729734
0.731521
0.73313
0.73399
0.733994
0.732989
0.731259
0.729155
0.727009
0.726039
0.726352
0.726273
0.721457
0.719424
0.726937
0.735707
0.738965
0.737394
0.737447
0.744723
0.752443
0.746924
0.744408
0.744482
0.745325
0.745648
0.746015
0.746566
0.746695
0.746143
0.745173
0.744868
0.744786
0.743978
0.742955
0.748809
0.746637
0.74514
0.744769
0.745289
0.746141
0.746929
0.747648
0.748136
0.748402
0.748622
0.748696
0.748471
0.748074
0.747709
0.747471
0.747275
0.747078
0.74671
0.746417
0.746242
0.746246
0.746535
0.746891
0.747482
0.747983
0.748459
0.748753
0.749047
0.749779
0.743977
0.745209
0.745853
0.744242
0.742627
0.743314
0.745129
0.745812
0.745707
0.745627
0.745729
0.745834
0.745879
0.745806
0.745533
0.745148
0.744833
0.744784
0.744962
0.745336
0.745494
0.745501
0.74543
0.745417
0.745502
0.745585
0.745467
0.744923
0.744252
0.744278
0.743362
0.741569
0.741782
0.743626
0.744196
0.744135
0.744126
0.744096
0.744044
0.744089
0.744327
0.744597
0.744877
0.745053
0.745256
0.745417
0.745613
0.745751
0.745891
0.745926
0.745791
0.745431
0.744983
0.744589
0.74432
0.743973
0.743408
0.742855
0.743002
0.74406
0.743671
0.744526
0.744177
0.743933
0.743831
0.743928
0.744198
0.744439
0.744491
0.744339
0.744224
0.744047
0.743981
0.743899
0.743913
0.743969
0.744057
0.744191
0.744343
0.744495
0.744551
0.744453
0.744193
0.743794
0.74333
0.742889
0.742595
0.742611
0.742976
0.743887
0.739408
0.739075
0.739863
0.740023
0.740205
0.740528
0.740445
0.74033
0.740476
0.740561
0.740579
0.740759
0.740919
0.740746
0.74026
0.739718
0.739337
0.739105
0.738885
0.738863
0.738862
0.738799
0.738752
0.7389
0.739281
0.739704
0.739901
0.739658
0.739305
0.739793
0.742805
0.741358
0.740195
0.74109
0.740575
0.74046
0.742697
0.744551
0.74503
0.744191
0.742207
0.740471
0.739591
0.739756
0.740359
0.740526
0.740357
0.739593
0.739265
0.739764
0.740999
0.74218
0.742627
0.742481
0.742123
0.742194
0.74386
0.747
0.747809
0.746607
0.736247
0.735574
0.7377
0.738852
0.739437
0.739353
0.738874
0.738305
0.737917
0.737702
0.737582
0.73745
0.737154
0.736763
0.736387
0.73601
0.735686
0.735762
0.736383
0.737578
0.738796
0.739321
0.739008
0.738331
0.738138
0.738626
0.739538
0.740307
0.740951
0.741444
0.739611
0.739598
0.740029
0.740694
0.741742
0.743036
0.744122
0.744864
0.745206
0.745396
0.745534
0.745689
0.74579
0.745931
0.745919
0.745723
0.745223
0.744276
0.743352
0.742904
0.743051
0.74332
0.743067
0.740825
0.737628
0.736815
0.737507
0.738755
0.739338
0.738108
0.739644
0.739345
0.739259
0.739808
0.741326
0.743194
0.744637
0.745203
0.745302
0.745211
0.745111
0.745103
0.74509
0.745114
0.745125
0.745157
0.74516
0.744957
0.744348
0.743433
0.742579
0.742368
0.742644
0.742498
0.741218
0.739813
0.739207
0.738984
0.738578
0.738127
0.738215
0.739258
0.739633
0.739595
0.739865
0.741038
0.74288
0.744324
0.74578
0.746421
0.747061
0.747328
0.747469
0.747514
0.747365
0.747139
0.746634
0.745971
0.744937
0.743722
0.742504
0.741322
0.739468
0.737479
0.736893
0.736759
0.736074
0.734914
0.735312
0.737176
0.738118
0.736687
0.73608
0.737203
0.73804
0.738062
0.737996
0.738016
0.738027
0.737981
0.737988
0.738152
0.738635
0.739745
0.74164
0.743117
0.742696
0.740205
0.737912
0.737483
0.739608
0.743089
0.745383
0.745272
0.743569
0.741424
0.739293
0.73786
0.738199
0.740941
0.734708
0.726039
0.731805
0.732563
0.727509
0.726326
0.727208
0.728117
0.729434
0.731586
0.73414
0.736107
0.737199
0.737065
0.735914
0.733806
0.731338
0.728311
0.726224
0.725944
0.726806
0.723398
0.718523
0.725383
0.735577
0.739329
0.738282
0.739917
0.747481
0.752905
0.747004
0.745097
0.745265
0.745743
0.74576
0.746134
0.746667
0.746755
0.746177
0.745251
0.744743
0.744614
0.744324
0.743467
0.748597
0.746185
0.744641
0.744425
0.74508
0.745892
0.746662
0.747558
0.748184
0.748504
0.748716
0.748699
0.7484
0.74795
0.747609
0.747418
0.74717
0.746831
0.746426
0.746128
0.746199
0.746337
0.746744
0.747203
0.747767
0.748222
0.748609
0.748881
0.74926
0.749859
0.744038
0.74492
0.745131
0.743271
0.741797
0.742813
0.745009
0.745799
0.74572
0.745618
0.745639
0.745696
0.745794
0.745825
0.74568
0.745334
0.74495
0.744819
0.744886
0.745132
0.745262
0.745294
0.745286
0.745355
0.745492
0.745596
0.745479
0.744983
0.744362
0.744385
0.743226
0.741448
0.741847
0.743732
0.744183
0.7441
0.74407
0.744022
0.743964
0.74398
0.744181
0.744472
0.744748
0.744987
0.745232
0.745495
0.745731
0.745925
0.746022
0.746014
0.745849
0.745471
0.745048
0.744684
0.744391
0.743959
0.743299
0.742776
0.743273
0.744199
0.744042
0.744308
0.743687
0.743323
0.743209
0.743391
0.743831
0.74426
0.74446
0.74437
0.744243
0.744088
0.743989
0.743902
0.743902
0.743929
0.744009
0.744139
0.744287
0.744435
0.744504
0.744454
0.744265
0.743951
0.743538
0.743058
0.742722
0.742708
0.743065
0.744009
0.7394
0.739235
0.739674
0.739611
0.740158
0.740604
0.740489
0.74033
0.74054
0.740766
0.740876
0.741049
0.741163
0.741008
0.740502
0.739901
0.739511
0.739283
0.739025
0.738817
0.738776
0.738755
0.738803
0.73903
0.739478
0.739912
0.740004
0.739643
0.739344
0.739914
0.742591
0.74069
0.740165
0.740453
0.739653
0.740702
0.743279
0.744856
0.745144
0.744218
0.742327
0.740664
0.739898
0.740141
0.740675
0.740855
0.740594
0.740168
0.740099
0.740639
0.741601
0.742341
0.742477
0.742127
0.741767
0.742251
0.745004
0.747621
0.747656
0.746279
0.735814
0.735895
0.73761
0.738758
0.739406
0.739385
0.738973
0.738506
0.738206
0.738057
0.737902
0.737636
0.737159
0.736521
0.735991
0.735661
0.735374
0.73539
0.735976
0.737147
0.738544
0.739213
0.739063
0.73837
0.738123
0.738532
0.739417
0.740195
0.740989
0.741033
0.739192
0.739422
0.740111
0.740871
0.741957
0.743265
0.744321
0.74495
0.745226
0.745416
0.745655
0.745902
0.746147
0.746168
0.746182
0.74603
0.74562
0.744722
0.743801
0.743163
0.743184
0.743399
0.743123
0.741286
0.738437
0.737318
0.737937
0.738958
0.73909
0.73859
0.739494
0.739105
0.739042
0.739512
0.741105
0.743172
0.744674
0.745231
0.745231
0.745145
0.745066
0.744991
0.744949
0.744988
0.745056
0.745124
0.745177
0.745038
0.74454
0.743615
0.742717
0.742419
0.742648
0.742646
0.741843
0.740672
0.739918
0.738993
0.738262
0.73791
0.738511
0.739284
0.739595
0.739526
0.739904
0.741262
0.743211
0.744625
0.746097
0.746755
0.7475
0.74773
0.747947
0.74798
0.747834
0.747601
0.747101
0.746453
0.745424
0.74422
0.742952
0.741657
0.739754
0.737603
0.736738
0.736409
0.735698
0.7348
0.735083
0.73667
0.737987
0.736543
0.736258
0.737425
0.738041
0.738077
0.738264
0.738524
0.738609
0.738375
0.738056
0.737967
0.738213
0.738763
0.740227
0.742832
0.743787
0.742139
0.73924
0.73748
0.737914
0.740199
0.742635
0.743267
0.742093
0.740251
0.738476
0.737716
0.738701
0.740955
0.738155
0.725853
0.729993
0.730815
0.727074
0.726315
0.727328
0.728479
0.73024
0.732947
0.735864
0.738181
0.739252
0.739058
0.737752
0.735366
0.732839
0.729492
0.726811
0.725619
0.726671
0.725012
0.718582
0.723631
0.735288
0.740661
0.74057
0.743079
0.750048
0.753438
0.747364
0.745871
0.746109
0.746183
0.745895
0.746167
0.746684
0.746568
0.745549
0.744678
0.744739
0.745735
0.746292
0.74544
0.747412
0.748478
0.748396
0.745712
0.744405
0.744451
0.745142
0.745718
0.746387
0.747441
0.748208
0.748572
0.748747
0.748709
0.748401
0.747951
0.747634
0.747406
0.747105
0.746717
0.746491
0.74643
0.746639
0.746994
0.74745
0.747918
0.748317
0.748636
0.748892
0.749126
0.749328
0.748787
0.7462
0.744421
0.744134
0.744605
0.744279
0.742396
0.741224
0.742435
0.744915
0.745807
0.745754
0.745598
0.745542
0.745515
0.745602
0.745791
0.745833
0.745678
0.745322
0.74507
0.74499
0.74507
0.745139
0.745224
0.745303
0.745428
0.745576
0.745647
0.74548
0.744978
0.744502
0.74454
0.744536
0.743918
0.742801
0.741155
0.742118
0.743828
0.744168
0.744072
0.744017
0.743952
0.743891
0.743899
0.744055
0.744331
0.744588
0.744836
0.745117
0.745442
0.745746
0.745937
0.746034
0.745976
0.745759
0.745419
0.745047
0.744694
0.744293
0.743696
0.743051
0.743077
0.743879
0.744163
0.744195
0.744201
0.743995
0.743605
0.743094
0.742686
0.742547
0.742781
0.743304
0.743921
0.744354
0.74438
0.744306
0.74417
0.744085
0.744003
0.743993
0.744003
0.744062
0.74417
0.744276
0.744403
0.744468
0.744414
0.744268
0.744003
0.743607
0.743133
0.742772
0.742814
0.743123
0.743839
0.744002
0.741419
0.739436
0.739228
0.73923
0.739209
0.740177
0.740693
0.740545
0.740281
0.740521
0.740918
0.741055
0.741186
0.741243
0.741115
0.740677
0.740097
0.739694
0.73952
0.739357
0.739109
0.738944
0.738998
0.739143
0.73948
0.73988
0.740114
0.739953
0.739558
0.73933
0.740004
0.741944
0.742445
0.741749
0.740196
0.74023
0.739624
0.739205
0.740673
0.743089
0.744814
0.745259
0.74467
0.743033
0.741276
0.740269
0.740152
0.740688
0.741103
0.741201
0.741233
0.741372
0.741686
0.742106
0.742212
0.741968
0.741595
0.741747
0.743738
0.746736
0.747654
0.744455
0.737722
0.734713
0.735264
0.73556
0.735881
0.736967
0.738349
0.739361
0.739529
0.739214
0.738775
0.738483
0.738302
0.738123
0.737787
0.737132
0.73626
0.735592
0.735229
0.735168
0.735341
0.736026
0.737301
0.738648
0.739251
0.738998
0.738296
0.738115
0.738678
0.739738
0.740748
0.740452
0.738768
0.738277
0.738224
0.73841
0.738941
0.739958
0.74083
0.741873
0.743156
0.744233
0.744871
0.745161
0.745421
0.745779
0.746177
0.746539
0.746576
0.746466
0.746251
0.745727
0.744835
0.743937
0.743356
0.743348
0.743466
0.743181
0.741415
0.739074
0.738019
0.73894
0.739084
0.739031
0.739371
0.739414
0.739338
0.739325
0.739311
0.739056
0.739157
0.740578
0.742797
0.744468
0.745161
0.745193
0.745119
0.745087
0.745015
0.744974
0.744977