/*--------------------------------*- C++ -*----------------------------------*\
| =========                 |                                                 |
| \\      /  F ield         | OpenFOAM: The Open Source CFD Toolbox           |
|  \\    /   O peration     | Version:  2.1.1                                 |
|   \\  /    A nd           | Web:      www.OpenFOAM.org                      |
|    \\/     M anipulation  |                                                 |
\*---------------------------------------------------------------------------*/
FoamFile
{
    version     2.0;
    format      ascii;
    class       volScalarField;
    location    "0.005450000";
    object      Xi;
}
// * * * * * * * * * * * * * * * * * * * * * * * * * * * * * * * * * * * * * //

dimensions      [0 0 0 0 0 0 0];

internalField   nonuniform List<scalar> 
12384
(
5.92871
10.1843
12.2321
13.5717
14.4802
14.8787
14.7973
14.3286
13.3058
12.1192
10.3703
8.03616
5.27733
4.37794
28.6592
40.9944
48.1952
49.1134
48.1752
47.3535
47.3031
47.358
46.8451
47.1158
46.4858
47.5227
47.2973
49.4686
49.7394
52.475
52.2337
54.2911
52.9497
53.8127
52.329
52.1111
50.6369
49.4269
48.579
45.4309
39.6114
28.9569
19.0435
16.2374
31.1778
34.0697
38.5628
43.1239
46.2847
48.5047
50.5824
51.5403
50.7017
49.6897
48.3211
49.0269
49.5493
54.6754
55.7741
64.5739
64.9214
72.2065
71.2086
75.2282
75.2182
74.9339
74.5373
72.494
70.3085
63.84
53.3178
40.4922
27.1516
25.0073
35.4258
38.3554
40.6614
45.0851
47.7539
52.6572
53.8604
57.6474
59.5374
65.2071
69.7419
78.8507
83.9724
95.6234
97.966
107.661
104.372
103.666
103.635
93.4977
92.4132
80.4425
77.997
67.517
63.6932
63.0977
60.2206
46.9205
34.6269
33.0824
39.9482
43.4913
45.8835
49.5535
54.68
62.7976
68.4443
78.1676
82.9267
93.9548
94.821
102.584
99.765
102.25
98.6781
97.9649
99.0307
95.65
93.3591
90.6506
87.8614
83.6749
75.5926
69.2543
60.7693
50.3281
37.7162
29.911
30.4784
33.0715
25.3795
27.4677
31.5713
35.4606
38.6516
42.0324
44.9585
47.3395
47.6967
48.1285
48.6875
50.5063
53.2952
57.2984
61.5602
65.4527
68.4346
69.5479
68.9904
66.8469
67.5617
68.2257
68.262
68.2484
67.2347
63.9115
57.0095
46.1704
36.3728
31.1683
27.6595
33.6689
46.697
57.1797
61.7415
61.7736
55.7192
59.665
64.29
76.5442
85.026
98.5971
105.955
114.95
116.775
116.938
108.113
97.0639
90.5558
83.5313
76.5887
71.8094
69.8815
71.4175
75.4546
77.6259
74.409
66.9377
57.1761
46.9917
31.3692
31.2363
35.8406
40.7854
45.4279
50.7724
56.9893
63.4905
70.3567
74.2618
81.4999
83.7965
87.1099
88.5672
85.0479
84.8007
81.0527
79.3422
75.8379
72.4944
68.106
62.8451
56.9385
50.6925
42.6502
36.6405
34.4962
32.6798
31.0292
30.6211
37.4147
50.4407
59.4342
66.9658
74.4791
81.635
88.8954
95.698
102.014
106.519
110.229
112.211
109.842
107.377
110.197
100.498
101.18
88.0201
84.5626
72.5893
65.8966
53.4619
42.4995
38.0369
35.1241
31.5914
28.9869
26.3878
24.2031
21.977
30.3645
34.8364
44.924
56.5316
68.078
79.4348
90.9694
99.9906
113.561
113.865
129.204
121.227
123.516
110.596
110.439
100.343
95.7784
89.6933
84.2878
79.8713
74.2824
63.465
54.7655
53.7255
54.5108
53.7174
52.58
52.7164
54.114
53.6587
46.1274
50.3229
63.9446
79.991
94.858
108.902
125.935
134.463
157.132
158.33
165.346
165.549
162.261
159.204
157.243
153.621
134.254
121.225
107.436
93.4055
79.0581
69.5193
64.4362
59.7194
56.204
53.9948
53.4486
54.9419
56.3298
54.9129
31.3727
36.7482
45.6406
57.8714
59.6886
57.1243
57.4964
55.9774
61.329
63.8998
63.7492
62.8917
63.5777
61.5908
63.4319
66.2789
70.4139
75.9734
80.8835
84.968
88.9922
86.9898
85.5788
83.5884
81.7351
78.3003
72.4441
65.9089
54.0735
32.252
21.5483
29.8641
33.1195
32.8388
36.6001
49.8294
41.9951
46.3624
53.8529
59.0606
63.0887
65.3443
69.4366
69.1256
70.1935
65.0983
61.9598
55.5077
50.1011
43.3727
36.6463
29.6982
22.504
16.0678
11.0366
7.42387
4.90681
3.80421
4.24291
4.28407
11.5127
11.0863
11.7754
12.1428
12.4664
12.8513
13.3256
13.7697
14.185
14.4231
13.7034
11.7533
8.1267
8.62942
30.3305
32.0733
37.7877
37.6256
36.4748
35.8924
35.284
34.3876
32.6277
31.8832
31.4734
33.5594
35.6485
39.9412
43.3372
47.9336
50.5673
53.7774
54.1478
54.9246
53.278
52.4802
50.4824
49.4258
47.1196
43.8475
39.5096
33.4205
25.5563
25.7615
31.5226
33.5434
44.98
51.6632
53.7129
52.1796
48.8448
44.7179
40.5812
37.2569
35.9037
37.5983
40.6153
47.8386
53.7856
65.422
69.981
79.9879
81.9341
84.5733
84.1305
82.1956
78.6225
73.3692
67.3795
58.9513
48.0923
37.8438
29.8582
37.5888
42.0541
36.7618
38.4779
40.8793
42.2458
43.7999
44.1972
47.6466
51.6143
61.0953
70.5815
84.7972
97.8296
115.331
129.154
143.381
153.614
159.946
158.598
146.761
138.427
118.996
106.3
85.553
69.5699
53.8314
44.0721
34.738
30.7211
47.1025
39.5764
27.6932
33.2329
42.5009
51.4678
60.6577
68.4384
79.2057
86.4497
98.4231
103.61
113.397
116.245
120.763
121.81
121.532
118.987
116.034
111.67
106.795
98.9968
88.0657
72.0602
56.5882
45.8148
38.8597
34.2033
30.7315
30.3022
43.1907
34.5008
27.9256
32.5001
35.9622
37.6591
38.0587
37.6491
36.7901
36.6161
37.7585
41.0616
45.9053
52.0162
58.7418
65.7857
72.7176
79.2083
84.5102
88.392
90.4098
90.2076
89.1504
86.4856
82.3089
76.8411
69.2498
58.068
44.4349
32.0444
39.9914
32.8943
29.7284
37.8265
39.1782
33.6142
31.3187
35.499
48.7716
62.3848
81.9933
97.7185
116.124
135.507
146.114
158.886
159.766
162.719
157.897
144.131
135.538
123.745
109.614
96.4787
83.808
73.478
65.9098
59.9801
54.3261
46.5971
64.4717
36.6671
21.2096
23.2137
29.7608
38.4945
47.5163
56.4785
66.0396
74.8148
84.1983
94.6372
101.936
108.413
112.229
115.491
113.72
111.907
106.569
101.207
94.2505
86.5617
77.593
66.709
55.3744
44.6661
33.5154
26.7535
24.2532
24.9798
37.3356
48.0816
46.3886
52.6798
60.2739
68.9119
79.0154
89.541
100.99
111.892
123.216
131.329
138.702
144.651
149.799
149.216
145.957
139.323
126.731
117.241
99.5543
84.9764
65.3286
44.4676
30.0884
25.9039
25.0351
24.143
23.3156
23.1526
29.5614
40.6031
38.1379
50.1138
63.1298
76.3642
90.4508
105.816
121.548
140.257
157.294
176.581
183.487
186.887
183.828
172.539
162.007
147.135
133.512
117.323
100.26
82.2395
62.6275
45.0116
38.7852
41.628
42.5647
41.1642
40.2803
42.5857
57.0697
49.8022
45.4566
61.7987
79.8485
99.5386
120.706
144.175
164.752
185.359
200.154
212.127
221.536
227.512
229.057
228.119
222.24
211.212
187.361
159.195
131.722
99.5016
70.2972
49.6554
44.6614
47.6674
49.3914
48.6787
48.8172
50.7732
61.7077
42.3845
28.8815
39.1483
46.4588
49.536
54.0729
61.765
64.0656
70.9505
72.1451
71.5518
66.5656
62.4482
56.9551
54.0421
53.8436
57.1215
62.3669
69.3879
78.3865
85.892
93.7065
98.8676
99.7612
98.1031
92.5339
81.8282
69.0928
57.2483
66.9658
32.2122
29.1977
31.2703
37.5608
56.9634
63.3056
51.2018
58.6046
67.8459
73.9184
77.8676
79.8618
77.998
76.5316
71.2402
65.1397
58.8216
51.8395
44.7632
37.9381
31.0527
25.4545
20.2529
15.4751
10.7334
7.33055
4.9921
3.73752
3.59557
5.20381
14.6449
12.5381
11.5843
11.181
11.361
11.6343
11.8571
11.9967
12.039
12.3191
13.0681
12.8282
9.94842
10.2673
34.9362
35.4982
36.7718
34.7331
34.3182
35.0292
35.2416
35.0274
34.428
34.9348
35.1767
37.4993
39.3865
42.8333
44.8253
48.0287
48.785
50.8193
50.4107
50.4422
48.1016
46.4576
44.1015
43.2449
42.3169
41.5527
40.0155
36.3013
30.2845
33.8908
33.0865
37.1899
46.722
50.0309
49.1134
46.5308
44.2228
41.4856
39.5504
39.0351
40.4118
44.1813
48.9696
54.8783
60.1616
69.1905
73.4668
78.6069
84.7716
84.6806
83.6306
81.6604
78.3785
74.6447
69.9404
63.545
55.4474
44.4457
35.5226
47.4913
45.7331
38.6295
37.9104
39.5975
42.0007
46.3365
50.7332
57.1865
63.6895
73.2296
79.2008
90.4322
96.5658
110.752
117.641
131.37
139.514
146.619
147.694
143.074
141.943
123.399
114.686
95.4046
81.3453
62.5438
49.8688
39.9556
33.2511
53.799
39.1895
31.2728
38.9543
46.6854
53.0899
59.0238
64.4486
71.4556
75.7243
85.6625
88.6969
97.7612
99.6347
104.435
104.52
105.136
105.595
104.053
103.661
103.539
102.262
98.4452
88.9276
73.7676
58.0886
46.4658
38.2355
32.6684
31.1655
50.0096
39.3916
31.8528
35.8877
37.9631
38.2583
38.1422
37.6267
38.1928
39.3031
41.6833
44.1857
47.1647
50.5367
54.5245
59.0186
63.7187
68.3807
72.2864
75.7637
77.7834
78.1014
76.6636
75.5865
73.6356
71.3825
67.8422
61.723
50.5819
37.4947
45.0364
38.1534
34.171
37.751
33.5576
29.8368
35.1883
49.9857
68.6254
81.4129
98.2213
115.394
125.942
135.329
143.846
149.422
148.341
143.615
146.354
144.439
134.678
128.568
118.973
105.789
92.2619
78.9126
68.8789
62.9652
58.5058
52.3203
72.5314
40.8542
22.6224
27.0931
35.6425
43.8131
50.9463
58.1911
65.4608
72.421
81.171
89.0395
94.9978
103.503
107.102
107.75
109.567
106.012
103.523
98.7218
93.9262
88.5115
82.6504
75.2652
65.8786
55.6489
45.2805
35.1211
27.78
26.4602
41.2535
56.3359
51.0183
54.8624
60.2632
67.4254
75.5001
84.9194
94.2816
104.483
113.328
121.264
128.364
134.131
135.487
139.217
132.139
132.615
121.131
116.93
107.423
95.132
79.5309
60.3514
40.6299
27.7219
22.7974
22.6086
23.7175
24.9159
31.9394
47.5695
49.1497
60.8695
72.3076
83.1109
95.0446
107.644
120.367
139.126
153.252
167.488
177.399
184.222
178.836
174.807
161.839
153.413
139.395
127.728
114.806
99.2597
80.5116
59.5213
45.5513
40.943
36.2717
33.2355
35.9797
40.9188
56.4845
49.6916
56.0231
75.7555
95.1781
114.646
132.828
147.576
163.648
181.541
195.89
205.003
214.748
220.686
223.843
224.811
219.501
214.22
202.446
177.948
155.324
125.59
93.0002
65.8327
49.8692
44.4074
41.5503
40.6004
45.9004
54.4204
65.6848
48.0473
36.9766
44.7574
50.0182
56.8213
65.3815
75.9806
81.147
88.8341
88.4208
90.8809
87.7433
83.3016
77.3834
71.389
67.4554
64.9423
64.8103
66.58
70.3762
76.2945
81.6516
85.9115
89.5624
91.2991
90.4699
84.376
74.367
62.8686
74.698
32.2953
26.5318
26.2786
45.1742
68.4377
58.84
59.6356
67.8882
73.9782
76.9231
77.5557
77.623
77.0509
73.3199
71.722
66.9218
63.9315
59.3675
54.4196
47.1935
38.6185
29.9227
22.2637
14.8436
9.66401
6.62003
4.59366
3.55911
3.47732
5.54946
16.2027
12.7088
11.5116
11.6534
12.1691
12.4821
12.2519
11.9355
11.4941
11.2998
12.0102
13.0619
11.4437
11.5696
40.2537
40.9161
37.1642
33.9626
33.3875
33.7454
34.3382
35.3989
36.7051
37.9178
39.3952
41.7508
43.8914
46.1546
46.4744
46.8736
45.3726
45.2931
43.4653
43.301
41.4611
40.3364
38.4779
37.8739
37.5191
38.4095
38.6754
37.168
32.8228
38.6898
35.2748
42.2842
48.4814
48.2151
44.9472
42.5056
41.4019
40.6841
41.1921
42.8318
47.4026
52.8048
58.8513
60.3194
65.8682
65.0904
71.5084
70.5457
78.4966
78.1922
81.0681
79.2509
77.0178
73.9763
70.0469
66.404
59.9138
50.4968
39.965
53.2216
48.9682
42.062
38.5111
39.3012
42.7263
49.7851
56.4828
65.9643
74.8564
82.8395
87.5016
93.4642
94.2397
100.988
104.1
108.91
116.591
121.408
123.631
129.188
124.712
121.34
116.429
100.214
89.2027
69.7397
56.3637
43.4374
35.6305
56.3744
39.3326
34.2421
41.865
48.9081
53.782
57.1802
60.1329
64.8218
67.1752
74.3281
76.7234
82.8833
84.4118
86.9121
87.6821
89.3059
89.655
90.9738
92.2784
94.9002
98.1873
100.154
97.805
87.6931
73.0666
58.9895
47.3535
38.4805
32.9925
52.7855
43.8069
36.1336
38.7586
38.6867
38.1051
37.6653
38.5444
40.1429
42.6752
44.779
46.6745
48.8096
51.4296
54.236
56.6117
58.5291
59.978
61.6857
62.9493
65.171
66.5393
65.9321
65.4274
64.4964
64.3443
63.8407
61.8626
54.6054
42.5412
48.0607
43.2693
38.7147
36.2615
30.7124
32.6023
48.0837
64.1258
76.4506
90.9519
101.842
113.135
113.569
114.713
106.253
102.17
101.081
101.071
100.026
107.92
114.669
115.81
115.412
108.751
95.1208
81.61
69.7124
64.1164
61.6313
57.3045
77.2802
42.9289
24.4618
31.5313
40.4076
47.5979
53.5517
59.0245
64.1422
70.1283
76.3246
82.6304
90.7223
95.139
98.0211
101.358
100.736
100.388
96.3141
93.5284
90.4306
87.5088
84.3199
80.1373
73.6171
64.8937
54.5802
43.7009
33.771
29.033
43.1211
58.2534
51.4544
55.6474
61.9583
68.923
76.6743
84.2277
92.469
101.214
110.053
116.803
122.585
125.223
130.039
127.279
126.952
118.745
117.316
108.801
108.733
101.059
90.2929
73.6604
53.9438
36.6142
25.4796
22.4166
24.7631
26.3819
33.61
51.0275
55.4871
67.1377
78.761
89.3371
99.9191
109.848
120.815
135.054
143.695
156.361
166.965
169.687
173.355
163.463
158.847
147.752
141.06
132.873
123.773
112.457
96.5427
75.7885
57.2398
48.2244
38.0791
30.7428
34.9685
40.124
55.5595
52.7572
65.8924
87.7846
107.865
121.751
129.729
139.72
149.557
170.455
176.345
194.52
205.45
211.472
214.696
215.543
213.076
209.55
202.907
186.083
170.259
147.807
115.208
84.6734
63.8374
49.7717
38.4787
34.7216
42.4069
54.2655
66.3272
54.9127
44.4875
50.1815
56.9853
66.6043
75.2116
83.4588
86.771
93.3421
94.7572
100.606
101.672
99.5017
94.3957
90.15
87.2336
80.8361
76.4103
72.4299
69.7759
68.9632
73.3851
77.7124
80.7855
82.3372
85.3236
84.1449
77.6496
68.2418
78.4262
32.9777
22.4412
29.3546
59.4632
68.7959
60.8132
66.7574
72.8043
74.9389
74.8174
74.4495
72.6653
71.3991
70.4043
68.2586
66.6017
65.2928
63.2774
60.6602
55.3912
45.819
35.0215
25.3639
16.4333
10.0578
6.53724
4.4637
3.63466
3.85189
6.0567
16.8856
12.8539
12.3392
13.6257
14.9085
14.6061
13.277
12.088
11.3241
10.9497
11.6947
13.2439
12.6595
12.7423
45.1257
46.4904
38.2653
33.3923
31.8045
31.4332
32.6551
35.5028
37.793
40.5337
42.5265
45.7228
47.5043
48.1553
45.7798
42.9425
38.9663
36.6451
33.7983
33.2795
32.4791
32.7732
32.5345
32.8228
33.444
35.135
36.8052
36.9424
34.2794
41.4257
37.7125
47.7759
50.8068
47.0397
41.6809
39.3654
39.5797
40.8457
43.2106
47.1988
54.82
59.9995
66.0936
63.6698
66.6074
59.2624
63.3357
57.6426
61.9808
66.5441
70.9638
74.3073
73.7587
71.0154
69.6453
65.6985
61.838
53.9659
44.6089
55.5881
52.7124
46.4439
40.3776
39.7543
44.1671
53.0014
62.0652
75.049
83.3856
93.1188
95.1881
99.2127
93.142
96.0094
89.576
89.882
92.1894
96.0296
99.139
106.981
105.632
113.35
107.299
103.785
90.9524
75.5513
59.6308
45.9711
37.5224
58.0201
39.2902
35.5015
44.637
51.3678
55.6333
58.6634
60.3236
63.3279
62.587
65.0198
63.9691
66.3835
66.0641
69.1204
69.6713
71.7487
74.4529
76.5259
80.2785
84.5137
89.7982
95.1781
96.8851
93.0568
82.9189
68.0951
54.8219
43.9259
35.8848
55.37
48.4095
40.7792
40.9247
38.9681
37.2673
37.9993
39.8482
42.9067
45.4573
47.3761
49.4443
52.3545
55.6317
57.8894
58.0051
55.9261
52.9606
49.9874
48.8207
49.0748
52.0495
53.7537
55.3062
56.3055
57.6068
59.253
60.5819
56.9527
46.5293
49.977
48.9298
41.7181
34.3546
31.8385
41.5281
55.3784
68.0335
81.4058
101.968
107.091
109.573
94.3285
83.8164
74.4005
71.9401
70.434
72.7797
75.2548
76.9292
87.787
99.1275
103.698
104.306
95.0268
81.2029
69.2039
63.1985
64.0284
62.2639
82.0784
44.317
26.4241
35.453
44.4177
51.2002
56.6489
61.4096
65.5564
70.0573
72.9638
79.1688
82.446
85.9546
90.7277
91.5626
93.0832
91.4415
90.4524
86.9806
85.7359
84.9493
84.1068
82.3303
78.3618
70.9374
61.2062
50.4576
39.4652
31.6455
44.1838
59.1018
51.4877
57.7527
65.4458
73.0105
79.7393
85.5918
91.472
98.0985
101.341
106.429
111.305
117.121
116.746
121.4
116.375
113.456
108.991
105.687
103.525
103.888
97.2136
84.3246
64.8221
46.586
31.7663
24.6105
26.1918
27.0475
34.0149
54.5192
58.0775
71.6522
85.0551
95.8687
106.569
114.478
120.638
126.169
126.77
134.852
138.785
146.345
149.847
152.625
146.616
143.496
136.086
132.277
128.045
121.137
108.966
89.8101
68.6392
55.3186
44.1575
33.6765
35.3141
38.5149
54.4763
56.8675
73.9371
97.9977
113.075
120.498
121.036
129.055
135.624
150.107
158.962
180.078
182.961
196.235
201.193
203.712
202.444
200.147
198.366
190.463
177.658
163.833
134.026
101.298
77.4815
60.1639
43.6993
35.2161
41.0935
54.4048
66.6938
62.3628
50.8328
56.0092
63.9362
73.2445
78.0669
82.0988
83.3749
88.2099
90.152
98.1207
101.722
110.601
107.158
103.706
100.526
96.9272
90.1939
83.4456
74.9272
67.4177
60.6951
62.6301
70.8171
76.2193
80.4967
82.8165
80.1531
73.6761
79.1786
35.8811
22.1075
38.2238
65.3604
64.0268
65.0954
71.0179
74.0413
73.2879
71.3594
68.828
68.06
65.9687
64.6098
64.8086
64.0462
65.4839
64.7738
64.2666
60.9884
52.5235
39.815
28.4391
19.4264
11.5174
6.83695
4.62246
3.95028
4.67624
6.60417
17.175
13.3435
14.0031
16.4369
17.8845
16.7616
13.9534
11.8839
11.0099
11.0169
12.1673
13.8963
13.7726
13.8374
51.4632
50.8465
39.7182
32.7998
29.0427
28.2356
30.5722
34.4756
38.8182
41.9954
45.5074
48.9427
50.2124
48.6187
43.0242
38.1998
32.8341
29.0831
25.5369
24.3712
24.4184
25.8519
27.1853
28.466
30.3071
32.5846
35.1221
36.311
35.0634
42.7161
40.4816
53.11
53.1949
46.4968
38.6155
36.3528
38.2427
40.8343
45.0506
51.3182
60.2797
65.6864
70.5464
66.2321
66.9637
58.9466
58.4601
49.2348
50.1301
51.7707
59.2672
65.6328
67.5024
68.1349
66.0165
64.8515
61.2626
56.3757
46.9603
58.0132
56.7707
51.5618
42.9839
41.1673
45.8025
55.3642
67.9801
81.144
91.8973
103.016
103.757
104.708
101.356
92.5292
86.1194
76.0972
71.4022
67.9502
73.5883
84.3776
89.1064
99.7789
97.3721
101.231
90.2374
77.5459
60.5921
47.1463
38.4846
59.1735
40.2877
37.4865
47.8743
55.72
60.5826
64.1666
65.2807
66.3885
63.7567
61.0064
54.7177
51.7161
46.8377
46.7746
47.9228
52.2952
56.1959
61.7086
67.1457
73.5973
80.7973
86.8669
91.1016
91.7343
85.0291
74.6267
61.3444
49.0294
37.8552
55.2438
53.9114
45.235
43.0212
38.7948
37.1419
38.1062
40.9824
44.4692
47.7768
49.9312
52.9396
57.6763
62.6107
64.629
62.5281
57.3697
50.2237
42.2411
35.7347
33.9778
37.748
41.973
46.0299
49.4967
51.9995
55.6793
59.6722
58.3847
49.3342
49.8579
54.1418
43.5127
35.1469
36.8046
48.2636
57.0491
75.4493
96.3961
113.491
109.888
97.6187
77.7523
69.5294
63.3662
60.5825
54.6566
51.9211
55.8014
62.531
68.7974
83.81
94.4631
96.6151
91.7967
79.5668
67.3603
61.8215
66.3736
67.2325
83.8993
44.8234
29.0513
38.9978
48.104
55.4819
61.5453
66.1984
69.2996
71.8317
73.1509
74.0167
73.9031
76.3424
76.1469
77.8653
77.7216
78.5106
80.2253
80.83
79.3553
79.9214
81.5947
82.1848
79.9241
74.4419
65.6959
54.124
42.0237
33.2475
45.8847
60.342
51.3583
60.2681
69.7619
77.9107
83.9578
86.8664
91.3995
91.3826
91.2825
95.3276
96.8918
98.6923
103.901
103.589
106.498
103.261
103.582
100.356
102.215
101.296
102.025
91.8139
73.6678
54.5397
38.8249
28.7191
28.7803
28.5418
36.575
58.819
58.6958
74.7755
90.0606
103.454
115.262
122.755
124.016
120.152
112.903
111.824
110.989
113.032
121.617
124.891
132.695
129.171
131.482
128.484
128.288
125.529
116.983
99.7606
78.5209
61.6737
48.11
38.3981
37.9625
37.9265
53.9268
65.0023
80.4111
103.029
114.143
116.421
118.781
124.892
129.829
142.466
141.417
148.676
150.982
162.873
168.622
171.241
179.108
177.163
189.083
184.198
182.689
172.204
148.267
114.945
87.5971
68.3393
50.6282
39.4668
40.685
51.8487
65.5246
69.5926
56.7239
61.5313
68.9986
74.545
75.3005
76.0957
77.0153
80.689
82.9518
88.3124
95.2477
103.557
114.394
111.775
110.423
106.821
101.881
93.5476
85.693
75.0119
60.6818
53.118
61.8825
72.619
77.8274
82.6926
81.7995
77.889
76.1866
37.5404
24.3831
44.0428
64.6065
64.87
68.8787
73.5675
73.6024
70.3574
65.9721
61.9319
58.0718
57.0172
56.235
59.1387
61.0773
64.0358
65.6936
65.5946
63.8843
57.4359
44.1859
30.8988
21.9056
13.5464
7.45295
5.05422
4.59486
6.22098
7.30863
17.5334
13.9838
15.9143
19.0999
20.3151
18.3331
14.9094
12.195
11.4654
12.045
13.5254
14.7187
14.5297
14.6942
55.2659
54.7758
40.1701
32.4501
26.9566
25.4921
28.2557
33.8079
38.9168
43.5142
47.619
51.7743
51.8372
47.6553
40.5991
34.8428
29.2452
24.8394
20.474
18.9784
19.7648
21.893
24.4378
26.3927
28.9678
31.4315
34.2456
35.7795
35.6365
43.4518
43.3713
58.1831
55.1819
45.6142
36.5509
34.1866
36.6697
40.6529
46.105
53.9288
63.6903
70.5078
73.5403
71.5247
72.0163
64.2518
62.3851
52.952
49.2564
46.504
52.4563
58.7273
63.7063
63.2161
63.6201
61.9045
60.7072
55.9486
49.1059
56.1906
61.7982
56.8705
46.7402
43.3382
47.0901
57.8738
71.096
84.9311
100.409
108.2
112.774
112.947
109.632
98.0499
88.5719
73.7878
60.6758
49.259
51.2482
62.3811
77.1324
87.5134
92.2183
95.9306
88.33
75.8942
59.9826
46.704
39.0542
59.2628
43.1253
40.7505
53.0906
62.0876
67.7755
71.8741
73.2483
74.5898
70.788
66.3795
56.4241
48.2257
38.2124
31.9114
28.8998
33.602
40.8426
48.2056
56.2157
64.1831
71.5547
78.2949
83.7033
85.4349
82.5457
74.4266
63.7357
51.5448
40.1105
54.7003
58.483
49.3964
44.1861
38.5308
36.3772
38.5185
42.1549
46.3718
49.8155
53.0118
57.5668
64.14
70.6571
72.9766
69.5148
62.0917
53.2565
43.1075
32.3347
25.4279
27.2864
34.1555
40.0871
44.3779
48.9928
54.2328
59.7739
59.6413
50.5737
47.8958
59.903
45.3504
38.2574
41.7366
50.4216
62.4306
90.0807
111.104
120.601
110.423
91.9925
75.8951
70.528
65.3332
59.5093
48.4046
37.1894
39.8865
51.9184
62.5833
76.6372
89.9027
93.2147
87.4293
76.5822
65.4165
64.151
72.133
72.7523
85.6251
46.3355
32.0414
42.8811
52.5514
60.8069
67.5904
72.1878
75.6421
76.487
74.3428
73.5939
70.8734
65.7166
62.6487
58.6891
60.2816
63.6434
66.3479
70.8206
75.0327
76.4374
79.1287
81.5974
80.5236
76.2275
67.4161
55.5519
43.8263
34.6905
46.6465
62.221
51.6139
62.9158
74.4161
83.459
88.8545
90.8477
91.9125
86.7073
83.988
80.3389
77.22
80.0005
81.5504
89.3549
90.0854
96.3707
93.4477
98.5882
96.4159
103.09
100.705
96.7267
79.5585
59.5305
42.9865
32.902
30.6871
28.9982
37.7833
66.2115
59.1204
76.4416
94.6917
111.255
124.575
135.746
132.551
118.938
103.885
89.2265
79.3609
77.7438
88.0282
99.055
113.177
115.403
122.471
122.736
125.599
127.564
118.323
102.153
82.8909
64.021
47.8492
39.1479
38.4463
36.3754
53.4996
78.5718
85.1008
105.131
114.554
118.059
122.766
129.436
133.711
139.648
127.885
129.106
122.413
116.782
123.512
131.03
147.49
154.201
170.625
171.545
183.537
176.171
155.532
122.344
94.5375
73.6737
56.0491
43.7061
41.6768
49.0228
63.1104
76.5382
62.4139
66.2679
71.7002
72.8427
70.0266
70.1289
70.445
72.3116
76.1876
81.0585
87.266
94.9633
105.67
113.433
114.181
113.454
108.285
102.314
93.5414
85.2688
74.6648
65.8578
66.437
73.3287
79.7921
82.4078
83.553
81.78
70.3736
41.777
26.3946
46.3283
63.5684
65.8891
71.4393
74.539
71.9131
67.9705
61.8171
55.805
49.7875
45.0229
46.4045
51.2166
56.69
62.7834
65.213
67.0163
64.7463
60.0993
47.6986
32.5869
23.3499
16.2619
9.12606
6.34741
6.4866
9.20208
10.1741
17.7056
14.7559
17.4604
20.9401
21.6566
19.6856
16.1395
13.589
12.8693
13.5062
14.7655
16.2068
17.0652
17.4669
59.4365
58.1895
41.8467
31.5291
24.9035
23.0112
26.2602
32.718
39.0555
44.2428
49.5555
53.6662
53.0484
46.8795
39.417
33.956
28.8284
24.4276
20.8671
19.6121
21.0583
23.3224
25.8304
27.6911
29.9468
32.0372
34.3245
35.8227
36.4181
44.7426
46.0056
62.8339
56.0838
44.3535
34.8106
31.822
35.1516
39.761
45.8272
54.6885
66.1012
72.8687
76.4497
78.7542
77.2535
72.2025
70.8597
64.5851
61.2565
55.6533
57.0443
60.0563
61.0898
61.5942
60.3877
60.5791
58.4484
55.7016
49.5775
54.4866
66.3751
62.6533
49.9223
44.0585
47.3894
57.4991
70.7596
87.8939
103.014
113.446
121.618
120.228
119.095
106.558
98.9145
82.4438
68.5628
53.3221
47.3789
54.6116
72.8114
81.8357
92.5663
92.0019
86.1864
73.0542
58.0048
45.6029
40.4426
58.1894
50.017
46.6753
59.8129
69.4327
75.8335
80.3261
81.9704
84.7696
80.4622
77.0916
66.527
57.5079
47.0635
39.5209
31.6367
30.604
34.9944
41.9103
49.8104
57.3762
64.2695
71.2709
75.8332
78.6364
76.8242
71.9179
62.6589
51.9212
40.9526
55.5315
64.7234
53.6635
45.0577
37.5821
36.0582
38.072
42.4702
46.7865
50.9613
55.0148
60.9333
68.9144
77.0753
80.1981
76.6231
68.4698
60.0513
50.7402
40.831
32.7163
30.2289
34.4085
39.2138
43.7119
49.3222
56.0582
61.5555
59.5457
49.9445
45.083
65.1717
48.4236
40.5756
43.3292
52.6926
70.2248
100.952
122.047
128.691
117.758
98.8676
83.0494
78.2947
73.6371
70.6771
61.0535
51.0825
48.7658
56.9434
67.3326
80.4395
92.3054
89.8096
84.9282
72.7248
65.5593
72.447
79.5885
78.8064
87.5891
49.7554
36.3464
47.0359
57.6676
66.8537
74.0209
79.9433
83.0985
81.7685
81.7128
77.0869
69.9482
63.3571
53.9988
45.1215
39.1031
45.7804
55.6946
61.5527
68.3359
73.1432
76.7742
80.1758
80.6377
76.8437
68.3049
56.9196
44.2152
34.5712
46.4961
64.2296
53.0044
65.9749
78.9331
89.0364
94.9623
96.3142
93.7576
88.0868
83.0205
72.3496
63.698
54.5055
56.0674
69.7661
77.6709
86.3276
88.4311
93.2193
94.3931
99.668
102.011
96.2439
82.6869
63.2178
45.9469
35.4903
32.8385
32.1447
44.9267
71.5068
57.2643
75.5718
97.384
117.255
133.716
146.633
140.948
123.188
105.084
84.4917
64.7656
51.668
60.9549
76.5391
95.7056
103.847
111.756
118.974
124.983
122.254
115.815
105.029
83.963
64.1723
47.6808
38.6483
37.3621
37.0642
57.9374
93.1797
87.0267
106.945
117.991
123.867
132.046
138.923
141.873
145.02
129.488
125.401
100.909
84.2848
79.9678
96.6103
122.628
135.977
152.74
167.785
175.9
176.266
155.071
124.861
95.4903
74.3092
56.8254
44.9793
41.708
45.7443
59.9851
82.85
67.7098
70.3384
73.2112
69.966
65.0528
63.3613
61.1491
61.9794
68.2308
73.9865
81.0642
87.3254
94.1402
105.868
110.46
114.168
111.426
105.806
99.7136
92.4435
85.2498
79.704
77.1155
78.2235
80.7567
84.2876
84.259
80.8662
62.5965
49.2744
26.7255
44.9646
62.1201
67.4039
72.6276
73.9681
71.683
65.6802
57.1728
48.8418
38.798
32.1773
36.401
45.9021
52.621
61.7368
64.9737
67.6797
65.2863
60.5386
49.5831
33.861
23.7575
18.916
12.0512
9.90029
12.232
16.978
20.1873
18.0295
15.3279
18.8551
22.1075
22.5489
20.3197
17.756
15.905
15.3001
16.1096
18.7598
24.2284
29.2081
25.9258
44.6153
63.5081
75.201
60.7615
43.3254
32.7753
23.4612
21.1142
24.5586
31.5536
38.391
44.38
50.3092
55.2455
54.1337
47.2586
40.6127
35.1347
31.0885
28.2917
26.2393
26.4822
27.8653
29.6023
31.4171
32.7484
34.0054
35.1765
36.5562
37.778
38.7433
40.2976
50.9116
56.9155
59.9751
66.1762
56.0224
43.2417
33.2303
30.1938
33.6307
37.9925
44.2791
54.1011
65.2162
74.1423
80.2981
82.8181
82.5741
82.4284
79.2636
75.166
74.2953
69.8554
68.9491
65.5192
64.2868
61.6696
60.7206
58.5334
56.9151
53.0239
47.7923
49.0074
57.6341
91.8571
85.3069
69.2007
53.9169
45.5622
46.2961
54.9018
69.2205
84.526
101.675
116.08
124.343
127.338
125.951
116.365
108.887
99.9497
89.2185
78.3333
71.8435
71.6347
81.623
89.3427
95.1078
91.1132
83.2446
70.0106
56.68
48.1699
46.2436
49.9904
59.4822
73.1055
65.134
65.8149
71.0679
77.719
83.3476
88.2079
90.0922
93.7196
91.1409
89.5262
80.584
73.2304
63.192
57.2576
50.9499
47.7485
47.0836
48.1765
52.637
56.2194
62.1626
66.3352
70.5504
72.0565
71.7759
67.6074
60.8244
51.7131
42.8
42.7328
60.249
75.742
70.6795
56.3126
44.837
37.1683
35.2763
37.1813
41.3451
46.441
51.731
56.8287
63.3198
72.3518
81.5494
85.6815
82.6952
74.2921
67.9749
60.7733
53.5265
45.783
42.7818
42.8112
44.8709
49.0336
54.7769
60.3599
62.5981
56.8651
45.5349
37.2763
57.2572
84.0498
75.1449
54.0714
46.6403
47.0198
56.5435
75.1176
104.498
131.332
137.424
133.372
114.393
96.3758
89.0136
85.5556
86.2613
82.4336
79.1468
77.3351
81.0689
83.6188
92.8177
95.6914
88.5642
80.2987
72.8944
75.7782
87.6307
88.9817
78.4792
53.8693
61.2707
69.6832
56.4662
50.2346
55.1307
62.9628
71.8305
80.891
87.2646
89.2427
91.4773
88.779
82.9175
80.8769
70.6528
61.577
51.0166
42.5602
42.4325
52.9068
59.637
65.7921
72.6725
76.6766
79.4197
80.9785
76.8328
68.6598
56.0552
43.5459
41.4866
49.4828
62.2335
64.627
51.8897
59.9035
70.8451
83.4974
94.4015
100.459
103.13
98.9395
94.186
88.8531
77.6496
67.1261
55.575
48.0162
60.0953
69.2458
81.1491
83.4308
91.0462
91.9392
99.2908
99.0297
96.833
81.954
62.7789
44.3574
30.7267
31.6526
44.921
55.464
69.2758
70.9754
52.4001
56.6563
73.2925
96.8785
120.159
138.683
152.619
150.249
130.592
112.32
91.7125
75.5995
64.0056
64.5733
77.8319
91.7488
101.212
110.326
113.901
116.559
118.831
114.046
100.687
80.6946
58.9297
40.6657
39.2537
52.7958
66.6284
78.2827
90.4078
94.0549
72.9604
91.353
111.212
123.172
131.132
139.833
149.226
154.455
160.403
142.748
137.908
116.15
99.2843
88.1086
92.4364
113.337
129.182
145.641
162.047
170.375
167.714
148.552
119.761
93.6697
73.0901
56.8706
46.7197
44.2149
46.2101
47.3916
59.7272
69.1184
79.3514
74.5629
73.9888
73.7491
67.7089
61.1389
55.5089
47.9961
49.0107
55.9792
65.7411
74.9559
83.1695
88.0125
90.3817
100.165
107.175
110.243
106.875
101.821
96.1107
89.9933
86.1099
83.3667
82.5816
83.0776
84.5533
84.9984
80.782
65.6927
74.1863
76.3397
38.8824
27.1259
41.4767
60.4676
67.3354
72.7399
74.5195
71.3636
65.0128
56.1418
47.2873
35.2639
25.5689
33.2458
45.4197
52.7384
61.3174
65.6139
67.8398
65.1685
60.431
49.993
34.3828
23.5567
21.2622
17.8991
19.748
24.5137
30.1784
29.8331
7.64564
3.51589
18.0075
15.553
19.4688
23.0266
23.3357
21.0297
18.6186
17.0571
16.5505
18.7811
27.4652
43.8317
52.8034
51.7855
64.4021
78.2198
81.4831
58.9582
43.5916
32.2598
21.7973
19.4864
22.982
29.6825
37.1611
43.2645
50.4719
56.1005
55.8082
50.051
43.0341
39.044
36.5242
35.2644
35.1119
37.5185
38.9863
41.8006
42.5351
43.0541
42.5161
42.1732
42.0504
42.4267
42.6842
43.7253
47.7087
60.3582
71.3707
63.9357
53.0294
40.6204
31.9697
29.2073
32.16
35.812
41.9613
50.9156
62.8106
74.5389
80.0133
85.0953
86.8756
90.3479
85.3333
85.5678
83.036
79.8858
76.5402
73.72
69.2957
66.2218
61.3918
58.1536
53.0272
48.4045
45.447
45.414
53.0156
82.1598
90.5514
69.2135
54.9338
44.5688
42.7571
50.3514
62.4538
78.0256
96.1405
111.084
124.596
130.222
130.549
125.612
119.077
111.54
103.466
99.7363
96.6295
95.4003
98.3866
100.997
98.366
91.6618
81.665
69.9847
60.7966
55.4428
55.5934
62.257
69.3178
71.8814
68.275
69.7081
74.86
81.4911
88.0969
93.4853
96.7529
100.154
99.5905
101.309
95.6805
92.1239
83.111
78.9442
72.117
69.4762
66.5309
64.4791
64.7096
64.0936
65.4716
66.8637
67.7906
68.7288
66.988
63.3714
56.3789
48.4924
42.061
41.1446
46.2986
58.6797
70.581
56.2702
43.8255
35.9497
33.8469
35.5422
39.8909
44.777
50.7836
56.9989
64.4434
73.7393
83.0912
88.9577
86.8763
79.7565
74.3839
69.979
66.8066
60.4325
58.7231
55.2191
57.558
59.4245
62.88
63.0891
59.3723
50.4537
40.8633
39.5573
58.4374
75.8452
75.797
57.8406
49.9378
49.8844
57.8938
74.6129
99.9734
133.26
144.573
144.031
137.123
117.11
104.291
97.3787
100.29
101.334
102.636
103.309
103.34
100.087
101.541
95.1246
86.269
82.2757
85.1968
100.101
101.515
93.6199
62.2989
53.9954
59.2222
60.6215
54.1013
51.104
56.0876
64.9308
75.8996
85.0665
91.1416
97.827
98.6882
95.8543
96.2312
90.3986
82.8733
77.1001
69.908
63.6546
62.3212
64.4866
66.2583
70.5587
74.8075
78.6944
80.7976
80.5469
77.7964
69.1286
58.0561
47.7083
43.9938
47.7311
50.0836
50.0001
53.0954
61.046
71.6545
84.5056
96.7501
104.198
108.373
106.19
100.948
97.899
90.4861
84.7074
76.8215
72.2118
73.0037
75.2675
82.2905
84.5844
87.9678
94.3442
95.2896
98.6794
92.341
80.1223
60.8375
43.5257
32.5917
39.3057
46.7224
47.2799
45.9181
43.9846
42.2028
48.6245
64.7202
88.6751
113.802
134.031
149.799
154.105
142.713
125.573
113.893
97.7318
87.9645
90.5921
93.6763
100.08
103.828
107.437
111.246
116.232
115.121
107.202
95.3758
77.4268
56.1068
44.2752
50.8287
59.5497