/*--------------------------------*- C++ -*----------------------------------*\
| =========                 |                                                 |
| \\      /  F ield         | OpenFOAM: The Open Source CFD Toolbox           |
|  \\    /   O peration     | Version:  2.1.1                                 |
|   \\  /    A nd           | Web:      www.OpenFOAM.org                      |
|    \\/     M anipulation  |                                                 |
\*---------------------------------------------------------------------------*/
FoamFile
{
    version     2.0;
    format      ascii;
    class       volScalarField;
    location    "0.001900000";
    object      H2;
}
// * * * * * * * * * * * * * * * * * * * * * * * * * * * * * * * * * * * * * //

dimensions      [0 0 0 0 0 0 0];

internalField   nonuniform List<scalar> 
12384
(
0.00024727
0.000331099
0.000342585
0.000463367
0.0154881
0.0243496
0.0250657
0.0237144
0.0240541
0.0257332
0.027473
0.0284541
0.0292731
0.0290066
0.0231416
0.020725
0.0191173
0.0191774
0.0192189
0.0190081
0.0188097
0.0186475
0.0187058
0.0187087
0.0186145
0.0185048
0.018345
0.0182187
0.018285
0.0183107
0.0183776
0.0182572
0.0182132
0.0190362
0.0195417
0.0219405
0.0243827
0.0267356
0.0279513
0.0291455
0.0293486
0.0292573
0.0291915
0.0291178
0.0265735
0.0249297
0.022629
0.0204818
0.0192609
0.0190471
0.0190534
0.0189534
0.0197083
0.0189066
0.0209156
0.0195642
0.0205429
0.0189448
0.0185388
0.01753
0.017257
0.0175802
0.0185826
0.0196979
0.0212954
0.0228207
0.0245608
0.0262895
0.0277455
0.0286816
0.0291765
0.0291273
0.0291397
0.0290981
0.0274519
0.0262983
0.0257716
0.0246707
0.0242613
0.0234465
0.02343
0.023595
0.0240076
0.0247042
0.0254416
0.0261545
0.0268284
0.0274246
0.0279192
0.0283326
0.0286328
0.028829
0.0289565
0.0290585
0.0290253
0.0291009
0.0290371
0.0290707
0.0290806
0.0290539
0.0290849
0.0290791
0.0290736
0.0290765
0.0288635
0.0288043
0.0288362
0.0288893
0.0289333
0.0289968
0.0290224
0.0290559
0.0290526
0.0290529
0.0290611
0.0290395
0.0290684
0.0290305
0.0290638
0.0290311
0.029058
0.0290363
0.0290584
0.029039
0.029061
0.0290391
0.0290624
0.0290417
0.0290608
0.0290459
0.0290581
0.0290486
0.0290559
0.029074
0.0290739
0.0290491
0.0290476
0.0290486
0.0290462
0.0290467
0.0290441
0.0290449
0.0290417
0.0290424
0.0290388
0.029039
0.0290342
0.0290336
0.0290302
0.0290313
0.029031
0.0290334
0.0290341
0.0290356
0.0290359
0.0290371
0.0290375
0.0290384
0.029039
0.0290396
0.0290401
0.0290407
0.029042
0.0290749
0.029075
0.029042
0.0290405
0.0290391
0.0290389
0.0290379
0.0290367
0.0290354
0.0290342
0.0290328
0.0290316
0.0290302
0.0290281
0.0290263
0.0290248
0.0290245
0.0290255
0.0290278
0.0290304
0.0290322
0.0290337
0.029035
0.0290361
0.029037
0.029038
0.0290389
0.0290397
0.0290407
0.029042
0.029075
0.029075
0.0290423
0.0290406
0.0290393
0.0290381
0.0290371
0.0290359
0.0290347
0.0290337
0.0290326
0.0290315
0.0290301
0.0290279
0.029026
0.0290244
0.0290244
0.0290258
0.0290279
0.02903
0.0290315
0.0290327
0.0290338
0.0290349
0.029036
0.0290371
0.0290381
0.0290391
0.0290403
0.029042
0.0290749
0.0290749
0.0290422
0.0290407
0.0290394
0.0290384
0.0290373
0.0290364
0.0290352
0.0290342
0.029033
0.0290319
0.0290304
0.0290281
0.029026
0.0290244
0.0290245
0.0290258
0.0290279
0.0290299
0.0290314
0.0290327
0.0290338
0.029035
0.0290361
0.0290372
0.0290382
0.0290391
0.0290403
0.029042
0.0290749
0.0290749
0.0290426
0.0290407
0.0290391
0.0290381
0.0290369
0.0290358
0.0290347
0.0290336
0.0290326
0.0290315
0.0290302
0.0290283
0.0290263
0.0290249
0.0290243
0.0290255
0.0290278
0.0290305
0.029032
0.0290331
0.0290346
0.0290357
0.0290368
0.0290377
0.0290388
0.0290398
0.0290411
0.0290424
0.029075
0.0290749
0.0290421
0.0290405
0.0290392
0.0290382
0.0290372
0.0290362
0.029035
0.029034
0.0290328
0.0290317
0.0290303
0.0290281
0.0290261
0.0290245
0.0290244
0.0290256
0.0290278
0.0290299
0.0290314
0.0290327
0.0290339
0.029035
0.0290362
0.0290373
0.0290383
0.0290392
0.0290402
0.0290419
0.0290749
0.029075
0.0290419
0.0290404
0.0290396
0.0290387
0.0290378
0.0290365
0.0290352
0.0290341
0.0290327
0.0290315
0.02903
0.0290278
0.0290259
0.0290244
0.0290244
0.0290258
0.0290278
0.02903
0.0290315
0.0290327
0.0290339
0.029035
0.0290362
0.0290373
0.0290383
0.0290393
0.0290405
0.0290419
0.029075
0.0290749
0.029042
0.0290403
0.0290389
0.0290379
0.0290368
0.029036
0.029035
0.0290342
0.029033
0.029032
0.0290306
0.0290286
0.0290264
0.0290247
0.0290243
0.0290256
0.0290277
0.0290298
0.0290312
0.0290326
0.0290339
0.0290351
0.0290363
0.0290374
0.0290383
0.0290393
0.0290402
0.0290418
0.0290749
0.000158227
0.000102267
5.16304e-05
0.000112643
0.0134515
0.0171546
0.0182366
0.0154404
0.0152797
0.0165691
0.0196671
0.0219488
0.0251011
0.0272622
0.018803
0.0159281
0.0165227
0.0176055
0.0168827
0.0157113
0.01461
0.0134423
0.0135165
0.0135674
0.0131505
0.0137597
0.013573
0.0138313
0.0147921
0.0155193
0.015212
0.0155942
0.0148702
0.014147
0.0126407
0.0127037
0.0158181
0.016314
0.0212721
0.0239108
0.0271447
0.0289356
0.029357
0.0292878
0.0231871
0.0187207
0.0154754
0.015313
0.0175044
0.0205139
0.0236473
0.0262232
0.0296553
0.0321057
0.0328315
0.0345223
0.0341598
0.0340824
0.0318851
0.0283497
0.0225141
0.0169204
0.0129593
0.0116283
0.0109479
0.0112992
0.011913
0.0134248
0.0158657
0.0194901
0.0238111
0.0277289
0.028924
0.0291825
0.016636
0.0140297
0.0125742
0.0124937
0.0121864
0.0122947
0.0120478
0.0119756
0.0118783
0.0120088
0.0123908
0.0130052
0.0138945
0.0147639
0.0158978
0.016999
0.0181366
0.0194044
0.020527
0.0217706
0.0231162
0.0243799
0.0257758
0.0267425
0.0274169
0.0279158
0.028081
0.0282464
0.0282904
0.0286199
0.0192235
0.0190339
0.019333
0.0198269
0.0203023
0.0209982
0.021688
0.0224185
0.0230918
0.0237508
0.0242655
0.0248255
0.025146
0.0255456
0.0257192
0.0260769
0.0262289
0.0265225
0.0266673
0.0268733
0.0269939
0.0271205
0.0272612
0.0273183
0.0274847
0.0274753
0.0275886
0.0275658
0.027624
0.0284314
0.0277829
0.0269677
0.0269405
0.0269848
0.0270365
0.0270598
0.0271011
0.0270974
0.0271288
0.0271026
0.0271186
0.0270791
0.0270575
0.027016
0.0269874
0.027003
0.0270242
0.0270806
0.0271056
0.0271464
0.0271516
0.0271942
0.027195
0.0272334
0.0272357
0.0272678
0.0272675
0.0272773
0.0273102
0.0283522
0.0283825
0.0272857
0.0272583
0.0272251
0.0272166
0.0271998
0.0271583
0.0271482
0.0271052
0.0270952
0.0270527
0.027043
0.0269902
0.0269629
0.026924
0.0269279
0.0269347
0.0269961
0.0270332
0.0270851
0.0271027
0.0271492
0.0271548
0.0271933
0.0271987
0.0272352
0.0272358
0.0272672
0.0272942
0.028384
0.0283853
0.0272851
0.0272395
0.0272286
0.0271923
0.027186
0.0271442
0.0271378
0.0270984
0.027092
0.0270519
0.0270422
0.0269868
0.026956
0.0269155
0.0269265
0.0269411
0.0269985
0.0270256
0.0270672
0.0270765
0.0271187
0.0271254
0.0271663
0.0271759
0.0272141
0.0272239
0.0272469
0.0272977
0.0283514
0.0283545
0.0273084
0.0272501
0.0272426
0.0272052
0.0271992
0.0271585
0.0271527
0.0271134
0.0271057
0.0270644
0.0270503
0.0269921
0.0269567
0.026916
0.0269278
0.026942
0.0269975
0.0270245
0.0270663
0.0270759
0.0271186
0.0271256
0.027167
0.0271767
0.0272148
0.0272246
0.0272471
0.0272982
0.028351
0.0283498
0.027297
0.0272516
0.0272158
0.0272085
0.0271698
0.0271618
0.0271222
0.0271173
0.0270784
0.0270717
0.0270321
0.0270092
0.0269525
0.0269359
0.0269145
0.0269465
0.026982
0.0270472
0.0270782
0.0270979
0.0271409
0.0271505
0.0271902
0.0271956
0.0272329
0.027234
0.0272675
0.0272931
0.028385
0.0283491
0.027304
0.0272457
0.0272378
0.027201
0.0271951
0.0271546
0.0271483
0.0271091
0.0271022
0.0270619
0.0270493
0.0269938
0.0269599
0.0269177
0.0269259
0.0269387
0.0269945
0.0270233
0.0270658
0.027076
0.0271194
0.027127
0.0271686
0.0271785
0.0272169
0.0272268
0.0272468
0.0272989
0.0283518
0.0283861
0.0272875
0.0272498
0.0272398
0.0272054
0.0271978
0.0271543
0.0271457
0.0271035
0.0270938
0.0270507
0.0270392
0.0269846
0.026955
0.026919
0.0269189
0.0269524
0.0269856
0.0270413
0.0270536
0.0270954
0.0271039
0.0271446
0.0271522
0.0271939
0.0271999
0.0272361
0.0272463
0.0272862
0.028386
0.0283524
0.0273012
0.0272396
0.0272318
0.0271922
0.0271877
0.0271454
0.027142
0.027102
0.0270996
0.0270581
0.0270492
0.026997
0.0269667
0.0269213
0.0269256
0.0269375
0.0269919
0.0270214
0.0270632
0.0270731
0.0271169
0.0271245
0.0271673
0.0271764
0.0272159
0.0272271
0.0272471
0.0272994
0.0283524
3.49471e-05
4.16892e-06
9.17696e-07
1.76512e-06
0.00768722
0.008398
0.00914855
0.00825148
0.00903236
0.0107304
0.0119689
0.013129
0.0168337
0.0211157
0.0135701
0.016032
0.0170568
0.014504
2.84313e-06
5.45325e-05
0.000116732
0.000170691
0.000152055
0.000117944
0.000119273
0.000145505
0.00013881
6.17021e-05
2.39717e-05
2.42203e-05
7.50936e-06
0.0119106
0.0156693
0.0153598
0.0144977
0.0121549
0.0102043
0.00968679
0.0119792
0.0147644
0.0202299
0.0254806
0.0286646
0.029272
0.0158408
0.0128996
0.0151702
0.019165
0.0250397
0.0303249
0.0335216
0.0354174
0.0350213
0.0335488
0.0317525
0.0316558
0.0338423
0.0378043
0.0429712
0.0465448
0.0468674
0.0419359
0.0319319
0.0220608
0.0156525
0.0118172
0.00985466
0.00894247
0.00895859
0.00928128
0.0116325
0.0167481
0.0229793
0.0264683
0.00909978
0.00960258
0.0106502
0.0125497
0.013829
0.0155729
0.0148731
0.0138505
0.0122359
0.0109733
0.0100376
0.00950117
0.00907598
0.00884694
0.00866956
0.00856579
0.00852163
0.00852343
0.00849043
0.00853663
0.00846896
0.00852786
0.0086593
0.00899081
0.00972274
0.0106255
0.0117317
0.0130032
0.0139413
0.0145011
0.00804302
0.00827404
0.00845404
0.00849523
0.00854907
0.00852704
0.00856645
0.00857571
0.00859565
0.00862333
0.00863399
0.00867418
0.0086897
0.00875283
0.00877043
0.00880886
0.00878128
0.00879585
0.00872779
0.00875803
0.008712
0.00875594
0.00870556
0.00877195
0.00870811
0.00880913
0.00877484
0.00887053
0.0088684
0.00821224
0.0079304
0.00866433
0.00873813
0.0087337
0.00876831
0.00877464
0.00880534
0.00881906
0.00884738
0.00887072
0.00890001
0.00893114
0.00897977
0.0090202
0.00904535
0.00905032
0.00903012
0.00900121
0.0089724
0.00895722
0.00894193
0.00892736
0.00891399
0.00890332
0.00888849
0.00888001
0.00886925
0.00886488
0.00884317
0.00793218
0.00793213
0.00884878
0.00888362
0.0089046
0.00890731
0.00892658
0.00894821
0.00896638
0.00898595
0.00900482
0.00902494
0.00904409
0.00907548
0.0091087
0.00913057
0.0091378
0.00912214
0.00908361
0.0090428
0.00901415
0.00898981
0.008966
0.00895063
0.00893465
0.00892055
0.00890581
0.00889567
0.00887804
0.00883917
0.0079315
0.00793337
0.00885218
0.00888827
0.00890932
0.00892557
0.00894017
0.00895853
0.00897333
0.00898983
0.00900597
0.00902427
0.00904404
0.00907785
0.00911402
0.00913683
0.00913796
0.00911528
0.00907945
0.00904523
0.00902423
0.00900589
0.00898639
0.00897027
0.00895329
0.00893553
0.00891942
0.00890294
0.00888686
0.00885301
0.00793206
0.00793227
0.00884247
0.00888229
0.00890124
0.00891554
0.00893038
0.00894684
0.00896212
0.0089784
0.00899603
0.00901516
0.00903845
0.00907469
0.00911425
0.00913689
0.0091374
0.00911502
0.00908047
0.00904653
0.00902533
0.0090066
0.0089867
0.00897023
0.00895284
0.00893481
0.00891866
0.00890235
0.00888677
0.00885283
0.00793206
0.00793151
0.00885074
0.00888996
0.00891101
0.00892516
0.00894116
0.00895714
0.00897299
0.00898759
0.00900424
0.00902086
0.00904055
0.00907114
0.00910649
0.00913082
0.00913877
0.00912365
0.0090845
0.00903933
0.00900999
0.00899683
0.00897155
0.00895375
0.00893684
0.00892243
0.00890712
0.0088961
0.00887872
0.00884105
0.00793163
0.0079325
0.00884835
0.00888616
0.00890451
0.00891837
0.00893304
0.00894956
0.00896532
0.00898144
0.00899827
0.00901678
0.00903878
0.00907283
0.00911126
0.00913534
0.00913874
0.00911757
0.00908297
0.00904765
0.009026
0.00900692
0.00898639
0.00896952
0.00895196
0.00893367
0.0089168
0.00890026
0.00888613
0.00885179
0.00793202
0.00793255
0.00885146
0.00888701
0.00889749
0.00891557
0.00893179
0.00895185
0.0089685
0.00898719
0.00900567
0.00902565
0.00904661
0.00907914
0.00911405
0.00913829
0.00913786
0.00911567
0.00907864
0.00904489
0.00902349
0.00900412
0.00898667
0.00896882
0.00895321
0.00893445
0.00891997
0.00890266
0.00888694
0.00885345
0.00793285
0.00793263
0.00885013
0.00889063
0.00890924
0.00892413
0.00893836
0.00895464
0.00896941
0.00898444
0.00899956
0.00901759
0.00903836
0.0090686
0.00910593
0.00913194
0.00914026
0.00911968
0.0090856
0.00904971
0.0090287
0.00900929
0.00898855
0.008971
0.00895283
0.00893477
0.00891755
0.00890043
0.00888675
0.00885269
0.00793209
9.74378e-07
1.34708e-07
1.95888e-08
5.38367e-09
7.04185e-10
1.0116e-09
1.98741e-06
2.714e-09
5.49516e-07
0.00755594
0.00951293
0.00996532
0.0108116
0.013759
0.0134058
0.0170672
5.26157e-05
0.00047252
0.000818017
0.00265432
0.00320146
0.00363373
0.00333289
0.00384343
0.00575459
0.00744924
0.00652688
0.00418428
0.00328455
0.00250042
0.00048154
7.46433e-05
4.96546e-05
3.75872e-05
0.00817319
0.0158349
0.0129632
0.0105828
0.00969872
0.00966306
0.0128454
0.01892
0.0256088
0.0286649
0.0116403
0.0133107
0.0194284
0.0280055
0.0328172
0.0333296
0.0311171
0.0278501
0.0237697
0.0189779
0.0195196
0.0196793
0.0207609
0.0236456
0.0290452
0.0371078
0.0471478
0.0541821
0.0547175
0.0473545
0.0352493
0.0247607
0.0178563
0.0139266
0.0113625
0.00962522
0.00905575
0.00977566
0.0140108
0.0191837
0.0106284
0.0150729
0.0211601
0.0270323
0.0306284
0.0328954
0.0330401
0.0317101
0.0272108
0.0219891
0.0180419
0.0153084
0.0136363
0.0124783
0.0116128
0.0109338
0.0104407
0.0100061
0.00969604
0.00940266
0.00918425
0.0090063
0.0088258
0.00873375
0.00862216
0.00861174
0.00858848
0.00859203
0.00866729
0.00860261
0.0103075
0.0105324
0.0102723
0.0100362
0.00979519
0.00961808
0.00939286
0.00926011
0.00911988
0.00902404
0.00895343
0.00887381
0.00885857
0.00877663
0.00880098
0.00872373
0.00874957
0.00869211
0.00870584
0.00867172
0.00867475
0.00865314
0.00865185
0.00863961
0.00863111
0.00863028
0.00861567
0.00862578
0.00859876
0.00847404
0.00855625
0.00867712
0.00867004
0.00867733
0.00866147
0.00866368
0.00865488
0.00865638
0.00865101
0.00865247
0.00864965
0.00865045
0.00864998
0.00865215
0.00865096
0.00865306
0.00864992
0.008651
0.00864798
0.00864986
0.00864752
0.00864941
0.00864752
0.00864936
0.00864786
0.00864948
0.00864855
0.00864893
0.00864124
0.00848741
0.0084844
0.00864174
0.0086532
0.00865196
0.00865254
0.00865495
0.00865347
0.00865677
0.0086548
0.00865819
0.00865625
0.00865961
0.00865826
0.0086621
0.00866067
0.00866335
0.0086603
0.00866115
0.00865714
0.00865868
0.00865522
0.00865698
0.00865363
0.00865571
0.00865234
0.00865464
0.00865126
0.0086531
0.00864172
0.00848421
0.00848436
0.00864212
0.00865056
0.008654
0.00865244
0.00865565
0.00865369
0.00865696
0.00865492
0.00865821
0.00865632
0.00865962
0.00865844
0.00866233
0.00866107
0.00866338
0.00866005
0.00866088
0.00865719
0.00865882
0.00865565
0.00865741
0.00865436
0.0086561
0.00865308
0.00865466
0.00865165
0.00865147
0.00864128
0.00848715
0.00848678
0.00864189
0.00865027
0.00865408
0.00865226
0.00865539
0.00865349
0.00865665
0.00865469
0.00865789
0.0086561
0.00865941
0.00865836
0.00866232
0.0086611
0.00866333
0.00866004
0.00866091
0.00865723
0.00865884
0.00865566
0.00865741
0.00865436
0.00865608
0.00865306
0.00865463
0.00865166
0.00865146
0.00864123
0.00848716
0.00848748
0.00864133
0.00865287
0.00865171
0.00865509
0.00865304
0.00865633
0.00865427
0.0086575
0.00865549
0.00865876
0.00865696
0.0086606
0.00865963
0.00866301
0.00866112
0.00866262
0.00865875
0.0086591
0.00865639
0.00865532
0.00865703
0.00865377
0.00865573
0.00865244
0.00865463
0.00865129
0.00865305
0.00864159
0.00848436
0.00848719
0.00864174
0.00865037
0.00865422
0.00865238
0.0086555
0.0086536
0.00865674
0.00865479
0.00865795
0.00865615
0.00865941
0.00865829
0.00866218
0.00866103
0.00866339
0.00866016
0.008661
0.00865728
0.00865885
0.00865569
0.00865739
0.00865435
0.00865604
0.00865303
0.00865451
0.0086516
0.00865125
0.00864133
0.00848704
0.00848443
0.0086417
0.00865261
0.00865379
0.00865213
0.00865559
0.00865349
0.00865692
0.00865482
0.00865821
0.00865629
0.00865964
0.00865842
0.00866223
0.0086612
0.0086612
0.0086623
0.00865842
0.00865956
0.00865625
0.00865816
0.00865483
0.00865691
0.00865357
0.00865563
0.00865233
0.00865408
0.0086516
0.00864184
0.00848447
0.00848702
0.00864192
0.00865048
0.00865435
0.00865243
0.00865571
0.00865368
0.00865695
0.00865482
0.00865812
0.00865607
0.0086595
0.00865808
0.00866209
0.00866081
0.00866351
0.0086603
0.00866122
0.00865745
0.00865917
0.00865596
0.00865778
0.00865461
0.00865641
0.00865328
0.00865476
0.00865178
0.00865148
0.00864132
0.00848703
1.2001e-07
3.71485e-07
2.02975e-07
8.69457e-08
2.9965e-05
4.52717e-05
5.13585e-06
2.17183e-06
6.47387e-07
1.51676e-07
2.82146e-10
0.00950089
0.0101245
0.00929112
0.0152612
0.0160616
0.00268732
0.00193854
0.00392945
0.00577271
0.00665185
0.0074545
0.00881144
0.0110348
0.0141686
0.0160797
0.0159799
0.0133753
0.0123325
0.0109616
0.00623568
0.00291925
0.000872023
0.000497524
0.000399924
0.0153716
0.0185142
0.0146774
0.0115357
0.00971931
0.00965935
0.0132645
0.0210608
0.0272183
0.010927
0.0167739
0.0266634
0.0337183
0.0332093
0.0290024
0.0232559
0.0208985
0.0179444
0.018592
0.0191937
0.0194261
0.0196153
0.0204638
0.0228255
0.0272895
0.0350376
0.045624
0.0565938
0.0604774
0.0559575
0.0441737
0.0316309
0.0226254
0.0173832
0.0137236
0.0111476
0.00943358
0.00942141
0.0124117
0.0144362
0.0242829
0.0320367
0.0353037
0.0360029
0.0373819
0.0403865
0.0430762
0.0439138
0.0390283
0.0313296
0.0250393
0.0208336
0.0183606
0.016711
0.0154796
0.0145692
0.0137985
0.0132192
0.0126836
0.0122435
0.0118664
0.0115025
0.0111889
0.0108479
0.0104605
0.0100966
0.00973877
0.00943047
0.00917101
0.0143997
0.0155207
0.0149728
0.014249
0.0136528
0.0131028
0.0127558
0.0123326
0.0121372
0.0118334
0.0117419
0.0115273
0.0114826
0.0113414
0.0113081
0.011219
0.0111861
0.011131
0.0111041
0.01106
0.0110523
0.0110038
0.0110026
0.0109648
0.0109554
0.0109147
0.0109084
0.0108573
0.0108468
0.0108042
0.011053
0.0110381
0.0110384
0.0110019
0.0110013
0.0109789
0.0109732
0.0109608
0.0109544
0.0109477
0.0109418
0.0109396
0.0109337
0.0109316
0.0109312
0.010928
0.010927
0.0109255
0.0109241
0.0109231
0.0109226
0.0109218
0.0109222
0.010921
0.0109223
0.0109205
0.0109217
0.0109223
0.010917
0.0109076
0.0109012
0.010921
0.010918
0.0109229
0.0109208
0.0109175
0.010923
0.0109166
0.0109229
0.0109162
0.0109228
0.0109163
0.0109229
0.010917
0.0109231
0.0109173
0.0109232
0.0109171
0.0109231
0.0109168
0.0109233
0.0109164
0.010923
0.010916
0.0109227
0.0109159
0.0109226
0.0109163
0.0109204
0.0109003
0.0109026
0.0109188
0.0109215
0.0109168
0.0109231
0.0109165
0.0109231
0.0109164
0.0109229
0.0109162
0.0109229
0.0109167
0.0109233
0.0109176
0.0109235
0.0109179
0.0109235
0.0109173
0.0109231
0.0109167
0.010923
0.0109167
0.0109233
0.0109171
0.0109234
0.0109175
0.0109228
0.0109203
0.010917
0.0109067
0.0109058
0.0109165
0.0109231
0.0109168
0.0109233
0.0109166
0.0109231
0.0109165
0.0109229
0.0109164
0.010923
0.010917
0.0109233
0.0109177
0.0109235
0.0109178
0.0109234
0.0109173
0.0109231
0.0109167
0.010923
0.0109167
0.0109233
0.0109171
0.0109234
0.0109176
0.0109228
0.0109205
0.010917
0.0109067
0.0109045
0.0109163
0.0109176
0.0109227
0.0109163
0.0109228
0.0109161
0.0109228
0.010916
0.0109226
0.0109163
0.0109228
0.010917
0.0109232
0.0109176
0.0109233
0.0109178
0.0109235
0.0109188
0.0109211
0.0109221
0.0109169
0.0109233
0.0109163
0.0109228
0.0109161
0.0109227
0.010916
0.0109203
0.0109007
0.0109061
0.0109163
0.0109233
0.0109168
0.0109233
0.0109166
0.0109231
0.0109164
0.0109229
0.0109163
0.010923
0.0109169
0.0109233
0.0109177
0.0109235
0.0109179
0.0109235
0.0109174
0.0109231
0.0109168
0.0109231
0.0109169
0.0109234
0.0109172
0.0109235
0.0109177
0.0109226
0.0109209
0.010917
0.0109067
0.0109002
0.0109191
0.010918
0.0109173
0.0109221
0.010916
0.0109228
0.0109161
0.0109227
0.010916
0.0109229
0.0109166
0.0109232
0.0109177
0.0109227
0.0109225
0.010918
0.0109234
0.0109168
0.0109229
0.0109161
0.0109228
0.0109162
0.0109229
0.0109163
0.0109229
0.0109173
0.0109186
0.0109189
0.0109011
0.010906
0.0109164
0.0109234
0.0109167
0.0109235
0.0109165
0.0109234
0.0109163
0.0109232
0.0109161
0.0109231
0.0109165
0.0109235
0.0109174
0.0109238
0.0109179
0.0109239
0.0109177
0.0109235
0.0109169
0.0109233
0.0109168
0.0109236
0.0109172
0.0109237
0.0109174
0.0109226
0.0109208
0.0109167
0.0109064
4.343e-06
3.27076e-05
5.19029e-05
6.91165e-05
0.0013022
0.0011946
0.000270785
6.7078e-05
2.83446e-05
1.19578e-05
1.32483e-06
5.83247e-08
0.00973858
0.00940042
0.0166353
1.68908e-05
0.00338196
0.00596336
0.00603258
0.0050469
0.00541424
0.00735774
0.0103169
0.0138565
0.0177138
0.0210443
0.0228542
0.0224299
0.021294
0.0200551
0.0159127
0.0104975
0.00596753
0.00359915
0.00256951
0.00176182
0.0190903
0.02042
0.0165059
0.0123106
0.00987272
0.009889
0.0162076
0.0246803
0.0116272
0.021288
0.0315964
0.0346703
0.0316475
0.0260212
0.0219899
0.020903
0.020939
0.0216664
0.0225054
0.0238713
0.0250157
0.0258653
0.0264845
0.0285669
0.0323933
0.0390271
0.0481892
0.0588029
0.0641926
0.0613657
0.0503988
0.0370288
0.0269769
0.0201428
0.0157459
0.011846
0.0095531
0.00961936
0.0191546
0.0300734
0.0323334
0.0285249
0.0265916
0.0281673
0.0333575
0.0406164
0.0478664
0.0511253
0.0473338
0.0390147
0.0314859
0.0265134
0.0235948
0.0216361
0.0201589
0.0189504
0.017993
0.0171244
0.0164163
0.0156969
0.0151307
0.0144357
0.0139154
0.0132563
0.0126792
0.0120088
0.0113724
0.0106864
0.0205525
0.023332
0.022526
0.0209311
0.0193053
0.018187
0.0172164
0.0165796
0.0160361
0.0156473
0.0152977
0.0150506
0.0148228
0.0146453
0.0144945
0.0143654
0.0142613
0.0141633
0.0140894
0.0140069
0.0139634
0.0138851
0.0138486
0.0137841
0.0137442
0.0136719
0.0136394
0.0135726
0.0135176
0.0133415
0.013858
0.0140094
0.0139144
0.0139145
0.0138281
0.0138228
0.0137684
0.0137656
0.0137288
0.0137278
0.0137035
0.0137026
0.0136872
0.0136853
0.0136782
0.0136754
0.0136703
0.0136688
0.0136647
0.0136642
0.0136616
0.0136616
0.0136601
0.0136607
0.0136597
0.0136606
0.0136594
0.0136615
0.0136498
0.0134906
0.0134929
0.0136528
0.0136622
0.0136629
0.0136611
0.0136604
0.0136619
0.0136605
0.0136613
0.0136603
0.0136612
0.0136603
0.0136616
0.0136608
0.0136618
0.0136609
0.013662
0.0136609
0.0136618
0.013661
0.013662
0.0136604
0.0136613
0.0136601
0.0136611
0.0136601
0.0136614
0.0136599
0.0136512
0.0134889
0.0134903
0.0136511
0.0136605
0.0136604
0.0136619
0.0136604
0.0136615
0.0136601
0.0136612
0.0136602
0.0136615
0.0136607
0.0136622
0.0136614
0.0136626
0.0136614
0.0136624
0.013661
0.0136617
0.0136605
0.0136615
0.0136603
0.0136616
0.0136607
0.0136621
0.013661
0.0136622
0.0136611
0.0136509
0.0134888
0.0134884
0.0136512
0.0136617
0.013661
0.013662
0.0136603
0.0136613
0.0136601
0.0136612
0.0136603
0.0136616
0.0136607
0.0136622
0.0136614
0.0136625
0.0136614
0.0136623
0.013661
0.0136617
0.0136604
0.0136615
0.0136603
0.0136616
0.0136607
0.0136621
0.013661
0.0136622
0.0136613
0.0136509
0.0134888
0.0134877
0.0136495
0.0136606
0.013662
0.0136605
0.0136614
0.01366
0.0136611
0.0136599
0.0136611
0.0136602
0.0136615
0.0136608
0.013662
0.0136611
0.0136623
0.0136612
0.0136626
0.0136614
0.0136613
0.0136614
0.0136605
0.0136616
0.0136602
0.0136612
0.0136603
0.0136617
0.0136596
0.013651
0.0134899
0.0134878
0.0136512
0.013662
0.0136611
0.013662
0.0136603
0.0136613
0.0136601
0.0136611
0.0136602
0.0136615
0.0136607
0.0136622
0.0136614
0.0136625
0.0136614
0.0136624
0.0136611
0.0136618
0.0136605
0.0136616
0.0136605
0.0136618
0.0136608
0.0136621
0.013661
0.0136619
0.0136615
0.013651
0.0134888
0.0134896
0.0136509
0.0136601
0.0136603
0.0136609
0.01366
0.0136613
0.0136601
0.0136612
0.0136602
0.0136616
0.0136605
0.0136622
0.0136614
0.013662
0.013662
0.0136615
0.0136623
0.0136606
0.0136616
0.0136601
0.0136612
0.0136601
0.0136614
0.0136603
0.0136617
0.0136608
0.0136595
0.0136508
0.0134898
0.0134878
0.0136511
0.0136619
0.013661
0.013662
0.0136605
0.0136615
0.0136603
0.0136613
0.0136603
0.0136615
0.0136607
0.0136623
0.0136617
0.0136632
0.013662
0.0136632
0.0136618
0.0136625
0.0136612
0.013662
0.0136609
0.0136621
0.0136611
0.0136623
0.0136607
0.0136617
0.0136612
0.0136504
0.0134882
0.00039746
0.000882506
0.00119068
0.0016859
0.00286432
0.0018237
0.000625739
0.000299371
0.000187036
7.835e-05
1.7947e-05
7.21253e-06
0.00878528
0.00995809
0.0175741
8.67203e-05
0.00355079
0.00642125
0.00478242
0.00192618
0.00165727
0.00365727
0.00708803
0.0113141
0.015975
0.0208633
0.025274
0.0278927
0.0277387
0.0264596
0.0231094
0.0182797
0.0126026
0.00885934
0.00723291
0.00446722
0.00318199
0.0201113
0.0215452
0.0181721
0.0135579
0.0103536
0.0119523
0.0207529
0.0133439
0.0248291
0.0332468
0.0340115
0.0309084
0.0269816
0.0246264
0.0230368
0.0223892
0.0212115
0.0204455
0.0197364
0.0206041
0.0211686
0.022466
0.02808
0.0342326
0.0399691
0.0458226
0.0533464
0.0621649
0.0666339
0.064251
0.0545215
0.0417295
0.0313125
0.0232807
0.0176854
0.0126414
0.00958544
0.0226047
0.0308977
0.0281391
0.0220483
0.0188461
0.0213131
0.0264334
0.0346177
0.0440081
0.0528715
0.0562416
0.0524961
0.0444578
0.0371822
0.032401
0.0295133
0.02745
0.0258463
0.0244739
0.0233571
0.0223882
0.0214805
0.0207117
0.0198615
0.0191081
0.0181998
0.0171851
0.0159906
0.0145409
0.0129057
0.0274038
0.0311057
0.0319929
0.0302401
0.027538
0.025085
0.0236541
0.0224568
0.0218388
0.0211347
0.020812
0.0203691
0.0201766
0.0198871
0.0197475
0.0195652
0.0194606
0.0193331
0.0192546
0.0191628
0.0190984
0.0190294
0.0189701
0.0189079
0.0188461
0.0187717
0.018694
0.0185812
0.0184519
0.0183368
0.0193449
0.0191689
0.0191051
0.018998
0.0189621
0.0189003
0.0188756
0.0188384
0.0188208
0.0187996
0.0187858
0.0187733
0.0187615
0.0187552
0.0187463
0.0187435
0.0187341
0.0187359
0.0187258
0.0187299
0.0187211
0.0187246
0.0187186
0.0187209
0.0187171
0.0187183
0.0187145
0.018716
0.0187123
0.0187666
0.0187693
0.0187155
0.0187127
0.018714
0.0187114
0.0187107
0.0187129
0.0187095
0.0187122
0.0187089
0.0187117
0.0187085
0.0187111
0.0187087
0.0187108
0.018709
0.0187111
0.018709
0.0187116
0.0187094
0.0187124
0.0187092
0.0187122
0.0187092
0.0187125
0.0187098
0.0187128
0.0187101
0.0187136
0.0187655
0.018767
0.0187116
0.018711
0.0187106
0.0187133
0.0187097
0.0187125
0.0187088
0.0187119
0.0187086
0.0187117
0.0187089
0.0187115
0.0187092
0.0187113
0.0187094
0.0187113
0.018709
0.0187115
0.0187088
0.0187119
0.0187089
0.0187125
0.0187097
0.0187133
0.0187108
0.0187128
0.0187115
0.0187123
0.0187649
0.0187646
0.0187126
0.0187133
0.0187108
0.0187133
0.0187096
0.0187124
0.0187088
0.0187117
0.0187087
0.0187117
0.0187089
0.0187114
0.0187092
0.0187113
0.0187093
0.0187112
0.018709
0.0187114
0.0187088
0.0187119
0.0187089
0.0187124
0.0187097
0.0187133
0.0187107
0.0187128
0.0187117
0.0187123
0.0187649
0.0187627
0.0187108
0.0187111
0.0187133
0.0187103
0.0187127
0.0187091
0.0187119
0.0187085
0.0187115
0.0187085
0.0187113
0.0187088
0.018711
0.0187092
0.0187111
0.0187094
0.0187115
0.0187105
0.0187099
0.0187109
0.0187094
0.0187124
0.0187093
0.0187127
0.01871
0.0187131
0.0187099
0.0187131
0.0187662
0.0187639
0.0187121
0.0187134
0.0187109
0.0187133
0.0187095
0.0187122
0.0187087
0.0187116
0.0187086
0.0187116
0.0187089
0.0187114
0.0187092
0.0187112
0.0187094
0.0187112
0.018709
0.0187115
0.0187089
0.018712
0.0187091
0.0187126
0.0187098
0.0187132
0.0187107
0.0187123
0.0187119
0.0187123
0.0187649
0.018766
0.0187121
0.0187107
0.0187102
0.018712
0.0187095
0.0187125
0.0187089
0.018712
0.0187088
0.0187118
0.0187086
0.0187115
0.0187093
0.0187105
0.0187103
0.0187094
0.0187114
0.0187087
0.0187116
0.0187087
0.0187119
0.0187088
0.0187124
0.0187096
0.0187128
0.0187109
0.0187099
0.0187114
0.0187663
0.0187641
0.0187123
0.0187136
0.0187107
0.0187138
0.0187095
0.018713
0.0187087
0.0187124
0.0187083
0.0187119
0.0187083
0.0187115
0.0187088
0.0187114
0.0187091
0.018711
0.0187086
0.0187112
0.0187083
0.0187116
0.0187083
0.0187121
0.0187089
0.0187129
0.0187099
0.0187116
0.018711
0.018711
0.0187635
0.00241268
0.00308465
0.00389692
0.0041381
0.00299044
0.00127898
0.000940163
0.000899923
0.000474548
0.000149382
3.03305e-05
4.37079e-06
0.00969351
0.0113227
0.017665
8.65475e-05
0.00342907
0.00445308
0.00099246
0.00019488
0.000191161
0.000433358
0.00204566
0.00571154
0.0108092
0.0164918
0.0226554
0.0278385
0.0309433
0.0315113
0.0293915
0.0253217
0.0200243
0.0154083
0.0129667
0.0096386
0.00632138
0.00476175
0.0189426
0.0221341
0.0200818
0.0150868
0.0111767
0.0171538
0.0157315
0.0237266
0.0271996
0.0252743
0.021369
0.0182363
0.0169318
0.0145957
0.0135987
0.000330935
0.000485546
0.00167323
0.00556661
0.0103622
0.0145761
0.0168453
0.0179717
0.0334008
0.0480396
0.0535149
0.059364
0.0658871
0.0686458
0.0665299
0.0581409
0.0460938
0.0347357
0.0253508
0.0167158
0.00982733
0.0254689
0.0275945
0.0239532
0.0189695
0.0168333
0.0188006
0.0254377
0.0339073
0.0434386
0.0521706
0.0588893
0.0604213
0.0558884
0.0488136
0.0427975
0.0387422
0.0360426
0.0339634
0.0322414
0.0307637
0.0294631
0.0282332
0.027086
0.0258749
0.0247359
0.0234264
0.0220593
0.0202486
0.017796
0.015012
0.0294831
0.033778
0.0384388
0.0395781
0.0368395
0.0334143
0.0309812
0.029509
0.0284166
0.0276641
0.0269438
0.0265136
0.0260003
0.0257396
0.0253665
0.0251956
0.0249221
0.0247979
0.0246055
0.0244841
0.0243597
0.024231
0.0241461
0.0239978
0.0239254
0.0237492
0.0236522
0.0234338
0.0232624
0.0230329
0.0248572
0.0247643
0.0243626
0.024308
0.0240822
0.024058
0.0239355
0.0239262
0.0238518
0.0238456
0.0237999
0.0237927
0.0237662
0.0237579
0.023744
0.0237356
0.0237281
0.0237213
0.023717
0.0237123
0.0237089
0.0237074
0.0237031
0.0237051
0.0236985
0.0237016
0.0236916
0.0236942
0.0236835
0.0237427
0.0237516
0.0236907
0.023693
0.0236966
0.023697
0.0236992
0.0237009
0.0237001
0.0237002
0.0236999
0.0236999
0.0236998
0.0236996
0.0236997
0.0236995
0.0236997
0.0236998
0.0236999
0.0237003
0.0237008
0.0237007
0.0237002
0.0237
0.0236995
0.0236986
0.0236975
0.0236952
0.0236917
0.023691
0.0237471
0.0237484
0.0236905
0.023691
0.0236955
0.0236979
0.0236988
0.0236996
0.0236995
0.0236996
0.0236996
0.0237
0.0237001
0.0237002
0.0237001
0.0237002
0.0237001
0.0237001
0.0237
0.0237
0.0236999
0.0236999
0.0236997
0.0236999
0.0236999
0.0236994
0.0236979
0.0236959
0.0236922
0.023691
0.023746
0.0237463
0.0236915
0.0236926
0.0236959
0.0236979
0.0236987
0.0236995
0.0236994
0.0236995
0.0236997
0.0237
0.0237001
0.0237001
0.0237001
0.0237001
0.0237
0.0237
0.0237
0.0237
0.0236999
0.0236998
0.0236997
0.0236998