/*--------------------------------*- C++ -*----------------------------------*\
| =========                 |                                                 |
| \\      /  F ield         | OpenFOAM: The Open Source CFD Toolbox           |
|  \\    /   O peration     | Version:  2.1.1                                 |
|   \\  /    A nd           | Web:      www.OpenFOAM.org                      |
|    \\/     M anipulation  |                                                 |
\*---------------------------------------------------------------------------*/
FoamFile
{
    version     2.0;
    format      ascii;
    class       volScalarField;
    location    "0.001900000";
    object      H2O2;
}
// * * * * * * * * * * * * * * * * * * * * * * * * * * * * * * * * * * * * * //

dimensions      [0 0 0 0 0 0 0];

internalField   nonuniform List<scalar> 
12384
(
3.77178e-07
3.69119e-07
3.73875e-07
3.40367e-07
1.61411e-07
1.81636e-08
3.90545e-10
1.87082e-10
6.47704e-11
6.33486e-12
2.32329e-13
6.03898e-15
1.10983e-16
3.26074e-18
3.8821e-14
2.43994e-12
2.18052e-11
8.34686e-11
6.72737e-10
2.73222e-09
4.92643e-09
7.22779e-09
6.14827e-09
5.36152e-09
4.85788e-09
3.49733e-09
3.69001e-09
3.04762e-09
1.52832e-09
4.28444e-10
9.4061e-11
2.48164e-11
6.21698e-12
6.06099e-13
8.00977e-15
5.60223e-17
3.91961e-19
1.57442e-21
7.49774e-24
2.57868e-26
1.09577e-28
5.1549e-31
2.46682e-31
6.46483e-30
4.67389e-32
5.57977e-30
2.24234e-28
2.96881e-27
1.01387e-26
2.34994e-26
4.96027e-26
8.83929e-26
3.65092e-25
7.59739e-24
5.22041e-23
1.06327e-22
3.96049e-22
4.62067e-22
2.89574e-22
5.6194e-23
1.73816e-24
6.25425e-27
5.32277e-30
2.64587e-33
1.80024e-36
9.60093e-40
5.67368e-43
3.25347e-46
1.89445e-49
1.07577e-52
6.30847e-56
4.05626e-59
2.51068e-62
1.26897e-65
1.06341e-82
2.53925e-83
5.37068e-86
7.86049e-89
6.76382e-92
5.80043e-95
1.13735e-97
3.00271e-100
3.73319e-103
3.10862e-106
1.27181e-109
5.16891e-113
2.10879e-116
8.77128e-120
3.59156e-123
1.50959e-126
6.51776e-130
2.83373e-133
1.24299e-136
5.4417e-140
2.39603e-143
9.56608e-147
4.36822e-150
1.78676e-153
1.01936e-156
6.20706e-160
3.01612e-163
1.52957e-166
6.825e-170
2.74832e-173
7.40851e-189
2.51626e-190
1.97917e-194
3.71634e-199
4.21726e-204
3.50893e-209
2.38673e-214
1.37255e-219
6.97955e-225
3.14058e-230
1.29697e-235
4.95904e-241
1.70551e-246
5.45108e-252
1.60911e-257
4.76437e-263
1.40243e-268
3.9196e-274
1.06278e-279
2.79642e-285
7.0872e-291
1.70775e-296
3.9212e-302
8.71005e-308
1.85718e-313
3.91759e-319
0
0
0
0
0
0
0
0
0
0
0
0
0
0
0
0
0
0
0
0
0
0
0
0
0
0
0
0
0
0
0
0
0
0
0
0
0
0
0
0
0
0
0
0
0
0
0
0
0
0
0
0
0
0
0
0
0
0
0
0
0
0
0
0
0
0
0
0
0
0
0
0
0
0
0
0
0
0
0
0
0
0
0
0
0
0
0
0
0
0
0
0
0
0
0
0
0
0
0
0
0
0
0
0
0
0
0
0
0
0
0
0
0
0
0
0
0
0
0
0
0
0
0
0
0
0
0
0
0
0
0
0
0
0
0
0
0
0
0
0
0
0
0
0
0
0
0
0
0
0
0
0
0
0
0
0
0
0
0
0
0
0
0
0
0
0
0
0
0
0
0
0
0
0
0
0
0
0
0
0
0
0
0
0
0
0
0
0
0
0
0
0
0
0
0
0
0
0
0
0
0
0
0
0
0
0
0
0
0
0
0
0
0
0
0
0
0
0
0
0
0
0
0
0
0
0
0
0
0
0
0
0
0
0
0
0
0
0
0
0
0
0
0
0
3.61951e-07
3.49972e-07
2.92921e-07
3.69211e-07
1.16763e-07
1.52755e-08
3.16127e-09
1.61102e-09
5.00181e-10
5.91011e-11
7.64037e-12
2.61472e-13
8.89247e-15
1.69252e-16
1.2518e-12
7.73736e-11
8.29281e-10
3.32017e-09
1.45658e-08
2.84033e-08
5.22803e-08
6.73212e-08
6.78971e-08
6.22098e-08
6.20736e-08
4.76855e-08
4.47772e-08
3.41695e-08
1.81718e-08
9.81114e-09
6.14494e-09
1.67697e-09
1.31215e-10
9.65546e-12
1.46032e-13
1.29582e-15
3.97867e-18
6.23786e-21
4.4923e-23
1.62706e-25
6.48714e-28
1.25704e-29
3.36311e-29
1.02433e-27
7.71583e-30
5.6597e-28
1.18012e-26
3.35386e-25
4.4452e-24
2.86527e-23
1.09291e-22
2.02456e-22
3.21565e-22
4.46945e-21
1.55761e-20
3.51804e-20
1.46058e-19
2.61199e-19
2.74243e-19
2.4218e-19
1.43197e-20
1.63684e-23
2.73146e-27
2.82683e-31
1.12073e-34
4.6235e-39
2.20606e-42
1.05674e-44
4.69092e-48
3.34745e-51
2.28584e-54
1.07354e-57
4.35388e-61
2.43617e-64
7.46084e-80
7.23206e-81
8.75442e-84
1.34949e-86
1.02682e-89
1.04156e-92
1.40804e-95
3.64843e-98
4.01967e-101
3.2014e-104
3.8601e-108
8.04538e-112
4.48412e-115
2.68796e-118
1.6953e-121
9.95744e-125
5.77102e-128
1.7018e-131
5.10638e-135
1.6953e-138
6.18306e-142
2.37602e-145
9.49667e-149
3.31202e-151
2.59748e-153
1.3926e-156
6.43021e-160
2.6406e-163
1.02496e-166
3.64734e-170
3.01066e-183
1.09328e-184
9.11384e-189
1.76124e-193
2.04855e-198
1.84209e-203
1.34535e-208
8.3927e-214
4.57983e-219
2.22993e-224
9.78866e-230
4.01644e-235
1.4698e-240
4.79078e-246
1.47548e-251
4.43185e-257
1.29156e-262
3.56346e-268
9.61575e-274
2.45641e-279
6.078e-285
1.40816e-290
3.10172e-296
6.52647e-302
1.31279e-307
2.59409e-313
4.98157e-319
0
0
0
0
0
0
0
0
0
0
0
0
0
0
0
0
0
0
0
0
0
0
0
0
0
0
0
0
0
0
0
0
0
0
0
0
0
0
0
0
0
0
0
0
0
0
0
0
0
0
0
0
0
0
0
0
0
0
0
0
0
0
0
0
0
0
0
0
0
0
0
0
0
0
0
0
0
0
0
0
0
0
0
0
0
0
0
0
0
0
0
0
0
0
0
0
0
0
0
0
0
0
0
0
0
0
0
0
0
0
0
0
0
0
0
0
0
0
0
0
0
0
0
0
0
0
0
0
0
0
0
0
0
0
0
0
0
0
0
0
0
0
0
0
0
0
0
0
0
0
0
0
0
0
0
0
0
0
0
0
0
0
0
0
0
0
0
0
0
0
0
0
0
0
0
0
0
0
0
0
0
0
0
0
0
0
0
0
0
0
0
0
0
0
0
0
0
0
0
0
0
0
0
0
0
0
0
0
0
0
0
0
0
0
0
0
0
0
0
0
0
0
0
0
0
0
0
0
0
0
0
0
0
0
0
0
0
0
0
0
0
0
0
2.6646e-07
1.27101e-07
7.07129e-08
9.00267e-08
7.34793e-09
2.05855e-09
1.68237e-09
1.34938e-09
9.12815e-10
3.47327e-10
3.82285e-11
1.65661e-12
1.50319e-13
6.85763e-15
1.32148e-11
2.12892e-09
2.38114e-08
4.78793e-08
1.07821e-07
2.94973e-07
3.44714e-07
3.63328e-07
3.52277e-07
3.49487e-07
3.45806e-07
3.51833e-07
3.50457e-07
3.02045e-07
2.31014e-07
2.31483e-07
1.54735e-07
3.2472e-08
9.48294e-09
2.92912e-09
6.8605e-10
7.17491e-12
1.09748e-16
1.15679e-20
3.80785e-23
1.43232e-24
3.545e-26
2.8798e-27
7.74872e-27
1.74976e-25
4.27176e-28
2.74535e-26
5.96707e-24
5.20253e-22
7.97104e-21
1.56183e-20
1.68259e-20
1.51915e-20
2.90861e-20
1.27214e-18
8.72437e-18
5.25078e-17
1.25111e-16
7.42587e-17
1.38378e-17
2.49554e-18
2.54986e-19
3.93497e-21
1.92501e-22
8.14064e-25
1.55094e-28
1.00352e-33
9.41728e-38
9.40777e-42
1.54431e-46
1.34471e-50
2.83046e-53
6.0259e-56
1.02675e-58
4.68673e-61
1.01647e-77
5.56983e-78
3.45775e-80
1.66051e-82
2.81114e-85
5.12216e-88
5.28028e-91
9.83266e-94
5.92852e-97
2.18652e-100
2.73328e-105
8.63739e-109
2.43197e-112
7.8391e-116
2.48689e-119
8.26384e-123
2.63707e-126
4.35771e-131
1.44219e-134
6.13363e-138
2.46059e-141
1.05825e-144
5.56362e-148
5.82186e-150
7.35953e-152
6.8467e-155
4.89433e-158
2.87526e-161
1.05677e-164
2.07185e-168
9.5979e-180
3.33851e-181
1.93126e-185
3.234e-190
3.46036e-195
2.46393e-200
1.64847e-205
8.80183e-211
4.36e-216
2.00233e-221
8.6718e-227
3.71097e-232
1.46667e-237
5.55215e-243
1.97002e-248
7.07702e-254
2.25884e-259
6.8409e-265
1.91672e-270
5.4921e-276
1.39108e-281
3.51047e-287
7.59458e-293
1.68942e-298
3.13003e-304
6.27889e-310
1.06537e-315
2.06519e-321
0
0
0
0
0
0
0
0
0
0
0
0
0
0
0
0
0
0
0
0
0
0
0
0
0
0
0
0
0
0
0
0
0
0
0
0
0
0
0
0
0
0
0
0
0
0
0
0
0
0
0
0
0
0
0
0
0
0
0
0
0
0
0
0
0
0
0
0
0
0
0
0
0
0
0
0
0
0
0
0
0
0
0
0
0
0
0
0
0
0
0
0
0
0
0
0
0
0
0
0
0
0
0
0
0
0
0
0
0
0
0
0
0
0
0
0
0
0
0
0
0
0
0
0
0
0
0
0
0
0
0
0
0
0
0
0
0
0
0
0
0
0
0
0
0
0
0
0
0
0
0
0
0
0
0
0
0
0
0
0
0
0
0
0
0
0
0
0
0
0
0
0
0
0
0
0
0
0
0
0
0
0
0
0
0
0
0
0
0
0
0
0
0
0
0
0
0
0
0
0
0
0
0
0
0
0
0
0
0
0
0
0
0
0
0
0
0
0
0
0
0
0
0
0
0
0
0
0
0
0
0
0
0
0
0
0
0
0
0
0
0
0
7.1754e-08
3.08622e-08
1.37789e-08
7.86217e-09
2.98784e-09
3.60215e-09
2.84058e-09
5.43644e-09
2.40652e-09
1.16905e-09
3.45447e-10
4.42038e-11
1.33841e-12
7.91264e-14
9.20512e-11
1.70078e-08
2.88742e-07
3.37925e-07
2.82073e-07
1.31595e-07
1.02428e-07
7.31751e-08
9.48978e-08
7.0162e-08
4.28936e-08
2.47259e-08
2.90527e-08
6.5242e-08
9.50211e-08
1.40658e-07
3.37317e-07
3.0555e-07
2.67131e-07
2.39708e-07
5.70244e-08
6.9614e-09
1.22407e-11
1.95635e-16
7.86037e-20
5.45515e-23
1.6275e-24
2.91103e-25
1.79941e-24
3.78538e-23
3.80757e-26
2.23778e-23
9.5905e-21
2.00156e-19
4.66506e-19
2.00939e-18
1.73755e-17
5.9676e-17
9.75445e-17
9.46627e-16
6.62439e-15
6.85255e-14
3.47467e-13
7.88189e-13
2.37909e-13
7.67e-15
1.48781e-16
3.70252e-19
2.49445e-21
1.82957e-23
3.19999e-25
2.81867e-27
5.51176e-31
4.11126e-35
2.02551e-40
6.71618e-45
6.30885e-50
7.12627e-54
1.66445e-56
5.57361e-58
7.60222e-73
1.85804e-72
2.06325e-74
3.07351e-77
1.21904e-80
4.21921e-84
4.91595e-87
2.499e-89
1.18525e-91
1.11167e-94
3.76986e-98
8.90299e-102
1.99637e-105
4.64012e-109
1.10501e-112
2.71454e-116
7.95742e-120
8.52061e-125
2.65439e-128
8.02926e-132
2.96574e-135
1.09368e-138
3.95216e-142
1.42101e-145
4.25161e-148
2.94184e-151
8.53782e-155
2.09919e-158
4.3711e-162
4.61896e-166
4.44395e-173
8.4308e-175
2.36601e-179
2.85937e-184
2.90437e-189
1.42591e-194
5.7024e-200
2.59065e-205
1.08801e-210
4.42589e-216
1.72415e-221
6.48307e-227
2.50459e-232
9.18339e-238
3.8031e-243
1.45524e-248
5.84986e-254
1.97662e-259
7.01552e-265
2.17718e-270
6.48332e-276
1.69429e-281
4.12141e-287
8.86077e-293
1.72578e-298
2.94099e-304
4.47068e-310
6.94643e-316
1.15611e-321
0
0
0
0
0
0
0
0
0
0
0
0
0
0
0
0
0
0
0
0
0
0
0
0
0
0
0
0
0
0
0
0
0
0
0
0
0
0
0
0
0
0
0
0
0
0
0
0
0
0
0
0
0
0
0
0
0
0
0
0
0
0
0
0
0
0
0
0
0
0
0
0
0
0
0
0
0
0
0
0
0
0
0
0
0
0
0
0
0
0
0
0
0
0
0
0
0
0
0
0
0
0
0
0
0
0
0
0
0
0
0
0
0
0
0
0
0
0
0
0
0
0
0
0
0
0
0
0
0
0
0
0
0
0
0
0
0
0
0
0
0
0
0
0
0
0
0
0
0
0
0
0
0
0
0
0
0
0
0
0
0
0
0
0
0
0
0
0
0
0
0
0
0
0
0
0
0
0
0
0
0
0
0
0
0
0
0
0
0
0
0
0
0
0
0
0
0
0
0
0
0
0
0
0
0
0
0
0
0
0
0
0
0
0
0
0
0
0
0
0
0
0
0
0
0
0
0
0
0
0
0
0
0
0
0
0
0
0
0
0
0
2.90393e-08
4.80939e-08
3.60113e-08
2.5381e-08
2.9006e-07
3.13857e-07
1.3757e-07
9.78604e-08
5.89678e-08
3.22483e-08
2.12298e-09
1.02256e-09
1.5184e-10
8.87386e-13
8.6984e-10
5.82988e-08
1.30001e-07
1.73475e-07
6.89165e-08
4.2582e-08
2.84517e-08
2.4744e-08
1.82883e-08
1.04915e-08
5.25777e-09
3.70595e-09
3.78605e-09
5.87007e-09
8.22261e-09
1.06265e-08
3.89349e-08
1.34641e-07
2.75771e-07
3.27431e-07
3.38018e-07
8.29983e-08
5.82141e-09
5.91351e-12
1.5717e-15
6.62505e-19
6.06458e-22
2.64255e-23
2.75468e-22
9.25944e-21
2.27826e-23
3.54122e-20
5.35922e-18
5.64765e-18
8.08402e-17
1.68121e-15
1.46367e-14
2.50163e-14
2.37771e-14
6.79161e-13
4.47862e-12
1.05607e-10
3.11872e-10
4.01858e-10
1.90087e-10
3.27376e-11
8.07601e-13
1.31135e-15
2.20851e-18
2.05678e-21
5.9218e-24
6.08779e-26
1.28683e-27
2.07423e-30
3.14334e-34
1.77138e-38
9.04803e-44
3.77031e-49
6.42933e-54
2.66508e-55
8.00049e-68
7.7541e-68
2.64438e-71
8.11482e-75
4.40113e-78
1.96903e-81
1.13922e-84
2.34404e-87
4.48188e-90
1.96955e-92
1.81879e-94
3.57518e-97
1.39762e-100
4.30611e-104
1.257e-107
3.7946e-111
1.18732e-114
3.68179e-118
1.26488e-121
4.05649e-125
1.39915e-128
4.57827e-132
1.57399e-135
4.67458e-139
1.48308e-142
3.90044e-146
8.53938e-150
1.67622e-153
2.22276e-157
2.23183e-161
9.12149e-168
1.98057e-169
9.72864e-173
8.98656e-178
1.96679e-182
4.91417e-188
1.30023e-193
3.98899e-199
1.45986e-204
5.15756e-210
1.92108e-215
6.3725e-221
2.29118e-226
7.6677e-232
2.82465e-237
1.00922e-242
4.08298e-248
1.75059e-253
7.26283e-259
2.91328e-264
1.04558e-269
3.24699e-275
9.1151e-281
2.186e-286
4.52387e-292
7.35821e-298
1.01629e-303
1.3125e-309
1.87428e-315
2.93475e-321
0
0
0
0
0
0
0
0
0
0
0
0
0
0
0
0
0
0
0
0
0
0
0
0
0
0
0
0
0
0
0
0
0
0
0
0
0
0
0
0
0
0
0
0
0
0
0
0
0
0
0
0
0
0
0
0
0
0
0
0
0
0
0
0
0
0
0
0
0
0
0
0
0
0
0
0
0
0
0
0
0
0
0
0
0
0
0
0
0
0
0
0
0
0
0
0
0
0
0
0
0
0
0
0
0
0
0
0
0
0
0
0
0
0
0
0
0
0
0
0
0
0
0
0
0
0
0
0
0
0
0
0
0
0
0
0
0
0
0
0
0
0
0
0
0
0
0
0
0
0
0
0
0
0
0
0
0
0
0
0
0
0
0
0
0
0
0
0
0
0
0
0
0
0
0
0
0
0
0
0
0
0
0
0
0
0
0
0
0
0
0
0
0
0
0
0
0
0
0
0
0
0
0
0
0
0
0
0
0
0
0
0
0
0
0
0
0
0
0
0
0
0
0
0
0
0
0
0
0
0
0
0
0
0
0
0
0
0
0
0
1.36735e-07
3.06196e-07
3.64949e-07
3.94512e-07
6.48153e-07
5.76218e-07
4.33995e-07
3.11561e-07
2.44818e-07
1.84096e-07
7.8848e-08
2.15294e-08
1.57922e-09
3.21029e-11
5.27551e-09
2.05575e-07
8.95816e-08
3.97727e-08
3.87892e-08
5.28856e-08
4.76923e-08
2.51058e-08
1.18293e-08
5.50923e-09
2.5877e-09
1.34585e-09
1.04166e-09
1.1157e-09
1.29973e-09
1.7557e-09
3.89345e-09
1.14321e-08
4.20062e-08
7.2061e-08
1.47368e-07
1.822e-07
7.68237e-08
5.39285e-09
1.70278e-11
1.99626e-14
6.58336e-18
9.73318e-21
2.56774e-20
2.26587e-18
3.89648e-20
3.03021e-17
4.10388e-16
6.19798e-16
2.94051e-14
4.78434e-13
5.88684e-12
1.12141e-11
9.3115e-11
1.57947e-09
8.18764e-09
1.40115e-08
1.93224e-08
1.94822e-08
1.62574e-08
6.38657e-09
7.07659e-10
4.30668e-12
1.1558e-14
3.43654e-18
1.44512e-21
2.29069e-24
1.66981e-26
2.47834e-28
2.22856e-30
6.37447e-34
5.71831e-38
6.14643e-43
8.23077e-49
5.44782e-52
2.34151e-63
1.13156e-64
4.36961e-68
6.84697e-71
3.87535e-74
1.51609e-77
7.20088e-81
4.98981e-84
3.02212e-87
2.96996e-90
7.66309e-93
4.07146e-95
2.73389e-97
4.64871e-100
2.56334e-103
1.12461e-106
4.43816e-110
1.71424e-113
6.54323e-117
2.40485e-120
9.34581e-124
3.27218e-127
1.2206e-130
3.82649e-134
1.21593e-137
3.41138e-141
8.32552e-145
1.51345e-148
2.2081e-152
1.80149e-156
4.86008e-163
8.48297e-165
5.202e-168
2.06247e-171
1.90369e-175
3.22758e-181
3.95896e-187
6.3132e-193
1.66564e-198
5.51376e-204
1.75093e-209
5.4544e-215
1.70155e-220
5.40584e-226
1.74056e-231
5.86201e-237
2.04204e-242
7.81415e-248
3.05416e-253
1.38886e-258
6.31321e-264
2.56181e-269
8.97948e-275
2.60382e-280
5.89938e-286
9.65615e-292
1.21595e-297
1.40544e-303
1.71594e-309
2.12899e-315
0
0
0
0
0
0
0
0
0
0
0
0
0
0
0
0
0
0
0
0
0
0
0
0
0
0
0
0
0
0
0
0
0
0
0
0
0
0
0
0
0
0
0
0
0
0
0
0
0
0
0
0
0
0
0
0
0
0
0
0
0
0
0
0
0
0
0
0
0
0
0
0
0
0
0
0
0
0
0
0
0
0
0
0
0
0
0
0
0
0
0
0
0
0
0
0
0
0
0
0
0
0
0
0
0
0
0
0
0
0
0
0
0
0
0
0
0
0
0
0
0
0
0
0
0
0
0
0
0
0
0
0
0
0
0
0
0
0
0
0
0
0
0
0
0
0
0
0
0
0
0
0
0
0
0
0
0
0
0
0
0
0
0
0
0
0
0
0
0
0
0
0
0
0
0
0
0
0
0
0
0
0
0
0
0
0
0
0
0
0
0
0
0
0
0
0
0
0
0
0
0
0
0
0
0
0
0
0
0
0
0
0
0
0
0
0
0
0
0
0
0
0
0
0
0
0
0
0
0
0
0
0
0
0
0
0
0
0
0
0
6.62653e-07
7.36591e-07
7.1837e-07
6.70095e-07
5.01389e-07
4.34284e-07
3.79777e-07
3.63724e-07
3.62261e-07
3.20511e-07
2.11404e-07
1.52139e-07
8.20426e-09
1.5624e-10
1.1689e-08
3.20319e-07
7.96741e-08
2.95364e-08
5.6676e-08
1.74079e-07
1.89284e-07
7.28172e-08
2.62918e-08
9.95846e-09
3.78924e-09
1.37604e-09
6.3295e-10
4.37073e-10
4.48191e-10
5.43747e-10
1.003e-09
2.37853e-09
7.70173e-09
1.8433e-08
2.54958e-08
6.0549e-08
1.18685e-07
7.44226e-08
9.05547e-09
1.21105e-10
2.71878e-13
1.22358e-16
2.77782e-18
4.25929e-16
8.23451e-17
8.22672e-15
3.21448e-14
1.08017e-13
5.48975e-12
9.07488e-11
1.94671e-09
7.31832e-09
1.79629e-08
4.59349e-08
6.67294e-08
8.53477e-08
4.09456e-08
1.91224e-08
1.14771e-08
6.15848e-09
1.76546e-09
3.99167e-10
1.79169e-11
9.73097e-15
2.27525e-18
8.68696e-22
1.07862e-24
4.87591e-27
4.90886e-29
5.83803e-31
7.40625e-34
8.91134e-38
9.23939e-43
9.41483e-48
1.70997e-59
1.77343e-61
1.96766e-64
6.80737e-68
9.75773e-72
5.19599e-75
4.32608e-77
2.81304e-80
9.4009e-84
3.20299e-87
2.0873e-90
4.3423e-93
1.94411e-95
7.69865e-98
1.81692e-100
2.83687e-103
2.55933e-106
1.60169e-109
8.54394e-113
4.19613e-116
1.94254e-119
8.54168e-123
3.72199e-126
1.46404e-129
5.47934e-133
1.77715e-136
5.13167e-140
1.04601e-143
1.43355e-147
1.01005e-151
3.11867e-159
1.35808e-161
6.24883e-165
6.55134e-168
5.6657e-171
1.10995e-174
1.32636e-180
1.17525e-186
1.82184e-192
4.90175e-198
1.4912e-203
4.17639e-209
1.20537e-214
3.40583e-220
1.0151e-225
3.09033e-231
9.96785e-237
3.38784e-242
1.2124e-247
4.83878e-253
2.13665e-258
1.06016e-263
5.02163e-269
1.89497e-274
4.95736e-280
8.55499e-286
1.08065e-291
1.19053e-297
1.3207e-303
1.52546e-309
0
0
0
0
0
0
0
0
0
0
0
0
0
0
0
0
0
0
0
0
0
0
0
0
0
0
0
0
0
0
0
0
0
0
0
0
0
0
0
0
0
0
0
0
0
0
0
0
0
0
0
0
0
0
0
0
0
0
0
0
0
0
0
0
0
0
0
0
0
0
0
0
0
0
0
0
0
0
0
0
0
0
0
0
0
0
0
0
0
0
0
0
0
0
0
0
0
0
0
0
0
0
0
0
0
0
0
0
0
0
0
0
0
0
0
0
0
0
0
0
0
0
0
0
0
0
0
0
0
0
0
0
0
0
0
0
0
0
0
0
0
0
0
0
0
0
0
0
0
0
0
0
0
0
0
0
0
0
0
0
0
0
0
0
0
0
0
0
0
0
0
0
0
0
0
0
0
0
0
0
0
0
0
0
0
0
0
0
0
0
0
0
0
0
0
0
0
0
0
0
0
0
0
0
0
0
0
0
0
0
0
0
0
0
0
0
0
0
0
0
0
0
0
0
0
0
0
0
0
0
0
0
0
0
0
0
0
0
0
0
6.08743e-07
5.37532e-07
4.42779e-07
3.84541e-07
3.18957e-07
2.5732e-07
2.68445e-07
2.73648e-07
3.42325e-07
3.54699e-07
2.50007e-07
1.27322e-07
8.32593e-09
4.25494e-10
2.6391e-08
3.10335e-07
1.14152e-07
6.1744e-08
2.67964e-07
3.46494e-07
3.45801e-07
3.39643e-07
1.735e-07
4.55305e-08
1.08966e-08
3.01483e-09
1.07894e-09
4.4099e-10
2.53253e-10
2.33973e-10
3.05365e-10
6.28421e-10
1.76212e-09
4.27513e-09
6.15832e-09
1.28962e-08
3.70205e-08
5.67661e-08
9.71631e-08
1.69822e-08
1.41175e-09
4.5279e-12
1.75221e-14
7.73722e-14
1.14936e-13
1.29436e-12
1.45538e-11
6.9083e-11
7.80632e-10
5.48343e-09
1.14813e-08
3.63607e-08
9.1024e-08
3.06705e-07
2.99527e-07
1.87898e-07
4.73024e-08
1.16858e-08
4.92759e-09
2.8912e-09
2.48053e-09
9.53428e-10
1.27001e-10
8.24405e-12
3.28207e-15
6.99005e-19
3.13767e-22
3.11723e-25
1.08799e-27
8.34282e-30
7.71065e-32
3.51748e-34
2.42579e-38
7.06918e-44
5.66051e-56
5.1571e-58
2.46381e-61
2.41596e-65
2.7734e-70
3.28701e-73
7.26099e-74
5.35083e-77
1.74811e-80
5.59893e-84
2.37403e-87
1.82079e-90
3.48923e-93
9.24584e-96
2.41075e-98
3.91487e-101
5.17272e-104
6.00885e-107
5.37526e-110
5.58051e-113
4.17268e-116
2.98754e-119
1.84407e-122
9.94418e-126
4.76642e-129
1.98762e-132
7.20053e-136
1.90356e-139
3.09855e-143
2.28786e-147
5.89165e-156
1.52467e-158
2.26536e-162
1.05836e-165
1.14816e-168
1.52649e-171
5.86375e-175
7.12089e-181
8.15038e-187
1.9067e-192
5.3481e-198
1.40359e-203
3.49973e-209
8.8803e-215
2.34288e-220
6.52069e-226
1.87463e-231
5.77682e-237
1.86879e-242
6.62679e-248
2.54444e-253
1.08888e-258
5.21112e-264
2.33288e-269
7.15896e-275
1.41972e-280
1.99993e-286
2.32156e-292
2.60428e-298
2.91608e-304
3.45846e-323
0
0
0
0
0
0
0
0
0
0
0
0
0
0
0
0
0
0
0
0
0
0
0
0
0
0
0
0
0
0
0
0
0
0
0
0
0
0
0
0
0
0
0
0
0
0
0
0
0
0
0
0
0
0
0
0
0
0
0
0
0
0
0
0
0
0
0
0
0
0
0
0
0
0
0
0
0
0
0
0
0
0
0
0
0
0
0
0
0
0
0
0
0
0
0
0
0
0
0
0
0
0
0
0
0
0
0
0
0
0
0
0
0
0
0
0
0
0
0
0
0
0
0
0
0
0
0
0
0
0
0
0
0
0
0
0
0
0
0
0
0
0
0
0
0
0
0
0
0
0
0
0
0
0
0
0
0
0
0
0
0
0
0
0
0
0
0
0
0
0
0
0
0
0
0
0
0
0
0
0
0
0
0
0
0
0
0
0
0
0
0
0
0
0
0
0
0
0
0
0
0
0
0
0
0
0
0
0
0
0
0
0
0
0
0
0
0
0
0
0
0
0
0
0
0
0
0
0
0
0
0
0
0
0
0
0
0
0
0
3.08181e-07
2.25274e-07
1.72479e-07
1.75532e-07
1.51313e-07
1.20257e-07
5.89996e-08
4.40636e-08
6.26588e-08
3.33645e-07
2.02923e-07
4.87498e-08
4.69072e-09
3.45929e-09
4.6276e-08
1.63222e-07
3.2168e-07
2.89171e-07
1.47801e-07
1.8572e-07
3.37702e-07
2.34115e-07
2.45675e-07
3.05734e-07
3.48366e-07
2.76013e-07
6.27837e-08
1.15018e-08
2.34069e-09
6.04864e-10
2.46435e-10
1.39587e-10
1.39244e-10
2.25831e-10
4.79907e-10
1.08333e-09
2.03263e-09
4.54983e-09
9.94147e-09
1.69067e-08
2.2068e-09
1.53103e-07
8.1735e-08
8.5355e-09
2.70052e-10
1.17204e-11
9.05111e-12
5.88796e-12
1.57902e-11
3.4362e-11
2.00182e-10
1.02756e-09
3.74759e-09
1.92036e-08
7.19472e-08
2.40168e-07
3.46241e-07
2.75432e-07
1.34103e-07
2.30515e-08
3.86771e-09
1.00048e-09
5.64898e-10
5.53276e-10
5.7035e-10
3.23955e-10
1.56224e-10
2.21903e-11
8.04287e-13
3.51079e-16
8.82548e-20
4.0597e-23
4.01212e-26
9.97132e-29
6.23139e-31
5.16856e-33
5.05178e-35
3.37593e-40
2.50941e-45
2.88253e-50
3.71858e-54
1.72464e-57
4.32711e-61
1.19538e-64
1.15829e-67
2.10599e-69
9.5234e-71
3.72331e-74
1.4418e-77
6.0067e-81
2.33145e-84
1.361e-87
1.31328e-90
2.11255e-93
3.7379e-96
5.87747e-99
7.50134e-102
8.29343e-105
7.18257e-108
6.96951e-111
5.403e-114
4.76471e-117
3.55469e-120
2.90985e-123
2.21326e-126
1.86996e-129
1.39776e-132
9.4518e-136
3.60131e-139
5.30371e-143
2.07453e-146
1.55481e-149
2.42056e-152
6.13564e-156
9.04671e-160
3.17197e-163
2.40149e-166
2.8349e-169
2.79129e-172
5.38077e-176
4.5582e-182
8.68609e-188
2.04265e-193
4.78164e-199
1.04722e-204
2.27709e-210
5.16084e-216
1.24582e-221
3.29949e-227
9.1486e-233
2.77062e-238
8.77608e-244
2.99776e-249
1.11728e-254
4.555e-260
2.09681e-265
8.44274e-271
2.34391e-276
4.34595e-282
7.56717e-288
9.47971e-294
1.11153e-299
7.20613e-306
7.4764e-312
6.4922e-318
9.88131e-324
0
0
0
0
0
0
0
0
0
0
0
0
0
0
0
0
0
0
0
0
0
0
0
0
0
0
0
0
0
0
0
0
0
0
0
0
0
0
0
0
0
0
0
0
0
0
0
0
0
0
0
0
0
0
0
0
0
0
0
0
0
0
0
0
0
0
0
0
0
0
0
0
0
0
0
0
0
0
0
0
0
0
0
0
0
0
0
0
0
0
0
0
0
0
0
0
0
0
0
0
0
0
0
0
0
0
0
0
0
0
0
0
0
0
0
0
0
0
0
0
0
0
0
0
0
0
0
0
0
0
0
0
0
0
0
0
0
0
0
0
0
0
0
0
0
0
0
0
0
0
0
0
0
0
0
0
0
0
0
0
0
0
0
0
0
0
0
0
0
0
0
0
0
0
0
0
0
0
0
0
0
0
0
0
0
0
0
0
0
0
0
0
0
0
0
0
0
0
0
0
0
0
0
0
0
0
0
0
0
0
0
0
0
0
0
0
0
0
0
0
0
0
0
0
0
0
0
0
0
0
0
0
0
0
0
0
0
0
0
0
0
0
0
0
0
0
0
0
0
0
0
0
0
0
6.3056e-08
5.35464e-08
4.17621e-08
5.24407e-08
5.42943e-08
4.97123e-08
1.59694e-08
6.06025e-09
2.66291e-09
9.08248e-09
2.83178e-07
1.04197e-07
1.36378e-08
1.36265e-08
8.54951e-08
1.23426e-07
2.73244e-07
3.54153e-07
2.74666e-07
3.45573e-07
2.22334e-07
2.30454e-07
2.80408e-07
3.16028e-07
3.39335e-07
3.4738e-07
1.99105e-07
2.62606e-08
3.99763e-09
6.80505e-10
2.52196e-10
1.285e-10
1.0056e-10
9.97258e-11
1.34718e-10
2.6414e-10
5.29615e-10
1.2305e-09
2.76517e-09
4.68285e-09
4.3965e-09
2.58851e-08
7.54779e-09
2.67776e-07
3.10352e-08
3.98631e-09
1.75953e-09
1.42636e-09
1.1517e-09
1.24405e-09
4.23142e-09
1.71461e-08
5.97079e-08
2.56085e-07
2.84513e-07
1.69635e-07
5.13757e-08
1.59515e-08
6.02747e-09
1.39436e-09
3.17437e-10
1.02972e-10
5.47185e-11
5.85887e-11
8.54668e-11
1.13626e-10
6.4438e-11
1.16483e-11
1.89434e-12
5.02261e-15
3.2709e-18
1.79094e-21
1.0849e-24
1.21848e-27
2.44337e-30
1.18668e-32
7.71321e-35
9.99594e-37
1.23629e-40
7.8071e-45
5.19905e-49
4.7309e-53
5.50598e-57
3.00315e-60
5.01046e-63
3.45749e-65
1.88871e-68
1.53217e-71
7.53362e-75
4.16718e-78
2.20994e-81
1.25284e-84
8.49559e-88
6.89517e-91
8.55698e-94
1.07721e-96
1.2418e-99
1.13614e-102
1.09937e-105
8.63479e-109
7.4553e-112
5.57301e-115
4.35853e-118
3.30019e-121
2.31115e-124
1.89436e-127
1.33624e-130
1.19633e-133
9.69557e-137
1.39759e-139
7.16613e-143
2.591e-146
1.06939e-149
2.32332e-153
4.85707e-157
1.44278e-160
8.83207e-164
8.21038e-167
6.46225e-170
4.37368e-173
1.29791e-177
4.8753e-183
1.10172e-188
2.03043e-194
3.28889e-200
4.95208e-206
7.97329e-212
1.37839e-217
3.02086e-223
7.10881e-229
1.8754e-234
5.26339e-240
1.57191e-245
5.16712e-251
1.79737e-256
7.12877e-262
2.87061e-267
1.00063e-272
2.21321e-278
3.7913e-284
5.03301e-290
6.38521e-296
5.95976e-302
6.51342e-308
5.94514e-314
7.45002e-320
0
0
0
0
0
0
0
0
0
0
0
0
0
0
0
0
0
0
0
0
0
0
0
0
0
0
0
0
0
0
0
0
0
0
0
0
0
0
0
0
0
0
0
0
0
0
0
0
0
0
0
0
0
0
0
0
0
0
0
0
0
0
0
0
0
0
0
0
0
0
0
0
0
0
0
0
0
0
0
0
0
0
0
0
0
0
0
0
0
0
0
0
0
0
0
0
0
0
0
0
0
0
0
0
0
0
0
0
0
0
0
0
0
0
0
0
0
0
0
0
0
0
0
0
0
0
0
0
0
0
0
0
0
0
0
0
0
0
0
0
0
0
0
0
0
0
0
0
0
0
0
0
0
0
0
0
0
0
0
0
0
0
0
0
0
0
0
0
0
0
0
0
0
0
0
0
0
0
0
0
0
0
0
0
0
0
0
0
0
0
0
0
0
0
0
0
0
0
0
0
0
0
0
0
0
0
0
0
0
0
0
0
0
0
0
0
0
0
0
0
0
0
0
0
0
0
0
0
0
0
0
0
0
0
0
0
0
0
0
0
0
0
0
0
0
0
0
0
0
0
0
0
0
0
5.4994e-09
6.79201e-09
6.13894e-09
6.94246e-09
8.78328e-09
8.49868e-09
2.59709e-09
6.45349e-10
3.07063e-10
6.45812e-10
6.32063e-09
2.10515e-07
3.47763e-07
2.03017e-07
3.27468e-07
2.56214e-07
2.63872e-07
3.5509e-07
3.41838e-07
2.37596e-07
2.63228e-07
3.38258e-07
1.92464e-07
2.04799e-07
3.11474e-07
2.84269e-07
1.63488e-07
1.79281e-08
2.25887e-09
4.47779e-10
1.47732e-10
1.02755e-10
6.57921e-11
5.88202e-11
5.85567e-11
8.48947e-11
1.23252e-10
2.8006e-10
6.34679e-10
1.3238e-09
3.02157e-09
1.03106e-08
1.66789e-08
4.67499e-08
2.33991e-08
2.70473e-07
9.97623e-08
5.23787e-08
5.10587e-08
6.01979e-08
1.07054e-07
2.09319e-07
3.21904e-07
3.02069e-07
6.51105e-08
1.11978e-08
2.53165e-09
1.10472e-09
5.16065e-10
2.42986e-10
8.53774e-11
2.6552e-11
1.82923e-11
1.85591e-11
2.35487e-11
2.89646e-11
2.4528e-11
7.2317e-12
1.88454e-12
7.41749e-14
3.35298e-17
1.73084e-20
9.82389e-24
7.94005e-27
8.99871e-30
1.23589e-32
3.67952e-35
1.41529e-37
4.13222e-40
6.91928e-43
4.49039e-46
2.03462e-49
7.59631e-53
3.55307e-56
1.38062e-59
4.47043e-63
1.63614e-66
6.38544e-70
2.57572e-73
1.24601e-76
6.72458e-80
4.0977e-83
2.75629e-86
1.98365e-89
1.53971e-92
1.33999e-95
1.4052e-98
1.23539e-101
1.16285e-104
9.55324e-108
7.27359e-111
6.20924e-114
4.81784e-117
3.58203e-120
2.57185e-123
2.27038e-126
1.69373e-129
1.44154e-132
1.08702e-135
9.61708e-139
7.18457e-142
3.26636e-145
1.01895e-148
2.55332e-152
5.93368e-156
1.83018e-159
8.37985e-163
4.81358e-166
2.67551e-169
1.6894e-172
8.47115e-176
1.90857e-181
3.59613e-187
6.20384e-193
9.43181e-199
1.37749e-204
2.04195e-210
2.98254e-216
4.36782e-222
7.54437e-228
1.46664e-233
3.57328e-239
9.70608e-245
3.08354e-250
1.02603e-255
3.92205e-261
1.54904e-266
6.844e-272
2.42319e-277
6.35983e-283
1.19357e-288
2.02765e-294
2.6587e-300
3.6792e-306
4.53394e-312
6.29998e-318
9.88131e-324
0
0
0
0
0
0
0
0
0
0
0
0
0
0
0
0
0
0
0
0
0
0
0
0
0
0
0
0
0
0
0
0
0
0
0
0
0
0
0
0
0
0
0
0
0
0
0
0
0
0
0
0
0
0
0
0
0
0
0
0
0
0
0
0
0
0
0
0
0
0
0
0
0
0
0
0
0
0
0
0
0
0
0
0
0
0
0
0
0
0
0
0
0
0
0
0
0
0
0
0
0
0
0
0
0
0
0
0
0
0
0
0
0
0
0
0
0
0
0
0
0
0
0
0
0
0
0
0
0
0
0
0
0
0
0
0
0
0
0
0
0
0
0
0
0
0
0
0
0
0
0
0
0
0
0
0
0
0
0
0
0
0
0
0
0
0
0
0
0
0
0
0
0
0
0
0
0
0
0
0
0
0
0
0
0
0
0
0
0
0
0
0
0
0
0
0
0
0
0
0
0
0
0
0
0
0
0
0
0
0
0
0
0
0
0
0
0
0
0
0
0
0
0
0
0
0
0
0
0
0
0
0
0
0
0
0
0
0
0
0
0
0
0
0
0
0
0
0
0
0
0
0
0
2.79298e-10
5.94761e-10
7.02058e-10
7.60213e-10
6.33874e-10
4.16783e-10
1.34722e-10
1.03437e-10
6.19019e-11
8.81977e-11
2.21671e-10
6.00608e-10
1.14655e-09
1.4409e-09
2.14743e-08
3.51375e-07
2.56923e-07
2.90534e-07
2.69345e-07
3.15721e-07
7.13692e-08
8.22318e-09
7.59575e-09
1.75936e-08
2.86211e-08
2.83422e-08
1.07197e-08
2.15115e-09
5.01219e-10
1.40706e-10
8.57884e-11
5.87841e-11
5.29717e-11
4.76881e-11
4.39488e-11
4.22509e-11
4.72439e-11
6.16615e-11
1.26302e-10
2.6548e-10
9.16472e-10
2.69978e-09
6.0162e-09
1.14166e-08
2.38272e-08
1.18609e-07
2.5855e-07
3.2025e-07
3.20019e-07
3.23363e-07
1.69581e-07
4.27895e-08
1.01639e-08
4.20869e-09
1.32554e-09
4.63748e-10
1.47511e-10
8.64863e-11
5.86719e-11
5.15253e-11
3.74046e-11
2.13064e-11
1.55603e-11
1.15161e-11
1.69038e-11
1.94353e-11
1.98324e-11
1.23177e-11
2.23674e-12
6.58276e-13
1.21103e-15
6.33194e-19
2.46133e-22
9.80463e-26
4.10942e-29
2.50768e-32
1.85882e-35
2.39894e-38
2.93663e-41
3.75642e-44
2.79836e-47
2.40224e-50
1.56344e-53
8.82085e-57
4.62538e-60
2.27359e-63
1.15139e-66
5.8465e-70
3.16499e-73
1.89455e-76
1.25397e-79
7.27758e-83
5.18492e-86
3.52236e-89
2.48426e-92
2.00444e-95
1.57546e-98
1.15818e-101
8.63867e-105
6.03915e-108
5.24987e-111
3.78801e-114
2.68344e-117
1.84333e-120
1.42743e-123
1.03031e-126
7.13001e-130
4.84651e-133
3.20638e-136
2.15781e-139
1.4166e-142
6.67846e-146
2.92464e-149
1.05615e-152
3.17486e-156
1.21249e-159
5.26333e-163
2.59381e-166
1.36815e-169
6.82535e-173
3.25732e-176
7.4994e-182
1.52004e-187
2.85366e-193
4.72144e-199
8.76349e-205
1.2944e-210
2.00109e-216
2.95104e-222
4.9461e-228
8.83226e-234
1.95365e-239
4.83789e-245
1.43018e-250
4.50324e-256
1.62173e-261
6.01712e-267
2.51835e-272
9.4341e-278
3.12479e-283
8.19784e-289
1.84352e-294
3.35392e-300
5.97251e-306
9.40116e-312
1.53224e-317
2.47033e-323
0
0
0
0
0
0
0
0
0
0
0
0
0
0
0
0
0
0
0
0
0
0
0
0
0
0
0
0
0
0
0
0
0
0
0
0
0
0
0
0
0
0
0
0
0
0
0
0
0
0
0
0
0
0
0
0
0
0
0
0
0
0
0
0
0
0
0
0
0
0
0
0
0
0
0
0
0
0
0
0
0
0
0
0
0
0
0
0
0
0
0
0
0
0
0
0
0
0
0
0
0
0
0
0
0
0
0
0
0
0
0
0
0
0
0
0
0
0
0
0
0
0
0
0
0
0
0
0
0
0
0
0
0
0
0
0
0
0
0
0
0
0
0
0
0
0
0
0
0
0
0
0
0
0
0
0
0
0
0
0
0
0
0
0
0
0
0
0
0
0
0
0
0
0
0
0
0
0
0
0
0
0
0
0
0
0
0
0
0
0
0
0
0
0
0
0
0
0
0
0
0
0
0
0
0
0
0
0
0
0
0
0
0
0
0
0
0
0
0
0
0
0
0
0
0
0
0
0
0
0
0
0
0
0
0
0
0
0
0
0
0
0
0
0
0
0
0
0
0
0
0
0
0
2.16261e-11
4.7145e-11
5.46466e-11
4.6959e-11
3.95979e-11
4.05137e-11
3.93014e-11
2.79219e-11
2.61296e-11
2.77683e-11
4.35397e-11
5.88337e-11
9.30477e-11
2.97405e-10
8.12406e-09
3.5391e-07
2.90352e-07
3.13552e-07
3.17633e-07
1.65653e-08
1.1203e-09
6.80181e-10
1.2462e-09
1.99212e-09
2.88511e-09
2.06214e-09
1.01985e-09
3.15409e-10
1.36229e-10
6.58926e-11
5.17123e-11
4.45364e-11
4.0598e-11
3.83148e-11
3.6176e-11
2.82956e-11
2.78815e-11
2.79545e-11
4.09473e-11
5.41966e-11
1.1867e-10
3.10898e-10
8.61548e-10
1.85281e-09
3.83299e-09
8.35884e-09
2.02647e-08
2.70628e-08
2.74597e-08
1.79018e-08
5.98585e-09
2.30142e-09
8.84161e-10
4.01702e-10
1.50467e-10
8.67617e-11
4.70299e-11
2.81016e-11
2.49925e-11
2.38932e-11
2.27121e-11
1.95851e-11
1.64169e-11
1.54502e-11
1.67047e-11
1.88351e-11
2.08525e-11
2.12314e-11
7.24624e-12
1.90324e-12
3.09078e-14
5.26696e-18
1.23499e-21
4.88289e-25
2.04797e-28
7.35595e-32
2.70462e-35
7.40513e-39
3.23875e-42
1.02985e-45
3.57669e-49
1.47386e-52
4.59452e-56
1.72614e-59
6.47916e-63
3.31176e-66
2.22791e-69
1.98646e-72
1.62479e-75
1.41662e-78
1.18685e-81
1.0729e-84
8.61673e-88
7.12781e-91
5.63176e-94
4.40335e-97
3.24784e-100
2.41372e-103
1.75387e-106
1.2538e-109
1.06867e-112
7.6752e-116
5.50289e-119
3.90322e-122
2.70046e-125
1.86425e-128
1.28749e-131
8.41045e-135
5.77851e-138
3.38054e-141
2.08588e-144
1.05285e-147
5.31729e-151
2.26413e-154
9.70156e-158
4.68394e-161
2.16996e-164
1.03046e-167
4.95078e-171
2.37442e-174
7.19258e-178
8.98353e-184
8.85896e-190
8.49364e-196
8.72891e-202
1.25505e-207
2.42501e-213
5.75758e-219
1.39641e-224
3.54072e-230
8.92062e-236
2.30221e-241
6.08791e-247
1.65961e-252
4.76687e-258
1.44921e-263
4.68315e-269
1.59771e-274
4.97152e-280
1.39086e-285
3.4441e-291
8.1088e-297
1.7285e-302
3.50176e-308
6.57501e-314
1.15621e-319
0
0
0
0
0
0
0
0
0
0
0
0
0
0
0
0
0
0
0
0
0
0
0
0
0
0
0
0
0
0
0
0
0
0
0
0
0
0
0
0
0
0
0
0
0
0
0
0
0
0
0
0
0
0
0
0
0
0
0
0
0
0
0
0
0
0
0
0
0
0
0
0
0
0
0
0
0
0
0
0
0
0
0
0
0
0
0
0
0
0
0
0
0
0
0
0
0
0
0
0
0
0
0
0
0
0
0
0
0
0
0
0
0
0
0
0
0
0
0
0
0
0
0
0
0
0
0
0
0
0
0
0
0
0
0
0
0
0
0
0
0
0
0
0
0
0
0
0
0
0
0
0
0
0
0
0
0
0
0
0
0
0
0
0
0
0
0
0
0
0
0
0
0
0
0
0
0
0
0
0
0
0
0
0
0
0
0
0
0
0
0
0
0
0
0
0
0
0
0
0
0
0
0
0
0
0
0
0
0
0
0
0
0
0
0
0
0
0
0
0
0
0
0
0
0
0
0
0
0
0
0
0
0
0
0
0
0
0
0
0
0
0
0
0
0
0
0
0
0
0
0
0
0
0
2.0809e-11
2.11719e-11
2.231e-11
2.33631e-11
2.372e-11
2.35639e-11
2.3542e-11
2.31599e-11
2.34069e-11
2.37302e-11
2.50917e-11
2.66862e-11
2.79266e-11
5.4377e-11
5.19553e-10
1.90785e-08
2.69899e-07
5.47777e-08
3.97238e-09
4.88987e-10
1.22329e-10
1.26807e-10
1.45103e-10
2.05741e-10
2.88332e-10
2.54863e-10
1.9235e-10
1.21896e-10
8.32966e-11
5.47659e-11
4.40786e-11
3.80637e-11
2.83987e-11
2.75689e-11
2.71729e-11
2.66947e-11
2.63548e-11
2.57722e-11
2.56394e-11
2.55622e-11
2.76698e-11
4.63741e-11
6.45237e-11
1.26016e-10
2.30992e-10
4.22964e-10
6.39814e-10
8.90424e-10
7.10613e-10
5.4044e-10
2.87504e-10
1.40618e-10
9.13935e-11
5.34409e-11
3.90869e-11
2.63395e-11
2.4521e-11
2.32438e-11
2.28658e-11
2.23339e-11
2.16032e-11
2.01601e-11
1.83233e-11
1.77352e-11
1.85926e-11
2.04328e-11