/*--------------------------------*- C++ -*----------------------------------*\
| =========                 |                                                 |
| \\      /  F ield         | OpenFOAM: The Open Source CFD Toolbox           |
|  \\    /   O peration     | Version:  2.1.1                                 |
|   \\  /    A nd           | Web:      www.OpenFOAM.org                      |
|    \\/     M anipulation  |                                                 |
\*---------------------------------------------------------------------------*/
FoamFile
{
    version     2.0;
    format      ascii;
    class       volScalarField;
    location    "0.001900000";
    object      O2;
}
// * * * * * * * * * * * * * * * * * * * * * * * * * * * * * * * * * * * * * //

dimensions      [0 0 0 0 0 0 0];

internalField   nonuniform List<scalar> 
12384
(
0.0247831
0.0199183
0.0191427
0.0154575
0.139806
0.218536
0.226931
0.227341
0.227316
0.226952
0.22655
0.226322
0.226131
0.226193
0.227559
0.228121
0.228481
0.228423
0.227996
0.226568
0.22493
0.223587
0.224022
0.224625
0.22496
0.225971
0.225825
0.226308
0.227487
0.228342
0.228594
0.228677
0.228702
0.228515
0.228398
0.227839
0.22727
0.226722
0.226439
0.226161
0.226113
0.226135
0.22615
0.226167
0.22676
0.227143
0.227679
0.228179
0.228463
0.228513
0.228512
0.228535
0.228359
0.228546
0.228078
0.228393
0.228165
0.228537
0.228631
0.228866
0.22893
0.228855
0.228621
0.228361
0.227989
0.227634
0.227229
0.226826
0.226487
0.226269
0.226153
0.226165
0.226162
0.226172
0.226555
0.226824
0.226946
0.227203
0.227298
0.227488
0.227492
0.227454
0.227357
0.227195
0.227023
0.226857
0.2267
0.226561
0.226446
0.22635
0.22628
0.226234
0.226205
0.226181
0.226189
0.226171
0.226186
0.226178
0.226176
0.226182
0.226175
0.226176
0.226177
0.226177
0.226226
0.22624
0.226233
0.22622
0.22621
0.226195
0.226189
0.226181
0.226182
0.226182
0.22618
0.226185
0.226179
0.226187
0.22618
0.226187
0.226181
0.226186
0.226181
0.226185
0.22618
0.226185
0.22618
0.226185
0.22618
0.226184
0.226181
0.226183
0.226181
0.226177
0.226177
0.226183
0.226183
0.226183
0.226184
0.226184
0.226184
0.226184
0.226185
0.226185
0.226185
0.226185
0.226186
0.226187
0.226187
0.226187
0.226187
0.226187
0.226187
0.226186
0.226186
0.226186
0.226186
0.226185
0.226185
0.226185
0.226185
0.226185
0.226185
0.226177
0.226177
0.226185
0.226185
0.226185
0.226185
0.226186
0.226186
0.226186
0.226186
0.226187
0.226187
0.226187
0.226188
0.226188
0.226189
0.226189
0.226189
0.226188
0.226187
0.226187
0.226187
0.226186
0.226186
0.226186
0.226186
0.226185
0.226185
0.226185
0.226185
0.226177
0.226177
0.226185
0.226185
0.226185
0.226186
0.226186
0.226186
0.226186
0.226187
0.226187
0.226187
0.226187
0.226188
0.226188
0.226189
0.226189
0.226188
0.226188
0.226187
0.226187
0.226187
0.226187
0.226186
0.226186
0.226186
0.226186
0.226185
0.226185
0.226185
0.226177
0.226177
0.226185
0.226185
0.226185
0.226186
0.226186
0.226186
0.226186
0.226186
0.226187
0.226187
0.226187
0.226188
0.226188
0.226189
0.226189
0.226188
0.226188
0.226187
0.226187
0.226187
0.226187
0.226186
0.226186
0.226186
0.226186
0.226185
0.226185
0.226185
0.226177
0.226177
0.226185
0.226185
0.226185
0.226186
0.226186
0.226186
0.226186
0.226187
0.226187
0.226187
0.226187
0.226188
0.226188
0.226189
0.226189
0.226189
0.226188
0.226187
0.226187
0.226187
0.226186
0.226186
0.226186
0.226186
0.226185
0.226185
0.226185
0.226185
0.226177
0.226177
0.226185
0.226185
0.226185
0.226186
0.226186
0.226186
0.226186
0.226187
0.226187
0.226187
0.226187
0.226188
0.226188
0.226189
0.226189
0.226188
0.226188
0.226187
0.226187
0.226187
0.226187
0.226186
0.226186
0.226186
0.226186
0.226185
0.226185
0.226185
0.226177
0.226177
0.226185
0.226185
0.226185
0.226185
0.226186
0.226186
0.226186
0.226187
0.226187
0.226187
0.226187
0.226188
0.226188
0.226189
0.226189
0.226188
0.226188
0.226187
0.226187
0.226187
0.226187
0.226186
0.226186
0.226186
0.226186
0.226185
0.226185
0.226185
0.226177
0.226177
0.226185
0.226185
0.226185
0.226186
0.226186
0.226186
0.226186
0.226186
0.226187
0.226187
0.226187
0.226188
0.226188
0.226189
0.226189
0.226188
0.226188
0.226188
0.226187
0.226187
0.226187
0.226186
0.226186
0.226186
0.226186
0.226185
0.226185
0.226185
0.226177
0.0325146
0.0396074
0.0514775
0.0373289
0.159676
0.217413
0.226278
0.227116
0.228655
0.229023
0.228363
0.227837
0.227103
0.226599
0.228569
0.229135
0.228148
0.225836
0.215671
0.202501
0.18744
0.176873
0.176819
0.178655
0.177459
0.186038
0.186895
0.193558
0.207318
0.217469
0.220929
0.226997
0.229257
0.229634
0.230005
0.229991
0.229265
0.22915
0.227995
0.22738
0.226627
0.226209
0.226111
0.226127
0.227549
0.228589
0.229345
0.229383
0.228872
0.228171
0.227441
0.226841
0.226042
0.225471
0.225302
0.224908
0.224992
0.22501
0.225522
0.226346
0.227705
0.229008
0.229931
0.230241
0.2304
0.230318
0.230175
0.229823
0.229254
0.22841
0.227403
0.226491
0.226212
0.226152
0.229075
0.229682
0.230021
0.23004
0.230111
0.230086
0.230143
0.23016
0.230183
0.230153
0.230064
0.22992
0.229713
0.229511
0.229247
0.22899
0.228725
0.22843
0.228168
0.227879
0.227565
0.227271
0.226946
0.22672
0.226563
0.226447
0.226409
0.22637
0.22636
0.226283
0.228472
0.228516
0.228446
0.228331
0.228221
0.228058
0.227898
0.227728
0.227571
0.227417
0.227297
0.227167
0.227092
0.226999
0.226959
0.226875
0.22684
0.226772
0.226738
0.22669
0.226662
0.226632
0.2266
0.226586
0.226547
0.22655
0.226523
0.226529
0.226515
0.226327
0.226478
0.226668
0.226674
0.226664
0.226652
0.226646
0.226637
0.226638
0.22663
0.226636
0.226633
0.226642
0.226647
0.226657
0.226663
0.22666
0.226655
0.226642
0.226636
0.226626
0.226625
0.226615
0.226615
0.226606
0.226605
0.226598
0.226598
0.226596
0.226588
0.226345
0.226338
0.226594
0.2266
0.226608
0.22661
0.226614
0.226623
0.226626
0.226636
0.226638
0.226648
0.22665
0.226663
0.226669
0.226678
0.226677
0.226676
0.226661
0.226653
0.226641
0.226636
0.226626
0.226624
0.226615
0.226614
0.226606
0.226605
0.226598
0.226592
0.226338
0.226338
0.226594
0.226605
0.226607
0.226616
0.226617
0.226627
0.226628
0.226637
0.226639
0.226648
0.226651
0.226663
0.226671
0.22668
0.226677
0.226674
0.226661
0.226654
0.226645
0.226643
0.226633
0.226631
0.226622
0.226619
0.22661
0.226608
0.226603
0.226591
0.226346
0.226345
0.226588
0.226602
0.226604
0.226613
0.226614
0.226623
0.226625
0.226634
0.226636
0.226645
0.226649
0.226662
0.22667
0.22668
0.226677
0.226674
0.226661
0.226655
0.226645
0.226643
0.226633
0.226631
0.226621
0.226619
0.22661
0.226608
0.226603
0.226591
0.226346
0.226346
0.226591
0.226602
0.22661
0.226612
0.226621
0.226623
0.226632
0.226633
0.226642
0.226644
0.226653
0.226658
0.226671
0.226675
0.22668
0.226673
0.226665
0.226649
0.226642
0.226638
0.226628
0.226625
0.226616
0.226615
0.226606
0.226606
0.226598
0.226592
0.226338
0.226346
0.22659
0.226603
0.226605
0.226614
0.226615
0.226624
0.226626
0.226635
0.226637
0.226646
0.226649
0.226662
0.22667
0.22668
0.226678
0.226675
0.226662
0.226655
0.226645
0.226643
0.226633
0.226631
0.226621
0.226619
0.22661
0.226608
0.226603
0.226591
0.226345
0.226337
0.226593
0.226602
0.226604
0.226613
0.226614
0.226624
0.226626
0.226636
0.226638
0.226649
0.226651
0.226664
0.226671
0.226679
0.226679
0.226671
0.226664
0.226651
0.226648
0.226638
0.226636
0.226627
0.226625
0.226615
0.226614
0.226605
0.226603
0.226594
0.226337
0.226345
0.22659
0.226605
0.226606
0.226616
0.226617
0.226626
0.226627
0.226637
0.226637
0.226647
0.226649
0.226661
0.226668
0.226679
0.226678
0.226675
0.226662
0.226655
0.226646
0.226643
0.226633
0.226631
0.226621
0.226619
0.22661
0.226607
0.226603
0.226591
0.226345
0.0571621
0.0870849
0.103474
0.0970924
0.191142
0.209503
0.21458
0.212675
0.219361
0.227866
0.229957
0.229886
0.229028
0.228031
0.229752
0.226532
0.208816
0.188472
0.0917419
0.0505574
0.037121
0.0311629
0.033363
0.0368007
0.036641
0.0340677
0.0348065
0.0482372
0.0636567
0.0635184
0.0800023
0.186863
0.21786
0.225143
0.228273
0.230081
0.230573
0.230693
0.230159
0.229511
0.228237
0.227014
0.226273
0.226131
0.22926
0.229945
0.229416
0.228486
0.227117
0.225886
0.225141
0.2247
0.224792
0.225135
0.225553
0.225576
0.225066
0.224143
0.22294
0.222107
0.222032
0.223181
0.225511
0.227811
0.229304
0.230197
0.230654
0.230867
0.230863
0.230788
0.23024
0.229049
0.227597
0.226784
0.23083
0.230713
0.230469
0.230027
0.229729
0.229322
0.229485
0.229724
0.2301
0.230394
0.230612
0.230737
0.230836
0.230889
0.23093
0.230955
0.230965
0.230964
0.230972
0.230961
0.230977
0.230963
0.230933
0.230856
0.230685
0.230475
0.230217
0.229921
0.229702
0.229572
0.231076
0.231023
0.230981
0.230971
0.230958
0.230964
0.230954
0.230952
0.230948
0.230941
0.230939
0.230929
0.230926
0.230911
0.230907
0.230898
0.230904
0.230901
0.230917
0.23091
0.230921
0.23091
0.230922
0.230907
0.230921
0.230898
0.230906
0.230884
0.230884
0.231037
0.231103
0.230932
0.230914
0.230915
0.230907
0.230906
0.230899
0.230896
0.230889
0.230884
0.230877
0.230869
0.230858
0.230849
0.230843
0.230842
0.230846
0.230853
0.23086
0.230863
0.230867
0.23087
0.230873
0.230876
0.230879
0.230881
0.230884
0.230885
0.23089
0.231102
0.231102
0.230889
0.230881
0.230876
0.230875
0.230871
0.230866
0.230861
0.230857
0.230852
0.230848
0.230843
0.230836
0.230828
0.230823
0.230821
0.230825
0.230834
0.230843
0.23085
0.230856
0.230861
0.230865
0.230869
0.230872
0.230875
0.230878
0.230882
0.230891
0.231102
0.231102
0.230888
0.230879
0.230875
0.230871
0.230867
0.230863
0.23086
0.230856
0.230852
0.230848
0.230843
0.230835
0.230827
0.230822
0.230821
0.230827
0.230835
0.230843
0.230848
0.230852
0.230857
0.23086
0.230864
0.230868
0.230872
0.230876
0.23088
0.230888
0.231102
0.231102
0.23089
0.230881
0.230876
0.230873
0.23087
0.230866
0.230862
0.230858
0.230854
0.23085
0.230844
0.230836
0.230827
0.230822
0.230821
0.230827
0.230835
0.230843
0.230848
0.230852
0.230857
0.23086
0.230864
0.230869
0.230872
0.230876
0.23088
0.230888
0.231102
0.231102
0.230888
0.230879
0.230874
0.230871
0.230867
0.230863
0.23086
0.230856
0.230852
0.230849
0.230844
0.230837
0.230829
0.230823
0.230821
0.230825
0.230834
0.230844
0.230851
0.230854
0.23086
0.230864
0.230868
0.230872
0.230875
0.230878
0.230882
0.23089
0.231102
0.231102
0.230889
0.23088
0.230876
0.230872
0.230869
0.230865
0.230862
0.230858
0.230854
0.23085
0.230844
0.230836
0.230828
0.230822
0.230821
0.230826
0.230834
0.230842
0.230847
0.230852
0.230857
0.230861
0.230865
0.230869
0.230873
0.230877
0.23088
0.230888
0.231102
0.231102
0.230888
0.23088
0.230877
0.230873
0.230869
0.230865
0.230861
0.230856
0.230852
0.230847
0.230843
0.230835
0.230827
0.230821
0.230821
0.230827
0.230835
0.230843
0.230848
0.230852
0.230857
0.230861
0.230864
0.230869
0.230872
0.230876
0.23088
0.230888
0.231102
0.231102
0.230888
0.230879
0.230875
0.230871
0.230868
0.230864
0.230861
0.230857
0.230854
0.230849
0.230845
0.230837
0.230829
0.230823
0.230821
0.230826
0.230834
0.230842
0.230847
0.230851
0.230856
0.23086
0.230864
0.230869
0.230873
0.230877
0.23088
0.230888
0.231102
0.102737
0.120827
0.133711
0.141606
0.153458
0.151252
0.154047
0.146679
0.15557
0.209277
0.225571
0.229999
0.230418
0.229745
0.229572
0.214069
0.0512802
0.0152264
0.00843451
0.00200334
0.00115217
0.000502191
0.000957965
0.00047585
0.000229931
8.06212e-05
0.000100214
0.000433703
0.00108124
0.00222593
0.0155406
0.04587
0.0535666
0.0584804
0.15513
0.220098
0.229882
0.230485
0.230691
0.230699
0.229958
0.228543
0.226984
0.226273
0.230238
0.229849
0.228424
0.226426
0.225305
0.225186
0.225701
0.226462
0.227413
0.228529
0.228403
0.228366
0.228114
0.227441
0.226184
0.224306
0.221967
0.220328
0.220204
0.221919
0.224739
0.227182
0.22879
0.229706
0.230303
0.230708
0.23084
0.230673
0.229686
0.228481
0.230474
0.229439
0.228021
0.226653
0.225815
0.225287
0.225253
0.225563
0.226611
0.227828
0.228747
0.229384
0.229773
0.230043
0.230245
0.230403
0.230518
0.230619
0.230691
0.23076
0.230811
0.230852
0.230894
0.230915
0.230941
0.230944
0.230949
0.230948
0.230931
0.230946
0.230549
0.230496
0.230557
0.230612
0.230668
0.230709
0.230762
0.230793
0.230826
0.230848
0.230864
0.230883
0.230886
0.230905
0.2309
0.230918
0.230912
0.230925
0.230922
0.23093
0.230929
0.230934
0.230935
0.230937
0.230939
0.23094
0.230943
0.230941
0.230947
0.230976
0.230957
0.230929
0.23093
0.230929
0.230932
0.230932
0.230934
0.230933
0.230935
0.230934
0.230935
0.230935
0.230935
0.230934
0.230935
0.230934
0.230935
0.230935
0.230935
0.230935
0.230936
0.230935
0.230936
0.230935
0.230935
0.230935
0.230935
0.230935
0.230937
0.230973
0.230974
0.230937
0.230934
0.230935
0.230934
0.230934
0.230934
0.230933
0.230934
0.230933
0.230934
0.230933
0.230933
0.230932
0.230932
0.230932
0.230933
0.230932
0.230933
0.230933
0.230934
0.230933
0.230934
0.230934
0.230934
0.230934
0.230935
0.230934
0.230937
0.230974
0.230974
0.230937
0.230935
0.230934
0.230934
0.230934
0.230934
0.230933
0.230934
0.230933
0.230934
0.230933
0.230933
0.230932
0.230932
0.230932
0.230933
0.230932
0.230933
0.230933
0.230934
0.230933
0.230934
0.230934
0.230934
0.230934
0.230935
0.230935
0.230937
0.230973
0.230973
0.230937
0.230935
0.230934
0.230934
0.230934
0.230934
0.230933
0.230934
0.230933
0.230934
0.230933
0.230933
0.230932
0.230932
0.230932
0.230933
0.230932
0.230933
0.230933
0.230934
0.230933
0.230934
0.230934
0.230934
0.230934
0.230935
0.230935
0.230937
0.230973
0.230973
0.230937
0.230934
0.230935
0.230934
0.230934
0.230934
0.230934
0.230933
0.230934
0.230933
0.230933
0.230933
0.230933
0.230932
0.230932
0.230932
0.230933
0.230933
0.230933
0.230934
0.230933
0.230934
0.230934
0.230934
0.230934
0.230935
0.230934
0.230937
0.230974
0.230973
0.230937
0.230935
0.230934
0.230934
0.230934
0.230934
0.230933
0.230934
0.230933
0.230934
0.230933
0.230933
0.230932
0.230932
0.230932
0.230933
0.230932
0.230933
0.230933
0.230934
0.230933
0.230934
0.230934
0.230934
0.230934
0.230935
0.230935
0.230937
0.230973
0.230974
0.230937
0.230934
0.230934
0.230934
0.230934
0.230934
0.230933
0.230934
0.230933
0.230934
0.230933
0.230933
0.230932
0.230932
0.230932
0.230932
0.230933
0.230933
0.230934
0.230933
0.230934
0.230933
0.230934
0.230934
0.230934
0.230934
0.230935
0.230937
0.230974
0.230973
0.230937
0.230935
0.230934
0.230934
0.230934
0.230934
0.230933
0.230934
0.230933
0.230934
0.230933
0.230933
0.230932
0.230932
0.230932
0.230933
0.230932
0.230933
0.230933
0.230934
0.230933
0.230934
0.230933
0.230934
0.230934
0.230935
0.230935
0.230937
0.230973
0.121955
0.120203
0.123222
0.125974
0.0788446
0.0646156
0.0838379
0.0943778
0.107418
0.119604
0.156002
0.21886
0.228758
0.230763
0.228053
0.188281
0.00194877
0.00304389
0.000465331
0.000229205
9.79192e-05
7.94661e-05
5.28469e-05
2.00458e-05
6.69831e-06
4.11774e-06
4.26735e-06
8.28346e-06
7.43715e-06
1.92021e-05
1.92761e-05
0.00116273
0.00817805
0.0154119
0.0187503
0.173634
0.223691
0.229518
0.230263
0.230686
0.2307
0.22986
0.228044
0.226609
0.230405
0.229043
0.226739
0.225095
0.225214
0.226194
0.227533
0.228082
0.22877
0.228618
0.228476
0.228354
0.228176
0.227952
0.227543
0.226575
0.224784
0.222322
0.219766
0.218862
0.219915
0.22266
0.225582
0.227679
0.228901
0.229753
0.230353
0.230752
0.230755
0.230059
0.229587
0.227293
0.225487
0.224726
0.224563
0.224242
0.223542
0.222915
0.22272
0.223858
0.225652
0.227117
0.228097
0.228673
0.229057
0.229344
0.229556
0.229736
0.229871
0.229995
0.230098
0.230186
0.23027
0.230344
0.230423
0.230513
0.230598
0.230681
0.230753
0.230814
0.229596
0.229334
0.229462
0.229631
0.22977
0.229898
0.229979
0.230077
0.230123
0.230193
0.230215
0.230265
0.230275
0.230308
0.230316
0.230337
0.230344
0.230357
0.230363
0.230374
0.230375
0.230387
0.230387
0.230396
0.230398
0.230407
0.230409
0.230421
0.230423
0.230433
0.230375
0.230379
0.230379
0.230387
0.230387
0.230392
0.230394
0.230397
0.230398
0.2304
0.230401
0.230402
0.230403
0.230403
0.230404
0.230404
0.230405
0.230405
0.230405
0.230405
0.230406
0.230406
0.230406
0.230406
0.230406
0.230406
0.230406
0.230406
0.230407
0.230409
0.230411
0.230406
0.230407
0.230406
0.230406
0.230407
0.230405
0.230407
0.230406
0.230407
0.230406
0.230407
0.230406
0.230407
0.230405
0.230407
0.230405
0.230407
0.230405
0.230407
0.230405
0.230407
0.230405
0.230407
0.230406
0.230407
0.230406
0.230407
0.230406
0.230411
0.23041
0.230406
0.230406
0.230407
0.230405
0.230407
0.230405
0.230407
0.230406
0.230407
0.230405
0.230407
0.230405
0.230407
0.230405
0.230407
0.230405
0.230407
0.230405
0.230407
0.230405
0.230407
0.230405
0.230407
0.230405
0.230407
0.230406
0.230406
0.230407
0.230409
0.23041
0.230407
0.230405
0.230407
0.230405
0.230407
0.230405
0.230407
0.230406
0.230407
0.230405
0.230407
0.230405
0.230407
0.230405
0.230407
0.230405
0.230407
0.230405
0.230407
0.230405
0.230407
0.230405
0.230407
0.230405
0.230407
0.230406
0.230406
0.230407
0.230409
0.23041
0.230407
0.230407
0.230406
0.230407
0.230406
0.230407
0.230406
0.230407
0.230406
0.230407
0.230406
0.230407
0.230405
0.230407
0.230405
0.230407
0.230405
0.230406
0.230406
0.230406
0.230407
0.230405
0.230407
0.230406
0.230407
0.230406
0.230407
0.230406
0.230411
0.230409
0.230407
0.230405
0.230407
0.230405
0.230407
0.230405
0.230407
0.230406
0.230407
0.230405
0.230407
0.230405
0.230407
0.230405
0.230407
0.230405
0.230407
0.230405
0.230407
0.230405
0.230407
0.230405
0.230407
0.230405
0.230407
0.230406
0.230406
0.230407
0.230409
0.230411
0.230406
0.230407
0.230407
0.230406
0.230407
0.230406
0.230407
0.230406
0.230407
0.230406
0.230407
0.230405
0.230407
0.230406
0.230406
0.230407
0.230405
0.230407
0.230406
0.230407
0.230406
0.230407
0.230406
0.230407
0.230406
0.230407
0.230407
0.230406
0.230411
0.230409
0.230407
0.230405
0.230407
0.230405
0.230407
0.230405
0.230407
0.230405
0.230407
0.230405
0.230407
0.230405
0.230407
0.230405
0.230407
0.230405
0.230407
0.230405
0.230407
0.230405
0.230407
0.230405
0.230407
0.230405
0.230407
0.230406
0.230406
0.230407
0.230409
0.10646
0.0853053
0.0784126
0.071434
0.0198917
0.0176994
0.0305643
0.0463981
0.0610774
0.0736277
0.100168
0.126557
0.216756
0.230124
0.223491
0.068668
0.000934551
0.000207375
0.000198341
0.000324181
0.000275465
7.98845e-05
2.36334e-05
7.15037e-06
2.25398e-06
8.30626e-07
6.0076e-07
5.75088e-07
8.46018e-07
5.97504e-07
2.62894e-06
2.34088e-05
8.6112e-05
0.000555353
0.00186525
0.00332955
0.181944
0.224591
0.229082
0.230082
0.23065
0.230646
0.229174
0.227201
0.230241
0.227991
0.22559
0.224874
0.225578
0.226888
0.227824
0.228074
0.228017
0.227079
0.223542
0.219876
0.216266
0.214408
0.216087
0.220532
0.223736
0.223809
0.221723
0.219252
0.217996
0.218655
0.22121
0.224324
0.226666
0.228258
0.229282
0.23019
0.230725
0.230709
0.228488
0.225944
0.225418
0.226305
0.226755
0.226388
0.225179
0.223488
0.2218
0.22104
0.221924
0.223862
0.225615
0.226774
0.227454
0.22791
0.228254
0.228536
0.228759
0.228961
0.229126
0.229293
0.229425
0.229587
0.229708
0.229862
0.229996
0.230153
0.230301
0.230461
0.228162
0.227515
0.227703
0.228074
0.228453
0.228713
0.228939
0.229088
0.229214
0.229305
0.229386
0.229444
0.229497
0.229538
0.229574
0.229604
0.229628
0.229651
0.229668
0.229687
0.229697
0.229715
0.229724
0.229739
0.229748
0.229765
0.229773
0.229788
0.229801
0.229842
0.229722
0.229687
0.229709
0.229709
0.229729
0.22973
0.229743
0.229743
0.229752
0.229752
0.229758
0.229758
0.229762
0.229762
0.229764
0.229764
0.229766
0.229766
0.229767
0.229767
0.229768
0.229768
0.229768
0.229768
0.229768
0.229768
0.229768
0.229768
0.22977
0.229807
0.229807
0.22977
0.229767
0.229767
0.229768
0.229768
0.229767
0.229768
0.229768
0.229768
0.229768
0.229768
0.229768
0.229768
0.229767
0.229768
0.229767
0.229768
0.229767
0.229768
0.229767
0.229768
0.229768
0.229768
0.229768
0.229768
0.229768
0.229768
0.22977
0.229808
0.229807
0.22977
0.229768
0.229768
0.229767
0.229768
0.229768
0.229768
0.229768
0.229768
0.229768
0.229768
0.229767
0.229768
0.229767
0.229768
0.229767
0.229768
0.229767
0.229768
0.229768
0.229768
0.229768
0.229768
0.229767
0.229768
0.229767
0.229768
0.22977
0.229808
0.229808
0.22977
0.229767
0.229768
0.229767
0.229768
0.229768
0.229768
0.229768
0.229768
0.229768
0.229768
0.229767
0.229768
0.229767
0.229768
0.229767
0.229768
0.229768
0.229768
0.229768
0.229768
0.229768
0.229768
0.229767
0.229768
0.229767
0.229768
0.22977
0.229808
0.229808
0.22977
0.229768
0.229767
0.229768
0.229768
0.229768
0.229768
0.229768
0.229768
0.229768
0.229768
0.229768
0.229767
0.229768
0.229767
0.229768
0.229767
0.229768
0.229768
0.229768
0.229768
0.229768
0.229768
0.229768
0.229768
0.229768
0.229768
0.22977
0.229808
0.229808
0.22977
0.229767
0.229768
0.229767
0.229768
0.229768
0.229768
0.229768
0.229768
0.229768
0.229768
0.229767
0.229768
0.229767
0.229768
0.229767
0.229768
0.229767
0.229768
0.229768
0.229768
0.229767
0.229768
0.229767
0.229768
0.229767
0.229768
0.22977
0.229808
0.229808
0.22977
0.229768
0.229768
0.229768
0.229768
0.229768
0.229768
0.229768
0.229768
0.229768
0.229768
0.229767
0.229768
0.229767
0.229767
0.229768
0.229767
0.229768
0.229768
0.229768
0.229768
0.229768
0.229768
0.229768
0.229768
0.229768
0.229768
0.22977
0.229808
0.229808
0.22977
0.229767
0.229768
0.229767
0.229768
0.229768
0.229768
0.229768
0.229768
0.229768
0.229768
0.229767
0.229768
0.229767
0.229767
0.229767
0.229767
0.229767
0.229768
0.229767
0.229768
0.229767
0.229768
0.229767
0.229768
0.229767
0.229768
0.22977
0.229808
0.0463477
0.0314716
0.0249997
0.0178584
0.00881226
0.00895765
0.0147691
0.0219167
0.0294474
0.0445392
0.0675692
0.0805565
0.194629
0.228423
0.218502
0.0430392
0.000689689
0.000102745
0.000357701
0.00306418
0.00346548
0.00049983
8.89086e-05
1.88893e-05
4.28565e-06
8.56195e-07
2.8985e-07
1.06377e-07
1.23281e-07
2.14636e-07
4.57165e-07
1.9365e-06
6.41678e-06
3.2072e-05
8.95814e-05
0.000403877
0.000820797
0.182038
0.222484
0.228599
0.229791
0.230538
0.230166
0.228116
0.229842
0.227166
0.225205
0.225027
0.225743
0.226613
0.226218
0.22375
0.218627
0.203693
0.187602
0.161469
0.141274
0.121878
0.118095
0.15568
0.192574
0.214139
0.221441
0.220521
0.218469
0.217428
0.217983
0.220249
0.223229
0.225656
0.227527
0.22883
0.230005
0.230717
0.227684
0.225752
0.226395
0.227814
0.22856
0.227985
0.226792
0.224886
0.222698
0.220634
0.219849
0.220721
0.222594
0.224288
0.225402
0.226075
0.226556
0.226929
0.227249
0.227509
0.227735
0.227946
0.228125
0.228323
0.228499
0.22871
0.228947
0.229225
0.229563
0.229944
0.226566
0.225704
0.225497
0.225906
0.226535
0.227106
0.22744
0.227719
0.227863
0.228027
0.228102
0.228205
0.22825
0.228317
0.22835
0.228392
0.228417
0.228446
0.228465
0.228486
0.228501
0.228517
0.228531
0.228545
0.22856
0.228577
0.228595
0.228622
0.228652
0.228678
0.228444
0.228485
0.228499
0.228524
0.228533
0.228547
0.228553
0.228562
0.228566
0.228571
0.228574
0.228577
0.228579
0.228581
0.228583
0.228584
0.228586
0.228585
0.228588
0.228587
0.228589
0.228588
0.228589
0.228589
0.22859
0.22859
0.22859
0.22859
0.228591
0.228578
0.228578
0.22859
0.228591
0.228591
0.228591
0.228591
0.228591
0.228592
0.228591
0.228592
0.228591
0.228592
0.228591
0.228592
0.228591
0.228592
0.228591
0.228592
0.228591
0.228592
0.228591
0.228592
0.228591
0.228592
0.228591
0.228592
0.228591
0.228591
0.228591
0.228579
0.228578
0.228591
0.228591
0.228591
0.228591
0.228592
0.228591
0.228592
0.228591
0.228592
0.228591
0.228592
0.228591
0.228592
0.228591
0.228592
0.228591
0.228592
0.228591
0.228592
0.228591
0.228592
0.228591
0.228592
0.228591
0.228591
0.228591
0.228591
0.228591
0.228579
0.228579
0.228591
0.228591
0.228591
0.228591
0.228592
0.228591
0.228592
0.228591
0.228592
0.228591
0.228592
0.228591
0.228592
0.228591
0.228592
0.228591
0.228592
0.228591
0.228592
0.228591
0.228592
0.228591
0.228592
0.228591
0.228591
0.228591
0.228591
0.228591
0.228579
0.228579
0.228591
0.228591
0.228591
0.228591
0.228591
0.228592
0.228591
0.228592
0.228591
0.228592
0.228591
0.228592
0.228591
0.228592
0.228591
0.228592
0.228591
0.228591
0.228592
0.228591
0.228592
0.228591
0.228592
0.228591
0.228592
0.228591
0.228592
0.228591
0.228578
0.228579
0.228591
0.228591
0.228591
0.228591
0.228592
0.228591
0.228592
0.228591
0.228592
0.228591
0.228592
0.228591
0.228592
0.228591
0.228592
0.228591
0.228592
0.228591
0.228592
0.228591
0.228592
0.228591
0.228592
0.228591
0.228591
0.228591
0.228591
0.228591
0.228579
0.228578
0.228591
0.228591
0.228591
0.228591
0.228592
0.228591
0.228592
0.228591
0.228592
0.228591
0.228592
0.228591
0.228592
0.228591
0.228591
0.228592
0.228591
0.228592
0.228591
0.228592
0.228591
0.228592
0.228591
0.228592
0.228591
0.228591
0.228592
0.228591
0.228578
0.228579
0.228591
0.228591
0.228591
0.228591
0.228592
0.228591
0.228592
0.228591
0.228592
0.228591
0.228592
0.228591
0.228592
0.228591
0.228592
0.228591
0.228592
0.228591
0.228592
0.228591
0.228592
0.228591
0.228592
0.228591
0.228592
0.228591
0.228591
0.228591
0.228579
0.0127701
0.00955449
0.00636904
0.00472823
0.00488193
0.00539061
0.00718823
0.00758601
0.0150882
0.0335987
0.0599346
0.0864888
0.198816
0.22783
0.207436
0.0440584
0.000194905
0.000364696
0.00696588
0.0305932
0.0309262
0.016723
0.00271203
0.000125428
2.04327e-05
3.11091e-06
5.25222e-07
1.12183e-07
6.97458e-08
5.92424e-08
1.06533e-07
3.01116e-07
7.04302e-07
4.00675e-06
9.86972e-06
3.19343e-05
3.64836e-05
0.000347394
0.158443
0.218036
0.227285
0.229427
0.230346
0.228954
0.229285
0.227422
0.226605
0.227027
0.227509
0.22401
0.217207
0.194782
0.167373
0.0413071
0.016529
0.0034356
0.000156926
2.41218e-05
6.13756e-06
2.83757e-06
2.28388e-06
0.108828
0.200964
0.218973
0.21912
0.217602
0.216959
0.217452
0.219406
0.222212
0.224858
0.227045
0.229056
0.230661
0.227017
0.226522
0.22737
0.228531
0.229029
0.22857
0.227024
0.225051
0.222831
0.220797
0.219232
0.218875
0.219931
0.221579
0.22298
0.223925
0.224554
0.225038
0.225439
0.225784
0.226087
0.226373
0.22664
0.226922
0.227188
0.227493
0.227811
0.228233
0.228804
0.229453
0.226082
0.225081
0.223996
0.22373
0.224368
0.225166
0.225733
0.226076
0.22633
0.226506
0.226673
0.226774
0.226893
0.226954
0.227041
0.227081
0.227144
0.227173
0.227218
0.227246
0.227275
0.227305
0.227325
0.22736
0.227377
0.227418
0.22744
0.227491
0.227531
0.227584
0.22716
0.227181
0.227275
0.227287
0.22734
0.227346
0.227374
0.227376
0.227394
0.227395
0.227406
0.227407
0.227414
0.227416
0.227419
0.227421
0.227423
0.227424
0.227425
0.227426
0.227427
0.227427
0.227428
0.227428
0.227429
0.227429
0.227431
0.22743
0.227433
0.227419
0.227417
0.227431
0.227431
0.22743
0.22743
0.227429
0.227429
0.227429
0.227429
0.227429
0.227429
0.227429
0.227429
0.227429
0.227429
0.227429
0.227429
0.227429
0.227429
0.227429
0.227429
0.227429
0.227429
0.227429
0.227429
0.22743
0.22743
0.227431
0.227431
0.227418
0.227418
0.227431
0.227431
0.22743
0.22743
0.227429
0.227429
0.227429
0.227429
0.227429
0.227429
0.227429
0.227429
0.227429
0.227429
0.227429
0.227429
0.227429
0.227429
0.227429
0.227429
0.227429
0.227429
0.227429
0.227429
0.22743
0.22743
0.227431
0.227431
0.227418
0.227418
0.227431
0.227431
0.22743
0.22743
0.227429
0.227429
0.227429
0.227429
0.227429
0.227429
0.227429
0.227429
0.227429
0.227429
0.227429
0.227429
0.227429
0.227429
0.227429
0.227429
0.227429
0.227429
0.227429
0.227429
0.22743
0.22743
0.227431
0.227431
0.227418
0.227419
0.227431
0.227431
0.22743
0.22743
0.227429
0.227429
0.227429
0.227429
0.227429
0.227429
0.227429
0.227429
0.227429
0.227429
0.227429
0.227429
0.227429
0.227429
0.227429
0.227429
0.227429
0.227429
0.227429
0.227429
0.22743
0.22743
0.227431
0.227431
0.227418
0.227419
0.227431
0.227431
0.22743
0.22743
0.227429
0.227429
0.227429
0.227429
0.227429
0.227429
0.227429
0.227429
0.227429
0.227429
0.227429
0.227429
0.227429
0.227429
0.227429
0.227429
0.227429
0.227429
0.227429
0.227429
0.22743
0.22743
0.227431
0.227431
0.227418
0.227418
0.227431
0.227431
0.22743
0.22743
0.227429
0.227429
0.227429
0.227429
0.227429
0.227429
0.227429
0.227429
0.227429
0.227429
0.227429
0.227429
0.227429
0.227429
0.227429
0.227429
0.227429
0.227429
0.227429
0.227429
0.22743
0.22743
0.227431
0.227431
0.227418
0.227418
0.227431
0.227431
0.22743
0.22743
0.227429
0.227429
0.227429
0.227429
0.227429
0.227429
0.227429
0.227429
0.227429
0.227429
0.227429
0.227429
0.227429
0.227429
0.227429
0.227429
0.227429
0.227429
0.227429
0.227429
0.22743
0.227431
0.227433
0.227436
0.227423
0.00316301
0.00168548
0.00113455
0.00132735
0.00131486
0.0015022
0.000366023
0.000232309
0.000398911
0.0136225
0.0698363
0.111413
0.148514
0.20947
0.112551
0.0779023
0.0434179
0.0472143
0.00242175
0.00314082
0.0380902
0.0606236
0.0570134
0.045557
0.0280535
0.00786915
0.000392357
2.35217e-05
1.825e-06
2.68243e-07
6.67604e-08
3.45208e-08
3.46942e-08
5.37642e-08
1.61139e-07
5.88719e-07
1.35675e-06
5.16957e-06
1.84012e-05
2.69453e-05
1.76381e-06
0.00210456
0.177961
0.221568
0.228991
0.229438
0.229713
0.230207
0.229592
0.22912
0.228923
0.227419
0.223259
0.200033
0.165255
0.0576666
0.0181903
0.00809274
0.00125264
7.3565e-05
2.9081e-06
4.5548e-07
2.33853e-07
2.27668e-07
2.54736e-07
1.19483e-07
0.0899558
0.200329
0.218137
0.218092
0.217064
0.216698
0.217073
0.218758
0.221341
0.22413
0.226713
0.229361
0.230207
0.230633
0.23039
0.229713
0.229392
0.229467
0.229254
0.228254
0.226541
0.224205
0.221978
0.220146
0.218798
0.218035
0.218174
0.219189
0.220461
0.221532
0.222301
0.222864
0.223319
0.223698
0.224035
0.224337
0.22463
0.224918
0.225226
0.225576
0.226012
0.226588
0.227281
0.228349
0.228136
0.227594
0.226714
0.225041
0.223218
0.2222
0.222402
0.223176
0.223753
0.224145
0.224361
0.224582
0.224715
0.22486
0.224948
0.225041
0.225105
0.225162
0.225216
0.225249
0.225294
0.225319
0.225353
0.225377
0.225402
0.225431
0.225451
0.225495
0.225518
0.225598
0.22565
0.225728
0.225427
0.225397
0.225171
0.225293
0.225333
0.225402
0.225408
0.225445
0.225447
0.225469
0.225471
0.225484
0.225486
0.225494
0.225496
0.2255
0.225503
0.225505
0.225508
0.225509
0.225512
0.225512
0.225514
0.225514
0.225516
0.225516
0.225518
0.225519
0.225521
0.225521
0.225518
0.225449
0.225386
0.225385
0.225446
0.225516
0.225522
0.225522
0.225522
0.225521
0.225521
0.225521
0.225521
0.225521
0.225521
0.225521
0.225521
0.225521
0.225521
0.225521
0.225521
0.225521
0.225521
0.225521
0.225521
0.225521
0.225521
0.225521
0.225522
0.225522
0.225522
0.225522
0.225517
0.225447
0.225385
0.225385
0.225447
0.225518
0.225523
0.225523
0.225522
0.225522
0.225521
0.225521
0.225521
0.225521
0.225521