/*--------------------------------*- C++ -*----------------------------------*\
| =========                 |                                                 |
| \\      /  F ield         | OpenFOAM: The Open Source CFD Toolbox           |
|  \\    /   O peration     | Version:  2.1.1                                 |
|   \\  /    A nd           | Web:      www.OpenFOAM.org                      |
|    \\/     M anipulation  |                                                 |
\*---------------------------------------------------------------------------*/
FoamFile
{
    version     2.0;
    format      ascii;
    class       volScalarField;
    location    "0.001900000";
    object      p;
}
// * * * * * * * * * * * * * * * * * * * * * * * * * * * * * * * * * * * * * //

dimensions      [1 -1 -2 0 0 0 0];

internalField   nonuniform List<scalar> 
12384
(
226158
221809
229863
207020
245498
232447
227084
231509
214504
216677
191548
196498
180368
185573
195538
198518
200963
203391
204407
208028
203041
228383
206975
208307
205664
208844
211595
212789
213546
211244
210653
210681
211308
208493
204327
184079
186590
157741
167048
151503
152917
166454
170866
178580
181410
183080
187212
188043
189014
188030
191688
185612
202407
191714
218116
210290
228253
236396
238466
243990
245608
245173
246528
244907
250055
246679
257062
254552
270636
280412
292181
291901
292469
251262
139202
140232
139226
142215
140961
144550
143976
146136
147325
148318
149244
149986
150326
150381
150241
149518
149767
149119
149105
149256
148885
148424
148387
146797
147753
147313
149191
150548
152155
153495
116709
116982
116825
116365
116327
115756
115591
114688
114864
113449
113762
112658
111868
111979
110633
110865
109916
109298
109480
108195
108766
107771
107471
107588
106825
107101
106491
106724
106359
106458
102324
102309
102304
102227
102220
102143
102131
102025
102039
101914
101937
101805
101842
101709
101753
101632
101673
101565
101594
101511
101531
101462
101486
101432
101450
101412
101427
101403
101411
101407
101330
101330
101330
101329
101328
101327
101327
101326
101325
101325
101324
101324
101323
101323
101322
101323
101322
101323
101322
101323
101322
101323
101323
101324
101323
101324
101324
101325
101324
101325
101325
101324
101324
101324
101324
101324
101323
101323
101323
101323
101322
101323
101322
101322
101322
101322
101322
101322
101322
101323
101322
101323
101323
101324
101323
101324
101324
101325
101325
101325
101325
101325
101324
101325
101324
101324
101323
101323
101323
101323
101322
101323
101322
101322
101322
101322
101322
101322
101322
101323
101322
101323
101323
101324
101323
101324
101324
101325
101325
101325
101324
101325
101324
101324
101324
101323
101324
101323
101323
101322
101323
101322
101322
101322
101322
101322
101322
101322
101322
101323
101322
101323
101323
101324
101324
101324
101324
101325
101324
101325
101325
101325
101324
101324
101324
101324
101323
101323
101323
101323
101322
101323
101322
101322
101322
101322
101322
101322
101322
101323
101322
101323
101323
101324
101323
101324
101324
101325
101324
101325
101325
101325
101325
101325
101324
101324
101323
101324
101323
101323
101322
101323
101322
101322
101322
101322
101322
101322
101322
101322
101323
101322
101323
101323
101324
101323
101324
101324
101324
101324
101326
101326
101325
101326
101325
101325
101324
101324
101323
101323
101322
101322
101321
101322
101321
101321
101321
101321
101321
101322
101321
101322
101322
101323
101323
101324
101323
101324
101324
101324
216280
229850
215535
244128
239025
248323
221257
214739
218781
205566
200233
189630
182563
179998
197616
202085
202002
203865
206960
202752
220549
230117
221283
211395
211070
209711
210171
209832
208039
208141
205024
205061
205525
207055
201443
192719
182309
160922
164821
151950
157880
165400
171280
175715
181296
184734
185717
188406
190771
187315
193583
185624
201896
194269
215814
209780
231304
230048
239975
241948
244488
245316
245325
246934
247095
252903
252874
261414
261395
271603
278478
287016
278056
270280
139126
139414
139145
141617
140862
144632
144225
146757
147519
148691
149072
149531
149801
150032
150145
149852
149716
149539
149315
148974
148817
148451
148142
146835
147436
147246
148854
149885
151700
152773
117212
116751
116498
116708
116171
116167
115421
115073
114497
114086
113084
113239
111920
111708
111172
110138
110523
109037
109724
108277
108744
107767
107774
107344
107039
106896
106643
106519
106455
106307
102300
102293
102269
102292
102205
102203
102124
102072
102026
101951
101929
101830
101837
101724
101748
101642
101668
101572
101598
101512
101537
101466
101483
101440
101438
101424
101416
101409
101405
101400
101327
101327
101326
101325
101326
101324
101323
101323
101321
101322
101320
101321
101319
101320
101319
101319
101319
101319
101319
101320
101319
101320
101319
101321
101320
101321
101320
101321
101320
101321
101321
101321
101320
101321
101320
101320
101319
101320
101319
101320
101319
101319
101318
101319
101318
101319
101318
101319
101318
101319
101319
101320
101319
101320
101320
101321
101320
101321
101321
101321
101321
101321
101320
101321
101320
101321
101319
101320
101319
101320
101319
101319
101318
101319
101318
101319
101318
101319
101319
101320
101319
101320
101319
101320
101320
101321
101320
101321
101321
101321
101321
101320
101320
101320
101321
101320
101320
101319
101320
101319
101320
101318
101319
101318
101319
101318
101319
101319
101319
101320
101319
101320
101319
101321
101320
101321
101320
101321
101320
101321
101321
101321
101320
101321
101320
101321
101319
101320
101319
101320
101319
101319
101318
101319
101318
101319
101318
101319
101319
101320
101319
101320
101319
101320
101320
101321
101320
101320
101320
101321
101321
101321
101321
101321
101320
101321
101320
101320
101319
101320
101319
101319
101318
101319
101318
101318
101319
101318
101319
101318
101320
101319
101320
101319
101320
101320
101321
101320
101321
101321
101322
101322
101322
101322
101321
101322
101320
101321
101319
101320
101318
101319
101318
101319
101317
101318
101317
101318
101317
101319
101318
101319
101318
101320
101319
101320
101320
101320
101320
101320
217798
216076
225434
214561
241957
213312
210525
215140
208790
207885
198315
190596
181513
180201
199077
202524
202404
204043
205917
210606
206675
212202
216776
212332
205149
205679
205641
204750
204637
204242
204705
202428
201255
200548
201393
192944
186457
164589
169900
156224
161808
168582
168275
174805
183352
183069
187554
188753
189608
188739
189873
190514
192925
193300
209833
208320
227399
226644
240634
240594
244284
244256
246702
245936
250406
250168
256748
254738
259326
257024
265306
263607
269853
293693
138227
138470
138600
140435
140356
143988
143836
147003
146825
148816
148575
149548
149427
149881
150002
150356
150251
150027
149703
149363
148469
148725
147490
147183
147303
147554
148322
149462
150744
151946
116999
117523
117580
116996
116561
115903
116040
114917
115017
113792
113800
112605
112706
111271
111682
110049
110593
109147
109499
108307
108713
107602
107897
107143
107125
106792
106632
106498
106366
106286
102472
102442
102439
102278
102309
102169
102190
102053
102075
101932
101962
101816
101854
101715
101755
101633
101669
101567
101598
101512
101538
101468
101488
101442
101440
101432
101410
101420
101404
101410
101337
101336
101335
101335
101334
101333
101333
101331
101331
101329
101330
101328
101329
101327
101328
101326
101328
101326
101328
101327
101328
101327
101329
101328
101330
101329
101330
101329
101330
101330
101330
101330
101330
101329
101330
101328
101329
101328
101329
101327
101328
101327
101328
101326
101327
101326
101327
101326
101328
101327
101328
101327
101329
101328
101330
101329
101330
101329
101330
101330
101330
101330
101331
101329
101330
101328
101329
101328
101329
101327
101328
101327
101328
101326
101327
101326
101327
101326
101328
101327
101328
101327
101329
101328
101330
101329
101330
101329
101330
101330
101330
101330
101329
101330
101329
101330
101328
101329
101327
101328
101327
101328
101326
101327
101326
101327
101326
101327
101327
101327
101328
101327
101329
101328
101330
101329
101330
101329
101330
101330
101330
101330
101331
101329
101330
101328
101329
101328
101329
101327
101328
101327
101328
101326
101327
101326
101327
101326
101328
101327
101328
101327
101329
101328
101330
101329
101330
101329
101330
101330
101331
101331
101330
101329
101330
101329
101330
101328
101329
101327
101328
101327
101328
101326
101327
101327
101326
101327
101326
101328
101327
101328
101327
101329
101328
101330
101329
101330
101330
101330
101332
101331
101332
101330
101331
101329
101330
101328
101329
101327
101328
101326
101327
101325
101327
101325
101326
101325
101327
101326
101327
101326
101328
101327
101329
101328
101330
101329
101330
101330
215928
214558
213157
219963
209949
213340
212421
205882
208730
204231
199740
191823
185205
178250
201335
204548
204682
204622
203929
201014
211482
204850
211863
203258
206797
205175
203096
201780
200766
201522
199743
199121
195992
197424
195216
194427
186108
173510
174315
165260
163657
170887
171870
169899
183453
184410
187359
189715
189919
189610
191001
189558
191015
185192
206211
206762
218344
223279
234398
239866
244041
245261
244016
246769
246019
250513
247781
249163
242625
247928
245623
250119
274944
302774
139322
137685
138054
138821
139564
142325
144507
146238
148374
148819
149832
149155
150002
149757
149910
150305
150358
150063
149620
149494
148376
148248
147495
147548
147714
147234
148136
148785
149575
150187
117642
117518
117089
116915
117007
116776
115655
115733
114516
114603
113234
113417
112232
111677
111607
110216
110599
109253
109520
108439
108633
107632
107948
107014
107319
106576
106845
106284
106487
106169
102376
102387
102303
102412
102243
102292
102143
102157
102022
102025
101905
101903
101799
101795
101707
101704
101629
101628
101563
101562
101504
101511
101457
101473
101425
101443
101408
101416
101409
101402
101333
101332
101332
101330
101330
101329
101327
101329
101325
101327
101323
101326
101322
101325
101322
101324
101322
101324
101322
101324
101322
101325
101322
101325
101323
101326
101323
101326
101324
101325
101325
101325
101324
101326
101323
101325
101322
101325
101322
101324
101321
101324
101321
101324
101321
101323
101321
101324
101321
101324
101322
101325
101322
101325
101323
101326
101324
101325
101325
101325
101325
101326
101323
101326
101323
101325
101322
101325
101322
101324
101321
101324
101321
101324
101321
101323
101321
101324
101321
101324
101322
101325
101322
101325
101323
101326
101324
101325
101325
101325
101325
101325
101326
101323
101326
101323
101325
101322
101325
101322
101324
101321
101324
101321
101323
101321
101324
101321
101324
101323
101322
101325
101322
101325
101323
101326
101323
101326
101324
101325
101325
101326
101323
101326
101323
101325
101322
101325
101322
101324
101321
101324
101321
101324
101321
101323
101321
101324
101321
101324
101322
101325
101322
101325
101323
101326
101324
101325
101325
101325
101326
101325
101325
101326
101323
101326
101323
101325
101322
101325
101322
101324
101321
101324
101321
101321
101323
101321
101324
101321
101324
101322
101325
101322
101325
101323
101326
101324
101324
101325
101326
101327
101325
101327
101324
101326
101323
101326
101322
101325
101321
101324
101321
101323
101320
101323
101320
101323
101320
101323
101321
101324
101321
101325
101322
101325
101323
101325
101325
101325
210024
211441
207822
208000
216878
208670
207900
208890
206980
203797
201164
195783
189536
183024
201082
203111
202356
202674
202593
204939
201390
211329
201494
205757
202883
202447
201451
199830
198922
196656
197183
195610
194804
190967
187998
190880
186742
178479
180446
175569
177232
175914
173250
168379
183908
186668
188459
189170
189780
190514
190685
188517
192908
194754
203223
207287
205647
215507
219876
228974
240347
244429
245334
241629
243609
239808
240180
234355
240116
227875
239189
245269
275638
299954
139262
137929
136107
136796
137500
141599
142145
146489
147606
150318
150164
150824
149880
150342
149915
149941
149917
149960
149379
149139
148025
148271
147601
147334
147554
147729
147285
147864
147781
147915
117197
118143
118291
118485
117759
116790
116708
115439
115543
114144
114236
112859
113016
111545
111878
110538
110228
110009
108839
109123
108384
107742
107870
107151
107081
106735
106554
106396
106204
106322
102681
102601
102640
102405
102457
102261
102285
102121
102140
101981
102004
101856
101881
101752
101774
101666
101683
101597
101606
101535
101543
101491
101474
101463
101441
101427
101425
101408
101412
101400
101339
101335
101332
101334
101330
101332
101329
101329
101327
101327
101325
101325
101325
101323
101324
101323
101323
101323
101323
101323
101323
101323
101324
101324
101324
101324
101325
101325
101325
101325
101325
101325
101325
101325
101325
101324
101324
101324
101324
101323
101323
101323
101323
101323
101323
101323
101323
101323
101323
101323
101323
101323
101324
101324
101324
101324
101325
101325
101325
101325
101325
101325
101325
101325
101325
101324
101324
101324
101324
101323
101323
101323
101323
101323
101323
101323
101323
101323
101323
101323
101323
101323
101324
101324
101324
101324
101325
101325
101325
101325
101325
101325
101325
101325
101324
101324
101324
101324
101323
101323
101323
101323
101323
101323
101322
101323
101323
101323
101323
101323
101323
101323
101324
101324
101325
101325
101325
101325
101325
101325
101325
101325
101325
101325
101325
101324
101324
101324
101324
101323
101323
101323
101323
101323
101323
101323
101323
101323
101323
101323
101323
101323
101324
101324
101324
101324
101325
101325
101325
101325
101326
101325
101325
101325
101325
101324
101324
101324
101324
101323
101323
101323
101323
101322
101323
101322
101322
101323
101323
101323
101323
101324
101323
101324
101324
101325
101325
101325
101325
101325
101326
101326
101326
101326
101326
101325
101325
101324
101324
101323
101323
101322
101322
101322
101322
101322
101322
101322
101322
101322
101323
101322
101323
101323
101324
101324
101324
101325
101325
101325
207559
204783
208904
207816
207341
209120
209103
207917
209018
205723
202822
200097
197316
189437
200645
202393
201657
201869
202255
201515
204114
198834
203821
200835
202613
202180
200818
198935
196320
198104
195556
194461
192380
192459
189479
188376
186785
181979
181746
186825
185651
183777
178626
174550
190527
188052
187299
189319
189870
196844
193980
188348
198574
211383
203272
193065
201772
205602
213496
217422
224018
237864
240488
236179
229754
232868
232128
231391
220597
228017
235468
245221
266445
290406
139243
141921
136408
134287
135950
138451
142727
145625
149531
149961
151753
151120
151382
150163
150308
149476
149336
149145
148985
148491
148308
148010
147830
147309
147451
147077
147449
146568
146011
144997
117463
118176
118614
118049
117844
117730
116790
116598
115113
115312
113713
113932
112433
112619
111119
111531
109806
110414
108909
108927
108550
107862
107651
107434
106733
106980
106218
106465
105995
106089
102623
102744
102507
102636
102394
102459
102247
102273
102094
102109
101950
101962
101829
101836
101730
101731
101647
101648
101571
101583
101512
101527
101466
101482
101434
101448
101414
101424
101403
101409
101335
101339
101339
101335
101335
101332
101332
101330
101329
101329
101326
101327
101325
101325
101324
101325
101324
101324
101324
101324
101324
101325
101324
101325
101325
101326
101325
101326
101326
101326
101326
101326
101326
101326
101325
101326
101325
101325
101324
101325
101324
101324
101323
101324
101323
101324
101323
101324
101323
101324
101324
101325
101324
101325
101325
101326
101325
101326
101326
101326
101326
101326
101326
101326
101325
101326
101324
101325
101324
101325
101324
101324
101323
101324
101323
101324
101323
101324
101323
101324
101324
101325
101324
101325
101325
101326
101325
101326
101326
101326
101326
101326
101326
101325
101326
101325
101325
101324
101325
101324
101324
101323
101324
101323
101324
101323
101324
101323
101324
101324
101324
101325
101324
101325
101325
101326
101325
101326
101326
101326
101326
101326
101325
101326
101325
101326
101324
101325
101324
101325
101324
101324
101323
101324
101323
101324
101323
101324
101323
101324
101324
101325
101324
101325
101325
101326
101325
101326
101326
101326
101326
101326
101326
101326
101325
101326
101325
101325
101324
101325
101324
101324
101323
101324
101323
101323
101324
101323
101324
101323
101324
101324
101325
101324
101325
101325
101326
101326
101326
101326
101327
101327
101327
101327
101326
101326
101325
101325
101324
101325
101323
101324
101323
101323
101322
101323
101322
101323
101322
101324
101323
101324
101324
101325
101324
101326
101325
101326
101326
101326
201174
205413
204781
207067
209356
210604
210238
211307
208700
209205
204792
203645
202525
196115
199570
200146
201133
201237
201681
202213
200429
202841
198997
201018
200560
200657
199791
198091
195530
195196
193713
193701
192224
192575
190244
185474
185118
184571
185546
186709
191037
189688
183809
176522
188805
188923
188176
188450
195640
196690
192401
197603
211827
225681
184979
192897
201006
209669
220993
218367
208642
217861
228663
229545
232909
226240
218161
213907
220870
227562
227082
244608
252089
268614
147948
139558
140240
133957
133847
140167
141595
147636
149322
152271
152246
152744
151433
151224
149565
149804
148687
148231
147941
148244
148046
148147
147472
147566
147235
146018
145109
144250
142661
143431
118066
118575
118531
119563
119814
118508
117710
116677
116243
114727
114848
113368
113506
112087
111708
111275
110298
110067
109326
109066
108188
108435
107255
107717
106563
107029
106114
106400
105896
105841
103094
102821
102954
102596
102684
102395
102465
102206
102269
102048
102097
101902
101947
101781
101822
101684
101717
101616
101608
101576
101530
101522
101490
101467
101454
101444
101415
101426
101401
101407
101348
101339
101335
101339
101334
101336
101331
101331
101328
101329
101327
101327
101325
101325
101324
101324
101324
101323
101324
101324
101324
101324
101324
101324
101325
101325
101325
101325
101325
101325
101325
101325
101325
101325
101325
101325
101325
101324
101324
101323
101324
101323
101323
101323
101323
101323
101323
101323
101323
101323
101324
101324
101324
101324
101325
101325
101325
101325
101325
101325
101325
101325
101325
101325
101325
101325
101325
101324
101324
101324
101324
101323
101323
101323
101323
101323
101323
101323
101323
101323
101324
101324
101324
101324
101325
101325
101325
101325
101325
101325
101326
101325
101325
101325
101325
101325
101324
101324
101324
101324
101323
101323
101323
101323
101323
101323
101323
101323
101324
101323
101324
101324
101324
101324
101325
101325
101325
101325
101325
101326
101325
101325
101325
101325
101325
101325
101324
101324
101324
101323
101324
101323
101323
101323
101323
101323
101323
101323
101323
101323
101324
101324
101324
101324
101325
101325
101325
101325
101325
101325
101326
101326
101326
101325
101325
101325
101325
101324
101324
101324
101324
101323
101323
101323
101323
101323
101323
101323
101323
101323
101323
101324
101324
101324
101324
101325
101325
101325
101325
101326
101326
101326
101326
101326
101326
101325
101325
101324
101324
101323
101323
101323
101323
101322
101322
101322
101322
101322
101323
101322
101323
101323
101324
101324
101325
101325
101325
101326
101326
101326
200450
202697
203612
207870
210834
210449
213483
211900
211964
208876
208640
205813
205146
202174
199358
199350
199707
199801
199637
199350
199173
197318
197569
196395
196724
198413
198811
197390
197271
194159
194479
193023
193508
191860
188726
187060
185469
184973
185537
186559
191314
192803
188574
183511
185982
182927
180683
188356
192679
190972
181417
208053
207543
184277
161230
192546
195701
197376
203844
199867
187624
203460
219386
229889
218998
210969
210647
217772
216861
218992
230155
236956
248022
250721
140511
147913
140540
143215
139557
140015
150130
147026
152556
151978
153644
152788
152726
150912
150486
148604
148430
147592
147710
147409
147929
147707
147599
147123
146893
145634
145856
143954
143163
139055
114957
119225
119494
119358
119516
119879
118487
117434
116770
115511
114498
114319
112855
112933
111494
111789
110136
110670
109128
109504
108152
108480
107299
107654
106656
106953
106111
106336
105836
106004
102422
103127
102616
102912
102545
102648
102367
102392
102187
102188
102030
102014
101904
101852
101793
101738
101700
101642
101632
101556
101580
101494
101527
101452
101473
101436
101425
101423
101405
101406
101335
101344
101346
101338
101340
101335
101335
101332
101332
101329
101329
101327
101327
101326
101326
101325
101325
101325
101325
101325
101325
101325
101325
101326
101326
101326
101326
101327
101327
101327
101327
101327
101326
101327
101326
101326
101325
101326
101325
101325
101324
101325
101324
101324
101324
101324
101324
101325
101324
101325
101325
101325
101325
101326
101326
101326
101326
101327
101327
101327
101327
101327
101326
101327
101326
101326
101325
101326
101325
101325
101324
101325
101324
101324
101324
101324
101324
101325
101324
101325
101325
101325
101325
101326
101326
101326
101326
101327
101327
101327
101327
101327
101327
101326
101326
101326
101326
101325
101325
101325
101325
101324
101325
101324
101324
101324
101324
101324
101324
101325
101325
101325
101325
101326
101326
101326
101326
101327
101327
101327
101327
101327
101326
101327
101326
101326
101325
101326
101325
101325
101324
101325
101324
101324
101324
101324
101324
101325
101324
101325
101325
101325
101325
101326
101326
101326
101326
101326
101327
101327
101327
101327
101327
101327
101326
101326
101325
101326
101325
101325
101324
101325
101324
101324
101324
101324
101324
101324
101325
101324
101325
101325
101326
101325
101326
101326
101326
101327
101327
101327
101327
101327
101327
101327
101326
101327
101326
101326
101325
101325
101324
101324
101324
101324
101323
101324
101323
101324
101323
101324
101324
101325
101325
101326
101326
101326
101327
101327
101327
101327
200380
202185
203618
208562
209213
213538
213510
214600
213248
212592
210574
208487
208928
207298
205063
203176
204614
198914
200264
199969
200212
199881
198966
198481
197955
198419
197067
195690
195640
197542
195304
195330
194000
194363
192172
190920
188508
187012
185062
183996
185774
189492
185898
183653
182111
169517
149036
151803
176084
172385
176223
182189
186980
183435
181104
190541
194872
195239
190594
186892
190831
194355
195982
193965
188991
194150
221972
217622
216337
217526
213408
209173
212356
216085
217808
225897
219000
200783
127659
138442
150278
144460
145188
140913
146366
146683
147060
154872
152329
154954
153518
153851
152394
152048
149676
149557
147553
147611
146792
147247
147026
147266
147161
146513
145932
145464
141822
139171
134485
130026
119864
123088
116947
119736
120309
121406
120755
120153
119709
117937
117543
115429
115637
113889
113888
112158
112760
110842
110841
110486
109124
109636
108061
108662
107238
107723
106559
106872
105975
105954
105636
105019
104839
104055
104103
103259
103535
102861
103035
102597
102676
102338
102411
102115
102195
101947
102018
101816
101874
101702
101765
101620
101670
101560
101588
101506
101525
101461
101481
101427
101443
101411
101408
101394
101388
101367
101365
101354
101346
101347
101338
101340
101334
101335
101331
101328
101329
101326
101327
101325
101326
101324
101325
101324
101324
101324
101324
101324
101325
101325
101325
101325
101326
101326
101326
101326
101327
101327
101326
101326
101326
101326
101325
101325
101325
101325
101325
101324
101324
101324
101324
101323
101323
101323
101324
101324
101324
101324
101324
101324
101325
101325
101325
101325
101326
101326
101326
101326
101327
101327
101326
101326
101326
101326
101325
101325
101325
101325
101325
101324
101324
101324
101324
101323
101323
101323
101324
101324
101324
101324
101324
101324
101325
101325
101325
101325
101326
101326
101326
101326
101327
101327
101326
101326
101326
101326
101325
101325
101325
101325
101324
101324
101324
101324
101324
101324
101324
101323
101324
101323
101324
101324
101324
101324
101325
101325
101325
101325
101326
101326
101326
101326
101327
101327
101326
101326
101326
101326
101325
101325
101325
101325
101325
101324
101324
101324
101324
101323
101323
101323
101324
101323
101324
101324
101324
101324
101325
101325
101325
101325
101326
101326
101326
101326
101327
101327
101326
101326
101326
101326
101326
101325
101325
101325
101324
101324
101324
101324
101324
101323
101323
101323
101323
101324
101323
101324
101324
101324
101324
101325
101325
101325
101325
101326
101326
101326
101327
101327
101327
101326
101326
101326
101326
101325
101325
101325
101324
101324
101324
101323
101323
101323
101323
101323
101323
101323
101323
101323
101324
101324
101325
101325
101325
101326
101326
101327
101327
101327
101328
101328
199318
203541
203305
207317
210597
212681
215266
214662
214961
213732
212462
211078
208832
208301
205488
203364
200209
200521
198381
198133
196922
196716
196083
196120
195245
194738
195447
196985
196691
194974
195957
194227
194833
192001
191279
190555
186222
186943
183734
184522
185302
183444
188999
191537
177390
176151
168973
165926
172859
169470
174432
182214
182184
187742
171025
194178
187894
198949
186202
193794
186586
191154
195428
193862
205604
196914
189814
218626
215586
211333
206320
207121
208920
211591
213529
211698
209840
200813
150641
166011
144073
154737
151722
153885
152457
155307
160321
155493
158096
154699
155371
153482
153618
151356
151174
148359
148811
146767
147271
146439
146674
146685
146443
146091
145210
143354
141451
140397
134767
134824
127634
123177
122243
121859
122390
121284
121565
120394
119288
119464
116762
116545
115841
113715
114584
112073
112845
111091
110918
110275
109509
109306
108254
108567
107287
107692
106536
106913
105835
106194
105203
105411
104288
104469
103526
103533
103304
103028
102949
102787
102523
102551
102313
102206
102162
102004
102018
101823
101898
101723
101762
101640
101677
101560
101607
101506
101542
101465
101486
101437
101440
101413
101414
101387
101396
101365
101375
101349
101359
101341
101348
101337
101340
101334
101334
101332
101330
101330
101328
101328
101326
101327
101326
101326
101326
101326
101326
101326
101326
101326
101326
101327
101327
101327
101327
101327
101327
101327
101327
101327
101327
101327
101327
101327
101326
101326
101326
101326
101325
101325
101325
101325
101325
101325
101325
101325
101325
101325
101325
101326
101326
101326
101326
101327
101327
101327
101327
101327
101327
101327
101327
101327
101327
101327
101327
101327
101326
101326
101326
101326
101325
101325
101325
101325
101325
101325
101325
101325
101325
101325
101325
101326
101326
101326
101326
101327
101327
101327
101327
101327
101327
101327
101327
101327
101327
101327
101327
101326
101326
101326
101326
101325
101325
101325
101325
101325
101325
101325
101325
101325
101325
101325
101325
101326
101326
101326
101326
101327
101327
101327
101327
101327
101327
101327
101327
101327
101327
101327
101327
101326
101326
101326
101326
101326
101325
101325
101325
101325
101325
101325
101325
101325
101325
101325
101325
101326
101326
101326
101326
101327
101327
101327
101327
101327
101327
101327
101327
101327
101327
101327
101327
101327
101326
101326
101325
101326
101325
101325
101325
101325
101325
101325
101325
101325
101325
101325
101326
101325
101326
101326
101327
101327
101327
101327
101327
101327
101328
101328
101328
101328
101327
101327
101327
101327
101326
101326
101325
101325
101325
101325
101324
101324
101324
101324
101324
101325
101324
101325
101325
101325
101326
101326
101327
101327
101327
101328
101328
101328
101329
101329
200430
204899
202161
209736
208343
214179
214810
217242
217173
216470
214229
212345
211231
209236
206422
203537
202154
200349
199322
198032
198414
196776
197027
196103
196503
196551
195240
194383
193941
194378
193514
194444
192672
191092
191566
187010
186269
185885
184288
184925
185393
183733
180975
181020
186937
197395
188671
171556
177268
178171
179477
179755
176533
176467
179520
181913
195282
191954
194967
189115
189364
192681
196986
200564
200271
200369
184293
205752
211538
207216
209145
206749
202338
201793
206764
207260
203052
190402
179409
166516
163048
152395
154678
156121
158597
161858
159833
162631
157460
158368
154787
155176
152868
152941
150179
150139
147702
147851
146390
146530
146162
145908
145851
145274
143505
143660
139956
138307
136096
131575
131904
124629
124977
123272
122149
122670
121257
121422
119407
119784
117022
117446
115593
114430
114178
112566
112799
111050
111539
109749
110364
108744
108764
108323
107346
107749
106474
106960
105734
106175
105064
105413
104213
104655
103487
103873
103285
103236
102984
102717
102779
102438
102432
102196
102254
101973
102081
101843
101897
101750
101778
101648
101692
101573
101602
101524
101532
101478
101486
101439
101451
101407
101422
101385
101395
101368
101375
101353
101358
101345
101346
101341
101338
101336
101333
101332
101329
101329
101327
101327
101326
101326
101325
101325
101325
101325
101325
101325
101325
101325
101326
101326
101326
101326
101326
101326
101326
101326
101326
101326
101326
101326
101326
101325
101325
101325
101325
101324
101324
101324
101324
101324
101324
101324
101324
101324
101324
101324
101325
101324
101325
101325
101325
101326
101326
101326
101326
101326
101326
101326
101326
101326
101326
101326
101326
101325
101325
101325
101325
101324
101324
101324
101324
101324
101324
101324
101324
101324
101324
101324
101325
101324
101325
101325
101325
101326
101326
101326
101326
101326
101326
101326
101326
101326
101326
101326
101326
101325
101325
101325
101325
101325
101324
101324
101324
101324
101324
101324
101324
101324
101324
101324
101324
101325
101325
101325
101325
101326
101326
101326
101326
101326
101326
101326
101326
101326
101326
101326
101326
101325
101325
101325
101325
101324
101324
101324
101324
101324
101324
101324
101324
101324
101324
101324
101325
101324
101325
101325
101325
101326
101326
101326
101326
101326
101326
101326
101326
101326
101326
101326
101326
101325
101325
101325
101325
101324
101324
101324
101324
101324
101324
101324
101324
101324
101324
101324
101324
101325
101325
101325
101325
101326
101326
101326
101326
101327
101327
101327
101327
101327