/*--------------------------------*- C++ -*----------------------------------*\
| =========                 |                                                 |
| \\      /  F ield         | OpenFOAM: The Open Source CFD Toolbox           |
|  \\    /   O peration     | Version:  2.1.1                                 |
|   \\  /    A nd           | Web:      www.OpenFOAM.org                      |
|    \\/     M anipulation  |                                                 |
\*---------------------------------------------------------------------------*/
FoamFile
{
    version     2.0;
    format      ascii;
    class       volScalarField;
    location    "0.001900000";
    object      Tu;
}
// * * * * * * * * * * * * * * * * * * * * * * * * * * * * * * * * * * * * * //

dimensions      [0 0 0 1 0 0 0];

internalField   nonuniform List<scalar> 
12384
(
270
270
270
270
270
340.836
369.265
370.831
363.526
364.087
352.047
354.893
346.137
349.012
354.347
355.893
357.072
358.405
357.361
353.355
344.92
350.461
344.011
344.47
346.829
350.672
352.33
355.724
359.849
361.172
361.755
361.958
362.351
360.958
358.607
348.602
349.356
333.22
338.269
328.995
329.985
338.153
340.662
345.267
346.117
347.258
349.546
350.272
350.569
349.782
351.691
348.667
356.286
352.387
364.321
361.45
369.72
373.394
374.379
376.783
377.414
377.295
377.663
377.323
378.928
378.115
381.81
381.685
388.034
391.996
396.608
396.123
396.25
379.62
320.833
321.569
320.827
322.863
321.974
324.345
323.94
325.352
326.088
326.722
327.306
327.764
327.976
328.009
327.937
327.463
327.644
327.228
327.216
327.322
327.084
326.806
326.75
325.776
326.353
326.092
327.277
328.111
329.117
329.929
305.089
305.296
305.187
304.83
304.82
304.375
304.267
303.573
303.712
302.637
302.867
302.043
301.405
301.526
300.45
300.663
299.895
299.438
299.555
298.57
298.993
298.236
297.968
298.087
297.458
297.696
297.195
297.391
297.093
297.176
293.825
293.813
293.809
293.744
293.741
293.674
293.666
293.578
293.592
293.486
293.508
293.396
293.428
293.318
293.355
293.253
293.288
293.198
293.224
293.155
293.17
293.114
293.134
293.088
293.104
293.073
293.085
293.065
293.071
293.067
293.004
293.004
293.004
293.003
293.004
293.002
293.002
293.001
293.001
293
293
293
292.998
292.998
292.997
292.998
292.997
292.998
292.999
292.999
292.998
292.999
292.999
292.999
292.999
293
292.999
292.999
293
292.999
292.999
293
293
292.999
293
292.999
292.998
292.999
292.999
292.999
292.999
292.999
292.997
292.998
292.997
292.998
292.997
292.998
292.999
292.999
292.998
292.999
292.999
292.999
292.998
293
293
293
292.999
292.999
293
292.999
293
293
293
292.999
292.998
292.999
292.999
292.999
292.999
292.999
292.997
292.998
292.997
292.998
292.997
292.998
292.999
292.999
292.998
292.999
292.999
292.999
292.998
293.001
293
293
292.999
292.999
293
293
292.999
292.999
293.001
292.999
292.999
292.999
292.999
292.998
292.999
292.999
292.998
292.997
292.998
292.998
292.998
292.997
292.999
292.999
292.998
292.999
292.999
292.999
292.998
293.001
292.999
292.999
293
292.999
292.999
293
293
292.999
293
292.999
292.998
292.999
292.999
292.999
292.999
292.999
292.997
292.998
292.997
292.998
292.997
292.998
292.999
292.999
292.998
292.999
292.999
292.999
292.998
293.001
292.999
293
292.999
292.999
293
293
293
293
293.001
292.999
292.998
293
292.998
292.999
292.999
292.999
292.998
292.998
292.997
292.998
292.997
292.997
292.999
292.999
292.999
292.998
292.999
292.999
292.999
293
292.999
292.999
293
292.999
293
293.001
293.001
293.001
293.001
293
293
292.999
292.998
292.999
292.998
292.999
292.997
292.997
292.998
292.998
292.998
292.998
292.996
292.997
292.997
292.998
292.998
292.998
292.998
293
292.999
293
292.999
293
270
270
270
270
270
345.124
357.893
357.133
363.366
358.915
356.541
351.193
347.312
345.713
355.389
356.388
353.949
345.087
304.867
270
270
270
270
270
270
270
270
270
272.493
313.263
325.167
350.215
359.347
360.077
357.331
352.842
346.868
334.851
336.972
329.349
332.937
337.447
340.856
343.524
345.929
347.854
348.591
350.169
351.576
349.665
352.594
348.894
356.513
352.727
363.72
360.89
371.204
370.597
375.113
375.971
377.047
377.274
377.314
377.635
377.962
380.199
380.571
384.135
384.147
388.474
390.871
394.1
391.188
387.978
320.792
320.981
320.747
322.425
321.854
324.399
324.093
325.718
326.175
326.916
327.151
327.448
327.623
327.767
327.854
327.668
327.599
327.482
327.342
327.132
327.036
326.799
326.617
325.784
326.165
326.03
327.05
327.699
328.828
329.495
305.488
305.142
304.931
305.097
304.661
304.69
304.103
303.879
303.406
303.148
302.316
302.512
301.425
301.334
300.856
300.116
300.347
299.263
299.711
298.678
298.931
298.286
298.159
297.953
297.579
297.588
297.276
297.267
297.144
297.083
293.783
293.8
293.77
293.815
293.723
293.736
293.66
293.622
293.587
293.517
293.51
293.415
293.435
293.329
293.359
293.263
293.291
293.206
293.232
293.159
293.181
293.122
293.136
293.1
293.098
293.087
293.08
293.074
293.072
293.065
293.008
293.007
293.007
293.005
293.004
293.005
293.003
293.004
293.001
293.003
293
293.002
292.999
293.001
292.999
293.001
292.999
293.001
292.999
293.001
292.999
293.002
292.999
293.002
293
293.003
293
293.002
293.001
293.004
293.002
293.001
292.999
293.002
292.999
293.002
292.999
293.002
292.999
293.001
292.999
293.001
292.998
293
292.998
293
292.998
293
292.999
293.001
292.999
293.001
292.999
293.002
293
293.002
293
293.002
293.001
293
293.001
293.002
293
293.002
293
293.002
292.999
293.002
292.999
293.001
292.999
293.001
292.998
293
292.998
293
292.998
293
292.999
293.001
292.999
293.001
292.999
293.002
293
293.002
293
293.002
293.002
293
293.001
293.001
293.002
293
293.002
293
293.002
292.999
293.001
292.999
293.001
292.998
293
292.998
293
292.998
293
292.999
293
293
292.999
293.002
292.999
293.002
292.999
293.003
293
293.002
293.001
293.004
293
293.002
293
293.002
293
293.002
293
293.002
292.999
293.001
292.999
293.001
292.998
293
292.998
293
292.998
293
292.999
293.001
292.999
293.001
292.999
293.002
293
293.002
293
293.001
293.002
293
293.005
293.002
293.002
293.003
293
293.003
293
293.002
292.999
293.001
292.999
293.001
292.998
293.001
292.999
292.999
293.001
292.998
293
292.999
293.001
292.999
293.001
292.999
293.002
293
293.003
293
293.002
293.003
293.002
293.004
293.001
293.004
293.001
293.003
293
293.002
292.999
293.001
292.999
293
292.998
293
292.998
293
292.998
293
292.998
293
292.998
293.001
292.999
293.002
292.999
293.002
292.999
293.001
293.001
293
270
270
270
270
270
293.061
303.063
295.434
315.505
352.022
354.613
351.495
346.505
345.799
355.143
345.482
275.94
270
270
270
270
270
270
270
270
270
270
270
270
270
270
270
310.492
341.5
354.484
353.115
349.156
336.71
339.943
331.941
335.331
339.207
338.948
342.823
347.222
347.163
349.533
350.282
350.843
350.322
350.471
351.183
353.185
355.401
365.147
365.576
373.421
371.875
376.306
375.597
376.714
376.814
377.559
377.521
379.25
379.212
381.961
381.219
382.747
382.026
385.444
384.645
387.875
396.621
320.152
320.339
320.436
321.669
321.598
324.068
323.899
325.949
325.794
327.014
326.84
327.444
327.366
327.645
327.719
327.944
327.886
327.747
327.546
327.335
326.77
326.93
326.143
325.961
326.017
326.185
326.662
327.383
328.184
328.93
305.28
305.66
305.699
305.268
304.961
304.463
304.571
303.733
303.804
302.892
302.884
301.994
302.051
300.965
301.263
300.011
300.414
299.305
299.559
298.641
298.945
298.083
298.3
297.72
297.684
297.443
297.291
297.204
297.081
297.03
293.947
293.914
293.919
293.775
293.81
293.687
293.711
293.593
293.616
293.494
293.521
293.399
293.431
293.317
293.349
293.25
293.279
293.196
293.219
293.149
293.17
293.114
293.128
293.092
293.088
293.084
293.064
293.072
293.059
293.064
293.003
293.003
293.003
293.002
293.002
293.001
293
293
293
292.998
292.998
292.997
292.997
292.997
292.996
292.996
292.996
292.997
292.997
292.997
292.997
292.998
292.997
292.997
292.997
292.999
292.998
292.999
292.999
292.999
292.998
292.998
292.998
292.998
292.998
292.997
292.998
292.997
292.997
292.996
292.996
292.996
292.996
292.997
292.996
292.996
292.996
292.996
292.996
292.996
292.997
292.997
292.997
292.997
292.997
292.998
292.998
292.998
292.998
292.998
292.999
292.999
292.998
292.998
292.998
292.997
292.998
292.997
292.998
292.997
292.996
292.996
292.996
292.997
292.996
292.996
292.996
292.996
292.996
292.996
292.997
292.997
292.997
292.997
292.997
292.998
292.998
292.997
292.998
292.998
292.998
292.998
292.998
292.998
292.998
292.997
292.998
292.997
292.997
292.996
292.996
292.996
292.996
292.996
292.996
292.996
292.997
292.997
292.997
292.996
292.997
292.998
292.997
292.998
292.997
292.998
292.998
292.998
292.999
292.998
292.998
292.999
292.998
292.998
292.998
292.997
292.998
292.997
292.997
292.996
292.996
292.996
292.996
292.997
292.996
292.996
292.996
292.996
292.996
292.996
292.997
292.997
292.997
292.997
292.997
292.998
292.998
292.997
292.998
292.998
292.998
292.998
292.999
292.999
292.999
292.998
292.998
292.997
292.998
292.997
292.996
292.996
292.996
292.996
292.996
292.996
292.996
292.996
292.996
292.996
292.996
292.997
292.997
292.997
292.997
292.998
292.998
292.998
292.998
292.998
293
292.999
292.999
292.999
292.999
292.998
292.998
292.997
292.998
292.997
292.997
292.996
292.996
292.996
292.996
292.996
292.995
292.996
292.996
292.996
292.996
292.996
292.997
292.997
292.997
292.998
292.999
292.997
292.999
292.999
270
270
270
270
270
270
270
270
270
276.468
337.026
350.381
348.913
344.788
355.25
299.46
270
270
270
270
270
270
270
270
270
270
270
270
270
270
270
270
270
270
270
315.565
349.025
341.992
342.34
337.321
336.314
340.531
341.106
339.975
347.423
347.873
349.706
351.033
351.224
351.352
352.804
353.816
358.156
359.287
371.789
371.173
375.899
375.141
377.421
376.983
377.326
377.132
376.867
377.557
377.363
379.215
378.21
378.643
375.987
378.256
376.958
379.257
389.172
400.015
320.97
319.882
320.146
320.711
321.126
323.118
324.391
325.53
326.839
327.08
327.672
327.235
327.752
327.599
327.685
327.942
327.958
327.777
327.502
327.413
326.715
326.627
326.152
326.179
326.276
325.971
326.538
326.943
327.437
327.813
305.777
305.698
305.372
305.25
305.309
305.15
304.284
304.362
303.42
303.498
302.452
302.583
301.692
301.243
301.216
300.117
300.432
299.373
299.588
298.739
298.891
298.102
298.35
297.613
297.85
297.265
297.475
297.031
297.189
296.941
293.857
293.876
293.8
293.9
293.752
293.798
293.671
293.687
293.572
293.579
293.476
293.479
293.39
293.387
293.316
293.312
293.252
293.249
293.198
293.195
293.149
293.153
293.109
293.12
293.082
293.096
293.069
293.075
293.069
293.063
293.006
293.006
293.005
293.005
293.005
293.002
293.002
293.001
293.001
293
292.999
292.999
292.999
292.998
292.998
292.998
292.998
292.998
292.998
292.998
292.998
292.999
292.998
292.998
292.998
292.999
292.999
292.999
293
293
292.999
293
293
292.999
292.999
292.998
292.998
292.998
292.998
292.998
292.998
292.998
292.998
292.998
292.998
292.998
292.998
292.998
292.998
292.998
292.998
292.999
292.998
292.998
292.998
293
292.999
293
292.999
292.999
293
293
293
293
292.999
292.998
292.998
292.998
292.998
292.998
292.998
292.998
292.998
292.998
292.998
292.998
292.998
292.998
292.998
292.998
292.998
292.999
292.998
292.998
292.998
293
292.999
293.001
292.999
292.999
293
293
293
292.999
292.999
292.998
292.998
292.998
292.998
292.998
292.998
292.998
292.998
292.998
292.998
292.998
292.998
292.998
292.998
292.999
292.999
292.999
292.998
292.998
292.998
292.999
292.999
293
293
293
292.999
293
293
292.999
292.999
292.999
292.998
292.998
292.998
292.998
292.998
292.998
292.998
292.998
292.998
292.998
292.998
292.998
292.998
292.998
292.998
292.999
292.998
292.998
292.998
293
292.999
293
293
292.999
293
293
292.999
293
292.999
292.998
292.998
292.998
292.998
292.998
292.998
292.998
292.998
292.998
292.998
292.998
292.998
292.998
292.998
292.998
292.998
292.998
292.998
292.998
292.998
292.999
292.999
292.999
293
292.999
293
293.001
293.001
293
293
292.999
292.998
292.998
292.998
292.998
292.998
292.997
292.997
292.997
292.997
292.997
292.996
292.997
292.997
292.997
292.997
292.998
292.998
292.998
292.998
292.999
292.999
293
292.999
292.999
270
366.348
332.632
290.087
498.006
408.15
270
270
270
270
270
307.416
342.974
347.456
353.392
270
270
270
270
270
270
270
270
270
270
270
270
270
270
270
270
270
270
270
270
270
330.597
344.393
345.625
343.166
344.078
343.395
341.802
339.202
347.795
349.202
350.454
350.843
351.709
353.29
355.563
356.428
362.205
364.98
368.348
368.695
367.057
370.118
370.599
373.654
376.787
377.289
376.969
375.972
376.538
374.817
374.816
372.387
374.611
369.522
374.479
376.959
389.83
399.263
320.927
320.229
319.07
319.703
320.332
323.138
323.185
325.838
326.435
328.05
327.918
328.298
327.704
327.982
327.71
327.724
327.712
327.733
327.368
327.202
326.498
326.654
326.231
326.064
326.189
326.3
326.014
326.373
326.327
326.408
305.41
306.13
306.261
306.396
305.877
305.138
305.107
304.123
304.23
303.136
303.242
302.157
302.305
301.155
301.422
300.383
300.139
299.976
299.052
299.278
298.702
298.185
298.295
297.721
297.667
297.39
297.247
297.118
296.97
297.06
294.137
294.046
294.097
293.878
293.941
293.767
293.797
293.653
293.676
293.539
293.563
293.438
293.46
293.353
293.371
293.283
293.294
293.227
293.231
293.176
293.179
293.14
293.121
293.116
293.095
293.086
293.082
293.069
293.072
293.063
293.011
293.009
293.006
293.008
293.005
293.006
293.003
293.003
293.002
293.002
293.001
292.999
293
292.999
292.999
292.999
292.999
292.998
292.998
292.999
292.999
292.999
292.999
292.999
293
293
293
293
293
293
293.001
293
293
293
293
293
293
292.999
292.999
292.999
292.999
292.998
292.998
292.998
292.998
292.998
292.998
292.998
292.998
292.999
292.999
292.999
292.999
292.999
293
293
293
293
293
293.001
293.001
293
293.001
293
293
293
293
292.999
292.999
292.999
292.999
292.998
292.999
292.998
292.998
292.998
292.998
292.998
292.998
292.999
292.999
292.999
292.999
292.999
293
293
293
293
293
293.001
293
293
293
293
293
293
292.999
292.999
292.999
292.999
292.999
292.999
292.998
292.998
292.998
292.998
292.998
292.998
292.999
292.998
292.999
292.999
292.999
292.999
293
293
293.001
293.001
293
293
293.001
293
293
293
293
293
292.999
292.998
292.999
292.999
292.999
292.998
292.999
292.998
292.998
292.998
292.998
292.998
292.998
292.999
292.999
292.999
292.999
292.999
293
293
293
293
293
293.001
293
293.001
293.001
293
293
293
292.999
292.999
293
292.999
292.999
292.998
292.999
292.998
292.998
292.998
292.998
292.999
292.998
292.999
292.999
292.999
292.998
292.999
293
293
293
293
293
293
293.002
293.001
293.001
293.001
293.001
293
293
292.998
292.999
292.999
292.999
292.998
292.998
292.998
292.998
292.997
292.998
292.997
292.998
292.998
292.999
292.998
292.998
292.998
292.999
292.999
293
293
293
293
505.197
592.881
606.455
583.336
728.599
641.93
380.754
270
270
270
270
270
296.755
347.604
335.952
270
270
270
270
270
270
270
270
270
270
270
270
270
270
270
270
270
270
270
270
270
270
332.744
345.778
348.928
348.585
347.751
344.745
342.257
351.7
350.184
349.789
351.229
352.395
358.094
358.37
357.236
362.481
366.234
348.085
328.113
318.063
315.32
329.904
350.361
365.791
374.788
375.154
373.116
370.674
371.9
371.409
370.765
365.932
369.615
372.636
377.309
385.94
394.897
321.199
323.007
320.097
319.415
320.645
322.187
324.285
325.555
327.646
327.868
328.906
328.501
328.651
327.895
327.985
327.457
327.37
327.234
327.13
326.82
326.684
326.515
326.386
326.052
326.136
325.892
326.123
325.563
325.236
324.618
305.667
306.234
306.547
306.136
305.931
305.894
305.128
305.036
303.872
304.066
302.81
303.015
301.836
302.006
300.823
301.166
299.803
300.296
299.104
299.129
298.828
298.289
298.115
297.952
297.386
297.585
296.978
297.175
296.797
296.878
294.039
294.187
293.956
294.096
293.869
293.942
293.751
293.787
293.629
293.651
293.512
293.528
293.414
293.423
293.334
293.336
293.265
293.267
293.203
293.213
293.154
293.167
293.116
293.129
293.089
293.102
293.073
293.081
293.063
293.069
293.008
293.011
293.011
293.007
293.008
293.005
293.005
293.003
293.003
293.002
293.001
293.001
293
293
292.999
292.999
292.999
292.999
292.999
292.999
292.999
292.999
292.999
292.999
293
293
293
293
293
293
293
293
293
293
293
293
292.999
292.999
292.999
292.999
292.999
292.999
292.998
292.998
292.998
292.998
292.998
292.998
292.998
292.999
292.999
292.999
292.999
292.999
292.999
293
293
293
293
293
293
293
293
293
293
293
292.999
292.999
292.998
292.999
292.999
292.999
292.998
292.998
292.998
292.998
292.998
292.999
292.999
292.999
292.999
292.999
292.999
292.999
292.999
293
293
293
293
293
293
293
293
293
293
293
292.999
292.999
292.999
292.999
292.999
292.999
292.999
292.998
292.998
292.998
292.998
292.998
292.998
292.999
292.999
292.999
292.999
292.999
292.999
293
293
293
293
293
293
293
293
293
293
293
292.999
292.999
292.999
292.999
292.999
292.999
292.998
292.998
292.998
292.998
292.998
292.999
292.999
292.999
292.999
292.999
292.999
292.999
292.999
293
293
293
293
293
293
293
293
293
293
293
292.999
292.999
292.999
292.999
292.999
292.999
292.998
292.998
292.998
292.998
292.998
292.998
292.999
292.999
292.999
292.999
292.999
292.999
293
293
293
293
293
293
293.001
293.001
293.001
293.001
293.001
293.001
293
292.999
292.998
292.999
292.998
292.998
292.998
292.998
292.997
292.997
292.997
292.998
292.998
292.998
292.998
292.999
292.998
292.999
292.999
293
293
293
292.999
293
735.3
791.789
795.526
796.309
761.082
583.671
344.976
270
270
270
270
270
270
346.657
315.442
270
270
270
270
270
270
270
270
270
270
270
270
270
270
270
270
270
270
270
270
270
270
270
326.855
348.502
351.088
350.666
347.868
344.263
350.106
350.442
350.199
351.18
356.865
358.755
353.927
345.171
332.951
281.391
270
270
270
270
270
270
270
337.702
368.417
370.541
371.113
368.616
365.102
362.916
366.302
368.995
369.082
376.837
379.994
387.503
326.566
321.93
323.763
321.131
322.408
324.997
324.699
327.228
327.633
329.174
329.19
329.492
328.691
328.563
327.542
327.682
326.982
326.691
326.49
326.683
326.553
326.619
326.195
326.228
326.017
325.245
324.643
324.092
323.033
323.712
306.356
306.915
306.667
307.329
307.466
306.453
305.892
305.041
304.792
303.564
303.733
302.539
302.7
301.569
301.303
300.96
300.201
300.027
299.435
299.25
298.533
298.76
297.789
298.193
297.237
297.646
296.88
297.141
296.713
296.681
294.495
294.202
294.373
294.023
294.138
293.868
293.952
293.718
293.786
293.591
293.642
293.474
293.515
293.376
293.41
293.299
293.321
293.244
293.229
293.212
293.165
293.167
293.134
293.119
293.105
293.101
293.074
293.084
293.063
293.069
293.018
293.013
293.009
293.013
293.008
293.009
293.006
293.005
293.004
293.003
293.002
293.001
293
293
292.999
292.999
292.999
292.999
292.999
292.999
292.999
292.999
293
292.999
293
293
293.001
293.001
293.001
293
293
293.001
293.001
293.001
293.001
293
293
292.999
293
292.999
292.999
292.998
292.999
292.998
292.998
292.998
292.998
292.998
292.999
292.999
292.999
293
293
292.999
293
293
293.001
293.001
293.001
293.001
293
293
293
293.001
293
293
293
292.999
293
292.999
292.999
292.998
292.999
292.998
292.998
292.998
292.998
292.998
292.999
292.999
292.999
293
293
292.999
293
293
293.001
293.001
293.001
293.001
293.001
293.001
293.001
293.001
293
293
292.999
293
293
292.999
292.999
292.999
292.998
292.999
292.998
292.998
292.998
292.998
292.999
292.999
292.999
292.999
293
292.999
293
293
293.001
293
293
293
293.001
293.001
293
293.001
293
293
293
292.999
293
292.999
292.999
292.998
292.999
292.998
292.998
292.998
292.998
292.998
292.999
292.999
292.999
293
293
292.999
293
293
293.001
293.001
293.001
293.001
293
293.001
293.001
293.001
293.001
293
293
292.999
293
292.999
292.999
292.998
292.999
292.998
292.999
292.999
292.999
292.998
292.999
292.999
292.999
293
292.999
293
292.999
293
293.001
293.001
293.001
293
293.002
293.001
293.001
293.001
293.001
293
293.001
293
293
292.999
292.999
292.998
292.999
292.998
292.998
292.998
292.998
292.998
292.998
292.998
292.999
292.999
292.999
292.999
293
292.999
293
293
293
293.001
829.21
825.41
808.79
768.638
579.662
317.16
270
270
270
270
270
270
270
349.279
271.619
270
270
270
270
270
270
270
270
270
270
270
270
270
270
270
270
270
270
270
270
270
270
270
270
310.387
347.09
353.068
350.239
345.568
348.849
348.344
349.304
355.865
358.284
338.634
302.127
270
270
270
270
270
270
270
270
270
270
270
303.894
366.984
365.18
361.354
361.472
364.909
364.312
365.374
370.658
373.579
379.069
379.697
323.595
328.741
326.029
330.669
328.764
326.808
330.296
327.178
329.457
328.981
329.97
329.512
329.489
328.394
328.119
326.955
326.835
326.316
326.382
326.185
326.515
326.361
326.295
325.98
325.824
325.001
325.14
323.984
323.581
320.492
305.709
308.076
307.75
307.268
307.221
307.508
306.436
305.687
305.126
304.239
303.401
303.34
302.147
302.276
301.103
301.387
300.052
300.515
299.271
299.599
298.509
298.787
297.836
298.131
297.326
297.569
296.891
297.077
296.681
296.808
293.743
294.595
293.989
294.37
293.962
294.12
293.834
293.898
293.696
293.722
293.575
293.572
293.476
293.434
293.386
293.339
293.31
293.259
293.255
293.189
293.211
293.138
293.166
293.105
293.12
293.092
293.081
293.082
293.064
293.068
293.01
293.014
293.017
293.01
293.011
293.007
293.008
293.005
293.004
293.003
293.003
293.001
293
292.999
292.999
292.999
292.998
292.999
292.999
292.999
292.999
292.999
292.999
293
292.999
293
293
293.001
293.001
293.001
293.001
293.001
293.001
293.001
293
293
293
292.999
292.998
292.999
292.999
292.999
292.998
292.998
292.998
292.998
292.998
292.998
292.999
292.999
292.999
292.999
292.999
293
292.999
293
293.001
293.001
293.001
293.001
293.001
293.001
293.001
293.001
293
293
293
292.999
292.998
292.999
292.999
292.999
292.998
292.998
292.998
292.998
292.998
292.998
292.999
292.999
292.999
292.999
292.999
293
292.999
293
293.001
293.001
293.001
293.001
293.001
293.001
293.001
293
293
292.999
293
292.999
292.999
292.999
292.999
292.999
292.998
292.998
292.998
292.998
292.998
292.998
292.999
292.999
292.999
292.999
292.999
293
292.999
293
293.001
293.001
293.001
293.001
293.001
293.001
293.001
293.001
292.999
293
293
292.999
292.998
292.999
292.999
292.999
292.998
292.998
292.998
292.998
292.998
292.998
292.999
292.999
292.999
292.999
292.999
293
292.999
293
293.001
293.001
293.001
293.001
293.001
293.001
293.001
293.001
293
293
293
292.999
292.999
292.999
292.999
292.999
292.998
292.998
292.998
292.998
292.998
292.998
292.999
292.999
292.999
292.998
292.999
292.999
293
292.999
293.001
293.001
293.001
293.001
293.001
293.001
293.001
293.001
293
293.001
293
292.999
292.998
292.999
292.998
292.998
292.997
292.998
292.997
292.997
292.997
292.998
292.998
292.999
292.998
292.999
292.999
293
293
293.001
293.001
293
293
293.001
795.901
777.806
734.649
645.412
452.053
281.902
270
270
270
270
270
270
270
273.146
270
270
270
270
270
270
270
270
270
270
270
270
270
270
270
270
270
270
270
270
270
270
270
270
270
270
270
270
270
316.02
346.422
343.706
342.746
345.733
352.122
350.013
351.102
345.413
324.75
270
270
270
270
270
270
270
270
270
270
270
270
270
270
308.889
362.753
364.376
362.64
360.826
362.323
364.06
364.646
369.133
366.398
362.542
323.127
337.63
345.928
339.975
337.905
335.905
334.581
330.083
328.426
331.126
329.265
330.668
329.877
330.124
329.304
329.108
327.659
327.571
326.328
326.338
325.827
326.104
325.956
326.105
326.019
325.602
325.226
324.941
322.59
320.88
317.939
316.64
310.459
311.089
306.275
307.697
307.915
308.584
308.104
307.632
307.379
306.004
305.775
304.108
304.335
302.949
302.998
301.636
302.117
300.643
300.601
300.401
299.238
299.738
298.405
298.964
297.763
298.214
297.23
297.528
296.772
296.783
296.518
296.047
295.899
295.216
295.377
294.536
294.872
294.221
294.447
294.022
294.136
293.819
293.908
293.643
293.725
293.51
293.575
293.405
293.453
293.313
293.362
293.247
293.282
293.198
293.215
293.153
293.163
293.115
293.128
293.087
293.097
293.073
293.068
293.058
293.051
293.034
293.033
293.025
293.018
293.019
293.012
293.012
293.008
293.008
293.005
293.002
293.004
293.001
293.002
293
293.001
292.999
293
292.999
292.999
292.999
293
293
293
293
293.001
293.001
293.001
293.002
293.001
293.002
293
293
293.002
293.001
293.002
293.001
293.001
293
293.001
293
293
292.999
292.999
292.999
292.999
292.999
292.999
292.999
292.999
292.999
292.999
292.999
293
292.999
293
293
293.001
293.001
293.001
293.001
293.001
293.002
293
293
293.002
293.001
293.002
293.001
293.001
293
293
292.999
293
292.999
292.999
292.999
292.999
292.999
292.999
292.999
292.999
292.999
292.999
292.999
293
292.999
293
293
293.001
293.001
293.001
293.001
293.001
293.002
293
293
293.002
293.001
293.001
293.001
293.001
293.001
293
293
292.999
293
292.999
292.999
292.999
292.999
292.999
292.999
292.999
292.999
292.999
292.999
293
292.999
293
293
293.001
293.001
293.001
293.002
293.001
293.002
293
293
293.002
293.001
293.002
293.001
293.001
293
293
293
293
292.999
292.999
292.999
292.999
292.999
292.999
292.999
292.999
292.999
292.999
292.999
293
292.999
293
293
293.001
293.001
293.002
293.001
293.001
293.002
293
293
293.002
293.001
293.002
293.001
293.001
293
293.001
293
293
292.999
292.999
292.999
292.999
292.999
292.999
292.999
292.999
292.999
292.999
292.999
292.999
293
292.999
293
293
293.001
293.001
293.002
293.001
293.002
293.001
293.001
293.002
293.001
293.002
293.001
293.001
293.001
293.001
293
293
292.999
293
292.998
292.999
292.998
292.998
292.998
292.998
292.998
292.999
292.999
293
292.999
293.001
293
293.001
293.001
293.002
293.002
293.002
293.002
293
293.001
719.111
714.583
668.978
619.537
550.681
467.336
411.565
335.95
270
270
270
270
270
270
270
270
270
270
270
270
270
270
270
270
270
270
270
270
270
270
270
270
270
270
270
270
270
270
270
270
270
270
270
270
270
311.498
323.199
322.026
329.495
322.907
297.079
270
270
270
270
270
270
270
270
270
270
270
270
270
270
270
270
270
353.489
361.925
359.259
359.668
360.693
362.035
362.909
361.939
361.558
357.231
329.821
337.472
328.132
334.35
332.871
333.686
331.665
332.75
334.418
331.589
332.633
330.629
330.981
329.943
330.027
328.727
328.598
326.889
327.135
325.84
326.146
325.605
325.753
325.761
325.603
325.371
324.811
323.615
322.366
321.682
317.949
318.508
313.726
310.39
309.569
309.145
309.388
308.509
308.685
307.839
307.013
307.174
305.141
305.01
304.453
302.866
303.483
301.619
302.143
300.87
300.646
300.235
299.552
299.471
298.57
298.882
297.816
298.176
297.23
297.547
296.678
296.962
296.174
296.335
295.459
295.548
294.86
294.795
294.642
294.386
294.348
294.196
293.997
294.001
293.827
293.714
293.703
293.549
293.582
293.401
293.48
293.322
293.365
293.255
293.294
293.19
293.235
293.147
293.18
293.115
293.133
293.093
293.095
293.072
293.073
293.051
293.057
293.032
293.04
293.019
293.027
293.013
293.018
293.009
293.012
293.008
293.007
293.005
293.002
293.003
293.001
293.001
293
293
292.999
293
292.999
292.999
292.999
293
293.001
293.001
293
293.001
293.001
293.001
293.001
293.001
293.001
293.001
293.001
293.001
293.001
293.001
293.001
293
293
293.001
293
292.999
292.999
292.999
292.999
292.998
292.999
292.999
292.998
292.999
292.999
292.999
292.999
293
293
293.001
293
293.001
293.001
293.001
293.001
293.001
293.001
293.001
293.001
293.001
293.001
293.001
293.001
293
293.001
293.001
293
292.999
292.999
292.999
292.999
292.999
292.999
292.999
292.999
292.999
292.999
292.999
292.999
293
293
293.001
293
293.001
293.001
293.001
293.001
293.001
293.001
293.001
293.001
293.001
293.001
293.001
293.001
293
293.001
293
293
292.999
292.999
292.999
292.999
292.999
292.999
292.999
292.999
292.999
292.999
292.999
292.999
293
293
293.001
293
293.001
293.001
293.001
293.001
293.001
293.001
293.001
293.001
293.001
293.001
293.001
293.001
293
293
293.001
293
292.999
292.999
292.999
292.999
292.999
292.999
292.999
292.998
292.999
292.999
292.999
292.999
293
293
293.001
293
293.001
293.001
293.001
293.001
293.001
293.001
293.001
293.001
293.001
293.001
293.001
293.001
293
293.001
293.001
293
292.999
292.999
292.999
292.999
292.999
292.999
292.999
292.999
292.999
292.999
292.999
292.999
292.999
293.001
293
293
293.001
293.001
293.001
293.001
293.001
293.001
293.001
293.001
293.001
293.001
293.001
293
293
293.001
293.001
292.999
292.999
292.999
292.999
292.998
292.999
292.997
292.997
292.997
292.998
292.999
292.999
292.999
292.999
292.999
292.999
293
293
293
293.001
293.002
293.002
293.002
293.002
616.321
645.342
619.517
609.64
561.705
508.409
403.011
298.918
270
270
270
270
270
270
270
270
270
270
270
270
270
270
270
270
270
270
270
270
270
270
270
270
270
270
270
270
270
270
270
270
270
270
270
270
270
270
270
270
270
270
270
270
270
270
270
270
270
270
270
270
270
270
270
270
270
270
270
270
330.884
359.634
360.968
359.69
357.617
357.245
359.57
360.081
357.471
351.406
345.018
338.812
336.916
330.538
331.462
331.932
333.453
334.359
333.62
335.133
332.498
332.847
330.781
330.942
329.63
329.662
328.042
327.957
326.471
326.53
325.611
325.704
325.455
325.287
325.24
324.869
323.723
323.82
321.412
320.3
318.915
315.716
316.146
311.079
311.233
309.953
309.079
309.455
308.459
308.584
307.129
307.394
305.369
305.647
304.316
303.364
303.24
301.945
302.174
300.786
301.188
299.784
300.262
299.008
298.993
298.689
297.87
298.225
297.186
297.584
296.609
296.937
296.08
296.319
295.407
295.688
294.828
295.061
294.643
294.547
294.39
294.13
294.219
293.906
293.929
293.71
293.78
293.528
293.634
293.424
293.479
293.35
293.379
293.266
293.307
293.206
293.23
293.167
293.173
293.129
293.134
293.096
293.106
293.069
293.082
293.05
293.06
293.036
293.042
293.024
293.028
293.017
293.019
293.014
293.011
293.01
293.009
293.007
293.005
293.004
293.003
293.003
293.002
293.002
293.001
293.001
293.001
293.001
293.001
293.001
293.001
293.001
293.002
293.002
293.002
293.001
293.002
293.002
293.002
293.002
293.002
293.002
293.001
293.002
293.002
293.002
293.001
293.001
293.001
293
293
293
293
293
293
293
293
293
293.001
293
293.001
293.001
293.001
293.001
293.002
293.002
293.002
293.002
293.002
293.001
293.002
293.002
293.002
293.002
293.001
293.002
293.002
293.002
293.001
293.001
293.001
293
293
293
293.001
293
293
293
293
293
293
293
293.001
293.001
293.001
293.001
293.002
293.002
293.002
293.002
293.002
293.002
293.002
293.002
293.002
293.002
293.001
293.002
293.002
293.002
293.001
293.001