/*--------------------------------*- C++ -*----------------------------------*\
| =========                 |                                                 |
| \\      /  F ield         | OpenFOAM: The Open Source CFD Toolbox           |
|  \\    /   O peration     | Version:  2.1.1                                 |
|   \\  /    A nd           | Web:      www.OpenFOAM.org                      |
|    \\/     M anipulation  |                                                 |
\*---------------------------------------------------------------------------*/
FoamFile
{
    version     2.0;
    format      ascii;
    class       volScalarField;
    location    "0.000200000";
    object      O;
}
// * * * * * * * * * * * * * * * * * * * * * * * * * * * * * * * * * * * * * //

dimensions      [0 0 0 0 0 0 0];

internalField   nonuniform List<scalar> 
12384
(
4.56918e-09
3.59466e-09
1.61817e-10
1.47474e-12
1.36076e-14
7.62854e-17
3.23549e-19
1.24909e-21
4.73461e-24
1.72392e-26
5.93404e-29
1.89018e-31
5.5816e-34
1.50455e-36
2.50171e-53
3.2488e-54
3.1133e-56
1.98532e-58
9.67962e-61
3.90865e-63
1.36912e-65
4.21816e-68
1.15662e-70
2.85927e-73
6.47293e-76
1.36209e-78
2.69895e-81
5.07948e-84
9.13305e-87
1.57435e-89
2.60796e-92
4.16359e-95
6.42283e-98
9.59957e-101
1.39267e-103
1.96483e-106
2.69285e-109
3.57291e-112
4.58578e-115
5.70271e-118
6.8792e-121
8.05185e-124
9.14858e-127
9.56833e-130
1.49694e-142
1.09482e-143
2.82233e-146
4.98849e-149
7.29781e-152
9.62528e-155
1.20515e-157
1.45155e-160
1.66197e-163
1.80483e-166
1.8273e-169
1.91062e-173
3.99449e-177
1.68772e-180
1.05064e-183
6.41315e-187
3.37043e-190
1.49176e-193
5.61146e-197
1.85829e-200
5.4958e-204
1.48052e-207
3.51308e-211
6.99321e-215
1.20575e-218
1.91062e-222
2.84724e-226
3.99158e-230
5.30517e-234
1.91738e-238
7.44014e-260
2.4497e-258
2.1098e-261
1.0062e-264
3.5541e-268
1.06548e-271
3.02653e-275
8.03894e-279
1.82475e-282
3.54391e-286
6.23169e-290
1.0198e-293
1.60814e-297
2.47461e-301
3.73233e-305
5.42703e-309
7.54367e-313
1.01698e-316
1.34682e-320
0
0
0
0
0
0
0
0
0
0
0
0
0
0
0
0
0
0
0
0
0
0
0
0
0
0
0
0
0
0
0
0
0
0
0
0
0
0
0
0
0
0
0
0
0
0
0
0
0
0
0
0
0
0
0
0
0
0
0
0
0
0
0
0
0
0
0
0
0
0
0
0
0
0
0
0
0
0
0
0
0
0
0
0
0
0
0
0
0
0
0
0
0
0
0
0
0
0
0
0
0
0
0
0
0
0
0
0
0
0
0
0
0
0
0
0
0
0
0
0
0
0
0
0
0
0
0
0
0
0
0
0
0
0
0
0
0
0
0
0
0
0
0
0
0
0
0
0
0
0
0
0
0
0
0
0
0
0
0
0
0
0
0
0
0
0
0
0
0
0
0
0
0
0
0
0
0
0
0
0
0
0
0
0
0
0
0
0
0
0
0
0
0
0
0
0
0
0
0
0
0
0
0
0
0
0
0
0
0
0
0
0
0
0
0
0
0
0
0
0
0
0
0
0
0
0
0
0
0
0
0
0
0
0
0
0
0
0
0
0
0
0
0
0
0
0
0
0
0
0
0
0
0
0
0
0
0
0
0
0
0
0
0
0
0
0
0
0
0
0
0
0
0
0
0
0
0
0
0
0
0
4.77522e-07
3.36234e-07
1.21121e-08
1.14719e-10
7.9449e-13
4.35287e-15
1.99471e-17
7.89293e-20
2.703e-22
8.35741e-25
2.37761e-27
6.29676e-30
1.56484e-32
3.63754e-35
1.13117e-50
7.7039e-52
7.21161e-54
4.80219e-56
2.51325e-58
1.0833e-60
4.01686e-63
1.29939e-65
3.70298e-68
9.46366e-71
2.20656e-73
4.76718e-76
9.68237e-79
1.86781e-81
3.44463e-84
6.09442e-87
1.03595e-89
1.69564e-92
2.68048e-95
4.10672e-98
6.11308e-101
8.85625e-104
1.24603e-106
1.68873e-109
2.19757e-112
2.75973e-115
3.35966e-118
3.96748e-121
4.54586e-124
4.55275e-127
1.8578e-139
1.34934e-140
3.33374e-143
5.61901e-146
7.85253e-149
9.94809e-152
1.20995e-154
1.4301e-157
1.61215e-160
1.72667e-163
1.77163e-166
1.71298e-169
4.3035e-173
1.89777e-176
1.20012e-179
7.51138e-183
4.07985e-186
1.85974e-189
7.16307e-193
2.39801e-196
7.10369e-200
1.89091e-203
4.49841e-207
9.22513e-211
1.63907e-214
2.63972e-218
3.98096e-222
5.6674e-226
7.65548e-230
4.75747e-234
4.56836e-255
4.94762e-254
4.13059e-257
1.92245e-260
6.61858e-264
1.90502e-267
5.07567e-271
1.27323e-274
2.86189e-278
5.69075e-282
1.02041e-285
1.69383e-289
2.67491e-293
4.09565e-297
6.12949e-301
8.91622e-305
1.24941e-308
1.69311e-312
2.24509e-316
2.95945e-320
4.94066e-324
0
0
0
0
0
0
0
0
0
0
0
0
0
0
0
0
0
0
0
0
0
0
0
0
0
0
0
0
0
0
0
0
0
0
0
0
0
0
0
0
0
0
0
0
0
0
0
0
0
0
0
0
0
0
0
0
0
0
0
0
0
0
0
0
0
0
0
0
0
0
0
0
0
0
0
0
0
0
0
0
0
0
0
0
0
0
0
0
0
0
0
0
0
0
0
0
0
0
0
0
0
0
0
0
0
0
0
0
0
0
0
0
0
0
0
0
0
0
0
0
0
0
0
0
0
0
0
0
0
0
0
0
0
0
0
0
0
0
0
0
0
0
0
0
0
0
0
0
0
0
0
0
0
0
0
0
0
0
0
0
0
0
0
0
0
0
0
0
0
0
0
0
0
0
0
0
0
0
0
0
0
0
0
0
0
0
0
0
0
0
0
0
0
0
0
0
0
0
0
0
0
0
0
0
0
0
0
0
0
0
0
0
0
0
0
0
0
0
0
0
0
0
0
0
0
0
0
0
0
0
0
0
0
0
0
0
0
0
0
0
0
0
0
0
0
0
0
0
0
0
0
0
0
0
0
0
0
0
0
0
0
0
0
0
0
0
0
0
0
0
0
0
0
0
0
0
0
0
0
1.1854e-10
1.95656e-10
2.38528e-12
1.94784e-15
1.66152e-18
5.14112e-21
1.18615e-23
1.94384e-26
2.5291e-29
3.21272e-32
3.90661e-35
3.15102e-38
3.35878e-41
4.75802e-44
5.92898e-54
3.05386e-55
2.03333e-57
1.15603e-59
5.89396e-62
2.74031e-64
1.11761e-66
3.71495e-69
9.73826e-72
2.13904e-74
4.29277e-77
8.26699e-80
1.54765e-82
2.79676e-85
4.90265e-88
8.38477e-91
1.39959e-93
2.27713e-96
3.58761e-99
5.49131e-102
8.14151e-105
1.16854e-107
1.62185e-110
2.12838e-113
2.68548e-116
3.40457e-119
4.32851e-122
5.29981e-125
6.13747e-128
6.93377e-132
2.74939e-142
2.94941e-143
6.70688e-146
1.03436e-148
1.31556e-151
1.52358e-154
1.71604e-157
1.88407e-160
1.96392e-163
1.97762e-166
1.94828e-169
1.87732e-172
1.76919e-175
1.42083e-178
1.064e-181
6.85226e-185
3.71321e-188
1.65294e-191
6.0882e-195
1.91556e-198
5.2722e-202
1.28819e-205
2.81266e-209
5.36498e-213
8.90327e-217
1.34579e-220
1.92152e-224
2.59422e-228
3.34114e-232
1.08966e-236
2.99393e-256
1.07332e-255
7.89894e-259
3.32837e-262
1.02429e-265
2.59245e-269
5.89848e-273
1.25307e-276
2.45615e-280
4.44184e-284
7.47938e-288
1.18401e-291
1.78697e-295
2.60168e-299
3.67859e-303
5.04321e-307
6.68845e-311
8.62272e-315
1.09023e-318
1.38338e-322
0
0
0
0
0
0
0
0
0
0
0
0
0
0
0
0
0
0
0
0
0
0
0
0
0
0
0
0
0
0
0
0
0
0
0
0
0
0
0
0
0
0
0
0
0
0
0
0
0
0
0
0
0
0
0
0
0
0
0
0
0
0
0
0
0
0
0
0
0
0
0
0
0
0
0
0
0
0
0
0
0
0
0
0
0
0
0
0
0
0
0
0
0
0
0
0
0
0
0
0
0
0
0
0
0
0
0
0
0
0
0
0
0
0
0
0
0
0
0
0
0
0
0
0
0
0
0
0
0
0
0
0
0
0
0
0
0
0
0
0
0
0
0
0
0
0
0
0
0
0
0
0
0
0
0
0
0
0
0
0
0
0
0
0
0
0
0
0
0
0
0
0
0
0
0
0
0
0
0
0
0
0
0
0
0
0
0
0
0
0
0
0
0
0
0
0
0
0
0
0
0
0
0
0
0
0
0
0
0
0
0
0
0
0
0
0
0
0
0
0
0
0
0
0
0
0
0
0
0
0
0
0
0
0
0
0
0
0
0
0
0
0
0
0
0
0
0
0
0
0
0
0
0
0
0
0
0
0
0
0
0
0
0
0
0
0
0
0
0
0
0
0
0
0
0
0
0
0
0
0
0.000156011
6.19713e-05
8.41912e-10
8.30681e-12
1.60697e-14
3.64674e-17
5.9567e-20
1.16332e-22
1.40255e-25
1.66717e-28
2.13532e-31
3.30711e-34
5.62272e-37
9.23001e-40
1.58709e-49
1.93882e-51
8.94561e-54
3.75663e-56
1.66008e-58
7.25335e-61
3.02518e-63
1.13354e-65
3.38413e-68
8.05769e-71
1.7138e-73
3.46764e-76
6.839e-79
1.30354e-81
2.40344e-84
4.31e-87
7.50976e-90
1.26455e-92
2.05335e-95
3.22432e-98
4.88919e-101
7.23117e-104
1.05438e-106
1.52766e-109
2.20383e-112
3.14631e-115
4.40297e-118
5.90238e-121
7.42642e-124
1.92718e-127
2.10954e-137
4.68424e-139
9.64773e-142
1.3865e-144
1.68167e-147
1.86025e-150
1.95885e-153
2.01802e-156
2.05641e-159
2.08036e-162
2.08608e-165
2.05172e-168
1.98078e-171
1.87259e-174
1.42058e-177
9.0198e-181
4.79453e-184
2.02862e-187
6.86991e-191
1.95163e-194
4.77346e-198
1.03122e-201
2.01678e-205
3.67201e-209
6.4054e-213
1.08174e-216
1.76437e-220
2.76058e-224
4.15533e-228
2.68809e-232
1.00201e-250
3.82351e-251
2.39457e-254
8.62036e-258
2.28848e-261
4.9412e-265
9.16995e-269
1.53721e-272
2.41886e-276
3.64888e-280
5.34354e-284
7.63958e-288
1.0617e-291
1.41697e-295
1.80222e-299
2.18641e-303
2.54354e-307
2.84557e-311
3.0526e-315
3.12259e-319
2.96439e-323
0
0
0
0
0
0
0
0
0
0
0
0
0
0
0
0
0
0
0
0
0
0
0
0
0
0
0
0
0
0
0
0
0
0
0
0
0
0
0
0
0
0
0
0
0
0
0
0
0
0
0
0
0
0
0
0
0
0
0
0
0
0
0
0
0
0
0
0
0
0
0
0
0
0
0
0
0
0
0
0
0
0
0
0
0
0
0
0
0
0
0
0
0
0
0
0
0
0
0
0
0
0
0
0
0
0
0
0
0
0
0
0
0
0
0
0
0
0
0
0
0
0
0
0
0
0
0
0
0
0
0
0
0
0
0
0
0
0
0
0
0
0
0
0
0
0
0
0
0
0
0
0
0
0
0
0
0
0
0
0
0
0
0
0
0
0
0
0
0
0
0
0
0
0
0
0
0
0
0
0
0
0
0
0
0
0
0
0
0
0
0
0
0
0
0
0
0
0
0
0
0
0
0
0
0
0
0
0
0
0
0
0
0
0
0
0
0
0
0
0
0
0
0
0
0
0
0
0
0
0
0
0
0
0
0
0
0
0
0
0
0
0
0
0
0
0
0
0
0
0
0
0
0
0
0
0
0
0
0
0
0
0
0
0
0
0
0
0
0
0
0
0
0
0
0
0
0
0
0
0.000515683
0.000494604
0.000280138
2.10423e-08
7.63877e-10
3.02459e-12
5.62449e-15
1.26987e-17
1.88708e-20
2.48374e-23
3.55335e-26
5.87075e-29
1.05407e-31
1.84491e-34
3.06409e-44
2.28961e-46
8.1578e-49
2.96165e-51
1.06801e-53
4.20616e-56
1.70544e-58
6.68731e-61
2.2501e-63
5.98138e-66
1.36922e-68
2.89824e-71
5.94536e-74
1.18678e-76
2.29171e-79
4.28185e-82
7.73399e-85
1.34566e-87
2.26863e-90
3.73262e-93
5.95009e-96
9.23667e-99
1.40521e-101
2.09877e-104
3.06942e-107
4.41466e-110
6.23508e-113
8.4777e-116
1.07835e-118
4.43576e-122
1.23933e-131
9.37077e-134
1.7781e-136
2.50012e-139
3.062e-142
3.49472e-145
3.83511e-148
4.08073e-151
4.23959e-154
4.32841e-157
4.34703e-160
4.26341e-163
4.12415e-166
3.94405e-169
3.70904e-172
2.31926e-175
1.275e-178
5.20416e-182
1.62249e-185
4.30665e-189
1.00571e-192
2.1e-196
3.98816e-200
7.00646e-204
1.1531e-207
1.80493e-211
2.72272e-215
3.94372e-219
5.35831e-223
3.19147e-227
3.10328e-244
1.78282e-245
9.21154e-249
2.84186e-252
6.64054e-256
1.2992e-259
2.24823e-263
3.54687e-267
5.22263e-271
7.32036e-275
9.88576e-279
1.28236e-282
1.60524e-286
1.94948e-290
2.28347e-294
2.56557e-298
2.75821e-302
2.83216e-306
2.7969e-310
2.69909e-314
2.55988e-318
2.42092e-322
0
0
0
0
0
0
0
0
0
0
0
0
0
0
0
0
0
0
0
0
0
0
0
0
0
0
0
0
0
0
0
0
0
0
0
0
0
0
0
0
0
0
0
0
0
0
0
0
0
0
0
0
0
0
0
0
0
0
0
0
0
0
0
0
0
0
0
0
0
0
0
0
0
0
0
0
0
0
0
0
0
0
0
0
0
0
0
0
0
0
0
0
0
0
0
0
0
0
0
0
0
0
0
0
0
0
0
0
0
0
0
0
0
0
0
0
0
0
0
0
0
0
0
0
0
0
0
0
0
0
0
0
0
0
0
0
0
0
0
0
0
0
0
0
0
0
0
0
0
0
0
0
0
0
0
0
0
0
0
0
0
0
0
0
0
0
0
0
0
0
0
0
0
0
0
0
0
0
0
0
0
0
0
0
0
0
0
0
0
0
0
0
0
0
0
0
0
0
0
0
0
0
0
0
0
0
0
0
0
0
0
0
0
0
0
0
0
0
0
0
0
0
0
0
0
0
0
0
0
0
0
0
0
0
0
0
0
0
0
0
0
0
0
0
0
0
0
0
0
0
0
0
0
0
0
0
0
0
0
0
0
0
0
0
0
0
0
0
0
0
0
0
0
0
0
0
0
0
0.000459919
0.000459253
0.000486693
0.000348345
4.48043e-07
4.04871e-08
8.38552e-11
2.11982e-13
3.4926e-16
5.21453e-19
8.3348e-22
1.52356e-24
3.02553e-27
5.61867e-30
1.10663e-39
7.40916e-42
2.01625e-44
6.52675e-47
2.19302e-49
7.47191e-52
2.7481e-54
1.0416e-56
3.76152e-59
1.13548e-61
2.83894e-64
6.43136e-67
1.38861e-69
2.89826e-72
5.83538e-75
1.13399e-77
2.13183e-80
3.86666e-83
6.78666e-86
1.1577e-88
1.91944e-91
3.09366e-94
4.86107e-97
7.44556e-100
1.10924e-102
1.61539e-105
2.30391e-108
3.17542e-111
4.17172e-114
2.59488e-117
1.27665e-126
4.9476e-129
8.54519e-132
1.17801e-134
1.46106e-137
1.71471e-140
1.94387e-143
2.13501e-146
2.27914e-149
2.37531e-152
2.41957e-155
2.41103e-158
2.36092e-161
2.27849e-164
2.16905e-167
2.04483e-170
1.37072e-173
5.36182e-177
1.48909e-180
3.49815e-184
7.47246e-188
1.47747e-191
2.69178e-195
4.51147e-199
6.97995e-203
1.01265e-206
1.40758e-210
1.8797e-214
2.37799e-218
1.2844e-222
2.79557e-238
2.85539e-240
1.15067e-243
2.96811e-247
6.05766e-251
1.07434e-254
1.73606e-258
2.60363e-262
3.66189e-266
4.87417e-270
6.18176e-274
7.48742e-278
8.69093e-282
9.69037e-286
1.03599e-289
1.0718e-293
1.08991e-297
1.09086e-301
1.07229e-305
1.04127e-309
1.0012e-313
9.54692e-318
9.0414e-322
0
0
0
0
0
0
0
0
0
0
0
0
0
0
0
0
0
0
0
0
0
0
0
0
0
0
0
0
0
0
0
0
0
0
0
0
0
0
0
0
0
0
0
0
0
0
0
0
0
0
0
0
0
0
0
0
0
0
0
0
0
0
0
0
0
0
0
0
0
0
0
0
0
0
0
0
0
0
0
0
0
0
0
0
0
0
0
0
0
0
0
0
0
0
0
0
0
0
0
0
0
0
0
0
0
0
0
0
0
0
0
0
0
0
0
0
0
0
0
0
0
0
0
0
0
0
0
0
0
0
0
0
0
0
0
0
0
0
0
0
0
0
0
0
0
0
0
0
0
0
0
0
0
0
0
0
0
0
0
0
0
0
0
0
0
0
0
0
0
0
0
0
0
0
0
0
0
0
0
0
0
0
0
0
0
0
0
0
0
0
0
0
0
0
0
0
0
0
0
0
0
0
0
0
0
0
0
0
0
0
0
0
0
0
0
0
0
0
0
0
0
0
0
0
0
0
0
0
0
0
0
0
0
0
0
0
0
0
0
0
0
0
0
0
0
0
0
0
0
0
0
0
0
0
0
0
0
0
0
0
0
0
0
0
0
0
0
0
0
0
0
0
0
0
0
0
0
0.000463746
0.000462427
0.000459927
0.000488875
0.000394249
7.57518e-06
8.33198e-08
3.00605e-10
1.12666e-12
3.91316e-15
1.15879e-17
3.00931e-20
7.02389e-23
1.47285e-25
5.11072e-35
3.28613e-37
8.19128e-40
2.38552e-42
7.39463e-45
2.37456e-47
7.85764e-50
2.7555e-52
9.83424e-55
3.23283e-57
8.95074e-60
2.19149e-62
5.01351e-65
1.09797e-67
2.31592e-70
4.69685e-73
9.1635e-76
1.72326e-78
3.13555e-81
5.5331e-84
9.48284e-87
1.5772e-89
2.54909e-92
4.00563e-95
6.11466e-98
9.09467e-101
1.31802e-103
1.8499e-106
2.50401e-109
2.37851e-112
1.72966e-121
3.99673e-124
6.36638e-127
8.64702e-130
1.08594e-132
1.30063e-135
1.50988e-138
1.7035e-141
1.86963e-144
2.00088e-147
2.08825e-150
2.12891e-153
2.12647e-156
2.09181e-159
2.03312e-162
1.95203e-165
1.84886e-168
1.35557e-171
3.36485e-175
6.70883e-179
1.20991e-182
2.14817e-186
3.689e-190
5.95088e-194
8.89695e-198
1.24049e-201
1.6377e-205
2.05297e-209
2.43818e-213
1.3782e-217
5.25176e-232
9.50052e-235
2.90343e-238
6.23969e-242
1.12315e-245
1.81e-249
2.71638e-253
3.84322e-257
5.14873e-261
6.56891e-265
7.99122e-269
9.29379e-273
1.0386e-276
1.12045e-280
1.17185e-284
1.19476e-288
1.19356e-292
1.17339e-296
1.13998e-300
1.10093e-304
1.06326e-308
1.02484e-312
9.83127e-317
9.3576e-321
0
0
0
0
0
0
0
0
0
0
0
0
0
0
0
0
0
0
0
0
0
0
0
0
0
0
0
0
0
0
0
0
0
0
0
0
0
0
0
0
0
0
0
0
0
0
0
0
0
0
0
0
0
0
0
0
0
0
0
0
0
0
0
0
0
0
0
0
0
0
0
0
0
0
0
0
0
0
0
0
0
0
0
0
0
0
0
0
0
0
0
0
0
0
0
0
0
0
0
0
0
0
0
0
0
0
0
0
0
0
0
0
0
0
0
0
0
0
0
0
0
0
0
0
0
0
0
0
0
0
0
0
0
0
0
0
0
0
0
0
0
0
0
0
0
0
0
0
0
0
0
0
0
0
0
0
0
0
0
0
0
0
0
0
0
0
0
0
0
0
0
0
0
0
0
0
0
0
0
0
0
0
0
0
0
0
0
0
0
0
0
0
0
0
0
0
0
0
0
0
0
0
0
0
0
0
0
0
0
0
0
0
0
0
0
0
0
0
0
0
0
0
0
0
0
0
0
0
0
0
0
0
0
0
0
0
0
0
0
0
0
0
0
0
0
0
0
0
0
0
0
0
0
0
0
0
0
0
0
0
0
0
0
0
0
0
0
0
0
0
0
0
0
0
0
0
0.000463945
0.000464493
0.000465326
0.000489876
0.000401143
3.21744e-05
7.99019e-07
4.72514e-09
2.82242e-11
1.56359e-13
7.23641e-16
2.85279e-18
9.39987e-21
2.83166e-23
1.80286e-31
1.18729e-33
2.84009e-36
7.37568e-39
2.16917e-41
6.57881e-44
2.04542e-46
6.64534e-49
2.26918e-51
7.68881e-54
2.33414e-56
6.24115e-59
1.52828e-61
3.52439e-64
7.77126e-67
1.64446e-69
3.34182e-72
6.53871e-75
1.236e-77
2.26039e-80
4.00057e-83
6.85727e-86
1.13965e-88
1.83773e-91
2.87677e-94
4.38152e-97
6.488e-100
9.32347e-103
1.29926e-105
1.57253e-108
1.75866e-117
2.96635e-120
4.29686e-123
5.66643e-126
7.1175e-129
8.64641e-132
1.02429e-134
1.18532e-137
1.33838e-140
1.47432e-143
1.58426e-146
1.66006e-149
1.69858e-152
1.70592e-155
1.69004e-158
1.65243e-161
1.59341e-164
1.51741e-167
1.14047e-170
2.08965e-174
2.97914e-178
4.31823e-182
6.57149e-186
9.86691e-190
1.39951e-193
1.86268e-197
2.32821e-201
2.74219e-205
3.05544e-209
1.96485e-213
1.4613e-226
4.77689e-230
1.01596e-233
1.7358e-237
2.66904e-241
3.83463e-245
5.26933e-249
7.00173e-253
8.9881e-257
1.11246e-260
1.32421e-264
1.50842e-268
1.63625e-272
1.70211e-276
1.72654e-280
1.7242e-284
1.70135e-288
1.66986e-292
1.64291e-296
1.617e-300
1.58085e-304
1.52885e-308
1.45865e-312
1.3673e-316
1.25443e-320
0
0
0
0
0
0
0
0
0
0
0
0
0
0
0
0
0
0
0
0
0
0
0
0
0
0
0
0
0
0
0
0
0
0
0
0
0
0
0
0
0
0
0
0
0
0
0
0
0
0
0
0
0
0
0
0
0
0
0
0
0
0
0
0
0
0
0
0
0
0
0
0
0
0
0
0
0
0
0
0
0
0
0
0
0
0
0
0
0
0
0
0
0
0
0
0
0
0
0
0
0
0
0
0
0
0
0
0
0
0
0
0
0
0
0
0
0
0
0
0
0
0
0
0
0
0
0
0
0
0
0
0
0
0
0
0
0
0
0
0
0
0
0
0
0
0
0
0
0
0
0
0
0
0
0
0
0
0
0
0
0
0
0
0
0
0
0
0
0
0
0
0
0
0
0
0
0
0
0
0
0
0
0
0
0
0
0
0
0
0
0
0
0
0
0
0
0
0
0
0
0
0
0
0
0
0
0
0
0
0
0
0
0
0
0
0
0
0
0
0
0
0
0
0
0
0
0
0
0
0
0
0
0
0
0
0
0
0
0
0
0
0
0
0
0
0
0
0
0
0
0
0
0
0
0
0
0
0
0
0
0
0
0
0
0
0
0
0
0
0
0
0
0
0
0
0.00046392
0.00046739
0.000470362
0.000468319
0.000245455
1.29935e-05
5.32733e-07
5.44467e-09
4.99029e-11
4.14224e-13
2.99802e-15
1.89063e-17
1.07058e-19
5.25574e-22
2.34619e-24
9.37009e-27
3.57202e-29
1.23224e-31
4.05102e-34
1.2345e-36
3.69606e-39
1.09458e-41
3.25572e-44
9.87763e-47
3.13936e-49
1.02991e-51
3.27812e-54
9.52632e-57
2.51453e-59
6.17211e-62
1.43321e-64
3.1765e-67
6.74276e-70
1.37436e-72
2.69626e-75
5.10171e-78
9.32609e-81
1.64962e-83
2.82814e-86
4.70475e-89
7.59621e-92
1.19089e-94
1.81392e-97
2.68479e-100
3.86383e-103
5.3683e-106
6.85303e-109
8.12927e-112
1.02966e-114
1.36336e-117
1.75362e-120
2.21919e-123
2.76449e-126
3.38917e-129
4.0864e-132
4.83522e-135
5.60017e-138
6.34091e-141
7.01404e-144
7.57484e-147
7.99238e-150
8.25718e-153
8.37902e-156
8.36724e-159
8.22678e-162
7.97374e-165
7.62418e-168
5.47654e-171
5.98046e-175
6.65261e-179
8.53924e-183
1.1761e-186
1.5924e-190
2.03762e-194
2.44368e-198
2.75561e-202
2.95236e-206
3.03748e-210
2.00173e-214
8.73178e-219
1.26254e-222
2.01856e-226
2.81021e-230
3.71252e-234
4.77543e-238
6.04581e-242
7.5728e-246
9.3574e-250
1.13273e-253
1.33945e-257
1.54321e-261
1.72136e-265
1.85174e-269
1.927e-273
1.95954e-277
1.96284e-281
1.94117e-285
1.90609e-289
1.86702e-293
1.82299e-297
1.76627e-301
1.69189e-305
1.6017e-309
1.49365e-313
1.36087e-317
1.20552e-321
0
0
0
0
0
0
0
0
0
0
0
0
0
0
0
0
0
0
0
0
0
0
0
0
0
0
0
0
0
0
0
0
0
0
0
0
0
0
0
0
0
0
0
0
0
0
0
0
0
0
0
0
0
0
0
0
0
0
0
0
0
0
0
0
0
0
0
0
0
0
0
0
0
0
0
0
0
0
0
0
0
0
0
0
0
0
0
0
0
0
0
0
0
0
0
0
0
0
0
0
0
0
0
0
0
0
0
0
0
0
0
0
0
0
0
0
0
0
0
0
0
0
0
0
0
0
0
0
0
0
0
0
0
0
0
0
0
0
0
0
0
0
0
0
0
0
0
0
0
0
0
0
0
0
0
0
0
0
0
0
0
0
0
0
0
0
0
0
0
0
0
0
0
0
0
0
0
0
0
0
0
0
0
0
0
0
0
0
0
0
0
0
0
0
0
0
0
0
0
0
0
0
0
0
0
0
0
0
0
0
0
0
0
0
0
0
0
0
0
0
0
0
0
0
0
0
0
0
0
0
0
0
0
0
0
0
0
0
0
0
0
0
0
0
0
0
0
0
0
0
0
0
0
0
0
0
0
0
0
0
0
0
0
0
0
0
0
0
0
0
0
0
0
0
0
0
0
0
0
0
0
0
0
0
0
0
0
0
0
0
0
0
0
0
0.000468605
0.000469395
0.000462104
0.000169021
4.61376e-05
3.30968e-06
9.13316e-08
9.79662e-10
1.03116e-11
9.53892e-14
7.90161e-16
5.81556e-18
3.85753e-20
2.23735e-22
1.17239e-24
5.35671e-27
2.38643e-29
8.9336e-32
3.49166e-34
1.19742e-36
4.2097e-39
1.41033e-41
4.83303e-44
1.63422e-46
5.6392e-49
2.00892e-51
7.0901e-54
2.33307e-56
6.97315e-59
1.92133e-61
4.96432e-64
1.21718e-66
2.85099e-69
6.40385e-72
1.38326e-74
2.87948e-77
5.78629e-80
1.12361e-82
2.11102e-85
3.84285e-88
6.78312e-91
1.16159e-93
1.93091e-96
3.11779e-99
4.89548e-102
7.47539e-105
1.14574e-107
1.80724e-110
2.69553e-113
3.71681e-116
5.03024e-119
6.67375e-122
8.6939e-125
1.11251e-127
1.39832e-130
1.72498e-133
2.08566e-136
2.4677e-139
2.852e-142
3.21552e-145
3.53859e-148
3.80722e-151
4.01166e-154
4.14489e-157
4.20266e-160
4.18661e-163
4.10323e-166
3.95792e-169
1.54502e-172
1.16978e-176
1.39956e-180
1.8792e-184
2.45355e-188
3.02374e-192
3.50503e-196
3.84081e-200
4.03388e-204
4.07118e-208
5.23318e-212
8.45349e-216
1.11123e-219
1.11348e-223
1.1479e-227
1.20417e-231
1.29027e-235
1.4094e-239
1.56469e-243
1.75737e-247
1.98388e-251
2.23467e-255
2.48417e-259
2.69441e-263
2.84435e-267
2.93593e-271
2.97994e-275
2.98291e-279
2.94604e-283
2.87958e-287
2.80058e-291
2.71948e-295
2.6289e-299
2.50749e-303
2.34518e-307
2.14637e-311
1.91785e-315
1.67034e-319
1.4822e-323
0
0
0
0
0
0
0
0
0
0
0
0
0
0
0
0
0
0
0
0
0
0
0
0
0
0
0
0
0
0
0
0
0
0
0
0
0
0
0
0
0
0
0
0
0
0
0
0
0
0
0
0
0
0
0
0
0
0
0
0
0
0
0
0
0
0
0
0
0
0
0
0
0
0
0
0
0
0
0
0
0
0
0
0
0
0
0
0
0
0
0
0
0
0
0
0
0
0
0
0
0
0
0
0
0
0
0
0
0
0
0
0
0
0
0
0
0
0
0
0
0
0
0
0
0
0
0
0
0
0
0
0
0
0
0
0
0
0
0
0
0
0
0
0
0
0
0
0
0
0
0
0
0
0
0
0
0
0
0
0
0
0
0
0
0
0
0
0
0
0
0
0
0
0
0
0
0
0
0
0
0
0
0
0
0
0
0
0
0
0
0
0
0
0
0
0
0
0
0
0
0
0
0
0
0
0
0
0
0
0
0
0
0
0
0
0
0
0
0
0
0
0
0
0
0
0
0
0
0
0
0
0
0
0
0
0
0
0
0
0
0
0
0
0
0
0
0
0
0
0
0
0
0
0
0
0
0
0
0
0
0
0
0
0
0
0
0
0
0
0
0
0
0
0
0
0
0
0
0
0
0
0
0
0
0
0
0
0
0
0
0
0
0
0.000473606
0.000467019
0.000127208
2.46234e-06
1.73772e-07
4.21001e-08
3.63633e-10
4.61643e-12
4.81248e-14
4.19054e-16
3.19669e-18
2.13191e-20
1.27717e-22
6.77067e-25
3.26079e-27
1.40355e-29
5.72614e-32
2.10822e-34
7.57619e-37
2.53062e-39
8.43553e-42
2.77795e-44
9.45537e-47
3.21129e-49
1.12259e-51
4.08035e-54
1.49625e-56
5.17142e-59
1.62074e-61
4.64385e-64
1.23713e-66
3.10079e-69
7.3884e-72
1.68593e-74
3.69937e-77
7.82218e-80
1.59651e-82
3.14837e-85
6.00353e-88
1.10842e-90
1.98449e-93
3.45026e-96
5.83215e-99
9.58964e-102
1.53658e-104
2.38101e-107
3.73322e-110
5.88786e-113
8.66815e-116
1.21672e-118
1.6826e-121
2.27746e-124
3.02247e-127
3.93669e-130
5.03513e-133
6.32415e-136
7.79819e-139
9.42996e-142
1.11647e-144
1.2936e-147
1.46757e-150
1.63028e-153
1.77284e-156
1.88747e-159
1.96892e-162
2.01479e-165
2.02472e-168
1.98446e-171
3.21651e-175
4.94184e-179
7.05906e-183
9.34824e-187
1.16371e-190
1.39561e-194
1.65972e-198
1.99852e-202
2.47182e-206
2.97151e-210
4.33188e-214
7.52442e-218
1.05202e-221
1.20912e-225
1.4359e-229
1.68314e-233
1.96934e-237
2.31323e-241
2.74278e-245
3.28767e-249
3.97738e-253
4.82181e-257
5.79046e-261
6.84639e-265
7.97646e-269
9.14813e-273
1.03054e-276
1.13906e-280
1.2361e-284
1.31952e-288
1.38805e-292
1.44173e-296
1.48304e-300
1.50563e-304
1.49712e-308
1.45311e-312
1.37773e-316
1.27914e-320
0
0
0
0
0
0
0
0
0
0
0
0
0
0
0
0
0
0
0
0
0
0
0
0
0
0
0
0
0
0
0
0
0
0
0
0
0
0
0
0
0
0
0
0
0
0
0
0
0
0
0
0
0
0
0
0
0
0
0
0
0
0
0
0
0
0
0
0
0
0
0
0
0
0
0
0
0
0
0
0
0
0
0
0
0
0
0
0
0
0
0
0
0
0
0
0
0
0
0
0
0
0
0
0
0
0
0
0
0
0
0
0
0
0
0
0
0
0
0
0
0
0
0
0
0
0
0
0
0
0
0
0
0
0
0
0
0
0
0
0
0
0
0
0
0
0
0
0
0
0
0
0
0
0
0
0
0
0
0
0
0
0
0
0
0
0
0
0
0
0
0
0
0
0
0
0
0
0
0
0
0
0
0
0
0
0
0
0
0
0
0
0
0
0
0
0
0
0
0
0
0
0
0
0
0
0
0
0
0
0
0
0
0
0
0
0
0
0
0
0
0
0
0
0
0
0
0
0
0
0
0
0
0
0
0
0
0
0
0
0
0
0
0
0
0
0
0
0
0
0
0
0
0
0
0
0
0
0
0
0
0
0
0
0
0
0
0
0
0
0
0
0
0
0
0
0
0
0
0
0
0
0
0
0
0
0
0
0
0
0
0
0
0
0
0.000306007
0.000151526
3.6507e-07
2.20937e-08
2.40275e-09
9.03328e-11
1.22601e-12
1.45183e-14
1.39113e-16
1.13222e-18
8.04524e-21
5.01628e-23
2.79939e-25
1.38909e-27
6.38279e-30
2.59981e-32
1.01769e-34
3.61573e-37
1.26022e-39
4.15129e-42
1.38458e-44
4.65324e-47
1.64653e-49
5.86366e-52
2.13267e-54
8.21246e-57
3.22296e-59
1.18124e-61
3.84871e-64
1.1236e-66
3.01541e-69
7.58538e-72
1.8094e-74
4.11536e-77
8.95979e-80
1.87544e-82
3.78591e-85
7.38024e-88
1.39167e-90
2.54244e-93
4.50654e-96
7.76458e-99
1.30367e-101
2.13943e-104
3.44598e-107
5.37451e-110
8.27984e-113
1.25757e-115
1.81903e-118
2.56473e-121
3.55631e-124
4.80393e-127
6.34587e-130
8.2243e-133
1.04829e-135
1.31532e-138
1.62305e-141
1.96648e-144
2.33472e-147
2.71256e-150
3.08671e-153
3.44677e-156
3.78155e-159
4.07004e-162
4.2847e-165
4.41423e-168
4.46027e-171
1.35683e-174
2.12594e-178
4.19243e-182
8.00514e-186
1.4406e-189
2.44616e-193
3.96223e-197
6.22693e-201
9.69464e-205
1.53654e-208
2.37411e-212
3.79199e-216
6.40992e-220
9.86219e-224
1.44585e-227
2.14543e-231
3.06414e-235
4.28549e-239
5.94536e-243
8.27511e-247
1.16377e-250
1.65529e-254
2.37503e-258
3.40811e-262
4.82844e-266
6.71737e-270
9.20179e-274
1.24617e-277
1.65585e-281
2.12288e-285
2.62067e-289
3.15289e-293
3.73834e-297
4.38537e-301
5.0683e-305
5.7494e-309
6.38457e-313
6.92741e-317
7.37146e-321
0
0
0
0
0
0
0
0
0
0
0
0
0
0
0
0
0
0
0
0
0
0
0
0
0
0
0
0
0
0
0
0
0
0
0
0
0
0
0
0
0
0
0
0
0
0
0
0
0
0
0
0
0
0
0
0
0
0
0
0
0
0
0
0
0
0
0
0
0
0
0
0
0
0
0
0
0
0
0
0
0
0
0
0
0
0
0
0
0
0
0
0
0
0
0
0
0
0
0
0
0
0
0
0
0
0
0
0
0
0
0
0
0
0
0
0
0
0
0
0
0
0
0
0
0
0
0
0
0
0
0
0
0
0
0
0
0
0
0
0
0
0
0
0
0
0
0
0
0
0
0
0
0
0
0
0
0
0
0
0
0
0
0
0
0
0
0
0
0
0
0
0
0
0
0
0
0
0
0
0
0
0
0
0
0
0
0
0
0
0
0
0
0
0
0
0
0
0
0
0
0
0
0
0
0
0
0
0
0
0
0
0
0
0
0
0
0
0
0
0
0
0
0
0
0
0
0
0
0
0
0
0
0
0
0
0
0
0
0
0
0
0
0
0
0
0
0
0
0
0
0
0
0
0
0
0
0
0
0
0
0
0
0
0
0
0
0
0
0
0
0
0
0
0
0
0
0
0
0
0
0
0
0
0
0
0
0
0
0
0
0
0
0
0
5.13673e-06
1.20881e-06
3.56093e-09
2.68949e-10
4.95312e-12
1.4427e-13
1.91657e-15
2.0254e-17
1.8072e-19
1.36452e-21
8.94869e-24
5.20258e-26
2.70258e-28
1.26363e-30
5.41582e-33
2.17465e-35
7.81827e-38
2.81513e-40
9.17299e-43
3.12859e-45
1.01619e-47
3.59375e-50
1.33554e-52
4.96542e-55
1.88299e-57
7.60781e-60
3.08938e-62
1.14441e-64
3.67428e-67
1.04588e-69
2.7381e-72
6.72315e-75
1.56482e-77
3.47531e-80
7.39979e-83
1.51663e-85
3.00006e-88
5.73937e-91
1.06396e-93
1.91397e-96
3.34563e-99
5.69018e-102
9.42974e-105
1.52505e-107
2.41167e-110
3.70722e-113
5.59574e-116
8.24814e-119
1.18008e-121
1.65572e-124
2.26769e-127
3.03655e-130
3.97814e-133
5.10507e-136
6.4244e-139
7.9335e-142
9.61366e-145
1.14311e-147
1.33311e-150
1.52459e-153
1.71073e-156
1.88449e-159
2.03861e-162
2.1646e-165
2.2548e-168
2.30487e-171
1.90209e-174
3.22136e-178
5.52147e-182
1.02997e-185
2.0257e-189
3.97173e-193
7.52841e-197
1.37059e-200
2.40808e-204
4.12044e-208
6.93807e-212
1.15117e-215
1.90349e-219
3.12773e-223
5.06358e-227
8.1065e-231
1.27759e-234
1.98178e-238
3.02493e-242
4.54661e-246
6.7373e-250
9.85508e-254
1.4238e-257
2.03408e-261
2.87338e-265
4.00654e-269
5.51044e-273
7.47108e-277
9.98314e-281
1.31418e-284
1.7035e-288
2.17445e-292
2.73454e-296
3.39029e-300
4.14609e-304
5.00075e-308
5.95493e-312
7.00263e-316
8.12689e-320
9.88131e-324
0
0
0
0
0
0
0
0
0
0
0
0
0
0
0
0
0
0
0
0
0
0
0
0
0
0
0
0
0
0
0
0
0
0
0
0
0
0
0
0
0
0
0
0
0
0
0
0
0
0
0
0
0
0
0
0
0
0
0
0
0
0
0
0
0
0
0
0
0
0
0
0
0
0
0
0
0
0
0
0
0
0
0
0
0
0
0
0
0
0
0
0
0
0
0
0
0
0
0
0
0
0
0
0
0
0
0
0
0
0
0
0
0
0
0
0
0
0
0
0
0
0
0
0
0
0
0
0
0
0
0
0
0
0
0
0
0
0
0
0
0
0
0
0
0
0
0
0
0
0
0
0
0
0
0
0
0
0
0
0
0
0
0
0
0
0
0
0
0
0
0
0
0
0
0
0
0
0
0
0
0
0
0
0
0
0
0
0
0
0
0
0
0
0
0
0
0
0
0
0
0
0
0
0
0
0
0
0
0
0
0
0
0
0
0
0
0
0
0
0
0
0
0
0
0
0
0
0
0
0
0
0
0
0
0
0
0
0
0
0
0
0
0
0
0
0
0
0
0
0
0
0
0
0
0
0
0
0
0
0
0
0
0
0
0
0
0
0
0
0
0
0
0
0
0
0
0
0
0
0
0
0
0
0
0
0
0
0
0
0
0
0
0
0
8.47879e-10
7.01801e-10
1.4237e-10
2.65192e-12
3.62808e-14
5.68863e-16
6.80104e-18
6.92764e-20
5.76843e-22
4.10529e-24
2.54137e-26
1.3957e-28
6.86802e-31
3.06662e-33
1.25014e-35
4.80453e-38
1.69705e-40
5.87019e-43
1.91352e-45
6.50074e-48
2.17869e-50
7.98537e-53
3.10364e-55
1.20249e-57
4.76162e-60
1.97998e-62
8.16409e-65
2.98484e-67
9.29889e-70
2.57481e-72
6.57199e-75
1.57452e-77
3.57848e-80
7.76857e-83
1.61873e-85
3.24919e-88
6.30007e-91
1.18257e-93
2.15278e-96
3.80612e-99
6.54343e-102
1.09506e-104
1.78562e-107
2.83966e-110
4.40783e-113
6.67659e-116
9.8802e-119
1.42876e-121
2.01799e-124
2.78654e-127
3.76228e-130
4.96863e-133
6.42145e-136
8.12662e-139
1.00776e-141
1.22523e-144
1.461e-147
1.70923e-150
1.96218e-153
2.21093e-156
2.44578e-159
2.65688e-162
2.83472e-165
2.97063e-168
3.0574e-171
2.94146e-174
6.76875e-178
1.33923e-181
2.55289e-185
5.01035e-189
1.01423e-192
2.05544e-196
4.06934e-200
7.79423e-204
1.4453e-207
2.60912e-211
4.61609e-215
8.04231e-219
1.38434e-222
2.35585e-226
3.95844e-230
6.55874e-234
1.07013e-237
1.71812e-241
2.71383e-245
4.21814e-249
6.45506e-253
9.73166e-257
1.44616e-260
2.1193e-264
3.06318e-268
4.36676e-272
6.13927e-276
8.51166e-280
1.16373e-283
1.56916e-287
2.087e-291
2.7386e-295
3.54679e-299
4.53556e-303
5.72962e-307
7.1538e-311
8.83319e-315
1.07915e-318
1.28457e-322
0
0
0
0
0
0
0
0
0
0
0
0
0
0
0
0
0
0
0
0
0
0
0
0
0
0
0
0
0
0
0
0
0
0
0
0
0
0
0
0
0
0
0
0
0
0
0
0
0
0
0
0
0
0
0
0
0
0
0
0
0
0
0
0
0
0
0
0
0
0
0
0
0
0
0
0
0
0
0
0
0
0
0
0
0
0
0
0
0
0
0
0
0
0
0
0
0
0
0
0
0
0
0
0
0
0
0
0
0
0
0
0
0
0
0
0
0
0
0
0
0
0
0
0
0
0
0
0
0
0
0
0
0
0
0
0
0
0
0
0
0
0
0
0
0
0
0
0
0
0
0
0
0
0
0
0
0
0
0
0
0
0
0
0
0
0
0
0
0
0
0
0
0
0
0
0
0
0
0
0
0
0
0
0
0
0
0
0
0
0
0
0
0
0
0
0
0
0
0
0
0
0
0
0
0
0
0
0
0
0
0
0
0
0
0
0
0
0
0
0
0
0
0
0
0
0
0
0
0
0
0
0
0
0
0
0
0
0
0
0
0
0
0
0
0
0
0
0
0
0
0
0
0
0
0
0
0
0
0
0
0
0
0
0
0
0
0
0
0
0
0
0
0
0
0
0
0
0
0
0
0
0
0
0
0
0
0
0
0
0
0
0
0
0
0
2.29188e-11
1.9719e-11
2.18702e-12
3.50738e-14
4.21426e-16
4.65456e-18
4.8297e-20
4.28636e-22
3.29898e-24
2.19623e-26
1.283e-28
6.68903e-31
3.15312e-33
1.3512e-35
5.35018e-38
1.98192e-40
6.91636e-43
2.35131e-45
7.7299e-48
2.6647e-50
9.36513e-53
3.59027e-55
1.44519e-57
5.82859e-60
2.39087e-62
1.01708e-64
4.22387e-67
1.50384e-69
4.54449e-72
1.22997e-74
3.07607e-77
7.2288e-80
1.61267e-82
3.43857e-85
7.04128e-88
1.38968e-90
2.65066e-93
4.89668e-96
8.77592e-99
1.52799e-101
2.58747e-104
4.2654e-107
6.85055e-110
1.07271e-112
1.63872e-115
2.44338e-118
3.55764e-121
5.06074e-124
7.03533e-127
9.56193e-130
1.27107e-132
1.6532e-135
2.1048e-138
2.62444e-141
3.20644e-144
3.84043e-147
4.51126e-150
5.19934e-153
5.88146e-156
6.532e-159
7.1245e-162
7.63327e-165
8.03516e-168
8.31095e-171
8.30608e-174
2.15574e-177
4.9305e-181
1.02167e-184
2.03875e-188
4.10063e-192
8.39401e-196
1.72216e-199
3.47736e-203
6.84172e-207
1.30942e-210
2.44508e-214
4.47436e-218
8.05401e-222
1.42918e-225
2.50155e-229
4.31676e-233
7.33724e-237
1.2274e-240
2.01983e-244
3.26963e-248
5.20773e-252
8.16502e-256
1.2608e-259
1.91835e-263
2.87719e-267
4.25494e-271
6.20573e-275
8.92766e-279
1.26707e-282
1.77447e-286
2.45278e-290
3.3475e-294
4.51264e-298
6.01168e-302
7.91856e-306
1.03188e-309
1.33106e-313
1.70064e-317
2.15413e-321
0
0
0
0
0
0
0
0
0
0
0
0
0
0
0
0
0
0
0
0
0
0
0
0
0
0
0
0
0
0
0
0
0
0
0
0
0
0
0
0
0
0
0
0
0
0
0
0
0
0
0
0
0
0
0
0
0
0
0
0
0
0
0
0
0
0
0
0
0
0
0
0
0
0
0
0
0
0
0
0
0
0
0
0
0
0
0
0
0
0
0
0
0
0
0
0
0
0
0
0
0
0
0
0
0
0
0
0
0
0
0
0
0
0
0
0
0
0
0
0
0
0
0
0
0
0
0
0
0
0
0
0
0
0
0
0
0
0
0
0
0
0
0
0
0
0
0
0
0
0
0
0
0
0
0
0
0
0
0
0
0
0
0
0
0
0
0
0
0
0
0
0
0
0
0
0
0
0
0
0
0
0
0
0
0
0
0
0
0
0
0
0
0
0
0
0
0
0
0
0
0
0
0
0
0
0
0
0
0
0
0
0
0
0
0
0
0
0
0
0
0
0
0
0
0
0
0
0
0
0
0
0
0
0
0
0
0
0
0
0
0
0
0
0
0
0
0
0
0
0
0
0
0
0
0
0
0
0
0
0
0
0
0
0
0
0
0
0
0
0
0
0
0
0
0
0
0
0
0
0
0
0
0
0
0
0
0
0
0
0
0
0
0
0
0
0
3.48577e-13
3.12993e-13
2.88742e-14
4.16713e-16
4.39058e-18
4.08171e-20
3.46289e-22
2.7211e-24
1.9076e-26
1.18e-28
6.54412e-31
3.24427e-33
1.46842e-35
6.0984e-38
2.34693e-40
8.51919e-43
2.93982e-45
9.95733e-48
3.34493e-50
1.16258e-52
4.28497e-55
1.66509e-57
6.63104e-60
2.63525e-62
1.0438e-64
4.09237e-67
1.49671e-69
4.70997e-72
1.31346e-74
3.35586e-77
8.01283e-80
1.80987e-82
3.89798e-85
8.04911e-88
1.6e-90
3.071e-93
5.70487e-96
1.02758e-98
1.79731e-101
3.05614e-104
5.05693e-107
8.1492e-110
1.27987e-112
1.96026e-115
2.92964e-118
4.27446e-121
6.09147e-124
8.48273e-127
1.15476e-129
1.53735e-132
2.00243e-135
2.55293e-138
3.18722e-141
3.89841e-144
4.6738e-147
5.4949e-150
6.33786e-153
7.1744e-156
7.97335e-159
8.70248e-162
9.33055e-165
9.82937e-168
1.01756e-170
1.01996e-173
1.13833e-177
2.39521e-181
5.01757e-185
1.00527e-188
2.01677e-192
4.12788e-196
8.51642e-200
1.73613e-203
3.45323e-207
6.67884e-211
1.25891e-214
2.32261e-218
4.21096e-222
7.52098e-226
1.3244e-229
2.29873e-233
3.92922e-237
6.60878e-241
1.09328e-244
1.77869e-248
2.84661e-252
4.48339e-256
6.9528e-260
1.06219e-263
1.59927e-267
2.37384e-271
3.47456e-275
5.01589e-279
7.14293e-283
1.00364e-286
1.39179e-290
1.90552e-294
2.57677e-298
3.44325e-302
4.54906e-306
5.94541e-310
7.69139e-314
9.85477e-318
1.24999e-321
0
0
0
0
0
0
0
0
0
0
0
0
0
0
0
0
0
0
0
0
0
0
0
0
0
0
0
0
0
0
0
0
0
0
0
0
0
0
0
0
0
0
0
0
0
0
0
0
0
0
0
0
0
0
0
0
0
0
0
0
0
0
0
0
0
0
0
0
0
0
0
0
0
0
0
0
0
0
0
0
0
0
0
0
0
0
0
0
0
0
0
0
0
0
0
0
0
0
0
0
0
0
0
0
0
0
0
0
0
0
0
0
0
0
0
0
0
0
0
0
0
0
0
0
0
0
0
0
0
0
0
0
0
0
0
0
0
0
0
0
0
0
0
0
0
0
0
0
0
0
0
0
0
0
0
0
0
0
0
0
0
0
0
0
0
0
0
0
0
0
0
0
0
0
0
0
0
0
0
0
0
0
0
0
0
0
0
0
0
0
0
0
0
0
0
0
0
0
0
0
0
0
0
0
0
0
0
0
0
0
0
0
0
0
0
0
0
0
0
0
0
0
0