/*--------------------------------*- C++ -*----------------------------------*\
| =========                 |                                                 |
| \\      /  F ield         | OpenFOAM: The Open Source CFD Toolbox           |
|  \\    /   O peration     | Version:  2.1.1                                 |
|   \\  /    A nd           | Web:      www.OpenFOAM.org                      |
|    \\/     M anipulation  |                                                 |
\*---------------------------------------------------------------------------*/
FoamFile
{
    version     2.0;
    format      ascii;
    class       volScalarField;
    location    "0.007050000";
    object      H2;
}
// * * * * * * * * * * * * * * * * * * * * * * * * * * * * * * * * * * * * * //

dimensions      [0 0 0 0 0 0 0];

internalField   nonuniform List<scalar> 
12384
(
0.00150999
0.00138298
0.0013032
0.00125148
0.00122545
0.00123175
0.00129
0.0013826
0.00149506
0.00167486
0.00185495
0.00197966
0.0020642
0.00256094
0.000283003
0.000347105
0.000337519
0.000317947
0.000315403
0.000332663
0.000349974
0.000343795
0.000359255
0.000386987
0.000434196
0.000484626
0.000530494
0.000557862
0.000570226
0.000572319
0.000566036
0.000556309
0.000541446
0.000534548
0.000532073
0.000531493
0.000537811
0.00053192
0.000561637
0.000606177
0.000639156
0.000533586
0.000327735
0.000152454
0.00107467
0.00170611
0.00202711
0.00230683
0.00255436
0.00274374
0.00285449
0.00289521
0.00292957
0.00291804
0.00285422
0.0027356
0.00261119
0.00246809
0.00233038
0.00219269
0.0020779
0.00199529
0.00194811
0.00193756
0.00194435
0.00201731
0.00209892
0.00220019
0.00235776
0.00257882
0.00282295
0.00270885
0.00149893
0.00120257
0.00222609
0.00242059
0.00286116
0.00315553
0.00325316
0.00326009
0.00322755
0.00318507
0.00315346
0.00311477
0.00305473
0.00304674
0.00303693
0.00303934
0.00303346
0.00300272
0.00296135
0.0028855
0.00282742
0.00276446
0.00270871
0.00267566
0.00264453
0.00264617
0.00266968
0.00270286
0.00271158
0.00273
0.00260054
0.00253388
0.00427949
0.00398662
0.00386558
0.0038122
0.00384252
0.00392217
0.00400366
0.00408013
0.00410516
0.00412787
0.00411278
0.0041436
0.00405475
0.00409261
0.00399803
0.00396786
0.00397966
0.00389676
0.00394392
0.00390364
0.00383292
0.00369728
0.00318865
0.00296036
0.00315921
0.00333197
0.00346443
0.00357398
0.00343585
0.00312915
0.0079215
0.00721262
0.00717919
0.00729459
0.00726641
0.00718373
0.00713993
0.00712313
0.00710802
0.00721707
0.00720514
0.00726032
0.0072718
0.00726096
0.00723265
0.00717808
0.00714328
0.00709552
0.00706028
0.0070333
0.00701195
0.00699449
0.00698208
0.00697676
0.00697433
0.00696036
0.0070038
0.00697511
0.00661203
0.00669496
0.00291018
0.00428504
0.00525033
0.00520158
0.00474827
0.00438166
0.00410236
0.00392438
0.00379565
0.00369528
0.00360593
0.00351676
0.00342155
0.00331737
0.00336358
0.00327985
0.00332214
0.00328552
0.00328961
0.00334446
0.00338077
0.00353254
0.00377136
0.00413109
0.00296719
0.000344948
0.000319078
0.000378807
0.000427631
0.00044774
0.00519687
0.00734206
0.00800045
0.00828818
0.00854649
0.00874053
0.00880912
0.00879818
0.00873201
0.00865548
0.00856028
0.00851051
0.00847252
0.00846854
0.00845243
0.00842941
0.00841173
0.00839658
0.00836558
0.00826076
0.00718108
0.0061838
0.00647502
0.00666375
0.00673517
0.00682603
0.00690907
0.0069258
0.0068611
0.006686
0.00511177
0.00518282
0.00506602
0.0049453
0.00484456
0.00473815
0.00464487
0.00458494
0.00453674
0.0045498
0.0045173
0.00463301
0.00466428
0.00480972
0.00491007
0.00491048
0.00527636
0.00834358
0.0105648
0.0105754
0.0102712
0.0100759
0.00986487
0.00969502
0.00956118
0.00950341
0.00966903
0.0100662
0.01099
0.0122389
0.00546315
0.00557714
0.00555287
0.00549667
0.00542903
0.00536701
0.00532823
0.00533844
0.00544935
0.00550577
0.00567209
0.0057678
0.00593917
0.00607463
0.00612223
0.00610814
0.00571941
0.00577458
0.0075856
0.00844634
0.00849374
0.00836683
0.00826831
0.00814198
0.00813498
0.00822859
0.00837017
0.00855682
0.00872065
0.00881223
0.00835549
0.0076469
0.00680372
0.00631749
0.00606152
0.0058651
0.00577916
0.005821
0.00594956
0.00614091
0.00647476
0.00700654
0.00791114
0.00871942
0.00976669
0.0112591
0.011553
0.0111602
0.0106338
0.010256
0.00999796
0.00988106
0.00982719
0.00983851
0.00987338
0.00995893
0.0100927
0.0103562
0.0108316
0.0112956
0.00774639
0.0069894
0.00757417
0.00910548
0.0092791
0.00918918
0.00910649
0.00902173
0.00892769
0.00881579
0.00871317
0.00860848
0.00851919
0.00843786
0.00837693
0.00831957
0.00827491
0.0082375
0.00820978
0.00820129
0.00822823
0.00828154
0.0084632
0.0086472
0.00884413
0.00897257
0.0089777
0.00857776
0.00753601
0.00733826
0.0110119
0.0110436
0.0115325
0.0120026
0.0119419
0.00961317
0.00990496
0.0207208
0.0224554
0.0227126
0.0231021
0.0233343
0.0234152
0.0236102
0.0235794
0.0237451
0.0236108
0.0236134
0.0234476
0.0232611
0.0229919
0.0227202
0.0224385
0.0219727
0.021025
0.0193428
0.0171528
0.0159208
0.017994
0.0244954
0.00101828
0.000944161
0.000821286
0.000711242
0.00069778
0.000731505
0.000802003
0.000866672
0.000965582
0.001174
0.00146968
0.00188222
0.00208176
0.00252656
0.000289145
0.000347922
0.000323312
0.000315521
0.000334022
0.000341941
0.0003377
0.000342913
0.000388696
0.000559944
0.000729133
0.000870559
0.000899871
0.000854581
0.000771627
0.00066486
0.000592688
0.000537301
0.000504212
0.000487256
0.000482499
0.000486971
0.000498546
0.000518753
0.00054253
0.000578426
0.000649167
0.000629151
0.000446759
0.000203812
0.00110201
0.00171494
0.00206079
0.00245046
0.00279975
0.0030026
0.00309288
0.00308022
0.00300345
0.00285323
0.00266233
0.00241498
0.00213797
0.0018383
0.00158163
0.00140724
0.00133213
0.00127723
0.00123275
0.00120064
0.00118903
0.00120053
0.0012627
0.00138293
0.00168176
0.00206611
0.00249352
0.00273189
0.00230296
0.00147873
0.0022597
0.0025956
0.00300906
0.00319629
0.0031843
0.00303859
0.00285666
0.00269337
0.00260085
0.00252131
0.00251613
0.00250624
0.00252976
0.00260047
0.00274285
0.00278519
0.00274697
0.00264378
0.00249875
0.00234211
0.00220183
0.00208274
0.00202154
0.00202329
0.00209334
0.00224721
0.00243475
0.00259694
0.00262753
0.00254053
0.00436175
0.00407558
0.00385664
0.00379554
0.00393041
0.00412289
0.00426105
0.00429731
0.00424005
0.00411358
0.00391829
0.00379821
0.00366417
0.0035706
0.00350432
0.0035842
0.00365393
0.00370136
0.00374713
0.0037954
0.00385762
0.00376847
0.00344643
0.00310368
0.00310278
0.0037804
0.00417545
0.00442661
0.00452439
0.00439739
0.00786894
0.00722557
0.00726156
0.007327
0.00721979
0.00714296
0.00717531
0.00737867
0.00764894
0.00789398
0.00806192
0.00804154
0.00791361
0.00770801
0.00748926
0.00731245
0.00717269
0.00707809
0.00703003
0.00701244
0.00700827
0.00700186
0.00699534
0.00698021
0.00697138
0.00695058
0.00697215
0.00699771
0.00682243
0.00671935
0.00306646
0.00481575
0.00553646
0.00500353
0.00445273
0.00429542
0.00424138
0.00413589
0.00397986
0.00374126
0.00342211
0.00326413
0.00312686
0.00310134
0.00304207
0.00310671
0.00309499
0.00309796
0.00311393
0.00314394
0.00315955
0.00324158
0.00340387
0.00388709
0.00362157
0.00121755
0.000390145
0.000437599
0.000644201
0.000818862
0.00552811
0.00808371
0.00846932
0.00908634
0.00955718
0.00959197
0.00941039
0.00915168
0.00893163
0.0087827
0.00869143
0.00862969
0.00857826
0.00855957
0.00854313
0.00852297
0.00850376
0.00847878
0.00842986
0.00834008
0.00782207
0.00656529
0.00628365
0.00648218
0.00647431
0.00656932
0.0068495
0.00710903
0.00735528
0.00745742
0.00513608
0.0050708
0.0049274
0.0047077
0.00442837
0.0041329
0.00385743
0.00364311
0.00343587
0.00336635
0.0033758
0.00356037
0.00381169
0.00413988
0.00448129
0.00472395
0.00487476
0.00596212
0.00879894
0.0104733
0.0101632
0.00992019
0.00980571
0.00955814
0.00911209
0.00867123
0.00849454
0.00865834
0.00946352
0.0114
0.00483049
0.00481889
0.00473632
0.0045568
0.00431553
0.00404848
0.00381348
0.00364742
0.00358274
0.00359024
0.003761
0.00398951
0.00439098
0.00492316
0.00544127
0.00579028
0.00578929
0.00557405
0.00616456
0.00800112
0.008421
0.00819513
0.00800345
0.00786525
0.0078199
0.00797212
0.00817171
0.00834789
0.00865753
0.00879941
0.00836411
0.00677781
0.00581972
0.00522631
0.00476428
0.00434429
0.00403584
0.00388011
0.00395799
0.00429803
0.00489974
0.00567568
0.00674253
0.00790328
0.00901336
0.0108188
0.0114508
0.0106945
0.00996837
0.00959655
0.00944614
0.00940747
0.00943216
0.00950739
0.00960678
0.00968438
0.00971838
0.00986149
0.0104868
0.0112468
0.0079782
0.00734306
0.00845648
0.00920571
0.00915673
0.00897934
0.00882409
0.00867762
0.00856102
0.00844348
0.00830535
0.00814804
0.00797558
0.00782154
0.00768681
0.00758953
0.00753425
0.00750367
0.00747834
0.00741944
0.00728325
0.00716256
0.00711097
0.00729747
0.00773906
0.00833283
0.00875925
0.00865368
0.00782806
0.00733052
0.0100234
0.00962051
0.0100827
0.0126188
0.0120243
0.00932015
0.0157201
0.0221234
0.0231592
0.0236545
0.0240955
0.0243515
0.0245227
0.0246454
0.0247367
0.0248287
0.0248652
0.0248083
0.0247274
0.0245632
0.0243417
0.0240132
0.0237368
0.0233273
0.0221818
0.0192431
0.0162108
0.0157958
0.018707
0.0250018
0.000851316
0.00065834
0.000539454
0.000536168
0.000618583
0.000776568
0.00090494
0.000965493
0.000966298
0.000970129
0.0011242
0.00155302
0.00202964
0.00252522
0.000296359
0.000341489
0.000314039
0.000314744
0.000320924
0.00031075
0.000295958
0.000358307
0.000585083
0.000951923
0.00115635
0.00116524
0.00103756
0.000874082
0.00064581
0.000517229
0.000433029
0.000393186
0.000402464
0.000407417
0.000412017
0.000415369
0.000403133
0.000432348
0.00047442
0.000531329
0.000612746
0.000678671
0.000530215
0.000280225
0.0010981
0.00165431
0.00203312
0.00257619
0.0030471
0.00332793
0.00335996
0.00325183
0.003022
0.00270968
0.00243546
0.00216999
0.00185866
0.00152986
0.00135526
0.00128453
0.0012366
0.00119166
0.00114745
0.0011115
0.0010805
0.00105205
0.00104332
0.00108074
0.00120988
0.00144999
0.0019781
0.00251387
0.00263397
0.00190419
0.00231238
0.00274832
0.00309189
0.0031525
0.00294724
0.00265515
0.00243019
0.00233094
0.00234367
0.00233645
0.00235695
0.00230534
0.00228401
0.00228654
0.00247875
0.00262283
0.00262852
0.00249064
0.00226933
0.00203842
0.00183796
0.00168712
0.00159353
0.00156894
0.00162165
0.00177273
0.0020315
0.00234891
0.00256206
0.00254198
0.00448268
0.00419271
0.0037695
0.00373395
0.00393726
0.004212
0.00429009
0.00415824
0.00382507
0.00341387
0.00313483
0.00293091
0.00279503
0.00267538
0.00265185
0.00270819
0.00282526
0.0029758
0.00316353
0.0033996
0.00366818
0.00377001
0.00367238
0.0033088
0.00310343
0.00338286
0.00377112
0.00403314
0.0043318
0.0047199
0.00785828
0.00726163
0.00734046
0.00735614
0.00722077
0.00723274
0.00752084
0.00800701
0.0085435
0.00884189
0.00898564
0.00877938
0.0084099
0.00796048
0.00754257
0.00725753
0.0070898
0.00703599
0.00706476
0.00712872
0.00719267
0.00722628
0.007216
0.00717388
0.00709499
0.00701043
0.00696136
0.00698812
0.00693041
0.00679819
0.00324597
0.00526425
0.00577574
0.00532521
0.00541429
0.0057743
0.00590627
0.00564193
0.00498115
0.00416509
0.00364216
0.00331047
0.00315414
0.00321126
0.00335829
0.00338822
0.00355533
0.00361301
0.00359475
0.00351933
0.00336646
0.00327879
0.00325702
0.00356402
0.00379803
0.00280624
0.00089198
0.000452791
0.000600324
0.000990736
0.00647223
0.00845958
0.00913201
0.0101498
0.0101677
0.00972243
0.00913913
0.0087653
0.00863617
0.00862476
0.00867469
0.0087324
0.00876756
0.00878317
0.00877408
0.00874097
0.00869558
0.00863051
0.00854477
0.0084477
0.00817409
0.00718269
0.00628833
0.0061334
0.00589984
0.00605688
0.00649867
0.00672746
0.00702928
0.00760166
0.00514515
0.00507566
0.00487968
0.00448739
0.00399741
0.0034542
0.00310579
0.00283814
0.00263491
0.00251613
0.00248734
0.00257379
0.0028218
0.00320629
0.00377271
0.00430053
0.00457698
0.00496554
0.00675328
0.00960592
0.0102615
0.0101171
0.0100793
0.00977866
0.00907467
0.00841455
0.00807968
0.0081024
0.0085561
0.0103128
0.0048482
0.00487788
0.00467132
0.00425051
0.003757
0.00324471
0.00289871
0.00266727
0.00252044
0.00249759
0.00254652
0.00269395
0.00297816
0.00343998
0.00423844
0.00496835
0.0054513
0.00549837
0.0054813
0.00649892
0.00819592
0.00837991
0.00826931
0.00808151
0.00793961
0.00812323
0.00839561
0.00853054
0.00869852
0.00883918
0.00766225
0.00611318
0.00547022
0.00489984
0.00421956
0.0035062
0.0029426
0.00264148
0.00259964
0.0028278
0.00330434
0.00423268
0.00541265
0.0068379
0.00824134
0.0101092
0.0113902
0.0106343
0.00987128
0.00952162
0.00939193
0.00937141
0.00942301
0.00957017
0.00976593
0.0099434
0.00997699
0.00989814
0.0104191
0.0112642
0.00794591
0.00785796
0.0089026
0.00918964
0.00904089
0.00894221
0.00892477
0.00891828
0.008882
0.00879412
0.00864551
0.00844404
0.00821499
0.00799964
0.00785668
0.00781932
0.00790532
0.00805871
0.00812936
0.00786954
0.00736059
0.00686673
0.00651153
0.00642044
0.00671851
0.00747379
0.00829895
0.00858906
0.00800274
0.00737135
0.0105207
0.00912246
0.00823124
0.0120984
0.0106791
0.0121435
0.0201751
0.0230947
0.0236691
0.0239983
0.0240619
0.0239095
0.0237861
0.0238218
0.0240583
0.0244193
0.024807
0.025057
0.0251301
0.0250031
0.0248679
0.0245908
0.024065
0.0233875
0.0212443
0.0175529
0.0157472
0.0166292
0.0216821
0.0260706
0.000608515
0.000454676
0.000469781
0.000637754
0.000939466
0.00129122
0.00153656
0.00165912
0.00156609
0.00130007
0.00113629
0.00132433
0.00187799
0.0025008
0.000298293
0.00033943
0.000304582
0.000300394
0.000291089
0.000260411
0.000272047
0.00043415
0.000847416
0.00125301
0.00131929
0.00117704
0.000994251
0.000713896
0.000496317
0.000385836
0.000380858
0.000395568
0.0004253
0.000454591
0.00046887
0.000466176
0.00045186
0.000437415
0.000423866
0.000475661
0.000561213
0.000678045
0.000620899
0.000333245
0.00107487
0.00152453
0.00191008
0.00258811
0.00326919
0.00368992
0.00374882
0.00344281
0.00299423
0.00250343
0.0021617
0.00196404
0.00170112
0.00140444
0.00131557
0.00127225
0.00122679
0.00116598
0.00110695
0.00105516
0.00101968
0.00100346
0.000992333
0.000988662
0.00102494
0.00116715
0.00148692
0.00216153
0.00260624
0.00210939
0.00235237
0.00283043
0.00311242
0.00303151
0.00271072
0.00240891
0.00232133
0.00241758
0.00260756
0.00272388
0.00269024
0.00252702
0.00235335
0.00224451
0.00236403
0.00253382
0.00252976
0.00232492
0.00202403
0.00173032
0.00149383
0.00131758
0.00127519
0.00126716
0.00129401
0.00141014
0.00166735
0.00205757
0.00244074
0.00253352
0.00461883
0.00429165
0.00363384
0.00364473
0.00396234
0.00424773
0.0041649
0.0037511
0.00321661
0.00281767
0.00256336
0.00232654
0.00219647
0.00209585
0.00205903
0.00209897
0.00218915
0.00235798
0.00261191
0.00289515
0.00323847
0.00360572
0.00370564
0.0034543
0.0031794
0.00320026
0.00326728
0.0031279
0.00330776
0.00393915
0.00790127
0.00729474
0.00741064
0.00741897
0.00725577
0.00736278
0.007855
0.00852301
0.00912166
0.00938673
0.00939077
0.00912123
0.00864037
0.00805172
0.00751171
0.00720626
0.00707807
0.00711887
0.00724922
0.00740156
0.00753339
0.00760848
0.00761766
0.00752743
0.0073695
0.00717421
0.00702116
0.00698964
0.00697483
0.00685399
0.00339542
0.00561787
0.00613364
0.0061907
0.00710516
0.00785927
0.00793372
0.00717593
0.00573127
0.00425744
0.00359155
0.00326082
0.00330151
0.00355365
0.00387579
0.00406489
0.00427425
0.00439596
0.00438005
0.00422481
0.00395618
0.00363982
0.00335008
0.00334726
0.00372695
0.00355898
0.00206837
0.000666469
0.000547826
0.00103104
0.00770241
0.00865412
0.0103763
0.0107474
0.00999155
0.00906556
0.00859398
0.00854599
0.0087195
0.00892466
0.00912497
0.00927769
0.00934754
0.00935397
0.00928922
0.00917777
0.00903301
0.00887319
0.00870703
0.00856228
0.0083606
0.00771121
0.0066397
0.00600398
0.00567856
0.00592545
0.00637807
0.00650061
0.00664493
0.00740126
0.00518011
0.00507527
0.00462538
0.00396609
0.00328934
0.00279418
0.00235416
0.00201099
0.00174953
0.00163747
0.00165043
0.00179485
0.00203213
0.00245955
0.00298723
0.00369416
0.00423041
0.00454215
0.00559905
0.00829593
0.0100672
0.0102402
0.0101291
0.00947298
0.00842898
0.00767427
0.00745823
0.00765543
0.00807828
0.00941498
0.00506743
0.00493369
0.00452236
0.00387456
0.00317994
0.00264931
0.00223901
0.00189221
0.00171124
0.00162424
0.00165788
0.00178465
0.00203342
0.0024602
0.00304896
0.00392166
0.00474888
0.00520885
0.00524174
0.00554138
0.00705604
0.00824591
0.00846979
0.00819435
0.00810149
0.00822617
0.00855396
0.00886836
0.00891683
0.00892495
0.0061382
0.00575946
0.00532033
0.0044815
0.00336849
0.00250295
0.00181604
0.00143246
0.00132859
0.00158029
0.00210884
0.00295693
0.00417622
0.00579026
0.00748415
0.00942899
0.0112388
0.0108988
0.0100019
0.00953897
0.00938897
0.00936173
0.00939413
0.00952434
0.00978103
0.0100982
0.010308
0.0103078
0.0105179
0.0113154
0.00800428
0.00824077
0.00906987
0.00914867
0.00908196
0.00915311
0.00926829
0.00934223
0.00933066
0.00923587
0.00907892
0.00884446
0.00856205
0.00828469
0.00811718
0.00815966
0.00844112
0.00876073
0.00873643
0.00810427
0.0071511
0.00628868
0.00565949
0.00552051
0.00587491
0.00676204
0.00785933
0.00844247
0.00803723
0.00740065
0.0122079
0.00945248
0.00710354
0.0106515
0.0106856
0.0159311
0.0222305
0.0235251
0.0237591
0.0235008
0.0228017
0.0221401
0.0217827
0.0217565
0.0221622
0.022872
0.0237611
0.0246368
0.0251681
0.0252377
0.0251177
0.0250086
0.0244331
0.0228385
0.0184964
0.0157758
0.0169113
0.0207044
0.0263757
0.0263208
0.000390398
0.0003992
0.000592671
0.00102635
0.00137784
0.00161729
0.00175366
0.00190256
0.00195728
0.00174163
0.00133217
0.00126812
0.00173232
0.00250558
0.000298281
0.000336058
0.00029484
0.000276593
0.000250538
0.000217219
0.000263987
0.000504502
0.00103749
0.00138573
0.00131595
0.00111121
0.000917965
0.000571387
0.000394649
0.000372288
0.000397866
0.000450399
0.00049859
0.000559481
0.000594458
0.000597713
0.000553312
0.000502229
0.000456593
0.000442041
0.000520081
0.000655202
0.000666504
0.000369988
0.00102717
0.00135529
0.00162937
0.00230915
0.00311064
0.00368152
0.0037746
0.00335671
0.0027154
0.00218707
0.00182319
0.00175706
0.00159515
0.00136241
0.00131004
0.00127377
0.00119496
0.00109445
0.00100513
0.000950795
0.000936691
0.000939636
0.000950931
0.000943582
0.000945095
0.00102059
0.00124292
0.00183651
0.00249051
0.00221663
0.00236776
0.00285681
0.00309384
0.00291257
0.00252781
0.00233993
0.00239036
0.00270294
0.00304691
0.00321333
0.00311612
0.00280984
0.00248224
0.00225742
0.0023415
0.00250305
0.00243309
0.00212724
0.00175881
0.00143155
0.00123975
0.00114467
0.00108989
0.00108772
0.00113657
0.00122
0.00139089
0.0018025
0.00229105
0.00251899
0.00474452
0.00420273
0.00342891
0.00367657
0.00409432
0.00427175
0.00395181
0.00327685
0.00279897
0.00240306
0.00223522
0.00203591
0.00196415
0.00190064
0.0018623
0.00186143
0.00189182
0.00197038
0.0021559
0.00246279
0.00287999
0.00328128
0.00362506
0.00357611
0.00327456
0.00315591
0.00301079
0.00266771
0.00285075
0.00336905
0.00797337
0.00732597
0.00744077
0.00751796
0.00732992
0.0074254
0.00795778
0.00867389
0.00922995
0.00945586
0.00940679
0.00909431
0.00866156
0.00809423
0.0074861
0.00717408
0.0071184
0.00725697
0.00745917
0.0076597
0.00782947
0.00794475
0.00797621
0.00788969
0.00768364
0.00740294
0.00714409
0.00701891
0.00698711
0.00688224
0.00357655
0.00593257
0.00670069
0.00738539
0.00882899
0.00971257
0.00953096
0.00825604
0.00616198
0.00425362
0.00353774
0.0033233
0.00360059
0.00400848
0.00442327
0.00476307
0.00501889
0.00515304
0.00515681
0.00497367
0.00460403
0.00411502
0.00363708
0.00335897
0.00359476
0.00377938
0.00289506
0.00113497
0.000698918
0.00106504
0.00840435
0.00941427
0.0111487
0.0104296
0.00911152
0.00847691
0.00849982
0.00878939
0.00913153
0.0094472
0.00970217
0.00987681
0.00997669
0.00995696
0.00985957
0.00968754
0.00944632
0.00917628
0.00891091
0.00868429
0.00847314
0.00804528
0.00708111
0.00618793
0.005794
0.00611803
0.00639519
0.00626414
0.00629319
0.00714435
0.00542655
0.00489677
0.00406657
0.00327699
0.00267602
0.00212793
0.00163688
0.00127834
0.0011198
0.00104427
0.00105099
0.00113485
0.00134724
0.00181443
0.00241626
0.00312783
0.00383324
0.00427852
0.00504297
0.00721625
0.00935307
0.0101482
0.00986717
0.0086109
0.0072979
0.00663587
0.00669295
0.00721522
0.00781551
0.00886412
0.00521059
0.00491594
0.00438387
0.00363946
0.0028886
0.00229924
0.00178007
0.00143111
0.00121061
0.00116651
0.00114128
0.00116984
0.00136134
0.00170496
0.00226482
0.00299489
0.00393494
0.00471027
0.0050161
0.00510154
0.00597202
0.00740876
0.00809224
0.0080726
0.00812106
0.0082232
0.0085939
0.00907994
0.00915401
0.00905909
0.0059474
0.00571316
0.0050093
0.00373575
0.00247094
0.00143393
0.000883277
0.000677279
0.00063301
0.000770313
0.0010686
0.00198654
0.0031316
0.00487995
0.00681719
0.00886835
0.0109361
0.0111971
0.010225
0.00961708
0.0094398
0.00937722
0.00932744
0.0093741
0.0095694
0.0099322
0.0103897
0.0107753
0.0109831
0.0113963
0.00808746
0.00847359
0.00913123
0.00915697
0.00920807
0.00937454
0.00949621
0.00952254
0.00950232
0.00947287
0.00939337
0.00919542
0.0088903
0.00853291
0.00826295
0.00827595
0.00866344
0.00908195
0.0090168
0.00808279
0.00679521
0.00562642
0.00475448
0.00467964
0.00528665
0.00638044
0.00765311
0.0083179
0.00795399
0.00740291
0.0140365
0.0103813
0.00646343
0.00894432
0.0116582
0.0186258
0.0229967
0.023607
0.0232286
0.0221425
0.0207965
0.0197325
0.0191349
0.0191958
0.0197166
0.0207913
0.0220807
0.0235804
0.0248084
0.0253254
0.0251762
0.0250824
0.0248361
0.0218392
0.016987
0.0158509
0.020525
0.025936
0.0282233
0.0249401
0.000358811
0.000493554
0.000895574
0.00132026
0.00134032
0.00126406
0.00131106
0.00154981
0.00184897
0.00188063
0.00148642
0.0012983
0.00167049
0.00246853
0.000293291
0.000340315
0.000284648
0.000251274
0.000216192
0.000208397
0.000250877
0.000521567
0.00108604
0.0014375
0.00132485
0.00106963
0.000862718
0.000515246
0.000369167
0.000378939
0.000440963
0.000513836
0.000599385
0.000671705
0.000726228
0.000742793
0.000706215
0.000607832
0.000490451
0.000457719
0.000492233
0.000627213
0.000686231
0.00040058
0.000965937
0.00128249
0.00132271
0.00170008
0.00238857
0.00296734
0.00302411
0.00263342
0.00210184
0.0017559
0.00149104
0.00155764
0.00153505
0.00134501
0.00131289
0.00126408
0.00113639
0.000998361
0.000916699
0.000913436
0.000920396
0.000919735
0.000921685
0.000925563
0.000917364
0.000948474
0.00111745
0.00159651
0.00239548
0.00226364
0.00236532
0.00284761
0.00307618
0.00285183
0.002487
0.0023361
0.00246211
0.00283257
0.00322447
0.00343569
0.00330347
0.00292975
0.0025285
0.00224446
0.00234597
0.00249077
0.00232877
0.00191489
0.00152493
0.00123707
0.00109662
0.0010121
0.000972059
0.00096523
0.00100336
0.00109982
0.00124444
0.00161717
0.00216189
0.00248234
0.00479531
0.0039217
0.0033483
0.00389377
0.00421953
0.00423419
0.00368373
0.00297494
0.00257073
0.00220996
0.00212746
0.00196811
0.00194655
0.00188274
0.00189201
0.00188298
0.00186098
0.00184742
0.00192347
0.0021599
0.00255744
0.00304625
0.00343632
0.00358322
0.00332642
0.00315274
0.00288864
0.00248317
0.00280588
0.00344546
0.00809485
0.00736855
0.00740144
0.00767438
0.00746748
0.00742772
0.00779943
0.00843814
0.00896263
0.00920294
0.00914108
0.0088668
0.00855355
0.00810685
0.00744116
0.00712924
0.0071748
0.0073878
0.00762312
0.00785443
0.00805178
0.00818048
0.00822567
0.00815583
0.00794576
0.00762408
0.00727767
0.00706636
0.00699713
0.0069018
0.00366766
0.00619972
0.00729075
0.00847597
0.0101363
0.0107826
0.0103984
0.00877298
0.00644084
0.00425528
0.00354915
0.00344324
0.00386394
0.00439793
0.00480012
0.00519501
0.00546249
0.00570501
0.00572517
0.00553525
0.00513886
0.00453468
0.00391961
0.0035124
0.00355159
0.00384624
0.00332319
0.00185654
0.000910177
0.00116656
0.00868008
0.0107946
0.0112369
0.00955762
0.00846434
0.00839063
0.00872264
0.00912263
0.00948918
0.00987079
0.0101368
0.0103353
0.0104434
0.0104371
0.010334
0.0101293
0.00984049
0.00948148
0.00912516
0.00880895
0.00855305
0.00822794
0.00745617
0.00655487
0.00612082
0.0064456
0.00633819
0.00599418
0.00604998
0.006935
0.00534699
0.00437529
0.00353883
0.00284925
0.00223859
0.00160707
0.00116957
0.000982395
0.000851348
0.000801915
0.000776423
0.000873068
0.00102693
0.00132971
0.00198723
0.00270481
0.00341111
0.00403789
0.00474127
0.00649937
0.0084847
0.00960935
0.00893655
0.00719305
0.00614848
0.00594082
0.00623305
0.0069663
0.00770426
0.00854017
0.00525295
0.00501187
0.00442572
0.00359956
0.0027801
0.00209313
0.00155141
0.0011883
0.00106746
0.00100333
0.000982398
0.00100229
0.00105102
0.00120221
0.00167713
0.00236916
0.00317554
0.00413257
0.00470902
0.00487413
0.00536219
0.00657817
0.0073141
0.00790131
0.00800434
0.00815752
0.0086842
0.00926989
0.00933751
0.00918862
0.00610487
0.005614
0.004439
0.0028749
0.00152633
0.00077226
0.000485731
0.000421785
0.000409475
0.000472974
0.000659037
0.00123958
0.00240911
0.00419298
0.00626432
0.00843259
0.0105626
0.0113626
0.0104946
0.00975901
0.00957157
0.00947389
0.00932173
0.00922937
0.00925227
0.00946397
0.00987758
0.0104822
0.0110978
0.0113768
0.00816157
0.00859636
0.00915544
0.0091924
0.00930099
0.00942842
0.00939045
0.00926851
0.00922252
0.00929985
0.0094186
0.00940363
0.00916146
0.00877395
0.00838743
0.00828068
0.00866285
0.00923012
0.00925613
0.00823048
0.00681335
0.00553338
0.00461521
0.00441
0.00528093
0.00648122
0.00766981
0.00816249
0.00777883
0.00740581
0.0157739
0.0121776
0.00698263
0.00806628
0.0128008
0.0201046
0.0232356
0.0233608
0.0222986
0.020502
0.018655
0.0172623
0.0165949
0.0165083
0.017302
0.0186692
0.0203277
0.0222096
0.0240714
0.025258
0.0251973
0.0247685
0.0251347
0.0214893
0.0163028
0.0159137
0.0233016
0.0277337
0.027095
0.0203967
0.000381148
0.000668529
0.00116516
0.00118201
0.00102677
0.000969924
0.00104842
0.00124967
0.00163508
0.00183561
0.00155585
0.00129974
0.00164724
0.00253118
0.000282523
0.000353796
0.000284299
0.000232572
0.00021102
0.00019347
0.00023349
0.000490166
0.00106268
0.0014413
0.00135075
0.00105434
0.000819027
0.000452943
0.000352805
0.000398058
0.0004724
0.000571968
0.000648608
0.000724609
0.000806027
0.000847148
0.000821313
0.000716966
0.000561222
0.000479928
0.000483022
0.00061134
0.000696933
0.000411025
0.000882836
0.00120808
0.00121351
0.00123273
0.0013896
0.00171525
0.00165521
0.00153104
0.00140799
0.00136195
0.00128773
0.00138882
0.00149752
0.00133579
0.00132248
0.00124491
0.00107223
0.000938397
0.000910385
0.000935814
0.000940206
0.00093835
0.000929251
0.000917156
0.000895636
0.000910227
0.0010557
0.00146821
0.0023497
0.00226639
0.00233912
0.00280335
0.0030376
0.00286631
0.00250001
0.00237138
0.00245711
0.00272623
0.00316704
0.00342102
0.00326413
0.00285971
0.00246254
0.00222891
0.00236933
0.00250394
0.00219477
0.00172944
0.00135202
0.00113954
0.000993165
0.00090221
0.000877016
0.000890518
0.000926618
0.00101907
0.00116559
0.00149015
0.00208867
0.00245175
0.00474509
0.00360097
0.00346353
0.00414752
0.00427046
0.00417928
0.00342128
0.0028029
0.0024529
0.00219913
0.00211502
0.00198007
0.00193114
0.00190754
0.00193852
0.00192879
0.00190764
0.00185473
0.00185436
0.00200608
0.00235808
0.00286763
0.00332725
0.00349504
0.00333563
0.00311888
0.00280263
0.00245876
0.00295651
0.00378119
0.0081737
0.00751792
0.00733436
0.00769449
0.00768212
0.00753514
0.00766335
0.00804846
0.00846678
0.00873458
0.00874918
0.00854258
0.00837686
0.00808612
0.00738032
0.00708608
0.00724137
0.0074884
0.00773509
0.0080109
0.00825951
0.00838306
0.0084106
0.00833669
0.00812823
0.00777362
0.007372
0.00709478
0.00700541
0.00690412
0.00374043
0.00646727
0.00784212
0.00929716
0.0107675
0.0111255
0.0105483
0.00885425
0.00661403
0.00432524
0.00360477
0.00363681
0.00406668
0.00460623
0.00499619
0.00541752
0.00580826
0.00607151
0.00608756
0.00588253
0.00544518
0.00480837
0.00410673
0.00360942
0.0035704
0.00389582
0.00361409
0.00231442
0.00109011
0.00145431
0.0089945
0.0121773
0.0108179
0.00883186
0.00827827
0.0085165
0.00890878
0.00932291
0.00972711
0.0101248
0.0103966
0.0106469
0.0108074
0.0107911
0.0106698
0.0104314
0.0101053
0.0097103
0.00928987
0.00891793
0.00861999
0.0083227
0.00770028
0.00688756
0.00660872
0.00662768
0.00609709
0.00582561
0.00601318
0.00677666
0.00501816
0.00398643
0.00325999
0.00259852
0.0019489
0.00125291
0.00102231
0.000822993
0.000710744
0.000655912
0.000659488
0.00073436
0.000878777
0.00115191
0.00171034
0.00246078
0.00322899
0.00386982
0.00460504
0.00605334
0.00796246
0.00895167
0.00739828
0.00593758
0.00573451
0.00593037
0.00630407
0.00699714
0.00770571
0.0083353
0.00545335
0.00527309
0.00457883
0.00369022
0.00275517
0.00201547
0.0014203
0.00110921
0.000993646
0.000965646
0.000962363
0.000971012
0.000989315
0.00104885
0.00130289
0.00191149
0.00271963
0.00362745
0.00436801
0.00465277
0.00504668
0.00605467
0.00698793
0.00789491
0.00776262
0.00820792
0.0090558
0.0095159
0.00950567
0.00937823
0.0062683
0.00537305
0.00378819
0.00220396
0.000952494
0.000499366
0.000369481
0.00030359
0.000287809
0.00035903
0.000477886
0.000901021
0.0019146
0.00373629
0.00591223
0.00813093
0.0101843
0.011407
0.0107847
0.00998534
0.00979966
0.00969049
0.00944733
0.00920321
0.00906197
0.00909615
0.00925499
0.00959918
0.0101684
0.0107692
0.00821427
0.00864739
0.00916977
0.00922091
0.00932444
0.0093064
0.00904975
0.0087656
0.00869389
0.00887827
0.00918428
0.00939859
0.00934082
0.00898322
0.00850772
0.00825693
0.00851396
0.00923438
0.00950979
0.00862435
0.00727474
0.0061789
0.00539159
0.00528743
0.00596284
0.00695736
0.00775437
0.00794414
0.00760982
0.00744332
0.0172885
0.0146145
0.00834725
0.00810765
0.0135564
0.0206808
0.0232627
0.0230253
0.0213772
0.0190835
0.0168237
0.0151136
0.0140737
0.0141661
0.0151366
0.0169444
0.0189652
0.0209855
0.0231814
0.0249647
0.0253201
0.0243006
0.0252384
0.0219743
0.0153368
0.0146838
0.021979
0.0254761
0.0214592
0.0125416
0.0004312
0.00087112
0.00113365
0.000975837
0.00090299
0.000988805
0.00115651
0.00141499
0.00166334
0.00174335
0.00148211
0.00131784
0.00170324
0.0025575
0.000265007
0.000360327
0.000300801
0.000226806
0.000202449
0.000189255
0.000214119
0.000418793
0.000961096
0.00141735
0.00137913
0.00104329
0.000789401
0.000412533
0.000350749
0.000413957
0.000508796
0.000597725
0.000658232
0.000736748
0.000840211
0.000891384
0.000870792
0.000773575
0.000605821
0.000473674
0.000486918
0.000621288
0.000703713
0.000401721
0.00081847
0.00108486
0.00115834
0.001114
0.00107867
0.00106529
0.00104085
0.00106804
0.00111521