/*--------------------------------*- C++ -*----------------------------------*\
| =========                 |                                                 |
| \\      /  F ield         | OpenFOAM: The Open Source CFD Toolbox           |
|  \\    /   O peration     | Version:  2.1.1                                 |
|   \\  /    A nd           | Web:      www.OpenFOAM.org                      |
|    \\/     M anipulation  |                                                 |
\*---------------------------------------------------------------------------*/
FoamFile
{
    version     2.0;
    format      ascii;
    class       volScalarField;
    location    "0.007050000";
    object      H2O;
}
// * * * * * * * * * * * * * * * * * * * * * * * * * * * * * * * * * * * * * //

dimensions      [0 0 0 0 0 0 0];

internalField   nonuniform List<scalar> 
12384
(
0.227697
0.226497
0.225726
0.22549
0.225341
0.225795
0.226463
0.227667
0.228973
0.230082
0.230896
0.231312
0.231492
0.233176
0.216648
0.217376
0.215051
0.213728
0.213963
0.21574
0.217966
0.219469
0.220244
0.221041
0.222286
0.223753
0.22512
0.22639
0.22708
0.227436
0.227472
0.227377
0.227297
0.227273
0.227391
0.227722
0.228163
0.229032
0.229923
0.231108
0.231895
0.229025
0.217324
0.205519
0.240847
0.246115
0.247032
0.247818
0.248542
0.248858
0.249239
0.249325
0.249276
0.249161
0.248853
0.248635
0.248136
0.247584
0.247084
0.24663
0.246301
0.24613
0.246068
0.246163
0.246328
0.246533
0.246791
0.247217
0.247705
0.248436
0.249073
0.248958
0.24528
0.242411
0.24829
0.248695
0.249765
0.250473
0.25068
0.250729
0.250603
0.250588
0.250312
0.250284
0.250154
0.250109
0.249989
0.24986
0.249753
0.249616
0.24944
0.249432
0.249266
0.249107
0.24899
0.248724
0.248777
0.248783
0.24871
0.2486
0.248687
0.24856
0.248322
0.248451
0.250175
0.250076
0.250122
0.250171
0.25028
0.250297
0.250393
0.250441
0.25058
0.250589
0.250734
0.250631
0.25084
0.250862
0.250808
0.250906
0.250737
0.250757
0.250636
0.250569
0.250454
0.250244
0.250025
0.249903
0.25047
0.250829
0.251094
0.250673
0.251002
0.250301
0.251515
0.251549
0.251558
0.251551
0.251556
0.251566
0.251535
0.251567
0.251534
0.251555
0.251504
0.251508
0.25147
0.251453
0.251434
0.251424
0.251461
0.251421
0.251423
0.25143
0.251417
0.251421
0.251409
0.251417
0.251351
0.251324
0.251275
0.251257
0.251199
0.25115
0.251011
0.251565
0.251721
0.251658
0.251552
0.251451
0.2514
0.251312
0.25128
0.251337
0.251288
0.251401
0.251863
0.251822
0.251911
0.2517
0.252045
0.251911
0.251987
0.251988
0.251951
0.251573
0.251553
0.251585
0.251195
0.234707
0.233776
0.235901
0.237576
0.238291
0.251549
0.251426
0.251386
0.251342
0.251313
0.251298
0.251302
0.251327
0.251353
0.251324
0.251381
0.251411
0.251396
0.251407
0.251406
0.251389
0.25134
0.251372
0.251325
0.251276
0.251313
0.251614
0.251382
0.251392
0.251374
0.251383
0.251375
0.251391
0.251377
0.251382
0.251536
0.25145
0.251358
0.251395
0.251352
0.251252
0.251267
0.251302
0.251335
0.251252
0.251284
0.25126
0.251219
0.25117
0.251123
0.251029
0.251209
0.251462
0.251278
0.251271
0.251289
0.251284
0.2513
0.251318
0.251313
0.251462
0.251285
0.251276
0.251196
0.251086
0.251398
0.251347
0.251293
0.251273
0.251313
0.251394
0.251359
0.251476
0.251537
0.251493
0.251703
0.251633
0.251647
0.251605
0.251717
0.251674
0.25148
0.251727
0.251622
0.251653
0.251658
0.25164
0.251699
0.251731
0.251717
0.2517
0.25173
0.251694
0.251675
0.251706
0.251981
0.251999
0.252016
0.252149
0.252105
0.252133
0.252187
0.25224
0.252177
0.252234
0.252063
0.251972
0.251908
0.251829
0.251644
0.251404
0.251357
0.251419
0.251518
0.251601
0.251641
0.251685
0.25168
0.25169
0.251669
0.251651
0.251608
0.251562
0.251456
0.251379
0.252171
0.252242
0.252111
0.251813
0.251797
0.251844
0.251799
0.251848
0.251866
0.251915
0.25194
0.251929
0.251947
0.252001
0.251996
0.252004
0.25204
0.252077
0.252071
0.252059
0.252052
0.252047
0.25202
0.251994
0.25197
0.251954
0.251952
0.252003
0.252136
0.252161
0.251561
0.251555
0.251462
0.251373
0.251385
0.251824
0.251769
0.249322
0.248911
0.248851
0.248761
0.248707
0.24869
0.248641
0.248649
0.24861
0.248635
0.248639
0.248674
0.248718
0.24878
0.248845
0.24891
0.249021
0.249233
0.249655
0.250164
0.250474
0.249972
0.248419
0.222605
0.221104
0.219326
0.218062
0.218164
0.219338
0.220824
0.222462
0.224535
0.22695
0.22992
0.231825
0.232086
0.233113
0.216745
0.216437
0.213995
0.213921
0.216039
0.217794
0.218389
0.218334
0.219539
0.222961
0.227097
0.229622
0.230973
0.23112
0.230391
0.228833
0.226736
0.224832
0.22358
0.222952
0.222827
0.223289
0.224255
0.225711
0.227631
0.229998
0.23199
0.231357
0.223825
0.210553
0.241185
0.246149
0.247105
0.248121
0.24898
0.249732
0.249876
0.249824
0.249469
0.248999
0.248326
0.247613
0.246576
0.245573
0.244604
0.24377
0.242968
0.242449
0.242156
0.24199
0.24188
0.242149
0.24302
0.244565
0.245584
0.246735
0.248197
0.248897
0.247681
0.245115
0.248417
0.249091
0.250112
0.250578
0.250548
0.250188
0.249726
0.249391
0.249038
0.248903
0.248722
0.248647
0.248729
0.248839
0.249061
0.24907
0.248926
0.248642
0.248283
0.247933
0.247612
0.247366
0.247216
0.247174
0.247374
0.247613
0.247962
0.248379
0.248317
0.248091
0.250236
0.250147
0.250188
0.250207
0.250334
0.25047
0.250546
0.250569
0.250613
0.250512
0.250466
0.250429
0.250558
0.250483
0.250931
0.250554
0.250596
0.250578
0.250522
0.25051
0.25046
0.250358
0.250503
0.249799
0.250137
0.25075
0.250905
0.250985
0.250996
0.250971
0.25152
0.25155
0.251553
0.251532
0.251565
0.251529
0.251542
0.251534
0.251554
0.251495
0.25144
0.251434
0.251436
0.251443
0.251439
0.251438
0.251428
0.251455
0.251434
0.251411
0.251393
0.251367
0.25136
0.251334
0.251288
0.251309
0.251275
0.251239
0.251184
0.251183
0.251285
0.251598
0.251707
0.251541
0.251425
0.251385
0.251383
0.251364
0.251367
0.251269
0.251973
0.251717
0.251466
0.251491
0.251307
0.25149
0.251605
0.251599
0.251633
0.251675
0.251596
0.251732
0.251897
0.251604
0.251582
0.248258
0.236098
0.237647
0.242727
0.244741
0.251616
0.251388
0.251316
0.251273
0.251153
0.251129
0.251282
0.251325
0.251381
0.251371
0.251403
0.251414
0.251468
0.251472
0.251441
0.251416
0.251388
0.251349
0.251379
0.251316
0.25128
0.251308
0.251687
0.251397
0.25138
0.251364
0.25136
0.251348
0.251355
0.251342
0.251533
0.251401
0.251288
0.251215
0.251171
0.25114
0.251129
0.251091
0.251521
0.251235
0.251416
0.250936
0.250966
0.251018
0.250993
0.251093
0.251054
0.251548
0.251479
0.251285
0.251299
0.251312
0.251311
0.251314
0.251459
0.251388
0.251392
0.251354
0.251437
0.251167
0.251094
0.251034
0.251039
0.251049
0.250951
0.250954
0.250997
0.251028
0.251061
0.251206
0.251253
0.251291
0.251391
0.251448
0.251606
0.251603
0.251529
0.251531
0.251774
0.251667
0.251631
0.251715
0.251707
0.25176
0.25175
0.251717
0.251703
0.251707
0.251701
0.251667
0.251969
0.252042
0.252055
0.251976
0.251976
0.252002
0.251979
0.252019
0.252058
0.252072
0.252052
0.252172
0.251997
0.251896
0.25179
0.251476
0.251379
0.251506
0.251662
0.251748
0.251827
0.251841
0.251855
0.251836
0.251755
0.251728
0.25172
0.251668
0.251528
0.251387
0.252127
0.252157
0.25191
0.251779
0.251799
0.251826
0.25186
0.251834
0.251862
0.251914
0.251975
0.251971
0.252061
0.252073
0.252118
0.252144
0.252152
0.252153
0.252152
0.25216
0.252174
0.252185
0.252192
0.252168
0.25211
0.252034
0.25198
0.251994
0.252099
0.252163
0.251747
0.251823
0.251736
0.251257
0.251369
0.251912
0.250513
0.248987
0.248742
0.248623
0.248517
0.248436
0.2484
0.24837
0.248344
0.24832
0.248315
0.248332
0.248349
0.248389
0.248445
0.248544
0.248605
0.248701
0.24897
0.249674
0.250403
0.250499
0.249805
0.248294
0.219379
0.216235
0.213311
0.213944
0.217014
0.220577
0.22359
0.224588
0.224705
0.225234
0.227082
0.231085
0.232596
0.233305
0.216647
0.215581
0.213482
0.214593
0.216331
0.216336
0.215147
0.215791
0.221829
0.228907
0.233134
0.23442
0.234498
0.232508
0.228873
0.224241
0.220777
0.218685
0.217326
0.216781
0.216814
0.217114
0.21829
0.219983
0.22267
0.22631
0.230597
0.232529
0.228751
0.214966
0.241184
0.245941
0.247133
0.248416
0.249821
0.250366
0.250616
0.250339
0.249623
0.248693
0.247802
0.24701
0.245757
0.244541
0.243197
0.242396
0.241975
0.241679
0.241375
0.241029
0.240789
0.24059
0.240486
0.240902
0.242372
0.244851
0.246504
0.248331
0.248613
0.246542
0.248516
0.249465
0.250336
0.25047
0.24999
0.249319
0.248766
0.248629
0.248562
0.248545
0.248443
0.248301
0.248103
0.248189
0.248545
0.24877
0.248706
0.248361
0.247829
0.247275
0.246794
0.24637
0.246194
0.246073
0.246132
0.246491
0.247036
0.247705
0.248248
0.248178
0.250352
0.250269
0.250211
0.250232
0.25038
0.250518
0.250536
0.250426
0.250286
0.250326
0.24964
0.248861
0.248567
0.248561
0.248382
0.248503
0.248933
0.24928
0.249979
0.25041
0.25041
0.250419
0.250282
0.250284
0.249897
0.250761
0.250743
0.250789
0.250868
0.251016
0.251522
0.251559
0.251556
0.251533
0.251524
0.251554
0.251548
0.251524
0.251409
0.251373
0.251332
0.251343
0.251413
0.251426
0.251442
0.251444
0.251456
0.251394
0.251326
0.251304
0.25125
0.251227
0.251214
0.25121
0.251208
0.251247
0.251233
0.251196
0.251208
0.251171
0.251629
0.251756
0.251706
0.25157
0.25157
0.251778
0.251809
0.251612
0.251505
0.251369
0.251377
0.251617
0.251663
0.251646
0.25193
0.251938
0.251615
0.251606
0.251608
0.251572
0.251894
0.25172
0.251687
0.251569
0.251627
0.250961
0.245587
0.238147
0.24221
0.246599
0.251504
0.251331
0.251268
0.251076
0.251076
0.251125
0.251318
0.251382
0.25135
0.25141
0.251411
0.251477
0.251472
0.251471
0.251468
0.251431
0.251402
0.251374
0.251341
0.251368
0.251303
0.251309
0.251641
0.251675
0.251568
0.251563
0.251366
0.251331
0.251327
0.251328
0.251476
0.251341
0.251281
0.251224
0.251145
0.251644
0.250862
0.250087
0.249653
0.249386
0.249391
0.24942
0.249831
0.250847
0.250876
0.250979
0.251086
0.251153
0.251452
0.251366
0.251305
0.251307
0.25131
0.251307
0.251493
0.251437
0.251369
0.251307
0.251348
0.251255
0.251008
0.25109
0.251007
0.250942
0.250858
0.250997
0.250371
0.249839
0.249691
0.249706
0.24999
0.25023
0.250883
0.251776
0.251404
0.251484
0.251634
0.251593
0.251538
0.25165
0.251645
0.251706
0.251701
0.25175
0.251726
0.25171
0.251728
0.251703
0.251715
0.251696
0.252008
0.252116
0.252004
0.252022
0.251968
0.251973
0.25172
0.251225
0.251127
0.251456
0.252339
0.251977
0.252156
0.251978
0.251854
0.251569
0.251389
0.251517
0.251684
0.251859
0.251845
0.251853
0.25188
0.25178
0.251737
0.251679
0.251668
0.251666
0.25154
0.251386
0.252114
0.252032
0.251841
0.251757
0.251756
0.251806
0.251781
0.251762
0.251798
0.251797
0.251854
0.251913
0.251954
0.252054
0.252102
0.252133
0.252104
0.25208
0.25207
0.252102
0.252162
0.252224
0.252268
0.252277
0.252239
0.252143
0.252038
0.252002
0.252076
0.252157
0.251653
0.251937
0.25205
0.251355
0.251623
0.251323
0.24947
0.248753
0.248614
0.248528
0.248506
0.248536
0.248564
0.248558
0.248496
0.24841
0.248321
0.248262
0.248254
0.248282
0.248318
0.248386
0.24853
0.248688
0.249182
0.250066
0.250508
0.250284
0.249088
0.24803
0.214006
0.210215
0.211434
0.217248
0.223614
0.227705
0.230123
0.230675
0.230041
0.227941
0.227153
0.229518
0.232552
0.233524
0.216538
0.215151
0.213216
0.214411
0.21489
0.213143
0.212068
0.216814
0.227025
0.233356
0.235458
0.236047
0.234944
0.230671
0.224073
0.219148
0.216289
0.21547
0.215647
0.216076
0.216269
0.216153
0.215935
0.216443
0.218564
0.222123
0.227561
0.232264
0.230962
0.218527
0.240861
0.245485
0.246697
0.248607
0.250159
0.250408
0.250486
0.25082
0.249439
0.248046
0.247017
0.246449
0.24534
0.243969
0.242845
0.242525
0.242249
0.241699
0.241009
0.240532
0.2403
0.240154
0.239991
0.239859
0.240314
0.241961
0.24499
0.247137
0.248491
0.247201
0.248563
0.249648
0.250317
0.25014
0.249382
0.248739
0.248555
0.24881
0.249162
0.249453
0.249193
0.248824
0.248313
0.248003
0.248326
0.24866
0.248568
0.248035
0.247322
0.246632
0.24609
0.245725
0.245005
0.244822
0.245042
0.245572
0.246197
0.247077
0.247875
0.248188
0.25052
0.25038
0.250153
0.250227
0.250416
0.250513
0.250418
0.25015
0.249703
0.24834
0.247725
0.247078
0.246627
0.246493
0.246241
0.24645
0.246741
0.247303
0.248005
0.249005
0.250044
0.250331
0.250361
0.250613
0.250016
0.250347
0.250483
0.25026
0.250659
0.250689
0.251532
0.251568
0.25156
0.251531
0.251539
0.251552
0.251519
0.251424
0.25135
0.251309
0.251298
0.251309
0.251343
0.25141
0.251455
0.251447
0.251416
0.251301
0.25122
0.251165
0.251085
0.251021
0.251032
0.251041
0.251119
0.251171
0.251184
0.251186
0.251185
0.251154
0.251912
0.251802
0.251928
0.251873
0.251505
0.251501
0.251508
0.251501
0.251694
0.251382
0.251394
0.251727
0.251926
0.251457
0.25161
0.251542
0.251582
0.251609
0.251565
0.251594
0.251555
0.251568
0.251772
0.251848
0.251637
0.251579
0.249625
0.243115
0.241669
0.24696
0.251414
0.251317
0.251039
0.250995
0.251111
0.251316
0.251377
0.25136
0.251376
0.251412
0.251428
0.251473
0.251452
0.251453
0.251434
0.251428
0.251401
0.251377
0.251359
0.251326
0.251336
0.251298
0.251321
0.251606
0.251534
0.25153
0.251698
0.251348
0.251314
0.251325
0.251353
0.251422
0.251277
0.251185
0.251058
0.250014
0.2491
0.248367
0.247861
0.247501
0.24729
0.24759
0.248045
0.248915
0.250339
0.250872
0.250952
0.251087
0.251466
0.251476
0.251327
0.251312
0.251302
0.251472
0.251491
0.251455
0.25142
0.251362
0.251253
0.251478
0.251185
0.25122
0.251015
0.250873
0.250758
0.249716
0.248697
0.248236
0.247943
0.247883
0.247852
0.248334
0.248941
0.24975
0.251174
0.251355
0.251513
0.251548
0.251485
0.251707
0.251674
0.251682
0.251719
0.251713
0.251748
0.251712
0.251685
0.251662
0.251656
0.251678
0.252189
0.252117
0.252062
0.252028
0.252451
0.250831
0.24974
0.249074
0.248951
0.24929
0.250234
0.251516
0.252011
0.252134
0.251937
0.251756
0.251408
0.251465
0.251652
0.251835
0.251818
0.251839
0.251875
0.251864
0.251742
0.251668
0.25159
0.251565
0.251519
0.251381
0.252086
0.251974
0.251777
0.251767
0.251723
0.251705
0.251616
0.251614
0.251632
0.251667
0.251731
0.251795
0.251873
0.251975
0.252029
0.252077
0.252033
0.252018
0.251992
0.252069
0.252191
0.252356
0.252313
0.252307
0.252325
0.252233
0.252093
0.25202
0.252072
0.252153
0.251334
0.251894
0.252193
0.251628
0.251622
0.250468
0.248959
0.248644
0.248578
0.248627
0.248781
0.248932
0.249018
0.249021
0.248937
0.248764
0.248563
0.248353
0.248235
0.248222
0.248256
0.248286
0.248421
0.248819
0.24985
0.250501
0.250218
0.249323
0.247952
0.247969
0.207523
0.208589
0.215965
0.224945
0.229891
0.231966
0.232483
0.232601
0.232142
0.230804
0.228427
0.229101
0.232334
0.233827
0.216487
0.215083
0.212824
0.213309
0.212412
0.209955
0.210533
0.219145
0.229632
0.234568
0.236539
0.236778
0.234609
0.228121
0.220116
0.216112
0.215474
0.216481
0.217815
0.21862
0.218892
0.218633
0.217782
0.216405
0.216323
0.219023
0.224472
0.231288
0.232024
0.221068
0.240241
0.244887
0.245763
0.247675
0.249944
0.250442
0.250423
0.250385
0.248442
0.246853
0.245994
0.245841
0.245066
0.243544
0.243006
0.242875
0.242103
0.240828
0.239835
0.239371
0.239182
0.239226
0.239411
0.239426
0.23938
0.240211
0.24289
0.246072
0.248292
0.247552
0.24863
0.249722
0.25033
0.24988
0.249002
0.248585
0.248725
0.249417
0.250195
0.25058
0.250187
0.249441
0.248613
0.248039
0.248331
0.248619
0.248438
0.247698
0.246816
0.246028
0.244877
0.243786
0.243358
0.243233
0.243441
0.244203
0.245514
0.246555
0.247637
0.248074
0.250709
0.250374
0.250445
0.250271
0.250472
0.2505
0.250262
0.24979
0.248263
0.247051
0.246481
0.246028
0.245709
0.245402
0.24541
0.245382
0.245409
0.245819
0.2464
0.247597
0.248758
0.250209
0.250334
0.250253
0.250155
0.250014
0.250046
0.249078
0.249488
0.250811
0.251521
0.25157
0.251573
0.25154
0.25154
0.251562
0.251508
0.251463
0.251325
0.251281
0.251276
0.251278
0.251308
0.251455
0.251467
0.251442
0.251361
0.251232
0.25113
0.251043
0.250944
0.250882
0.250877
0.250896
0.25098
0.251036
0.251122
0.251191
0.251209
0.251165
0.251443
0.251857
0.251574
0.251485
0.251447
0.251236
0.251418
0.251452
0.251794
0.25138
0.251434
0.251942
0.25146
0.251513
0.251586
0.251487
0.251626
0.251546
0.251568
0.251528
0.251574
0.251533
0.251541
0.251849
0.251573
0.251651
0.251184
0.248228
0.243397
0.247352
0.251359
0.251266
0.250935
0.251044
0.2513
0.251375
0.251341
0.251377
0.25137
0.251422
0.25128
0.251234
0.251238
0.251229
0.251241
0.251253
0.251397
0.251367
0.251365
0.251344
0.251364
0.251312
0.251327
0.251608
0.251556
0.251588
0.251697
0.25163
0.25157
0.251309
0.251524
0.251354
0.251233
0.25108
0.24986
0.248672
0.247574
0.246715
0.245049
0.24434
0.244411
0.244965
0.246542
0.247481
0.248959
0.250446
0.250902
0.25095
0.251254
0.251444
0.251522
0.251317
0.251331
0.251465
0.251462
0.251452
0.251467
0.25138
0.251256
0.251412
0.251293
0.251093
0.251
0.250829
0.250209
0.248831
0.247958
0.247174
0.246849
0.246243
0.246442
0.247122
0.247621
0.248255
0.249354
0.250851
0.251461
0.251481
0.251612
0.25161
0.251925
0.25172
0.251691
0.251736
0.251728
0.251739
0.251727
0.251657
0.251634
0.251662
0.252049
0.252126
0.252079
0.252065
0.250782
0.249158
0.246346
0.243936
0.24347
0.244994
0.248529
0.249956
0.251887
0.252094
0.25199
0.251796
0.251449
0.251424
0.251597
0.251713
0.251843
0.251865
0.251845
0.251865
0.251789
0.251698
0.251588
0.251483
0.251431
0.251359
0.252062
0.251904
0.251793
0.251714
0.251663
0.251592
0.251526
0.251489
0.251471
0.251573
0.251591
0.251668
0.251814
0.25192
0.252021
0.252061
0.252026
0.251986
0.251955
0.252074
0.252234
0.252313
0.252263
0.252258
0.252288
0.252353
0.252119
0.252036
0.252082
0.252152
0.250921
0.251679
0.252275
0.251959
0.251438
0.249829
0.248771
0.248614
0.248688
0.248939
0.249236
0.24948
0.249606
0.249588
0.249489
0.249228
0.248945
0.248609
0.248309
0.248202
0.248241
0.24827
0.248324
0.249056
0.250199
0.250485
0.249366
0.248056
0.247512
0.248313
0.205556
0.211679
0.223396
0.229683
0.232129
0.232693
0.232861
0.232735
0.232528
0.23147
0.22955
0.229148
0.232275
0.233991
0.216507
0.215395
0.212331
0.211759
0.210126
0.207578
0.208768
0.219568
0.230161
0.234877
0.23712
0.237175
0.233977
0.225234
0.217442
0.215415
0.216825
0.218933
0.220128
0.220779
0.221128
0.220947
0.220059
0.218283
0.216721
0.217166
0.222183
0.230205
0.232447
0.222337
0.239356
0.243627
0.244339
0.245694
0.247614
0.249336
0.249274
0.248042
0.246246
0.245058
0.244658
0.24528
0.244853
0.243357
0.243325
0.242974
0.24136
0.239676
0.238857
0.23862
0.23876
0.238974
0.239163
0.239166
0.239035
0.239395
0.241418
0.245344
0.247981
0.247695
0.248513
0.249614
0.250114
0.249577
0.24874
0.248479
0.248755
0.249645
0.250554
0.250988
0.250592
0.249724
0.248675
0.248124
0.24837
0.248628
0.248193
0.247267
0.246261
0.245041
0.243384
0.242178
0.241625
0.241657
0.242192
0.243036
0.244545
0.246118
0.247478
0.248116
0.250717
0.250294
0.250324
0.250363
0.250521
0.250465
0.250113
0.248762
0.247498
0.246597
0.246175
0.245807
0.245344
0.245329
0.245011
0.245015
0.244988
0.245134
0.245492
0.246418
0.2478
0.249377
0.250659
0.250285
0.250283
0.249864
0.249668
0.248637
0.249424
0.251057
0.251523
0.25157
0.251593
0.25155
0.251543
0.25156
0.251541
0.251458
0.251397
0.251365
0.251354
0.251317
0.251314
0.251441
0.251489
0.251423
0.251294
0.251186
0.251002
0.250892
0.250849
0.250741
0.250746
0.250742
0.250832
0.250944
0.251021
0.251116
0.251206
0.25117
0.251461
0.25191
0.251531
0.251476
0.251166
0.25111
0.25116
0.251444
0.251618
0.251426
0.251506
0.251997
0.251497
0.251536
0.251496
0.251515
0.251666
0.251633
0.251609
0.251643
0.251508
0.251575
0.251513
0.251554
0.251556
0.251662
0.251902
0.249367
0.245828
0.248048
0.251305
0.25099
0.250928
0.251143
0.251351
0.251329
0.251365
0.251365
0.251377
0.251253
0.251205
0.251196
0.251195
0.251207
0.251192
0.251219
0.25121
0.251364
0.251373
0.251339
0.251383
0.251328
0.251315
0.251327
0.251593
0.251351
0.251665
0.251529
0.251482
0.251309
0.251418
0.251278
0.251114
0.250174
0.248976
0.247498
0.245976
0.243587
0.242108
0.241239
0.241275
0.241906
0.243918
0.24639
0.247876
0.249652
0.251326
0.250925
0.251142
0.251439
0.251482
0.251362
0.251476
0.251499
0.251725
0.251685
0.251715
0.251434
0.251274
0.251357
0.251298
0.251248
0.251077
0.250902
0.24995
0.248617
0.247471
0.246515
0.24541
0.245179
0.245166
0.245466
0.245951
0.247443
0.248393
0.249717
0.251442
0.251473
0.251534
0.25149
0.251657
0.251723
0.251728
0.251757
0.251767
0.25178
0.251726
0.25165
0.251636
0.251668
0.252147
0.252141
0.252137
0.251501
0.24941
0.24512
0.240624
0.237565
0.236992
0.239226
0.243614
0.248661
0.250784
0.252006
0.252239
0.251832
0.251502
0.251394
0.251537
0.251667
0.251706
0.251792
0.251845
0.251825
0.251877
0.251875
0.251712
0.251573
0.251423
0.25136
0.252047
0.25187
0.251775
0.251648
0.251611
0.251474
0.251463
0.251471
0.251436
0.25149
0.251491
0.251612
0.25173
0.251823
0.251968
0.252028
0.252032
0.251929
0.251966
0.252055
0.25223
0.252312
0.252255
0.252241
0.252288
0.252268
0.252117
0.252055
0.252104
0.252152
0.250537
0.25134
0.252208
0.25207
0.251198
0.249485
0.248707
0.248663
0.248906
0.249303
0.249703
0.249993
0.250126
0.250142
0.249976
0.249685
0.249338
0.248914
0.24849
0.248207
0.248241
0.248348
0.248254
0.249136
0.250384
0.250471
0.248718
0.247631
0.247776
0.249417
0.206498
0.217566
0.227975
0.231616
0.231874
0.231763
0.231945
0.232533
0.232173
0.23133
0.229511
0.229128
0.232336
0.234333
0.216388
0.216344
0.212166
0.210369
0.208124
0.206128
0.20787
0.219026
0.229628
0.234914
0.237355
0.237355
0.233406
0.222995
0.215936
0.216059
0.218837
0.220762
0.221412
0.221646
0.222002
0.222143
0.221562
0.219769
0.217538
0.216675
0.220942
0.229584
0.232706
0.222737
0.238275
0.242393
0.242702
0.242759
0.244378
0.24528
0.244956
0.244189
0.243023
0.242531
0.242597
0.244786
0.24478
0.24344
0.24364
0.242731
0.240628
0.239013
0.238581
0.238776
0.239236
0.23928
0.239237
0.239199
0.238988
0.238984
0.24065
0.245009
0.24787
0.24772
0.248493
0.249467
0.250088
0.249669
0.248822
0.248532
0.248747
0.24937
0.250407
0.250995
0.250549
0.2495
0.248499
0.247959
0.248427
0.248669
0.247982
0.246749
0.245902
0.243948
0.242294
0.2413
0.240776
0.240627
0.24115
0.242181
0.24383
0.245932
0.247297
0.24817
0.250717
0.250145
0.250631
0.25048
0.250552
0.250391
0.250312
0.24824
0.247215
0.246548
0.246099
0.245624
0.245185
0.245094
0.244822
0.244921
0.244744
0.244886
0.245038
0.245778
0.247029
0.248732
0.250343
0.250863
0.250322
0.249976
0.249433
0.248618
0.24988
0.250698
0.251511
0.251555
0.251594
0.251579
0.251552
0.251556
0.251565
0.251558
0.251436
0.251455
0.251397
0.251366
0.251336
0.251433
0.251479
0.251437
0.251264
0.251093
0.250959
0.250838
0.250771
0.250698
0.250669
0.250658
0.250754
0.250901
0.250982
0.251093
0.25115
0.25116
0.25147
0.251647
0.251487
0.251419
0.251107
0.251075
0.251158
0.251473
0.251598
0.251501
0.251488
0.25144
0.251583
0.251546
0.251572
0.251677
0.251561
0.251657
0.251621
0.251628
0.251601
0.251567
0.251489
0.251587
0.251595
0.251665
0.2516
0.250114
0.247863
0.248567
0.25128
0.250806
0.250994
0.251312
0.251373
0.251352
0.251367
0.251356
0.251253
0.251219
0.251193
0.251196
0.251181
0.25117
0.251178
0.251189
0.251188
0.251228
0.251341
0.251332
0.251327
0.251336
0.251301
0.251343
0.251321
0.251338
0.251546
0.251438
0.251446
0.251321
0.251422
0.251217
0.251176
0.249733
0.248292
0.246718
0.244332
0.242083
0.240826
0.239955
0.239961
0.240284
0.242439
0.244696
0.247529
0.248963
0.250735
0.250858
0.251042
0.251692
0.251461
0.251464
0.25148
0.251736
0.251686
0.251689
0.251781
0.251441
0.251255
0.251355
0.25137
0.251381
0.251125
0.251073
0.250189
0.248564
0.247504
0.246
0.244978
0.244597
0.244527
0.244578
0.245115
0.246074
0.247717
0.248917
0.250528
0.251406
0.25152
0.25157
0.251597
0.251901
0.251743
0.251757
0.251837
0.251763
0.251663
0.251624
0.251666
0.251657
0.252108
0.252154
0.252073
0.250482
0.247295
0.241219
0.235851
0.233497
0.233146
0.235231
0.239773
0.246158
0.249835
0.251904
0.252221
0.25188
0.251555
0.251379
0.25148
0.251622
0.251645
0.251664
0.251816
0.251807
0.251878
0.251879
0.251912
0.251789
0.251645
0.251502
0.252051
0.25187
0.251758
0.251655
0.251552
0.251472
0.251414
0.251383
0.251375
0.251403
0.251501
0.251571
0.251624
0.25181
0.251893
0.252018
0.252055
0.251964
0.251931
0.252003
0.252173
0.252353
0.252298
0.252293
0.25233
0.252208
0.252107
0.252083
0.252126
0.252147
0.250159
0.250801
0.252034
0.252064
0.251008
0.249325
0.248697
0.248736
0.249108
0.249622
0.25007
0.250429
0.250595
0.250565
0.250407
0.250042
0.249637
0.249176
0.248699
0.248267
0.248204
0.248463
0.248232
0.249021
0.250595
0.250724
0.249018
0.248174
0.249149
0.251246
0.20884
0.222573
0.230706
0.231882
0.231676
0.231709
0.232157
0.232149
0.231438
0.23019
0.228859
0.229258
0.232767
0.234393
0.21611
0.217419
0.212988
0.209717
0.207116
0.205588
0.207032
0.216824
0.227972
0.234748
0.237431
0.237375
0.232921
0.221435
0.215341
0.217044
0.220425
0.222074
0.221825
0.221402
0.222065
0.222331
0.222079
0.220462
0.218127
0.217036
0.220665
0.229707
0.232847
0.22232
0.236776
0.240568
0.24159
0.240947
0.240181
0.239654
0.23894
0.238879
0.239071
0.239858
0.240846
0.243928
0.24477
0.243569
0.243869
0.24265
0.240349
0.238867
0.238749
0.23922
0.239722
0.239612
0.239364
0.239188
0.238936
0.238856
0.24045
0.244953
0.247945
0.247612
0.248237
0.249176
0.249977
0.249808
0.249119
0.248594
0.248682
0.24923
0.250115
0.250746
0.250141
0.249126
0.248226
0.247847
0.248452
0.248696
0.247611
0.246512
0.245488
0.243258
0.241596
0.240687
0.240413
0.240391
0.240778
0.241754
0.243538
0.245898
0.247374
0.248237
0.2506
0.250214
0.250369
0.250547
0.250554
0.250369
0.250018
0.24817
0.24726
0.246746
0.246231
0.245547
0.244998
0.244977
0.244717
0.244839
0.244641
0.244823
0.244839
0.24554
0.24672
0.248489
0.250176
0.250835
0.250296
0.249898
0.249298
0.248803
0.250548
0.250849
0.251515
0.251543
0.25159
0.251601
0.251579
0.251551
0.251564
0.251521
0.251553
0.251492
0.251463
0.251468
0.251367
0.251445
0.251509
0.251393
0.251199
0.251046
0.250921
0.250759
0.250654
0.250645
0.250608
0.25063
0.25077
0.250787
0.250974
0.251111
0.251204
0.251209
0.25146
0.251654
0.251472
0.251251
0.251089
0.251074
0.251239
0.251525
0.25159
0.251523
0.251447
0.251507
0.251594
0.251461
0.251514
0.251666
0.251694
0.251665
0.251772
0.251639
0.251607
0.251564
0.25149
0.251578
0.251578
0.25165
0.251622
0.250479
0.248359
0.249704
0.251125
0.25079
0.251046
0.251324
0.25133
0.251365
0.251367
0.251385
0.25125
0.251188
0.251176
0.251184
0.251149
0.251154
0.251137
0.251179
0.251203
0.251189
0.251403
0.251347
0.251397
0.251329
0.251301
0.251318
0.25131
0.251612
0.251423
0.251491
0.251613
0.251332
0.251415
0.2512
0.251101
0.249465
0.248083
0.246381
0.243913
0.241666
0.240379
0.239239
0.23991
0.239979
0.242306
0.244287
0.247346
0.248719
0.250627
0.250855
0.251052
0.251622
0.251463
0.251429
0.251733
0.251564
0.251702
0.251461
0.251431
0.25136
0.251238
0.251339
0.251563
0.251541
0.251431
0.251203
0.250472
0.248902
0.247561
0.245914
0.244888
0.244574
0.244676
0.244838
0.245047
0.245617
0.247261
0.248462
0.249962
0.251648
0.251499
0.251539
0.251612
0.251887
0.251751
0.251848
0.251864
0.251752
0.251687
0.251638
0.251653
0.251676
0.252179
0.252222
0.252229
0.249868
0.24504
0.238561
0.233129
0.231082
0.231031
0.233327
0.237616
0.244601
0.249386
0.251914
0.252185
0.251876
0.251603
0.251388
0.251437
0.251566
0.251568
0.251581
0.251618
0.25179
0.251829
0.251856
0.251886
0.251902
0.251882
0.251757
0.25205
0.251877
0.251746
0.251642
0.251507
0.251418
0.251371
0.251311
0.251272
0.251369
0.251421
0.251496
0.251645
0.251743
0.251916
0.251999
0.252065
0.251991
0.251821
0.251933
0.252085
0.252192
0.252259
0.252272
0.252225
0.252151
0.252109
0.252112
0.25213
0.252127
0.249803
0.25015
0.251601
0.251973
0.250927
0.249311
0.24872
0.248791
0.24924
0.249803
0.250337
0.250684
0.250915
0.250853
0.250671
0.250295
0.2498
0.249335
0.248859
0.248364
0.248153
0.248562
0.248359
0.248726
0.250579
0.251265
0.250256
0.249976
0.251387
0.249654
0.211896
0.226034
0.231461
0.231928
0.232427
0.232785
0.231908
0.231003
0.229669
0.228608
0.227614
0.229415
0.233519
0.234815
0.232214
0.22544
0.216705
0.218024
0.214883
0.210386
0.206997
0.205745
0.207516
0.215909
0.226651
0.234495
0.237278
0.237365
0.232775
0.220475
0.215265
0.218072
0.22162
0.223028
0.221859
0.220784
0.221393
0.22219
0.221818
0.220199
0.217979
0.21726
0.221528
0.230656
0.232171
0.221295
0.220985
0.229468
0.235883
0.238853
0.240335
0.240263
0.239399
0.238467
0.237693
0.237573
0.237757
0.238495
0.239622
0.243308
0.24481
0.243717
0.244173
0.242826
0.240497
0.239053
0.238968
0.239246
0.239676
0.239647
0.239481
0.239173
0.23882
0.23885
0.240773
0.245288
0.247909
0.247511
0.24603
0.247254
0.248241
0.248997
0.249592
0.249779
0.249523
0.249202
0.249266
0.249765
0.250253
0.250268
0.249488
0.248575
0.247917
0.247859
0.248563
0.248595
0.247297
0.246345
0.245241
0.243087
0.241284
0.240525
0.240227
0.240388
0.240688
0.241713
0.243673
0.246083
0.24748
0.248131
0.249619
0.250191
0.250418
0.250616
0.250502
0.250549
0.250566
0.250372
0.250049
0.248265
0.24747
0.247117
0.246318
0.245658
0.245067
0.24498
0.244772
0.244869
0.244684
0.244916
0.244849
0.245646
0.246817
0.248672
0.250248
0.250771
0.250162
0.249577
0.249152
0.249279
0.250632
0.250912
0.251183
0.251417
0.251531
0.251512
0.251564
0.251607
0.251596
0.25159
0.25155
0.251553
0.251508
0.251506
0.251541
0.251469
0.251391
0.251415
0.251466
0.251343
0.251152
0.251048
0.2509
0.250782
0.25065
0.250605
0.250635
0.25062
0.250732
0.250819
0.251027
0.251124
0.251189
0.25116
0.251525
0.251475
0.251504
0.251661
0.251463
0.251237
0.251087
0.251052
0.251353
0.251577
0.251593
0.251516
0.251482
0.251573
0.251519
0.251527
0.25153
0.251536
0.251606
0.251605
0.251588
0.251635
0.2516
0.251552
0.251535
0.251597
0.251603
0.251672
0.251629
0.250221
0.249501
0.251767
0.251005
0.250911
0.250854
0.250627
0.251069
0.25136
0.251357
0.251366
0.251388
0.251406
0.25124
0.251199
0.251204
0.251175
0.251169
0.251141
0.251148
0.251172
0.251165
0.251198
0.251339
0.251336
0.251371
0.25133
0.251289
0.251293
0.251309
0.251493
0.251333
0.251364
0.251379
0.251393
0.251614
0.251497
0.251344
0.251153
0.251184
0.24959
0.248163
0.2468
0.244395
0.242197
0.240977
0.240237
0.240402
0.240955
0.243055
0.245294
0.247541
0.249003
0.250706
0.250854
0.251095
0.251762
0.25145
0.251461
0.251728
0.251589
0.251724
0.251436
0.251358
0.251329
0.251265
0.251384
0.251602
0.251581
0.251682
0.251655
0.25152
0.251252
0.250975
0.249241
0.247815
0.246735
0.245257
0.244725
0.24476
0.244693
0.244874