/*--------------------------------*- C++ -*----------------------------------*\
| =========                 |                                                 |
| \\      /  F ield         | OpenFOAM: The Open Source CFD Toolbox           |
|  \\    /   O peration     | Version:  2.1.1                                 |
|   \\  /    A nd           | Web:      www.OpenFOAM.org                      |
|    \\/     M anipulation  |                                                 |
\*---------------------------------------------------------------------------*/
FoamFile
{
    version     2.0;
    format      ascii;
    class       volScalarField;
    location    "0.007050000";
    object      H2O2;
}
// * * * * * * * * * * * * * * * * * * * * * * * * * * * * * * * * * * * * * //

dimensions      [0 0 0 0 0 0 0];

internalField   nonuniform List<scalar> 
12384
(
1.52563e-06
1.53714e-06
1.53919e-06
1.53422e-06
1.54014e-06
1.51491e-06
1.52434e-06
1.50376e-06
1.44018e-06
1.42535e-06
1.42627e-06
1.42209e-06
1.43605e-06
1.33338e-06
1.14766e-06
1.22661e-06
1.26837e-06
1.27059e-06
1.2546e-06
1.24114e-06
1.21565e-06
1.20773e-06
1.18628e-06
1.19868e-06
1.20075e-06
1.20045e-06
1.2056e-06
1.1892e-06
1.18151e-06
1.17395e-06
1.16781e-06
1.16256e-06
1.14966e-06
1.14489e-06
1.14113e-06
1.1321e-06
1.12897e-06
1.09435e-06
1.07948e-06
1.06145e-06
1.05059e-06
1.1092e-06
1.19953e-06
1.06604e-06
8.00021e-07
5.35615e-07
4.83933e-07
4.4452e-07
4.20958e-07
3.94259e-07
3.88176e-07
3.83669e-07
3.87505e-07
3.9345e-07
4.09478e-07
4.31243e-07
4.55532e-07
4.82162e-07
5.0579e-07
5.26665e-07
5.40926e-07
5.47203e-07
5.48704e-07
5.42124e-07
5.32608e-07
5.12057e-07
5.00164e-07
4.78766e-07
4.55553e-07
4.20148e-07
3.79658e-07
3.8541e-07
5.7233e-07
7.50801e-07
3.98323e-07
3.85867e-07
3.32484e-07
2.9712e-07
2.86951e-07
2.8422e-07
2.91381e-07
2.90804e-07
3.07281e-07
3.07458e-07
3.27561e-07
3.29861e-07
3.37175e-07
3.45204e-07
3.5173e-07
3.5951e-07
3.69285e-07
3.81572e-07
3.8995e-07
3.97722e-07
4.03102e-07
4.05003e-07
4.13946e-07
4.13886e-07
4.19293e-07
4.26734e-07
4.3481e-07
4.41261e-07
4.54173e-07
4.40292e-07
2.14827e-07
2.24512e-07
2.24235e-07
2.2292e-07
2.16699e-07
2.09595e-07
2.02809e-07
1.99282e-07
1.90606e-07
1.8959e-07
1.75735e-07
1.81305e-07
1.65486e-07
1.63505e-07
1.68025e-07
1.62592e-07
1.72314e-07
1.71965e-07
1.83634e-07
1.87338e-07
1.99953e-07
2.12284e-07
3.42207e-07
3.33553e-07
3.05691e-07
2.87728e-07
2.74691e-07
1.85802e-07
2.79887e-07
3.15427e-07
5.41146e-08
6.08286e-08
6.09108e-08
5.97844e-08
6.16888e-08
6.21217e-08
6.41073e-08
6.28517e-08
6.47367e-08
6.24686e-08
6.50039e-08
6.41726e-08
6.5862e-08
6.68297e-08
6.8059e-08
6.91664e-08
6.96177e-08
7.01734e-08
7.04053e-08
7.03144e-08
7.10867e-08
7.10228e-08
7.36605e-08
7.32539e-08
7.65659e-08
7.99882e-08
8.1557e-08
8.27318e-08
8.9733e-08
9.10244e-08
2.84583e-07
1.30993e-07
1.12295e-07
1.16045e-07
1.28008e-07
1.38797e-07
1.45515e-07
1.4785e-07
1.51422e-07
1.49635e-07
1.53506e-07
1.44302e-07
2.27995e-07
2.29811e-07
2.08765e-07
2.21823e-07
2.00584e-07
2.08926e-07
2.03638e-07
2.04731e-07
2.0638e-07
1.33449e-07
1.30918e-07
1.23981e-07
2.48432e-07
7.79862e-07
7.90366e-07
7.63257e-07
7.43009e-07
7.34197e-07
1.23854e-07
7.0526e-08
6.58585e-08
6.40249e-08
6.1993e-08
6.01859e-08
5.90526e-08
5.79052e-08
5.7458e-08
5.81456e-08
5.63457e-08
5.54275e-08
5.66671e-08
5.61918e-08
5.65222e-08
5.77206e-08
6.03957e-08
6.07928e-08
6.33178e-08
6.67272e-08
7.868e-08
1.07716e-07
8.24943e-08
7.97045e-08
7.9593e-08
7.7978e-08
7.72339e-08
7.62829e-08
7.76497e-08
7.95038e-08
1.14927e-07
1.18364e-07
1.24766e-07
1.28528e-07
1.32218e-07
1.34849e-07
1.35193e-07
1.33834e-07
1.32524e-07
1.37364e-07
1.35983e-07
1.40795e-07
1.4257e-07
1.48735e-07
1.49326e-07
1.54683e-07
1.40001e-07
5.45279e-08
2.86248e-08
2.87922e-08
3.08928e-08
3.28809e-08
3.42482e-08
3.61758e-08
3.76203e-08
4.21961e-08
3.75726e-08
3.42957e-08
2.77289e-08
2.02114e-08
1.42944e-07
1.43723e-07
1.46814e-07
1.48604e-07
1.471e-07
1.42966e-07
1.38788e-07
1.31533e-07
1.20031e-07
1.21858e-07
1.0699e-07
1.09838e-07
1.06349e-07
1.06564e-07
1.04422e-07
1.06524e-07
1.17449e-07
1.04254e-07
5.52488e-08
4.38468e-08
4.1286e-08
4.35693e-08
4.19475e-08
4.19171e-08
4.26344e-08
4.11939e-08
3.92356e-08
3.76342e-08
3.66872e-08
3.42842e-08
2.56138e-08
3.32443e-08
4.14866e-08
5.64738e-08
6.22328e-08
6.33727e-08
6.16595e-08
5.82391e-08
5.76009e-08
5.44375e-08
4.30503e-08
4.12043e-08
3.51542e-08
2.97609e-08
2.04533e-08
1.56349e-08
1.48129e-08
1.59773e-08
1.73717e-08
1.75891e-08
1.85281e-08
1.805e-08
1.87292e-08
1.82962e-08
1.87181e-08
1.85968e-08
1.89095e-08
1.83966e-08
1.78029e-08
1.64204e-08
2.5519e-08
2.99011e-08
3.03746e-08
2.77352e-08
2.64592e-08
2.53618e-08
2.71526e-08
2.59643e-08
2.62481e-08
2.53843e-08
2.55261e-08
2.58492e-08
2.61601e-08
2.49123e-08
2.49511e-08
2.52579e-08
2.4185e-08
2.2915e-08
2.34942e-08
2.35825e-08
2.3428e-08
2.31602e-08
2.22173e-08
2.12653e-08
2.02619e-08
1.96034e-08
1.95749e-08
2.16213e-08
2.69527e-08
2.79651e-08
1.14216e-08
1.13585e-08
1.03838e-08
9.44615e-09
9.56742e-09
1.42091e-08
1.36273e-08
2.75866e-09
2.35352e-09
2.26342e-09
2.11643e-09
2.04172e-09
1.97338e-09
1.99486e-09
1.97913e-09
1.95966e-09
2.16585e-09
2.06392e-09
2.21256e-09
2.25442e-09
2.36127e-09
2.41924e-09
2.53527e-09
2.63786e-09
2.91152e-09
3.69403e-09
4.75624e-09
5.81087e-09
4.31702e-09
1.59128e-09
1.56394e-06
1.59438e-06
1.5836e-06
1.55518e-06
1.55241e-06
1.52621e-06
1.53754e-06
1.52333e-06
1.4896e-06
1.47117e-06
1.39745e-06
1.3856e-06
1.41604e-06
1.32255e-06
1.15452e-06
1.24886e-06
1.27192e-06
1.25601e-06
1.23771e-06
1.20996e-06
1.18902e-06
1.1982e-06
1.24569e-06
1.2894e-06
1.27107e-06
1.23384e-06
1.19219e-06
1.17497e-06
1.16432e-06
1.16952e-06
1.20547e-06
1.2127e-06
1.21973e-06
1.22255e-06
1.22324e-06
1.21504e-06
1.19571e-06
1.17712e-06
1.14704e-06
1.09321e-06
1.05091e-06
1.06355e-06
1.1705e-06
1.15571e-06
7.91028e-07
5.34219e-07
4.7971e-07
4.29469e-07
3.8773e-07
3.61733e-07
3.562e-07
3.58658e-07
3.77948e-07
4.00917e-07
4.34406e-07
4.79775e-07
5.29344e-07
5.87572e-07
6.33127e-07
7.50675e-07
7.69757e-07
7.8054e-07
7.82198e-07
7.80603e-07
7.82772e-07
7.63302e-07
7.35846e-07
6.14013e-07
5.65455e-07
5.01803e-07
4.31459e-07
3.88329e-07
4.47625e-07
5.80407e-07
4.01063e-07
3.66325e-07
3.15461e-07
2.91975e-07
2.93283e-07
3.11343e-07
3.34896e-07
3.51113e-07
3.70975e-07
3.77181e-07
3.88421e-07
3.92641e-07
4.00278e-07
3.95283e-07
3.85437e-07
3.86028e-07
3.93967e-07
4.08747e-07
4.26906e-07
4.44136e-07
4.59817e-07
4.71545e-07
4.79459e-07
4.82084e-07
4.83989e-07
4.74615e-07
4.591e-07
4.50777e-07
4.54379e-07
4.56687e-07
2.10318e-07
2.19433e-07
2.21204e-07
2.16231e-07
2.07602e-07
1.97366e-07
1.91141e-07
1.88963e-07
1.86322e-07
1.92877e-07
1.92377e-07
1.95091e-07
1.8905e-07
1.94246e-07
2.62848e-07
1.85731e-07
1.87196e-07
1.87601e-07
1.91406e-07
1.91605e-07
1.9446e-07
2.05568e-07
3.18553e-07
3.45151e-07
3.21179e-07
1.78617e-07
1.68982e-07
1.60915e-07
1.58966e-07
1.62281e-07
5.45136e-08
6.07023e-08
6.01631e-08
6.02242e-08
6.17892e-08
6.24886e-08
6.15497e-08
5.96401e-08
5.7355e-08
5.70179e-08
5.74821e-08
5.80485e-08
5.96335e-08
6.19297e-08
6.47768e-08
6.69675e-08
6.89883e-08
7.04712e-08
7.1836e-08
7.28593e-08
7.36052e-08
7.49161e-08
7.52328e-08
7.67307e-08
7.92379e-08
8.05578e-08
8.19079e-08
8.33048e-08
8.80392e-08
8.92865e-08
2.70092e-07
1.20988e-07
1.08437e-07
1.24696e-07
1.38763e-07
1.43171e-07
1.43881e-07
1.46398e-07
1.48298e-07
1.52337e-07
2.35554e-07
2.49268e-07
2.47666e-07
2.46391e-07
2.41385e-07
2.31762e-07
2.24083e-07
2.23909e-07
2.22209e-07
2.19795e-07
2.2501e-07
2.17997e-07
2.09699e-07
1.26733e-07
1.31808e-07
4.00039e-07
7.65157e-07
7.47438e-07
6.28116e-07
5.75391e-07
1.15157e-07
6.46243e-08
6.28031e-08
5.68299e-08
4.5741e-08
4.50514e-08
5.22245e-08
5.34591e-08
5.35634e-08
5.42112e-08
5.37321e-08
5.3941e-08
5.19544e-08
5.19301e-08
5.373e-08
5.52851e-08
5.69818e-08
5.9283e-08
6.01719e-08
6.41046e-08
7.21292e-08
8.46731e-08
1.02527e-07
8.17454e-08
8.24343e-08
8.19257e-08
7.85444e-08
7.59273e-08
7.25209e-08
7.18526e-08
1.14677e-07
1.2218e-07
1.29975e-07
1.36933e-07
1.43262e-07
1.49088e-07
1.53359e-07
1.58454e-07
2.41034e-07
2.43732e-07
2.4688e-07
1.68592e-07
1.68433e-07
1.61355e-07
1.58258e-07
1.54212e-07
1.54099e-07
1.1248e-07
4.84787e-08
2.92205e-08
3.15332e-08
3.32905e-08
3.43943e-08
3.65331e-08
4.69851e-08
5.53954e-08
5.85711e-08
5.81536e-08
4.38529e-08
2.50062e-08
1.68235e-07
1.71418e-07
1.7253e-07
1.74666e-07
1.77316e-07
1.80666e-07
1.75239e-07
1.70252e-07
1.6915e-07
1.60459e-07
1.55443e-07
1.45126e-07
1.38592e-07
1.2781e-07
1.16289e-07
1.10725e-07
1.14079e-07
1.17012e-07
9.17221e-08
4.82693e-08
4.34607e-08
4.21411e-08
4.47875e-08
4.38512e-08
4.48009e-08
4.34198e-08
4.17558e-08
3.9443e-08
3.69126e-08
3.60288e-08
2.60447e-08
4.06386e-08
6.7734e-08
8.01613e-08
8.66812e-08
9.12153e-08
9.40257e-08
9.41221e-08
9.1041e-08
8.57927e-08
7.88507e-08
6.44455e-08
4.31692e-08
3.5864e-08
2.83671e-08
1.70892e-08
1.49791e-08
1.70632e-08
1.80137e-08
1.83381e-08
2.08109e-08
2.08004e-08
2.00375e-08
2.00412e-08
1.76692e-08
1.78462e-08
1.838e-08
1.88443e-08
1.83903e-08
1.65676e-08
2.48102e-08
3.01779e-08
2.98695e-08
2.80214e-08
2.76712e-08
2.84115e-08
2.8482e-08
3.00577e-08
3.01747e-08
2.93302e-08
2.82901e-08
2.90642e-08
2.74723e-08
2.78211e-08
2.74106e-08
2.67427e-08
2.70278e-08
2.71732e-08
2.72827e-08
2.7588e-08
2.82722e-08
2.88687e-08
2.91344e-08
2.8178e-08
2.5912e-08
2.28722e-08
2.06925e-08
2.12337e-08
2.54593e-08
2.8006e-08
1.33915e-08
1.41948e-08
1.32732e-08
8.21797e-09
9.40318e-09
1.78341e-08
5.74076e-09
2.49799e-09
2.22813e-09
2.14424e-09
2.06846e-09
1.80472e-09
1.79441e-09
1.77771e-09
1.82366e-09
1.73031e-09
1.77731e-09
1.74533e-09
1.71127e-09
1.73793e-09
1.74966e-09
2.00043e-09
2.1719e-09
2.28067e-09
2.60871e-09
3.81944e-09
5.7277e-09
5.9858e-09
4.03928e-09
1.53218e-09
1.60033e-06
1.57539e-06
1.54311e-06
1.52567e-06
1.53332e-06
1.51561e-06
1.49856e-06
1.47931e-06
1.48323e-06
1.46755e-06
1.45063e-06
1.36376e-06
1.38158e-06
1.31366e-06
1.17007e-06
1.25658e-06
1.27043e-06
1.2418e-06
1.21045e-06
1.19634e-06
1.19802e-06
1.27201e-06
1.33914e-06
1.29391e-06
1.17314e-06
1.11688e-06
1.08371e-06
1.13023e-06
1.16205e-06
1.21434e-06
1.23971e-06
1.27329e-06
1.28464e-06
1.30334e-06
1.30786e-06
1.30598e-06
1.30104e-06
1.26952e-06
1.22565e-06
1.17445e-06
1.08719e-06
1.04537e-06
1.11636e-06
1.17668e-06
7.89737e-07
5.44137e-07
4.87067e-07
4.1402e-07
3.57226e-07
3.18598e-07
3.19861e-07
3.33277e-07
3.69824e-07
4.16013e-07
4.60109e-07
5.08582e-07
5.6837e-07
6.35795e-07
7.66035e-07
7.86611e-07
7.95116e-07
7.97255e-07
7.99393e-07
8.06239e-07
8.0863e-07
8.01114e-07
8.03256e-07
7.91833e-07
7.53556e-07
5.9967e-07
5.12299e-07
4.25023e-07
4.02225e-07
5.12234e-07
3.95709e-07
3.47578e-07
3.0378e-07
2.97175e-07
3.20962e-07
3.5473e-07
3.8354e-07
3.89891e-07
3.95042e-07
3.95638e-07
4.02876e-07
4.1017e-07
4.22094e-07
4.28171e-07
4.10845e-07
4.00508e-07
4.04369e-07
4.2181e-07
4.48295e-07
4.75656e-07
4.99171e-07
5.20737e-07
5.28702e-07
5.35507e-07
5.33754e-07
5.27699e-07
5.03416e-07
4.72083e-07
4.5717e-07
4.62372e-07
2.02464e-07
2.11366e-07
2.21477e-07
2.15941e-07
2.05006e-07
1.93454e-07
1.90806e-07
1.97757e-07
2.08477e-07
3.36841e-07
3.50493e-07
3.86419e-07
3.99313e-07
3.92712e-07
4.03775e-07
3.86597e-07
3.79808e-07
3.52237e-07
3.34616e-07
3.04221e-07
2.03746e-07
2.02342e-07
2.11164e-07
3.29742e-07
3.40939e-07
2.90745e-07
1.83465e-07
1.76959e-07
1.68378e-07
1.54774e-07
5.45676e-08
5.98838e-08
5.90787e-08
5.98269e-08
6.17863e-08
6.03989e-08
5.73148e-08
5.43454e-08
5.27425e-08
5.20472e-08
5.2038e-08
5.43264e-08
5.59147e-08
5.96186e-08
6.39797e-08
6.72705e-08
7.03158e-08
7.34789e-08
7.58464e-08
7.75008e-08
7.88159e-08
7.92637e-08
8.00586e-08
8.10316e-08
8.251e-08
8.20838e-08
8.37909e-08
8.54274e-08
8.56008e-08
8.89989e-08
2.51483e-07
1.10331e-07
1.04604e-07
1.18076e-07
1.16584e-07
1.04594e-07
1.00616e-07
1.10487e-07
1.25855e-07
1.40422e-07
1.47717e-07
2.43513e-07
2.36205e-07
2.38557e-07
2.06316e-07
2.0607e-07
1.26213e-07
1.2585e-07
1.25743e-07
1.29056e-07
2.06254e-07
2.16872e-07
2.19941e-07
1.29629e-07
1.26784e-07
2.60836e-07
5.54791e-07
7.41775e-07
6.41574e-07
5.27934e-07
7.58526e-08
6.22158e-08
5.64896e-08
4.26968e-08
4.24898e-08
4.39286e-08
5.39703e-08
5.56702e-08
5.71278e-08
5.41948e-08
5.34837e-08
4.94407e-08
4.91466e-08
4.90844e-08
4.9351e-08
5.17065e-08
5.38505e-08
5.61225e-08
5.89406e-08
6.04569e-08
6.66864e-08
7.881e-08
1.04717e-07
1.05426e-07
1.13888e-07
1.11782e-07
8.24407e-08
8.13002e-08
7.7591e-08
7.07225e-08
1.17027e-07
1.24736e-07
1.3063e-07
1.39388e-07
1.50641e-07
2.34148e-07
2.73039e-07
3.0132e-07
3.23276e-07
3.47528e-07
3.47083e-07
3.46883e-07
3.29364e-07
2.90601e-07
1.74358e-07
1.61564e-07
1.56754e-07
1.47588e-07
7.53235e-08
3.42842e-08
3.04207e-08
3.17189e-08
3.19456e-08
3.47739e-08
4.59e-08
5.62873e-08
6.33057e-08
6.69023e-08
5.96286e-08
3.18233e-08
1.71786e-07
1.67647e-07
1.69438e-07
1.79121e-07
1.90474e-07
3.13605e-07
3.41986e-07
3.53797e-07
3.58651e-07
3.44501e-07
3.27984e-07
3.17463e-07
2.84079e-07
2.3897e-07
1.40064e-07
1.25034e-07
1.13959e-07
1.14776e-07
1.13366e-07
6.62958e-08
4.53363e-08
4.04221e-08
4.19794e-08
4.1759e-08
4.44506e-08
4.19246e-08
3.89843e-08
3.7581e-08
3.58993e-08
3.49719e-08
3.154e-08
6.01916e-08
7.4937e-08
8.22648e-08
9.21155e-08
1.01627e-07
1.93552e-07
2.20117e-07
2.25143e-07
2.08356e-07
1.61451e-07
9.2019e-08
6.90948e-08
4.29479e-08
3.39984e-08
2.00273e-08
1.51549e-08
1.72199e-08
1.81012e-08
1.9737e-08
2.06718e-08
2.07706e-08
1.92423e-08
1.72076e-08
1.69767e-08
1.73022e-08
1.79051e-08
1.86234e-08
1.85913e-08
1.64645e-08
2.56508e-08
3.03093e-08
2.86987e-08
2.90728e-08
3.0654e-08
2.99969e-08
3.10385e-08
3.18691e-08
3.06483e-08
3.10567e-08
3.03085e-08
2.9068e-08
2.88076e-08
2.74163e-08
2.61559e-08
2.53142e-08
2.51273e-08
2.43231e-08
2.3958e-08
2.52817e-08
2.78659e-08
3.03878e-08
3.22011e-08
3.26565e-08
3.11308e-08
2.72681e-08
2.30465e-08
2.15626e-08
2.45636e-08
2.77957e-08
1.23999e-08
1.88453e-08
2.34059e-08
9.25511e-09
1.20842e-08
1.01436e-08
3.05092e-09
2.35324e-09
2.27239e-09
2.13377e-09
2.21062e-09
2.37179e-09
2.43517e-09
2.37283e-09
2.41816e-09
2.0144e-09
1.88298e-09
1.84058e-09
1.68635e-09
1.6606e-09
1.65471e-09
1.68577e-09
2.02278e-09
2.24502e-09
2.83482e-09
4.69834e-09
6.08257e-09
5.04163e-09
2.56313e-09
1.40228e-09
1.58702e-06
1.5332e-06
1.51166e-06
1.5311e-06
1.49794e-06
1.46899e-06
1.39329e-06
1.38459e-06
1.4033e-06
1.47497e-06
1.44964e-06
1.42971e-06
1.34755e-06
1.30327e-06
1.17385e-06
1.26732e-06
1.25495e-06
1.22e-06
1.19803e-06
1.19052e-06
1.23308e-06
1.34336e-06
1.32376e-06
1.18258e-06
1.09164e-06
1.03967e-06
1.0917e-06
1.12016e-06
1.1976e-06
1.24632e-06
1.27953e-06
1.31459e-06
1.3462e-06
1.37075e-06
1.38166e-06
1.38174e-06
1.37388e-06
1.34784e-06
1.30872e-06
1.24057e-06
1.16599e-06
1.05227e-06
1.08004e-06
1.18194e-06
7.98867e-07
5.65896e-07
5.07679e-07
4.14051e-07
3.28637e-07
2.01442e-07
2.01412e-07
3.09438e-07
3.77792e-07
4.46076e-07
4.97587e-07
5.3519e-07
5.87416e-07
7.41582e-07
7.73011e-07
7.78905e-07
7.80583e-07
7.90366e-07
8.07438e-07
8.15554e-07
8.07167e-07
8.09235e-07
8.13598e-07
8.19111e-07
8.05426e-07
7.61919e-07
5.93113e-07
4.82033e-07
4.07759e-07
4.80815e-07
3.93785e-07
3.38513e-07
3.05382e-07
3.13893e-07
3.52134e-07
3.84321e-07
3.9425e-07
3.81151e-07
3.64464e-07
3.49513e-07
3.64856e-07
3.8335e-07
4.10816e-07
4.27326e-07
4.21647e-07
4.04999e-07
4.10186e-07
4.3713e-07
4.72288e-07
5.05635e-07
5.31125e-07
5.47747e-07
6.54733e-07
6.62597e-07
6.5964e-07
5.61076e-07
5.42292e-07
5.0168e-07
4.63267e-07
4.60381e-07
1.91789e-07
2.04076e-07
2.21393e-07
2.17521e-07
2.02635e-07
1.93015e-07
1.98376e-07
2.17008e-07
3.65315e-07
4.26378e-07
4.51037e-07
4.75255e-07
4.9691e-07
4.97772e-07
5.11403e-07
5.01052e-07
4.78629e-07
4.63641e-07
4.25548e-07
3.78751e-07
3.35179e-07
2.08746e-07
2.06457e-07
3.1298e-07
3.44457e-07
3.20677e-07
3.04706e-07
3.26012e-07
3.05936e-07
1.83472e-07
5.35991e-08
5.91343e-08
5.811e-08
5.92337e-08
6.07333e-08
5.90256e-08
5.46468e-08
5.24401e-08
4.9312e-08
4.88473e-08
4.91819e-08
5.243e-08
5.60631e-08
5.9161e-08
6.37158e-08
6.76464e-08
7.19992e-08
7.62702e-08
7.93872e-08
8.19559e-08
8.34799e-08
8.5328e-08
8.46668e-08
8.58916e-08
8.47593e-08
8.5595e-08
8.779e-08
8.55979e-08
8.61183e-08
8.9198e-08
2.36182e-07
1.02369e-07
9.17004e-08
9.3371e-08
6.88139e-08
6.15984e-08
6.02706e-08
6.80059e-08
1.04273e-07
1.38247e-07
1.47852e-07
2.35272e-07
2.22757e-07
1.39548e-07
1.21847e-07
1.25514e-07
1.2001e-07
1.15971e-07
1.18891e-07
1.19519e-07
1.26128e-07
1.30606e-07
2.13564e-07
2.11194e-07
1.27196e-07
1.29416e-07
3.25148e-07
6.18432e-07
6.5631e-07
5.21812e-07
6.66435e-08
6.0326e-08
4.17901e-08
3.9702e-08
4.29601e-08
5.499e-08
5.81063e-08
5.77415e-08
5.47418e-08
5.01994e-08
4.68681e-08
4.25553e-08
4.27362e-08
4.25449e-08
4.44034e-08
4.61521e-08
4.94622e-08
5.28126e-08
5.59648e-08
5.94356e-08
6.29013e-08
7.26503e-08
8.31344e-08
1.10837e-07
1.19058e-07
1.1554e-07
9.92066e-08
8.32286e-08
8.2778e-08
7.31439e-08
1.22332e-07
1.24087e-07
1.34471e-07
1.4873e-07
2.53192e-07
3.04944e-07
3.49903e-07
3.85764e-07
4.10233e-07
4.29359e-07
4.51102e-07
4.36338e-07
4.16178e-07
3.7387e-07
3.1598e-07
1.75548e-07
1.64154e-07
1.56975e-07
1.21942e-07
5.43495e-08
3.14263e-08
3.03898e-08
3.17595e-08
4.08527e-08
5.37019e-08
6.43252e-08
6.84362e-08
7.01795e-08
6.93636e-08
4.25749e-08
1.59192e-07
1.59638e-07
1.70937e-07
1.87865e-07
3.26449e-07
3.75178e-07
4.13117e-07
4.30997e-07
4.33472e-07
4.34045e-07
4.3725e-07
4.11224e-07
3.8088e-07
3.30513e-07
2.67819e-07
1.42558e-07
1.263e-07
1.17131e-07
1.19714e-07
1.03338e-07
5.70042e-08
4.3064e-08
3.87599e-08
4.20962e-08
4.15366e-08
4.07642e-08
3.81911e-08
3.55307e-08
3.51887e-08
3.47611e-08
5.62291e-08
6.72303e-08
7.4059e-08
8.53698e-08
1.54474e-07
2.31897e-07
2.90362e-07
3.26451e-07
3.33291e-07
3.15427e-07
2.72676e-07
2.07017e-07
9.0903e-08
6.53146e-08
3.86275e-08
2.53587e-08
1.5773e-08
1.67376e-08
1.80571e-08
2.05247e-08
2.16833e-08
2.13308e-08
1.97292e-08
1.89026e-08
1.67135e-08
1.6917e-08
1.77059e-08
1.84841e-08
1.84317e-08
1.61913e-08
2.60907e-08
2.95487e-08
2.94741e-08
2.94293e-08
3.16909e-08
3.20147e-08
3.42915e-08
3.32225e-08
3.2495e-08
3.23147e-08
3.07776e-08
3.03443e-08
2.93099e-08
2.72064e-08
2.63121e-08
2.3953e-08
2.23725e-08
1.99435e-08
2.08479e-08
2.40658e-08
2.89476e-08
4.18159e-08
5.20691e-08
5.43676e-08
4.85408e-08
3.0907e-08
2.52914e-08
2.23097e-08
2.43854e-08
2.7644e-08
9.03606e-09
1.71551e-08
2.9175e-08
1.21388e-08
1.20709e-08
5.49899e-09
2.52896e-09
2.22637e-09
2.31667e-09
2.6084e-09
3.01101e-09
3.317e-09
3.50596e-09
3.56285e-09
3.22739e-09
3.06719e-09
2.57128e-09
2.04952e-09
1.81719e-09
1.65918e-09
1.62071e-09
1.59879e-09
1.75354e-09
2.34194e-09
4.16232e-09
6.08471e-09
4.92591e-09
2.82851e-09
1.39738e-09
1.35647e-09
1.53299e-06
1.50538e-06
1.54177e-06
1.47181e-06
1.36389e-06
1.31841e-06
1.31546e-06
1.3318e-06
1.36847e-06
1.3998e-06
1.46822e-06
1.41902e-06
1.33046e-06
1.27652e-06
1.17434e-06
1.25774e-06
1.25023e-06
1.20889e-06
1.19142e-06
1.19361e-06
1.26208e-06
1.36606e-06
1.29986e-06
1.14801e-06
1.04322e-06
9.87572e-07
1.07087e-06
1.14869e-06
1.2276e-06
1.27241e-06
1.31698e-06
1.35561e-06
1.3846e-06
1.40818e-06
1.43005e-06
1.4396e-06
1.43908e-06
1.41801e-06
1.37241e-06
1.31045e-06
1.21354e-06
1.08073e-06
1.05497e-06
1.178e-06
8.23902e-07
5.93886e-07
5.5254e-07
4.58865e-07
3.48954e-07
2.04279e-07
2.0421e-07
3.28133e-07
4.34381e-07
5.11508e-07
5.54763e-07
5.63569e-07
5.99389e-07
7.50304e-07
7.64622e-07
7.62678e-07
7.78945e-07
8.13467e-07
8.35805e-07
8.40922e-07
8.45248e-07
8.43533e-07
8.37917e-07
8.26398e-07
8.29677e-07
8.08753e-07
7.35827e-07
5.32618e-07
4.26951e-07
4.63583e-07
3.89968e-07
3.34652e-07
3.03578e-07
3.26224e-07
3.70183e-07
3.91878e-07
3.84766e-07
3.50392e-07
3.1176e-07
2.92473e-07
3.1398e-07
3.5202e-07
3.94993e-07
4.24788e-07
4.2048e-07
4.06515e-07
4.15307e-07
4.51987e-07
4.951e-07
5.32734e-07
6.49709e-07
6.77592e-07
6.82837e-07
6.89122e-07
6.94543e-07
6.81061e-07
5.64143e-07
5.25045e-07
4.73403e-07
4.52986e-07
1.80356e-07
2.05813e-07
3.3025e-07
2.14669e-07
1.97604e-07
1.93015e-07
2.08939e-07
3.63053e-07
4.3217e-07
4.8385e-07
5.09455e-07
5.21696e-07
5.35562e-07
5.46338e-07
5.43397e-07
5.43982e-07
5.47423e-07
5.27558e-07
5.08058e-07
4.51783e-07
3.9454e-07
3.26315e-07
2.08817e-07
2.14089e-07
3.36569e-07
3.35667e-07
3.37053e-07
3.8472e-07
3.64006e-07
2.97987e-07
5.32931e-08
5.8708e-08
5.72388e-08
5.77148e-08
5.98595e-08
5.78864e-08
5.38859e-08
5.01115e-08
4.90523e-08
4.91512e-08
4.98836e-08
5.4012e-08
5.7226e-08
5.8022e-08
6.34487e-08
6.81454e-08
7.37381e-08
7.8819e-08
8.26199e-08
8.54498e-08
8.75029e-08
8.87556e-08
8.86834e-08
8.94452e-08
8.86666e-08
9.07944e-08
8.84142e-08
8.76781e-08
8.78485e-08
8.83923e-08
1.43642e-07
9.4525e-08
7.07762e-08
6.63571e-08
5.21511e-08
3.92832e-08
4.48097e-08
5.70805e-08
9.24249e-08
1.38561e-07
1.42253e-07
2.2267e-07
1.39098e-07
1.28774e-07
1.17369e-07
1.20458e-07
1.07885e-07
1.10086e-07
1.08499e-07
1.13857e-07
1.17734e-07
1.24439e-07
1.32281e-07
2.09543e-07
1.28935e-07
1.25826e-07
2.49848e-07
4.02347e-07
6.12059e-07
5.11558e-07
6.17176e-08
5.29396e-08
3.79213e-08
4.10541e-08
5.51917e-08
5.96908e-08
5.93477e-08
5.37632e-08
4.97821e-08
4.29599e-08
3.64928e-08
3.64982e-08
3.5341e-08
3.58867e-08
3.64112e-08
3.7664e-08
4.42442e-08
4.93227e-08
5.29624e-08
5.70177e-08
6.03099e-08
6.78709e-08
7.92729e-08
1.0787e-07
1.16183e-07
1.09452e-07
9.89648e-08
1.04308e-07
1.06533e-07
7.68957e-08
1.12993e-07
1.26238e-07
1.44735e-07
2.51286e-07
3.12092e-07
3.69784e-07
4.24511e-07
4.66977e-07
5.9661e-07
6.03223e-07
6.03892e-07
6.05263e-07
4.88695e-07
4.42478e-07
3.82759e-07
2.98717e-07
1.72359e-07
1.63284e-07
1.41113e-07
6.83331e-08
3.99817e-08
3.10365e-08
3.30839e-08
5.13121e-08
6.67864e-08
7.51e-08
7.55947e-08
7.30093e-08
7.24251e-08
5.18268e-08
1.51451e-07
1.60786e-07
1.73444e-07
1.87344e-07
3.51707e-07
4.06493e-07
4.45531e-07
4.73306e-07
4.85969e-07
5.87385e-07
5.60965e-07
4.60989e-07
4.36202e-07
4.05642e-07
3.50647e-07
2.73315e-07
1.3623e-07
1.23769e-07
1.16246e-07
1.14729e-07
8.57744e-08
5.08233e-08
4.43544e-08
4.23718e-08
4.13118e-08
3.97646e-08
3.59828e-08
3.33774e-08
3.34496e-08
3.38847e-08
6.54891e-08
6.74455e-08
7.53437e-08
9.37147e-08
2.34975e-07
3.21828e-07
4.7347e-07
5.31451e-07
5.41312e-07
5.07481e-07
3.55501e-07
2.88803e-07
1.86418e-07
7.98626e-08
4.25624e-08
2.97326e-08
1.69637e-08
1.5698e-08
1.8005e-08
1.93238e-08
2.12162e-08
2.11554e-08
2.14505e-08
2.03711e-08
1.69524e-08
1.68636e-08
1.71128e-08
1.74636e-08
1.7389e-08
1.62453e-08
2.60816e-08
2.97153e-08
2.85244e-08
3.116e-08
3.30153e-08
3.50155e-08
3.59117e-08
3.69695e-08
3.80623e-08
3.39337e-08
3.31565e-08
3.19267e-08
2.8783e-08
2.76475e-08
2.5718e-08
2.32921e-08
2.06681e-08
1.77661e-08
1.94047e-08
2.41876e-08
3.07608e-08
5.26313e-08
6.69219e-08
6.81429e-08
5.815e-08
4.0245e-08
2.63455e-08
2.29478e-08
2.48096e-08
2.7631e-08
6.22133e-09
1.2677e-08
3.24494e-08
1.97545e-08
1.04224e-08
3.86596e-09
2.48829e-09
2.36892e-09
2.73959e-09
3.26803e-09
4.08002e-09
5.346e-09
5.91889e-09
5.98317e-09
5.22117e-09
4.23737e-09
3.43452e-09
2.6284e-09
2.05447e-09
1.72148e-09
1.62254e-09
1.56375e-09
1.67441e-09
2.59173e-09
4.92401e-09
5.98849e-09
2.88698e-09
1.50383e-09
1.07096e-09
1.50148e-09
1.48349e-06
1.5338e-06
1.4881e-06
1.39369e-06
1.25712e-06
1.22438e-06
1.22178e-06
1.27016e-06
1.33157e-06
1.38692e-06
1.41491e-06
1.43027e-06
1.32573e-06
1.26676e-06
1.16575e-06
1.25546e-06
1.24475e-06
1.2037e-06
1.18896e-06
1.16513e-06
1.23496e-06
1.36497e-06
1.2942e-06
1.14065e-06
1.01159e-06
9.68121e-07
1.06712e-06
1.18091e-06
1.2399e-06
1.29588e-06
1.33706e-06
1.36409e-06
1.39029e-06
1.41967e-06
1.44442e-06
1.4578e-06
1.46376e-06
1.4661e-06
1.42224e-06
1.3561e-06
1.25492e-06
1.10201e-06
1.04895e-06
1.17019e-06
8.50439e-07
7.19559e-07
6.90161e-07
5.54662e-07
4.61392e-07
3.77649e-07
3.81771e-07
4.50495e-07
5.46142e-07
6.04561e-07
6.17019e-07
5.89399e-07
6.09251e-07
7.55241e-07
7.49908e-07
7.47447e-07
7.9914e-07
8.41894e-07
8.55651e-07
8.64668e-07
8.57981e-07
8.46641e-07
8.29965e-07
8.33062e-07
8.38563e-07
8.38038e-07
7.74508e-07
5.66569e-07
4.41365e-07
4.56524e-07
3.97229e-07
3.4086e-07
3.16582e-07
3.43094e-07
3.85451e-07
3.98214e-07
3.84806e-07
3.39595e-07
2.94557e-07
2.73458e-07
2.93648e-07
3.37496e-07
3.91823e-07
4.2983e-07
4.17683e-07
4.05179e-07
4.27377e-07
4.72479e-07
5.12516e-07
6.33264e-07
6.83605e-07
7.20061e-07
7.3553e-07
7.32023e-07
7.16946e-07
7.04342e-07
6.70855e-07
5.34793e-07
4.79138e-07
4.48975e-07
1.74436e-07
2.14345e-07
3.35896e-07
2.06486e-07
1.93079e-07
1.94894e-07
2.25218e-07
4.10461e-07
4.68886e-07
5.01293e-07
5.33181e-07
5.26752e-07
5.61203e-07
5.50777e-07
5.67601e-07
5.6607e-07
5.70349e-07
5.6406e-07
5.56363e-07
5.03887e-07
4.4763e-07
3.64282e-07
3.08176e-07
2.12235e-07
3.29789e-07
3.42034e-07
3.55278e-07
4.06663e-07
3.67345e-07
2.86044e-07
5.17698e-08
5.82254e-08
5.68796e-08
5.55236e-08
5.81469e-08
5.80031e-08
5.43962e-08
5.2032e-08
4.93317e-08
4.88766e-08
5.00039e-08
5.53173e-08
5.82669e-08
5.84433e-08
6.29673e-08
6.94186e-08
7.57591e-08
8.12939e-08
8.56734e-08
8.95508e-08
9.02493e-08
9.32713e-08
9.235e-08
9.42003e-08
9.38372e-08
9.14794e-08
9.09648e-08
9.04205e-08
8.77393e-08
8.79486e-08
1.41173e-07
8.76299e-08
6.54935e-08
5.51517e-08
3.77338e-08
3.46397e-08
3.54671e-08
5.11838e-08
7.14484e-08
1.35819e-07
1.37996e-07
2.20413e-07
1.32759e-07
1.20678e-07
1.19634e-07
1.10851e-07
1.01971e-07
9.93368e-08
1.0058e-07
1.01708e-07
1.12093e-07
1.18458e-07
1.29041e-07
1.3018e-07
1.30364e-07
1.2427e-07
2.10923e-07
3.40856e-07
5.4963e-07
4.10497e-07
6.04212e-08
3.94018e-08
3.73307e-08
4.48289e-08
6.09746e-08
6.13316e-08
5.5297e-08
5.00602e-08
4.47905e-08
3.58349e-08
3.50506e-08
3.25074e-08
3.15324e-08
3.11321e-08
3.26551e-08
3.46028e-08
3.77916e-08
4.55366e-08
4.97743e-08
5.56956e-08
5.84516e-08
6.48882e-08
7.50615e-08
8.38722e-08
1.09207e-07
8.38798e-08
1.01293e-07
1.13369e-07
1.14534e-07
7.93321e-08
1.16237e-07
1.37923e-07
1.54677e-07
2.96258e-07
3.55545e-07
4.27313e-07
5.58028e-07
6.2942e-07
6.60577e-07
6.9666e-07
6.81368e-07
6.83979e-07
6.28928e-07
4.9489e-07
4.25045e-07
3.47487e-07
2.68717e-07
1.67984e-07
1.51467e-07
7.68838e-08
5.19031e-08
3.43553e-08
4.69151e-08
6.64314e-08
9.71632e-08
1.02118e-07
9.61758e-08
7.36303e-08
7.29124e-08
5.80762e-08
1.42886e-07
1.4923e-07
1.61531e-07
1.83336e-07
3.50115e-07
4.13669e-07
4.58406e-07
5.81694e-07
5.99472e-07
5.81498e-07
5.74631e-07
5.6568e-07
5.57269e-07
4.4357e-07
3.96975e-07
3.30941e-07
2.53799e-07
1.32699e-07
1.20611e-07
1.20436e-07
1.04266e-07
6.02696e-08
5.14679e-08
4.34781e-08
4.11341e-08
3.87434e-08
3.49776e-08
3.15172e-08
3.12483e-08
3.20714e-08
6.03197e-08
6.58137e-08
8.02765e-08
1.95704e-07
3.07319e-07
4.99774e-07
6.3516e-07
6.82577e-07
6.92883e-07
6.73337e-07
5.40673e-07
3.57004e-07
2.43389e-07
9.40318e-08
5.27409e-08
3.29414e-08
1.83601e-08
1.52526e-08
1.77167e-08
1.96392e-08
1.99186e-08
2.29386e-08
2.24638e-08
2.32053e-08
2.11576e-08
1.91554e-08
1.68711e-08
1.68377e-08
1.67052e-08
1.63614e-08
2.58068e-08
2.96522e-08
2.87658e-08
3.32147e-08
3.50558e-08
3.87801e-08
4.06611e-08
4.26982e-08
4.34001e-08
4.02998e-08
3.78402e-08
3.19145e-08
2.96243e-08
2.87575e-08
2.62301e-08
2.45592e-08
2.03706e-08
1.83214e-08
1.66653e-08
2.34298e-08
3.06586e-08
5.41961e-08
6.92055e-08
7.25473e-08
5.82481e-08
3.23413e-08
2.62599e-08
2.37404e-08
2.57068e-08
2.76148e-08
4.82114e-09
9.09586e-09
2.97915e-08
2.42461e-08
8.79695e-09
3.09516e-09
2.39918e-09
2.59531e-09
3.15896e-09
4.23099e-09
6.5061e-09
7.96005e-09
8.82191e-09
8.94893e-09
8.13244e-09
6.84297e-09
4.39942e-09
3.4006e-09
2.50408e-09
1.88461e-09
1.64678e-09
1.59821e-09
1.59763e-09
2.72876e-09
5.60723e-09
5.95996e-09
2.07396e-09
1.15778e-09
1.28424e-09
2.64172e-09
1.50226e-06
1.53142e-06
1.40848e-06
1.27657e-06
1.21858e-06
1.19873e-06
1.22496e-06
1.21785e-06
1.31737e-06
1.38247e-06
1.41914e-06
1.42384e-06
1.30484e-06
1.25007e-06
1.14863e-06
1.25349e-06
1.247e-06
1.2053e-06
1.16286e-06
1.15256e-06
1.21244e-06
1.34711e-06
1.30089e-06
1.13627e-06
1.00364e-06
9.49611e-07
1.06624e-06
1.18697e-06
1.24591e-06
1.30336e-06
1.33292e-06
1.35006e-06
1.3816e-06
1.42011e-06
1.46503e-06
1.48252e-06
1.48517e-06
1.48694e-06
1.44655e-06
1.39107e-06
1.2777e-06
1.1233e-06
1.04363e-06
1.16863e-06
8.81534e-07
7.56458e-07
7.46817e-07
7.46783e-07
6.25634e-07
5.81329e-07
6.06557e-07
6.43181e-07
7.75646e-07
7.89539e-07
7.73918e-07
6.12859e-07
6.11347e-07
7.47596e-07
7.29525e-07
7.54321e-07
8.15696e-07
8.54544e-07
8.6455e-07
8.60239e-07
8.35853e-07
8.24733e-07
8.25412e-07
8.26017e-07
8.32661e-07
8.38416e-07
7.95987e-07
5.90632e-07
4.45874e-07
4.55025e-07
3.97713e-07
3.4887e-07
3.16522e-07
3.37461e-07
3.79761e-07
3.94816e-07
3.83792e-07
3.52801e-07
3.01378e-07
2.72052e-07
2.94827e-07
3.49159e-07
4.00078e-07
4.27703e-07
4.14463e-07
4.02773e-07
4.36501e-07
4.88361e-07
5.29141e-07
6.59799e-07
6.99967e-07
7.21233e-07
7.47982e-07
7.60876e-07
7.46344e-07
7.23379e-07
6.83605e-07
5.41996e-07
4.75832e-07
4.44485e-07
1.7518e-07
2.21965e-07
3.20823e-07
1.9639e-07
1.90463e-07
1.99436e-07
3.39375e-07
4.34608e-07
4.82055e-07
5.02883e-07
5.24552e-07
5.3433e-07
5.65284e-07
5.58755e-07
5.82596e-07
5.73274e-07
5.88088e-07
5.71701e-07
5.74597e-07
5.31455e-07
4.82412e-07
3.93746e-07
3.22036e-07
2.99295e-07
3.27677e-07
3.46871e-07
3.66552e-07
4.07576e-07
3.44744e-07
1.85406e-07
5.13771e-08
5.71245e-08
5.76419e-08
5.40928e-08
5.52824e-08
5.69062e-08
5.49916e-08
5.24657e-08
5.27657e-08
4.97825e-08
5.23405e-08
5.61844e-08
5.95647e-08
5.91131e-08
6.43058e-08
7.09147e-08
7.77038e-08
8.38712e-08
8.81081e-08
9.14174e-08
9.3237e-08
9.47162e-08
9.58981e-08
9.8379e-08
9.39593e-08
9.35545e-08
9.40696e-08
9.09499e-08
8.7243e-08
8.84703e-08
1.39552e-07
6.8228e-08
6.08128e-08
4.76517e-08
3.49169e-08
3.25593e-08
3.4139e-08
4.89787e-08
7.02149e-08
1.30503e-07
1.38158e-07
1.39955e-07
1.24484e-07
1.20067e-07
1.16225e-07
1.01706e-07
1.0202e-07
9.17764e-08
9.35322e-08
9.65028e-08
1.05913e-07
1.14029e-07
1.27369e-07
1.30214e-07
1.31448e-07
1.23322e-07
1.27815e-07
3.0022e-07
4.97748e-07
3.90124e-07
5.75252e-08
3.24683e-08
3.90586e-08
5.80645e-08
6.23802e-08
5.86457e-08
5.28319e-08
4.79053e-08
3.72968e-08
3.45764e-08
3.29842e-08
2.95135e-08
2.85704e-08