/*--------------------------------*- C++ -*----------------------------------*\
| =========                 |                                                 |
| \\      /  F ield         | OpenFOAM: The Open Source CFD Toolbox           |
|  \\    /   O peration     | Version:  2.1.1                                 |
|   \\  /    A nd           | Web:      www.OpenFOAM.org                      |
|    \\/     M anipulation  |                                                 |
\*---------------------------------------------------------------------------*/
FoamFile
{
    version     2.0;
    format      ascii;
    class       volScalarField;
    location    "0.001250000";
    object      fH;
}
// * * * * * * * * * * * * * * * * * * * * * * * * * * * * * * * * * * * * * //

dimensions      [0 0 0 0 0 0 0];

internalField   nonuniform List<scalar> 
12384
(
0.0258187
0.026329
0.0268397
0.0269566
0.0273747
0.0272006
0.0269689
0.0273689
0.0282027
0.0288895
0.0289098
0.0291534
0.0291681
0.0289033
0.0262616
0.0245979
0.0231551
0.0223475
0.0220388
0.0218782
0.0216611
0.0217766
0.0222241
0.022897
0.0238489
0.0247373
0.0255004
0.0263257
0.0270129
0.0277132
0.0282289
0.0286435
0.0288993
0.0290177
0.0290914
0.02911
0.0290741
0.0291243
0.0290609
0.0291113
0.0290975
0.0290956
0.0290932
0.0290853
0.0284254
0.028202
0.0282855
0.0283873
0.0285222
0.0286323
0.0287678
0.0288958
0.0289619
0.029048
0.0290548
0.0290751
0.0290713
0.0290728
0.0290708
0.0290712
0.0290717
0.0290693
0.029073
0.0290688
0.0290708
0.0290734
0.0290672
0.0290762
0.0290673
0.0290767
0.0290696
0.0290758
0.0290707
0.0290789
0.0290777
0.0290686
0.0290699
0.0290677
0.0290683
0.0290679
0.0290675
0.0290665
0.0290669
0.0290646
0.0290662
0.0290628
0.0290647
0.0290604
0.0290615
0.0290592
0.029061
0.029061
0.0290614
0.0290623
0.0290613
0.0290632
0.0290619
0.0290636
0.0290629
0.0290638
0.0290633
0.0290638
0.0290638
0.0290778
0.0290778
0.0290631
0.0290624
0.0290616
0.0290612
0.0290607
0.0290599
0.029059
0.0290584
0.0290574
0.0290567
0.0290554
0.0290536
0.0290519
0.0290516
0.0290514
0.0290524
0.0290538
0.0290553
0.0290564
0.0290571
0.0290579
0.0290586
0.0290594
0.0290601
0.0290608
0.029061
0.0290616
0.0290625
0.0290778
0.0290778
0.0290625
0.0290618
0.0290611
0.0290606
0.0290599
0.0290593
0.0290586
0.0290579
0.0290571
0.0290564
0.0290555
0.0290536
0.0290524
0.0290514
0.0290515
0.0290526
0.0290538
0.0290553
0.0290563
0.0290571
0.0290578
0.0290585
0.0290592
0.0290599
0.0290604
0.0290609
0.0290615
0.0290623
0.0290778
0.0290778
0.0290625
0.0290615
0.0290607
0.0290608
0.0290602
0.0290595
0.0290587
0.029058
0.0290571
0.0290564
0.0290554
0.0290539
0.0290527
0.0290516
0.0290514
0.0290521
0.0290537
0.0290556
0.0290567
0.0290576
0.0290584
0.029059
0.0290596
0.0290602
0.0290608
0.0290612
0.0290617
0.0290624
0.0290778
0.0290778
0.0290626
0.0290619
0.0290612
0.0290605
0.0290598
0.0290591
0.0290584
0.0290577
0.029057
0.0290563
0.0290553
0.0290538
0.0290524
0.0290513
0.0290513
0.0290524
0.0290538
0.0290553
0.0290563
0.0290571
0.0290577
0.0290584
0.0290592
0.0290598
0.0290604
0.0290609
0.0290615
0.0290623
0.0290778
0.0290778
0.0290625
0.0290619
0.029061
0.0290605
0.0290598
0.0290592
0.0290585
0.0290579
0.0290572
0.0290565
0.0290555
0.0290539
0.0290524
0.0290513
0.0290514
0.0290524
0.0290537
0.0290553
0.0290563
0.0290571
0.0290578
0.0290585
0.0290592
0.0290599
0.0290605
0.0290609
0.0290615
0.0290623
0.0290778
0.0290778
0.0290627
0.0290619
0.0290611
0.0290605
0.0290597
0.029059
0.0290583
0.0290576
0.029057
0.0290563
0.0290554
0.029054
0.0290527
0.0290516
0.0290513
0.0290521
0.0290537
0.0290556
0.0290566
0.0290572
0.029058
0.0290587
0.0290594
0.02906
0.0290607
0.0290612
0.029062
0.0290627
0.0290778
0.0290778
0.0290625
0.0290617
0.0290609
0.0290604
0.0290597
0.0290591
0.0290583
0.0290578
0.0290571
0.0290564
0.0290555
0.0290539
0.0290525
0.0290514
0.0290513
0.0290522
0.0290537
0.0290553
0.0290563
0.0290571
0.0290578
0.0290585
0.0290593
0.02906
0.0290605
0.0290609
0.0290615
0.0290623
0.0290778
0.0290778
0.0290624
0.0290615
0.0290612
0.0290608
0.0290602
0.0290595
0.0290586
0.0290579
0.029057
0.0290563
0.0290552
0.0290537
0.0290524
0.0290513
0.0290513
0.0290523
0.0290537
0.0290553
0.0290563
0.0290571
0.0290578
0.0290585
0.0290593
0.0290599
0.0290605
0.029061
0.0290616
0.0290624
0.0290778
0.0290778
0.0290625
0.0290618
0.0290608
0.0290603
0.0290595
0.029059
0.0290584
0.0290579
0.0290572
0.0290567
0.0290557
0.0290543
0.0290528
0.0290515
0.0290512
0.0290522
0.0290537
0.0290552
0.0290561
0.029057
0.0290578
0.0290586
0.0290593
0.02906
0.0290605
0.029061
0.0290615
0.0290622
0.0290778
0.0152845
0.0175796
0.0181455
0.0172176
0.0180506
0.0170483
0.0157264
0.0167419
0.0177926
0.0206435
0.0242103
0.0257732
0.0269
0.0275941
0.0148206
0.0125531
0.0123653
0.0126376
0.0128254
0.0130219
0.0128016
0.012426
0.012042
0.0117284
0.0118117
0.0118715
0.0124229
0.0130941
0.0140166
0.0153476
0.0164761
0.0179773
0.0197737
0.0212898
0.0232328
0.0248021
0.0258987
0.0269521
0.0277175
0.0281685
0.0285603
0.0287591
0.0287891
0.0289115
0.0171498
0.0163601
0.0165225
0.0169344
0.0174203
0.0180165
0.018809
0.0195488
0.0205354
0.021338
0.0221348
0.0230222
0.0235422
0.0244567
0.0247931
0.0255771
0.0258483
0.0264433
0.0266995
0.0271309
0.0274009
0.0276431
0.027815
0.0280025
0.028003
0.028221
0.0281326
0.0283026
0.0282028
0.0287135
0.0264583
0.02615
0.0262075
0.0263979
0.0265653
0.0267737
0.0269157
0.0270752
0.027187
0.0272947
0.0273691
0.0274502
0.0274778
0.0275037
0.0275066
0.027548
0.0276048
0.0276688
0.0277066
0.0277448
0.0277569
0.027794
0.0278083
0.027836
0.0278572
0.0278748
0.0278924
0.0278942
0.0279193
0.0285964
0.0286019
0.0278544
0.027839
0.027809
0.0277976
0.0277816
0.0277426
0.0277265
0.0276882
0.0276758
0.0276397
0.0276219
0.0275575
0.0275076
0.0274861
0.0274798
0.0275198
0.0275629
0.0276194
0.0276343
0.0276692
0.0276799
0.0277174
0.0277323
0.0277705
0.0277868
0.027796
0.0278264
0.0278431
0.0286176
0.0286167
0.0278475
0.0278305
0.0277985
0.0277918
0.0277566
0.0277459
0.0277088
0.0276995
0.027661
0.0276504
0.0276079
0.0275595
0.0275127
0.0274771
0.0274896
0.027512
0.0275711
0.0276033
0.0276438
0.0276511
0.0276881
0.0276972
0.027735
0.0277495
0.0277832
0.0277979
0.0278159
0.027852
0.0286013
0.0286173
0.0278433
0.0278256
0.0277943
0.0277862
0.0277678
0.0277292
0.0277149
0.0276768
0.0276661
0.0276308
0.0276172
0.0275611
0.0275258
0.0274859
0.0274862
0.0274982
0.0275634
0.0276096
0.0276562
0.0276728
0.0277131
0.0277215
0.0277566
0.0277669
0.0278002
0.0278058
0.0278334
0.0278503
0.0286155
0.0286176
0.0278423
0.0278176
0.0278008
0.0277687
0.0277578
0.0277181
0.0277077
0.027672
0.0276648
0.0276316
0.0276174
0.0275585
0.0275193
0.0274778
0.0274859
0.0275069
0.0275678
0.0276028
0.0276439
0.0276508
0.0276877
0.0276965
0.0277344
0.0277485
0.0277824
0.0277972
0.0278156
0.0278519
0.0286012
0.0286044
0.0278595
0.0278201
0.0278082
0.0277747
0.0277644
0.0277266
0.0277168
0.0276816
0.0276737
0.0276398
0.0276256
0.0275639
0.0275194
0.027478
0.0274869
0.0275074
0.0275663
0.0276012
0.0276432
0.0276506
0.0276877
0.0276969
0.0277351
0.0277493
0.0277829
0.0277979
0.0278161
0.0278523
0.0286008
0.0286002
0.0278515
0.0278223
0.0277912
0.0277798
0.0277443
0.0277317
0.027695
0.0276876
0.0276531
0.0276479
0.0276095
0.0275792
0.0275188
0.027496
0.0274756
0.0275072
0.0275525
0.0276237
0.0276519
0.0276684
0.0277044
0.0277166
0.0277528
0.0277636
0.0277977
0.0278035
0.0278346
0.0278489
0.0286174
0.0285998
0.0278552
0.027816
0.0278037
0.0277705
0.0277607
0.0277229
0.0277129
0.0276777
0.0276707
0.0276378
0.0276247
0.0275658
0.0275232
0.0274799
0.0274849
0.027504
0.0275629
0.0275999
0.0276426
0.0276511
0.0276887
0.0276982
0.0277361
0.0277506
0.0277841
0.0277993
0.0278162
0.0278521
0.0286013
0.0286172
0.0278415
0.0278223
0.0278038
0.0277775
0.0277647
0.0277249
0.0277121
0.0276742
0.0276645
0.0276292
0.0276136
0.0275556
0.027518
0.0274785
0.0274791
0.0275152
0.0275568
0.0276161
0.0276317
0.0276659
0.027675
0.0277118
0.0277232
0.0277625
0.0277733
0.0278027
0.0278199
0.0278418
0.0286168
0.0286016
0.0278535
0.0278124
0.0277998
0.0277631
0.0277542
0.0277145
0.0277066
0.02767
0.0276666
0.0276328
0.0276249
0.0275703
0.0275311
0.0274843
0.0274837
0.0275016
0.0275589
0.0275969
0.0276389
0.0276478
0.0276857
0.0276949
0.0277343
0.0277483
0.0277826
0.0278003
0.0278164
0.0278529
0.0286005
0.00962455
0.0114182
0.0107014
0.00960943
0.00941413
0.00957743
0.00973676
0.00983086
0.00992487
0.0100169
0.010941
0.0128812
0.0161323
0.0179113
0.00953823
0.0113722
0.0148041
0.0185003
0.0201936
0.0210694
0.021455
0.020415
0.0181926
0.015167
0.0124281
0.0107325
0.00969872
0.00903729
0.00875976
0.00841338
0.00824788
0.00824883
0.00804166
0.00820066
0.00826118
0.00868302
0.00937374
0.0102297
0.0110831
0.0128321
0.0147407
0.0164397
0.0177398
0.0186805
0.00816325
0.00838953
0.00844047
0.00842586
0.00836348
0.00828412
0.00825306
0.00819086
0.00822181
0.00814684
0.00822285
0.00816749
0.00821163
0.00823088
0.0082052
0.00828486
0.00820771
0.00829802
0.00822438
0.00828466
0.00827304
0.00829398
0.00843154
0.00840824
0.00872243
0.00870754
0.00906078
0.00907148
0.00932751
0.00898158
0.00779386
0.00821144
0.00826235
0.00830406
0.00830065
0.00833342
0.00833591
0.00837802
0.00837214
0.00842636
0.00841174
0.00845825
0.00846473
0.00852043
0.00854336
0.00855198
0.00853349
0.00850425
0.00849599
0.00848512
0.00848596
0.00847308
0.00846865
0.00845577
0.00844715
0.00843628
0.0084333
0.00842555
0.00841734
0.00783003
0.00782922
0.0084521
0.00847481
0.00849327
0.00850619
0.00851882
0.00854087
0.0085604
0.00857904
0.0085956
0.00861248
0.00863427
0.00867665
0.0087219
0.00873209
0.00873882
0.00871349
0.00867191
0.00863612
0.00861669
0.00860125
0.00858625
0.00856867
0.00855175
0.00852977
0.00851747
0.00850957
0.0084931
0.008471
0.00782956
0.00782918
0.0084649
0.00849072
0.00850772
0.00851841
0.00853418
0.00854901
0.00856626
0.00858044
0.00859888
0.00861343
0.00863615
0.00868127
0.00871629
0.00873934
0.00873684
0.00871151
0.0086728
0.00863916
0.00861784
0.00860502
0.0085878
0.00857392
0.00855644
0.0085389
0.00852242
0.00850865
0.00849519
0.00847187
0.00782961
0.00782953
0.00847095
0.00849377
0.00851181
0.00851522
0.00853231
0.00855366
0.00857035
0.0085882
0.00860335
0.00861892
0.00863718
0.00867221
0.00870772
0.00873216
0.00873938
0.00872309
0.00868006
0.00863666
0.00861078
0.00859191
0.00857091
0.00855737
0.00854141
0.008527
0.00851227
0.00850277
0.00848747
0.00846189
0.00782917
0.00783013
0.0084725
0.00849235
0.00851134
0.00852758
0.00854149
0.00856085
0.00857525
0.0085907
0.00860357
0.00861773
0.00863702
0.00867484
0.00871348
0.00873918
0.00873962
0.00871555
0.00867548
0.00863914
0.00861757
0.00860491
0.00858802
0.00857411
0.00855666
0.00853931
0.00852324
0.00850896
0.00849535
0.00847167
0.00782958
0.00782967
0.00846424
0.00849108
0.00850793
0.00852201
0.00853637
0.00855364
0.00856826
0.00858338
0.00859732
0.00861188
0.00863118
0.00867127
0.00871382
0.00873923
0.00873896
0.00871524
0.00867663
0.00864052
0.00861819
0.00860509
0.00858801
0.00857393
0.0085562
0.00853867
0.00852261
0.00850849
0.00849497
0.0084717
0.00782959
0.00782931
0.00847037
0.00849442
0.00851302
0.00852603
0.00854233
0.00855872
0.00857495
0.00858795
0.00860281
0.00861444
0.00863412
0.00866646
0.00870606
0.00873172
0.00874134
0.00872423
0.00868221
0.00863176
0.00860711
0.00859604
0.00857643
0.00856144
0.00854449
0.0085297
0.00851417
0.00850387
0.00848758
0.00846354
0.00782925
0.00782981
0.00846945
0.00849442
0.00851096
0.00852463
0.0085388
0.00855601
0.00857108
0.00858596
0.00859914
0.00861306
0.00863152
0.00866931
0.00871048
0.00873753
0.00874046
0.00871802
0.00867935
0.0086417
0.0086188
0.00860505
0.00858742
0.00857325
0.00855562
0.00853812
0.00852155
0.0085074
0.00849483
0.00847172
0.00782959
0.00782965
0.00847313
0.00849451
0.00850489
0.00852078
0.00853605
0.00855629
0.00857231
0.00858974
0.00860432
0.00861965
0.00863993
0.00867634
0.00871354
0.0087406
0.00873995
0.00871545
0.00867574
0.00863798
0.00861779
0.00860304
0.0085889
0.00857223
0.00855704
0.00853772
0.00852401
0.00850874
0.00849545
0.00847255
0.0078298
0.00782993
0.00847046
0.00849666
0.00851411
0.00852953
0.00854385
0.00856112
0.00857586
0.00859052
0.00860259
0.0086157
0.00863167
0.00866457
0.00870465
0.00873369
0.00874218
0.00872029
0.00868217
0.00864385
0.00862179
0.00860704
0.0085899
0.00857522
0.008557
0.00853959
0.00852227
0.00850671
0.00849461
0.0084722
0.0078296
0.0128265
0.0152575
0.0143959
0.01201
0.0103805
0.010822
0.0116036
0.0118098
0.0112338
0.0101503
0.00941433
0.00850958
0.00939547
0.0110883
0.0118263
0.0211328
0.0271795
0.0300033
0.0320874
0.0333457
0.0347624
0.0353575
0.034576
0.0322919
0.0273118
0.021369
0.0169884
0.0144355
0.0129393
0.0118514
0.0112045
0.0104615
0.0100152
0.00956493
0.00923967
0.00894125
0.0087542
0.00866682
0.00862911
0.00855372
0.00869843
0.00902382
0.00947959
0.00969024
0.0109942
0.0122524
0.0121029
0.0116425
0.0111736
0.010826
0.0104262
0.0101415
0.0098063
0.00961705
0.00940907
0.00924412
0.00915658
0.00899629
0.00897673
0.00884227
0.0088344
0.00874587
0.00873116
0.00867713
0.00865499
0.00862442
0.00860554
0.00856515
0.00858148
0.00852567
0.00857672
0.00851837
0.00855011
0.00843181
0.00879743
0.00880185
0.00879304
0.00874421
0.00873018
0.00869287
0.00867917
0.008656
0.00864462
0.00862729
0.00862279
0.0086078
0.00860866
0.00859723
0.00859728
0.00859195
0.00859066
0.00858806
0.0085872
0.00858572
0.00858486
0.00858445
0.0085841
0.00858418
0.00858405
0.00858443
0.00858534
0.00858422
0.00858198
0.00847839
0.00847726
0.00858692
0.00859325
0.00859205
0.00859436
0.00859371
0.00859455
0.00859568
0.00859516
0.00859689
0.00859556
0.00859749
0.00859627
0.00859858
0.00859789
0.0085975
0.00859854
0.00859616
0.00859744
0.00859541
0.00859692
0.00859492
0.00859639
0.00859448
0.00859559
0.00859509
0.00859387
0.00859495
0.00858818
0.0084748
0.008475
0.00858852
0.00859485
0.00859371
0.00859562
0.00859418
0.00859608
0.00859465
0.00859663
0.00859525
0.00859732
0.0085959
0.00859755
0.0085983
0.00859741
0.00859909
0.00859681
0.00859793
0.00859572
0.0085972
0.00859519
0.00859665
0.00859478
0.00859609
0.00859434
0.00859534
0.00859417
0.00859328
0.00858806
0.00847609
0.00847479
0.00858818
0.0085949
0.00859395
0.00859461
0.00859563
0.00859443
0.00859637
0.00859491
0.00859693
0.00859541
0.00859746
0.00859615
0.00859844
0.00859718
0.00859905
0.00859706
0.00859804
0.00859585
0.0085972
0.00859528
0.00859654
0.00859466
0.00859595
0.00859412
0.00859551
0.00859364
0.00859471
0.00858867
0.00847493
0.00847488
0.00858862
0.00859371
0.00859502
0.00859406
0.0085959
0.00859448
0.00859643
0.00859492
0.00859696
0.00859545
0.00859751
0.00859623
0.00859857
0.0085974
0.0085991
0.00859691
0.00859794
0.00859576
0.0085972
0.00859522
0.00859666
0.00859479
0.0085961
0.00859435
0.00859539
0.00859409
0.00859329
0.00858804
0.00847612
0.0084759
0.00858851
0.00859311
0.0085952
0.00859407
0.00859584
0.00859452
0.00859639
0.00859496
0.0085969
0.00859546
0.00859745
0.00859623
0.00859856
0.00859743
0.00859908
0.00859689
0.00859795
0.00859577
0.0085972
0.00859521
0.00859665
0.00859478
0.00859609
0.00859435
0.00859536
0.00859414
0.00859331
0.00858798
0.00847616
0.00847637
0.00858811
0.00859438
0.0085937
0.00859562
0.00859429
0.00859612
0.00859471
0.00859664
0.00859516
0.00859718
0.0085957
0.00859785
0.00859672
0.00859893
0.00859743
0.00859868
0.00859639
0.00859729
0.0085958
0.00859531
0.00859655
0.0085947
0.00859598
0.00859412
0.00859551
0.0085936
0.00859476
0.00858857
0.00847495
0.0084763
0.00858821
0.00859312
0.00859527
0.00859413
0.0085959
0.00859457
0.00859642
0.00859499
0.00859692
0.00859546
0.00859744
0.00859619
0.0085985
0.00859738
0.0085991
0.00859694
0.00859797
0.00859578
0.0085972
0.00859523
0.00859665
0.00859479
0.00859608
0.00859435
0.00859531
0.00859421
0.00859327
0.00858808
0.00847607
0.00847491
0.00858822
0.00859487
0.00859459
0.00859409
0.00859584
0.00859445
0.00859639
0.00859491
0.00859693
0.00859542
0.00859745
0.00859619
0.00859849
0.0085975
0.00859755
0.0085985
0.00859621
0.00859742
0.00859543
0.00859694
0.00859493
0.00859643
0.00859449
0.00859595
0.0085941
0.00859502
0.0085947
0.00858836
0.008475
0.00847617
0.00858836
0.00859312
0.00859526
0.008594
0.00859593
0.00859447
0.00859647
0.00859487
0.008597
0.00859532
0.0085975
0.00859606
0.00859848
0.00859725
0.00859914
0.00859706
0.00859811
0.00859593
0.00859744
0.00859547
0.00859696
0.00859503
0.00859639
0.00859459
0.00859549
0.0085945
0.00859346
0.00858802
0.00847618
0.0256316
0.0268192
0.0259861
0.0218453
0.0184139
0.0173707
0.016729
0.0154935
0.0150878
0.0143737
0.0123073
0.0110736
0.00946659
0.00863479
0.0170348
0.0282712
0.0308444
0.0311605
0.0311616
0.031919
0.0340947
0.0374749
0.041541
0.0435206
0.0411965
0.0361094
0.0285038
0.02263
0.0188534
0.016902
0.0154747
0.0144905
0.0135526
0.0128181
0.0122819
0.0116591
0.0111334
0.0106559
0.0102197
0.00985373
0.00938478
0.00914328
0.00901846
0.00892587
0.0154997
0.0192412
0.0193815
0.0183317
0.0169748
0.0156718
0.0146858
0.0139093
0.0133426
0.0128318
0.012516
0.0121822
0.011996
0.0117765
0.0116615
0.0114986
0.0114274
0.0113104
0.0112457
0.0111828
0.0110985
0.0110885
0.0109754
0.0109774
0.0108475
0.0108158
0.0106738
0.0106294
0.0105021
0.0104608
0.0113993
0.0114033
0.0113193
0.0112792
0.0112095
0.011168
0.0111187
0.0110869
0.0110534
0.0110353
0.0110056
0.0110033
0.0109727
0.0109821
0.0109503
0.0109665
0.0109337
0.0109551
0.0109228
0.0109444
0.0109181
0.0109354
0.0109165
0.0109285
0.0109164
0.0109235
0.0109156
0.0109221
0.0109133
0.0109113
0.0109064
0.0109153
0.0109125
0.0109168
0.0109127
0.0109136
0.0109148
0.0109127
0.0109154
0.0109123
0.0109159
0.0109121
0.0109161
0.0109133
0.0109143
0.0109163
0.0109121
0.0109161
0.0109114
0.010916
0.0109113
0.010916
0.0109117
0.0109157
0.0109123
0.010913
0.0109159
0.0109122
0.0109142
0.010903
0.0109034
0.0109142
0.0109118
0.010916
0.0109116
0.010916
0.0109115
0.0109161
0.0109114
0.0109161
0.0109117
0.010916
0.010913
0.0109129
0.0109162
0.0109121
0.0109163
0.0109118
0.010916
0.0109114
0.0109161
0.0109116
0.0109164
0.0109122
0.0109165
0.0109132
0.0109154
0.0109162
0.0109123
0.0109069
0.0109032
0.0109144
0.0109125
0.0109159
0.0109141
0.0109124
0.0109159
0.0109117
0.010916
0.0109112
0.010916
0.0109113
0.0109161
0.0109119
0.0109162
0.0109122
0.0109163
0.0109121
0.0109163
0.0109121
0.0109164
0.010912
0.0109162
0.0109118
0.0109161
0.0109118
0.010916
0.0109121
0.0109144
0.0109034
0.0109038
0.0109138
0.0109144
0.0109124
0.010916
0.0109117
0.0109161
0.0109114
0.010916
0.0109112
0.0109161
0.0109115
0.0109164
0.0109123
0.0109165
0.0109125
0.0109165
0.010912
0.0109162
0.0109116
0.0109162
0.0109117
0.0109164
0.0109122
0.0109165
0.0109131
0.0109159
0.0109162
0.0109125
0.010907
0.0109064
0.0109122
0.0109164
0.0109124
0.0109166
0.010912
0.0109163
0.0109117
0.0109162
0.0109114
0.0109163
0.0109118
0.0109164
0.0109124
0.0109165
0.0109124
0.0109165
0.010912
0.0109162
0.0109116
0.0109162
0.0109117
0.0109164
0.0109122
0.0109165
0.0109132
0.0109158
0.0109163
0.0109124
0.010907
0.0109059
0.0109129
0.0109138
0.0109161
0.0109121
0.0109162
0.0109117
0.0109162
0.0109114
0.0109161
0.0109114
0.0109162
0.0109119
0.0109163
0.0109123
0.0109164
0.0109125
0.0109164
0.0109131
0.0109151
0.0109156
0.0109122
0.0109163
0.0109117
0.010916
0.0109117
0.010916
0.0109116
0.0109144
0.0109033
0.0109068
0.0109121
0.0109166
0.0109124
0.0109166
0.010912
0.0109164
0.0109117
0.0109162
0.0109114
0.0109162
0.0109117
0.0109164
0.0109124
0.0109166
0.0109125
0.0109165
0.0109121
0.0109162
0.0109116
0.0109162
0.0109118
0.0109164
0.0109123
0.0109165
0.0109132
0.0109154
0.0109162
0.0109123
0.0109068
0.010903
0.0109141
0.010913
0.010914
0.0109152
0.0109119
0.0109161
0.0109116
0.0109161
0.0109113
0.0109162
0.0109116
0.0109164
0.0109125
0.0109163
0.010916
0.0109128
0.0109165
0.0109117
0.0109162
0.0109113
0.010916
0.0109114
0.010916
0.0109116
0.0109156
0.010913
0.0109132
0.0109138
0.0109029
0.0109066
0.010912
0.0109167
0.0109122
0.0109167
0.0109117
0.0109166
0.0109115
0.0109164
0.010911
0.0109163
0.0109113
0.0109166
0.0109121
0.0109168
0.0109127
0.0109169
0.0109125
0.0109167
0.0109118
0.0109164
0.0109118
0.0109166
0.0109124
0.0109166
0.0109132
0.0109153
0.0109162
0.0109122
0.0109068
0.0289634
0.0290619
0.0289813
0.0281556
0.0263574
0.0245399
0.0229722
0.0213704
0.0194363
0.0171875
0.0164258
0.014677
0.0116483
0.00937203
0.0209233
0.0287997
0.0275205
0.0264068
0.0242728
0.0243891
0.0262888
0.0307515
0.0361142
0.0420866
0.048679
0.0466416
0.0412908
0.034133
0.0280722
0.0239064
0.0216117
0.0199494
0.0186154
0.0174564
0.0164338
0.015536
0.0145857
0.0138971
0.0130618
0.0123038
0.0115822
0.0107568
0.0100344
0.00943407
0.0217057
0.0279551
0.0295688
0.0288778
0.0262738
0.0233894
0.0210219
0.0194356
0.0182557
0.0174431
0.0167105
0.0162733
0.015761
0.0155003
0.0151624
0.0149525
0.0147431
0.0145504
0.0144062
0.0142407
0.0141225
0.0139765
0.0138669
0.0137338
0.0136196
0.0134903
0.0133481
0.0132145
0.0130342
0.0128402
0.0149003
0.0148467
0.0146985
0.0144723
0.0143527
0.0141953
0.0141106
0.0140111
0.0139482
0.0138868
0.0138398
0.0138007
0.0137678
0.0137406
0.0137179
0.013702
0.0136766
0.0136775
0.013644
0.0136618
0.0136238
0.0136449
0.0136145
0.0136326
0.0136093
0.0136236
0.013607
0.0136167
0.0136014
0.0134868
0.013492
0.0136073
0.0136131
0.0136109
0.0136112
0.013608
0.0136113
0.0136083
0.0136112
0.0136095
0.0136116
0.0136105
0.0136117
0.0136118
0.0136104
0.0136118
0.013611
0.0136113
0.0136103
0.0136108
0.0136102
0.0136105
0.0136102
0.0136106
0.01361
0.0136101
0.0136111
0.0136107
0.0136042
0.0134791
0.0134784
0.0136038
0.0136102
0.013611
0.0136103
0.0136104
0.01361
0.0136105
0.0136102
0.0136108
0.0136106
0.0136111
0.0136109
0.0136114
0.0136115
0.013611
0.0136114
0.0136107
0.0136108
0.0136102
0.0136107
0.0136102
0.0136107
0.0136105
0.013611
0.013611
0.0136114
0.0136113
0.0136049
0.0134777
0.0134792
0.0136044
0.0136109
0.0136112
0.0136102
0.0136101
0.0136106
0.0136102
0.0136105
0.0136101
0.0136106
0.0136101
0.013611
0.0136107
0.0136112
0.0136109
0.0136114
0.0136109
0.0136111
0.0136109
0.0136114
0.0136105
0.0136107
0.0136102
0.0136105
0.0136103
0.0136109
0.0136103
0.0136042
0.013478
0.0134792
0.0136043
0.0136104
0.0136103
0.0136108
0.0136102
0.0136105
0.01361
0.0136105
0.0136101
0.0136108
0.0136106
0.0136115
0.0136113
0.0136118
0.0136114
0.0136117
0.0136109
0.013611
0.0136104
0.0136108
0.0136102
0.0136107
0.0136105
0.013611
0.013611
0.0136116
0.0136115
0.0136049
0.0134777
0.0134781
0.0136046
0.0136112
0.0136111
0.0136112
0.0136103
0.0136106
0.0136101
0.0136106
0.0136102
0.013611
0.0136107
0.0136115
0.0136113
0.0136118
0.0136113
0.0136116
0.0136109
0.013611
0.0136103
0.0136108
0.0136102
0.0136107
0.0136105
0.013611
0.013611
0.0136117
0.0136115
0.0136049
0.0134777
0.0134777
0.0136047
0.0136111
0.0136112
0.0136106
0.0136107
0.0136101
0.0136105
0.01361
0.0136106
0.0136103
0.0136109
0.0136108
0.0136114
0.013611
0.0136116
0.0136112
0.0136117
0.0136111
0.0136111
0.0136109
0.0136105
0.0136108
0.0136102
0.0136104
0.0136103
0.013611
0.01361
0.0136039
0.0134791
0.0134774
0.0136048
0.0136116
0.0136112
0.0136113
0.0136103
0.0136107
0.0136101
0.0136106
0.0136102
0.0136109
0.0136106
0.0136115
0.0136113
0.0136118
0.0136113
0.0136116
0.0136109
0.013611
0.0136104
0.0136108
0.0136103
0.0136108
0.0136106
0.013611
0.0136109
0.0136115
0.0136113
0.0136049
0.0134777
0.0134791
0.0136043
0.0136111
0.0136107
0.0136103
0.0136102
0.0136106
0.0136101
0.0136106
0.0136102
0.013611
0.0136105
0.0136115
0.0136114
0.0136117
0.0136118
0.0136115
0.0136116
0.0136106
0.013611
0.0136102
0.0136105
0.0136101
0.0136105
0.0136102
0.0136106
0.0136108
0.0136109
0.0136041
0.0134789
0.0134774
0.0136046
0.0136114
0.013611
0.0136112
0.0136103
0.0136107
0.0136101
0.0136106
0.0136102
0.0136109
0.0136107
0.0136118
0.0136117
0.0136125
0.0136121
0.0136126
0.0136118
0.0136119
0.0136112
0.0136114
0.0136108
0.0136112
0.013611
0.0136114
0.0136106
0.0136114
0.0136112
0.0136044
0.0134774
0.0289448
0.0288693
0.0291492
0.0295636
0.0294645
0.0283709
0.0267556
0.0253872
0.0247174
0.0235741
0.0207509
0.0192402
0.0146597
0.0111117
0.0242546
0.0249382
0.0239284
0.0209542
0.0214847
0.0225014
0.0242817
0.0271335
0.0319688
0.0399884
0.0479774
0.0532796
0.0488974
0.044801
0.0387612
0.0331312
0.0292837
0.0270195
0.025305
0.023809
0.0225222
0.0212955
0.0202515
0.0190726
0.0181536
0.0167992
0.0156133
0.0141598
0.0126146
0.0108439
0.027645
0.0318303
0.0356124
0.0386165
0.0378525
0.0338686
0.0297609
0.0267763
0.0249891
0.0236542
0.0227703
0.0220016
0.0214552
0.021015
0.0206393
0.0203635
0.0201116
0.0198804
0.0197282
0.0195051
0.0194105
0.0191995
0.0191219
0.0189134
0.0187936
0.0185426
0.0183143
0.0179854
0.0175766
0.0171937
0.0207415
0.0205903
0.0201487
0.0198816
0.0196122
0.0194669
0.0193036
0.0192266
0.0191224
0.0190759
0.0190046
0.018982
0.0189195
0.0189212
0.0188586
0.0188771
0.0188154
0.0188438
0.0187865
0.0188175
0.0187685
0.0187954
0.0187564
0.0187787
0.0187486
0.0187657
0.0187435
0.018753
0.0187386
0.0187796
0.0187938
0.0187434
0.0187381
0.0187382
0.0187335
0.0187331
0.0187306
0.0187304
0.0187292
0.0187289
0.0187291
0.0187283
0.0187291
0.0187285
0.0187278
0.0187289
0.0187277
0.0187289
0.0187274
0.0187292
0.0187275
0.0187292
0.0187277
0.0187294
0.0187286
0.0187288
0.0187305
0.0187293
0.0187305
0.0187762
0.018776
0.0187311
0.0187293
0.0187308
0.0187287
0.0187299
0.0187279
0.0187295
0.0187276
0.0187294
0.0187277
0.0187287
0.018728
0.0187283
0.0187284
0.0187275
0.0187286
0.0187274
0.0187289
0.0187274
0.0187294
0.0187276
0.0187296
0.0187283
0.0187301
0.0187295
0.0187304
0.0187307
0.0187309
0.0187755
0.0187764
0.0187306
0.0187295
0.0187306
0.0187288
0.0187286
0.0187295
0.0187277
0.0187292
0.0187274
0.0187291
0.0187271
0.0187287
0.0187274
0.0187285
0.0187277
0.0187287
0.0187277
0.0187291
0.018728
0.0187297
0.0187279
0.0187296
0.0187281
0.01873
0.0187289
0.0187306
0.0187292
0.0187313
0.0187758
0.0187765
0.0187301
0.0187294
0.0187295
0.0187303
0.0187283
0.0187296
0.0187275
0.0187293
0.0187274
0.0187292
0.0187275
0.018729
0.0187277
0.0187288
0.0187279
0.0187288
0.0187275
0.018729
0.0187275
0.0187294
0.0187276
0.0187296
0.0187283
0.0187302
0.0187296
0.0187307
0.0187307
0.018731
0.0187755
0.0187756
0.018731
0.0187312
0.0187298
0.0187307
0.0187284
0.0187298
0.0187276
0.0187293
0.0187275
0.0187292
0.0187275
0.018729
0.0187277
0.0187288
0.0187278
0.0187287
0.0187275
0.018729
0.0187274
0.0187294
0.0187275
0.0187296
0.0187283
0.0187302
0.0187295
0.0187306
0.0187308
0.018731
0.0187755
0.0187751
0.0187311
0.0187301
0.0187308
0.018729
0.01873
0.0187279
0.0187294
0.0187274
0.0187292
0.0187273
0.0187289
0.0187275
0.0187287
0.0187277
0.0187288
0.0187279
0.0187289
0.0187285
0.0187283
0.018729
0.0187281
0.0187297
0.018728
0.01873
0.0187288
0.0187308
0.018729
0.0187307
0.0187763
0.0187751
0.0187307
0.0187313
0.0187298
0.0187308
0.0187283
0.0187298
0.0187275
0.0187293
0.0187275
0.0187292
0.0187275
0.018729
0.0187277
0.0187288
0.0187279
0.0187287
0.0187276
0.018729
0.0187275
0.0187294
0.0187277
0.0187296
0.0187283
0.0187301
0.0187295
0.0187304
0.0187307
0.018731
0.0187755
0.0187762
0.0187304
0.0187299
0.0187294
0.0187296
0.0187284
0.0187297
0.0187277
0.0187293
0.0187276
0.0187293
0.0187273
0.0187291
0.0187278
0.0187286
0.0187283
0.0187279
0.018729
0.0187273
0.0187292
0.0187275
0.0187293
0.0187275
0.0187295
0.0187283
0.0187298
0.0187298
0.0187299
0.0187301
0.0187762
0.0187751
0.0187307
0.0187313
0.0187296
0.018731
0.0187282
0.0187301
0.0187274
0.0187296
0.0187271
0.0187294
0.0187271
0.018729
0.0187274
0.0187289
0.0187276
0.0187286
0.0187272
0.0187287
0.0187271
0.0187291
0.0187271
0.0187292
0.0187276
0.0187297
0.0187288
0.0187298
0.01873
0.0187302
0.0187752
0.0290771
0.0298017
0.0317547
0.0329584
0.0331875
0.0313365
0.0293474
0.0282296
0.0273604
0.0257651
0.0249991
0.0206763
0.0161877
0.0131522
0.0243875
0.02158
0.0175486
0.0205028
0.0221642
0.0232625
0.02466
0.0271379
0.0307162
0.0369049
0.0479075
0.0545851
0.0564894
0.0519507
0.0487394
0.043501
0.0387238
0.0354649
0.0332531
0.031458
0.0297209
0.0281289
0.0265987
0.0250901
0.0236364
0.0219989
0.020147
0.0180181
0.0149931
0.0120235
0.0261361
0.0280621
0.0340672
0.0416166
0.0460245
0.0443334
0.0395114
0.0353531
0.0326659
0.0310601
0.0296993
0.0288188
0.0278892
0.0273679
0.0267304
0.0263698
0.025943
0.0256225
0.0253443
0.0249968
0.0248481
0.0244401
0.0243455
0.0239528
0.0238008
0.0234174
0.0231132
0.0226096
0.0219883
0.0214118
0.027411
0.0271396
0.0264158
0.0257071
0.0252721
0.0248901
0.024676
0.024461
0.0243374
0.024205
0.024118
0.0240406
0.0239672
0.0239274
0.0238663
0.0238413
0.0237967
0.0237816
0.0237452
0.0237382
0.023709
0.0237071
0.0236808
0.0236849
0.0236599
0.0236657
0.0236402
0.02364
0.0236167
0.0236456
0.0236963
0.0236467
0.0236411
0.0236394
0.0236394
0.0236367
0.023639
0.0236362
0.0236385
0.0236367
0.0236387
0.0236383
0.0236394
0.0236394
0.0236383
0.0236391
0.0236389
0.0236387
0.0236387
0.0236387
0.0236386
0.0236385
0.0236382
0.0236386
0.0236373
0.023636
0.0236346
0.023631
0.0236279
0.0236698
0.0236689
0.0236278
0.0236309
0.0236345
0.0236365
0.0236375
0.0236384
0.0236383
0.0236386
0.0236388
0.023639
0.0236386
0.023639
0.0236389
0.0236386
0.0236385
0.0236385
0.0236386
0.0236385
0.0236386
0.0236384
0.0236383
0.0236383
0.0236383
0.0236378
0.0236365
0.0236344
0.0236311
0.0236284
0.0236684
0.0236698
0.0236279
0.023631
0.0236347
0.0236356
0.0236372
0.0236385
0.0236381
0.0236384
0.0236383
0.0236385
0.0236384
0.0236384
0.0236384
0.0236383
0.0236386
0.0236385
0.0236387
0.023639
0.0236395
0.0236393
0.0236389
0.0236387
0.0236384
0.0236374
0.0236366
0.0236341
0.0236306
0.0236278
0.0236686
0.0236697
0.023628
0.0236301
0.0236344
0.0236365
0.0236376
0.0236381
0.0236383
0.0236383
0.0236385
0.0236387
0.0236389
0.0236388
0.0236389
0.0236387
0.0236389
0.0236387
0.0236388
0.0236387
0.0236388
0.0236386
0.0236384
0.0236383
0.0236385
0.0236378
0.0236367
0.0236348
0.0236312
0.0236284
0.0236686
0.0236691
0.0236286
0.0236311
0.0236349
0.0236365
0.0236376
0.0236381
0.0236383
0.0236383
0.0236386
0.0236388
0.0236389
0.0236388
0.0236389
0.0236387
0.0236388
0.0236387
0.0236388
0.0236386
0.0236387
0.0236385
0.0236384
0.0236383
0.0236384
0.0236379
0.0236366
0.0236347
0.0236312
0.0236284
0.0236686
0.0236681
0.0236287