/*--------------------------------*- C++ -*----------------------------------*\
| =========                 |                                                 |
| \\      /  F ield         | OpenFOAM: The Open Source CFD Toolbox           |
|  \\    /   O peration     | Version:  2.1.1                                 |
|   \\  /    A nd           | Web:      www.OpenFOAM.org                      |
|    \\/     M anipulation  |                                                 |
\*---------------------------------------------------------------------------*/
FoamFile
{
    version     2.0;
    format      ascii;
    class       volScalarField;
    location    "0.001250000";
    object      Tu;
}
// * * * * * * * * * * * * * * * * * * * * * * * * * * * * * * * * * * * * * //

dimensions      [0 0 0 1 0 0 0];

internalField   nonuniform List<scalar> 
12384
(
270.022
294.997
314.955
320.985
321.356
321.444
322.296
322.45
323.54
322.057
322.569
320.44
321.643
321.048
327.851
327.918
329.412
330.178
331.329
330.78
330.989
331.51
330.895
330.243
329.031
329.791
332.365
334.074
335.469
334.948
335.317
333.633
333.255
333.069
327.912
327.396
326.064
322.385
323.609
325.773
327.434
330.204
332.783
335.068
308.083
308.289
308.145
308.185
307.969
307.792
307.554
307.246
307.197
306.757
306.88
306.491
306.593
306.06
306.149
305.113
305.403
304.043
304.279
303.751
303.178
303.389
302.769
302.942
302.425
302.578
302.045
302.198
301.906
302.009
295.578
295.686
295.531
295.546
295.458
295.299
295.329
295.087
295.138
294.851
294.849
294.701
294.522
294.501
294.251
294.312
294.004
294.092
293.795
293.832
293.715
293.564
293.625
293.461
293.519
293.427
293.436
293.435
293.416
293.424
293.031
293.025
293.026
293.02
293.022
293.017
293.015
293.013
293.01
293.011
293.007
293.008
293.004
293.005
293.004
293.004
293.003
293.003
293.004
293.004
293.004
293.003
293.003
293.002
293.003
293.003
293.002
293.002
293.002
293.002
293.002
293.002
293.002
293.002
293.004
293.002
293.003
293.003
293.004
293.002
293.004
293.003
293.003
293.004
293.003
293.003
293.003
293.003
293.004
293.004
293.002
293.004
293.003
293.002
293.002
293.003
293.002
293.003
293.002
293.002
293.002
293.002
293.002
293.002
293.003
293.002
293.003
293.003
293.003
293.004
293.004
293.004
293.002
293.003
293.003
293.003
293.003
293.003
293.004
293.004
293.002
293.004
293.003
293.002
293.002
293.003
293.002
293.002
293.002
293.002
293.002
293.003
293.003
293.002
293.003
293.002
293.002
293.003
293.003
293.004
293.004
293.004
293.002
293.003
293.003
293.003
293.003
293.003
293.004
293.004
293.002
293.004
293.003
293.002
293.002
293.003
293.002
293.002
293.002
293.002
293.002
293.002
293.002
293.003
293.003
293.002
293.002
293.003
293.003
293.004
293.004
293.004
293.002
293.003
293.003
293.003
293.003
293.003
293.004
293.004
293.002
293.004
293.003
293.003
293.002
293.004
293.002
293.003
293.002
293.002
293.002
293.003
293.002
293.002
293.004
293.002
293.003
293.003
293.004
293.002
293.004
293.004
293.003
293.002
293.003
293.003
293.003
293.002
293.004
293.004
293.003
293.003
293.003
293.003
293.002
293.004
293.002
293.002
293.002
293.002
293.002
293.002
293.002
293.002
293.004
293.002
293.002
293.003
293.003
293.004
293.004
293.004
293.002
293.003
293.002
293.003
293.002
293.003
293.004
293.004
293.002
293.004
293.003
293.002
293.002
293.004
293.002
293.002
293.002
293.002
293.002
293.003
293.003
293.003
293.004
293.003
293.002
293.003
293.002
293.004
293.003
293.004
293.003
293.003
293.002
293.003
293.003
293.002
293.004
293.004
293.003
293.002
293.003
293.003
293.002
293.003
293.002
293.003
293.002
293.002
293.001
293.001
293.002
293.002
293.003
293.002
293.002
293.002
293.002
293.003
293.003
293.004
293.002
293.003
293.004
293.004
293.004
293.004
293.003
293.003
293.002
293.003
293.003
293.003
293.003
293.004
293.003
293.003
293.003
293.003
270
270
285.733
314.289
322.476
323.6
324.224
324.815
323.927
324.275
323.407
323.768
321.62
321.878
326
330.181
332.568
332.58
331.88
331.161
330.122
330.445
331.884
332.224
332.16
330.348
330.526
332.118
333.354
334.864
333.941
333.875
333.023
331.465
330.207
326.23
327.498
322.696
323.797
325.859
326.941
329.733
332.026
334.23
308.319
308.142
308.16
307.886
307.894
307.795
307.532
307.566
307.086
307.069
306.654
306.673
306.273
306.341
305.646
305.632
304.789
304.798
303.812
303.998
303.232
303.264
302.796
302.88
302.463
302.3
302.313
301.849
302.075
301.871
295.795
295.647
295.703
295.524
295.54
295.383
295.286
295.232
295.004
295.061
294.733
294.835
294.472
294.597
294.227
294.328
294.067
294.001
293.941
293.722
293.799
293.555
293.629
293.496
293.475
293.468
293.419
293.434
293.422
293.413
293.025
293.034
293.031
293.029
293.028
293.019
293.02
293.014
293.013
293.011
293.008
293.007
293.005
293.006
293.004
293.003
293.005
293.002
293.004
293.001
293.004
293.001
293.004
293.001
293.004
293.003
293.001
293.004
293.002
293.004
293.004
293.002
293.004
293.001
293.004
293.001
293.004
293.001
293.004
293.001
293.004
293.001
293.004
293.004
293.001
293.004
293.002
293.004
293.002
293.004
293.001
293.004
293.001
293.004
293.001
293.003
293.001
293
293.002
293
293.004
293.003
293.004
293.001
293.001
293.004
293.001
293.004
293.001
293.004
293.001
293.003
293.002
293.004
293.002
293.004
293.002
293.004
293.001
293.004
293.001
293.004
293.001
293.004
293.001
293.004
293
293.004
293.002
293.005
293.003
293.002
293.001
293.004
293
293.004
293.001
293.004
293.001
293.004
293.001
293.004
293.001
293.004
293.001
293.004
293.002
293.004
293.001
293.004
293.001
293.004
293.001
293.004
293.001
293.003
293.001
293.001
293.002
293
293.001
293.003
293
293.003
293.001
293.004
293.001
293.004
293.001
293.004
293.001
293.004
293.001
293.004
293.001
293.004
293.002
293.004
293.002
293.004
293.001
293.004
293.001
293.004
293.001
293.003
293.001
293.001
293.003
293
293.001
293.002
293.004
293.001
293.004
293
293.004
293
293.004
293.001
293.004
293.001
293.004
293.002
293.005
293.002
293.004
293.002
293.004
293.002
293.001
293.005
293
293.003
293.001
293.004
293.001
293.004
293.002
293.005
293
293.003
293
293.004
293.001
293.004
293.001
293.004
293.001
293.004
293.001
293.004
293.001
293.004
293.002
293.004
293.002
293.004
293.001
293.004
293.001
293.004
293.001
293.004
293.001
293.003
293.001
293
293.003
293
293.005
293.003
293.004
293.003
293.001
293.004
293.001
293.004
293.001
293.004
293.001
293.004
293.001
293.004
293.002
293.002
293.004
293.001
293.003
293.001
293.004
293.001
293.004
293.001
293.004
293.001
293.004
293.003
293.003
293.005
293
293.003
293
293.003
293
293.003
293
293.003
293.001
293.004
293.001
293.003
293.001
293.004
293.002
293.004
293.002
293.004
293.002
293.004
293.001
293.004
293.001
293.004
293.001
293.003
293.001
293
293.003
293
342.146
279.194
289.269
296.856
312.695
319.893
323.09
325.449
326.159
326.004
325.24
324.006
324.012
321.56
334.735
334.212
333.538
332.126
330.744
330.255
329.32
329.474
331.425
333.462
333.832
333.157
330.49
329.789
331.367
332.345
333.401
333.078
331.823
331.669
329.725
328.34
327.101
324.849
324.018
325.871
326.938
329.068
331.151
332.719
308.243
308.6
308.435
308.647
308.493
308.404
307.907
307.553
307.559
306.981
307.001
306.478
306.217
306.21
305.495
305.698
304.637
305.02
303.658
304.177
303.023
303.468
302.549
302.928
302.341
302.219
302.228
301.779
301.916
301.635
295.673
295.782
295.637
295.708
295.483
295.434
295.349
295.18
295.046
295.053
294.718
294.835
294.461
294.594
294.251
294.271
294.14
293.929
293.986
293.726
293.768
293.593
293.583
293.509
293.454
293.471
293.396
293.429
293.398
293.407
293.039
293.029
293.032
293.022
293.025
293.022
293.015
293.016
293.012
293.012
293.007
293.008
293.005
293.005
293.005
293.004
293.004
293.004
293.003
293.003
293.004
293.004
293.003
293.003
293.002
293.004
293.003
293.002
293.002
293.002
293.003
293.003
293.002
293.003
293.003
293.003
293.003
293.003
293.004
293.003
293.003
293.003
293.003
293.003
293.004
293.004
293.004
293.004
293.003
293.003
293.003
293.004
293.003
293.003
293.003
293.003
293.003
293.002
293.002
293.003
293.002
293.002
293.002
293.003
293.004
293.003
293.003
293.003
293.004
293.004
293.003
293.003
293.003
293.003
293.003
293.003
293.003
293.004
293.004
293.004
293.004
293.004
293.003
293.003
293.003
293.003
293.003
293.002
293.003
293.003
293.002
293.003
293.003
293.002
293.003
293.002
293.003
293.003
293.004
293.003
293.003
293.003
293.003
293.004
293.003
293.003
293.003
293.004
293.003
293.003
293.003
293.004
293.003
293.003
293.002
293.003
293.003
293.002
293.002
293.003
293.003
293.003
293.003
293.002
293.003
293.002
293.003
293.003
293.004
293.003
293.003
293.004
293.003
293.004
293.003
293.003
293.003
293.004
293.003
293.003
293.003
293.004
293.003
293.003
293.003
293.003
293.003
293.002
293.002
293.003
293.003
293.003
293.002
293.003
293.003
293.003
293.003
293.003
293.004
293.003
293.003
293.004
293.004
293.004
293.003
293.003
293.004
293.004
293.004
293.004
293.003
293.004
293.003
293.003
293.003
293.003
293.003
293.002
293.003
293.003
293.003
293.003
293.002
293.003
293.003
293.003
293.003
293.003
293.004
293.003
293.003
293.004
293.003
293.004
293.003
293.003
293.003
293.003
293.003
293.003
293.003
293.004
293.003
293.003
293.002
293.003
293.003
293.002
293.002
293.003
293.002
293.002
293.002
293.003
293.004
293.002
293.003
293.003
293.004
293.003
293.003
293.003
293.003
293.003
293.003
293.003
293.003
293.003
293.003
293.003
293.003
293.004
293.003
293.003
293.002
293.003
293.002
293.002
293.002
293.002
293.003
293.001
293.002
293.002
293.003
293.002
293.003
293.002
293.004
293.003
293.003
293.003
293.003
293.003
293.003
293.004
293.003
293.003
293.004
293.003
293.003
293.003
293.004
293.003
293.002
293.004
293.004
293.002
293.004
293.004
412.748
360.855
301.844
270
270
270
270
292.709
320.838
325.842
326.683
326.023
324.099
324.678
337.786
335.413
329.823
326.331
323.271
322.676
325.381
327.644
331.088
331.962
334.046
333.466
331.193
329.479
328.539
330.322
331.557
331.238
331.802
330.533
330.695
329.112
328.562
326.706
326.429
326.451
326.554
328.215
329.1
330.638
308.653
308.619
308.902
308.899
308.69
308.248
308.464
307.883
307.418
307.446
306.613
306.763
305.845
306.084
305.351
305.61
304.677
305.024
303.839
304.193
303.007
303.5
302.555
302.852
302.413
302.076
302.265
301.694
301.914
301.554
296.02
295.877
295.903
295.597
295.696
295.42
295.327
295.309
295.016
295.086
294.793
294.712
294.642
294.382
294.441
294.124
294.229
293.936
293.968
293.811
293.708
293.686
293.534
293.581
293.42
293.499
293.395
293.41
293.406
293.39
293.03
293.045
293.031
293.042
293.026
293.019
293.025
293.012
293.018
293.009
293.011
293.006
293.006
293.006
293.004
293.004
293.003
293.003
293.003
293.002
293.003
293.002
293.002
293.001
293.001
293.002
293.001
293.002
293.001
293.002
293.002
293.001
293.002
293.001
293.001
293.001
293.001
293.001
293.002
293.002
293.003
293.003
293.003
293.003
293.003
293.003
293.002
293.003
293.002
293.002
293.002
293.002
293.001
293.001
293
293.002
293.001
293.001
293.001
293
293.002
293.001
293.002
293.001
293.001
293.001
293.001
293.001
293.002
293.002
293.002
293.002
293.002
293.003
293.002
293.003
293.002
293.002
293.002
293.002
293.002
293.002
293.001
293.001
293.001
293.002
293.001
293.002
293.001
293.002
293.002
293.001
293.001
293.001
293.001
293.001
293.001
293.001
293.002
293.002
293.002
293.002
293.002
293.003
293.002
293.003
293.002
293.003
293.002
293.002
293.002
293.002
293.001
293.001
293
293.002
293.001
293.001
293.001
293
293
293.002
293.001
293.002
293.001
293.001
293.001
293.001
293.002
293.002
293.002
293.002
293.003
293.003
293.002
293.003
293.002
293.003
293.002
293.002
293.002
293.002
293.001
293.001
293
293.002
293.001
293.001
293.001
293
293
293.001
293.002
293.001
293.001
293
293.001
293.001
293.002
293.002
293.002
293.002
293.003
293.002
293.003
293.002
293.003
293.002
293.003
293.002
293.002
293.002
293.001
293.001
293.001
293.002
293.001
293.002
293.001
293.002
293
293.002
293.001
293.001
293.001
293.001
293.001
293.001
293.002
293.002
293.002
293.002
293.003
293.003
293.002
293.003
293.002
293.003
293.002
293.002
293.002
293.002
293.001
293.001
293
293.002
293
293.001
293.001
292.999
293.002
293.001
293.002
293.002
293.001
293.001
293.001
293.001
293.002
293.002
293.002
293.002
293.002
293.003
293.002
293.002
293.003
293.002
293.002
293.002
293.002
293.002
293.001
293
293.001
293.001
293.002
293.001
293.001
293.002
292.999
293.001
293
293.001
293
293
293
293.001
293.001
293.002
293.002
293.002
293.001
293.002
293.002
293.002
293.002
293.002
293.002
293.002
293.002
293.002
293.001
293.001
293
293.001
293.001
293.001
293.001
292.999
629.688
621.007
570.205
412.188
270
270
270
270
270
286.45
323.577
326.616
325.061
324.231
337.968
332.667
322.832
270
270
270
270
270
270
316.596
332.464
333.504
331.789
328.407
327.497
327.709
328.869
331.172
330.417
330.803
330.251
330.138
329.72
328.542
326.949
327.301
327.225
327.043
327.88
327.53
308.339
308.865
309.133
309.261
309.455
309.31
308.451
308.443
307.744
307.127
307.178
306.21
306.328
305.61
305.692
305.271
305.072
304.675
304.617
303.652
303.646
303.226
302.672
302.738
302.343
302.004
302.103
301.649
301.677
301.553
295.881
295.946
295.789
295.965
295.627
295.698
295.363
295.311
295.203
294.944
294.982
294.661
294.718
294.431
294.452
294.231
294.159
294.083
293.854
293.94
293.652
293.772
293.503
293.629
293.423
293.497
293.403
293.395
293.386
293.37
293.063
293.046
293.054
293.036
293.041
293.034
293.024
293.026
293.015
293.017
293.009
293.01
293.005
293.007
293.003
293.004
293.003
293.003
293.001
293.003
293.002
293.003
293
293.002
293.001
293.001
293.001
293
293.001
293
293
293.001
293.001
293.002
293.001
293.002
293.001
293.001
293.001
293.003
293.001
293.002
293.001
293.001
293.002
293.001
293.003
293.001
293.002
293.002
293.003
293.001
293.002
293.001
293.002
293.001
293.002
293.001
293.001
293.003
293
293.001
293
293.001
293.002
293.001
293.002
293
293.002
293.002
293.003
293.001
293.002
293.001
293.003
293.001
293.002
293.001
293.002
293.001
293.003
293.001
293.002
293.001
293.002
293
293.001
293
293.001
293.001
293.001
293.001
293.002
293.001
293.002
293.001
293.002
293
293.002
293.002
293.003
293.001
293.002
293.001
293.003
293.001
293.003
293.001
293.002
293.002
293.003
293.001
293.002
293.001
293.002
293.001
293.002
293.001
293.001
293.002
293.002
293
293.002
293.001
293.002
293.001
293.002
293
293.003
293.002
293.003
293.001
293.002
293.001
293.003
293.001
293.003
293.001
293.002
293.002
293.003
293.001
293.002
293.001
293.002
293.001
293.002
293.001
293.001
293.003
293.001
293.001
293.001
293.002
293.001
293.002
293.001
293.001
293.001
293.003
293.002
293.002
293.001
293.002
293.001
293.003
293.001
293.002
293.001
293.002
293.003
293.001
293.002
293.001
293.002
293.001
293.002
293.001
293.001
293
293.002
293.001
293.002
293.001
293.002
293.001
293.001
293
293.002
293.002
293.003
293.001
293.002
293.001
293.003
293.001
293.002
293.001
293.002
293.002
293.003
293.001
293.002
293.001
293.002
293.001
293.002
293.001
293.001
293.002
293
293.001
293
293.001
293.002
293.001
293.001
293.001
293.002
293.001
293.003
293.001
293.003
293.001
293.002
293.002
293.001
293.003
293.001
293.003
293.001
293.002
293
293.002
293.001
293.001
293
293.001
293.001
293
293.001
293
293.001
293
293.002
293.001
293.001
293
293.001
293.001
293.002
293.001
293.002
293.001
293.002
293.001
293.002
293.001
293.002
293.001
293.003
293.002
293.002
293
293.002
293.001
293.002
293.001
293
293.001
632.074
633.22
636.137
613.787
532.449
380.449
270
270
270
270
270
314.307
326.386
324.608
335.635
324.505
270
270
270
270
270
270
270
270
295.413
332.58
332.705
327.602
327.758
325.539
328.762
328.861
330.516
330.24
330.45
330.525
330.599
330.018
329.083
327.367
327.419
326.093
324.748
324.346
308.282
308.52
309.018
309.782
309.692
309.579
309.231
308.398
308.276
307.326
306.922
306.723
305.888
306.01
305.38
305.452
304.991
304.912
304.435
303.935
303.608
303.147
302.86
302.335
302.52
301.734
302.005
301.504
301.445
301.477
296.26
296.224
296.289
295.881
295.977
295.607
295.675
295.307
295.226
295.134
294.861
294.89
294.588
294.499
294.494
294.191
294.284
293.988
293.989
293.914
293.715
293.742
293.582
293.591
293.463
293.48
293.398
293.407
293.362
293.369
293.044
293.067
293.051
293.058
293.041
293.038
293.036
293.023
293.026
293.013
293.016
293.008
293.009
293.005
293.005
293.003
293.004
293.002
293.002
293.002
293.002
293.001
293.001
293
293.001
293
293
293
293
293
293
293
293.001
293
293
293
293.001
293.001
293
293.001
293.001
293.001
293.001
293.002
293.002
293.002
293.002
293.002
293.001
293.001
293.001
293.001
293.001
293
293
293
293
293
293
293
293
293
293
293
293
293
293
293.001
293.001
293.001
293.001
293.001
293.001
293.002
293.002
293.002
293.002
293.001
293.001
293.001
293.001
293
293.001
293.001
293.001
293
293
293
293
293
293
293
293
293
293
293.001
293
293.001
293.001
293.001
293.001
293.001
293.001
293.002
293.002
293.002
293.002
293.001
293.001
293.001
293.001
293.001
293.001
293
293
293
293
293
293
293
293.001
293
293
293
293
293
293.001
293.001
293
293.001
293.001
293.001
293.001
293.002
293.002
293.002
293.002
293.001
293.001
293.001
293.001
293.001
293.001
293
293
293
293
293
293
293
293
293
293
293.001
293
293.001
293.001
293.001
293.001
293.001
293.001
293.001
293.001
293.002
293.002
293.002
293.002
293.002
293.001
293.002
293.001
293
293.001
293.001
293
293.001
293
293
293
293
293
293
293
293
293.001
293
293.001
293.001
293.001
293.001
293.001
293.001
293.001
293.002
293.002
293.002
293.001
293.001
293.001
293.001
293.001
293.001
293.001
293
293
293
293
293
293
293
293
293
293
293.001
293
293.001
293
293.001
293.001
293.001
293.001
293.001
293.001
293.001
293.001
293.001
293.001
293.001
293.001
293.001
293.001
293.001
293.001
293
293.001
293
293
293
293
293
292.999
293
293
293
293
293
293.001
293
293
293.001
293.001
293.001
293.001
293.001
293.001
293.001
293.001
293.002
293.002
293.001
293.002
293.001
293
293.001
293
293.001
293.001
293.001
292.999
292.999
623.531
625.616
623.924
596.471
532.499
457.924
300.542
270
270
270
270
270
313.173
324.934
332.072
270
270
270
270
270
270
270
270
270
270
299.846
333.101
328.538
327.155
325.75
325.976
328.534
329.75
330.486
330.502
330.68
331.03
330.97
329.889
329.177
326.64
325.1
323.53
321.51
306.633
308.41
308.865
309.591
310.217
310.055
309.838
309.239
308.157
307.887
307.173
306.31
306.494
305.551
305.75
305.081
305.236
304.632
304.692
303.833
304.027
302.905
303.186
302.056
302.546
301.588
301.797
301.334
301.282
300.99
296.418
296.467
296.152
296.312
295.904
295.955
295.554
295.615
295.235
295.134
295.053
294.766
294.731
294.563
294.4
294.347
294.132
294.174
293.895
293.975
293.784
293.701
293.697
293.506
293.594
293.399
293.477
293.347
293.371
293.325
293.098
293.072
293.078
293.058
293.058
293.045
293.038
293.037
293.023
293.026
293.011
293.013
293.006
293.007
293.004
293.004
293.002
293.003
293.001
293.001
293
293.001
292.999
293
292.999
293
293.001
292.999
293
292.998
292.999
292.999
292.999
293
292.999
293
292.999
293
293
293
293
293
293
293
293.001
293
293.001
293
293.001
293
293
293
293
292.999
293
293
293.001
293
293
293
292.998
293
292.999
293.001
293
292.999
293
292.999
293.001
293
293
293
293.001
293
293.001
293
293.001
293
293.001
293
293
293
293
292.999
293
292.999
293
292.999
292.999
292.999
292.999
292.999
293
293
293
292.999
293
292.999
293.001
293
293
293
293.001
293
293.001
293
293.001
293
293.001
293
293.001
293
293
292.999
293
292.999
293.001
293
293
293
292.999
292.999
293
293
293
292.999
293
292.999
293.001
293
293.001
293
293.001
293
293.001
293
293.001
293
293.001
293
293.001
293
293
292.999
293
293
293.001
293
293
293
292.999
292.999
292.999
293
292.999
292.999
292.999
293
293
293
293
293.001
293
293.001
293
293.001
293
293.001
293
293
293
293
293
292.999
293
292.999
293
292.999
292.999
292.998
293
292.999
293
293
293
293
293
292.999
293.001
293
293.001
293
293.001
293
293.001
293
293.001
293
293.001
293
293
293
293
292.999
293
293
293.001
293
293
293
292.998
292.999
292.999
293
293
292.999
293
292.999
293.001
293
293
293
293.001
293
293.001
293.001
293
293.001
293
293
293
293.001
292.999
293
292.999
293
293
292.999
292.999
292.998
292.999
292.998
292.999
292.999
292.999
292.999
293
293
293.001
293
293.001
293
293.001
293
293.001
293.001
293.001
293.001
293.001
293
293.001
293
293
293
293
292.999
292.999
292.999
292.998
293
614.522
605.556
568.04
516.297
463.253
449.364
373.236
270
270
270
270
270
311.904
326.723
321.335
270
270
270
270
270
270
270
270
270
270
270
324.661
331.942
323.878
325.894
325.034
327.364
329.246
330.449
330.528
330.903
330.933
331.272
330.765
329.495
325.94
326.869
320.398
321.015
307.157
306.723
307.868
309.131
310.075
310.477
310.143
309.769
308.774
308.084
307.37
306.781
306.064
306.142
305.244
305.44
304.886
304.934
304.343
304.283
303.924
302.843
303.365
301.99
302.616
301.345
301.93
301.075
301.384
301.046
296.179
296.411
296.676
296.06
296.342
295.774
295.88
295.437
295.521
295.055
295.166
294.834
294.659
294.708
294.341
294.459
294.139
294.212
293.956
293.902
293.903
293.662
293.759
293.511
293.594
293.422
293.453
293.346
293.381
293.318
293.06
293.101
293.066
293.08
293.059
293.056
293.043
293.038
293.032
293.025
293.02
293.014
293.008
293.007
293.004
293.003
293.003
293.001
293.002
293.001
293.001
292.999
292.999
293
292.999
292.999
293
292.999
292.999
292.999
292.999
292.999
292.999
292.999
292.999
292.999
293
292.999
292.999
293
293
293
293
293
293
293
293
293
293
293
293
292.999
292.999
293
292.999
292.999
292.999
292.999
292.999
292.999
292.999
292.999
292.999
292.999
292.999
292.999
293
292.999
292.999
293
293
293
293
293
293
293
293
293
293
293
293
292.999
292.999
293
292.999
292.999
292.999
292.999
292.999
292.999
292.999
292.999
292.999
292.999
292.999
292.999
293
292.999
292.999
293
293
293.001
293
293
293
293
293
293
293
293
293
292.999
292.999
293
292.999
292.999
292.999
292.999
292.999
292.999
292.999
292.999
292.999
292.999
292.999
292.999
293
292.999
292.999
293
293
293
293
293
293
293
293
293
293
293
293
292.999
292.999
293
292.999
292.999
292.999
292.999
292.999
292.999
292.999
292.999
292.999
292.999
292.999
292.999
293
292.999
292.999
293
293
293
293
293
293
293
293
293
293
293
293
292.999
292.999
293
292.999
292.999
292.999
292.999
292.999
292.999
292.999
292.999
292.999
293
292.999
292.999
293
292.999
292.999
293
293
293.001
293
293
293
293
293
293
293
293
293
292.999
292.999
293
292.999
292.999
292.999
292.999
292.999
292.999
292.999
292.999
292.999
293
292.999
292.999
293
292.999
292.999
293
293
293
293
293
293
293
293
293
293
293
293
292.999
292.999
293
292.999
292.999
292.999
292.999
292.999
292.999
292.999
292.999
292.999
292.999
292.998
293
292.999
292.999
292.999
293
292.999
293
292.999
293
293
293
293
293
293.001
293.001
293
293
293
293
293
293
292.999
292.999
292.998
292.999
555.562
526.585
477.64
436.374
425.205
423.248
309.171
270
270
270
270
270
270
270
270
274.585
287.842
270
270
270
270
270
270
270
270
270
270
270
287.739
330.66
327.055
325.758
324.124
325.861
328.571
330.273
330.65
330.776
330.956
330.978
330.371
328.804
326.736
324.826
317.404
317.577
304.369
309.782
306.968
306.476
308.251
309.341
310.329
310.687
310.507
309.945
308.909
308.834
307.133
307.467
305.97
306.249
305.371
305.202
305.072
304.553
304.623
303.925
304.061
302.994
303.222
301.962
302.396
301.156
301.464
300.608
300.175
299.655
299.117
298.476
297.569
297.64
296.918
296.914
296.197
296.443
295.702
295.798
295.411
295.338
295.011
294.95
294.845
294.603
294.43
294.485
294.123
294.277
293.978
293.961
293.855
293.759
293.699
293.575
293.579
293.432
293.46
293.337
293.343
293.276
293.259
293.155
293.182
293.096
293.125
293.073
293.083
293.063
293.054
293.045
293.034
293.034
293.019
293.022
293.009
293.012
293.005
293.003
293.003
293.001
293.001
293
292.999
293
292.999
292.999
292.999
292.999
292.999
292.999
292.998
292.999
292.997
292.997
292.999
292.999
292.999
292.999
292.999
292.999
292.998
292.999
292.999
292.999
292.999
292.999
292.999
292.999
292.999
292.999
292.999
292.999
292.999
292.999
292.999
292.999
292.999
292.999
292.999
292.999
292.999
292.999
292.998
292.998
292.997
292.997
292.999
292.998
292.999
292.999
292.999
292.999
292.999
292.998
292.999
292.999
292.999
292.999
292.999
292.999
292.999
292.999
292.999
292.999
292.999
292.999
292.999
292.999
292.999
292.998
292.999
292.999
292.999
292.999
292.998
292.999
292.997
292.997
292.999
292.998
292.999
292.998
292.999
292.999
292.999
292.998
292.999
292.999
292.999
292.999
292.999
292.999
292.999
292.999
292.999
292.999
292.999
292.999
292.999
292.999
292.999
292.999
292.999
292.999
292.999
292.999
292.998
292.999
292.997
292.997
292.999
292.998
292.999
292.999
292.999
292.999
292.999
292.998
292.999
292.999
292.999
292.999
292.999
292.999
292.999
292.999
292.999
292.999
292.999
292.999
292.999
292.998
292.999
292.999
292.999
292.999
292.999
292.999
292.998
292.999
292.997
292.997
292.998
292.998
292.999
292.999
292.999
292.999
292.999
292.999
292.998
292.999
292.999
292.999
292.999
292.999
292.999
292.999
292.999
292.999
292.999
292.999
292.999
292.999
292.999
292.998
292.999
292.999
292.999
292.999
292.998
292.999
292.997
292.997
292.999
292.998
292.999
292.999
292.999
292.999
292.999
292.998
292.999
292.999
292.999
292.999
292.999
292.999
292.999
292.999
292.999
292.999
292.999
292.999
292.999
292.998
292.999
292.999
292.999
292.999
292.999
292.999
292.998
292.999
292.997
292.997
292.999
292.998
292.999
292.999
292.999
292.999
292.999
292.998
292.999
292.999
292.999
292.999
292.999
292.999
292.999
292.999
292.999
292.999
292.999
292.999
292.999
292.999
292.998
292.999
292.999
292.999
292.999
292.999
292.998
292.999
292.997
292.997
292.998
292.998
292.999
292.998
292.999
292.998
292.999
292.998
292.999
292.998
293
292.999
293
292.999
293
292.999
293
292.999
293
293
293
292.999
293
292.999
292.999
292.999
292.999
292.998
292.999
292.998
292.996
292.996
465.408
455.06
428.038
406.107
402.759
422.137
424.615
371.56
270
270
270
270
270
270
270
270
270
270
270
270
270
270
270
270
270
270
270
270
270
322.194
328.286
324.549
323.565
325.041
327.635
329.982
330.593
330.588
330.555
330.109
329.47
328.691
325.274
325.418
316.636
320.067
308.752
310.045
307.858
307.789
308.564
309.859
310.406
310.8
310.571
310.24
309.23
309.085
307.111
307.857
305.988
306.459
305.282
305.488
304.699
304.88
304.2
304.315
303.509
303.683
302.531
302.448
301.982
301.262
301.349
300.324
300.671
299.593
299.687
298.136
298.492
297.243
297.414
296.703
296.45
296.334
295.772
295.973
295.268
295.58
294.977
295.001
294.8
294.618
294.587
294.339
294.267
294.247
293.963
294.079
293.77
293.888
293.622
293.689
293.51
293.517
293.394
293.405
293.281
293.322
293.208
293.191
293.152
293.119
293.113
293.08
293.094
293.056
293.069
293.044
293.044
293.03
293.03
293.015
293.019
293.006
293.009
293.005
293.002
293.003
293.001
293.001
292.999
293.001
293
293
292.998
292.999
292.999
292.998
292.998
292.998
292.997
292.997
292.998
292.998
292.998
292.999
292.999
292.998
293
293
292.999
292.999
292.999
292.999
293
292.999
292.999
292.999
292.999
292.999
292.999
292.999
292.999
292.999
293
293
292.998
292.999
292.999
292.998
292.998
292.998
292.997
292.997
292.998
292.998
292.998
292.999
292.999
292.999
292.999
293
293
292.999
292.999
292.999
292.999
292.999
292.999
292.999
292.999
292.999
292.999
292.999
292.999
293
292.999
292.999
292.998
292.999
292.999
292.998
292.998
292.998
292.997
292.998
292.998
292.998
292.998
292.999
292.999
292.999
292.999
293
292.999
292.999
292.999
292.999
292.999
292.999
292.999
292.999
292.999
292.999
292.999
292.999
292.999
292.999
292.999
293
292.998
292.999
292.999
292.998
292.998
292.998
292.997
292.997
292.998
292.998
292.998
292.999
292.999
292.999
292.999
293
292.999
292.999
292.999
292.999
292.999
292.999
292.999
292.999
292.999
292.999
292.999
292.999
292.999
292.999
292.999
293
292.998
292.999
292.999
292.998
292.998
292.998
292.997
292.997
292.998
292.998
292.998
292.999
292.999
292.998
292.999
293
292.999
292.999
292.999
292.999
292.999
292.999
292.999
292.999
292.999
293
292.999
292.999
292.999
292.999
293
292.999
292.998
292.999
292.999
292.998
292.998
292.998
292.997
292.998
292.998
292.998
292.998
292.999
292.999
292.999
292.999
293
292.999
292.999
292.999
292.999
292.999
292.999
292.999
292.999
292.999
292.999
292.999
292.999
292.999
292.999
293
293
292.998
292.999
292.999
292.998
292.998
292.999
292.997
292.998
292.998
292.998
292.998
292.999
292.999
292.999
292.999
293
292.999
292.999
292.999
292.999
292.999
292.999
292.999
292.999
292.999
293
293
292.999
292.999
292.999
293
292.999
292.999
292.999
292.999
292.998
292.998
292.998
292.998
292.997
292.998
292.998
292.998
292.999
292.998
292.998
292.999
293
292.999
292.999
292.999
292.999
292.999
293
292.999
292.999
292.999
292.999
293
293
293
292.999
292.999
292.998
292.998
292.998
292.998
292.998
292.998
292.998
292.997
292.997
373.279
385.964
388.46
384.931
366.96
329.567
318.513
338.125
350.121
291.136
270
270
270
270
270
270
270
270
270
270
270
270
270
270
270
270
270
270
270
292.784
327.907
326.435
323.504
324.553
327.172
329.167
330.47
330.488
329.84
329.515
329.398
326.973
326.668
322.959
319.616
316.682
314.83
308.067
310.086
309.562
309.439
309.855
310.484
310.734
310.776
310.129
310.084
308.518
308.043
307.519
306.168
306.594
305.189
305.696
304.602
304.976
304.142
304.352
303.385
303.669
302.467
302.598
301.702
301.41
301.084
300.415
300.453
299.619
299.529
298.187
298.591
297.229
297.641
296.741
296.903
296.223
296.133
295.874
295.508
295.506
295.063
295.191
294.707
294.862
294.445
294.5
294.287
294.224
294.026
294.074
293.809
293.88
293.66
293.706
293.499
293.578
293.365
293.444
293.27
293.314
293.205
293.208
293.138
293.15
293.105
293.108
293.088
293.065
293.073
293.046
293.056
293.029
293.038
293.02
293.02
293.012
293.008
293.008
293.004
293.003
293.002
293
293.001
293
293
292.998
292.999
292.999
292.999
292.998
292.998
292.997
292.998
292.998
292.996
292.998
292.997
292.999
292.999
292.999
292.999
292.999
292.999