/*--------------------------------*- C++ -*----------------------------------*\
| =========                 |                                                 |
| \\      /  F ield         | OpenFOAM: The Open Source CFD Toolbox           |
|  \\    /   O peration     | Version:  2.1.1                                 |
|   \\  /    A nd           | Web:      www.OpenFOAM.org                      |
|    \\/     M anipulation  |                                                 |
\*---------------------------------------------------------------------------*/
FoamFile
{
    version     2.0;
    format      ascii;
    class       volVectorField;
    location    "0.001250000";
    object      U;
}
// * * * * * * * * * * * * * * * * * * * * * * * * * * * * * * * * * * * * * //

dimensions      [0 1 -1 0 0 0 0];

internalField   nonuniform List<vector> 
12384
(
(2.45233 3.93921 0)
(7.27456 2.5555 0)
(9.60626 2.14912 0)
(10.4838 0.917652 0)
(12.0229 0.132418 0)
(13.9366 0.0866649 0)
(15.2659 -1.15916 0)
(14.7227 -2.07303 0)
(15.3014 0.688791 0)
(12.7698 -2.10222 0)
(9.43234 3.45013 0)
(6.75933 0.594621 0)
(3.33936 2.88244 0)
(1.40192 1.83751 0)
(0.489335 7.84946 0)
(-1.41975 4.05491 0)
(-1.7987 1.09625 0)
(-2.04658 -5.30877 0)
(1.76287 -3.28252 0)
(10.9378 -5.29951 0)
(17.2555 -5.97125 0)
(27.4657 -5.79853 0)
(37.2219 -5.63102 0)
(44.0114 -2.62807 0)
(51.3269 -0.0211181 0)
(59.5009 0.554946 0)
(70.1684 0.0951124 0)
(80.7423 -1.25778 0)
(87.9179 -2.93737 0)
(91.4794 -2.65249 0)
(90.4074 -2.61715 0)
(90.3433 -1.56765 0)
(87.3956 -2.43943 0)
(81.0238 -1.06906 0)
(80.266 -1.74817 0)
(66.956 0.624062 0)
(59.2363 0.212406 0)
(54.2493 1.90357 0)
(41.382 2.39085 0)
(31.1938 2.74708 0)
(22.4772 3.73135 0)
(13.0283 3.74556 0)
(5.87588 3.81584 0)
(4.03224 2.97197 0)
(1.05495 -2.47705 0)
(4.11826 -2.70753 0)
(8.0551 -2.33488 0)
(11.9231 -2.43508 0)
(15.7968 -2.38702 0)
(18.5269 -2.96805 0)
(21.6038 -1.96954 0)
(24.0541 -2.437 0)
(26.3895 -1.44305 0)
(28.2043 -1.56366 0)
(29.6191 -1.11268 0)
(30.7575 -1.07959 0)
(31.4677 -0.928246 0)
(31.6854 -1.14245 0)
(31.0896 -0.507068 0)
(30.5317 -0.981531 0)
(28.5668 -0.520456 0)
(27.956 -0.286563 0)
(25.6387 -0.630044 0)
(24.5544 0.353249 0)
(23.0866 -0.523377 0)
(21.449 0.418659 0)
(20.0193 -0.146693 0)
(17.9699 0.474268 0)
(16.1538 0.194436 0)
(13.5352 0.526269 0)
(11.3048 0.517486 0)
(8.16119 0.371557 0)
(5.44926 0.784956 0)
(2.4892 0.342754 0)
(0.464096 -0.711672 0)
(1.35988 -0.687732 0)
(2.2114 -0.765425 0)
(2.72682 -0.671212 0)
(3.41508 -0.538165 0)
(3.80952 -0.58463 0)
(4.1135 -0.379931 0)
(4.40804 -0.476198 0)
(4.34875 -0.313103 0)
(4.5799 -0.312922 0)
(4.27351 -0.320487 0)
(4.3154 -0.149548 0)
(4.03602 -0.296179 0)
(3.90457 -0.0648964 0)
(3.64758 -0.272471 0)
(3.35805 -0.0197185 0)
(3.19172 -0.211834 0)
(2.74931 -0.025213 0)
(2.6732 -0.1307 0)
(2.17598 -0.0630926 0)
(2.01607 -0.0114496 0)
(1.71669 -0.0808631 0)
(1.44044 0.031171 0)
(1.29119 -0.0517777 0)
(0.994473 0.0126582 0)
(0.863129 -0.00614954 0)
(0.632657 -0.00835235 0)
(0.448755 0.0155731 0)
(0.283231 0.000274381 0)
(0.0867619 0.0225199 0)
(0.013127 -0.0150608 0)
(0.0182843 -0.0269468 0)
(0.0195478 -0.0236817 0)
(0.0292044 -0.00977287 0)
(0.0304043 -0.0166582 0)
(0.0333157 -0.00320082 0)
(0.0294062 -0.0113368 0)
(0.0280036 -0.000684454 0)
(0.0238934 -0.00584335 0)
(0.0189407 0.000348824 0)
(0.0174945 -0.0022312 0)
(0.0123658 -0.000323915 0)
(0.011357 -0.000498354 0)
(0.00670025 8.31003e-05 0)
(0.00483425 0.000620756 0)
(-0.000152972 0.00154009 0)
(-0.000779593 -0.000882761 0)
(-0.00326161 0.00094499 0)
(-0.00461839 -0.000586652 0)
(-0.00548445 0.00126978 0)
(-0.00663496 -0.000264521 0)
(-0.00737448 0.00156671 0)
(-0.00807019 3.74837e-05 0)
(-0.00833738 0.00210564 0)
(-0.00792715 -0.000475413 0)
(-0.00494286 -0.000688557 0)
(-0.00538932 0.00219647 0)
(-0.00587395 0.000124904 0)
(-0.00599061 0.0018315 0)
(-0.00433916 -0.00122068 0)
(0.00390749 -0.00154613 0)
(0.00630436 0.0005045 0)
(0.00736392 -0.000384662 0)
(0.00740877 0.00191371 0)
(0.0073877 -0.000123296 0)
(0.00707173 0.00186986 0)
(0.00685297 -2.62416e-05 0)
(0.00637847 0.00163267 0)
(0.00595765 -0.000117788 0)
(0.00512969 0.00154133 0)
(0.00434808 -0.000317306 0)
(0.00337767 0.00132692 0)
(0.0012178 -0.000379703 0)
(0.00198714 -0.00137834 0)
(0.00143403 0.000812469 0)
(0.000616099 -0.000790684 0)
(-0.000459999 0.00163065 0)
(-0.00178099 -0.000282196 0)
(-0.00281786 0.00180635 0)
(-0.00368677 -0.000165813 0)
(-0.00393381 0.00178415 0)
(-0.00418277 1.76526e-05 0)
(-0.00398692 0.00210748 0)
(-0.00391024 0.00028832 0)
(-0.00352581 0.00246638 0)
(-0.00288647 0.000416337 0)
(-0.00185919 0.00300725 0)
(-0.00294871 0.00235782 0)
(-0.000142748 -0.000566329 0)
(0.00218441 0.00304478 0)
(0.00430748 -0.00154445 0)
(0.00677878 0.00112456 0)
(0.00742791 9.3037e-05 0)
(0.00732698 0.0024405 0)
(0.00502876 0.00160894 0)
(0.00583402 -0.000328556 0)
(0.0061342 0.00181273 0)
(0.00643026 -0.000330914 0)
(0.00623754 0.00152033 0)
(0.00591265 -0.000356848 0)
(0.00511035 0.00140385 0)
(0.00430397 -0.000443657 0)
(0.00310097 0.00132955 0)
(0.00209892 -0.000804735 0)
(0.00100197 0.00137181 0)
(-0.000125865 -0.0008477 0)
(-0.00121545 0.00129217 0)
(-0.00261758 -0.000404175 0)
(-0.00377049 0.00151321 0)
(-0.00492403 -0.000206866 0)
(-0.00559334 0.00158946 0)
(-0.00632367 -3.0623e-05 0)
(-0.00673339 0.00183036 0)
(-0.00727447 0.000114895 0)
(-0.00760154 0.00205584 0)
(-0.00802559 4.95308e-05 0)
(-0.00819559 0.00213951 0)
(-0.00819947 -0.000238626 0)
(-0.00696031 0.000353327 0)
(-0.0041227 -0.00183527 0)
(0.00253433 -0.00066382 0)
(0.00454635 0.00149564 0)
(0.00403767 0.00155771 0)
(0.00545548 -0.000500568 0)
(0.00635253 0.00219325 0)
(0.00672486 -8.03629e-05 0)
(0.00676824 0.00195679 0)
(0.00674515 -9.15879e-05 0)
(0.0063104 0.00176135 0)
(0.00595168 -0.000192512 0)
(0.00515068 0.00157442 0)
(0.00441245 -0.000347367 0)
(0.00313391 0.00154111 0)
(0.00199448 -0.000606198 0)
(0.00073335 0.00161026 0)
(-0.000392756 -0.000756517 0)
(-0.0013919 0.00164643 0)
(-0.00253795 -0.000267817 0)
(-0.00332932 0.00181277 0)
(-0.00405337 -5.64439e-05 0)
(-0.00418386 0.00190135 0)
(-0.00435225 0.000105471 0)
(-0.00406626 0.00214781 0)
(-0.00396541 0.000316783 0)
(-0.00352047 0.00243712 0)
(-0.00294885 0.000314545 0)
(-0.00193581 0.0027938 0)
(-0.00284785 0.00206548 0)
(-2.32268e-05 -0.000607108 0)
(0.00223477 0.00284909 0)
(-0.00227244 0.00266619 0)
(-1.7783e-05 -0.000878274 0)
(0.00189094 0.00134403 0)
(0.00327272 -0.000527506 0)
(0.00413989 0.00191218 0)
(0.00472381 -8.31685e-05 0)
(0.00490309 0.00192345 0)
(0.00513547 -8.45609e-05 0)
(0.00500151 0.00163633 0)
(0.00492785 -0.000265148 0)
(0.00435384 0.00148978 0)
(0.00378203 -0.000330324 0)
(0.00261927 0.00157471 0)
(0.00157022 -0.000500422 0)
(0.000364024 0.0016637 0)
(-0.000640003 -0.000666732 0)
(-0.00157661 0.00174891 0)
(-0.00265381 -0.000270087 0)
(-0.00341064 0.00182623 0)
(-0.00412476 -7.09128e-05 0)
(-0.00426695 0.00189094 0)
(-0.00441327 7.30144e-05 0)
(-0.00413335 0.00210014 0)
(-0.00400579 0.000279094 0)
(-0.00356605 0.00240544 0)
(-0.00295804 0.00031052 0)
(-0.00195602 0.00281993 0)
(-0.00284994 0.00210193 0)
(-7.71667e-05 -0.000587393 0)
(0.00212426 0.00287238 0)
(-0.00455004 0.00407574 0)
(-0.00122016 -0.00150432 0)
(0.00487422 -0.00171838 0)
(0.00611043 0.00184616 0)
(0.00644084 -5.6233e-05 0)
(0.00618973 0.00214369 0)
(0.00585968 -2.84185e-05 0)
(0.00547977 0.00168878 0)
(0.00528077 -0.000242092 0)
(0.0048309 0.00143413 0)
(0.00455644 -0.000510181 0)
(0.0037869 0.00152573 0)
(0.00292219 -0.000520448 0)
(0.0017469 0.00147583 0)
(0.00080042 -0.000838176 0)
(-0.0001761 0.00131239 0)
(-0.00101351 -0.000709064 0)
(-0.00175624 0.00167245 0)
(-0.00321575 0.000738778 0)
(-0.00467711 0.00277421 0)
(-0.00731024 0.00219839 0)
(-0.0072111 -0.000167736 0)
(-0.00735434 0.00167336 0)
(-0.00761085 2.53895e-05 0)
(-0.00761645 0.0019517 0)
(-0.00764678 -0.000275965 0)
(-0.00733416 0.00170567 0)
(-0.00698225 -0.000528584 0)
(-0.0057886 0.000647098 0)
(-0.00352271 -0.00119888 0)
(-0.00201207 0.00247874 0)
(5.0989e-05 -0.000747963 0)
(0.00173192 0.00146131 0)
(0.00303197 -0.000609444 0)
(0.00396863 0.00178382 0)
(0.00456707 -0.000212821 0)
(0.00480303 0.00184943 0)
(0.00503902 -0.000147632 0)
(0.00495365 0.00161044 0)
(0.00492349 -0.000291473 0)
(0.0044149 0.00150542 0)
(0.00391375 -0.000352163 0)
(0.00281899 0.00157769 0)
(0.00179645 -0.000501343 0)
(0.000596071 0.00166545 0)
(-0.000417673 -0.000730131 0)
(-0.00135549 0.00172553 0)
(-0.00244612 -0.000289442 0)
(-0.00322637 0.00184705 0)
(-0.00399978 -4.22347e-05 0)
(-0.00419694 0.00195308 0)
(-0.00440075 0.000126462 0)
(-0.00415018 0.00219822 0)
(-0.00403801 0.000330468 0)
(-0.00358862 0.00250909 0)
(-0.00300982 0.000453368 0)
(-0.00204489 0.00299714 0)
(-0.00299321 0.00230986 0)
(-0.000135166 -0.000663414 0)
(0.00214856 0.00299083 0)
(0.00339011 -0.00108404 0)
(0.00500965 0.00100986 0)
(0.00573904 -0.000764887 0)
(0.00853376 -0.000975554 0)
(0.00883818 0.00184185 0)
(0.00858032 1.25419e-05 0)
(0.00830669 0.00204803 0)
(0.00775679 3.81837e-05 0)
(0.00731636 0.00151577 0)
(0.00709555 -0.000454142 0)
(0.00680265 0.00107583 0)
(0.00648943 -0.000706383 0)
(0.00577107 0.00118106 0)
(0.00459472 -0.000158619 0)
(0.00276545 0.00226015 0)
(-0.0020504 0.00233397 0)
(-0.00376285 -0.000287453 0)
(-0.00487856 0.00134147 0)
(-0.00577904 -0.000588534 0)
(-0.00628905 0.00118223 0)
(-0.00693513 -0.000464513 0)
(-0.00745214 0.00143962 0)
(-0.00814105 -0.000143338 0)
(-0.00880853 0.0017406 0)
(-0.00929181 -6.73882e-05 0)
(-0.00944497 0.00166021 0)
(-0.00846234 -0.00110512 0)
(-0.00509509 -0.00153969 0)
(-0.004547 0.000588687 0)
(-0.00304566 -0.000963749 0)
(-0.00199876 0.00283516 0)
(0.000459897 -0.000591372 0)
(0.00271477 0.00145825 0)
(0.00454437 -0.000518911 0)
(0.00578371 0.0017955 0)
(0.00675313 -5.06696e-05 0)
(0.00719043 0.00178773 0)
(0.00759706 -3.95986e-05 0)
(0.00752828 0.00137033 0)
(0.00747015 -0.000311704 0)
(0.0068552 0.00116057 0)
(0.0061505 -0.000397578 0)
(0.00479525 0.00108868 0)
(0.00356755 -0.000672103 0)
(0.00198617 0.0011689 0)
(0.000804838 -0.000819347 0)
(-0.000489274 0.0015183 0)
(-0.00194629 -0.000551177 0)
(-0.00328531 0.00146991 0)
(-0.00444305 -0.000437362 0)
(-0.00511895 0.00122017 0)
(-0.00561291 -0.000478585 0)
(-0.00559268 0.00118928 0)
(-0.00541157 -0.000363118 0)
(-0.00481941 0.00154713 0)
(-0.00408244 -0.000249121 0)
(-0.00302263 0.00196313 0)
(-0.00331257 0.00125382 0)
(-0.00047276 -0.0014581 0)
(0.00159787 0.00192899 0)
(2.08269 4.9304 0)
(5.26116 3.93076 0)
(7.23565 2.28992 0)
(8.65671 0.798488 0)
(9.98758 -1.13102 0)
(11.1085 -1.5752 0)
(11.5152 -3.48851 0)
(13.232 -5.49226 0)
(12.6658 -3.94167 0)
(13.5197 -6.23301 0)
(12.372 1.20288 0)
(8.75387 2.63228 0)
(5.81272 4.49731 0)
(1.50468 5.55758 0)
(-3.78341 15.1286 0)
(-10.1729 3.87523 0)
(-8.35492 -5.63348 0)
(-2.86835 -13.083 0)
(2.03802 -10.7593 0)
(6.71175 -10.2351 0)
(15.0756 -9.78947 0)
(23.7081 -10.7534 0)
(33.7411 -12.6326 0)
(42.6211 -12.212 0)
(49.488 -6.3173 0)
(55.3133 -0.815013 0)
(60.7715 0.650167 0)
(68.0472 -0.47714 0)
(75.2501 -4.9831 0)
(79.6681 -6.88217 0)
(82.0295 -6.82426 0)
(80.1942 -6.3981 0)
(78.8015 -5.57927 0)
(76.8019 -6.01877 0)
(73.8274 -4.15234 0)
(69.3171 -3.3517 0)
(58.7562 1.14981 0)
(56.9103 3.02938 0)
(43.9558 4.95439 0)
(33.7744 7.59633 0)
(26.127 10.055 0)
(16.6238 11.6602 0)
(9.25069 12.1455 0)
(4.07111 12.1693 0)
(1.01819 -6.7698 0)
(3.85096 -9.14648 0)
(7.18398 -8.87724 0)
(10.4879 -9.01451 0)
(13.5265 -8.38831 0)
(17.3304 -8.45023 0)
(20.2937 -6.88818 0)
(22.8932 -6.50995 0)
(25.1982 -5.22659 0)
(26.9468 -4.37075 0)
(28.4783 -3.98619 0)
(29.5079 -3.01757 0)
(30.4784 -2.92637 0)
(30.4027 -2.62661 0)
(30.504 -2.23885 0)
(29.7574 -2.28657 0)
(28.839 -1.58 0)
(27.5268 -1.37334 0)
(26.1013 -1.19014 0)
(24.3496 -0.187719 0)
(23.0466 -0.486865 0)
(21.3458 0.373716 0)
(19.8976 0.205814 0)
(17.8773 0.937202 0)
(16.4805 0.872165 0)
(13.9346 1.4219 0)
(11.4731 1.74644 0)
(8.86875 1.38799 0)
(5.37935 2.26274 0)
(2.20619 1.66101 0)
(0.530735 -2.32764 0)
(1.38475 -2.40384 0)
(2.22468 -2.21728 0)
(3.1164 -2.0833 0)
(3.59094 -1.7699 0)
(4.12125 -1.59526 0)
(4.31287 -1.3363 0)
(4.56319 -1.17624 0)
(4.59619 -0.971968 0)
(4.60736 -0.830767 0)
(4.49522 -0.794841 0)
(4.33311 -0.542844 0)
(4.18488 -0.640492 0)
(3.88361 -0.342203 0)
(3.79726 -0.524432 0)
(3.37403 -0.221941 0)
(3.25963 -0.407424 0)
(2.8117 -0.221474 0)
(2.58658 -0.169129 0)
(2.29654 -0.273774 0)
(1.94967 0.00445271 0)
(1.80344 -0.220983 0)
(1.42112 0.0477648 0)
(1.28351 -0.128595 0)
(1.0138 0.0272047 0)
(0.795108 -0.0275096 0)
(0.651308 0.00713896 0)
(0.418117 0.0198809 0)
(0.258457 0.0256003 0)
(0.0892622 0.0376011 0)
(0.00605912 -0.0734955 0)
(0.0356055 -0.0708063 0)
(0.0719325 -0.0683498 0)
(0.0653786 -0.0455723 0)
(0.0723782 -0.0513838 0)
(0.0628827 -0.0315091 0)
(0.0620484 -0.0418338 0)
(0.0559684 -0.024959 0)
(0.0520265 -0.0327382 0)
(0.0483832 -0.0227844 0)
(0.0412279 -0.0269728 0)
(0.0360301 -0.0211018 0)
(0.0245747 -0.0234493 0)
(0.0168813 -0.019064 0)
(0.00844238 -0.0214387 0)
(-0.00061584 -0.0194443 0)
(-0.00753205 -0.0196358 0)
(-0.0166105 -0.0209893 0)
(-0.0227945 -0.0191191 0)
(-0.0276074 -0.0211198 0)
(-0.0295517 -0.0190577 0)
(-0.0307654 -0.0206985 0)
(-0.0310979 -0.0190473 0)
(-0.0314261 -0.0201737 0)
(-0.0317475 -0.0191859 0)
(-0.0304252 -0.0195022 0)
(-0.0311234 -0.0198115 0)
(-0.0290643 -0.0191742 0)
(-0.0244122 -0.021318 0)
(-0.0131874 -0.0206915 0)
(0.0137686 -0.0204684 0)
(0.0251938 -0.0220905 0)
(0.0294121 -0.0198249 0)
(0.0304805 -0.0201245 0)
(0.0304587 -0.0188263 0)
(0.030579 -0.0202393 0)
(0.0304079 -0.0187128 0)
(0.0304498 -0.0205312 0)
(0.0300929 -0.0186951 0)
(0.0298961 -0.0207322 0)
(0.0288265 -0.018961 0)
(0.0264331 -0.0204825 0)
(0.0200902 -0.0185104 0)
(0.0137397 -0.0187311 0)
(0.00505448 -0.0203251 0)
(-0.00248969 -0.0186859 0)
(-0.0101369 -0.0202003 0)
(-0.0166072 -0.0190324 0)
(-0.0221134 -0.0209806 0)
(-0.0251885 -0.0190949 0)
(-0.0268269 -0.0211329 0)
(-0.0271238 -0.0190842 0)
(-0.0274965 -0.0209322 0)
(-0.0274316 -0.0188646 0)
(-0.0278063 -0.020623 0)
(-0.0281835 -0.0186044 0)
(-0.0279107 -0.0197998 0)
(-0.0294402 -0.0202087 0)
(-0.0307241 -0.019414 0)
(-0.0316392 -0.0195114 0)
(0.0132505 -0.0206323 0)
(0.0239557 -0.0215499 0)
(0.0278924 -0.0191028 0)
(0.0299546 -0.0194559 0)
(0.0304311 -0.0207043 0)
(0.0331586 -0.0186602 0)
(0.0324045 -0.0201701 0)
(0.0315052 -0.0189591 0)
(0.0308408 -0.0207484 0)
(0.0296447 -0.018909 0)
(0.027967 -0.0209392 0)
(0.0239249 -0.018864 0)
(0.0180844 -0.0207602 0)
(0.0108316 -0.0189985 0)
(0.00317546 -0.0198541 0)
(-0.0051176 -0.0184861 0)
(-0.0133413 -0.0201926 0)
(-0.0207149 -0.0186394 0)
(-0.0266189 -0.0205468 0)
(-0.0295907 -0.0185388 0)
(-0.0310589 -0.0205671 0)
(-0.0313563 -0.0185115 0)
(-0.0317157 -0.0203287 0)
(-0.0315984 -0.0184803 0)
(-0.0316574 -0.0200261 0)
(-0.0314377 -0.0185837 0)
(-0.0313679 -0.0199248 0)
(-0.0299906 -0.0198281 0)
(-0.0252994 -0.0222701 0)
(-0.013693 -0.020726 0)
(0.0135306 -0.0192725 0)
(0.0266089 -0.0204696 0)
(0.0295072 -0.0206661 0)
(0.030626 -0.0191751 0)
(0.0303081 -0.0203199 0)
(0.0299207 -0.0188124 0)
(0.0296843 -0.0205877 0)
(0.0293314 -0.018996 0)
(0.0292254 -0.0209889 0)
(0.0284641 -0.0191722 0)
(0.0272358 -0.0212006 0)
(0.0235246 -0.0191349 0)
(0.0181633 -0.0209729 0)
(0.011464 -0.019101 0)
(0.00452112 -0.0200658 0)
(-0.00300623 -0.01876 0)
(-0.0105782 -0.0203894 0)
(-0.0171108 -0.0191468 0)
(-0.0226476 -0.0211427 0)
(-0.0255965 -0.0191232 0)
(-0.0271519 -0.0212157 0)
(-0.0273406 -0.0190893 0)
(-0.0276281 -0.0210106 0)
(-0.0275025 -0.0188622 0)
(-0.027819 -0.0206477 0)
(-0.0281768 -0.0186123 0)
(-0.0280128 -0.0199326 0)
(-0.0294462 -0.0204231 0)
(-0.0306292 -0.0193675 0)
(-0.0317129 -0.0195911 0)
(0.0317445 -0.0195494 0)
(0.0316354 -0.0200919 0)
(0.029681 -0.0208164 0)
(0.0286217 -0.0191204 0)
(0.0283356 -0.0206033 0)
(0.028158 -0.0187127 0)
(0.0284134 -0.0206986 0)
(0.0284113 -0.0188418 0)
(0.0286625 -0.0209308 0)
(0.0281893 -0.0188803 0)
(0.0273241 -0.0210104 0)
(0.0242757 -0.0188068 0)
(0.0192806 -0.020817 0)
(0.0125372 -0.0188669 0)
(0.00540164 -0.0199953 0)
(-0.0022396 -0.0186629 0)
(-0.0100142 -0.0203259 0)
(-0.0167522 -0.0190984 0)
(-0.0224444 -0.0210994 0)
(-0.0256685 -0.0190528 0)
(-0.0273584 -0.0211607 0)
(-0.027631 -0.0190436 0)
(-0.0279285 -0.0209883 0)
(-0.0278164 -0.0188637 0)
(-0.0281344 -0.020669 0)
(-0.0284462 -0.0186233 0)
(-0.0281775 -0.01991 0)
(-0.0295402 -0.0203226 0)
(-0.0306765 -0.0193457 0)
(-0.031682 -0.0195857 0)
(0.0370321 -0.019917 0)
(0.0338616 -0.0212966 0)
(0.0305333 -0.0211553 0)
(0.0288614 -0.0203874 0)
(0.0285338 -0.019028 0)
(0.0284808 -0.0205847 0)
(0.028509 -0.0190167 0)
(0.0286586 -0.021063 0)
(0.0283854 -0.0192271 0)
(0.0281055 -0.0213235 0)
(0.0265075 -0.0193402 0)
(0.0232917 -0.0211807 0)
(0.0174893 -0.0192418 0)
(0.0104203 -0.0204043 0)
(0.00210971 -0.0188174 0)
(-0.00603685 -0.0198754 0)
(-0.014065 -0.0188751 0)
(-0.0213828 -0.0202324 0)
(-0.0258507 -0.0178106 0)
(-0.0267647 -0.0191949 0)
(-0.0291851 -0.0189987 0)
(-0.0299305 -0.0186469 0)
(-0.0308022 -0.0204047 0)
(-0.0309418 -0.0185382 0)
(-0.0311872 -0.0201292 0)
(-0.0311568 -0.0187151 0)
(-0.0312505 -0.020282 0)
(-0.0301313 -0.0196374 0)
(-0.025856 -0.0219779 0)
(-0.0141573 -0.0202138 0)
(0.0321219 -0.0199047 0)
(0.0319775 -0.0197881 0)
(0.0299544 -0.0207048 0)
(0.0287838 -0.0191165 0)
(0.0283792 -0.0206495 0)
(0.0281881 -0.0187611 0)
(0.0283264 -0.0207126 0)
(0.0283066 -0.0188572 0)
(0.0284742 -0.0209674 0)
(0.0279819 -0.018913 0)
(0.0270481 -0.0210601 0)
(0.0239563 -0.0188723 0)
(0.0189681 -0.0208899 0)
(0.0123275 -0.0189368 0)
(0.00531479 -0.0200285 0)
(-0.00229829 -0.0187199 0)
(-0.00998419 -0.0203207 0)
(-0.0166191 -0.0191537 0)
(-0.0223466 -0.0211114 0)
(-0.0255961 -0.01907 0)
(-0.0273263 -0.0211312 0)
(-0.0276074 -0.0190486 0)
(-0.0279091 -0.0209422 0)
(-0.0277687 -0.0188731 0)
(-0.0281053 -0.0206612 0)
(-0.0284162 -0.0185797 0)
(-0.028039 -0.0198743 0)
(-0.0294591 -0.020178 0)
(-0.0307274 -0.0194867 0)
(-0.0316548 -0.0195695 0)
(0.0139426 -0.0201421 0)
(0.0255142 -0.0213303 0)
(0.0290772 -0.0194821 0)
(0.0317677 -0.0201524 0)
(0.0315543 -0.0200245 0)
(0.0322163 -0.0186005 0)
(0.032257 -0.0202208 0)
(0.0321954 -0.01868 0)
(0.0319769 -0.0207778 0)
(0.0310277 -0.0191367 0)
(0.0290107 -0.0212714 0)
(0.0246642 -0.0192435 0)
(0.0184281 -0.0211241 0)
(0.0113914 -0.0189851 0)
(0.00470802 -0.0185765 0)
(-0.00423038 -0.0183143 0)
(-0.0108258 -0.0191929 0)
(-0.0180608 -0.0211179 0)
(-0.0241884 -0.0192359 0)
(-0.0285403 -0.0212912 0)
(-0.0305425 -0.0191852 0)
(-0.0315378 -0.0209158 0)
(-0.0317542 -0.0189306 0)
(-0.0318156 -0.0204712 0)
(-0.0316556 -0.0189139 0)
(-0.0315253 -0.0202428 0)
(-0.0320027 -0.0199297 0)
(-0.0297783 -0.0207768 0)
(-0.0267197 -0.0217079 0)
(-0.0139563 -0.0199689 0)
(0.0320373 -0.019701 0)
(0.0321382 -0.0199356 0)
(0.030236 -0.0208954 0)
(0.0293441 -0.0191756 0)
(0.02924 -0.0210029 0)
(0.0293415 -0.0189806 0)
(0.0299479 -0.0211813 0)
(0.0301441 -0.0191989 0)
(0.0306967 -0.0215039 0)
(0.0302914 -0.0192107 0)
(0.0295083 -0.0215628 0)
(0.0266344 -0.0189954 0)
(0.0219496 -0.0213752 0)
(0.0152397 -0.0191359 0)
(0.00795231 -0.0205636 0)
(-0.000211569 -0.0187719 0)
(-0.00850166 -0.0205271 0)
(-0.016034 -0.0191477 0)
(-0.0221964 -0.021318 0)
(-0.0263232 -0.0190987 0)
(-0.0283641 -0.0214523 0)
(-0.0290236 -0.019184 0)
(-0.0295322 -0.0215006 0)
(-0.0294446 -0.0192617 0)
(-0.0297973 -0.021298 0)
(-0.0299194 -0.0188738 0)
(-0.0292628 -0.0204177 0)
(-0.0303593 -0.0204837 0)
(-0.0313588 -0.0200926 0)
(-0.0321656 -0.0203423 0)
(2.93603 0.435131 0)
(6.30352 1.8246 0)
(6.57445 1.25252 0)
(5.85131 0.433405 0)
(5.75655 -1.83702 0)
(6.88581 -3.22758 0)
(8.0306 -5.63834 0)
(7.5354 -7.80836 0)
(9.18249 -7.63832 0)
(10.5534 -9.67125 0)
(11.4875 -5.19954 0)
(7.87921 -2.43293 0)
(4.42 3.19364 0)
(2.22745 3.56829 0)
(-5.66848 12.6842 0)
(-15.2951 2.0127 0)
(-13.7279 -4.76693 0)
(-4.07496 -8.69346 0)
(5.58369 -6.61566 0)
(11.5716 -7.30885 0)
(14.5934 -6.01105 0)
(21 -8.22988 0)
(30.4057 -14.9348 0)
(44.0265 -16.9997 0)
(53.9396 -14.606 0)
(57.7581 -9.3206 0)
(59.9635 -4.96851 0)
(62.3618 -4.24712 0)
(66.9119 -7.23059 0)
(72.7149 -8.3212 0)
(73.6861 -11.5456 0)
(71.8762 -10.1298 0)
(69.537 -9.86158 0)
(65.7216 -9.80185 0)
(65.1589 -6.88624 0)
(59.237 -6.74423 0)
(52.8307 0.279912 0)
(47.231 3.42753 0)
(37.061 5.28301 0)
(29.378 11.1796 0)
(23.3905 14.8337 0)
(14.6433 17.9024 0)
(7.79339 20.2176 0)
(3.25369 21.0402 0)
(-0.30382 -10.1323 0)
(1.38034 -14.7059 0)
(5.03682 -15.5019 0)
(9.36297 -15.0983 0)
(13.9583 -14.313 0)
(17.0405 -13.1209 0)
(19.6499 -11.6872 0)
(21.5277 -10.2617 0)
(23.2038 -8.45873 0)
(24.6115 -7.42232 0)
(25.126 -6.16259 0)
(26.2983 -5.16132 0)
(25.8541 -5.0187 0)
(25.9712 -3.83001 0)
(25.569 -4.7143 0)
(24.8045 -2.89079 0)
(23.9887 -3.37056 0)
(22.8015 -1.904 0)
(21.6785 -1.66249 0)
(20.2118 -1.12043 0)
(19.0951 -0.246959 0)
(17.4739 -0.233621 0)
(16.5632 0.611128 0)
(14.7639 0.666331 0)
(13.6581 1.57467 0)
(11.5325 1.48917 0)
(9.51857 2.66685 0)
(7.29655 2.22429 0)
(4.48326 3.2256 0)
(1.89712 3.18436 0)
(0.383826 -4.16776 0)
(1.34164 -3.97279 0)
(2.17997 -3.72819 0)
(2.61474 -3.22884 0)
(3.21841 -2.99065 0)
(3.54047 -2.48214 0)
(3.69427 -2.19266 0)
(3.99254 -1.82287 0)
(3.80072 -1.61946 0)
(3.80321 -1.29067 0)
(3.72831 -1.19239 0)
(3.52768 -0.950126 0)
(3.51184 -0.880285 0)
(3.17579 -0.806487 0)
(3.19227 -0.571857 0)
(2.79277 -0.73107 0)
(2.62956 -0.260588 0)
(2.38976 -0.689254 0)
(2.08527 -0.0614533 0)
(1.95224 -0.554333 0)
(1.61488 -0.0032376 0)
(1.48896 -0.343758 0)
(1.20101 -0.0309642 0)
(1.0704 -0.161364 0)
(0.871182 -0.0301961 0)
(0.692364 -0.0579043 0)
(0.563594 0.00550191 0)
(0.387146 -0.0178434 0)
(0.238491 0.0506365 0)
(0.0725364 0.0251207 0)
(-0.00945619 -0.101219 0)
(-0.00626522 -0.103696 0)
(-0.0128567 -0.0847493 0)
(-0.000345278 -0.0799647 0)
(-0.00274383 -0.0657679 0)
(-0.00429939 -0.0473419 0)
(-0.00308412 -0.055511 0)
(-0.0110461 -0.0335536 0)
(-0.00947618 -0.0404943 0)
(-0.0155198 -0.0259911 0)
(-0.0142133 -0.0315728 0)
(-0.016446 -0.0203258 0)
(-0.012284 -0.0284912 0)
(-0.00807794 -0.0192465 0)
(-0.0027044 -0.0234714 0)
(0.00785397 -0.0244674 0)
(0.0126587 -0.0154281 0)
(0.018494 -0.0254613 0)
(0.0231575 -0.0146873 0)
(0.0257509 -0.0252869 0)
(0.0268647 -0.0140027 0)
(0.0272463 -0.0248244 0)
(0.0280545 -0.0137036 0)
(0.0287498 -0.0241753 0)
(0.0301883 -0.0151203 0)
(0.0255457 -0.0164117 0)
(0.027356 -0.0244548 0)
(0.0292909 -0.0155501 0)
(0.0315889 -0.026591 0)
(0.0351925 -0.0123793 0)
(-0.0355458 -0.0128523 0)
(-0.0322419 -0.0270109 0)
(-0.0307337 -0.014539 0)
(-0.0295506 -0.0241884 0)
(-0.0288156 -0.0132174 0)
(-0.028042 -0.0243454 0)
(-0.0274739 -0.01353 0)
(-0.0267924 -0.0248365 0)
(-0.0261685 -0.0139166 0)
(-0.0251287 -0.0253349 0)
(-0.023229 -0.0146029 0)
(-0.0193818 -0.0253932 0)
(-0.0135579 -0.0154164 0)
(-0.0131923 -0.0151169 0)
(-0.0062997 -0.0248079 0)
(0.000945281 -0.0146476 0)
(0.00826682 -0.024971 0)
(0.0146992 -0.0147862 0)
(0.0201387 -0.025745 0)
(0.0233046 -0.0146276 0)
(0.024521 -0.0257007 0)
(0.0251092 -0.0144668 0)
(0.0253198 -0.0254245 0)
(0.0256609 -0.0141919 0)
(0.0254715 -0.0249142 0)
(0.0252724 -0.0146888 0)
(0.0248277 -0.0240351 0)
(0.027901 -0.023423 0)
(0.0251279 -0.0143526 0)
(0.0113492 -0.0265119 0)
(-0.0356355 -0.0125204 0)
(-0.0325892 -0.0264483 0)
(-0.0310974 -0.0153476 0)
(-0.0294172 -0.0242674 0)
(-0.0249863 -0.0223416 0)
(-0.0265968 -0.0143844 0)
(-0.0262792 -0.023986 0)
(-0.0261033 -0.0137559 0)
(-0.0256579 -0.0248902 0)
(-0.0252108 -0.0140882 0)
(-0.0239799 -0.0253496 0)
(-0.0209186 -0.0146351 0)
(-0.0158337 -0.0252497 0)
(-0.00949707 -0.014285 0)
(-0.00305851 -0.0243022 0)
(0.00393307 -0.0143069 0)
(0.010934 -0.0246769 0)
(0.017446 -0.0147072 0)
(0.0225475 -0.0251144 0)
(0.025192 -0.0143272 0)
(0.0262505 -0.0250601 0)
(0.0268102 -0.0139578 0)
(0.027191 -0.0246751 0)
(0.0277416 -0.0135058 0)
(0.0282354 -0.0242082 0)
(0.0289523 -0.0131892 0)
(0.0296959 -0.0240694 0)
(0.0308432 -0.01488 0)
(0.0323294 -0.027309 0)
(0.0355933 -0.012848 0)
(-0.0321314 -0.0138657 0)
(-0.0294927 -0.0255776 0)
(-0.0257498 -0.0237317 0)
(-0.026853 -0.0144995 0)
(-0.0268093 -0.0242644 0)
(-0.0266848 -0.0136943 0)
(-0.0261228 -0.0247833 0)
(-0.0256975 -0.0141136 0)
(-0.0250786 -0.0254333 0)
(-0.0245153 -0.0145145 0)
(-0.0232222 -0.0257712 0)
(-0.0201949 -0.0150501 0)
(-0.0153673 -0.0255651 0)
(-0.0094721 -0.0146573 0)
(-0.00356673 -0.0246617 0)
(0.00279564 -0.0146726 0)
(0.00938119 -0.0250798 0)
(0.0153623 -0.0149197 0)
(0.0204299 -0.0259437 0)
(0.0233754 -0.0147762 0)
(0.0244764 -0.0258819 0)
(0.0250368 -0.0145661 0)
(0.0252169 -0.02557 0)
(0.025572 -0.0142917 0)
(0.0254241 -0.0249909 0)
(0.0253474 -0.0145671 0)
(0.0251431 -0.0242375 0)
(0.0281716 -0.0231307 0)
(0.024907 -0.0141404 0)
(0.0114156 -0.0266246 0)
(-0.0104105 -0.026274 0)
(-0.0237873 -0.0148481 0)
(-0.0264401 -0.0243226 0)
(-0.0271134 -0.0136424 0)
(-0.0273055 -0.0247763 0)
(-0.0272744 -0.0139868 0)
(-0.026909 -0.0251698 0)
(-0.0266826 -0.0142818 0)
(-0.0262877 -0.025514 0)
(-0.0258747 -0.0144898 0)
(-0.0248223 -0.025694 0)
(-0.0222022 -0.0149335 0)
(-0.0174371 -0.0255493 0)
(-0.0112029 -0.0147536 0)
(-0.00482383 -0.0246466 0)
(0.00180529 -0.0146109 0)
(0.00868061 -0.0250231 0)
(0.0148231 -0.0148148 0)
(0.0201143 -0.0259057 0)
(0.0232617 -0.0147302 0)
(0.0244608 -0.0258348 0)
(0.0250038 -0.0145301 0)
(0.0251765 -0.0255453 0)
(0.0254857 -0.0142715 0)
(0.0253202 -0.0249954 0)
(0.0251977 -0.014637 0)
(0.0249522 -0.024214 0)
(0.0279946 -0.0232066 0)
(0.024924 -0.0141968 0)
(0.011401 -0.0265996 0)
(-0.0122788 -0.0285164 0)
(-0.0235859 -0.0145319 0)
(-0.0285228 -0.0144699 0)
(-0.0280378 -0.0239971 0)
(-0.0273964 -0.0139005 0)
(-0.0266212 -0.0249207 0)
(-0.0261324 -0.0143338 0)
(-0.0255429 -0.0255204 0)
(-0.0252124 -0.0145744 0)
(-0.0247482 -0.0258194 0)
(-0.023853 -0.0146487 0)
(-0.0212333 -0.0257726 0)
(-0.0163303 -0.0147744 0)
(-0.0103683 -0.0249254 0)
(-0.00353202 -0.0143807 0)
(0.00307236 -0.0242633 0)
(0.0096237 -0.0143182 0)
(0.0159917 -0.0248992 0)
(0.0210777 -0.0167062 0)
(0.0233781 -0.0235498 0)
(0.0280166 -0.0230061 0)
(0.0280467 -0.0137701 0)
(0.0279867 -0.0245984 0)
(0.0283556 -0.0135661 0)
(0.0286994 -0.0242503 0)
(0.0292323 -0.0134318 0)
(0.0297688 -0.0243465 0)
(0.0306451 -0.014695 0)
(0.0318746 -0.0269974 0)
(0.0349897 -0.0131813 0)
(-0.0104012 -0.0269241 0)
(-0.0237606 -0.0145361 0)
(-0.0263641 -0.0242394 0)
(-0.0269641 -0.0137112 0)
(-0.027172 -0.0248084 0)
(-0.027152 -0.0140552 0)
(-0.0268229 -0.0251678 0)
(-0.0265882 -0.0143068 0)
(-0.0261728 -0.0255488 0)
(-0.0257319 -0.0144843 0)
(-0.0246445 -0.0257202 0)
(-0.0219799 -0.0149161 0)
(-0.0172466 -0.0256028 0)
(-0.0110933 -0.0147351 0)
(-0.00481066 -0.0246924 0)
(0.00181542 -0.0146909 0)
(0.00860356 -0.0250348 0)
(0.0147137 -0.0149215 0)
(0.02004 -0.0259183 0)
(0.0232991 -0.0147982 0)
(0.0245751 -0.0257984 0)
(0.0251848 -0.0145522 0)
(0.0253897 -0.025483 0)
(0.0257125 -0.0142433 0)
(0.0255058 -0.0249676 0)
(0.0252657 -0.0147692 0)
(0.0247686 -0.024156 0)
(0.0278463 -0.0235534 0)
(0.0251154 -0.0144623 0)
(0.0113315 -0.0265949 0)
(-0.0344458 -0.0125495 0)
(-0.030936 -0.0263508 0)
(-0.028747 -0.0157767 0)
(-0.0317467 -0.0176815 0)
(-0.028809 -0.0242231 0)
(-0.0275326 -0.0136479 0)
(-0.0264315 -0.0245525 0)
(-0.0257392 -0.013909 0)
(-0.0251102 -0.0251538 0)
(-0.0247531 -0.0141825 0)
(-0.0238779 -0.0256159 0)
(-0.0213779 -0.0146566 0)
(-0.0171466 -0.0257201 0)
(-0.0112874 -0.0147819 0)
(-0.00485398 -0.0230422 0)
(0.00610461 -0.0227101 0)
(0.012039 -0.0153001 0)
(0.0177425 -0.0257752 0)
(0.0220456 -0.0152039 0)
(0.024576 -0.0257325 0)
(0.0255266 -0.0146118 0)
(0.0259685 -0.0254077 0)
(0.0267605 -0.0143146 0)
(0.0276269 -0.0249136 0)
(0.0289757 -0.0138201 0)
(0.030228 -0.0242643 0)
(0.0319268 -0.0151157 0)
(0.0279049 -0.0182665 0)
(0.0302647 -0.0262325 0)
(0.03342 -0.0130747 0)
(-0.0102229 -0.0265126 0)
(-0.0233725 -0.014359 0)
(-0.0256556 -0.0243601 0)
(-0.0259675 -0.0133798 0)
(-0.0255518 -0.0251852 0)
(-0.0250886 -0.0138839 0)
(-0.0242392 -0.0257749 0)
(-0.0236976 -0.0142413 0)
(-0.0230617 -0.0262641 0)
(-0.022665 -0.0143484 0)
(-0.0218704 -0.0263861 0)
(-0.0198211 -0.01475 0)
(-0.0159057 -0.026155 0)
(-0.0103652 -0.0147149 0)
(-0.00451645 -0.025155 0)
(0.00165157 -0.0147596 0)
(0.00816386 -0.0252085 0)
(0.0139858 -0.0154198 0)
(0.0192949 -0.0263127 0)
(0.0225159 -0.0154112 0)
(0.023732 -0.0264108 0)
(0.0241977 -0.0152996 0)
(0.0244239 -0.0262912 0)
(0.0248167 -0.0150679 0)
(0.0247466 -0.025807 0)
(0.0246088 -0.0158951 0)
(0.023531 -0.0248341 0)
(0.0267244 -0.0248079 0)
(0.0244756 -0.0154857 0)
(0.0110091 -0.0275389 0)
(-0.408854 -3.57584 0)
(1.29074 -3.06857 0)
(4.15304 -4.9978 0)
(7.47654 -3.30535 0)
(10.3618 -4.18852 0)
(11.5867 -6.43702 0)
(12.5202 -8.29043 0)
(13.5871 -11.5702 0)
(11.2785 -9.17196 0)
(11.8707 -12.7058 0)
(13.5502 -9.76216 0)
(11.7265 -10.0397 0)
(5.78555 -2.04274 0)
(0.201044 -0.0293192 0)
(-14.3109 14.2354 0)
(-19.8732 5.39831 0)
(-8.04555 2.98185 0)
(5.70983 4.28558 0)
(13.672 3.50586 0)
(18.8178 -2.68832 0)
(25.4204 -9.21194 0)
(26.1244 -12.8133 0)
(32.5059 -20.8913 0)
(49.7021 -21.1155 0)
(63.3384 -22.0108 0)
(70.5139 -18.8679 0)
(69.9895 -12.3814 0)
(67.7636 -9.4711 0)
(69.3467 -7.10305 0)
(72.6982 -10.2263 0)
(75.4902 -12.2557 0)
(74.8931 -13.0163 0)
(71.5499 -12.4574 0)
(69.0041 -10.5247 0)
(65.3861 -8.87684 0)
(63.1145 -7.05257 0)
(56.1627 -2.13189 0)
(48.9524 2.41559 0)
(40.0852 7.22515 0)
(32.4718 13.6314 0)
(25.0161 18.2979 0)
(16.7503 23.1462 0)
(9.9778 26.5672 0)
(3.86075 29.2583 0)
(-1.26538 -11.7813 0)
(-0.473514 -19.8648 0)
(3.60357 -21.914 0)
(8.97396 -22.0933 0)
(13.8641 -20.7836 0)
(18.1016 -19.1786 0)
(21.2408 -16.0636 0)
(24.004 -14.3409 0)
(25.1162 -11.7264 0)
(26.0855 -10.086 0)
(26.5469 -8.56797 0)
(26.5903 -7.24333 0)
(26.6662 -6.91396 0)
(26.5133 -5.33249 0)
(26.0675 -6.00811 0)
(25.5424 -4.01286 0)
(24.8709 -4.80766 0)
(23.258 -2.67422 0)
(22.336 -2.67861 0)
(20.5678 -1.53911 0)
(19.609 -0.47017 0)
(17.8829 -0.672613 0)
(17.1149 0.869282 0)
(15.1512 0.407528 0)
(13.8141 2.02435 0)
(11.9275 1.53153 0)
(9.64617 3.25627 0)
(7.60468 2.77492 0)