/*--------------------------------*- C++ -*----------------------------------*\
| =========                 |                                                 |
| \\      /  F ield         | OpenFOAM: The Open Source CFD Toolbox           |
|  \\    /   O peration     | Version:  2.1.1                                 |
|   \\  /    A nd           | Web:      www.OpenFOAM.org                      |
|    \\/     M anipulation  |                                                 |
\*---------------------------------------------------------------------------*/
FoamFile
{
    version     2.0;
    format      ascii;
    class       volScalarField;
    location    "0.003500000";
    object      H2O2;
}
// * * * * * * * * * * * * * * * * * * * * * * * * * * * * * * * * * * * * * //

dimensions      [0 0 0 0 0 0 0];

internalField   nonuniform List<scalar> 
12384
(
1.60463e-06
1.68363e-06
1.6391e-06
1.69929e-06
1.64577e-06
1.55895e-06
1.49142e-06
1.25196e-06
1.01126e-06
8.25747e-07
5.36781e-07
6.19101e-07
6.10193e-07
5.96858e-07
3.68418e-07
4.64534e-07
6.63031e-07
8.17895e-07
9.58419e-07
1.0167e-06
1.04199e-06
1.06752e-06
1.07702e-06
9.96716e-07
9.65366e-07
9.81114e-07
8.77611e-07
9.1663e-07
8.7201e-07
8.8584e-07
8.19495e-07
8.37034e-07
8.12801e-07
9.02799e-07
7.36846e-07
6.40706e-07
4.31653e-07
3.04925e-07
2.59342e-07
3.30426e-07
4.74168e-07
6.41715e-07
5.23863e-07
3.92696e-07
6.28118e-07
7.14059e-07
7.07561e-07
6.80323e-07
6.33045e-07
6.30577e-07
6.22787e-07
6.56059e-07
6.69976e-07
7.4878e-07
7.61195e-07
9.14204e-07
8.8667e-07
1.05771e-06
1.08367e-06
9.60698e-07
8.44917e-07
7.49617e-07
6.29971e-07
5.80733e-07
5.25017e-07
5.32994e-07
5.58094e-07
6.16761e-07
6.47487e-07
6.75052e-07
7.56589e-07
6.53872e-07
4.62094e-07
5.74153e-07
3.22279e-07
3.035e-07
2.88404e-07
2.69543e-07
2.73098e-07
3.16694e-07
4.6355e-07
5.54359e-07
6.39506e-07
6.56685e-07
6.79311e-07
6.80672e-07
6.50006e-07
6.63159e-07
6.10222e-07
6.37398e-07
6.03478e-07
6.23895e-07
6.21115e-07
6.33085e-07
6.35076e-07
6.38396e-07
6.48183e-07
5.79949e-07
3.69949e-07
2.56379e-07
1.64173e-07
1.97343e-07
6.29696e-07
6.17334e-07
3.89939e-07
2.95541e-07
2.44978e-07
1.89771e-07
1.57017e-07
8.46516e-08
8.5413e-08
1.6819e-07
1.80247e-07
2.11588e-07
1.7812e-07
1.95297e-07
1.57571e-07
1.77469e-07
1.33731e-07
1.67693e-07
1.61565e-07
1.89951e-07
1.95245e-07
2.3087e-07
2.63703e-07
3.79779e-07
5.24086e-07
6.08878e-07
6.13583e-07
6.06925e-07
6.75573e-07
5.86658e-07
5.84116e-07
6.54762e-07
7.10864e-07
7.79659e-07
7.86906e-07
6.59507e-07
6.59179e-07
6.36239e-07
5.26474e-07
2.96684e-07
1.99006e-07
8.67441e-08
7.87653e-08
7.39635e-08
8.06026e-08
7.24301e-08
7.84636e-08
6.91426e-08
7.71573e-08
7.69449e-08
1.77554e-07
2.1337e-07
2.50658e-07
3.18352e-07
4.49067e-07
5.40679e-07
5.47086e-07
7.13079e-07
4.72656e-07
3.37289e-07
4.17876e-07
5.35445e-07
5.78417e-07
5.81564e-07
6.3995e-07
6.62891e-07
4.32975e-07
6.92485e-08
1.41371e-08
4.39466e-09
1.49408e-09
2.14819e-09
1.20779e-08
7.95965e-07
4.86022e-07
3.96106e-07
4.1394e-07
4.51423e-07
4.94709e-07
5.33175e-07
5.60128e-07
5.50712e-07
4.67096e-07
3.97534e-07
3.06116e-07
2.36214e-07
1.83782e-07
1.9018e-07
1.99869e-07
2.24627e-07
2.77797e-07
2.92965e-07
4.44654e-07
4.47528e-07
5.19503e-07
5.74723e-07
6.38075e-07
7.04667e-07
7.53647e-07
7.48742e-07
7.63561e-07
7.05119e-07
4.72943e-07
2.70532e-07
1.38797e-07
1.7502e-07
1.71913e-07
1.65552e-07
1.6695e-07
1.76788e-07
1.82973e-07
1.84926e-07
2.31454e-07
2.43839e-07
3.50791e-07
3.11532e-07
3.41262e-07
3.27842e-07
3.37299e-07
3.62783e-07
3.89251e-07
4.67843e-07
6.61363e-07
4.98133e-07
4.57011e-07
2.91676e-07
3.22785e-07
2.68063e-07
3.36152e-07
4.12141e-07
4.40496e-07
4.39699e-07
4.12829e-07
4.07201e-07
3.55978e-07
3.45078e-07
3.39733e-07
3.44378e-07
3.45952e-07
3.61595e-07
3.79704e-07
4.07907e-07
4.26973e-07
4.525e-07
4.98138e-07
5.35641e-07
5.87437e-07
6.24335e-07
6.68657e-07
6.89181e-07
6.97512e-07
6.94925e-07
4.30919e-07
3.64871e-07
3.32329e-07
3.15682e-07
3.33452e-07
4.05467e-07
4.94115e-07
5.36641e-07
5.68937e-07
6.23356e-07
6.68652e-07
6.93585e-07
6.54556e-07
6.30608e-07
5.59993e-07
4.62206e-07
5.47661e-07
6.03224e-07
7.95851e-07
8.58072e-07
7.60898e-07
6.25216e-07
6.30629e-07
6.5174e-07
8.09936e-07
1.14574e-06
1.48696e-06
1.69945e-06
1.4496e-06
1.38255e-06
3.15251e-07
3.48279e-07
3.29357e-07
2.39166e-07
2.85786e-07
2.23039e-07
2.48606e-07
2.74072e-07
2.98827e-07
3.1232e-07
3.33393e-07
4.55026e-07
3.97809e-07
5.21221e-07
4.23269e-07
4.86555e-07
4.99555e-07
5.19876e-07
5.26621e-07
5.52531e-07
5.60176e-07
5.67709e-07
5.85121e-07
5.88765e-07
6.37634e-07
6.51812e-07
6.73858e-07
7.0321e-07
7.0822e-07
7.11815e-07
2.39204e-07
2.14074e-07
2.01013e-07
1.8396e-07
1.73001e-07
1.8013e-07
1.73195e-07
1.95712e-07
1.88595e-07
2.03193e-07
2.08953e-07
2.21119e-07
2.37752e-07
2.60905e-07
2.97487e-07
3.22241e-07
3.69268e-07
5.02529e-07
5.90057e-07
7.84127e-07
9.174e-07
9.33561e-07
9.43543e-07
9.6195e-07
9.51517e-07
9.49624e-07
9.20082e-07
9.88977e-07
9.84361e-07
1.08596e-06
1.5724e-07
1.66616e-07
1.60157e-07
1.53563e-07
1.56098e-07
1.55955e-07
1.54212e-07
1.6311e-07
1.60221e-07
1.77119e-07
1.78372e-07
1.78605e-07
2.13105e-07
2.77994e-07
3.40578e-07
5.20034e-07
6.88458e-07
8.34123e-07
1.12565e-06
1.42345e-06
1.75186e-06
1.94408e-06
2.07694e-06
1.66249e-06
1.01632e-06
6.44214e-07
6.60046e-07
6.65228e-07
6.85469e-07
6.47873e-07
1.83328e-06
1.28643e-06
7.63885e-07
5.88709e-07
5.31855e-07
6.63822e-07
1.03133e-06
1.55264e-06
1.73418e-06
1.44736e-06
8.37464e-07
5.11131e-07
6.58392e-07
6.14417e-07
4.05927e-07
9.25859e-07
1.24408e-06
1.31341e-06
1.32007e-06
1.3345e-06
1.31551e-06
1.28057e-06
1.2216e-06
1.17714e-06
1.08496e-06
1.08595e-06
9.85952e-07
9.94649e-07
9.38177e-07
9.49178e-07
9.36084e-07
9.47414e-07
9.61346e-07
1.04683e-06
9.65906e-07
7.81543e-07
5.19176e-07
3.39188e-07
2.57742e-07
3.41178e-07
5.05025e-07
6.53613e-07
4.84984e-07
3.94095e-07
6.2951e-07
7.06656e-07
6.30107e-07
5.75678e-07
5.73004e-07
5.78481e-07
5.87412e-07
6.00606e-07
6.20894e-07
6.36695e-07
6.44395e-07
7.09144e-07
7.83948e-07
9.96745e-07
1.13647e-06
1.20838e-06
1.07906e-06
8.52037e-07
6.78389e-07
5.07021e-07
4.55463e-07
4.32465e-07
4.48614e-07
4.84904e-07
7.23077e-07
7.76308e-07
8.23041e-07
6.64074e-07
4.7469e-07
5.95489e-07
3.21246e-07
2.85712e-07
2.66377e-07
4.02835e-07
6.29999e-07
7.09255e-07
7.11619e-07
7.07251e-07
6.9137e-07
6.5971e-07
6.39689e-07
6.39226e-07
6.23251e-07
6.34776e-07
6.12095e-07
6.23578e-07
6.052e-07
6.15334e-07
6.24813e-07
6.2166e-07
6.19649e-07
6.20411e-07
6.34728e-07
6.38686e-07
5.00961e-07
3.80941e-07
2.80547e-07
2.04788e-07
4.85611e-07
6.22974e-07
4.38019e-07
3.03993e-07
1.83597e-07
8.4738e-08
1.61569e-07
3.76481e-07
5.3742e-07
7.46682e-07
7.43955e-07
7.27842e-07
7.35124e-07
7.30741e-07
7.01181e-07
6.24356e-07
5.31078e-07
4.36433e-07
4.00249e-07
3.24814e-07
3.18828e-07
3.69382e-07
4.18102e-07
5.21622e-07
6.33473e-07
6.72093e-07
6.83169e-07
6.53482e-07
6.78444e-07
5.85981e-07
5.65226e-07
6.9374e-07
7.01214e-07
7.98729e-07
7.15112e-07
6.01472e-07
3.13089e-07
7.43601e-08
4.18972e-08
4.2985e-08
3.46831e-08
3.59574e-08
3.57445e-08
3.53799e-08
3.29829e-08
3.03341e-08
2.54779e-08
2.51547e-08
2.03161e-08
2.28789e-08
1.9847e-08
2.34934e-08
3.40931e-08
4.57452e-08
1.33344e-07
3.01586e-07
4.85313e-07
6.62742e-07
5.61289e-07
3.43624e-07
4.16528e-07
5.26508e-07
3.48357e-07
2.5083e-07
2.37277e-07
7.22201e-08
2.87038e-08
8.2905e-09
2.60863e-09
1.20797e-09
1.43069e-09
5.46711e-09
2.73432e-07
6.80238e-07
5.71965e-07
6.78928e-07
8.04351e-07
5.10222e-07
2.46566e-07
7.93971e-08
5.2097e-08
4.47027e-08
7.89914e-08
2.70512e-07
7.5432e-07
5.41614e-07
2.87325e-07
2.11986e-07
2.09245e-07
2.31107e-07
2.8197e-07
2.95093e-07
4.36528e-07
5.51815e-07
6.60961e-07
7.30745e-07
6.70632e-07
4.7241e-07
4.33585e-07
5.21663e-07
7.15475e-07
6.83504e-07
3.92954e-07
2.08791e-07
1.78868e-07
1.658e-07
1.60519e-07
1.49627e-07
1.60752e-07
1.79844e-07
2.69827e-07
5.44349e-07
2.96135e-07
3.94411e-08
2.03078e-08
2.1385e-08
3.12751e-08
1.49212e-07
5.85516e-07
2.90257e-07
2.93859e-07
3.94604e-07
6.66485e-07
5.02257e-07
4.6366e-07
2.84482e-07
3.28208e-07
2.73922e-07
3.58533e-07
3.85899e-07
3.87899e-07
3.76361e-07
3.48098e-07
3.09685e-07
2.6186e-07
2.15764e-07
1.80373e-07
1.64991e-07
1.43498e-07
1.37336e-07
1.28034e-07
1.13454e-07
1.12388e-07
1.19007e-07
1.28203e-07
1.27569e-07
1.39591e-07
1.5601e-07
1.82907e-07
2.38422e-07
3.56676e-07
4.67255e-07
4.10425e-07
3.48967e-07
2.86081e-07
2.5995e-07
2.63647e-07
3.40531e-07
3.97847e-07
4.362e-07
3.95514e-07
4.27544e-07
4.87967e-07
4.68182e-07
4.3973e-07
3.68602e-07
3.18825e-07
3.24854e-07
3.53071e-07
5.50387e-07
6.43938e-07
8.95884e-07
8.63474e-07
8.05183e-07
6.53878e-07
4.86328e-07
3.63079e-07
2.92927e-07
3.60076e-07
5.32012e-07
1.20102e-06
1.49585e-06
3.10742e-07
3.66045e-07
3.21163e-07
2.4334e-07
2.20751e-07
1.9459e-07
2.06452e-07
2.03201e-07
2.08753e-07
2.15241e-07
2.1372e-07
1.84894e-07
2.32166e-07
1.77612e-07
2.14836e-07
2.1293e-07
2.19031e-07
2.23733e-07
2.15791e-07
2.09533e-07
1.9216e-07
1.68206e-07
1.55255e-07
1.50232e-07
1.55718e-07
2.02863e-07
2.76272e-07
3.536e-07
5.19324e-07
6.4236e-07
2.1847e-07
1.96123e-07
1.8991e-07
1.6794e-07
1.62041e-07
1.57656e-07
1.57941e-07
1.58473e-07
1.59391e-07
1.57812e-07
1.52719e-07
1.48812e-07
1.44501e-07
1.36868e-07
1.53402e-07
1.45279e-07
1.61902e-07
3.24911e-07
3.40868e-07
3.89751e-07
4.45417e-07
5.209e-07
5.15588e-07
4.52371e-07
4.35855e-07
3.35402e-07
3.59209e-07
4.21691e-07
5.16779e-07
7.37319e-07
1.36077e-07
1.41463e-07
1.44349e-07
1.44321e-07
1.46623e-07
1.48586e-07
1.47257e-07
1.39632e-07
1.44338e-07
1.40245e-07
1.25494e-07
1.39274e-07
1.49731e-07
2.43158e-07
3.58053e-07
5.34295e-07
5.53403e-07
7.07337e-07
8.27362e-07
7.78337e-07
9.45501e-07
7.75592e-07
5.67828e-07
3.84235e-07
3.58374e-07
2.30781e-07
1.79315e-07
2.3476e-07
2.38263e-07
2.31932e-07
2.1526e-07
9.80598e-08
5.68963e-08
6.05686e-08
5.11504e-08
7.18935e-08
9.12478e-08
1.77144e-07
4.14842e-07
1.18266e-06
1.52748e-06
7.75865e-07
5.44203e-07
6.73952e-07
6.99561e-07
1.24865e-06
1.22948e-06
1.14067e-06
1.02072e-06
9.77353e-07
9.68396e-07
1.0358e-06
1.2353e-06
1.2634e-06
1.08748e-06
1.11303e-06
1.00161e-06
1.02466e-06
9.50164e-07
9.87547e-07
9.9693e-07
1.0707e-06
1.09665e-06
1.24456e-06
1.16084e-06
9.78737e-07
6.1383e-07
3.57678e-07
2.59168e-07
3.49874e-07
5.63294e-07
6.48304e-07
4.84121e-07
4.24274e-07
6.30743e-07
6.76197e-07
5.89746e-07
5.74479e-07
5.71701e-07
5.74148e-07
5.74364e-07
5.97424e-07
6.22045e-07
6.47778e-07
6.32415e-07
6.4786e-07
6.83537e-07
8.802e-07
1.01151e-06
1.19684e-06
1.24071e-06
1.14632e-06
8.89145e-07
6.7546e-07
4.74787e-07
3.49886e-07
3.27327e-07
3.64776e-07
5.22452e-07
7.5333e-07
8.7596e-07
6.17959e-07
4.99383e-07
6.3758e-07
3.11606e-07
2.78802e-07
4.86523e-07
7.08035e-07
7.13262e-07
6.37674e-07
2.8808e-07
8.12166e-08
5.75743e-08
5.25901e-08
5.59674e-08
7.19184e-08
8.48985e-08
2.01866e-07
2.49028e-07
3.78605e-07
4.63638e-07
5.39945e-07
5.82871e-07
6.14449e-07
6.23907e-07
6.14251e-07
6.17086e-07
6.42558e-07
5.88874e-07
4.81025e-07
4.18624e-07
2.60687e-07
3.63507e-07
6.31527e-07
4.71035e-07
2.47953e-07
1.42632e-07
2.50807e-07
6.31425e-07
6.60283e-07
4.97991e-07
4.81086e-07
4.50325e-07
4.62404e-07
4.6401e-07
4.92818e-07
5.42134e-07
6.10535e-07
6.53372e-07
6.86737e-07
6.78205e-07
6.64729e-07
6.23813e-07
6.0884e-07
6.30222e-07
6.7612e-07
6.71563e-07
6.54254e-07
6.70032e-07
6.99914e-07
7.0379e-07
5.76067e-07
5.61648e-07
6.90438e-07
7.17818e-07
7.34731e-07
5.4209e-07
1.84712e-07
5.43186e-08
3.46883e-08
3.66668e-08
3.16325e-08
3.19277e-08
3.02528e-08
2.52896e-08
2.03993e-08
1.66988e-08
1.42105e-08
1.03486e-08
1.0316e-08
8.38693e-09
1.16604e-08
9.9853e-09
1.44377e-08
1.49461e-08
2.40193e-08
3.48871e-08
1.52101e-07
3.2682e-07
6.25324e-07
6.30359e-07
3.57459e-07
4.05396e-07
5.47186e-07
8.57429e-09
8.49103e-09
8.32296e-09
5.73784e-09
2.66765e-09
1.12686e-09
5.94713e-10
8.7141e-10
5.06452e-09
2.46862e-07
6.91241e-07
7.03392e-07
7.01076e-07
1.59179e-07
2.75159e-08
1.35236e-08
6.60264e-09
5.65899e-09
5.7047e-09
5.90827e-09
5.48695e-09
8.09324e-09
2.27936e-08
2.88089e-07
5.78121e-07
2.77331e-07
2.17961e-07
2.30837e-07
2.69359e-07
2.84289e-07
5.17449e-07
6.97516e-07
6.98573e-07
5.15746e-07
2.93108e-07
1.76754e-07
1.45236e-07
1.71796e-07
5.05672e-07
6.50933e-07
3.87436e-07
1.82594e-07
1.95368e-07
1.66231e-07
1.50476e-07
1.49701e-07
2.49065e-07
6.1758e-07
2.73804e-08
2.63193e-09
1.12238e-09
5.9165e-10
5.7466e-10
4.69314e-10
4.97646e-10
6.19065e-10
3.94695e-09
7.82833e-08
4.70801e-07
3.03918e-07
6.77243e-07
5.16458e-07
4.72944e-07
2.98348e-07
3.29994e-07
2.68483e-07
3.54049e-07
3.60247e-07
3.65806e-07
3.5934e-07
3.48078e-07
3.43638e-07
3.79868e-07
4.31813e-07
5.03764e-07
5.4492e-07
5.93047e-07
6.13132e-07
6.0858e-07
5.77045e-07
4.90822e-07
4.00405e-07
2.59646e-07
1.71202e-07
1.15313e-07
9.65665e-08
1.0189e-07
1.06245e-07
1.3458e-07
1.90738e-07
3.64016e-07
3.29016e-07
2.55895e-07
1.99204e-07
1.9382e-07
2.38876e-07
2.81215e-07
2.9241e-07
2.69315e-07
2.87005e-07
3.43824e-07
3.43979e-07
3.42401e-07
3.40393e-07
4.25776e-07
5.33986e-07
7.66904e-07
7.7347e-07
4.37543e-07
1.44374e-07
1.54767e-07
6.29918e-08
1.30748e-07
2.04463e-07
9.91328e-07
1.31067e-06
4.62051e-07
2.93035e-07
3.7022e-07
7.92285e-07
2.87552e-07
3.41104e-07
3.57511e-07
2.68975e-07
2.51198e-07
1.82885e-07
2.06806e-07
2.37142e-07
2.93093e-07
3.95024e-07
4.42672e-07
4.80845e-07
5.83448e-07
4.47045e-07
3.43786e-07
2.83178e-07
1.8959e-07
1.05897e-07
9.0801e-08
7.18264e-08
7.06494e-08
6.47024e-08
5.75435e-08
5.36029e-08
4.90448e-08
5.41501e-08
6.23847e-08
1.01486e-07
1.74841e-07
2.7874e-07
2.01047e-07
1.96768e-07
1.80163e-07
1.8882e-07
1.83222e-07
1.81851e-07
2.07138e-07
2.29334e-07
2.82858e-07
3.26013e-07
3.72402e-07
3.69625e-07
4.46012e-07
4.26182e-07
5.01577e-07
3.92413e-07
4.54574e-07
4.43033e-07
4.24908e-07
4.3184e-07
3.53352e-07
3.46744e-07
2.98157e-07
2.90792e-07
2.73877e-07
2.33106e-07
1.92662e-07
1.79257e-07
2.22526e-07
3.3181e-07
1.18167e-07
1.26989e-07
1.48206e-07
1.60204e-07
2.12524e-07
2.18526e-07
2.61264e-07
2.3791e-07
2.84243e-07
2.1722e-07
2.14612e-07
1.79413e-07
2.55771e-07
6.28942e-07
7.59631e-07
7.91007e-07
7.07561e-07
6.55936e-07
6.47152e-07
6.4792e-07
4.8305e-07
4.23277e-07
2.9319e-07
3.04646e-07
1.91564e-07
1.68091e-07
1.1887e-07
6.90079e-08
6.17826e-08
7.12284e-08
1.89874e-08
1.76659e-08
2.14334e-08
2.60971e-08
2.67539e-08
3.16061e-08
3.15929e-08
4.88312e-08
7.67111e-08
2.12485e-07
8.05643e-07
1.43535e-06
6.14831e-07
6.23062e-07
1.08025e-06
1.22035e-06
1.12601e-06
9.79414e-07
7.45238e-07
6.00239e-07
6.01494e-07
7.6815e-07
1.04623e-06
1.2831e-06
1.18637e-06
1.114e-06
9.90911e-07
1.02343e-06
9.48794e-07
9.83071e-07
1.04199e-06
1.16736e-06
1.17982e-06
1.30129e-06
1.29271e-06
1.09486e-06
6.39379e-07
3.21659e-07
2.32304e-07
3.21467e-07
5.21472e-07
6.46732e-07
5.49067e-07
5.03669e-07
6.33121e-07
6.34122e-07
6.07253e-07
5.93168e-07
5.76592e-07
5.58194e-07
5.58802e-07
5.86085e-07
6.36668e-07
5.95056e-07
4.85342e-07
4.67781e-07
5.18356e-07
7.53251e-07
9.14111e-07
1.05438e-06
1.1472e-06
1.1854e-06
1.06723e-06
8.18949e-07
5.18942e-07
3.31854e-07
2.4577e-07
2.71931e-07
4.39576e-07
7.12725e-07
9.24518e-07
5.82132e-07
5.41031e-07
7.07684e-07
3.03214e-07
4.46745e-07
7.16836e-07
6.91473e-07
2.17413e-07
2.88908e-08
1.39183e-08
1.24894e-08
1.31441e-08
1.88943e-08
2.51562e-08
3.23535e-08
6.0138e-08
1.19442e-07
2.28773e-07
3.58699e-07
4.75135e-07
5.35532e-07
5.8788e-07
6.01958e-07
6.15634e-07
6.04559e-07
6.0241e-07
6.27198e-07
6.2835e-07
5.51076e-07
5.04719e-07
3.10438e-07
3.50231e-07
6.29115e-07
4.62569e-07
2.0331e-07
2.71937e-07
6.32312e-07
5.75429e-07
4.70953e-07
4.51797e-07
4.01718e-07
4.13258e-07
4.05142e-07
4.07591e-07
3.99847e-07
4.0855e-07
4.53203e-07
5.15614e-07
5.68164e-07
6.3439e-07
6.70062e-07
6.88413e-07
6.77747e-07
6.81029e-07
6.53323e-07
6.04172e-07
6.03406e-07
6.4102e-07
6.81664e-07
6.39292e-07
5.50175e-07
5.92439e-07
7.32169e-07
7.295e-07
6.00961e-07
1.80218e-07
5.44585e-08
3.85989e-08
3.35572e-08
2.89648e-08
2.23671e-08
1.66164e-08
1.05615e-08
8.09151e-09
9.35247e-09
1.12058e-08
1.28647e-08
1.36725e-08
1.37637e-08
1.24943e-08
9.72787e-09
6.14483e-09
5.57427e-09
1.19591e-08
1.81075e-08
3.3624e-08
7.52433e-08
3.01579e-07
6.16969e-07
6.21102e-07
3.93674e-07
4.13303e-07
5.56764e-07
1.87036e-09
1.78517e-09
1.83759e-09
1.16411e-09
6.15891e-10
3.13443e-10
4.9204e-10
3.07567e-09
1.51384e-07
6.81958e-07
7.16621e-07
4.57058e-07
4.99192e-08
1.32942e-08
8.94653e-09
5.95573e-09
5.57283e-09
5.23989e-09
4.50988e-09
4.20045e-09
4.17092e-09
4.41801e-09
5.74083e-09
2.26037e-08
5.33574e-07
4.30143e-07
2.52316e-07
2.4851e-07
2.74182e-07
2.52272e-07
6.89186e-07
7.64718e-07
7.36026e-07
7.35984e-07
6.57512e-07
2.94414e-07
8.54834e-08
7.70026e-08
3.53761e-07
5.82807e-07
3.52705e-07
2.23948e-07
2.14629e-07
1.71622e-07
1.65541e-07
2.54152e-07
6.36439e-07
1.12446e-08
1.11804e-09
5.78204e-10
5.75976e-10
5.34378e-10
4.38789e-10
3.02562e-10
2.33942e-10
2.33798e-10
3.16692e-10
1.15009e-09
4.92047e-08
2.79636e-07
7.08415e-07
5.61753e-07
4.62999e-07
3.03029e-07
3.1647e-07
2.60428e-07
3.27109e-07
3.50185e-07
3.74636e-07
4.3112e-07
5.29016e-07
6.56034e-07
2.77694e-07
3.08826e-08
7.7892e-09
2.85518e-09
1.85142e-09
1.44883e-09
1.47115e-09
1.84553e-09
2.4625e-09
3.663e-09
7.67931e-09
2.19624e-08
1.98572e-07
6.53906e-07
2.62169e-07
1.02734e-07
8.48074e-08
9.89073e-08
3.24074e-07
2.76702e-07
2.21227e-07
1.93568e-07
1.69903e-07
1.89631e-07
1.82981e-07
2.00822e-07
1.99749e-07
2.60958e-07
3.19551e-07
3.7673e-07
4.47495e-07
5.68159e-07
6.67998e-07
8.68815e-08
2.81012e-08
1.66027e-08
9.79978e-09
1.68767e-08
1.00491e-08
1.67409e-08
1.43036e-08
1.36162e-08
2.19585e-08
4.01813e-08
3.33318e-07
1.17334e-06
3.04579e-07
3.84966e-07
2.72535e-07
3.5322e-07
3.99347e-07
3.62675e-07
3.59432e-07
3.87462e-07
5.03134e-07
6.33893e-07
2.94994e-07
4.20907e-08
2.13323e-08
9.74648e-09
5.86129e-09
5.85451e-09
6.63535e-09
1.18733e-08
2.51885e-08
2.00804e-07
6.46852e-07
3.04068e-07
1.18377e-07
9.78309e-08
7.02758e-08
5.62615e-08
4.82313e-08
4.4497e-08
4.34367e-08
4.42032e-08
5.89321e-08
1.02745e-07
1.71957e-07
2.11809e-07
3.67806e-07
3.18214e-07
3.8826e-07
4.08572e-07
5.13922e-07
6.54139e-07
4.67703e-07
1.18853e-07
2.8114e-08
1.18298e-08
6.21351e-09
5.45317e-09
5.22101e-09
6.36178e-09
4.12856e-08
3.57535e-07
1.44341e-06
1.10995e-06
7.14921e-07
5.31631e-07
3.67413e-07
3.20226e-07
2.82388e-07
2.17933e-07
1.99298e-07
1.62861e-07
1.54817e-07
1.98192e-07
1.15654e-07
1.66482e-07
2.40013e-07
3.57144e-07
5.4431e-07
6.24917e-07
6.69414e-07
6.49943e-07
5.95295e-07
6.87978e-07
6.45767e-07
8.8608e-07
1.25491e-06
2.29572e-06
2.36057e-06
1.76318e-06
1.42434e-06
1.12804e-06
9.46991e-07
8.26982e-07
6.43812e-07
4.83358e-07
3.59981e-07
2.38355e-07
2.28971e-07
2.52394e-07
1.8146e-07
1.17617e-07
4.24111e-08
5.00204e-08
1.83563e-08
4.01719e-08
1.07266e-07
1.44816e-07
1.49743e-07
7.90453e-08
5.83523e-08
4.03266e-08
5.72596e-08
8.59202e-08
2.24009e-07
9.43634e-07
1.0497e-06
5.32265e-07
1.25707e-06
1.18755e-06
1.11517e-06
7.91986e-07
5.81129e-07
5.64319e-07
6.26125e-07
1.02429e-06
1.28719e-06
1.40134e-06
1.1828e-06
1.0955e-06
9.92538e-07
9.83363e-07
9.16318e-07
9.98494e-07
1.09665e-06
1.23077e-06
1.11241e-06
1.28496e-06
1.34954e-06
1.09613e-06
5.56813e-07
2.38186e-07
1.53652e-07
1.98769e-07
3.46321e-07
5.3102e-07
6.41124e-07
5.79173e-07
6.28585e-07
6.19369e-07
6.11251e-07
5.85052e-07
5.45718e-07
5.19438e-07
5.42086e-07
5.94067e-07
6.28339e-07
4.80816e-07
3.0461e-07
3.21412e-07
3.35252e-07
5.66006e-07
7.34643e-07
9.34482e-07
9.83267e-07
1.00648e-06
8.9373e-07
6.53305e-07
4.14295e-07
2.75667e-07
2.16347e-07
2.31789e-07
3.34069e-07
7.28708e-07
8.42888e-07
5.4759e-07
6.26489e-07
7.36735e-07
4.1282e-07
7.10469e-07
6.62071e-07
5.2186e-08
1.24782e-08
6.58811e-09
8.36811e-09
1.28159e-08
2.62028e-08
5.46663e-08
7.54091e-08
1.30751e-07
2.02606e-07
2.80481e-07
4.15991e-07
5.34336e-07
5.82165e-07
6.00616e-07
6.02498e-07
6.12671e-07
6.03092e-07
5.91699e-07
5.93088e-07
6.19318e-07
6.27671e-07
5.75304e-07
5.51953e-07
3.8618e-07
3.94048e-07
6.34971e-07
4.17374e-07
2.58473e-07
6.37366e-07
5.94614e-07
5.55551e-07
5.45035e-07
4.98199e-07
4.51263e-07
4.1852e-07
4.20944e-07
4.01593e-07
3.99409e-07
3.90702e-07
4.01186e-07
4.55909e-07
5.26092e-07
5.96457e-07
6.47445e-07
6.73018e-07
6.51845e-07
6.06767e-07
5.33339e-07
4.88215e-07
5.23535e-07
5.58945e-07
5.7735e-07
5.5018e-07
5.19038e-07
6.43176e-07
7.55976e-07
7.52114e-07
3.05211e-07
5.29332e-08
3.91371e-08
3.7294e-08
2.40493e-08
1.41993e-08
1.11832e-08
9.67516e-09
9.60603e-09
1.14871e-08
1.41768e-08
2.23971e-08
2.53698e-08
2.72299e-08
2.65872e-08
2.5067e-08
1.91949e-08
1.17098e-08
7.72486e-09
9.25607e-09
2.15202e-08
3.59361e-08
1.59847e-07
4.03514e-07
6.15469e-07
6.00054e-07
3.66076e-07
4.35947e-07
5.42579e-07
1.19711e-09
9.73991e-10
7.13651e-10
4.96517e-10
2.68689e-10
2.83245e-10
1.21174e-09
4.80895e-08
6.78189e-07
6.90682e-07
4.49248e-07
4.61314e-08
1.35013e-08
1.03862e-08
8.00335e-09
6.52309e-09
6.04998e-09
5.53869e-09
5.09069e-09
4.82967e-09
5.22682e-09
5.83474e-09
6.2322e-09
1.14892e-08
8.58521e-08
6.08533e-07
3.29713e-07
2.59574e-07
2.55678e-07
2.26711e-07
7.76119e-07
7.98461e-07
7.73853e-07
6.94133e-07
7.24484e-07
7.73954e-07
2.17993e-07
7.37821e-08
4.836e-07
5.76624e-07
3.47156e-07
2.74227e-07
2.20674e-07
1.87341e-07
2.56313e-07
6.25907e-07
1.81352e-08
1.35603e-09
6.81958e-10
6.97498e-10
7.2638e-10
6.86726e-10
5.81038e-10
4.04204e-10
2.44423e-10
2.09465e-10
2.34142e-10
3.05179e-10
2.37262e-09
4.58762e-07
7.19187e-07
5.61259e-07
4.63651e-07
2.95963e-07
3.18178e-07
2.4039e-07
3.16091e-07
3.80325e-07
5.1495e-07
6.64418e-07
2.6687e-07
2.16287e-08
2.99774e-09
9.38458e-10
4.33966e-10
3.17022e-10
3.20657e-10
4.24145e-10
4.56764e-10
4.44762e-10
4.36768e-10
4.72258e-10
4.80312e-10
5.36539e-10
7.23399e-10
2.27471e-09
2.35249e-08
6.52456e-07
1.20707e-07
8.22373e-08
2.35711e-07
2.22413e-07
2.17462e-07
2.21717e-07
2.07541e-07
1.9361e-07
1.76698e-07
1.52518e-07
1.84682e-07
2.29519e-07
3.81396e-07
5.75594e-07
7.0918e-07
2.85946e-07
2.52061e-08
1.08898e-08
8.65252e-09
8.26005e-09
1.77544e-08
1.19439e-08
1.70709e-08
1.80147e-08
2.33089e-08
3.30463e-08
2.28109e-08
1.81634e-08
1.73761e-08
7.4044e-08
1.15457e-06
3.119e-07
2.85181e-07
3.36556e-07
4.96338e-07
5.27931e-07
6.30127e-07
8.08144e-07
4.88921e-07
2.93017e-08
8.32934e-09
5.47207e-09
5.5431e-09
5.91885e-09
6.23476e-09
5.78088e-09
4.14458e-09
2.50655e-09
1.53033e-09
1.30991e-09
2.13592e-09
8.3289e-09
2.52526e-07
4.72936e-07
1.96138e-07
1.15688e-07
7.96174e-08
6.02504e-08
4.9303e-08
4.41299e-08
4.21395e-08
5.11522e-08
1.77949e-07
4.38635e-07
5.65641e-07
7.30576e-07
7.33826e-07
4.22032e-07
8.58616e-08
2.22729e-08
7.98241e-09
3.64729e-09
2.2648e-09
2.1638e-09
2.32684e-09
2.53992e-09
1.84613e-09
1.84462e-09
2.94154e-09
3.50747e-09
1.1887e-08
1.21506e-07
1.39719e-06
1.3788e-06
7.98979e-07
5.80213e-07
4.42975e-07
3.35286e-07
2.65996e-07
2.13635e-07
1.71349e-07
1.66156e-07
1.71615e-07
3.47059e-07
6.19864e-07
5.93966e-07
7.4582e-08
2.79279e-08
1.31375e-08
5.34207e-09
4.27087e-09
3.72061e-09
2.45603e-09
1.11365e-08
3.15773e-08
1.15418e-07
5.34875e-07
2.66195e-06
2.9573e-06
2.46008e-06
1.8549e-06
1.40856e-06
1.10393e-06
9.61581e-07
8.91786e-07
7.88992e-07
6.58579e-07
4.95573e-07
3.56278e-07
2.1192e-07
9.39745e-08
3.58006e-08
6.45564e-08
3.71865e-07
1.06986e-06
1.21678e-06
9.33814e-07
4.71905e-07
1.95152e-07
1.01882e-07
8.10148e-08
1.0803e-07
1.58953e-07
4.40342e-07
1.44359e-06
5.3463e-07
1.2184e-06
1.16809e-06
1.13913e-06
7.83657e-07
6.00135e-07
7.50545e-07
1.18735e-06
1.52729e-06
1.47819e-06
1.29529e-06
1.10415e-06
1.08001e-06
9.74092e-07
9.36447e-07
8.91544e-07
1.03038e-06
1.21265e-06
1.08447e-06
1.05342e-06
1.18933e-06
1.37926e-06
8.26471e-07
3.51066e-07
1.36475e-07
8.24622e-08
1.00705e-07
1.76581e-07
3.53688e-07
5.88576e-07
6.38439e-07
6.25002e-07
6.17859e-07
5.86996e-07
5.24365e-07
4.95748e-07
5.01151e-07
5.47299e-07
6.05987e-07
6.28069e-07
4.28046e-07
2.58097e-07
2.06357e-07
2.76917e-07
4.02864e-07
5.06443e-07
5.90849e-07
5.83391e-07
5.52637e-07
3.93971e-07
3.41115e-07
2.67186e-07
2.28171e-07
2.0559e-07
2.53179e-07
4.1251e-07
8.52436e-07
7.44981e-07
5.39731e-07
6.33201e-07
7.41659e-07
5.39455e-07
6.6569e-07
5.64737e-08
9.83243e-09
5.25677e-09
6.51689e-09
2.3265e-08
1.40665e-07
3.21111e-07
5.66426e-07
5.67993e-07
5.7156e-07
5.75702e-07
5.82314e-07
6.20889e-07
6.04454e-07
6.17478e-07
6.00328e-07
5.92107e-07
5.80806e-07
5.7545e-07
5.7107e-07
5.87947e-07
6.17626e-07
6.25758e-07
6.00869e-07
5.73045e-07
4.08732e-07
4.86335e-07
6.14499e-07
3.27733e-07
4.80598e-07
6.63796e-07
6.3309e-07
5.73724e-07
6.17682e-07
6.1351e-07
5.43366e-07
4.9381e-07
4.52242e-07
4.51532e-07
4.52861e-07
4.63029e-07
4.79685e-07
5.26415e-07
5.58247e-07
6.09991e-07
6.09111e-07
5.71878e-07
5.23842e-07
4.50314e-07
4.16836e-07
4.4039e-07
4.58343e-07
4.7605e-07
4.82241e-07
5.03214e-07
5.52553e-07
6.48795e-07
7.34262e-07
7.26048e-07
1.66319e-07
3.77878e-08
3.85828e-08
2.58667e-08
1.39868e-08
1.13644e-08
9.47538e-09
8.6862e-09
9.71702e-09
1.21936e-08
1.7427e-08
2.08436e-08
2.38471e-08
2.63842e-08
2.78629e-08
2.6223e-08
2.22825e-08
1.28242e-08
9.73045e-09
1.35707e-08
3.27052e-08
8.32786e-08
2.92792e-07
4.59537e-07
6.64939e-07
5.32283e-07
3.73957e-07
4.43482e-07
5.03402e-07
9.74661e-10
5.93087e-10
4.6522e-10
2.65468e-10
2.23605e-10
5.9233e-10
1.19344e-08
4.99472e-07
6.62337e-07
5.84122e-07
7.4842e-08
2.0771e-08
1.23589e-08
1.01307e-08
8.83658e-09
7.79676e-09
6.28808e-09
5.78615e-09
5.14188e-09
5.12221e-09
6.3071e-09
1.22273e-08
1.89399e-08
2.29809e-08
7.09435e-08
6.58846e-07
4.43418e-07
2.87724e-07
2.29917e-07
1.9993e-07
6.85159e-07
8.28051e-07
6.26967e-07
5.64039e-07
5.93066e-07
7.67935e-07
3.0026e-07
7.12861e-08
6.19292e-07
5.40694e-07
3.79329e-07
3.63198e-07
3.11615e-07
2.74987e-07
4.59465e-07
1.14452e-07
2.86993e-09
8.6031e-10
7.06758e-10
9.35631e-10
9.56425e-10
9.07478e-10
6.97147e-10
5.42202e-10
3.00645e-10
2.03684e-10
2.56383e-10
3.39315e-10
7.17148e-10
6.64298e-07
7.44872e-07
5.98894e-07
4.72166e-07
3.18541e-07
3.05057e-07
2.40344e-07
3.3871e-07
5.22884e-07
6.34438e-07
6.48322e-08
8.25571e-09
1.51186e-09
6.37861e-10
5.23338e-10
5.95533e-10
8.79142e-10
1.07797e-09
1.04035e-09
8.80534e-10
7.07173e-10
6.3818e-10
5.4888e-10
4.74862e-10
3.29056e-10
3.04755e-10
3.00758e-10
6.45716e-10
8.55469e-09
4.71834e-07
8.08728e-08
1.90555e-07
1.98773e-07
2.36172e-07
3.0269e-07
3.1211e-07
2.71738e-07
1.91067e-07
1.59128e-07
1.50096e-07
2.21647e-07
4.87256e-07
6.78716e-07
8.14525e-08
2.03933e-08
7.96801e-09
8.53423e-09
1.28127e-08
2.23109e-08
4.03215e-08
2.36008e-08
3.02726e-08
3.42863e-08
3.99835e-08
4.05485e-08
7.56775e-08
5.86325e-08
2.6705e-08
1.32236e-08
1.18121e-07
4.1008e-07
3.40713e-07
5.98993e-07
7.52337e-07
8.0983e-07
1.03187e-06
7.26475e-08
2.97651e-08
8.71726e-09
9.06836e-09
2.79139e-08
7.58499e-08
2.98772e-07
2.10502e-07
2.21328e-07
7.56989e-08
2.93617e-08
1.19959e-08
3.14492e-09
1.08532e-09
6.80355e-10
6.46913e-10
2.95266e-09
2.99334e-07
5.17823e-07
2.42348e-07
1.38068e-07
8.66568e-08
5.56416e-08
4.26668e-08
4.24307e-08
2.60429e-07
6.83683e-07
5.87297e-07
1.09989e-07
3.13818e-08
1.6741e-08
9.94666e-09
6.5331e-09
7.58838e-09
1.27829e-08
3.16507e-08
7.94873e-08
7.58853e-08
8.97915e-08
5.62546e-08
2.23263e-08
6.63627e-09
3.08943e-09
2.68887e-09
5.80826e-09
2.77182e-08
1.77569e-07
1.58949e-06
1.30184e-06
9.89235e-07
6.9864e-07
5.1689e-07
3.64471e-07
2.22428e-07
1.76523e-07
2.49398e-07
6.37393e-07
8.63866e-08
1.76111e-08
6.50943e-09
3.28619e-09
2.29787e-09
2.49313e-09
1.88146e-09
4.9879e-09
2.50404e-09
6.85389e-09
1.64302e-08
1.81524e-08
3.89054e-08
1.52634e-07
8.36632e-07
2.05907e-06
2.35642e-06
2.19091e-06
1.88688e-06
1.74518e-06
1.73639e-06
1.69025e-06
1.67204e-06
1.6861e-06
1.4156e-06
1.08491e-06
5.97899e-07
2.3633e-07
1.24992e-07
1.1903e-06
1.09538e-06
1.11881e-06
1.23094e-06
1.23782e-06
7.86503e-07
4.26057e-07
3.15992e-07
2.78919e-07
3.07134e-07
4.49007e-07
1.13603e-06
7.58234e-07
1.16453e-06
1.1623e-06
1.19064e-06
8.41442e-07
7.68886e-07
1.16782e-06
1.52212e-06
1.32423e-06
1.20478e-06
1.13129e-06
1.05434e-06
9.86367e-07
9.16829e-07
8.6025e-07
9.64681e-07
1.18252e-06
1.0893e-06
9.87761e-07
1.03251e-06
1.37066e-06
8.52014e-07
3.364e-07
1.59664e-07
9.38558e-08
7.64525e-08
8.86752e-08
2.04303e-07
3.98745e-07
5.45938e-07
5.91645e-07
6.15888e-07
5.8342e-07
5.13035e-07
4.81444e-07
4.97541e-07
5.29597e-07
5.57385e-07
5.79508e-07
6.17585e-07
6.1453e-07
3.7145e-07
2.73013e-07
2.40351e-07
2.78764e-07
3.57266e-07
3.887e-07
4.62969e-07
4.74187e-07
4.95552e-07
3.72121e-07
3.39085e-07
2.58324e-07
2.59073e-07
3.68109e-07
6.64143e-07
9.48766e-07
6.01062e-07
4.81189e-07
6.32183e-07
7.37032e-07
6.42966e-07
2.07891e-07
1.03174e-08
4.40336e-09
5.43349e-09
2.71904e-08
2.66389e-07
6.3393e-07
6.83063e-07
6.63459e-07
6.67223e-07
6.46454e-07
6.35474e-07
6.28886e-07
6.22924e-07
6.02564e-07
5.84981e-07
5.74468e-07
5.66543e-07
5.64234e-07
5.68083e-07
5.72785e-07
6.04434e-07
6.31309e-07
6.25333e-07
6.16597e-07
5.6759e-07
4.44171e-07
6.04181e-07
6.31853e-07
4.01466e-07
5.23213e-07
3.14834e-07
8.20341e-08
7.91315e-08
2.05325e-07
4.07684e-07
6.05698e-07
6.11488e-07
5.81891e-07
5.49041e-07
5.43378e-07
5.56714e-07
5.63792e-07
5.56456e-07
5.51253e-07
5.40818e-07
5.38468e-07
5.46002e-07
5.66515e-07
5.98846e-07
6.52711e-07
6.8265e-07
7.05804e-07
7.09312e-07
7.01829e-07
6.72569e-07
6.70601e-07
6.65626e-07
7.00826e-07
7.09613e-07
5.66592e-08
3.43543e-08
2.9919e-08
1.79565e-08
1.22409e-08
9.9437e-09
7.6203e-09
6.3236e-09
6.64436e-09
9.44651e-09
1.06536e-08
1.1996e-08
1.39775e-08
2.19322e-08
2.55876e-08
2.40416e-08
1.91898e-08
1.20813e-08
1.11298e-08
2.48838e-08
1.20303e-07
2.79699e-07
4.05095e-07
4.87695e-07
6.33893e-07
5.01417e-07
3.67471e-07
4.32105e-07
4.32842e-07
9.65456e-10
4.167e-10
2.85819e-10
2.2784e-10
3.00479e-10
2.94817e-09
1.89328e-07
6.6073e-07
6.60623e-07
2.4006e-07
3.23518e-08
1.85702e-08
1.1401e-08
9.29807e-09
6.58969e-09
6.11363e-09
5.80069e-09
5.45141e-09
4.80706e-09
4.82677e-09
8.00387e-09
2.96834e-08
1.53413e-07
2.36301e-07
3.89626e-07
6.7716e-07
5.03472e-07
2.98034e-07
2.13952e-07
1.7288e-07
9.61914e-07
7.39352e-07
5.77005e-07
5.62367e-07
6.16097e-07
7.54521e-07
2.87441e-07
7.95775e-08
6.47449e-07
5.44313e-07
4.42578e-07
4.52902e-07