/*--------------------------------*- C++ -*----------------------------------*\
| =========                 |                                                 |
| \\      /  F ield         | OpenFOAM: The Open Source CFD Toolbox           |
|  \\    /   O peration     | Version:  2.1.1                                 |
|   \\  /    A nd           | Web:      www.OpenFOAM.org                      |
|    \\/     M anipulation  |                                                 |
\*---------------------------------------------------------------------------*/
FoamFile
{
    version     2.0;
    format      ascii;
    class       volScalarField;
    location    "0.003500000";
    object      HO2;
}
// * * * * * * * * * * * * * * * * * * * * * * * * * * * * * * * * * * * * * //

dimensions      [0 0 0 0 0 0 0];

internalField   nonuniform List<scalar> 
12384
(
2.01208e-05
2.11256e-05
2.12136e-05
2.12154e-05
2.17831e-05
2.08121e-05
2.04323e-05
1.74745e-05
1.39192e-05
1.07005e-05
6.03948e-06
5.76738e-06
4.38002e-06
4.17023e-06
3.65581e-06
4.75087e-06
6.8568e-06
8.53116e-06
9.78025e-06
1.03369e-05
1.0604e-05
1.06094e-05
1.07284e-05
9.88438e-06
9.62258e-06
9.71238e-06
8.78972e-06
9.1527e-06
8.74758e-06
8.8852e-06
8.36597e-06
8.62429e-06
8.66096e-06
1.01105e-05
8.66813e-06
7.56121e-06
5.03427e-06
3.43135e-06
2.76779e-06
3.48899e-06
4.81836e-06
5.69283e-06
3.51152e-06
2.23059e-06
5.33637e-06
6.24933e-06
6.4841e-06
6.32487e-06
5.89406e-06
5.84409e-06
5.72787e-06
6.01537e-06
6.1007e-06
6.83767e-06
6.93505e-06
8.36592e-06
7.856e-06
8.87935e-06
8.8573e-06
6.67266e-06
5.49188e-06
4.57887e-06
3.59609e-06
3.1796e-06
2.79858e-06
2.81373e-06
3.05056e-06
3.49067e-06
3.719e-06
3.88724e-06
5.27693e-06
5.92036e-06
4.59564e-06
5.49416e-06
1.46829e-06
1.35491e-06
1.26508e-06
1.14845e-06
1.17032e-06
1.43301e-06
2.51369e-06
3.40088e-06
4.36755e-06
4.7257e-06
5.04627e-06
5.21652e-06
5.1904e-06
5.29722e-06
5.1313e-06
5.30702e-06
5.23016e-06
5.36927e-06
5.41666e-06
5.51632e-06
5.61469e-06
5.65127e-06
5.48639e-06
4.14003e-06
1.93879e-06
1.18952e-06
6.39092e-07
8.45735e-07
5.08939e-06
5.64908e-06
2.38983e-06
1.39135e-06
1.09963e-06
6.76631e-07
4.93094e-07
2.02491e-07
1.9917e-07
4.5328e-07
5.18271e-07
7.1324e-07
5.50308e-07
6.73916e-07
5.01232e-07
6.15894e-07
3.99278e-07
5.86125e-07
5.72683e-07
7.33901e-07
7.78593e-07
9.8818e-07
1.19218e-06
1.92094e-06
3.31929e-06
4.3167e-06
4.38364e-06
4.25748e-06
5.39013e-06
5.57541e-06
5.5693e-06
5.36685e-06
6.18066e-06
6.48626e-06
5.89746e-06
4.1665e-06
4.1272e-06
4.15987e-06
2.99678e-06
1.30502e-06
7.21609e-07
2.12432e-07
1.82846e-07
1.62301e-07
1.82262e-07
1.63742e-07
1.87052e-07
1.53136e-07
1.90667e-07
1.8726e-07
6.93388e-07
8.81307e-07
1.1329e-06
1.50716e-06
2.55504e-06
3.35024e-06
3.40695e-06
5.81146e-06
4.74234e-06
3.53556e-06
4.30508e-06
5.33823e-06
5.54819e-06
5.57119e-06
5.78836e-06
5.37104e-06
2.47932e-06
1.65263e-07
1.69963e-08
2.98644e-09
6.98608e-10
1.00283e-09
1.14365e-08
5.81e-06
4.4914e-06
3.69211e-06
3.84207e-06
4.16189e-06
4.54322e-06
4.84427e-06
5.05235e-06
4.98892e-06
4.33239e-06
3.76348e-06
2.98168e-06
2.34402e-06
1.923e-06
1.96915e-06
2.13726e-06
2.4461e-06
2.99012e-06
3.19044e-06
4.3828e-06
4.44876e-06
5.04532e-06
5.46311e-06
5.84272e-06
6.09937e-06
6.02112e-06
5.83399e-06
5.82495e-06
6.08818e-06
4.67228e-06
2.86915e-06
1.67065e-06
1.93068e-06
1.91502e-06
1.84967e-06
1.83995e-06
1.93163e-06
1.98191e-06
2.02049e-06
2.4827e-06
2.62026e-06
3.63081e-06
3.29563e-06
3.60925e-06
3.5183e-06
3.68151e-06
4.00933e-06
4.30658e-06
5.10557e-06
7.20893e-06
5.58151e-06
5.16876e-06
3.25883e-06
3.58849e-06
2.86974e-06
3.49881e-06
4.23852e-06
4.4858e-06
4.47294e-06
4.22981e-06
4.18632e-06
3.74046e-06
3.62617e-06
3.57044e-06
3.61848e-06
3.62038e-06
3.77599e-06
3.96557e-06
4.1974e-06
4.36717e-06
4.60005e-06
4.96479e-06
5.24214e-06
5.57985e-06
5.78551e-06
5.92099e-06
5.89337e-06
5.67303e-06
5.56973e-06
4.44054e-06
3.82987e-06
3.49595e-06
3.33348e-06
3.44961e-06
4.15443e-06
4.8925e-06
5.18594e-06
5.41239e-06
5.75128e-06
6.00537e-06
6.07616e-06
5.93247e-06
5.80172e-06
5.32348e-06
4.57343e-06
5.62502e-06
6.24077e-06
8.51913e-06
9.2754e-06
8.3868e-06
6.868e-06
6.92153e-06
7.12393e-06
8.70357e-06
1.17329e-05
1.38934e-05
1.39427e-05
9.51977e-06
8.77135e-06
2.88312e-06
3.30587e-06
3.03193e-06
2.26179e-06
2.70854e-06
2.35254e-06
2.59594e-06
2.84896e-06
3.12206e-06
3.18404e-06
3.39745e-06
4.4273e-06
4.03443e-06
5.07008e-06
4.4064e-06
4.88802e-06
5.04662e-06
5.19672e-06
5.22433e-06
5.40866e-06
5.44878e-06
5.48667e-06
5.58437e-06
5.60063e-06
5.83014e-06
5.87076e-06
5.86538e-06
5.8623e-06
5.78513e-06
5.67021e-06
2.20096e-06
1.99617e-06
1.8979e-06
1.82217e-06
1.79602e-06
1.87011e-06
1.85761e-06
2.04735e-06
2.02992e-06
2.16958e-06
2.25323e-06
2.3945e-06
2.52746e-06
2.80211e-06
3.0453e-06
3.2972e-06
3.71337e-06
4.50422e-06
5.3132e-06
7.1666e-06
8.45072e-06
8.6802e-06
8.88179e-06
9.08297e-06
8.96352e-06
9.00041e-06
8.61543e-06
9.05028e-06
8.9864e-06
9.96885e-06
1.702e-06
1.81614e-06
1.7288e-06
1.65851e-06
1.66253e-06
1.6619e-06
1.62888e-06
1.72391e-06
1.69979e-06
1.89479e-06
1.91e-06
1.914e-06
2.27936e-06
2.56838e-06
3.16835e-06
4.80448e-06
6.19436e-06
7.59492e-06
1.02155e-05
1.32048e-05
1.62727e-05
1.82234e-05
1.97481e-05
1.56846e-05
9.60015e-06
5.8254e-06
5.85947e-06
5.99444e-06
6.04555e-06
5.89213e-06
2.23994e-05
1.12324e-05
4.92844e-06
3.33639e-06
2.84959e-06
3.92794e-06
7.53933e-06
1.45047e-05
1.98966e-05
1.82153e-05
1.02622e-05
5.3504e-06
5.78395e-06
4.41032e-06
4.26597e-06
9.54692e-06
1.18389e-05
1.16473e-05
1.12782e-05
1.12389e-05
1.11661e-05
1.11459e-05
1.10792e-05
1.08681e-05
1.00905e-05
1.01984e-05
9.41993e-06
9.7675e-06
9.35144e-06
9.48863e-06
9.37134e-06
9.54823e-06
9.88367e-06
1.12651e-05
1.09022e-05
9.22769e-06
6.12912e-06
3.81147e-06
2.75439e-06
3.59034e-06
5.06431e-06
5.62612e-06
3.13837e-06
2.22755e-06
5.38809e-06
6.36992e-06
5.93702e-06
5.54552e-06
5.52947e-06
5.55871e-06
5.60632e-06
5.67947e-06
5.7061e-06
5.69773e-06
5.67233e-06
6.21645e-06
7.0596e-06
9.02723e-06
1.01511e-05
9.93382e-06
7.86486e-06
5.48163e-06
3.75131e-06
2.5355e-06
2.14674e-06
1.95261e-06
2.07923e-06
2.32194e-06
4.16716e-06
4.69987e-06
5.97036e-06
5.98104e-06
4.68236e-06
5.61535e-06
1.46103e-06
1.24892e-06
1.13016e-06
1.92859e-06
4.20429e-06
5.52971e-06
5.68831e-06
5.53428e-06
5.14321e-06
4.74987e-06
4.52426e-06
4.62173e-06
4.64621e-06
4.87385e-06
4.91495e-06
5.12295e-06
5.14294e-06
5.31264e-06
5.47637e-06
5.55521e-06
5.60141e-06
5.63893e-06
5.65497e-06
5.15163e-06
3.21197e-06
2.06111e-06
1.34362e-06
8.95662e-07
3.13128e-06
5.62746e-06
2.61041e-06
1.46499e-06
7.11278e-07
2.2032e-07
5.25389e-07
1.82133e-06
3.22792e-06
5.92819e-06
6.13252e-06
6.17176e-06
6.13671e-06
5.88783e-06
5.37474e-06
4.27174e-06
3.32853e-06
2.41514e-06
2.09472e-06
1.55823e-06
1.52018e-06
1.83062e-06
2.308e-06
3.31016e-06
4.67658e-06
5.37479e-06
5.42816e-06
4.83693e-06
5.45273e-06
5.5749e-06
5.46263e-06
5.58959e-06
6.13785e-06
6.12412e-06
4.72845e-06
3.54332e-06
1.3557e-06
1.645e-07
7.17944e-08
6.85564e-08
5.49833e-08
5.78597e-08
5.65717e-08
5.44057e-08
4.55726e-08
3.95457e-08
3.55958e-08
3.5124e-08
2.68768e-08
2.73757e-08
2.605e-08
3.4083e-08
5.51775e-08
8.39722e-08
3.80476e-07
1.40003e-06
2.79919e-06
4.82631e-06
5.40194e-06
3.64038e-06
4.27844e-06
5.2868e-06
1.77658e-06
1.15571e-06
1.07547e-06
1.80103e-07
4.69657e-08
8.12326e-09
1.56417e-09
5.40588e-10
6.42858e-10
4.06885e-09
1.08534e-06
6.03929e-06
5.30722e-06
6.02277e-06
6.11356e-06
2.46491e-06
8.23169e-07
1.67943e-07
8.20674e-08
5.93274e-08
1.68678e-07
1.04227e-06
5.75259e-06
5.22305e-06
2.93551e-06
2.25524e-06
2.19976e-06
2.51259e-06
3.03878e-06
3.19817e-06
4.35942e-06
5.24729e-06
5.96137e-06
5.80645e-06
4.51806e-06
2.49742e-06
2.01679e-06
2.85063e-06
4.87785e-06
6.07006e-06
4.03493e-06
2.21732e-06
2.01097e-06
1.85043e-06
1.78524e-06
1.6612e-06
1.76226e-06
1.96698e-06
2.90184e-06
5.36906e-06
1.42616e-06
7.43674e-08
2.80636e-08
3.02758e-08
5.09803e-08
4.70405e-07
5.56693e-06
3.04204e-06
3.26383e-06
4.38068e-06
7.26823e-06
5.61556e-06
5.23951e-06
3.17417e-06
3.64461e-06
2.9329e-06
3.74246e-06
4.03061e-06
4.03385e-06
3.93728e-06
3.67205e-06
3.31437e-06
2.8075e-06
2.33833e-06
1.97632e-06
1.80543e-06
1.58701e-06
1.51702e-06
1.40414e-06
1.23434e-06
1.21857e-06
1.29221e-06
1.39648e-06
1.38317e-06
1.51753e-06
1.70374e-06
1.96078e-06
2.51358e-06
3.66423e-06
4.68051e-06
4.24241e-06
3.67149e-06
3.05351e-06
2.74192e-06
2.77984e-06
3.51734e-06
4.05652e-06
4.34727e-06
3.98675e-06
4.33091e-06
4.80928e-06
4.64854e-06
4.34331e-06
3.72964e-06
3.30925e-06
3.46081e-06
3.76973e-06
5.79258e-06
6.8358e-06
9.42221e-06
9.04707e-06
8.4321e-06
7.16955e-06
5.47797e-06
4.19482e-06
3.43144e-06
4.13563e-06
5.88892e-06
1.19378e-05
1.30902e-05
2.85255e-06
3.53042e-06
3.05825e-06
2.29099e-06
2.08931e-06
2.03985e-06
2.0888e-06
2.14103e-06
2.17727e-06
2.2212e-06
2.1724e-06
1.90202e-06
2.39894e-06
1.86548e-06
2.29646e-06
2.28677e-06
2.34056e-06
2.38462e-06
2.32941e-06
2.23666e-06
2.03547e-06
1.79548e-06
1.64706e-06
1.58825e-06
1.65262e-06
2.13023e-06
2.88241e-06
3.6201e-06
5.05978e-06
5.87227e-06
2.00455e-06
1.81597e-06
1.79099e-06
1.65074e-06
1.67572e-06
1.62408e-06
1.68042e-06
1.67562e-06
1.71497e-06
1.69174e-06
1.6434e-06
1.58626e-06
1.52687e-06
1.44915e-06
1.5626e-06
1.49111e-06
1.63378e-06
3.23655e-06
3.37817e-06
3.90299e-06
4.52824e-06
5.23814e-06
5.21843e-06
4.6893e-06
4.52014e-06
3.52257e-06
3.75837e-06
4.26936e-06
5.20246e-06
7.36583e-06
1.47601e-06
1.51719e-06
1.54831e-06
1.54718e-06
1.55606e-06
1.57356e-06
1.54852e-06
1.45707e-06
1.51504e-06
1.46245e-06
1.3374e-06
1.46989e-06
1.52987e-06
2.33898e-06
3.52475e-06
5.3653e-06
5.54388e-06
6.94983e-06
8.06044e-06
7.9063e-06
9.76137e-06
8.44092e-06
6.12704e-06
4.18115e-06
3.74895e-06
2.30676e-06
1.80594e-06
2.45549e-06
2.47459e-06
2.41023e-06
7.93258e-07
2.61126e-07
1.23678e-07
1.32785e-07
1.06483e-07
1.66465e-07
2.34514e-07
5.66057e-07
1.92262e-06
8.83697e-06
1.70703e-05
8.95206e-06
5.32626e-06
5.69299e-06
7.63284e-06
1.14525e-05
9.5727e-06
7.89587e-06
6.49239e-06
5.80286e-06
5.83026e-06
6.80216e-06
9.57804e-06
1.091e-05
9.87201e-06
1.02625e-05
9.31932e-06
9.7513e-06
9.36674e-06
9.82287e-06
9.91014e-06
1.05962e-05
1.05826e-05
1.22966e-05
1.23678e-05
1.12821e-05
7.21298e-06
4.03281e-06
2.75665e-06
3.68553e-06
5.4633e-06
5.47646e-06
3.12257e-06
2.52529e-06
5.45542e-06
6.16649e-06
5.62606e-06
5.53824e-06
5.52355e-06
5.5342e-06
5.53611e-06
5.66172e-06
5.67427e-06
5.51746e-06
5.08525e-06
4.95817e-06
5.47319e-06
7.59729e-06
8.97564e-06
1.08111e-05
1.06699e-05
8.83855e-06
5.87301e-06
3.51715e-06
2.18062e-06
1.42393e-06
1.28093e-06
1.48544e-06
2.53497e-06
4.53197e-06
6.91603e-06
5.72469e-06
4.89048e-06
5.84801e-06
1.40658e-06
1.20504e-06
2.74558e-06
5.46711e-06
5.68956e-06
4.30765e-06
1.26373e-06
1.96273e-07
1.19471e-07
1.03504e-07
1.18799e-07
1.70645e-07
2.23055e-07
8.46263e-07
1.19516e-06
2.15139e-06
3.05372e-06
3.94416e-06
4.57065e-06
5.1359e-06
5.48759e-06
5.61003e-06
5.64809e-06
5.53302e-06
4.33837e-06
3.0408e-06
2.45302e-06
1.23852e-06
1.96202e-06
5.59851e-06
2.7913e-06
1.1079e-06
5.07334e-07
1.12881e-06
4.97753e-06
5.87267e-06
4.97531e-06
4.80858e-06
4.43291e-06
4.50504e-06
4.52759e-06
4.8087e-06
5.22246e-06
5.69609e-06
5.90166e-06
5.86346e-06
5.45008e-06
4.97596e-06
4.43597e-06
4.19771e-06
4.51547e-06
5.32497e-06
5.80716e-06
5.84182e-06
5.83953e-06
5.6407e-06
5.94814e-06
5.50557e-06
5.41405e-06
5.60648e-06
6.24057e-06
5.01473e-06
2.92342e-06
5.47202e-07
9.87654e-08
5.26414e-08
5.64574e-08
4.67128e-08
4.59003e-08
4.287e-08
2.7597e-08
2.58528e-08
1.92912e-08
1.57278e-08
1.01793e-08
1.01469e-08
7.57446e-09
1.23517e-08
9.6432e-09
1.70195e-08
1.80051e-08
3.45251e-08
6.05327e-08
4.87148e-07
1.53836e-06
4.26142e-06
5.81698e-06
3.77206e-06
4.21053e-06
5.39903e-06
8.79388e-09
8.71558e-09
8.3219e-09
4.92751e-09
1.67733e-09
5.03925e-10
2.03635e-10
3.32969e-10
3.87191e-09
9.77288e-07
6.05099e-06
6.1383e-06
4.90231e-06
4.06913e-07
3.85663e-08
1.43512e-08
5.35091e-09
4.29249e-09
4.14926e-09
4.34144e-09
4.05652e-09
6.63523e-09
3.19839e-08
1.26769e-06
5.53065e-06
2.90313e-06
2.34485e-06
2.49878e-06
2.92971e-06
3.07477e-06
4.98794e-06
6.10918e-06
4.92354e-06
2.90599e-06
1.24654e-06
5.01482e-07
3.26595e-07
4.54903e-07
2.66247e-06
5.88636e-06
3.98658e-06
1.96973e-06
2.13773e-06
1.84505e-06
1.65872e-06
1.64623e-06
2.71211e-06
5.63157e-06
4.56831e-08
1.67788e-09
5.0726e-10
2.09197e-10
1.94964e-10
1.45054e-10
1.55124e-10
2.09268e-10
2.66898e-09
1.91792e-07
4.72516e-06
3.39833e-06
7.35986e-06
5.79689e-06
5.35205e-06
3.33505e-06
3.67938e-06
2.87701e-06
3.71047e-06
3.76989e-06
3.81457e-06
3.75575e-06
3.62714e-06
3.59127e-06
3.97009e-06
4.44816e-06
5.03508e-06
5.37071e-06
5.62659e-06
5.73945e-06
5.71392e-06
5.53807e-06
4.93053e-06
4.1404e-06
2.76239e-06
1.83038e-06
1.23348e-06
1.04721e-06
1.11163e-06
1.16443e-06
1.456e-06
2.04647e-06
3.82572e-06
3.45558e-06
2.72908e-06
2.10327e-06
2.05299e-06
2.51899e-06
2.90693e-06
3.01649e-06
2.83457e-06
3.04599e-06
3.57937e-06
3.57773e-06
3.54316e-06
3.52352e-06
4.33129e-06
5.12215e-06
6.5523e-06
5.20055e-06
1.91555e-06
3.60877e-07
3.905e-07
1.07153e-07
3.06199e-07
5.62231e-07
5.61325e-06
1.28997e-05
5.29366e-06
3.42748e-06
4.23096e-06
8.3874e-06
2.63358e-06
3.2843e-06
3.5032e-06
2.62161e-06
2.43389e-06
1.89451e-06
2.10719e-06
2.48615e-06
3.05126e-06
4.01246e-06
4.38633e-06
4.69369e-06
5.52806e-06
4.41938e-06
3.58808e-06
2.95688e-06
1.99536e-06
1.12107e-06
9.50181e-07
7.38619e-07
7.20964e-07
6.6189e-07
5.94879e-07
5.45879e-07
4.93624e-07
5.51141e-07
6.41734e-07
1.03994e-06
1.83732e-06
2.88313e-06
1.84123e-06
1.82319e-06
1.74243e-06
1.89223e-06
1.93414e-06
1.89753e-06
2.19909e-06
2.43632e-06
3.02125e-06
3.44082e-06
3.88202e-06
3.87147e-06
4.47637e-06
4.32794e-06
4.89474e-06
3.97891e-06
4.70616e-06
4.67665e-06
4.61866e-06
4.71624e-06
3.86103e-06
3.78499e-06
3.20827e-06
3.16594e-06
2.97657e-06
2.5475e-06
2.08704e-06
1.89713e-06
2.34155e-06
3.54407e-06
1.25075e-06
1.36822e-06
1.58056e-06
1.70757e-06
2.26172e-06
2.31491e-06
2.73595e-06
2.52708e-06
2.96485e-06
2.29222e-06
2.2531e-06
1.90709e-06
2.6593e-06
6.83397e-06
8.37809e-06
8.74405e-06
7.74633e-06
7.15931e-06
7.02031e-06
7.27227e-06
5.51768e-06
4.85299e-06
3.28957e-06
3.42511e-06
2.08946e-06
1.83001e-06
1.2278e-06
6.96557e-07
6.23768e-07
7.48578e-07
2.74643e-08
2.43957e-08
3.16101e-08
4.10994e-08
4.26315e-08
5.36336e-08
5.35214e-08
9.49248e-08
1.79876e-07
7.2022e-07
4.94336e-06
1.54663e-05
6.51305e-06
5.78273e-06
1.12471e-05
9.99109e-06
7.9229e-06
5.8447e-06
3.65602e-06
2.79708e-06
2.8327e-06
4.06448e-06
6.86328e-06
1.04867e-05
1.09018e-05
1.03619e-05
9.21354e-06
9.6517e-06
9.30294e-06
9.81801e-06
1.03603e-05
1.099e-05
1.04548e-05
1.1653e-05
1.30166e-05
1.23148e-05
7.47392e-06
3.63459e-06
2.48608e-06
3.37421e-06
5.18004e-06
5.69278e-06
3.79304e-06
3.32854e-06
5.53851e-06
5.78437e-06
5.6674e-06
5.64387e-06
5.54997e-06
5.44748e-06
5.44887e-06
5.60211e-06
5.64351e-06
4.48854e-06
3.04025e-06
2.7024e-06
3.22669e-06
5.55722e-06
7.5806e-06
9.28127e-06
1.01927e-05
1.02342e-05
8.10804e-06
5.12011e-06
2.49407e-06
1.27992e-06
8.42612e-07
8.49933e-07
1.78004e-06
4.12312e-06
7.63022e-06
5.52269e-06
5.18435e-06
6.11286e-06
1.35369e-06
2.34599e-06
5.7364e-06
5.07056e-06
8.27373e-07
4.41604e-08
1.56408e-08
1.35189e-08
1.46459e-08
2.36628e-08
3.75712e-08
5.4076e-08
1.41279e-07
3.79595e-07
1.05738e-06
2.03573e-06
3.12289e-06
3.94063e-06
4.6331e-06
4.9848e-06
5.38934e-06
5.57417e-06
5.6276e-06
5.62624e-06
4.99812e-06
3.82615e-06
3.30302e-06
1.54329e-06
1.84843e-06
5.47892e-06
2.60428e-06
8.3131e-07
1.27072e-06
5.2452e-06
5.53209e-06
4.82936e-06
4.60927e-06
4.19974e-06
4.22466e-06
4.1146e-06
4.08461e-06
4.02427e-06
4.1165e-06
4.51444e-06
5.02623e-06
5.46741e-06
5.83356e-06
5.86801e-06
5.68455e-06
5.49931e-06
5.73575e-06
5.88879e-06
5.66724e-06
5.65608e-06
5.86643e-06
5.97366e-06
5.85292e-06
5.27245e-06
5.58484e-06
5.85147e-06
6.18397e-06
3.54387e-06
5.20976e-07
8.89632e-08
5.82828e-08
5.04648e-08
4.21191e-08
2.86486e-08
1.93e-08
8.49231e-09
6.6823e-09
8.62912e-09
1.14432e-08
1.41229e-08
1.54376e-08
1.5846e-08
1.4082e-08
1.01244e-08
5.25077e-09
4.55954e-09
1.31587e-08
2.2733e-08
5.3889e-08
1.84867e-07
1.37986e-06
4.25058e-06
5.76884e-06
4.09316e-06
4.33854e-06
5.44087e-06
1.06707e-09
9.82277e-10
1.02763e-09
5.38046e-10
2.19528e-10
8.51455e-11
1.5777e-10
1.97797e-09
4.65501e-07
5.89947e-06
6.0118e-06
2.49562e-06
8.87781e-08
1.4702e-08
8.11116e-09
4.71055e-09
4.06852e-09
3.77504e-09
3.13228e-09
2.87372e-09
2.79786e-09
3.06461e-09
4.5289e-09
3.26273e-08
3.37499e-06
4.40254e-06
2.66482e-06
2.63049e-06
2.91312e-06
2.71532e-06
6.10211e-06
5.6288e-06
5.24546e-06
5.12366e-06
4.09666e-06
1.22509e-06
1.94854e-07
1.67486e-07
1.54485e-06
5.51588e-06
3.55908e-06
2.44342e-06
2.31118e-06
1.90242e-06
1.82777e-06
2.76116e-06
5.22485e-06
1.30395e-08
5.1499e-10
2.04922e-10
2.0275e-10
1.82006e-10
1.37539e-10
7.92271e-11
5.51219e-11
5.28339e-11
8.17666e-11
4.92397e-10
9.4512e-08
3.03529e-06
7.43135e-06
6.10788e-06
5.22333e-06
3.3985e-06
3.53331e-06
2.79057e-06
3.48363e-06
3.66197e-06
3.89928e-06
4.39867e-06
5.20467e-06
5.75248e-06
1.29222e-06
5.23701e-08
7.33875e-09
1.82562e-09
1.00138e-09
7.03392e-10
7.207e-10
1.00248e-09
1.51441e-09
2.55269e-09
7.17983e-09
3.28153e-08
8.19029e-07
5.80073e-06
2.76936e-06
1.11064e-06
9.36442e-07
1.07716e-06
3.40438e-06
2.9323e-06
2.37371e-06
2.03326e-06
1.81655e-06
2.00561e-06
1.93796e-06
2.13718e-06
2.12859e-06
2.75642e-06
3.31584e-06
3.81046e-06
4.44501e-06
5.42808e-06
4.62496e-06
2.06778e-07
4.09094e-08
1.81313e-08
8.36447e-09
1.68225e-08
7.68001e-09
1.63581e-08
1.30529e-08
1.19515e-08
2.25422e-08
5.08493e-08
1.01843e-06
1.22478e-05
3.55134e-06
4.39145e-06
2.5129e-06
3.43357e-06
3.99751e-06
3.65295e-06
3.58223e-06
3.8763e-06
4.85501e-06
5.83664e-06
1.30085e-06
7.06782e-08
2.8004e-08
9.15179e-09
4.56388e-09
4.6915e-09
5.67424e-09
1.28943e-08
3.83339e-08
7.54415e-07
5.89628e-06
3.15261e-06
1.24801e-06
1.03834e-06
7.41793e-07
5.7818e-07
5.02605e-07
4.59999e-07
4.47757e-07
4.52651e-07
6.00275e-07
1.05646e-06
1.57742e-06
1.9988e-06
3.53445e-06
3.17666e-06
3.96444e-06
4.12217e-06
5.09334e-06
5.87697e-06
2.86067e-06
3.21839e-07
4.53877e-08
1.31263e-08
5.1052e-09
4.19269e-09
3.84269e-09
5.04418e-09
4.57112e-08
1.42872e-06
1.14939e-05
1.14846e-05
7.93317e-06
5.97746e-06
4.12984e-06
3.59951e-06
3.18655e-06
2.42842e-06
2.21605e-06
1.78147e-06
1.67588e-06
2.16743e-06
1.23035e-06
1.76873e-06
2.56121e-06
3.70939e-06
5.30989e-06
5.79738e-06
5.82561e-06
4.76048e-06
3.97187e-06
5.53245e-06
4.3874e-06
5.9004e-06
1.01856e-05
1.95586e-05
2.34856e-05
1.93205e-05
1.61173e-05
1.29963e-05
1.11261e-05
9.64124e-06
7.47086e-06
5.56235e-06
4.1561e-06
2.6787e-06
2.57282e-06
2.84378e-06
2.03453e-06
1.25839e-06
4.32575e-07
5.19847e-07
2.52767e-08
7.54257e-08
2.98535e-07
4.5513e-07
4.59949e-07
1.93961e-07
1.22376e-07
7.23249e-08
1.13285e-07
2.05133e-07
7.74512e-07
6.23275e-06
1.13999e-05
5.22211e-06
1.18756e-05
9.33693e-06
7.56978e-06
4.29724e-06
2.57993e-06
2.42175e-06
3.02946e-06
6.10348e-06
9.62728e-06
1.24348e-05
1.12188e-05
1.03311e-05
9.28365e-06
9.5076e-06
9.11207e-06
1.00231e-05
1.05751e-05
1.07878e-05
8.71038e-06
1.06704e-05
1.29726e-05
1.22845e-05
6.54421e-06
2.6817e-06
1.62929e-06
2.10834e-06
3.62964e-06
5.27043e-06
5.31993e-06
4.3526e-06
5.58896e-06
5.62388e-06
5.64031e-06
5.59797e-06
5.37869e-06
5.20861e-06
5.35761e-06
5.64632e-06
5.21103e-06
2.90817e-06
1.49638e-06
1.51945e-06
1.69405e-06
3.25555e-06
5.14654e-06
7.40758e-06
7.96317e-06
7.79528e-06
5.98139e-06
3.53288e-06
1.69057e-06
9.49069e-07
6.90573e-07
7.64285e-07
1.3022e-06
4.31418e-06
7.44993e-06
5.24859e-06
5.76692e-06
5.91338e-06
1.98432e-06
5.40682e-06
4.60382e-06
9.78807e-08
1.33525e-08
5.42384e-09
7.1766e-09
1.41362e-08
3.92125e-08
1.14366e-07
1.84673e-07
4.13511e-07
8.565e-07
1.37194e-06
2.49889e-06
3.87125e-06
4.53834e-06
4.95534e-06
5.14374e-06
5.41726e-06
5.53578e-06
5.58889e-06
5.6266e-06
5.6242e-06
5.13858e-06
4.23106e-06
3.89946e-06
2.19167e-06
2.28679e-06
5.56316e-06
2.15411e-06
1.14629e-06
4.88227e-06
5.64916e-06
5.43586e-06
5.37073e-06
5.06485e-06
4.65696e-06
4.3926e-06
4.31526e-06
4.11692e-06
4.01634e-06
3.94051e-06
4.05396e-06
4.52847e-06
5.10719e-06
5.62361e-06
5.90484e-06
5.92922e-06
5.92981e-06
5.67528e-06
5.16244e-06
4.82926e-06
5.06676e-06
5.33474e-06
5.46673e-06
5.23983e-06
5.03062e-06
5.85115e-06
6.07641e-06
6.18893e-06
1.30228e-06
6.28972e-08
5.95478e-08
5.70415e-08
3.25124e-08
1.58076e-08
1.14225e-08
9.17828e-09
9.1119e-09
1.19731e-08
1.60274e-08
3.06637e-08
3.71266e-08
4.19047e-08
4.08839e-08
3.88471e-08
2.59863e-08
1.33039e-08
7.23057e-09
9.27612e-09
3.00586e-08
6.21513e-08
5.40049e-07
2.07011e-06
4.2787e-06
5.65826e-06
3.88639e-06
4.5233e-06
5.36677e-06
5.66543e-10
4.32575e-10
2.67684e-10
1.6837e-10
7.14985e-11
7.4511e-11
5.59226e-10
9.6512e-08
5.59425e-06
5.87557e-06
2.4995e-06
7.98358e-08
1.53081e-08
1.01645e-08
6.55164e-09
5.31391e-09
4.91291e-09
4.34176e-09
3.76315e-09
3.42377e-09
3.96322e-09
4.68884e-09
5.20238e-09
1.23531e-08
2.21754e-07
5.70948e-06
3.44365e-06
2.73945e-06
2.69371e-06
2.40038e-06
5.24354e-06
5.8489e-06
6.44587e-06
6.11066e-06
6.27487e-06
5.59948e-06
7.3722e-07
1.55475e-07
2.54998e-06
5.49226e-06
3.49871e-06
2.90073e-06
2.35297e-06
2.03967e-06
2.77316e-06
5.67599e-06
2.56263e-08
6.62116e-10
2.52998e-10
2.62266e-10
2.7498e-10
2.51517e-10
2.05678e-10
1.18729e-10
5.96232e-11
4.6482e-11
5.32232e-11
7.74517e-11
1.33328e-09
4.58136e-06
7.46535e-06
6.02432e-06
5.19138e-06
3.29853e-06
3.53886e-06
2.60753e-06
3.35531e-06
3.97274e-06
5.09241e-06
5.77535e-06
1.21494e-06
3.15936e-08
1.928e-09
3.94377e-10
1.36017e-10
8.55735e-11
8.67027e-11
1.31329e-10
1.46314e-10
1.40762e-10
1.38398e-10
1.52308e-10
1.54896e-10
1.79607e-10
2.63633e-10
1.32231e-09
3.5455e-08
5.79652e-06
1.28136e-06
9.10022e-07
2.5354e-06
2.37701e-06
2.33214e-06
2.34626e-06
2.19879e-06
2.01843e-06
1.86506e-06
1.64281e-06
1.96524e-06
2.4062e-06
3.87705e-06
5.49884e-06
5.55686e-06
1.2508e-06
3.6752e-08
1.0938e-08
7.28027e-09
5.67853e-09
1.80882e-08
1.2097e-08
1.87229e-08
2.14335e-08
2.57906e-08
4.34257e-08
2.43013e-08
1.69433e-08
1.53699e-08
1.1187e-07
1.22179e-05
3.62501e-06
2.7436e-06
3.27749e-06
5.00433e-06
5.39811e-06
6.19012e-06
6.71118e-06
2.48814e-06
4.43617e-08
7.33374e-09
4.3742e-09
4.42982e-09
4.76453e-09
5.14143e-09
4.6067e-09
2.90829e-09
1.4618e-09
7.09785e-10
5.73651e-10
1.08338e-09
7.05994e-09
1.01926e-06
4.69385e-06
2.10255e-06
1.25078e-06
8.53123e-07
6.44837e-07
5.17057e-07
4.55981e-07
4.29258e-07
5.17285e-07
1.64928e-06
4.21588e-06
5.34764e-06
6.14368e-06
5.4566e-06
2.2302e-06
2.14241e-07
3.27757e-08
7.31055e-09
2.44762e-09
1.32775e-09
1.15435e-09
1.33249e-09
1.23366e-09
8.82004e-10
8.60583e-10
1.02239e-09
1.81766e-09
9.77819e-09
2.51354e-07
9.65638e-06
1.36301e-05
8.75118e-06
6.46418e-06
4.98865e-06
3.77014e-06
2.99847e-06
2.38495e-06
1.89868e-06
1.84721e-06
1.78748e-06
3.56206e-06
5.75637e-06
3.85517e-06
1.78596e-07
4.31122e-08
1.49172e-08
4.23601e-09
2.96656e-09
2.25603e-09
1.42465e-09
8.85852e-09
3.56797e-08
1.92415e-07
1.61092e-06
1.75222e-05
2.79287e-05
2.54496e-05
2.00703e-05
1.5665e-05
1.22358e-05
1.05968e-05
9.996e-06
8.79425e-06
7.26171e-06
5.54232e-06
3.96281e-06
2.35852e-06
1.03978e-06
3.76374e-07
1.46609e-07
1.81549e-06
9.29059e-06
1.13105e-05
7.07829e-06
2.44632e-06
6.72815e-07
2.61309e-07
1.91308e-07
2.74116e-07
4.7631e-07
1.95367e-06
1.33258e-05
5.22028e-06
1.06019e-05
9.10097e-06
7.79967e-06
4.14503e-06
2.74365e-06
3.65501e-06
8.26155e-06
1.36144e-05
1.42144e-05
1.26319e-05
1.07922e-05
1.02111e-05
9.36865e-06
9.2694e-06
9.16076e-06
1.03214e-05
1.09952e-05
8.24011e-06
7.60393e-06
9.39948e-06
1.38042e-05
9.54148e-06
4.09049e-06
1.47962e-06
8.58961e-07
1.05088e-06
1.90041e-06
3.72308e-06
5.62058e-06
5.42682e-06
5.59663e-06
5.63072e-06
5.60945e-06
5.25272e-06
5.0209e-06
5.06654e-06
5.3865e-06
5.66306e-06
5.1602e-06
2.41038e-06
1.08489e-06
7.71544e-07
1.15328e-06
2.03562e-06
2.8379e-06
3.44243e-06
3.31801e-06
2.84577e-06
1.73466e-06
1.23087e-06
9.36238e-07
6.88417e-07
6.42293e-07
8.02727e-07
1.73372e-06
5.73485e-06
6.87574e-06
5.17088e-06
5.80787e-06
5.82069e-06
3.18843e-06
4.59144e-06
1.10955e-07
9.17794e-09
3.90316e-09
5.36378e-09
3.20661e-08
4.06245e-07
1.49639e-06
3.69154e-06
3.80017e-06
3.99875e-06
4.07064e-06
4.46238e-06
4.97585e-06
5.10277e-06
5.37425e-06
5.50325e-06
5.54612e-06
5.54566e-06
5.5573e-06
5.53204e-06
5.61967e-06
5.59532e-06
5.13368e-06
4.60428e-06
4.22235e-06
2.43848e-06
3.17659e-06
5.56155e-06
1.53367e-06
2.86763e-06
5.46249e-06
5.13787e-06
4.23177e-06
5.11276e-06
5.63129e-06
5.37395e-06
4.99966e-06
4.66804e-06
4.57985e-06
4.52408e-06
4.55789e-06
4.71741e-06
5.07611e-06
5.35105e-06
5.68652e-06
5.68675e-06
5.46576e-06
5.06692e-06
4.44853e-06
4.18917e-06
4.33122e-06
4.49252e-06
4.65561e-06
4.71738e-06
4.88652e-06
5.23052e-06
5.88283e-06
6.17514e-06
5.78781e-06
4.65963e-07
4.85564e-08
5.87909e-08
3.5308e-08
1.51362e-08
1.17763e-08
9.06395e-09
7.97986e-09
9.50398e-09
1.32042e-08
2.03638e-08
2.74468e-08
3.4468e-08
4.01246e-08
4.45246e-08
4.08281e-08
3.35273e-08
1.49412e-08
1.01878e-08
1.58879e-08
5.39047e-08
2.11546e-07
1.35211e-06
2.63653e-06
5.12786e-06
5.29306e-06
3.94909e-06
4.62784e-06
5.08938e-06
4.40999e-10
2.14687e-10
1.57179e-10
6.9916e-11
5.72894e-11
2.06108e-10
1.39083e-08
3.08008e-06
5.7987e-06
3.89535e-06
1.79391e-07
2.84262e-08
1.33627e-08
1.01796e-08
7.99452e-09
6.49726e-09
5.12622e-09
4.53211e-09
3.8715e-09
3.87055e-09
5.15643e-09
1.33083e-08
2.43138e-08
3.28707e-08
1.71361e-07
5.15717e-06
4.51077e-06
3.03489e-06
2.43463e-06
2.08955e-06
3.92911e-06
6.68196e-06
5.58182e-06
5.10786e-06
5.4217e-06
6.37266e-06
1.24094e-06
1.53973e-07
3.93569e-06
5.19473e-06
3.84387e-06
3.74137e-06
3.27158e-06
2.97348e-06
4.72488e-06
3.52237e-07
1.87481e-09
3.59613e-10
2.67295e-10
4.1526e-10
4.36339e-10
3.91396e-10
2.59273e-10
1.8455e-10
7.86533e-11
4.21145e-11
5.99933e-11
8.37764e-11
2.49558e-10
4.7601e-06
7.43979e-06
6.1174e-06
5.0917e-06
3.53815e-06
3.38472e-06
2.5988e-06
3.52306e-06
5.17075e-06
4.74297e-06
1.52545e-07
7.87644e-09
7.36445e-10
2.26426e-10
1.76873e-10
2.08918e-10
3.60398e-10
4.81052e-10
4.57062e-10
3.6196e-10
2.59807e-10
2.29803e-10
1.87493e-10
1.51693e-10
8.90486e-11
8.01142e-11
7.84475e-11
2.27349e-10
8.26585e-09
4.77641e-06
8.95237e-07
2.01913e-06
2.10677e-06
2.51459e-06
3.18894e-06
3.28858e-06
2.84284e-06
2.03351e-06
1.72136e-06
1.61869e-06
2.32476e-06
4.87145e-06
5.09919e-06
2.0126e-07
2.68025e-08
6.85132e-09
7.60688e-09
1.38115e-08
3.1601e-08
7.90826e-08
3.64089e-08
4.9606e-08
5.25564e-08
5.95034e-08
5.6208e-08
1.32059e-07
9.15371e-08
2.81259e-08
1.01629e-08
1.83865e-07
4.76292e-06
3.32693e-06
5.91752e-06
7.57355e-06
7.8912e-06
9.22873e-06
1.04288e-07
2.63352e-08
7.8463e-09
7.92454e-09
4.55256e-08
1.86568e-07
1.41981e-06
8.4208e-07
9.39906e-07
1.87529e-07
4.6068e-08
1.28333e-08
1.90696e-09
3.89869e-10
2.11232e-10
1.88795e-10
1.71638e-09
1.31304e-06
5.10263e-06
2.56187e-06
1.47302e-06
9.35197e-07
5.90505e-07
4.38496e-07
4.33399e-07
2.48511e-06
6.32891e-06
3.25461e-06
2.59277e-07
4.95238e-08
1.69256e-08
1.02495e-08
5.53714e-09
6.88786e-09
1.49566e-08
5.2516e-08
2.00465e-07
1.8528e-07
2.18962e-07
8.29387e-08
2.83894e-08
4.285e-09
8.67718e-10
1.23696e-09
3.31497e-09
3.06229e-08
4.22529e-07
1.22861e-05
1.28256e-05
1.03865e-05
7.60528e-06
5.73196e-06
4.07465e-06
2.48138e-06
1.98007e-06
2.58637e-06
5.83525e-06
2.09718e-07
1.98204e-08
5.09105e-09
2.00242e-09
1.0799e-09
1.38041e-09
9.67379e-10
3.17476e-09
1.18243e-09
3.61685e-09
1.44004e-08
1.37426e-08
4.16867e-08
2.4587e-07
2.70666e-06
1.27618e-05
1.88343e-05
1.90644e-05
1.7237e-05
1.65695e-05
1.65057e-05
1.59338e-05
1.58126e-05
1.60298e-05
1.41274e-05
1.13469e-05
6.72785e-06
2.71426e-06
3.69882e-07
1.11844e-05
1.31023e-05
1.33369e-05
1.35694e-05
1.14908e-05
5.31245e-06
2.06542e-06
1.2681e-06
1.05677e-06
1.19246e-06
1.98601e-06
8.03658e-06
7.47207e-06
9.82917e-06
9.11097e-06
8.4094e-06
4.62943e-06
3.90848e-06
8.0337e-06
1.47393e-05
1.41606e-05
1.27431e-05
1.13504e-05
1.03376e-05
9.62176e-06
9.15773e-06
8.88021e-06
9.86442e-06
1.12322e-05
8.38195e-06
6.81298e-06
7.42071e-06
1.30794e-05
9.76422e-06
3.86868e-06
1.76667e-06
9.89492e-07
7.87955e-07
9.30584e-07
2.18368e-06
4.14785e-06
5.38512e-06
5.59795e-06
5.62194e-06
5.58986e-06
5.16335e-06
4.90925e-06
5.03939e-06
5.29468e-06
5.44408e-06
5.56636e-06
5.63763e-06
4.7763e-06
1.96386e-06
1.23316e-06
9.37156e-07
1.04196e-06
1.41278e-06
1.66686e-06
2.11287e-06
2.19907e-06
2.26743e-06
1.60243e-06
1.32975e-06
9.19502e-07
9.16822e-07
1.46491e-06
3.80882e-06
7.72281e-06
5.77168e-06
4.74234e-06
5.80155e-06
5.80244e-06
4.17458e-06
7.37552e-07
9.761e-09
2.92168e-09
4.09129e-09
4.05439e-08
1.14151e-06
4.50269e-06
5.47535e-06
5.54974e-06
5.58257e-06
5.43719e-06
5.40192e-06
5.45125e-06
5.5702e-06
5.55218e-06
5.56244e-06
5.55264e-06
5.51058e-06
5.49641e-06
5.51486e-06
5.54127e-06
5.62425e-06
5.55033e-06
5.11167e-06
4.82804e-06
4.1766e-06
2.71398e-06
4.66359e-06
5.71171e-06
2.02132e-06
3.26794e-06
1.51434e-06
2.15191e-07
2.0869e-07
9.2475e-07
2.42954e-06
4.75081e-06
5.57941e-06
5.5804e-06
5.38288e-06
5.30842e-06
5.32895e-06
5.3539e-06
5.29927e-06
5.25281e-06
5.18771e-06
5.1644e-06
5.20473e-06
5.35801e-06
5.6091e-06
5.90755e-06
6.07621e-06
6.10188e-06
6.07528e-06
6.08522e-06
6.02949e-06
6.01397e-06
5.98855e-06
6.08491e-06
5.11322e-06
1.10287e-07
5.23363e-08
4.12871e-08
2.12632e-08
1.29754e-08
9.72308e-09
6.46463e-09
5.27139e-09
5.61924e-09
9.19656e-09
1.09023e-08
1.30435e-08
1.60364e-08
3.08956e-08
3.93478e-08
3.65479e-08
2.63662e-08
1.38744e-08
1.22261e-08
3.65291e-08
3.2082e-07
1.28012e-06
2.15891e-06
2.98145e-06
5.13887e-06
5.04484e-06
3.94075e-06
4.51362e-06
4.528e-06
4.34551e-10
1.36267e-10
7.82049e-11
5.78605e-11
8.30294e-11
1.90934e-09
7.99399e-07
5.22266e-06
5.32234e-06
1.03061e-06
5.38772e-08
2.32475e-08
1.22697e-08
8.79602e-09
5.52472e-09
4.93754e-09
4.59752e-09
4.23184e-09
3.48113e-09
3.49832e-09
6.70183e-09
4.65384e-08
4.8204e-07
9.98388e-07
1.9459e-06
5.59185e-06
4.98896e-06
3.13507e-06
2.2525e-06
1.82805e-06
6.9908e-06
6.29378e-06
5.16353e-06
5.10592e-06
5.58732e-06
6.27072e-06
1.18966e-06
1.89434e-07
4.40899e-06
5.24447e-06
4.39871e-06
4.51633e-06