/*--------------------------------*- C++ -*----------------------------------*\
| =========                 |                                                 |
| \\      /  F ield         | OpenFOAM: The Open Source CFD Toolbox           |
|  \\    /   O peration     | Version:  2.1.1                                 |
|   \\  /    A nd           | Web:      www.OpenFOAM.org                      |
|    \\/     M anipulation  |                                                 |
\*---------------------------------------------------------------------------*/
FoamFile
{
    version     2.0;
    format      ascii;
    class       volScalarField;
    location    "0.003500000";
    object      omega;
}
// * * * * * * * * * * * * * * * * * * * * * * * * * * * * * * * * * * * * * //

dimensions      [0 0 -1 0 0 0 0];

internalField   nonuniform List<scalar> 
12384
(
2388.07
4845.98
7298.78
8530.63
9556.55
9460.25
9748.34
8965.81
8183.28
7052.87
5586.47
4050.62
2838.36
1917.06
6467.99
22416.6
40004.4
56428.3
69455.2
79575.7
87211.4
92340.7
95362.5
98377.2
98097.7
96860.4
92425.9
88706
82940.3
76047.7
69688.5
60744.4
54104.2
48071.4
42523.8
39391.8
35700.7
33073.2
29283.7
23892.4
18411.6
12557.6
7928.82
3410.6
24760.7
41571.7
53896
67016.6
78000.2
84055.9
87598.7
87549.6
85195.8
79704.9
75288.5
71613.4
70597.4
68776.9
67207.3
64609
62917.8
60536.9
58378.2
54564.7
50137.2
44189.1
39167.3
33629.3
30400.7
25807.9
21752.1
16452.2
11141.1
5752.35
32817.1
49419.4
60167.8
68506.9
74838.6
82901.4
92630.6
104853
118972
132416
148203
160864
174858
184206
190650
195863
195044
192173
182542
164483
141033
117193
94597.7
76720.6
61483.5
48544.8
36825.1
24571.4
14124.9
5724.41
36932
57544
70796.7
80069.5
89577.1
100393
114262
131099
141233
156337
151853
159974
146045
146699
136092
129576
123208
117231
112380
107615
99535
90690.1
80282.1
68072.3
56124.9
43527.9
32514.5
22848.5
16408.9
7376.85
12167.3
27273.1
40635.5
48793.4
60157.7
74472.5
114576
144221
162551
163978
166317
162057
160325
155850
154376
147691
144236
130056
127923
125008
119421
109242
93710.4
72562.8
50989.7
33815.6
23406.2
15976.3
9050.87
3889.02
15113.8
29042.7
44168.5
56978.4
66069.7
75511.3
78664.6
82038.4
81200.8
82367.5
80620.4
79879.6
78522.7
78756
80085.6
89883.9
99196.1
107891
114780
119161
115284
107729
90118.3
70102
51460.9
35740.9
21708.7
14194
7989.41
3125.45
3987.68
11082.4
16441.4
16014.4
17416.8
14182.5
11231.1
8914.17
6192.54
4202.18
2977.66
2283.28
2280.28
2271.24
2405.88
2834.44
3373.57
3994.79
5087.62
6164.6
7473.08
8182.73
8435.44
8488.79
6956.13
6066.25
4201.4
3279
2464.99
1611.07
1173.76
1350.18
1488.79
1667.73
1744.63
1989.16
2212.72
2579.19
2882.47
3118.95
3183.44
3139.64
2987.26
2779.44
2604.47
2449.75
2489.85
2930.45
2934.02
3210.5
3072.02
2888.69
2648.63
2363.01
2156.25
1951.24
1757.87
1663.02
1580.54
1471.59
1308.76
1346.31
1391.74
1435.47
1390.51
1497.16
1515.15
1739.98
1851.51
2548.21
3147.94
3028.42
3421.75
3156.29
3100.7
2998.42
2667.35
2348.97
1917.14
1668.41
1515.3
1412.65
1359.43
1311.09
1265.81
1221.68
1136.78
1112.46
1107.49
1056.09
784.137
823.616
844.168
951.634
935.651
1085.31
1069.88
1127.03
1204.64
1348.51
1966.58
1458.61
2436.53
1500.78
1973.76
1557.61
1640.36
1544.71
1467.03
1480.99
1477.85
1481.76
1516.32
1501.77
1517.87
1493.84
1474.17
1446.31
1412.97
1386.56
832.871
912.79
937.531
957.073
1016.47
1013.01
1079.26
1057.92
1132.04
1117.97
1172.73
1195.44
1169.33
1244.59
1174.04
1155.19
1179.12
1004.68
1020.48
1012.46
1040.74
1072.99
1104.24
1148.53
1126.31
1102.67
1143.45
1084.57
1090.84
1031.48
986.594
1093.87
1078.04
1079.81
1049.01
1073.57
1026.76
1069.39
1039.47
1091.14
1070.82
1082.41
1105.41
925.084
961.4
914.929
905.9
881.101
881.616
980.54
993.873
1041.87
1044.89
994.555
1017.99
1099.14
1372.73
1270.34
1288.32
1267.69
4201.25
104471
143333
171770
199626
215556
226413
222361
211204
189924
165073
136709
103212
5087.14
17401.6
195734
303909
400614
488267
566695
630249
671457
696200
702123
697740
677910
654704
623696
592214
556142
526333
495686
472525
450944
428628
402814
375409
344755
308535
266715
218001
169156
121781
8202.78
45014.4
229870
268972
319457
392031
468407
542669
614020
679485
728783
751534
743994
718929
676615
636257
587962
554404
521512
498873
479870
463254
448733
429431
401242
362238
317021
266178
209259
151284
14906.7
51801
204441
238227
270990
315471
380380
460495
554404
657001
764986
871856
975556
1.07293e+06
1.16487e+06
1.25853e+06
1.3434e+06
1.42353e+06
1.48096e+06
1.50272e+06
1.46874e+06
1.38175e+06
1.2378e+06
1.03352e+06
786290
572924
444427
356993
271653
184981
19485.9
58229.5
285577
339866
400915
476486
575633
687935
811055
930519
1.02829e+06
1.09832e+06
1.13168e+06
1.1283e+06
1.0898e+06
1.03132e+06
949279
869578
786813
721819
672220
637580
607182
575748
529159
468758
391723
314654
248042
196794
21037.6
30723.9
279626
432623
583545
699155
787365
861589
908957
960206
1.02353e+06
1.09933e+06
1.18947e+06
1.2942e+06
1.41932e+06
1.5662e+06
1.7288e+06
1.89161e+06
2.02452e+06
2.08695e+06
2.06178e+06
1.95603e+06
1.7628e+06
1.51919e+06
1.22851e+06
903780
581144
358847
243822
177192
10259
35843.9
251069
330299
386771
419657
437485
446190
457456
478603
513748
540064
560838
577529
596818
619758
654169
674106
694093
705303
716717
702591
674374
629311
565335
486718
412280
345458
301361
250662
9809.04
9776.01
367299
438655
491902
524122
538477
516415
467921
420670
386683
384283
412449
451057
492544
538453
590018
645556
697263
734260
746339
722501
667830
592787
511809
434151
372571
320122
274242
208894
2049.98
1658.38
246520
313291
375274
420096
472777
529364
598294
671695
747202
823778
890823
955497
994836
1.02834e+06
1.04579e+06
1.04953e+06
1.04119e+06
1.00463e+06
951477
878157
796385
707532
620001
535396
453822
376337
302888
219167
1365.78
1455.39
219297
265489
293515
309279
326501
347538
362527
392114
421748
439664
474473
489284
495514
506322
508620
499906
482362
466244
460672
449772
428406
396916
364674
334581
308229
281588
249072
204358
1005.29
1127.33
312126
414018
500683
557011
613780
656849
717524
786852
854779
928428
942397
996793
954442
896912
799382
698185
603998
520421
450371
399205
362250
335996
314880
297926
282244
263672
238666
190510
1341.77
937.394
309312
370677
417998
469560
507997
562575
595588
636204
637328
627135
591409
541959
485926
433904
391450
362317
342807
334095
346017
383640
413810
428820
451131
452728
451114
430489
372187
277352
994.339
1009.49
347175
357611
353135
346710
344976
337707
353018
352567
376267
382182
424149
439858
502416
532449
562882
521007
448833
405193
504664
589099
627270
621401
600298
545755
475210
394298
304141
212851
1070.18
6467.03
137219
188616
226276
260748
285435
300606
300079
284764
256966
222986
190692
154192
10873.6
32528.3
319705
452306
544807
610754
656918
686698
702872
704071
694941
678158
658162
637207
616780
596428
574619
553185
530569
508214
483572
456819
428573
395746
360314
321292
277464
231697
187283
145357
11196.1
52271.8
271112
297018
406194
530233
621357
680448
721133
754950
782503
795299
788799
765284
731037
692902
653361
621831
593082
566394
541393
514901
488203
458041
424115
382067
336946
287014
232142
180882
18031.6
59230.3
236250
267849
305925
355670
423313
501684
586481
669512
750977
825763
897505
961978
1.0256e+06
1.08574e+06
1.15312e+06
1.21438e+06
1.26907e+06
1.30662e+06
1.32174e+06
1.31717e+06
1.28338e+06
1.18374e+06
990309
750758
557683
434591
342374
256759
28895.4
67047.7
347157
396163
459106
541536
637301
734791
815782
887499
939204
979193
1.00241e+06
1.01052e+06
993151
954229
896573
828351
758634
697099
648298
610417
580642
551192
517799
477376
427116
375183
327884
288521
35576.2
51893.7
413828
624895
779974
863828
904335
940839
972169
995335
1.01814e+06
1.04826e+06
1.08996e+06
1.1456e+06
1.21963e+06
1.31634e+06
1.43576e+06
1.5677e+06
1.69632e+06
1.79103e+06
1.82871e+06
1.79006e+06
1.67626e+06
1.50474e+06
1.28865e+06
1.02006e+06
704972
447208
307137
241045
13219.8
58074.5
339799
402516
445470
471894
490212
506654
534793
574077
620230
662737
702778
741319
774983
810227
847435
874155
892231
893582
888191
868354
823501
764133
694159
619363
537692
464443
406605
349284
22056.4
22084.3
507041
570515
589344
589795
571999
539951
498621
465643
453611
465650
502451
540973
589429
645353
703082
758551
816351
865234
882212
851095
782082
701805
622184
533778
441803
369844
319316
256742
2878.14
2163.33
328563
396649
461324
515828
572940
634691
703835
771748
837512
901388
964140
1.02443e+06
1.07696e+06
1.12831e+06
1.15979e+06
1.17128e+06
1.15593e+06
1.10717e+06
1.03277e+06
933567
827375
719824
624022
533652
451773
376794
311154
240637
1335.28
1499.87
259035
308139
333778
357667
384157
406968
427877
450699
475619
498445
517750
531997
540278
548647
553643
548091
537747
539930
554328
567423
553001
514347
465212
413042
365563
332657
302332
270604
914.67
1239.38
337448
424804
501918
570819
645358
717723
791949
867971
946155
1.01976e+06
1.07328e+06
1.08643e+06
1.03636e+06
935546
803641
672784
557548
460593
386454
334758
302441
285345
276771
270891
265112
256121
239651
208886
1162.82
1103.36
383198
434662
483624
534728
594642
665986
729954
779754
797891
785960
734990
656699
568851
491127
436572
406081
393502
398239
404087
413079
436398
443947
449657
456840
450874
430828
394096
324441
967.592
1116.38
484734
494167
487267
477538
467415
454443
456168
463057
472083
491286
517674
555285
607366
646390
655408
620811
571219
511680
510596
575920
592915
580479
550340
508484
456486
398416
351383
300367
947.959
9837.41
174953
232074
269654
301916
326759
345642
354921
352367
333464
299094
259154
215834
22206
51615.9
454951
602988
676165
706277
709121
697097
678557
654783
628831
602369
583037
570787
564640
559866
554490
545036
532871
517390
498052
472700
443158
406060
366373
324681
280074
237596
200703
167381
14072.9
59119.4
291479
356744
517081
647983
717878
740077
740708
740228
750869
764268
769401
761115
742806
717977
691787
669705
651424
628663
598698
561529
519292
478417
437673
391212
347321
300068
254591
215408
23845.3
66670.3
266715
299447
345128
408291
492202
578232
661463
726867
778095
810397
833937
849787
865145
880144
906791
941129
980461
1.0227e+06
1.06961e+06
1.12761e+06
1.17576e+06
1.15947e+06
1.02932e+06
812583
610962
480070
394146
320065
38878.6
74962.4
398782
448615
514883
596006
675183
740469
782676
802019
796493
779789
766948
770131
773053
759311
731933
693639
649509
605747
566905
534644
509065
487714
468815
450845
430653
410571
391683
374692
53849.7
78206
588187
811234
934650
975124
992893
1.01786e+06
1.0335e+06
1.0329e+06
1.03031e+06
1.0383e+06
1.05468e+06
1.08404e+06
1.12217e+06
1.16717e+06
1.20742e+06
1.25031e+06
1.2935e+06
1.34062e+06
1.38121e+06
1.39925e+06
1.38206e+06
1.31651e+06
1.19774e+06
1.00704e+06
739383
497484
360015
300060
17766.9
80030.8
418092
455814
489133
522271
553444
585987
629566
677512
730203
779344
827879
870113
914157
952361
987355
1.00518e+06
1.01517e+06
1.0182e+06
1.00286e+06
970788
908344
831719
754308
685661
621566
559913
495009
418997
36688.2
39756.9
672644
685185
642747
591566
549296
517037
499152
496926
508798
526936
558581
600745
656212
717440
779850
856338
946701
1.01686e+06
1.03228e+06
996071
937017
890803
841212
745282
582065
451802
381906
307868
4875.66
2902.94
392556
458894
520273
575801
634235
697128
763967
830135
901646
981709
1.07381e+06
1.15746e+06
1.2292e+06
1.28894e+06
1.32752e+06
1.34186e+06
1.32938e+06
1.28299e+06
1.20328e+06
1.09653e+06
975758
850856
720024
583026
467592
387613
326172
256358
1427.14
1630.4
284344
334417
363405
396069
435337
469042
497759
518480
534094
550777
560659
572975
589633
605321
622266
633451
643377
648513
660529
662979
647618
625051
593225
561277
502411
435358
385115
336990
964.061
1575.4
352178
423546
498020
586981
700733
827062
965520
1.08422e+06
1.18447e+06
1.26862e+06
1.30286e+06
1.29257e+06
1.26007e+06
1.14569e+06
995745
826965
649866
496688
395944
334247
297128
278558
273426
272062
269730
264743
255419
238896
1098.04
1326.02
423051
484516
552634
650423
771766
908222
1.0251e+06
1.10688e+06
1.13866e+06
1.11861e+06
1.04522e+06
934856
796971
662371
549851
481647
445281
442873
447592
453574
465102
470469
471801
472778
470148
447696
421291
382199
1003.66
1361.89
578902
596655
594192
585252
571518
558265
553001
548131
542298
551135
577947
619771
677393
714026
713123
691374
662082
614357
560965
567692
592461
586571
558723
521056
469095
420392
395194
374645
884.656
13887.6
213792
262692
291850
316623
339723
360347
377386
389533
393772
381951
351399
304129
41804.2
73926.7
587585
734665
779789
774560
734922
677119
617203
568618
530006
505402
496799
500979
511655
522813
532142
535014
532737
524176
508633
484504
453462
412270
366554
319705
275985
240384
217659
195789
21028.9
63691.4
312449
438711
592109
683838
708668
689604
650749
618968
614532
633750
659460
676523
682632
682037
677535
669587
658752
639245
609492
569998
523677
479484
437966
395572
356537
316400
282172
253534
32717.6
74903.7
298545
340693
403136
495621
602069
694658
769617
806652
814608
798237
774772
747204
714815
679869
646897
635700
657710
714994
804352
925177
1.03703e+06
1.07071e+06
979574
797321
618756
505217
438989
382797
50843.2
83708.1
448949
505443
578610
656598
725326
777853
798633
785843
735352
662520
597493
568921
571437
578567
579989
570151
546425
518198
490996
468775
451772
437685
431091
429675
431957
437982
443703
449658
73268.6
115284
803108
998872
1.06259e+06
1.06072e+06
1.0741e+06
1.10093e+06
1.11278e+06
1.11069e+06
1.10837e+06
1.11544e+06
1.13409e+06
1.16892e+06
1.20098e+06
1.21869e+06
1.1988e+06
1.15421e+06
1.09709e+06
1.05127e+06
1.03214e+06
1.04349e+06
1.08326e+06
1.10542e+06
1.07613e+06
959730
752891
544332
430550
375689
27855.9
105131
491409
512796
548879
592047
635139
679265
727758
778477
828942
876499
921154
963990
1.00134e+06
1.03154e+06
1.06018e+06
1.08065e+06
1.09814e+06
1.10431e+06
1.09032e+06
1.05105e+06
969557
866221
770427
705012
660775
618753
561889
484577
53384
69606.5
824156
772926
664532
558118
493967
478477
502412
541194
565994
585373
608368
657806
719455
791196
870929
976876
1.09025e+06
1.14538e+06
1.12896e+06
1.09041e+06
1.0839e+06
1.12542e+06
1.14261e+06
1.05002e+06
797030
554109
451362
372023
9384.09
4005.27
451299
515962
579965
635907
695169
759059
829565
907092
1.00109e+06
1.09642e+06
1.20045e+06
1.29813e+06
1.37245e+06
1.414e+06
1.42673e+06
1.41453e+06
1.37196e+06
1.30099e+06
1.20338e+06
1.09237e+06
973848
859401
743297
630273
524715
424602
339627
266209
1581.95
1836.63
287830
350329
393503
440062
494052
543307
585212
610785
620934
628047
628342
634261
651717
673896
691317
691255
685366
674350
669466
671134
673510
681119
676252
677059
644689
578265
497448
406804
1184.78
1866.96
365555
430642
517217
643052
809330
992308
1.18413e+06
1.31138e+06
1.37763e+06
1.39945e+06
1.3939e+06
1.35464e+06
1.29771e+06
1.18174e+06
1.03997e+06
886621
727200
579767
460393
367178
312742
288151
280062
280355
282436
284142
284739
280469
1174.7
1642.29
461234
551100
668747
822371
993097
1.1607e+06
1.29614e+06
1.36508e+06
1.36464e+06
1.30568e+06
1.19445e+06
1.04732e+06
901542
769878
656000
572182
510520
488420
488630
489235
491744
497864
501558
506524
499760
482799
466509
434975
1160.18
1623.83
649511
674296
680122
680476
673714
669208
655538
639030
626495
627973
658464
712608
780219
814831
811981
787566
754692
705129
642673
601286
599160
602087
587262
548053
498016
455202
432248
414378
906.017
20261
249804
279633
294471
308381
326350
346723
371369
396247
422544
442192
444405
413573
65842.3
99084.9
702918
827817
844429
813543
746839
655075
559209
487752
443258
427711
437891
461333
487716
510793
528996
538843
540630
534798
518583
490676
450750
401700
349714
304575
269104
249613
246994
241348
31430.5
69201.3
352376
491759
596337
635599
620936
572886
511137
461784
447041
466601
502843
535595
558200
573090
582160
583818
580432
569604
549180
520911
486200
452919
424716
396730
368867
339313
317617
299962
46509.9
85661.6
344072
405008
498589
622939
752867
850821
903868
903560
861680
795519
731898
666339
603741
538904
468761
419290
425995
509739
641605
791528
921490
963605
886364
743143
608039
527256
481518
441252
62627.5
99652.8
509738
581389
665510
748410
818886
868865
886538
866196
811323
727845
640371
574230
547567
545720
543196
529762
506191
484016
462172
444121
430096
418668
415466
421297
436025
458106
486605
516583
93717.4
155914
1.0518e+06
1.18195e+06
1.16666e+06
1.13438e+06
1.15454e+06
1.18488e+06
1.19854e+06
1.19365e+06
1.19322e+06
1.20809e+06
1.24179e+06
1.29612e+06
1.34512e+06
1.35378e+06
1.29382e+06
1.17282e+06
1.04172e+06
938128
867118
847291
892052
956429
981735
917837
755962
595419
511793
463449
45737.5
137382
583318
595513
631805
677942
726073
772453
817531
865317
903571
940908
974715
1.00667e+06
1.02985e+06
1.04938e+06
1.07171e+06
1.09578e+06
1.12474e+06
1.1488e+06
1.15276e+06
1.12235e+06
1.03552e+06
909039
783377
703796
668158
640367
596728
536497
67679.4
124916
933450
813671
660388
528224
459975
477436
546463
612472
640070
646314
665773
711394
780818
864170
971765
1.10748e+06
1.19286e+06
1.19123e+06
1.14261e+06
1.12286e+06
1.19799e+06
1.3449e+06
1.44169e+06
1.37151e+06
1.06473e+06
682682
505164
431231
16664.5
5422.03
506664
573189
639993
700738
763332
830987
910011
1.00118e+06
1.10701e+06
1.21873e+06
1.31633e+06
1.38574e+06
1.42175e+06
1.42234e+06
1.39883e+06
1.35457e+06
1.29082e+06
1.20465e+06
1.10854e+06
1.00531e+06
898344
798060
700745
610579
526251
446048
366103
281677
1843.72
2180.71
290681
357742
416143
481511
551761
616813
669796
705606
716769
715372
709062
707133
712182
720707
714421
696367
662011
644970
640636
680125
686330
736412
739182
764818
754555
705989
616952
494533
1687.66
2471.87
386491
449471
555394
712462
933482
1.14928e+06
1.30654e+06
1.366e+06
1.36339e+06
1.32193e+06
1.28131e+06
1.23328e+06
1.16414e+06
1.07714e+06
974654
856288
725667
594403
480689
393942
339340
308041
296563
297815
303846
311407
321677
330089
1340.11
1995.54
502686
614113
758445
940430
1.11978e+06
1.26331e+06
1.34841e+06
1.35798e+06
1.2994e+06
1.19984e+06
1.08197e+06
971917
888103
813408
742506
669950
609579
560112
541913
528508
523365
525782
529495
531384
528793
521708
512455
494420
1476.49
1849.74
688573
717246
717632
718374
717737
714084
710056
694607
709923
740093
792993
862948
912450
949941
952658
915381
850766
784220
712166
652378
616683
620313
617488
590862
549796
503372
485032
486690
862.392
27763.8
278276
289016
291598
295097
304515
319723
344687
378211
420963
467539
510177
525237
92248.4
128065
786753
873998
869862
830809
757570
653470
544940
462442
419443
414981
437984
472605
506154
532728
551515
560641
561124
550716
524834
484356
432124
379247
332617
298172
279818
280371
299563
302290
49299.3
82137.9
406037
501935
554575
558839
529000
483007
428451
378380
349892
351005
369828
389467
402710
410296
414799
420009
427625
436125
440522
438827
430640
418694
408434
400231
388694
371550
361352
350779
63880.1
103761
420231
503496
632801
794008
944035
1.0475e+06
1.08457e+06
1.05912e+06
979120
884718
795574
708638
630425
559052
497496
463233
478620
547723
648131
756941
848468
865605
796896
694262
605417
552232
517927
489578
76813.5
122352
596076
682004
776958
866543
936476
980182
999807
990160
955233
900854
834674
768815
710035
663055
625260
586832
550226
517185
486729
459699
436783
421736
417095
426581
450981
486663
533882
586761
116468
205213
1.33666e+06
1.36801e+06
1.26418e+06
1.19967e+06
1.2181e+06
1.24723e+06
1.25583e+06
1.24998e+06
1.25022e+06
1.27442e+06
1.32832e+06
1.40949e+06
1.48732e+06
1.51103e+06
1.42935e+06
1.24708e+06
1.05734e+06
916087
826752
794176
823276
891556
934055
891729
767355
651153
588891
544722
68498.1
175519
679872
683022
715738
759415
806120
847505
887958
922414
947316
969638
987730
1.00083e+06
1.00896e+06
1.01979e+06
1.03842e+06
1.06955e+06
1.11018e+06
1.15127e+06
1.17809e+06
1.16728e+06
1.09337e+06
963635
820683
716190
666858
636902
600538
559478
82134.1
187696
975754
820590
660986
542843
499691
555049
653068
728441
750462
744601
754983
797471
875639
970303
1.09786e+06
1.213e+06
1.23393e+06
1.1695e+06
1.08271e+06
1.07571e+06
1.22574e+06
1.46431e+06
1.6345e+06
1.60817e+06
1.30463e+06
843306
560479
475375
28716.3
8424.05
567991
634588
704902
768300
833189
909181
997886
1.10281e+06
1.21115e+06
1.30578e+06
1.37388e+06
1.40527e+06
1.39811e+06
1.35945e+06
1.30334e+06
1.23316e+06
1.15798e+06
1.07688e+06
990445
900946
810330
724287
642545
568882
503754
443099
379791
296030
2587.28
3013.57
292695
356824
424193
509723
597679
679236
742539
787759
810803
812417
804833
790319
774651
759511
724783
690350
672027
695796
731724
821960
824640
891920
883883
897228
862852
802126
703763
584406
3213.43
3037.46
410618
476385
598411
787227
1.01601e+06
1.20266e+06
1.28724e+06
1.28982e+06
1.18668e+06
1.08365e+06
981478
926603
899424
891320
866883
813247
726795
619658
510865
425104
370900
340107
328621
330731
340652
354567
374286
396254
1694
2259.96
526358
641689
777791
935244
1.07384e+06
1.16911e+06
1.19089e+06
1.13579e+06
1.01381e+06
901084
836012
824369
844930
860423
848999
806700
750072
689175
642417
605965
581040
568694
562029
560299
561251
562119
568169
566135
1783.67
2262.3
681827
708061
693020
680358
677454
677565
682920
709294
800251
897601
991666
1.03894e+06
1.07451e+06
1.07735e+06
1.0603e+06
1.00635e+06
924914
839659
747438
671551
641497
630202
637225
628789
608607
588546
591676
613003
973.168
36638
294011
295054
293227
289722
288115
294485
316488
355652
405924
464157
538937
613241
115232
171368
835906
881950
868602
839407
781308
692115
596355
522382
483958
481277
503771
535214
564258
586008
597308
599072
590577
567871
527221
476520
424246
379381
344942
328560
331109
360149
404776
408140
86932.2
109777
447870
491661
515073
514929
501893
478861
440073
392265
353556
332318
325542
321884
318795
318516
324561
338482
354479
369374
379254
386710
395455
401282
408070
418713
419993
412593
410568
403588
88762.8
123232
507391
607710
785620
989393
1.16611e+06
1.27889e+06
1.31524e+06
1.29037e+06
1.20098e+06
1.10452e+06
1.00862e+06
920532
843766
781368
739523
721107
721708
738144
764805
797348
821050
805390
744361
674874
616156
573720
543507
523529
94213.6
152142
703089
788195
897358
987577
1.05522e+06
1.0936e+06
1.10767e+06
1.0991e+06
1.07406e+06
1.03725e+06
990058
941895
887328
828559
771526
715047
659571
605714
558394
515653
479599
451800
437317
437878
464482
513335
588533
683097
141494
258053
1.66188e+06
1.5572e+06
1.355e+06
1.2473e+06
1.24974e+06
1.27342e+06
1.28197e+06
1.27419e+06
1.2723e+06
1.30002e+06
1.36762e+06
1.47525e+06
1.59059e+06
1.65418e+06
1.59716e+06
1.40674e+06
1.18282e+06
1.00528e+06
899594
862346
877598
917320
934596
891422
794175
704075
653363
608478
99329.6
212681
747820
747197
782852
825714
868309
902842
932455
951765
963047
963769
957424
951969
952092
963919
987748
1.02551e+06
1.07026e+06
1.11927e+06
1.16371e+06
1.17564e+06
1.1274e+06
1.01753e+06
882678
765456
690606
640665
608372
592173
126781
248207
960060
809877
689958
618241
614945
690128
792237
861378
870459
860133
868760
917992
1.00566e+06
1.10986e+06
1.22375e+06
1.28176e+06
1.22079e+06
1.07733e+06
939665
939489
1.14892e+06
1.46948e+06
1.6972e+06
1.72544e+06
1.46395e+06
996662
635023
509493
47629.8
11856.9
628503
693290
764238
833017
907067
990970
1.09214e+06
1.19643e+06
1.28832e+06
1.3537e+06
1.38444e+06
1.37604e+06
1.32566e+06
1.25183e+06
1.17089e+06
1.09398e+06
1.02908e+06
964667
898366
831340
760390
684396
611353
542858
483817
431049
381588
311411
5428.16
5886.71
289663
348865
416800
511842
617336
720476
802823
860416
898775
915946
916067
893152
857982
820849
799816
822819
897589
1.03157e+06
1.12762e+06
1.22645e+06
1.22047e+06
1.22187e+06
1.17039e+06
1.11493e+06
1.03284e+06
914030
770524
631279
7528.38
5499.65
430189
500859
627610
823332
1.02525e+06
1.16243e+06
1.16526e+06
1.07516e+06
891427
703367
559095
568923
657601
749543
811198
819595
775945
690560
586837
498254
437865
404057
390762
390981
402765
422440
445538
482713
1992.24
2412.03
522508
620806
725479
838186
931630
983629
969087
873260
753305
676114
686775
800354
925285
1.017e+06
1.02799e+06
988148
918297
853228
789520
737084
688226
655330
627128
609596
603775
610337
628036
650677
1991.67
2426.78
608745
709245
749454
762098
752963
740906
769772
879860
1.03448e+06
1.17367e+06
1.26275e+06
1.22214e+06
1.19928e+06
1.15963e+06
1.11627e+06
1.04611e+06
951553
854803
754417
673695
651095
630233
628369
646143
670847
691318
716462
763831
1169.87
44140.9
301054
300790
299153
292318
283587
285647
309979
358105
415257
477420
583247
719242
638323
178006
185363
742501
847876
859842
851851
847509
824402
774662
714153
660055
625033
614923
623612
641533
656649
665001
664616
654591
632217
594496
546674
498786
460982
438580
428604
437882
462704
521556
602983
662452
565887
119083
129019
536394
518896
522929
541855
557649
562737
549804
517211
474085
434312
406385
392115
384881
383219
391175
404115
421948
431130
426966
418519
416816
433033
447985
458397
467046
469030
467183
475924
484747
428426
173492
196725
740473
761241
834309
983875
1.18986e+06
1.38263e+06
1.50551e+06
1.54937e+06
1.53665e+06
1.46375e+06
1.37312e+06
1.2788e+06
1.19508e+06
1.12507e+06
1.06997e+06
1.03054e+06
998044
961810
924947
888316
855016
821629
778643
722417
669051
622367
583220
551046
535103
425312
190602
247942
916111
932016
973404
1.05119e+06
1.1208e+06
1.17064e+06
1.19703e+06
1.20476e+06
1.19937e+06
1.17762e+06
1.14419e+06
1.10844e+06
1.06865e+06
1.02852e+06
984481
935388
886110
840506
794579
752879
711532
666042
616700
567928
532212
528552
568013
671623
829121
827677
214732
340324
1.6909e+06
2.01261e+06
1.73545e+06
1.42096e+06
1.24136e+06
1.21286e+06
1.24291e+06
1.25863e+06
1.25971e+06
1.26213e+06
1.29026e+06
1.36104e+06
1.48272e+06
1.63272e+06
1.7471e+06
1.75685e+06
1.62779e+06
1.42404e+06
1.22053e+06
1.07852e+06
1.01571e+06
1.00529e+06
1.00382e+06
984582
925780
836990
759277
711681
675850
549358
248191
280432
783456
784941
792015
836136
876463
907622
930774
941722
942825
934716
923401
904873
891981
890680
905986
937786
980427
1.02347e+06
1.06922e+06
1.1184e+06
1.14957e+06
1.12867e+06
1.05019e+06
943912
836353
749554
682808
657333
692625
665957
191465
214864
943195
897330
802012
754570
735985
759217
827682
909549
956809
956485
947469
963884
1.02948e+06
1.1224e+06
1.22648e+06
1.30545e+06
1.30206e+06
1.16438e+06
956098
783607
782067
1.01858e+06
1.38958e+06
1.66738e+06
1.73923e+06
1.5429e+06
1.10939e+06
723699
550026
469664
45491.1
49001.3
532360
705048
751397
818273
890097
975038
1.06721e+06
1.18081e+06
1.27286e+06
1.3448e+06
1.37726e+06
1.36677e+06
1.3203e+06
1.2307e+06
1.12917e+06
1.03427e+06
967530
920983
881425
847076
811255
763365
695145
623160
553344
494035
444179
400685
361566
314620
10706
10033.1
218616
320787
356437
409563
497215
608577
729637
842175
927237
991578
1.03805e+06
1.07213e+06
1.07731e+06
1.06478e+06
1.05017e+06
1.1005e+06
1.25584e+06
1.47702e+06
1.70457e+06
1.86999e+06
1.97573e+06
1.93047e+06
1.7884e+06
1.59207e+06
1.41313e+06
1.2472e+06
1.07284e+06
880847
691392
491536
11887.3
9849.32
312390
446084
509728
627661
804792
976251
1.07186e+06
1.03952e+06
881466
701642
551317
526636
623691
743913
836722
902797
920879
887711
811560
708804
612289
541297
500125
482438
482083
495717
522918
573218
653823
637539
11742.7
6072.65
348176
532446
597956
678455
762393
832854
875792
882509
848886
811480
826046
908758
1.04723e+06
1.17668e+06
1.24647e+06
1.24184e+06
1.1882e+06
1.1041e+06
1.02858e+06
958348
897994
837076
779812
732447
698607
687811
696575
734522
834247
872244
6123.81
4211.62
507220
806026
968278
1.08625e+06
1.18817e+06
1.24774e+06
1.26947e+06
1.32881e+06
1.4166e+06
1.52615e+06
1.57074e+06
1.52674e+06
1.40362e+06
1.28636e+06
1.19905e+06
1.13692e+06
1.06743e+06
973863
874965
767436
671984
642332
629060
618848
664827
734589
777688
801716
864798
803133
1887.47
981.479
50725.3
299405
304278
306971
300274
287708
288195
312713
360607
422066
477543
575538
748008
851049
751634
728458
756033
793690
818584
827891
852572
873467
875505
858285
830656
802032
785664
776990
775812
773738
765828
749074
721357
683766
638847
596257
565744
545555
540931
542495
558916
576445
616965
676426
747340
783656
757874
719964
669388
631079
641641
664549
687212
697836
691417
669569
637254
604362
580978
570483
571294
584465
607916
637123
657362
655161
616484
566463
528864
531779
545732
554569
557901
560798
566997
597153
661080
768179
889212
967359
992802
929729
974559
1.10786e+06
1.32485e+06
1.54139e+06
1.68716e+06
1.74494e+06
1.73618e+06
1.68014e+06
1.59488e+06
1.50265e+06
1.41943e+06
1.35019e+06
1.29091e+06
1.23791e+06
1.18025e+06
1.11368e+06
1.04092e+06
965943
895341
832055
776274
729632
691838
662931
639989
647247
707843
814599
998665
1.17726e+06
1.2339e+06
1.13617e+06
1.14526e+06
1.18879e+06
1.23839e+06
1.27626e+06
1.29969e+06
1.30547e+06
1.3003e+06
1.285e+06
1.26281e+06
1.24082e+06
1.2205e+06
1.20128e+06
1.18218e+06
1.16651e+06
1.15382e+06
1.1453e+06
1.13461e+06
1.12553e+06
1.10999e+06
1.0804e+06
1.03521e+06
979896
920754
852947
785793
819859
963136
1.13058e+06
1.19706e+06
1.8013e+06
2.40662e+06
2.27479e+06
1.85573e+06
1.43886e+06
1.17816e+06
1.10834e+06
1.13837e+06
1.17657e+06
1.19962e+06
1.21291e+06
1.2422e+06
1.30994e+06
1.43309e+06
1.60555e+06
1.77447e+06
1.87629e+06
1.8485e+06
1.70817e+06
1.50288e+06
1.31418e+06
1.1953e+06
1.14246e+06
1.10302e+06
1.05037e+06
977655
893323
825196
779488
740967
701776
727803
765297
805166
808369
844872
881440
903095
918601
924621
917510
900889
876794
855329
835683
829153
834333
857161
896106
938849
973935
1.01046e+06
1.05511e+06
1.09845e+06
1.107e+06
1.06148e+06
985707
899990
809287
714704
643884
659409
740520
727779
762109
849246
827747
844936
852379
861022
884911
927467
975963
1.00075e+06
998753
996910
1.02633e+06
1.09616e+06
1.1824e+06
1.26607e+06
1.3123e+06
1.26466e+06
1.08884e+06
861274
692153
697664
920518
1.28243e+06
1.58015e+06
1.67416e+06
1.5411e+06
1.1686e+06
782412
552799
530781
348531
385819
684428
739381
793297
863233
941049
1.031e+06
1.1384e+06
1.23962e+06
1.32246e+06
1.37654e+06
1.38735e+06
1.34931e+06
1.27059e+06
1.15819e+06
1.0432e+06
960790
912762
886006
869262
866780
862953
837206
773533
688701
605347
539694
490330
452825
426236
414028
391850
373318
380796
404553
416979