/*--------------------------------*- C++ -*----------------------------------*\
| =========                 |                                                 |
| \\      /  F ield         | OpenFOAM: The Open Source CFD Toolbox           |
|  \\    /   O peration     | Version:  2.1.1                                 |
|   \\  /    A nd           | Web:      www.OpenFOAM.org                      |
|    \\/     M anipulation  |                                                 |
\*---------------------------------------------------------------------------*/
FoamFile
{
    version     2.0;
    format      ascii;
    class       volScalarField;
    location    "0.003500000";
    object      rhoEu;
}
// * * * * * * * * * * * * * * * * * * * * * * * * * * * * * * * * * * * * * //

dimensions      [1 -1 -2 0 0 0 0];

internalField   nonuniform List<scalar> 
12384
(
370416
403226
398798
407684
422047
403376
425366
390843
326048
243365
15585.1
-262152
-458050
-493814
-160696
-75622.3
7976.97
64534.6
103702
128189
146809
145363
152662
118322
107822
103345
67940.1
75311
58178
59178.7
38590.1
49835
61258.2
127300
112958
104276
31257.5
-42326
-119018
-224816
-289404
-370636
-431505
-514762
-123442
-45914.4
-46852.9
-60579.1
-81489.2
-88079.8
-90287.5
-74485.5
-61765.1
-23389.8
-10590.1
53312.9
47272
128469
151890
191358
198134
194129
167770
157078
128105
130709
119143
118636
104922
49899.6
-52709.7
-145564
-196527
-243984
-217441
-228531
-236699
-222982
-206360
-197939
-194444
-195532
-190021
-196896
-188492
-200361
-218382
-215549
-235196
-235988
-240130
-241319
-238892
-238773
-240447
-246940
-254005
-273323
-299815
-312265
-328870
-346398
-344404
-323962
-445190
-409371
-418049
-385575
-384303
-358292
-313743
-303277
-291580
-282245
-299426
-294928
-317556
-319719
-333953
-346372
-362729
-377354
-393184
-403788
-407097
-400682
-384759
-370900
-375869
-396969
-395324
-355524
-398643
-510834
-437604
-418705
-416672
-463511
-511409
-470665
-314630
-228674
-158898
-111258
-77568.4
-51154.3
-15128.8
4400.01
33574.1
58661.9
54013.1
64129.9
37604
20161.2
-21697.3
-53541.8
-94009.5
-112206
-126410
-160472
-308081
-441703
-452111
-468444
-580875
-577592
-566644
-533480
-498324
-427760
-381465
-300165
-302372
-275823
-357207
-383287
-295749
-254608
-248302
-277122
-307313
-309445
-308438
-334694
-364764
-390018
-437414
-495672
-570842
-640912
-694373
-712057
-578151
-432691
-486528
-547632
-539955
-506465
-472811
-431092
-382145
-353432
-296969
-322768
-412141
-483148
-451229
-342962
-275016
-220236
-161764
-125729
-96799.8
-98026.9
-76945.9
-104635
-95449.9
-86508
-90842.1
-69416.8
-45878.9
-26470.3
-30508
-22967.7
118979
93712.2
94487.7
-13787.7
-7124.38
-103809
-103748
-133638
-116744
-93863.6
-73761.3
-61238.6
-41778.3
-38225.6
-35860.6
-35708
-35925.9
-44166.4
-58747.5
-71096
-83915.2
-101294
-126060
-140482
-152900
-171775
-181034
-195452
-208240
-212679
-329118
-277820
-240842
-230053
-208415
-232353
-198911
-202312
-165206
-137960
-144010
-142844
-149526
-149226
-100941
-89730.4
28745.7
92849.3
287211
389915
409943
352854
349818
312040
319845
323054
283677
279243
247835
227785
-159279
-66399.8
-142213
-293141
-336875
-398711
-353386
-364630
-324060
-264898
-258921
-254187
-217507
-253308
-250252
-241938
-261227
-257276
-247523
-257172
-257881
-257356
-261885
-263483
-262175
-257012
-254378
-241905
-233863
-219795
-385021
-348659
-364308
-393944
-432929
-434108
-441977
-434328
-423978
-422246
-416232
-421799
-424323
-440396
-421800
-393505
-354470
-123763
-32326
74673.5
127590
126367
131162
120175
93706.9
89777.6
37433.8
31617.8
18495.7
62699.1
-589204
-535968
-511336
-493431
-477655
-480593
-476716
-470784
-476147
-484070
-478437
-486881
-479237
-258449
-120206
81890.5
74777.9
87703.5
179856
333867
484271
607288
753724
482937
153261
-176818
-320942
-270087
-245716
-202283
453244
417509
434173
427795
433145
431870
437247
436152
400148
360371
179223
-61849.8
-338068
-491937
-71399.7
83720.6
150664
185688
208792
227704
229260
212972
187215
167638
131630
124342
88638.4
97684.6
81592.4
83382.7
74718.8
79538.8
91097.7
143050
147030
132796
65426.4
-24474.5
-116722
-219870
-295259
-359458
-420737
-492220
-120808
-50876.8
-79089.7
-126881
-150931
-165374
-167918
-164000
-149468
-124567
-100277
-44714.5
-4688.56
79793.6
146262
211275
237479
248964
243087
244661
239414
235904
238856
222001
200688
112351
-12430.9
-128967
-174192
-248100
-215672
-210136
-181384
-181250
-194594
-211575
-220199
-219732
-218129
-217739
-219141
-223983
-239356
-244936
-256447
-259944
-261227
-258381
-253579
-249131
-242909
-237559
-238040
-252967
-278252
-296366
-311042
-335905
-348180
-325106
-419912
-418307
-395669
-370119
-329989
-296382
-286266
-230080
-216948
-212019
-214594
-225363
-253940
-259622
-284876
-296524
-318438
-337474
-356593
-374349
-385237
-381558
-365975
-352595
-351425
-377190
-386725
-353633
-362366
-450667
-439320
-398555
-429401
-426202
-335963
-144075
-57399.1
-3601.94
14446.6
38831.9
59975.4
87028
112677
137202
155801
187103
190087
210551
192038
184381
164488
104870
38772.2
-39873.1
-72627.2
-129984
-261173
-419287
-446535
-460891
-476695
-477104
-474090
-467149
-439921
-398791
-349557
-319417
-305891
-346440
-407718
-344848
-306846
-291110
-309357
-302338
-312182
-330451
-321471
-294200
-304970
-324691
-368482
-430896
-529015
-608499
-701710
-692130
-550233
-448787
-471358
-464172
-449949
-417607
-389192
-365434
-344831
-324068
-293215
-316157
-444858
-459088
-404908
-302133
-224930
-168182
-128914
-124390
-140123
-198214
-244867
-242493
-236197
-239526
-254908
-266985
-212178
-117135
-37777.3
-26175.5
123796
102726
109145
-10100.9
1150.83
-95606.1
-77469
-101943
-76636.5
-55821.2
-40043.6
-26243.3
-19883.1
-8747.89
1178.35
16043.8
18701.8
21726.9
16748.6
3365.38
-11394.7
-19544.5
-26505.7
-45339.7
-59970
-68906.5
-96275.1
-120441
-150628
-174619
-334950
-273654
-228707
-196598
-199278
-204779
-183196
-179462
-133705
-105614
-111344
-104656
-115027
-105877
-70887.7
-30166.7
-553.726
115632
185105
291222
275994
265835
321615
374866
437420
502618
473019
398732
296228
219056
-145379
-12597
-80625.9
-173050
-251876
-306512
-252544
-254751
-188107
-149652
-141191
-138900
-129583
-167577
-194843
-202284
-208052
-213474
-238108
-230169
-225684
-223878
-215064
-213036
-207620
-210705
-228051
-230601
-241457
-240226
-354757
-275690
-289928
-329234
-355752
-348700
-338107
-326149
-313625
-294076
-289776
-277020
-268836
-276438
-244204
-231800
-210920
8277.32
25160.4
77394.3
114398
105491
107304
134023
121121
121916
111098
20206
22030.6
70460.8
-543464
-522043
-470705
-448108
-416249
-394180
-405933
-360778
-371376
-367474
-352855
-367726
-326277
-56993
130013
311229
233501
229364
246601
358949
502357
632099
434328
336370
230395
-63344.1
-200471
-269765
-207481
-150934
460872
424938
420568
448836
426600
464462
458202
477233
458279
435972
315588
107013
-198032
-443434
65210
149521
204480
267678
338886
378246
371258
324205
257433
208451
125825
129634
86807
92031.7
77141.5
93401.6
92921.8
116155
122272
185237
174917
170474
89327.4
-15320.9
-112879
-241211
-298973
-366214
-398257
-457604
-122575
-62924.1
-94703.6
-122823
-149430
-171277
-181712
-173229
-155355
-125469
-105457
-65425.7
-44601.8
28868.9
87094.1
163807
205951
239073
248277
264884
287889
305862
319263
323435
265864
160222
-7038.57
-132675
-180636
-264227
-209350
-178553
-182536
-214848
-239417
-234005
-224611
-212322
-206676
-209776
-221903
-228678
-259217
-263024
-286895
-292470
-300475
-297438
-290487
-277886
-259119
-239155
-232170
-240449
-264688
-284383
-300206
-326500
-348046
-326751
-412367
-406564
-377571
-321127
-306932
-285771
-290943
-280432
-232122
-209586
-208285
-213651
-229473
-233393
-250982
-258312
-275849
-289205
-313534
-335252
-348500
-346863
-341831
-334448
-340042
-349141
-351656
-324481
-323784
-400339
-433734
-400514
-367781
-219216
-24816.6
12411
33725.9
15644.6
32616.1
42766.1
55340.8
52409.5
41055.2
30254.8
15662.3
40735.4
63522.5
122467
155381
189138
174280
162374
89210.3
5385.54
-64898.7
-118546
-241667
-407869
-445090
-460713
-416928
-419736
-423282
-415534
-403585
-368403
-340142
-337025
-381956
-412455
-382315
-345899
-330870
-336681
-326461
-343255
-335634
-308843
-282788
-285970
-299587
-305576
-309166
-376364
-467831
-588770
-666869
-666137
-584885
-499526
-384861
-389122
-371240
-365581
-344840
-317264
-327813
-309099
-312730
-332147
-471737
-476251
-368318
-272025
-189145
-158000
-173703
-248366
-276673
-245651
-212666
-190361
-172291
-154832
-164728
-190357
-290871
-313789
-194822
-14308.6
120208
101995
114170
4849.31
17680.2
-86438
-61697.5
-81902.3
-62362.2
-53349.9
-51379.7
-59464
-89350.1
-121880
-141420
-159321
-171392
-182424
-186442
-186633
-178419
-164712
-139850
-105653
-83239.8
-64548.1
-46968
-55764.1
-75827.4
-113063
-335550
-277686
-227136
-171912
-174418
-166578
-152998
-146179
-106641
-84521.7
-90483.3
-90588.1
-95891
-92013
-69158
-102450
-73438.2
-53960.4
34945.4
69857.4
107918
112241
115732
131707
134393
309429
485072
576639
475988
356129
-139711
-24914.6
18288.4
-97457.4
-112509
-201796
-156554
-161593
-136837
-119433
-112418
-89048.7
-107972
-100333
-121433
-110536
-120782
-130856
-122606
-141092
-142655
-169384
-175058
-155445
-146175
-132062
-138232
-168758
-204442
-217767
-312587
-191255
-203423
-230705
-278382
-241344
-258422
-227589
-230832
-210100
-192115
-181348
-158279
-158014
-126649
-113549
-27290
96125.1
218592
285124
252081
232269
198618
220635
209689
216120
165581
117379
81018.5
113034
-453307
-462991
-400219
-357025
-324367
-295893
-277679
-265490
-255625
-228770
-234770
-205752
-64811.4
381395
670445
721660
657483
610718
584420
647876
705959
564424
452325
422631
251927
227862
48316.4
-134956
-147465
-109031
370414
343854
319802
337974
336218
390233
395534
462684
465770
493025
419976
268731
-17990.9
-367372
142979
171554
251631
375565
489385
532319
520439
456021
347754
249013
160741
123739
73475.9
83688.2
69029.9
90867.9
107316
146683
170243
228244
211133
185645
93920
-27037.4
-123182
-257112
-318886
-363423
-389100
-434716
-124212
-82827.3
-91296.1
-119627
-159523
-189942
-190206
-170972
-128104
-84828.7
-54035.4
-24334.8
-23545.7
12396.7
48672.2
98298.4
141423
171768
201906
243567
285196
323642
355632
349871
313635
180339
10479.6
-134852
-174716
-252311
-197526
-175970
-231520
-248923
-218391
-193607
-191843
-200396
-219097
-232959
-253520
-273402
-301554
-314153
-337491
-343284
-349796
-346433
-333971
-309997
-274321
-242666
-232317
-236875
-257681
-278891
-292789
-321109
-347419
-329387
-401375
-370432
-317505
-306717
-308189
-333638
-312326
-313405
-282015
-228901
-202007
-214383
-220032
-231526
-231277
-234502
-238518
-264102
-288607
-316797
-333009
-327326
-309129
-299763
-312028
-331546
-331569
-297241
-267437
-306978
-452289
-371480
-221939
-4665.23
48046.5
23826.4
-6402.93
-34586.8
-53539.8
-82525.4
-139069
-207750
-256662
-283089
-289683
-275658
-244210
-174375
-64747.9
37996.2
114501
117175
90382.5
-8075.07
-75369.2
-152199
-260284
-417824
-447820
-445925
-432274
-434118
-425516
-412960
-388592
-363806
-353571
-395759
-431805
-407848
-367560
-371968
-371130
-367544
-352735
-308864
-267225
-288816
-312032
-324407
-313453
-299110
-287087
-330620
-431795
-541804
-649859
-659663
-594469
-568069
-321550
-330499
-356994
-337950
-335541
-329232
-314025
-305700
-309262
-387812
-486144
-484050
-359142
-271158
-206004
-220968
-274393
-272884
-206310
-182628
-183822
-175723
-169186
-128111
-98745.3
-96346.1
-140493
-250212
-320709
-65788.4
98437.1
90765.8
106033
20836
28586.5
-71365
-53621.7
-77582.7
-75752.1
-87613.8
-119857
-170054
-230856
-263136
-285679
-305731
-318347
-328516
-337309
-341267
-344090
-350226
-348436
-347918
-332219
-281798
-187058
-92736.2
-50931.8
-68509.9
-318295
-268469
-215857
-159655
-162094
-126854
-138257
-102749
-93173.5
-85606.9
-95801.8
-118116
-130174
-141647
-151889
-130614
-102315
-35796.3
-4942.24
83579.5
64951.1
104394
115898
122845
179785
220343
237129
423392
605828
513891
-116357
5781.19
62717.7
-17573.2
-23455.1
-141751
-85638.8
-159999
-153806
-142593
-116755
-98878.6
-96076.2
-111226
-124154
-127518
-156830
-172177
-137614
-99774.8
-103498
-82537.5
-88360.9
-97517.9
-90917.7
-84117.4
-81573.2
-106180
-152395
-167916
-228989
-156028
-118488
-177671
-217242
-174525
-205098
-180130
-184726
-160791
-143008
-127877
-95892.5
-85149.8
-80904.9
-91213.5
28202.2
-43471.5
202965
297457
350677
325705
293232
283366
276753
218900
229993
186163
164062
201830
-369374
-369694
-308729
-275534
-251672
-244753
-229449
-223478
-207123
-218473
-157404
-22027.9
139400
714992
968907
1.04327e+06
1.02441e+06
972550
962226
911795
726683
573970
441174
303659
321263
380848
333869
157651
-83221.8
-38522.9
285224
258034
229074
235808
273362
291978
362150
382718
461575
484475
500536
407394
140646
-265334
166897
178961
274003
433182
542594
553644
505831
419438
330536
254729
152163
112610
65577.8
71667.7
59267.7
94879.8
116811
188153
220984
272186
238026
185101
81036
-43745.5
-147364
-257762
-315285
-359013
-376918
-418613
-128332
-108125
-123526
-171795
-215048
-221914
-201422
-157578
-102497
-34114.9
-566.208
32201.2
8062.28
30742.8
33739.5
65628.1
87678.5
124776
174437
223820
277425
322651
352395
351338
299850
164582
-29085.6
-156284
-206457
-287395
-179154
-214903
-242631
-184593
-175409
-187424
-212026
-245030
-269096
-292357
-307753
-331156
-338814
-361587
-368604
-380511
-378358
-365952
-336343
-296531
-258080
-233237
-231506
-236765
-259840
-279130
-288761
-318709
-346555
-320309
-395113
-319073
-287883
-323573
-343313
-337246
-335026
-307750
-296014
-251407
-209410
-188482
-203003
-210975
-215121
-218962
-239270
-250461
-279343
-294826
-291702
-281734
-273540
-275178
-283948
-291050
-285398
-258108
-233179
-248323
-429825
-304913
-76339.3
51169.6
41915.1
-40121
-101278
-157991
-214079
-287893
-346484
-379174
-377820
-375227
-370123
-365119
-356197
-320453
-234096
-100747
14346.3
59947.5
20241.6
-48839.7
-123098
-174410
-314078
-426001
-435196
-449689
-465438
-463316
-453548
-425607
-392092
-370016
-391701
-440519
-435410
-404836
-407584
-402557
-388742
-344693
-293467
-266346
-262906
-245167
-246480
-264303
-295694
-304172
-303982
-304117
-391681
-499576
-604015
-646089
-633220
-620768
-240659
-304427
-331483
-338682
-298721
-309002
-314665
-311780
-329523
-438205
-525237
-499913
-358111
-275204
-240676
-278353
-280352
-228406
-207782
-230406
-251129
-239085
-217409
-155011
-101626
-71006.3
-78280.5
-135219
-281770
-162971
78387
56438.1
89754.7
24369
39089.4
-62299.6
-49921.7
-95330.5
-120461
-167088
-227497
-263849
-296260
-317917
-329638
-344316
-359557
-368260
-368171
-370815
-369966
-370107
-371278
-372031
-374520
-375433
-367839
-306005
-120592
-50252.5
-293733
-251136
-221006
-167125
-160424
-130721
-109824
-91543.7
-67862.8
-99555
-118150
-155316
-176275
-167201
-151894
-113548
-65231.1
-36079.6
5293.26
-57547.8
-19522
-33754.7
30456.5
113518
130539
205651
270760
325170
494636
613682
-40366.5
-14253
87297.4
62040
-6324.89
-98737.5
-113662
-108219
-101463
-91059.3
-85062.8
-77845.1
-79272
-65846
-86332.1
-84126.5
-88376
-97103.4
-114054
-138932
-166353
-114095
-79627.7
-78669.7
-75130.4
-63513.7
-69875.7
-75895.2
-101785
-126770
-185082
-78805.4
-110216
-136167
-141789
-152436
-132396
-108917
-84832.2
-66196
-67590.5
-30928.4
-51397.6
-21397.5
-24871.1
-33546.7
79892.8
40519.8
175937
253400
221438
286573
310592
279175
287142
235658
250601
224292
236708
248780
-260355
-264248
-224144
-202399
-165711
-152916
-161811
-138365
-143491
-73918.4
-161971
194457
464267
837781
958681
1.0979e+06
1.07703e+06
1.05678e+06
946996
818310
639136
567705
563719
513208
390449
345848
290821
260071
57981.5
-34669.8
255213
197601
189653
220078
212997
262799
295717
369587
413432
494870
525450
495671
283626
-167615
154900
170952
288602
458882
537913
485252
377281
308814
270337
192406
121827
95938.5
59866.1
62339.2
63898.6
101618
165193
222741
286378
277746
242658
135163
38581.1
-85055.7
-152052
-248392
-289145
-341655
-368439
-398812
-131815
-135715
-195354
-249376
-256105
-238025
-207420
-170674
-116334
-46857.8
13247.4
34306.1
30069.5
45126.1
52726.3
80353.8
108585
161692
193205
242370
280979
307096
325130
317814
252668
105533
-63454.7
-164184
-215344
-294420
-189217
-228161
-188083
-153531
-174154
-220083
-257630
-300617
-316388
-335773
-347297
-361140
-370298
-390498
-386418
-386164
-348805
-307526
-272754
-256064
-236901
-234812
-233678
-247613
-268516
-275056
-286711
-329052
-342648
-322635
-370830
-286898
-299344
-341234
-345272
-343975
-334378
-324492
-299246
-270988
-222250
-181631
-164878
-177302
-192842
-214979
-225816
-252268
-266666
-268184
-261557
-255884
-263256
-274124
-283433
-291057
-276948
-256170
-237896
-219813
-424361
-221706
-8234.32
60220.9
-25920.2
-107776
-202841
-262433
-333808
-372440
-391661
-386854
-365662
-362483
-356833
-370323
-365078
-357500
-283281
-145169
-39844.8
-22512
-67402.6
-130496
-165504
-242972
-363321
-428280
-434044
-444664
-470657
-470673
-462464
-425127
-396362
-397876
-435721
-462713
-436857
-438888
-436620
-429860
-371291
-314260
-256514
-210013
-171865
-172645
-198096
-241141
-275089
-305336
-305887
-302137
-359511
-449319
-542689
-606248
-640063
-650037
-160337
-241172
-305935
-287939
-290740
-291266
-345180
-341535
-376078
-472530
-573376
-536643
-415833
-332401
-310333
-328535
-260892
-230672
-242848
-281679
-306890
-304640
-264901
-198036
-122812
-77474.4
-63062.1
-80769.1
-223362
-269294
40978.5
7420.19
57711.1
40107.8
37404.6
-55800.5
-67167.5
-133494
-199359
-246444
-283872
-313689
-339247
-359510
-385603
-409995
-417424
-410696
-396993
-384811
-372351
-366910
-362209
-364166
-367896
-372191
-382451
-385259
-271364
-46481.6
-251742
-227410
-198802
-181902
-170677
-145291
-110235
-77066
-76956.2
-92562.1
-150133
-189594
-188959
-146520
-122108
-93835
-55416.3
-65108.7
-102520
-74035.5
-58130.6
27249.1
17182.7
8661.7
192736
151828
249584
327338
341552
616305
25074.9
66316.3
145447
39492.5
26289.2
-35887.8
-8404.13
-76748.9
-44224.3
-109263
-71395
-92599.6
-66490
-78653.7
-73313.5
-66335.3
-78024.3
-75226.3
-82386.5
-78241.9
-97112.7
-126786
-166922
-114042
-87915.8
-72920.8
-64886.8
-70140.4
-70040
-74978.7
-118053
-68721.6
-84308.6
-57166.8
-77371.3
-43694.8
-69515.7
-36856
-53493.1
-36711.5
-30614.9
-32851.3
-36299.8
-13543.7
5408.76
-9339.4
52569.3
71914.7
165493
304541
304958
264597
257855
243685
251731
242847
248709
240716
254522
286484
-205876
-183183
-121521
-84392.6
-59036
-59827
-65274.3
-76124.3
-106479
-27698.3
-52494
98156.6
544294
817309
983416
1.00231e+06
948981
787438
681652
605281
503044
501937
491100
464797
452072
465914
448786
413469
477870
338749
229498
197096
195042
200586
198628
224410
246499
301572
397294
449012
492220
520163
405822
-19888.7
134948
169394
309877
482322
488818
374909
282604
243605
195336
139682
99726.4
70562.2
56674.6
58977.6
85884.1
147985
213134
286782
287340
242942
133539
12875
-65716.6
-126974
-168023
-232415
-286003
-321810
-328786
-368116
-141654
-205313
-278032
-281375
-265635
-249057
-239026
-221239
-182792
-115824
-36150.5
3784.35
56054.6
50549.2
93036.4
106775
132899
137939
155097
169860
196118
227448
242198
226386
153961
31352.6
-104346
-187057
-239467
-297403
-179909
-184945
-121921
-148146
-197253
-258417
-290950
-306707
-314044
-336251
-345585
-367884
-374505
-364912
-334007
-304226
-269421
-256715
-253488
-246938
-242198
-246525
-247023
-264477
-271619
-274009
-301982
-327322
-330191
-293823
-345727
-284004
-320131
-328929
-335203
-344327
-349276
-344807
-333567
-312049
-261364
-229300
-184037
-177522
-194635
-208659
-232638
-250294
-256945
-270296
-286487
-302503
-315838
-332466
-335264
-326036
-315296
-291688
-268871
-239258
-373582
-137618
46027.8
22498.3
-75286
-165844
-251545
-314222
-343800
-365669
-362034
-341038
-325981
-321228
-331358
-345465
-351796
-348209
-278957
-121907
-79131.5
-111107
-155862
-181855
-219869
-295981
-391320
-425886
-425481
-436815
-453963
-460069
-454444
-424492
-410356
-435706
-465718
-465622
-455263
-469492
-460260
-413098
-335039
-260866
-199682
-154209
-138914
-137352
-153053
-200093
-267498
-311084
-325395
-323683
-352571
-404840
-480981
-557407
-617955
-626436
-95708.7
-236601
-314428
-299973
-289456
-335944
-370233
-374157
-394531
-490802
-600986
-583139
-458589
-382405
-355637
-315243
-255850
-237152
-262905
-305668
-328866
-339311
-327546
-247413
-175320
-105913
-95818.1
-72787.9
-165892
-300929
-14299.7
-55683.3
25280.1
35643.2
39654.4
-62706.7
-101997
-197291
-254202
-292173
-318188
-350666
-385710
-419449
-449954
-459705
-452195
-432807
-410116
-390172
-362820
-345949
-326974
-318938
-319833
-341162
-359736
-372822
-368096
-113913
-219896
-213392
-231055
-229588
-206255
-171780
-134937
-97311.6
-93447.9
-100309
-152804
-185044
-167045
-127831
-96860.5
-85032
-92292.3
-67163.6
-15931.5
-48593.1
-42300.8
-77228.7
9177.93
18534.5
128706
212432
247932
252602
320227
419024
64701.5
106390
137522
86682.6
33566.7
10410.4
32441.8
-39952
-27822.1
-100881
-52960.4
-43487.6
-67023.3
-52952.9
-41684.8
-65021.4
-55766.1
-73739.3
-65121.7
-82141
-72487.5
-80129.6
-89651.9
-139898
-163019
-121274
-91791
-77867.5
-74750.4
-64485
-100138
-41284.8
-7259.75
-26581.1
11240.4
-40192
-4700.78
-51126.9
-15076.8
-30702.3
-27124.9
-48474.2
-5481.24
-7966.98
44470.6
2756.08
69188.4
12443.4
165285
208330
353116
348027
298960
235018
179400
188899
222522
219458
249733
299284
-138116
-127314
-13074.6
30659.4
10999.3
-998.472
-36594.2
-46234.1
-56570.6
20468.8
-34335.3
299682
259784
632777
857433
870277
762277
635874
537200
410894
395625
396598
408951
407755
380508
373932
413671
553366
514478
802883
246398
182745
190173
186288
175293
211377
205341
284134
308517
315128
349438
449885
421632
73329
124798
190824
341878
469754
431018
313331
249173
190584
158032
122549
83188.9
64531.4
63054.2
90694.7
147160
212371
276942
267610
192654
56617.3
-44092.9
-118910
-121779
-153609
-183390
-267986
-291719
-293136
-280831
-292222
-184497
-284053
-298080
-279706
-271108
-266300
-260423
-253952
-236820
-199473
-137951
-84850.1
-42158
-32576.7
-8981.56
-11012.4
-46111.4
-48668.4
-54139.2
-30930
11918.5
58853.5
98517.7
108564
75402.6
-19831.4
-130140
-199165
-228080
-254564
-165652
-148900
-110339
-153462
-218476
-260891
-280140
-286705
-286789
-304004
-314646
-318817
-293523
-278638
-259341
-252787
-251309
-258554
-257157
-258836
-258795
-262657
-266591
-274958
-272258
-290331
-315424
-337289
-318496
-295853
-323983
-272086
-292605
-291808
-312139
-333333
-351089
-362288
-366365
-362520
-340658
-309072
-281206
-257183
-255970
-278047
-305804
-326753
-358754
-378372
-386608
-388125
-384734
-375145
-369918
-359806
-349041
-338737
-299466
-242913
-319851
-51208.5
69940.7
6140.91
-95400.6
-180150
-254519
-307472
-337050
-347136
-339052
-319678
-304187
-304226
-313813
-322218
-309973
-294255
-208023
-104334
-108560
-166223
-192551
-223017
-267016
-340882
-395191
-412977
-417393
-414184
-426840
-447427
-446067
-429064
-438646
-474782
-482853
-487445
-485661
-492427
-449666
-378411
-281959
-219033
-158099
-131627
-111271
-103329
-122698
-177141
-261966
-327073
-341288
-332078
-346243
-383622
-434847
-494698
-517283
-478312
-189255
-356887
-363943
-310733
-337399
-371173
-388101
-372260
-407122
-519591
-626131
-621792
-523761
-434611
-371486
-306846
-255755
-239222
-264737
-288089
-321951
-352852
-368001
-313580
-225732
-146185
-166449
-103682
-155566
-307704
-72427.6
-131653
-3788.7
31525.5
12566.4
-69157.9
-164171
-252548
-294001
-334494
-358390
-394717
-431464
-470362
-490045
-485924
-473476
-459529
-438377
-415574
-378833
-347931
-306302
-276384
-262413
-264965
-286422
-329761
-352342
-295436
-173889
-210914
-232600
-230171
-207663
-218845
-193834
-140205
-89448.4
-112062
-138165
-164873
-127222
-118654
-115779
-86993.3
-39770.5
-22586.2
-60847
-40391.8
-41191.6
-60773.8
21002.8
-32787.4
131534
172959
256645
277875
233085
198300
117899
155215
143740
69735.5
87712
8016
93068
-40948.8
24265.4
-89651.6
-14259.5
-63120.8
-60770
-34084.2
-55795.6
-34153.7
-56500.3
-33106.1
-44140.8
-44638.5
-70405.1
-67437.5
-76135.4
-79820.5
-112223
-149817
-162126
-111108
-66328.1
2497.71
-89097.3
-13172.8
17281.4
36411.6
-10770.1
8997.3
-34033.3
25.7778
-42392.8
-27488.5
-6909.9
-35567
8967.08
18180.4
34711.3
48442.3
38546.4
60038.8
104262
132022
287748
354530
360425
311613
257311
196933
187302
179639
251262
354703
-99827.1
-81968.9
-35166
39138.7
74116.3
51839.2
54234.6
27798.9
70231.3
32499.3
124026
207061
342254
315633
624895
722511
633730
602412
479309
394797
374137
351612
331459
336527
353665
373229
511315
443296
646154
880008
222558
202146
187311
182924
179121
175014
232061
204072
148500
132210
181926
331877
301970
123169
120106
120995
190210
251805
358208
436875
393173
305558
226189
173873
145323
105712
83037.6
87442.3
116601
170163
221740
252897
187968
79672.5
-58328.7
-141313
-160990
-154798
-141421
-187860
-254262
-290830
-279277
-278222
-266945
-280535
-280728
-271097
-256647
-296532
-282169
-267736
-259303
-256714
-256509
-255788
-249845
-240596
-207340
-166734
-149411
-125410
-145607
-165441
-176314
-181615
-178634
-176803
-146794
-77510.9
-21660.6
10279.9
-19107.1
-94787.6
-181967
-224830
-213443
-192307
-183269
-192141
-134649
-92254.8
-94233.6
-157473
-199832
-246382
-265088
-257024
-258273
-264767
-256639
-254592
-246065
-249063
-241855
-255296
-261064
-266381
-271558
-272985
-275449
-276323
-279548
-281793
-292063
-304365
-320470
-300929
-268247
-249084
-267700
-284606
-272726
-243515
-245902
-253707
-279467
-308851
-340314
-363216
-378421
-389638
-395245
-387123
-387172
-373449
-376528
-390545
-391777
-400935
-393968
-373624
-351481
-335936
-338555
-347023
-356081
-355986
-348267
-326497
-314227
-268732
-269371
-252511
-227689
19675.4
85296.2
2426.95
-71710
-154672
-216110
-283786
-316503
-332500
-326919
-310526
-292025
-290532
-298321
-300559
-264614
-206462
-139077
-83515.8
-118134
-172408
-215807
-244815
-291794
-342225
-370228
-402480
-406486
-404660
-401990
-403789
-415578
-444259
-447004
-449092
-472109
-503619
-501392
-513617
-505232
-496858
-413200
-324631
-240113
-184717
-136764
-107688
-82749.2
-76284.3
-97058.8
-154410
-255022
-339945
-349371
-331431
-350446
-364121
-388716
-396831
-373233
-332371
-316544
-315173
-411954
-455996
-371039
-342551
-348568
-373783
-372409
-376129
-415472
-541662
-640144
-647812
-558735
-466815
-376532
-299329
-253931
-239927
-241515
-258437
-293303
-349171
-381895
-364650
-280119
-193698
-229472
-187717
-146328
-252016
-248499
-226317
-163189
-200058
-61330.3
9626.85
7767.48
-114190
-207362
-264720
-306159
-329922
-364936
-429117
-478677
-517642
-521726
-512873
-501591
-496908
-484248
-462893
-422182
-374196
-319707
-273196
-222904
-191610
-199333
-231989
-270203
-333827
-336567
-214216
-93922.2
-108754
-170728
-192360
-180752
-165566
-173079
-155850
-113614
-99034
-143422
-138473
-118542
-72606.3
-80443.1
-39841
-20150.8
3813.75
1910.98
25846.1
47475
31280.1
86775.4
62606.1
179445
181426
245198
271012
233340
194807
370965
433638
253741
163592
194218
128580
118009
34652.2
95722.4
-28255.9
51954.1
-59076.9
11987.9
-70388.5
-37340.2
-50725.7
-25259.2
-53215.6
-25415.3
-26251.5
-2657.52
-11544.4
-15492.5
-48012.8
-57337.9
-78512.8
-75402.5
-107246
-134032
-175196
-103531
3465.45
160115
-53434.9
-81525.7
-38135.1
42298.8
15030.3
26772.7
-17840.8
-2190.38
-40540.6
-19683.6
-25563.8
-32535
34660.2
12341.1
22118.4
53830.3
39809.5
58449.5
54786.3
64114.9
116048
180504
304603
362044
348708
316137
260716
212905
202918
191358
327375
72460.7
64626.9
76068.3
94204.4
137458
87620.7
69438.9
108925
118473
94165.1
118495
115043
214130
165650
164571
367627
342989
571752
655788
530082
504781
433772
328072
316422
308008
312404
349094
371385
423016
553098
601340
723410
556270
1.84181e+06
261153
200653
203714
186188
210683
190788
200667
144501
26886.5
52590.9
73505.3
224592
313816
196530
174821
166973
199298
247181
338296
399068
386139
316434
267433
218472
156810
125360
133038
164735
204536
218500
197154
77699.4
-59118.8
-173114
-227634
-229110
-195413
-172798
-180447
-235738
-268852
-288119
-298687
-311480
-296429
-297652
-290373
-281580
-271905
-263783
-243336
-232986
-233106
-238236
-243241
-245779
-241305
-238180
-216173
-199387
-215793
-198128
-217834
-196953
-182520
-173421
-185253
-185534
-195163
-156683
-104964
-72052.9
-88041
-147329
-204482
-205967
-190503
-179576
-162562
-135099
-93493
-88051.5
-119255
-146466
-187608
-221229
-245187
-250644
-243511
-241426
-233399
-253747
-244949
-253713
-260360
-271308
-276225
-282906
-285360
-286889
-287315
-290632
-292422
-297499
-300519
-310972
-296854
-272711
-247620
-242464
-241654
-233228
-199787
-188272
-189461
-217135
-246925
-285148
-325953
-361346
-388858
-411609
-433653
-450544
-451526
-447618
-437225
-412199
-388518
-347638
-301561
-267218
-260685
-276687
-302383
-325998
-349372
-371949
-378008
-351795
-317172
-282701
-229209
-197817
-121913
86551.3
100960
32477.8
-23715.2
-90248.6
-160296
-230056
-283763
-317354
-323397
-308818
-289021
-280049
-284944
-284405
-237539
-152382
-107978
-102934
-124885
-154325
-179459
-222559
-270741
-310446
-352727
-387649
-396109
-403850
-418967
-441119
-455711
-461699
-461920
-482502
-504713
-529855
-524463
-539346
-519932
-472934
-368304
-284522
-212831
-171413
-127437
-89209.8
-55850.9
-50635.3
-71864.7
-132248
-237955
-343757
-378780
-377402
-387599
-398322
-382000
-379117
-398278
-463945
-517207
-527158
-569817
-502605
-431084
-364948
-352336
-350634
-365444
-378907
-449099
-572995
-649373
-649220
-566534
-468771
-387540
-299160
-252913
-235280
-235177
-239539
-268487
-342526
-382346
-391160
-338843
-224444
-266607
-277393
-211783
-209727
-229904
-236796
-257027
-278313
-120578
-16874.2
-46555.5
-164969
-261558
-323053
-355739
-357314
-398216
-436477
-501816
-523031
-528995
-521637
-516542
-509397
-506548
-496609
-454014
-396957
-329200
-264551
-207338
-172056
-137960
-121349
-166649
-238592
-300333
-320645
-278274
-106018
-92200.2
-133763
-175384
-148266
-136978
-156208
-160287
-131362
-117560
-95902.5
-48126.9
-30803.4
4301.73
11144.2
62153.3
58684.6
98610.7
83852
174063
108607
211328
191617
249418