/*--------------------------------*- C++ -*----------------------------------*\
| =========                 |                                                 |
| \\      /  F ield         | OpenFOAM: The Open Source CFD Toolbox           |
|  \\    /   O peration     | Version:  2.1.1                                 |
|   \\  /    A nd           | Web:      www.OpenFOAM.org                      |
|    \\/     M anipulation  |                                                 |
\*---------------------------------------------------------------------------*/
FoamFile
{
    version     2.0;
    format      ascii;
    class       volScalarField;
    location    "0.003500000";
    object      T;
}
// * * * * * * * * * * * * * * * * * * * * * * * * * * * * * * * * * * * * * //

dimensions      [0 0 0 1 0 0 0];

internalField   nonuniform List<scalar> 
12384
(
2667.92
2687.1
2660.85
2700.41
2651.83
2632.29
2606.65
2552.73
2516.18
2529.58
2524.61
2571.52
2566.33
2544.24
2390.91
2454.72
2561.37
2649.46
2710.16
2743.31
2761.78
2776.92
2779.71
2767.63
2753.9
2763.68
2722.2
2733.15
2712.1
2709.26
2681.41
2677.85
2652.21
2663.56
2573.59
2522.07
2427.15
2367.42
2330
2315
2390.3
2506.56
2571.11
2525.63
2770.77
2833.55
2795.64
2760.66
2729.95
2723.46
2721.85
2738.76
2754.05
2789.12
2802.04
2859.78
2866.66
2947.55
2969.57
3030.11
3036.13
3032.56
3022.89
3020.54
3010.36
3017.61
3015.48
3023.23
3025.86
3008.3
2914.04
2656.48
2455.02
2527.87
2864.53
2853.61
2845.61
2855.67
2870.37
2882.87
2872.91
2849.15
2822.43
2786.94
2778.6
2746.86
2693.57
2693.89
2608.9
2634.05
2571.94
2596.13
2586.5
2605.16
2609.74
2620.08
2662.4
2736.79
2760.48
2736.23
2699.8
2680.81
2588.78
2513.86
2535.97
2662.41
2642.21
2704.92
2698.65
2729.77
2780.47
2799.92
2809.91
2816.74
2781.75
2772.59
2730.04
2726.87
2689.65
2694.26
2670.53
2669.43
2651.91
2650.91
2648.1
2655.97
2638.85
2623.49
2616.32
2609.15
2565.73
2432.11
2404.74
2453.77
2473.92
2560.25
2646.27
2674.25
2641.95
2633.31
2774.59
2841.76
2882.19
2907.15
2910.97
2909.85
2920.25
2909.99
2916.64
2909.53
2894.93
2894.69
2843.65
2850.57
2810.17
2824.57
2798.27
2809.22
2821.62
2708.58
2352.12
2143.15
2208.69
2276.89
2260.98
2264.77
2343.64
2454.96
2574.43
2619.42
2545.83
2553.84
2452.83
2515.24
2609.95
2644.95
2361.01
2325.45
2343.62
2366.47
2389.56
2413.94
2435.32
2417.14
2335.31
2269.95
2162.56
2059.19
1931.81
1922.39
1834.18
1844.86
1986.24
2091.52
2240.77
2197.38
2253.78
2327.54
2390.23
2479.61
2579.43
2615.79
2675.87
2553.92
2319.5
2053.92
1851.5
1990.59
2034.35
2069.75
2128.2
2163.67
2195.54
2192.74
2295.4
2284.21
2425.34
2388.44
2415.66
2381.27
2378.4
2390.82
2426.48
2490.18
2532.04
2446.18
2416.98
2320.89
2352.07
2334.05
2403.17
2449.88
2487.23
2497.79
2475.34
2471.3
2422.96
2409.75
2399.66
2399.93
2403.37
2419.12
2431.88
2444.48
2461.2
2482.92
2506.87
2543.87
2583.53
2621.11
2663.9
2698.26
2723.31
2731.1
2316.68
2306.83
2305.34
2288.29
2328.02
2375.35
2489.79
2514.12
2569.71
2622.92
2676.82
2694.48
2660.91
2628.21
2576.31
2493
2489
2484.08
2536.77
2539.17
2499.51
2438.45
2440.52
2458.51
2528.39
2664.61
2816.82
2967.98
3077.82
3079.39
2253.73
2282.46
2279.14
2179.36
2188.05
2052.7
2111.32
2123.61
2171.37
2234.72
2274.39
2371.16
2344.79
2416.99
2309.94
2372.32
2383.02
2414.17
2439.86
2455.1
2469.44
2483.59
2506.19
2511.56
2565.22
2586.61
2629.86
2674.7
2698.55
2728.75
2143.84
2121.94
2089.76
2065.01
1989.99
1995.7
1947.25
1978.76
1947.5
1975.13
1982.4
1991.68
2043.04
2030.72
2131.82
2190.07
2219.34
2454.42
2513.61
2594
2634.3
2638.32
2634.31
2640.45
2636.06
2636.59
2649.12
2691.73
2713.07
2753.58
1831.49
1875.69
1893.09
1890.88
1920.78
1917.53
1923.93
1946.91
1933.97
1960.3
1961.31
1970.51
1985.36
2216.9
2285.05
2400.86
2507.63
2571.35
2677.27
2745.39
2807.14
2829.43
2834.77
2796.81
2683.24
2597.52
2545.43
2579.76
2611.66
2615.76
2739.13
2868.35
2891.83
2892.16
2892.62
2915.94
2932.22
2913.48
2817.72
2709.65
2582.67
2539.15
2558.05
2542.98
2419.06
2695.72
2869.88
2946.42
2975.98
2986.78
2980.38
2954.57
2925.66
2895.42
2872.63
2857.8
2818.58
2800.91
2766.19
2751.2
2734.64
2728.08
2727.68
2732.25
2673.63
2588.37
2473.17
2378.14
2326.16
2331.04
2416.59
2536.65
2584.66
2550.5
2767.33
2811.05
2727.34
2650.71
2623.05
2613.76
2616.94
2629.75
2657.35
2698.74
2733.47
2787.08
2810.59
2878.85
2928.94
2990.63
3027.32
3036.51
3033.97
3028.66
3021.35
3020.02
3023.17
3032.66
3035.22
3015.38
2918.93
2683.72
2485.48
2532.31
2866.39
2866.48
2889.18
2904.26
2847.29
2769.34
2740.28
2747.36
2763.45
2767.03
2765.39
2739.84
2701.55
2674.35
2624.06
2612.09
2570.38
2574.01
2573.25
2573.05
2576.19
2586.36
2619.82
2687.7
2749.91
2757.66
2740.64
2693.31
2655.46
2525.84
2615.37
2642.4
2656.24
2662.39
2732.61
2778.29
2776.21
2731.59
2717.7
2685.35
2697.51
2703.08
2707.94
2736.92
2728.09
2737.54
2723.04
2711.97
2697.32
2678.76
2658.61
2639.94
2613.27
2591.2
2599.72
2609.3
2560.35
2429.94
2425.05
2536.84
2480.05
2640.02
2692.13
2715.27
2779.41
2885.07
2888.84
2899.92
2892.25
2893.93
2892.57
2891.96
2888.98
2882.23
2871.76
2870.5
2846.6
2855.11
2831.59
2847.36
2871.03
2877.89
2894.01
2860.47
2848.45
2769.34
2458.91
2151.15
2216.1
2272.06
2578.42
2580.81
2583.74
2568.02
2550.11
2480.47
2452.06
2405.14
2448
2527.86
2697.72
2487
2424.2
2524.63
2688.01
2830.45
2825.51
2788.31
2756.88
2756.05
2791.23
2791.45
2637.68
2336.61
2063.1
1900.89
1863.2
1856.92
2006.92
2084.16
2236.71
2339.58
2441.64
2567.73
2661.22
2711.93
2749.21
2751.59
2735.35
2543.16
2224
2006.93
1930.08
2000.59
2052.93
2073.2
2135.14
2159.93
2276.65
2495.27
2784.2
2724.11
2715.46
2730.84
2767.08
2826.31
2580.33
2362.36
2329.44
2431.18
2536.84
2442.69
2415.59
2314.73
2361.48
2343.18
2426.12
2450.67
2467.38
2449.47
2417.31
2380.15
2326.36
2271.66
2218.63
2182.45
2149.72
2134.12
2111.29
2085.99
2083.79
2094.66
2111.82
2112.67
2136.52
2169.2
2212.88
2294.41
2398.99
2486.59
2293.55
2289.72
2266.64
2259.59
2262.44
2337.74
2418.39
2443.14
2447.41
2464.41
2520.34
2496.6
2478.68
2418
2349.96
2349.69
2362.94
2450.94
2484.62
2584.69
2579.68
2554.48
2465.01
2347.74
2251.69
2184.31
2239.99
2360.35
2697.77
2863.41
2251.23
2291.78
2273.3
2235.13
2162.63
2069.68
2125.71
2107.29
2159.42
2198.45
2215.54
2189.39
2237.44
2142.9
2155.53
2142.21
2159.45
2175.19
2147.3
2150.82
2134.76
2114.45
2100.69
2094.43
2109.59
2176.62
2256.34
2333.31
2468.7
2592.37
2123.17
2128.76
2117.76
2067.41
2021.64
2005.12
1993.43
1995.72
1994.84
2001.78
1997.23
2007.29
2015.75
1996.24
2075.45
2064.85
2105.01
2284.82
2294.27
2321.03
2353.79
2403.89
2397.46
2352.08
2338.96
2263.23
2283.27
2352.9
2427.88
2547.73
1810.26
1848.07
1888.5
1908.53
1942.66
1958.41
1962.3
1974.7
1976.26
1979.23
1956.76
1972.78
2022.43
2217.48
2286.66
2366.27
2388.41
2469.07
2506.56
2472.4
2522.9
2445.21
2377.88
2288.69
2266.87
2201.99
2160.31
2183.74
2231.08
2267.22
2812.67
2750.03
2705.69
2723.07
2703.29
2744.33
2773.89
2851.97
2931.7
2992.66
2840.35
2597.66
2537.77
2501.83
2578.28
2911.95
3013.41
3042.11
3052.58
3054.01
3053.07
3048.34
3005.14
2951.62
2896.46
2882.85
2852.92
2833.06
2794.94
2781.58
2782.49
2793.41
2816.45
2836.89
2769.82
2662.81
2514.31
2387.38
2326.81
2320.76
2467.45
2542.46
2608.16
2572.24
2757.3
2786.58
2703.62
2653.99
2624.02
2601.3
2586.83
2614.28
2655.27
2729.53
2777.25
2833.32
2837.15
2865.17
2896.36
2933.85
2973.61
3013.56
3031.35
3040.94
3026.91
3013.43
3002.19
3016.05
3033.5
3022.97
2884.7
2627.68
2509.08
2564.67
2869.89
2894.13
2888.53
2776.17
2732.05
2799.38
2846.91
2819.69
2788.34
2773.61
2750.55
2759.97
2714.86
2724.33
2670.82
2668.31
2623.16
2607.32
2592.37
2585.12
2576.24
2576.06
2589.43
2642.32
2714.03
2747.97
2744.18
2712.25
2675.87
2542.69
2647.73
2650.93
2638.83
2716.36
2637.66
2580.35
2422.56
2426.17
2433.44
2456.71
2459.97
2483.01
2500.22
2547.39
2581.36
2635.75
2656.45
2683.56
2681.35
2674.9
2649.52
2610.83
2552.32
2522.9
2546.35
2598.88
2573.26
2457.39
2449.58
2567.56
2510.54
2695.78
2772.08
2859.97
2919.15
2895.38
2898.91
2879.19
2881.69
2873.99
2865.4
2849.65
2835.19
2824.47
2796.26
2799.33
2774.01
2796.44
2778.91
2807.69
2811.97
2850.22
2870.75
2894.16
2869.45
2804.18
2532.7
2181.58
2198.23
2301.39
2461.14
2455.8
2459.19
2439.35
2390.13
2350.23
2327.1
2354.69
2461.58
2672.73
2482.22
2513.69
2688.92
2755.29
2697.26
2651.99
2601.98
2596.37
2625.66
2625.97
2591.1
2594.22
2640.99
2700.1
2324.57
1995.44
1863.92
1874.16
1944.73
2038.65
2380.86
2514.37
2671.29
2716.53
2738.13
2752.43
2734.52
2768.39
2778.23
2498.35
2195.75
1946.12
2007.32
2030.54
2062.63
2084.09
2210.52
2554.03
2647.72
2503.21
2476.67
2440.47
2479.7
2490.65
2510.82
2523.03
2605.34
2788.69
2499.77
2327.08
2546.66
2463.51
2422.95
2321.86
2359.41
2336.49
2416.25
2432.07
2439.58
2431.35
2419.57
2404.84
2413.07
2421.8
2463.98
2489.36
2526.05
2545.14
2541.26
2510.25
2443.02
2378.95
2265.17
2191.13
2094.45
2044.88
2044.77
2063.38
2117.69
2231.91
2256.94
2266.55
2228.53
2203.47
2193.65
2266.7
2319.02
2336.12
2315.59
2329.64
2389.05
2389.42
2390.39
2388.38
2458.02
2551.49
2728.77
2899.32
3019.18
3001.87
3013.59
2952.94
3003.76
3041.84
3058.14
2738.04
2308.26
2172.18
2250.84
2499.34
2221.83
2273.21
2286.64
2240.99
2235.33
2153.15
2184.15
2228.77
2305.31
2423.2
2465.07
2511.99
2592.32
2474.46
2357.36
2307.05
2191.92
2045.11
2039.64
1971.41
1974.47
1935.73
1920.11
1918.7
1907.16
1923.91
1957.56
2039.75
2152.56
2265.79
2116.11
2167.21
2150.29
2157.13
2103.83
2117.59
2119.02
2161.58
2207.14
2258.57
2330.42
2336.45
2434.54
2418.32
2530.92
2439.51
2446.14
2380.49
2337.76
2315.23
2271.65
2260.75
2220.38
2208.49
2193.98
2153.16
2107.73
2099.65
2158.93
2270.97
1869.3
1867.52
1942.95
1996.7
2097.71
2126.09
2191.72
2186.59
2248.03
2183.47
2183.44
2155.26
2267.05
2441.46
2458.93
2448.68
2408.34
2387.71
2388.89
2394.16
2301.44
2286.16
2192.87
2199.66
2098.36
2077.42
2020.56
1960
1947.02
1986.25
2640.94
2641.77
2676.45
2694.45
2697.83
2703.4
2696.73
2740.7
2783.37
2905.5
3011.75
2852.08
2581.38
2482.33
2768.09
2979.96
3028.7
3038.58
3026.05
3014.44
3024.56
3048.67
3044.29
2984.99
2898.93
2874.74
2848.82
2842.82
2799.85
2785.03
2803.48
2861.46
2899.46
2918.01
2841.8
2710.6
2523.07
2357.83
2292.82
2276.49
2416.15
2521.24
2607.2
2566.71
2747.79
2760.95
2723.51
2680.4
2618.93
2564.86
2555.93
2597.17
2700.28
2816.77
2886.06
2917.72
2915.44
2916.15
2909.18
2916.46
2937.97
2966.64
3014.36
3045.2
3042.62
3013.57
2990.24
2989.81
3020.8
3019.9
2864.66
2607.8
2535.41
2629.97
2879.27
2900.58
2741.88
2765.67
2852.65
2783.71
2731.29
2705
2686.19
2689.14
2687.49
2683.88
2662.45
2669.88
2646.47
2617.48
2601.76
2566.36
2562.55
2564.41
2572.48
2569.82
2571.35
2611.64
2684.95
2728.6
2734.08
2723.92
2674.72
2543.57
2679.43
2676.63
2714.27
2599.83
2465.74
2342.1
2356
2302.82
2346.36
2399.03
2422.31
2409.54
2414.03
2431.25
2476.63
2527.25
2582.32
2611.44
2634.36
2621.04
2580.88
2525.42
2488.27
2488.63
2521.55
2545.68
2501.75
2451.01
2516.89
2655.93
2517.22
2747.8
2857.04
2923.25
2906.93
2888.75
2872.52
2845.51
2819.81
2789.42
2754.32
2726.72
2717.78
2706.91
2695.9
2678.32
2663.32
2659.33
2693.56
2724.46
2787.89
2821.23
2872.93
2883.97
2883.12
2782.15
2528.34
2204.5
2194.03
2330.44
2315.43
2323.41
2333.19
2314.23
2284.08
2240.9
2289.55
2401.9
2622.61
2476.44
2554.23
2695.62
2674.76
2603.61
2581.72
2592.8
2627.89
2606.28
2560.36
2530.27
2532.28
2541.48
2568.35
2609.96
2605.23
2152.66
1924.53
1905.38
1971.17
1945.4
2563.93
2698.4
2681
2700.55
2724.49
2751.75
2749.88
2752.35
2804.79
2424.06
2161.44
1985.14
2054.82
2027.16
2069.23
2187.21
2633.68
2588.86
2455
2416.07
2424.21
2433.82
2439.07
2467.6
2491.88
2497.27
2516.09
2550.22
2760.15
2329.85
2555.76
2482.68
2419.72
2323.03
2339.8
2323.43
2397.13
2419.35
2444.58
2476.64
2534.65
2632.41
2739.22
2614.57
2488.22
2395.04
2343.73
2328.99
2324.85
2339.03
2365.78
2412.03
2484.36
2565.71
2688.62
2567.66
2250.52
2073.15
2013.69
2046.98
2227.4
2221.19
2199.42
2203.63
2175.51
2226.17
2217.64
2229.93
2222.59
2296.05
2363.62
2433.01
2475.65
2574.17
2826.58
2885.14
2822.09
2831.5
2793.38
2852.52
2787.55
2844.97
2829.52
2828.4
2876.55
2947.72
3102.65
2658.02
2175.21
2253.21
2208.78
2278.12
2319.7
2316.09
2320.01
2413.6
2491.93
2612.41
2857.96
2793.69
2776.93
2738.99
2707.8
2686.45
2663.15
2707.23
2739.04
2845.71
2657.92
2356.31
2092.74
2040.85
1968.21
1919.5
1895.62
1870.55
1865.43
1874.48
1946.7
2039.16
2117.53
2187.29
2361.75
2319.73
2369.28
2402.79
2457.11
2596.07
2759.07
2783.22
2727.39
2683.98
2684.12
2690.38
2708.83
2732.06
2921.38
2988.88
2974.93
2677.83
2479.46
2378.54
2267.11
2230.92
2199.38
2134.84
2114.54
2070.5
2065.77
2112.58
1904.2
1994.68
2135.62
2277.28
2471.62
2565.88
2641.55
2755.75
2809.19
2719.93
2860.26
2955.52
2934.75
3039.8
2914.86
2738.75
2639.59
2551.02
2498.1
2450.47
2393.72
2325.75
2256.24
2150.79
2141.42
2155.26
2083.73
2004.24
1866.52
1886.39
2675.75
2758.72
2862.91
2881.42
2888.77
2818.73
2784.18
2737.28
2772.01
2813.32
2925.83
3041.51
2747.88
2467.22
2893.04
2987.96
3024.63
3024.09
2998.22
3009.83
3038.55
3059.58
3032.95
2956.69
2871.97
2861.3
2840.07
2825.15
2776.02
2789.07
2838.95
2922.26
2962.1
2957.16
2881.87
2708.72
2476.05
2267.15
2159.03
2141.36
2260.27
2384.33
2543.85
2540.33
2736.24
2736.4
2702.29
2621.25
2533.07
2499.04
2522.65
2611.48
2758.75
2905.37
2925.54
2951.29
2940.95
2978.8
2958.48
2953.56
2963.9
2997.3
3043.41
3055.97
3040.05
3004.49
2976.37
2981.63
3006.41
3016.97
2790.55
2559.24
2576.87
2664.35
2903.36
2788.45
2793.55
2825.16
2742.23
2683.52
2666.4
2673.5
2698.55
2711.49
2715.73
2690.07
2686.28
2646.92
2627.24
2563.67
2543.95
2526.9
2536.62
2558.64
2569.61
2569.6
2564.98
2601.96
2663.59
2706.19
2716.93
2713.52
2661.22
2547.13
2696.74
2734.53
2667.8
2474.99
2405.23
2394.26
2352.97
2341.36
2316.57
2364.99
2396.83
2413.35
2402.71
2410.75
2446.42
2499.75
2542.12
2590.83
2593.54
2559.26
2505.46
2451.9
2427.55
2440.54
2466.83
2478.11
2456.97
2465.34
2568.64
2694.67
2565.37
2801.12
2899.77
2908.32
2901.23
2853.24
2806.28
2754.63
2708.78
2671.73
2668.23
2682.6
2699.34
2702.15
2688.24
2664.26
2632.24
2629.18
2635.75
2692.69
2767.62
2834.11
2872.76
2900.75
2859.65
2777.5
2472.38
2180.59
2234.16
2308.17
2264.43
2245.11
2247.3
2233.03
2197.42
2227.78
2316.51
2551.04
2489.72
2517.08
2666.2
2652.35
2584.43
2604.28
2613.46
2627.8
2611.18
2609.43
2604.8
2590.72
2559.44
2554.23
2551.98
2592.96
2636.93
2345.67
2031.58
1937.29
1937.62
1923.28
2803.78
2725.75
2597.25
2526.56
2575.39
2702.42
2766.18
2755.63
2764.03
2386.25
2133.83
2050.98
2068.68
2056.72
2170.09
2541.14
2611.98
2461.51
2421.11
2406
2404.91
2427.87
2419.69
2464.38
2493.49
2510.57
2499.81
2523.45
2588.56
2494.72
2579.71
2507.44
2431.6
2317.2
2335.12
2304.37
2382.09
2431.69
2525.3
2654.94
2757.48
2603.52
2420.12
2283.61
2203.47
2177.85
2173.82
2182.75
2191.32
2196.86
2197.75
2221.61
2237.03
2257.77
2299.56
2391.56
2577.33
2558.53
2108.22
2006.65
2160.95
2175.38
2191.16
2240.35
2225.25
2222.23
2196.76
2164.04
2189.09
2266.69
2435.21
2580.09
2753.41
2871.98
2771.34
2732.04
2749.88
2761.43
2833.6
2790.03
2830.94
2836.04
2866.13
2910.47
2885.14
2868.63
2860.89
3005.79
2632.06
2185.9
2217.49
2270.83
2386.5
2426.34
2517.54
2773.78
2931.63
2823.33
2697.58
2660.3
2672.32
2707.53
2706.46
2703.29
2640.47
2603.37
2594.95
2579.58
2620.83
2723
2895.34
2519.84
2214.34
2080.34
1993.83
1934.09
1891.79
1867.38
1864.57
1907.26
2134.65
2407.82
2535.64
2735.47
2804.91
2846.79
2833.54
2721.65
2661.3
2608.2
2555.7
2615.46
2600.16
2661.06
2643.46
2623.95
2682.43
2695.22
2824.52
3042.2
3057.47
2792.78
2528.73
2419.7
2328.19
2256.23
2190.93
2132.15
2078.58
2066.91
2091.85
2265.55
2551.88
2796.99
2829.65
2792.19
2732.41
2673.52
2659.21
2702.96
2599.1
2821.8
2948.16
3093.53
3237.51
3271.52
3034.06
2903.34
2766.79
2676.01
2608.32
2560.91
2530.01
2486.83
2444.03
2366.08
2281.86
2129.71
2004.31
1834.26
2803.33
2941.6
2910.07
2903.65
2951.56
2965.79
2904.19
2844.25
2814.06
2844.7
2892.44
2999.26
2960.68
2534.17
2950.05
2982.95
3018.35
3012.81
3003.96
3039.96
3056.09
2986.74
2926.41
2872.14
2845.66
2849.88
2823.13
2785.04
2756.27
2803.3
2901.58
2976.52
2990.94
2967.11
2859.13
2588.94
2328.1
2123.81
2020.12
1985.68
2097.7
2235.65
2430.01
2504.02
2724.95
2702.96
2606.3
2493.97
2450.03
2461.6
2520.48
2612.8
2756.91
2906.72
2941.74
2960.71
2966.06
2991.55
3006.85
3026.58
3035.72
3051.4
3042.19
3031.03
3011.19
2989.84
2976.8
2984.14
3015.55
2987.49
2722.72
2543.28
2579.9
2675.04
2875.01
2811.05
2831.65
2741.04
2671.97
2653.5
2711.2
2757.25
2766.3
2704.06
2680.73
2646.54
2631.89
2561.44
2557.81
2509.77
2534.43
2539.73
2560.37
2556.94
2567.5
2561.13
2570.45
2602.72
2659.9
2697.21
2704.43
2687.03
2642.97
2515.58
2723.38
2751.49
2625
2576.26
2600.02
2542.83
2474.6
2393.5
2371.57
2365.55
2405.65
2437.3
2462.16
2478.68
2502.45
2523.86
2551
2535.7
2502.58
2453.45
2402.44
2389.71
2386.16
2395.39
2405.91
2407.4
2436.16
2479.41
2573.32
2681.47
2566.83
2836.73
2889.19
2906.68
2861.09
2803.66
2716.78
2664.57
2621.92
2627.3
2647.26
2677.38
2702.99
2695.62
2686.2
2648.07
2643.2
2617.83
2637.85
2703.84
2791.56
2859.83
2896.1
2866.12
2832.35
2697.39
2380.35
2194.63
2232.13
2280.14
2222.53
2195.33
2190.59
2188.64
2163.63
2260.86
2445.71
2570.15
2464.55
2611.96
2654.68
2580.01
2603.33
2602.22
2634.66
2650.59
2668.74
2665.48
2632.11
2597.9
2592.13
2603.99
2619.77
2637.52
2651.13
2523.36
2177.46
1999.95
1925.39
1880.67
2908.94
2680.15
2486.67
2448.85
2468
2619.7
2768.65
2724.81
2701.16
2324.45
2132.62
2116.53
2138.21
2122.39
2338.14
2682.61
2505.75
2428.61
2413.07
2419.35
2393.9
2402.25
2407.47
2441.9
2501.57
2523.22
2520.26
2530.07
2551.17
2776.2
2613.51
2545.4
2442.37
2334.98
2326.92
2303.75
2399.44
2518.11
2711.24
2698.26
2516.1
2351.74
2244.44
2191.52
2187.01
2198.29
2214.44
2223.54
2221.65
2232.93
2231.21
2234.55
2243.35
2227.86
2232.99
2239.44
2293.36
2497.98
2407.09
2000.38
2127.93
2158.15
2236.37
2323.27
2343.85
2309.22
2229.82
2169.89
2160.02
2259.47
2504.88
2759.96
2819.76
2758.35
2698.18
2722.05
2793.12
2812.99
2816.99
2837.29
2868.7
2912.52
2916
2905.38
3007.02
2973.14
2901.95
2840.42
3052.27
2260.75
2263.53
2450.22
2526.61
2601.51
2749.87
2937.42
2884.79
2731.28
2766.74
2772.69
2870.72
2890.76
2920.77
2894.2
2859.14
2834.13
2765.62
2680.4
2580.3
2538.19
2538.1
2671.38
2904.69
2556.95
2268.39
2113.24
2008.44
1923.07
1860.14
1860.58
2246.4
2579.38
2956.29
2965.28
2838.53
2806.09
2698.88
2705.99
2678.24
2726.75
2831.88
2880.58
2889.99
2937.38
2916.55
2857.25
2757.18
2685.42
2678.45
2748.34
2914.75
3079.49
3031.53
2776.94
2635.67
2498.21
2388.56
2280.38
2139.18
2080.18
2225.86
2584.88
2888.45
2806.75
2745
2685.12
2656.13
2659.56
2608.79
2728.93
2676.01
2765.19
2870.77
2887.93
2979.66
3126.76
3274.12
3233.26
3111.87
3017.23
2934.65
2876.09
2878.01
2876.19
2865.38
2852.81
2752.43
2637.22
2415.3
2158.98
2866.38
2886
2688.45
2698.23
2787.49
2908.23
2973.15
2967.3
2957.24
2953.57
2962.42
2997.83
3045.12
2666.5
2955.34
2979.55
3008.82
3010
3022.09
3046.43
2935.3
2831.74
2808.45
2820.28
2825.25
2808.02
2767.06
2735.23
2765.18
2873.25
2976.39
2996.11
2986.29
2879.87
2600.38
2326.66
2162.8
2058.88
1992.67
1981.36
2124.32
2291.27
2421.89
2436.81
2692.52
2593.32
2462.46
2415.94
2437.31
2479.14
2511.51
2551.63
2632.84
2791.12
2926.14
2941.89
2980.52
2979.8
3009.24
3010.51
3020.71
3018.9
3026.32
3022.29
3015.71
3007.49
2999.06
3010.57
3011.6
2896.24
2627.46
2486.74
2559.11
2670.13
2865.89
2888.45
2768.6
2677.33
2652.54
2723.1
2785.27
2703.89
2643.34
2592.08
2586.45
2554.17
2536.55
2530.09
2542.91
2546.89
2558.7
2564.72
2559.99
2561.29
2566.32
2559.54
2589.56
2622.59
2667.92
2692.49
2681.93
2685.43
2608.9
2548.44
2739.36
2750.06
2727.88
2664.59
2634.86
2633.17
2622.42
2558.68
2470.99
2438.5
2455.84
2466.02
2507.86
2523.55
2512.15
2503.87
2484.13
2473.73
2479.37
2493.99
2516.47
2542.63
2570.38
2574.56
2581.58
2571.91
2558.05
2568.24
2582.29
2632.48
2646.09
2840.33
2892.39
2875.84
2825.74
2748.12
2665.64
2607.41
2600.49
2606.41
2634.05
2666.49
2676.86
2682.85
2669.82
2649.99
2638.23
2628.28
2642.16
2750.57
2835.35
2884.08
2858.02
2832.14
2778.83
2618.58
2332.13
2174.31
2230.5
2219.71
2233.65
2164.49
2154.18
2164.34
2172.52
2354.31
2551.78
2510.34
2525.64
2651.21
2602.17
2596.67
2597.23
2629.28
2647.19
2670.77
2678.34
2674.73
2658.32
2626.43
2608.79
2665.66
2711.66
2716.24
2703.69
2525.97
2265.14
2049.19
1925.68
1876.77
2858.2
2607.3
2452.36
2445.52
2502.3
2609.15
2752.54
2698.35
2662.51
2314.77
2159.83
2168.55
2200.46
2283.53
2615.87
2565.78
2447.5
2417.49
2432.08
2416.28
2406.55
2410.28
2374.59
2431.01
2464.1
2550.05
2554.62
2558.89
2568.54
2778.66
2645.26
2594.85
2462.87
2334.57
2335.69
2332.28
2480.94
2680.16
2673.25
2481.98
2329.1
2242.41
2187.67
2185.65
2186.03
2201.5
2211.42
2220.77
2229.79
2249.18
2272.45
2279.58
2293.24
2299.17
2296.08
2265.26
2254.8
2316.11
2620.39
2104.46
2112.84
2200.27
2341.94
2526.26
2603.96
2556.29
2388.1
2237.26
2172.49
2256.77
2558.75
2844.91
2763.06
2718.39
2743.48
2773.44
2797
2862.44
2921.98
2897.96
2907.41
2844.43
2917.1
2914.9
2957.89
3007.14
3012.23
2876.91
2827.65
2713.3
2418.32
2619.1
2821.38
2813.18
2999.51
2905.27
2862.93
2804.57
2882.33
2873.12
2932.33
2965.84
2941.42
2935.5
2950.26
2917.82
2917.93
2863.21
2772.13
2648.82
2532.76
2466.74
2521.32
2697.06
2904.54
2472.12
2238.52
2080.2
1935.05
1843.78
2340.11
2968
2981.66
2839.57
2795.16
2721.23
2751.2
2754.55
2859.61
2900.4
2952.68
2916.24
2987.84
2913.55
3003.76
2978.67
2957.61
2793.16
2711.71
2653.32
2733.58
2800.32
2960.96
3103.5
3066.99
2867.72
2703.54
2532.81
2318.51
2109.33
2388.6
2823.6
2853.71
2792.4
2770.73
2757.95
2806.8
2796.73
2842.67
3035.95
2970.73
3140.35
2961.64
2858.6
2835.91
2910.55
3011.54
3109.43
3157.92
3156.21
3161.46
3158.14
3161.64
3156.07
3146.93
3139.7
3147.52
3076
2904.47
2503.61
2922.87
2730.68
2597.62
2639.21
2707.98
2768.34
2805.59
2907.74
2947.83
2981.31
3019.14
3040.26
3049.69
2775.24
2929.97
2982.37
3002.28
3011.66
3031.92
3000.71
2829.21
2744.13
2728.12
2757.99
2749.55
2716.43
2704.18
2744.59
2865.13
2974.55
2995.86
2972.01
2800.42
2506.66
2349.26
2296.66
2278.68
2175.38
2103.57
2152
2364.36
2441.65
2461.37
2426.94
2615.62
2469.92
2403.03
2444.18
2494.14
2501.2
2493.28
2491.73
2518.61
2586.98
2718.62
2839.51
2897.96
2909.64
2902.1
2887.69
2862.31
2868.68
2862.25
2874.01
2903.96
2967.23
2998.2
2996.91
2955.58
2787.9
2540.55
2455.38
2589.72
2711.88
2880.87
2854.58
2715.67
2658.24
2686.55
2769.89
2761.31
2643.61
2612.53
2582.56
2577.21
2549.37
2572.74
2562.29
2577.6
2570.73
2572.33
2559.17
2563.09
2562.38
2570.35
2585.21
2614.29
2646.86
2676.11
2669.48
2669.48
2634.76
2547.56
2545.91
2755.61
2779.77
2662.77
2579.95
2551.45
2544.86
2558.85
2582.49
2597.39
2608.4
2593.39
2588.31
2574.86
2606.49
2626.32
2647.75
2681.05
2731.48
2765.92
2745.67
2707.85
2677.79
2653.42
2646.36
2643.07
2664.02
2702.74
2737.74
2659.46
2601.8
2657.38
2853.88
2885.92
2859.2
2803.42
2729.19
2656.48
2593.58
2572.64
2566.91
2589.62
2617.08
2637.41
2655.12
2662.5
2661.6
2663.49
2660.35
2707.91
2798.15
2869.57
2852.32
2828.27
2789.67
2713.97
2534.71
2289.82
2190.5
2173.27
2127.3
2223.55
2154.92
2140.93
2173.86
2248.52
2471.44
2495.25
2516.76
2610.43
2625.1
2605.52
2593.63
2618.95
2619.72
2645.83
2661.12
2681.14
2693.07
2674.21
2637.63
2617.1
2707
2620.88
2490.61
2422.82
2325.96
2180.97
2027.27
1953.52
2010.25
2687.73
2465.64
2402.44
2494
2577.45
2673.42
2726.58
2729.61
2614.97
2318.72
2212.93
2246.27
2317.5
2491.11
2624.68
2485.1
2417.2
2410.38
2425.06
2427.74
2401.09
2418.88
2380.39
2406.9
2436.22
2549.4
2583.44
2583.65
2595.06
2696.95
2691.43
2669.4
2479.46
2357.55
2333.12
2415.81
2608.79
2700.24
2498.98
2325.29
2241.91
2187.13
2194.29
2169.02
2195.68
2203.23
2223.92
2232.68
2241.81
2260.67
2294.68
2302.15
2329.77
2334.22
2328.03
2331.21
2325.61
2289.18
2396.6
2754.08
2139.9
2308.55
2651.43
2827.46
2832.4
2848.54
2682.63
2423.68
2302.79
2322.25
2606.81
2832.76
2761.54
2722.95
2725.92
2821.82
2903.05
2914.51
2869.31
2905.02
2933.94
2899.9
2959.22
2884.47
2955.66
2958.2
2989.22
2970.84
2801.2
3008.58
2510.01
3010.37
3095.99
3030.02
3065.37
2860.82
2893.92
2886.25
3016.17
2909.95
2999.65
2945.38
2946.74
2959.44
2910.74
2931.13
2900.58
2894.98
2834.39
2760.45
2649.05
2539.89
2447.46
2442.17
2523.5
2767.06
2758.61
2342.92
2062.99
1902.67
2429.73
2997.74
2884.24
2839.98
2748.4
2760.43
2796.11
2919.52
2952.76
2966.55
2996.59
2941.46
2995.85
2979.65
2923.35
2985.73
2995.93
2860.95
2755.18
2654.86
2671.8
2697.68
2739.24
2832.86
2968.36
3074.41
3072.71
2840.7
2519.49
2121.08
2545.04
2892.98
2896.67
2817.39
2829.51
2835.78
2984.27
3021.89
2964.75
2958.77
2993.57
3033.08
3118.91
2874.76
2781.83
2783.27
2812.48
2910.67
2963.83
3006.43
3052.23
3061.03
3044.58
3015.78
3023.37
3025.94
3094.22
3077.37
3205.68
2804.95
2920.98
2724.53
2599.89
2763.66
2857.56
2779.82
2743.22
2739.98
2776.96
2833.93
2918.22
3025.23
2979.35
2789.65
2821.42
2870.02
2947.1
2968.62
2983.56
3009.92
3025.16
2977.02
2812.44
2698.51
2661.04
2648.37
2652.62
2692.45
2776.86
2892.64
2963.69
2962.4
2852.97
2642.21
2487.9
2466.84
2542.02
2564.44
2451.16
2268.36
2245
2378.07
2503.48
2491.46
2442.9
2384.97
2388.65
2395.48
2437.35
2425.59
2489.26
2546.91
2545.15
2509.33
2482.5
2472.54
2480.95
2493.12
2546.82
2608.28
2628.39
2671.34
2706.56
2762.15
2799.31
2810.47
2816.72
2798.31
2770.76
2797.52
2846.37
2863.79
2802.94
2618.89
2448.87
2510.39
2726.53
2826.99
2846.09
2856.63
2902.33
2756
2676.88
2656.37
2695.75
2745.82
2759.98
2649.06
2601.47
2581.21
2597.47
2579.06
2583.02
2565.83
2577.24
2558.85
2557.42
2559.34
2564.74
2576.75
2591.1
2614.19
2633.94
2651.52
2648.37
2644.99
2622.25
2606.28
2563.74
2638.64
2776.83
2769.63
2768.95
2686.24
2564.68
2511.6
2490.4
2475.59
2473.02
2488.14
2504.61
2533.15
2538.08
2609.48
2595.22
2648.41
2655.25
2656.8
2662.82
2648.52
2640.74
2637.42
2636.64
2638.09
2639.52
2643.3
2642.79
2639.04
2632.7
2663.27
2702.25
2604.54
2622.11
2669.66
2741.56
2843.41
2874.38
2845.02
2812.25
2753.25
2698.63
2620.61
2581.13
2554.94
2556.81
2573.99
2606.05
2635.85
2668.46
2691.53
2711.74
2721.32
2754.64
2820.24
2836.9
2812.7
2764.31
2727.05
2695.15
2523.49
2343.69
2166.56
2113.37
2142.69
2586.22
2476.07
2262.17
2166.46
2149.86
2225.55
2363.76
2540.01
2465.91
2546.12
2644.13
2616.68
2615.62
2598
2612.44
2607.88
2637.78
2662.03
2693.6
2706.92
2690.51
2650.87
2620.59
2721.65
2511.27
2357.91
2281.84
2249.27
2168.01
2091.66
2132.04
2311.1
2514.8
2552.27
2458.65
2333.45
2391.78
2493.05
2624.89
2716.8
2741.93
2732.5
2576.64
2332.46
2289.75
2370.46
2486.94
2593.7
2540.72
2451.61
2400.16
2404.93
2425.59
2426.17
2410.6
2426.49
2385.64
2401.27
2403.93
2503.07
2593.43
2630.06
2635.12
2661.33
2820.03
2746.73
2736.29
2735.18
2528.69
2387.61
2389.95
2493.84
2754.45
2567.97
2361.69
2286.96
2236.34
2223.67
2194.38
2211.76
2211.5
2241.59
2238.38
2251.64
2246.63
2270.3
2304.17
2342.67
2377.17
2378.35
2382.8
2373.26
2360.3
2372.71
2325.36
2364.26
2621.29
2512.85
2133.09
2281.84
2675.38
2829.16
2704.52
2738.5
2844.86
2809.33
2519.76
2512.59
2703.25
2847.74
2759.25
2791.45
2817.43
2899.49
2917.43
2915.48
2912.8
2942.54
2964.76
2938.45
2984.9
2917.44
2973.54
2923.21
2930.41
2948.49
2856.13
2777.78
2674.96
2427.96
2603.73
3092.13
3064.76
3051.4
3037.79
2872.81
2889.77
2895.1
3037.86
2924.98
3019.4
2944.83
2976.41
2945.67
2934.52
2883.94
2906.23
2862.55
2815.27
2740.71
2678.49
2591.53
2515.61
2436.92
2422
2443.42
2630.87
2861.38
2456.22
1993.54
2018.97
2187
2706.62
2922.81
2863.21
2799.83
2785.66
2746.47
2814.48
2891.03
2991.81
2994.7
2953.75
2990.15
2982.95
2978.07
2949.54
2962.07
2899.47
2786.58
2687.55
2634.84
2619.6
2654.5
2678.31
2690.93
2743.23
2842.99
2961.54
3075.89
2913.39
2331.48
1984.56
2151.43
2298.51
2402.54
2505.89
2778.34
3003.53
2923.99
2921.25
2925.39
2986.47
2903.15
2969.42
2964.41
3049.63
2853.98
2726.52
2726.47
2752.74
2767.14
2829.36
2870.26
2891.01
2910.7
2884.89
2871.56
2880.64
2895.67
2909.67
2962.28
3025.08
3099.07
3122.27
3364.63
2942.07
2753.66
2771.49
2948.51
2953.75
2946.39
2768.81
2724.09
2770.34
2879.39
2888.36
2967.75
2982.52
2839.52
2840.48
2905.61
2948.03
2934.51
2940.2
2997.46
3014.2
2990.7
2905.38
2801.81
2738.58
2726.05
2782.24
2859.39
2910.72
2928.07
2847.32
2701.68
2584.33
2537.45
2590.76
2631.24
2642.66
2577.32
2434.28
2329.07
2386.65
2481.93
2513.94
2457.92
2401.08
2355.73
2375.8
2406.4
2476.87
2558.82
2615.8
2608.06
2552.23
2499.82
2469.94
2456.94
2462.19
2459.51
2488.79
2528.01
2585.3
2757.12
2799.88
2828.46
2829.02
2848.85
2860.73
2877.95
2845.16
2792.25
2779.95
2758.03
2662.25
2504.34
2487.8
2711.78
2851.42
2877.52
2883.71
2848.07
2777.47
2681.7
2645.63
2648.53
2658.77
2696.97
2768.86
2674.7
2593.06
2558.7
2575.21
2533.28
2542.28
2513.73
2504.92
2487.09
2491.73
2494.41
2511.48
2530.55
2554.58
2572.48
2591.25
2592.28
2589.53
2566.4
2568.8
2545.99
2594.92
2722.37
2820.02
2789.61
2711.84
2588.31
2531.34
2493.32
2475.18
2451.09
2433.72
2426.5
2439.06
2465.73
2477.32
2493.57
2534.62
2560.87
2600.98
2652.23
2669.62
2688.61
2703.71
2716.19
2726.55
2742.66
2749.24
2743.28
2713.53
2680.4
2657.24
2635.97
2664.93
2661.8
2695.59
2731.76
2750.11
2840.53
2859.44
2843.13
2826.41
2790.72
2758.63
2699.73
2635.43
2583.91
2551.73
2553.99
2584.09
2625.6
2676.14
2723.92
2755.89
2765.02
2750.83
2744.13
2742.97
2738.97
2729.49
2713
2673.86
2612.51
2360.46
2156.2
2093.58
2270.96
2480.91
2269.78
2175.37
2161.35
2218.85
2320.26
2461.58
2529.44
2484.11
2609.11
2639.64
2623.81
2616.12
2598.89
2591.86
2595.59
2632.21
2676.03
2712.02
2721.03
2705.79
2662.65
2624.56
2695.39
2579.47
2428.83
2398.28
2432.47
2391.3
2321.31
2298.42
2357.3
2388.48
2351.65
2198.42
2237.7
2310.23
2461.97
2596.3
2709.87
2730.73
2688.98
2510.34
2376.15
2413.96
2516.09
2541.7
2528.78
2473.1
2424.23
2401.83
2412.99
2413.97
2417.83
2409.06
2422.73
2400.6
2400.56
2383.5
2477.53
2564.87
2662.8
2683.42
2709.97
2899.63
2780.92
2801.99
2788.61
2608.57
2477.9
2440.63
2617.9
2658.12
2422.09
2272.95
2244.79
2227.02
2237.57
2254.01
2239.48
2269.27
2260.75
2272.92
2249.51
2236.2
2253.46
2305.67
2355.61
2401.89
2439.5
2447.84
2414.42
2387.79
2387.2
2395.02
2359.35
2370.38
2464.63
2758.08
2301.76
2369.23
2617.16
2890.3
2751.56
2743.11
2802.64
2888.15
2793.27
2899.74
2875
2845.25
2834.33
2907.13
2934.32
2965.36
2941.33
2964.56
2928.45
3004.06
2894.39
3007.83
2918.87
2944.92
2883.43
2850.39
2844.85
2843.08
2722.75
2872.15