/*--------------------------------*- C++ -*----------------------------------*\
| =========                 |                                                 |
| \\      /  F ield         | OpenFOAM: The Open Source CFD Toolbox           |
|  \\    /   O peration     | Version:  2.1.1                                 |
|   \\  /    A nd           | Web:      www.OpenFOAM.org                      |
|    \\/     M anipulation  |                                                 |
\*---------------------------------------------------------------------------*/
FoamFile
{
    version     2.0;
    format      ascii;
    class       volScalarField;
    location    "0.006600000";
    object      HO2;
}
// * * * * * * * * * * * * * * * * * * * * * * * * * * * * * * * * * * * * * //

dimensions      [0 0 0 0 0 0 0];

internalField   nonuniform List<scalar> 
12384
(
1.21244e-05
1.32177e-05
1.31787e-05
1.30002e-05
1.20567e-05
1.1749e-05
1.14303e-05
1.11438e-05
1.09803e-05
1.08667e-05
1.08182e-05
1.09318e-05
1.08792e-05
9.23082e-06
1.08032e-05
1.13305e-05
1.18635e-05
1.22742e-05
1.24832e-05
1.25571e-05
1.25417e-05
1.24783e-05
1.23382e-05
1.20509e-05
1.18156e-05
1.13535e-05
1.09367e-05
1.05159e-05
1.01119e-05
9.63297e-06
8.89793e-06
8.55516e-06
8.30497e-06
8.23576e-06
8.28761e-06
8.48498e-06
8.9783e-06
9.30479e-06
9.70458e-06
1.02988e-05
1.11531e-05
1.15389e-05
1.07246e-05
9.82487e-06
7.80099e-06
6.12129e-06
4.67909e-06
3.35693e-06
3.11795e-06
2.95236e-06
2.87725e-06
2.73438e-06
2.56491e-06
2.34547e-06
2.12669e-06
1.92017e-06
1.74797e-06
1.61861e-06
1.524e-06
1.43946e-06
1.38679e-06
1.37601e-06
1.39813e-06
1.32501e-06
1.35917e-06
1.33155e-06
1.36979e-06
1.42874e-06
1.53748e-06
1.73115e-06
2.0546e-06
2.91022e-06
4.91498e-06
4.78859e-06
1.99339e-06
1.98255e-06
2.09817e-06
2.09567e-06
2.06022e-06
1.9941e-06
1.93949e-06
1.86093e-06
1.77221e-06
1.70506e-06
1.65673e-06
1.62546e-06
1.59913e-06
1.58875e-06
1.58655e-06
1.58834e-06
1.58577e-06
1.59364e-06
1.67012e-06
1.61665e-06
1.72341e-06
1.74656e-06
1.8773e-06
1.9261e-06
2.04183e-06
2.16697e-06
2.264e-06
1.93261e-06
1.60245e-06
1.5712e-06
4.64545e-07
5.54002e-07
6.00951e-07
6.35682e-07
6.63743e-07
6.83707e-07
6.86714e-07
9.13318e-07
1.01136e-06
1.00226e-06
9.86769e-07
1.03505e-06
1.07653e-06
1.07883e-06
1.18802e-06
1.15878e-06
1.36415e-06
1.39573e-06
1.4814e-06
1.58485e-06
1.56752e-06
1.56639e-06
1.78457e-06
1.61295e-06
1.53871e-06
1.44995e-06
1.34025e-06
1.31482e-06
1.45727e-06
1.6627e-06
6.69452e-08
6.20565e-08
9.47968e-08
1.15526e-07
1.17217e-07
1.10316e-07
1.0326e-07
1.01621e-07
1.03423e-07
1.08575e-07
1.14561e-07
1.13112e-07
1.17504e-07
1.19551e-07
1.19131e-07
1.16807e-07
1.18533e-07
1.16163e-07
1.15967e-07
1.10516e-07
1.16403e-07
1.13061e-07
1.17308e-07
1.14061e-07
1.19781e-07
1.21362e-07
1.47465e-07
1.47656e-07
1.67556e-07
1.64746e-07
9.8012e-07
1.12267e-06
9.69867e-07
6.66973e-07
3.62865e-07
3.24831e-07
2.7931e-07
2.61731e-07
2.55991e-07
2.53446e-07
2.61014e-07
2.55193e-07
2.46817e-07
2.3552e-07
2.20826e-07
2.31988e-07
2.23025e-07
2.29912e-07
2.36513e-07
2.44212e-07
2.57644e-07
2.80391e-07
4.71975e-07
8.77636e-07
4.68628e-06
5.67561e-06
5.70208e-06
5.61163e-06
5.50851e-06
5.51106e-06
5.87179e-07
1.98137e-07
1.09261e-07
9.50713e-08
9.10166e-08
8.86133e-08
8.38584e-08
8.24325e-08
7.73469e-08
8.15228e-08
8.01186e-08
7.29879e-08
7.50364e-08
7.73577e-08
7.69927e-08
8.47681e-08
9.30626e-08
1.01372e-07
1.10238e-07
1.17039e-07
1.32651e-07
2.2803e-07
2.75471e-07
2.17406e-07
1.78799e-07
1.25645e-07
1.08579e-07
1.44136e-07
1.18569e-07
1.51799e-07
3.54192e-07
2.74108e-07
2.70813e-07
3.0948e-07
2.75902e-07
2.92393e-07
2.53184e-07
2.86817e-07
2.44489e-07
2.71044e-07
2.36981e-07
2.48992e-07
2.78364e-07
2.57817e-07
2.68827e-07
2.84531e-07
3.0187e-07
1.22895e-07
2.79186e-08
1.81635e-08
1.91962e-08
2.39224e-08
2.55609e-08
2.71914e-08
2.87212e-08
2.79544e-08
2.58773e-08
2.26649e-08
1.46754e-08
1.1559e-08
2.26973e-07
1.06046e-07
1.11376e-07
1.20391e-07
1.33802e-07
1.49762e-07
1.78032e-07
2.24032e-07
2.22104e-07
2.15852e-07
2.18467e-07
2.21136e-07
2.10216e-07
2.31306e-07
2.3457e-07
2.25035e-07
2.69876e-07
2.62991e-07
2.61843e-07
1.96535e-07
8.22561e-08
4.83265e-08
5.08823e-08
5.96416e-08
6.40991e-08
6.66168e-08
6.66314e-08
6.47289e-08
5.98925e-08
5.46263e-08
4.64891e-08
4.91305e-08
3.87639e-08
3.73677e-08
3.74406e-08
4.22407e-08
4.30627e-08
4.27222e-08
4.55271e-08
3.73611e-08
4.19909e-08
4.1248e-08
4.47122e-08
4.82607e-08
4.94376e-08
5.1804e-08
5.19344e-08
2.91975e-08
1.93207e-08
1.41852e-08
1.39404e-08
1.21348e-08
1.36726e-08
1.55017e-08
1.71019e-08
1.79876e-08
1.79315e-08
1.68059e-08
1.45808e-08
1.64559e-08
4.06269e-08
4.86473e-08
5.71964e-08
4.22085e-08
3.96619e-08
3.68054e-08
3.00147e-08
2.97646e-08
3.00983e-08
2.37341e-08
2.43324e-08
2.60591e-08
2.76059e-08
2.86436e-08
2.9072e-08
2.9188e-08
2.81962e-08
2.73745e-08
2.61527e-08
3.24585e-08
3.31992e-08
3.34207e-08
3.73955e-08
3.90106e-08
4.0915e-08
4.2808e-08
4.29644e-08
4.23349e-08
4.06833e-08
3.48703e-08
1.16483e-08
1.07384e-08
1.11284e-08
1.13534e-08
3.95383e-08
4.11602e-06
6.0244e-06
1.08704e-08
1.05533e-09
1.46668e-09
1.60577e-09
1.63617e-09
1.61529e-09
1.64878e-09
1.58653e-09
1.66622e-09
1.75994e-09
1.8147e-09
1.60574e-09
2.65372e-09
3.1717e-09
3.72142e-09
5.29778e-09
5.58269e-09
3.67704e-09
1.47952e-09
1.00448e-09
4.66195e-10
3.3015e-10
1.0103e-09
1.502e-05
1.4886e-05
1.40747e-05
1.36912e-05
1.32295e-05
1.27978e-05
1.22902e-05
1.16918e-05
1.04571e-05
9.93919e-06
9.03529e-06
9.38809e-06
1.0601e-05
9.31595e-06
1.08016e-05
1.13032e-05
1.22854e-05
1.27562e-05
1.28607e-05
1.26541e-05
1.23723e-05
1.1969e-05
1.15532e-05
1.09405e-05
1.04721e-05
1.01321e-05
9.63478e-06
8.7297e-06
7.78915e-06
7.0787e-06
5.95898e-06
5.76766e-06
5.34988e-06
5.37029e-06
5.07054e-06
5.19872e-06
5.24271e-06
5.71631e-06
7.04626e-06
8.35765e-06
9.99861e-06
1.12916e-05
1.12673e-05
1.04538e-05
7.71075e-06
5.81605e-06
4.48189e-06
4.05992e-06
4.03954e-06
4.06745e-06
3.29316e-06
2.88866e-06
2.44998e-06
2.06452e-06
1.66736e-06
1.42245e-06
1.33495e-06
1.39437e-06
1.53674e-06
1.6761e-06
1.81408e-06
1.81949e-06
1.8327e-06
1.69759e-06
1.60297e-06
1.48679e-06
1.4462e-06
1.39231e-06
1.42023e-06
1.54447e-06
1.80406e-06
2.3752e-06
4.03755e-06
5.10851e-06
2.00542e-06
2.04639e-06
2.0983e-06
2.03279e-06
1.89812e-06
1.71891e-06
1.5576e-06
1.40167e-06
1.26595e-06
1.17368e-06
1.10694e-06
1.07242e-06
1.04856e-06
1.08946e-06
1.2115e-06
1.391e-06
1.57359e-06
1.75965e-06
1.81718e-06
1.90187e-06
1.97949e-06
2.02252e-06
2.07016e-06
2.07955e-06
2.09107e-06
2.12006e-06
2.21497e-06
2.12261e-06
1.86083e-06
1.59243e-06
3.77793e-07
4.69572e-07
5.74522e-07
6.35282e-07
6.71283e-07
1.01418e-06
1.10153e-06
1.1549e-06
1.14822e-06
1.1941e-06
1.26606e-06
1.25197e-06
1.29071e-06
1.36185e-06
1.43916e-06
1.49172e-06
1.65147e-06
1.64429e-06
1.72169e-06
1.68835e-06
1.64744e-06
1.61068e-06
1.73283e-06
1.56913e-06
1.22205e-06
9.8005e-07
6.44091e-07
6.08064e-07
5.84702e-07
6.27822e-07
7.09753e-08
7.05987e-08
1.08784e-07
1.18929e-07
1.03717e-07
9.37037e-08
8.40618e-08
9.73231e-08
1.10434e-07
1.17402e-07
1.27902e-07
1.36186e-07
1.42424e-07
1.45662e-07
1.47217e-07
1.46267e-07
1.44264e-07
1.43784e-07
1.40628e-07
1.39458e-07
1.34393e-07
1.36843e-07
1.32134e-07
1.28878e-07
1.22523e-07
1.19977e-07
1.32711e-07
1.56676e-07
1.71009e-07
1.5469e-07
9.63871e-07
8.63415e-07
3.42773e-07
2.97818e-07
1.71567e-07
8.79422e-08
1.18658e-07
1.74396e-07
2.25842e-07
2.99524e-07
2.94553e-07
3.19947e-07
2.98556e-07
2.92543e-07
2.86826e-07
2.5437e-07
2.53767e-07
2.3842e-07
2.33205e-07
2.35325e-07
2.52343e-07
2.62767e-07
2.82657e-07
5.86056e-07
1.52902e-06
5.1215e-06
5.86266e-06
5.1119e-06
4.58593e-06
4.84272e-06
1.02429e-07
7.64148e-08
7.67375e-08
7.97846e-08
8.16655e-08
8.00915e-08
7.65227e-08
7.35923e-08
6.7496e-08
7.40411e-08
6.94373e-08
6.63484e-08
7.18346e-08
7.3027e-08
6.38029e-08
7.48083e-08
8.82994e-08
9.48149e-08
9.61819e-08
1.07537e-07
1.21449e-07
1.50404e-07
2.57794e-07
1.82558e-07
1.03719e-07
1.39245e-07
1.30644e-07
1.19226e-07
1.1529e-07
1.25008e-07
3.22103e-07
3.26966e-07
3.3262e-07
3.41683e-07
3.73037e-07
3.8922e-07
3.87341e-07
4.02475e-07
3.81057e-07
3.79928e-07
3.75673e-07
3.62189e-07
3.51791e-07
3.26225e-07
2.93707e-07
2.97903e-07
3.02159e-07
2.53255e-07
7.03682e-08
2.1905e-08
2.62395e-08
3.31454e-08
3.47118e-08
3.54063e-08
3.87049e-08
3.22779e-08
4.81751e-08
4.88374e-08
3.7039e-08
3.18245e-08
2.44298e-07
1.11761e-07
1.12691e-07
1.32041e-07
1.85877e-07
2.72734e-07
2.89167e-07
3.16521e-07
3.05285e-07
3.05637e-07
3.09771e-07
3.00612e-07
3.0683e-07
3.10005e-07
3.1671e-07
3.15273e-07
3.3235e-07
3.07119e-07
2.83922e-07
2.66767e-07
1.26746e-07
5.72065e-08
5.80968e-08
6.90778e-08
7.30754e-08
7.42716e-08
7.66834e-08
7.70953e-08
6.01709e-08
6.86931e-08
4.56399e-08
4.6286e-08
3.82685e-08
4.13477e-08
4.67231e-08
5.61379e-08
5.98882e-08
6.25398e-08
6.23154e-08
6.37483e-08
6.09607e-08
6.20254e-08
6.04589e-08
5.44486e-08
5.45006e-08
5.41068e-08
5.41109e-08
4.50211e-08
2.27383e-08
1.41002e-08
9.83636e-09
1.14543e-08
1.4348e-08
1.73315e-08
1.98948e-08
2.13145e-08
2.14857e-08
2.09212e-08
1.72034e-08
1.36275e-08
2.53536e-08
3.57531e-08
3.94908e-08
3.97392e-08
3.46491e-08
3.10039e-08
2.38921e-08
2.86258e-08
2.2713e-08
2.6175e-08
2.85196e-08
2.93457e-08
2.74784e-08
2.47297e-08
2.73631e-08
2.61365e-08
2.51481e-08
2.48546e-08
2.0034e-08
2.04926e-08
2.76377e-08
2.72082e-08
2.92158e-08
2.94062e-08
3.62376e-08
3.84207e-08
3.98371e-08
4.06441e-08
4.0334e-08
3.59514e-08
6.88626e-09
5.79332e-09
3.827e-09
4.09075e-09
2.88807e-08
4.22659e-06
5.90004e-08
1.834e-09
1.20625e-09
1.47619e-09
1.50404e-09
1.2973e-09
1.31161e-09
1.25277e-09
1.357e-09
1.30142e-09
1.33371e-09
1.50848e-09
1.38136e-09
1.48095e-09
1.55311e-09
2.01905e-09
3.87003e-09
8.09232e-09
6.35491e-09
1.76544e-09
7.69415e-10
3.57503e-10
3.34628e-10
1.48338e-09
1.50533e-05
1.49487e-05
1.48599e-05
1.44739e-05
1.39979e-05
1.35545e-05
1.27656e-05
1.23757e-05
1.18273e-05
1.10482e-05
9.60858e-06
8.73401e-06
9.46031e-06
9.33697e-06
1.07707e-05
1.14528e-05
1.25616e-05
1.29035e-05
1.26532e-05
1.22378e-05
1.18617e-05
1.15139e-05
1.13561e-05
1.12317e-05
1.11792e-05
1.10318e-05
1.04816e-05
9.56268e-06
8.29348e-06
7.71401e-06
7.57171e-06
7.71722e-06
7.78198e-06
7.78658e-06
7.39899e-06
6.85044e-06
5.71497e-06
5.38161e-06
5.4013e-06
6.58964e-06
8.30854e-06
1.03736e-05
1.14171e-05
1.09085e-05
7.60676e-06
5.64197e-06
4.63243e-06
4.68705e-06
5.07431e-06
4.84626e-06
3.24482e-06
2.41816e-06
2.02412e-06
1.80111e-06
1.45967e-06
1.37122e-06
1.59677e-06
2.11658e-06
2.66617e-06
3.07989e-06
3.36728e-06
3.98683e-06
3.96427e-06
3.29758e-06
3.05114e-06
2.68526e-06
2.28329e-06
1.87009e-06
1.60772e-06
1.51966e-06
1.65738e-06
2.0328e-06
2.90054e-06
4.85292e-06
2.01402e-06
2.08758e-06
2.078e-06
1.88385e-06
1.65868e-06
1.44044e-06
1.29065e-06
1.19115e-06
1.13871e-06
1.10802e-06
1.05095e-06
9.62743e-07
6.58142e-07
9.9961e-07
1.32978e-06
1.73403e-06
2.0819e-06
2.30571e-06
2.41048e-06
2.55282e-06
2.56147e-06
2.55063e-06
2.53464e-06
2.45433e-06
2.34142e-06
2.23632e-06
2.19164e-06
2.18625e-06
2.02143e-06
1.74411e-06
3.65525e-07
4.89115e-07
6.11365e-07
6.61554e-07
9.95268e-07
1.03569e-06
1.06703e-06
1.11285e-06
1.12038e-06
1.1387e-06
1.18308e-06
1.178e-06
1.35538e-06
1.39867e-06
1.53463e-06
1.61402e-06
1.80099e-06
1.81123e-06
1.98833e-06
1.89268e-06
1.88072e-06
1.70166e-06
1.68055e-06
1.54755e-06
1.26032e-06
1.15541e-06
1.07768e-06
6.40581e-07
5.0754e-07
4.38532e-07
6.99826e-08
7.74042e-08
1.12312e-07
1.07385e-07
8.74539e-08
7.79455e-08
9.46608e-08
1.12764e-07
1.16517e-07
1.24982e-07
1.31132e-07
1.3717e-07
1.43816e-07
1.4918e-07
1.48035e-07
1.49128e-07
1.52024e-07
1.52974e-07
1.52099e-07
1.52247e-07
1.55446e-07
1.52231e-07
1.54859e-07
1.44453e-07
1.303e-07
1.25445e-07
1.24883e-07
1.38821e-07
1.55315e-07
1.55903e-07
8.34421e-07
3.51302e-07
2.95147e-07
1.05663e-07
1.06901e-07
1.27542e-07
2.2645e-07
3.6096e-07
4.12064e-07
7.00622e-07
7.18859e-07
6.77837e-07
5.18785e-07
3.56986e-07
3.43408e-07
3.17844e-07
2.98975e-07
2.87532e-07
2.73731e-07
2.50386e-07
2.38506e-07
2.52858e-07
2.65445e-07
3.97652e-07
8.26715e-07
2.66758e-06
5.30519e-06
4.91927e-06
3.19055e-06
3.64275e-06
5.69541e-08
7.19047e-08
8.06192e-08
8.23493e-08
8.02335e-08
7.56426e-08
6.99292e-08
6.44043e-08
5.7363e-08
5.50707e-08
5.71906e-08
5.76074e-08
5.27292e-08
5.28833e-08
5.83582e-08
6.61276e-08
6.8681e-08
7.71897e-08
9.39581e-08
9.38105e-08
1.05936e-07
1.26764e-07
1.79566e-07
2.12953e-07
2.15294e-07
2.1757e-07
1.29182e-07
1.32504e-07
1.14423e-07
1.11258e-07
3.29059e-07
3.31517e-07
3.4829e-07
3.88108e-07
4.46692e-07
4.86479e-07
8.32189e-07
9.74536e-07
1.03583e-06
1.13702e-06
1.13112e-06
1.01321e-06
8.31306e-07
5.9811e-07
3.87452e-07
3.52581e-07
3.13298e-07
3.09889e-07
1.8138e-07
4.20559e-08
2.78403e-08
3.46059e-08
3.43467e-08
3.30561e-08
3.64144e-08
3.89009e-08
6.32945e-08
8.08998e-08
7.74651e-08
5.07499e-08
3.1456e-07
1.16272e-07
1.33567e-07
1.87403e-07
2.72913e-07
2.9292e-07
3.20685e-07
3.31731e-07
4.67521e-07
5.92663e-07
7.62311e-07
8.01989e-07
8.57416e-07
8.61558e-07
8.42804e-07
7.86403e-07
6.62371e-07
3.64144e-07
3.44959e-07
3.02458e-07
1.90142e-07
8.68472e-08
5.73886e-08
6.01776e-08
6.07136e-08
6.57139e-08
7.44338e-08
7.43838e-08
5.28239e-08
5.3094e-08
4.44782e-08
3.92569e-08
4.93522e-08
6.11233e-08
7.81082e-08
8.31144e-08
8.73748e-08
1.23399e-07
1.32712e-07
1.26277e-07
1.16487e-07
1.25199e-07
8.22441e-08
6.35532e-08
7.101e-08
6.58198e-08
5.5999e-08
5.17352e-08
3.17755e-08
1.79126e-08
8.74005e-09
9.31739e-09
1.24845e-08
1.70668e-08
2.15075e-08
2.18847e-08
2.16044e-08
2.1664e-08
2.03371e-08
1.44033e-08
2.08993e-08
3.03597e-08
3.7026e-08
3.711e-08
3.60988e-08
2.64236e-08
2.33847e-08
2.28749e-08
3.42163e-08
4.00164e-08
4.08357e-08
3.84208e-08
3.2997e-08
3.56166e-08
2.63147e-08
1.76723e-08
2.19102e-08
1.94503e-08
2.25575e-08
3.2456e-08
3.47018e-08
3.80946e-08
4.17185e-08
3.91392e-08
3.80228e-08
3.78668e-08
3.71744e-08
3.71897e-08
3.83071e-08
3.57394e-08
1.55537e-08
1.32504e-08
6.89913e-09
8.89327e-09
1.70474e-07
6.3259e-08
2.74773e-09
1.18669e-09
1.17209e-09
1.42157e-09
1.58673e-09
1.3726e-09
1.44754e-09
1.53381e-09
1.55522e-09
1.43684e-09
1.23114e-09
1.29056e-09
1.09033e-09
1.40986e-09
1.36123e-09
1.31291e-09
1.81446e-09
5.99128e-09
7.75717e-09
1.32297e-09
5.97275e-10
3.43283e-10
3.80177e-10
3.24157e-09
1.52871e-05
1.56575e-05
1.50365e-05
1.43053e-05
1.35639e-05
1.24786e-05
1.22316e-05
1.22164e-05
1.20972e-05
1.15844e-05
1.00573e-05
9.15726e-06
9.02359e-06
9.25844e-06
1.08052e-05
1.15507e-05
1.26571e-05
1.28014e-05
1.23677e-05
1.21125e-05
1.18873e-05
1.19133e-05
1.18915e-05
1.20136e-05
1.21318e-05
1.20384e-05
1.1004e-05
9.73248e-06
8.74505e-06
9.04397e-06
1.00406e-05
1.07254e-05
1.11226e-05
1.12728e-05
1.10151e-05
1.03941e-05
8.96097e-06
7.4691e-06
5.89568e-06
5.7246e-06
7.16123e-06
9.57839e-06
1.12823e-05
1.1202e-05
7.56094e-06
5.67186e-06
4.9907e-06
5.46371e-06
5.79793e-06
4.7919e-06
2.52808e-06
1.65458e-06
1.5005e-06
1.60883e-06
1.42847e-06
1.61136e-06
2.27684e-06
3.15898e-06
4.60658e-06
5.27323e-06
5.55325e-06
5.62367e-06
5.57644e-06
5.42986e-06
5.16843e-06
4.69469e-06
3.95411e-06
2.83021e-06
2.22956e-06
1.74937e-06
1.67396e-06
1.89482e-06
2.54972e-06
4.5396e-06
2.02655e-06
2.11374e-06
2.03071e-06
1.70937e-06
1.43612e-06
1.268e-06
1.22916e-06
1.31373e-06
1.38686e-06
1.40795e-06
1.30428e-06
1.08307e-06
6.46725e-07
1.01143e-06
1.5266e-06
2.06235e-06
2.45213e-06
2.65965e-06
3.43201e-06
3.64695e-06
3.74854e-06
3.79723e-06
3.6448e-06
3.40374e-06
2.65e-06
2.42666e-06
2.26124e-06
2.19165e-06
2.10774e-06
1.83937e-06
4.49756e-07
6.02728e-07
6.61131e-07
9.27359e-07
9.27827e-07
9.03669e-07
8.8222e-07
9.08924e-07
9.4719e-07
1.05524e-06
1.20918e-06
1.37439e-06
1.55517e-06
1.68962e-06
1.77387e-06
1.94407e-06
2.01334e-06
2.08099e-06
2.18924e-06
2.10458e-06
2.11742e-06
1.84808e-06
1.68488e-06
1.58744e-06
1.32825e-06
1.4116e-06
1.72596e-06
1.36328e-06
5.88245e-07
4.05832e-07
7.99211e-08
9.04619e-08
1.19491e-07
1.00302e-07
8.11888e-08
8.35467e-08
1.03434e-07
1.13226e-07
1.17409e-07
1.19616e-07
1.25396e-07
1.28616e-07
1.3868e-07
1.48406e-07
1.49932e-07
1.53574e-07
1.5567e-07
1.53842e-07
1.643e-07
1.56647e-07
1.63507e-07
1.61709e-07
1.64643e-07
1.53658e-07
1.50835e-07
1.28428e-07
1.25962e-07
1.30565e-07
1.48716e-07
1.53081e-07
6.49081e-07
2.97799e-07
2.21357e-07
7.16218e-08
1.00221e-07
1.92695e-07
3.71643e-07
7.13209e-07
9.40194e-07
9.0264e-07
6.56344e-07
3.77603e-07
3.69009e-07
3.29583e-07
3.12346e-07
2.98301e-07
3.05755e-07
2.90075e-07
2.91972e-07
2.78696e-07
2.55657e-07
2.40974e-07
2.56952e-07
2.73162e-07
5.31259e-07
1.25933e-06
3.66673e-06
4.62123e-06
2.75096e-06
2.78402e-06
6.72585e-08
8.41538e-08
8.26793e-08
7.89716e-08
7.47484e-08
6.93732e-08
6.18203e-08
5.36541e-08
4.52293e-08
3.66601e-08
4.53443e-08
4.02815e-08
4.13603e-08
3.21701e-08
4.08786e-08
4.43736e-08
5.52695e-08
6.49071e-08
7.96622e-08
9.45916e-08
9.58915e-08
1.11999e-07
1.44171e-07
2.04774e-07
2.27726e-07
2.39766e-07
1.4516e-07
1.41371e-07
1.33984e-07
1.16171e-07
3.22281e-07
3.3349e-07
3.88093e-07
4.59644e-07
8.28509e-07
1.16568e-06
1.42525e-06
1.67261e-06
1.73936e-06
1.83768e-06
1.826e-06
1.76294e-06
1.59784e-06
1.29899e-06
8.85562e-07
4.35065e-07
3.56285e-07
3.22929e-07
3.21716e-07
1.04949e-07
3.32506e-08
3.36226e-08
3.43841e-08
3.40775e-08
3.9592e-08
6.31209e-08
9.02675e-08
1.00001e-07
9.62688e-08
6.31736e-08
3.26354e-07
1.33421e-07
1.67276e-07
2.67507e-07
3.02055e-07
3.1697e-07
3.38792e-07
6.47434e-07
8.91682e-07
1.14534e-06
1.23656e-06
1.37533e-06
1.38927e-06
1.42155e-06
1.37076e-06
1.25468e-06
1.06039e-06
8.39773e-07
5.48415e-07
3.4907e-07
2.6041e-07
1.18807e-07
7.29495e-08
5.78831e-08
5.83614e-08
7.07683e-08
8.04237e-08
7.04655e-08
5.72705e-08
4.33917e-08
3.725e-08
5.19139e-08
7.11682e-08
9.22841e-08
1.38461e-07
1.76538e-07
2.28532e-07
2.45206e-07
2.54705e-07
3.22693e-07
3.74689e-07
2.37998e-07
1.9949e-07
1.65845e-07
1.3496e-07
7.56912e-08
6.888e-08
5.59421e-08
4.65926e-08
2.32691e-08
9.85658e-09
8.53433e-09
1.12485e-08
1.94712e-08
2.16752e-08
2.12347e-08
2.11293e-08
2.03667e-08
2.13718e-08
1.52017e-08
1.82951e-08
2.99458e-08
3.6072e-08
3.53577e-08
2.6247e-08
2.46329e-08
2.96547e-08
3.34809e-08
4.70915e-08
4.11266e-08
4.14662e-08
4.83841e-08
3.85643e-08
3.83406e-08
3.4094e-08
2.90486e-08
2.0764e-08
2.96376e-08
3.4505e-08
4.13097e-08
5.0125e-08
5.69969e-08
5.36628e-08
5.48138e-08
4.8324e-08
4.1815e-08
3.74472e-08
3.43478e-08
3.55454e-08
3.49609e-08
1.62691e-08
1.3529e-08
3.80319e-08
8.33699e-08
3.99096e-08
3.21616e-09
1.06945e-09
1.13796e-09
1.41811e-09
1.54655e-09
1.84754e-09
2.22245e-09
2.4799e-09
2.54089e-09
2.54513e-09
1.99907e-09
1.65178e-09
1.45333e-09
1.31703e-09
1.45625e-09
1.31278e-09
1.2222e-09
1.15737e-09
2.36984e-09
1.06914e-08
3.7145e-09
8.07791e-10
4.37994e-10
7.50562e-10
1.84251e-08
1.60828e-05
1.5421e-05
1.48638e-05
1.31903e-05
1.12948e-05
1.07942e-05
1.09208e-05
1.13603e-05
1.23661e-05
1.20717e-05
1.11305e-05
9.31929e-06
8.81036e-06
9.10032e-06
1.06831e-05
1.14486e-05
1.263e-05
1.26908e-05
1.23375e-05
1.21862e-05
1.21453e-05
1.20959e-05
1.22515e-05
1.27085e-05
1.2887e-05
1.19738e-05
1.06885e-05
9.07025e-06
9.37535e-06
1.07493e-05
1.17797e-05
1.27393e-05
1.29076e-05
1.31276e-05
1.28674e-05
1.24401e-05
1.15499e-05
1.01189e-05
7.91431e-06
6.20409e-06
6.88944e-06
8.65751e-06
1.10202e-05
1.12401e-05
7.58987e-06
5.82614e-06
5.34136e-06
6.06511e-06
6.28634e-06
4.32367e-06
1.87999e-06
9.99742e-07
1.08846e-06
1.45559e-06
1.46993e-06
1.8443e-06
2.93978e-06
4.77706e-06
5.67862e-06
5.9812e-06
5.98447e-06
5.853e-06
5.74237e-06
5.68534e-06
5.63674e-06
5.53151e-06
5.15243e-06
4.34399e-06
2.96367e-06
2.26926e-06
1.86519e-06
1.89255e-06
2.37644e-06
4.29066e-06
2.03402e-06
2.12704e-06
1.98075e-06
1.55622e-06
1.23899e-06
1.14493e-06
1.27975e-06
1.53866e-06
1.72622e-06
1.76922e-06
1.6394e-06
1.31037e-06
9.54231e-07
1.01464e-06
1.64297e-06
2.27366e-06
2.63885e-06
3.44023e-06
3.909e-06
4.03107e-06
4.19017e-06
4.19442e-06
4.16626e-06
3.94668e-06
3.54806e-06
2.62996e-06
2.36164e-06
2.22174e-06
2.14417e-06
1.88532e-06
5.9824e-07
6.61319e-07
6.70271e-07
6.45883e-07
6.18113e-07
5.97778e-07
6.01403e-07
5.98056e-07
1.04433e-06
1.26469e-06
1.69162e-06
1.91834e-06
2.21667e-06
2.34594e-06
2.46781e-06
2.45312e-06
2.48247e-06
2.40982e-06
2.45901e-06
2.3695e-06
2.35389e-06
2.04009e-06
1.76637e-06
1.55851e-06
1.30369e-06
1.48967e-06
1.94078e-06
1.91719e-06
1.09759e-06
4.73809e-07
8.09512e-08
9.70698e-08
1.11649e-07
9.04394e-08
7.29369e-08
8.8734e-08
9.9689e-08
1.04961e-07
1.06277e-07
1.09912e-07
1.15795e-07
1.27919e-07
1.36448e-07
1.49669e-07
1.53279e-07
1.51376e-07
1.56963e-07
1.59608e-07
1.63988e-07
1.58974e-07
1.61988e-07
1.66717e-07
1.65953e-07
1.68692e-07
1.56551e-07
1.41554e-07
1.31818e-07
1.27274e-07
1.41246e-07
1.49368e-07
4.89192e-07
2.55892e-07
9.28178e-08
6.48939e-08
1.18168e-07
2.4665e-07
3.93626e-07
8.77095e-07
9.31019e-07
7.73583e-07
3.941e-07
3.63458e-07
3.07672e-07
2.61601e-07
2.30982e-07
2.12009e-07
2.23478e-07
2.57663e-07
2.65893e-07
2.76032e-07
2.63556e-07
2.45641e-07
2.54839e-07
2.65419e-07
5.05149e-07
8.79343e-07
1.71194e-06
3.36942e-06
2.42099e-06
1.70877e-06
7.82031e-08
8.19671e-08
7.84403e-08
7.58599e-08
7.13564e-08
6.41431e-08
5.43619e-08
4.62405e-08
3.32375e-08
3.96826e-08
3.8197e-08
3.74419e-08
3.6976e-08
3.62875e-08
4.14312e-08
4.09106e-08
5.48827e-08
5.36035e-08
6.6712e-08
8.46192e-08
9.94483e-08
1.02509e-07
1.2729e-07
1.59278e-07
2.30835e-07
2.28748e-07
1.51828e-07
1.44186e-07
1.41262e-07
1.19374e-07
3.09822e-07
3.54909e-07
4.40486e-07
7.85e-07
1.25272e-06
1.55623e-06
1.90058e-06
2.15915e-06
2.23858e-06
2.84847e-06
2.86078e-06
2.78802e-06
2.20237e-06
1.90535e-06
1.51762e-06
1.01395e-06
4.28617e-07
3.65776e-07
3.54588e-07
2.09046e-07
4.10401e-08
3.56482e-08
3.74468e-08
3.69067e-08
4.20042e-08
8.84741e-08
1.08827e-07
1.15882e-07
1.22831e-07
7.92071e-08
3.57943e-07
1.39229e-07
2.20499e-07
2.77172e-07
3.03074e-07
3.38338e-07
7.12694e-07
1.0756e-06
1.38279e-06
1.58218e-06
1.76385e-06
1.83193e-06
1.8553e-06
1.79539e-06
1.764e-06
1.65919e-06
1.47296e-06
1.2333e-06
9.06792e-07
3.83534e-07
3.21333e-07
1.4802e-07
9.89851e-08
7.55193e-08
6.9355e-08
8.19616e-08
7.5738e-08
5.57903e-08
4.61955e-08
3.38768e-08
5.05324e-08
7.31158e-08
9.92766e-08
1.74667e-07
2.29171e-07
2.89388e-07
7.29454e-07
1.06729e-06
1.29231e-06
1.40171e-06
1.27928e-06
1.09196e-06
8.56304e-07
4.75226e-07
2.1002e-07
1.58175e-07
7.89311e-08
6.7119e-08
5.30027e-08
2.95967e-08
1.58976e-08
8.47121e-09
1.21862e-08
2.00838e-08
2.15747e-08
2.05775e-08
2.02825e-08
1.90845e-08
2.02717e-08
1.64465e-08
1.71359e-08
3.01785e-08
3.19656e-08
3.17942e-08
3.15868e-08
2.55289e-08
3.475e-08
4.55503e-08
5.99051e-08
5.42474e-08
5.36454e-08
4.26447e-08
4.18007e-08
3.93587e-08
4.24176e-08
3.24172e-08
2.08091e-08
2.96155e-08
4.34163e-08
5.06211e-08
4.63051e-08
1.21839e-07
1.54039e-07
1.4316e-07
8.87892e-08
5.037e-08
3.85728e-08
3.28819e-08
3.38081e-08
3.38704e-08
1.66317e-08
2.7396e-08
1.1733e-07
3.65319e-08
5.89067e-09
1.16225e-09
8.86716e-10
1.39162e-09
1.58131e-09
2.11499e-09
2.72391e-09
3.42449e-09
4.37834e-09
5.10197e-09
4.13705e-09
3.27776e-09
2.64327e-09
1.57596e-09
1.38613e-09
1.09908e-09
1.27688e-09
1.21461e-09
1.05325e-09
1.05935e-09
8.22798e-09
8.64486e-09
2.34041e-09
1.09668e-09
3.0251e-09
4.11714e-07
1.59906e-05
1.52099e-05
1.40929e-05
1.12083e-05
1.0399e-05
1.03538e-05
1.05826e-05
1.12055e-05
1.20136e-05
1.25787e-05
1.15063e-05
9.47004e-06
8.52247e-06
8.94352e-06
1.07124e-05
1.13977e-05
1.2542e-05
1.25523e-05
1.22104e-05
1.21207e-05
1.20757e-05
1.21343e-05
1.26651e-05
1.27587e-05
1.1618e-05
1.08331e-05
9.62334e-06
9.02848e-06
1.05576e-05
1.21593e-05
1.30503e-05
1.34159e-05
1.35607e-05
1.33736e-05
1.32553e-05
1.30902e-05
1.27028e-05
1.164e-05
9.52185e-06
7.61241e-06
7.08967e-06
8.47271e-06
1.0862e-05
1.13932e-05
7.62975e-06
6.06509e-06
5.61858e-06
6.39221e-06
6.56131e-06
4.30134e-06
1.52201e-06
6.35183e-07
6.73238e-07
1.33695e-06
1.51044e-06
2.13585e-06
3.49232e-06
5.51002e-06
5.96491e-06
5.97233e-06
5.77811e-06
5.62007e-06
5.50187e-06
5.47471e-06
5.53113e-06
5.56102e-06
5.52452e-06
5.08783e-06
4.13458e-06
2.78863e-06
2.14895e-06
1.97441e-06
2.34322e-06
4.13875e-06
2.04078e-06
2.13271e-06
1.98761e-06
1.46333e-06
1.05959e-06
9.99695e-07
1.25713e-06
1.61385e-06
1.84976e-06
1.96871e-06
1.89996e-06
1.56003e-06
1.0325e-06
9.94818e-07
1.74131e-06
2.36071e-06
2.7192e-06
3.66852e-06
4.13519e-06
4.33554e-06
4.5427e-06
4.57923e-06
4.48221e-06
4.28003e-06
3.87119e-06
3.26596e-06
2.44002e-06
2.26121e-06
2.14205e-06
1.89673e-06
6.61851e-07
6.9376e-07
6.67437e-07
6.25744e-07
5.885e-07
5.72282e-07
5.87419e-07
8.31333e-07
1.28644e-06
1.7433e-06
2.28283e-06
2.56725e-06
2.84082e-06
2.92847e-06
2.99604e-06
2.9186e-06
2.98606e-06
2.79387e-06
2.79627e-06
2.60587e-06
2.55515e-06
2.2327e-06
1.8807e-06
1.58692e-06
1.3158e-06
1.4594e-06
1.84413e-06
2.11089e-06
1.74817e-06
6.32251e-07
8.01316e-08
1.04301e-07
1.16409e-07
8.45961e-08
7.17634e-08
8.85503e-08
9.69098e-08
9.93755e-08
1.00501e-07
1.02713e-07
1.10702e-07
1.23054e-07
1.35706e-07
1.48697e-07
1.55873e-07
1.58111e-07
1.67607e-07
1.65796e-07
1.71554e-07
1.65514e-07
1.60094e-07
1.68415e-07
1.65369e-07
1.66773e-07
1.66863e-07
1.51352e-07
1.29708e-07
1.28256e-07
1.3736e-07
1.46078e-07
3.37482e-07
1.69063e-07
4.62248e-08
6.20959e-08
1.15529e-07
2.45551e-07
3.7888e-07
8.75545e-07
8.73356e-07
6.74876e-07
3.92214e-07
3.35329e-07
2.51116e-07
2.31724e-07
1.76583e-07
1.51098e-07
1.59455e-07
1.80952e-07
2.31645e-07
2.65869e-07
2.7496e-07
2.54656e-07
2.58403e-07
2.62768e-07
4.74893e-07
6.94065e-07
1.26731e-06
1.7246e-06
1.62295e-06
1.43762e-06
7.31321e-08
7.44895e-08
7.62757e-08
7.44713e-08
6.80588e-08
5.86066e-08
4.89675e-08
3.73496e-08
3.97192e-08
3.6221e-08
3.31344e-08
3.01952e-08
3.01917e-08
3.04683e-08
3.60353e-08
3.73708e-08
4.53433e-08
4.42931e-08
5.46794e-08
7.57815e-08
9.5084e-08
9.50522e-08
1.17022e-07
1.45717e-07
1.86351e-07
1.58232e-07
1.44918e-07
1.49908e-07
1.61712e-07
1.38023e-07
3.15759e-07
3.83533e-07
4.76763e-07
1.02531e-06
1.53406e-06
1.82663e-06
2.26249e-06
3.01933e-06
3.40296e-06
3.71945e-06
3.78559e-06
3.6571e-06
3.42318e-06
2.41449e-06
2.05543e-06
1.43531e-06
8.26265e-07
4.05684e-07
3.7355e-07
3.21893e-07
7.99964e-08
3.60529e-08
3.68079e-08
3.89805e-08
8.56575e-08
1.11079e-07
1.14019e-07
1.16407e-07
1.24335e-07
9.97724e-08
3.1386e-07
1.54742e-07
2.56209e-07
2.99397e-07
3.21469e-07
6.38824e-07
1.0288e-06
1.45346e-06
1.69916e-06
2.3503e-06
2.54066e-06
2.58633e-06
2.61354e-06
2.68866e-06
2.56974e-06
2.36339e-06
1.77789e-06
1.4883e-06
1.12934e-06
6.96972e-07
3.38495e-07
2.11149e-07
1.25923e-07
1.02782e-07
9.70777e-08
8.74646e-08
5.82871e-08
3.7991e-08
4.32738e-08
4.60868e-08
6.8123e-08
9.85947e-08
1.48954e-07
2.34616e-07
4.69304e-07
1.00818e-06
1.54981e-06
2.46257e-06
3.20934e-06
3.25739e-06
3.1989e-06
2.66093e-06
1.52832e-06
1.19404e-06
7.17735e-07
2.34209e-07
1.50763e-07
5.66015e-08
6.20064e-08
4.32774e-08
2.02763e-08
1.31305e-08
1.59089e-08
2.07679e-08
2.14849e-08
2.05641e-08
1.55102e-08
1.90321e-08
1.95263e-08
1.81047e-08
1.63315e-08
3.0496e-08
3.41428e-08
3.45307e-08
2.70552e-08
2.41018e-08
4.03877e-08
5.70798e-08
6.64486e-08
7.81048e-08
7.2473e-08
6.92956e-08
3.91721e-08
3.49028e-08
4.07815e-08
3.74567e-08
1.90351e-08
2.99297e-08
4.72994e-08
5.45917e-08
9.08683e-08
1.48188e-07
2.06682e-07
1.98273e-07
1.45921e-07
5.6126e-08
3.83874e-08
3.14464e-08
3.29316e-08
3.28566e-08
1.45191e-08
1.60967e-08
4.64166e-08
1.04539e-08
1.53169e-09
9.07057e-10
1.18879e-09
1.41053e-09
2.17143e-09
2.85457e-09
4.70765e-09
7.78446e-09
9.98918e-09
1.13256e-08
9.58416e-09
6.47582e-09
3.68166e-09
2.29148e-09
1.57701e-09
9.83756e-10
1.19324e-09
1.16464e-09
1.05972e-09
9.4282e-10
3.23022e-09
1.84009e-08
8.03414e-09
5.41464e-09
2.89153e-08
5.33796e-06
1.59323e-05
1.51025e-05
1.27198e-05
1.04506e-05
1.02145e-05
1.00715e-05
1.02711e-05
1.12599e-05
1.30394e-05
1.31115e-05
1.18166e-05
9.67518e-06
8.5234e-06
8.88895e-06
1.04459e-05
1.11224e-05
1.23778e-05
1.25144e-05
1.22319e-05
1.21419e-05
1.21245e-05
1.25017e-05
1.30039e-05
1.15161e-05
1.04614e-05
1.0159e-05
9.2506e-06
9.31194e-06
1.14108e-05
1.29394e-05
1.33952e-05
1.34896e-05
1.34372e-05
1.35417e-05
1.33253e-05
1.32836e-05
1.30535e-05
1.24449e-05
1.09048e-05
8.61028e-06
7.59822e-06
8.63685e-06
1.09358e-05
1.14385e-05
7.69135e-06
6.40789e-06
5.81492e-06
6.46827e-06
7.36876e-06
4.70983e-06
1.54702e-06
6.07805e-07
6.38483e-07
1.26766e-06
1.56089e-06
2.38766e-06
4.60616e-06
5.76025e-06
5.92341e-06
5.78614e-06
5.57511e-06
5.44677e-06
5.32909e-06
5.26128e-06
5.28793e-06
5.46571e-06
5.59942e-06
5.46483e-06
4.72803e-06
3.19459e-06
2.488e-06
2.13168e-06
2.35776e-06
4.0796e-06
2.0341e-06
2.14517e-06
2.04901e-06
1.49047e-06
9.6282e-07
6.20773e-07
1.01661e-06
1.41625e-06
1.77219e-06
1.97985e-06
2.02228e-06
1.7765e-06
1.15386e-06
9.7048e-07
1.72547e-06
2.38779e-06
3.24474e-06
3.76938e-06
4.22432e-06
4.5804e-06
4.58856e-06
4.60368e-06
4.56465e-06
4.40571e-06
4.09416e-06
3.404e-06
2.51359e-06
2.25788e-06
2.15266e-06
1.8684e-06
6.91231e-07
1.04183e-06
6.73995e-07
6.05829e-07
5.66702e-07
5.52109e-07
5.90785e-07
9.56915e-07
1.55844e-06
2.19262e-06
2.73426e-06
2.93961e-06
3.09988e-06
3.08115e-06
3.17321e-06
3.1285e-06
3.20329e-06
3.07521e-06
3.13836e-06
2.83645e-06
2.79974e-06
2.38491e-06
1.99422e-06
1.59793e-06
1.33234e-06
1.37384e-06
1.67111e-06
2.09072e-06
2.00474e-06
1.13792e-06
8.68212e-08
1.03545e-07
1.106e-07
7.89472e-08
7.19773e-08
8.22291e-08
9.01012e-08
9.31841e-08
9.28479e-08
9.67422e-08
1.03969e-07
1.20237e-07
1.32977e-07
1.43362e-07
1.53939e-07
1.53843e-07
1.56344e-07
1.62479e-07
1.82696e-07
1.78144e-07
1.78071e-07
1.62779e-07
1.73113e-07
1.75445e-07
1.60935e-07
1.50733e-07
1.33546e-07
1.30494e-07
1.35739e-07
1.48668e-07
3.05568e-07
1.04949e-07
4.78358e-08
5.13013e-08
9.81053e-08
1.68411e-07
3.29474e-07
8.08441e-07
8.26532e-07
6.92892e-07
3.62934e-07
3.05377e-07
2.26858e-07
1.75191e-07
1.40066e-07
1.43602e-07
1.22422e-07
1.30896e-07
2.02781e-07
2.42216e-07
2.6286e-07
2.51351e-07
2.6277e-07
2.65496e-07
4.96614e-07
6.62696e-07
1.00874e-06
1.33181e-06
1.3441e-06
1.11923e-06
6.1346e-08
5.08995e-08
7.46874e-08
7.20663e-08
6.47144e-08
5.44926e-08
4.45456e-08
4.10467e-08
3.69e-08
3.42112e-08
2.85794e-08
2.68392e-08