/*--------------------------------*- C++ -*----------------------------------*\
| =========                 |                                                 |
| \\      /  F ield         | OpenFOAM: The Open Source CFD Toolbox           |
|  \\    /   O peration     | Version:  2.1.1                                 |
|   \\  /    A nd           | Web:      www.OpenFOAM.org                      |
|    \\/     M anipulation  |                                                 |
\*---------------------------------------------------------------------------*/
FoamFile
{
    version     2.0;
    format      ascii;
    class       volScalarField;
    location    "0.006600000";
    object      O;
}
// * * * * * * * * * * * * * * * * * * * * * * * * * * * * * * * * * * * * * //

dimensions      [0 0 0 0 0 0 0];

internalField   nonuniform List<scalar> 
12384
(
0.00105828
0.00104802
0.00104742
0.00103892
0.00102325
0.00100425
0.000988407
0.000981659
0.000971783
0.000979616
0.000989144
0.000989652
0.000999456
0.000978311
0.000383975
0.00047402
0.000514663
0.000530975
0.000532259
0.000523165
0.000516036
0.000512375
0.000509333
0.000509151
0.000507955
0.000489335
0.000486984
0.000474493
0.000474222
0.000462027
0.000450054
0.000437783
0.000427731
0.000422726
0.000421818
0.000426008
0.000438793
0.000442915
0.000448314
0.000455863
0.000482454
0.000481719
0.000358172
0.00026639
0.000412117
0.000385494
0.000304337
0.000262383
0.000238611
0.000221974
0.000215047
0.000208695
0.000194465
0.000176232
0.000158266
0.00014143
0.000127286
0.000116437
0.000108318
0.000100712
9.57811e-05
0.000100202
0.000102338
9.46131e-05
9.75078e-05
9.40127e-05
9.69627e-05
0.000101412
0.000110209
0.00012604
0.000153413
0.000224966
0.000311234
0.000307746
0.000142206
0.000143642
0.000157341
0.000152213
0.00015527
0.000149381
0.000144564
0.000137887
0.0001302
0.000124775
0.000121138
0.000118931
0.000116993
0.000116215
0.000115754
0.000115265
0.000113957
0.000113433
0.000124849
0.0001182
0.000127303
0.000128576
0.000140654
0.000140428
0.000152297
0.000159818
0.000169714
0.000143876
0.000112433
0.000111141
5.94006e-05
7.0549e-05
7.71637e-05
8.18456e-05
8.54707e-05
8.79031e-05
8.79101e-05
6.28713e-05
7.59363e-05
7.37674e-05
7.11688e-05
8.01479e-05
7.88449e-05
8.30932e-05
9.0117e-05
8.59083e-05
0.000102849
0.000106199
0.000111853
0.000115787
0.000117094
0.000109917
0.000129019
0.000114472
0.000108981
0.000102384
8.77921e-05
8.62299e-05
9.80686e-05
0.000114369
1.10913e-05
1.01123e-05
1.6333e-05
2.0268e-05
2.05285e-05
1.91273e-05
1.77308e-05
1.74669e-05
1.78671e-05
1.89389e-05
2.01716e-05
1.91659e-05
2.00687e-05
2.0511e-05
2.04595e-05
2.00297e-05
2.11246e-05
2.06769e-05
2.0636e-05
1.95585e-05
2.06836e-05
2.00074e-05
2.07687e-05
1.93051e-05
2.10839e-05
2.05349e-05
2.58111e-05
1.52291e-05
1.79963e-05
2.85194e-05
5.62976e-05
6.89856e-05
5.72981e-05
3.06192e-05
4.41957e-05
3.95252e-05
3.19822e-05
2.99592e-05
2.93507e-05
2.90151e-05
3.17135e-05
3.08052e-05
2.95134e-05
2.91357e-05
2.69171e-05
2.84035e-05
2.81579e-05
2.90491e-05
2.98992e-05
3.08144e-05
3.24574e-05
3.53562e-05
2.34882e-05
5.50844e-05
0.000190327
0.00020516
0.000203305
0.000199913
0.000196702
0.000194664
3.54957e-05
2.4369e-05
1.92182e-05
1.61332e-05
1.55529e-05
1.51836e-05
1.43077e-05
1.40701e-05
1.30839e-05
1.39699e-05
1.42182e-05
1.22645e-05
1.32357e-05
1.31318e-05
1.30767e-05
1.3913e-05
1.55966e-05
1.64236e-05
1.82434e-05
1.95555e-05
2.23297e-05
2.66774e-05
3.24784e-05
2.42594e-05
1.91324e-05
1.18567e-05
9.72501e-06
2.47371e-05
1.12362e-05
1.57561e-05
4.26063e-05
3.04266e-05
3.01158e-05
3.76768e-05
3.26556e-05
3.47735e-05
3.09012e-05
3.54302e-05
3.09571e-05
3.45426e-05
2.97047e-05
3.13955e-05
3.58276e-05
3.15624e-05
3.34308e-05
3.57455e-05
3.82258e-05
2.15112e-05
5.99647e-06
3.86411e-06
3.85529e-06
4.973e-06
5.37526e-06
5.77061e-06
6.14875e-06
5.95785e-06
5.44702e-06
4.91572e-06
2.99789e-06
3.04086e-06
2.69363e-05
1.78703e-05
1.91849e-05
2.09363e-05
2.33757e-05
1.62303e-05
1.9532e-05
2.7247e-05
2.65467e-05
2.54225e-05
2.69209e-05
2.72663e-05
2.55921e-05
2.86335e-05
2.91563e-05
2.64628e-05
3.31231e-05
3.06872e-05
3.10188e-05
2.26067e-05
1.32407e-05
6.75512e-06
7.33217e-06
9.0419e-06
9.90475e-06
1.03967e-05
1.04233e-05
1.00752e-05
9.14515e-06
8.11217e-06
6.95104e-06
7.6475e-06
5.1291e-06
4.97488e-06
5.05071e-06
6.60749e-06
6.74571e-06
7.13258e-06
7.60597e-06
6.01069e-06
6.85203e-06
6.71139e-06
7.38765e-06
8.08859e-06
8.32324e-06
8.81171e-06
8.8695e-06
4.44164e-06
4.20796e-06
2.97948e-06
2.94964e-06
2.35195e-06
2.73741e-06
3.18154e-06
3.56172e-06
3.76569e-06
3.74564e-06
3.4699e-06
2.91664e-06
3.53157e-06
7.20503e-06
8.72319e-06
6.5221e-06
7.49412e-06
7.01839e-06
6.16143e-06
4.73081e-06
4.82668e-06
4.97453e-06
3.42566e-06
3.5836e-06
3.94484e-06
4.25573e-06
4.45473e-06
4.52302e-06
4.52044e-06
4.28682e-06
4.06981e-06
3.75861e-06
5.2978e-06
5.36894e-06
5.33003e-06
6.36692e-06
6.61982e-06
6.93865e-06
7.27542e-06
7.28851e-06
7.15164e-06
6.83557e-06
5.78759e-06
2.47986e-06
2.26552e-06
2.34442e-06
1.378e-06
3.2815e-06
0.000166386
0.000160072
2.21978e-06
3.28067e-07
4.79453e-07
5.56084e-07
5.67876e-07
5.60829e-07
5.74347e-07
5.26582e-07
5.81489e-07
5.92319e-07
6.11085e-07
3.64774e-07
7.58706e-07
9.19877e-07
1.08885e-06
1.27956e-06
1.36091e-06
1.07406e-06
3.1167e-07
3.09198e-07
1.58373e-07
1.33544e-07
3.01643e-07
0.00100359
0.00101232
0.000987111
0.000954159
0.000915329
0.000883301
0.000869321
0.000862768
0.000857379
0.000864267
0.000902395
0.000953507
0.000990283
0.000977313
0.000385825
0.000483855
0.000542945
0.000543893
0.000521718
0.000507592
0.000499472
0.000502675
0.000494297
0.000474701
0.000464405
0.000456351
0.000451022
0.000435786
0.000411053
0.000391917
0.000361198
0.000353097
0.000334346
0.000335751
0.000316338
0.000323313
0.000323915
0.000349609
0.000386832
0.000427326
0.000456463
0.000492047
0.000419451
0.000329925
0.000412579
0.000368055
0.00029769
0.000263067
0.000264334
0.000263701
0.000252223
0.000217333
0.000186394
0.000154424
0.00012186
0.000102131
9.54801e-05
0.000101091
0.000113458
0.000125167
0.00013703
0.000136768
0.000137349
0.000125172
0.000116514
0.000106279
0.000108084
0.000102426
0.000103424
0.000112316
0.000132745
0.000176468
0.000265142
0.000325101
0.000143763
0.000150705
0.000152533
0.000147908
0.000142507
0.000127035
0.000113354
0.000100238
8.94042e-05
8.2369e-05
7.73968e-05
7.51077e-05
7.33083e-05
7.62113e-05
8.4989e-05
9.81641e-05
0.000111334
0.000130986
0.000133346
0.00013971
0.000145552
0.000148775
0.00015344
0.000155425
0.000157841
0.000157184
0.000168316
0.000159131
0.000137137
0.000113757
4.63413e-05
5.83368e-05
7.33772e-05
8.12804e-05
8.54948e-05
7.52031e-05
8.0519e-05
8.3449e-05
8.13079e-05
8.93432e-05
9.56993e-05
9.29786e-05
9.64969e-05
0.000103095
0.000110165
0.000111351
0.000126523
0.000123024
0.000125385
0.000126331
0.000121267
0.00011534
0.000127752
0.000111649
8.3456e-05
6.51052e-05
7.91932e-05
7.46438e-05
7.17077e-05
7.73798e-05
1.18821e-05
1.17498e-05
1.89532e-05
2.0794e-05
1.77601e-05
1.6525e-05
1.41043e-05
1.68297e-05
1.94801e-05
2.01189e-05
2.21897e-05
2.38392e-05
2.51069e-05
2.57974e-05
2.61709e-05
2.606e-05
2.57483e-05
2.57286e-05
2.51665e-05
2.49607e-05
2.31499e-05
2.44184e-05
2.25183e-05
2.25676e-05
2.10822e-05
2.03748e-05
2.28536e-05
2.76582e-05
2.97134e-05
2.67325e-05
5.49098e-05
5.1185e-05
4.20521e-05
3.59687e-05
1.83254e-05
5.81314e-06
1.02758e-05
1.75589e-05
2.40098e-05
3.591e-05
3.46734e-05
3.82696e-05
3.66385e-05
3.72658e-05
3.63968e-05
3.19041e-05
3.17764e-05
2.96113e-05
2.88444e-05
2.89734e-05
3.22666e-05
3.32667e-05
3.56998e-05
3.26317e-05
0.000105778
0.00019711
0.000202859
0.00019321
0.000186937
0.000185297
1.77432e-05
1.27763e-05
1.31025e-05
1.37437e-05
1.41026e-05
1.37769e-05
1.30745e-05
1.24821e-05
1.12745e-05
1.31165e-05
1.22212e-05
1.16244e-05
1.26916e-05
1.29318e-05
1.05368e-05
1.19797e-05
1.53294e-05
1.5875e-05
1.53292e-05
1.76139e-05
2.03353e-05
2.54934e-05
3.03218e-05
1.92908e-05
8.59679e-06
2.45422e-05
2.21396e-05
2.01044e-05
1.95178e-05
2.15088e-05
3.92261e-05
3.99036e-05
4.03502e-05
4.12038e-05
4.71985e-05
4.92007e-05
5.02117e-05
5.21318e-05
4.89055e-05
4.86905e-05
4.95619e-05
4.62717e-05
4.51162e-05
4.18324e-05
3.60492e-05
3.70663e-05
3.80707e-05
3.14183e-05
1.16222e-05
4.53334e-06
5.5451e-06
7.19343e-06
7.59293e-06
7.78591e-06
8.60944e-06
4.55421e-06
7.64736e-06
7.65095e-06
5.72943e-06
7.0869e-06
2.89151e-05
1.95697e-05
1.9395e-05
2.30106e-05
2.07017e-05
3.35826e-05
3.50726e-05
3.99934e-05
3.79489e-05
3.90634e-05
3.94642e-05
3.79146e-05
3.99319e-05
4.03957e-05
4.03267e-05
3.9016e-05
4.19992e-05
3.73225e-05
3.29584e-05
3.17643e-05
2.18313e-05
8.46932e-06
8.74935e-06
1.08659e-05
1.16034e-05
1.18259e-05
1.23446e-05
1.2546e-05
8.58797e-06
1.10218e-05
6.69366e-06
7.01815e-06
5.08257e-06
5.82699e-06
6.84944e-06
9.18939e-06
9.80418e-06
1.07346e-05
1.06276e-05
1.12936e-05
1.07292e-05
1.09254e-05
1.06516e-05
9.0742e-06
9.13963e-06
9.13554e-06
9.2375e-06
7.52507e-06
4.85194e-06
2.97964e-06
1.81278e-06
2.22782e-06
2.91598e-06
3.60073e-06
4.17171e-06
4.48258e-06
4.52008e-06
4.41809e-06
3.56932e-06
2.67732e-06
4.32059e-06
6.28002e-06
6.98666e-06
7.03188e-06
5.76141e-06
4.93933e-06
3.47614e-06
4.6094e-06
3.19035e-06
3.93351e-06
4.38991e-06
4.52336e-06
4.11419e-06
3.52717e-06
5.92118e-06
5.60224e-06
5.34142e-06
5.46337e-06
2.76719e-06
2.77554e-06
4.44797e-06
4.28579e-06
4.61496e-06
4.57642e-06
6.17481e-06
6.5282e-06
6.74453e-06
6.86375e-06
6.78924e-06
6.00081e-06
1.29529e-06
1.42791e-06
8.82001e-07
9.52229e-07
4.88347e-06
0.000167364
6.77945e-06
4.75315e-07
3.88423e-07
4.89707e-07
5.06595e-07
4.06055e-07
4.16806e-07
3.96542e-07
4.36646e-07
4.15023e-07
4.24749e-07
4.91093e-07
4.38177e-07
4.73231e-07
4.9328e-07
6.90141e-07
1.13972e-06
2.0492e-06
1.58229e-06
4.10275e-07
2.85647e-07
1.4635e-07
1.35812e-07
5.02171e-07
0.000991282
0.000979474
0.000889464
0.000825903
0.000806715
0.00081746
0.000820482
0.000809274
0.000799403
0.000796935
0.000808098
0.000870602
0.000956691
0.000974228
0.000385336
0.00049648
0.000557599
0.000535172
0.000499118
0.00048594
0.000480094
0.000472941
0.000456872
0.000444279
0.000443096
0.000454997
0.000455271
0.000455926
0.000424779
0.000409714
0.000411085
0.000426233
0.000429567
0.000434672
0.00041324
0.000395637
0.000358599
0.000335977
0.000333948
0.000372629
0.000428327
0.000474587
0.00046428
0.000378366
0.000410251
0.000357896
0.000306263
0.000301578
0.000321077
0.000305494
0.0002509
0.000178889
0.000151585
0.000132716
0.000104886
9.82791e-05
0.000111722
0.000157396
0.000205564
0.000241368
0.000259844
0.000269069
0.000266972
0.000258282
0.000236407
0.000210226
0.000175573
0.000139666
0.000122014
0.000112586
0.000121801
0.000152519
0.000224005
0.000309315
0.000144909
0.000155593
0.000151689
0.000135987
0.000123116
0.000104487
9.19829e-05
8.39996e-05
8.02282e-05
7.84961e-05
7.44596e-05
6.73797e-05
8.43932e-05
6.8679e-05
9.34035e-05
0.000124463
0.000156562
0.00017305
0.000179936
0.000191869
0.000191357
0.000194694
0.000189482
0.000184026
0.000176008
0.000169016
0.000162958
0.000164542
0.000148091
0.000127253
4.47771e-05
6.09517e-05
7.78302e-05
8.38767e-05
7.22111e-05
7.32534e-05
7.50238e-05
8.3255e-05
8.3997e-05
8.62601e-05
8.97956e-05
8.99705e-05
0.000105572
0.000109601
0.000116531
0.000123475
0.000134929
0.000137167
0.000152665
0.000140882
0.000143978
0.000124816
0.000124782
0.000107836
8.65213e-05
7.93951e-05
6.83612e-05
7.92245e-05
6.17178e-05
5.24747e-05
1.16803e-05
1.30075e-05
1.95324e-05
1.8448e-05
1.5284e-05
1.29449e-05
1.63901e-05
1.99209e-05
1.98682e-05
2.14573e-05
2.26448e-05
2.38565e-05
2.52464e-05
2.64179e-05
2.54733e-05
2.58973e-05
2.66915e-05
2.70827e-05
2.70552e-05
2.71728e-05
2.77492e-05
2.70968e-05
2.74287e-05
2.52003e-05
2.21015e-05
2.16983e-05
2.1369e-05
2.40895e-05
2.65578e-05
2.69699e-05
4.45657e-05
4.31737e-05
3.55653e-05
9.44079e-06
1.78614e-05
2.17013e-05
2.46348e-05
4.40417e-05
5.03772e-05
3.46351e-05
4.10714e-05
3.8218e-05
2.53602e-05
4.45722e-05
4.42552e-05
4.06368e-05
3.8009e-05
3.65102e-05
3.46378e-05
3.1355e-05
2.94963e-05
3.23101e-05
3.35563e-05
1.76964e-05
5.01678e-05
0.000138203
0.000194037
0.00019209
0.000159443
0.000171799
9.39515e-06
1.22998e-05
1.39038e-05
1.41809e-05
1.37543e-05
1.28712e-05
1.18014e-05
1.07416e-05
9.40758e-06
8.98487e-06
9.98896e-06
1.00848e-05
9.12211e-06
8.63361e-06
1.02083e-05
1.11342e-05
1.09056e-05
1.24766e-05
1.57204e-05
1.48417e-05
1.72852e-05
2.12074e-05
2.0468e-05
2.35027e-05
2.56561e-05
2.61132e-05
1.24135e-05
2.26407e-05
1.93635e-05
1.90417e-05
4.01242e-05
4.00267e-05
4.19437e-05
4.71175e-05
5.70222e-05
6.21716e-05
5.8453e-05
6.43013e-05
7.23988e-05
8.01516e-05
8.36318e-05
6.96638e-05
5.57971e-05
3.85745e-05
5.00757e-05
4.56143e-05
3.9e-05
3.88433e-05
2.15512e-05
6.86839e-06
5.95093e-06
7.55786e-06
7.5124e-06
7.20756e-06
8.03914e-06
5.88539e-06
1.02114e-05
1.37288e-05
1.33447e-05
8.28533e-06
3.86547e-05
1.9731e-05
2.33402e-05
2.09083e-05
3.33401e-05
3.51774e-05
4.01236e-05
4.26343e-05
2.46059e-05
3.33779e-05
5.02593e-05
5.20732e-05
5.64039e-05
5.67685e-05
5.56618e-05
4.87034e-05
4.0697e-05
4.5792e-05
4.22308e-05
3.55888e-05
2.13859e-05
1.41739e-05
8.57579e-06
9.12471e-06
9.1761e-06
1.00821e-05
1.17492e-05
1.19509e-05
7.30542e-06
7.40974e-06
6.49796e-06
5.23216e-06
7.37254e-06
9.55304e-06
1.32681e-05
1.40301e-05
9.07743e-06
1.48549e-05
1.5927e-05
1.48838e-05
1.34762e-05
1.57025e-05
8.8742e-06
6.52525e-06
1.25702e-05
1.16528e-05
9.42929e-06
8.74212e-06
4.95258e-06
3.9044e-06
1.54897e-06
1.72041e-06
2.45543e-06
3.49175e-06
4.69759e-06
4.74615e-06
4.66975e-06
4.71653e-06
4.28172e-06
2.88287e-06
3.47939e-06
5.26604e-06
6.51569e-06
6.52964e-06
6.25159e-06
4.01067e-06
3.32035e-06
2.95011e-06
5.26508e-06
6.42331e-06
6.56901e-06
6.02371e-06
4.82946e-06
5.66767e-06
3.72311e-06
1.94357e-06
3.12337e-06
2.55858e-06
3.0468e-06
5.24972e-06
5.60308e-06
6.21716e-06
7.24504e-06
6.73104e-06
6.50848e-06
6.46074e-06
6.29199e-06
6.25716e-06
6.43794e-06
5.96784e-06
3.4243e-06
2.88563e-06
1.26156e-06
1.84694e-06
2.17702e-05
7.31815e-06
7.99119e-07
3.81125e-07
3.52217e-07
4.53977e-07
5.26901e-07
4.18271e-07
4.49373e-07
4.83001e-07
4.91496e-07
4.45189e-07
3.61939e-07
3.81565e-07
2.9876e-07
4.52256e-07
4.31544e-07
4.10257e-07
6.16243e-07
1.46884e-06
1.95693e-06
2.64814e-07
2.14692e-07
1.39907e-07
1.64919e-07
9.92366e-07
0.000955941
0.000854587
0.000770615
0.000783008
0.000851636
0.000880551
0.0009017
0.000881349
0.000831681
0.000789326
0.000789877
0.000808804
0.000915263
0.000965117
0.000391849
0.000515985
0.000560011
0.00051107
0.00047581
0.00046071
0.000451302
0.000432971
0.000428332
0.000440035
0.000470049
0.00051798
0.000506849
0.000486795
0.000452254
0.000472828
0.000505839
0.000533663
0.000545491
0.000559607
0.000548759
0.000529724
0.000486792
0.000416449
0.000367996
0.000353649
0.000387118
0.000459177
0.000484607
0.000398731
0.000408004
0.000360847
0.000323189
0.000345765
0.000363075
0.000309814
0.000191029
0.000122186
0.00010855
0.000116878
0.000102257
0.0001189
0.000170938
0.000241926
0.000301654
0.000336739
0.000349879
0.000351954
0.000348454
0.000338499
0.000322805
0.000303186
0.000263823
0.000217182
0.000170797
0.000127842
0.000124827
0.000141191
0.000192136
0.000289616
0.000146328
0.000158676
0.000148279
0.000121882
0.000105281
9.10404e-05
8.75401e-05
9.47894e-05
0.000100664
0.000102828
9.50194e-05
7.7331e-05
8.27897e-05
6.88459e-05
0.000108158
0.000149442
0.000185029
0.000200418
0.000214296
0.000223096
0.000226695
0.000229357
0.000221536
0.000210934
0.000199834
0.000182745
0.000171549
0.000163161
0.000156243
0.000135979
5.51754e-05
7.69335e-05
8.39871e-05
6.7015e-05
6.46298e-05
6.12146e-05
5.92352e-05
6.75536e-05
6.66971e-05
8.23794e-05
9.14083e-05
0.000107491
0.000123403
0.000131103
0.000137988
0.000153128
0.000158351
0.000164197
0.000166706
0.000159514
0.000162308
0.000136681
0.000121777
0.000116787
9.31952e-05
9.97646e-05
0.000121241
9.3122e-05
7.2716e-05
4.84815e-05
1.36289e-05
1.55038e-05
2.08725e-05
1.77546e-05
1.41668e-05
1.4182e-05
1.80908e-05
1.98977e-05
2.06269e-05
2.10054e-05
2.21501e-05
2.20626e-05
2.41926e-05
2.63035e-05
2.60158e-05
2.71133e-05
2.70291e-05
2.70979e-05
2.94741e-05
2.70994e-05
2.93182e-05
2.8762e-05
2.89596e-05
2.65098e-05
2.6505e-05
2.17116e-05
2.17312e-05
2.24583e-05
2.61021e-05
2.63648e-05
3.06874e-05
3.62097e-05
2.57759e-05
1.05362e-05
1.58617e-05
2.02544e-05
4.52719e-05
3.49615e-05
5.7604e-05
5.55013e-05
3.19613e-05
4.79543e-05
4.57547e-05
4.22588e-05
3.99971e-05
3.79535e-05
3.87964e-05
3.6206e-05
3.75886e-05
3.55756e-05
3.21628e-05
2.9727e-05
3.2641e-05
3.44076e-05
2.76287e-05
8.57128e-05
0.000173754
0.000188035
0.000143301
0.000141529
1.08113e-05
1.46138e-05
1.42482e-05
1.35074e-05
1.27131e-05
1.17126e-05
1.03307e-05
8.8108e-06
7.2795e-06
5.68291e-06
7.92212e-06
6.97496e-06
7.19284e-06
4.86989e-06
6.54186e-06
7.1128e-06
8.51556e-06
1.02397e-05
1.30095e-05
1.58615e-05
1.52755e-05
1.84183e-05
2.43062e-05
2.29844e-05
2.52961e-05
2.70944e-05
1.4924e-05
2.44668e-05
2.31876e-05
2.00159e-05
3.85738e-05
3.99437e-05
4.72692e-05
5.67399e-05
5.55931e-05
8.11039e-05
0.000100955
0.000124464
0.000128305
0.000136131
0.000134693
0.000129654
0.000117094
9.36584e-05
6.14741e-05
5.66366e-05
4.44361e-05
4.01541e-05
4.04774e-05
1.81022e-05
7.26726e-06
7.32719e-06
7.51316e-06
7.4431e-06
8.78076e-06
1.04957e-05
1.54474e-05
1.6856e-05
1.60268e-05
1.02704e-05
4.01156e-05
2.32956e-05
1.83626e-05
3.27132e-05
3.80265e-05
3.946e-05
4.34622e-05
3.81784e-05
5.66769e-05
7.98709e-05
8.52124e-05
9.63175e-05
9.67249e-05
0.000100005
9.6614e-05
8.78635e-05
6.95183e-05
4.95069e-05
2.9051e-05
4.29327e-05
3.03707e-05
2.0255e-05
1.15273e-05
8.65326e-06
8.72629e-06
1.10058e-05
1.27959e-05
1.11662e-05
8.97251e-06
5.69707e-06
4.86638e-06
7.90738e-06
1.14147e-05
1.58535e-05
1.60827e-05
2.07672e-05
2.87992e-05
3.07995e-05
3.29866e-05
1.52714e-05
2.26605e-05
3.06627e-05
2.54159e-05
2.09484e-05
1.69317e-05
8.08226e-06
1.21891e-05
9.39526e-06
7.7327e-06
4.99351e-06
1.80369e-06
1.51909e-06
2.14503e-06
4.24871e-06
4.70902e-06
3.34436e-06
4.6985e-06
4.37139e-06
4.69459e-06
3.08343e-06
2.97031e-06
5.17327e-06
6.33751e-06
6.03334e-06
3.89834e-06
3.58076e-06
4.40717e-06
4.82919e-06
7.65289e-06
6.02424e-06
6.10141e-06
7.90185e-06
5.72354e-06
5.90523e-06
5.27939e-06
4.54326e-06
2.82164e-06
4.7926e-06
5.57746e-06
6.7966e-06
8.45688e-06
1.01211e-05
5.53536e-06
9.68386e-06
8.44967e-06
7.21381e-06
6.38262e-06
5.77125e-06
5.95362e-06
5.8297e-06
3.57921e-06
1.82854e-06
6.68642e-06
9.96874e-06
6.8347e-06
9.85164e-07
3.31342e-07
3.44011e-07
4.56025e-07
4.8304e-07
6.05989e-07
7.53345e-07
8.53302e-07
8.77592e-07
8.79402e-07
6.31195e-07
4.94503e-07
4.52712e-07
3.91376e-07
4.70545e-07
4.10519e-07
3.76143e-07
3.5139e-07
6.65605e-07
2.12938e-06
1.08802e-06
3.019e-07
1.47675e-07
2.89853e-07
4.01106e-06
0.000868457
0.000733298
0.000761717
0.00088291
0.000938606
0.000960169
0.000971048
0.000996253
0.00095214
0.000859978
0.000789148
0.000777252
0.000876907
0.000963918
0.000382778
0.000519821
0.000563163
0.000502563
0.000454014
0.000448796
0.000429906
0.00041284
0.00042625
0.000498643
0.000614916
0.000630255
0.000567837
0.000481154
0.000483856
0.000521661
0.00056297
0.000612606
0.000631539
0.000654459
0.000648144
0.000628023
0.000580198
0.000527056
0.000441879
0.000379595
0.00038277
0.000442439
0.000486239
0.000416741
0.000406125
0.000370884
0.000348671
0.000381488
0.000393198
0.000289421
0.000136506
6.81522e-05
7.4838e-05
0.000104411
0.000105651
0.000132343
0.000228934
0.000310805
0.000353124
0.00036834
0.000367485
0.000365141
0.000357153
0.000353081
0.000349127
0.000343571
0.00032166
0.000283884
0.000228779
0.000173612
0.000142036
0.000141377
0.000176562
0.000280447
0.000147204
0.000160114
0.000144335
0.000109529
8.92269e-05
8.13079e-05
9.15338e-05
0.000112592
0.000127593
0.000130902
0.000121015
9.50888e-05
6.60341e-05
6.84475e-05
0.000116416
0.0001711
0.000199305
0.000212932
0.000239217
0.00023935
0.000247851
0.000246481
0.000246818
0.000235433
0.000217285
0.000198215
0.000178142
0.000164202
0.000159013
0.000140103
7.65073e-05
8.43807e-05
8.46595e-05
8.33499e-05
7.90698e-05
7.60469e-05
7.67277e-05
7.6726e-05
7.82974e-05
9.84728e-05
0.000131908
0.000152869
0.000180288
0.000192646
0.000199809
0.000198478
0.000200637
0.000192393
0.0001952
0.00018535
0.000183202
0.000152571
0.000130244
0.000112118
8.64173e-05
0.000105903
0.000138306
0.000138356
7.34671e-05
5.78479e-05
1.38199e-05
1.67493e-05
1.93074e-05
1.58688e-05
1.20286e-05
1.5209e-05
1.72763e-05
1.81706e-05
1.8349e-05
1.90267e-05
2.01992e-05
2.26684e-05
2.37617e-05
2.66263e-05
2.68948e-05
2.61972e-05
2.70289e-05
2.82818e-05
2.86268e-05
2.789e-05
2.82065e-05
2.97752e-05
2.88711e-05
2.99413e-05
2.70084e-05
2.45883e-05
2.30614e-05
2.18425e-05
2.45807e-05
2.55875e-05
1.832e-05
3.05284e-05
1.57204e-05
9.58019e-06
2.00423e-05
2.68816e-05
4.77381e-05
5.23847e-05
5.6808e-05
4.61599e-05
4.86005e-05
4.56471e-05
3.69061e-05
3.30782e-05
2.76236e-05
2.51026e-05
2.78148e-05
3.32918e-05
3.36447e-05
3.57128e-05
3.35427e-05
3.06281e-05
3.25882e-05
3.34425e-05
2.96721e-05
5.78016e-05
0.00011783
0.000163455
0.000129418
0.000118874
1.28124e-05
1.41682e-05
1.34465e-05
1.29198e-05
1.20719e-05
1.07346e-05
8.97313e-06
7.51606e-06
5.15125e-06
8.7475e-06
8.6844e-06
8.49999e-06
8.39109e-06
8.21287e-06
9.20046e-06
9.02753e-06
9.3126e-06
8.24564e-06
1.06354e-05
1.39746e-05
1.68382e-05
1.65723e-05
2.12404e-05
1.75886e-05
2.63794e-05
2.62032e-05
2.63922e-05
2.51374e-05
2.37276e-05
1.97329e-05
3.68332e-05
4.28699e-05
5.43657e-05
5.24221e-05
8.95642e-05
0.000111576
0.000143154
0.000163204
0.000167775
0.000178946
0.000176695
0.00017413
0.000164976
0.000141784
0.000112317
7.2602e-05
5.57482e-05
4.57553e-05
4.46101e-05
2.51149e-05
6.09179e-06
7.83715e-06
8.27328e-06
8.13847e-06
6.25912e-06
1.48233e-05
1.89713e-05
1.98061e-05
2.13181e-05
1.29747e-05
4.50446e-05
2.37894e-05
2.50395e-05
3.31507e-05
3.75912e-05
4.34242e-05
4.3466e-05
7.07918e-05
9.77093e-05
0.000111845
0.000126601
0.000131069
0.000133119
0.000127878
0.000126368
0.000118884
0.00010154
8.37678e-05
5.9515e-05
4.86804e-05
3.98961e-05
1.5399e-05
1.6458e-05
1.1964e-05
1.07501e-05
1.30661e-05
1.19482e-05
8.43218e-06
6.83026e-06
3.91693e-06
7.8312e-06
1.18272e-05
1.71308e-05
2.08442e-05
2.77722e-05
3.70025e-05
4.38979e-05
7.2773e-05
8.9751e-05
9.79149e-05
8.81482e-05
7.32115e-05
5.62031e-05
2.70881e-05
2.68132e-05
1.99226e-05
8.39596e-06
1.18571e-05
8.84721e-06
4.48709e-06
3.43038e-06
1.48598e-06
2.35835e-06
4.38849e-06
4.6731e-06
3.18197e-06
4.47696e-06
4.04586e-06
4.4152e-06
3.37902e-06
2.76118e-06
5.21158e-06
5.26174e-06
5.174e-06
5.19626e-06
3.58503e-06
5.18529e-06
7.0149e-06
1.01137e-05
8.5456e-06
8.43066e-06
6.11036e-06
6.26731e-06
5.88861e-06
7.02331e-06
5.20155e-06
2.80547e-06
4.69608e-06
7.55408e-06
8.53747e-06
3.60806e-06
1.48449e-05
1.91968e-05
1.76942e-05
1.02906e-05
8.84329e-06
6.62121e-06
5.54563e-06
5.66808e-06
5.63363e-06
3.66794e-06
4.6694e-06
1.45438e-05
6.12156e-06
1.47201e-06
3.60893e-07
2.48163e-07
4.48133e-07
4.95495e-07
7.10222e-07
9.08882e-07
1.17837e-06
1.23257e-06
1.47681e-06
1.15172e-06
1.12369e-06
8.79991e-07
4.69531e-07
4.26423e-07
3.05378e-07
3.9649e-07
3.69815e-07
3.12806e-07
3.08402e-07
2.15521e-06
2.2826e-06
6.45674e-07
3.37449e-07
8.83741e-07
1.93611e-05
0.000759406
0.000695004
0.000849293
0.000947529
0.000943786
0.000952766
0.000970251
0.00100478
0.00103522
0.000927393
0.000811926
0.000770668
0.00084568
0.000949983
0.000387808
0.000521615
0.000562374
0.000484736
0.000443536
0.000420256
0.000404431
0.000410478
0.000487007
0.000643918
0.00072258
0.000686932
0.000562435
0.000479466
0.000509153
0.00057016
0.000616966
0.000661
0.000699184
0.000713442
0.00071136
0.00069117
0.000662459
0.000603339
0.000519745
0.000423927
0.000394011
0.000439485
0.000487937
0.000427655
0.000401499
0.000386288
0.000363214
0.000408385
0.00041616
0.000291193
0.00011354
7.98417e-05
8.48361e-05
9.46602e-05
0.000108894
0.000157685
0.000271041
0.000343957
0.000368304
0.000368482
0.00036117
0.000349964
0.000340949
0.000338954
0.000343003
0.00034366
0.000341778
0.000323181
0.00027186
0.00021894
0.000161052
0.000148436
0.000179154
0.000270748
0.000147927
0.00016033
0.000145239
0.00010199
7.45941e-05
6.95943e-05
8.97154e-05
0.000118209
0.000136596
0.000146144
0.000140662
0.000114464
7.2245e-05
6.65079e-05
0.000129718
0.000177254
0.000205325
0.000224465
0.000247845
0.000255532
0.000267592
0.000269729
0.000263475
0.000251985
0.000232225
0.000204295
0.000183704
0.000171627
0.000157854
0.000140872
8.50011e-05
8.82586e-05
8.41121e-05
8.06697e-05
7.50361e-05
7.26232e-05
7.51045e-05
5.96339e-05
0.000100917
0.000136553
0.000180773
0.000206913
0.000234629
0.000244498
0.000246803
0.000240209
0.000246281
0.000227467
0.000224997
0.00021024
0.00019669
0.000169323
0.000140819
0.000117572
8.98256e-05
0.000103405
0.000129397
0.000154317
0.000126755
7.59974e-05
1.29509e-05
1.81516e-05
2.02086e-05
1.47745e-05
1.18522e-05
1.51673e-05
1.66859e-05
1.7069e-05
1.72436e-05
1.7655e-05
1.91869e-05
2.16745e-05
2.36055e-05
2.64856e-05
2.7579e-05
2.79346e-05
2.98216e-05
2.93887e-05
3.00319e-05
2.91158e-05
2.77834e-05
3.00214e-05
2.83443e-05
2.903e-05
2.93425e-05
2.67576e-05
2.19339e-05
2.20863e-05
2.37854e-05
2.48985e-05
4.08688e-05
1.90859e-05
5.98664e-06
9.11439e-06
1.95638e-05
2.88968e-05
4.57143e-05
5.20082e-05
5.15887e-05
3.82815e-05
4.89223e-05
4.23863e-05
3.03409e-05
2.87666e-05
2.17105e-05
1.81512e-05
1.91537e-05
2.11982e-05
2.86379e-05
3.37443e-05
3.55328e-05
3.20965e-05
3.32063e-05
3.31081e-05
2.67619e-05
4.34117e-05
8.57092e-05
0.000119078
0.000112743
9.6619e-05
1.17976e-05
1.28228e-05
1.30725e-05
1.26426e-05
1.1427e-05
9.68521e-06
8.01487e-06
5.91272e-06
9.0578e-06
8.22333e-06
7.48117e-06
6.78608e-06
6.77471e-06
6.83714e-06
7.94045e-06
8.49596e-06
1.01381e-05
6.64171e-06
8.44139e-06
1.2351e-05
1.60166e-05
1.51121e-05
1.93287e-05
2.45266e-05
2.10836e-05
1.72762e-05
2.52297e-05
2.52819e-05
2.76644e-05
2.3353e-05
3.76532e-05
4.67495e-05
5.91634e-05
7.12138e-05
0.000111733
0.00013212
0.000168022
0.000189254
0.000204894
0.000217805
0.000220588
0.000212619
0.000204192
0.000182719
0.000151586
0.000105165
5.3334e-05
5.0943e-05
4.69437e-05
4.04521e-05
1.34493e-05
7.64336e-06
8.13368e-06
8.34758e-06
1.4781e-05
1.92656e-05
1.97933e-05
2.0337e-05
2.14733e-05
1.71576e-05
3.74114e-05
1.71819e-05
3.08356e-05
3.74308e-05
4.12924e-05
3.86094e-05
6.73592e-05
9.96014e-05
0.000120708
0.000134979
0.000140905
0.000144807
0.000145666
0.000149178
0.000144362
0.000139498
0.000125301
0.000102663
7.52607e-05
4.00771e-05
4.15882e-05
2.36025e-05
2.15612e-05
1.71355e-05
1.59829e-05
1.41426e-05
8.91476e-06
5.21976e-06
9.26503e-06
1.00118e-05
1.11234e-05
1.7069e-05
1.58617e-05
2.8578e-05
2.57251e-05
6.57968e-05
0.000106521
0.000135477
0.000164661
0.000163504
0.000163607
0.000142003
0.00010817
8.11885e-05
4.54599e-05
3.01248e-05
1.88984e-05
5.40516e-06
1.09177e-05
7.04139e-06
4.47336e-06
2.7782e-06
3.43385e-06
4.55584e-06
4.65217e-06
3.16594e-06
2.13887e-06
4.19061e-06
4.22558e-06
3.76308e-06
2.58585e-06
5.27113e-06
5.74964e-06
5.84923e-06
4.11484e-06
3.02215e-06
5.99891e-06
9.00573e-06
1.04282e-05
1.28349e-05
1.17066e-05
1.17196e-05
5.56026e-06
4.81422e-06
6.41984e-06
6.21594e-06
2.45864e-06
4.70034e-06
8.26682e-06
9.66397e-06
1.06973e-05
1.7404e-05
2.62898e-05
2.50357e-05
1.79888e-05
9.94473e-06
6.62061e-06
5.31264e-06
5.52747e-06
5.45063e-06
3.03939e-06
2.25616e-06
8.25689e-06
2.11318e-06
3.70021e-07
3.45675e-07
3.71434e-07
4.28529e-07
7.29968e-07
9.58936e-07
1.3417e-06
2.36978e-06
2.49498e-06
2.87239e-06
2.86939e-06
1.93089e-06
1.27681e-06
7.46179e-07
5.0494e-07
2.66931e-07
3.66151e-07
3.48811e-07
3.11186e-07
3.6408e-07
9.25688e-07
4.02337e-06
2.08907e-06
1.34274e-06
4.55285e-06
0.000181024
0.000724765
0.000743772
0.000924106
0.000950288
0.000919385
0.000868749
0.000904997
0.000995712
0.00105504
0.000972452
0.000832108
0.000782646
0.00084471
0.000946059
0.000373696
0.0005133
0.000572923
0.000489305
0.000438888
0.000414489
0.000408195
0.000462538
0.000630989
0.000744098
0.000734844
0.000687428
0.000546014
0.000482727
0.000529659
0.000591034
0.000646494
0.000708453
0.000754252
0.000789553
0.000774647
0.000761793
0.000721965
0.000659532
0.00057535
0.000473294
0.000414174
0.000450873
0.000496668
0.000434843
0.000399455
0.00040191
0.000378314
0.00041105
0.00043374
0.000311926
0.00011613
7.6109e-05
8e-05
8.82932e-05
0.000112853
0.000179683
0.000299837
0.00035764
0.000365633
0.000362652
0.00034569
0.000337291
0.000336014
0.000331647
0.000332763
0.000339148
0.000347412
0.000339774
0.00030355
0.00024829
0.000190497
0.000161795
0.000179976
0.000267247
0.00014724
0.000161028
0.000150085
0.000104161
6.6784e-05
7.9123e-05
6.97372e-05
0.000101564
0.000130077
0.000146159
0.000149449
0.000130897
8.19088e-05
6.5e-05
0.000127988
0.000178949
0.000206131
0.000229213
0.000249636
0.000269786
0.000266424
0.000267519
0.000265816
0.000256614
0.000242762
0.000213133
0.0001893
0.000170186
0.00016339
0.000138255
8.84565e-05
7.11911e-05
8.49204e-05
7.8056e-05
7.20955e-05
6.98903e-05
7.58258e-05
7.16678e-05
0.000120703
0.000176755
0.000223016
0.000242456
0.000257213
0.000257867
0.000263874
0.000260813
0.000267426
0.000253438
0.000256368
0.000228748
0.000221702
0.00018342
0.000151323
0.000120262
9.33676e-05
9.63271e-05
0.000114841
0.000152244
0.000140667
7.0985e-05
1.42548e-05
1.7219e-05
1.90938e-05
1.3059e-05
1.19186e-05
1.39192e-05
1.53702e-05
1.59363e-05
1.59121e-05
1.66645e-05
1.79222e-05
2.11029e-05
2.30466e-05
2.45641e-05
2.72622e-05
2.62767e-05
2.6895e-05
2.79816e-05
3.25733e-05
3.2009e-05
3.17325e-05
2.83877e-05
3.03671e-05
3.11528e-05
2.73858e-05
2.58697e-05
2.28011e-05
2.25617e-05
2.34495e-05
2.62855e-05
3.81872e-05
1.76527e-05
1.00681e-05
7.27258e-06
1.65014e-05
1.90149e-05
3.91784e-05
4.61373e-05
4.67623e-05
4.00705e-05
4.46844e-05
3.67002e-05
2.7285e-05
1.99052e-05
1.71022e-05
2.60181e-05
1.47331e-05
1.51328e-05
2.54177e-05
3.09097e-05
3.40815e-05
3.17508e-05
3.38863e-05
3.34982e-05
2.8106e-05
4.10751e-05
6.70355e-05
9.09424e-05
9.24583e-05
7.41893e-05
9.62885e-06
7.74683e-06
1.28062e-05
1.21648e-05
1.077e-05
8.90137e-06
7.21145e-06
9.05287e-06
8.39749e-06
7.73102e-06
6.385e-06
5.952e-06
6.15373e-06
5.45664e-06