/*--------------------------------*- C++ -*----------------------------------*\
| =========                 |                                                 |
| \\      /  F ield         | OpenFOAM: The Open Source CFD Toolbox           |
|  \\    /   O peration     | Version:  2.1.1                                 |
|   \\  /    A nd           | Web:      www.OpenFOAM.org                      |
|    \\/     M anipulation  |                                                 |
\*---------------------------------------------------------------------------*/
FoamFile
{
    version     2.0;
    format      ascii;
    class       volScalarField;
    location    "0.006600000";
    object      sL;
}
// * * * * * * * * * * * * * * * * * * * * * * * * * * * * * * * * * * * * * //

dimensions      [0 1 -1 0 0 0 0];

internalField   nonuniform List<scalar> 
12384
(
8.80829
8.45274
8.35398
8.37166
8.37653
8.42964
8.52111
8.68129
8.85279
9.02515
9.16041
9.23017
9.37166
10.7221
3.02462
3.57254
3.85637
3.99797
4.02024
3.97835
3.94041
3.91717
3.89159
3.84528
3.81706
3.75149
3.72369
3.66455
3.64475
3.57873
3.51974
3.50593
3.39658
3.44009
3.32732
3.38058
3.33414
3.39104
3.41085
3.47061
3.5994
3.63874
2.87133
2.37617
3.43114
3.70064
3.54795
3.31987
3.23108
3.14487
3.14573
3.12603
3.14296
3.16212
3.18879
3.21447
3.22609
3.21822
3.19703
3.15555
3.11627
3.03713
3.05793
2.95316
2.96829
2.90831
2.91184
2.90209
2.90103
2.89124
2.902
3.05622
3.28757
3.33144
2.77416
2.84509
2.97095
3.00331
2.98251
2.96057
2.94764
2.94943
2.93978
2.95802
2.98936
3.02087
3.04116
3.05091
3.03878
2.99787
2.93206
2.86042
2.80631
2.67129
2.70544
2.6619
2.74972
2.81973
2.92014
3.02974
3.0825
2.76524
2.61671
2.66801
3.28529
3.43355
3.44776
3.43738
3.40816
3.36516
3.28686
3.21645
3.13503
3.0485
2.95467
2.90604
2.95172
2.85509
3.06217
2.94175
3.29897
3.28123
3.57477
3.64216
3.77167
3.3453
2.96925
2.96762
3.01375
3.03834
3.11599
3.13393
3.14071
3.10913
2.82798
2.79864
2.82814
2.84464
2.81064
2.77886
2.74306
2.79536
2.82558
2.89189
2.95504
3.00394
3.03634
3.04907
3.03645
3.00727
2.95428
2.92765
2.9298
2.87253
2.94449
2.90748
2.95741
2.98505
2.94969
2.95567
3.10467
3.2301
3.25056
3.26954
2.0233
1.87504
1.89187
2.01082
2.11413
2.24015
2.35716
2.42051
2.4367
2.41064
2.31655
2.26271
2.20058
2.04458
1.95801
1.97106
1.83661
1.84439
1.84898
1.82158
1.77868
1.72354
1.69592
1.68116
1.32214
1.31155
1.28679
1.26737
1.251
1.22981
1.98512
2.3157
2.59696
2.77588
2.86997
2.90322
2.87493
2.87456
2.8041
2.85334
2.71325
2.77326
2.69164
2.83848
2.84178
3.04327
3.11823
3.30746
3.38526
3.41509
3.35403
3.09175
2.9693
2.91167
2.93711
2.91443
2.95449
2.95567
2.9591
2.94716
2.91429
3.08929
3.09246
3.06447
2.91154
2.90708
2.66177
2.69385
2.47874
2.52363
2.41226
2.45884
2.57587
2.65893
2.71831
2.7778
2.8062
2.78701
2.74547
2.64013
2.63198
2.61569
2.63761
2.6489
2.67691
2.65717
2.63572
2.58824
2.54954
2.57088
2.49923
2.72996
2.91196
2.9388
2.90376
2.82163
2.71568
2.60673
2.49382
2.4032
2.23341
2.22934
2.16926
2.25751
2.26719
2.36393
2.53793
2.65617
2.75315
2.86715
2.79338
2.77289
2.81402
2.85668
2.87301
2.88649
2.90148
2.91019
2.89974
2.87895
2.35975
2.47545
2.54045
2.56539
2.57918
2.48672
2.46856
2.29415
2.27844
2.14349
2.14949
2.12438
2.15233
2.18876
2.19936
2.2367
2.26011
2.17926
2.08637
2.0815
2.13981
2.19359
2.24073
2.26783
2.27899
2.27292
2.26155
2.24526
2.19286
2.13525
1.42814
1.40776
1.39956
1.4235
1.43015
1.44412
1.64976
1.7663
1.83398
1.89989
1.93698
1.98593
2.02478
2.05051
2.06006
2.05584
2.02269
1.97373
1.90187
1.81413
1.75341
1.67505
1.57324
1.52312
1.485
1.46805
1.45396
1.4455
1.44957
1.50774
1.6391
1.64961
1.60315
1.49425
1.41441
1.0928
0.96667
1.76656
2.79874
2.72218
2.65932
2.6652
2.65018
2.67714
2.71799
2.68274
2.77892
2.74359
2.74716
2.69081
2.61515
2.49549
2.37898
2.38006
2.49708
2.70307
2.90403
3.07792
3.16634
2.72279
7.28506
7.37401
7.35221
7.16239
6.95843
6.88916
6.99272
7.1957
7.65217
8.27164
8.95419
9.37969
9.5011
10.5693
3.03345
3.69044
4.06052
4.12283
4.01603
3.90491
3.84462
3.80473
3.7214
3.64425
3.56053
3.52492
3.46852
3.46529
3.43075
3.4481
3.37701
3.41377
3.31966
3.33424
3.24653
3.25966
3.21491
3.23347
3.27959
3.3575
3.49114
3.66452
3.27903
2.71625
3.46151
3.69021
3.49175
3.30628
3.22817
3.1993
3.17439
3.17819
3.18938
3.22233
3.26143
3.29562
3.31704
3.32507
3.31667
3.2843
3.27778
3.20581
3.18519
3.12394
3.10647
3.09298
3.0615
3.02492
2.98754
2.9489
2.91211
2.96771
3.17838
3.34644
2.7985
2.90435
3.01181
3.03053
3.00904
2.98169
2.97167
2.9697
2.98942
3.02485
3.05611
3.09277
3.1116
3.09717
3.03955
2.9582
2.86646
2.77696
2.63818
2.60157
2.57773
2.56522
2.60934
2.67779
2.75589
2.86096
2.97626
2.93034
2.7346
2.69343
3.12624
3.3764
3.444
3.37486
3.27381
3.159
3.08042
3.00281
2.92018
2.79523
2.84311
2.70133
2.72229
2.76008
2.78374
2.88289
3.02462
3.13721
3.32926
3.4426
3.70212
3.62165
3.28835
3.00074
3.05511
3.11156
3.22836
3.28292
3.33592
3.3052
2.8686
2.83506
2.83768
2.78515
2.72214
2.70538
2.75329
2.88223
2.97009
3.04552
3.09104
3.13614
3.17522
3.19421
3.20433
3.19757
3.18786
3.19918
3.18368
3.19256
3.23525
3.20786
3.25295
3.15251
3.08257
2.99556
3.03417
3.1507
3.27628
3.3156
2.02154
1.98039
2.21683
2.2331
2.53266
2.70636
2.75623
2.6945
2.57651
2.49515
2.32203
2.33166
2.15909
2.07366
2.07915
1.98249
2.00465
1.97477
1.96786
1.94827
1.8844
1.78548
1.71472
1.69975
1.50783
1.32049
1.25694
1.27898
1.29841
1.24067
2.48168
2.82843
2.96733
3.00774
3.00903
2.98265
2.93901
2.90059
2.80533
2.77401
2.72937
2.70467
2.76811
2.77867
2.77861
3.01515
3.00769
3.15509
3.27457
3.35666
3.41224
3.27828
3.01534
2.8889
2.90101
2.90489
2.9474
2.99416
3.06865
3.13146
3.05939
3.05591
2.98661
2.90293
2.77203
2.72256
2.51002
2.48734
2.34956
2.33015
2.29854
2.33641
2.39897
2.47351
2.58058
2.70303
2.77134
2.79633
2.81948
2.68673
2.66755
2.64731
2.69177
2.73368
2.79178
2.8541
2.89666
2.84509
2.64069
2.55604
2.40881
2.66981
2.87285
2.85853
2.72351
2.56678
2.40424
2.28824
2.13629
2.00625
1.9465
1.8634
1.81477
1.82976
1.93223
2.06961
2.26937
2.38774
2.57467
2.80201
2.88825
2.78111
2.84725
2.86365
2.86584
2.87117
2.90545
2.96537
3.01983
2.99501
2.29947
2.41101
2.55329
2.6019
2.57827
2.42928
2.34936
2.18248
2.10428
2.02176
1.94845
1.97315
1.9975
2.0456
2.10563
2.16175
2.22857
2.23395
2.13899
2.11456
2.1948
2.25238
2.26474
2.2287
2.16975
2.12917
2.12553
2.18153
2.24207
2.17565
1.45791
1.43932
1.43061
1.42988
1.45096
1.6543
1.89081
2.06833
2.17333
2.23542
2.26177
2.27104
2.25543
2.23716
2.21492
2.18289
2.14676
2.08699
2.016
1.95837
1.85195
1.76267
1.72707
1.65294
1.59436
1.54103
1.49609
1.4777
1.47153
1.51939
1.87605
1.95771
2.03151
2.00133
1.64368
1.08709
1.39884
2.53633
2.86718
2.83635
2.92788
3.02727
3.09863
3.10705
3.15843
3.13558
3.13162
3.21558
3.12442
3.12699
3.03157
2.85397
2.50467
2.2476
2.37621
2.72647
3.01688
3.1522
3.17493
2.61522
7.12035
7.06837
6.36376
5.96617
5.93421
6.08729
6.19747
6.26726
6.40853
6.81529
7.79123
8.96344
9.53559
10.486
3.02741
3.80519
4.18064
4.08628
3.8619
3.74257
3.68041
3.58883
3.49047
3.39549
3.38304
3.42454
3.49338
3.50397
3.47782
3.49955
3.53799
3.63618
3.62271
3.67434
3.56112
3.48815
3.35059
3.28744
3.24048
3.26339
3.38284
3.59532
3.53667
2.9802
3.46561
3.6756
3.49782
3.38712
3.37769
3.32083
3.25831
3.23245
3.22727
3.23614
3.27345
3.3028
3.33769
3.36156
3.37636
3.35051
3.33453
3.26794
3.24924
3.19809
3.17015
3.14027
3.13446
3.11644
3.07428
3.01275
2.9495
2.9324
3.05747
3.31312
2.81028
2.95027
3.03762
3.04741
3.03269
3.00808
2.99976
3.00622
3.03194
3.07462
3.11471
3.13191
3.14148
3.08116
2.9737
2.86603
2.75283
2.63595
2.52575
2.5392
2.46704
2.43668
2.48729
2.55618
2.63231
2.71934
2.84217
2.92035
2.83608
2.72604
3.15535
3.36565
3.36586
3.2492
3.12474
3.02181
2.99881
2.88652
2.88413
2.85248
2.83572
2.78577
2.85966
2.83057
2.92269
2.89227
3.06507
3.09665
3.22762
3.33319
3.54826
3.64793
3.5432
3.14738
3.05862
3.10421
3.20437
3.29531
3.42532
3.45947
2.84199
2.80741
2.77448
2.71777
2.66618
2.76718
2.89905
2.97489
2.99062
3.00437
3.02536
3.05757
3.1121
3.1645
3.21919
3.2606
3.33066
3.38143
3.40594
3.43008
3.46388
3.44211
3.46903
3.3828
3.2582
3.10261
3.01882
3.05952
3.19869
3.32271
2.00947
2.19302
2.21794
2.53568
2.89749
2.87534
2.68057
2.48024
2.3322
2.24842
2.17301
2.13686
2.10308
2.05583
2.05433
1.97548
1.94567
1.96962
1.99141
1.97695
1.94154
1.85608
1.74823
1.67858
1.63179
1.41165
1.25677
1.29936
1.40013
1.2987
2.96642
3.01647
2.99999
2.98055
2.96107
2.9374
2.90953
2.87276
2.79782
2.81235
2.72702
2.76553
2.70839
2.86126
2.7603
2.94079
3.04239
3.05733
3.17665
3.26511
3.33381
3.34353
3.14731
2.90397
2.853
2.86625
2.93732
3.01988
3.06832
3.1888
3.04671
2.97541
2.88503
2.81368
2.69473
2.63049
2.42762
2.44491
2.23869
2.26224
2.20377
2.22169
2.26488
2.37609
2.43388
2.54709
2.66729
2.73507
2.79372
2.79187
2.70799
2.71077
2.73906
2.72492
2.77661
2.90618
3.13362
3.20942
2.99365
2.63766
2.44457
2.70523
2.87389
2.70738
2.49741
2.32586
2.1936
2.04975
1.92084
1.85154
1.79623
1.69335
1.71372
1.71812
1.74486
1.89394
1.99644
2.15017
2.36973
2.60309
2.81839
2.83407
2.81026
2.83146
2.80487
2.79128
2.80424
2.91183
3.04863
3.06553
2.30104
2.53802
2.63726
2.57204
2.42642
2.23693
2.10397
1.93315
1.86978
1.776
1.7705
1.73575
1.78192
1.85751
1.93881
2.00939
2.09382
2.17534
2.17492
2.13644
2.18751
2.24834
2.22683
2.14282
2.0369
1.96016
1.94617
2.01182
2.17924
2.2114
1.46696
1.4471
1.43603
1.43569
1.63564
1.92465
2.1604
2.32639
2.43286
2.47063
2.47485
2.44403
2.37217
2.27308
2.17133
2.09503
2.01693
1.93913
1.87204
1.76421
1.68089
1.6646
1.62215
1.58298
1.57753
1.57366
1.54485
1.518
1.49862
1.52378
1.65899
1.69338
1.78669
1.69882
1.32427
1.39549
2.26769
2.87141
2.97946
3.06608
3.21847
3.28579
3.30675
3.33293
3.35659
3.33776
3.27549
3.31486
3.2236
3.20594
3.18646
3.14952
2.91363
2.32736
2.25454
2.7221
3.08477
3.16703
3.1297
2.18583
6.83082
5.99354
5.4941
5.65174
6.30568
6.98528
7.26999
7.10865
6.65633
6.41962
6.83776
8.14283
9.37997
10.4659
3.06359
3.92509
4.19868
3.95868
3.70089
3.60505
3.51737
3.42763
3.35266
3.422
3.65255
3.91102
3.89132
3.751
3.6584
3.75331
3.89336
4.07624
4.15528
4.23575
4.1773
4.05289
3.83979
3.56174
3.35053
3.28493
3.31266
3.53378
3.62524
3.16916
3.45302
3.68811
3.56631
3.52865
3.51589
3.42055
3.29916
3.27617
3.26048
3.23826
3.26297
3.30088
3.35316
3.39069
3.42608
3.41285
3.37508
3.33122
3.3082
3.26259
3.22635
3.20381
3.18235
3.16506
3.13707
3.06698
2.99534
2.93781
2.99164
3.26406
2.82182
2.97902
3.05411
3.06554
3.05994
3.03927
3.01416
3.02841
3.01605
3.04262
3.08662
3.12428
3.11449
3.03364
2.90076
2.76223
2.64038
2.52753
2.51612
2.48516
2.44789
2.46126
2.44943
2.477
2.52917
2.61415
2.72527
2.84055
2.85318
2.74876
3.34967
3.42201
3.28591
3.15116
3.05608
2.98985
2.96976
2.90792
2.97485
2.92541
2.97556
3.01168
3.02678
3.10275
3.08736
3.13779
3.17514
3.18578
3.30012
3.28978
3.47227
3.60252
3.65394
3.32211
3.09316
3.07262
3.14882
3.22863
3.40929
3.53386
2.93522
2.87296
2.82246
2.71145
2.71881
2.84713
2.93573
2.92356
2.89992
2.88609
2.9213
2.97933
3.06647
3.16804
3.27733
3.38987
3.57814
3.65052
3.81005
3.85722
3.80332
3.73287
3.69674
3.56375
3.46086
3.2418
3.07778
3.02103
3.12463
3.29065
2.04021
2.24778
2.27128
2.98271
2.97239
2.69808
2.43113
2.24995
2.18403
2.18472
2.22776
2.20196
2.36782
2.29881
2.29187
2.23401
2.218
2.11893
2.05297
2.02938
1.98417
1.90732
1.79021
1.69211
1.65208
1.53128
1.31558
1.30417
1.43452
1.38187
3.08042
3.01395
2.97729
2.95336
2.94362
2.93166
2.90997
2.88036
2.85729
2.82812
2.80694
2.76585
2.79375
2.84337
2.90229
2.86739
3.06118
3.05283
3.11517
3.20323
3.28165
3.33654
3.25997
2.99117
2.85949
2.86586
2.98274
3.08247
3.1491
3.23151
2.94586
2.90432
2.84682
2.75722
2.63049
2.52482
2.39675
2.31816
2.20212
2.1767
2.16662
2.16793
2.21202
2.27715
2.339
2.48332
2.57646
2.64233
2.75331
2.80438
2.74824
2.70033
2.69521
2.71846
2.77112
2.93496
3.21626
3.39067
3.32664
2.80075
2.40373
2.86652
2.74073
2.52516
2.29839
2.16042
2.00928
1.88879
1.82723
1.76252
1.61724
1.64595
1.58558
1.65697
1.71287
1.75515
1.83371
2.00843
2.15503
2.39194
2.69202
2.82264
2.80231
2.78619
2.7941
2.77059
2.76827
2.87859
3.01945
3.10857
2.5363
2.66993
2.57312
2.36827
2.16562
1.98
1.83345
1.71643
1.57936
1.53149
1.47944
1.56306
1.54687
1.60738
1.70795
1.84352
1.96351
2.06711
2.13758
2.1433
2.16106
2.22319
2.18757
2.09762
1.97239
1.87512
1.86301
1.93715
2.10435
2.22958
1.4707
1.44691
1.43838
1.57177
1.86401
2.17599
2.42921
2.57767
2.71063
2.81103
2.83401
2.75391
2.60693
2.41231
2.20466
2.03865
1.9359
1.84641
1.71057
1.63804
1.62698
1.58259
1.5352
1.54293
1.54745
1.56093
1.57888
1.55959
1.53028
1.52895
1.60755
1.53755
1.43221
1.38186
1.50918
2.16299
2.78115
3.06296
3.1207
3.32055
3.40764
3.46152
3.48139
3.4842
3.52418
3.53002
3.52794
3.37796
3.32837
3.20445
3.12798
3.13639
3.14022
2.7034
2.07853
2.48795
2.99643
3.09642
2.9127
1.76699
6.08867
5.28547
5.45057
6.60519
7.94742
8.70509
8.85764
8.6216
7.82368
6.89748
6.60334
7.53243
9.15069
10.4384
3.00427
3.95363
4.21229
3.88101
3.58851
3.48894
3.41768
3.35392
3.43375
3.86041
4.52017
4.77323
4.38165
3.89247
3.8172
4.00011
4.2185
4.49467
4.59954
4.75632
4.68358
4.64293
4.3741
4.05217
3.67629
3.3739
3.34874
3.47175
3.67089
3.26223
3.42374
3.70204
3.65319
3.66479
3.66101
3.46616
3.32104
3.30967
3.2852
3.24445
3.2463
3.2994
3.37015
3.43168
3.44271
3.40943
3.38023
3.33426
3.28875
3.26403
3.23926
3.24648
3.21396
3.17744
3.16445
3.11582
3.01886
2.94278
2.96187
3.21337
2.82864
2.99057
3.06106
3.08828
3.06863
3.05968
3.00207
2.99224
2.97432
2.96336
3.00756
3.07021
3.09562
2.99416
2.83015
2.68644
2.56855
2.47997
2.55186
2.41531
2.42984
2.3924
2.4362
2.4312
2.46186
2.53261
2.63913
2.7716
2.83095
2.7481
3.45672
3.34656
3.22796
3.13845
3.06302
2.9978
3.00552
2.96675
3.08716
3.03124
3.174
3.12785
3.21383
3.22347
3.33849
3.32896
3.39747
3.32433
3.41333
3.34861
3.46239
3.56212
3.68224
3.45928
3.15239
3.05991
3.11301
3.17807
3.33704
3.53422
2.92071
2.88098
2.75666
2.71833
2.79872
2.90017
2.88647
2.84764
2.81532
2.82494
2.85044
2.94016
3.05502
3.19714
3.3667
3.56174
3.86488
4.0253
4.25741
4.26673
4.2524
4.08715
3.92768
3.74919
3.60179
3.38406
3.17342
3.01558
3.06874
3.25679
2.04068
2.26036
2.69684
3.09612
2.88158
2.55778
2.30436
2.1753
2.17244
2.19635
2.29722
2.46392
2.57027
2.55104
2.65786
2.6392
2.47426
2.33826
2.20478
2.07865
2.00581
1.92876
1.81881
1.69569
1.63568
1.60296
1.39665
1.34563
1.42783
1.44991
3.05369
2.99677
2.96586
2.94224
2.9282
2.91108
2.89586
2.9069
2.87469
2.84986
2.81807
2.83462
2.82518
2.78904
2.96042
2.85784
3.06561
3.07684
3.09044
3.16846
3.24092
3.30456
3.31377
3.14273
2.97891
2.98716
3.08863
3.16717
3.20791
3.2634
2.92586
2.88511
2.80621
2.68247
2.58459
2.43001
2.30429
2.28223
2.10518
2.14636
2.06977
2.09694
2.12836
2.20285
2.31498
2.41882
2.47113
2.61756
2.68532
2.77784
2.87459
2.79172
2.81311
2.77928
2.81231
3.10172
3.23225
3.4036
3.47932
3.02806
2.51894
2.98179
2.63413
2.35021
2.15631
2.02858
1.87992
1.81114
1.68718
1.59132
1.60884
1.54898
1.56771
1.52855
1.59908
1.67664
1.78384
1.88715
1.99498
2.22204
2.5347
2.76003
2.79701
2.77753
2.74805
2.73457
2.75699
2.86892
2.98394
3.10424
2.76599
2.60525
2.35771
2.12951
1.9555
1.78864
1.65171
1.52177
1.50495
1.45866
1.45759
1.40831
1.512
1.52442
1.53698
1.63362
1.78567
1.95094
2.0606
2.11588
2.13009
2.18548
2.16634
2.07525
1.93899
1.84042
1.8119
1.89154
2.06791
2.22275
1.47362
1.44597
1.46534
1.71663
2.07518
2.40146
2.62943
2.86238
3.02709
3.14799
3.16763
3.08809
2.89575
2.61721
2.28931
2.0337
1.91206
1.74164
1.6199
1.61717
1.58182
1.52782
1.51166
1.50831
1.51718
1.55031
1.58989
1.60874
1.5635
1.53343
1.62442
1.4508
1.35996
1.45789
2.03137
2.70129
3.05883
3.17883
3.32168
3.44759
3.59184
3.61209
3.68302
3.73306
3.66174
3.61679
3.66519
3.53233
3.40749
3.27674
3.1118
3.06858
3.13199
3.03247
2.10095
2.14441
2.59186
2.74181
2.21573
1.35764
5.42851
5.0907
6.17388
8.07394
8.97008
9.09619
9.09563
8.94059
8.46976
7.40264
6.62152
7.17646
8.85861
10.4663
3.03224
3.96692
4.20185
3.78113
3.48308
3.38743
3.32769
3.36186
3.79767
4.80811
5.63807
5.55042
4.58123
3.886
3.9314
4.18877
4.533
4.80159
5.03252
5.17394
5.17222
5.05849
4.87754
4.52265
4.01707
3.59629
3.4005
3.50184
3.69405
3.35161
3.36194
3.73009
3.74578
3.77938
3.75218
3.50398
3.33891
3.32395
3.30398
3.24551
3.23076
3.29694
3.37819
3.44227
3.42639
3.40886
3.34025
3.27821
3.22358
3.20781
3.22553
3.2046
3.21106
3.18461
3.1516
3.15066
3.04002
2.93421
2.94526
3.18119
2.83825
2.97824
3.07668
3.09967
3.07721
3.07635
3.00885
2.96732
2.92095
2.91855
2.92691
3.01115
3.07046
2.96746
2.79341
2.62795
2.5192
2.4849
2.48739
2.42994
2.45781
2.46948
2.43939
2.42759
2.43118
2.47393
2.57602
2.71161
2.78113
2.72937
3.43879
3.28884
3.21586
3.16502
3.07255
3.01272
3.03693
3.0404
3.14178
3.13923
3.28931
3.24068
3.39727
3.43991
3.51953
3.48995
3.61577
3.51882
3.58812
3.44092
3.52067
3.54445
3.68946
3.54733
3.21433
3.06882
3.07578
3.17353
3.27937
3.46367
3.02657
2.92941
2.83792
2.7353
2.82791
2.91201
2.89075
2.84574
2.83465
2.82696
2.84081
2.89994
3.05285
3.20483
3.4438
3.72505
4.09072
4.35232
4.62172
4.61914
4.5631
4.39141
4.17894
3.90467
3.72584
3.49601
3.24898
3.04103
3.03763
3.2251
2.06722
2.31139
3.03178
3.09917
2.87021
2.55011
2.29035
2.15762
2.11358
2.16213
2.40031
2.52909
2.66648
2.85139
2.83725
2.79172
2.77735
2.6465
2.42891
2.23621
2.09226
1.96406
1.83896
1.6918
1.60092
1.58701
1.49581
1.40377
1.47242
1.55975
3.02782
3.02137
2.97224
2.9218
2.89742
2.87836
2.89927
2.91379
2.84941
2.81955
2.78
2.7402
2.75123
2.75017
2.96272
2.85195
3.03486
3.12616
3.07566
3.15192
3.24264
3.27688
3.33741
3.2474
3.10921
3.1082
3.16601
3.20148
3.25564
3.3285
2.90954
2.85617
2.74942
2.62845
2.53229
2.32882
2.27951
2.1998
2.13931
2.10599
2.10502
2.06378
2.10466
2.18656
2.30481
2.31218
2.49317
2.55319
2.64716
2.79046
2.85614
2.8369
2.8191
2.84129
3.00653
3.19578
3.18392
3.20676
3.43254
3.17853
2.57378
2.82713
2.44679
2.25697
2.06599
1.96871
1.79399
1.73698
1.55795
1.5581
1.50263
1.44798
1.43415
1.53085
1.53529
1.64138
1.72225
1.78726
1.87107
2.11921
2.37942
2.66777
2.78662
2.78298
2.75728
2.75033
2.87857
2.94432
2.93521
3.03134
2.73515
2.41347
2.18063
1.97807
1.83032
1.63714
1.5348
1.41785
1.36567
1.29393
1.2674
1.28764
1.2463
1.41533
1.49781
1.5618
1.62392
1.80333
1.96794
2.08971
2.12086
2.15964
2.14783
2.08213
1.92874
1.82263
1.77236
1.84377
2.04881
2.20329
1.47336
1.44523
1.53918
1.85199
2.22094
2.5661
2.83993
3.1277
3.34881
3.41809
3.38708
3.32134
3.11524
2.82885
2.41573
2.06491
1.8765
1.67425
1.59991
1.59098
1.5636
1.52746
1.47268
1.43538
1.47755
1.55011
1.62123
1.64148
1.58836
1.53463
1.70832
1.50342
1.41028
1.80749
2.528
3.02637
3.20403
3.30036
3.47776
3.58715
3.72117
3.7653
3.80988
3.79118
3.85701
3.69874
3.70172
3.61122
3.49109
3.303
3.12484
3.02615
3.06073
3.14802
2.45643
1.78887
2.03405
2.04383
1.64343
1.09859
5.21475
5.34656
7.31577
8.85618
8.72427
8.16419
8.37928
8.81751
8.54589
7.63654
6.75607
7.15442
8.85626
10.4831
2.91345
3.92672
4.24359
3.80097
3.4738
3.37346
3.35067
3.61816
4.60969
5.86301
6.28973
5.89741
4.56008
3.82311
3.99183
4.39372
4.72494
5.13578
5.48315
5.75798
5.68059
5.55188
5.26679
4.89194
4.36354
3.82539
3.51646
3.5605
3.75141
3.39151
3.32681
3.68595
3.79575
3.85104
3.87325
3.59521
3.34089
3.32462
3.27581
3.2115
3.20471
3.29588
3.39055
3.43698
3.41194
3.36741
3.25149
3.21521
3.19278
3.16867
3.15577
3.20957
3.2365
3.23599
3.16669
3.1486
3.0566
2.93357
2.92141
3.17474
2.83511
2.97964
3.06616
3.09703
3.10068
3.0867
3.02014
2.95589
2.92155
2.88171
2.88046
2.94502
3.04271
2.98306
2.75879
2.59486
2.53808
2.47949
2.42892
2.47533
2.37668
2.37804
2.3891
2.38259
2.42567
2.40016
2.55578
2.63972
2.74466
2.7026
3.36342
3.21829
3.2125
3.18554
3.09073
3.015
3.07641
3.0825
3.23395
3.19513
3.40193
3.33568
3.56668
3.56397
3.71111
3.71717
3.79259
3.71387
3.80894
3.53918
3.62852
3.54166
3.70947
3.58622
3.28271
3.06205
3.08189
3.15721
3.25335
3.39333
3.06275
2.9906
2.81242
2.81571
2.85901
2.88165
2.87809
2.86886
2.88117
2.89623
2.84057
2.89722
3.03274
3.21756
3.44538
3.83358
4.18771
4.51868
4.74031
4.74374
4.74002
4.57545
4.3236
4.06752
3.8147
3.58884
3.29333
3.0727
3.02509
3.19811
2.03316
2.44353
3.12799
3.1638
2.94683
2.62123
2.28384
2.10417
2.0343
2.18625
2.30393
2.55946
2.67851
2.95453
2.84267
2.93327
2.82516
2.68982
2.51075
2.25558
2.09741
1.95689
1.84727
1.68303
1.5786
1.5962
1.55738
1.50832
1.53049
1.65714
3.03897
3.07441
2.98433
2.89109
2.86309
2.85152
2.89128
2.8548
2.81701
2.80906
2.70071
2.7011
2.64989
2.66356
2.88705
2.89765
2.94688
3.19384
3.09388
3.16472
3.23358
3.28382
3.35654
3.33229
3.25105
3.22592
3.20277
3.17801
3.23714
3.34517
2.90533
2.81435
2.71215
2.5827
2.46968
2.31879
2.21101
2.21522
2.0896
2.12241
2.05713
2.07209
2.15652
2.16512
2.21091
2.39415
2.45482
2.51224
2.68777
2.74484
2.94765
2.9549
2.92731
3.01197
3.11659
3.13619
2.95398
2.95393
3.10573
3.17021
2.63836
2.67208
2.34948
2.18719
2.01702
1.90888
1.73333
1.61403
1.48294
1.48058
1.40368
1.45786
1.49648
1.53186
1.5467
1.63494
1.6584
1.68449
1.82068
2.02144
2.28029
2.58251
2.75417
2.77613
2.74075
2.87369
2.98852
2.91281
2.918
3.00504
2.55901
2.25867
2.08138
1.89877
1.72524
1.52217
1.50104
1.38061
1.38555
1.32413
1.35911
1.2848
1.29588
1.25828
1.31093
1.49994
1.58286
1.71918
1.8626
2.03584
2.1041
2.13666
2.1372
2.08629
1.95274
1.83398
1.7338
1.77598
1.91842
2.11382
1.47504
1.44516
1.57007
1.94952
2.34581
2.66169
2.98266
3.28397
3.40516
3.48156
3.46809
3.44121
3.23866
2.95417
2.54541
2.09457
1.87294
1.6729
1.55618
1.57553
1.57989
1.55403
1.48881
1.48854
1.54693
1.62556
1.67238
1.67075
1.59966
1.55181
1.95392
1.66059
1.58536
2.15792
2.84928
3.19687
3.31676
3.40182
3.5991
3.68334
3.83235
3.80267
3.86778
3.83582
3.88796
3.82986
3.72399
3.66878
3.51329
3.35496
3.10355
3.00247
3.01964
3.14637
2.72845
1.6539
1.62179
1.58934
1.21854
0.889105
5.13172
5.8683
8.11491
8.32727
6.90506
6.39605
7.45223
8.66699
8.52187
7.5222
6.6829
7.22837
9.03065
10.559
2.9172
3.78935
4.30896
3.93455
3.50771
3.38377
3.48202
4.18767
5.59398
6.41165
6.26534
5.80999
4.35637
3.74246
4.10046
4.46981
4.92091
5.46749
6.02157
6.26957
6.26624
5.99309
5.64707
5.19864
4.64373
4.01087
3.64791
3.66591
3.7994
3.4168
3.26278
3.61369
3.82502
3.90348
3.89765
3.68579
3.43317
3.31673
3.25468
3.16778
3.19044
3.29986
3.39782
3.4273
3.38269
3.2959
3.22576
3.19969
3.1947
3.11569
3.14982
3.15519
3.18988
3.23376
3.16854
3.16246
3.04575
2.93291
2.92691
3.1702
2.82633
2.94504
3.06968
3.08526
3.11347
3.07992
3.0706
3.031
2.96213
2.88216
2.86262
2.91485
3.02641
3.01743
2.77416
2.57339
2.56751
2.5021
2.37648
2.50492
2.38498
2.42941
2.4215
2.36492
2.40479
2.3899
2.49223
2.63797
2.68517
2.66532
3.31384
3.19275
3.19593
3.21281
3.10852
3.03732
3.08919
3.13039
3.278
3.2573
3.44455
3.43162
3.68916
3.82218
3.96577
3.93947
3.99739
3.92624
3.96799
3.65436
3.69412
3.60456
3.69597
3.63119
3.30789
3.09654
3.07659
3.15252
3.25475
3.40482
3.09758
3.03576
2.89709
2.81173
2.9383
2.92689
2.89931
2.97441
3.07588
3.09327
2.94574
2.86667
3.01825
3.1697
3.43778
3.78179
4.18183
4.45685
4.71582
4.76902
4.70239
4.60145
4.39772
4.20251
3.84466
3.65116
3.35401
3.05326
3.01408
3.25514
2.05088
2.50214
3.12317
3.14813
3.08086
2.83918
2.40075
2.05532
2.02114
2.07408
2.19121
2.5446
2.60552
2.91379
2.84291
2.97759
2.83374
2.74919
2.53903
2.31626
2.14243
1.95748
1.83295
1.65005
1.56263
1.56132
1.56648
1.53859
1.55778
1.79008
3.15804
3.15451
2.99821
2.87863
2.83131
2.82036
2.83393
2.78282
2.83148
2.71451
2.62502
2.63436
2.64369
2.62404
2.81655
2.94424
2.90092
3.19794
3.14828
3.15721
3.26016
3.29972
3.36986
3.37379
3.33314
3.26442
3.14455
3.09952
3.13108
3.24892
2.92564
2.81295
2.68477
2.55062
2.44237
2.29879
2.2221
2.19486
2.08511
2.08607
2.04339
2.09661
2.11991
2.10019
2.35278
2.31042
2.45777
2.56769
2.64528
2.78316
2.96734
2.98824
3.03051
3.13998
3.20451
2.94544
2.766
2.74221
2.79011
2.85678
2.77001
2.6257
2.34931
2.1575
1.99838
1.86225
1.67058
1.55102
1.45813
1.4144
1.41196
1.44477
1.40512
1.49001
1.48901
1.63178
1.5792
1.68373
1.78222
1.94821
2.21717
2.54576
2.72951
2.75676
2.8515
3.11508
3.00118
2.79412
2.74011
2.74959
2.57139
2.2174
2.03951
1.81954
1.64102
1.48061
1.47019
1.35789
1.35526
1.31847
1.24894
1.2815
1.24491
1.31956
1.24376
1.38487
1.49311
1.69442
1.79685
1.98626
2.08602
2.12549
2.12025
2.1083
1.99454
1.85064
1.7414
1.71069
1.765
1.85494
1.51013
1.4656
1.60019
1.96156
2.40589
2.74483
3.01619
3.30482
3.47036
3.4963
3.45137
3.43174
3.25407
3.00873
2.624
2.14052
1.89726
1.66388
1.54124
1.57349
1.61212
1.61942
1.62061
1.60877
1.62826
1.68181
1.70483
1.68524
1.60844
1.54962
2.29305
2.00172
1.87345
2.50723
3.07241
3.30472
3.38796
3.48692
3.69656
3.72765
3.92448
3.86938
3.97183
3.91696
3.92282
3.83293
3.75843
3.67125
3.55251
3.33914
3.11165
2.96106
2.99829
3.10958
2.91514
1.71203
1.48318
1.31422
0.986814
0.722855
5.24673
6.48805
8.17357
6.86069
5.2729
5.4029
7.28139
8.98751
8.52005
7.42279
6.80596
7.47552
9.10927
10.5343
8.70647
5.53919
3.29418
3.32345
4.16821
4.29064
3.89329
3.72583
4.09175
5.18185
6.39439
6.55491
5.91176
5.59129
4.26727
3.73004
4.10791
4.50735
5.03758
5.70311
6.28264
6.57112
6.5624
6.33201
5.91395
5.41038
4.78194
4.14478
3.78393
3.80547
3.85222
3.42148
2.99149
2.92716
3.13637
3.48365
3.76504
3.91658
3.90323
3.78942
3.50607
3.32989
3.18958
3.14209
3.16244
3.29009
3.41082
3.41675
3.35357
3.25603
3.24217
3.18619
3.20043
3.13625
3.17177
3.1854
3.20376
3.21933
3.17532
3.15739
3.0377
2.94419
2.92217
3.25297
3.36441
3.07074
2.84537
2.91017
3.00149
3.07973
3.10495
3.06969
3.0822
3.05795
2.99219
2.91182
2.83535
2.87596
3.00711
3.04698
2.86266
2.60711
2.53951
2.56625
2.40234
2.41991
2.40399
2.38026
2.40149
2.32597
2.37845
2.36538
2.49043
2.59399
2.68324
2.74387
3.09991
3.07729
3.13477
3.04194
3.09492
3.17102
3.12499
3.04867
3.11239
3.16266
3.33001
3.32607
3.47951
3.54137
3.77053
3.87137
4.05267
4.12118
4.09654
4.12758
4.05279
3.70794
3.75646
3.66061
3.7163
3.62334
3.34489
3.0829
3.09529
3.13401
3.2255
3.36722
3.43024
3.43056
3.30706
3.15121
2.91665
2.89178
2.88084
2.96439
2.98809
3.12817
3.35149
3.34155
3.0508
2.93739
2.99678
3.16245
3.33117
3.69809
4.11623
4.36989
4.54999
4.5537
4.67363
4.62598
4.38303
4.1535
3.90739
3.68867
3.29349
3.05603
3.07072
3.27906
3.0414
2.20935
2.11038
2.65909
3.20303
3.25759
3.16895
2.93936
2.47724
2.10121
1.94374
2.01233
2.09171
2.36517
2.44428
2.76938
2.76019
2.80213
2.76421
2.63387
2.4621
2.24789
2.08944
1.95225
1.77863
1.61082
1.53452
1.56008
1.59035
1.59245
1.72708
2.31659
2.92479
3.07713
3.26673
3.1825
2.99792
2.87432
2.79381
2.7749
2.75711
2.80317
2.80074
2.64073
2.67267
2.62664
2.61079
2.70864
2.7372
2.98047
2.89323
3.20614
3.12613
3.19873
3.25616
3.33053
3.38801
3.43191
3.39141
3.23721
3.1052
3.04463
3.02246
3.0176
2.992
3.14234
2.90271
2.83479
2.68038
2.55526
2.43739
2.32002
2.2116
2.20591
2.08655
2.08819
2.04371
2.12106
2.07102
2.22656
2.28042
2.31829
2.51238
2.53816
2.68606
2.81321
2.99118
3.09338
3.17249
3.30534
3.17952
2.91139
2.77308
2.68043
2.64485
2.61297
2.58052
2.48444
2.47153
2.34648
2.23673
2.1067
1.96169
1.83312
1.62923
1.51556
1.39651
1.39767
1.34492
1.40809
1.39822
1.50712
1.49194
1.55082
1.59757
1.66608
1.77124
1.91397
2.22369
2.52639
2.70006
2.78616
3.0849
3.24882
3.06119
2.80185
2.63795
2.53936
2.56111
2.7145
2.35697
2.17114
1.98589
1.74449
1.61179
1.45838
1.47791
1.34185
1.38331
1.27257
1.30895
1.30064
1.24028
1.31215
1.26388
1.39925
1.44385
1.63814
1.77708
1.94772
2.05883
2.11956
2.12423
2.13803
2.03698
1.93145
1.75849
1.69576
1.6943
1.68488
1.65759
1.62095
1.51482
1.46601
1.59801
1.96873
2.37023
2.74958
3.02546
3.23883
3.43357
3.44222
3.42716
3.38896
3.19728
3.00727
2.61476
2.15941
1.91048
1.6852
1.51822
1.56792
1.60931
1.63859
1.65817
1.67547
1.68077
1.69
1.69279
1.6438
1.58843
1.58453
1.82583
2.28501
2.63889
2.51575
2.07003
2.6745
3.21564
3.37821
3.44605
3.55498
3.73524
3.78189
3.93839
3.91893
4.00168
3.93824
3.96495
3.81495
3.78185
3.63702
3.55224
3.32099
3.06857
2.95324
2.97137
3.09519
2.93288
1.78136
1.27134
1.07473
0.867949
0.966073
3.37147
3.73285
5.38099
6.77023
7.39169
5.45506
4.42542
5.11299
7.59737
9.12686
8.48038
7.39694
7.14725
8.06544
9.4829
10.2705
7.7786
4.52957
3.11701
3.22955
4.08431
4.52591
4.39578
4.38357
5.02423
6.13413
6.64969
6.10962
5.16352
5.20207
4.18219
3.67592
4.0621
4.47991
5.03012
5.66409
6.2649
6.55296
6.62231
6.45
6.00881
5.44961
4.80126
4.23209
3.93625
3.91982
3.88889
3.41071
2.99303
2.83734
2.9979
3.29338
3.63029
3.86346
3.90009
3.83902
3.61551
3.37953
3.17388
3.0682
3.13465
3.28701
3.41093
3.39569
3.3466
3.25623
3.21691
3.19347
3.22525
3.17017
3.19114
3.22154
3.20095
3.1928
3.20387
3.12628
3.01243
2.91416
2.94048
3.27286
3.36938
3.14296
2.90751
2.86127
2.94795
3.04669
3.04562
3.08704
3.07903
3.03601
3.01248
2.9802
2.87701
2.84427
3.02046
3.10607
2.93307
2.71883
2.56518
2.54091
2.52066
2.36337
2.43322
2.31805
2.31977
2.34008
2.32593
2.40999
2.4939
2.58469
2.64468
2.76206
3.06065
3.05833
3.02968
2.96561
3.03434
3.17063
3.16878
3.08483
3.11508
3.19295
3.31535
3.35734
3.44938
3.57381
3.8288
4.04323
4.14121
4.07822
4.15131
4.20792
3.89865
3.80598
3.73569
3.7273
3.69946
3.63316
3.31118
3.1194
3.10366
3.16701
3.2506
3.38246
3.44902
3.42547
3.4397
3.2262
3.0456
2.95966
2.9123
2.91016
3.02832
3.28836
3.60751
3.66225
3.32221
2.95184
2.95931
3.12195
3.26141
3.46815
3.79748
4.15854
4.42485
4.5589
4.50657
4.35463
4.21169
4.16298
3.90052
3.55807
3.29512
3.12209
3.06317
3.22061
3.07387
2.43143
2.18818
2.67824
3.11968
3.27247
3.30161
3.19167
2.78306
2.1563
1.94512
1.94807
1.98042
2.12607
2.25626
2.5466
2.51812
2.64022
2.52997
2.46934
2.32311
2.15165
2.03461
1.85867
1.69068
1.56138
1.51319
1.55161
1.58124
1.69132
2.12222
2.5691
3.02751
3.23435
3.51309
3.38815
3.15379
2.91901
2.78277
2.70716
2.738
2.80208
2.70488
2.68133
2.69437
2.64889
2.58164
2.7504
2.71739
2.9532
2.93141
3.19588
3.12781
3.23644
3.28536
3.32297
3.40642
3.41892
3.34885
3.23886
3.18639
3.14875
3.08271
3.05264
3.03481
3.08902
2.93413
2.84798
2.69236
2.56559
2.45145
2.35123
2.21711
2.23022
2.09642
2.11803
2.08923
2.11795
2.09519
2.23956
2.25233
2.43788
2.49672
2.57922
2.71073
2.83654
3.04698
3.14153
3.28198
3.41545
3.29089
3.07866
2.93003
2.81592
2.72987
2.65836
2.60388
2.51653
2.56404
2.39172
2.27898
2.12425
1.99048
1.8014
1.66452
1.51062
1.40654
1.35786
1.33417
1.3832
1.38348
1.46426
1.49808
1.48027
1.63943
1.64973
1.7615
1.97171
2.24919
2.50998