/*--------------------------------*- C++ -*----------------------------------*\
| =========                 |                                                 |
| \\      /  F ield         | OpenFOAM: The Open Source CFD Toolbox           |
|  \\    /   O peration     | Version:  2.1.1                                 |
|   \\  /    A nd           | Web:      www.OpenFOAM.org                      |
|    \\/     M anipulation  |                                                 |
\*---------------------------------------------------------------------------*/
FoamFile
{
    version     2.0;
    format      ascii;
    class       volScalarField;
    location    "0.007600000";
    object      cSound;
}
// * * * * * * * * * * * * * * * * * * * * * * * * * * * * * * * * * * * * * //

dimensions      [0 1 -1 0 0 0 0];

internalField   nonuniform List<scalar> 
12384
(
1134.32
1131.19
1127.7
1124.73
1122.37
1122.06
1123.43
1125.29
1128.15
1131.68
1136.47
1141.02
1144.54
1149.11
1085.92
1088.4
1089.97
1095.74
1102.03
1108.91
1113.03
1115.54
1116.44
1117.42
1116.85
1116.43
1115.39
1114.02
1112.21
1110.16
1107.92
1106.09
1104.93
1104.25
1104.04
1104.21
1104.52
1104.83
1105.29
1105.72
1105.86
1105.85
1095.51
1067
1126.32
1130.25
1130.5
1129.33
1128.28
1127.56
1127.04
1126.7
1126.44
1126.12
1125.75
1125.51
1125.14
1124.84
1124.73
1124.14
1124.27
1123.95
1124.02
1123.78
1124.04
1124.14
1124.38
1124.53
1124.74
1124.96
1125.54
1126.4
1124.63
1123.77
1118.48
1121.28
1120.12
1119.4
1118.96
1118.99
1118.89
1119.17
1119.31
1119.71
1120.26
1120.57
1120.82
1121.05
1121.26
1121.52
1121.55
1121.73
1121.74
1121.9
1121.53
1122.23
1122.2
1122.93
1123
1123.51
1123.78
1123.78
1123.27
1123.15
1124.51
1124.01
1124.25
1124.77
1125.02
1125
1124.6
1124.32
1122.56
1122.36
1120.49
1119.99
1118.19
1118.43
1117.19
1117.52
1117.58
1118.13
1118.68
1119.22
1119.92
1119.97
1117.48
1117.83
1118.14
1118.05
1117.62
1117.28
1117.33
1117.02
1122.03
1121.7
1124.32
1127.69
1129.52
1130.34
1130.79
1130.86
1130.62
1130.4
1130.25
1130.16
1130.18
1130.11
1129.86
1129.54
1129.1
1128.63
1128.12
1127.92
1127.53
1127.06
1126.86
1126.43
1125.89
1125.13
1124.3
1123.65
1123.87
1124.64
1108.83
1110.99
1113.17
1116.14
1117.56
1118.53
1118.54
1118.34
1117.62
1116.95
1116.15
1114.86
1113.71
1112.87
1111.37
1110.41
1110.21
1109.16
1109.23
1108.69
1109.56
1109.54
1109.88
1109.89
1109.35
1106.94
1081.17
1070.5
1075.56
1078.95
1120.94
1131.71
1135.46
1138.15
1139.21
1139.43
1139.3
1138.96
1138.47
1137.87
1137.03
1136.67
1136.16
1136.1
1136.1
1136.61
1137.61
1138.18
1138.88
1138.69
1131.93
1124.31
1123.89
1124.58
1125.31
1126.11
1126.87
1127.57
1127.82
1127.78
1136.97
1137.16
1137.42
1137.47
1137.24
1136.88
1136.38
1135.27
1133.96
1134.21
1133.19
1132.38
1132.1
1133.14
1133.47
1134.29
1134.99
1136.43
1143.08
1144.09
1144.26
1144.39
1144.67
1144.51
1144.83
1144.94
1145.3
1145.49
1144.99
1145.41
1135.82
1135.8
1136.43
1137.22
1138.03
1138.47
1138.47
1138
1137.33
1136.32
1135.8
1134.35
1133.96
1133.85
1134.45
1134.88
1135.36
1135.39
1135.93
1139.71
1142.1
1142.83
1143.61
1143.63
1144.55
1144.34
1144.79
1143.53
1144.06
1143.72
1138.8
1138.85
1140.03
1140.32
1140.49
1140.63
1140.46
1140.66
1140.01
1140.59
1139.97
1141.18
1140.54
1140.75
1140.73
1144.66
1149.18
1149.07
1148.57
1147.7
1147.06
1146.77
1146.56
1146.57
1146.55
1146.36
1146.49
1146.84
1147.08
1148.64
1138.1
1137.06
1141.93
1150.31
1148.83
1147.39
1146.93
1146.58
1146.06
1146.11
1145.53
1145.57
1144.79
1145.08
1144.2
1144.62
1143.65
1144.09
1143.06
1143.45
1142.02
1142.41
1140.95
1141.22
1139.98
1140.16
1139.48
1139.32
1139.92
1138.84
1147.91
1147.26
1145.82
1146.08
1147
1148.87
1153.03
1179.47
1195.75
1197.24
1197.22
1197.49
1196.95
1197.5
1196.59
1197.52
1196.52
1197.24
1196.32
1196.34
1196.4
1197.57
1198.29
1199.52
1199.46
1199.33
1198.87
1197.69
1192.75
1186.45
1125.45
1118.62
1110.92
1107.72
1107.61
1108.82
1110.81
1112.99
1115.49
1119.29
1125.37
1133.86
1142.23
1148.88
1086.22
1088.32
1090.84
1098.58
1108.79
1117.96
1123.54
1124.87
1124.81
1124.48
1123.3
1121.25
1118.12
1113.37
1107.41
1102.34
1099.3
1098.03
1097.73
1097.53
1097.5
1097.55
1098.14
1099.2
1100.88
1102.8
1104.38
1105.67
1102.46
1086.26
1127.02
1130.46
1130.08
1128.49
1127.3
1126.79
1126.61
1126.03
1125.39
1124.55
1123.69
1122.59
1121.77
1121.55
1121.33
1121.8
1122.01
1122.45
1122.97
1123.19
1123.12
1123.36
1123.54
1123.74
1123.96
1124.3
1124.79
1125.8
1126.19
1125.38
1119.53
1120.92
1119.66
1118.85
1118.7
1118.56
1118.54
1118.86
1118.84
1119.48
1120.13
1121.02
1121.78
1122.41
1122.78
1122.75
1122.56
1122.1
1121.54
1120.96
1121.12
1121.26
1121.48
1121.83
1122.25
1123.12
1123.51
1123.54
1123.77
1123.64
1124.51
1123.9
1124.35
1125.33
1126.03
1125.62
1124.36
1123.19
1120.88
1120.29
1117.4
1116.52
1115.61
1114.58
1113.88
1113.87
1114.73
1115.6
1116.61
1117.86
1118.75
1119.82
1119.01
1117.82
1118.19
1117.15
1115.62
1114.94
1115.96
1117.53
1122.1
1122.82
1127.02
1131.01
1133.63
1134.15
1133.48
1131.61
1129.96
1128.36
1127.55
1127.31
1127.47
1127.48
1127.32
1127.03
1126.66
1126.46
1126.36
1126.09
1125.86
1125.95
1126.06
1126.1
1125.91
1125.46
1124.72
1123.99
1123.83
1124.38
1109.09
1113.06
1118.45
1122.55
1123.48
1122.53
1121.1
1119.84
1118.85
1116.56
1113.94
1111.74
1109.92
1108.64
1107.83
1106.83
1106.63
1106.75
1106.54
1106.99
1107.43
1107.91
1108.94
1109.15
1109.28
1108.37
1098.88
1081.78
1074.98
1081.72
1118.31
1130.63
1136.99
1139.24
1138.82
1137.93
1137.33
1137.05
1136.74
1136.44
1136.21
1135.83
1135.19
1135.09
1135.47
1135.89
1136.45
1137.15
1138.21
1138.99
1136.82
1129.91
1123.67
1121.93
1122.98
1124.53
1126.84
1128.89
1130.06
1129.91
1136.33
1137.01
1137.7
1137.68
1137.09
1136.22
1134.68
1132.91
1132.25
1131.12
1129.39
1129.5
1129.71
1130
1130.9
1132.44
1133.59
1135.14
1139.34
1143.51
1143.5
1143.32
1143.15
1143.18
1142.93
1143.1
1143.8
1145.12
1145.74
1145.46
1135.52
1135.58
1136.86
1138.77
1139.95
1139.87
1138.77
1137
1135.05
1133.36
1131.8
1130.46
1129.86
1130.23
1130.84
1132.03
1133.07
1133.82
1134.54
1136.85
1140.5
1141.85
1142.25
1142.79
1143.63
1145.34
1146.71
1146.5
1144.93
1144.37
1138.73
1138.93
1139.7
1139.83
1139.51
1138.82
1137.85
1136.8
1136.74
1136.03
1137.03
1138.3
1138.95
1139.75
1140.31
1141.52
1144.54
1147.59
1148.87
1147.19
1146.53
1145.91
1145.85
1145.92
1146.04
1146.19
1146.52
1146.55
1147.26
1148.4
1141.89
1144.87
1148.97
1149.83
1148.16
1147.6
1147.64
1147.67
1148.04
1147.73
1147.57
1146.88
1146.39
1145.83
1145.37
1145.33
1144.61
1145.22
1143.96
1143.88
1141.91
1141.33
1139.71
1140.09
1139.66
1140.05
1139.9
1139.48
1139.9
1139.29
1155.39
1149.15
1143.22
1143.71
1146.04
1151.81
1169.44
1191.17
1197.11
1197.83
1198.08
1198.19
1198.37
1198.23
1197.8
1197.71
1196.55
1195.52
1193.11
1190.72
1188.32
1187.96
1190.69
1193.96
1196.79
1198.81
1198.91
1198.15
1192.47
1186.3
1114.03
1103.92
1100.69
1103
1108.44
1113.41
1117.66
1120.79
1121.97
1121.78
1122.41
1126.78
1137.81
1148.05
1086.52
1088.24
1091.06
1100.69
1113.66
1123.62
1127.72
1128.7
1128.88
1128.92
1127.3
1124.36
1119.13
1111.41
1102.75
1098.19
1097.03
1097.71
1098.89
1099.89
1100.41
1100.07
1099.57
1099.02
1098.88
1099.98
1101.84
1104.2
1104.58
1094.93
1127.3
1130.58
1129.92
1128.53
1128.05
1128.38
1128.31
1127.13
1125.82
1124.81
1123.85
1122.45
1121.11
1120.77
1121.68
1122.96
1123.5
1124.05
1123.8
1124.05
1124.05
1123.73
1123.57
1123.61
1123.65
1123.67
1124
1124.85
1125.92
1125.89
1119.88
1120.48
1119.32
1119.44
1119.87
1120.4
1119.92
1119.9
1119.23
1119.48
1120.2
1121.9
1123.33
1123.77
1123.7
1122.91
1121.77
1120.33
1119.59
1119.13
1118.63
1118.97
1119.51
1119.97
1121.01
1121.83
1122.46
1123.25
1123.71
1123.63
1124.53
1123.74
1124.4
1126.3
1126.17
1125.05
1122.53
1119.91
1118.2
1116.83
1113.6
1113.84
1111.98
1110.73
1110.64
1110.82
1111.29
1112.34
1113.58
1115.12
1117.01
1118.55
1119.44
1118.55
1118.06
1116.14
1112.27
1111.16
1112.76
1114.87
1121.81
1124.08
1130.1
1135.09
1137.85
1137.21
1134.96
1131.47
1128.96
1126.71
1125.93
1125.87
1125.93
1126.05
1126.1
1126.27
1126.77
1127.25
1127.31
1127.15
1127.09
1126.78
1126.31
1126.02
1125.88
1125.57
1125.02
1124.23
1123.85
1124.17
1109.32
1115.74
1123.02
1127.08
1125.4
1122.53
1119.98
1118.57
1116.96
1113.39
1110
1108.07
1106.68
1106.42
1105.92
1106.29
1106.39
1106.49
1106.72
1106.8
1107.32
1107.35
1108.12
1108.51
1108.81
1108.69
1106.39
1094.27
1078.85
1079.61
1116.25
1129.45
1139.12
1138.21
1136.7
1136.18
1136.48
1136.88
1137.34
1137.72
1138.04
1137.54
1137.52
1137.47
1137.07
1137.19
1137.01
1136.98
1137.38
1138.28
1138.49
1135.42
1128.87
1123.07
1120.83
1122.4
1125.72
1129.38
1131.15
1131.19
1136.36
1137.65
1138.25
1137.63
1136.25
1134.61
1132.44
1130.46
1129.81
1126.88
1126.07
1125.73
1125.45
1126.66
1127.9
1130.12
1131.53
1133.08
1135.97
1140.67
1142.98
1142.67
1142.3
1141.98
1141.66
1141.25
1141.43
1143.38
1145.4
1145.6
1135.09
1135.61
1138.14
1140.79
1140.94
1139
1136.22
1133.15
1130.86
1128.22
1127.07
1125.11
1124.61
1124.42
1126.05
1127.8
1129.5
1131.19
1132.43
1134.3
1138.23
1140.74
1140.62
1140.47
1141.21
1144.16
1147.18
1148.58
1147.59
1144.77
1138.5
1138.82
1139.4
1139.02
1138.09
1136.22
1134.1
1132.3
1130.81
1131.32
1131.19
1132.54
1135.24
1136.46
1138.43
1139.17
1140.67
1144.09
1147.6
1147.48
1146.82
1145.57
1145.97
1146.14
1147.04
1147.64
1147.66
1147.62
1147.55
1149.14
1145.52
1149.58
1150.52
1149.11
1148.51
1148.87
1150.01
1150.73
1151.32
1151.21
1151.24
1149.89
1148.73
1147.62
1145.56
1144.97
1143.75
1144.04
1142.81
1142.41
1139.47
1138.54
1136.71
1136.56
1136.16
1137.88
1138.95
1139.32
1139.68
1139.39
1162.45
1148.64
1140.92
1144.94
1152.19
1166.66
1186.67
1196.75
1197.95
1198.51
1198.86
1199.04
1198.94
1199.47
1199.37
1199.58
1199.51
1198.07
1196.28
1191.4
1185.23
1180.81
1180.19
1183.09
1186.37
1192.01
1196.09
1195.73
1188.75
1185.03
1099.05
1096.86
1101.83
1109.98
1116.89
1120.96
1124.05
1127.24
1130.95
1130.83
1127.26
1126.2
1133.34
1146.67
1086.55
1088.01
1090.01
1099.35
1113.1
1124.24
1129.23
1130.99
1131.34
1131.03
1129.61
1126.05
1119.05
1108.78
1099.66
1097.73
1099.44
1102.14
1104.54
1105.99
1106.53
1106.29
1105.06
1103
1100.76
1099.6
1100.33
1102.37
1104.65
1098.67
1127.33
1130.57
1130.15
1129.69
1130.04
1130.59
1130.03
1127.53
1125.27
1124.21
1123.39
1121.25
1120.24
1121.96
1123.93
1124.63
1124.78
1124.46
1124.54
1124.18
1123.72
1124.04
1123.85
1123.57
1123.5
1123.43
1123.31
1124.14
1125.39
1125.95
1120.01
1120.26
1119.69
1120.84
1121.9
1122.5
1121.51
1120.66
1119.89
1119.38
1120.03
1122.5
1124.16
1123.95
1122.76
1120.94
1118.99
1117.77
1116.76
1115.94
1115.69
1115.61
1116.31
1117.66
1119.02
1119.99
1121.35
1122.56
1123.27
1123.58
1124.64
1123.68
1124.93
1127.21
1125.25
1122.71
1119.85
1117.41
1116.02
1113.43
1111.32
1110.55
1107.91
1107.9
1107.44
1107.29
1108.14
1109.47
1110.85
1112.59
1114.55
1117.15
1118.84
1118.95
1118.25
1117
1113.5
1110.7
1112.82
1115.22
1122.23
1124.95
1132.46
1138.73
1142.03
1141.45
1138.43
1133.39
1128.98
1126.25
1125.43
1125.37
1125.5
1125.82
1126.46
1127.56
1129.05
1130.14
1130.97
1131.67
1131.64
1130.55
1129.48
1127.92
1126.78
1125.9
1125.27
1124.5
1123.89
1124.07
1109.45
1117.84
1126.63
1130.03
1127.34
1123.08
1119.6
1118.55
1115.92
1111.18
1107.8
1106.14
1105.86
1106.08
1106.62
1107.98
1107.59
1108.53
1108.75
1108.9
1108.64
1108.58
1108.35
1108.41
1108.58
1108.52
1107.92
1101.27
1085.87
1079.06
1116.7
1134.97
1138.65
1136.29
1135.6
1135.99
1136.74
1137.66
1138.61
1139.47
1139.75
1139.72
1140.15
1139.35
1139.08
1138.8
1138.7
1138.04
1137.65
1137.6
1138.69
1137.9
1134.04
1127.44
1122.19
1120.87
1123.97
1129.48
1132.87
1132.81
1137.53
1138.73
1138.43
1136.94
1134.78
1132.34
1130.7
1127.3
1124.71
1122.13
1121.79
1120.65
1121.12
1122.03
1123.88
1126.48
1129.16
1131.12
1133.3
1137.77
1141.38
1142.35
1142.21
1141.69
1140.69
1140.17
1140.05
1141.1
1144.33
1145.56
1134.25
1136.15
1140.31
1141.59
1139.77
1136.17
1132.56
1129.46
1126.4
1123.36
1120.79
1119.92
1118.53
1119.05
1119.95
1122.34
1124.9
1127.96
1130.01
1132.01
1135.44
1139.02
1139.6
1139.23
1139.9
1143.72
1147.26
1149.72
1148.97
1146.07
1138.43
1139.12
1139.57
1138.47
1136.03
1132.79
1129.9
1127.75
1125.51
1123.89
1124.71
1126.68
1130.24
1132.34
1135.61
1136.9
1138.54
1141.24
1144.89
1147.35
1146.88
1146.22
1146.28
1147.12
1148.15
1148.65
1148.19
1147.45
1147.79
1149.11
1147.58
1151.01
1150.35
1149.39
1149.9
1151.63
1153.39
1155.12
1156.21
1156.9
1156.46
1155.67
1154.12
1151.6
1148.92
1146.32
1143.86
1143.2
1141.99
1141.72
1138.69
1137.23
1136.01
1134.22
1133.81
1135.16
1137.51
1138.77
1139.47
1139.36
1166.55
1148.14
1140.85
1152.28
1165.05
1182.54
1195.11
1198.24
1198.67
1198.74
1198.73
1198.38
1198.12
1197.83
1198.85
1199.16
1200.66
1200.24
1201.06
1197.16
1191.2
1180.6
1175.68
1177.59
1179.33
1180.9
1186.41
1187.36
1182.35
1185.68
1092.91
1099.29
1109.66
1117.22
1120.79
1122.02
1122.24
1123.29
1127.75
1133.41
1133.64
1128.54
1131.69
1145.29
1086.62
1087.91
1088.84
1095.81
1108.25
1120.54
1127.57
1129.63
1129.17
1127.92
1128.03
1125
1117.32
1105.01
1098.4
1099.96
1103.39
1106.77
1108.79
1109.72
1110.2
1110.29
1109.44
1107.29
1104.24
1101.09
1100.01
1101.31
1104.16
1100.18
1127.07
1130.85
1131.2
1131.56
1132.44
1132.94
1130.97
1127.44
1124.23
1123.16
1121.7
1119.56
1121.21
1124.3
1125.14
1125.4
1124.01
1122.99
1121.46
1120.66
1120.9
1121.13
1122.23
1122.95
1123.04
1122.94
1122.83
1123.34
1124.81
1125.86
1119.99
1120.09
1120.44
1122.45
1123.95
1123.87
1122.86
1121.43
1120.35
1119.47
1120.08
1123.08
1124.23
1123.27
1120.89
1118.35
1116.44
1114.89
1113.24
1112.16
1112.02
1112.67
1113.38
1114.73
1116.43
1118.2
1120.13
1121.46
1122.53
1123.43
1124.88
1123.84
1125.75
1126.18
1123.28
1120.43
1117.92
1116.23
1113.85
1110.9
1108.59
1106.6
1104.29
1104.51
1103.42
1104.3
1105.45
1107.09
1108.68
1110.31
1112.61
1115.24
1117.97
1119.16
1118.75
1118.31
1116.55
1111.49
1114.16
1116.49
1121.75
1124.94
1133.29
1140.68
1144
1144.27
1141.07
1133.87
1128.01
1125.38
1124.86
1125.15
1125.43
1126.04
1127.47
1129.58
1131.54
1133.53
1135.61
1137
1136.88
1135.96
1133.87
1131.58
1129.22
1127.18
1125.72
1124.67
1123.84
1123.97
1109.2
1119.25
1128.78
1132.61
1130.32
1124.92
1119.64
1118.4
1115.38
1109.5
1106.18
1105.3
1105.59
1106.72
1107.93
1109.06
1110.38
1111.68
1112.01
1111.74
1111.3
1110.61
1109.44
1109.06
1108.64
1108.4
1108.06
1104.68
1090.54
1080.08
1120.3
1139.94
1136.87
1135.42
1135.43
1135.97
1137.03
1138.26
1139.72
1140.59
1140.54
1141.56
1141.63
1141.82
1141.74
1140.59
1140.41
1139.49
1138.4
1138.09
1138.29
1138.68
1137.1
1132.19
1125.31
1121.67
1123.41
1129.55
1133.86
1134.03
1139.43
1139.14
1137.87
1135.72
1133.41
1130.86
1127.66
1123.28
1120.9
1118.44
1116.87
1116.31
1116.66
1118.24
1120.14
1122.96
1126.19
1129.19
1131.56
1134.93
1139.09
1141.31
1141.46
1140.79
1139.67
1139.62
1139.47
1139.94
1143.15
1145.49
1134.94
1138.16
1142.51
1141.71
1137.45
1133.33
1129.92
1126.28
1122.44
1118.68
1116.59
1114.18
1113.91
1113.63
1115.19
1117.1
1120.13
1123.84
1127.37
1129.77
1133.07
1137.61
1139.02
1138.95
1139.4
1144.49
1149.26
1150.73
1150.13
1146.33
1138.81
1140.11
1139.77
1137.17
1133.35
1129.49
1125.45
1121.24
1118.56
1117.57
1118.36
1119.39
1123.22
1126.73
1131.83
1134.54
1136.85
1139
1143.3
1146.42
1146.61
1145.59
1145.94
1146.78
1147.84
1148.77
1149.29
1149.48
1149.47
1150.56
1148.17
1151.25
1150.48
1150.25
1152.13
1154.64
1157.45
1159.51
1161.5
1161.99
1162.07
1161.46
1159.51
1157.1
1153.65
1150.1
1145.77
1143.66
1141.55
1141.31
1139.34
1136.89
1136.48
1133.5
1133.01
1133.72
1136.37
1138.26
1139.19
1139.36
1169.92
1151.7
1142.52
1161.8
1177.07
1191.76
1198.03
1198.65
1198.51
1198.24
1197.13
1196.21
1195.42
1195.24
1195.36
1196.31
1198.76
1199.47
1201.59
1201.42
1198.73
1187.69
1175.36
1175.72
1182.05
1182.64
1180.13
1180.66
1181.08
1188.95
1096.24
1107.16
1115.87
1121.29
1124.65
1125.19
1122.54
1120.5
1121.97
1129.29
1135.49
1131.63
1131.97
1144.59
1086.5
1087.76
1087.17
1090.46
1099.53
1110.48
1118.37
1120.69
1118.84
1118.41
1122.04
1122.51
1114.86
1101.96
1099.23
1102.86
1106.88
1109.23
1110.29
1111.06
1111.48
1111.36
1111.31
1110.24
1107.42
1103.21
1100.59
1100.83
1103.69
1100.96
1126.48
1131.09
1132.3
1133.21
1134.5
1134.35
1130.92
1126.63
1123.11
1121.49
1118.93
1119.21
1124.14
1125.44
1125.46
1123.63
1120.92
1119.44
1117.89
1118.18
1118.01
1118.38
1119.29
1121
1122.24
1122.32
1122.14
1122.82
1124.52
1125.78
1119.98
1120.19
1121.12
1123.58
1125.16
1124.1
1123.27
1122.23
1120.79
1119.47
1120.26
1123.64
1123.84
1121.87
1118.85
1116.13
1113.85
1111.72
1109.21
1108.06
1107.37
1108
1109.69
1112.02
1114.01
1116.48
1118.62
1120.4
1121.94
1123.17
1125.05
1124.4
1126.98
1124.13
1121.49
1119.31
1117.06
1114.87
1111.65
1108.53
1105.42
1103.71
1101.86
1101.66
1101.8
1101.83
1102.78
1104.61
1106.39
1109
1111.33
1113.43
1116.75
1118.92
1119.48
1118.99
1117.99
1113.53
1116.38
1118.32
1122.56
1124.66
1132.63
1140.3
1143.82
1144
1140.02
1131.6
1126.36
1124.58
1124.59
1125.18
1125.48
1126.68
1128.62
1130.9
1133.61
1137.04
1139.44
1140.58
1141.02
1140.26
1138.18
1134.72
1131.48
1128.76
1126.62
1125.01
1123.8
1123.78
1109.05
1118.99
1129.56
1134.46
1133.68
1127.26
1119.64
1118.36
1115.33
1108.3
1105.41
1104.72
1105.78
1106.93
1108.46
1110.38
1112.93
1113.91
1114.56
1114.52
1114.02
1113.01
1110.48
1110.03
1108.81
1108.42
1107.89
1105.89
1092.87
1081.45
1128
1139.45
1136.37
1135.75
1135.38
1135.81
1137.13
1138.73
1140.36
1140.8
1141.73
1143.57
1143.05
1143.34
1143.33
1142.8
1142.23
1140.34
1140.07
1138.68
1138.4
1138.97
1138.42
1135.45
1128.72
1123.75
1124.37
1130.43
1135.45
1135.14
1139.62
1138.92
1137.09
1134.61
1132.49
1128.91
1125.21
1120.14
1118.5
1113.98
1112.34
1111.06
1111.85
1113.71
1116.99
1120.32
1123.56
1127.06
1130.41
1132.81
1137.3
1139.78
1140.53
1139.51
1138.78
1139.31
1139.37
1139.64
1142.3
1145.54
1136.64
1142.3
1144.06
1139.94
1135.14
1131.6
1128.09
1123.13
1118.68
1115.04
1111.97
1110.3
1108.79
1109.95
1111.15
1113.64
1116.21
1120.01
1124.39
1128.14
1131.24
1135.89
1138.41
1138.39
1139.52
1146.31
1150.77
1151.35
1150.39
1146.98
1140.08
1141.19
1138.81
1134.67
1130.35
1125.2
1119.89
1114.78
1110.11
1107.87
1107.72
1110.27
1116.42
1121.22
1127.95
1131.45
1135.12
1137.93
1142.05
1146.18
1146.89
1145.89
1145.87
1146.49
1147.63
1149.31
1150.41
1150.42
1150.93
1150.98
1148.21
1151.63
1150.87
1151.51
1154.13
1157.56
1160.7
1163.09
1164.75
1165.34
1165.71
1164.83
1163.62
1161.49
1158.48
1153.99
1149.53
1144.94
1141.93
1140.99
1140.12
1137.53
1136.83
1134.36
1133.13
1133.62
1135.89
1137.65
1139.32
1139.31
1172.77
1158.58
1144.13
1168.88
1184.99
1195.61
1198.71
1198.79
1198.18
1196.98
1195.41
1193.16
1192.19
1191.48
1191.92
1192.55
1196.23
1197.59
1200.83
1201
1202.49
1197.42
1180.01
1170.85
1182.42
1194.91
1189.34
1185.71
1187.47
1197.49
1103.83
1113.13
1121
1128.58
1133.94
1135.61
1131.91
1125.08
1121.23
1125.79
1134.59
1133.61
1132.67
1144.51
1086.48
1087.71
1086.81
1086.6
1090.22
1097.84
1103.64
1105.23
1103.6
1106.49
1115.62
1119.63
1111.86
1099.72
1100.54
1105.58
1108.6
1109.55
1110.86
1113.07
1114.38
1114.33
1112.86
1111.93
1109.07
1105.22
1101.17
1100.68
1103.68
1101.04
1125.61
1130.89
1132.9
1134.27
1134.76
1133.54
1129.11
1124.56
1121.19
1119.41
1116.9
1121.6
1125.64
1126.28
1123.67
1121.07
1118.02
1117.02
1116.31
1115.79
1115.85
1116.99
1118.1
1119.12
1120.51
1121.69
1121.93
1122.29
1124.3
1125.56
1119.86
1120.38
1121.29
1124.06
1125.2
1124.17
1123
1122.39
1121.32
1119.15
1120.71
1124.14
1123.26
1120.38
1117.04
1113.96
1111.2
1107.99
1105.53
1104.5
1104.56
1105.1
1106.09
1109.05
1112.1
1114.89
1117.28
1119.52
1121.4
1122.92
1125.26
1125.16
1126.04
1122.41
1120.63
1118.67
1116.41
1113.63
1109.99
1106.94
1103.14
1102.46
1100.78
1101.14
1100.4
1100.92
1101.78
1102.74
1105.75
1107.8
1109.74
1112.8
1116.23
1118.4
1119.72
1119.59
1118.36
1115.65
1119.8
1121.62
1122.21
1123.26
1130.1
1137.11
1140.88
1140.05
1134.02
1127.74
1124.63
1124.17
1124.82
1125.33
1125.65
1127.19
1129.05
1131.77
1134.88
1138.68
1141.46
1143.65
1144.83
1144.25
1142.08
1138.33
1134.07
1130.23
1127.28
1125.3
1123.97
1123.66
1108.55
1118.03
1129.02
1135
1135.73
1129.18
1120.2
1118.7
1115.47
1108.06
1104.97
1104.92
1105.4
1106.66
1108.91
1111.29
1113.23
1115.73
1116.33
1115.99
1115.4
1114.68
1111.57
1110.63
1109.5
1108.15
1107.84
1105.91
1093.72
1082.62
1134.81
1138.14
1137.29
1136.35
1135.3
1135.63
1136.99
1138.94
1140.34
1140.97
1142.97
1144.04
1143.34
1143.87
1143.97
1143.4
1143.49
1141.91
1141.15
1139.45
1138.96
1139.11
1139.19
1137.25
1131.83
1125.6
1125.52
1132.42
1136.86
1136.11
1139.41
1138.52
1136.62
1134.27
1131.82
1127.52
1123.51
1118.68
1116.07
1111.2
1110.74
1108.96
1109.32
1110.98
1114.13
1118.57
1121.6
1125.63
1129.19
1131.69
1135.31
1138.11
1138.94
1138.04
1138.16
1139.85
1140.42
1139.85
1142.25
1145.41
1138.85
1146.66
1144.47
1138.54
1134.1
1130.18
1125.99
1120.21
1116.21
1111.64
1109.01
1106.79
1106.76
1106.27
1107.9
1110.41
1113.85
1117.33
1121.99
1126.23
1129.66
1134.8
1138.07
1138.26
1141.08
1148.45
1152.21
1152.39
1150.24
1147.53
1143.61
1141.4
1137.26
1132.8
1128.35
1122.26
1117.21
1109.44
1104.44
1101.19
1101.55
1102.82
1110.13
1115.68
1123.97
1128.95
1134.09
1136.71
1141.48
1146.45
1146.47
1145.8
1146.13
1146.03
1146.75
1147.32
1147.82
1149.18
1150.13
1151.01
1147.24
1151.53
1151.28
1152.44
1155.69
1159.12
1163.07
1165.11
1166.67
1167.04
1166.77
1166.6
1165.67
1164.44
1161.33
1157.7
1152.78
1147.22
1142.93
1140.95
1140.81
1138.34
1137.83
1135.76
1134.33
1134.45
1136.31
1138.03
1139.32
1139.58
1174.52
1167.04
1145.54
1169.97
1188.75
1196.92
1198.91
1198.58
1197.51
1195.54
1193.13
1191.03
1188.5
1187.12
1188.32
1188.69
1193.44
1195.98
1200.02
1200.05
1202.34
1202.2
1190.65
1168.15
1169.83
1195.78
1202.67
1199.09
1198.91
1202.06
1108.43
1117.07
1128.47
1139.1
1144.43
1144.34
1141.28
1133.47
1125.18
1126.57
1134.89
1134.54
1134.03
1145.79
1085.94
1087.58
1086.2
1084.31
1083.48
1085.31
1086.88
1087.11
1088.11
1095.72
1110.23
1117.26
1109.32
1098.66
1102.65
1107.72
1108.94
1109.87
1113.42
1116.86
1118.32
1117.63
1115.22
1113.3
1110.11
1105.93
1101.57
1101.06
1103.62
1101.23
1124.66
1130
1132.79
1134.1
1134.23
1130.73
1126.71
1121.49
1117.81
1116.36
1117.14
1124.7
1126.32
1125.83
1121.42
1119.17
1116.59
1116.62
1115.26
1115.2
1115.04
1115.31
1116.63
1118.66
1119.85
1120.7
1121.56
1122.31
1124.58
1125.77
1120.13
1120.66
1121.61
1123.96
1125.03
1124.16
1122.55
1122.44
1121.27
1119.4
1121.19
1124.13
1122.39
1119.32
1115.46
1112.5
1108.74
1105.69
1103.1
1102.37
1101.77
1102.82
1104.1
1107.35
1110.38
1113.72
1116.47
1119
1121.02
1122.53
1125.73
1125.96
1124.34
1121.83
1120.17
1118.45
1116
1112.97
1109.2
1106.12
1102.15
1102.46
1100.9
1101.15
1100.65
1100.85
1100.97
1102.69
1105.18
1106.72
1109.55
1112.55
1115.64
1118.97
1119.64
1119.99
1118.37
1118.87
1123.63
1124.96
1123.2
1123
1126.63
1131.32
1133.65
1131.92
1127.81
1124.94
1124.14
1124.27
1125.1
1125.55
1125.85
1127.01
1128.98
1131.44
1134.89
1139.05
1142.14
1144.63
1145.78
1145.11
1143.22
1140.18
1135.27
1131.39
1128.04
1125.68
1123.91
1123.98
1107.62
1115.77
1126.47
1134.11
1135.95
1130.32
1121.09
1118.81
1116.44
1108.6
1104.94
1104.39
1104.86
1106.24
1108.65
1110.48
1114
1115.44
1116.94
1116.51
1115.78
1114.95
1112.22
1110.58
1109.98
1107.86
1107.48
1105.56
1093.23
1083.53
1138.48
1138.9
1139.34
1137.49
1135.42
1135.24
1136.74
1138.68
1139.87
1141.24
1143.43
1143.79
1143.96
1144.54
1144.83
1143.87
1144.35
1142.76
1141.6
1140.33
1139.37
1139.37
1139.49
1137.98
1133.49
1127.58
1128.2
1135.47
1138.13
1137.51
1139.2
1138.19
1136.37
1134.47
1132.05
1126.56
1123.29
1118.27
1115.5
1110.87
1110.09
1108.22
1108.71
1110.44
1113.23
1117.09
1120.96
1124.87
1128.45
1130.96
1134.31
1136.65
1137.47
1137.34
1138.85
1141.1
1141.19
1140.14
1142.59
1145.8
1142.31
1149.83
1144.37
1137.9
1133.37
1129.2
1124.53
1118.74
1114.42
1109.29
1107.28
1105.28
1104.54
1105.51
1105.93
1108.56
1112.08
1115.99
1120.62
1125.12
1129.23
1134.26
1137.69
1137.74
1143.12
1150.23
1151.87
1150.19
1148.6
1147.61
1145.19
1140.19
1136.01
1131.76
1127.9
1120.4
1115.06
1106.91
1101.04
1097.04
1097.2
1098.2
1104.89
1111.73
1121.78
1126.93
1132.87
1136.31
1142.02
1146.6
1146.87
1146.88
1146.74
1147.03
1146.74
1146.73
1146.73
1146.25
1146.79
1146.78
1146.23
1151.26
1151.96
1152.92
1156
1159.99
1163.64
1165.68
1167.58
1167.27
1167.37
1166.86
1166.93
1165.28
1163.45
1159.82
1155.31
1149.58
1144.78
1140.8
1141.54
1139.54
1138.74
1137.37
1136.36
1135.62
1136.61
1138.05
1139.59
1139.35
1168.38
1175.7
1164.04
1160.73
1186.78
1197.54
1199.05
1198.49
1197.22
1194.92
1192.35
1189.22
1186.75
1183.93
1185.71
1185.54
1191.52
1193.96
1199.55
1200.13
1201.43
1202.56
1199.9
1172.59
1157.83
1176.66
1200.41
1201.59
1199.01
1192.07
1110.83
1122.37
1137.88
1147.34
1146.94
1144.34
1142.68
1138.78
1130.95
1130.02
1136.34
1134.42
1134.78
1145.44
1135.28
1113.58
1089.92
1087.53
1086.38
1084.26
1081.81
1079.06
1077.3
1077.01
1079.45
1089.94
1107.67
1115.39
1106.85
1098.06
1104.69
1108.64
1108.19
1110.4
1115.04
1119.05
1120.42
1119.59
1116.02
1113.86
1109.89
1105.45
1101.69
1101.34
1104.2
1101.13
1099.87
1110.2
1123.91
1128.7
1131.62
1132.55
1130.79
1126.98
1122.19
1116.8
1113.94
1114.43
1119.36
1126.05
1126.4
1124.74
1120.01
1118.6
1116.23
1116.25
1114.7
1115.07
1114.48
1115.64
1116.2
1117.71
1119.52
1120.15
1120.88
1122.76
1124.83
1125.36
1121.47
1119.19
1120.02
1120.96
1121.29
1123.01
1124.14
1123.07
1122.43
1122.6
1121.18
1119.53
1122.08
1124.72
1121.7
1118.34
1114.59
1111.44
1107.73
1104.68
1102.48
1101.44
1100.97
1102.08
1102.96
1106.77
1109.54
1113.39
1116.14
1118.75
1120.75
1122.66
1126.72
1126.28
1125.86
1124.69
1122.52
1121.34
1120
1118.33
1116.03
1113.03
1109.35
1106.18
1102.54
1102.54
1101.47
1100.92
1100.46
1100.68
1101.72
1103.15
1104.56
1106.96
1109.87
1112.36
1115.79
1119.24
1120.25
1119.85
1118.02
1123.73
1126.22
1127.26
1128.3
1127.39
1123.7
1122.93
1124.71
1126.86
1127.63
1126.23
1124.69
1124.01
1124.05
1124.34
1125.62
1125.41
1125.8
1126.46
1127.77
1130.74
1133.63
1137.49
1141.24
1143.38
1144.77
1144.8
1143.41
1140.03
1135.63
1131.91
1128.35
1125.71
1124.22
1123.9
1119.93
1111.02
1107.59
1113.4
1123.09
1131.41
1135.28
1130.93
1121.79
1119.27
1117.9
1110.24
1104.94
1104.21
1104.15
1106.01
1107.27
1109.72
1112.3
1114.18
1115.25
1115.47
1115.47
1113.97
1112.15
1110.62
1109.42
1107.85
1107.07
1104.46
1091.93
1087.19
1127.18
1140.2
1139.84
1141.46
1142.32
1139.28
1135.68
1134.81
1136.27
1138.14
1139.39
1141.25
1142.72
1143.37
1143.87
1144.64
1144.47
1144.11
1144.71
1142.86
1142.16
1140.75
1139.77
1139.61
1139.59
1138.53
1133.88
1128.18
1135.41
1138.72
1139.7
1140
1139.74
1139.09
1138.29
1138.11
1136.69
1134.91
1132.49
1127.32
1123.88
1118.92
1116.37
1111.77
1110.84
1109.16
1109.68
1111.05
1113.51
1117.52
1121.36
1124.93
1128.27
1131.04
1133.68
1135.52
1135.91
1137.42
1141.31
1143.18
1142.22
1141.42
1144.22
1144.37
1142.89
1145.4
1150
1151.08
1144.66
1137.75
1132.95
1128.93
1124.25
1118.34
1113.68
1108.93
1106.92
1104.92
1104.6
1104.81
1106.13
1107.46
1111.81
1115.48
1120.19
1124.6
1128.84
1134.87
1138.02
1138.6
1146.52
1150.21
1149.05
1147.94
1147.73
1148.41
1151.4
1151.13
1146.73
1139.79
1136.13
1132.57
1127.76
1121.6
1115.07
1108.4
1101.31
1096.87
1097.03
1097.82
1104.22
1110.36
1121.55
1126.15
1132.61
1136.83
1142.69
1146.87
1147.53
1147.69
1148.31
1148.49
1148.7
1148.6
1148.05
1147.72
1146.99
1147
1147.3
1147.41
1146.08
1148.68
1151.68
1152.98
1155.63
1158.99
1162.99
1165.4
1167.5
1167
1167.78
1167.33
1166.79
1166.05
1164.03
1160.86
1156.51
1151.26
1146.19
1141.7
1140.91
1141.53
1139.99
1138.46
1138.22
1137.19
1137.73
1138.95
1140.14
1139.98
1139.15
1144.35
1155.65
1170.87
1185.26
1171.15
1176.4
1192.77
1198.98
1199.16
1197.4
1195.01
1192.31
1189.55
1186.54
1183.97
1185.52
1185.03
1190.95
1193.49
1199.38
1200.41
1201.2
1202.29
1201.75
1182.22
1154.05
1155.21
1178.97
1185.53
1178.45
1174.48
1233.79
1255.76
1112.14
1128.1
1144.8
1148.66
1143.64
1139.06
1139.11
1139.35
1135.25
1134.64
1137.15
1134.49
1135.75
1144.75
1134.17
1110.49
1091.03
1087.8
1086.86
1084.54
1081.45
1077.59
1074.96
1074.93
1077.32
1088.6
1106.42
1113.95
1105.38
1098.47
1106.17
1108.53
1107.75
1110.34
1115.04
1118.74
1119.67
1118.86
1115.72
1112.62
1109.1
1104
1101.7
1102.1
1104.08
1100.66
1102.79
1114.13
1123.38
1126.86
1128.98
1128.78
1126.34
1122.32
1115.96
1110.73
1110.94
1114.16
1121.83
1126.54
1126.48
1124.13
1119.73
1118.48
1116.08
1116.47
1115.05
1115.3
1115.07
1115.79
1116.54
1117.67
1119.26
1119.87
1121.66
1124.06
1125.03
1122.88
1118.76
1118.93
1120.23
1121.25
1121.32
1122.64
1122.87
1122.7
1122.65
1122.51
1120.87
1119.57
1122.98
1124.59
1121.38
1117.91
1114.6
1111.69
1108.14
1105.25
1103.16
1102.4
1101.91
1103.04
1103.82
1107.43
1110.12
1113.9
1116.51
1118.95
1121.12
1124.6
1127.49
1126.16
1125.14
1123.15
1122.02
1121.33
1120.13
1118.57
1116.45
1113.85
1110.31
1107.15
1103.82
1102.8
1101.91
1101.75
1102.12
1102.14
1102.89
1103.43
1105.39
1108.35
1110.22
1113.13
1116.72
1119.23
1120.37
1119.62
1122.33
1126.6
1127.74
1127.87
1127.46
1126.22
1124.54
1122.8
1123.2
1123.82
1123.93
1123.77
1123.57
1123.81
1124.07
1124.79
1126.09
1125.48
1125.42
1125.48
1126.27
1128.57
1131.6
1134.57
1137.89
1140.72
1142.31
1142.17
1140.7
1138.47
1135.05
1131.61
1128.41
1125.94
1124.15
1124.16
1121.83
1112.46
1107.44
1111.52
1120.17
1128.51
1133.3
1130.46
1123.04
1119.58
1119.32
1112.88
1105.98
1104.25
1104.16
1104.67
1106.14
1108.06
1110.56
1112.29
1113.54
1113.81
1114.13
1112.57
1111.02
1110.45
1108.49
1107.5
1106.55
1102.16
1090.63
1089.59
1127.08
1142.46
1141.6
1146.09
1146.96
1142.25
1136.76
1134.55
1135.61
1137.08
1138.99
1140.44
1141.75
1142.9
1142.9
1143.59
1144.17
1144.37
1143.75
1142.81
1142.21
1140.69
1140.14
1139.67
1139.76
1138.26
1133.06
1129.22
1138
1139.41
1140.11
1140.11
1139.23
1138.39
1137.82
1137.78
1137.63
1135.69
1133.59
1129.06
1125.33
1120.8
1118.59
1114.4
1112.94
1111.53
1112.07
1113.49
1115.75
1119.32
1122.38
1125.46
1128.87
1131.4
1133.34
1134.64
1136.21
1140.25
1144.62
1144.3
1142.5
1142.71
1144.01
1143.6
1145.95
1150.98
1153.46
1152.94
1146.34
1138.16
1133.35
1129.24
1125.04
1118.84
1114.6
1110.26
1107.82
1105.56
1105.29
1105.03
1106.96
1108.43
1112.4
1116.45
1121
1125.13
1130.06
1135.62
1137.23
1140.59
1147.23
1148.31
1148.01
1150.17
1153.74
1157.05
1156.88
1153.98
1146.05
1138.91