/*--------------------------------*- C++ -*----------------------------------*\
| =========                 |                                                 |
| \\      /  F ield         | OpenFOAM: The Open Source CFD Toolbox           |
|  \\    /   O peration     | Version:  2.1.1                                 |
|   \\  /    A nd           | Web:      www.OpenFOAM.org                      |
|    \\/     M anipulation  |                                                 |
\*---------------------------------------------------------------------------*/
FoamFile
{
    version     2.0;
    format      ascii;
    class       volScalarField;
    location    "0.007600000";
    object      H;
}
// * * * * * * * * * * * * * * * * * * * * * * * * * * * * * * * * * * * * * //

dimensions      [0 0 0 0 0 0 0];

internalField   nonuniform List<scalar> 
12384
(
0.000124815
0.00011235
9.83989e-05
8.77214e-05
8.45351e-05
8.32292e-05
8.21593e-05
8.83563e-05
9.72414e-05
0.000109511
0.000120951
0.000141921
0.000159984
0.000186277
2.01296e-05
2.20267e-05
2.26734e-05
2.57863e-05
3.43867e-05
4.14605e-05
5.05278e-05
5.55209e-05
5.68759e-05
5.81638e-05
5.65324e-05
5.53695e-05
5.31667e-05
5.02755e-05
4.67772e-05
4.28998e-05
4.21189e-05
4.01346e-05
3.86371e-05
3.77834e-05
3.7534e-05
3.78385e-05
3.82751e-05
3.86958e-05
3.9241e-05
3.93959e-05
3.88918e-05
3.41792e-05
2.7325e-05
1.0976e-05
7.49295e-05
8.82208e-05
8.86189e-05
8.43924e-05
8.06948e-05
7.7893e-05
7.56317e-05
7.37707e-05
7.13591e-05
6.98192e-05
6.82784e-05
6.72547e-05
6.59775e-05
6.49483e-05
6.47035e-05
6.45856e-05
6.50778e-05
6.47866e-05
6.52081e-05
6.48612e-05
6.5463e-05
6.57773e-05
6.62345e-05
6.662e-05
6.7133e-05
6.77087e-05
6.96729e-05
7.48455e-05
6.88485e-05
6.46266e-05
8.01547e-05
8.3192e-05
7.83283e-05
7.70937e-05
7.65929e-05
7.67597e-05
7.65256e-05
7.67648e-05
7.65515e-05
7.66233e-05
7.67854e-05
7.66777e-05
7.64893e-05
7.64036e-05
7.64304e-05
7.66198e-05
7.66318e-05
7.70074e-05
7.72893e-05
7.78505e-05
7.75124e-05
7.91167e-05
7.94562e-05
8.13054e-05
8.21613e-05
8.40056e-05
8.53063e-05
8.58459e-05
8.4391e-05
8.24805e-05
0.000102175
0.00010012
0.000100022
0.000100793
0.000101036
0.000100756
0.000100099
0.000100443
9.84943e-05
9.83102e-05
9.58908e-05
9.63635e-05
9.32394e-05
9.39666e-05
9.22784e-05
9.34178e-05
9.37377e-05
9.3944e-05
9.51179e-05
9.62135e-05
9.68658e-05
9.3665e-05
8.59851e-05
8.53829e-05
8.62075e-05
8.64803e-05
8.62301e-05
8.56232e-05
8.55068e-05
8.46646e-05
8.77202e-05
8.87489e-05
8.96335e-05
9.16416e-05
9.1488e-05
9.22318e-05
9.29493e-05
9.31472e-05
9.3019e-05
9.32794e-05
9.3702e-05
9.4101e-05
9.45503e-05
9.48559e-05
9.49641e-05
9.48572e-05
9.45645e-05
9.4181e-05
9.34914e-05
9.34986e-05
9.3063e-05
9.23078e-05
9.23091e-05
9.21697e-05
9.2225e-05
9.22246e-05
9.23103e-05
9.31227e-05
9.66165e-05
9.79896e-05
6.91084e-05
7.21521e-05
7.51086e-05
7.85453e-05
8.0309e-05
8.1695e-05
8.16011e-05
8.13651e-05
8.05347e-05
7.95506e-05
7.84709e-05
7.65481e-05
7.47076e-05
7.35093e-05
7.1821e-05
7.02195e-05
7.01335e-05
6.8478e-05
6.86378e-05
6.7856e-05
6.94793e-05
6.95382e-05
7.05264e-05
7.02572e-05
6.95299e-05
7.01014e-05
3.16184e-05
2.25298e-05
2.52176e-05
2.94323e-05
8.9528e-05
9.51426e-05
9.69667e-05
9.95084e-05
0.000100656
0.000101139
0.000101001
0.000100402
9.92832e-05
9.77516e-05
9.66839e-05
9.57122e-05
9.44057e-05
9.39881e-05
9.36752e-05
9.50464e-05
9.66856e-05
9.89158e-05
0.000101496
0.000102122
9.69355e-05
9.34003e-05
9.3333e-05
9.37393e-05
9.423e-05
9.45194e-05
9.4419e-05
9.45053e-05
9.44219e-05
9.41938e-05
9.36108e-05
9.48566e-05
9.59059e-05
9.6228e-05
9.56306e-05
9.45726e-05
9.32904e-05
9.16781e-05
8.85e-05
8.88516e-05
8.71175e-05
8.59349e-05
8.54682e-05
8.68441e-05
8.78501e-05
8.99661e-05
9.10484e-05
9.35709e-05
8.99321e-05
8.91955e-05
9.05776e-05
9.01778e-05
8.96409e-05
9.04388e-05
9.01252e-05
9.04265e-05
9.08459e-05
8.97505e-05
8.49659e-05
7.88548e-05
8.29337e-05
8.18463e-05
8.24638e-05
8.38591e-05
8.56916e-05
8.68777e-05
8.69187e-05
8.61776e-05
8.47241e-05
8.32462e-05
8.21122e-05
7.94481e-05
7.86363e-05
7.84345e-05
7.96429e-05
8.06737e-05
8.10287e-05
8.12866e-05
8.2475e-05
8.89975e-05
8.40671e-05
8.35328e-05
8.36275e-05
8.33535e-05
8.38703e-05
8.20776e-05
8.28517e-05
8.08315e-05
8.21305e-05
8.05874e-05
7.12293e-05
7.16443e-05
7.32976e-05
7.24767e-05
7.31664e-05
7.37093e-05
7.3641e-05
7.51124e-05
7.3992e-05
7.52566e-05
7.42604e-05
7.64255e-05
7.56753e-05
7.56873e-05
7.51761e-05
7.27328e-05
6.61019e-05
6.26746e-05
6.19468e-05
6.18765e-05
6.08683e-05
5.99854e-05
5.9448e-05
5.89371e-05
5.86943e-05
5.9139e-05
5.82012e-05
5.88513e-05
5.96629e-05
6.14462e-05
5.71722e-05
5.72212e-05
6.12663e-05
6.72048e-05
6.64283e-05
6.45547e-05
6.36499e-05
6.29231e-05
6.27346e-05
6.2656e-05
6.11247e-05
6.0944e-05
5.89557e-05
5.90621e-05
5.79868e-05
5.83387e-05
5.62819e-05
5.65958e-05
5.467e-05
5.52294e-05
5.55698e-05
5.54733e-05
5.5926e-05
5.5871e-05
5.6247e-05
5.62132e-05
5.64289e-05
5.65529e-05
5.65099e-05
5.66175e-05
5.31804e-05
5.34822e-05
5.30772e-05
5.37823e-05
5.31082e-05
5.37886e-05
5.35394e-05
5.32831e-05
5.12277e-05
4.97409e-05
4.92924e-05
4.95879e-05
4.90042e-05
4.99492e-05
4.94341e-05
5.12318e-05
5.06814e-05
5.01717e-05
4.98446e-05
5.10308e-05
5.14026e-05
5.21723e-05
5.4448e-05
5.40166e-05
5.43145e-05
5.53354e-05
5.37924e-05
5.52996e-05
6.08614e-05
5.97599e-05
9.19458e-05
7.61713e-05
5.69735e-05
4.85779e-05
4.91629e-05
5.21123e-05
5.66956e-05
6.12143e-05
6.61026e-05
7.43434e-05
8.67945e-05
0.000115483
0.00014735
0.000182938
2.02799e-05
2.18111e-05
2.32701e-05
2.99594e-05
4.54225e-05
6.27145e-05
7.04768e-05
7.30279e-05
7.04641e-05
6.69824e-05
6.34508e-05
6.18962e-05
5.62004e-05
4.74418e-05
4.0599e-05
3.43873e-05
3.06685e-05
2.91019e-05
2.87483e-05
2.85615e-05
2.81073e-05
2.82587e-05
2.91635e-05
3.07586e-05
3.3153e-05
3.57421e-05
3.74058e-05
3.79098e-05
3.40156e-05
2.16689e-05
7.71585e-05
8.87494e-05
8.73179e-05
8.17409e-05
7.68334e-05
7.23741e-05
6.92244e-05
6.91736e-05
6.62978e-05
6.34445e-05
6.13055e-05
5.94377e-05
5.79444e-05
5.82781e-05
5.93733e-05
6.1431e-05
6.29922e-05
6.44576e-05
6.25619e-05
6.33312e-05
6.33499e-05
6.39197e-05
6.42886e-05
6.45644e-05
6.48978e-05
6.55392e-05
6.68877e-05
7.13558e-05
7.44558e-05
7.30214e-05
8.16847e-05
8.17201e-05
7.79402e-05
7.7566e-05
7.84332e-05
7.8845e-05
7.90635e-05
7.91405e-05
7.81449e-05
7.7389e-05
7.61613e-05
7.51744e-05
7.45783e-05
7.44828e-05
7.5124e-05
7.55312e-05
7.57575e-05
7.56264e-05
7.50692e-05
7.45569e-05
7.49344e-05
7.53655e-05
7.60641e-05
7.72121e-05
7.89472e-05
8.15959e-05
8.33907e-05
8.46465e-05
8.56429e-05
8.45633e-05
0.000102244
9.96559e-05
9.97211e-05
0.000100406
0.000100081
9.89735e-05
9.81586e-05
0.000103267
9.99892e-05
0.000101509
9.72052e-05
9.62238e-05
9.53921e-05
9.40252e-05
9.23185e-05
9.24467e-05
9.47138e-05
9.64457e-05
9.80756e-05
9.99549e-05
9.67279e-05
9.65023e-05
9.07725e-05
8.59843e-05
8.69203e-05
8.67439e-05
8.878e-05
8.76229e-05
8.59232e-05
8.7645e-05
8.85242e-05
8.94928e-05
9.13182e-05
9.24711e-05
9.45666e-05
9.42602e-05
9.33314e-05
9.13073e-05
9.13751e-05
8.999e-05
8.99685e-05
9.05827e-05
9.13212e-05
9.11617e-05
9.23705e-05
9.35619e-05
9.43293e-05
9.499e-05
9.55693e-05
9.53976e-05
9.47338e-05
9.45414e-05
9.44058e-05
9.40574e-05
9.35552e-05
9.31081e-05
9.27308e-05
9.29961e-05
9.52142e-05
9.83742e-05
6.95306e-05
7.5018e-05
8.18987e-05
8.33204e-05
8.27742e-05
8.16899e-05
8.08656e-05
8.04668e-05
8.18098e-05
7.89485e-05
7.51877e-05
7.19648e-05
7.02033e-05
6.84716e-05
6.75307e-05
6.59923e-05
6.56848e-05
6.59637e-05
6.63183e-05
6.61904e-05
6.66748e-05
6.74907e-05
6.91052e-05
6.94559e-05
6.9124e-05
6.84158e-05
5.55688e-05
3.22987e-05
2.46337e-05
3.31518e-05
8.79582e-05
9.46337e-05
9.84517e-05
0.000100595
0.000100306
9.94619e-05
9.85643e-05
9.74436e-05
9.70005e-05
9.52451e-05
9.3734e-05
9.22312e-05
9.14849e-05
9.09165e-05
9.18492e-05
9.18745e-05
9.33169e-05
9.54019e-05
9.74515e-05
0.000100426
0.000100592
9.71819e-05
9.37169e-05
9.31641e-05
9.38091e-05
9.43344e-05
9.529e-05
9.57147e-05
9.61647e-05
9.57365e-05
9.25451e-05
9.43695e-05
9.70787e-05
9.70169e-05
9.50797e-05
9.25503e-05
8.98374e-05
8.5787e-05
8.42377e-05
8.33444e-05
7.96994e-05
8.00159e-05
8.06309e-05
8.12055e-05
8.31158e-05
8.52524e-05
8.80279e-05
9.08657e-05
9.62889e-05
8.95728e-05
8.81436e-05
8.77499e-05
8.72325e-05
8.76269e-05
8.80635e-05
8.90362e-05
9.06507e-05
9.25825e-05
9.12437e-05
8.07269e-05
8.26369e-05
8.16886e-05
8.30901e-05
8.72818e-05
9.04841e-05
9.05257e-05
8.83034e-05
8.48041e-05
8.14303e-05
7.83401e-05
7.54719e-05
7.37159e-05
7.28662e-05
7.34981e-05
7.44934e-05
7.57747e-05
7.76431e-05
7.90613e-05
7.98211e-05
8.40069e-05
8.58763e-05
8.35564e-05
8.38022e-05
8.33212e-05
8.27586e-05
8.16662e-05
8.11628e-05
8.15284e-05
8.13628e-05
8.14728e-05
7.08174e-05
7.10935e-05
7.08245e-05
7.1648e-05
7.14248e-05
7.23812e-05
7.08112e-05
6.91675e-05
6.91389e-05
6.78253e-05
6.95403e-05
7.14336e-05
7.26904e-05
7.43608e-05
7.51328e-05
7.60212e-05
7.36133e-05
6.78019e-05
6.44019e-05
6.08886e-05
5.87776e-05
5.81695e-05
5.75987e-05
5.76953e-05
5.73152e-05
5.74073e-05
5.81429e-05
5.85775e-05
5.96059e-05
6.19373e-05
6.05039e-05
6.3532e-05
6.71018e-05
6.65588e-05
6.57873e-05
6.48473e-05
6.45997e-05
6.40839e-05
6.44545e-05
6.34132e-05
6.29602e-05
6.23197e-05
6.13178e-05
5.96066e-05
5.82733e-05
5.83107e-05
5.63337e-05
5.67796e-05
5.44367e-05
5.47872e-05
5.56244e-05
5.58982e-05
5.64875e-05
5.64324e-05
5.65518e-05
5.64265e-05
5.64354e-05
5.65426e-05
5.65132e-05
5.65506e-05
5.33461e-05
5.34074e-05
5.45377e-05
5.43862e-05
5.30466e-05
5.29748e-05
5.48059e-05
5.08486e-05
5.02449e-05
5.05043e-05
5.09881e-05
5.18713e-05
5.31965e-05
5.40391e-05
5.24537e-05
5.35892e-05
5.33003e-05
5.37365e-05
5.33872e-05
5.55695e-05
5.66737e-05
5.70098e-05
5.674e-05
5.60419e-05
5.54418e-05
5.34715e-05
5.38301e-05
5.53964e-05
6.07466e-05
6.0452e-05
6.54379e-05
4.76317e-05
4.20362e-05
4.54966e-05
5.15274e-05
6.26821e-05
7.25454e-05
7.70223e-05
7.99485e-05
7.79456e-05
7.80711e-05
9.12616e-05
0.000126413
0.000177439
2.04708e-05
2.17393e-05
2.34644e-05
3.2929e-05
5.28704e-05
7.81205e-05
8.48392e-05
8.34258e-05
8.07416e-05
7.7809e-05
7.13681e-05
6.24533e-05
5.64484e-05
4.29963e-05
3.44381e-05
2.89762e-05
2.76778e-05
2.85684e-05
3.00409e-05
3.13141e-05
3.17287e-05
3.14097e-05
3.08359e-05
3.01572e-05
3.01633e-05
3.17959e-05
3.4251e-05
3.67647e-05
3.65193e-05
2.70337e-05
7.82259e-05
8.91117e-05
8.70514e-05
8.18359e-05
7.79868e-05
7.46543e-05
7.35896e-05
6.84314e-05
6.36031e-05
6.08895e-05
5.87219e-05
5.63481e-05
5.43403e-05
5.64525e-05
6.09396e-05
6.5186e-05
6.40885e-05
6.57478e-05
6.54161e-05
6.587e-05
6.5877e-05
6.51596e-05
6.47099e-05
6.45844e-05
6.42113e-05
6.3856e-05
6.44255e-05
6.72839e-05
7.25428e-05
7.49583e-05
8.19349e-05
8.04621e-05
7.82047e-05
8.0225e-05
8.21529e-05
8.32412e-05
8.23477e-05
8.20538e-05
8.05775e-05
7.90638e-05
7.61134e-05
7.41868e-05
7.39418e-05
7.4839e-05
7.59247e-05
7.62941e-05
7.56801e-05
7.41645e-05
7.31377e-05
7.22903e-05
7.13925e-05
7.18704e-05
7.22526e-05
7.32604e-05
7.55447e-05
7.76327e-05
7.99305e-05
8.27897e-05
8.47307e-05
8.47468e-05
0.000102257
9.91462e-05
9.91615e-05
9.97746e-05
9.70235e-05
0.00010109
9.96612e-05
9.86273e-05
9.84279e-05
9.86074e-05
9.33801e-05
9.47361e-05
9.20461e-05
8.92724e-05
8.88608e-05
8.90548e-05
8.98308e-05
9.16322e-05
9.36052e-05
9.59163e-05
9.88579e-05
9.68218e-05
9.43587e-05
8.84814e-05
8.70612e-05
8.85623e-05
8.06638e-05
7.87644e-05
8.32754e-05
8.56381e-05
8.81321e-05
8.99985e-05
9.2106e-05
9.51785e-05
9.73739e-05
9.57578e-05
9.37299e-05
9.13061e-05
9.00359e-05
8.82487e-05
8.81191e-05
8.84974e-05
8.99338e-05
9.12268e-05
9.43579e-05
9.73807e-05
9.90374e-05
0.000101408
0.000102145
0.000101782
0.00010149
0.000100504
9.84825e-05
9.79958e-05
9.65664e-05
9.51439e-05
9.3851e-05
9.31062e-05
9.42922e-05
9.75013e-05
6.98058e-05
7.8109e-05
8.39155e-05
8.39132e-05
8.22998e-05
8.0543e-05
7.93849e-05
8.05828e-05
7.94841e-05
7.43943e-05
7.02462e-05
6.79589e-05
6.62258e-05
6.60875e-05
6.55253e-05
6.61666e-05
6.66171e-05
6.67519e-05
6.69683e-05
6.69721e-05
6.75556e-05
6.73932e-05
6.84097e-05
6.87578e-05
6.91577e-05
6.84379e-05
6.89014e-05
4.75623e-05
2.91202e-05
3.04761e-05
8.79291e-05
9.38306e-05
0.000100038
9.97518e-05
9.84752e-05
9.7462e-05
9.66135e-05
9.67461e-05
9.56238e-05
9.44686e-05
9.37131e-05
9.15301e-05
9.18426e-05
9.18776e-05
9.13664e-05
9.13419e-05
9.19844e-05
9.3112e-05
9.50641e-05
9.68226e-05
9.95868e-05
9.93457e-05
9.65087e-05
9.39921e-05
9.40781e-05
9.42164e-05
9.59818e-05
9.73027e-05
9.63139e-05
9.62701e-05
9.29072e-05
9.66989e-05
9.88722e-05
9.66483e-05
9.25104e-05
8.93664e-05
8.49247e-05
8.18547e-05
8.2879e-05
7.64354e-05
7.37601e-05
7.3068e-05
7.27213e-05
7.5403e-05
7.88075e-05
8.42936e-05
8.35594e-05
8.70958e-05
9.24652e-05
9.29105e-05
8.83206e-05
8.53345e-05
8.4518e-05
8.58822e-05
8.72369e-05
8.75224e-05
8.78495e-05
9.01931e-05
9.2793e-05
8.57594e-05
8.23006e-05
8.17301e-05
8.60523e-05
9.2303e-05
9.29352e-05
8.89833e-05
8.31512e-05
7.80305e-05
7.3965e-05
7.06625e-05
7.13167e-05
6.71643e-05
6.59944e-05
6.57683e-05
6.90395e-05
7.26186e-05
7.18609e-05
7.46271e-05
7.68147e-05
7.94163e-05
8.61227e-05
8.37771e-05
8.31623e-05
8.29239e-05
8.24003e-05
8.07377e-05
7.99195e-05
7.95062e-05
8.1323e-05
8.05973e-05
6.99222e-05
6.80431e-05
7.05692e-05
7.18178e-05
7.16823e-05
6.85035e-05
6.51789e-05
6.30704e-05
6.10541e-05
6.20999e-05
6.17297e-05
6.31836e-05
6.72844e-05
6.92022e-05
7.22909e-05
7.35843e-05
7.49948e-05
7.39802e-05
6.95543e-05
6.28656e-05
5.90772e-05
5.72686e-05
5.81354e-05
5.73464e-05
5.74477e-05
5.85834e-05
5.88924e-05
5.94466e-05
6.01145e-05
6.22917e-05
6.34313e-05
6.70262e-05
6.75722e-05
6.70958e-05
6.64638e-05
6.66724e-05
6.70226e-05
6.78589e-05
6.8868e-05
6.83415e-05
6.8582e-05
6.70764e-05
6.50638e-05
6.30461e-05
6.03791e-05
5.87824e-05
5.68347e-05
5.62383e-05
5.52203e-05
5.53791e-05
5.64076e-05
5.69048e-05
5.77119e-05
5.79026e-05
5.80642e-05
5.74429e-05
5.69317e-05
5.66742e-05
5.65814e-05
5.65549e-05
5.09598e-05
5.31985e-05
5.50653e-05
5.35827e-05
5.30719e-05
5.2433e-05
5.22916e-05
5.10131e-05
5.1058e-05
5.28054e-05
5.52615e-05
5.40695e-05
5.64847e-05
5.92077e-05
5.9446e-05
5.96883e-05
5.9213e-05
5.72963e-05
5.71421e-05
5.7278e-05
5.71092e-05
5.89464e-05
6.1175e-05
6.05779e-05
6.121e-05
5.9299e-05
5.5918e-05
5.67948e-05
5.98478e-05
6.02639e-05
4.03476e-05
3.67036e-05
4.43043e-05
5.61655e-05
6.65237e-05
7.97795e-05
8.841e-05
9.83754e-05
0.000106586
0.000110725
9.61891e-05
8.9644e-05
0.000112731
0.00017398
2.04349e-05
2.15126e-05
2.27032e-05
3.13206e-05
5.25456e-05
8.08099e-05
9.09552e-05
9.38684e-05
9.26826e-05
8.81551e-05
7.97403e-05
6.60564e-05
5.53801e-05
3.84817e-05
3.05438e-05
2.84118e-05
3.06233e-05
3.39814e-05
3.69209e-05
3.88904e-05
3.96595e-05
3.94908e-05
3.80378e-05
3.5503e-05
3.21885e-05
3.06965e-05
3.17895e-05
3.46251e-05
3.66139e-05
3.05145e-05
7.83044e-05
8.91757e-05
8.8105e-05
8.57559e-05
8.44249e-05
8.19448e-05
7.5434e-05
6.95051e-05
6.27626e-05
5.93885e-05
5.74626e-05
5.38425e-05
5.47757e-05
6.18812e-05
6.48625e-05
6.74382e-05
6.76155e-05
6.61276e-05
6.52575e-05
6.41108e-05
6.3055e-05
6.39489e-05
6.39766e-05
6.38828e-05
6.37519e-05
6.31596e-05
6.5823e-05
6.45746e-05
6.98389e-05
7.47712e-05
8.19191e-05
7.99506e-05
7.95126e-05
8.3304e-05
8.51516e-05
8.49168e-05
8.25992e-05
8.21895e-05
8.17324e-05
8.02879e-05
7.52746e-05
7.18889e-05
7.31561e-05
7.50434e-05
7.6174e-05
7.51645e-05
7.26593e-05
7.0226e-05
6.79566e-05
6.60245e-05
6.51603e-05
6.49415e-05
6.63378e-05
6.83678e-05
7.09083e-05
7.32322e-05
7.67625e-05
8.0135e-05
8.29118e-05
8.44683e-05
0.000102485
9.8957e-05
9.89232e-05
9.74535e-05
9.81596e-05
9.77168e-05
9.86982e-05
9.84459e-05
9.85778e-05
9.55923e-05
9.21744e-05
9.16754e-05
8.69373e-05
8.63183e-05
8.53226e-05
8.45044e-05
8.55505e-05
8.76199e-05
8.96523e-05
9.21527e-05
9.51427e-05
9.93271e-05
9.63947e-05
9.24207e-05
8.74492e-05
8.91194e-05
8.21057e-05
7.67836e-05
8.27732e-05
8.65724e-05
8.90636e-05
9.05174e-05
9.37038e-05
9.80492e-05
9.95138e-05
9.82434e-05
9.67112e-05
9.22785e-05
9.06405e-05
8.83731e-05
8.78929e-05
8.85819e-05
9.11191e-05
9.44818e-05
9.82196e-05
0.000103062
0.00010635
0.000109169
0.000110592
0.000111882
0.000111953
0.00010924
0.000106681
0.000103707
0.000100109
9.81403e-05
9.58094e-05
9.40337e-05
9.40381e-05
9.68909e-05
6.99441e-05
8.10358e-05
8.45079e-05
8.46457e-05
8.2796e-05
8.03929e-05
8.02815e-05
8.16696e-05
7.80105e-05
7.11295e-05
6.74795e-05
6.54978e-05
6.54066e-05
6.60734e-05
6.70825e-05
6.98026e-05
6.91916e-05
7.07711e-05
7.12706e-05
7.1396e-05
7.08235e-05
7.03627e-05
6.94938e-05
6.91999e-05
6.90663e-05
6.89094e-05
6.7583e-05
5.97635e-05
3.741e-05
2.97121e-05
8.85126e-05
9.71943e-05
9.99351e-05
9.84506e-05
9.74046e-05
9.65571e-05
9.68713e-05
9.59862e-05
9.52922e-05
9.49088e-05
9.37938e-05
9.20262e-05
9.22912e-05
9.13939e-05
9.12452e-05
9.19201e-05
9.23023e-05
9.27815e-05
9.37163e-05
9.50614e-05
9.76363e-05
9.9384e-05
9.83325e-05
9.58317e-05
9.54937e-05
9.30261e-05
9.47241e-05
9.68989e-05
9.90095e-05
9.67359e-05
9.61541e-05
0.000100551
9.94827e-05
9.44544e-05
8.96559e-05
8.45966e-05
8.48665e-05
7.60536e-05
6.94989e-05
6.31572e-05
6.15243e-05
5.91966e-05
6.01204e-05
6.27396e-05
6.7509e-05
7.41837e-05
8.14482e-05
8.29568e-05
8.75218e-05
9.49411e-05
9.0913e-05
8.60438e-05
8.4368e-05
8.65646e-05
8.80752e-05
8.78014e-05
8.75685e-05
8.82435e-05
9.16559e-05
8.93481e-05
8.15665e-05
8.27184e-05
9.16842e-05
9.27669e-05
9.07e-05
8.28067e-05
7.65907e-05
7.25064e-05
6.92838e-05
6.30052e-05
5.78409e-05
5.58663e-05
5.34599e-05
5.41994e-05
5.61938e-05
6.07464e-05
6.61159e-05
7.25465e-05
7.26986e-05
7.62496e-05
8.18364e-05
8.48976e-05
8.25141e-05
8.21474e-05
8.23617e-05
8.02045e-05
7.92814e-05
7.86045e-05
7.94885e-05
8.0999e-05
6.75684e-05
6.91916e-05
7.17661e-05
7.14981e-05
6.78891e-05
6.339e-05
5.97048e-05
5.82963e-05
5.28791e-05
4.98678e-05
5.1065e-05
5.51886e-05
6.31818e-05
6.35366e-05
6.78282e-05
6.99562e-05
7.27205e-05
7.53572e-05
7.32842e-05
6.68729e-05
5.99007e-05
5.80825e-05
5.83932e-05
5.86298e-05
5.98658e-05
6.09322e-05
6.08114e-05
5.98948e-05
6.11371e-05
6.17974e-05
6.56457e-05
6.85039e-05
6.747e-05
6.66281e-05
6.73656e-05
6.98895e-05
7.25519e-05
7.44153e-05
7.61715e-05
7.74928e-05
7.65622e-05
7.50551e-05
7.32125e-05
6.8901e-05
6.52565e-05
6.19949e-05
5.85547e-05
5.6568e-05
5.54474e-05
5.55703e-05
5.66318e-05
5.74102e-05
5.81611e-05
5.75509e-05
5.72907e-05
5.83616e-05
5.76659e-05
5.69768e-05
5.66689e-05
5.65751e-05
5.1898e-05
5.35602e-05
5.50099e-05
5.36667e-05
5.38702e-05
5.26567e-05
5.00805e-05
5.18386e-05
5.3888e-05
5.54711e-05
5.85711e-05
6.31573e-05
6.65397e-05
6.67437e-05
6.85057e-05
6.73883e-05
6.63928e-05
6.16321e-05
6.17061e-05
5.83549e-05
6.01473e-05
5.92716e-05
6.37929e-05
6.37721e-05
6.29013e-05
6.35038e-05
6.10883e-05
6.11509e-05
6.44048e-05
6.04268e-05
3.09635e-05
4.07718e-05
5.58294e-05
6.77589e-05
7.78673e-05
8.06839e-05
8.12917e-05
8.47377e-05
9.61889e-05
0.000118975
0.000114422
9.86176e-05
0.000107226
0.000165851
2.06176e-05
2.14032e-05
2.16619e-05
2.61415e-05
4.67008e-05
7.20429e-05
8.67021e-05
9.19828e-05
8.89393e-05
8.26919e-05
7.77794e-05
6.87616e-05
5.22722e-05
3.64077e-05
2.93522e-05
3.12892e-05
3.5477e-05
3.96332e-05
4.25642e-05
4.41989e-05
4.49273e-05
4.51227e-05
4.40242e-05
4.12743e-05
3.71565e-05
3.28597e-05
3.13772e-05
3.33315e-05
3.63249e-05
3.18992e-05
7.73998e-05
8.99078e-05
9.11597e-05
9.22497e-05
9.37748e-05
9.22824e-05
8.20821e-05
7.09073e-05
6.16473e-05
5.78809e-05
5.49311e-05
5.21785e-05
6.00578e-05
6.63588e-05
6.91016e-05
6.82926e-05
6.64594e-05
6.30692e-05
5.98433e-05
5.80463e-05
5.81868e-05
5.93336e-05
6.19774e-05
6.40542e-05
6.50673e-05
6.51771e-05
6.47394e-05
6.55269e-05
6.75169e-05
7.426e-05
8.18424e-05
7.95603e-05
8.10503e-05
8.55599e-05
8.62117e-05
8.31173e-05
8.0518e-05
8.05416e-05
8.19797e-05
8.12789e-05
7.4512e-05
7.00954e-05
7.31125e-05
7.60975e-05
7.52359e-05
7.16008e-05
6.72202e-05
6.33316e-05
5.94299e-05
5.67999e-05
5.63951e-05
5.75366e-05
5.92154e-05
6.21186e-05
6.51429e-05
6.91651e-05
7.34929e-05
7.70592e-05
8.08061e-05
8.3846e-05
0.000103028
9.90373e-05
9.80777e-05
9.70062e-05
9.53769e-05
9.85965e-05
9.98597e-05
9.99587e-05
9.72969e-05
9.26808e-05
8.89624e-05
8.62573e-05
8.20148e-05
8.26264e-05
8.03278e-05
8.12228e-05
8.26402e-05
8.46979e-05
8.67176e-05
8.88888e-05
9.23353e-05
9.63388e-05
0.000100588
9.49789e-05
9.07043e-05
9.22048e-05
8.84857e-05
7.79954e-05
8.59948e-05
8.76683e-05
8.79076e-05
9.0407e-05
9.39885e-05
9.81595e-05
0.000100718
0.000100719
9.80079e-05
9.30598e-05
9.06401e-05
8.8291e-05
8.78625e-05
8.93968e-05
9.2537e-05
9.74259e-05
0.000103742
0.000108351
0.000111278
0.000114962
0.000119006
0.000120841
0.000120177
0.000119644
0.000115255
0.000111708
0.000105868
0.000101508
9.81735e-05
9.51118e-05
9.39298e-05
9.64849e-05
7.02228e-05
8.31134e-05
8.53579e-05
8.55101e-05
8.34324e-05
8.15222e-05
7.95692e-05
8.1636e-05
7.70769e-05
6.95514e-05
6.53693e-05
6.44222e-05
6.51942e-05
6.72959e-05
6.97616e-05
7.12699e-05
7.37287e-05
7.65607e-05
7.72193e-05
7.67506e-05
7.56875e-05
7.40033e-05
7.13621e-05
7.01016e-05
6.95764e-05
6.87799e-05
6.85111e-05
6.57756e-05
4.17312e-05
3.0963e-05
8.86566e-05
9.96342e-05
9.90057e-05
9.77468e-05
9.69435e-05
9.70745e-05
9.60921e-05
9.53132e-05
9.54466e-05
9.49961e-05
9.27277e-05
9.23484e-05
9.11416e-05
9.08143e-05
9.11362e-05
9.16693e-05
9.29243e-05
9.28793e-05
9.31214e-05
9.46453e-05
9.63871e-05
9.84204e-05
9.9723e-05
9.75333e-05
9.53894e-05
9.44258e-05
9.51111e-05
9.67961e-05
9.78701e-05
9.75787e-05
0.000102985
0.00010084
9.76212e-05
9.16598e-05
8.67243e-05
8.58876e-05
7.63041e-05
6.56222e-05
5.84852e-05
5.23198e-05
5.12087e-05
5.00097e-05
5.07777e-05
5.17349e-05
5.70016e-05
6.45519e-05
7.3285e-05
8.15983e-05
8.39898e-05
8.99988e-05
9.20651e-05
8.82777e-05
8.59626e-05
8.7556e-05
8.89627e-05
8.89428e-05
8.79198e-05
8.79528e-05
9.15715e-05
9.0343e-05
8.14967e-05
8.69733e-05
9.50411e-05
9.52464e-05
8.52614e-05
7.76018e-05
7.20563e-05
6.90531e-05
6.10493e-05
5.36219e-05
4.9353e-05
4.5115e-05
4.43248e-05
4.38179e-05
4.63833e-05
5.02098e-05
5.61584e-05
6.38089e-05
7.1312e-05
7.23263e-05
7.78391e-05
8.52389e-05
8.22135e-05
8.21338e-05
8.16297e-05
7.93988e-05
7.94864e-05
7.87517e-05
7.87675e-05
7.96932e-05
6.74439e-05
7.24195e-05
7.22399e-05
6.94531e-05
6.36988e-05
5.8936e-05
5.30008e-05
4.36978e-05
3.7602e-05
3.69459e-05
3.62172e-05
3.88375e-05
4.64802e-05
5.50643e-05
6.32241e-05
6.65654e-05
7.01767e-05
7.29218e-05
7.48954e-05
6.867e-05
6.07025e-05
5.82765e-05
5.83778e-05
5.87012e-05
5.94219e-05
6.13617e-05
6.22225e-05
6.34582e-05
6.32655e-05
6.40509e-05
6.60476e-05
6.86218e-05
6.79057e-05
6.80261e-05
7.09163e-05
7.37925e-05
7.7717e-05
8.1549e-05
8.4539e-05
8.55385e-05
8.57233e-05
8.43151e-05
8.12886e-05
7.74161e-05
7.19471e-05
6.70849e-05
6.09299e-05
5.84027e-05
5.56254e-05
5.56688e-05
5.63841e-05
5.74595e-05
5.84658e-05
5.68288e-05
5.6207e-05
5.71468e-05
5.82665e-05
5.72665e-05
5.68041e-05
5.65704e-05
5.03413e-05
5.25202e-05
5.44213e-05
5.41475e-05
5.2686e-05
5.06592e-05
5.19462e-05
5.36294e-05
5.57443e-05
6.02039e-05
6.64492e-05
7.12593e-05
7.35358e-05
7.63221e-05
7.72327e-05
7.53834e-05
7.63164e-05
6.99427e-05
6.72811e-05
6.1863e-05
6.08467e-05
6.1027e-05
6.47266e-05
6.3993e-05
6.06508e-05
6.2158e-05
6.36574e-05
6.41965e-05
6.3623e-05
5.81116e-05
3.70132e-05
5.06451e-05
6.38785e-05
7.77274e-05
8.08754e-05
8.2614e-05
7.98507e-05
7.55023e-05
8.02889e-05
0.000103324
0.00012591
0.000111097
0.000108537
0.000161489
2.03074e-05
2.12386e-05
2.03247e-05
2.29404e-05
3.21272e-05
5.24968e-05
6.71869e-05
7.3313e-05
6.84461e-05
6.42326e-05
6.92127e-05
6.42273e-05
4.79317e-05
3.30634e-05
3.03681e-05
3.45958e-05
3.97739e-05
4.35084e-05
4.56519e-05
4.76056e-05
4.85867e-05
4.8201e-05
4.78239e-05
4.58924e-05
4.17268e-05
3.55703e-05
3.22797e-05
3.23398e-05
3.58122e-05
3.27024e-05
7.53347e-05
9.03223e-05
9.4063e-05
9.70996e-05
0.000101286
9.88612e-05
8.3376e-05
6.99878e-05
6.01147e-05
5.56969e-05
5.36746e-05
5.41173e-05
6.60161e-05
7.044e-05
6.84094e-05
6.48456e-05
5.7944e-05
5.45691e-05
5.14696e-05
5.19503e-05
5.16865e-05
5.2383e-05
5.5022e-05
5.90622e-05
6.22665e-05
6.32366e-05
6.31437e-05
6.42781e-05
6.62557e-05
7.39676e-05
8.18137e-05
7.96208e-05
8.20928e-05
8.67206e-05
8.61106e-05
8.06834e-05
7.79876e-05
7.88797e-05
8.19519e-05
8.15984e-05
7.34904e-05
6.89722e-05
7.39965e-05
7.63907e-05
7.23005e-05
6.63873e-05
6.05564e-05
5.54632e-05
5.40904e-05
5.19753e-05
5.08922e-05
5.19661e-05
5.4768e-05
5.86339e-05
6.02937e-05
6.50424e-05
6.98411e-05
7.4368e-05
7.90465e-05
8.30386e-05
0.000103372
9.91895e-05
0.000102223
9.17172e-05
9.69429e-05
0.000101752
0.00010132
9.89084e-05
9.42229e-05
8.92512e-05
8.45176e-05
8.23027e-05
8.0013e-05
7.99247e-05
8.00885e-05
7.95966e-05
7.97205e-05
8.18552e-05
8.37871e-05
8.76379e-05
9.0776e-05
9.35992e-05
9.91417e-05
9.68718e-05
9.34819e-05
9.48458e-05
9.19653e-05
8.20484e-05
8.71058e-05
8.99981e-05
8.97003e-05
9.10395e-05
9.42634e-05
9.83404e-05
0.000100926
0.000100999
9.743e-05
9.20268e-05
8.97908e-05
8.79876e-05
8.81956e-05
9.09563e-05
9.59188e-05
0.000101829
0.000106418
0.000111237
0.000114986
0.000120979
0.000125577
0.000126681
0.000127014
0.000125694
0.000121892
0.00011642
0.000111227
0.000104778
0.000100152
9.66123e-05
9.40065e-05
9.60039e-05
6.99257e-05
8.26319e-05
8.57294e-05
8.64181e-05
8.49009e-05
8.34509e-05
7.97898e-05
7.99361e-05
7.69798e-05
6.79666e-05
6.42645e-05
6.35975e-05
6.5598e-05
6.78537e-05
7.0676e-05
7.37114e-05
7.84792e-05
8.09586e-05
8.24135e-05
8.23157e-05
8.11617e-05
7.83256e-05
7.38219e-05
7.23323e-05
7.02094e-05
6.90111e-05
6.81741e-05
6.79424e-05
4.5608e-05
3.25749e-05
9.25313e-05
0.000100618
9.87679e-05
9.81874e-05
9.68112e-05
9.63059e-05
9.52742e-05
9.5049e-05
9.55534e-05
9.39437e-05
9.16151e-05
9.29174e-05
9.06807e-05
9.04223e-05
8.98214e-05
9.05105e-05
9.25068e-05
9.21855e-05
9.46674e-05
9.40719e-05
9.56415e-05
9.74281e-05
9.96167e-05
9.95464e-05
9.69584e-05
9.66199e-05
9.66374e-05
9.80021e-05
9.86677e-05
9.82795e-05
0.000101242
0.000100232
9.47328e-05
8.89009e-05
8.48184e-05
8.03337e-05
6.92528e-05
5.69753e-05
5.34188e-05
4.56762e-05
4.22389e-05
4.02869e-05
4.16294e-05
4.49744e-05
5.10379e-05
5.68686e-05
6.61125e-05
7.59119e-05
8.51443e-05
8.61236e-05
9.37777e-05
9.14323e-05
8.91775e-05
8.97849e-05
9.02735e-05
8.95658e-05
8.8022e-05
8.91073e-05
9.09016e-05
9.02278e-05
8.32925e-05
9.45747e-05
9.70362e-05
9.07667e-05
8.05406e-05
7.45203e-05
7.30023e-05
6.26923e-05
5.34884e-05
4.6395e-05
4.08992e-05
4.09176e-05
3.88399e-05
4.04088e-05
4.18761e-05
4.32734e-05
4.83896e-05
5.60334e-05
6.51376e-05
7.29088e-05
7.47196e-05
8.23116e-05
8.17057e-05
8.14104e-05
8.04762e-05
7.92044e-05
7.8612e-05
7.73751e-05
7.88928e-05
7.91261e-05
7.37807e-05
7.483e-05
7.09868e-05
6.50659e-05
5.96082e-05
5.29321e-05
4.1343e-05
3.34061e-05
2.63095e-05
2.29529e-05
2.27508e-05
2.64049e-05
3.4699e-05
4.24359e-05
5.64715e-05
6.30438e-05
6.78097e-05
7.16582e-05
7.59329e-05
6.87876e-05
6.2208e-05
6.0737e-05
6.03873e-05
5.96924e-05
6.05857e-05
6.11956e-05
6.2747e-05
6.29184e-05
6.3961e-05
6.36606e-05
6.58981e-05
6.92088e-05
6.86082e-05
6.99978e-05
7.2999e-05
7.80218e-05
8.30321e-05
8.85e-05
9.17585e-05
9.36083e-05
9.48064e-05
9.23261e-05
8.97091e-05
8.41794e-05
7.87245e-05
7.22349e-05
6.58344e-05
5.97443e-05
5.55195e-05
5.5752e-05
5.60784e-05
5.71534e-05
5.79119e-05
5.71941e-05
5.61376e-05
5.68357e-05
5.87224e-05
5.75269e-05
5.67966e-05
5.65763e-05
4.99436e-05
5.35525e-05
5.53284e-05
5.49073e-05
5.26612e-05
4.94267e-05
5.33441e-05
5.45454e-05
5.86306e-05
6.65555e-05
7.32729e-05
7.81937e-05
8.57706e-05
8.91581e-05
8.92988e-05
8.74484e-05
8.33364e-05
7.8476e-05
7.30265e-05
6.56403e-05
6.32205e-05
6.04145e-05
6.36696e-05
6.4239e-05
6.06887e-05
5.46928e-05
6.02033e-05
6.21178e-05
5.80194e-05
5.38204e-05
4.8354e-05
6.20801e-05
7.64175e-05
9.34933e-05
0.000113771
0.000120889
0.000105945
8.29439e-05
7.81366e-05
9.03517e-05
0.000124517
0.00011458
0.000111165
0.000161207
2.02566e-05
2.12092e-05
1.99876e-05
1.95598e-05
2.32184e-05
3.02807e-05
4.02271e-05
4.34333e-05
4.03988e-05
4.40755e-05
5.44416e-05
5.81223e-05
4.3156e-05
3.07329e-05
3.19457e-05
3.81884e-05
4.23801e-05
4.4715e-05
4.83554e-05
5.35193e-05
5.68414e-05
5.58568e-05
5.19606e-05
4.93581e-05
4.46347e-05
3.8767e-05
3.26474e-05
3.223e-05
3.57251e-05
3.259e-05
7.24832e-05
8.94358e-05
9.54436e-05
9.9587e-05
0.000101001
9.55364e-05
7.72687e-05
6.54476e-05
5.5924e-05
5.09569e-05
5.06623e-05
6.17455e-05
7.1747e-05
7.03978e-05
6.51908e-05
5.7658e-05
5.15356e-05
4.98251e-05
4.91738e-05
4.88815e-05
4.87445e-05
5.01837e-05
5.17886e-05
5.45359e-05
5.82609e-05
6.14146e-05
6.22238e-05
6.30177e-05
6.56787e-05
7.42238e-05
8.16967e-05
7.98339e-05
8.19616e-05
8.69415e-05
8.55585e-05
8.02579e-05
7.65958e-05
7.77109e-05
8.26142e-05
8.08621e-05
7.1834e-05
6.91461e-05
7.54688e-05
7.52121e-05
6.85245e-05
6.07136e-05
5.72974e-05
5.19862e-05
4.8127e-05
4.67351e-05
4.67136e-05
4.73518e-05
4.88684e-05
5.35922e-05
5.88673e-05
6.11156e-05
6.67239e-05
7.22379e-05
7.76058e-05
8.23503e-05
0.000103476
9.83287e-05
9.60251e-05
9.29067e-05
0.000100728
0.00010302
0.000101097
9.72824e-05
9.16193e-05
8.69038e-05
8.17218e-05
8.19426e-05
8.04005e-05
8.2423e-05
8.10175e-05
8.07796e-05
8.02206e-05
7.98006e-05
8.37108e-05
8.57341e-05
8.83974e-05
9.34173e-05
9.89771e-05
9.75167e-05
9.56639e-05
9.32701e-05
9.37127e-05
8.79983e-05
9.16084e-05
9.43362e-05
8.87681e-05
8.98479e-05
9.24366e-05
9.71433e-05
9.88501e-05
9.78924e-05
9.39615e-05
9.09582e-05
8.86615e-05
8.78369e-05
8.93369e-05
9.1872e-05
9.79812e-05
0.000104422
0.000107328
0.000111223
0.000117309
0.000124106
0.000127614
0.000130893
0.000133358
0.000132179
0.0001284
0.000122441
0.000115403
0.000108269
0.000102267
9.80095e-05
9.47864e-05
9.57693e-05
6.94073e-05
8.11429e-05
8.53706e-05
8.68286e-05
8.67602e-05
8.38568e-05
8.11625e-05
8.10536e-05
7.71236e-05
6.75412e-05
6.35764e-05
6.69572e-05
6.50817e-05
6.72433e-05
7.12956e-05
7.56593e-05
7.96604e-05
8.45148e-05
8.59515e-05
8.53981e-05
8.43786e-05
8.19989e-05
7.60372e-05
7.38433e-05
7.07789e-05
6.8706e-05
6.81455e-05
6.80234e-05
4.70401e-05
3.40101e-05
9.64408e-05
9.98215e-05
9.95378e-05
9.87628e-05
9.66349e-05
9.58841e-05
9.45138e-05
9.49219e-05
9.4871e-05
9.24132e-05