/*--------------------------------*- C++ -*----------------------------------*\
| =========                 |                                                 |
| \\      /  F ield         | OpenFOAM: The Open Source CFD Toolbox           |
|  \\    /   O peration     | Version:  2.1.1                                 |
|   \\  /    A nd           | Web:      www.OpenFOAM.org                      |
|    \\/     M anipulation  |                                                 |
\*---------------------------------------------------------------------------*/
FoamFile
{
    version     2.0;
    format      ascii;
    class       volScalarField;
    location    "0.007600000";
    object      HO2;
}
// * * * * * * * * * * * * * * * * * * * * * * * * * * * * * * * * * * * * * //

dimensions      [0 0 0 0 0 0 0];

internalField   nonuniform List<scalar> 
12384
(
1.23347e-05
1.26144e-05
1.29732e-05
1.31449e-05
1.36172e-05
1.3528e-05
1.29557e-05
1.26661e-05
1.23846e-05
1.19644e-05
1.09202e-05
1.04522e-05
1.01768e-05
9.04724e-06
1.05168e-05
1.10633e-05
1.08645e-05
1.03124e-05
1.01179e-05
9.69508e-06
9.16562e-06
8.83547e-06
8.54499e-06
8.42366e-06
8.39752e-06
8.48449e-06
8.5903e-06
8.80382e-06
9.09065e-06
9.41461e-06
1.00152e-05
1.0228e-05
1.03467e-05
1.0418e-05
1.0449e-05
1.04418e-05
1.04102e-05
1.03904e-05
1.03318e-05
1.0192e-05
9.88272e-06
9.083e-06
9.86239e-06
1.04698e-05
2.68118e-06
1.78424e-06
1.79288e-06
2.08764e-06
2.32893e-06
2.54121e-06
2.73358e-06
2.91466e-06
3.08313e-06
3.21479e-06
3.31528e-06
3.39623e-06
3.46371e-06
3.49829e-06
3.51711e-06
3.42133e-06
3.37651e-06
3.30557e-06
3.26959e-06
3.21082e-06
3.21297e-06
3.19212e-06
3.20392e-06
3.20738e-06
3.21357e-06
3.20309e-06
3.08009e-06
2.63368e-06
2.9079e-06
3.22185e-06
1.56231e-06
1.46309e-06
1.67367e-06
1.72189e-06
1.73242e-06
1.76837e-06
1.79598e-06
1.85253e-06
1.90104e-06
1.96067e-06
1.97703e-06
2.00594e-06
2.02659e-06
2.02468e-06
2.01971e-06
2.005e-06
1.97278e-06
1.95396e-06
1.93155e-06
1.91642e-06
1.91247e-06
1.88964e-06
1.87254e-06
1.88893e-06
1.85499e-06
1.86244e-06
1.8696e-06
1.83259e-06
1.88357e-06
1.91451e-06
7.42969e-07
6.97335e-07
6.61492e-07
6.54557e-07
6.43273e-07
6.43312e-07
6.52653e-07
6.81695e-07
6.66707e-07
6.86127e-07
6.46463e-07
6.74816e-07
6.17731e-07
6.48644e-07
6.13968e-07
6.40636e-07
6.45137e-07
6.54141e-07
6.74093e-07
6.80912e-07
6.68745e-07
6.18589e-07
5.71492e-07
5.18232e-07
4.97129e-07
5.0028e-07
5.08309e-07
5.11077e-07
5.14548e-07
5.13176e-07
9.81492e-08
1.07571e-07
1.03176e-07
1.00348e-07
8.84962e-08
8.90419e-08
9.08217e-08
9.17028e-08
9.16183e-08
9.36779e-08
9.63943e-08
9.89359e-08
1.01657e-07
1.04072e-07
1.06077e-07
1.07077e-07
1.07463e-07
1.06962e-07
1.05226e-07
1.06154e-07
1.05275e-07
1.03573e-07
1.04456e-07
1.04862e-07
1.0667e-07
1.09489e-07
1.13815e-07
1.22114e-07
1.42508e-07
1.52761e-07
2.74364e-07
2.921e-07
2.5808e-07
1.69523e-07
1.20429e-07
1.02837e-07
9.25588e-08
1.01839e-07
1.47212e-07
1.61132e-07
1.79052e-07
1.87248e-07
1.93836e-07
2.03816e-07
2.21581e-07
2.16657e-07
2.24812e-07
2.14147e-07
2.22751e-07
2.25858e-07
2.46701e-07
2.57227e-07
2.7689e-07
2.93623e-07
3.15185e-07
5.70148e-07
3.0338e-06
4.50587e-06
3.73755e-06
3.35856e-06
1.23202e-07
9.41158e-08
6.9248e-08
5.72648e-08
5.6025e-08
6.0153e-08
6.38551e-08
6.57057e-08
6.46554e-08
6.02188e-08
6.96382e-08
6.56555e-08
5.97551e-08
5.69644e-08
5.47602e-08
5.84613e-08
4.8151e-08
5.41199e-08
6.12743e-08
6.7616e-08
9.88744e-08
1.3647e-07
1.37504e-07
1.37068e-07
1.38333e-07
1.3835e-07
1.35826e-07
1.33808e-07
1.33677e-07
1.36986e-07
3.32854e-07
3.54739e-07
3.65492e-07
3.65268e-07
3.65178e-07
3.66249e-07
3.71831e-07
3.94594e-07
3.67288e-07
3.88269e-07
3.74401e-07
3.87095e-07
3.95083e-07
3.97972e-07
4.17539e-07
4.49245e-07
4.65253e-07
3.8815e-07
4.86878e-08
4.53834e-08
4.83281e-08
4.86644e-08
3.62157e-08
5.54847e-08
4.57772e-08
4.90057e-08
4.74849e-08
3.1616e-08
3.68481e-08
2.44524e-08
2.37201e-07
2.62674e-07
2.70141e-07
2.55851e-07
2.40888e-07
2.33753e-07
2.28292e-07
2.27172e-07
2.25214e-07
2.43681e-07
2.50353e-07
2.38467e-07
2.55851e-07
2.64646e-07
2.8481e-07
3.16561e-07
3.2513e-07
3.56881e-07
3.60994e-07
1.12838e-07
7.45229e-08
7.06291e-08
7.01003e-08
7.45686e-08
7.57004e-08
6.84777e-08
6.87608e-08
5.89795e-08
5.88495e-08
4.98103e-08
1.1452e-07
1.12877e-07
6.28117e-08
8.09149e-08
8.26913e-08
8.4543e-08
8.50497e-08
6.9773e-08
6.46701e-08
8.91255e-08
8.84914e-08
9.02983e-08
1.38262e-07
1.3649e-07
1.5316e-07
6.32541e-08
2.1561e-08
1.83911e-08
1.86722e-08
1.96784e-08
1.93279e-08
1.88309e-08
1.84906e-08
1.80746e-08
1.7855e-08
1.80463e-08
1.73243e-08
1.77234e-08
1.80746e-08
1.75872e-08
3.70564e-08
3.92013e-08
4.02755e-08
3.3275e-08
4.28357e-08
4.14686e-08
3.94098e-08
3.74189e-08
3.97846e-08
3.94741e-08
3.42811e-08
3.36197e-08
2.71626e-08
2.6689e-08
2.71981e-08
2.74496e-08
2.20051e-08
2.22448e-08
1.75132e-08
1.88587e-08
2.38457e-08
2.4279e-08
2.51838e-08
2.60876e-08
2.70325e-08
2.82795e-08
2.95466e-08
3.13822e-08
3.07532e-08
3.21171e-08
1.15688e-08
1.23955e-08
1.29461e-08
1.35186e-08
1.21295e-08
1.15711e-08
7.29724e-09
2.38884e-09
1.04826e-09
9.66254e-10
9.41155e-10
9.60401e-10
9.32133e-10
9.86389e-10
9.64006e-10
1.0657e-09
1.04197e-09
9.41236e-10
9.31553e-10
1.10401e-09
1.14021e-09
1.20154e-09
1.25076e-09
1.22486e-09
1.24307e-09
1.30889e-09
1.138e-09
1.40652e-09
2.48242e-09
2.97819e-09
1.32147e-05
1.40805e-05
1.43969e-05
1.4444e-05
1.42253e-05
1.40398e-05
1.38292e-05
1.36241e-05
1.34253e-05
1.3104e-05
1.21207e-05
1.14112e-05
1.01938e-05
9.03117e-06
1.05906e-05
1.10375e-05
1.07918e-05
1.0338e-05
1.0168e-05
9.13951e-06
7.78579e-06
7.21857e-06
6.89182e-06
6.86375e-06
6.87579e-06
7.6301e-06
7.9895e-06
8.68364e-06
9.79095e-06
1.03287e-05
1.06961e-05
1.08767e-05
1.09565e-05
1.10174e-05
1.11276e-05
1.11792e-05
1.11986e-05
1.11264e-05
1.09555e-05
1.07039e-05
1.03155e-05
9.70201e-06
9.50712e-06
1.03645e-05
2.54888e-06
1.74796e-06
1.85376e-06
2.22554e-06
2.61005e-06
3.03892e-06
3.47899e-06
4.53922e-06
5.04302e-06
5.39379e-06
5.56813e-06
5.62018e-06
5.58956e-06
5.3566e-06
4.9921e-06
4.62876e-06
4.26563e-06
4.00001e-06
3.3301e-06
3.26649e-06
3.21868e-06
3.22122e-06
3.23366e-06
3.25178e-06
3.26495e-06
3.2728e-06
3.23364e-06
2.92864e-06
2.62631e-06
2.62717e-06
1.52563e-06
1.52617e-06
1.66569e-06
1.65122e-06
1.63743e-06
1.62398e-06
1.66244e-06
1.75768e-06
1.86576e-06
1.98622e-06
2.14333e-06
2.26994e-06
2.32706e-06
2.31396e-06
2.24764e-06
2.17256e-06
2.12479e-06
2.09135e-06
2.05786e-06
2.07349e-06
2.06303e-06
2.07144e-06
2.06145e-06
2.03791e-06
2.00459e-06
1.99256e-06
1.93567e-06
1.90386e-06
1.8812e-06
1.90024e-06
7.46615e-07
7.0495e-07
6.74154e-07
6.54849e-07
6.5146e-07
6.99018e-07
7.46369e-07
1.02318e-06
1.12907e-06
1.16823e-06
1.14482e-06
1.13866e-06
1.15081e-06
1.1224e-06
1.1792e-06
1.18395e-06
1.10907e-06
1.07701e-06
1.02709e-06
9.74249e-07
7.09877e-07
6.73159e-07
6.1619e-07
5.4704e-07
5.02088e-07
5.20525e-07
8.2797e-07
8.74491e-07
5.4719e-07
5.03645e-07
1.0253e-07
1.07648e-07
1.01617e-07
8.70002e-08
8.73416e-08
8.30686e-08
8.01779e-08
7.55482e-08
8.71491e-08
8.50216e-08
8.71894e-08
9.15673e-08
9.66064e-08
9.35289e-08
1.01978e-07
1.10118e-07
1.15757e-07
1.19966e-07
1.23027e-07
1.22718e-07
1.20069e-07
1.19032e-07
1.17704e-07
1.15669e-07
1.13546e-07
1.12832e-07
1.14295e-07
1.19407e-07
1.333e-07
1.51404e-07
2.77055e-07
2.6163e-07
1.22988e-07
9.68774e-08
8.49296e-08
8.56318e-08
9.18196e-08
9.98302e-08
7.49859e-08
1.68687e-07
2.05081e-07
2.33148e-07
2.67737e-07
2.72667e-07
2.76271e-07
2.64897e-07
2.61857e-07
2.63139e-07
2.69847e-07
2.60347e-07
2.61511e-07
2.66681e-07
2.8274e-07
2.9184e-07
3.01507e-07
3.34421e-07
1.14635e-06
3.01771e-06
3.80843e-06
3.06774e-06
1.28623e-07
9.50424e-08
5.85316e-08
6.1255e-08
6.56515e-08
7.89698e-08
8.6093e-08
8.58878e-08
9.38765e-08
8.59667e-08
7.84432e-08
7.11139e-08
7.68019e-08
7.34326e-08
7.52118e-08
6.3562e-08
6.5366e-08
6.80913e-08
5.52383e-08
6.23489e-08
7.96075e-08
1.20225e-07
1.40714e-07
1.46158e-07
1.5057e-07
1.52517e-07
1.50821e-07
1.44582e-07
1.34486e-07
1.28125e-07
3.437e-07
3.33079e-07
3.28668e-07
3.23837e-07
3.39673e-07
3.69691e-07
4.19664e-07
4.22221e-07
4.49778e-07
4.75816e-07
4.51666e-07
4.71033e-07
4.79525e-07
4.70975e-07
4.70426e-07
4.60132e-07
4.72613e-07
4.55615e-07
1.57119e-07
3.77935e-08
4.36135e-08
4.34118e-08
4.31752e-08
4.02583e-08
5.51025e-08
7.12654e-08
8.31056e-08
7.90708e-08
4.81777e-08
2.7413e-08
2.33418e-07
2.65762e-07
2.56339e-07
2.07707e-07
1.84759e-07
1.8579e-07
2.00518e-07
2.25029e-07
2.71195e-07
2.83781e-07
2.92477e-07
3.12147e-07
3.19523e-07
3.29661e-07
3.34613e-07
3.29035e-07
3.40092e-07
3.58628e-07
3.69871e-07
2.77108e-07
1.07954e-07
7.17144e-08
7.73454e-08
7.73594e-08
7.96197e-08
7.37048e-08
6.73641e-08
6.43607e-08
5.85684e-08
5.2998e-08
1.05598e-07
9.8313e-08
7.5006e-08
7.49266e-08
7.65787e-08
8.41365e-08
9.94505e-08
1.10112e-07
1.27357e-07
1.18324e-07
1.2727e-07
1.07497e-07
1.15479e-07
1.43936e-07
1.44885e-07
1.0537e-07
6.86948e-08
2.06203e-08
2.05737e-08
1.90997e-08
1.23839e-08
1.87965e-08
1.67635e-08
1.73431e-08
1.67776e-08
1.66613e-08
1.71274e-08
1.7419e-08
1.8002e-08
1.82483e-08
3.83777e-08
3.80379e-08
4.07898e-08
3.52434e-08
4.34365e-08
4.16775e-08
3.98814e-08
3.69674e-08
3.65989e-08
3.27597e-08
3.10007e-08
3.36806e-08
3.06659e-08
2.5476e-08
2.0884e-08
2.41479e-08
1.84883e-08
1.83976e-08
1.33578e-08
1.60604e-08
2.46548e-08
2.81445e-08
3.12094e-08
3.14842e-08
3.07019e-08
2.97741e-08
2.98649e-08
3.11288e-08
3.1004e-08
3.17243e-08
6.41798e-09
1.11775e-08
1.71327e-08
1.67367e-08
1.27738e-08
7.76034e-09
3.47514e-09
1.32143e-09
9.90605e-10
1.00066e-09
1.02535e-09
1.07294e-09
1.14614e-09
1.19607e-09
1.13016e-09
1.29552e-09
1.31028e-09
1.43369e-09
1.49867e-09
1.94724e-09
2.15361e-09
2.21623e-09
2.05581e-09
1.83591e-09
1.63264e-09
1.09685e-09
1.13796e-09
1.40085e-09
2.48009e-09
3.19246e-09
1.44241e-05
1.49075e-05
1.47452e-05
1.44951e-05
1.38722e-05
1.32974e-05
1.29321e-05
1.2388e-05
1.23697e-05
1.23962e-05
1.22382e-05
1.17467e-05
1.02981e-05
8.93903e-06
1.0672e-05
1.10453e-05
1.07931e-05
1.04842e-05
9.86675e-06
8.86274e-06
7.40626e-06
7.02067e-06
6.75892e-06
6.7698e-06
6.76663e-06
6.95688e-06
7.87435e-06
8.90572e-06
1.0141e-05
1.06552e-05
1.08455e-05
1.08377e-05
1.0787e-05
1.07705e-05
1.08685e-05
1.09822e-05
1.11628e-05
1.13297e-05
1.13908e-05
1.12466e-05
1.08906e-05
1.02199e-05
9.59296e-06
9.90114e-06
2.44869e-06
1.69231e-06
1.82829e-06
2.22464e-06
2.69297e-06
3.24519e-06
4.39861e-06
5.26734e-06
5.9296e-06
6.25485e-06
6.37692e-06
6.38947e-06
6.16344e-06
5.50724e-06
4.76067e-06
4.15552e-06
3.30373e-06
3.21583e-06
3.11962e-06
3.12068e-06
3.12345e-06
3.10742e-06
3.13808e-06
3.20303e-06
3.26242e-06
3.30228e-06
3.32118e-06
3.17911e-06
2.79558e-06
2.51543e-06
1.50264e-06
1.55282e-06
1.60262e-06
1.50487e-06
1.40825e-06
1.41537e-06
1.45331e-06
1.59604e-06
1.71241e-06
1.89945e-06
2.21256e-06
2.46562e-06
2.51057e-06
2.40325e-06
2.23808e-06
2.1388e-06
2.10416e-06
2.10484e-06
2.12362e-06
2.15986e-06
2.17346e-06
2.21926e-06
2.20682e-06
2.19694e-06
2.19269e-06
2.128e-06
2.04733e-06
2.00315e-06
1.92336e-06
1.91965e-06
7.49188e-07
7.19576e-07
6.91777e-07
6.61305e-07
7.20764e-07
1.14295e-06
1.2867e-06
1.30569e-06
1.36253e-06
1.44374e-06
1.40524e-06
1.48685e-06
1.54297e-06
1.48423e-06
1.50733e-06
1.51957e-06
1.47077e-06
1.41789e-06
1.32954e-06
1.2247e-06
1.08663e-06
7.13671e-07
6.56343e-07
5.93779e-07
5.51072e-07
8.32577e-07
1.28354e-06
1.41686e-06
1.15011e-06
5.67799e-07
1.02062e-07
1.0572e-07
8.9284e-08
8.4097e-08
8.42387e-08
7.73949e-08
7.44915e-08
8.06322e-08
8.21409e-08
7.97124e-08
8.1501e-08
8.53456e-08
9.48998e-08
1.00117e-07
1.17206e-07
1.3181e-07
1.35975e-07
1.45096e-07
1.47083e-07
1.44928e-07
1.43869e-07
1.40381e-07
1.32487e-07
1.33717e-07
1.28003e-07
1.22459e-07
1.18266e-07
1.18462e-07
1.27412e-07
1.45797e-07
2.70774e-07
1.79837e-07
9.67458e-08
5.88886e-08
6.52836e-08
7.71301e-08
9.03919e-08
1.06548e-07
1.56212e-07
2.16491e-07
2.7601e-07
3.00407e-07
3.04078e-07
3.08087e-07
2.97136e-07
2.93428e-07
2.8765e-07
2.79759e-07
2.77426e-07
2.72473e-07
2.82907e-07
2.79704e-07
2.90009e-07
2.92664e-07
3.04076e-07
3.1477e-07
5.98632e-07
1.477e-06
3.38213e-06
3.30387e-06
1.11662e-07
9.3732e-08
5.93538e-08
6.76412e-08
8.79923e-08
9.44863e-08
9.09244e-08
9.5954e-08
8.61504e-08
7.59403e-08
6.80775e-08
5.61016e-08
6.66644e-08
6.67246e-08
6.54091e-08
5.63149e-08
6.139e-08
6.61568e-08
6.96738e-08
5.51543e-08
6.43212e-08
8.58181e-08
1.2387e-07
1.45861e-07
1.53935e-07
1.66855e-07
1.56534e-07
1.44085e-07
1.48986e-07
1.27195e-07
3.4302e-07
3.01536e-07
2.79634e-07
2.96575e-07
3.49348e-07
4.37567e-07
4.75986e-07
5.15894e-07
8.91383e-07
1.05058e-06
1.15784e-06
1.22262e-06
1.2017e-06
1.13757e-06
9.80953e-07
7.97745e-07
5.01402e-07
4.97794e-07
3.76133e-07
1.08092e-07
4.4886e-08
3.88684e-08
3.78734e-08
4.19532e-08
5.43497e-08
7.50889e-08
8.88678e-08
9.61683e-08
8.18581e-08
3.79092e-08
2.33919e-07
2.62534e-07
2.14368e-07
1.15021e-07
1.17134e-07
1.99169e-07
2.49829e-07
3.20705e-07
3.53384e-07
3.80105e-07
6.084e-07
7.63396e-07
8.16279e-07
8.15705e-07
7.13518e-07
6.18012e-07
3.86456e-07
3.752e-07
3.82494e-07
3.46321e-07
1.54881e-07
8.35102e-08
7.40205e-08
7.88562e-08
8.93952e-08
8.03609e-08
6.79966e-08
5.78306e-08
5.81133e-08
5.01901e-08
8.27172e-08
6.74522e-08
7.05666e-08
7.58111e-08
8.41871e-08
1.14888e-07
1.48732e-07
1.95765e-07
2.11684e-07
2.36763e-07
2.23839e-07
2.00734e-07
1.93043e-07
1.68833e-07
1.62286e-07
1.76832e-07
1.42679e-07
7.29162e-08
3.14618e-08
2.08133e-08
1.27103e-08
1.64141e-08
1.76655e-08
1.65972e-08
1.59101e-08
1.64505e-08
1.69043e-08
1.78267e-08
1.82407e-08
1.78947e-08
3.659e-08
3.43386e-08
3.62555e-08
4.48455e-08
4.49174e-08
4.38586e-08
3.71871e-08
3.71839e-08
3.85431e-08
3.66963e-08
3.72206e-08
3.98325e-08
3.54726e-08
3.16187e-08
3.00293e-08
2.55952e-08
2.37645e-08
2.06862e-08
2.25363e-08
2.55506e-08
3.27408e-08
3.85717e-08
4.45091e-08
4.71692e-08
4.65367e-08
4.08091e-08
3.47272e-08
3.2339e-08
3.14133e-08
3.16083e-08
3.90946e-09
1.09405e-08
2.27689e-08
1.3751e-08
7.27693e-09
2.90644e-09
1.66425e-09
1.0348e-09
1.02439e-09
1.11586e-09
1.24732e-09
1.02227e-09
1.35082e-09
1.71536e-09
1.74883e-09
1.79069e-09
1.74479e-09
1.56886e-09
1.67152e-09
2.05514e-09
2.29409e-09
3.38264e-09
4.03691e-09
3.57011e-09
3.30423e-09
2.31721e-09
1.57737e-09
1.71944e-09
2.23843e-09
3.29996e-09
1.49785e-05
1.48869e-05
1.4539e-05
1.34943e-05
1.20995e-05
1.11534e-05
1.06739e-05
1.05258e-05
1.01951e-05
1.12384e-05
1.17448e-05
1.16909e-05
1.1093e-05
9.59806e-06
1.0685e-05
1.10301e-05
1.08047e-05
1.06567e-05
1.01909e-05
9.15566e-06
7.81333e-06
7.52973e-06
7.43257e-06
7.44515e-06
7.27381e-06
7.15682e-06
7.98547e-06
9.1995e-06
1.03617e-05
1.06089e-05
1.05172e-05
1.03775e-05
1.03166e-05
1.03625e-05
1.04276e-05
1.05163e-05
1.07154e-05
1.10365e-05
1.14364e-05
1.15599e-05
1.1387e-05
1.07308e-05
9.81901e-06
9.72215e-06
2.41562e-06
1.67814e-06
1.74108e-06
1.98748e-06
2.35758e-06
2.82506e-06
3.48371e-06
5.05816e-06
5.96419e-06
6.39596e-06
6.52821e-06
6.47588e-06
5.75433e-06
4.67899e-06
3.36196e-06
3.17478e-06
3.15388e-06
3.17963e-06
3.29015e-06
3.33876e-06
3.31906e-06
3.31865e-06
3.24839e-06
3.21049e-06
3.24844e-06
3.31373e-06
3.87174e-06
3.32339e-06
2.98761e-06
2.54097e-06
1.49273e-06
1.54952e-06
1.51543e-06
1.35046e-06
1.26255e-06
1.35778e-06
1.44074e-06
1.5407e-06
1.63663e-06
1.79905e-06
2.29507e-06
2.68317e-06
2.59526e-06
2.34715e-06
2.15981e-06
2.12361e-06
2.15902e-06
2.23787e-06
2.35136e-06
2.43984e-06
2.49035e-06
2.47665e-06
2.47273e-06
2.44362e-06
2.38487e-06
2.28197e-06
2.2127e-06
2.12188e-06
1.98803e-06
1.95589e-06
7.53085e-07
7.33381e-07
7.01805e-07
7.00911e-07
1.22915e-06
1.41678e-06
1.44982e-06
1.45212e-06
1.58592e-06
1.67103e-06
1.7641e-06
2.01017e-06
1.96674e-06
2.06057e-06
2.05538e-06
1.99478e-06
1.89996e-06
1.7769e-06
1.63781e-06
1.49128e-06
1.3082e-06
1.1069e-06
7.0321e-07
6.39298e-07
5.84558e-07
8.93858e-07
1.21332e-06
1.49469e-06
1.18048e-06
5.80147e-07
1.05758e-07
1.04931e-07
8.74847e-08
8.38477e-08
6.70441e-08
6.16876e-08
7.60766e-08
7.19471e-08
8.62939e-08
8.27828e-08
8.24062e-08
8.87782e-08
1.04139e-07
1.19141e-07
1.33637e-07
1.52461e-07
1.58623e-07
1.64958e-07
1.65782e-07
1.68269e-07
1.68681e-07
1.5994e-07
1.53794e-07
1.49942e-07
1.38172e-07
1.34721e-07
1.26464e-07
1.21511e-07
1.2539e-07
1.41997e-07
2.60679e-07
1.29209e-07
6.79092e-08
3.52587e-08
5.20206e-08
6.97751e-08
9.55931e-08
1.08109e-07
1.70783e-07
2.44605e-07
3.0136e-07
3.11557e-07
3.14291e-07
3.08565e-07
2.98046e-07
3.05026e-07
2.76313e-07
2.76635e-07
2.72209e-07
2.76824e-07
2.80746e-07
2.88602e-07
2.91214e-07
2.96143e-07
3.03347e-07
3.16053e-07
3.35197e-07
9.86727e-07
2.57047e-06
3.36452e-06
9.51074e-08
4.59539e-08
5.76603e-08
8.90443e-08
9.76658e-08
9.40499e-08
9.75559e-08
8.57452e-08
7.43038e-08
6.4227e-08
5.28243e-08
4.04471e-08
3.84139e-08
4.81838e-08
4.87923e-08
5.51734e-08
5.06719e-08
5.96241e-08
6.71815e-08
6.87478e-08
5.85558e-08
6.92982e-08
9.29161e-08
1.29665e-07
1.3828e-07
1.76211e-07
1.58826e-07
1.691e-07
1.70263e-07
1.33198e-07
3.06522e-07
2.2773e-07
2.42854e-07
3.16172e-07
4.24439e-07
4.85418e-07
8.34724e-07
1.2641e-06
1.5669e-06
1.74012e-06
1.95548e-06
1.94857e-06
1.90711e-06
1.78711e-06
1.58765e-06
1.31707e-06
9.69233e-07
5.24283e-07
4.76887e-07
2.09079e-07
8.00822e-08
4.09087e-08
3.76745e-08
3.60658e-08
6.93812e-08
8.99987e-08
1.0482e-07
1.08784e-07
9.81107e-08
4.62788e-08
2.71825e-07
2.3811e-07
1.65607e-07
1.45177e-07
1.87229e-07
2.53811e-07
3.35734e-07
3.93142e-07
7.69704e-07
9.86769e-07
1.21945e-06
1.33604e-06
1.36999e-06
1.36567e-06
1.26702e-06
1.09818e-06
9.06702e-07
6.82597e-07
3.94186e-07
3.86939e-07
2.81277e-07
1.09104e-07
7.27634e-08
7.72686e-08
9.6114e-08
8.44656e-08
7.297e-08
5.52773e-08
5.04844e-08
5.08228e-08
6.92664e-08
6.64488e-08
7.1962e-08
7.77949e-08
1.00241e-07
1.7015e-07
2.2451e-07
4.94237e-07
8.00519e-07
8.99032e-07
8.98903e-07
7.40408e-07
4.01162e-07
2.43823e-07
1.97908e-07
1.81956e-07
1.95551e-07
1.23838e-07
6.52546e-08
3.01758e-08
1.53947e-08
1.25475e-08
1.79791e-08
1.72239e-08
1.72193e-08
1.76033e-08
1.79083e-08
1.79131e-08
1.86748e-08
1.68351e-08
3.91595e-08
3.67882e-08
3.77508e-08
3.91498e-08
3.98438e-08
4.29438e-08
4.62508e-08
4.11762e-08
4.35393e-08
4.58987e-08
4.2989e-08
3.98575e-08
4.42805e-08
3.56896e-08
3.53069e-08
3.42678e-08
3.07245e-08
2.52297e-08
2.52971e-08
2.71282e-08
3.53973e-08
4.30472e-08
5.04978e-08
8.74982e-08
9.68146e-08
6.62199e-08
4.26663e-08
3.53605e-08
3.22524e-08
3.1612e-08
3.1305e-09
1.13534e-08
2.22713e-08
7.69024e-09
4.36365e-09
1.81151e-09
1.09101e-09
1.0605e-09
1.17078e-09
1.42301e-09
1.63823e-09
2.27976e-09
2.7585e-09
2.69506e-09
2.92742e-09
2.7375e-09
2.5319e-09
1.82275e-09
1.84326e-09
1.78152e-09
2.41888e-09
3.44502e-09
5.17389e-09
5.05479e-09
4.65991e-09
4.61818e-09
2.97322e-09
2.84255e-09
4.69557e-09
3.29476e-09
1.50215e-05
1.47096e-05
1.32811e-05
1.14007e-05
1.01806e-05
9.55298e-06
9.37055e-06
9.37037e-06
9.05118e-06
9.54396e-06
1.02616e-05
1.1389e-05
1.11076e-05
9.52274e-06
1.07362e-05
1.1056e-05
1.08273e-05
1.08334e-05
1.09718e-05
9.94529e-06
8.59968e-06
8.41362e-06
8.51114e-06
8.56559e-06
8.07096e-06
8.09155e-06
8.23428e-06
9.77202e-06
1.03358e-05
1.02548e-05
1.01421e-05
1.01411e-05
1.03709e-05
1.06829e-05
1.08598e-05
1.08752e-05
1.08468e-05
1.09483e-05
1.1282e-05
1.16191e-05
1.16592e-05
1.11157e-05
1.00824e-05
9.6677e-06
2.44642e-06
1.60741e-06
1.54301e-06
1.55196e-06
1.6523e-06
1.94469e-06
2.78865e-06
4.57119e-06
5.81009e-06
6.39702e-06
6.57851e-06
6.17404e-06
4.84556e-06
3.28233e-06
3.06737e-06
3.2243e-06
3.91087e-06
4.39527e-06
4.63515e-06
4.71455e-06
4.7326e-06
4.52967e-06
4.319e-06
4.04591e-06
3.85292e-06
3.85448e-06
3.94975e-06
3.92186e-06
3.1089e-06
2.57004e-06
1.48315e-06
1.51383e-06
1.43407e-06
1.24102e-06
1.21102e-06
1.4236e-06
1.59503e-06
1.58907e-06
1.60655e-06
1.72971e-06
2.37072e-06
2.89515e-06
2.58188e-06
2.20498e-06
2.13242e-06
2.22541e-06
2.38293e-06
2.58926e-06
2.7252e-06
2.80843e-06
2.8701e-06
2.87967e-06
2.81298e-06
2.72598e-06
2.6001e-06
2.48469e-06
2.38108e-06
2.2346e-06
2.10438e-06
1.98901e-06
7.60018e-07
7.4074e-07
7.11583e-07
1.2642e-06
1.4762e-06
1.50457e-06
1.51494e-06
1.56133e-06
1.78551e-06
2.02244e-06
2.30684e-06
2.54689e-06
2.60074e-06
2.72259e-06
2.65104e-06
2.59764e-06
2.41486e-06
2.19024e-06
1.93297e-06
1.74862e-06
1.54811e-06
1.3079e-06
1.02612e-06
6.82602e-07
6.29924e-07
8.47205e-07
1.04616e-06
1.48397e-06
9.48257e-07
5.2022e-07
1.01698e-07
1.04196e-07
8.50977e-08
6.52775e-08
6.37366e-08
6.19635e-08
6.14571e-08
7.56367e-08
9.12102e-08
8.63607e-08
8.59442e-08
9.59981e-08
1.10784e-07
1.31599e-07
1.56577e-07
1.66373e-07
1.63693e-07
1.68432e-07
1.76762e-07
1.70373e-07
1.65384e-07
1.77214e-07
1.6652e-07
1.67936e-07
1.51947e-07
1.43272e-07
1.35438e-07
1.2563e-07
1.24422e-07
1.39768e-07
2.70082e-07
1.00713e-07
5.2435e-08
3.95008e-08
3.92549e-08
6.01018e-08
9.21956e-08
1.05203e-07
1.77774e-07
2.80969e-07
3.08471e-07
3.14636e-07
3.11871e-07
3.0847e-07
3.02163e-07
2.71993e-07
2.60796e-07
2.63488e-07
2.57178e-07
2.53886e-07
2.61751e-07
2.70298e-07
2.71823e-07
2.84668e-07
3.04546e-07
3.12648e-07
3.33312e-07
7.30025e-07
1.74197e-06
3.2261e-06
1.1654e-07
5.45229e-08
8.0036e-08
9.70513e-08
9.71724e-08
1.02732e-07
9.05111e-08
7.6506e-08
6.58474e-08
5.36169e-08
4.95975e-08
4.75495e-08
4.50052e-08
4.42603e-08
4.49342e-08
4.65937e-08
5.02355e-08
4.8342e-08
5.94314e-08
6.89811e-08
7.10733e-08
6.26809e-08
7.99843e-08
1.05237e-07
1.44246e-07
1.73758e-07
1.67357e-07
1.72235e-07
1.98703e-07
1.47351e-07
1.90601e-07
1.76008e-07
2.50008e-07
3.9871e-07
4.72624e-07
7.38006e-07
1.31087e-06
1.78939e-06
2.18775e-06
2.4268e-06
3.10333e-06
3.21119e-06
3.10889e-06
2.43327e-06
2.1643e-06
1.81776e-06
1.38304e-06
9.65596e-07
5.2556e-07
3.69174e-07
1.22721e-07
5.66676e-08
4.26307e-08
5.58066e-08
8.92512e-08
1.08226e-07
1.19771e-07
1.2417e-07
1.17485e-07
5.82855e-08
2.56415e-07
1.90308e-07
1.46726e-07
1.22723e-07
2.33654e-07
3.2297e-07
3.76238e-07
7.99434e-07
1.11102e-06
1.43223e-06
1.65331e-06
1.75864e-06
1.82217e-06
1.80277e-06
1.73026e-06
1.54851e-06
1.33098e-06
1.00199e-06
7.12827e-07
3.94041e-07
3.25184e-07
1.27318e-07
7.71152e-08
7.84112e-08
9.65522e-08
8.07278e-08
6.8938e-08
5.89157e-08
4.50166e-08
4.51718e-08
6.10808e-08
7.00822e-08
7.3523e-08
7.75696e-08
1.57105e-07
2.27164e-07
7.45762e-07
1.21952e-06
1.54875e-06
2.10752e-06
1.75333e-06
1.5666e-06
1.28598e-06
8.32984e-07
2.84554e-07
2.23619e-07
2.19493e-07
1.781e-07
8.63513e-08
4.22239e-08
1.9415e-08
1.53839e-08
1.37335e-08
1.75479e-08
1.67994e-08
1.7504e-08
1.77959e-08
1.94579e-08
1.90774e-08
1.81075e-08
3.90212e-08
3.69856e-08
3.94938e-08
4.12031e-08
4.54001e-08
4.13883e-08
3.8595e-08
4.51407e-08
3.98917e-08
4.05972e-08
4.11245e-08
3.73478e-08
4.0846e-08
4.23683e-08
3.94261e-08
3.78011e-08
3.16687e-08
3.1225e-08
2.74246e-08
2.69669e-08
3.40964e-08
4.27116e-08
5.32614e-08
1.09885e-07
1.27713e-07
1.0302e-07
4.90476e-08
3.86057e-08
3.34819e-08
3.16741e-08
2.64807e-09
6.81327e-09
1.13764e-08
5.18003e-09
2.38199e-09
1.26563e-09
1.06608e-09
1.15294e-09
1.45573e-09
1.87621e-09
2.77457e-09
3.47128e-09
3.52784e-09
4.57996e-09
4.85769e-09
4.02772e-09
4.14298e-09
3.12482e-09
2.63281e-09
1.83501e-09
2.0622e-09
2.67123e-09
5.39578e-09
5.26662e-09
3.76825e-09
4.09904e-09
4.77867e-09
4.85095e-09
4.67647e-09
2.3451e-09
1.48951e-05
1.35964e-05
1.12849e-05
9.78129e-06
8.57281e-06
8.43737e-06
8.96583e-06
9.04369e-06
9.11327e-06
9.02623e-06
9.75569e-06
1.11143e-05
1.10313e-05
9.524e-06
1.06774e-05
1.10786e-05
1.0832e-05
1.09178e-05
1.13413e-05
1.13173e-05
1.04365e-05
1.02672e-05
1.05088e-05
1.03838e-05
9.49004e-06
8.51691e-06
8.54154e-06
9.9882e-06
1.02052e-05
9.99731e-06
1.00389e-05
1.05502e-05
1.12806e-05
1.18633e-05
1.21166e-05
1.19532e-05
1.15773e-05
1.12657e-05
1.13766e-05
1.16642e-05
1.18248e-05
1.14062e-05
1.02533e-05
9.70574e-06
2.57181e-06
1.57975e-06
1.36578e-06
1.22302e-06
1.03322e-06
1.30745e-06
2.49893e-06
4.5124e-06
5.8403e-06
6.4433e-06
7.14939e-06
5.4833e-06
3.35079e-06
3.01694e-06
3.21681e-06
4.28394e-06
4.88793e-06
5.31988e-06
5.39437e-06
5.5256e-06
5.43605e-06
5.23383e-06
4.89455e-06
4.55617e-06
4.22854e-06
4.0248e-06
4.0208e-06
4.03004e-06
3.18129e-06
2.56712e-06
1.46896e-06
1.49924e-06
1.3879e-06
1.17973e-06
1.22782e-06
1.50322e-06
1.73784e-06
1.70435e-06
1.58662e-06
1.69661e-06
2.48274e-06
3.02396e-06
2.48032e-06
2.11049e-06
2.20254e-06
2.45019e-06
2.72402e-06
2.94856e-06
3.75588e-06
3.97355e-06
3.99342e-06
3.94963e-06
3.8013e-06
3.52808e-06
2.84575e-06
2.69695e-06
2.52257e-06
2.34563e-06
2.17763e-06
2.01413e-06
7.59754e-07
7.43384e-07
1.00284e-06
1.56665e-06
1.55951e-06
1.45617e-06
1.52561e-06
1.77487e-06
2.10776e-06
2.48166e-06
2.78752e-06
3.01069e-06
3.07892e-06
3.1498e-06
3.14913e-06
3.01314e-06
2.82673e-06
2.5896e-06
2.26439e-06
1.99796e-06
1.71211e-06
1.4751e-06
1.19796e-06
7.21875e-07
6.69449e-07
8.78285e-07
9.9574e-07
1.397e-06
5.45678e-07
4.45615e-07
1.07879e-07
1.08676e-07
8.94173e-08
6.76678e-08
6.49879e-08
6.47424e-08
6.36509e-08
8.09238e-08
9.32945e-08
8.81035e-08
9.02242e-08
1.05765e-07
1.28357e-07
1.51295e-07
1.62165e-07
1.71554e-07
1.68073e-07
1.71487e-07
1.78429e-07
1.73355e-07
1.72243e-07
1.70162e-07
1.64094e-07
1.65465e-07
1.64748e-07
1.48103e-07
1.39165e-07
1.31317e-07
1.24574e-07
1.3751e-07
2.63945e-07
8.78362e-08
4.68916e-08
3.77647e-08
3.5869e-08
5.13201e-08
9.07543e-08
1.05268e-07
1.79469e-07
2.86459e-07
3.10669e-07
3.11222e-07
3.14062e-07
3.04961e-07
2.92532e-07
2.61917e-07
2.38577e-07
2.16776e-07
2.08028e-07
2.15104e-07
2.33381e-07
2.45683e-07
2.60837e-07
2.87432e-07
3.0285e-07
3.13636e-07
3.27161e-07
6.33381e-07
1.57426e-06
3.04843e-06
9.27774e-08
5.99247e-08
8.57332e-08
9.40034e-08
9.61213e-08
9.91596e-08
8.44647e-08
7.0748e-08
5.96311e-08
5.13601e-08
4.57159e-08
4.57608e-08
4.23364e-08
4.16826e-08
4.04467e-08
4.2137e-08
4.68087e-08
4.88067e-08
5.65113e-08
6.36884e-08
7.10458e-08
6.02308e-08
7.22383e-08
9.43313e-08
1.3138e-07
1.38152e-07
1.67548e-07
1.88613e-07
1.70523e-07
1.58844e-07
1.54561e-07
1.72461e-07
3.12102e-07
4.23595e-07
5.01173e-07
1.04772e-06
1.72506e-06
2.21379e-06
3.16838e-06
3.6837e-06
4.03207e-06
4.09558e-06
4.03603e-06
3.71007e-06
3.15011e-06
2.2493e-06
1.74517e-06
1.2339e-06
8.0073e-07
4.51683e-07
1.96478e-07
1.04119e-07
7.48119e-08
9.16888e-08
1.13665e-07
1.22389e-07
1.28894e-07
1.16135e-07
1.26141e-07
5.54249e-08
2.32038e-07
1.48438e-07
1.44652e-07
1.86396e-07
2.83933e-07
3.45173e-07
6.31521e-07
1.04952e-06
1.46051e-06
1.78165e-06
1.94861e-06
2.45737e-06
2.59573e-06
2.57915e-06
2.40187e-06
1.89422e-06
1.61217e-06
1.29577e-06
9.00956e-07
6.43057e-07
3.5001e-07
1.71054e-07
8.12446e-08
7.91299e-08
9.38736e-08
7.33293e-08
5.65491e-08
4.77048e-08
4.9463e-08
4.13829e-08
7.29469e-08
7.31304e-08
7.43901e-08
1.20802e-07
1.98039e-07
7.27795e-07
1.34563e-06
2.42691e-06
3.34944e-06
3.77371e-06
3.74689e-06
3.34399e-06
2.56652e-06
1.47116e-06
8.95409e-07
2.85072e-07
2.48467e-07
2.14868e-07
8.55974e-08
4.17397e-08
2.49748e-08
2.42288e-08
2.22775e-08
1.56922e-08
1.85483e-08
1.7206e-08
1.73639e-08
1.69399e-08
1.75362e-08
1.6774e-08
3.84804e-08
3.82286e-08
4.07528e-08
4.40418e-08
4.02843e-08
3.95614e-08
3.79777e-08
5.1447e-08
4.87074e-08
5.54477e-08
5.99226e-08
4.96468e-08
5.20046e-08
3.41739e-08
3.30986e-08
3.8385e-08
3.47185e-08
2.99368e-08
2.5456e-08
2.74221e-08
3.13377e-08
3.98972e-08
4.82579e-08
9.72188e-08
1.29235e-07
1.11158e-07
5.55599e-08
4.09668e-08
3.42399e-08
3.1786e-08
2.38528e-09
5.7469e-09
1.50923e-08
3.49615e-09
1.73672e-09
7.95784e-10
1.13463e-09
1.29734e-09
1.65853e-09
2.79531e-09
3.82291e-09
5.599e-09
8.48423e-09
9.79657e-09
9.78666e-09
8.99672e-09
6.47449e-09
4.52264e-09
3.48116e-09
2.41214e-09
2.00293e-09
2.07712e-09
4.59556e-09
7.21945e-09
3.72526e-09
1.66954e-09
2.59107e-09
3.73556e-09
2.03933e-09
1.47138e-09
1.4578e-05
1.23414e-05
9.86842e-06
8.44813e-06
8.49277e-06
8.7604e-06
8.82531e-06
8.68359e-06
9.14201e-06
8.77722e-06
9.464e-06
1.02331e-05
1.08706e-05
9.39108e-06
1.06573e-05
1.11121e-05
1.08915e-05
1.08484e-05
1.13315e-05
1.18303e-05
1.18729e-05
1.18283e-05
1.17781e-05
1.1506e-05
1.01522e-05
8.78628e-06
8.78114e-06
1.00658e-05
9.9992e-06
9.8304e-06
1.03457e-05
1.14505e-05
1.24212e-05
1.2953e-05
1.30865e-05
1.29853e-05
1.23702e-05
1.17712e-05
1.14719e-05
1.18107e-05
1.19688e-05
1.15652e-05
1.03613e-05
9.64511e-06
2.75936e-06
1.62503e-06
1.27935e-06
1.07057e-06
1.03908e-06
1.46895e-06
2.86207e-06
4.99313e-06
6.15822e-06
6.64747e-06
6.93461e-06
4.47748e-06
2.95296e-06
3.12853e-06
4.21858e-06
5.13329e-06
5.52265e-06
5.67143e-06
5.67443e-06
5.60453e-06
5.58187e-06
5.57768e-06
5.36314e-06
4.91039e-06
4.49726e-06
4.26278e-06
4.17744e-06
4.09669e-06
3.1771e-06
2.52526e-06
1.44761e-06
1.49611e-06
1.36538e-06
1.16484e-06
1.2151e-06
1.51756e-06
1.78043e-06
1.76952e-06
1.58988e-06
1.74915e-06
2.64505e-06
3.07268e-06
2.31546e-06
2.09977e-06
2.40125e-06
2.72482e-06
3.57372e-06
4.02052e-06
4.29317e-06
4.49422e-06
4.58871e-06
4.51429e-06
4.2779e-06
4.00868e-06
3.61601e-06
2.86388e-06
2.64421e-06
2.43513e-06
2.23088e-06
2.03042e-06
7.57262e-07
7.53842e-07
1.34237e-06
1.67626e-06
1.48431e-06
1.48582e-06
1.63395e-06
1.96128e-06
2.36836e-06
2.80401e-06
3.03334e-06
3.2723e-06
3.23506e-06
3.33664e-06
3.25793e-06
3.25545e-06
3.12537e-06
2.84233e-06
2.58391e-06
2.20689e-06
1.85914e-06
1.60391e-06
1.28096e-06
7.46535e-07
6.9714e-07
6.81585e-07
1.02199e-06
1.03157e-06
4.13247e-07
3.36017e-07
1.04161e-07
1.07659e-07
9.13978e-08
8.59952e-08
6.82852e-08
6.72151e-08
8.21513e-08
9.60662e-08
9.35978e-08
8.92394e-08
9.72623e-08
1.09258e-07
1.36652e-07
1.62138e-07
1.64049e-07
1.61548e-07
1.71124e-07
1.75484e-07
1.61182e-07
1.6518e-07
1.73273e-07
1.70516e-07
1.64308e-07
1.68856e-07
1.66766e-07
1.57306e-07
1.4572e-07
1.36381e-07
1.27686e-07
1.36738e-07
2.67593e-07
9.25825e-08
4.87867e-08
3.73195e-08
3.56625e-08
2.7999e-08
9.17179e-08
1.07031e-07
1.63905e-07
2.83594e-07
3.09354e-07
4.72973e-07
3.10303e-07
2.97034e-07
2.90616e-07
2.63923e-07
2.36313e-07
2.06252e-07
1.90229e-07
1.90757e-07
2.18093e-07
2.46693e-07
2.55081e-07
2.84213e-07
2.94017e-07
3.08717e-07
3.28624e-07
6.0533e-07
1.5136e-06
2.86919e-06
6.48039e-08
6.41857e-08
7.44585e-08
8.681e-08
9.41748e-08
9.75237e-08
8.0293e-08
6.79416e-08
5.32579e-08
4.81373e-08
4.45917e-08
4.18373e-08