/*--------------------------------*- C++ -*----------------------------------*\
| =========                 |                                                 |
| \\      /  F ield         | OpenFOAM: The Open Source CFD Toolbox           |
|  \\    /   O peration     | Version:  2.1.1                                 |
|   \\  /    A nd           | Web:      www.OpenFOAM.org                      |
|    \\/     M anipulation  |                                                 |
\*---------------------------------------------------------------------------*/
FoamFile
{
    version     2.0;
    format      ascii;
    class       volScalarField;
    location    "0.007600000";
    object      k;
}
// * * * * * * * * * * * * * * * * * * * * * * * * * * * * * * * * * * * * * //

dimensions      [0 2 -2 0 0 0 0];

internalField   nonuniform List<scalar> 
12384
(
49.4456
86.6935
111.467
136.11
160.875
183.688
201.078
209.085
207.503
196.828
177.152
144.809
97.6539
45.2578
143.656
200.089
238.423
263.347
284.756
306.981
331.19
356.022
382.531
404.896
410.655
419.228
444.552
509.455
644.148
807.122
999.261
1196.35
1362.47
1466.23
1467.15
1379.13
1302.57
1220.06
1118.28
984.982
810.029
580.131
289.063
100.566
276.066
364.149
431.398
476.604
511.041
544.438
585.376
635.037
668.393
674.038
683.129
714.754
790.921
953.534
1217.34
1507.49
1830.39
2120.27
2369.63
2470.31
2449.86
2312.27
2154.31
1967.71
1751.1
1494.3
1180.56
796.99
360.575
195.896
337.918
507.461
750.053
982.42
1170.76
1330.56
1499.69
1713.7
1780.71
1689.11
1527.68
1360.89
1226.79
1150.76
1166.74
1297.66
1538.54
1844.75
2177.23
2476.56
2687.98
2804.19
2842.4
2783.1
2627.76
2381.52
2022.83
1492.14
774.1
396.193
555.12
786.263
936.433
1006.45
1049.53
1158.31
1468.4
1986.16
2643.92
3383.28
4128.28
4766.37
5194.57
5365.38
5219.43
5040.54
4791.82
4481.85
4074.37
3550.92
2889.7
2018.85
848.651
319.823
265.152
263.578
268.5
263.565
253.066
233.441
188.822
269.347
344.07
427.073
531.158
650
775.528
909.398
1042.69
1099.53
1095.04
1087.56
1112.16
1230.73
1492.07
1823.25
2198.54
2560.8
2846.19
2989.17
2937.18
2882.18
2791.11
2645.44
2425.71
2106.92
1666.42
1092.22
512.685
297.464
148.609
252.787
399.138
563.925
721.44
857.653
960.593
1020.7
1113.13
1337.08
1699.98
2153.33
2703.39
3307.53
3903.47
4388.37
4663.48
4632.33
4250.5
3943.97
3671.5
3387.41
3016.32
2493.92
1766.14
870.221
310.643
216.795
216.049
256.442
157.284
250.964
416.377
693.54
1173.74
1797.92
2548.64
3391.41
4249.59
5023.28
5612.83
5825.66
5648.94
5139.16
4737.16
4382.29
4003.97
3528.51
2907.76
2137.01
1226.91
516.746
321.679
281.217
273.963
274.711
264.271
244.483
231.849
231.632
418.804
883.14
1543.7
2400.88
3274.48
4197.09
5125.95
5983.54
6643.86
6929.39
6776.38
6030.71
5374.33
4784.19
4166.31
3434.56
2536.3
1527.5
696.915
409.297
336.224
324.61
330.111
331.722
312.558
275.654
231.534
194.724
165.903
149.139
269.941
529.859
966.292
1500.43
2188.4
3001.55
3928.53
4909.11
5821.64
6626.75
6914.9
7000.8
6262.86
5631.5
4995.18
4327.34
3595.92
2738.26
1774.87
966.009
563.165
415.529
380.381
382.97
378.121
342.202
303.398
276.997
266.704
269.609
873.411
1694.55
2344.36
3105.47
4246.68
5287.13
6123.25
6616.15
6576.02
5864.19
4970.13
4144.72
3342.37
2541.97
1798.11
1258.29
996.393
849.228
739.801
655.061
605.503
575.077
560.272
535.193
509.014
472.489
437.32
401.633
364.093
327.428
151.536
151.037
277.232
552.666
883.93
1176.75
1422.27
1606.4
1728.79
1760.23
1731.39
1626.62
1465.95
1262.95
1068.57
899.369
787.841
743.678
770.392
855.819
973.105
1077.06
1109.48
988.228
896.114
835.941
781.501
705.933
576.442
396.017
65.3226
89.3797
79.7958
60.3458
47.4843
81.3524
373.071
891.592
1355.8
1672.17
1939.75
2157.06
2342.66
2475.82
2565.52
2431.54
2206.56
1859.97
1496.06
1128.93
829.71
653.324
544.621
459.907
381.328
303.485
229.397
154.975
81.2691
24.0459
86.4486
59.9483
80.5397
113.34
150.771
189.583
224.534
248.722
258.615
250.643
223.84
181.504
129.614
109.254
152.238
203.726
331.831
501.98
675.644
808.764
873.111
853.759
754.026
622.7
513.593
457.529
474.693
613.183
888.038
1317.78
1900.75
2605.04
3363.55
4063.37
4573.44
4798.25
4690.12
4282.62
3627.07
2801.19
1924.41
1139.01
554.779
368.098
393.663
717.148
1118.49
1480.26
1723.43
1812.21
1734.59
1501.97
1216.01
959.659
781.636
720.536
820.991
1135.64
1641.43
2323.64
3171.16
4102.1
5025.97
5800.29
6284.01
6393.77
6143.31
5567.31
4748.57
3754.64
2674.53
1648.47
805.642
571.022
739.833
1789.63
3150.79
4296.57
5005.95
5265
5082.05
4468.27
3683.45
2874.15
2164.15
1615.47
1235.77
1038.78
1108.38
1494.63
2217.69
3225.67
4384.77
5500.03
6371.88
6822.24
6805.48
6320.75
5436.06
4297.87
3096.22
2018.76
1159.69
1117.6
427.918
504.711
458.203
429.862
544.375
978.95
1886.12
3330.08
5310.26
7763.2
10588.6
13551.9
16297.7
18444.7
19586.1
19525.6
18411.6
16406.7
13708.1
10539.8
7228.63
4315.1
2163.33
872.186
363.743
264.56
270.324
258.548
252.272
294.72
285.521
673.409
1231.41
1813.06
2269.18
2518.66
2539.46
2320.19
1934.27
1540.18
1234.24
1095.39
1211.46
1672.32
2501.31
3683.26
5184.94
6879.96
8561.9
9950.82
10790.3
10917.1
10352.6
9232.08
7730.51
6019.85
4259.51
2632.77
1327.89
743.947
319.159
835.731
1174.52
1364.56
1370.94
1223.8
1077.75
1028.26
1156.9
1579.54
2314.59
3400.99
4920.38
6907.96
9303.58
11928.5
14506
16691.3
18102.2
18368.5
17563.5
15908.4
13539.5
10677.2
7545.24
4477.82
2034.04
563.236
156.182
296.029
179.33
139.562
271.407
761.54
1645.63
2934.53
4678.73
6955.14
9745.16
12958.8
16340.9
19483.9
21875.4
23078.6
22877
21438.8
18936.6
15555.5
11509.2
7353.81
3908.58
1686.41
544.462
265.003
268.765
257.905
232.612
180.732
142.331
257.166
365.795
588.075
1394.36
2674.94
4393.02
6569.34
9204
12260.2
15534
18656.2
21166.9
22632.6
22645.6
21354.9
18932.2
15494.5
11264
6847.23
3231.43
1035.94
383.189
385.783
407.474
414.123
391.454
317.192
229.161
164.156
128.887
177.315
245.341
388.565
649.781
1273.12
2428.88
4213.24
6686.01
9778.48
13443.7
17442.9
21282.2
24347.6
26081
26030.3
24440.4
21514.9
17523.8
12840.4
8055.24
4026.87
1388.33
524.741
427.962
398.404
382.498
317.017
229.621
164.485
141.556
270.529
547.659
681.891
1334.67
3300.04
5901.32
8851.37
11977.3
15081.1
17767.5
19603.5
20206.8
19442.1
17253.7
13912.2
9908.05
6011.5
2844.28
1085.25
641.73
593.755
587.096
573.765
568.129
549.172
521.319
475.337
423.861
381.822
354.884
315.708
266.622
388.038
785.541
1325.08
2021.07
2810.98
3593.89
4255.53
4705.81
4859.7
4688.33
4199.82
3500.58
2723.65
2003.27
1428.87
1064.03
910.717
943.964
1146.73
1464.79
1887.71
2367.94
2842.01
3128.97
3087.21
2752.36
2125.52
1310.81
646.803
130.735
181.846
162.602
152.097
203.279
516.745
1097.67
1969.83
3036.34
4217.45
5363.08
6269.61
6810
6882.4
6496.35
5687.4
4672.68
3594.84
2596.34
1752.01
1079.84
650.01
463.118
444.053
498.866
536.307
505.506
405.615
253.551
55.6994
125.751
95.0375
127.188
171.591
215.332
252.904
281.328
297.109
300.2
288.947
262.43
222.873
174.421
154.671
167.574
241.464
357.541
487.984
586.721
628.871
615.844
568.828
514.489
500.725
543.404
643.206
824.481
1126.37
1573.53
2137.37
2751.94
3367.05
3950.51
4456.22
4807.65
4945.77
4863.81
4576.48
4094.55
3417.41
2581.49
1694.02
923.29
591.91
443.748
858.536
1105.42
1229.47
1225.93
1134.37
999.423
880.635
814.654
817.301
893.193
1085.26
1490.35
2104.48
2875.93
3702.57
4538.54
5328.94
6029.99
6582.29
6890.92
6918.47
6676.45
6207.33
5545.8
4694.55
3652.36
2494.44
1389.31
961.845
994.674
2571.22
3675.31
4203.32
4253.06
4042.3
3688.59
3272.82
2880.76
2550.59
2292.07
2059.28
1823.93
1729.89
1991.33
2709.2
3820.16
5134.5
6449.52
7590.38
8403.44
8765.71
8644.59
8086.83
7146.77
5906.26
4477.08
3058.02
1843.87
1712.73
383.387
415.851
321.561
404.122
861.419
1921.8
3634.93
5767.25
8078
10407.9
12734
15001
17089.9
18752.9
19666.3
19723.5
19038.1
17723
15869
13445.7
10435
7170.24
4238.41
2103.86
830.15
295.949
199.106
255.876
316.426
347.454
338.408
898.961
1385.5
1732.82
1848.13
1766.56
1577.41
1350.62
1189.46
1145.69
1252.52
1581.37
2210.97
3179.73
4415.17
5781.29
7216.53
8649.67
9994.99
11085.4
11745.4
11796.2
11272.6
10276
8938.68
7376.04
5655.09
3874.66
2230.48
1239.67
400.868
1080.45
1176.7
1129.29
1035.78
1001.09
1137
1411.47
1899.9
2679.25
3685.77
4865.41
6215.14
7756.13
9491.01
11376
13284.1
15001.5
16267.9
16802.8
16551.4
15641.2
14185.7
12258.4
9815.12
6909.7
3980.82
1632.04
408.83
309.666
225.678
188.141
515.513
1404.88
2769.01
4542.33
6613.78
8910.77
11350.9
13908
16483.1
18916.4
20924.5
22245
22550.9
21958.6
20603.8
18504.3
15516.7
11662.6
7541.87
4066.26
1768.72
579.155
186.689
190.399
246.842
221.106
160.781
278.056
655.269
1091.51
2399.05
4398.37
6746.69
9170.42
11544.6
13879.4
16184.6
18351.5
20176.2
21415.2
21768.4
21304.1
20146.1
18229.5
15269.7
11241.1
6893.53
3294.75
1114.68
338.543
300.522
438.985
543.418
498.426
369.139
253.055
185.848
210.09
267.491
503.521
981.815
2191.8
4285.31
7062.31
10223.9
13441.1
16671.4
19782.9
22726.8
24992.5
26346.5
26380.6
25327.2
23292.9
20419.1
16654.2
12137.8
7466.41
3516.32
1123.9
379.299
338.358
462.168
438.054
315.937
214.701
166.489
290.434
472.664
920.709
3148.63
6925.1
11076.3
14938.1
18280.6
21153.5
23526.4
25232.2
25845
25313.5
23604.2
20636.4
16472.1
11634.4
6851.51
3019.15
1102.12
652.866
613.452
605.101
597.828
557.085
483.255
373.184
277.302
250.43
303.384
323.395
502.669
716.62
1280.45
2001.43
2815.31
3638.11
4390.73
5014.86
5435.01
5612.43
5502.71
5126.71
4522.19
3784.99
3018.83
2322.23
1793.75
1491.14
1401.8
1448.24
1528.07
1601.22
1707.04
1914.86
2196.86
2419.82
2505.52
2298.26
1706.93
779.285
174.717
207.641
125.966
166.795
484.229
1121.54
2071.7
3278.56
4597.07
5873.65
6944.72
7727.67
8168.72
8263.58
7982.93
7388.58
6567.11
5579.98
4473.86
3279.81
2110.22
1143.03
535.696
263.578
185.652
185.305
218.063
232.709
194.43
35.719
153.91
142.465
189.495
245.54
292.099
321.893
335.418
338.203
333.575
321.511
301.6
274.679
240.657
199.31
190.236
307.048
391.077
466.642
493.059
464.899
409.193
362.567
366.894
462.547
652.353
919.684
1268.36
1738.07
2366.5
3027.6
3580.7
3976.57
4243.39
4431.58
4573.72
4640.44
4581.52
4419.03
4145.73
3714.89
3070.48
2235.06
1365.81
798.794
477.288
1029.04
1067.25
958.518
779.451
614.394
521.738
539.736
673.267
901.147
1209.9
1647.07
2327.93
3227.48
4172.17
4969.82
5561.97
5976.23
6259.99
6468.25
6586.43
6550.4
6373.35
6081.54
5681.37
5122.56
4320.71
3244.9
2017.99
1302.37
1176.38
3420.15
3985.19
3786.38
3255.05
2737.22
2365.81
2212.93
2273.95
2466.52
2673.13
2735.85
2610.97
2641.88
3209.86
4388.27
5864.61
7272.86
8420.96
9258.15
9750.75
9878.78
9641.92
9106.24
8274.54
7146.37
5741.48
4184.17
2690.72
2231.9
410.546
429.705
294.301
531.012
1453.57
3222.51
5648.46
8103
10191.8
11779.4
13024.7
14074.6
15043.5
15956.5
16695.7
17027.6
16993.8
16616.1
15884.3
14686.6
12711.1
9881.41
6647.85
3752.57
1717.85
637.68
216.153
234.985
348.772
384.457
378.99
1139.14
1438.18
1503.8
1339.73
1073.93
837.909
718.775
776.349
1050.05
1570.02
2332.58
3412.06
4776.53
6177.86
7392.77
8386.82
9197.34
9894
10487.2
10936
11033
10762.5
10145.9
9239.14
8095.5
6712.39
5078.36
3306.52
1679.99
469.959
1385.62
1175.5
903.257
772.996
896.736
1318.44
1897.67
2692.39
3782.43
5012.99
6205.08
7255.45
8177.85
9032.37
9912.27
10863.6
11859.1
12779.8
13418
13683
13565.8
13077.4
12222.4
10782
8547.22
5686.16
2817.85
893.651
351.333
275.288
275.889
859.632
2111.15
3911.42
6106.74
8364.49
10416.3
12126.6
13578.3
14905.2
16219.8
17476.5
18620.2
19337.2
19593
19426.5
18773.5
17338.6
14723.4
10989
6939.22
3594.09
1488.05
448.092
181.687
265.668
257.358
179.021
290.703
1249.43
1766.82
3568.48
6140.56
8804.67
11024.5
12646
13801.8
14720
15597.5
16476.3
17323.4
17959.2
18313
18443.9
18193.6
17078.3
14483.6
10509.1
6231.46
2870.77
979.541
416.212
549.036
737.344
703.323
524.138
365.713
283.391
253.859
365.667
655.122
1481.7
3390.12
6356.7
9826.06
13094.6
15700
17720.3
19288.4
20695.7
21838.8
22820
23130.3
22839.3
21999.3
20563.2
18357.4
15015.5
10649.3
6094.27
2518.08
718.174
397.538
558.52
542.545
385.529
260.598
205.232
316.409
783.893
2259.87
6171.06
11412.6
16201.5
19698.2
21950.2
23426.1
24546.4
25513.9
26087.7
26089.5
25443.3
23741.7
20681.1
16223.2
10913.7
5715.72
2146.48
864.099
688.538
713.647
747.23
736.203
654.79
500.126
329.035
242.518
308.454
349.945
754.95
1022.8
1729.87
2549.02
3360.6
4090.07
4703.9
5207.93
5569.18
5791
5801.3
5620.48
5252.34
4719.04
4042.36
3307.48
2629.82
2164.02
1938.52
1858.8
1735.98
1470.92
1167.92
1051.59
1231.41
1617.6
2072.89
2348.07
2144.09
863.39
203.139
216.237
145.656
360.071
926.51
1868.66
3147.9
4561.24
5859.78
6885.17
7572.42
7981.24
8177.3
8232.49
8115.16
7923.7
7578.59
7035.23
6171.11
4896.15
3347.76
1870.05
844.287
317.629
127.314
66.8767
84.1217
126.269
138.124
16.0379
173.212
201.496
266.65
329.916
367.178
374.138
361.044
345.812
335.674
331.721
331.305
332.422
326.92
243.291
215.795
389.543
433.937
457.396
428.033
352.761
272.818
234.098
282.045
467.407
799.835
1226.48
1723.91
2360.48
3159.14
3855.98
4240.81
4285.46
4123.49
3919.49
3796.26
3773.92
3809.85
3871.37
3886.58
3768.55
3403.08
2734.32
1863.78
982.599
492.703
1228.75
1069.66
771.512
478.6
294.268
264.758
395.496
697.097
1114.21
1597.3
2221.46
3165.01
4300.14
5286.49
5834.2
5974.74
5847.34
5619.93
5430.09
5334.14
5299.18
5308.87
5334.05
5311.11
5149.5
4711.28
3870.02
2659.02
1588.6
1288.91
4406.16
4339.08
3440.34
2417.71
1664.64
1295.34
1381.28
1863.58
2532.79
3140.32
3446.19
3425.11
3678.36
4739.63
6439.9
8034.29
9070.91
9540.26
9669.67
9670.25
9586.7
9369.84
9048.38
8554.13
7783.85
6665.16
5229.9
3648.61
2704.19
492.401
486.042
317.718
770.305
2216.05
4637.63
7525.25
9891.2
11311.2
11785.5
11711.3
11420.4
11221.3
11290.8
11703.2
12342.3
13075.1
13781.2
14324.3
14481.8
13806.1
11876.2
8822.49
5464.94
2716.9
1107.04
378.625
230.393
350.565
416.797
401.667
1403.99
1495
1322.92
980.709
642.45
428.042
400.061
608.493
1151.06
1980.56
3058.86
4473.26
6069.06
7393.01
8189.84
8490.77
8458.31
8317.33
8271.68
8430.26
8668.04
8874.11
8926.08
8734.73
8267.04
7467.72
6239.68
4570.45
2047.78
527.329
1759.79
1229.76
740.501
590.729
858.722
1526.84
2342.94
3368.05
4711.5
6154.38
7353.9
8090.15
8376.88
8296.95
8071.27
7942.59
8063.09
8483.11
9184.18
9943.46
10618.9
11090.8
11262.1
10843.5
9454.78
6983.97
3905.75
1443.89
415.744
338.688
388.449
1213.57
2775.68
4987.13
7570.97
9916.66
11547.4
12280.3
12359.9
12215.9
12205.4
12526.7
13273.5
14286.7
15363.2
16367.2
17119.9
17245
16158.3
13418.5
9495.41
5546.51
2635
964.478
312.198
291.08
280.925
193.537
303.988
1975.2
2454.95
4628.95
7539.71
10217.3
11941.6
12595
12437.3
11934.7
11523.5
11446.4
11824.8
12683
13806
15108.4
16363.9
17043.5
16194
13242.6
8951.05
4843.78
2050.23
844.362
744.743
920.144
856.642
625.153
449.175
396.152
301.116
585.183
851.615
2082.19
4618.7
8239.61
12024
14914.6
16420.3
16792.6
16556.5
16240.6
16134.9
16515.5
17231.6
17993.3
18593.6
18860.4
18397.6
16602.5
13081.7
8446.48
4092.29
1358.17
560.934
622.661
577.665
395.185
269.109
236.85
341.921
2024.24
4456.32
9701.26
15545.3
19780.9
21813.6
22216.6
21749.7
21240.4
21268.2
21905
22682
23327.8
23265.2
21976.8
18809.3
13965.7
8181.99
3338.01
1199.28
858.86
934.432
1047.08
1100.17
1045.86
861.233
589.168
353.845
329.66
376.027
938.304
1286.77
2079.24
2904.12
3614.97
4153.1
4528.9
4792.62
4980.5
5133.94
5239.93
5302.08
5330.68
5213.1
4835.61
4204.72
3433.91
2784.65
2400.52
2215.02
1979.89
1502.13
872.927
493.805
575.961
1041.32
1750.36
2435.83
2626.41
898.779
223.697
223.606
223.443
571.082
1330.65
2553.49
4059.01
5493.21
6541.19
7093.12
7203.63
7071.71
6867.92
6767.24
6810.96
7046.15
7368.27
7541.21
7261.5
6259.29
4567.75
2644.9
1212.59
449.563
158.514
53.3875
43.0124
72.7138
96.79
6.15764
182.655
270.218
349.126
406.139
418.036
390.428
346.831
314.123
302.538
317.204
352.216
396.794
430.621
283.702
237.77
473.625
480.881
459.301
388.875
284.515
191.914
157.69
231.136
489.489
942.37
1491.6
2114.63
2904.99
3845.16
4499.13
4605.53
4211.02
3589.65
3006.77
2632.75
2547.29
2732.81
3084.04
3443.28
3678.34
3625.37
3188.87
2377.9
1116.37
467.276
1405.21
1107.16
678.128
323.57
150.385
177.132
399.918
818.632
1330.38
1899.11
2667.05
3863.91
5176.38
6051.35
6185.09
5767.85
5077.69
4370.97
3843.03
3568.99
3590.32
3866.63
4279.04
4699.35
4982.94
4956.29
4410.22
3272.29
1771.43
1308.03
5416.81
4761.23
3268.22
1864.99
962.865
609.704
852.456
1647.06
2659.29
3548.27
4022.66
4126.87
4740
6459.42
8540.79
9780.44
9900.18
9277.4
8442.48
7821.02
7542.81
7573.77
7774.48
7945.03
7815.16
7229.59
6150.45
4646.67
3065.59
606.158
566.879
386.687
1097.36
3030.12
5958.54
9066.52
11087.5
11684.6
11034.9
9753.35
8339.11
7172.8
6515.33
6522.98
7265.81
8609.25
10266.6
11972.7
13373.1
13934.9
13013.4
10410.1
6864.37
3585.06
1510.84
548.573
262.323
340.835
450.14
405.169
1633.1
1552.59
1220.26
789.203
443.047
274.465
304.52
603.628
1294.07
2281.79
3529.69
5159.77
6844.11
7934.03
8223.67
7808.57
6949.26
5995.9
5305.61
5096.9
5465.65
6204.65
7032.93
7698.72
8056.61
7992
7348.97
5964.71
2293.82
549.674
2146.86
1340.44
635.641
453.933
825.363
1675.12
2635.39
3815.6
5350.53
6995.66
8260.14
8784.38
8567.24
7669.08
6423.55
5257.68
4529.19
4439.64
5112.12
6276.53
7616.24
8901.33
9942.88
10424.3
9856.13
7890.08
4793.51
1944.34
461.687
440.725
502.626
1510.85
3335.88
5928.39
8872.18
11269.8
12444.6
12188.6
10930
9388.95
8106.48
7497.74
7718.75
8860.22
10541.5
12478.5
14379.4
15826.7
16165.9
14602
11254.3
7158.51
3708.25
1506.75
506.392
328.478
289.465
206.98
324.472
2556.52
2994.42
5421.07
8498.03
11067.7
12256.3
12022
10716.1
8991.53
7459.71
6549.02
6508.36
7483.3
9187.81
11359
13739.4
15809.7
16503.6
14715.2
10843.5
6428.26
3030.62
1308.59
952.082
1031.97
896.562
620.485
482.951
522.09
333.516
970.429
1083.4
2675.84
5674.98
9733.59
13557.3
15770.2
16006.2
14713
12877.4
11093.4
10002.6
9899.68
10838.8
12517.6
14428.7
16215.6
17401.4
17145.8
14646.4
10216.5
5367.2
1940.26
723.876
623.927
530.135
344.107
251.334
268.875
366.942
3876.43
7052.43
12825.6
18137
20928.3
21184.8
19732.8
17579.3
15667
14713.6
15106.4
16589.2
18666.8
20403.3
21059.4
19614.6
15816.1
10018.3
4380.25
1638.96
1156.74
1267.83
1461.32
1598.39
1602.53
1416.54
1058.11
646.941
408.641
406.902
1030.79
1482.67
2316.41
3100.81
3660.24
3936.1
3978.23
3872.12
3738.72
3701.51
3875.17
4244.04
4745.15
5167.35
5263.97
4888.74
4109.37
3248.81
2666.66
2380.75
2114.33
1606.22
897.888
375.029
359.535
789.834
1606.33
2550.64
3030.63
875.046
246.574
232.907
284.694
705.381
1605.94
3038.07
4669.4
6011.89
6706.46
6698.93
6166.88
5406.91
4730.48
4447.17
4659.51
5343.04
6316.61
7229.86
7671.28
7175.51
5611.33
3381.3
1545.73
572.632
204.5
68.7458
37.9023
52.4849
72.6315
2.6236
185.664
342.786
424.775
460.485
434.04
365.33
292.246
244.944
238.816
284.988
372.12
472.888
544.412
313.608
256.974
539.989
528.312
475.898
376.542
253.934
153.917
122.05
209.237
512.772
1037.49
1659.81
2365.74
3285.58
4325.58
4870.08
4652.36
3840.37
2848.28
1990.22
1448.12
1344.64
1698.66
2331.08
3019.62
3582.8
3817.49
3606.56
2844.39
1149.34
439.928
1511.76
1142.54
660.747
305.573
166.833
238.62
509.043
943.243
1440.99
2020.97
2914.02
4363.02
5792.83
6440.93
6122.22
5192.5
4049.08
3001.12
2244.53
1872.27
1998.15
2555.28
3348.19
4196.12
4888.88
5228.66
4918.3
3767.47
1779.72
1204.6
6265.64
5173.35
3258.91
1606.82
647.503
345.631
670.815
1599
2749.43
3777.55
4336.91
4598.42
5690.89
8124.42
10262.3
10697
9609.6
7818.54
6105.73
4948.48
4546.45
4962.02
5871.73
6893.21
7553.77
7612.18
6986.69
5570.78
3176.81
725.376
664.938
507.306
1513.35
3820.06
7109.25
10303.1
11950.9
11854.4
10347.2
8229.13
6073.24
4255.78
3078.6
2682.18
3352.58
5011.88
7255.93
9777.85
12075.8
13574.8
13475.1
11318.5
7713.91
4083.63
1706.68
603.398
268.52
334.627
493.597
394.974
1771.28
1576.46
1164.33
723.954
414.04
288.916
351.356
677.572
1367.58
2342.53
3634.5
5389.76
7091.75
7944.32
7844.75
6933.02
5486
3935.01
2748.66
2203.8
2604.3
3728.51
5191.64
6604.37
7721.86
8379.52
8350.64
7325.24
2335.67
539.075
2478.11
1496.03
585.085
345.331
769.413
1703.28
2718.55
3973.11
5642.7
7448.6
8851.82
9364.63
8911.47
7487.84
5506.27
3519.64
2075.33
1569.88
2224.49
3600
5309.24
7128.91
8774.65
9924.02
9991.58
8463.57
5395.04
2291.72
473.033
588.45
629.216
1743.47
3745.34
6641.87
9896.29
12387.9
13246.5
12229.2
9947.66
7322.38
5003.88
3591.62
3306.8
4424.89
6396.73
8867.32
11501
13859.4
15284.2
14741.6
12114.5
8189
4477.03
1899.56
642.2
350.002
286.642
235.685
399.042
2878.72
3287.95
5910.89
9102.88
11619
12449.9
11603
9493.62
6881.57
4482.51
2915.98
2594.95
3653.09
5637.36
8225.37
11249.2
14149.8
15883.6
15007.1
11701.3
7245.93
3552.89
1569.57
1056.63
1019.18
796.467
526.247
524.088
689.045
346.44
1427.23
1302.88
3173.33
6467.67
10806.4
14534.3
16037.4
15183.8
12622.6
9597.23
6745
4883.63
4414.98
5689.93
7991.65
10821.5
13752.4
16164.7
17129.3
15472.2
11262.9
6088.58
2233.65
773.656
554.237
445.49
321.661
294.355
343.119
427.228
4962.33
9244.06
14609.7
18730.4
20048.3
18952.9
16101
12586.4
9540.23
7901.65
8285.9
10462.6
13608.1
16839.8
19203.2
19412.9
16735.3
11173
5203.78
2214.52
1624.66
1678.25
1856.52
2023.14
2067.22
1915.17
1557.02
1063.49
637.611
496.696
1021.09
1587.97
2456.67
3239.06
3688.39
3708.83
3397.49
2869.98
2359.58
2103.47
2294.31
2904.39
3812.56
4738.72
5348.86
5325.36
4615.66
3537.04
2699.23
2300.43
2053.05
1655.58
1084.06
610.345
499.432
798.447
1563.34
2590.34
3243.77
817.32
278.771
241.358
298.901
727.221
1684.94
3254.41
5008.45
6292.69
6687.31
6210
5124.09
3781.29
2689.17
2239.21
2603.46
3634.08
5097.2
6587.82
7642.55
7668.52
6385.29
4031.63
1840.41
660.771
232.644
88.3735
47.3341
52.5336
65.6855
1.91848
182.622
402.494
476.245
484.913
418.326
312.689
216.976
162.855
170.263
258.53
407.392
561.266
644.719
330.117
278.623
578.656
568.139
501.013
385.537
253.195
149.72
117.311
208.223
519.957
1051.69
1687
2433.02
3450.77
4544.19
4958.24
4459.56
3370.8
2189.35
1214.95
601.808
522.009
1023.27
1863.91
2802.96
3611.7
4039.96
3958.74
3180.02
1089.34
434.565
1516.56
1129.43
675.698
386.18
304.923
393.832
634.646
988.736
1400.33
1958.19
2976.68
4674.24
6168.96
6587.06
5913.23
4643.66
3239.53
2011.95
1144.11
711.923
944.659
1768.49
2903.05
4122.09
5116.74
5656.65
5367.22
4047.06
1709.91
1008.14
6849.13
5487.58
3350.18
1596.21
651.962
414.877
764.354
1629.59
2716.73
3739.96
4319.79
4747.07
6383.44
9459.64
11357
10868.5
8748.45
6150.01
3921.21
2474.67
2036.84
2739.87
4324.79
6139.97
7501.33
8085.26
7771.26
6268.21
3028.02
867.597
839.607
734.991
2074.45
4655.98
8110.58
11336.3
12789.2
12309.8
10352.1
7817.86
5312.94
3142.2
1612.93
809.721
1289.5
3034.48
5528.89
8483.23
11263.6
13250.1
13567.4
11638.3
7949.12
4115.57
1643.32
532.316
259.517
363.766
548.911
405.449
1795.26
1535.34
1125.16
740.61
492.169
402.565
468.489
747.46
1313.62
2149.06
3396.5
5220.33
6917.82
7677.06
7459.84
6413.09
4776.38
2963.59
1489.38
669.099
979.631
2235.28
4006.41
5863.79
7503.01
8688.21
9115.66
8444.64
2137.02
541.233
2645.64
1701.1
631.931
279.891
682.318
1595.57
2583.64
3828.98
5540.56
7466.11
9063.77
9760.64
9390.19
7869.88
5635.81
3257.27
1379.07
570.935
1062.12
2338.35
4100.42
6132.83
8089.55
9598.35
9996.73
8710.35
5618.05
2405.05
474.821
791.432
795.303
1929.63
3993.95
7017.93
10474.1
13146.1
13974.8
12622.4
9827.54
6632.93
3677.54
1656.36
911.535
1872.58
3774.3
6328.91
9254.79
12075
14091.3
14214.6
12211.1
8567.67
4803.5
2047.03
680.621
353.663
318.868
346.64
627.977
2902.36
3464.2
6219.21
9490.76
12045.7
12814.2
11744.2
9304.07
6285.47
3403.01
1397.37
904.941
1834.05
3728.16
6349.54
9571.68
12779.5
14861.9
14372.3
11450
7114.54
3424.93
1465.64
961.428
867.772
638.392
499.195
660.804
886.239
398.423
1770.43
1507.91
3547.72
6957.42
11413.7
15004.4
16037.6
14527.4
11298.7
7699.83
4297.65
2019.49
1421.43
2762.02
5271.54
8543.33
12121.9
15267.6
16936.7
15750.7
11621.1
6198.65
2189.83
691.713
478.33
453.362
459.17
489.84
542.39
670.72
5394.83
10192.2
14618.8
17696.5
18237.2
16483.8
12876.9
8502.43
4751.09
2892.13
3550.29
6168.72
9916.5
14028.4
17540
18915.6
17085.5
11792.1
5918.33
2982.57
2220.37
2037.6
2019.95
2078.86
2108.25
2035.03
1809.48
1425.14
986.772
659.094
950.733
1588.82
2492.56
3367.56
3860.68
3796.36
3265.6
2375.88
1462.95
1024.03
1203.76
1947.43
3074.56
4319.35
5313.6
5601.98
4991.47
3702.79
2552.38
2010.23
1789.83
1558.33
1217.24
892.291
766.089
949.221
1559.61
2491.04
3201.99
782.012
340.218
283.369
298.342
678.475
1620.1
3255.33
5150.28
6526.72
6836.17
6146.25
4725.75
2956.33
1483.64
896.568
1405.84
2667.35
4409.86
6197.28
7591.5
7955.45
6923.33
4585.05
2135.97
740.644
247.453
103.384
65.5946
70.6715
80.7456
6.66682
177.304
436.914
499.025
482.869
383.685
254.041
151.719
106.14
136.426
270.272
470.521
648.563
718.238
619.528
431.993
409.149
483.84
596.77
602.219
542.004
427.197
291.653
183.083
145.832
231.802
516.003
992.727
1570.68
2300.78
3370.28
4497.16
4831.84
4185.04
3024.69
1854.4
913.663
324.033
304.791
904.998
1856.93
2913.94
3812.17
4271.41
4152.98
3278.04
1899.91
591.861
486.324
1007.4
1367.88
1007.72
641.288
444.804
420.511
513.166
690.182
928.528
1234.65
1772.28
2943.06
4843.85
6350.37
6639.97
5836.88
4485.75
3047.96
1784.89
871.041
429.425
794.026
1829.43
3213.64
4646.55
5733.01
6192.97
5612.2
3992.5
2238.65
947.348
826.59
3133.08
6855.2
5434.7
3372.74
1738.92
882.51
682.552
972.159
1640.96
2529.43
3431.06
3971.69
4563.17
6744.54
10266.9
11864.2
10755.7
8169.64
5332.3
2976.97
1440.34
1015.59
2005.78
4167.54
6428.86
8037.17
8683.32
8203
6371.38
3964.56
1123.26
1575.51
2751.54
1411.41
1397.92
2817.08
5467.88
8983.54
12218
13696.6
13209.9
11314.9
8836.43
6340.75
4028.97
2309.62
1277.01
1598.16
3193.38
5624.2
8563.75
11321.6
13233
13461.7
11437.7
7660.95
3823.21
1451.77
467.577
357.459
484.751
517.182
551.356
552.06
1130.38
1654.68
1377.11
1043.51
761.614
589.873
529.598
574.599
757.056
1134.62
1769.76
2940.27
4807.26
6495.14
7327.08
7305.85
6523.57
5149.89
3477.8
1966.2
1012.58
1158.33
2205.27
3829.43
5691.91
7463.99
8847.76
9427.98
8920.68
4677.18
1009.01
721.925
1898.03
2705.92
1850
736.183
293.317
589.523
1386.85
2269.78
3414.73
5050.74
7003.55
8814.34
9875.42
9832.07
8634.19
6672.13
4444.04
2561.14
1526.13
1579.85
2529.24
4079.05
6000.54
7938.74
9440.01
9826.79
8533.3
5404.3
2334.16
979.974
862.425
973.706
824.398
981.637
2016.37
4015.47
6991.12
10490.1
13364
14450.7
13299.6
10639
7454.2
4384.18
2095.82
934.146
1411.93
2941.74
5257.47
8074.32
10935.7
13058.6
13401.1
11736.4
8334.41
4636.77
1851.24
560.282
407.685
532.566
789.826
1259.7
1580.32
1962.22
2155.5
3808.45
6459
9656.32
12268.2
13259.2
12382.1
10194.9
7379.57
4590.64
2466.1
1569.37
2086.19
3647.53
6003.37
9003.63
11952.1
13806.2
13235.8
10330.8
6116.63
2672.08
1046.08
711.762
658.788
574.983
668.716
989.962
1286.58
1404.95
1529.75
1565.81
1158.73
1787.88
3777.37
7067.59
11444.6
14946.8
15963.1
14368.2
11159.1
7586.56
4147.69
1876.55
1121.03
2274.08
4660.58
7972.9
11678.6
15007
16693.8
15547.9
11249.7
5724.23
1883.92
617.402
534.537
643.224
743.045
771.582
757.836
786.761
1407.15
1980.55
5253.74
9235.16
13121.2
15890
16467.1
14728.4
11131.5
6748.55
3063.65
1528.66
2228.57
4686.67
8408.7
12819.9
16731.4
18518.4
16911.8
11800.6
6472.69
3811.98
2786.05
2192.9
1807.98
1656.86
1666.07
1737.07
1751.52
1639.19
1349.57
984.679
615.179
630.906
1141.81
1664.4
2551.77
3559.38
4265.52
4365.39
3900.74
2925.74
1758.04
1047.35
1113.23
1852.08
2998.21
4300.42
5418.73
5859.32
5299.53
3842.04
2356.44
1628.42
1404.63
1304.57
1166.25
1000.05
904.191
997.058
1399.16
2118.17
2821.56
1843.95
617.999
451.895
527.585
508.333
442.515
704.799
1570.02
3177.53
5192.51
6812.5
7326.43
6765.22
5368.29
3521.39
1869.4
1098.79
1644.58
2985.73
4719.71
6455.55
7816.56
8249.22
7289.65
5006.58
2411.08
820.936
258.284
116.666
93.6552
107.228
115.495
66.646
18.6847
3.14191
171.22
436.69
494.366
464.958
353.196
218.803
121.614
94.0822
156.645
322.044
533.557
695.265
719.865
574.684
224.088
201.341
418.632
545.026
583.271
548.704
458.502
341.028
240.065
200.959
271.977
496.304
863.802
1326.52
2000.17
3086.03
4231.71
4552.55
3942.8
2943.65
1978.73
1215.7
771.475
842.036
1418.19
2315.86
3295.79
4086.09
4411.35
4099.37
3036.97
1587.33
268.213
291.968
1090.85
1090.82
793.738
536.065
431.089
447.9
534.272
652.488
791.493
1006.19
1533.56
2847.59
4887.05
6442.86
6799.97
6159.01
5010.4
3751.99
2596.19
1730.94
1411.97
1893.97
2984.45
4416.32
5827.74
6741.95
6813.78
5677.54
3690.49
1882.51
462.677
903.892
4874.32
6090.04
4865.33
3174.76
1846.05
1137.79
959.783
1137.84
1582.28
2225.22
2931.88
3368.79
4095.41
6754.95
10481.2
11927
10821.1
8548.94
6105.27
4032.32
2680.57
2643.85
3956.29
5948.35
7858.72
9035.95
9169.22
8094.95
5833.73
3278
1735.69
3251.7
3964.49
1856.22
1851
3293.04
5879.45
9369.79
12755.6
14628.7
14623
13251.1
11205.8
9043.21
6869.13
5234.98
4255.56
4499.13
5728.39
7692.67
10091.5
12269.9
13562.5
13211.9
10813.4
7029.12
3474.54
1377.56
603.198
561.228
667.151
644.273
543.271
590.352
1338.34
1280.54
1049.47
851.466
706.395
625.449
599.559
620.705
703.284
900.313
1338.83
2459.59
4256.74
5935.47
7021.7
7477.06
7273.89
6468.32
5257.38
4009.28
3134.02
2963.56
3519.26
4618.86
6034.34
7474.38
8617.83
9065.78
8451.75
5679.8
767.274
591.264
2084.02
2634.78
1932.43
857.713
346.381
525.998
1133.92
1843.36
2802.44
4248.9
6096.62
8034.52
9520.26
10058.1
9522.28
8183.97
6460.54
4841.49
3745.94
3445.02
3982.21
5124.34
6632.6
8181.26
9287.11
9335.6
7815.85
4760.29
2097.5
1122.63
609.93
622.923
687.902
853.667
1787.07
3603
6358.11
9768.08
12898.2
14551.6
14103.5
12104.6
9409.04
6674.3
4457.82
3113.65
3050.58
4072.25
5866.03
8183.16
10553.7
12270.9
12473.1
10900.6
7714.97
4169.25
1557.58
539.902
451.211
545.041
670.042
777.34
874.292
1186.1
2039.32
3690.82
6158
9240.51
12051.9
13593.3
13416.5
11945.3
9746.78
7411.5
5447.95
4312.25
4367.04
5451.53
7273.14
9605.43
11749.2
12805.9
11748.2
8751.39
4684.47
1668.75
670.135
568.249
611.004
704.578
965.24
1293.81
1457.27
1305.34
889.97
872.103
963.52
1812.85
3684.98
6696.36
10790.3
14293.2
15687.3
14655.6
12106.6
9084.18
6076.87
4020.07
3157.66
4024.49
6070.83
9012.49
12288.7
15113.8
16248.5
14733.4
10260.3
4937.97
1583.98
639.705
612.592
728.277
784
743.584
673.529
677.685
1005.66
1464.41
4128.63
7611.52
11166.1
14016.2
14979.3
13887.1