/*--------------------------------*- C++ -*----------------------------------*\
| =========                 |                                                 |
| \\      /  F ield         | OpenFOAM: The Open Source CFD Toolbox           |
|  \\    /   O peration     | Version:  2.1.1                                 |
|   \\  /    A nd           | Web:      www.OpenFOAM.org                      |
|    \\/     M anipulation  |                                                 |
\*---------------------------------------------------------------------------*/
FoamFile
{
    version     2.0;
    format      ascii;
    class       volScalarField;
    location    "0.007600000";
    object      OH;
}
// * * * * * * * * * * * * * * * * * * * * * * * * * * * * * * * * * * * * * //

dimensions      [0 0 0 0 0 0 0];

internalField   nonuniform List<scalar> 
12384
(
0.00978093
0.00960998
0.00940033
0.00921127
0.00908892
0.00901076
0.00899545
0.00904406
0.00914356
0.00929153
0.00944158
0.0095724
0.0097393
0.00990692
0.005286
0.00556154
0.00555851
0.00570961
0.00609859
0.00652222
0.00662576
0.00665795
0.00658758
0.00657373
0.00650595
0.00649388
0.00647943
0.00645852
0.00644659
0.00643729
0.00644635
0.00637531
0.00633929
0.00632084
0.00631959
0.00633336
0.00634539
0.0063593
0.00636678
0.00636179
0.00623149
0.00598454
0.00563602
0.0044773
0.00417402
0.00343769
0.00345107
0.00369598
0.00389528
0.00407417
0.00423897
0.00439531
0.00451682
0.00462549
0.00470555
0.00477181
0.00482453
0.00484926
0.00486436
0.00480747
0.00477
0.00470447
0.00467475
0.00462126
0.00462718
0.00461234
0.00462703
0.00463397
0.00464439
0.00464006
0.00454075
0.0041608
0.00436871
0.00463091
0.00315396
0.00308107
0.00325072
0.00328719
0.00329478
0.00332957
0.003355
0.0034101
0.00345505
0.0035115
0.00353079
0.00355631
0.00357358
0.00357096
0.00356635
0.00355379
0.00352471
0.00350973
0.00349075
0.00347954
0.00346906
0.0034601
0.00344695
0.0034705
0.00344586
0.00346266
0.00347725
0.00345588
0.00348121
0.00348945
0.00281921
0.00271678
0.00263864
0.00262351
0.00260065
0.00260217
0.00262514
0.00268879
0.00266648
0.00270527
0.00262785
0.00269274
0.00257427
0.00263786
0.00256777
0.00262952
0.00264047
0.00265212
0.0026963
0.00271197
0.00268306
0.00256261
0.0024517
0.00231443
0.00226185
0.00227024
0.00229134
0.00229906
0.00230727
0.00230393
0.00112365
0.00117937
0.00115236
0.00113305
0.00108032
0.00108265
0.00109118
0.00109506
0.00109383
0.00110382
0.0011174
0.00113035
0.00114424
0.00115687
0.0011678
0.00117374
0.00117681
0.00117537
0.00116758
0.00117301
0.00116906
0.00116084
0.00116554
0.00116775
0.00117737
0.00119296
0.00121719
0.0012634
0.0013761
0.00143336
0.00159917
0.00165377
0.00154981
0.0013142
0.00117475
0.00112329
0.00109486
0.00112153
0.00121355
0.00125701
0.00131199
0.00133964
0.00136249
0.00139393
0.00143228
0.00142023
0.00144625
0.00141618
0.00144249
0.00145468
0.00151562
0.00154971
0.00160967
0.0016669
0.00173201
0.00186439
0.00341083
0.00371276
0.0036349
0.00353767
0.00125985
0.00109741
0.00098609
0.000921983
0.000914364
0.000935403
0.000954879
0.000965507
0.000961943
0.00094164
0.000965133
0.000945235
0.000915249
0.000900537
0.000888874
0.00090696
0.00088273
0.000911514
0.000946515
0.000978881
0.00114414
0.00133736
0.00134365
0.00134135
0.00134792
0.00134787
0.00133421
0.00132271
0.00132189
0.00134056
0.00184494
0.001901
0.00192725
0.00192713
0.00192748
0.00193093
0.00194532
0.00198599
0.00192246
0.0019746
0.00194257
0.00196541
0.00198726
0.00200177
0.00205147
0.00212978
0.0021781
0.00198956
0.00084678
0.000830975
0.00086389
0.000814813
0.000777954
0.000856032
0.000831618
0.000850062
0.000841293
0.000752958
0.000737472
0.000586558
0.00153218
0.00160229
0.00162132
0.00158278
0.00154179
0.00152252
0.00150813
0.00150698
0.00150341
0.00153052
0.00154983
0.00152108
0.00156936
0.00159382
0.0016485
0.0017363
0.00177183
0.00185635
0.00186704
0.00119119
0.000966357
0.00094402
0.00094098
0.000953126
0.000959499
0.000916692
0.000917272
0.000858723
0.000855443
0.000800108
0.00106012
0.00105533
0.000928421
0.00100952
0.001021
0.00103326
0.00103702
0.00094532
0.000931647
0.00100642
0.0010071
0.0010525
0.00116313
0.0011914
0.00124183
0.000870235
0.000545709
0.000499796
0.000505495
0.000519998
0.000515991
0.000508801
0.000503855
0.000497486
0.000494045
0.000497915
0.000486095
0.000491762
0.000496816
0.000489382
0.000630211
0.00064998
0.000664273
0.00063726
0.00069264
0.00068451
0.000669667
0.000654952
0.000662101
0.000659033
0.000619252
0.000613221
0.000563625
0.00055863
0.000549072
0.000550067
0.000505738
0.000506445
0.000468605
0.000479197
0.00051043
0.000513863
0.000525059
0.000533121
0.000544216
0.000555599
0.000568703
0.000586528
0.000580417
0.000593756
0.000385009
0.000399667
0.00041092
0.000419885
0.000395234
0.000382597
0.000317798
0.000191808
0.0001414
0.000134167
0.000132231
0.000133458
0.000131542
0.000135329
0.000134038
0.000141252
0.000139899
0.000131522
0.000131708
0.000139545
0.000141351
0.000143293
0.000154679
0.000152056
0.000153391
0.000158091
0.000146375
0.000159161
0.000208033
0.000217448
0.00935157
0.00894181
0.00835805
0.0080548
0.0080085
0.00806036
0.00816791
0.00827405
0.00836939
0.00857081
0.008795
0.00922239
0.00954326
0.0098615
0.00532165
0.00553843
0.00558582
0.0059531
0.00665991
0.00699234
0.00697857
0.00674186
0.00652278
0.00641973
0.00635778
0.00640257
0.00634243
0.00630691
0.00629549
0.00614025
0.00606284
0.00603957
0.00604837
0.00606039
0.00606503
0.00609129
0.00614304
0.00620027
0.00626452
0.00631191
0.00629603
0.00615568
0.00590761
0.00534778
0.00406704
0.00340758
0.00349738
0.00380446
0.00413031
0.0044847
0.0048689
0.00521067
0.00542009
0.00552851
0.0055725
0.00557208
0.00551818
0.00539612
0.0052394
0.00508821
0.00494567
0.00483705
0.00471229
0.00465962
0.00461782
0.00462396
0.00463896
0.0046588
0.00467469
0.00468763
0.0046626
0.00441163
0.00415034
0.00413724
0.00312867
0.00313104
0.00323831
0.00322239
0.00321524
0.00320615
0.0032452
0.00333604
0.00343477
0.00354981
0.00368984
0.00380254
0.0038525
0.00383822
0.00377879
0.00371005
0.0036655
0.00363275
0.00359808
0.00360827
0.00359964
0.00360845
0.00360225
0.00358518
0.00356358
0.00356634
0.00352533
0.00350425
0.00349664
0.00350307
0.00282718
0.0027329
0.00266546
0.00262417
0.00261824
0.0027228
0.00282878
0.00286097
0.00291551
0.00299272
0.0029258
0.00291799
0.0029277
0.00289492
0.00290993
0.00291471
0.0028876
0.00286684
0.00282777
0.00278698
0.00277777
0.0026914
0.00255746
0.00238866
0.0022744
0.00232335
0.0024665
0.00250684
0.00239335
0.0022814
0.00114861
0.00117893
0.00114136
0.00107189
0.0010719
0.00104856
0.00103165
0.00100607
0.00105067
0.00103851
0.00105013
0.00107469
0.00110353
0.00110009
0.00114665
0.00119209
0.00122451
0.00124892
0.00126649
0.00126612
0.00125295
0.00124741
0.00123971
0.00122815
0.00121605
0.00121159
0.0012196
0.00124787
0.00132481
0.00142468
0.00160732
0.00155991
0.00117937
0.00109956
0.00102417
0.00102987
0.00107041
0.00112278
0.00104582
0.00128019
0.00139403
0.00148211
0.00157869
0.00159804
0.00161195
0.00158003
0.00157215
0.00157618
0.00159433
0.00156683
0.00156871
0.00158326
0.00162937
0.0016574
0.00169054
0.00178973
0.00242102
0.00342092
0.00365993
0.00347846
0.0012936
0.00110311
0.000929595
0.00098384
0.000965531
0.00103542
0.00107335
0.00107355
0.0010967
0.00105583
0.00101688
0.000978956
0.000991553
0.000972522
0.000981386
0.000938192
0.000945649
0.000957513
0.000916632
0.000951372
0.00104137
0.00124435
0.00136104
0.00139258
0.00141731
0.00142763
0.00141701
0.00138216
0.00132509
0.00128969
0.00184763
0.00184746
0.00183847
0.00182731
0.00186568
0.00193833
0.00204831
0.00205995
0.00213168
0.00220121
0.00214327
0.00219464
0.00221583
0.00219245
0.0021885
0.00215745
0.00218792
0.00215211
0.00145218
0.000785808
0.000811811
0.000810131
0.000808182
0.000766477
0.000855654
0.000952003
0.00102225
0.00101861
0.000845622
0.000632234
0.00152223
0.00161074
0.00158476
0.001453
0.00139099
0.00139387
0.00143427
0.00150286
0.00160777
0.00164785
0.00167601
0.00172467
0.00174911
0.00177733
0.00179016
0.00177584
0.0018041
0.00185443
0.00189162
0.00163885
0.00116601
0.000950694
0.000969876
0.000971016
0.000986861
0.000950437
0.000911275
0.000891777
0.000856116
0.000819365
0.00102964
0.00100507
0.000967657
0.000965423
0.000978074
0.000951548
0.00100544
0.00104413
0.00110195
0.00107439
0.00110074
0.00106671
0.00109109
0.00117876
0.00121615
0.00109415
0.000909072
0.000559476
0.000532152
0.000511775
0.000442219
0.000473325
0.000455988
0.000486293
0.000476714
0.000474509
0.000481963
0.000487025
0.000495302
0.000496471
0.000648311
0.000656696
0.000675054
0.000652834
0.000698353
0.000685978
0.000672752
0.000651324
0.000648557
0.000620434
0.000608288
0.000613485
0.000590064
0.000548723
0.000512348
0.000520145
0.000472951
0.000470737
0.000430481
0.000454229
0.000518286
0.000552407
0.000584519
0.000586735
0.000580197
0.000570803
0.000571701
0.000584109
0.000582768
0.000589693
0.000309677
0.000376981
0.000441685
0.000437072
0.000407481
0.000326374
0.000238507
0.000149809
0.000136286
0.000136663
0.00013852
0.000142185
0.000147811
0.000151755
0.000141751
0.000149315
0.000150668
0.000156724
0.000161244
0.000181321
0.000193527
0.000197057
0.000189047
0.000176274
0.00016455
0.000144617
0.000146415
0.000158476
0.000208118
0.000224276
0.00866769
0.00792386
0.00761282
0.00772636
0.00798273
0.00822673
0.00848863
0.00864117
0.00871146
0.00866717
0.00860494
0.00876706
0.00925294
0.00977509
0.00535969
0.00553485
0.00560243
0.00614313
0.00697043
0.00735275
0.0070957
0.00685407
0.00667187
0.00660398
0.00647004
0.00637408
0.00630554
0.00623933
0.00608501
0.0059625
0.00595609
0.00600187
0.0060652
0.00612891
0.00616681
0.00619066
0.00621968
0.00623963
0.00625882
0.00629257
0.00629794
0.00622944
0.00604139
0.00563023
0.00398258
0.00335891
0.00347181
0.00380592
0.00422137
0.00470052
0.0052444
0.00558182
0.0058152
0.00592848
0.00594525
0.00590987
0.00573434
0.00543833
0.0051501
0.00492018
0.00469887
0.00462934
0.00454344
0.00454738
0.00455004
0.00453194
0.00455715
0.00461529
0.00466736
0.00470261
0.00472568
0.00461552
0.00429593
0.00404887
0.00310902
0.00314753
0.00317933
0.00309931
0.00302082
0.00303375
0.00306614
0.003198
0.00330229
0.00348029
0.00375822
0.00398626
0.00402762
0.00392941
0.00377732
0.00368355
0.00364518
0.00363638
0.00364726
0.00367561
0.00368337
0.00372743
0.00371387
0.00370905
0.0037164
0.00366805
0.00360688
0.00358264
0.00352849
0.00352395
0.00283298
0.00276441
0.00270347
0.0026377
0.00276763
0.00294338
0.00307404
0.00309615
0.00315587
0.00323578
0.00315943
0.00326768
0.00328674
0.00321877
0.00323809
0.00324807
0.0032052
0.00316329
0.00308931
0.00300087
0.00288697
0.00278693
0.00265069
0.00250131
0.00239886
0.00246658
0.00286582
0.00298623
0.002751
0.00244564
0.00114676
0.00116714
0.0010847
0.00105455
0.00105314
0.00101628
0.00099919
0.00101394
0.00102134
0.00100788
0.00101725
0.00103913
0.00109449
0.0011375
0.00123187
0.0013131
0.00134309
0.00139095
0.00140311
0.00139398
0.00138879
0.00137059
0.00133036
0.00132893
0.0012966
0.00126532
0.00124182
0.0012429
0.00129227
0.00139359
0.00158888
0.00134323
0.00109811
0.000878975
0.000898678
0.000975986
0.001063
0.00116903
0.00124195
0.00142888
0.00160376
0.00168439
0.00170034
0.00171463
0.00168359
0.00167284
0.0016558
0.00163196
0.00162398
0.00160873
0.00163869
0.00162796
0.00165605
0.00166215
0.00169601
0.00173072
0.00188713
0.00274336
0.00354126
0.00353679
0.00119657
0.00109636
0.000965699
0.000976754
0.00108376
0.00111825
0.00110023
0.00110786
0.00105563
0.00100149
0.000959704
0.000897813
0.000931601
0.000931763
0.000924693
0.000899009
0.000925729
0.000949719
0.000965865
0.000916399
0.000962253
0.00107439
0.00126526
0.00138924
0.00136399
0.00139667
0.0013702
0.00133986
0.00140688
0.00128469
0.0018457
0.00177207
0.00171988
0.00176074
0.00188878
0.00209228
0.00219501
0.0023098
0.00246846
0.00256808
0.0026645
0.00272555
0.002704
0.00265069
0.00250955
0.00235021
0.00226297
0.00225246
0.00193911
0.00117974
0.000826739
0.000760095
0.000749773
0.000795906
0.000851908
0.000976233
0.00105901
0.00110122
0.00103431
0.000749104
0.0015235
0.00160224
0.00147103
0.00125501
0.00126072
0.00143103
0.00156954
0.00175059
0.001847
0.00193295
0.0019656
0.00208542
0.00213455
0.00213464
0.0020645
0.00197847
0.00194206
0.00190606
0.0019247
0.0018295
0.00130837
0.00102245
0.000949863
0.000981669
0.00105091
0.000994633
0.000916533
0.000852955
0.000852907
0.00080392
0.000952501
0.000911483
0.000932636
0.000972826
0.000953825
0.00106199
0.00118196
0.00133291
0.00139489
0.00148218
0.00143675
0.00136126
0.00132537
0.00124094
0.0012386
0.00128448
0.0011724
0.000939329
0.000636742
0.000537818
0.000443611
0.000452997
0.000491343
0.000473064
0.000462106
0.000469655
0.000477168
0.000491941
0.000498622
0.000492707
0.000645601
0.000645092
0.000659166
0.000708048
0.000709716
0.000702117
0.000669305
0.000669763
0.000679926
0.000668439
0.000672429
0.000675981
0.000644966
0.000616032
0.000589003
0.000552258
0.000520997
0.000492963
0.000496109
0.000525104
0.000598262
0.000655518
0.000715669
0.000741567
0.000736683
0.000679624
0.000619949
0.000596167
0.000586992
0.000588641
0.000240086
0.000372864
0.000497318
0.000424631
0.000319004
0.000220623
0.000168147
0.000140009
0.000138698
0.000145583
0.000155812
0.00014459
0.000159395
0.000174918
0.00017664
0.00017785
0.000175596
0.000168188
0.000173244
0.00018906
0.000197088
0.000235182
0.00025677
0.000239624
0.00022816
0.000200701
0.000167896
0.000174437
0.000202046
0.000228825
0.00759342
0.00737345
0.0076778
0.00804154
0.00824834
0.00825418
0.00828389
0.00850275
0.00885115
0.00906282
0.00887995
0.00870035
0.00905477
0.0097068
0.00536175
0.00551361
0.00554565
0.00611628
0.00709401
0.00752876
0.00741061
0.00731839
0.00725974
0.00716312
0.00690193
0.00655608
0.00631543
0.00620796
0.00595331
0.00592061
0.00600858
0.00614292
0.00628104
0.00637147
0.00643412
0.00645642
0.00644741
0.00642102
0.00636813
0.0063347
0.00632623
0.00626325
0.00612176
0.00577391
0.00395301
0.00333174
0.00338578
0.00361525
0.00395918
0.00437705
0.00491184
0.00549255
0.00582978
0.00597187
0.00599887
0.00589599
0.0055346
0.00512587
0.00475581
0.00460332
0.00458943
0.00460854
0.0047051
0.00474439
0.00472113
0.00472422
0.00465998
0.00462375
0.00465525
0.00470956
0.00480952
0.00472997
0.00445599
0.00407221
0.0030995
0.00314036
0.0031045
0.00297223
0.00290218
0.00299002
0.00305645
0.00314662
0.0032348
0.00339326
0.00383215
0.00416954
0.00409511
0.0038769
0.00370262
0.00365936
0.00367813
0.00373823
0.00383216
0.003905
0.0039474
0.00393371
0.00393672
0.00390754
0.00386708
0.00378479
0.0037395
0.0036751
0.00357457
0.00355507
0.00284165
0.00279437
0.00272485
0.00272191
0.00299829
0.00317497
0.00322523
0.0032389
0.00337105
0.00344248
0.00352108
0.0037459
0.00368855
0.0037707
0.00375757
0.00368502
0.00359731
0.00348725
0.00336279
0.00323338
0.00307534
0.002909
0.00276157
0.00261608
0.00247872
0.00253199
0.00280603
0.00305118
0.00277574
0.00247435
0.00116672
0.00116179
0.00107361
0.00105096
0.000987106
0.000959697
0.00100627
0.000985642
0.00104617
0.00102609
0.00102287
0.00105993
0.00114989
0.00124339
0.00133064
0.00142868
0.00146645
0.00149929
0.00150581
0.0015184
0.00152022
0.0014794
0.00144838
0.0014213
0.00135986
0.00133414
0.00128764
0.0012599
0.00128118
0.00137269
0.00155902
0.00119819
0.00093247
0.00073762
0.000813093
0.000929592
0.00109381
0.00109436
0.00128847
0.00151704
0.0016874
0.00172389
0.00173471
0.00171873
0.00168794
0.00170857
0.00162301
0.00162356
0.00160998
0.00162265
0.00163417
0.00165701
0.00166269
0.00167534
0.0016951
0.001734
0.00179215
0.00226669
0.00330875
0.00354886
0.00115162
0.000864483
0.000924828
0.00108999
0.0011355
0.00111702
0.00111676
0.00105282
0.000991288
0.000937138
0.000876849
0.000812578
0.000801251
0.000825404
0.000829106
0.00086493
0.000867246
0.000915117
0.000954199
0.00096064
0.000932749
0.000988148
0.00111161
0.00129775
0.00132192
0.00141987
0.00137609
0.00140213
0.00140496
0.00132256
0.00178289
0.00159441
0.00163043
0.00180763
0.0020584
0.00221868
0.00242065
0.00277892
0.00305367
0.00320242
0.00340994
0.00339416
0.00335499
0.00324621
0.00306689
0.00282395
0.00250829
0.00232205
0.0021997
0.00151034
0.00100384
0.000783559
0.000747705
0.00074326
0.000942214
0.00106648
0.00115524
0.0011789
0.00112649
0.000842977
0.0016056
0.00153643
0.00134036
0.00138263
0.00139986
0.00158097
0.00179355
0.00196703
0.00212536
0.00233034
0.00254693
0.00266434
0.00269598
0.00268987
0.00259057
0.00243699
0.00225566
0.00204494
0.00196243
0.00193914
0.00163351
0.0011746
0.000943601
0.000973517
0.00109485
0.00102274
0.000938366
0.000837839
0.00080735
0.000807683
0.000926465
0.000902238
0.000945443
0.000989366
0.00101435
0.00124023
0.00144507
0.00167154
0.00201187
0.00211726
0.00212069
0.00194715
0.00161481
0.00150663
0.00135809
0.00130512
0.00134429
0.00110975
0.000883191
0.000603959
0.000465377
0.000442837
0.000495435
0.00048198
0.000480292
0.000485737
0.000491753
0.000493494
0.000504559
0.000477198
0.000663822
0.000662283
0.000671069
0.00068258
0.00068802
0.000709095
0.000732293
0.000716714
0.000733245
0.000748942
0.000731567
0.000711942
0.000723132
0.000665299
0.000645469
0.000623522
0.000582856
0.000534849
0.000523167
0.000540944
0.000624333
0.000700225
0.000774096
0.000873456
0.000913572
0.000784151
0.000698258
0.000626113
0.00059533
0.0005888
0.000226553
0.000379983
0.000492352
0.000324967
0.000248714
0.000178879
0.000135734
0.000141498
0.000149966
0.000156288
0.000172618
0.000201708
0.000223307
0.000224691
0.000232914
0.000224793
0.00021467
0.000185672
0.000184595
0.00017783
0.000206417
0.000237464
0.00029541
0.000290213
0.000277325
0.000274576
0.000225635
0.000220927
0.000275611
0.000227788
0.00710625
0.00753892
0.00797899
0.00800984
0.00782521
0.00768096
0.00762176
0.00772786
0.00811499
0.00876168
0.00903282
0.00882893
0.00891828
0.00955312
0.00535923
0.00551178
0.00546837
0.00589744
0.00692007
0.00758184
0.00773194
0.0077262
0.0077138
0.00762132
0.00726956
0.00677977
0.00630937
0.00611107
0.00590297
0.00598382
0.00614916
0.00637286
0.00656888
0.00672148
0.00681578
0.00682839
0.00676377
0.00666211
0.00656566
0.00646352
0.00639904
0.00632543
0.00615981
0.00583684
0.00397597
0.00327033
0.00321872
0.00325759
0.00336975
0.00364838
0.00434416
0.00527232
0.00571695
0.00593571
0.00598042
0.00570271
0.00517291
0.00468987
0.00451781
0.00465938
0.00485322
0.00502056
0.00508134
0.00510113
0.00509838
0.00503003
0.00497264
0.00487102
0.0047887
0.00478848
0.00482751
0.00483187
0.00455333
0.00409668
0.0030897
0.00310396
0.00303656
0.00288276
0.00286043
0.00304305
0.00319046
0.0031839
0.00320738
0.00333308
0.0038998
0.00435739
0.00408315
0.00374662
0.00366805
0.00373453
0.00385895
0.00403272
0.00414163
0.00420706
0.00426316
0.00427667
0.00422215
0.00415265
0.00403417
0.00394842
0.00387536
0.00376058
0.00366366
0.00358098
0.00285664
0.00281035
0.00274504
0.00301619
0.00320825
0.00327024
0.00330253
0.00337882
0.00357676
0.00377447
0.0040195
0.00422591
0.00426298
0.00437301
0.0043015
0.00425124
0.00408308
0.0038784
0.00364549
0.00346327
0.00328701
0.00308125
0.00284027
0.00271049
0.00259078
0.00254589
0.00271185
0.00304776
0.00256443
0.00232006
0.00114467
0.00115752
0.00106053
0.000979254
0.000969747
0.000960443
0.000957239
0.0010059
0.00107548
0.00104738
0.00104429
0.00110293
0.00119841
0.00132089
0.00145019
0.00150418
0.00150424
0.00152891
0.00156776
0.00155463
0.00153531
0.00157121
0.0015226
0.00151721
0.00143901
0.00138598
0.00133817
0.00128348
0.00127656
0.0013606
0.00157893
0.00111581
0.000840175
0.000767042
0.000766719
0.00086711
0.00107485
0.0010869
0.00131114
0.00162023
0.00171321
0.0017355
0.00172898
0.00171901
0.00170031
0.00161745
0.00158611
0.0015927
0.00157433
0.00156565
0.0015872
0.0016109
0.00161372
0.00164784
0.00170031
0.00172404
0.00178888
0.00201503
0.00301868
0.00350438
0.00122093
0.000918082
0.00104272
0.0011328
0.00113381
0.00114559
0.00107915
0.00100323
0.000945085
0.000879742
0.00088204
0.000861287
0.000836165
0.000828973
0.00083549
0.000853566
0.000888303
0.000854342
0.000913401
0.000962393
0.000971419
0.000953511
0.00104268
0.00117564
0.00137827
0.00141108
0.00139609
0.00141025
0.00147871
0.00139578
0.00150404
0.00154355
0.00164756
0.00199124
0.00218273
0.00233173
0.00284351
0.00326136
0.00362913
0.00384635
0.00406084
0.00409265
0.00405599
0.00384943
0.00360107
0.00328446
0.00288592
0.00250573
0.00232504
0.00192303
0.00126448
0.000866116
0.000804409
0.000861702
0.00106161
0.00117514
0.00124504
0.00127143
0.0012292
0.000874578
0.00158612
0.00140775
0.00139045
0.00127775
0.00152631
0.00175624
0.00191263
0.00215689
0.00245392
0.00276498
0.00298913
0.00309336
0.00315507
0.00313484
0.00306094
0.00287602
0.00265833
0.00234725
0.00207264
0.00196437
0.00176357
0.00119149
0.000973032
0.000981654
0.00109986
0.00100098
0.000910485
0.000842876
0.000773683
0.000774521
0.000861515
0.000931214
0.000956759
0.000935313
0.0011916
0.00145587
0.00194646
0.00247309
0.00283923
0.00309348
0.00307247
0.0028633
0.00255357
0.00205517
0.00164387
0.0014434
0.00142365
0.00128772
0.00103656
0.000698028
0.000498418
0.000467399
0.000453165
0.000487571
0.000474083
0.000483569
0.000490827
0.000514779
0.00050929
0.000492542
0.000663205
0.000664663
0.000684126
0.000697446
0.000726273
0.0007176
0.000723934
0.000765406
0.000761854
0.00076784
0.000772021
0.000750336
0.00074368
0.000730011
0.000691766
0.000663902
0.000604718
0.000587468
0.000544037
0.00054005
0.000610717
0.000697409
0.000725592
0.000968816
0.00104426
0.000940607
0.000761265
0.000658058
0.000607589
0.000589348
0.000205039
0.000311906
0.000410811
0.000272603
0.000193701
0.000146839
0.000142133
0.000148726
0.000158185
0.0001839
0.0002251
0.000258086
0.000263337
0.000290155
0.000296798
0.000274416
0.000282664
0.000240329
0.00021734
0.000184298
0.000188864
0.000220644
0.000302976
0.000298703
0.000246405
0.000256379
0.00028027
0.000281985
0.000275962
0.000203664
0.00739845
0.0078806
0.00786439
0.00769009
0.00759145
0.0075556
0.0074469
0.00733811
0.00751792
0.00822962
0.00898049
0.00902401
0.00892272
0.00947422
0.0053485
0.00550569
0.00536297
0.00559641
0.0063612
0.00727136
0.00763561
0.0077522
0.00770047
0.00751506
0.00732096
0.00680342
0.00628036
0.00599782
0.00591818
0.00608542
0.0063492
0.00664484
0.00696362
0.00722166
0.00732734
0.00725909
0.00713504
0.00696532
0.0067971
0.00660297
0.00649925
0.00636081
0.00619012
0.00586222
0.00407821
0.00324722
0.00307085
0.00295916
0.00284508
0.00308638
0.00408341
0.00521552
0.00569509
0.00592347
0.00592748
0.00537984
0.00474878
0.00447759
0.00465662
0.00499859
0.00517374
0.00532943
0.00530665
0.00538535
0.00533314
0.0052427
0.00513309
0.00503726
0.00492931
0.00483952
0.00483226
0.00486177
0.00461196
0.00409277
0.00307577
0.00309018
0.00299874
0.00283144
0.00287467
0.00310384
0.00330951
0.00328264
0.00318878
0.00330328
0.00400045
0.00447129
0.00400056
0.00365655
0.00371371
0.00391772
0.00414619
0.00433373
0.00446721
0.00453665
0.00452322
0.00452197
0.00450546
0.00444332
0.00425762
0.00412134
0.00398576
0.00384718
0.00372037
0.00359866
0.00285632
0.00281551
0.00281119
0.00325636
0.00330241
0.00327848
0.00335172
0.00357238
0.00385842
0.00417676
0.00443716
0.0046257
0.0046951
0.00474955
0.0047501
0.00463361
0.00445836
0.00424505
0.003945
0.00370666
0.00345385
0.00322452
0.00299281
0.00280228
0.00267605
0.0026001
0.0026918
0.00300467
0.00238284
0.00212759
0.00117758
0.00118196
0.00108262
0.000990193
0.000975204
0.000973567
0.000968084
0.00103489
0.00108833
0.0010578
0.00106976
0.00116061
0.00129573
0.00142315
0.00148408
0.00153134
0.0015268
0.00155811
0.00159112
0.00157381
0.00157076
0.00156153
0.00153391
0.00152093
0.00150381
0.00142089
0.0013644
0.00131524
0.00127829
0.0013489
0.00155934
0.00107994
0.000807226
0.000746596
0.000726427
0.000809568
0.00106656
0.00116021
0.00131593
0.00164029
0.00172175
0.00172663
0.00173591
0.00170893
0.0016711
0.00158859
0.00154079
0.00148236
0.00145902
0.00147763
0.00152648
0.00155941
0.00158347
0.00165661
0.00169644
0.00172763
0.00177015
0.00191977
0.00284739
0.00344716
0.00109159
0.00097141
0.001073
0.00111676
0.00112895
0.00112736
0.00104717
0.000972255
0.000911489
0.000898748
0.000843286
0.000841361
0.000805962
0.000798856
0.000789572
0.000807281
0.000853027
0.000875022
0.000895667
0.000935066
0.000971992
0.000940816
0.00100167
0.00111632
0.00130507
0.00131972
0.00139411
0.00145008
0.00145383
0.00145511
0.00143052
0.0015249
0.00179699
0.00205667
0.00225702
0.00260777
0.00321361
0.00365144
0.00413159
0.00425069
0.00435789
0.00434818
0.00434609
0.00424617
0.00408271
0.00368459
0.00321822
0.00274809
0.00239354
0.00213668
0.00147903
0.00114904
0.000974497
0.00107609
0.0012075
0.00126034
0.00130062
0.0012173
0.00128206
0.000887857
0.00152132
0.00140106
0.00138144
0.00140001
0.00164368
0.00182211
0.00199445
0.00239784
0.00279242
0.00312093
0.00328476
0.00339875
0.00343957
0.00345502
0.00339305
0.00322942
0.00293854
0.00261892
0.00224535
0.00200689
0.00183829
0.00132111
0.00100151
0.000989128
0.00108562
0.000954345
0.000828102
0.000769764
0.000780104
0.000752223
0.000951199
0.000951318
0.000963344
0.00105786
0.00134872
0.00190498
0.00261916
0.00318626
0.0035294
0.00368308
0.00366174
0.00352645
0.00329582
0.00276216
0.00214681
0.0016483
0.0015194
0.00140621
0.00102977
0.000711608
0.000542655
0.000538373
0.000522616
0.000467605
0.000501529
0.000481421
0.000481904
0.00047582
0.000483408
0.000472143
0.000659466
0.00067345
0.000693544
0.000717329
0.000710725
0.000729927
0.000750093
0.000829771
0.000845552
0.000884983
0.000909131
0.000854931
0.000838133
0.000735322
0.000697336
0.000684994
0.000642046
0.000591394
0.000540102
0.000544793
0.000583196
0.000669367
0.000751744
0.000914399
0.00105052
0.00097475
0.000738925
0.000681606
0.000614588
0.000590424
0.000192345
0.00028685
0.000447746
0.000239771
0.000173386
0.000127737
0.000147258
0.000150329
0.000174313
0.00022612
0.000273428
0.000318917
0.000392848
0.000429603
0.000428857
0.000405377
0.000344458
0.000299558
0.000256168
0.000208842
0.000189693
0.000189923
0.000273891
0.000329159
0.000244171
0.000167201
0.000215143
0.000241697
0.000196621
0.000155411
0.00791087
0.00792198
0.00768576
0.00777551
0.00817608
0.00843154
0.0081857
0.00768903
0.00746151
0.00787467
0.00882975
0.00902698
0.00893275
0.00941101
0.00533869
0.0055121
0.00535281
0.00530612
0.0057003
0.00643199
0.0068996
0.00702821
0.00689022
0.00697076
0.00713553
0.00673193
0.00622295
0.0058983
0.0059439
0.00619991
0.00655905
0.00698224
0.007428
0.00778543
0.00796453
0.00788416
0.00754377
0.00726992
0.00697769
0.00679883
0.00656236
0.00640851
0.00621851
0.00586895
0.0042332
0.0032843
0.00299904
0.00283116
0.00281338
0.00320936
0.00436605
0.00536903
0.00576699
0.00591828
0.00575435
0.00500511
0.00442512
0.00456286
0.00497361
0.00529278
0.00537316
0.00541664
0.0054087
0.00536699
0.00535324
0.00537917
0.00529877
0.00513141
0.00498841
0.00492722
0.00489593
0.0048707
0.00460551
0.00406342
0.00305489
0.003088
0.00297701
0.00281769
0.00285792
0.00311325
0.00334036
0.00333674
0.00319485
0.00333733
0.00413394
0.0045173
0.00385066
0.00363661
0.00388301
0.00414735
0.00444059
0.00456163
0.00462432
0.00470195
0.00475238
0.00472392
0.00463168
0.00458783
0.00448148
0.00425445
0.00408112
0.00391771
0.00376102
0.00360928
0.0028507
0.00283686
0.00307856
0.00337269
0.00328892
0.00331873
0.00345218
0.00373647
0.00408273
0.00445382
0.00464948
0.004867
0.00483881
0.00494762
0.00487438
0.00486448
0.00474531
0.00447248
0.00424242
0.00389526
0.00357941
0.00336482
0.00309867
0.00286013
0.0027413
0.00270135
0.00273162
0.00268997
0.00204013
0.00184185
0.00115715
0.00117744
0.00109456
0.00106128
0.000991788
0.000986108
0.00104082
0.0011047
0.00109109
0.00106456
0.00111061
0.00119087
0.00134777
0.00147944
0.00149419
0.001495
0.00154133
0.0015777
0.00154618
0.00156575
0.00159835
0.00158636
0.00155906
0.00155301
0.00152486
0.00146709
0.00139956
0.00134357
0.00129528
0.00134532
0.0015716
0.00109584
0.000819879
0.000741521
0.000722431
0.000697444
0.00107226
0.00117053
0.00127009
0.00163192
0.00171919
0.00170507
0.00172531
0.00168528
0.00166509
0.00159287
0.00151373
0.00145245
0.00140905
0.00141101
0.00148486
0.00156171
0.0015672
0.00164761
0.00167394
0.00171368
0.0017747
0.0018902
0.00278512
0.00338439
0.000964114
0.000960017
0.00101412
0.00107947
0.00111967
0.00111917
0.00102551
0.000957205
0.000878249
0.000867361
0.000830999
0.000802038
0.000750327
0.0007429
0.00075756
0.000779822
0.000825511
0.000862394
0.000857666
0.000916538
0.000979089
0.00094044
0.000996433
0.00108189
0.00123881
0.00140687
0.00146193
0.00138835
0.00148522
0.00149848
0.00136769
0.00147389
0.00189013
0.00206825
0.00229401
0.00280907
0.00344086
0.00390688
0.00428428
0.00435964
0.00452249
0.0044942
0.0044966
0.00443315
0.00428191
0.00395263
0.00345032
0.00296779
0.00253705
0.00226116
0.00178507
0.00136992
0.00122604
0.00130245
0.00132505
0.00131608
0.00122263
0.00128021
0.00131043
0.000911316
0.00139101
0.00141921
0.00141533
0.00142489
0.00167626
0.00188506
0.00213067
0.00264323
0.00302034
0.00333353
0.00346343
0.00351802
0.00356516
0.00352601
0.0034978
0.00341867
0.00316276
0.00280572
0.00244181
0.00208439
0.00187264
0.00135886
0.00101614
0.00104768
0.00107918
0.000901051
0.000754932
0.000747376
0.000752796
0.000728387
0.000909974
0.000921312
0.000862015
0.00116299
0.00150812
0.00230945
0.00300866
0.00352384
0.00375398
0.00374584
0.00380644
0.00375537
0.00375875
0.00327721
0.00265839
0.00192723
0.00163824
0.00146526
0.00110279
0.000701213
0.000565067
0.000599012
0.000575087
0.000588766
0.000527554
0.000491872
0.000533333
0.00051826
0.0004939
0.000487837
0.000637168
0.000655289
0.000694427
0.000727977
0.000739933
0.000758968
0.000832195
0.000871741
0.000931612
0.0010058
0.0010195
0.00097426
0.000928116
0.000807273
0.000775138
0.000713957
0.000651481
0.000634935
0.000589159
0.000558519
0.000555463
0.000627926
0.000701814
0.000769956
0.000939705
0.000921361
0.000740835
0.000689588
0.000619472
0.000588316
0.000187461
0.000227993
0.000433235
0.000237519
0.000156592
0.000146924
0.000152221
0.00015059
0.000198787
0.000256876
0.000308102
0.000422851
0.000474981
0.000579319
0.000627624
0.000514894
0.0004738
0.000339689
0.000299548