/*--------------------------------*- C++ -*----------------------------------*\
| =========                 |                                                 |
| \\      /  F ield         | OpenFOAM: The Open Source CFD Toolbox           |
|  \\    /   O peration     | Version:  2.1.1                                 |
|   \\  /    A nd           | Web:      www.OpenFOAM.org                      |
|    \\/     M anipulation  |                                                 |
\*---------------------------------------------------------------------------*/
FoamFile
{
    version     2.0;
    format      ascii;
    class       volScalarField;
    location    "0.007600000";
    object      p;
}
// * * * * * * * * * * * * * * * * * * * * * * * * * * * * * * * * * * * * * //

dimensions      [1 -1 -2 0 0 0 0];

internalField   nonuniform List<scalar> 
12384
(
844734
844563
845460
845267
845533
845716
847506
847283
848553
848878
849228
849774
850056
850286
841389
840940
840295
841388
840628
842589
841076
844652
843528
848102
847737
851321
852667
854752
856484
857692
858252
858173
857509
856684
856078
855779
855674
856219
856722
856989
856935
857079
857093
857772
875751
874931
874087
873302
871875
871275
870621
870772
870692
870811
870559
870502
869410
868231
868173
863237
862985
859049
858275
854200
855366
853879
854588
854520
854730
854510
854172
853622
853148
853167
848122
847964
847587
848375
847375
849451
849716
852906
854295
857392
860129
861485
862419
862413
862428
862199
860506
860680
859988
861037
858814
864435
863837
870819
870025
874827
878227
879488
879112
882248
878828
877685
876312
877241
875084
872996
869615
870334
857399
860015
843629
845520
828128
835293
823371
829295
829616
833433
837782
839412
840897
841699
841514
840645
838601
838529
837638
836662
837632
836517
832928
833540
833545
836203
835877
836332
838811
841141
842816
845847
849103
851564
854062
855763
856353
855756
854046
851357
848081
847699
845565
843564
844282
844552
845611
846166
846195
846064
846117
846172
865681
864065
862557
860932
857212
858286
856329
856560
854509
854130
854270
850444
847221
846123
838546
833500
834226
827049
830146
827170
837704
838470
844240
850618
852571
855108
855841
856180
858928
858824
863469
863310
864382
864885
866303
867291
867311
865874
862645
857497
850490
846341
840569
839080
838343
842080
849116
852895
856390
857777
859491
860199
859125
858554
859171
859148
858239
858631
858677
858606
869977
867997
869113
868799
867432
865556
863303
857056
845955
849715
841319
836894
836780
844470
846431
852977
855848
857876
859670
859218
858792
857393
857706
856392
856901
855848
856009
855442
854437
855120
870700
869448
871666
871537
872487
872646
871959
868901
865659
857863
857754
848876
851930
853518
859173
865356
870904
874204
875436
875611
874518
872959
872511
867673
869194
863462
865139
858133
861768
857778
814143
811892
815572
817062
819851
822599
822684
824403
820260
827426
823565
834669
832738
839101
840423
840862
841407
842264
840922
842651
839753
839245
838512
838048
837988
835993
835730
837156
836144
838727
891021
891042
888697
888530
886961
885157
883645
882294
875906
877543
867926
869873
858737
861326
850666
853621
841909
845824
833722
837749
826477
830502
819489
823666
814999
819416
816493
817846
817397
817939
837907
840182
838638
842557
840237
846335
844985
850882
850564
854815
854010
858477
856555
863126
860199
870864
867743
878974
876865
885209
883816
889060
888190
891460
891368
892857
894754
894779
896507
896448
844031
844430
844388
845368
845429
846032
846595
847469
847817
848580
849059
849370
849749
850080
839847
840124
840340
840538
840720
841594
841533
843573
843223
847108
847098
850866
851663
853747
855243
856369
856859
856676
856081
855198
854586
853915
854656
854891
855707
856479
857204
857368
857661
857660
876215
875054
874055
872696
871314
870907
870269
869834
870269
870154
870146
869202
868615
868152
865111
864251
859956
857357
855511
854659
851993
853056
853293
853562
853469
853840
853885
853678
853424
853633
849439
848429
848194
846721
847411
846940
847918
852600
853518
857073
859464
861577
862176
862530
862492
861523
861320
859979
857755
856588
859175
861755
863891
867091
869772
876528
878116
878684
881305
882703
879028
877852
877225
876579
874345
873545
870549
865560
856093
860297
840623
837336
833220
826816
824024
824103
827907
831509
834863
838885
841893
842881
842528
841347
839345
837688
838012
836246
835546
836237
835043
834479
835157
834708
836648
835606
838173
839110
844104
844748
847799
850934
853238
854501
855064
854257
851725
849567
847906
844776
841927
841840
842280
843049
844027
845536
846350
846934
846803
847163
865687
863835
861617
860121
857490
856634
856191
854591
853789
854195
851454
849521
846769
842454
839041
831164
828495
828445
826331
828551
831642
834455
844186
846985
851932
854906
856905
857774
858847
859447
862885
862772
863641
864600
865377
866102
865713
863875
859842
854058
848741
842989
836828
835155
837879
840316
844528
849539
855415
858744
860019
860263
860191
858580
858258
858778
859828
859422
860135
859999
867951
868185
868380
867435
866232
864786
859334
849993
849065
844617
832120
835059
837781
838257
842343
850262
854639
858644
859570
859615
857945
857049
855952
856170
855292
855462
854856
853906
854563
854247
870064
869390
870297
870421
870752
870751
869593
865759
861299
855422
850413
847539
844991
849401
852955
859768
865581
870644
873918
874855
874213
872493
869764
868071
865722
863873
860874
860530
857069
859203
814009
812452
813617
815573
818213
819271
819680
818215
821799
816794
822908
829691
831700
838455
841070
842123
842537
840825
842006
841453
841015
842103
839418
839616
837100
835936
836802
835490
837742
836458
890786
890255
888442
887483
886489
884623
882139
878571
876922
872492
868804
865143
860957
857559
852870
851428
842602
845157
833626
836715
827024
828323
819452
821806
815980
817153
817143
817455
817982
818847
837585
839708
838541
842061
840024
846139
845642
850398
851218
854292
854714
855334
857574
859459
859986
867524
868115
875891
877207
883037
885051
886970
889338
891293
891177
894057
893979
896421
896202
898678
843556
844077
844524
844295
845405
845458
846193
846616
847677
847728
848420
848658
848743
849036
840376
840117
839888
840470
840203
841243
840556
843340
842316
846126
846357
849396
850617
852438
853756
854669
854890
854531
853800
853238
853282
852110
853017
853694
854535
855506
856393
857383
857439
858079
874983
874073
873023
871807
871180
870894
869441
870133
869849
870080
868981
868646
868315
865910
864439
862209
857272
857385
851182
852207
852010
849390
849223
851147
852407
852254
852504
852799
852919
853073
848560
847825
846453
846119
844739
847803
846084
852970
853222
856733
859044
861591
862137
862572
862151
861787
860470
856536
856122
856767
854947
859355
861654
864100
870648
873813
875391
880051
881723
882379
878967
878065
877454
876486
874391
874319
869788
861095
857675
855759
833117
840298
829121
820067
820223
822423
823641
828136
831665
836044
839366
841608
842217
842196
842380
839803
839831
840443
838704
836320
833268
834415
835175
834153
836568
834948
838903
838441
844303
844326
847629
849796
852342
853503
853379
851716
849895
848121
843704
839826
839595
839737
838709
839895
842038
843923
845301
846113
846719
847297
864247
862044
860556
859635
856457
856918
854449
854082
854002
851897
850135
849676
843835
841894
833949
831810
827487
824178
824825
823285
830278
830740
839395
843780
849207
852901
856332
857535
859515
859937
862725
862401
863294
864162
864953
864917
864052
861220
856368
850921
846423
836801
834798
834415
833085
837274
840836
845431
851127
855472
858319
860139
860050
861394
859445
860917
862040
860284
858694
858575
868399
868091
868193
866770
864415
862495
854188
846592
847881
832570
830997
831262
828483
834739
837163
845282
850614
854627
857119
857239
856770
855834
854442
853795
854695
854444
853905
854228
853482
854088
870076
868972
870213
869758
869907
869157
866609
861564
858250
848384
845232
837928
840719
838551
846568
852040
859168
864690
868555
870648
871044
869943
867573
866123
863434
862011
859940
856534
857846
854324
811371
810950
813503
813949
816169
816692
815570
813849
810400
818964
815367
819151
831691
830193
839797
841718
842151
844007
844772
842930
844503
840363
841208
838054
838626
839206
839086
840856
838484
840824
889185
889139
887919
886596
885369
882029
880229
876404
873070
868687
867470
862038
858413
859548
850171
852611
842760
844114
833377
836856
825769
827357
819632
820923
814568
817306
815726
816836
817073
818390
838007
839621
838359
842173
840533
845278
845423
849903
849917
851923
852939
853753
853026
859352
858140
863840
867786
870572
878821
881630
883972
888592
889464
890672
893642
893373
894139
895075
897346
897462
842567
842359
843079
843826
843741
844915
845158
845927
846439
847610
847755
848508
848769
849107
839334
839348
839307
839492
839850
840641
839960
842523
842273
844764
845932
847584
849188
850665
851968
852547
852500
851941
851393
850096
849405
848774
849271
851018
853212
853775
856105
856660
857654
858181
873980
872944
871746
871578
871254
870164
869633
869815
869893
869004
868753
868358
865948
865875
861282
859472
856008
850759
852117
849276
845540
849050
847380
846204
848360
850502
851104
852024
852400
852776
848161
847087
845464
845163
843544
847981
845849
850334
854051
856435
858895
860850
862129
862015
862128
860641
856146
855138
855047
854134
855315
853720
857185
863649
868536
869823
875850
880435
880965
883003
879143
878464
878067
876938
874387
874278
867565
859238
858102
844887
832923
836316
816405
819699
817538
815040
818047
823288
827460
833135
836427
840889
842530
841422
841330
842069
839191
839840
841225
841545
837165
834954
835732
835815
836734
836149
839725
838800
843632
844552
847506
849302
850757
851771
850622
849101
847457
842839
838093
837318
837234
834066
836573
836771
838330
840689
843521
845370
846407
847094
862301
860427
860313
857492
856538
854916
854014
853581
851218
850076
850253
845802
842591
837223
830843
831656
818223
818588
816283
820246
822741
828310
833836
839913
846721
851077
855137
857646
859341
860363
862510
862651
863098
863496
863795
863403
861316
857150
852326
847426
839856
831252
830534
823901
824188
828225
836460
841241
847866
851048
857985
859055
860942
860932
862845
861193
861213
863260
864295
863370
869137
867738
868038
866055
862534
855269
852490
843642
836936
824433
829959
821440
824042
825849
831612
840255
845726
850063
853161
854994
855035
854149
854037
853165
853070
852309
853049
852286
852579
852955
867361
868049
868791
868425
867715
865646
862204
857581
849651
841765
834875
837020
828378
834015
833970
842548
849169
856618
862234
866048
866809
866172
864148
862508
861554
858473
855150
855426
852302
854696
811028
810848
812694
812877
811819
809476
807364
806310
805900
800516
805480
811564
821692
825903
837421
837485
843873
844497
844378
847665
845769
846648
844298
844370
843661
842158
838997
837096
838286
837590
888381
887615
885858
884897
881897
880144
876143
872869
868411
866714
861418
860305
858715
854376
851812
849765
843491
843260
834076
835595
826278
824992
822439
817464
816305
814753
815726
816142
816762
817801
837992
840094
838630
842158
840820
845558
844997
847591
849999
849466
850965
850911
852243
850696
858434
858752
867908
864973
880038
876817
886525
886148
890591
892596
893944
895476
898855
899425
899696
901619
842120
842737
842464
842882
843859
843557
845014
845269
846030
845962
846795
846526
847084
847126
839588
839573
839528
839731
839316
840241
839829
841255
841314
843551
844447
845963
847033
848240
849170
849482
849289
848500
846931
846222
846653
847689
848459
848454
850921
852507
855012
856696
857527
857966
872706
871946
871797
871352
870646
870776
870215
870048
869514
869143
868294
867119
865885
863601
858028
858956
848517
851132
844576
841178
842732
840410
844803
846023
844936
847007
849578
850110
850675
851883
847556
844944
845272
844602
843206
845885
848217
848527
853143
856998
858925
860449
861180
862012
861120
856984
854290
853755
848741
845254
846745
851925
853561
859149
862854
868446
876108
878652
880547
883060
880361
878851
878503
877534
875292
872468
865667
860411
851749
839170
831426
825543
810679
815565
806197
811165
814410
819957
823296
828552
835592
840100
841516
844195
842633
844179
844694
841087
839896
842307
833433
834773
834581
834913
836035
835948
839120
838913
843916
845193
847108
848842
849782
849229
848829
847531
842153
837215
836375
835870
831647
833055
832082
835665
837432
838868
840836
843186
844677
846578
860001
860590
857702
856543
854578
853804
853523
851062
849948
850143
847067
843903
839095
835528
829783
822024
817564
818311
816579
814517
819061
824113
827687
836709
843906
849353
853550
857104
859090
859886
862299
862320
863037
862576
862318
861319
857927
853193
849516
842044
829931
828188
823100
822438
823995
821384
831413
835881
842244
850561
854906
859293
862076
862832
864377
865488
863697
863078
863960
865303
869420
868521
866686
865218
860472
850120
849474
834227
831939
820784
819205
817960
816900
819750
824466
833176
840878
845574
851153
852562
852319
852332
851203
851550
851496
852325
852252
852374
852044
852378
868153
867121
867813
867888
866077
862933
858828
849630
842387
831897
831113
818815
823922
819162
827520
830334
839063
847166
853920
858546
861628
862459
861173
860572
857242
854734
855271
852332
850415
848549
810639
811721
812104
810918
810202
806652
804651
797181
794285
796531
801784
800056
815314
815594
832751
835299
843889
843412
848832
847466
846630
844979
844852
844086
841587
840709
842420
846394
845229
846446
885378
884678
884116
881809
880073
875898
873062
867586
866119
860236
858306
857717
853247
852563
849352
849569
842469
844693
834118
832805
829978
822104
824136
816772
817672
814345
815405
816518
816148
818049
838307
839937
838410
842487
841134
844914
845604
846589
846569
848078
845949
847699
847031
849477
850382
853190
865381
863297
875578
877736
884224
886909
892921
893052
895208
898436
897040
898571
900215
899709
839503
839603
840543
840385
841180
842182
842708
843652
844407
845779
846142
847083
846996
847606
839592
839099
839313
839252
838768
839119
839091
840613
840777
842474
843579
844623
846066
847342
848078
847980
846869
845209
844368
843891
842937
841333
843985
846639
850747
850326
854753
855730
856925
859414
872010
871749
871679
870963
870588
870509
870968
870297
869830
868700
868684
866140
866220
860600
857025
853401
846801
846869
837902
842835
839336
836299
835088
840516
844833
844337
845454
849200
850221
850756
847225
844761
845596
844340
844647
844424
849600
850832
852160
856939
859184
860069
860608
861571
858711
855296
852378
847232
842346
841848
838193
841439
847125
854889
858565
867404
873143
877069
880057
882298
880632
879891
879405
878172
875867
871926
864377
858458
846390
837253
825569
819747
808493
808082
808499
805408
806161
814097
817174
829030
835016
837366
843059
846564
847127
844073
845601
847683
845049
842745
840634
839759
838813
837604
837669
838315
840642
841372
844502
845709
847117
848735
849022
848765
847052
842947
838027
838632
833323
825461
823049
823275
825401
826366
831500
836025
839595
842110
842936
844895
859837
858220
856522
854724
853703
852923
850605
849858
850443
847310
845553
840799
839243
832124
825478
818706
818842
811138
808402
811063
817065
822992
820990
835290
840456
848534
851619
856697
858097
859525
862449
861954
862402
862290
861057
858380
854738
850770
846145
833423
824699
828473
817665
817048
818741
819156
828453
826822
843190
846478
853938
859732
862609
865580
864453
866590
868509
867119
866462
867067
869067
869122
867030
861400
858912
847665
847063
826015
832888
814429
814359
806720
810975
814580
820410
828878
835068
841702
847661
849214
852321
852115
852227
850560
851007
850822
850158
850534
850832
852059
866015
866309
865785
864160
862676
860137
853418
841846
835881
826433
815995
813531
805568
815063
814987
825770
828346
837298
846202
853654
856832
857396
857245
854562
852303
852721
848277
844673
846023
845153
811384
811936
811133
807518
804982
797712
792453
786311
785397
784930
783153
787414
804889
807159
829970
828192
842431
846637
848729
849945
852383
851256
849203
847478
846617
849012
849262
844996
847237
845024
884222
884186
881743
879465
875810
873040
868761
863810
860162
855371
855722
850782
850334
848631
849430
845775
846031
841955
836591
831163
831899
823326
823871
818517
818230
815319
814651
815101
818331
818262
838112
839980
838865
842382
842348
844201
845457
846427
846201
845643
845739
840951
844460
845388
847884
846081
862077
860396
877118
873125
886101
887563
892938
894430
899390
898889
903027
904645
904109
906089
840251
840658
840134
841130
840894
841753
842906
843168
844167
844094
844849
844495
844978
844847
839547
839440
839198
839443
839074
839584
839031
839990
840004
841167
842181
843213
843932
844433
844497
843912
842666
841318
838995
838010
838250
841379
839125
844509
845155
852507
852525
855420
858821
858507
871064
871259
871244
871470
871257
870943
870616
871141
870585
869385
867918
867375
862933
862559
851659
854378
842383
840499
836514
832120
830726
836328
837283
834181
836871
843755
846681
846712
848231
848943
845984
845484
843984
844909
843794
845424
849474
851414
854578
856462
859844
861820
861268
860624
858243
853023
849318
842841
835582
836035
839267
841524
838706
850985
856647
864460
870125
875625
879055
881380
880897
880722
879944
878455
875972
871929
863774
855496
843900
836626
819565
817747
804649
807109
798907
802361
806168
806331
821770
826996
830173
840361
846468
846579
849538
850439
846600
847345
849533
849364
837529
837681
839686
841017
841239
842072
841766
843570
844108
845804
848667
848252
848201
848153
845060
841202
836851
834799
826722
823557
825031
825329
827104
828227
830484
833303
836621
840510
843208
843672
859104
854865
854203
853241
852809
850726
849768
850052
847199
846152
843292
841537
836245
829212
825342
820025
810144
811260
806871
805901
812541
823575
818374
832564
841307
845032
852061
854809
858157
858150
861923
861280
861199
860762
859213
856716
851812
849420
840869
827693
825309
823121
809688
811000
813609
812805
826079
826723
840346
844942
854726
860005
865372
867216
869211
867788
868667
869271
868563
868311
869186
868112
866902
860449
856644
845575
844004
824127
829124
806807
814836
803065
805170
810510
817221
825297
829596
841167
846773
849228
850729
851997
852173
850752
850269
851109
850811
850914
851095
850670
863802
865149
865190
862820
861327
855064
848401
834569
833941
813327
813376
802874
809367
801300
808897
814776
824401
829911
840962
846512
850115
854105
854425
853437
851596
847343
844673
846789
843644
842712
811915
812065
810045
806587
802803
794964
791617
782908
784079
778568
786754
781655
804974
796708
825493
824406
844796
844437
850334
853147
850939
850842
852677
850056
851151
849893
848094
851215
850536
852847
879353
878747
878381
876528
873838
867188
867390
858984
856335
852503
847701
847595
845611
847975
845346
846848
845003
841373
839589
832716
832734
823991
826323
818822
819135
817823
818345
819690
818481
820549
838519
839182
838768
842424
842104
844816
845160
845153
844134
842412
839636
842049
837593
838553
849310
841521
860657
857898
875524
872356
888546
886850
894107
898303
898799
903126
903144
903641
904723
906538
836782
837080
837745
837911
839476
839807
840205
841798
842022
843563
844083
845193
845149
845559
839330
838996
838595
838529
838633
838644
838670
838771
839857
840440
841402
842700
843421
844735
844795
842897
842307
840627
840773
839405
837821
838626
839561
844659
844981
850888
852009
857387
856935
861011
871171
871555
872241
872302
872608
872947
872902
871963
871261
870132
868254
867716
861946
862085
850356
852015
837017
841990
831979
831952
828910
826356
830187
837511
836838
839149
846050
846347
849048
849381
849390
847580
848674
847468
847288
849655
849535
853291
855165
858999
859889
860302
861729
861417
857320
852149
845339
839428
829615
831133
827848
836147
835298
850843
853945
861158
868666
874528
877523
880180
882213
882800
881750
879688
876338
871788
863210
853964
843216
836238
815623
818401
806456
803863
798819
801124
800021
811881
820504
822491
833938
843605
846264
850389
849818
852479
852718
849243
849694
850670
845772
843994
840768
839923
840358
840615
842093
844299
846395
848346
848729
849867
848854
846497
846170
840242
834529
834467
827128
822861
822144
820500
821680
829250
827227
833811
836996
840986
842421
845899
853806
853692
853562
852256
849573
849046
849832
847111
846282
844654
843572
838628
835047
828451
826859
813969
816382
807292
808043
806263
811942
821730
820219
828949
844300
843067
851084
855640
856570
858548
861547
861447
861177
859350
858009
854570
850901
847250
835600
827194
826514
817438
809584
810826
815444
809816
826770
824739
837789
846147
854730
861579
866882
867884
870503
870624
869493
870153
870359
869261
872060
868653
865500
859779
858830
841023
844861
821908
826870
806892
813112
801156
804022
811764
817156
820097
829939
839630
845604
848441
853024
851902
852274
852391
850097
849197
848453
849137
849628
850578
863242
863058
861792
860569
857630
850721
844381
832063
829757
806205
810258
799349
794408
801734
798855
810950
816008
826519
835368
842600
849543
849433
848081
847995
844758
841571
842338
837353
837344
837639
807524
810742
810957
804173
804503
790041
791641
776463
777361
769859
776803
772056
797133
795375
823934
823345
841601
846364
854058
853395
854070
855950
852622
854282
851147
851505
853682
851574
855161
851100
879053
879281
877182
874383
870403
866671
863257
853853
855240
847061
846163
842393
845712
842458
846166
845022
845647
841815
842532
833871
835581
826168
827461
822232
821975
819619
819642
819445
820892
820321
840063
841051
840008
843131
843361
845022
845634
845037
844110
841789
841012
838282
839736
834189
849258
837810
862802
854438
875187
873123
887482
887524
897580
897490
903511
904348
907266
908725
911319
908616
838198
838215
838091
838957
837940
840196
840452
841087
842131
842546
843276
842860
842940
842598
842564
841412
840457
839827
839520
839504
838816
838708
838788
838307
839885
839674
841116
841623
842806
842482
842115
842201
840258
838701
836081
835492
834812
838981
836576
844934
843610
849731
853958
855916
860642
863574
864952
863240
869681
870547
872154
872701
873058
873154
872750
873227
872317
871016
868849
868365
861278
862266
848326
851857
835506
839996
826631
831375
824688
829276
827104
831287
837424
837939
841887
846105
846966
848479
846647
842794
849358
849364
847757
846872
850026
848278
851997
856451
858946
861222
863035
864972
864263
861846
857757
852092
844102
837227
830316
828390
826135
834412
831553
850025
851079
860491
866875
872796
876030
879653
874390
869421
880944
880234
879421
877586
874675
870309
862950
853893
843860
835721
817988
817474
810531
798986
795372
797703
807042
815615
815619
826319
838592
842212
849143
853225
854889
853344
854360
854041
850999
850608
853080
847701
846756
847092
847291
845927
845808
845771
846801
847104
848193
848828
849160
849337
849487
847595
844044
843571
834330
832246
831847
823372
821745
822963
826456
827782
828549
835211
837263
839658
844624
845023
840574
850263
855205
853202
850986
848699
849041
848892
846498
847122
844964
844985
840998
839966
833882
834025
823029
818196
814544
809064
806481
807580
816285
818209
823602
831331
842283
845463
850644
855462
856981
857177
855728
856073
859398
858188
857438
857188
855509
853309
850365
845872
833932
830333
824189
816660
810497
812783
811979
812468
828164
824245
840876
847392
856701
863437
868026
872374
872701
874430
873660
872371
872605
871925
871834
871736
868684
866832
864043
858990
858499
841668
845558
822193
826912
806648
812910
803324
806598
811510
814866
820869
833159
840786
845577
851680
854186
855183
852807
852744
852464
850079
850795
851229
851874
851433
853034
846027
858533
857240
857737
857782
853764
848755
843951
830565
824701
805150
810650
794168
797969
796823
802784
802230
816547
822865
832182
839351
843556
848545
850026
845915
843277
842552
839602
838850
838600
832314
826796
827407
817581
817488
813426
810222
802807
797860
787381
785134
777395
770481
781178
774392
796472
795045
826787
822311
841935
851272
852382
853684
857973
855093
855388
853183
853402
854571
854390
858065
858359
862905
868132
872364
872768
874051
874604
871651
869955
862793
861315
852023
854134
843288
846831
843719
841198
843891
844663
845246
845439
844963
841866
839734
832139
832892
828586
822999
825289
821074
822326
822890
823238
828139
823429
833055
832983
835464
837663
840918
842599
844701
845523
845243
843403
841535
839656
840029
837916
834582
848860
837789
862515
855278
876226
874198
888496
892612
895319
902601
904637
906636
908730
912330
912535
917204
918811
921090
835010
835576
835732
836643
836984
838108
838260
840547
840245
841927
842437
843572
843577
843455
841220
841571
839919
839978
838789
838915
838701
838404
838315
838488
838694
840060
840264
841950
842185
843333
843111
841397
840321
838085
836947
836725
834631
839593
837848
841802
849252
847078
855676
856370
861182
863298
865503
865985
871168
871923
872844
873791
874111
874493
874691
874277
873493
872267
869917
868813
862016
862582
848291
852494
834100
839625
826697
829650
825087
826936
828196
830948
837507
837185
843448
846608
849105
850142
848460
842809
852712
851169
851327
854331
851555
855172
856828
857939
859945
862423
864966
864897
865146
864179
859548
854179
845269
839236
833827
834843
831580
838266
833657
849943
850561
861194
866992
873250
876881
879895
876028
874236
878573
877898
877199
875905
873269
869771
862850
855588
844591
837362
823276
816225
812271
806481
810190
808841
813283
812808
820009
835625
838318
846070
852776
854984
857544
857305
855400
855921
855265
852770
853092
850264
851210
847409
847303
846941
846628
847866
846866
848064
848895
849756
850560
850961
849579
848261
846019
843096
839016
832400
830435
831114
827526
824554
824935
830789
833759
838103
840397
843501
844176
847471
846043
849223
853735
851706
851274
849816
848770
846260
846671
845052
845487
842896
841314
839903
835666
830734
826133
821483
820369
814479
813599
812730
821835
820266
825135
838801
841452
847179
852283
856264
857041
857917
856102
857418
858182
856972
856729
855714
854889
852791
850507
843173
837924
831479
824542
821153
811239
812737
816402
820602
826148
829470
845350
849267
859947
864784
871226
873399
874095
873747
874363
873602
872100
871272
871057
870314
868135
865345
865249
858533
859718
843621
845200
828671
828078
812144
815315
807888
812341
816446
818408
827630
836061
841692
848837
854154
855672
856009
856060
852619
852316
851338
850217
850804
850638
849901
850324
852154
854510
855760
856411
853935
853589
847312
844247
828613
825869
806391
810495
795873
800476
795693
805690
802349
814856
823918
832814
837225
844208
843399
842821
842362
841047
838870
835347
834201
832434
829773
827437
826341
820220
817964
814645
810808
806425
797683
792337
784200
781936
785892
778390
780583
791835
806984
824364
827693
847652
848797
855064
860932
858069
859967
860123
858746
857204
856777
854718
857305
861565
862154
868529
870446
872665
874633
872478
870623
866900
862346
859449
852954
851301
844350
845147
842082
841406
844306
843622
847278
846797
845876
843884
840963
836343
832116
831440
825938
824719
825378
823418
824954
825801
826781
823006
833659
833362
837925
837084
842615
843111
845552
846147
845583
845158
841723
842916
837946
842438
838464
849835
841722
857449
866812
869880
881477
888211
894201
898901
904321
906347
909379
913937
913630
916940
917908
919312
921201
836506
836437
836505
837179
836366
838615
837760
839943
840413
841334
841852
842148
842042
842082
841753
840543
840761
839623
839643
839081
838457
838583
838019
838053
838959
839253
840482
841645
842647
842903
842394
842194
840325
839435
837143
835926
837211
840510
837938
844970
847140
851065
853161
860483
860460
864431
865103
867304
871076
872743
873581
874375
874946
875132
875097
875093
874420
873552
871399
869332
863159
863659
850137
852157
836048
840137
826295
831822
823960
827196
828835
831802
837231
837118
844549
846298
849286
849990
848471
847146
852746
852617
856057
853982
856141
855999
858458
861506
863792
866834
868202
867976
868123
866159
861977
855956
849850
841844
833640
832290
831752
838359
836324
852376
852705
862304
868380
873457
875990
877823
874578
873911
877213
875148
874763
873771
872170
868699
863878
856866
847940
839517
830831
819423
814882
811134
805305
809254
814224
817381
833249
835671
842188
850628
855069
857762
858135
859119
857916
855733
856186
855595
853235
850219
851817
851242
849106
849092
848213
847628
848142
849257
849836
850626
851118
850838
850594
849133
847046
844986
842238
838628
833366
829224
829394
832604
834584
833011
836033
840147
843664
844855
846187
851648
846325
850408
852399
852460
849626
848193
847848
846137
845312
845582
843902
843637
840567
841114
836233
833958
826377
825628
819983
819387
817202
820614
822619
823295
832412
841189
844496
849372
854879
856709
857242
857614
855759
856730
857691
855868
855111
854762
853891
853439
849432
845453
840889
832668
826182
828711
823594
821754
824762
818739
830439
837103
847224
853887
862384
868273
872924
873639
875975
874929
873952
874566
873186
870548
871133
869154
867677
865159
865892
859209
859656
847962
846913
829109
834936
815163
819402
817099
813655
816741
823992
832499
839107
845807
852493
856273
857244
857027
856389
855264
852451
851673
851839
850783
851006
849192
850713
849915
855351
852579
852923
854709
851564
848643
842940
832830
827949
814176
810502
799286
797851
804778
804498
808728
815230
828400
830764
839835
841442
844535
844103
840941
839450
836394
836866
833622
829510
829988
824543
826011
822108
820810
819330
817520
812988
808302
800234
794849
788510
778807
785703
796026
807388
808614
831265
839461
845343
855061
862678
858255
859632
861030
858997
858192
858994
856780
859186
861011
860679
864671
867449
870109
870531
869706
870293
868759
865666
861545
860743
852405
852930
845347
846732
843470
844292
844769
847602
846972
848906
846907
843908
843826
835834
837014
828915
832045
824287
827048
826737
826736
827680
827896
825895
833653
834182
837117