/*--------------------------------*- C++ -*----------------------------------*\
| =========                 |                                                 |
| \\      /  F ield         | OpenFOAM: The Open Source CFD Toolbox           |
|  \\    /   O peration     | Version:  2.1.1                                 |
|   \\  /    A nd           | Web:      www.OpenFOAM.org                      |
|    \\/     M anipulation  |                                                 |
\*---------------------------------------------------------------------------*/
FoamFile
{
    version     2.0;
    format      ascii;
    class       volScalarField;
    location    "0.007600000";
    object      rho;
}
// * * * * * * * * * * * * * * * * * * * * * * * * * * * * * * * * * * * * * //

dimensions      [1 -3 0 0 0 0 0];

internalField   nonuniform List<scalar> 
12384
(
0.814957
0.819412
0.825488
0.82975
0.833627
0.834251
0.833866
0.830797
0.827699
0.822724
0.815914
0.809877
0.805136
0.798943
0.887289
0.882812
0.879416
0.870763
0.859666
0.850563
0.842517
0.842141
0.83957
0.842572
0.843077
0.847307
0.850298
0.854561
0.859204
0.863742
0.868005
0.870954
0.872198
0.87249
0.872237
0.87164
0.871031
0.871067
0.870815
0.87035
0.86998
0.869936
0.887219
0.938277
0.855382
0.848736
0.847538
0.848508
0.848669
0.849144
0.84928
0.849915
0.850192
0.85078
0.851086
0.851384
0.85087
0.850164
0.850272
0.846341
0.845905
0.842528
0.841666
0.838024
0.838794
0.837189
0.837528
0.837226
0.83713
0.836587
0.835406
0.833654
0.83577
0.83703
0.840501
0.836094
0.837409
0.839261
0.838939
0.840947
0.841367
0.844103
0.845244
0.8477
0.849512
0.850378
0.850908
0.850531
0.850225
0.849605
0.847878
0.847783
0.847091
0.84789
0.846297
0.850742
0.850218
0.855978
0.855109
0.859063
0.862005
0.863215
0.863654
0.866887
0.862044
0.861713
0.860034
0.86017
0.857683
0.85565
0.852919
0.854039
0.844007
0.846858
0.833545
0.836147
0.821639
0.828353
0.818385
0.823772
0.823995
0.826946
0.830429
0.83125
0.831695
0.832404
0.835844
0.834541
0.832116
0.832181
0.831927
0.831449
0.832325
0.831661
0.822443
0.823437
0.81964
0.817394
0.81443
0.813693
0.81545
0.817619
0.819602
0.82287
0.82624
0.828769
0.831149
0.832901
0.833823
0.833706
0.832691
0.830753
0.828309
0.828215
0.826702
0.825441
0.826431
0.827324
0.829162
0.830816
0.832039
0.832819
0.832421
0.831196
0.873892
0.868866
0.864145
0.858178
0.852475
0.852136
0.850205
0.850703
0.849755
0.850334
0.851596
0.849674
0.84813
0.848257
0.842913
0.839268
0.840275
0.834616
0.837609
0.835383
0.84467
0.845432
0.850678
0.856971
0.859688
0.86575
0.908359
0.927641
0.92152
0.915447
0.854011
0.837991
0.833648
0.830393
0.830247
0.830832
0.830991
0.830051
0.82764
0.823564
0.818067
0.814606
0.809807
0.808467
0.807778
0.810658
0.81598
0.818819
0.821187
0.822745
0.833844
0.845515
0.845093
0.843489
0.842986
0.841738
0.839716
0.839064
0.838732
0.838653
0.83475
0.832559
0.833264
0.832898
0.831913
0.830605
0.829133
0.824734
0.815918
0.81914
0.812515
0.809392
0.80965
0.815566
0.81697
0.822079
0.823774
0.823827
0.817862
0.816353
0.815587
0.814008
0.813836
0.812775
0.812717
0.811526
0.811197
0.810556
0.810787
0.811462
0.837168
0.835886
0.837064
0.835845
0.835652
0.835205
0.834569
0.832308
0.830146
0.824164
0.824757
0.818279
0.821717
0.823384
0.827939
0.833197
0.837747
0.84081
0.841214
0.836578
0.832863
0.83032
0.828739
0.824143
0.824234
0.819132
0.820111
0.815367
0.818141
0.814933
0.778881
0.776688
0.778673
0.779825
0.782253
0.784678
0.784983
0.786284
0.783213
0.789196
0.786344
0.795156
0.794171
0.799818
0.801031
0.796877
0.792292
0.793328
0.792631
0.795351
0.793442
0.79334
0.792935
0.792498
0.79248
0.790873
0.790449
0.791325
0.790071
0.790573
0.854474
0.855994
0.846506
0.834121
0.834662
0.835001
0.834257
0.833503
0.828281
0.829768
0.821583
0.823381
0.814025
0.816102
0.807325
0.809555
0.799872
0.802979
0.792974
0.796245
0.787535
0.790792
0.782341
0.785896
0.779326
0.783231
0.781348
0.782778
0.781537
0.783504
0.791093
0.794022
0.794419
0.797752
0.794457
0.79781
0.791244
0.763959
0.744577
0.746556
0.745912
0.749451
0.748458
0.75346
0.752024
0.760086
0.758601
0.767381
0.766669
0.773842
0.772538
0.775638
0.77404
0.775341
0.775321
0.776712
0.778814
0.780186
0.787504
0.795206
0.827495
0.838384
0.85039
0.856433
0.85664
0.855277
0.85265
0.850042
0.846416
0.841216
0.832298
0.819881
0.808086
0.799055
0.885187
0.882078
0.877974
0.865242
0.848965
0.835476
0.826736
0.826654
0.826328
0.830594
0.832339
0.839224
0.844913
0.854536
0.865727
0.875295
0.880907
0.88288
0.882795
0.882249
0.881672
0.880917
0.880698
0.879167
0.877181
0.874742
0.872788
0.87068
0.876165
0.903679
0.854795
0.848539
0.848127
0.849169
0.849565
0.849881
0.849493
0.850014
0.851513
0.852738
0.854086
0.854867
0.855552
0.855393
0.852686
0.851047
0.846446
0.843166
0.840514
0.839359
0.836852
0.837541
0.837501
0.837469
0.837046
0.836902
0.836224
0.834558
0.833767
0.835175
0.840214
0.837082
0.838702
0.83848
0.839411
0.83917
0.84018
0.844327
0.845249
0.847725
0.849051
0.84974
0.84913
0.848501
0.847896
0.847005
0.8471
0.846491
0.845159
0.844922
0.847199
0.849534
0.851322
0.853953
0.855958
0.861295
0.862277
0.862815
0.865008
0.866569
0.862226
0.862023
0.860739
0.85863
0.855331
0.855081
0.854006
0.850791
0.845036
0.850075
0.83502
0.833093
0.830372
0.825515
0.823804
0.823909
0.826396
0.828704
0.830531
0.832643
0.834402
0.833798
0.834596
0.835211
0.832791
0.832694
0.835099
0.834355
0.832289
0.830735
0.824404
0.822723
0.817316
0.811163
0.809305
0.807575
0.81105
0.81467
0.821943
0.82493
0.829101
0.832501
0.834459
0.835607
0.83634
0.835938
0.833981
0.832127
0.830644
0.827974
0.825526
0.825299
0.825588
0.82629
0.827541
0.829686
0.831567
0.833193
0.83322
0.832634
0.873488
0.865581
0.855527
0.848332
0.844526
0.845059
0.846633
0.846799
0.847268
0.85094
0.852004
0.853261
0.853187
0.850742
0.848493
0.842055
0.839647
0.839429
0.837623
0.839176
0.841653
0.843773
0.852015
0.854475
0.859174
0.863474
0.880203
0.909367
0.922461
0.911274
0.857345
0.83908
0.830852
0.828639
0.82979
0.831598
0.831972
0.830565
0.827158
0.822041
0.817277
0.812314
0.807333
0.805881
0.807992
0.809741
0.813048
0.816915
0.821097
0.823212
0.827448
0.837477
0.846458
0.847437
0.845461
0.843573
0.841133
0.837721
0.836826
0.837
0.833783
0.832991
0.832247
0.831386
0.831013
0.830782
0.827695
0.821154
0.821115
0.818409
0.808731
0.811397
0.813727
0.81382
0.816525
0.822013
0.824607
0.826251
0.821981
0.817318
0.816056
0.815434
0.814609
0.814604
0.813898
0.813583
0.811871
0.809079
0.809188
0.810297
0.837014
0.836141
0.835162
0.83271
0.83145
0.831568
0.831969
0.830745
0.829207
0.825886
0.82322
0.822339
0.820688
0.824416
0.826994
0.831839
0.835943
0.839706
0.841724
0.839542
0.834469
0.831319
0.82816
0.825697
0.822137
0.817906
0.813165
0.813234
0.812355
0.815319
0.778869
0.777152
0.777451
0.779207
0.782114
0.783961
0.785582
0.785535
0.788977
0.785146
0.78966
0.794391
0.795399
0.800686
0.802284
0.801709
0.798553
0.793493
0.79324
0.794922
0.795281
0.797151
0.794731
0.794874
0.792387
0.791122
0.791479
0.790188
0.791328
0.788785
0.848564
0.843657
0.835987
0.83374
0.835141
0.834203
0.831838
0.828468
0.826421
0.822735
0.819506
0.817093
0.813875
0.81153
0.807802
0.80659
0.799325
0.800918
0.791776
0.794734
0.788181
0.790067
0.783764
0.785457
0.780552
0.781164
0.781364
0.782186
0.78211
0.783759
0.781399
0.79117
0.797614
0.800264
0.795451
0.793881
0.771429
0.749687
0.743542
0.745355
0.745392
0.745745
0.747391
0.749133
0.750052
0.756653
0.758564
0.766542
0.770607
0.778588
0.783226
0.785308
0.783978
0.781731
0.778251
0.7783
0.778101
0.78105
0.78758
0.797327
0.844692
0.861375
0.867057
0.862983
0.855207
0.847279
0.841321
0.836868
0.836131
0.836464
0.836136
0.829712
0.81343
0.799194
0.885269
0.882215
0.877137
0.861767
0.840823
0.82654
0.819591
0.820743
0.819416
0.823039
0.825627
0.832987
0.842288
0.856345
0.871895
0.880498
0.882697
0.881195
0.878486
0.87625
0.87546
0.874847
0.876651
0.878297
0.879415
0.878555
0.876296
0.873238
0.872484
0.889216
0.853165
0.847411
0.847359
0.848235
0.848303
0.847467
0.846135
0.848755
0.85057
0.8524
0.852823
0.854658
0.856365
0.854417
0.851449
0.847186
0.841464
0.840754
0.835041
0.835687
0.835491
0.833391
0.833466
0.835296
0.836461
0.836272
0.836023
0.835066
0.833653
0.833885
0.838812
0.83713
0.83751
0.837036
0.835056
0.837297
0.836317
0.843143
0.844391
0.847418
0.848535
0.848362
0.846678
0.84644
0.846157
0.847025
0.847484
0.845828
0.846546
0.84789
0.846837
0.850682
0.852109
0.853827
0.858699
0.860583
0.861187
0.864571
0.865498
0.86627
0.862129
0.862435
0.860848
0.856983
0.854949
0.856446
0.855901
0.851417
0.850685
0.850935
0.833311
0.840096
0.831766
0.824533
0.824817
0.826757
0.827285
0.830209
0.831895
0.833948
0.834413
0.834417
0.833684
0.834922
0.835897
0.836084
0.84191
0.8442
0.840073
0.834676
0.823069
0.820832
0.812902
0.804842
0.803275
0.80266
0.809682
0.814304
0.823658
0.827001
0.831372
0.83355
0.835871
0.836719
0.836426
0.834487
0.831923
0.829458
0.825053
0.821496
0.821364
0.821963
0.821648
0.823265
0.825591
0.827915
0.830095
0.832045
0.833146
0.833115
0.87171
0.859861
0.848089
0.841557
0.840965
0.845446
0.846573
0.848111
0.850208
0.85323
0.856433
0.858794
0.854984
0.853394
0.846138
0.843435
0.83894
0.835474
0.83579
0.834129
0.840386
0.840827
0.84839
0.852217
0.857202
0.86102
0.867834
0.88822
0.916343
0.915472
0.860238
0.840491
0.82763
0.829472
0.832159
0.832763
0.831472
0.828216
0.822953
0.817238
0.812506
0.804046
0.802181
0.801886
0.801177
0.804983
0.808651
0.813113
0.818072
0.821012
0.823472
0.829518
0.83875
0.848509
0.849767
0.848752
0.844801
0.837543
0.833545
0.833715
0.834181
0.832083
0.831409
0.830856
0.830415
0.830779
0.825764
0.821138
0.823157
0.812522
0.812124
0.812865
0.810554
0.814934
0.815536
0.820258
0.823551
0.825259
0.823824
0.818335
0.815607
0.815381
0.814605
0.814233
0.815161
0.815162
0.814143
0.81162
0.80823
0.809545
0.837651
0.835712
0.833388
0.829332
0.829273
0.831237
0.832601
0.832018
0.831988
0.826139
0.824592
0.820348
0.823788
0.821945
0.827372
0.830165
0.834742
0.83769
0.839622
0.838989
0.834211
0.830342
0.82853
0.82724
0.823296
0.817672
0.811503
0.806435
0.809215
0.810094
0.776722
0.776147
0.77789
0.77878
0.781982
0.784833
0.786446
0.787081
0.785666
0.793169
0.789913
0.791798
0.800261
0.797271
0.80371
0.804479
0.802921
0.800506
0.797047
0.795845
0.798183
0.796013
0.796316
0.793205
0.792592
0.792341
0.792157
0.793784
0.791644
0.791897
0.841705
0.835742
0.833172
0.833896
0.833569
0.82994
0.826627
0.822037
0.818074
0.814123
0.812954
0.809779
0.808019
0.810665
0.804796
0.807999
0.800514
0.80147
0.79304
0.796766
0.790067
0.792638
0.787573
0.788894
0.783399
0.783848
0.781119
0.781767
0.781532
0.783191
0.773133
0.79184
0.800488
0.798922
0.788176
0.774512
0.750622
0.742757
0.741375
0.742342
0.742652
0.742957
0.742313
0.747039
0.746087
0.750785
0.754318
0.75855
0.767876
0.776326
0.785906
0.795365
0.796778
0.794211
0.792768
0.785748
0.781533
0.78273
0.793031
0.797836
0.867808
0.871168
0.863641
0.851072
0.839899
0.83469
0.830176
0.826138
0.821164
0.82262
0.828122
0.830424
0.819987
0.801187
0.884136
0.881786
0.87829
0.863001
0.841422
0.825085
0.816887
0.81673
0.815954
0.818778
0.821923
0.828735
0.841013
0.858812
0.875201
0.879052
0.876149
0.871113
0.866628
0.862986
0.861437
0.861205
0.863749
0.868956
0.874966
0.877486
0.878607
0.875643
0.872667
0.883015
0.85214
0.84636
0.845824
0.846301
0.845433
0.843488
0.843728
0.847791
0.851474
0.852295
0.853334
0.856244
0.855318
0.852417
0.84476
0.84194
0.838326
0.833645
0.834832
0.832589
0.829597
0.83257
0.831215
0.830486
0.832714
0.834911
0.8357
0.835342
0.833907
0.833507
0.838218
0.836734
0.835985
0.834009
0.830841
0.834284
0.833647
0.839373
0.844223
0.8473
0.848631
0.846654
0.845369
0.845623
0.847593
0.848931
0.847488
0.848347
0.849785
0.850115
0.851653
0.85019
0.85257
0.856909
0.859654
0.859455
0.86332
0.866001
0.865418
0.866953
0.862145
0.862899
0.860584
0.855869
0.856141
0.860005
0.857899
0.853476
0.854541
0.845351
0.836564
0.841172
0.825073
0.828413
0.826912
0.824619
0.826376
0.829669
0.831781
0.834847
0.835195
0.835715
0.834898
0.83359
0.834504
0.837023
0.839395
0.844274
0.842492
0.839348
0.826286
0.820112
0.81009
0.801309
0.797568
0.797846
0.805544
0.811849
0.822929
0.827861
0.831989
0.833764
0.834876
0.83525
0.833093
0.829939
0.826134
0.820054
0.814267
0.812508
0.81248
0.810968
0.814929
0.817387
0.820583
0.824218
0.827939
0.830898
0.832797
0.833097
0.869578
0.855234
0.842783
0.835452
0.838392
0.842781
0.846715
0.847588
0.848931
0.85462
0.859783
0.857768
0.854924
0.849187
0.841974
0.840782
0.827874
0.82688
0.824268
0.828029
0.8309
0.836563
0.842461
0.848472
0.855052
0.859479
0.864387
0.877185
0.903964
0.9169
0.859385
0.833049
0.827931
0.831359
0.83251
0.831541
0.828512
0.823249
0.817346
0.8115
0.803943
0.795813
0.794566
0.78937
0.790005
0.794226
0.802153
0.807606
0.81448
0.817681
0.822821
0.824982
0.832219
0.841668
0.851095
0.851333
0.846634
0.840223
0.836141
0.835797
0.83325
0.830413
0.831076
0.83109
0.830602
0.826918
0.826335
0.82268
0.819838
0.811259
0.81717
0.810423
0.812307
0.812795
0.815816
0.820562
0.822051
0.823543
0.823576
0.819586
0.815651
0.814137
0.814346
0.813935
0.814812
0.814443
0.815053
0.812755
0.808622
0.808181
0.836263
0.834109
0.829127
0.827078
0.828814
0.831723
0.833417
0.83326
0.829854
0.826555
0.823547
0.826923
0.820395
0.825208
0.82387
0.82881
0.831572
0.834386
0.836967
0.837801
0.833918
0.82894
0.826754
0.825609
0.823307
0.814827
0.806804
0.803733
0.802031
0.808571
0.776669
0.775769
0.776892
0.778428
0.780447
0.782307
0.783868
0.785507
0.788122
0.785072
0.788803
0.792045
0.796959
0.798429
0.805167
0.803516
0.807348
0.804432
0.799872
0.800192
0.799269
0.800997
0.798783
0.797828
0.795868
0.79381
0.791394
0.790513
0.791192
0.788998
0.837945
0.832224
0.831434
0.831856
0.828299
0.824213
0.817998
0.812508
0.806847
0.804326
0.800028
0.800077
0.80076
0.800197
0.801538
0.803289
0.800886
0.80168
0.794742
0.796483
0.791548
0.792033
0.79098
0.788384
0.787764
0.784648
0.782781
0.781744
0.781487
0.782666
0.768181
0.792951
0.800872
0.789588
0.772467
0.755617
0.7404
0.738964
0.740408
0.739631
0.740655
0.740751
0.742016
0.740908
0.746363
0.746341
0.752566
0.750775
0.76286
0.765012
0.780722
0.793455
0.80346
0.802738
0.801707
0.801067
0.797206
0.796525
0.802948
0.800688
0.877516
0.867489
0.850166
0.8384
0.833682
0.831397
0.832455
0.831133
0.825255
0.817047
0.817601
0.824955
0.820781
0.80123
0.884284
0.882212
0.880524
0.869069
0.848628
0.830416
0.819331
0.817656
0.818392
0.822387
0.82297
0.828857
0.841602
0.86251
0.874412
0.872132
0.86631
0.86005
0.855312
0.853207
0.852938
0.853834
0.855946
0.859396
0.866916
0.873755
0.878107
0.877545
0.873412
0.880272
0.851283
0.844975
0.844322
0.843321
0.841323
0.840634
0.842953
0.848068
0.852673
0.854057
0.855516
0.857589
0.85361
0.846486
0.839783
0.840277
0.83211
0.836292
0.832187
0.830055
0.831225
0.828562
0.831203
0.831277
0.830044
0.832226
0.834933
0.834694
0.833054
0.832748
0.837641
0.834862
0.834681
0.831061
0.827417
0.830101
0.833885
0.836364
0.842614
0.847744
0.848571
0.845328
0.844327
0.846686
0.849486
0.84929
0.849515
0.851315
0.848807
0.846957
0.848654
0.852844
0.853409
0.856927
0.857993
0.86083
0.865446
0.865916
0.866158
0.86724
0.862969
0.863015
0.859677
0.857739
0.860057
0.861839
0.859087
0.856498
0.85155
0.843473
0.839211
0.836316
0.824725
0.829354
0.821458
0.825193
0.826749
0.82989
0.83084
0.833706
0.837284
0.837809
0.83511
0.836038
0.835063
0.837104
0.840257
0.844324
0.839164
0.838344
0.823317
0.819952
0.807796
0.797719
0.794189
0.793742
0.801224
0.811239
0.824564
0.829736
0.832396
0.833564
0.833918
0.832345
0.829785
0.825422
0.817351
0.809743
0.805994
0.803532
0.799661
0.802308
0.804317
0.811033
0.816141
0.820516
0.824623
0.828497
0.831174
0.832748
0.867685
0.853367
0.837276
0.831027
0.832397
0.839144
0.846155
0.84532
0.84843
0.857176
0.858983
0.857097
0.851803
0.84653
0.838967
0.829543
0.823179
0.822076
0.819887
0.818213
0.823376
0.829396
0.834682
0.84427
0.852134
0.857939
0.862616
0.871278
0.895895
0.914596
0.853927
0.825721
0.830197
0.831626
0.831315
0.829599
0.824868
0.818654
0.813152
0.804881
0.793507
0.790486
0.785589
0.7847
0.786294
0.785356
0.795085
0.800522
0.808056
0.816461
0.820406
0.82408
0.82897
0.836652
0.84808
0.854387
0.849943
0.839916
0.8342
0.835663
0.831129
0.830853
0.830548
0.831917
0.830455
0.82383
0.82778
0.819238
0.820375
0.812892
0.813636
0.813244
0.811661
0.812141
0.814103
0.818651
0.821583
0.821871
0.823985
0.820913
0.815679
0.813425
0.812467
0.813417
0.814494
0.81501
0.81489
0.814235
0.809583
0.807482
0.835938
0.830488
0.825246
0.826274
0.830374
0.833038
0.833806
0.830011
0.828502
0.823655
0.825911
0.817176
0.822663
0.818321
0.824365
0.824389
0.828626
0.831153
0.832612
0.833722
0.832184
0.827087
0.824637
0.824139
0.819846
0.810172
0.80415
0.799473
0.79865
0.8024
0.776038
0.775312
0.77604
0.778162
0.782304
0.783713
0.786992
0.785389
0.786162
0.789752
0.79381
0.790711
0.800416
0.795891
0.805605
0.804515
0.809605
0.806309
0.805903
0.801083
0.800389
0.800229
0.799681
0.797987
0.794364
0.792353
0.793207
0.79658
0.795531
0.795381
0.834264
0.829102
0.829589
0.827714
0.82342
0.815981
0.809399
0.801492
0.797395
0.79132
0.789431
0.789722
0.788293
0.790954
0.792701
0.797811
0.797168
0.802276
0.795313
0.794425
0.79421
0.789767
0.791902
0.788535
0.789931
0.785943
0.783777
0.782667
0.781237
0.782905
0.764399
0.788316
0.798494
0.777994
0.758182
0.744197
0.737469
0.737495
0.737364
0.738613
0.737696
0.739939
0.740007
0.742209
0.742831
0.744272
0.752102
0.749787
0.758091
0.760428
0.769443
0.785326
0.805949
0.805554
0.799537
0.801571
0.803408
0.804084
0.805047
0.795128
0.869222
0.851304
0.83812
0.829425
0.824963
0.825123
0.829639
0.83366
0.83221
0.822759
0.814232
0.820899
0.820265
0.802646
0.884483
0.881974
0.883128
0.87753
0.862128
0.845009
0.832678
0.830642
0.833658
0.835934
0.831314
0.83138
0.844501
0.866606
0.871888
0.865797
0.858193
0.852919
0.8506
0.849068
0.847506
0.846043
0.848694
0.852963
0.861619
0.868072
0.876939
0.877422
0.873629
0.880473
0.851495
0.844426
0.842586
0.840567
0.838261
0.838375
0.843764
0.849546
0.854717
0.856215
0.860262
0.857055
0.849286
0.841857
0.838302
0.837538
0.835233
0.837624
0.831096
0.83558
0.832343
0.828737
0.826127
0.828874
0.831206
0.830561
0.83194
0.834598
0.833023
0.83177
0.837331
0.834538
0.833984
0.829105
0.827005
0.828274
0.834561
0.837381
0.840961
0.847683
0.84853
0.844085
0.844402
0.848436
0.850223
0.850974
0.851513
0.849593
0.848676
0.850003
0.847377
0.849677
0.852743
0.856848
0.85743
0.862429
0.864839
0.865979
0.86658
0.86689
0.862966
0.86315
0.85841
0.861487
0.863479
0.863088
0.859145
0.856682
0.84959
0.845194
0.838143
0.834837
0.826194
0.826073
0.826286
0.823074
0.822383
0.827701
0.828125
0.836149
0.838626
0.837822
0.83849
0.838752
0.838424
0.836013
0.839
0.847786
0.841165
0.836233
0.829206
0.825237
0.812824
0.800819
0.795996
0.796353
0.80415
0.816847
0.827537
0.831415
0.832757
0.833339
0.833018
0.83089
0.826346
0.81906
0.81043
0.806131
0.797694
0.788614
0.785712
0.786971
0.791854
0.797615
0.807138
0.815435
0.822057
0.826923
0.829513
0.831389
0.867778
0.851439
0.835073
0.826719
0.826903
0.835037
0.843304
0.844225
0.848993
0.856097
0.858603
0.854836
0.851661
0.842791
0.833881
0.824327
0.820795
0.811775
0.808165
0.810861
0.817502
0.824821
0.826479
0.841427
0.848407
0.857076
0.860944
0.86897
0.891078
0.911812
0.842692
0.825853
0.830247
0.830917
0.830179
0.827016
0.821689
0.815704
0.809077
0.79647
0.78696
0.788063
0.778591
0.77762
0.779217
0.780303
0.789842
0.790824
0.80667
0.811717
0.819275
0.824053
0.827599
0.83462
0.843193
0.852403
0.853253
0.842526
0.834163
0.835572
0.830972
0.831782
0.831818
0.829741
0.830192
0.82423
0.828968
0.815634
0.824785
0.813268
0.815695
0.809949
0.813033
0.813814
0.814663
0.818188
0.819652
0.82115
0.822099
0.820487
0.817696
0.814809
0.814199
0.813843
0.814968
0.813816
0.812879
0.812699
0.809458
0.806939
0.831458
0.824069
0.821133
0.825163
0.830322
0.832747
0.831075
0.826977
0.827587
0.823514
0.817553
0.817585
0.811861
0.819678
0.817773
0.824874
0.823715
0.827063
0.829413
0.831232
0.830075
0.824525
0.821651
0.819129
0.814917
0.805772
0.795642
0.791565
0.79426
0.798298
0.775053
0.774098
0.77635
0.778117
0.781054
0.780619
0.782584
0.783652
0.789625
0.792491
0.790907
0.79143
0.799789
0.795179
0.808118
0.801722
0.810496
0.810747
0.807303
0.803627
0.80534
0.80562
0.803738
0.801416
0.799259
0.799362
0.798208
0.794265
0.795684
0.793612
0.833112
0.828085
0.826795
0.823733
0.816605
0.80923
0.800909
0.793066
0.78742
0.782212
0.782018
0.778719
0.780001
0.781345
0.786183
0.788938
0.795287
0.797831
0.797035
0.793303
0.795057
0.790163
0.791293
0.789113
0.79028
0.786952
0.783613
0.782059
0.78311
0.783163
0.760813
0.77979
0.796896
0.769183
0.74986
0.739034
0.736462
0.736995
0.737131
0.737591
0.739036
0.737077
0.740926
0.742325
0.743983
0.74186
0.751641
0.749028
0.759912
0.756743
0.766326
0.77397
0.80008
0.812998
0.802836
0.787248
0.797435
0.803233
0.800646
0.790433
0.857525
0.842671
0.829617
0.819128
0.811158
0.809647
0.816079
0.8263
0.83309
0.826213
0.814255
0.815424
0.817258
0.800132
0.884462
0.882441
0.88365
0.884256
0.877882
0.865846
0.855893
0.854319
0.856934
0.853435
0.839853
0.834422
0.8471
0.867301
0.866003
0.857218
0.851306
0.848753
0.844611
0.840292
0.838535
0.841714
0.841595
0.848289
0.853371
0.86707
0.873729
0.877383
0.8756
0.879406
0.851863
0.84425
0.841279
0.839483
0.838564
0.839974
0.846104
0.853635
0.858486
0.860159
0.862645
0.854412
0.843853
0.842477
0.835755
0.842516
0.835375
0.835049
0.832173
0.828578
0.827095
0.830938
0.830164
0.825483
0.825997
0.830979
0.83348
0.832961
0.831399
0.83035
0.836288
0.834962
0.832134
0.828935
0.826102
0.829137
0.834819
0.83769
0.842552
0.847727
0.84844
0.845029
0.845972
0.849791
0.852532
0.851987
0.852554
0.851123
0.84767
0.849775
0.852984
0.854402
0.849951
0.857673
0.8585
0.861942
0.863906
0.865906
0.866428
0.866376
0.862901
0.862726
0.860299
0.864499
0.864981
0.864134
0.859572
0.85565
0.849646
0.847012
0.835535
0.834752
0.823926
0.825936
0.818642
0.821369
0.823937
0.822618
0.833754
0.835933
0.836179
0.841749
0.842625
0.839557
0.84047
0.841504
0.839461
0.844277
0.840819
0.83815
0.826674
0.825242
0.817283
0.808595
0.803485
0.805455
0.813741
0.824569
0.829696
0.832094
0.833878
0.832545
0.831887
0.829516
0.823769
0.816112
0.807499
0.800166
0.788593
0.782572
0.782356
0.783432
0.788079
0.794347
0.802482
0.810672
0.818182
0.82491
0.829522
0.830362
0.867794
0.849533
0.833557
0.824545
0.823168
0.830222
0.841685
0.84393
0.845601
0.855306
0.856979
0.855207
0.849218
0.840267
0.8331
0.824355
0.811776
0.809366
0.804201
0.80371
0.811098
0.82302
0.822306
0.837834
0.848219
0.853973
0.861467
0.867037
0.889785
0.908313
0.832289
0.826859
0.827894
0.828677
0.828534
0.825666
0.819104
0.814138
0.804113
0.790825
0.785879
0.782406
0.770687
0.771224
0.77355
0.773529
0.785922
0.78862
0.802503
0.80918
0.819206
0.824085
0.829111
0.833617
0.843259
0.85092
0.85175
0.841571
0.834084
0.83524
0.831542
0.831183
0.832262
0.829293
0.828919
0.824193
0.828438
0.815844
0.824784
0.809827
0.818635
0.809454
0.811042
0.813904
0.815843
0.817147
0.817078
0.822667
0.822976
0.82198
0.818712
0.816544
0.815813
0.815632
0.814866
0.813165
0.811867
0.812681
0.809714
0.805748
0.82634
0.816891
0.819952
0.825788
0.830444
0.829867
0.829252
0.824085
0.829267
0.815361
0.819409
0.812173
0.818812
0.811378
0.81658
0.81868
0.82321
0.823648
0.827799
0.827043
0.825828
0.822866
0.81937
0.818093
0.81197
0.797876
0.790482
0.792264
0.792357
0.795254
0.771017
0.773976
0.777234
0.779554
0.781427
0.781833
0.785366
0.788096
0.796837
0.796187
0.804053
0.796861
0.809363
0.792737
0.809285
0.801346
0.814075
0.810261
0.80955
0.806279
0.804509
0.80525
0.806493
0.804247
0.804334
0.802471
0.800257
0.801486
0.799714
0.800781
0.829937
0.823173
0.823074
0.819669
0.812596
0.801663
0.796373
0.78583
0.781206
0.777143
0.773113
0.773274
0.772814
0.776707
0.778578
0.78489
0.78988
0.794107
0.798401
0.79477
0.794997
0.789846
0.79245
0.787732
0.789687
0.788294
0.786556
0.785866
0.783232
0.784984
0.759059
0.768704
0.794982
0.767883
0.745214
0.738014
0.735898
0.735973
0.735899
0.73619
0.736012
0.740026
0.73864
0.74084
0.748736
0.74175
0.753156
0.74832
0.759182
0.756937
0.768411
0.767476
0.787862
0.819945
0.818157
0.789956
0.781778
0.786414
0.787531
0.785454
0.846478
0.832721
0.816012
0.800989
0.795158
0.795685
0.800327
0.812857
0.825079
0.824563
0.813093
0.814732
0.815376
0.798998
0.885119
0.882176
0.884076
0.887211
0.888829
0.885843
0.88328
0.882995
0.88242
0.870261
0.847585
0.837561
0.850607
0.869358
0.862834
0.852784
0.850592
0.847808
0.842587
0.835962
0.83214
0.833957
0.838483
0.846398
0.851626
0.864321
0.87257
0.878807
0.873737
0.881674
0.853389
0.845831
0.842379
0.840522
0.840571
0.846014
0.851911
0.859309
0.864579
0.865792
0.862442
0.849923
0.841876
0.842657
0.837989
0.843155
0.832239
0.837166
0.829236
0.829306
0.826507
0.82354
0.825354
0.829527
0.826991
0.827938
0.83344
0.832573
0.831791
0.830474
0.839265
0.836602
0.836271
0.831587
0.829784
0.833328
0.835552
0.839467
0.843211
0.849818
0.847703
0.84356
0.847784
0.852196
0.853995
0.85333
0.852459
0.851327
0.845447
0.848167
0.845757
0.85258
0.849676
0.860266
0.858532
0.860455
0.863705
0.865622
0.865499
0.865828
0.863472
0.863459
0.864666
0.866715
0.866097
0.864355
0.859652
0.855144
0.850179
0.847891
0.833034
0.835426
0.825623
0.822622
0.818209
0.820249
0.818887
0.828383
0.833341
0.833009
0.840257
0.845386
0.843322
0.842358
0.840895
0.842948
0.845457
0.841728
0.835735
0.834824
0.833338
0.831821
0.823368
0.815789
0.812881
0.815617
0.822993
0.829371
0.832671
0.834415
0.833445
0.833744
0.8322
0.828145
0.824952
0.815671
0.805262
0.799333
0.788038
0.780574
0.77833
0.777689
0.781376
0.79275
0.797654
0.809502
0.817433
0.8248
0.828823
0.832083
0.863911
0.8517
0.836508
0.824787
0.819749
0.827054
0.84049
0.840879
0.84332
0.853004
0.857314
0.853068
0.848809
0.840109
0.834992
0.819461
0.816867
0.80585
0.804519
0.803357
0.80997
0.820815
0.823219
0.834293
0.85051
0.852428
0.861017
0.868417
0.88893
0.907147
0.826712
0.826024
0.825199
0.825824
0.827246
0.824172
0.818579
0.812434
0.799761
0.789989
0.786413
0.777398
0.769777
0.770196
0.77417
0.7701
0.785435
0.785609
0.799505
0.80912
0.818623
0.825191
0.830103
0.833194
0.842099
0.850776
0.848477
0.837826
0.833993
0.834128
0.834559
0.832079
0.831307
0.828388
0.830704
0.821185
0.829596
0.814235
0.823397
0.810417
0.817899
0.808655
0.810816
0.815998
0.817146
0.814202
0.818335
0.822254
0.822901
0.82221
0.822162
0.818119
0.817475
0.817791
0.813514
0.809507
0.808491
0.81055
0.807864
0.805111
0.821132
0.810472
0.816887
0.824537
0.827921
0.827047
0.827431
0.823724
0.827738
0.811762
0.818898
0.810899
0.806982
0.812964
0.809406
0.817651
0.817402
0.822223
0.82428
0.824835
0.825872
0.819144
0.813796
0.813413
0.80265
0.790196
0.788857
0.786499
0.78869
0.790339
0.764932
0.77428
0.779721
0.778527
0.783543
0.779534
0.788568
0.785321
0.795162
0.793548
0.800514
0.794043
0.809506
0.79729
0.810803
0.803088
0.812608
0.812605
0.812348
0.806403
0.80683
0.808488
0.805542
0.806687
0.804124
0.804426
0.806443
0.80515
0.807874
0.804214
0.831114
0.824064
0.821013
0.817006
0.808985
0.799987
0.791798
0.780341
0.778911
0.77177
0.770774
0.768058
0.771098
0.770478
0.776444
0.780351
0.78704
0.79129
0.798566
0.795974
0.796731
0.79044
0.792505
0.789092
0.789923
0.788603
0.787486
0.785624
0.785165
0.785072
0.767704
0.759951
0.773085
0.779872
0.748567
0.737406
0.736095
0.735895
0.736099
0.736228
0.737925
0.73861
0.742216
0.740335
0.751351
0.741801
0.756849
0.747403
0.759198
0.757315
0.768461
0.767524
0.779452
0.81348
0.838029
0.814534
0.788
0.787836
0.793145
0.799329
0.844016
0.825673
0.80286
0.790636
0.790363
0.796197
0.798772
0.804755
0.816856
0.818606
0.810268
0.812662
0.812147
0.796675
0.810979
0.842287
0.879561
0.883092
0.884784
0.888376
0.891883
0.896651
0.899899
0.899898
0.897333
0.879106
0.851353
0.839365
0.85395
0.868017
0.856751
0.850694
0.849866
0.845153
0.835413
0.82869
0.825924
0.831317
0.834265
0.845842
0.850656
0.863985
0.874405
0.876777
0.876537
0.884452
0.887865
0.868739
0.853054
0.846748
0.84398
0.843119
0.846045
0.851767
0.858933
0.868109
0.871878
0.869739
0.859426
0.848554
0.841094
0.844542
0.838171
0.843904
0.831276
0.835738
0.824733
0.828913
0.823132
0.825964
0.822927
0.824791
0.828089
0.827597
0.830362
0.831632
0.82941
0.830211
0.83425
0.834048
0.839392
0.837929
0.835817
0.832396
0.833782
0.833602
0.838177
0.842369
0.847096
0.851791
0.849398
0.847252
0.851352
0.854105
0.855759
0.854961
0.852827
0.850714
0.847158
0.846841
0.845287
0.851999
0.847661
0.860368
0.856986
0.860296
0.862425
0.864303
0.864449
0.865086
0.854247
0.850189
0.861906
0.862668
0.865241
0.865447
0.864723
0.863071
0.85935
0.854967
0.850593
0.847257
0.834842
0.834345
0.828914
0.817961
0.81495
0.81698
0.824934
0.831475
0.829306
0.836535
0.844456
0.844282
0.845971
0.844765
0.844984
0.844015
0.847674
0.839772
0.833587
0.831834
0.832826
0.829078
0.833589
0.834976
0.832537
0.828049
0.826826
0.828863
0.832162
0.833515
0.834565
0.834729
0.833009
0.833406
0.832869
0.830014
0.824632
0.819899
0.806845
0.799391
0.793751
0.782758
0.779316
0.780428
0.785645
0.791563
0.798429
0.810114
0.817242
0.823437
0.830524
0.831325
0.83251
0.855245
0.865367
0.854698
0.838714
0.825047
0.820139
0.82606
0.836241
0.840224
0.839974
0.850959
0.854734
0.854704
0.848697
0.846068
0.833165
0.82477
0.817459
0.809365
0.805307
0.806086
0.814693
0.818706
0.826705
0.836618
0.849325
0.854841
0.861183
0.869946
0.89146
0.899392
0.837199
0.819392
0.822895
0.819638
0.817767
0.821461
0.824541
0.823566
0.818719
0.811881
0.798827
0.79294
0.78516
0.777216
0.770748
0.771906
0.771363
0.772287
0.786257
0.785014
0.801664
0.809719
0.819933
0.826593
0.831039
0.836667
0.843613
0.85355
0.841441
0.835203
0.834316
0.833557
0.834017
0.834791
0.832724
0.830558
0.829521
0.827043
0.8298
0.820736
0.829423
0.813598
0.822102
0.808799
0.816531
0.809423
0.811941
0.814802
0.814416
0.814316
0.820923
0.823292
0.823147
0.825187
0.824074
0.822629
0.819954
0.817895
0.812301
0.807416
0.809265
0.810782
0.807916
0.807679
0.810908
0.80073
0.805995
0.80325
0.81268
0.822099
0.824801
0.825516
0.827429
0.822839
0.823774
0.811241
0.81985
0.80618
0.810511
0.809042