/*--------------------------------*- C++ -*----------------------------------*\
| =========                 |                                                 |
| \\      /  F ield         | OpenFOAM: The Open Source CFD Toolbox           |
|  \\    /   O peration     | Version:  2.1.1                                 |
|   \\  /    A nd           | Web:      www.OpenFOAM.org                      |
|    \\/     M anipulation  |                                                 |
\*---------------------------------------------------------------------------*/
FoamFile
{
    version     2.0;
    format      ascii;
    class       volScalarField;
    location    "0.007600000";
    object      sL;
}
// * * * * * * * * * * * * * * * * * * * * * * * * * * * * * * * * * * * * * //

dimensions      [0 1 -1 0 0 0 0];

internalField   nonuniform List<scalar> 
12384
(
7.86752
7.56858
7.2355
6.94122
6.73448
6.65601
6.69015
6.80284
7.00403
7.26713
7.62933
8.10394
8.54414
9.27537
3.16157
3.43871
3.39066
3.44335
3.74104
4.10912
4.27974
4.35638
4.30769
4.31032
4.23721
4.21897
4.17439
4.13115
4.08959
4.04595
4.01464
3.9855
3.96642
3.95752
3.95918
3.96984
3.977
3.98668
3.98772
3.96152
3.82442
3.57764
3.33319
2.72948
3.31425
3.3343
3.35134
3.35047
3.3404
3.34585
3.35925
3.38044
3.39047
3.39882
3.3932
3.39554
3.38354
3.36519
3.36553
3.30178
3.29785
3.25564
3.25323
3.2144
3.23531
3.23569
3.25602
3.27011
3.28972
3.30381
3.31313
3.28058
3.20875
3.21133
2.92696
2.98168
2.91954
2.90161
2.88933
2.91356
2.91926
2.95649
2.9737
3.00688
3.02977
3.04047
3.0444
3.04064
3.03917
3.03842
3.02281
3.02629
3.02484
3.03669
3.01432
3.06743
3.0704
3.14318
3.15539
3.22393
3.27336
3.28031
3.2492
3.20049
3.64187
3.55284
3.53224
3.55561
3.55594
3.54415
3.52216
3.54759
3.42718
3.46619
3.31385
3.34423
3.16142
3.24048
3.12136
3.17911
3.19264
3.23984
3.29246
3.33398
3.3526
3.22505
2.87714
2.83198
2.84822
2.85886
2.85312
2.83211
2.83083
2.80042
2.80343
2.82587
2.87564
2.97518
3.01362
3.03521
3.06591
3.07599
3.07364
3.08573
3.10344
3.12951
3.14745
3.15851
3.16014
3.15258
3.1366
3.11703
3.08548
3.08313
3.06372
3.03189
3.0311
3.02489
3.02539
3.02052
3.01533
3.03216
3.13708
3.21245
2.08608
2.19955
2.28562
2.38212
2.41012
2.44896
2.43697
2.43475
2.41007
2.3814
2.35308
2.28428
2.21807
2.1802
2.09765
2.03039
2.03283
1.96033
1.97371
1.94436
2.02508
2.03297
2.08597
2.11903
2.10634
2.02492
1.49814
1.4156
1.48052
1.52382
2.86866
3.1929
3.32995
3.45318
3.50507
3.52094
3.50989
3.47976
3.42946
3.36432
3.28494
3.24328
3.18917
3.17372
3.16237
3.22135
3.32391
3.41308
3.51576
3.53526
3.27386
3.03612
3.02934
3.0463
3.06543
3.07774
3.0774
3.08599
3.08317
3.06623
3.08743
3.13855
3.18134
3.19195
3.16982
3.13172
3.08848
3.0113
2.87261
2.89903
2.82487
2.75735
2.74449
2.82981
2.87615
2.97282
3.05
3.09979
3.0509
3.04094
3.06056
3.05265
3.05632
3.04797
3.05943
3.06474
3.08497
3.06536
2.95772
2.84376
2.61342
2.58841
2.61623
2.65654
2.7132
2.751
2.74847
2.71812
2.66258
2.58782
2.55057
2.43897
2.42341
2.42276
2.48272
2.54353
2.59424
2.62293
2.66769
2.75682
2.75847
2.74195
2.74644
2.69557
2.71776
2.64824
2.68471
2.60996
2.67381
2.62249
1.96726
1.97946
2.02867
2.05975
2.08847
2.10991
2.10493
2.1087
2.0598
2.13036
2.08898
2.20269
2.18345
2.21021
2.20349
2.17601
2.07549
1.96714
1.91003
1.84106
1.78345
1.74473
1.72211
1.70497
1.69802
1.67932
1.68288
1.71137
1.74849
1.91138
1.56664
1.55655
1.75775
2.09546
2.00613
1.92094
1.88529
1.85874
1.81315
1.81328
1.75178
1.74911
1.67063
1.68156
1.60411
1.62428
1.53835
1.55749
1.47483
1.49945
1.46965
1.46711
1.46973
1.46615
1.46769
1.46318
1.46163
1.45697
1.45857
1.45527
1.57883
1.56551
1.51152
1.53871
1.55276
1.63353
1.78364
2.70052
3.19996
3.2365
3.22279
3.23963
3.20515
3.24954
3.20726
3.28823
3.24207
3.31752
3.27832
3.31051
3.32259
3.38472
3.41878
3.48887
3.49627
3.52276
3.53331
3.52661
3.43258
3.16927
7.10029
6.58784
6.00931
5.72606
5.67118
5.71883
5.81818
5.91668
6.01778
6.20667
6.5729
7.27937
8.17846
9.18114
3.20039
3.42079
3.38814
3.63761
4.21939
4.73494
4.87211
4.7428
4.52732
4.39532
4.26335
4.18275
4.08158
3.97613
3.86769
3.79291
3.76295
3.7594
3.77299
3.7876
3.80729
3.83202
3.87501
3.91596
3.9553
3.97409
3.91878
3.73504
3.50681
3.13744
3.32721
3.33458
3.33709
3.32707
3.34257
3.40356
3.49417
3.58863
3.67201
3.69824
3.68468
3.62967
3.56212
3.48806
3.39041
3.33145
3.25915
3.21412
3.19307
3.1897
3.16831
3.18818
3.20564
3.22256
3.23913
3.26361
3.29028
3.30003
3.26435
3.21802
2.96175
2.96277
2.90266
2.8822
2.90518
2.91231
2.93934
2.9911
3.01082
3.05284
3.08752
3.11531
3.12256
3.11333
3.10347
3.08115
3.06598
3.04542
3.01018
2.99071
3.00885
3.02806
3.04731
3.07565
3.1192
3.20582
3.23982
3.2677
3.2978
3.27168
3.646
3.54108
3.5291
3.5423
3.52727
3.51052
3.50048
3.46432
3.40186
3.47474
3.30633
3.26694
3.24278
3.17908
3.14614
3.15355
3.19614
3.24106
3.27347
3.31354
3.36671
3.34461
3.09373
2.86625
2.87606
2.87606
2.84199
2.82488
2.85715
2.89757
2.83085
2.85983
2.95593
3.04639
3.13766
3.13112
3.10134
3.027
2.99797
2.94263
2.94183
2.96353
2.99741
3.02105
3.05622
3.08905
3.10599
3.12144
3.13736
3.12608
3.09838
3.09166
3.08977
3.08029
3.06492
3.04986
3.03232
3.03394
3.09833
3.19479
2.10199
2.28577
2.47246
2.6278
2.6337
2.58207
2.52758
2.48452
2.43011
2.36416
2.24679
2.14579
2.07202
2.00706
1.97189
1.90362
1.88785
1.89827
1.88639
1.90511
1.92589
1.96092
2.0372
2.05719
2.08503
2.07959
1.82581
1.52202
1.48128
1.57911
2.78483
3.16836
3.40565
3.50717
3.47491
3.42102
3.37206
3.32315
3.26788
3.19811
3.13897
3.08037
3.01561
2.99495
3.037
3.0741
3.13861
3.23108
3.3556
3.47356
3.45672
3.23301
3.04006
3.00177
3.018
3.03711
3.0842
3.11537
3.15789
3.15291
3.02744
3.11093
3.2012
3.19535
3.136
3.06436
2.96204
2.81202
2.77035
2.71799
2.56466
2.58697
2.6157
2.63217
2.70391
2.81206
2.91856
3.04281
3.11134
3.05454
3.01346
2.99305
2.96623
2.95617
2.94266
2.94973
2.9929
3.09748
3.09815
2.89772
2.60036
2.58456
2.62874
2.7477
2.84809
2.85011
2.77847
2.66536
2.54175
2.4319
2.33101
2.24715
2.2174
2.24998
2.29222
2.37021
2.44783
2.51334
2.57857
2.67669
2.76598
2.73984
2.71105
2.68659
2.66035
2.62477
2.60645
2.63048
2.63286
2.65573
1.94576
1.94964
1.97028
2.01347
2.03061
1.9959
1.94741
1.89185
1.90544
1.84588
1.92158
2.00569
2.05792
2.14491
2.19766
2.20638
2.19861
2.09511
2.00203
1.79616
1.70697
1.64976
1.62925
1.61958
1.61601
1.6266
1.65653
1.67021
1.75069
1.89209
1.73375
1.89529
2.0495
2.05804
1.97226
1.9331
1.9256
1.90851
1.92468
1.88661
1.86696
1.80845
1.7692
1.70759
1.66014
1.63891
1.56109
1.58709
1.48583
1.49187
1.46774
1.45977
1.45675
1.45514
1.45926
1.46084
1.46064
1.4577
1.45776
1.45578
1.79509
1.61462
1.47782
1.47719
1.51947
1.7325
2.36038
3.07385
3.24627
3.27685
3.29671
3.32653
3.36977
3.38847
3.38639
3.41613
3.36898
3.34684
3.25245
3.18177
3.12328
3.11071
3.24701
3.34953
3.44468
3.52245
3.53508
3.547
3.4186
3.17982
6.31751
5.64995
5.40005
5.44836
5.64563
5.86688
6.11064
6.33497
6.42493
6.36669
6.31998
6.60253
7.57938
8.9856
3.24023
3.42063
3.39803
3.81027
4.62038
5.20615
5.22288
5.0353
4.84361
4.74502
4.5127
4.25638
4.05082
3.87944
3.73126
3.67943
3.69023
3.72606
3.77263
3.82274
3.86934
3.89736
3.93441
3.96274
3.98276
4.00009
3.97756
3.85522
3.63104
3.33271
3.31567
3.31956
3.31568
3.3294
3.41917
3.568
3.70349
3.83469
3.90917
3.9304
3.89761
3.80471
3.64985
3.47652
3.36285
3.29481
3.23145
3.2467
3.19087
3.20636
3.20782
3.17652
3.17556
3.20091
3.21537
3.22131
3.24818
3.27856
3.27846
3.23002
2.95844
2.93263
2.87985
2.89999
2.91709
2.95924
2.94692
3.01135
3.0185
3.06709
3.11856
3.17453
3.18767
3.16748
3.12559
3.0907
3.05345
2.99255
2.96616
2.95498
2.93035
2.97075
2.98874
3.01858
3.09516
3.13552
3.17521
3.25326
3.28764
3.28674
3.64737
3.53087
3.51878
3.52439
3.45742
3.4536
3.475
3.44549
3.46505
3.51158
3.30223
3.39386
3.32433
3.19453
3.19182
3.20564
3.20849
3.24585
3.27102
3.29992
3.33333
3.37111
3.26494
3.00587
2.90654
2.83762
2.79468
2.79708
2.81711
2.85762
2.8123
2.88645
3.02722
3.16594
3.26418
3.20487
3.13022
3.00145
2.95091
2.87816
2.87373
2.88481
2.9389
3.00933
3.10694
3.20309
3.29227
3.37191
3.39242
3.37401
3.36273
3.3286
3.25701
3.20603
3.16001
3.11386
3.06973
3.03916
3.07154
3.16986
2.10676
2.37428
2.65551
2.76301
2.65622
2.55541
2.46433
2.42775
2.37593
2.22543
2.0814
2.01033
1.94422
1.939
1.90588
1.92362
1.93302
1.93034
1.93737
1.93342
1.9663
1.95966
2.01055
2.02895
2.05497
2.0689
1.99806
1.72555
1.5189
1.54938
2.70321
3.13595
3.50303
3.44692
3.364
3.31176
3.28133
3.25498
3.2178
3.17849
3.15391
3.06835
3.05038
3.05247
3.03073
3.06043
3.08342
3.13017
3.21621
3.33003
3.43505
3.39536
3.19585
3.04216
2.96377
2.97754
3.03401
3.0708
3.13005
3.17612
3.04041
3.17307
3.23581
3.16728
3.05216
2.95785
2.81355
2.68412
2.67288
2.51795
2.47881
2.4889
2.46489
2.52762
2.56628
2.6677
2.77382
2.8981
3.02876
3.07023
2.99592
2.94279
2.91312
2.90978
2.90732
2.87355
2.86408
2.95002
3.10047
2.9814
2.58913
2.58374
2.70813
2.89209
2.91509
2.8013
2.62292
2.44724
2.31801
2.17208
2.0921
2.01852
2.00703
1.99755
2.06952
2.1466
2.2623
2.35829
2.44272
2.54929
2.67648
2.72758
2.68804
2.67046
2.61329
2.56286
2.55725
2.55224
2.63353
2.61654
1.89454
1.87003
1.97896
2.01497
1.96628
1.86867
1.76745
1.69364
1.6247
1.68469
1.66057
1.72936
1.88624
1.94217
2.08166
2.13948
2.1715
2.20195
2.14348
1.89893
1.72444
1.61585
1.63746
1.62859
1.69546
1.74858
1.74966
1.75226
1.7749
1.95742
1.89524
2.08466
2.10081
2.02849
1.99635
2.00603
2.06127
2.0934
2.12975
2.10518
2.11278
2.01378
1.93078
1.85554
1.71231
1.66136
1.5567
1.54656
1.46954
1.46191
1.45055
1.44145
1.42997
1.42235
1.42675
1.44013
1.455
1.45521
1.45722
1.45623
2.00717
1.61115
1.46695
1.51445
1.74687
2.24057
2.92119
3.25476
3.29389
3.36328
3.44361
3.51236
3.56889
3.65827
3.65803
3.67747
3.66355
3.57197
3.50915
3.28932
3.07806
2.95109
2.97473
3.05918
3.2069
3.36239
3.48106
3.48871
3.30816
3.12654
5.41717
5.24907
5.4205
5.69579
5.88654
6.02457
6.15783
6.451
6.93948
7.08152
6.76427
6.52963
7.09826
8.76052
3.24559
3.40613
3.37039
3.80352
4.71782
5.39636
5.58438
5.57875
5.50051
5.35167
5.00006
4.46719
4.04944
3.7951
3.64671
3.64243
3.70428
3.7998
3.90699
3.99461
4.05201
4.07815
4.0872
4.09058
4.0835
4.0641
4.04609
3.93652
3.71987
3.4252
3.30253
3.30991
3.30361
3.34763
3.47861
3.61826
3.70994
3.79567
3.88492
3.92813
3.90728
3.74451
3.50534
3.36769
3.28391
3.28424
3.2795
3.24021
3.26117
3.24441
3.20014
3.23015
3.1994
3.17947
3.1929
3.20317
3.21949
3.25379
3.27634
3.23543
2.95274
2.91328
2.88072
2.92771
2.94619
2.9882
2.94902
2.98725
3.02099
3.05964
3.1294
3.20957
3.21143
3.14757
3.0968
3.04559
2.96716
2.92166
2.89924
2.87589
2.87096
2.85656
2.90327
2.97224
3.03021
3.05975
3.14779
3.22019
3.25792
3.29498
3.65698
3.53097
3.51601
3.46647
3.39721
3.47496
3.5224
3.51113
3.58182
3.51647
3.43989
3.54485
3.35541
3.38009
3.34388
3.28136
3.27182
3.28461
3.28737
3.30286
3.31571
3.36094
3.3532
3.15889
2.96618
2.89105
2.80887
2.76712
2.81598
2.90123
2.84997
2.91232
3.09895
3.293
3.39196
3.34651
3.25607
3.07358
2.96676
2.87691
2.86158
2.88895
2.96644
3.10561
3.26419
3.42934
3.58424
3.68238
3.73068
3.77833
3.78132
3.67709
3.58605
3.44026
3.31359
3.21138
3.13325
3.07088
3.06457
3.15157
2.10439
2.44437
2.76947
2.84034
2.71336
2.56555
2.45343
2.42519
2.32813
2.12338
1.99417
1.92418
1.91869
1.93392
1.95731
2.06018
2.00925
2.06631
2.08028
2.09166
2.07557
2.06833
2.04418
2.04269
2.04856
2.05385
2.05161
1.88674
1.57943
1.53838
2.71313
3.37006
3.46715
3.35892
3.3024
3.27276
3.25729
3.23547
3.219
3.21318
3.17472
3.10606
3.11984
3.05379
3.04607
3.0702
3.10928
3.12125
3.15739
3.2179
3.36267
3.42037
3.34358
3.15565
3.00737
2.9425
2.99054
3.07549
3.15303
3.2256
3.15877
3.26368
3.23588
3.10247
2.96166
2.80756
2.71438
2.62084
2.54404
2.40668
2.46009
2.37403
2.38589
2.41665
2.48279
2.5808
2.6579
2.76312
2.9014
3.02063
3.01199
2.93977
2.90788
2.91378
2.90843
2.85691
2.81262
2.83108
3.02955
3.01927
2.55426
2.60336
2.87705
3.00387
2.85365
2.61209
2.40496
2.25362
2.10993
2.00295
1.93291
1.92656
1.85658
1.88255
1.9001
1.98398
2.07182
2.18161
2.29787
2.42204
2.56809
2.6716
2.65718
2.63438
2.58932
2.52289
2.48598
2.51714
2.56426
2.63268
1.83952
1.92864
2.05638
1.98812
1.83171
1.687
1.5789
1.5197
1.50027
1.44834
1.49112
1.55051
1.65892
1.77113
1.939
2.00593
2.12152
2.17538
2.19969
2.02374
1.75245
1.68115
1.68428
1.72968
1.80867
1.86055
1.8351
1.77173
1.82538
1.95638
1.98673
2.14085
2.08782
2.04371
2.06997
2.17115
2.27716
2.38437
2.44941
2.50026
2.4587
2.39704
2.28902
2.11339
1.93141
1.76818
1.60242
1.53585
1.46355
1.45912
1.44905
1.43163
1.41274
1.39276
1.38748
1.40682
1.43617
1.45341
1.45544
1.45647
2.13766
1.61756
1.46784
1.77216
2.19625
2.78488
3.18764
3.32672
3.39766
3.48929
3.60963
3.70603
3.77778
3.8128
3.89895
3.88633
3.92042
3.79679
3.84089
3.56817
3.36225
2.95684
2.84411
2.8909
2.96929
3.04581
3.24706
3.28567
3.12239
3.15531
5.07773
5.34404
5.62251
5.69199
5.63385
5.52864
5.48455
5.61213
6.19603
7.09978
7.19682
6.73745
6.92025
8.50468
3.25322
3.41092
3.33349
3.64324
4.5271
5.35308
5.71761
5.8358
5.77198
5.57297
5.22732
4.59615
4.01615
3.70741
3.59669
3.65345
3.78334
3.96663
4.15992
4.32469
4.41904
4.43104
4.37336
4.29446
4.23698
4.17394
4.12321
4.01741
3.78564
3.46874
3.28647
3.29949
3.31055
3.35539
3.45533
3.55172
3.60621
3.66714
3.78658
3.87501
3.82149
3.5624
3.3609
3.29854
3.29012
3.33423
3.26114
3.30797
3.27691
3.23999
3.25126
3.21972
3.24237
3.21837
3.18314
3.18762
3.20711
3.22759
3.25408
3.23166
2.94513
2.88134
2.89249
2.94977
2.95637
2.95846
2.95563
2.9537
3.01423
3.05965
3.13951
3.24648
3.20358
3.1156
3.05231
2.96349
2.88895
2.85554
2.78702
2.73726
2.75272
2.79643
2.82206
2.88087
2.93812
3.01929
3.11773
3.16917
3.23473
3.29007
3.67957
3.53727
3.49311
3.37704
3.42531
3.54803
3.59402
3.61909
3.63485
3.58915
3.59616
3.61644
3.48816
3.57322
3.4531
3.46007
3.4231
3.38786
3.33404
3.31674
3.3391
3.35883
3.3637
3.29961
3.09772
2.97753
2.95161
2.80493
2.80774
2.91281
2.80357
2.90895
3.11405
3.3355
3.44531
3.44791
3.34168
3.09986
2.95567
2.87517
2.86074
2.90697
3.03694
3.23281
3.45
3.65404
3.79891
3.9294
4.07976
4.18298
4.15498
4.10071
3.93547
3.77028
3.55735
3.36344
3.21119
3.10453
3.05929
3.1382
2.08826
2.50012
2.83555
2.94197
2.82703
2.63093
2.4657
2.41932
2.29656
2.05857
1.91954
1.8859
1.90628
1.97509
2.05529
2.11239
2.18659
2.29148
2.30991
2.28867
2.25965
2.20915
2.12128
2.09399
2.06474
2.04548
2.05035
1.95925
1.65091
1.5416
2.84567
3.55032
3.39517
3.31525
3.28172
3.25604
3.23205
3.21723
3.23643
3.22796
3.14773
3.15543
3.12452
3.11565
3.12485
3.08194
3.15046
3.136
3.13762
3.19883
3.2764
3.39108
3.42332
3.30455
3.10995
2.99485
3.01288
3.07365
3.12837
3.23751
3.32826
3.32366
3.17459
3.02176
2.88104
2.69865
2.66183
2.52064
2.47095
2.37266
2.36122
2.35269
2.34525
2.35586
2.40606
2.4972
2.58362
2.66133
2.80008
2.93369
2.99646
2.94411
2.89601
2.91335
2.90794
2.86292
2.78919
2.77917
2.95504
3.0313
2.57138
2.72269
3.09631
2.99577
2.68648
2.43485
2.26411
2.11784
2.00087
1.89629
1.86306
1.76721
1.77469
1.74588
1.79914
1.8381
1.93508
2.04109
2.15274
2.28092
2.44267
2.59511
2.63556
2.62757
2.54914
2.49159
2.50025
2.49543
2.54301
2.58099
1.87053
2.09226
2.07101
1.87324
1.69145
1.55197
1.47418
1.40822
1.37419
1.39013
1.43512
1.42643
1.54635
1.59989
1.78744
1.90641
2.04161
2.11813
2.23363
2.05821
1.7743
1.67524
1.68724
1.72067
1.79272
1.8917
1.95978
1.98809
1.98634
2.07182
2.0021
2.14108
2.09888
2.09491
2.20966
2.3604
2.54947
2.69269
2.83998
2.8725
2.87513
2.82209
2.66944
2.4853
2.23279
2.00436
1.71975
1.5931
1.45882
1.46084
1.45042
1.43346
1.4107
1.37879
1.36667
1.38423
1.41967
1.44577
1.45288
1.4562
2.24594
1.72808
1.50202
2.0967
2.61114
3.08829
3.32168
3.38781
3.4882
3.6275
3.736
3.85372
3.92244
3.97496
4.00666
4.00596
4.08353
3.95773
3.9889
3.85407
3.69089
3.25974
2.86673
2.83686
3.02037
3.07683
3.01644
3.05226
3.05265
3.20822
5.26997
5.53598
5.51304
5.50391
5.51773
5.52746
5.30685
5.1695
5.37489
6.42414
7.38849
7.05273
6.93855
8.37451
3.23632
3.4133
3.27783
3.42536
4.07115
4.86837
5.34622
5.51002
5.41439
5.21821
5.09262
4.57508
3.95307
3.63854
3.59636
3.70996
3.93733
4.24936
4.58554
4.85529
4.97141
4.90349
4.76342
4.58607
4.4486
4.30223
4.21646
4.07561
3.82633
3.50085
3.27597
3.29992
3.32205
3.35506
3.40392
3.45808
3.51679
3.6092
3.74141
3.80038
3.6818
3.37324
3.31864
3.31257
3.33383
3.33298
3.29983
3.33314
3.24503
3.31092
3.26833
3.22043
3.19031
3.21909
3.21863
3.17775
3.17217
3.2203
3.24494
3.22034
2.93685
2.87606
2.90517
2.95863
2.96197
2.91416
2.9405
2.95481
3.00272
3.0544
3.15805
3.26744
3.1746
3.0805
2.98725
2.89327
2.82502
2.75779
2.71821
2.71646
2.68047
2.70675
2.76321
2.81475
2.87519
2.98091
3.06091
3.13072
3.20991
3.27496
3.69122
3.54465
3.42426
3.34762
3.51992
3.63285
3.64899
3.6862
3.68375
3.68989
3.66929
3.70519
3.64628
3.686
3.69106
3.60166
3.52157
3.47883
3.39149
3.39866
3.36837
3.34695
3.40273
3.38194
3.24779
3.08652
3.0468
2.90909
2.90914
2.96029
2.87817
2.93357
3.12453
3.34466
3.4557
3.4602
3.31777
3.05049
2.92362
2.85883
2.86535
2.95196
3.14281
3.37893
3.58097
3.75758
3.93221
4.19133
4.34283
4.37772
4.38682
4.33695
4.19688
3.97311
3.74796
3.51718
3.31588
3.15463
3.05898
3.11988
2.07376
2.47254
2.86118
3.02286
2.97105
2.73878
2.47498
2.43716
2.29485
2.0013
1.8803
1.85228
1.9215
1.99034
2.07902
2.18831
2.37067
2.43756
2.48079
2.48464
2.46098
2.37255
2.19491
2.17188
2.08329
2.05342
2.03311
1.98312
1.69647
1.5459
3.08291
3.52254
3.37549
3.33792
3.27591
3.22481
3.20305
3.21231
3.24738
3.19224
3.13911
3.21793
3.10412
3.10054
3.11991
3.12855
3.17757
3.12484
3.21056
3.17655
3.24307
3.35445
3.43197
3.3995
3.20691
3.05073
3.0719
3.13142
3.16461
3.24767
3.3829
3.30606
3.11113
2.93359
2.82633
2.66575
2.62729
2.42978
2.46879
2.35344
2.34266
2.2854
2.31862
2.33379
2.37241
2.4446
2.51547
2.59911
2.70443
2.83682
2.96965
2.9824
2.94294
2.93695
2.90569
2.85198
2.76642
2.73285
2.90097
3.03928
2.61748
3.06965
3.22138
2.8513
2.51841
2.33527
2.16855
2.02514
1.90814
1.82514
1.71981
1.6864
1.65756
1.71111
1.70718
1.77569
1.80767
1.91118
2.03337
2.17145
2.34061
2.51105
2.59558
2.58447
2.49787
2.50023
2.49064
2.45501
2.52137
2.55931
2.14354
2.19278
1.9776
1.71774
1.55956
1.44909
1.38271
1.35178
1.38039
1.38799
1.36905
1.38255
1.46462
1.50167
1.6993
1.77629
1.97141
2.09629
2.19802
2.08092
1.82821
1.75925
1.7492
1.74386
1.80877
1.92722
2.01883
2.03657
2.08709
2.09
1.99551
2.16283
2.12291
2.17125
2.32811
2.56029
2.78426
2.98347
3.12879
3.18614
3.23058
3.13536
3.01357
2.808
2.56967
2.24471
1.95244
1.67167
1.47591
1.46036
1.45132
1.43982
1.41832
1.38629
1.36543
1.37851
1.41312
1.44061
1.45497
1.45589
2.33436
1.94526
1.56369
2.35266
2.87247
3.23432
3.38426
3.46718
3.58639
3.73367
3.86383
3.92968
4.05929
4.13542
4.1529
4.11355
4.22348
4.08554
4.13492
3.92551
3.93533
3.6415
3.06078
2.74204
3.047
3.34419
3.27592
3.19797
3.21019
3.42314
5.597
5.54433
5.4864
5.89612
6.57224
6.89024
6.43963
5.62151
5.30349
5.90593
7.24271
7.19394
6.97509
8.32366
3.22619
3.4242
3.28624
3.25094
3.57614
4.16003
4.57493
4.68357
4.55223
4.60598
4.77279
4.44379
3.84619
3.5673
3.59689
3.7949
4.14975
4.61254
5.07363
5.43578
5.60409
5.52786
5.18659
4.89326
4.61
4.47625
4.28552
4.12513
3.85931
3.49158
3.26761
3.29168
3.32605
3.36407
3.39749
3.42531
3.48241
3.62034
3.7047
3.70134
3.49231
3.28518
3.32759
3.37638
3.32151
3.38007
3.29408
3.28472
3.26212
3.22609
3.21297
3.26449
3.24571
3.17743
3.16526
3.19813
3.19657
3.19663
3.22356
3.19876
2.92165
2.88203
2.88878
2.95889
2.93618
2.90715
2.91388
2.94737
3.0283
3.04819
3.19016
3.29561
3.14657
3.03585
2.94364
2.83092
2.77799
2.7349
2.68381
2.70421
2.73913
2.73635
2.70766
2.79537
2.84893
2.92732
3.01296
3.10099
3.18614
3.25957
3.69401
3.52181
3.38348
3.44093
3.61394
3.68972
3.69387
3.72005
3.71865
3.76757
3.68681
3.80822
3.73748
3.84897
3.7658
3.75805
3.67332
3.53156
3.54787
3.43302
3.35772
3.4074
3.4389
3.41428
3.33422
3.24995
3.12288
2.92825
3.00838
3.06442
2.8416
2.88041
3.0435
3.25738
3.36974
3.33327
3.12996
2.96676
2.87258
2.85023
2.90114
3.0096
3.24488
3.46747
3.61175
3.79724
4.01968
4.28942
4.44336
4.55738
4.64844
4.60662
4.47083
4.21834
3.93759
3.63973
3.38745
3.20188
3.08588
3.10922
2.05652
2.41932
2.83782
3.05136
3.07892
2.81035
2.53027
2.48138
2.28728
1.98324
1.85324
1.84339
1.89903
1.96119
2.09982
2.26163
2.38058
2.5578
2.59522
2.57463
2.56307
2.50408
2.2677
2.22165
2.12654
2.03631
2.03318
1.96949
1.71427
1.54162
3.311
3.44995
3.4227
3.37081
3.26883
3.2071
3.17359
3.20975
3.2216
3.15031
3.17104
3.17286
3.00577
3.00595
3.04063
3.06797
3.18711
3.18029
3.23018
3.19781
3.25844
3.33486
3.44455
3.44414
3.32391
3.12542
3.10796
3.17898
3.22382
3.27343
3.39036
3.23496
3.06336
2.90705
2.78745
2.64388
2.58925
2.41384
2.46192
2.29641
2.36903
2.2758
2.29256
2.32993
2.37349
2.40654
2.46077
2.58392
2.66954
2.78535
2.91613
2.97085
2.96895
2.94089
2.88567
2.85888
2.78217
2.7357
2.89593
3.03295
2.74592
3.47989
3.26597
2.72438
2.44533
2.26674
2.09684
1.9429
1.8514
1.71774
1.68415
1.65425
1.69103
1.64376
1.67721
1.70125
1.76278
1.82374
1.96326
2.0804
2.23965
2.44468
2.56515
2.58385
2.4931
2.49122
2.51807
2.54591
2.54561
2.55244
2.36849
2.16032
1.8208
1.6278
1.50327
1.41796
1.354
1.35881
1.39926
1.39633
1.45175
1.40764
1.50343
1.43036
1.62275
1.70073
1.937
2.03659
2.19092
2.07406
1.83291
1.83008
1.85787
1.8429
1.86955
1.88028
1.89896
1.97142
2.01584
2.07523
1.93136
2.14184
2.14197
2.2254
2.43449
2.66613
2.9838
3.16944
3.33839
3.40854
3.40148
3.35826
3.23411
3.07523
2.79354
2.50414
2.15595
1.80819
1.55513
1.45663
1.45709
1.44944
1.43034
1.40692
1.3822
1.38561
1.41113
1.43647
1.45389
1.45533
2.39776
2.19273
1.60621
2.39793
3.00195
3.3073
3.42437
3.51631
3.65108
3.78149
3.90186
4.06023
4.12169
4.19715
4.3474
4.19539
4.36126
4.19738
4.24321
4.01209
4.02629
3.8535
3.45644
2.72115
2.73844
3.3535
3.5271
3.45071
3.44905
3.48829
5.70015
5.43656
5.9343
7.30663
8.33396
8.52193
8.0965
6.88367
5.77254
6.0393
7.29552
7.29046
7.04024
8.47445
3.16282
3.4086
3.2995
3.17714
3.22617
3.49642
3.70155
3.7261
3.74965
4.04933
4.5013
4.28974
3.74918
3.54007
3.64764
3.92735
4.40909
4.99046
5.5891
5.98503
6.11905
5.98738
5.5647
5.14775
4.78165
4.57894
4.35283
4.1609
3.81461
3.50727
3.26959
3.28708
3.33759
3.3724
3.39828
3.42404
3.51333
3.62347
3.62541
3.57728
3.33206
3.30348
3.36195
3.39409
3.33568
3.37682
3.24972
3.32328
3.23979
3.23896
3.20154
3.17406
3.20141
3.23885
3.17467
3.1587
3.19897
3.19699
3.22826
3.20113
2.95741
2.90223
2.92143
2.96142
2.963
2.93588
2.89996
2.96564
3.03463
3.07393
3.22616
3.28214
3.12017
3.01293
2.90336
2.80087
2.7539
2.72811
2.66153
2.69772
2.67926
2.72841
2.71126
2.8068
2.83118
2.88317
2.99059
3.08123
3.16523
3.24669
3.71656
3.51187
3.38555
3.55621
3.66699
3.71436
3.71385
3.72869
3.73419
3.79511
3.66233
3.85983
3.81904
3.91754
3.87506
3.83782
3.70786
3.66435
3.57104
3.41779
3.43323
3.44691
3.44719
3.46004
3.38241
3.33003
3.17434
3.01826
3.07246
3.10444
2.92596
2.92088
2.9722
3.06772
3.13169
3.06858
2.97109
2.90324
2.87898
2.87511
2.93399
3.09957
3.33209
3.45559
3.59681
3.77704
4.00629
4.30725
4.50079
4.64457
4.72233
4.64832
4.52165
4.36067
4.01408
3.74771
3.46073
3.23415
3.09677
3.1467
1.98407
2.32438
2.75015
3.03331
3.08803
2.86095
2.60607
2.51776
2.32472
1.99859
1.8547
1.81149
1.86076
1.93066
2.09167
2.18367
2.42772
2.52984
2.63837
2.61145
2.58633
2.52291
2.31127
2.21427
2.16715
2.01497
2.01706
1.9644
1.6925
1.54388
3.4422
3.49285
3.53385
3.42448
3.28125
3.1857
3.15868
3.1906
3.16711
3.14585
3.19627
3.11013
2.99738
3.01228
3.05035
3.03598
3.19726
3.18609
3.24032
3.24561
3.26863
3.3407
3.43556
3.45128
3.36494
3.20328
3.16983
3.24805
3.30504
3.33796
3.39941
3.20613
3.04436
2.90574
2.81242
2.60897
2.59218
2.40444
2.43863
2.29968
2.36339
2.25574
2.28199
2.35422
2.38013
2.3678
2.4709
2.56864
2.65054
2.75249
2.90703
2.95147
2.95598
2.92941
2.86726
2.86395
2.78561
2.73046
2.91211
3.07337
3.07098
3.78505
3.2427
2.65778
2.39509
2.20921
2.03901
1.90727
1.79468
1.66922
1.66237
1.6347
1.61127
1.65227
1.62211
1.67401
1.69251
1.77871
1.90331
2.02692
2.21772
2.40042
2.52031
2.52794
2.43338
2.47855
2.54346
2.49189
2.50296
2.52944
2.37758
2.02856
1.74532
1.58728
1.50993
1.37934
1.37449
1.32821
1.38348
1.36167
1.40875
1.37153
1.49238
1.45662
1.60016
1.67522
1.87787
2.03516
2.20547
2.02203
1.91223
1.98939
2.0128
2.05561
2.055
2.06606
2.07948
2.0103
1.96693
1.87315
1.8646
2.13939
2.17634
2.25018
2.44648
2.73139
3.03363
3.23379
3.4664
3.4986
3.52735
3.45168
3.40394
3.17692
2.97255
2.65527
2.3208
1.94368
1.66575
1.45101
1.45927
1.45474
1.44374
1.42703
1.40693
1.40137
1.41661
1.43751
1.45378
1.45452
2.24139
2.44128
2.13884
2.11506
2.97122
3.35827
3.45325
3.5495
3.69089
3.81505
3.96284
4.08265
4.21798
4.22193
4.43395
4.22406
4.48539
4.22517
4.33221
4.09528
4.04698
3.91624
3.81265
2.89428
2.47185
2.91462
3.49256
3.54257
3.47331
3.27568
5.72521
5.59366
7.10246
8.74094
8.98985
8.85555
8.64766
7.91257
6.68003
6.61341
7.51651
7.26268
7.09241
8.37817
6.97207
4.78461
3.30015
3.36749
3.35057
3.22107
3.13251
3.14076
3.18184
3.19586
3.31542
3.74183
4.3308
4.13259
3.67091
3.5153
3.67826
4.05035
4.58501
5.22431
5.81318
6.16621
6.25276
6.13929
5.62971
5.25731
4.85958
4.63901
4.39407
4.1094
3.79608
3.4939
3.26357
3.2922
3.273
3.26664
3.31837
3.35308
3.37174
3.43525
3.55548
3.55388
3.48744
3.43824
3.26517
3.35532
3.37465
3.41425
3.31989
3.38214
3.24055
3.31488
3.18854
3.24173
3.1687
3.20914
3.16567
3.17689
3.1838
3.14339
3.16034
3.20133
3.20723
3.18434
3.02736
2.98464
2.9571
2.92691
2.8966
2.9285
2.96108
2.90701
2.92816
3.00973
3.07132
3.10309
3.29469
3.31058
3.11625
2.9977
2.88865
2.80407
2.75562
2.71879
2.68794
2.69136
2.67586
2.73274
2.69021
2.80767
2.81218
2.87579
2.97046
3.06296
3.14971
3.25605
3.67842
3.71419
3.60785
3.39387
3.40619
3.57597
3.66458
3.70138
3.70596
3.72153
3.72673
3.76341
3.65872
3.8151
3.83113
3.82266
3.79048
3.77015
3.7667
3.66598
3.50442
3.4737
3.47907
3.44027
3.49161
3.49807
3.46794
3.36457
3.07199
3.13203
3.1248
3.10242
3.11337
3.04486
2.94393
2.93359
2.96909
2.99777
3.00706
2.96823
2.92905
2.89683
2.88232
2.89463
2.98172
3.15258
3.35393
3.41257
3.48613
3.72329
3.91595
4.18253
4.45646
4.56965
4.64283
4.65079
4.56241
4.34058
4.05362
3.7942
3.48884
3.24902
3.13696
3.13771
2.88442
2.32116
2.00224
2.22852
2.62178
2.91814
3.06368
2.88797
2.63934
2.58873
2.40363
2.06462
1.85029
1.80551
1.82259
1.92692
1.99234
2.12781
2.31247
2.42922
2.50716
2.53403
2.56024
2.43244
2.31339
2.20955
2.12401
2.02341
1.99501
1.9402
1.6623
1.5602
2.96589
3.52387
3.51842
3.60831
3.64006
3.50384
3.2988
3.17508
3.14653
3.16094
3.12587
3.16659
3.17022
3.10201
3.01335
3.03276
3.02462
3.06363
3.21405
3.18904
3.28357
3.27083
3.29711
3.3549
3.43698
3.48821
3.38456
3.24426
3.3179
3.38647
3.44717
3.48662
3.47648
3.45393
3.33938
3.19483
3.04972
2.91526
2.82055
2.61837
2.59856
2.40704
2.42715
2.29439
2.3491
2.27427
2.30631
2.34297
2.35156
2.38358
2.5028
2.57741
2.65468
2.77652
2.8921
2.95481
2.94804
2.88246
2.92717
2.93431
2.84411
2.81256
3.0192
3.06329
3.15583
3.39138
3.82537
3.92423
3.26519
2.6342
2.35509
2.18535
2.03081
1.89474
1.73904
1.66631
1.65046
1.62201
1.62419
1.62702
1.64651
1.60724
1.69261
1.74844
1.87027
2.00506
2.17673
2.40847
2.55754
2.48131
2.42589
2.50718
2.50988
2.52384
2.56354
2.60177
2.71235
2.72871
2.46226
1.99887
1.75125
1.64491
1.50281
1.43612
1.34045
1.38569
1.37715
1.36038
1.45382
1.38642
1.50175
1.46747
1.63347
1.66122
1.88301
2.06997
2.16258
1.99546
2.01157
2.10169
2.18016
2.19707
2.21964
2.2421
2.22713
2.23821
2.18786
2.08991
1.92626
1.84458
1.76949
1.95726
2.15646
2.24822
2.41535
2.64931
2.96413
3.19397
3.46191
3.47608
3.58277
3.53484
3.41743
3.27096
3.03343
2.73994
2.4088
2.05641
1.73903
1.50175
1.45897
1.46288
1.45335
1.44514
1.42945
1.4217
1.42665
1.44167
1.45062
1.45111
1.4508
1.48207
1.8206
2.28045
2.66996
2.34794
2.61246
3.20355
3.46869
3.56831
3.68475
3.8076
3.94048
4.09548
4.19265
4.23009
4.43629
4.23527
4.49055
4.25924
4.36291
4.15421
4.08321
3.96656
3.88228
3.25074
2.38767
2.38734
3.03202
3.19815
3.05183
3.02107
4.29354
4.51459
5.67594
5.93561
8.14572
9.09182
8.74429
8.30556
8.37632
8.23838
7.45149
7.35101
7.6424
7.22887
7.18975
8.27297
6.81666
4.53652
3.29941
3.30717
3.36403
3.28664
3.14536
3.05696
3.0289
3.0614
3.19485
3.64064
4.18877
4.00096
3.61429
3.52705
3.72162
4.10978
4.64878
5.25235
5.79233
6.10699
6.12716
5.97622
5.56003
5.21507
4.93715
4.59595
4.36693
4.02934
3.72199
3.45447
3.28027
3.37945
3.31231
3.27875
3.30323
3.33564
3.38365
3.53391
3.50114
3.36801
3.35186
3.33302
3.26727
3.38418
3.38711
3.42186
3.3196
3.38767
3.22938
3.30835
3.19262
3.22988
3.17591
3.1808
3.16508
3.15541
3.16739
3.129
3.18154
3.20424
3.19972
3.10107
2.96822
2.95997
2.98491
2.94435
2.92382
2.96898
2.93667
2.95893
2.97943
3.04011
3.07485
3.13838
3.35057
3.29166
3.11411
3.01333
2.89672
2.82613
2.76369
2.73169
2.70918
2.74393
2.72316
2.75668
2.70021
2.80597
2.80682
2.88995
2.97617
3.07176
3.17209
3.40175
3.76574
3.6052
3.42063
3.32886
3.42602
3.53996
3.63864
3.68082
3.67557
3.70246
3.69145
3.71791
3.64376
3.70827
3.73263
3.76763
3.82676
3.77375
3.71163
3.55403
3.51746
3.53251
3.4622
3.48938
3.53647
3.53346
3.47873
3.28493
3.12226
3.19776
3.16521
3.09139
3.06098
3.02533
2.99367
2.93025
2.93096
2.934
2.92441
2.91938
2.89223
2.89118
2.89437
2.94137
3.03777
3.20916
3.3295
3.32959
3.37768
3.5416
3.77696
3.97657
4.1949
4.41411
4.49949
4.47259
4.38263
4.2503
4.02912
3.77332
3.49875
3.2815
3.1334
3.17776
3.02101
2.4258
2.01386
2.14085
2.5018
2.81736
3.00271
2.86008
2.69189
2.65506
2.52532
2.16178
1.88496
1.80582
1.7993
1.84751
1.91668
2.03101
2.19527
2.30999
2.38696
2.41268
2.45054
2.33045
2.23396
2.20183
2.06324
2.0088
1.98258
1.89119
1.62995
1.61455
2.95721
3.62897
3.59483
3.77292
3.80209
3.62156
3.35946
3.18707
3.14148
3.10482
3.12843
3.15316
3.1453
3.14413
3.03082
3.03624
3.09883
3.14926
3.18467
3.23928
3.31113
3.28167
3.32653
3.36993
3.46274
3.47722
3.36921
3.24788
3.37742
3.42999
3.48851
3.51353
3.50835
3.46462
3.37729
3.24671
3.10061
2.9479
2.86079
2.65161
2.60444
2.46705
2.4294
2.3129
2.3481
2.2911
2.33416
2.36339
2.3703
2.44615
2.52559
2.59348
2.69622
2.80819
2.89309
2.94325
2.92613
2.88452
3.03674
3.00341
2.89264
2.91999
3.02644
3.07783
3.4783
3.94566
4.16779
4.11675
3.4449
2.64831
2.36865
2.1876
2.05315
1.87836
1.76255
1.64898
1.64808
1.59312
1.61219
1.59007
1.64645
1.58935
1.67899
1.77
1.88458
2.00781
2.22385
2.41912
2.50151
2.39599
2.37888
2.46359
2.52614