/*--------------------------------*- C++ -*----------------------------------*\
| =========                 |                                                 |
| \\      /  F ield         | OpenFOAM: The Open Source CFD Toolbox           |
|  \\    /   O peration     | Version:  2.1.1                                 |
|   \\  /    A nd           | Web:      www.OpenFOAM.org                      |
|    \\/     M anipulation  |                                                 |
\*---------------------------------------------------------------------------*/
FoamFile
{
    version     2.0;
    format      ascii;
    class       volScalarField;
    location    "0.007600000";
    object      Xi;
}
// * * * * * * * * * * * * * * * * * * * * * * * * * * * * * * * * * * * * * //

dimensions      [0 0 0 0 0 0 0];

internalField   nonuniform List<scalar> 
12384
(
7.65545
9.42048
10.5182
11.5277
12.4237
13.0982
13.4838
13.5406
13.2865
12.7754
11.9839
10.8076
9.18209
6.81814
18.6763
19.9567
21.4403
22.0597
21.5976
20.99
21.0572
21.4056
22.1181
22.5899
22.9412
23.1862
23.8344
25.1929
27.5839
30.1175
32.6853
35.0364
36.8289
37.8673
37.858
36.9506
36.1513
35.2528
34.1552
32.7564
31.1964
28.8243
23.3642
17.9748
23.38
25.7563
27.2908
28.2847
29.047
29.6793
30.3829
31.166
31.6843
31.7278
31.9086
32.4197
33.6995
36.1852
39.5582
43.254
46.477
49.4222
51.5059
52.6562
52.2957
51.1779
49.6742
47.9185
45.7416
43.0423
39.4222
34.3869
26.1347
20.9698
27.0353
30.9696
36.1615
40.0656
42.8265
44.6658
46.6141
48.592
49.1161
47.8652
45.9358
43.9424
42.2764
41.3294
41.551
43.2072
46.125
49.2684
52.3771
54.7977
56.7161
57.0399
57.2862
56.0826
54.7703
52.1658
48.689
43.493
34.426
27.2661
28.4395
32.7618
35.0324
35.8242
36.3602
37.7558
41.3069
45.9421
52.0227
56.5833
62.4514
65.5007
69.814
69.6651
70.4411
68.8145
67.3636
65.1649
62.326
58.7957
54.3251
48.7984
38.1593
27.0279
25.1611
25.0488
25.2441
25.1843
24.8297
24.2752
22.4156
25.3534
27.3906
29.001
31.1276
33.3366
35.3437
37.3963
39.3456
40.045
39.8688
39.5996
39.8032
41.2301
44.2363
47.6808
51.2262
54.3728
56.8581
57.92
57.7604
57.7181
57.0566
56.0183
54.2671
51.5885
47.3873
40.4561
30.0772
24.3527
24.8797
29.1632
33.6011
37.1192
40.2796
42.4857
44.4057
45.4363
47.1963
50.8635
55.9941
62.2146
68.8941
75.0339
81.6448
86.95
88.8826
90.6079
87.436
85.8041
81.6066
79.0166
74.5629
68.8963
60.9045
48.1317
39.7218
36.02
35.0318
36.6508
20.837
23.0126
26.8889
31.5988
37.919
44.2091
50.3606
56.2442
61.6584
66.3267
70.0607
71.5457
71.4141
69.1459
67.2283
64.6142
61.3459
57.6146
52.6865
46.9076
40.2681
30.8711
26.0367
24.7148
24.3916
24.3546
24.013
23.31
22.8844
22.9574
28.3973
36.852
44.834
52.6176
59.2339
65.3886
70.9963
76.315
81.548
82.3992
82.9701
80.6063
77.4648
72.8876
68.571
62.6082
55.1179
45.2972
34.1781
28.1904
26.1612
25.8696
26.0127
26.1024
25.4975
24.3416
22.7672
21.4657
20.6806
20.3382
26.868
34.5171
42.7223
49.7244
56.3813
62.7938
69.3852
75.834
81.7933
87.2462
89.4571
92.3039
88.9856
85.5893
80.6978
75.4484
69.6543
62.588
52.7892
41.3239
33.8321
30.3956
29.4036
29.7924
29.5106
28.89
27.4303
26.9688
26.219
26.6115
48.6561
61.8346
68.6722
75.4736
84.0539
90.6264
95.8493
98.5681
99.7421
93.7124
89.1745
80.8018
75.0102
67.3684
59.4226
52.4119
49.3133
48.086
46.582
45.632
45.2159
44.9841
44.9173
44.4422
43.7428
42.842
41.5837
39.8953
37.9638
34.5269
29.974
30.0677
34.7158
39.9666
48.8058
55.7236
60.4482
63.7821
66.4817
66.9429
67.8661
66.4053
65.6278
61.8852
59.8062
55.7131
54.7779
53.2475
55.6944
57.3393
60.7531
63.198
63.6834
61.1755
58.8713
57.5584
56.1615
54.2353
50.2946
43.8942
21.6625
24.4001
23.9468
21.4409
19.5428
22.9801
37.6787
39.0992
40.2438
43.1134
45.6272
47.3288
49.1039
49.7539
50.8232
49.1758
47.8732
44.4451
41.3577
37.1724
33.1445
30.0483
27.9283
25.9399
24.2185
22.2298
20.1064
17.5445
14.3101
9.91636
9.74823
6.91899
7.88101
9.05123
10.0151
10.7787
11.3135
11.6143
11.6837
11.4018
10.6636
9.42326
7.94305
9.15758
18.9167
15.4356
18.3972
20.3946
20.6638
20.4765
20.5948
20.7006
20.3393
19.3354
18.3532
17.8082
18.3112
20.3814
23.6537
27.5775
31.6309
35.4857
38.8563
41.5102
43.1702
43.757
43.2099
41.6793
39.1576
35.6921
31.5321
26.9403
21.6142
26.3998
26.51
25.0196
29.1574
32.1313
33.6471
33.692
32.4968
30.3052
27.6365
25.1942
23.3946
22.9127
24.3221
27.7385
32.2713
37.0317
42.0463
46.5928
50.3916
53.1286
54.8895
55.0967
54.2273
52.2855
49.3235
45.1867
39.8226
33.3952
25.949
30.8266
35.6785
37.3669
46.1932
51.6274
53.9779
54.5729
53.3709
50.395
46.7638
42.3211
37.8375
33.779
30.5782
28.7877
29.5862
33.1968
38.5236
44.3976
50.0286
54.5536
57.352
58.6263
58.4815
56.7666
53.4122
48.3291
42.6433
36.2685
29.4284
39.2174
25.8698
21.454
20.2773
19.4475
21.1839
26.3338
33.547
41.5398
49.7478
56.4737
65.084
71.74
77.0663
81.5513
83.8726
83.7801
81.5346
77.7378
72.5818
65.6241
56.713
47.22
38.4916
28.9341
20.987
18.5182
18.8028
18.6473
18.8261
25.8492
25.8655
26.8201
32.4125
36.3342
38.4746
39.7592
39.923
39.1103
36.8399
34.2625
31.5723
30.0976
31.1194
34.9487
40.2573
46.099
52.0752
57.5754
62.1682
65.7835
68.0619
68.5197
67.3606
64.8785
61.1595
56.1486
49.779
41.8158
32.2389
34.0564
32.6573
33.4274
35.5952
35.797
35.4846
34.33
33.1719
32.9471
34.9184
39.8581
47.3469
56.1534
65.8034
76.1073
85.9292
96.2236
103.93
109.06
112.752
112.841
110.567
105.782
97.8196
89.4497
78.3927
65.0754
53.2944
37.9748
23.7132
37.7958
22.2458
14.0357
16.7798
23.9133
31.8166
39.6813
47.5091
55.4754
63.4562
71.3987
78.6249
84.8052
89.5575
91.7191
90.8468
88.308
83.6022
76.6737
67.2484
55.9447
44.6121
34.3206
23.7643
18.1981
18.0845
17.7486
16.9479
15.4119
14.2845
23.4226
27.3616
23.6058
31.5927
40.1341
48.7129
57.3252
66.2981
76.0729
83.8175
90.7381
98.3613
100.295
99.8628
97.6547
92.263
84.0494
73.3101
59.7102
44.9125
30.1274
20.7767
20.6544
21.0898
21.2469
20.902
19.3632
17.0906
14.9146
13.8761
21.4105
26.0346
23.0076
26.9451
33.5469
41.6696
51.0462
61.5409
72.693
84.2563
95.3618
105.367
113.269
117.094
116.19
112.582
105.633
96.3878
84.8703
70.6243
53.8761
36.072
24.8692
22.8329
22.2892
22.1063
20.8255
18.6116
16.4534
15.8096
26.4457
41.2829
33.3174
41.6901
57.5823
71.0099
83.3528
94.67
104.993
111.133
117.451
116.106
111.869
105.698
95.506
83.3047
69.4812
53.2119
37.9871
31.5883
32.7401
33.6662
34.1138
34.2596
33.974
33.3978
32.2695
30.8096
29.9071
28.8384
34.2686
34.5309
27.9624
34.2231
41.4137
49.7008
56.7631
62.1309
66.2923
68.2355
69.7631
69.2175
67.8172
64.276
59.8704
54.3319
48.2737
44.4885
41.5256
43.6969
46.8421
51.757
57.1515
62.1639
66.5661
68.9001
68.9312
66.5717
61.0859
51.592
52.5559
25.5565
23.4882
23.4317
22.8053
25.1551
32.4933
34.5706
35.5176
39.8615
44.5953
48.3862
50.841
51.8786
51.8659
50.8211
48.2698
45.3831
41.543
37.6731
33.2431
28.2837
23.5801
20.2772
19.5869
20.0814
20.4213
20.1223
18.766
16.4978
13.2232
11.817
8.72765
9.70678
10.6854
11.3335
11.7315
11.8984
11.8769
11.8219
11.7276
11.4019
10.5322
9.00007
10.4217
19.4274
15.9934
18.4564
19.2676
18.3246
17.4858
17.3128
17.2035
16.9832
17.029
18.053
19.8626
22.3631
25.6697
29.6417
33.3953
36.5478
39.1194
41.1689
42.676
43.5361
43.7482
43.2027
42.0516
40.2714
37.6531
34.1831
29.9748
25.0305
30.2689
27.7387
26.2085
28.6447
29.618
29.0393
27.445
25.5751
23.8848
22.8971
22.8101
23.6559
25.7607
29.6735
34.7058
39.7468
44.173
48.1551
50.9486
53.8405
55.4409
56.3413
56.7167
55.9693
54.238
51.9182
48.8097
44.3239
38.378
31.1036
37.1854
39.771
42.0482
48.2535
50.3165
50.2274
48.8265
47.3229
44.7732
42.6557
40.3645
38.3736
36.4678
34.7718
34.2515
36.4112
41.1237
47.063
53.1167
58.0755
61.8016
64.4552
64.9237
64.3384
62.4044
58.7656
54.3697
48.7318
41.7494
34.5121
45.7186
24.8591
19.4506
17.549
18.9638
25.2652
33.9734
42.7615
50.8332
57.2626
62.3229
69.4807
72.63
77.0904
81.6154
83.0579
82.921
81.8022
79.1666
75.7261
70.9557
64.3065
55.6756
46.8583
38.1819
27.7889
19.4489
16.967
18.6037
20.3665
27.6701
27.6069
28.9596
32.7033
34.3353
34.3827
34.11
33.1829
32.1729
31.0754
31.1063
32.1783
35.0121
39.234
44.2418
48.9582
53.0335
56.5482
59.5401
62.5167
65.1101
66.6209
67.1314
66.8917
65.3052
62.6434
58.9613
54.0073
47.3526
38.5146
41.234
35.4237
35.0986
33.479
31.9533
31.6215
31.9999
34.2873
37.4776
42.388
50.144
58.85
66.6837
74.5286
81.0623
88.2527
93.8316
99.0322
103.603
106.483
107.834
106.222
104.292
99.2081
93.6385
85.782
75.2545
63.128
50.4947
33.3387
38.8704
24.6127
15.5225
20.6894
30.1015
39.1861
47.4695
54.8213
61.4801
67.6614
73.4375
78.5165
83.9054
87.3338
89.2648
90.0833
88.7353
86.3696
82.3726
76.0217
67.0346
56.076
45.1543
34.7702
23.9778
16.0447
16.0879
17.4481
16.6439
14.8437
23.9737
33.7195
29.2555
38.1813
48.3462
57.9512
66.2232
74.3486
81.9069
86.9808
94.392
98.6325
100.553
101.7
99.4258
96.5736
91.0636
83.4179
72.6596
59.24
44.9698
30.6858
19.8124
19.0169
21.8284
23.6427
23.1049
20.7892
17.8409
15.574
22.3947
26.9328
24.8699
30.6728
39.6142
50.5521
62.383
74.5962
86.2082
96.6369
107.141
115.476
122.149
125.044
125.372
120.934
114.704
105.887
95.8387
83.5874
68.3026
50.5914
32.9082
21.9567
21.0442
23.8888
23.6954
21.0588
18.3194
16.5021
27.3584
39.7523
37.7275
57.1436
75.5276
91.2549
105.318
117.603
127.552
136.184
136.813
139.202
134.753
124.602
116.419
102.817
89.117
73.0226
53.8333
37.3864
32.7533
33.9312
35.1144
34.6758
33.8688
31.3701
28.0163
25.1832
24.394
26.2395
33.8696
41.1419
32.4763
39.8169
47.9841
54.9777
60.2136
63.4107
65.9119
67.1435
68.4296
67.8098
68.074
66.708
64.0797
61.8729
57.2094
53.9929
50.5652
50.8767
51.7162
52.9752
54.2688
55.8624
58.4899
61.2881
63.212
63.6968
61.8631
55.6401
56.2711
26.3208
24.3312
21.3796
23.2415
31.1125
35.6095
36.9382
40.4182
45.3266
48.969
51.3532
52.8208
53.4342
52.9607
52.3083
50.7438
48.7466
46.7265
43.7459
40.8891
36.5562
30.1956
22.8442
17.3604
14.9066
14.4373
14.9668
15.3104
14.8651
11.463
13.813
10.4258
11.1081
11.8114
12.3278
12.5983
12.6264
12.3273
11.7554
11.4636
11.5048
11.3743
10.3922
11.5311
20.3006
17.3734
19.0561
18.8908
16.9451
15.3336
14.362
13.7708
13.9455
15.3851
18.0981
21.9093
26.1135
30.4213
34.8362
38.1341
40.1476
41.0912
41.382
41.4697
41.5662
41.5874
41.3
40.7031
39.779
38.3242
35.8962
32.5912
28.3169
33.2119
28.5452
27.9064
28.2512
26.926
24.38
21.7948
20.1991
20.1298
21.4463
23.6387
26.3703
30.2763
35.8095
41.4376
46.2527
49.3025
51.3997
53.1202
53.8228
54.6222
55.4036
54.9832
54.718
53.9726
52.5179
50.4727
47.2752
42.3189
35.5123
41.4945
42.3364
46.6636
49.5314
48.0347
45.2077
42.0704
40.2125
39.0251
39.1549
39.9701
40.5379
40.1982
39.4779
40.168
43.6606
49.5642
56.0405
61.2261
64.9197
67.5472
68.9129
69.4216
68.1269
65.7851
62.7665
59.1084
53.6178
47.071
39.7783
50.3137
25.4399
19.544
16.9693
21.1402
30.9389
40.9044
49.7914
56.8345
61.0185
64.9463
68.1587
68.8929
72.8316
74.0944
75.8199
77.2187
77.3261
76.5726
75.3371
73.0728
69.1866
62.5982
54.2183
45.6351
35.6591
25.318
17.4932
18.1141
20.8995
28.4623
28.5473
31.2123
32.5362
31.7299
29.797
27.6678
25.6857
25.1745
26.5116
30.1762
35.1084
40.4099
45.7562
50.3522
53.6353
55.5206
56.5481
57.4755
58.5106
59.289
60.1725
61.3925
61.8219
62.0894
61.437
59.7164
56.6494
51.8186
44.4047
46.2548
37.5533
37.5497
32.4485
28.8366
27.9768
30.6316
36.2958
41.7963
48.7755
58.6244
67.7295
74.9395
79.5369
82.6913
85.091
85.3506
89.5151
90.8229
92.8838
94.2765
95.4569
95.4568
94.9958
92.8507
88.666
81.4152
70.3559
57.7542
43.0182
40.8861
26.377
17.0172
25.0323
35.4623
44.959
53.2807
59.9927
65.2751
69.1993
72.1726
75.1755
78.4855
80.4008
83.2698
84.5565
84.6316
83.852
82.7265
79.8987
74.4062
65.0797
54.4478
43.5434
32.9115
22.0523
15.9565
18.0526
17.5498
15.3065
24.1585
41.6728
34.3592
44.1683
55.3883
65.1583
73.1694
78.6169
82.9177
86.4467
91.2217
91.8579
95.4793
96.4668
96.4213
95.1746
92.6214
88.9889
81.8675
70.7031
57.0619
43.1029
29.5047
21.4406
23.6206
26.3796
26.2642
23.8588
20.8746
18.3303
23.8121
30.4016
27.3003
34.3723
45.4351
59.2619
73.6505
86.293
96.1151
104.708
111.533
116.958
119.569
124.152
123.759
122.427
117.672
111.815
103.953
93.5601
79.9308
63.0088
44.6503
28.1671
22.4856
25.7073
25.8207
22.9863
19.7885
18.0122
28.111
48.7299
52.0038
71.5001
91.5654
109.81
124.402
135.04
141.716
145.312
150.579
149.126
145.702
138.647
129.765
116.733
104.57
87.6036
68.4176
47.4748
35.1536
35.0372
36.3949
36.937
36.1268
33.6687
30.0054
26
23.8374
25.9257
34.8326
46.344
36.2387
44.5364
52.0908
57.209
59.6771
60.9402
61.4469
61.8941
62.0033
62.6735
62.9568
63.2212
63.8828
63.8409
62.6501
61.1196
58.3213
57.5551
56.807
55.6683
52.8787
49.0801
47.578
50.4538
55.3184
59.8423
62.246
60.2861
58.424
26.6241
24.3662
22.541
27.6532
33.596
36.7513
40.2955
44.8388
48.5648
50.7631
51.6059
51.8817
51.838
51.73
50.8168
50.4526
49.3543
48.9088
46.4048
44.7292
40.7676
36.114
27.8903
19.3719
13.7712
10.7671
11.136
12.6383
13.2858
8.68845
14.9301
11.6135
12.2746
13.1363
13.7377
13.9913
13.89
13.4991
12.6044
11.5883
11.4822
11.9354
11.7105
12.5612
21.2053
18.8727
19.8838
19.2159
16.484
13.9517
12.2644
11.4869
12.3466
15.0503
18.9273
23.8702
29.3238
34.4697
39.0246
41.5955
42.1726
41.1233
39.3638
37.7115
36.7642
36.6084
37.0212
37.6353
37.9802
37.8771
36.7888
34.5845
31.3146
35.5436
28.9547
29.7834
28.2277
24.8678
20.5576
16.942
16.1332
18.4023
22.0882
25.7698
29.5912
34.851
41.2006
46.6839
50.3906
51.7934
52.8431
51.9554
51.4474
51.1137
50.6579
50.8287
50.6819
51.0126
51.2788
50.6756
48.8806
45.3153
39.3715
44.6503
43.8446
51.507
50.9657
46.1675
40.4781
35.3025
32.2569
33.1487
36.5287
40.4154
42.943
43.442
43.6938
45.6975
50.8972
58.0517
63.9319
67.2923
69.5108
70.5896
70.3531
69.4868
68.5207
66.836
64.7004
61.4877
56.9758
51.585
44.6598
54.044
27.068
20.3827
17.5118
24.6042
35.9348
46.1112
54.5617
59.9585
62.6785
63.9566
63.6147
62.7589
63.599
62.8457
64.9302
66.201
68.1443
70.0149
71.7923
72.4206
70.9721
66.9604
59.9923
50.9529
41.0093
30.3067
20.7899
17.8574
20.8105
29.2376
29.4318
33.6432
32.8621
30.0242
26.3389
22.5379
19.8055
20.2484
24.3467
31.3055
38.3284
44.519
49.8282
53.5927
55.2884
55.333
54.6492
53.3674
51.7973
50.8924
51.4082
52.3872
54.2321
55.8867
57.5325
58.4251
57.9756
55.4799
50.018
49.8691
39.337
40.3398
32.4469
26.1848
24.6791
29.6532
38.1871
45.2151
53.4234
64.8503
74.8229
80.8124
83.1059
82.2947
79.9304
77.7147
75.563
73.7872
74.6836
77.2682
80.2843
83.5241
87.1656
88.5695
88.2841
84.581
75.7222
63.2831
49.5267
43.4327
27.5812
18.5744
28.7241
39.4761
49.3075
57.8186
64.1351
67.9676
69.2073
69.3949
70.0471
69.8704
70.8774
72.4362
74.2907
76.9631
77.8984
79.5553
79.9127
77.2389
71.1076
61.3428
50.1585
39.2321
28.4614
19.2819
18.568
18.1046
15.7601
24.5102
47.6714
38.2663
49.1662
60.7444
70.0346
77.1953
79.4053
81.5851
81.3313
82.1792
82.1423
83.1718
85.4716
88.0213
89.9453
90.719
90.3588
87.1874
78.5708
66.1883
52.2156
38.5591
27.9333
26.4135
28.6265
28.2085
25.5842
22.7464
20.9811
25.2792
35.9294
29.2912
37.2055
51.0157
67.7566
82.9308
94.0056
101.47
105.938
108.835
109.299
112.412
113.095
115.913
115.729
115.64
112.751
108.216
100.915
89.2648
72.9853
54.0514
35.7574
25.5678
26.9727
26.5902
23.0866
20.1031
19.0367
29.2358
68.3572
63.4983
84.0534
106.579
124.409
136.213
141.625
144.356
145.111
143.995
142.807
145.246
139.993
136.98
125.536
113.898
98.0901
79.1562
55.3964
39.378
37.7262
40.2578
41.7811
42.0254
40.2119
36.2758
30.9837
25.6198
25.5552
34.5441
49.9221
39.3287
47.4515
53.7462
56.3379
56.8448
55.8847
55.0858
54.0283
54.2089
54.5775
55.4749
57.5292
59.7035
62.1328
63.2197
64.5316
62.6466
62.4912
60.5628
58.4974
53.2856
44.2163
36.2683
38.5202
47.5443
56.6564
63.3056
64.9843
59.3075
26.6507
23.5203
25.8978
29.1062
33.9384
38.1928
42.978
47.4664
49.817
50.2643
49.8012
48.7118
47.7821
47.2171
47.1256
47.6816
47.8601
49.0482
48.1278
46.5325
42.7739
38.321
31.7165
22.2902
14.6937
9.73148
8.90789
10.5402
11.5568
6.25013
14.8899
12.6021
13.6738
14.4345
14.5695
14.2148
13.9722
13.7096
13.2245
12.1091
11.5642
12.3711
12.8664
13.3694
22.0248
20.2127
20.8249
19.9478
16.9393
13.6444
11.2548
10.3316
11.9268
15.8743
20.3734
25.6878
31.8937
37.6023
41.9567
43.6224
42.4012
39.1038
35.1645
31.8195
29.8619
29.7244
31.0702
33.2595
35.2781
36.8463
37.1219
36.2253
33.9653
37.037
28.4521
31.2427
28.5054
23.7175
18.0137
13.5664
14.2166
18.6941
23.6313
27.8471
32.2783
38.6024
44.764
49.8546
52.5057
52.8342
51.6912
49.0026
47.0784
44.3896
43.494
43.9633
45.4589
46.9861
48.679
50.1296
50.1002
47.5923
42.5169
46.5628
44.1555
55.6228
52.6135
45.2415
36.794
29.1843
24.5978
27.8708
35.0345
41.2129
44.7625
45.8085
47.0986
50.5924
57.859
65.3703
69.623
70.8507
69.6771
67.2874
65.9113
64.6929
64.0528
64.042
63.7675
62.0586
59.3571
55.1704
49.039
56.7535
29.1259
21.5221
19.0459
28.1725
39.6205
49.7757
57.8158
61.7364
62.7703
61.2328
58.5526
54.8761
52.3381
50.1905
50.1694
53.0188
57.2908
61.7149
66.4203
69.2695
70.8053
69.3696
63.3087
54.5383
44.0676
33.1484
23.2582
18.3768
20.16
29.7724
29.0879
35.3596
33.2675
29.1225
24.3016
19.6671
16.9652
18.5564
24.5038
32.8797
40.4002
46.5217
51.4138
54.4692
55.3873
54.3679
51.7571
47.6339
44.0813
41.8837
41.1632
42.5667
45.5795
49.4564
53.1031
56.2563
58.2598
58.3391
55.1521
52.1679
40.1107
43.6109
33.2691
24.32
21.7189
28.4819
39.401
46.998
55.9956
69.1845
79.4906
85.3123
85.2815
82.5597
77.0155
69.7906
61.722
57.3805
56.1602
59.0568
64.1765
70.5845
78.5306
82.6059
86.4266
85.6188
79.5181
67.5489
54.0222
45.0638
28.8172
20.421
31.178
42.0005
52.5705
61.6287
67.5676
69.8896
68.8065
66.6353
63.5622
59.3529
58.8503
59.3851
62.2493
66.27
70.0041
74.5874
76.2798
77.4981
73.8024
65.7097
54.9109
43.5395
32.7138
22.7289
19.1901
18.111
16.0481
25.0578
51.8312
41.152
52.7655
64.6399
72.9856
78.4945
78.6312
78.819
73.2472
70.2674
67.1106
67.7041
70.6658
76.0171
81.52
86.0498
89.2193
89.0043
83.3691
72.387
58.154
44.0834
32.5474
28.8352
29.9196
28.7947
25.6675
23.5927
23.4477
26.1982
42.7279
29.6744
39.7718
56.7459
75.0142
88.9637
98.5029
103.205
103.717
101.421
99.5255
96.8929
97.2387
98.697
104.258
107.407
110.978
110.226
105.653
95.8215
80.1804
60.6898
40.9812
28.3788
27.313
25.6969
21.9663
19.7698
20.0815
30.124
79.7382
72.951
95.9212
119.192
133.677
140.478
140.732
136.483
128.875
125.23
127.341
131.217
132.848
135.402
127.409
120.741
104.881
85.7223
61.6795
43.875
41.3956
43.7949
46.2937
47.9347
46.9125
43.1579
37.769
31.5521
27.0906
35.324
51.7727
41.1119
48.9788
53.7864
54.6968
52.8982
50.346
47.694
45.6797
44.9481
45.326
47.7174
50.9607
54.9756
58.5991
62.1334
63.7099
64.3782
64.6015
62.2427
59.9176
54.5056
44.5499
32.7414
32.3541
42.9487
54.9891
64.518
68.4935
58.7354
26.8761
22.0517
27.4526
28.9803
33.9275
39.3602
44.7096
48.431
49.5536
48.5394
46.3321
43.8583
41.0784
39.7833
40.3767
42.6254
44.5308
47.5463
48.1938
48.3941
44.2165
38.7434
33.1162
24.9712
16.0068
9.94738
7.89751
8.89017
9.96304
4.57401
14.4882
13.6784
14.7133
14.5016
13.3166
12.1998
11.752
11.9709
12.2816
12.2647
11.9338
13.003
13.9185
13.8875
22.6905
21.1665
21.4908
20.8368
18.0726
14.349
11.3759
10.3489
12.7057
17.3586
21.9258
27.1858
33.7842
39.8023
43.8093
44.2758
41.1368
35.8456
30.2795
25.5147
22.3492
21.9224
24.8036
28.8639
32.8778
35.6354
37.4327
37.5978
36.0579
37.4904
27.8698
32.1251
28.7815
23.4239
17.6471
14.1863
15.9472
20.3983
25.0599
29.1625
34.1469
40.6346
46.7574
51.3726
53.7631
52.1293
49.6999
45.4073
40.8379
36.9774
34.6639
35.2065
38.6862
43.2469
47.1258
49.5823
50.8633
49.7398
44.9208
46.8282
42.9717
58.5939
54.4194
45.1813
34.9841
25.2421
20.114
25.581
34.4563
41.76
45.5263
46.8815
49.3556
54.6909
63.5943
70.8556
72.598
70.2683
65.7226
59.6895
54.8162
53.2194
55.4079
57.9861
60.8628
61.9589
61.0715
58.163
52.6524
57.6625
31.0726
22.8932
21.2073
31.1973
42.432
52.5712
60.0993
63.0317
62.6547
58.9556
54.7019
47.8901
42.4208
37.054
35.696
38.9129
45.8281
53.778
60.002
66.2459
70.2041
69.5222
64.8692
56.5611
45.4357
33.5512
23.6642
18.4416
19.645
30.163
29.033
36.8167
33.9973
29.1258
23.9486
19.6683
17.9449
19.9429
25.8902
33.6675
40.5295
46.4856
51.213
54.2833
55.0755
53.0345
48.8171
42.95
37.139
32.0627
29.2157
31.3193
36.4477
42.6507
48.6663
54.1821
58.4735
60.5825
59.1652
52.614
40.0335
46.5076
34.7718
23.4435
19.2309
27.2861
39.1022
47.0299
56.9449
70.9741
82.1008
87.8416
87.9758
84.5427
75.8665
64.6026
52.999
41.8536
37.2683
42.5347
50.9795
59.7264
70.8049
77.6976
83.7552
86.4291
81.5689
70.747
56.8084
45.5455
30.5687
22.4109
32.5195
43.5127
54.8626
64.3652
70.3396
71.536
69.1638
64.7871
57.5932
50.0874
45.8055
44.2669
48.9743
55.7806
61.5841
67.8957
72.2701
75.5443
73.832
67.7449
57.5348
46.1915
34.7401
24.3979
19.5164
17.8979
16.6862
26.8783
54.0543
42.9546
54.9834
66.6715
74.9324
79.3215
78.2473
75.5957
66.3909
59.0641
49.5367
48.274
54.5208
63.4654
72.2241
80.5888
86.6829
88.0324
84.5981
75.2404
61.3796
46.8205
34.6987
30.024
29.9528
27.5689
24.1074
24.3058
25.995
26.5929
47.7241
29.2675
41.9576
61.2634
79.4073
92.9266
101.128
103.686
99.7423
94.1758
83.8156
75.1831
71.2371
79.5533
89.1735
98.936
105.911
110.241
107.811
100.255
85.2422
64.461
43.3357
29.1316
26.1836
24.1056
21.2567
20.5172
22.014
31.8689
81.9459
81.2345
106.072
124.832
134.621
136.524
132.162
120.104
106.469
98.9743
98.1342
109.037
115.975
129.533
126.525
123.473
108.279
90.7295
65.6521
49.0638
46.9183
47.4658
48.8013
50.6267
50.6112
49.0645
45.2633
38.6754
32.5036
38.2409
52.6226
42.3651
49.7142
53.7693
53.2962
50.3836
45.4844
41.1379
37.0618
35.0112
36.1241
39.6875
44.8804
50.221
55.8138
59.812
62.4635
63.2771
62.8963
61.617
59.0978
54.8098
47.3831
38.6569
36.2397
42.9649
54.4982
65.0551
70.3178
57.3175
27.5922
20.6097
27.3598
28.85
33.409
39.7448
45.5491
48.8857
49.0663
46.9907
43.2242
37.9772
33.3371
30.8815
31.981
36.7704
40.5732
45.353
47.4754
49.0395
45.7809
39.6985
32.387
26.5162
18.1056
10.9052
8.11666
8.41176
9.19083
4.09403
14.2664
14.6157
14.6255
13.0048
11.4366
10.2159
9.29483
9.25663
10.4022
11.7116
12.2652
13.6973
14.6887
13.9925
23.6446
21.8001
21.9835
21.5003
19.3706
15.861
12.7167
11.612
14.1823
18.8356
22.8365
27.9637
34.6859
40.7355
44.2622
43.6232
38.9523
32.489
25.9068
20.1411
15.5359
14.9632
19.8513
25.8033
31.2726
35.2224
37.8412
38.6983
37.8463
36.6794
27.7265
32.2447
28.5883
23.5616
19.1872
17.5678
18.9488
22.0443
25.815
29.4786
34.8115
40.8955
47.6735
52.3866
54.0179
51.4577
48.0388
41.5225
35.3712
28.8348
24.4948
27.3333
34.138
40.5926
46.7248
50.7719
52.3355
51.3675
46.2395
46.1268
39.9818
60.3067
55.2475
45.5942
34.6595
25.1128
21.5234
26.6027
34.5809
41.3556
45.0393
46.9532
50.2806
57.4316
67.8743
73.9957
73.2933
67.8327
60.27
50.588
42.8654
39.6669
44.6334
51.7832
58.5348
62.3479
62.7173
60.7203
55.2829
56.7801
33.0442
24.9751
24.3374
34.3794
45.2538
54.9651
62.0352
64.5119
63.3509
58.691
53.8463
45.1949
37.4337
28.9084
22.7417
27.2682
37.9342
47.5804
56.6531
64.6775
68.6566
69.2149
65.4225
56.7264
45.1116
32.5397
22.3411
17.8366
19.9965
31.0809
28.826
36.7712
34.197
29.8646
25.2868
22.0619
20.9396
22.4684
26.8181
33.0139
39.006
44.5433
49.7858
53.8735
54.5265
52.2221
47.5083
40.7004
33.1977
25.3209
18.8072
21.9721
30.0425
37.9808
45.9685
52.6282
58.4606
62.1778
62.2007
50.5596
40.9603
48.9303
37.1805
24.2543
17.785
25.8063
37.4972
45.7354
55.605
70.1577
82.1672
89.5851
90.5032
87.0781
77.5449
66.5747
50.9664
36.3423
25.5017
32.0369
43.1083
53.9199
66.1236
75.4614
81.7667
86.9709
82.8293
71.8885
58.1066
45.5806
33.1951
24.1869
33.0517
44.0868
55.8483
65.9932
72.1142
73.2276
70.6659
64.5255
55.2692
45.2277
34.6048
27.6521
35.7729
46.2292
54.2567
62.5134
68.4793
72.6094
72.6782
67.8681
58.5716
47.2875
35.3764
24.574
19.3799
18.3573
18.9241
31.2972
54.1638
43.8824
56.2373
67.7245
75.5675
80.7944
78.5644
75.2054
64.5666
53.3338
37.8682
32.8422
42.2993
54.0352
65.3955
76.5482
83.2145
86.1498
83.5678
75.1534
61.08
46.4238
34.0138
29.121
28.3398
25.339
23.5617
26.4788
28.4438
27.742
48.101
29.1501
43.8705
63.8959
82.0434
95.4857
102.831
103.102
97.4898
88.1428
71.3675
54.658
48.067
60.6417
77.7757
91.3486
103.402
109.496
109.308
102.473
86.6847
65.4613
43.3656
28.3385
25.1086
24.233
23.9909
25.0175
26.5252
37.7397
84.1369
87.4243
108.998
124.144
129.624
131.735
120.407
105.184
82.8682
69.0967
72.7899
90.7816
103.224
119.37
123.23
123.349
111.178
92.5536
68.3772
55.6015
51.4319
48.5364
47.9427
47.8192
48.0597
47.3204
45.2294
42.4759
38.4298
45.3833
52.4102
42.5392
49.4584
54.1391
53.9943
50.039
44.3391
37.9148
30.508
26.5286
27.86
33.6076
40.1162
47.4533
53.5023
58.6633
61.3647
61.5479
59.0985
58.8114
56.088
53.3329
48.9849
43.936
41.9142
45.486
54.3294
64.0987
70.1607
56.4136
31.1546
20.3873
22.5372
30.6069
33.2104
39.3609
45.7966
49.3035
49.2069
46.644
41.6891
34.7441
26.7289
22.2358
25.3605
32.8247
38.0052
44.3014
46.8547
49.1392
47.0733
41.2109
31.9348
26.5334
19.941
12.9077
9.40938
9.45576
10.1704
6.32524
14.1033
14.765
13.3705
11.6917
10.6159
9.30282
7.9321
7.40863
8.86781
11.2756
12.6646
14.4314
15.1966
13.8656
17.2562
21.1947
22.1788
22.2121
22.2281
21.9223
20.4642
17.7981
14.937
13.713
15.8452
19.6989
22.912
27.8979
34.4439
40.5635
43.8762
42.3741
37.0842
30.3217
23.7844
17.8424
12.3371
12.2597
18.8191
25.4074
31.3679
35.6121
38.3934
39.6839
38.4431
35.5427
30.7516
28.5767
29.3466
31.1297
27.5052
23.175
20.2345
19.5983
20.6125
22.9276
25.8007
28.8568
34.0662
40.4089
48.2115
52.752
54.3202
51.1762
47.5371
40.7106
34.2281
26.1779
20.5863
25.5775
34.8013
42.6316
48.7822
53.1113
54.4986
52.1831
46.1343
39.7172
38.4587
36.9111
46.0132
60.0084
55.3109
46.0124
35.8019
28.2365
25.5991
28.6939
34.3668
40.0287
43.0796
45.3553
49.6941
58.911
70.2136
75.1146
72.9303
66.2128
56.7932
45.7034
35.0902
30.7739
40.1635
51.0415
59.7228
64.0327
64.6331
62.1524
55.7823
49.0975
36.4829
40.9954
39.4512
30.8153
30.6104
38.3404
48.0562
57.2226
63.8844
66.2734
65.1504
61.0135
56.474
48.6946
41.1234
33.6151
27.1715
29.7094
38.2711
47.8558
57.4657
64.1943
68.0977
69.0738
64.5166
55.5896
43.2385
30.8747
21.7039
19.5349
21.8687
22.9287
31.0443
31.4498
32.3539
35.5738
32.9214
29.5284
26.2482
24.0979
23.3621
24.2355
26.8995
31.1263
35.9516
41.7969
48.101
53.0601
54.6412
52.3392
48.5402
42.6895
35.568
28.4602
22.1137
23.2189
29.6458
37.3746
45.1543
52.1035
58.5346
62.7428
62.9773
52.1732
40.5498
41.2228
50.4938
50.587
39.5357
26.3485
18.2296
24.3356
35.3314
42.8795
52.1951
66.4432
80.3445
88.8879
92.0958
88.799
82.7307
72.1242
58.9309
46.6079
37.5878
37.7075
44.614
54.9732
65.5712
75.0387
82.2677
86.2305
82.7759
71.4145
58.0285
46.013
37.6706
35.1799
25.1632
25.4951
32.9126
43.5053
55.5701
66.1786
72.7486
74.5829
72.632
66.2424
58.0288
48.3943
37.6731
27.8033
32.2319
41.821
50.4126
59.3401
65.4692
70.2334
70.728
66.7036
57.9527
46.3741
33.9678
22.5965
19.7081
21.5032
24.9635
31.0631
42.6405
46.3877
36.0212
45.516
57.0033
68.0498
75.9695
81.6885
80.0544
77.8268
68.8134
59.6983
46.8291
40.0875
44.0521
53.683
64.4725
74.5178
80.5482
83.6543
80.9805
71.9915
57.9868
42.4769
30.1228
26.2751
25.2106
23.9222
25.8513
30.1561
32.0251
34.6455
44.6935
43.0198
26.6101
30.2373
44.6885
64.6232
82.9567
95.9678
102.91
103.076
98.8763
87.7019
70.6858
53.2776
43.6511
56.6072
73.4043
91.0278
101.889
109.838
109.831
102.587
86.5297
63.3338
40.6088
27.3492
26.0842
27.2972
28.8001
29.1876
28.9048
29.7154
47.2698
53.4118
60.9481
84.4443
104.44
116.718
125.108
123.332
115.746
94.0457
70.5192
54.2969
59.6273
81.0102
96.3579
114.711
119.449
122.982
110.584
91.5855
71.3425
61.4027
54.3505
48.3093
43.8852
42.1896
41.9578
42.3429
42.6809
41.6378
39.4849
36.8113
43.6573
45.299
44.505
45.8126
50.1973
55.2768
56.4916
53.6926
48.0401
41.2664
32.7236
26.8887
26.8757
32.5577
39.6292
46.5207
53.1693
58.4433
61.251
60.2962
55.9151
53.3269
51.1966
49.6967
47.8696
45.3646
44.0555
45.856
51.9615
60.3055
67.0255
59.8084
51.8563
45.575
32.0822
26.4259
22.2427
28.8377
35.989
40.4155
45.8493
49.9046
50.5233
48.3951
43.8609
37.0375
29.2927
24.0549
27.043
34.3374
39.056
44.8614
47.2202
49.4057
47.7709
42.3373
32.9825
25.5377
20.7784
15.5415
12.1057
12.1905
13.0749
11.4827
7.27107
3.95611
14.0073
14.2205
12.2911
11.2742
10.4775
9.15806
7.48568
6.95584
8.73693
11.2564
13.0839
14.8155
15.0652
13.0553
10.5245
12.7687
20.0682
21.6659
21.8971
21.7252
20.9253
19.1376
16.9577
15.7884
17.1595
19.752
22.2416
26.7877
33.0694
39.2346
42.6264
41.064
35.9582
29.9276
24.4333
19.905
16.9021
17.7818
22.3178
27.6569
32.5064
36.6953
39.0099
40.0024
37.8268
31.9808
17.2577
17.7256
28.9982
28.5791
25.285
21.7629
19.911
19.6442
21.0417
23.1503
24.9121
27.3178
32.3814
39.7934
48.3029
52.9832
54.8309
52.1964
49.6827
44.094
39.3583
33.7372
31.643
35.331
41.7432
48.2007
53.2538
56.5794
56.2687
52.4231
44.9074
36.3866
22.4631
29.6781
53.2985
57.2385
52.8123
44.6583
36.7854
30.6593
28.6599
30.1474
33.832
37.8847
40.2271
42.872
47.8807
58.9117
70.6892
74.9251
73.0044
67.2398
59.612
50.8025
43.923
43.6843
51.4691
58.2691
64.4076
66.6689
65.8633
61.7429
53.7686
42.5941
31.992
41.2767
45.3945
34.4437
33.8272
40.8829
49.6249
58.3805
65.2946
68.1913
68.109
65.2439
61.9294
56.5338
50.8564
45.7383
42.0228
43.4169
47.9403
54.7941
61.0131
65.5606
68.932
68.0532
62.7438
53.5616
41.7319
30.8393
23.5957
22.6688
24.2685
24.2987
23.0601
24.215
32.9855
32.3943
30.0469
27.7766
25.9663
24.8549
24.6044
24.9285
26.0801
28.2783
32.0648
38.742
46.2246
52.1369
54.9055
54.4922
51.76
47.9415
42.9351
37.6578
33.9442
33.4127
36.0222
40.5733
46.3346
52.3123
57.88
61.4803
61.7616
54.1843
27.1275
27.7645
49.6984
51.2398
41.4005
28.5872
19.6787
23.4983
32.4283
39.1104
47.0672
60.529
75.4396
85.8708
91.6234
91.8906
87.912
80.0681
69.8324
60.6656
53.9493
51.9136
54.3379
61.5204
69.6224
76.1701
83.2875
85.062
80.5229
69.2984
56.3816
45.6066
25.0731
22.0302
22.5474
23.4865
30.5548
40.879
53.0383
64.3245
71.9071
75.6057
74.2502
69.7055
63.5264
55.9687
49.247
42.9859
42.1692
46.4296
52.7871
59.1303
64.323
68.5106
68.5228
64.7393
56.093
44.6921
31.9613
22.1605
20.1952
21.4291
22.8896
24.1373
25.2534
28.3186
34.8743
44.5565
55.4883
66.515
74.8404
81.8577
82.3766
81.3756
76.2131
70.7863
62.5362
58.0138
57.646
62.1458
69.0466
75.251
79.6627
81.0863
76.8167
67.2988
52.6233
35.8342
25.5635
24.0897
23.9031
25.3645
29.2102
32.41
33.2293
31.94
25.6924
23.3948
23.2667
29.5282
42.8658
63.146
80.9043
94.3197
101.562
104.384
101.093
94.4282
81.4006
71.0937
64.3801
71.0913
81.0975
95.9722
104.363
109.31
108.221
100.439
82.509
59.6942
38.511
28.211
27.7367
28.8841
29.209