/*--------------------------------*- C++ -*----------------------------------*\
| =========                 |                                                 |
| \\      /  F ield         | OpenFOAM: The Open Source CFD Toolbox           |
|  \\    /   O peration     | Version:  2.1.1                                 |
|   \\  /    A nd           | Web:      www.OpenFOAM.org                      |
|    \\/     M anipulation  |                                                 |
\*---------------------------------------------------------------------------*/
FoamFile
{
    version     2.0;
    format      ascii;
    class       volScalarField;
    location    "0.000150000";
    object      OH;
}
// * * * * * * * * * * * * * * * * * * * * * * * * * * * * * * * * * * * * * //

dimensions      [0 0 0 0 0 0 0];

internalField   nonuniform List<scalar> 
12384
(
2.39733e-08
1.96454e-08
6.92282e-10
3.82867e-12
1.75725e-14
7.39666e-17
2.90203e-19
1.04078e-21
3.32943e-24
9.28958e-27
2.13141e-29
3.98484e-32
6.06779e-35
8.15747e-38
1.72023e-54
9.91865e-55
6.19398e-57
2.44606e-59
7.50018e-62
1.91809e-64
4.27472e-67
8.56459e-70
1.57417e-72
2.69152e-75
4.3305e-78
6.61271e-81
9.62834e-84
1.34181e-86
1.79615e-89
2.31397e-92
2.87331e-95
3.44652e-98
4.00126e-101
4.50104e-104
4.91383e-107
5.21706e-110
5.39899e-113
5.45648e-116
5.38668e-119
5.17856e-122
4.81437e-125
4.30347e-128
3.69382e-131
2.82727e-134
8.53851e-148
1.22405e-148
2.90116e-151
4.63956e-154
6.05101e-157
6.83272e-160
6.89598e-163
6.36475e-166
4.95051e-169
3.87109e-173
6.28284e-177
2.08014e-180
9.95297e-184
4.8456e-187
2.15129e-190
8.41764e-194
2.91408e-197
9.13245e-201
2.61254e-204
6.84201e-208
1.66747e-211
3.83953e-215
8.46323e-219
1.80809e-222
3.72843e-226
7.15294e-230
1.20229e-233
1.73993e-237
2.24135e-241
6.86857e-246
6.57976e-271
4.34706e-269
3.52831e-272
1.67489e-275
5.97361e-279
1.68477e-282
3.98801e-286
8.34679e-290
1.59566e-293
2.8212e-297
4.65058e-301
7.22782e-305
1.07121e-308
1.53665e-312
2.16022e-316
2.96588e-320
4.94066e-324
0
0
0
0
0
0
0
0
0
0
0
0
0
0
0
0
0
0
0
0
0
0
0
0
0
0
0
0
0
0
0
0
0
0
0
0
0
0
0
0
0
0
0
0
0
0
0
0
0
0
0
0
0
0
0
0
0
0
0
0
0
0
0
0
0
0
0
0
0
0
0
0
0
0
0
0
0
0
0
0
0
0
0
0
0
0
0
0
0
0
0
0
0
0
0
0
0
0
0
0
0
0
0
0
0
0
0
0
0
0
0
0
0
0
0
0
0
0
0
0
0
0
0
0
0
0
0
0
0
0
0
0
0
0
0
0
0
0
0
0
0
0
0
0
0
0
0
0
0
0
0
0
0
0
0
0
0
0
0
0
0
0
0
0
0
0
0
0
0
0
0
0
0
0
0
0
0
0
0
0
0
0
0
0
0
0
0
0
0
0
0
0
0
0
0
0
0
0
0
0
0
0
0
0
0
0
0
0
0
0
0
0
0
0
0
0
0
0
0
0
0
0
0
0
0
0
0
0
0
0
0
0
0
0
0
0
0
0
0
0
0
0
0
0
0
0
0
0
0
0
0
0
0
0
0
0
0
0
0
0
0
0
0
0
0
0
0
0
0
0
0
0
0
0
0
0
0
0
0
0
0
0
0
2.96261e-06
2.36857e-06
6.66729e-08
3.8447e-10
1.6273e-12
5.66134e-15
1.69286e-17
4.49042e-20
1.06607e-22
2.33254e-25
4.80399e-28
9.51295e-31
1.84361e-33
3.52714e-36
1.00501e-51
5.10797e-52
3.24465e-54
1.28698e-56
3.96288e-59
1.01982e-61
2.2843e-64
4.59057e-67
8.46541e-70
1.45398e-72
2.3566e-75
3.644e-78
5.39618e-81
7.66196e-84
1.04645e-86
1.37753e-89
1.74887e-92
2.14492e-95
2.54592e-98
2.92909e-101
3.2739e-104
3.56359e-107
3.78566e-110
3.92862e-113
3.97507e-116
3.90113e-119
3.68328e-122
3.32487e-125
2.86769e-128
2.12085e-131
1.43525e-144
1.67677e-145
3.75346e-148
5.67783e-151
7.13075e-154
7.86921e-157
7.81596e-160
7.11931e-163
6.04947e-166
4.36623e-169
7.98728e-173
2.47241e-176
1.15734e-179
5.68583e-183
2.54619e-186
1.00436e-189
3.50502e-193
1.10129e-196
3.15392e-200
8.34757e-204
2.07308e-207
4.8737e-211
1.09503e-214
2.36745e-218
4.89344e-222
9.45498e-226
1.64985e-229
2.54442e-233
3.49626e-237
2.05999e-241
5.58375e-266
9.98247e-265
7.33046e-268
3.16058e-271
1.06113e-274
2.94654e-278
6.979e-282
1.45412e-285
2.75399e-289
4.83106e-293
7.91243e-297
1.22781e-300
1.82773e-304
2.62816e-308
3.68451e-312
5.06032e-316
6.81317e-320
9.88131e-324
0
0
0
0
0
0
0
0
0
0
0
0
0
0
0
0
0
0
0
0
0
0
0
0
0
0
0
0
0
0
0
0
0
0
0
0
0
0
0
0
0
0
0
0
0
0
0
0
0
0
0
0
0
0
0
0
0
0
0
0
0
0
0
0
0
0
0
0
0
0
0
0
0
0
0
0
0
0
0
0
0
0
0
0
0
0
0
0
0
0
0
0
0
0
0
0
0
0
0
0
0
0
0
0
0
0
0
0
0
0
0
0
0
0
0
0
0
0
0
0
0
0
0
0
0
0
0
0
0
0
0
0
0
0
0
0
0
0
0
0
0
0
0
0
0
0
0
0
0
0
0
0
0
0
0
0
0
0
0
0
0
0
0
0
0
0
0
0
0
0
0
0
0
0
0
0
0
0
0
0
0
0
0
0
0
0
0
0
0
0
0
0
0
0
0
0
0
0
0
0
0
0
0
0
0
0
0
0
0
0
0
0
0
0
0
0
0
0
0
0
0
0
0
0
0
0
0
0
0
0
0
0
0
0
0
0
0
0
0
0
0
0
0
0
0
0
0
0
0
0
0
0
0
0
0
0
0
0
0
0
0
0
0
0
0
0
0
0
0
0
0
0
0
0
0
0
0
0
0
0
0
0
4.79158e-08
5.43742e-08
2.806e-10
1.68597e-13
7.96332e-17
3.2685e-19
5.05725e-22
5.45343e-25
4.19997e-28
3.4388e-31
4.02077e-34
7.72735e-37
2.1742e-39
2.67322e-42
3.85043e-53
1.74986e-53
1.08137e-55
4.06625e-58
1.15098e-60
2.69591e-63
5.51391e-66
1.01462e-68
1.71495e-71
2.6953e-74
4.02286e-77
5.86988e-80
8.38882e-83
1.1591e-85
1.54809e-88
2.00278e-91
2.51093e-94
3.05264e-97
3.59467e-100
4.15294e-103
4.78808e-106
5.48161e-109
6.15324e-112
6.65023e-115
6.75441e-118
6.37111e-121
5.64207e-124
4.83417e-127
4.01649e-130
5.59684e-134
1.64451e-145
1.73707e-146
3.37954e-149
4.36795e-152
4.72598e-155
4.56233e-158
4.01008e-161
3.24188e-164
2.44377e-167
1.73996e-170
1.16577e-173
6.81919e-177
3.81656e-180
1.92632e-183
8.47385e-187
3.19938e-190
1.05347e-193
3.0981e-197
8.30102e-201
2.07752e-204
4.97175e-208
1.14341e-211
2.52952e-215
5.37613e-219
1.07894e-222
1.98977e-226
3.30213e-230
4.95406e-234
6.90468e-238
3.43913e-242
2.89942e-265
1.05578e-264
6.2687e-268
2.20856e-271
6.11815e-275
1.45814e-278
3.083e-282
5.85505e-286
1.014e-289
1.62472e-293
2.42607e-297
3.44547e-301
4.77737e-305
6.51441e-309
8.71611e-313
1.14729e-316
1.49307e-320
0
0
0
0
0
0
0
0
0
0
0
0
0
0
0
0
0
0
0
0
0
0
0
0
0
0
0
0
0
0
0
0
0
0
0
0
0
0
0
0
0
0
0
0
0
0
0
0
0
0
0
0
0
0
0
0
0
0
0
0
0
0
0
0
0
0
0
0
0
0
0
0
0
0
0
0
0
0
0
0
0
0
0
0
0
0
0
0
0
0
0
0
0
0
0
0
0
0
0
0
0
0
0
0
0
0
0
0
0
0
0
0
0
0
0
0
0
0
0
0
0
0
0
0
0
0
0
0
0
0
0
0
0
0
0
0
0
0
0
0
0
0
0
0
0
0
0
0
0
0
0
0
0
0
0
0
0
0
0
0
0
0
0
0
0
0
0
0
0
0
0
0
0
0
0
0
0
0
0
0
0
0
0
0
0
0
0
0
0
0
0
0
0
0
0
0
0
0
0
0
0
0
0
0
0
0
0
0
0
0
0
0
0
0
0
0
0
0
0
0
0
0
0
0
0
0
0
0
0
0
0
0
0
0
0
0
0
0
0
0
0
0
0
0
0
0
0
0
0
0
0
0
0
0
0
0
0
0
0
0
0
0
0
0
0
0
0
0
0
0
0
0
0
0
0
0
0
0
0
0
0
0
0
0.00207397
0.0011107
1.62044e-07
5.13725e-10
5.53847e-13
2.14827e-15
4.02617e-18
5.93141e-21
5.5745e-24
4.91449e-27
5.11919e-30
7.01112e-33
1.22749e-35
1.83065e-38
7.46913e-49
6.5263e-50
4.07562e-52
1.56117e-54
4.35897e-57
9.94828e-60
2.01869e-62
3.77472e-65
6.56981e-68
1.07004e-70
1.65913e-73
2.48906e-76
3.63761e-79
5.16674e-82
7.11998e-85
9.50157e-88
1.22717e-90
1.53751e-93
1.87778e-96
2.2566e-99
2.68682e-102
3.1646e-105
3.62227e-108
3.96524e-111
4.13221e-114
4.13672e-117
4.04597e-120
3.91612e-123
3.66751e-126
7.87623e-130
9.69128e-141
2.49527e-142
4.21513e-145
4.83399e-148
4.70399e-151
4.19907e-154
3.54328e-157
2.84532e-160
2.16772e-163
1.57113e-166
1.10825e-169
7.67522e-173
4.28406e-176
2.10768e-179
8.8868e-183
3.11485e-186
9.25658e-190
2.4091e-193
5.71693e-197
1.29012e-200
2.84026e-204
6.10695e-208
1.26556e-211
2.50933e-215
4.75438e-219
8.61642e-223
1.50355e-226
2.57283e-230
4.3624e-234
3.29032e-238
7.71128e-260
3.79215e-260
1.8358e-263
5.19624e-267
1.14022e-270
2.16481e-274
3.72862e-278
5.94143e-282
8.79515e-286
1.20466e-289
1.52932e-293
1.82967e-297
2.13552e-301
2.49559e-305
2.94047e-309
3.4868e-313
4.149e-317
4.95054e-321
0
0
0
0
0
0
0
0
0
0
0
0
0
0
0
0
0
0
0
0
0
0
0
0
0
0
0
0
0
0
0
0
0
0
0
0
0
0
0
0
0
0
0
0
0
0
0
0
0
0
0
0
0
0
0
0
0
0
0
0
0
0
0
0
0
0
0
0
0
0
0
0
0
0
0
0
0
0
0
0
0
0
0
0
0
0
0
0
0
0
0
0
0
0
0
0
0
0
0
0
0
0
0
0
0
0
0
0
0
0
0
0
0
0
0
0
0
0
0
0
0
0
0
0
0
0
0
0
0
0
0
0
0
0
0
0
0
0
0
0
0
0
0
0
0
0
0
0
0
0
0
0
0
0
0
0
0
0
0
0
0
0
0
0
0
0
0
0
0
0
0
0
0
0
0
0
0
0
0
0
0
0
0
0
0
0
0
0
0
0
0
0
0
0
0
0
0
0
0
0
0
0
0
0
0
0
0
0
0
0
0
0
0
0
0
0
0
0
0
0
0
0
0
0
0
0
0
0
0
0
0
0
0
0
0
0
0
0
0
0
0
0
0
0
0
0
0
0
0
0
0
0
0
0
0
0
0
0
0
0
0
0
0
0
0
0
0
0
0
0
0
0
0
0
0
0
0
0
0
0
0
0
0.00606455
0.00604931
0.00310746
1.15144e-06
1.78812e-08
6.09019e-11
1.38816e-13
2.45862e-16
2.75757e-19
2.71811e-22
2.95023e-25
3.91232e-28
5.74774e-31
8.52494e-34
5.15065e-44
9.69616e-46
5.97487e-48
2.52442e-50
7.70036e-53
1.84309e-55
3.88291e-58
7.56141e-61
1.38243e-63
2.38901e-66
3.96009e-69
6.32448e-72
9.71418e-75
1.43656e-77
2.05272e-80
2.83936e-83
3.80366e-86
4.93751e-89
6.21549e-92
7.60772e-95
9.12965e-98
1.08309e-100
1.25152e-103
1.38959e-106
1.48357e-109
1.54425e-112
1.58565e-115
1.60092e-118
1.54342e-121
4.80323e-125
2.11953e-135
1.68183e-137
2.57404e-140
2.8118e-143
2.63881e-146
2.29216e-149
1.91038e-152
1.5409e-155
1.19897e-158
9.00972e-162
6.67149e-165
4.89959e-168
3.52617e-171
1.72591e-174
7.13415e-178
2.39247e-181
6.69159e-185
1.60395e-188
3.4216e-192
6.77149e-196
1.29215e-199
2.44478e-203
4.57602e-207
8.34282e-211
1.46967e-214
2.51488e-218
4.23705e-222
7.06917e-226
1.15536e-229
9.67454e-234
9.23554e-254
6.6222e-255
2.68142e-258
6.50343e-262
1.22232e-265
1.98433e-269
2.94703e-273
4.09675e-277
5.33398e-281
6.4821e-285
7.50352e-289
8.51011e-293
9.59384e-297
1.0804e-300
1.21844e-304
1.37906e-308
1.56795e-312
1.79207e-316
2.05877e-320
0
0
0
0
0
0
0
0
0
0
0
0
0
0
0
0
0
0
0
0
0
0
0
0
0
0
0
0
0
0
0
0
0
0
0
0
0
0
0
0
0
0
0
0
0
0
0
0
0
0
0
0
0
0
0
0
0
0
0
0
0
0
0
0
0
0
0
0
0
0
0
0
0
0
0
0
0
0
0
0
0
0
0
0
0
0
0
0
0
0
0
0
0
0
0
0
0
0
0
0
0
0
0
0
0
0
0
0
0
0
0
0
0
0
0
0
0
0
0
0
0
0
0
0
0
0
0
0
0
0
0
0
0
0
0
0
0
0
0
0
0
0
0
0
0
0
0
0
0
0
0
0
0
0
0
0
0
0
0
0
0
0
0
0
0
0
0
0
0
0
0
0
0
0
0
0
0
0
0
0
0
0
0
0
0
0
0
0
0
0
0
0
0
0
0
0
0
0
0
0
0
0
0
0
0
0
0
0
0
0
0
0
0
0
0
0
0
0
0
0
0
0
0
0
0
0
0
0
0
0
0
0
0
0
0
0
0
0
0
0
0
0
0
0
0
0
0
0
0
0
0
0
0
0
0
0
0
0
0
0
0
0
0
0
0
0
0
0
0
0
0
0
0
0
0
0
0
0
0
0
0
0.00584136
0.00582171
0.00601162
0.00377831
9.92556e-06
3.9746e-07
1.02077e-09
2.13991e-12
2.58454e-15
2.93275e-18
3.65112e-21
5.28516e-24
7.98652e-27
1.17414e-29
9.24384e-40
6.26432e-42
3.20884e-44
1.39115e-46
4.70234e-49
1.22209e-51
2.73668e-54
5.63165e-57
1.09321e-59
2.01714e-62
3.54425e-65
5.95704e-68
9.58981e-71
1.48245e-73
2.20824e-76
3.1766e-79
4.41739e-82
5.94079e-85
7.73474e-88
9.77013e-91
1.20425e-93
1.44833e-96
1.69048e-99
1.91226e-102
2.10492e-105
2.27472e-108
2.42192e-111
2.52653e-114
2.51757e-117
1.10215e-120
1.26125e-130
4.42736e-133
6.03662e-136
6.29947e-139
5.80076e-142
4.98886e-145
4.13567e-148
3.35054e-151
2.66736e-154
2.08439e-157
1.59811e-160
1.20581e-163
8.93361e-167
6.47596e-170
2.58867e-173
8.12465e-177
2.10865e-180
4.58618e-184
8.63722e-188
1.46929e-191
2.36676e-195
3.73847e-199
5.84611e-203
8.98424e-207
1.35339e-210
2.01475e-214
2.99434e-218
4.45813e-222
6.53493e-226
4.67387e-230
4.9969e-248
5.53012e-250
1.7512e-253
3.47856e-257
5.45487e-261
7.40906e-265
9.20123e-269
1.07692e-272
1.20355e-276
1.28806e-280
1.33505e-284
1.36724e-288
1.39524e-292
1.41823e-296
1.4369e-300
1.45767e-304
1.48859e-308
1.53271e-312
1.58761e-316
1.65216e-320
0
0
0
0
0
0
0
0
0
0
0
0
0
0
0
0
0
0
0
0
0
0
0
0
0
0
0
0
0
0
0
0
0
0
0
0
0
0
0
0
0
0
0
0
0
0
0
0
0
0
0
0
0
0
0
0
0
0
0
0
0
0
0
0
0
0
0
0
0
0
0
0
0
0
0
0
0
0
0
0
0
0
0
0
0
0
0
0
0
0
0
0
0
0
0
0
0
0
0
0
0
0
0
0
0
0
0
0
0
0
0
0
0
0
0
0
0
0
0
0
0
0
0
0
0
0
0
0
0
0
0
0
0
0
0
0
0
0
0
0
0
0
0
0
0
0
0
0
0
0
0
0
0
0
0
0
0
0
0
0
0
0
0
0
0
0
0
0
0
0
0
0
0
0
0
0
0
0
0
0
0
0
0
0
0
0
0
0
0
0
0
0
0
0
0
0
0
0
0
0
0
0
0
0
0
0
0
0
0
0
0
0
0
0
0
0
0
0
0
0
0
0
0
0
0
0
0
0
0
0
0
0
0
0
0
0
0
0
0
0
0
0
0
0
0
0
0
0
0
0
0
0
0
0
0
0
0
0
0
0
0
0
0
0
0
0
0
0
0
0
0
0
0
0
0
0
0
0
0
0
0.00584714
0.0058301
0.00581939
0.00599884
0.00451185
5.22883e-05
2.94873e-07
1.36758e-09
4.62669e-12
1.25811e-14
2.85327e-17
5.56654e-20
9.60146e-23
1.53153e-25
1.76102e-35
7.22042e-38
2.7905e-40
1.09914e-42
3.91954e-45
1.12282e-47
2.71734e-50
5.97079e-53
1.22958e-55
2.40476e-58
4.46983e-61
7.89999e-64
1.33195e-66
2.15316e-69
3.34907e-72
5.01815e-75
7.24594e-78
1.00997e-80
1.36277e-83
1.7836e-86
2.2668e-89
2.79114e-92
3.33592e-95
3.88852e-98
4.42813e-101
4.93776e-104
5.39257e-107
5.74465e-110
5.89188e-113
3.93766e-116
8.22755e-126
1.56674e-128
1.92884e-131
1.95991e-134
1.80635e-137
1.5698e-140
1.31576e-143
1.07714e-146
8.69969e-150
6.95499e-153
5.46488e-156
4.20608e-159
3.17431e-162
2.35586e-165
1.71668e-168
4.97107e-172
1.20683e-175
2.42869e-179
4.18346e-183
6.40228e-187
9.04672e-191
1.21902e-194
1.61566e-198
2.15753e-202
2.91985e-206
3.99902e-210
5.52483e-214
7.65211e-218
1.0411e-221
7.52325e-226
4.69998e-242
8.01082e-245
1.92285e-248
3.15881e-252
4.26092e-256
5.05739e-260
5.50054e-264
5.62693e-268
5.55414e-272
5.41182e-276
5.2194e-280
4.96979e-284
4.68314e-288
4.38285e-292
4.09118e-296
3.82106e-300
3.57696e-304
3.36416e-308
3.18689e-312
3.04399e-316
2.93524e-320
4.94066e-324
0
0
0
0
0
0
0
0
0
0
0
0
0
0
0
0
0
0
0
0
0
0
0
0
0
0
0
0
0
0
0
0
0
0
0
0
0
0
0
0
0
0
0
0
0
0
0
0
0
0
0
0
0
0
0
0
0
0
0
0
0
0
0
0
0
0
0
0
0
0
0
0
0
0
0
0
0
0
0
0
0
0
0
0
0
0
0
0
0
0
0
0
0
0
0
0
0
0
0
0
0
0
0
0
0
0
0
0
0
0
0
0
0
0
0
0
0
0
0
0
0
0
0
0
0
0
0
0
0
0
0
0
0
0
0
0
0
0
0
0
0
0
0
0
0
0
0
0
0
0
0
0
0
0
0
0
0
0
0
0
0
0
0
0
0
0
0
0
0
0
0
0
0
0
0
0
0
0
0
0
0
0
0
0
0
0
0
0
0
0
0
0
0
0
0
0
0
0
0
0
0
0
0
0
0
0
0
0
0
0
0
0
0
0
0
0
0
0
0
0
0
0
0
0
0
0
0
0
0
0
0
0
0
0
0
0
0
0
0
0
0
0
0
0
0
0
0
0
0
0
0
0
0
0
0
0
0
0
0
0
0
0
0
0
0
0
0
0
0
0
0
0
0
0
0
0
0
0
0.00585007
0.00583419
0.00584299
0.00596129
0.00497262
0.00018744
1.88998e-06
1.30658e-08
6.8499e-11
2.90338e-13
1.03644e-15
3.2149e-18
8.5697e-21
2.08274e-23
4.68827e-32
1.65821e-34
4.94202e-37
1.64098e-39
5.61026e-42
1.70107e-44
4.40997e-47
1.03096e-49
2.25377e-52
4.65939e-55
9.13601e-58
1.69977e-60
3.00731e-63
5.08798e-66
8.26597e-69
1.29123e-71
1.94057e-74
2.81125e-77
3.93898e-80
5.34934e-83
7.03672e-86
8.96079e-89
1.10682e-91
1.33013e-94
1.55773e-97
1.77961e-100
1.9839e-103
2.15254e-106
2.26508e-109
1.99054e-112
7.58671e-122
9.73301e-125
1.05946e-127
1.03141e-130
9.44081e-134
8.30047e-137
7.09349e-140
5.93307e-143
4.87977e-146
3.95816e-149
3.16196e-152
2.47814e-155
1.90516e-158
1.44108e-161
1.07413e-164
7.85564e-168
1.74257e-171
3.14197e-175
4.8742e-179
6.71034e-183
8.40112e-187
9.82366e-191
1.11077e-194
1.25523e-198
1.44048e-202
1.68186e-206
1.98573e-210
2.34422e-214
2.72132e-218
1.77301e-222
1.22938e-236
3.15617e-240
5.17365e-244
6.63982e-248
7.44363e-252
7.628e-256
7.3429e-260
6.77063e-264
6.07983e-268
5.39646e-272
4.74421e-276
4.0953e-280
3.46221e-284
2.88578e-288
2.38878e-292
1.97012e-296
1.62082e-300
1.33324e-304
1.1025e-308
9.20094e-313
7.71896e-317
6.46238e-321
0
0
0
0
0
0
0
0
0
0
0
0
0
0
0
0
0
0
0
0
0
0
0
0
0
0
0
0
0
0
0
0
0
0
0
0
0
0
0
0
0
0
0
0
0
0
0
0
0
0
0
0
0
0
0
0
0
0
0
0
0
0
0
0
0
0
0
0
0
0
0
0
0
0
0
0
0
0
0
0
0
0
0
0
0
0
0
0
0
0
0
0
0
0
0
0
0
0
0
0
0
0
0
0
0
0
0
0
0
0
0
0
0
0
0
0
0
0
0
0
0
0
0
0
0
0
0
0
0
0
0
0
0
0
0
0
0
0
0
0
0
0
0
0
0
0
0
0
0
0
0
0
0
0
0
0
0
0
0
0
0
0
0
0
0
0
0
0
0
0
0
0
0
0
0
0
0
0
0
0
0
0
0
0
0
0
0
0
0
0
0
0
0
0
0
0
0
0
0
0
0
0
0
0
0
0
0
0
0
0
0
0
0
0
0
0
0
0
0
0
0
0
0
0
0
0
0
0
0
0
0
0
0
0
0
0
0
0
0
0
0
0
0
0
0
0
0
0
0
0
0
0
0
0
0
0
0
0
0
0
0
0
0
0
0
0
0
0
0
0
0
0
0
0
0
0
0
0
0.00581399
0.00581688
0.00583979
0.00584875
0.00412854
0.000181055
3.35521e-06
3.41086e-08
2.77888e-10
1.8326e-12
1.0103e-14
4.79016e-17
1.99072e-19
7.34384e-22
2.46863e-24
7.58342e-27
2.22239e-29
6.15751e-32
1.67998e-34
4.74644e-37
1.42397e-39
4.26254e-42
1.17427e-44
2.94113e-47
6.84177e-50
1.49475e-52
3.08555e-55
6.04189e-58
1.1254e-60
2.00056e-63
3.40466e-66
5.55615e-69
8.70399e-72
1.31148e-74
1.90614e-77
2.67864e-80
3.64277e-83
4.79935e-86
6.13704e-89
7.62597e-92
9.21424e-95
1.08285e-97
1.23767e-100
1.37386e-103
1.48106e-106
1.54408e-109
1.44944e-112
1.22878e-115
1.12096e-118
1.08384e-121
1.0203e-124
9.41978e-128
8.52908e-131
7.57015e-134
6.58999e-137
5.62986e-140
4.72334e-143
3.89612e-146
3.16503e-149
2.53161e-152
1.99086e-155
1.54006e-158
1.17284e-161
8.78679e-165
6.44143e-168
9.73995e-172
1.32563e-175
1.63102e-179
1.82915e-183
1.91532e-187
1.93669e-191
1.94646e-195
1.97943e-199
2.04331e-203
2.12444e-207
2.18164e-211
2.18743e-215
2.11357e-219
1.1809e-223
2.60529e-228
2.44968e-232
2.95957e-236
3.13086e-240
3.09351e-244
2.90769e-248
2.61893e-252
2.27807e-256
1.92352e-260
1.5845e-264
1.28115e-268
1.02564e-272
8.14128e-277
6.37435e-281
4.93899e-285
3.81246e-289
2.92914e-293
2.22703e-297
1.67634e-301
1.25812e-305
9.43474e-310
7.03974e-314
5.23409e-318
3.90312e-322
0
0
0
0
0
0
0
0
0
0
0
0
0
0
0
0
0
0
0
0
0
0
0
0
0
0
0
0
0
0
0
0
0
0
0
0
0
0
0
0
0
0
0
0
0
0
0
0
0
0
0
0
0
0
0
0
0
0
0
0
0
0
0
0
0
0
0
0
0
0
0
0
0
0
0
0
0
0
0
0
0
0
0
0
0
0
0
0
0
0
0
0
0
0
0
0
0
0
0
0
0
0
0
0
0
0
0
0
0
0
0
0
0
0
0
0
0
0
0
0
0
0
0
0
0
0
0
0
0
0
0
0
0
0
0
0
0
0
0
0
0
0
0
0
0
0
0
0
0
0
0
0
0
0
0
0
0
0
0
0
0
0
0
0
0
0
0
0
0
0
0
0
0
0
0
0
0
0
0
0
0
0
0
0
0
0
0
0
0
0
0
0
0
0
0
0
0
0
0
0
0
0
0
0
0
0
0
0
0
0
0
0
0
0
0
0
0
0
0
0
0
0
0
0
0
0
0
0
0
0
0
0
0
0
0
0
0
0
0
0
0
0
0
0
0
0
0
0
0
0
0
0
0
0
0
0
0
0
0
0
0
0
0
0
0
0
0
0
0
0
0
0
0
0
0
0
0
0
0
0
0
0
0
0
0
0
0
0
0
0
0
0
0
0
0
0
0
0.00583716
0.00583059
0.00583657
0.00393744
0.00221758
7.94059e-05
1.48277e-06
1.67684e-08
1.56501e-10
1.18432e-12
7.50773e-15
4.06907e-17
1.94633e-19
8.18999e-22
3.18002e-24
1.12781e-26
3.83217e-29
1.22441e-31
3.85297e-34
1.2209e-36
4.00482e-39
1.31961e-41
4.06645e-44
1.1349e-46
2.91638e-49
6.99691e-52
1.58163e-54
3.38959e-57
6.91834e-60
1.34864e-62
2.5148e-65
4.49655e-68
7.73527e-71
1.2831e-73
2.05488e-76
3.17865e-79
4.75358e-82
6.88624e-85
9.67904e-88
1.32145e-90
1.75306e-93
2.26025e-96
2.83331e-99
3.45097e-102
4.08594e-105
4.66719e-108
5.32729e-111
6.19285e-114
6.79303e-117
7.00854e-120
7.11163e-123
7.04049e-126
6.80145e-129
6.40994e-132
5.90417e-135
5.32365e-138
4.7034e-141
4.07571e-144
3.4675e-147
2.89826e-150
2.37843e-153
1.91434e-156
1.51036e-159
1.16818e-162
8.86786e-166
6.51109e-169
7.7445e-173
8.53325e-177
8.64311e-181
8.17836e-185
7.42846e-189
6.67143e-193
6.06368e-197
5.6468e-201
5.38095e-205
5.1537e-209
4.89731e-213
4.35632e-217
4.48575e-221
5.46156e-225
5.42294e-229
4.39493e-233
3.65953e-237
2.99688e-241
2.41891e-245
1.91426e-249
1.49004e-253
1.14325e-257
8.64869e-262
6.47064e-266
4.81438e-270
3.58043e-274
2.65441e-278
1.9517e-282
1.41991e-286
1.0223e-290
7.32252e-295
5.22507e-299
3.71011e-303
2.60913e-307
1.813e-311
1.25168e-315
8.63083e-320
4.94066e-324
0
0
0
0
0
0
0
0
0
0
0
0
0
0
0
0
0
0
0
0
0
0
0
0
0
0
0
0
0
0
0
0
0
0
0
0
0
0
0
0
0
0
0
0
0
0
0
0
0
0
0
0
0
0
0
0
0
0
0
0
0
0
0
0
0
0
0
0
0
0
0
0
0
0
0
0
0
0
0
0
0
0
0
0
0
0
0
0
0
0
0
0
0
0
0
0
0
0
0
0
0
0
0
0
0
0
0
0
0
0
0
0
0
0
0
0
0
0
0
0
0
0
0
0
0
0
0
0
0
0
0
0
0
0
0
0
0
0
0
0
0
0
0
0
0
0
0
0
0
0
0
0
0
0
0
0
0
0
0
0
0
0
0
0
0
0
0
0
0
0
0
0
0
0
0
0
0
0
0
0
0
0
0
0
0
0
0
0
0
0
0
0
0
0
0
0
0
0
0
0
0
0
0
0
0
0
0
0
0
0
0
0
0
0
0
0
0
0
0
0
0
0
0
0
0
0
0
0
0
0
0
0
0
0
0
0
0
0
0
0
0
0
0
0
0
0
0
0
0
0
0
0
0
0
0
0
0
0
0
0
0
0
0
0
0
0
0
0
0
0
0
0
0
0
0
0
0
0
0
0
0
0
0
0
0
0
0
0
0
0
0
0
0
0
0
0
0.00581499
0.00580361
0.00340273
0.00051633
2.30028e-05
2.3194e-06
2.3998e-08
2.5178e-10
2.03539e-12
1.34428e-14
7.49857e-17
3.4517e-19
1.40942e-21
5.22475e-24
1.80521e-26
6.0247e-29
1.92311e-31
6.11146e-34
1.90886e-36
6.1368e-39
2.05522e-41
6.92195e-44
2.15972e-46
6.06643e-49
1.56594e-51
3.77142e-54
8.56021e-57
1.84102e-59
3.76757e-62
7.35622e-65
1.37337e-67
2.46081e-70
4.25039e-73
7.09573e-76
1.14501e-78
1.78638e-81
2.69866e-84
3.95137e-87
5.6163e-90
7.75739e-93
1.04211e-95
1.36278e-98
1.73372e-101
2.14323e-104
2.57765e-107
2.99094e-110
3.43776e-113
3.92157e-116
4.24751e-119
4.44578e-122
4.58679e-125
4.62664e-128
4.56285e-131
4.3918e-134
4.12214e-137
3.7779e-140
3.38697e-143
2.97517e-146
2.56353e-149
2.16688e-152
1.79802e-155
1.46302e-158
1.16501e-161
9.08743e-165
6.95944e-168
2.96324e-171
2.11992e-175
1.82857e-179
1.89221e-183
2.0546e-187
2.19368e-191
2.26558e-195
2.26252e-199
2.19356e-203
2.05944e-207
1.86361e-211
1.63916e-215
1.34408e-219
1.17357e-223
1.13035e-227
9.5343e-232
7.40537e-236
5.98957e-240
4.81433e-244
3.84672e-248
3.01797e-252
2.30458e-256
1.7145e-260
1.24702e-264
8.91166e-269
6.28981e-273
4.38791e-277
3.04377e-281
2.09542e-285
1.41977e-289
9.52295e-294
6.4127e-298
4.35884e-302
2.965e-306
2.01153e-310
1.36516e-314
9.25316e-319
6.42285e-323
0
0
0
0
0
0
0
0
0
0
0
0
0
0
0
0
0
0
0
0
0
0
0
0
0
0
0
0
0
0
0
0
0
0
0
0
0
0
0
0
0
0
0
0
0
0
0
0
0
0
0
0
0
0
0
0
0
0
0
0
0
0
0
0
0
0
0
0
0
0
0
0
0
0
0
0
0
0
0
0
0
0
0
0
0
0
0
0
0
0
0
0
0
0
0
0
0
0
0
0
0
0
0
0
0
0
0
0
0
0
0
0
0
0
0
0
0
0
0
0
0
0
0
0
0
0
0
0
0
0
0
0
0
0
0
0
0
0
0
0
0
0
0
0
0
0
0
0
0
0
0
0
0
0
0
0
0
0
0
0
0
0
0
0
0
0
0
0
0
0
0
0
0
0
0
0
0
0
0
0
0
0
0
0
0
0
0
0
0
0
0
0
0
0
0
0
0
0
0
0
0
0
0
0
0
0
0
0
0
0
0
0
0
0
0
0
0
0
0
0
0
0
0
0
0
0
0
0
0
0
0
0
0
0
0
0
0
0
0
0
0
0
0
0
0
0
0
0
0
0
0
0
0
0
0
0
0
0
0
0
0
0
0
0
0
0
0
0
0
0
0
0
0
0
0
0
0
0
0
0
0
0
0
0
0
0
0
0
0
0
0
0
0
0
0
0
0
0.00502741
0.00416912
0.000199707
6.49711e-06
3.23775e-07
1.00687e-08
1.21246e-10
1.1271e-12
8.30832e-15
5.0536e-17
2.61258e-19
1.16685e-21
4.66159e-24
1.70673e-26
5.81783e-29
1.91553e-31
6.13233e-34
1.94949e-36
6.21455e-39
2.05281e-41
7.1309e-44
2.49074e-46
7.85963e-49
2.1974e-51
5.61018e-54
1.32626e-56
2.94311e-59
6.19702e-62
1.24156e-64
2.37384e-67
4.35461e-70
7.68985e-73
1.3101e-75
2.15593e-78
3.43168e-81
5.29428e-84
7.92595e-87
1.15277e-89
1.63035e-92
2.24134e-95
2.99417e-98
3.88241e-101
4.88651e-104
5.96989e-107
7.13516e-110
8.17609e-113
9.26116e-116
1.04542e-118
1.11572e-121
1.1623e-124
1.19789e-127
1.20347e-130
1.18496e-133
1.14141e-136
1.07325e-139
9.83055e-143
8.76074e-146
7.59329e-149
6.41067e-152
5.28778e-155
4.27311e-158
3.38984e-161
2.64303e-164
2.02598e-167
1.44644e-170
1.88823e-174
2.14536e-178
2.28069e-182
2.38957e-186
2.5518e-190
2.79855e-194
3.10607e-198
3.41712e-202
3.64834e-206
3.73388e-210
3.64237e-214
3.4957e-218
3.05607e-222
2.69219e-226
2.59449e-230
2.19487e-234
1.78457e-238
1.52655e-242
1.27501e-246
1.07102e-250
8.99141e-255
7.47484e-259
6.07885e-263
4.79322e-267
3.63943e-271
2.66171e-275
1.88776e-279
1.30822e-283
8.91965e-288
6.01041e-292
4.00512e-296
2.64021e-300
1.72314e-304
1.11921e-308
7.29267e-313
4.80526e-317
3.22131e-321
0
0
0
0
0
0
0
0
0
0
0
0
0
0
0
0
0
0
0
0
0
0
0
0
0
0
0
0
0
0
0
0
0
0
0
0
0
0
0
0
0
0
0
0
0
0
0
0
0
0
0
0
0
0
0
0
0
0
0
0
0
0
0
0
0
0
0
0
0
0
0
0
0
0
0
0
0
0
0
0
0
0
0
0
0
0
0
0
0
0
0
0
0
0
0
0
0
0
0
0
0
0
0
0
0
0
0
0
0
0
0
0
0
0
0
0
0
0
0
0
0
0
0
0
0
0
0
0
0
0
0
0
0
0
0
0
0
0
0
0
0
0
0
0
0
0
0
0
0
0
0
0
0
0
0
0
0
0
0
0
0
0
0
0
0
0
0
0
0
0
0
0
0
0
0
0
0
0
0
0
0
0
0
0
0
0
0
0
0
0
0
0
0
0
0
0
0
0
0
0
0
0
0
0
0
0
0
0
0
0
0
0
0
0
0
0
0
0
0
0
0
0
0
0
0
0
0
0
0
0
0
0
0
0
0
0
0
0
0
0
0
0
0
0
0
0
0
0
0
0
0
0
0
0
0
0
0
0
0
0
0
0
0
0
0
0
0
0
0
0
0
0
0
0
0
0
0
0
0
0
0
0
0
0
0
0
0
0
0
0
0
0
0
0
0
0
0
0
0.000550266
0.000316893
2.31201e-06
8.02579e-08
1.37839e-09
2.97234e-11
3.19821e-13
2.68358e-15
1.80568e-17
1.01593e-19
4.91605e-22
2.09788e-24
8.0326e-27
2.86798e-29
9.48093e-32
3.14121e-34
9.96034e-37
3.24453e-39
1.06153e-41
3.67296e-44
1.3443e-46
4.85191e-49
1.51567e-51
4.12021e-54
1.01759e-56
2.32837e-59
5.00781e-62
1.02257e-64
1.99298e-67
3.72307e-70
6.68934e-73
1.15826e-75
1.93492e-78
3.12274e-81
4.87618e-84
7.37885e-87
1.08418e-89
1.54882e-92
2.15276e-95
2.91157e-98
3.83153e-101
4.90247e-104
6.09764e-107
7.36908e-110
8.68622e-113
9.87118e-116
1.10156e-118
1.20474e-121
1.27364e-124
1.32235e-127
1.34415e-130
1.33952e-133
1.30614e-136
1.24504e-139
1.15874e-142
1.05143e-145
9.27978e-149
7.94584e-152
6.59217e-155
5.31016e-158
4.17625e-161
3.22526e-164
2.45373e-167
1.81273e-170
3.43986e-174
5.50494e-178
7.68701e-182
9.77712e-186
1.17948e-189
1.3925e-193
1.63703e-197
1.92258e-201
2.24323e-205
2.57794e-209
2.898e-213
3.17223e-217
3.38162e-221
3.47783e-225
3.4725e-229
3.37772e-233
3.18995e-237
2.94373e-241
2.66617e-245
2.38535e-249
2.11677e-253
1.86786e-257
1.64062e-261
1.43448e-265
1.24753e-269
1.07701e-273
9.18871e-278
7.68983e-282
6.26522e-286
4.94778e-290
3.78515e-294
2.81146e-298
2.03504e-302
1.44166e-306
1.00382e-310
6.89963e-315
4.70395e-319
2.96439e-323
0
0
0
0
0
0
0
0
0
0
0
0
0
0
0
0
0
0
0
0
0
0
0
0
0
0
0
0
0
0
0
0
0
0
0
0
0
0
0
0
0
0
0
0
0
0
0
0
0
0
0
0
0
0
0
0
0
0
0
0
0
0
0
0
0
0
0
0
0
0
0
0
0
0
0
0
0
0
0
0
0
0
0
0
0
0
0
0
0
0
0
0
0
0
0
0
0
0
0
0
0
0
0
0
0
0
0
0
0
0
0
0
0
0
0
0
0
0
0
0
0
0
0
0
0
0
0
0
0
0
0
0
0
0
0
0
0
0
0
0
0
0
0
0
0
0
0
0
0
0
0
0
0
0
0
0
0
0
0
0
0
0
0
0
0
0
0
0
0
0
0
0
0
0
0
0
0
0
0
0
0
0
0
0
0
0
0
0
0
0
0
0
0
0
0
0
0
0
0
0
0
0
0
0
0
0
0
0
0
0
0
0
0
0
0
0
0
0
0
0
0
0
0
0
0
0
0
0
0
0
0
0
0
0
0
0
0
0
0
0
0
0
0
0
0
0
0
0
0
0
0
0
0
0
0
0
0
0
0
0
0
0
0
0
0
0
0
0
0
0
0
0
0
0
0
0
0
0
0
0
0
0
0
0
0
0
0
0
0
0
0
0
0
0
0
0
0
0
8.72409e-07
7.77373e-07
9.93385e-08
1.29058e-09
1.26883e-11
1.4089e-13
1.30304e-15
9.83962e-18
6.1173e-20
3.22792e-22
1.48484e-24
6.07775e-27
2.25749e-29
7.88203e-32
2.57815e-34
8.58644e-37
2.80114e-39
9.46632e-42
3.286e-44
1.22424e-46
4.79325e-49
1.77103e-51
5.50164e-54
1.47469e-56
3.58309e-59
8.06934e-62
1.7074e-64
3.42774e-67
6.57525e-70
1.21122e-72
2.14989e-75
3.68391e-78
6.09828e-81
9.75804e-84
1.50972e-86
2.25973e-89
3.27435e-92
4.59622e-95
6.25564e-98
8.26445e-101
1.06106e-103
1.32528e-106
1.61169e-109
1.90981e-112
2.20776e-115
2.48672e-118
2.73675e-121
2.94656e-124
3.09789e-127
3.18662e-130
3.20902e-133
3.16352e-136
3.05198e-139
2.88071e-142
2.65933e-145
2.39941e-148
2.11369e-151
1.81582e-154
1.52031e-157
1.24129e-160
9.89766e-164
7.71723e-167
5.87267e-170
1.20241e-173
2.28702e-177
3.95913e-181
6.27606e-185
9.28426e-189
1.30961e-192
1.79478e-196
2.42176e-200
3.2404e-204
4.30715e-208
5.67776e-212
7.39927e-216
9.50327e-220
1.20019e-223
1.48826e-227
1.81195e-231
2.16765e-235
2.55135e-239
2.95992e-243
3.3914e-247
3.84619e-251
4.32713e-255
4.84006e-259
5.39438e-263
6.00355e-267
6.68593e-271
7.46559e-275
8.37327e-279
9.44739e-283
1.07348e-286
1.22905e-290
1.41755e-294
1.64524e-298
1.91779e-302
2.23928e-306
2.61107e-310
3.03076e-314
3.49153e-318
4.00193e-322
0
0
0
0
0
0
0
0
0
0
0
0
0
0
0
0
0
0
0
0
0
0
0
0
0
0
0
0
0
0
0
0
0
0
0
0
0
0
0
0
0
0
0
0
0
0
0
0
0
0
0
0
0
0
0
0
0
0
0
0
0
0
0
0
0
0
0
0
0
0
0
0
0
0
0
0
0
0
0
0
0
0
0
0
0
0
0
0
0
0
0
0
0
0
0
0
0
0
0
0
0
0
0
0
0
0
0
0
0
0
0
0
0
0
0
0
0
0
0
0
0
0
0
0
0
0
0
0
0
0
0
0
0
0
0
0
0
0
0
0
0
0
0
0
0
0
0
0
0
0
0
0
0
0
0
0
0
0
0
0
0
0
0
0
0
0
0
0
0
0
0
0
0
0
0
0
0
0
0
0
0
0
0
0
0
0
0
0
0
0
0
0
0
0
0
0
0
0
0
0
0
0
0
0
0
0
0
0
0
0
0
0
0
0
0
0
0
0
0
0
0
0
0
0
0
0
0
0
0
0
0
0
0
0
0
0
0
0
0
0
0
0
0
0
0
0
0
0
0
0
0
0
0
0
0
0
0
0
0
0
0
0
0
0
0
0
0
0
0
0
0
0
0
0
0
0
0
0
0
0
0
0
0
0
0
0
0
0
0
0
0
0
0
0
0
0
0
0
1.75229e-08
1.57871e-08
1.24869e-09
1.4092e-11
1.18206e-13
9.5483e-16
7.19144e-18
4.78814e-20
2.73025e-22
1.35237e-24
5.91846e-27
2.33425e-29
8.4465e-32
2.91347e-34
9.56613e-37
3.25458e-39
1.11717e-41
4.00223e-44
1.50411e-46
6.06625e-49
2.50933e-51
9.22964e-54
2.80716e-56
7.41844e-59
1.78284e-61
3.9784e-64
8.34688e-67
1.6612e-69
3.15734e-72
5.75938e-75
1.01169e-77
1.71482e-80
2.80761e-83
4.44289e-86
6.79805e-89
1.00619e-91
1.44132e-94
1.99933e-97
2.68781e-100
3.50544e-103
4.44039e-106
5.46949e-109
6.55842e-112
7.66319e-115
8.73352e-118
9.71369e-121
1.05525e-123
1.12049e-126
1.16325e-129
1.18135e-132
1.17414e-135
1.14238e-138
1.08826e-141
1.01517e-144
9.27349e-148
8.29473e-151
7.2628e-154
6.22285e-157
5.21562e-160
4.2751e-163
3.42649e-166
2.68366e-169
5.73671e-173
1.17657e-176
2.27669e-180
4.11536e-184
6.95741e-188
1.11018e-191
1.69355e-195
2.5024e-199
3.62128e-203
5.17064e-207
7.30943e-211
1.0231e-214
1.41536e-218
1.93075e-222
2.59251e-226
3.42354e-230
4.44692e-234
5.68727e-238
7.17295e-242
8.93869e-246
1.10284e-249
1.34977e-253
1.64162e-257
1.98691e-261
2.39593e-265
2.88091e-269
3.45625e-273
4.13886e-277
4.94842e-281
5.90777e-285
7.0431e-289
8.38375e-293
9.96162e-297
1.18104e-300
1.39639e-304
1.6453e-308
1.93024e-312
2.25279e-316
2.61361e-320
4.94066e-324
0
0
0
0
0
0
0
0
0
0
0
0
0
0
0
0
0
0
0
0
0
0
0
0
0
0
0
0
0
0
0
0
0
0
0
0
0
0
0
0
0
0
0
0
0
0
0
0
0
0
0
0
0
0
0
0
0
0
0
0
0
0
0
0
0
0
0
0
0
0
0
0
0
0
0
0
0
0
0
0
0
0
0
0
0
0
0
0
0
0
0
0
0
0
0
0
0
0
0
0
0
0
0
0
0
0
0
0
0
0
0
0
0
0
0
0
0
0
0
0
0
0
0
0
0
0
0
0
0
0
0
0
0
0
0
0
0
0
0
0
0
0
0
0
0
0
0
0
0
0
0
0
0
0
0
0
0
0
0
0
0
0
0
0
0
0
0
0
0
0
0
0
0
0
0
0
0
0
0
0
0
0
0
0
0
0
0
0
0
0
0
0
0
0
0
0
0
0
0
0
0
0
0
0
0
0
0
0
0
0
0
0
0
0
0
0
0
0
0
0
0
0
0
0
0
0
0
0
0
0
0
0
0
0
0
0
0
0
0
0
0
0
0
0
0
0
0
0
0
0
0
0
0
0
0
0
0
0
0
0
0
0
0
0
0
0
0
0
0
0
0
0
0
0
0
0
0
0
0
0
0
0
0
0
0
0
0
0
0
0
0
0
0
0
0
0
0
0
2.00164e-10
1.81912e-10
1.28258e-11
1.24681e-13
9.17179e-16
6.1144e-18
3.8691e-20
2.27055e-22
1.18891e-24
5.53086e-27
2.30749e-29
8.78578e-32
3.1101e-34
1.06697e-36
3.55706e-39
1.24527e-41
4.42198e-44
1.63283e-46
6.20901e-49
2.40551e-51
8.92816e-54
2.86174e-56
7.88204e-59
1.95321e-61
4.46382e-64
9.54506e-67
1.92855e-69
3.7094e-72
6.8311e-75
1.20946e-77
2.06429e-80
3.40169e-83
5.41653e-86
8.3383e-89
1.24154e-91
1.78888e-94
2.49553e-97
3.37284e-100
4.42025e-103
5.62305e-106
6.95145e-109
8.361e-112
9.79457e-115
1.1186e-117
1.24656e-120
1.35639e-123
1.44211e-126
1.49906e-129
1.52415e-132
1.51645e-135
1.47701e-138
1.40868e-141
1.31586e-144
1.204e-147
1.07914e-150
9.4737e-154
8.14414e-157
6.85307e-160
5.64219e-163
4.54307e-166
3.57471e-169
8.27059e-173
6.20101e-177
1.17842e-180
2.16739e-184
3.7288e-188
6.03866e-192
9.32023e-196
1.38969e-199
2.02556e-203
2.90985e-207
4.13641e-211
5.82075e-215
8.09449e-219
1.10982e-222
1.49747e-226
1.98667e-230
2.59177e-234
3.32816e-238
4.21345e-242
5.26905e-246
6.5219e-250
8.00595e-254
9.76349e-258
1.18462e-261
1.43164e-265
1.72478e-269
2.07273e-273
2.48566e-277
2.97539e-281
3.55562e-285
4.24205e-289
5.05234e-293
6.00571e-297
7.12239e-301
8.42275e-305
9.92577e-309
1.1647e-312
1.35964e-316
1.57755e-320
0
0
0
0
0
0
0
0
0
0
0
0
0
0
0
0
0
0
0
0
0
0
0
0
0
0
0
0
0
0
0
0
0
0
0
0
0
0
0
0
0
0
0
0
0
0
0
0
0
0
0
0
0
0
0
0
0
0
0
0
0
0
0
0
0
0
0
0
0
0
0
0
0
0
0
0
0
0
0
0
0
0
0
0
0
0
0
0
0
0
0
0
0
0
0
0
0
0
0
0
0
0
0
0
0
0
0
0
0
0
0
0
0
0
0
0
0
0
0
0
0
0
0
0
0
0
0
0
0
0
0
0
0
0
0
0
0
0
0
0
0
0
0
0
0
0
0
0
0
0
0
0
0
0
0
0
0
0
0
0
0
0
0
0
0
0
0
0
0
0
0
0
0
0
0
0
0
0
0
0
0
0
0
0
0
0
0
0
0
0
0
0
0
0
0
0
0
0
0
0
0
0
0
0
0
0
0
0
0
0
0
0
0
0
0
0
0
0
0
0
0
0
0
0
0
0
0
0
0
0
0
0
0
0
0
0
0
0
0
0
0
0
0
0
0
0
0
0
0
0
0
0
0
0
0
0
0
0
0
0
0
0
0
0
0
0
0
0
0
0
0
0
0
0
0
0
0
0
0
0
0
0
0
0
0
0
0
0
0
0
0
0
0
0
0
0
0
0
0
0
2.39718e-08
1.96424e-08
6.92204e-10
3.8239e-12
1.75526e-14
7.39242e-17
2.89965e-19
1.04151e-21
3.32656e-24
9.27219e-27
2.13607e-29
3.97322e-32
6.07087e-35
8.12136e-38
1.72017e-54
9.91842e-55
6.19384e-57
2.44601e-59
7.50003e-62
1.91806e-64
4.27466e-67
8.56451e-70
1.57416e-72
2.69153e-75
4.33053e-78
6.61279e-81
9.62853e-84
1.34185e-86