/*--------------------------------*- C++ -*----------------------------------*\
| =========                 |                                                 |
| \\      /  F ield         | OpenFOAM: The Open Source CFD Toolbox           |
|  \\    /   O peration     | Version:  2.1.1                                 |
|   \\  /    A nd           | Web:      www.OpenFOAM.org                      |
|    \\/     M anipulation  |                                                 |
\*---------------------------------------------------------------------------*/
FoamFile
{
    version     2.0;
    format      ascii;
    class       volScalarField;
    location    "0.006250000";
    object      H2;
}
// * * * * * * * * * * * * * * * * * * * * * * * * * * * * * * * * * * * * * //

dimensions      [0 0 0 0 0 0 0];

internalField   nonuniform List<scalar> 
12384
(
0.00182545
0.00160858
0.00152662
0.00159521
0.00170254
0.00182449
0.00191218
0.00199729
0.00204228
0.00206415
0.00207039
0.00203074
0.00223332
0.00342003
0.000177993
0.000288845
0.000334978
0.000352546
0.00036984
0.000375086
0.000361622
0.000340912
0.000326428
0.000317484
0.0003185
0.000318926
0.000322435
0.000331509
0.000335397
0.000345905
0.000348516
0.000357025
0.000357639
0.000362468
0.000360742
0.000361237
0.000355696
0.000356307
0.000350304
0.000341349
0.000350107
0.000307549
0.000151185
0.000128737
0.000594547
0.000604152
0.000835687
0.000975338
0.00107212
0.00124497
0.0012897
0.00142119
0.00150955
0.00169029
0.00185521
0.00197851
0.0020924
0.00213198
0.00216054
0.00211191
0.00214024
0.00203064
0.00207775
0.00192569
0.00193553
0.00181283
0.00175769
0.00160484
0.00143869
0.00132251
0.00117683
0.000951793
0.00105266
0.00129035
0.0021593
0.00201446
0.00214145
0.00221008
0.00224829
0.00224366
0.00225361
0.00224757
0.00225691
0.00224496
0.00224286
0.00223497
0.00220835
0.002186
0.0021593
0.00214246
0.00213695
0.00212084
0.00218638
0.00208896
0.00223147
0.00216181
0.0022917
0.00230941
0.00229884
0.00205594
0.00196868
0.00225256
0.0024045
0.00245113
0.00504903
0.00500413
0.0045711
0.00424472
0.0039716
0.00377488
0.00363344
0.00340043
0.00340088
0.00314983
0.0033418
0.00326677
0.00333545
0.00335883
0.00346927
0.00385519
0.0043527
0.00495679
0.00500975
0.00390903
0.0023429
0.00189166
0.00211113
0.0024877
0.00258936
0.00265158
0.00267252
0.00260114
0.00246013
0.00235123
0.0079079
0.0089877
0.00876458
0.0081128
0.00752187
0.00708667
0.00682778
0.00680147
0.00683959
0.00691157
0.00693748
0.00693282
0.0069152
0.00689074
0.00687261
0.006786
0.0068432
0.006791
0.00681279
0.0068282
0.0067817
0.0067724
0.00674941
0.00671331
0.00667155
0.00665833
0.0068258
0.00646963
0.00584831
0.00611191
0.00286187
0.00242708
0.00205209
0.00262981
0.00323149
0.0036267
0.00367461
0.00362894
0.0033844
0.00338051
0.00319736
0.00326258
0.00310427
0.00318207
0.00311627
0.00310984
0.0031887
0.00319473
0.00329092
0.0033308
0.00344727
0.00363096
0.00368579
0.00309511
0.000460597
0.000276528
0.000264847
0.000251863
0.000243648
0.000243529
0.00260184
0.00449179
0.00664361
0.0078061
0.00801399
0.00801154
0.00797042
0.0079088
0.00788057
0.007758
0.00781768
0.00771535
0.00778198
0.00773756
0.00777022
0.00776903
0.00775073
0.0077614
0.00778979
0.00777046
0.00788246
0.0075706
0.00559258
0.00515708
0.0052464
0.00534868
0.00545962
0.00553302
0.00550712
0.00543889
0.00445267
0.00556921
0.00586647
0.00574466
0.00553333
0.00534412
0.00520726
0.00510338
0.00498708
0.00496875
0.00486846
0.00483635
0.00482133
0.00475652
0.00489105
0.00488222
0.00506312
0.00519478
0.00558091
0.00765622
0.0137094
0.0144377
0.0131107
0.0120723
0.0115902
0.0114339
0.0116484
0.0122167
0.0133743
0.0143593
0.00358863
0.00596696
0.00698975
0.00734564
0.00738815
0.00725418
0.00699761
0.00678402
0.0064915
0.00635898
0.00612447
0.00616363
0.00602155
0.00613232
0.00605698
0.00600333
0.00602939
0.00606688
0.00613286
0.00615792
0.00615659
0.0067197
0.0083407
0.00883934
0.00894299
0.00891547
0.00891291
0.00889186
0.00894865
0.00900255
0.00840417
0.00877155
0.00880293
0.00890799
0.00894288
0.00888626
0.00878436
0.00868353
0.00856245
0.00853259
0.00839298
0.00838339
0.00829236
0.00821131
0.00824541
0.00817623
0.00827238
0.00823562
0.00817185
0.00801327
0.0086852
0.0103587
0.0107365
0.0109377
0.0112465
0.0115302
0.0116357
0.0115644
0.0113684
0.0110435
0.00663556
0.00593113
0.00588748
0.00731598
0.0094699
0.00859527
0.00653965
0.00618373
0.00630919
0.00644498
0.0067352
0.00692338
0.00712416
0.00717465
0.00712902
0.00697448
0.00679575
0.00662083
0.00653144
0.00652134
0.00663284
0.00679672
0.00694707
0.00708341
0.00712106
0.00716022
0.00721224
0.00738664
0.00834708
0.00826435
0.00682444
0.00711416
0.00558827
0.00172728
0.000111464
1.10297e-05
3.56974e-05
0.0163348
0.0289528
0.0291989
0.0280943
0.0269991
0.0260707
0.0252908
0.0245977
0.0238608
0.0232865
0.0223313
0.0214446
0.0204424
0.0196362
0.0194733
0.0205845
0.0234922
0.0267535
0.0292899
0.0300617
0.0299289
0.0282919
0.0110153
0.000881515
0.000970349
0.00124386
0.00149475
0.00170665
0.00186091
0.00201348
0.00221657
0.00245939
0.00260299
0.00256971
0.00231451
0.00230412
0.00324606
0.000168996
0.000304079
0.000351719
0.000386969
0.000416449
0.000380728
0.000321858
0.000290568
0.000293785
0.000309966
0.000336577
0.000366831
0.000385261
0.000440008
0.000489997
0.00053368
0.000562608
0.000549571
0.000570865
0.000554756
0.000536584
0.000511922
0.000477283
0.000428361
0.000413228
0.000372689
0.000354889
0.000337606
0.000240759
0.000163535
0.000597562
0.00066934
0.000910661
0.00115055
0.00129994
0.00136733
0.00141025
0.00154136
0.00175286
0.00207672
0.00242498
0.0027466
0.0029167
0.00292972
0.00284975
0.00270515
0.002553
0.00240266
0.0022936
0.00228392
0.00227732
0.00225543
0.00220151
0.00208115
0.0018556
0.00155211
0.00131202
0.00107854
0.000948802
0.00115313
0.00215815
0.00206794
0.0022278
0.00229124
0.00225908
0.00221643
0.00221317
0.00221139
0.002218
0.00223022
0.00222471
0.00218675
0.0021131
0.0020107
0.00190624
0.00179938
0.00171355
0.00168719
0.00163496
0.00166374
0.00171593
0.00179926
0.00195195
0.0021077
0.00220907
0.00214528
0.00198632
0.00207454
0.00261373
0.00271118
0.00536236
0.00475279
0.0041825
0.00366452
0.00318824
0.00292994
0.00266561
0.00256008
0.00228655
0.00225063
0.0021298
0.00214396
0.00218995
0.00228278
0.00247374
0.00282947
0.00336469
0.00427615
0.00489912
0.00459857
0.00327
0.00210722
0.00224537
0.00297333
0.00320857
0.00324152
0.003257
0.00330344
0.00325744
0.00300137
0.00801541
0.00891989
0.00818947
0.00721406
0.00664498
0.00655554
0.00680673
0.00710695
0.00728476
0.0073254
0.00730698
0.00725736
0.00720878
0.00717411
0.00714833
0.00713034
0.00709809
0.00707619
0.00704085
0.00700921
0.00696808
0.00691209
0.00685037
0.00679062
0.0067283
0.00666518
0.0067146
0.00680831
0.00671865
0.00706021
0.00282625
0.00246986
0.00337144
0.00445241
0.00418795
0.0034241
0.00297086
0.00274326
0.00276253
0.00262784
0.00269228
0.00250547
0.0025262
0.00235835
0.00230345
0.00223747
0.00225507
0.00226692
0.0024067
0.00257509
0.00282358
0.00312302
0.0033844
0.00341281
0.00177069
0.00033967
0.000213371
0.000214687
0.000239108
0.000229873
0.00534996
0.00799603
0.00843953
0.00820469
0.0080061
0.00791382
0.00795331
0.00796888
0.00807724
0.0081386
0.00815971
0.00816395
0.00814512
0.00816038
0.00813736
0.00809185
0.00800201
0.00792613
0.00786961
0.00780124
0.00782278
0.00782506
0.00666897
0.00524156
0.00533792
0.00568225
0.00603021
0.00634322
0.00650002
0.00627383
0.00523871
0.00602073
0.00568897
0.00519595
0.00483187
0.00455083
0.00436865
0.00422875
0.00411495
0.0040421
0.00398954
0.00392452
0.00387443
0.00392992
0.00408578
0.00424144
0.00447096
0.0047704
0.00513579
0.00595283
0.00993189
0.0136142
0.0111485
0.00943565
0.00941934
0.00962592
0.00968005
0.00947383
0.0096547
0.0108387
0.00331296
0.00605721
0.00732199
0.00744746
0.00707203
0.00635756
0.00566383
0.00507919
0.00464419
0.00427213
0.00406128
0.00389401
0.00385364
0.0039387
0.00407087
0.00430763
0.00462805
0.00500182
0.00541266
0.00576145
0.00595776
0.0061914
0.00723066
0.00856819
0.00895841
0.00879172
0.00853299
0.00840388
0.00854648
0.00885612
0.00826177
0.00880693
0.0090554
0.00910392
0.00889603
0.00854527
0.00818332
0.00784434
0.00756594
0.00731676
0.00711887
0.00700343
0.00690453
0.00684871
0.00698658
0.00717168
0.00743173
0.00773502
0.00792763
0.00792946
0.00809109
0.00931157
0.0110371
0.0121137
0.0126488
0.0126832
0.012442
0.0121679
0.0120576
0.0120545
0.00864774
0.00808365
0.00784402
0.00903954
0.00882761
0.00714986
0.00650451
0.00691499
0.00771871
0.00845312
0.00902529
0.00932718
0.00947016
0.00944304
0.00935917
0.00909905
0.00865311
0.00806969
0.00750949
0.00714579
0.00717736
0.00764688
0.00809566
0.00833374
0.00833314
0.00811557
0.00780176
0.00760168
0.00818833
0.00836907
0.0160564
0.0162251
0.0158451
0.0117267
0.000427129
3.79742e-05
0.00961791
0.0255891
0.0289001
0.0279717
0.0267558
0.0258519
0.0252355
0.0248425
0.0245351
0.0242263
0.0237628
0.0231383
0.0219923
0.0201131
0.0172963
0.0145214
0.0135783
0.0158661
0.021889
0.0270688
0.029656
0.0297369
0.0275858
0.00861742
0.000883381
0.00110434
0.00126529
0.0012318
0.00115976
0.00118745
0.00125314
0.0014233
0.00173925
0.00218606
0.00265494
0.00266675
0.00246686
0.00314529
0.000179353
0.000310436
0.00040743
0.000450126
0.000439169
0.000334572
0.000272787
0.000272673
0.00031005
0.00034603
0.000376297
0.000451218
0.000541889
0.000672295
0.000816643
0.000930835
0.000983238
0.000916045
0.000825214
0.000739917
0.000651023
0.000583089
0.000585132
0.000554263
0.000491225
0.000439971
0.000381705
0.000353994
0.000310741
0.000205859
0.000608516
0.000742688
0.00104007
0.00120536
0.00124556
0.00121623
0.00116897
0.00125077
0.00141944
0.00186102
0.00254984
0.00316159
0.00336519
0.0032663
0.00294173
0.00251784
0.00212361
0.00179177
0.00156012
0.00146872
0.00149821
0.00165527
0.00189493
0.00202515
0.00199261
0.00182027
0.001485
0.00121998
0.000985758
0.00106358
0.00216059
0.00211961
0.00227326
0.00224237
0.00217347
0.00213983
0.002162
0.00219534
0.00226214
0.00230758
0.00230479
0.0022216
0.00206209
0.001847
0.00163442
0.00145619
0.00131557
0.00122814
0.00122443
0.00120074
0.00123091
0.00130497
0.00156866
0.00180966
0.00204339
0.00213388
0.00204694
0.00199422
0.00240097
0.00270799
0.00508009
0.00441192
0.00375177
0.00315093
0.00270934
0.00237078
0.0021526
0.00210149
0.00190687
0.00189079
0.00175059
0.00176546
0.00177808
0.00180095
0.00187225
0.00207052
0.00256061
0.00333664
0.00444154
0.00486718
0.00428923
0.00284035
0.00222389
0.00309938
0.00330932
0.003194
0.00317121
0.00346785
0.00395059
0.00376849
0.00811328
0.0086698
0.00750431
0.00660893
0.00649784
0.00705612
0.00753735
0.00767341
0.00761565
0.00749547
0.00741089
0.00737759
0.007388
0.00742858
0.00746931
0.00750084
0.00749759
0.00747426
0.00741142
0.00732379
0.00718774
0.00705892
0.00694765
0.00686371
0.0067997
0.00672734
0.00666866
0.00676395
0.00694121
0.00729615
0.00278207
0.00319346
0.00524803
0.0039786
0.0027033
0.00252251
0.00308685
0.00362932
0.00387813
0.00389939
0.00376256
0.0036192
0.00341571
0.00328016
0.00311403
0.00291408
0.0026841
0.00247429
0.00234887
0.00223515
0.00235328
0.00257653
0.00298328
0.00331469
0.00296695
0.000976231
0.000288154
0.000274204
0.000379204
0.000270677
0.00855807
0.00863354
0.00812565
0.00787787
0.00794793
0.00809909
0.00828982
0.00846799
0.00854311
0.00871745
0.00872861
0.00883196
0.00882141
0.00884944
0.00879847
0.00869122
0.0085453
0.00835641
0.00816449
0.00796024
0.00783863
0.00789721
0.00756891
0.00599072
0.00527934
0.00544231
0.0059422
0.00667117
0.00729077
0.00724311
0.00632459
0.00572381
0.00507692
0.00466639
0.00440888
0.00419227
0.00398243
0.00375978
0.00356789
0.0033927
0.00332847
0.00323422
0.0032336
0.00326276
0.00336938
0.00359843
0.00383176
0.00417569
0.00462878
0.00511502
0.00702065
0.0111827
0.0112008
0.00927659
0.00955948
0.0102114
0.0102025
0.00947723
0.00884004
0.0091191
0.00325918
0.00646897
0.00740501
0.00705237
0.00607338
0.00507053
0.00429886
0.00366079
0.00319957
0.00286719
0.00262994
0.00246637
0.00237935
0.00239985
0.00251027
0.00272469
0.00308242
0.00361294
0.00426213
0.0049232
0.005469
0.00581471
0.006314
0.00761921
0.00879719
0.00883366
0.00841223
0.00809536
0.00815063
0.00859028
0.00818076
0.00880896
0.00919219
0.00890758
0.00837158
0.00784278
0.00735693
0.00683207
0.00633532
0.00585122
0.00546348
0.00518462
0.0051002
0.00509165
0.00531648
0.00560476
0.00613392
0.00674242
0.00725796
0.0076444
0.00778622
0.00837179
0.0101859
0.0121755
0.0129012
0.0128287
0.0122036
0.0115373
0.0113935
0.0119552
0.00926489
0.00919207
0.00924914
0.0091446
0.00763661
0.00669881
0.00721179
0.0083946
0.00937994
0.00994687
0.0101734
0.0102206
0.0101886
0.0101989
0.0101834
0.0101173
0.00982154
0.00927441
0.00844167
0.00769312
0.00749062
0.00815066
0.00881238
0.00900872
0.00896439
0.0087704
0.00839914
0.00791
0.00814437
0.00844071
0.0142581
0.0152434
0.0140906
0.00853742
0.000279902
0.00594079
0.0234406
0.0286784
0.0280214
0.0267622
0.0258724
0.0253344
0.0250209
0.0248365
0.0247186
0.0247025
0.0247174
0.0248865
0.024781
0.0244113
0.0224143
0.018098
0.0133466
0.0119274
0.0161493
0.0233307
0.0277894
0.0279026
0.0235711
0.00354548
0.000920674
0.00096286
0.000766423
0.00068668
0.000742739
0.000831798
0.000940539
0.00104537
0.0011716
0.0015069
0.00216449
0.00273233
0.00265144
0.00313087
0.000187841
0.000348159
0.000477509
0.000513336
0.000412185
0.000283329
0.000251626
0.000272444
0.000301254
0.000325142
0.000352987
0.000464238
0.000634351
0.000883067
0.00121818
0.0013135
0.00123849
0.00104802
0.00083491
0.000707192
0.000611981
0.000603758
0.000597044
0.000597157
0.00056875
0.000487447
0.000425621
0.000370943
0.000340444
0.000223434
0.000625754
0.000785282
0.00107081
0.00117522
0.00110235
0.0010004
0.000946322
0.00104137
0.00124365
0.0017552
0.00279643
0.00361253
0.0036581
0.00320399
0.00261485
0.00203578
0.00153404
0.00128607
0.00114717
0.00105722
0.00103614
0.00112024
0.00125784
0.00154718
0.00184228
0.0018469
0.00165297
0.00133151
0.00104146
0.00103091
0.00217407
0.00215047
0.00225219
0.00218413
0.00210222
0.00209761
0.00219821
0.00228941
0.00236953
0.00240149
0.00239201
0.00224939
0.00195601
0.00163447
0.00135234
0.00118867
0.00109316
0.00104559
0.000988214
0.00103017
0.00104898
0.00111091
0.00122923
0.00146844
0.00179025
0.00202715
0.00207549
0.00198074
0.0021886
0.00258451
0.00438298
0.00395009
0.00326256
0.00271494
0.00228165
0.00204156
0.00190581
0.00187609
0.00185554
0.00188561
0.00187215
0.0018309
0.00180428
0.00175534
0.0017033
0.00174346
0.00206279
0.00273294
0.00378652
0.00474344
0.00477545
0.00373214
0.00236704
0.00295658
0.00330462
0.00298674
0.00274906
0.00315219
0.0042319
0.00449625
0.00816414
0.00831115
0.00694443
0.0064621
0.00705598
0.00778625
0.00790741
0.00775232
0.00756223
0.00745982
0.00746367
0.00752043
0.00760276
0.00769192
0.0077732
0.00783907
0.00788449
0.00789286
0.00785592
0.00773727
0.00755127
0.00732377
0.0071109
0.00695356
0.00686385
0.00677051
0.00666206
0.00667728
0.00691575
0.00734888
0.00297125
0.00471468
0.0045871
0.0025338
0.00279477
0.00460288
0.00555271
0.00549613
0.00504613
0.00459069
0.00424234
0.00412193
0.00405142
0.00404757
0.00398924
0.00385631
0.00361099
0.00325149
0.0028941
0.00254461
0.00237271
0.0023271
0.00261435
0.00306105
0.00324317
0.0022467
0.000640059
0.000448508
0.000649883
0.000349425
0.00981511
0.00849938
0.0079269
0.00799003
0.00817882
0.00840288
0.00858441
0.00879868
0.00893022
0.00903736
0.00913069
0.00920768
0.00931485
0.0093581
0.00932443
0.00924978
0.00910369
0.00886367
0.0085767
0.00827009
0.00797175
0.00791055
0.00791795
0.00698553
0.00565984
0.00526158
0.00558778
0.00660852
0.00754828
0.0078132
0.00555978
0.00510122
0.00474824
0.00446829
0.00417717
0.00380276
0.00334288
0.00297227
0.00265143
0.00244102
0.00227992
0.00228165
0.00233408
0.00251391
0.0027611
0.00297385
0.0032778
0.00362641
0.00413078
0.00462674
0.00555317
0.00854692
0.0110349
0.00991734
0.00943427
0.0103054
0.0103991
0.00962455
0.00880601
0.00866383
0.00341318
0.00693834
0.00717512
0.00619368
0.00502305
0.00412071
0.0034063
0.00290774
0.00247091
0.00207912
0.00175367
0.00154233
0.00140774
0.00143206
0.00152685
0.00173901
0.00206033
0.00251707
0.00311007
0.00393464
0.00473993
0.00534505
0.00578095
0.00669063
0.00819218
0.00884228
0.00869603
0.00817622
0.00821817
0.00860267
0.00839949
0.00928857
0.00905275
0.00842512
0.00783475
0.0072181
0.00648003
0.00558672
0.00470268
0.00394895
0.00331034
0.0030389
0.00289436
0.00301562
0.00325349
0.00377676
0.00454769
0.0053737
0.00621461
0.00700676
0.00744154
0.00782666
0.00910547
0.011333
0.01281
0.0129524
0.0122312
0.0110981
0.0108216
0.0112701
0.00971999
0.00991044
0.00969095
0.00837325
0.00698311
0.00705337
0.00834327
0.00950191
0.0100806
0.0100666
0.00986366
0.0096911
0.00967979
0.00975751
0.00991878
0.0100994
0.0101787
0.00986331
0.0091367
0.00814934
0.00769553
0.0081771
0.008988
0.00864453
0.00836872
0.00836381
0.00833839
0.00799175
0.0081535
0.0085247
0.0114994
0.0128441
0.00789334
0.00288585
0.00339131
0.0195878
0.0284249
0.0282381
0.0268461
0.0255962
0.0246058
0.0237199
0.0229434
0.022378
0.0221012
0.0223061
0.0227075
0.0233676
0.024111
0.024886
0.0252079
0.0237207
0.018295
0.0116555
0.0114099
0.0164444
0.0212429
0.0218996
0.0159093
0.000448518
0.000780979
0.000590032
0.000501723
0.000610105
0.000842723
0.00108991
0.00115342
0.00112295
0.00110149
0.00121377
0.00170541
0.00254483
0.00274352
0.00314175
0.000200184
0.000397696
0.000561926
0.000554826
0.000381313
0.000259438
0.000248652
0.000238955
0.000242305
0.000259944
0.000308042
0.000411141
0.000636704
0.00106089
0.00142486
0.00137568
0.00113707
0.000839199
0.000659416
0.000609119
0.000604991
0.000615059
0.000634316
0.000652362
0.000643745
0.00056636
0.000471944
0.000389845
0.000352951
0.000243821
0.000640482
0.000808487
0.00106649
0.00109808
0.000986558
0.000934149
0.000916291
0.00104047
0.0012647
0.00193368
0.0031425
0.00382273
0.00343629
0.0027133
0.00201361
0.00144607
0.00122315
0.00105858
0.000969007
0.000903733
0.000903013
0.000903882
0.000990396
0.00116912
0.00144919
0.00173116
0.00166785
0.00138505
0.00108501
0.00101428
0.00219575
0.00216343
0.00222143
0.00212038
0.00206661
0.00215963
0.00238226
0.00253973
0.00254251
0.00248819
0.00248294
0.00226177
0.00187163
0.00148435
0.00119614
0.00105238
0.000946776
0.000877891
0.000872112
0.000873572
0.000921307
0.000989619
0.00109148
0.00125457
0.00156298
0.00187976
0.00204723
0.00198299
0.00203988
0.00248153
0.00427737
0.00369839
0.00300003
0.00245935
0.00210988
0.00194821
0.00193289
0.00197096
0.00203636
0.00206034
0.00205113
0.00203365
0.00196994
0.00190137
0.00175026
0.00166757
0.00180319
0.00233005
0.00323641
0.00443218
0.00488918
0.0043364
0.00275441
0.002646
0.00324307
0.00295353
0.00241496
0.00266838
0.00421003
0.00502937
0.00816436
0.00791471
0.0066483
0.00680608
0.00778207
0.00813362
0.00794764
0.00770871
0.00753465
0.00746256
0.00748157
0.00754701
0.00762069
0.00771444
0.0078222
0.00792195
0.00799353
0.0080507
0.00808062
0.0080498
0.0079044
0.00764084
0.00733197
0.00707866
0.00692167
0.00680584
0.00667668
0.00662656
0.0068491
0.00734818
0.00349293
0.00508601
0.00285029
0.00299343
0.00577377
0.00699346
0.00643352
0.00530798
0.00436475
0.00404707
0.00398097
0.00422186
0.00437265
0.00458421
0.00466743
0.00465372
0.00450854
0.00420144
0.00374641
0.00316272
0.00272005
0.00240411
0.00245476
0.0027731
0.00316028
0.00286752
0.00142658
0.000857604
0.000953522
0.000438524
0.00951468
0.00827994
0.00801795
0.00811993
0.00835238
0.00860175
0.00876356
0.00894781
0.00910809
0.00928834
0.00949296
0.00965888
0.00974466
0.00976821
0.00976598
0.00969869
0.00957014
0.00934805
0.00900262
0.00859481
0.0082111
0.00797118
0.00799112
0.00766372
0.00653269
0.00561362
0.00568605
0.00677861
0.00764113
0.00798167
0.00524506
0.0049206
0.00459925
0.00425964
0.0037503
0.0031079
0.0025047
0.00196359
0.00156284
0.00126639
0.00118478
0.00114389
0.00131525
0.0015518
0.00196375
0.0023824
0.00279306
0.00314259
0.0036574
0.00421293
0.00487988
0.00667161
0.00971984
0.0103464
0.00997295
0.0104344
0.0102818
0.00936971
0.00860183
0.00846999
0.0041448
0.00711913
0.00665098
0.00536221
0.00436146
0.00366448
0.00306062
0.00248755
0.0019814
0.00145686
0.00115427
0.00101407
0.000978238
0.000950366
0.000986797
0.00106793
0.00130414
0.00172239
0.0022938
0.0030398
0.00395304
0.00479511
0.005377
0.00605673
0.00739569
0.00856276
0.00868504
0.00824983
0.008566
0.00888796
0.00886417
0.0093654
0.00870169
0.0080757
0.00742031
0.00652218
0.00537567
0.00406168
0.00290937
0.00204603
0.00139213
0.00101597
0.00096668
0.000988506
0.00139472
0.00186021
0.00281446
0.00386067
0.00511366
0.00619773
0.00700809
0.00746571
0.00837524
0.0101681
0.0122182
0.0129092
0.012153
0.0107156
0.010534
0.0108889
0.0100075
0.0101557
0.00922827
0.00756244
0.0068148
0.00772083
0.00919924
0.010017
0.0100204
0.00956767
0.00921161
0.0091054
0.00912593
0.00923168
0.00940094
0.00967166
0.00999709
0.0101266
0.00960984
0.0085342
0.00783094
0.00800713
0.00828998
0.0069705
0.00635645
0.00696634
0.00765034
0.00778176
0.00815321
0.00860191
0.0101074
0.0117387
0.00563258
0.00434779
0.0123516
0.0256844
0.0285265
0.0272091
0.0255615
0.0240906
0.0226287
0.021212
0.0200296
0.0192668
0.0191925
0.019638
0.0205126
0.0215434
0.0225514
0.0233789
0.0244652
0.0254775
0.0244552
0.016721
0.00992536
0.0123884
0.0143846
0.0140055
0.00784206
0.000113883
0.000603765
0.000399392
0.000478324
0.000853522
0.00137315
0.00153101
0.00144743
0.00126482
0.00112739
0.001122
0.00143522
0.00230797
0.0027978
0.00319279
0.000210483
0.000442419
0.000640949
0.00061589
0.000382395
0.000245734
0.000231259
0.000218089
0.000211554
0.000215907
0.000232389
0.000333039
0.000548079
0.00108853
0.00147052
0.00126382
0.000823747
0.000598808
0.000575541
0.000602467
0.000661015
0.000735309
0.000778661
0.000784961
0.000743413
0.000643806
0.000510794
0.000402299
0.000357007
0.000253546
0.000651831
0.000810346
0.00104107
0.00103626
0.000954179
0.000926852
0.00100871
0.00133284
0.00151031
0.0022263
0.00338461
0.00376528
0.00302408
0.00212955
0.00143678
0.00117141
0.0010216
0.000939733
0.00091364
0.00090109
0.00088502
0.000867302
0.000875982
0.000978934
0.00120743
0.00148205
0.00158267
0.00138361
0.00109674
0.00100115
0.00220286
0.00217237
0.00218222
0.00205257
0.00209396
0.00240296
0.0027997
0.00294749
0.00278409
0.00257715
0.00255186
0.00233102
0.00190381
0.00145447
0.00114888
0.000988588
0.000867036
0.000800355
0.000760391
0.000792773
0.000829138
0.000894802
0.000999942
0.00114682
0.00139276
0.001764
0.00200852
0.00198202
0.00196339
0.00241278
0.0041412
0.00363631
0.00293357
0.00237725
0.00205073
0.00194402
0.00199969
0.00204345
0.00214581
0.00216384
0.00219574
0.00215385
0.00207277
0.00198016
0.00183432
0.00169803
0.00171927
0.00211674
0.00297376
0.00417649
0.00490719
0.00462035
0.00318306
0.00252173
0.00297271
0.00284342
0.00221507
0.00241637
0.00411873
0.00542341
0.00812188
0.00752055
0.00659037
0.0073746
0.00820062
0.00823973
0.00798857
0.00770763
0.00746623
0.00735049
0.00737114
0.00744831
0.00753515
0.00767627
0.00787623
0.00807008
0.00818843
0.00823566
0.00824983
0.00822689
0.00812197
0.00788733
0.00755808
0.00723251
0.00699277
0.00683843
0.00668284
0.00658937
0.00679719
0.00737409
0.00397892
0.00428145
0.00296028
0.00589041
0.00784675
0.00751716
0.00578599
0.00440458
0.00375676
0.00386805
0.00427174
0.00475025
0.00517206
0.00542094
0.00555322
0.0055377
0.00537433
0.00505802
0.00460639
0.0039494
0.00322694
0.00266988
0.0024671
0.00260305
0.00303024
0.00307323
0.00223153
0.00156324
0.00139199
0.000663228
0.00875357
0.00814086
0.00801798
0.00821635
0.00848202
0.00868573
0.00882134
0.00904883
0.00933144
0.00971058
0.0100324
0.0102569
0.0103445
0.0103061
0.0102232
0.0101251
0.00995255
0.00973118
0.0093719
0.0089364
0.0084373
0.00808823
0.00801339
0.00799438
0.0073129
0.00644189
0.00653486
0.00717069
0.00748711
0.00778269
0.00522202
0.00478565
0.00443972
0.00394499
0.00317911
0.00241619
0.00170747
0.001145
0.000910113
0.000792298
0.000708485
0.00072394
0.000782388
0.000933499
0.00121862
0.00173754
0.00231827
0.00277164
0.00325075
0.00387783
0.00451401
0.00559657
0.00804293
0.00977049
0.0103389
0.0105173
0.00996719
0.00897149
0.00823091
0.00825955
0.00528254
0.00713712
0.00600636
0.00489495
0.0041213
0.00342508
0.00287029
0.00214204
0.00157105
0.00107245
0.000973972
0.000911167
0.000863726
0.000853697
0.000858092
0.00089295
0.00098884
0.00121621
0.00172372
0.00243019
0.00327181
0.00424863
0.00500916
0.00564127
0.00676412
0.00802926
0.00829464
0.00813686
0.00892576
0.00928932
0.00921925
0.00903011
0.00849115
0.00785022
0.00694952
0.00568952
0.00419212
0.0026576
0.00148842
0.000806532
0.000476826
0.000431474
0.000390288
0.000418368
0.000486006
0.000731255
0.00144002
0.00249956
0.00398605
0.00533147
0.00646528
0.00714659
0.0079114
0.00924317
0.0113006
0.0125887
0.0115464
0.0103678
0.0102928
0.0106406
0.0101542
0.0100082
0.00852438
0.00708313
0.00700004
0.00839021
0.00971871
0.0100879
0.00963569
0.00908472
0.0088224
0.00876477
0.00888264
0.00903917
0.00915672
0.00927487
0.00964325
0.0100224
0.00990907
0.00870013
0.00778617
0.00767581
0.00697693
0.00453442
0.00396313
0.00528489
0.00683173
0.00749637
0.00822794
0.00869547
0.009282
0.0125577
0.00775158
0.00939681
0.0198811
0.0276327
0.027919
0.0260763
0.0241983
0.0222968
0.020292
0.0183772
0.0168157
0.0159401
0.0158013
0.0167773
0.0182864
0.0201245
0.0216708
0.0225754
0.0232543
0.0243866
0.0260771
0.0238
0.0104106
0.0092668
0.0107436
0.00809637
0.00219491
3.95345e-05
0.000452928
0.000344706
0.00061487
0.00141404
0.00190772
0.00187621
0.0016497
0.00138421
0.00117404
0.00110147
0.00134415
0.00217911
0.0028289
0.00320269
0.000216439
0.000483545
0.000722772
0.000705157
0.000426604
0.000256518
0.00022229
0.000203382
0.000191992
0.00019145
0.000204539
0.000261456
0.000476359
0.00105166
0.0013854
0.00100014
0.000608453
0.000546208
0.000576193
0.000661111
0.000760083
0.000868524
0.000930258
0.000930582
0.000844601
0.000707633
0.00050493
0.000404263
0.000356807
0.000256245
0.00065739
0.0007909
0.00102064
0.00100215
0.000954588
0.000997342
0.00146107
0.00204762
0.00201389
0.00242775
0.00349393
0.00351489
0.00260602
0.00164138
0.00122299
0.00101645
0.000955417
0.000947634
0.000963348
0.000956673
0.000940754
0.000912388
0.000888745
0.000902629
0.00106128
0.00128778
0.00143446
0.00133921
0.00106656
0.000998497
0.00223438
0.00216298
0.00215551
0.00203854
0.00222859
0.0028033
0.00335839
0.00344456
0.00310939
0.00271958
0.0026408
0.00251229
0.00204871
0.00153542
0.00115138
0.000970443
0.000849463
0.000767906
0.000751724
0.000753824
0.000795627
0.000846718
0.000943859
0.00108737
0.00129371
0.00169838
0.00198427
0.00197521
0.00192619
0.00240402
0.00423333
0.00373191
0.00295113
0.00234464
0.00203163
0.0019621
0.00201728
0.00205473
0.00214817
0.00216915
0.0022001
0.00216923
0.00208841
0.00200198
0.00185632
0.00171565
0.00171441
0.00208155
0.00290541
0.00410007
0.00492435
0.00472878
0.00355973
0.00255328
0.00266702
0.00252361
0.00209239
0.00236114
0.00416304
0.00576383
0.00804442
0.00722232
0.00672114
0.00784597
0.00841229
0.00835723
0.00807536
0.00766804
0.00734919
0.00721328
0.00726113
0.00736096
0.00746864
0.00768034
0.00800928
0.00832052
0.00847419
0.00850927
0.00847886
0.0084036
0.00828409
0.00805573
0.00771581
0.00735627
0.0070576
0.0068445
0.00667104
0.00656352
0.00679506
0.00745678
0.00415809
0.00373475
0.00474794
0.00799473
0.00858008
0.00718627
0.00506933
0.00387963
0.00366836
0.00404153
0.0047572
0.00534447
0.00582037
0.0060604
0.00619711
0.00617355
0.0060252
0.0057169
0.00526174
0.00459265
0.00377563
0.00301651
0.0026023
0.00255944
0.00292782
0.00309561
0.00266555
0.00217041
0.00177714
0.00107583
0.00849636
0.00806279
0.00806186
0.00828043
0.00852561
0.00866477
0.00882514
0.0091695
0.00959226
0.0101723
0.0106515
0.0110149
0.0111341
0.0110281
0.0107733
0.0105357
0.0103064
0.0100469
0.00968378
0.00920437
0.00866204
0.00819109
0.00802946
0.00809343
0.00777568
0.00716062
0.00721694
0.00721631
0.00689096
0.00724398
0.00516913
0.00465883
0.00430093
0.00361163
0.00273108
0.00186824
0.00117999
0.000859625
0.000691809
0.000578738
0.000563395
0.00055294
0.000582502
0.00070747
0.00091108
0.0012852
0.00188348
0.00248403
0.00298135
0.00362433
0.00427149
0.00503752
0.00669598
0.00850253
0.00955935
0.00981705
0.00921331
0.00842509
0.00790367
0.00807408
0.00636933
0.00685961
0.00572182
0.00484753
0.00409183
0.00336729
0.00273059
0.00194565
0.00132635
0.000984544
0.000935743
0.000883134
0.000887372
0.000873078
0.000871805
0.000862812
0.000891563
0.000996855
0.00137514
0.00202854
0.00282014
0.00380766
0.00468169
0.00535362
0.00631916
0.00746987
0.0076136
0.00821007
0.00939811
0.00972314
0.0093499
0.00890184
0.00849759
0.00759642
0.00645894
0.00497477
0.00324282
0.00174576
0.000833388
0.000445536
0.00032833
0.000267202
0.00025246
0.000248778
0.00029498
0.00039363
0.000776229
0.00153316
0.00307349
0.00454462
0.00595559
0.00684364
0.0076127
0.00863314
0.0106679
0.0122125
0.0108311
0.0101158
0.0100697
0.0104024
0.0102087
0.00958194
0.00785882
0.00684098
0.0072628
0.00885249
0.00993997
0.00995141
0.00928706
0.00874333
0.00840458
0.00837079
0.00858555
0.00897929
0.00911951
0.00908577
0.00935232
0.00991694
0.00995729
0.00875046
0.00763297
0.00733772
0.00556268
0.00324892
0.00287662
0.00445195
0.006415
0.00750559
0.0084421
0.00882631
0.00862644
0.0147898
0.0126113
0.0153864
0.0240752
0.0277978
0.0271198
0.0250256
0.0228735
0.0205314
0.0180462
0.0156201
0.0136092
0.0123426
0.0125525
0.0139792
0.016223
0.0187336
0.0210329
0.0223708
0.0228869
0.0234328
0.0251059
0.0270907
0.0151839
0.00530047
0.00808561
0.00444564
0.000201531
1.54296e-05
0.000384526
0.000342463
0.000955072
0.00198857
0.00217667
0.00203731
0.00187979
0.0016324
0.00133169
0.00117388
0.00139144
0.00222541
0.00287534
0.00326234
0.000217229
0.000501588
0.000827427
0.00088248
0.00057828
0.000338807
0.00024347
0.000211236
0.000196736
0.000190896
0.000198653
0.000232273
0.000393746
0.000979546
0.00131047
0.000801859
0.000542634
0.000529885
0.000599339
0.000691362
0.000801577
0.000931927
0.000986209
0.000984492
0.000904746
0.000721546
0.000520169
0.000396721
0.000352828
0.000252639
0.000670231
0.000762325