/*--------------------------------*- C++ -*----------------------------------*\
| =========                 |                                                 |
| \\      /  F ield         | OpenFOAM: The Open Source CFD Toolbox           |
|  \\    /   O peration     | Version:  2.1.1                                 |
|   \\  /    A nd           | Web:      www.OpenFOAM.org                      |
|    \\/     M anipulation  |                                                 |
\*---------------------------------------------------------------------------*/
FoamFile
{
    version     2.0;
    format      ascii;
    class       volScalarField;
    location    "0.006250000";
    object      H2O2;
}
// * * * * * * * * * * * * * * * * * * * * * * * * * * * * * * * * * * * * * //

dimensions      [0 0 0 0 0 0 0];

internalField   nonuniform List<scalar> 
12384
(
1.42049e-06
1.44732e-06
1.45297e-06
1.44692e-06
1.42564e-06
1.42819e-06
1.40528e-06
1.41419e-06
1.40769e-06
1.42776e-06
1.44366e-06
1.45116e-06
1.4405e-06
1.28503e-06
1.0768e-06
1.14663e-06
1.19168e-06
1.22141e-06
1.25684e-06
1.28585e-06
1.29764e-06
1.29671e-06
1.30183e-06
1.29682e-06
1.30366e-06
1.29929e-06
1.30418e-06
1.30213e-06
1.3048e-06
1.30247e-06
1.30308e-06
1.30644e-06
1.30418e-06
1.32572e-06
1.32843e-06
1.3439e-06
1.34739e-06
1.37235e-06
1.37339e-06
1.37551e-06
1.35668e-06
1.30137e-06
1.10931e-06
1.09198e-06
1.05072e-06
1.12592e-06
1.08662e-06
9.98275e-07
9.5048e-07
9.13532e-07
8.70483e-07
8.41126e-07
6.99624e-07
6.72249e-07
6.41213e-07
6.20713e-07
6.01794e-07
5.91582e-07
5.76746e-07
5.75725e-07
5.64137e-07
5.5681e-07
5.60584e-07
5.53351e-07
5.64274e-07
5.72151e-07
5.89234e-07
6.23853e-07
6.65506e-07
8.18908e-07
9.01268e-07
9.67779e-07
8.98304e-07
8.21937e-07
3.8538e-07
3.74887e-07
3.68883e-07
3.5705e-07
3.77795e-07
3.71829e-07
4.03267e-07
4.04228e-07
4.21227e-07
4.33461e-07
4.42147e-07
4.46918e-07
4.49835e-07
4.48512e-07
4.4516e-07
4.38504e-07
4.34578e-07
4.30748e-07
4.43441e-07
4.38779e-07
4.64059e-07
4.74554e-07
4.93528e-07
5.05525e-07
5.15685e-07
5.3186e-07
5.02984e-07
4.72212e-07
4.6073e-07
4.57984e-07
1.88641e-07
2.15951e-07
2.54706e-07
2.73752e-07
2.83786e-07
2.78344e-07
2.71087e-07
3.76985e-07
3.44507e-07
3.71503e-07
2.934e-07
3.23782e-07
3.01249e-07
3.07603e-07
3.01388e-07
2.00964e-07
1.80999e-07
1.523e-07
1.39496e-07
1.73244e-07
4.1081e-07
4.53445e-07
4.17019e-07
3.61623e-07
3.46139e-07
3.35126e-07
3.34124e-07
3.45279e-07
3.64005e-07
3.77282e-07
5.87276e-08
4.44816e-08
4.52219e-08
5.35076e-08
6.43071e-08
7.05384e-08
7.4152e-08
7.31529e-08
7.12713e-08
6.90917e-08
6.73818e-08
6.56196e-08
6.40959e-08
6.18225e-08
6.19347e-08
5.9169e-08
5.97121e-08
5.76254e-08
5.92978e-08
5.83202e-08
6.24054e-08
6.45953e-08
6.7659e-08
7.10071e-08
7.45747e-08
7.90204e-08
8.18859e-08
8.76114e-08
1.21294e-07
1.14826e-07
2.28136e-07
2.47357e-07
2.66802e-07
2.21407e-07
1.71978e-07
9.59468e-08
9.70127e-08
8.9509e-08
1.46936e-07
1.41697e-07
1.58212e-07
1.49765e-07
1.64311e-07
1.55452e-07
1.62051e-07
1.62201e-07
1.54796e-07
1.5592e-07
1.47038e-07
1.45477e-07
1.35341e-07
8.60162e-08
8.8828e-08
1.714e-07
6.25139e-07
7.06772e-07
7.11744e-07
7.17083e-07
7.20418e-07
7.17213e-07
2.91232e-07
1.14926e-07
5.92527e-08
5.20582e-08
5.25568e-08
5.29108e-08
5.39433e-08
5.1193e-08
5.25229e-08
4.87472e-08
4.90232e-08
4.51561e-08
4.57651e-08
4.38509e-08
4.44128e-08
4.50681e-08
4.62166e-08
4.85738e-08
4.95311e-08
5.14587e-08
5.08203e-08
5.3628e-08
9.9737e-08
1.11416e-07
1.07261e-07
1.03674e-07
1.01705e-07
1.00426e-07
1.01525e-07
1.03497e-07
1.14377e-07
9.60196e-08
8.77503e-08
9.44718e-08
9.74071e-08
9.78866e-08
9.71754e-08
9.80641e-08
9.52383e-08
9.27864e-08
9.50459e-08
9.09206e-08
9.34769e-08
9.30479e-08
9.77334e-08
9.86425e-08
1.05532e-07
1.06029e-07
1.0244e-07
5.00326e-08
1.02949e-08
8.96158e-09
1.18671e-08
1.65723e-08
1.87013e-08
1.91167e-08
1.86285e-08
1.6244e-08
1.20234e-08
1.03966e-08
1.44778e-07
7.84946e-08
5.60606e-08
5.72106e-08
5.96779e-08
6.17923e-08
6.38751e-08
6.48964e-08
6.55535e-08
7.37351e-08
7.97125e-08
6.94251e-08
7.46614e-08
6.5469e-08
7.00785e-08
7.51229e-08
7.60701e-08
7.42772e-08
7.80831e-08
7.96921e-08
7.8513e-08
5.29904e-08
3.50536e-08
2.9835e-08
3.01668e-08
2.88091e-08
2.98464e-08
2.84375e-08
2.80734e-08
2.65437e-08
2.43706e-08
2.36233e-08
2.49661e-08
2.43262e-08
2.49695e-08
2.5426e-08
2.57738e-08
2.53608e-08
2.61691e-08
2.52221e-08
2.58019e-08
2.47908e-08
2.54155e-08
2.52337e-08
2.89636e-08
2.88182e-08
3.18153e-08
3.72003e-08
3.71795e-08
4.13635e-08
3.62759e-08
2.09489e-08
2.00504e-08
1.99428e-08
1.92549e-08
1.87382e-08
1.88677e-08
1.87343e-08
1.93081e-08
2.04779e-08
3.29437e-08
4.61478e-08
4.81408e-08
3.17915e-08
2.36348e-08
3.02593e-08
4.18576e-08
5.44428e-08
5.21289e-08
4.02007e-08
3.89125e-08
3.81058e-08
3.58801e-08
3.49399e-08
3.57099e-08
3.49045e-08
3.58031e-08
3.48328e-08
3.49445e-08
3.36145e-08
3.31077e-08
3.11406e-08
3.01883e-08
2.9375e-08
2.91816e-08
2.89695e-08
2.87089e-08
2.78133e-08
2.28911e-08
2.28806e-08
3.07424e-08
2.92598e-08
5.38612e-08
2.93102e-07
7.55585e-07
4.28958e-07
6.14016e-07
6.35856e-09
1.2658e-09
1.2317e-09
1.39802e-09
1.69615e-09
1.83664e-09
1.95105e-09
2.06969e-09
2.42255e-09
2.71649e-09
3.06334e-09
3.48444e-09
3.75006e-09
4.68223e-09
4.81226e-09
4.00482e-09
2.96907e-09
1.92086e-09
1.33997e-09
1.26723e-09
1.29905e-09
1.68876e-09
1.75429e-08
1.59811e-06
1.59768e-06
1.51974e-06
1.4254e-06
1.36377e-06
1.33205e-06
1.29796e-06
1.21375e-06
1.20541e-06
1.24073e-06
1.28409e-06
1.33695e-06
1.34812e-06
1.28743e-06
1.09796e-06
1.15783e-06
1.22222e-06
1.26941e-06
1.32389e-06
1.33392e-06
1.32924e-06
1.31663e-06
1.31367e-06
1.29909e-06
1.29548e-06
1.28837e-06
1.27185e-06
1.24895e-06
1.21747e-06
1.19887e-06
1.18737e-06
1.16106e-06
1.19268e-06
1.20719e-06
1.24692e-06
1.28427e-06
1.33532e-06
1.37932e-06
1.39232e-06
1.38783e-06
1.38016e-06
1.34231e-06
1.25769e-06
1.13474e-06
1.0566e-06
1.1171e-06
1.00216e-06
9.40235e-07
8.63484e-07
8.4593e-07
7.99492e-07
6.80323e-07
6.23755e-07
5.74687e-07
5.21109e-07
4.77184e-07
4.54386e-07
4.53186e-07
4.63431e-07
4.73886e-07
4.88254e-07
4.94648e-07
5.03314e-07
4.82044e-07
4.8493e-07
4.75319e-07
4.81071e-07
5.09404e-07
5.59486e-07
6.35805e-07
8.23226e-07
9.2896e-07
9.59956e-07
8.71879e-07
3.87624e-07
3.73937e-07
3.6066e-07
3.62701e-07
3.87145e-07
3.99823e-07
4.23426e-07
4.27641e-07
4.39097e-07
4.44176e-07
4.49313e-07
4.53654e-07
4.58398e-07
4.63979e-07
4.65856e-07
4.70661e-07
4.74809e-07
4.77325e-07
4.83891e-07
4.89835e-07
5.04208e-07
5.06895e-07
5.12283e-07
5.06717e-07
5.11272e-07
5.26073e-07
5.25926e-07
4.99711e-07
4.40352e-07
4.35065e-07
1.85116e-07
2.47785e-07
2.82616e-07
3.02824e-07
4.69173e-07
4.89339e-07
4.93111e-07
5.02139e-07
4.79301e-07
5.03138e-07
4.67854e-07
4.76776e-07
4.65856e-07
4.61067e-07
4.4007e-07
3.99178e-07
3.28155e-07
1.84854e-07
1.52259e-07
1.53233e-07
2.9701e-07
4.33958e-07
3.98334e-07
2.9923e-07
2.64195e-07
2.57763e-07
2.58619e-07
2.57984e-07
2.67545e-07
2.99894e-07
5.70851e-08
4.4655e-08
5.12805e-08
6.65204e-08
7.59346e-08
7.44747e-08
6.81332e-08
6.30954e-08
6.06028e-08
5.98001e-08
5.99542e-08
6.02209e-08
6.04105e-08
5.96122e-08
5.9636e-08
5.68086e-08
5.69736e-08
5.61399e-08
5.63381e-08
5.62241e-08
5.90095e-08
6.10471e-08
6.44776e-08
6.75276e-08
7.19107e-08
7.59253e-08
8.10264e-08
8.32979e-08
8.56781e-08
7.89617e-08
2.26857e-07
2.42887e-07
1.7477e-07
9.3106e-08
9.41391e-08
1.52433e-07
1.857e-07
1.97919e-07
1.96801e-07
2.05689e-07
2.00678e-07
2.14305e-07
2.12896e-07
2.25645e-07
2.3083e-07
2.35638e-07
2.34575e-07
2.33957e-07
2.22388e-07
2.09346e-07
1.88061e-07
1.64035e-07
1.35011e-07
1.44138e-07
2.80803e-07
6.72679e-07
7.26211e-07
7.26663e-07
7.22665e-07
7.24047e-07
9.62141e-08
4.84181e-08
4.82403e-08
5.30276e-08
5.51147e-08
5.52299e-08
5.31081e-08
5.06153e-08
4.81251e-08
4.47535e-08
4.36188e-08
4.06143e-08
4.14121e-08
4.04883e-08
4.04795e-08
4.11409e-08
4.29994e-08
4.48128e-08
4.7204e-08
4.98064e-08
5.14371e-08
5.22852e-08
6.42105e-08
1.09773e-07
1.0219e-07
8.94309e-08
8.04809e-08
7.30227e-08
6.21293e-08
7.65134e-08
1.0219e-07
8.47539e-08
9.5225e-08
1.02273e-07
1.0855e-07
1.10862e-07
1.10917e-07
1.09101e-07
1.09742e-07
1.06455e-07
1.05674e-07
1.06361e-07
1.05903e-07
1.06826e-07
1.07997e-07
1.08237e-07
1.11917e-07
1.10275e-07
1.10925e-07
8.79125e-08
2.61695e-08
1.05242e-08
2.03163e-08
3.03626e-08
3.18205e-08
2.72698e-08
2.74921e-08
3.15775e-08
2.73462e-08
2.26235e-08
2.37726e-07
7.796e-08
5.57511e-08
5.93072e-08
6.32155e-08
8.13756e-08
9.59083e-08
1.09887e-07
1.13554e-07
1.18882e-07
1.1792e-07
1.12724e-07
1.12954e-07
1.08453e-07
1.03841e-07
1.01592e-07
1.01704e-07
9.52772e-08
8.85419e-08
8.62423e-08
8.09845e-08
7.15622e-08
4.61454e-08
3.27446e-08
3.13684e-08
3.22889e-08
3.37722e-08
3.4652e-08
3.38632e-08
3.04251e-08
2.44912e-08
2.30309e-08
2.33408e-08
2.45424e-08
2.53664e-08
2.64961e-08
2.86024e-08
2.8946e-08
2.98194e-08
2.98644e-08
2.98617e-08
2.98686e-08
3.08787e-08
3.10116e-08
3.17369e-08
3.21652e-08
3.62909e-08
3.59148e-08
3.77086e-08
4.1654e-08
4.2461e-08
3.06272e-08
1.95564e-08
1.59727e-08
1.51476e-08
1.49988e-08
1.65995e-08
1.78738e-08
1.79073e-08
1.67997e-08
2.40767e-08
2.72849e-08
2.95249e-08
2.46069e-08
2.79657e-08
3.83118e-08
4.20971e-08
4.05724e-08
3.69045e-08
3.42835e-08
3.01168e-08
2.86464e-08
2.735e-08
2.71906e-08
2.76588e-08
2.79905e-08
2.87827e-08
3.00665e-08
3.12156e-08
3.19313e-08
3.05576e-08
2.86622e-08
2.58408e-08
2.46492e-08
2.39444e-08
2.52729e-08
2.58382e-08
2.67091e-08
2.36303e-08
2.25161e-08
6.45319e-09
6.20495e-09
6.49804e-09
1.2847e-08
6.7281e-07
6.21927e-07
1.5502e-08
1.92748e-09
1.30881e-09
1.5274e-09
1.82694e-09
2.0558e-09
2.23232e-09
2.37342e-09
2.48613e-09
2.50154e-09
2.88745e-09
3.17812e-09
3.53866e-09
4.5236e-09
6.49403e-09
1.02676e-08
1.18993e-08
8.64514e-09
3.72749e-09
1.95834e-09
1.34401e-09
1.33283e-09
1.8503e-09
2.94605e-08
1.59041e-06
1.53641e-06
1.49598e-06
1.46257e-06
1.40968e-06
1.38916e-06
1.35728e-06
1.27022e-06
1.25345e-06
1.16722e-06
1.20186e-06
1.28412e-06
1.32812e-06
1.30191e-06
1.10609e-06
1.17635e-06
1.24938e-06
1.32005e-06
1.36449e-06
1.33762e-06
1.30038e-06
1.29084e-06
1.2821e-06
1.26264e-06
1.24076e-06
1.20835e-06
1.16139e-06
1.06539e-06
1.00122e-06
8.83612e-07
8.66103e-07
8.91629e-07
9.98711e-07
1.06527e-06
1.13202e-06
1.20519e-06
1.28456e-06
1.34925e-06
1.40772e-06
1.41988e-06
1.39509e-06
1.37206e-06
1.30939e-06
1.18935e-06
1.06637e-06
1.11294e-06
9.6933e-07
9.25619e-07
8.85071e-07
9.16011e-07
9.00695e-07
8.7718e-07
7.8924e-07
6.14372e-07
5.10307e-07
4.26214e-07
4.03514e-07
4.22731e-07
4.67721e-07
5.32867e-07
5.9293e-07
6.16941e-07
6.48552e-07
6.52276e-07
6.22406e-07
5.81053e-07
5.34198e-07
5.02151e-07
5.13941e-07
5.58715e-07
6.4793e-07
8.66075e-07
9.54727e-07
9.1653e-07
3.8479e-07
3.70832e-07
3.6123e-07
3.78749e-07
4.0773e-07
4.20598e-07
4.32678e-07
4.341e-07
4.32484e-07
4.30756e-07
4.31276e-07
4.37972e-07
4.48468e-07
4.65837e-07
4.83262e-07
4.98295e-07
5.11212e-07
5.94375e-07
6.12416e-07
6.16024e-07
6.34992e-07
5.50727e-07
5.42601e-07
5.29267e-07
5.12065e-07
5.1421e-07
5.28792e-07
5.18884e-07
4.66719e-07
4.38535e-07
2.21603e-07
2.69822e-07
2.95998e-07
4.70264e-07
5.23043e-07
5.539e-07
5.71705e-07
5.67759e-07
5.68551e-07
5.63645e-07
5.44381e-07
5.50523e-07
5.3173e-07
5.44036e-07
5.34433e-07
5.0989e-07
4.4284e-07
3.30899e-07
1.73523e-07
1.45825e-07
1.59618e-07
3.44321e-07
4.05499e-07
2.82941e-07
2.49089e-07
2.62635e-07
2.69255e-07
2.38661e-07
1.54614e-07
1.61404e-07
5.51042e-08
4.65562e-08
6.07569e-08
7.40138e-08
7.35453e-08
6.28766e-08
5.67458e-08
5.5634e-08
5.786e-08
6.06629e-08
6.41907e-08
6.64093e-08
6.786e-08
6.7776e-08
6.75468e-08
6.54702e-08
6.59683e-08
6.30133e-08
6.28778e-08
6.04613e-08
6.29015e-08
6.24266e-08
6.45798e-08
6.69038e-08
6.92313e-08
7.32443e-08
7.8167e-08
8.23e-08
8.29076e-08
7.74763e-08
2.26717e-07
1.86669e-07
8.25792e-08
9.63875e-08
2.11211e-07
2.18617e-07
1.73503e-07
8.89236e-08
8.7429e-08
8.21246e-08
8.63828e-08
8.51669e-08
1.37319e-07
1.47152e-07
1.61582e-07
1.78233e-07
1.97562e-07
2.166e-07
2.26746e-07
2.38133e-07
2.27904e-07
2.09966e-07
1.76036e-07
1.47437e-07
1.81311e-07
4.30168e-07
6.93929e-07
6.98398e-07
6.582e-07
7.00856e-07
4.2108e-08
4.60552e-08
5.47178e-08
5.65047e-08
5.3723e-08
5.09765e-08
4.71676e-08
4.34657e-08
4.14529e-08
3.80782e-08
3.81124e-08
3.53973e-08
3.56592e-08
3.37959e-08
3.51316e-08
3.70303e-08
3.73215e-08
4.04639e-08
4.30906e-08
4.729e-08
4.92471e-08
5.13322e-08
5.48611e-08
8.75351e-08
1.03307e-07
9.50022e-08
8.21086e-08
5.915e-08
5.43165e-08
5.73404e-08
7.8455e-08
9.54053e-08
1.04782e-07
1.11266e-07
1.13806e-07
1.16242e-07
1.18898e-07
1.19952e-07
1.23312e-07
1.79499e-07
1.87458e-07
1.8907e-07
1.9335e-07
1.87093e-07
1.80342e-07
1.19004e-07
1.21812e-07
1.17114e-07
1.17681e-07
1.12491e-07
5.90244e-08
1.98711e-08
2.01742e-08
3.28046e-08
2.80949e-08
2.51525e-08
2.58321e-08
3.42295e-08
3.84309e-08
3.48975e-08
2.44413e-07
5.86126e-08
6.00363e-08
6.32502e-08
8.61236e-08
1.11094e-07
1.25122e-07
1.34515e-07
2.30347e-07
2.52879e-07
2.62571e-07
2.71929e-07
2.70872e-07
2.63773e-07
2.58327e-07
2.31742e-07
2.07102e-07
1.20665e-07
1.10154e-07
9.60786e-08
8.77794e-08
8.21789e-08
6.66849e-08
4.11132e-08
3.19866e-08
3.2034e-08
3.54009e-08
3.65594e-08
3.75218e-08
3.35303e-08
2.46264e-08
2.46219e-08
2.44026e-08
2.52016e-08
2.84142e-08
3.014e-08
3.15794e-08
3.36303e-08
4.255e-08
4.54394e-08
5.25996e-08
5.96487e-08
6.10208e-08
6.11878e-08
5.93275e-08
5.44265e-08
5.12257e-08
3.90345e-08
4.12858e-08
3.9999e-08
4.33426e-08
4.03561e-08
2.33774e-08
1.61497e-08
1.28769e-08
1.51037e-08
1.80823e-08
2.07946e-08
2.11103e-08
1.78817e-08
2.22326e-08
2.36145e-08
2.31059e-08
2.52836e-08
3.5154e-08
4.10756e-08
4.01845e-08
3.59708e-08
3.00615e-08
2.75526e-08
2.7952e-08
2.7653e-08
2.78951e-08
2.67625e-08
2.56814e-08
2.38645e-08
2.2869e-08
2.45652e-08
2.83879e-08
2.94725e-08
2.95141e-08
2.64582e-08
2.26336e-08
2.1026e-08
2.09908e-08
2.26983e-08
2.43746e-08
2.57562e-08
2.39849e-08
2.19338e-08
8.52001e-09
7.20485e-09
8.34362e-09
2.40054e-08
7.30037e-07
4.8069e-08
2.46435e-09
1.32825e-09
1.5932e-09
1.93954e-09
2.23021e-09
2.46112e-09
2.61491e-09
2.68257e-09
2.76718e-09
2.78788e-09
2.81492e-09
2.75428e-09
2.76515e-09
2.65237e-09
3.61842e-09
5.98175e-09
1.20098e-08
1.72175e-08
8.72182e-09
3.17927e-09
1.82244e-09
1.68182e-09
2.95725e-09
9.42617e-08
1.59973e-06
1.58568e-06
1.51929e-06
1.47069e-06
1.44072e-06
1.41726e-06
1.38912e-06
1.382e-06
1.35102e-06
1.25325e-06
1.17797e-06
1.24013e-06
1.30761e-06
1.29632e-06
1.10613e-06
1.19173e-06
1.2736e-06
1.35039e-06
1.36833e-06
1.31869e-06
1.28637e-06
1.26465e-06
1.2581e-06
1.23616e-06
1.22999e-06
1.17792e-06
1.07764e-06
9.01324e-07
7.86676e-07
7.40048e-07
7.72601e-07
8.42387e-07
1.01036e-06
1.11048e-06
1.19928e-06
1.28634e-06
1.33788e-06
1.38065e-06
1.42527e-06
1.44954e-06
1.42664e-06
1.38763e-06
1.34112e-06
1.23817e-06
1.06469e-06
1.10348e-06
9.65678e-07
9.44746e-07
9.58666e-07
1.02217e-06
1.00473e-06
9.67516e-07
8.55333e-07
6.38357e-07
4.75354e-07
2.58168e-07
2.61049e-07
4.35888e-07
5.30676e-07
6.21684e-07
6.89519e-07
8.40507e-07
8.9635e-07
8.90093e-07
8.82719e-07
8.52172e-07
7.5824e-07
5.92005e-07
5.31368e-07
5.37748e-07
5.93358e-07
8.01536e-07
9.28139e-07
9.27269e-07
3.84336e-07
3.69367e-07
3.69967e-07
3.96731e-07
4.17864e-07
4.31387e-07
4.25165e-07
4.22068e-07
4.14487e-07
4.13469e-07
4.11307e-07
4.20571e-07
4.48158e-07
4.79782e-07
5.08671e-07
6.1538e-07
6.41251e-07
6.60392e-07
6.69186e-07
6.77485e-07
6.69819e-07
6.71641e-07
6.64989e-07
5.5008e-07
5.3341e-07
5.11896e-07
5.16426e-07
5.23542e-07
4.93026e-07
4.51814e-07
2.73604e-07
2.87262e-07
4.52488e-07
5.21793e-07
5.75108e-07
6.1084e-07
6.22258e-07
6.40429e-07
6.12031e-07
6.10786e-07
5.85963e-07
5.8107e-07
5.76947e-07
5.6529e-07
5.714e-07
5.6282e-07
5.15962e-07
4.17532e-07
2.03517e-07
1.54449e-07
1.43814e-07
1.74916e-07
3.91995e-07
3.01627e-07
2.50448e-07
2.87938e-07
3.22469e-07
2.78268e-07
1.46374e-07
1.39671e-07
5.4176e-08
5.06946e-08
6.72142e-08
7.3334e-08
6.09708e-08
5.30356e-08
5.3269e-08
5.60574e-08
6.19465e-08
6.68252e-08
7.06924e-08
7.29547e-08
7.50243e-08
7.48088e-08
7.54991e-08
7.46717e-08
7.33609e-08
7.27546e-08
7.01667e-08
6.93247e-08
6.99876e-08
6.70677e-08
6.9206e-08
6.77739e-08
6.9432e-08
7.17054e-08
7.64001e-08
8.0815e-08
8.27504e-08
7.73723e-08
2.08875e-07
9.13325e-08
9.04595e-08
2.25619e-07
2.003e-07
8.02735e-08
6.63691e-08
6.51775e-08
7.43706e-08
7.76726e-08
8.32076e-08
8.09041e-08
8.34055e-08
7.92059e-08
7.98391e-08
8.22659e-08
8.5196e-08
1.50262e-07
1.80172e-07
2.1189e-07
2.25904e-07
2.31399e-07
2.07492e-07
1.69647e-07
1.59687e-07
2.47338e-07
5.32937e-07
6.4646e-07
5.47792e-07
6.73256e-07
3.08228e-08
5.07284e-08
5.63877e-08
5.30694e-08
5.03447e-08
4.6105e-08
4.39701e-08
3.96284e-08
3.74927e-08
3.58079e-08
3.44871e-08
3.18298e-08
3.13618e-08
3.1348e-08
3.00191e-08
3.18088e-08
3.35699e-08
3.47637e-08
4.00102e-08
4.35299e-08
4.7526e-08
5.0205e-08
5.17816e-08
6.16187e-08
9.71701e-08
1.0595e-07
9.67345e-08
6.00827e-08
5.25338e-08
5.41011e-08
9.95951e-08
1.0591e-07
1.1089e-07
1.1335e-07
1.18568e-07
1.27367e-07
2.04909e-07
2.40436e-07
2.67198e-07
2.8247e-07
2.91009e-07
2.92884e-07
2.83164e-07
2.69639e-07
2.48645e-07
2.21345e-07
2.10202e-07
1.25964e-07
1.23398e-07
1.20072e-07
1.02118e-07
4.19343e-08
2.11502e-08
2.6181e-08
3.29232e-08
2.51811e-08
2.53427e-08
3.14691e-08
4.27621e-08
3.97962e-08
2.28224e-07
6.3443e-08
6.34425e-08
8.4063e-08
1.11329e-07
1.3001e-07
2.144e-07
2.60964e-07
2.91849e-07
3.16582e-07
3.42775e-07
3.43188e-07
3.46741e-07
3.51687e-07
3.36999e-07
3.25768e-07
2.92311e-07
2.57287e-07
2.13866e-07
1.1489e-07
9.92605e-08
8.70235e-08
7.78852e-08
4.90225e-08
3.64626e-08
3.11215e-08
3.18507e-08
3.51907e-08
3.70703e-08
3.27974e-08
2.52231e-08
2.36297e-08
2.48805e-08
2.81331e-08
3.03806e-08
3.28786e-08
3.61211e-08
5.56945e-08
6.81256e-08
7.99168e-08
1.47149e-07
1.70163e-07
1.82048e-07
1.71939e-07
1.4755e-07
8.48649e-08
8.20654e-08
6.52552e-08
5.66593e-08
4.18363e-08
4.44887e-08
4.38112e-08
3.22265e-08
1.96123e-08
1.36856e-08
1.34147e-08
1.78537e-08
2.22524e-08
2.2773e-08
2.0394e-08
1.84566e-08
1.87455e-08
1.97237e-08
3.01368e-08
3.8896e-08
4.09439e-08
3.60425e-08
3.1897e-08
2.97219e-08
3.14284e-08
3.34304e-08
3.42901e-08
3.38369e-08
3.09067e-08
2.81788e-08
2.56815e-08
2.32319e-08
2.16113e-08
2.4483e-08
2.74432e-08
2.87169e-08
2.52406e-08
2.08367e-08
2.35612e-08
2.46132e-08
2.50392e-08
2.52543e-08
2.57272e-08
2.39488e-08
2.12973e-08
1.38139e-08
1.06549e-08
2.68025e-08
1.94469e-07
1.5156e-07
3.70986e-09
1.42184e-09
1.61393e-09
1.96576e-09
2.37099e-09
2.75821e-09
3.51085e-09
4.09119e-09
4.58157e-09
4.8053e-09
4.66565e-09
4.27229e-09
3.9018e-09
3.49955e-09
2.83723e-09
2.64777e-09
3.11354e-09
5.98347e-09
1.73032e-08
1.94141e-08
7.65574e-09
4.02989e-09
3.72245e-09
8.06031e-09
6.22239e-07
1.58938e-06
1.55311e-06
1.47149e-06
1.45788e-06
1.42539e-06
1.43871e-06
1.44801e-06
1.4539e-06
1.41074e-06
1.38076e-06
1.27726e-06
1.22717e-06
1.30233e-06
1.30599e-06
1.11612e-06
1.21591e-06
1.30405e-06
1.36567e-06
1.36331e-06
1.29691e-06
1.25418e-06
1.26053e-06
1.25244e-06
1.2477e-06
1.23098e-06
1.19567e-06
1.07412e-06
8.42992e-07
6.2724e-07
6.29917e-07
8.12617e-07
1.02799e-06
1.16536e-06
1.29066e-06
1.36984e-06
1.41658e-06
1.44803e-06
1.45648e-06
1.46791e-06
1.47632e-06
1.45766e-06
1.40988e-06
1.35198e-06
1.26016e-06
1.06092e-06
1.09972e-06
9.73391e-07
9.89077e-07
1.02355e-06
1.12717e-06
1.1067e-06
9.48299e-07
8.44125e-07
6.01351e-07
4.20761e-07
2.47474e-07
3.94397e-07
5.15202e-07
6.28808e-07
8.15634e-07
8.8626e-07
9.29034e-07
9.44892e-07
9.36772e-07
9.52698e-07
9.26579e-07
8.90458e-07
7.93619e-07
6.03237e-07
5.5013e-07
5.78665e-07
7.53508e-07
9.04939e-07
9.28793e-07
3.91e-07
3.71917e-07
3.82215e-07
4.08793e-07
4.2709e-07
4.24815e-07
3.95769e-07
3.85274e-07
3.88804e-07
3.95878e-07
3.92659e-07
4.08048e-07
4.459e-07
4.82905e-07
6.00452e-07
6.42003e-07
6.83063e-07
7.01505e-07
7.18169e-07
7.09936e-07
7.17735e-07
6.94255e-07
6.93291e-07
6.5804e-07
5.44085e-07
5.20206e-07
5.11729e-07
5.21048e-07
5.08645e-07
4.65977e-07
2.6567e-07
2.80746e-07
4.78587e-07
5.46006e-07
6.05243e-07
6.27069e-07
6.5038e-07
6.44261e-07
6.2985e-07
6.3771e-07
6.01126e-07
6.05491e-07
5.84199e-07
5.78623e-07
5.82316e-07
5.83478e-07
5.55513e-07
4.77569e-07
3.3887e-07
1.69167e-07
1.41577e-07
1.53682e-07
3.43589e-07
3.44038e-07
2.58133e-07
2.93837e-07
3.64362e-07
3.3838e-07
1.47207e-07
1.23845e-07
5.31286e-08
5.50202e-08
7.04609e-08
6.43054e-08
5.20004e-08
4.90739e-08
5.37086e-08
5.98495e-08
6.56867e-08
7.08643e-08
7.4361e-08
7.71552e-08
7.82373e-08
7.91289e-08
8.10722e-08
7.94224e-08
7.93639e-08
7.8605e-08
7.77952e-08
7.94496e-08
7.41565e-08
7.49982e-08
7.41103e-08
7.12443e-08
7.09781e-08
7.1722e-08
7.56085e-08
7.97691e-08
8.27742e-08
7.78658e-08
1.07971e-07
8.41184e-08
2.04833e-07
1.86172e-07
6.29493e-08
4.28831e-08
4.57529e-08
7.32884e-08
8.68752e-08
9.2752e-08
8.92165e-08
8.67633e-08
8.15983e-08
8.08154e-08
7.5976e-08
7.74439e-08
7.78041e-08
8.374e-08
8.72856e-08
1.59327e-07
1.96558e-07
2.2513e-07
2.20756e-07
1.94809e-07
1.68229e-07
1.99281e-07
3.19029e-07
4.78174e-07
4.54077e-07
6.38885e-07
3.76359e-08
5.35597e-08
5.33611e-08
5.1391e-08
4.78548e-08
4.4008e-08
4.25656e-08
3.81542e-08
3.54932e-08
3.32548e-08
3.09422e-08
2.53467e-08
2.53852e-08
2.44218e-08
2.48685e-08
2.61054e-08
2.62542e-08
3.17076e-08
3.53578e-08
4.19326e-08
4.57859e-08
4.94253e-08
5.08495e-08
5.49959e-08
6.5393e-08
9.68919e-08
9.41906e-08
5.98604e-08
5.2237e-08
5.32283e-08
1.04428e-07
1.07691e-07
1.123e-07
1.1926e-07
1.30148e-07
2.35711e-07
2.90666e-07
3.47482e-07
3.79332e-07
4.04278e-07
4.12242e-07
4.6976e-07
3.95444e-07
3.69644e-07
3.38265e-07
2.91605e-07
2.54779e-07
2.26351e-07
1.31558e-07
1.24787e-07
1.20552e-07
6.2775e-08
2.73007e-08
2.4712e-08
2.64723e-08
2.42565e-08
2.58333e-08
3.83957e-08
5.08015e-08
4.33983e-08
1.32755e-07
6.86987e-08
6.68369e-08
1.05047e-07
1.25727e-07
1.37435e-07
2.44601e-07
2.93625e-07
3.29903e-07
3.67327e-07
3.92636e-07
4.72172e-07
5.01529e-07
4.86078e-07
4.75208e-07
4.53839e-07
3.71105e-07
3.25803e-07
2.76773e-07
2.18701e-07
1.11514e-07
9.55045e-08
8.59572e-08
7.05542e-08
4.20358e-08
3.3008e-08
3.18805e-08
3.50534e-08
3.44894e-08
3.31966e-08
2.44702e-08
2.47342e-08
2.63763e-08
2.9836e-08
3.24716e-08
3.66642e-08
6.17383e-08
8.12455e-08
1.81971e-07
2.54144e-07
3.09214e-07
4.08261e-07
4.25287e-07
4.15993e-07
3.21595e-07
2.72501e-07
2.09228e-07
9.28846e-08
7.98268e-08
5.57265e-08
4.57242e-08
4.52253e-08
3.96216e-08
2.43445e-08
1.60268e-08
1.33579e-08
1.77952e-08
2.27059e-08
2.27537e-08
2.15543e-08
1.84164e-08
1.87122e-08
2.48484e-08
3.52858e-08
4.10274e-08
3.98022e-08
3.35159e-08
3.02533e-08
3.34798e-08
3.76534e-08
4.85674e-08
5.00301e-08
4.48379e-08
4.26698e-08
3.75931e-08
2.79525e-08
2.38339e-08
2.10489e-08
1.98491e-08
2.56753e-08
2.69248e-08
2.61311e-08
2.49714e-08
3.19802e-08
4.17871e-08
3.23161e-08
2.85405e-08
2.70617e-08
2.38846e-08
2.09804e-08
1.65942e-08
1.28594e-08
5.31154e-08
7.41628e-08
1.07137e-08
1.91544e-09
1.40642e-09
1.91277e-09
2.41491e-09
3.22332e-09
4.43694e-09
5.40142e-09
6.97811e-09
8.02873e-09
8.2208e-09
7.69344e-09
6.07267e-09
5.26587e-09
4.53603e-09
3.94791e-09
2.94731e-09
2.64274e-09
2.65548e-09
6.74792e-09
2.19851e-08
1.59953e-08
1.10044e-08
1.0903e-08
3.38406e-08
7.88576e-07
1.60917e-06
1.4981e-06
1.46652e-06
1.45256e-06
1.45285e-06
1.4337e-06
1.54628e-06
1.55103e-06
1.51297e-06
1.44782e-06
1.32398e-06
1.24236e-06
1.30405e-06
1.30081e-06
1.12515e-06
1.21643e-06
1.30921e-06
1.38279e-06
1.36511e-06
1.29355e-06
1.24616e-06
1.22559e-06
1.22142e-06
1.21795e-06
1.24375e-06
1.21935e-06
1.1062e-06
8.29047e-07
6.19806e-07
7.70429e-07
1.01863e-06
1.20553e-06
1.34835e-06
1.43089e-06
1.48256e-06
1.5211e-06
1.52798e-06
1.52648e-06
1.52388e-06
1.50874e-06
1.48531e-06
1.41709e-06
1.3566e-06
1.26443e-06
1.05488e-06
1.09618e-06
9.83952e-07
1.01868e-06
1.10977e-06
1.13229e-06
9.74398e-07
8.335e-07
6.61896e-07
5.52741e-07
3.82079e-07
2.50216e-07
4.6195e-07
6.07906e-07
8.19872e-07
9.10564e-07
9.44675e-07
9.59698e-07
9.50436e-07
9.49766e-07
9.2872e-07
9.21982e-07
9.13789e-07
8.6707e-07
7.6151e-07
5.97736e-07
5.87413e-07
7.45735e-07
8.79458e-07
9.21383e-07
3.82006e-07
3.78802e-07
3.89238e-07
4.27355e-07
4.26069e-07
3.90522e-07
3.39219e-07
3.2546e-07
3.52922e-07
3.80567e-07
3.74577e-07
3.88653e-07
4.32317e-07
4.81492e-07
6.08343e-07
6.62025e-07
7.06137e-07
7.31539e-07
7.3862e-07
7.47172e-07
7.36729e-07
7.18825e-07
7.15291e-07
6.71914e-07
5.57718e-07
5.1942e-07
5.08263e-07
5.16372e-07
5.16967e-07
4.70724e-07
2.66969e-07
2.77454e-07
4.73577e-07
5.56365e-07
6.08801e-07
6.36432e-07
6.63689e-07
6.42666e-07
6.61685e-07
6.38757e-07
6.25327e-07
6.08283e-07
5.99665e-07
5.8555e-07
5.8115e-07
5.93684e-07
5.70361e-07
5.08034e-07
3.77378e-07
1.81576e-07
1.4286e-07
1.43254e-07
2.89508e-07
3.62202e-07
2.95751e-07
3.10893e-07
3.9117e-07
3.70321e-07
1.51137e-07
1.1302e-07
5.29238e-08
5.8417e-08
6.76176e-08
5.57061e-08
4.73456e-08
4.85502e-08
5.39329e-08
6.10007e-08
6.77268e-08
7.25381e-08
7.60318e-08
7.863e-08
8.03692e-08
8.20025e-08
8.23109e-08
8.13201e-08
8.32363e-08
8.24764e-08
8.30166e-08
8.29075e-08
8.00728e-08
8.13684e-08
7.78893e-08
7.57453e-08
7.26768e-08
7.2984e-08
7.49678e-08
7.97318e-08
8.25119e-08
7.73838e-08
1.0222e-07
9.39258e-08
1.92781e-07
6.07521e-08
3.87512e-08
4.14069e-08
6.74171e-08
9.19278e-08
9.67772e-08
9.8533e-08
8.8892e-08
8.63039e-08
7.46774e-08
7.55181e-08
6.93955e-08
7.04988e-08
7.09916e-08
7.61888e-08
8.10591e-08
9.23692e-08
1.65299e-07
2.01024e-07
2.18959e-07
2.11137e-07
1.77481e-07
1.85074e-07
2.60243e-07
3.18007e-07
3.39586e-07
5.44116e-07
4.92264e-08
5.36431e-08
5.34963e-08
5.00096e-08
4.6468e-08
4.33605e-08
4.17493e-08
3.81281e-08
3.50994e-08
2.66892e-08
2.47141e-08
2.32177e-08
2.22864e-08
2.25955e-08
2.2638e-08
2.33387e-08
2.58655e-08
2.66305e-08
3.32011e-08
3.86889e-08
4.31892e-08
4.82047e-08
5.15209e-08
5.26168e-08
5.95567e-08
6.72643e-08
6.5152e-08
5.73486e-08
5.70088e-08
5.60716e-08
1.04982e-07
1.10778e-07
1.16384e-07
1.28316e-07
2.31984e-07
3.05381e-07
3.80065e-07
4.94195e-07
5.59016e-07
5.84183e-07
6.00589e-07
5.93419e-07
5.75773e-07
5.39757e-07
4.07347e-07
3.69462e-07
2.98055e-07
2.70762e-07
2.1389e-07
1.30914e-07
1.29996e-07
1.01892e-07
4.70617e-08
2.76442e-08
2.48894e-08
2.35372e-08
2.75037e-08
4.72702e-08
6.06722e-08
5.03645e-08
1.03885e-07
6.80637e-08
8.8746e-08
1.1617e-07
1.31217e-07
2.1245e-07
2.6353e-07
3.17889e-07
3.66897e-07
4.79371e-07
5.16151e-07
5.2287e-07
5.07711e-07
5.01716e-07
4.87409e-07
4.7658e-07
4.66602e-07
3.71983e-07
3.32131e-07
2.67314e-07
1.97181e-07
1.0451e-07
9.03739e-08
7.74272e-08
4.67885e-08
3.66074e-08
3.41131e-08
3.56021e-08
3.19738e-08
3.01161e-08
2.5255e-08
2.60953e-08
2.77862e-08
3.1526e-08
3.55765e-08
5.43646e-08
8.11205e-08
2.09226e-07
3.04294e-07
4.86988e-07
5.74325e-07
6.4015e-07
6.48457e-07
6.57465e-07
6.34193e-07
5.14109e-07
3.45222e-07
2.33395e-07
1.02624e-07
7.29905e-08
4.87239e-08
4.60954e-08
4.39892e-08
3.24181e-08
2.00707e-08
1.56106e-08
2.00254e-08
2.32474e-08
2.28431e-08
2.16765e-08
1.84914e-08
1.92294e-08
2.95188e-08
3.85944e-08
4.15544e-08
3.80148e-08
3.01271e-08
3.33062e-08
3.82458e-08
5.13701e-08
5.95429e-08
5.77542e-08
5.6958e-08
5.17394e-08
4.26221e-08
3.59286e-08
2.49939e-08
2.11506e-08
1.91701e-08
2.33075e-08
2.7107e-08
2.68185e-08
3.17781e-08
6.97014e-08
8.01237e-08
5.74181e-08
3.28493e-08
2.81728e-08
2.31591e-08
2.10949e-08
2.1182e-08
1.1278e-08
2.64798e-08
1.85238e-08
3.78009e-09
1.65447e-09
1.75082e-09
2.29346e-09
2.98308e-09
4.566e-09
5.87442e-09
9.10483e-09
1.15924e-08
1.53395e-08
1.57605e-08
1.24022e-08
9.91185e-09
7.43473e-09
5.1477e-09
4.66549e-09
3.73783e-09
2.91954e-09
2.46769e-09
2.80925e-09
1.97565e-08
2.92306e-08
1.99472e-08
3.32023e-08
2.649e-07
6.66625e-07
1.56879e-06
1.44468e-06
1.47871e-06
1.45077e-06
1.41464e-06
1.46481e-06
1.49779e-06
1.61892e-06
1.59713e-06
1.52071e-06
1.44988e-06
1.28164e-06
1.30762e-06
1.31626e-06
1.14138e-06
1.22601e-06
1.29006e-06
1.3838e-06
1.37966e-06
1.29995e-06
1.24386e-06
1.23096e-06
1.21177e-06
1.2103e-06
1.21037e-06
1.22542e-06
1.16261e-06
8.43715e-07
6.31009e-07
8.80544e-07
1.18584e-06
1.35388e-06
1.45599e-06
1.49478e-06
1.52468e-06
1.54953e-06
1.56868e-06
1.57898e-06
1.56256e-06
1.53778e-06
1.49918e-06
1.41953e-06
1.35653e-06
1.26582e-06
1.05047e-06
1.09219e-06
9.93183e-07
1.0275e-06
1.10975e-06
9.99997e-07
7.02226e-07
5.81754e-07
5.83759e-07
5.15712e-07
3.62864e-07
3.71462e-07
5.17661e-07
6.74572e-07
8.95398e-07
9.52493e-07
9.57016e-07
9.51324e-07
9.28413e-07
9.07085e-07
9.03934e-07
9.14685e-07
9.17751e-07
8.88625e-07
8.21439e-07
7.21254e-07
6.10526e-07
7.51526e-07
8.80333e-07
9.00985e-07
3.99273e-07
3.79288e-07
4.00926e-07
4.26715e-07
4.08058e-07
3.33698e-07
2.64408e-07
2.57519e-07
3.05018e-07
3.59478e-07
3.63912e-07
3.65756e-07
4.08132e-07
4.64119e-07
5.99186e-07
6.59312e-07
6.97488e-07
7.29661e-07
7.50353e-07
7.45773e-07
7.60023e-07
7.25444e-07
7.24745e-07
6.7685e-07
6.41347e-07
5.22284e-07
5.01375e-07
5.12023e-07
5.16736e-07
4.6713e-07
2.48537e-07
2.67288e-07
4.67841e-07
5.48819e-07
6.05145e-07
6.3238e-07
6.58633e-07
6.4882e-07
6.74925e-07
6.44254e-07
6.25676e-07
6.22446e-07
5.94549e-07
5.90974e-07
5.82544e-07
5.95188e-07
5.70188e-07
5.15701e-07
3.8461e-07
1.83681e-07
1.42793e-07
1.39969e-07
1.75316e-07
3.6108e-07
3.4006e-07
3.54853e-07
4.09812e-07
3.79289e-07
1.50815e-07
1.03407e-07
5.21777e-08
6.14816e-08
6.48117e-08
4.94484e-08
4.44934e-08
4.7688e-08
5.27911e-08
6.03267e-08
6.72225e-08
7.2008e-08
7.54418e-08
7.85793e-08
8.11736e-08
8.15715e-08
8.26104e-08
8.21805e-08
8.51722e-08
8.35514e-08
8.4782e-08
8.13167e-08
8.4646e-08
8.48783e-08
8.1179e-08
7.81965e-08
7.46389e-08
7.42665e-08
7.57118e-08
7.96905e-08
8.25247e-08
7.54556e-08
9.93366e-08
9.94913e-08
8.02115e-08
3.76574e-08
3.40578e-08
4.39545e-08
8.0384e-08
1.01103e-07
9.84274e-08
9.83106e-08
8.47451e-08
8.0383e-08
6.67256e-08
6.88967e-08
6.24198e-08
6.44114e-08
6.37532e-08
6.91664e-08
7.59941e-08
8.76537e-08
9.83642e-08
1.86972e-07
2.20318e-07
2.173e-07
1.93486e-07
1.81722e-07
2.24504e-07
2.72561e-07
3.11481e-07
3.61163e-07
5.30652e-08
5.35494e-08
5.2682e-08
4.91117e-08
4.56488e-08
4.31763e-08
4.07539e-08
3.603e-08
2.84402e-08
2.40066e-08
2.22611e-08
1.94699e-08
1.96395e-08
1.94528e-08