/*--------------------------------*- C++ -*----------------------------------*\
| =========                 |                                                 |
| \\      /  F ield         | OpenFOAM: The Open Source CFD Toolbox           |
|  \\    /   O peration     | Version:  2.1.1                                 |
|   \\  /    A nd           | Web:      www.OpenFOAM.org                      |
|    \\/     M anipulation  |                                                 |
\*---------------------------------------------------------------------------*/
FoamFile
{
    version     2.0;
    format      ascii;
    class       volScalarField;
    location    "0.006250000";
    object      O2;
}
// * * * * * * * * * * * * * * * * * * * * * * * * * * * * * * * * * * * * * //

dimensions      [0 0 0 0 0 0 0];

internalField   nonuniform List<scalar> 
12384
(
0.0115456
0.0129068
0.013329
0.0128882
0.0121337
0.0114
0.0107376
0.0103842
0.0101205
0.0101116
0.0102348
0.0105099
0.00934018
0.00644521
0.0365612
0.0285339
0.0270247
0.0270716
0.0273401
0.0281109
0.029391
0.0306365
0.0316595
0.0320543
0.0322018
0.0320459
0.0319704
0.0313733
0.0312088
0.0305302
0.0303959
0.02998
0.0299323
0.0301075
0.0303358
0.0306996
0.0311431
0.0314828
0.0317965
0.0322019
0.0313461
0.0319224
0.0416806
0.0441828
0.0151742
0.0162567
0.0123627
0.00983898
0.00872709
0.00719575
0.00651247
0.00527534
0.00451185
0.00406511
0.0036249
0.00332111
0.0030499
0.00292654
0.00291682
0.00296017
0.00284868
0.00302924
0.00289399
0.00311289
0.00318812
0.00337655
0.00356727
0.00390473
0.00442692
0.00580803
0.00763542
0.00971709
0.00829714
0.0060513
0.00204206
0.00208137
0.00195457
0.00183683
0.00188345
0.00186031
0.00200177
0.0020242
0.00215685
0.00214687
0.00221762
0.00226138
0.00230458
0.00231223
0.00230704
0.00237967
0.00235598
0.00234448
0.00229114
0.00243596
0.00227868
0.00241941
0.00232732
0.00241079
0.00249225
0.00274995
0.00272268
0.00214591
0.00195126
0.00190189
0.000251896
0.000351045
0.000516421
0.000637132
0.000706035
0.000745654
0.000724351
0.000469672
0.00042131
0.000828767
0.000424233
0.00052883
0.000485184
0.000507693
0.000188221
0.000507984
0.000396129
0.000281507
0.000214872
0.000422695
0.00201713
0.00263967
0.00219113
0.00162101
0.00142993
0.0013034
0.00128453
0.00142039
0.00165881
0.00183262
5.56506e-05
1.89447e-05
2.04286e-05
4.19398e-05
6.98191e-05
7.77772e-05
8.73287e-05
9.24631e-05
8.75089e-05
8.19983e-05
7.78452e-05
7.37649e-05
7.74152e-05
7.25797e-05
7.29565e-05
7.2915e-05
6.8414e-05
6.97297e-05
7.32136e-05
7.12119e-05
7.46261e-05
7.95642e-05
8.00434e-05
8.80971e-05
9.70417e-05
0.000100979
0.000100335
0.00011578
5.86795e-05
7.31136e-05
0.000530371
0.000928479
0.00129298
0.000751051
3.20182e-05
0.000194637
0.00019817
0.000185201
-7.63778e-05
5.02822e-05
0.000223192
0.000195166
0.000341104
0.000291729
0.000345149
0.000356851
0.000286239
0.000258741
0.000170663
0.000106393
-8.35305e-06
0.000175075
0.000185831
0.000279779
0.00890102
0.0155249
0.0159495
0.0163659
0.016629
0.016573
0.000991281
0.000215703
7.08394e-05
4.76552e-05
4.92104e-05
5.05225e-05
5.30957e-05
4.73955e-05
5.05525e-05
4.93461e-05
4.31694e-05
4.1909e-05
4.28868e-05
4.46308e-05
4.5705e-05
4.1472e-05
4.40207e-05
4.90939e-05
5.12645e-05
4.91324e-05
4.75841e-05
5.41423e-05
0.000101336
0.000156928
0.000167174
0.000149692
0.000139114
0.000132718
0.000138128
0.000147619
0.000225812
0.000117632
4.53943e-05
0.00011076
0.000124859
0.000128848
0.000127113
0.000160537
0.000150427
0.00016491
0.000174196
0.000159111
0.000168295
0.000168279
0.000161136
0.000167663
0.000166922
0.000171388
0.000118761
5.24057e-05
4.20922e-06
3.04443e-06
5.57641e-06
6.91614e-06
7.76902e-06
8.38311e-06
7.58933e-06
4.16044e-06
5.13565e-06
4.21816e-06
0.000325518
5.03151e-05
6.2138e-05
5.888e-05
6.46584e-05
6.2061e-05
7.45381e-05
7.71935e-05
7.88607e-05
-1.79961e-06
2.40463e-05
1.94969e-05
4.01499e-05
3.5365e-06
2.19753e-05
4.23897e-05
4.6102e-05
3.4347e-06
1.84079e-05
2.55212e-05
2.01712e-05
6.08549e-05
2.56878e-05
1.47454e-05
1.56392e-05
1.32412e-05
1.53995e-05
1.26604e-05
1.16905e-05
8.48985e-06
1.61521e-05
1.13181e-05
1.41054e-05
8.46659e-06
9.82923e-06
1.07829e-05
1.14648e-05
1.07473e-05
1.6853e-05
1.52856e-05
1.63654e-05
1.81956e-05
1.57091e-05
1.91194e-05
1.7781e-05
2.22053e-05
1.82644e-05
2.34743e-05
2.3585e-05
3.22421e-05
2.00456e-05
1.15367e-05
1.01565e-05
9.94507e-06
8.99511e-06
8.28088e-06
8.43747e-06
6.09392e-06
6.88514e-06
1.05647e-05
2.8213e-05
-8.83705e-06
-1.68983e-06
2.23782e-05
1.47594e-06
1.51553e-05
3.88122e-05
1.1244e-06
-7.54365e-06
3.95517e-05
3.72866e-05
3.56933e-05
3.17436e-05
2.98885e-05
3.13703e-05
2.98741e-05
3.15371e-05
3.30844e-05
3.32953e-05
3.09203e-05
3.00521e-05
2.65165e-05
2.48404e-05
2.63127e-05
2.59768e-05
2.58069e-05
2.5233e-05
2.36706e-05
1.15077e-05
1.14043e-05
2.80206e-05
2.53393e-05
4.66623e-05
0.00158073
0.0293414
0.0664722
0.0483543
1.01692e-06
1.6548e-07
1.5635e-07
4.16769e-08
2.10467e-07
2.56309e-07
2.93656e-07
3.32605e-07
1.03985e-07
3.82661e-07
5.35039e-07
7.17114e-07
8.33589e-07
5.23353e-07
6.13509e-07
9.52813e-07
3.56245e-07
2.22877e-07
1.56521e-07
1.37592e-07
1.46527e-07
1.42679e-07
7.93923e-06
0.022148
0.0204275
0.0162681
0.0130636
0.0112873
0.0100834
0.00892417
0.00807103
0.00759319
0.0076089
0.00800221
0.00886095
0.00898337
0.00687228
0.0360969
0.0278071
0.026057
0.0261139
0.0271716
0.029602
0.0326643
0.0339857
0.0336666
0.032567
0.0308125
0.0286998
0.0262201
0.0238921
0.0216635
0.0197246
0.0184907
0.0178247
0.0183886
0.0193669
0.0208992
0.0225733
0.0246085
0.0267678
0.029226
0.0311469
0.031668
0.0314745
0.0347192
0.0408263
0.0152424
0.0152193
0.0103269
0.00816782
0.00649221
0.00574461
0.00498878
0.00429633
0.00369885
0.00297297
0.00221112
0.00156991
0.00124072
0.00122858
0.00138788
0.00161609
0.00201301
0.00220125
0.00235322
0.0023271
0.00234171
0.00228543
0.00238065
0.00271928
0.003234
0.00406916
0.00594316
0.00852466
0.00959381
0.00743911
0.00205438
0.00204282
0.00185284
0.00186628
0.00199854
0.00204593
0.0022401
0.00228138
0.0022527
0.00227862
0.00231481
0.00236743
0.00244891
0.00255906
0.00274379
0.00285101
0.00294222
0.00297817
0.00307121
0.00310106
0.00308134
0.00304676
0.00284747
0.00267712
0.00250436
0.00266235
0.00283958
0.00251377
0.0016569
0.00156518
0.000236048
0.000477642
0.000692472
0.000820467
0.000972066
0.00155741
0.00203171
0.00219004
0.00244334
0.00263469
0.00260976
0.00265953
0.00253781
0.00242985
0.002107
0.00149365
0.000484821
0.000417309
0.000281488
0.000321953
0.000493984
0.00235972
0.00206559
0.000810841
0.000377113
0.000307081
0.000311282
0.00028574
0.000397629
0.000818343
5.16004e-05
1.93729e-05
3.62887e-05
7.55986e-05
9.23798e-05
9.60067e-05
7.92406e-05
7.33781e-05
6.72412e-05
6.54406e-05
6.61792e-05
6.74038e-05
6.84714e-05
6.7315e-05
6.76645e-05
6.18255e-05
6.20987e-05
6.61084e-05
6.65027e-05
6.62825e-05
6.63261e-05
7.09833e-05
7.87136e-05
7.91847e-05
8.98349e-05
9.25461e-05
0.00010614
0.000103814
0.000110135
9.11338e-05
0.000524505
0.00087498
1.70507e-05
0.000165532
0.00016932
-5.0572e-05
0.000356801
0.000668147
0.000641872
0.000811607
0.000740329
0.000958769
0.000933167
0.00112284
0.00117162
0.00124883
0.00122536
0.00120829
0.00106278
0.000875785
0.000626513
0.000304894
-0.000143083
-6.10554e-05
0.00160209
0.0131783
0.0193585
0.0192408
0.0172137
0.0179819
0.000102981
3.85359e-05
3.01817e-05
4.2769e-05
4.83116e-05
4.86851e-05
5.16679e-05
4.61676e-05
4.01271e-05
3.99418e-05
3.74171e-05
3.10021e-05
3.88593e-05
3.68389e-05
3.68838e-05
3.83173e-05
4.22344e-05
4.03419e-05
4.55836e-05
5.14901e-05
4.86981e-05
5.07374e-05
7.99041e-05
0.000147266
0.000141004
8.12916e-05
3.91523e-05
4.95984e-06
7.93861e-05
-1.53553e-05
0.000145682
3.1649e-05
0.000114465
0.000147089
0.000202346
0.000214036
0.000215954
0.000231166
0.000235024
0.000223014
0.000237617
0.000239985
0.000239104
0.00024208
0.000228838
0.000230216
0.000220701
0.000215568
0.00015767
4.91243e-05
1.87604e-05
4.42942e-06
1.02141e-05
3.93088e-06
6.78776e-06
2.0006e-05
2.02203e-05
5.65299e-06
1.9938e-05
1.32159e-05
0.000233529
4.64161e-05
5.5332e-05
6.43304e-05
7.34539e-05
-1.21622e-05
5.6895e-05
0.000158592
0.000206318
0.000231617
0.000250755
0.000232417
0.000234011
0.000233452
0.000215872
0.000186337
0.000183775
0.000130021
9.88702e-05
8.67501e-05
3.12582e-05
-1.12971e-05
4.54264e-05
2.10961e-05
1.8538e-05
2.11467e-05
1.85182e-05
2.64555e-05
2.46228e-05
1.72698e-05
1.6307e-05
1.01102e-05
6.48725e-06
9.10139e-06
1.06983e-05
1.29092e-05
2.13811e-05
2.21641e-05
2.38552e-05
2.73202e-05
2.74328e-05
2.74431e-05
2.92655e-05
2.96144e-05
3.06498e-05
2.85671e-05
3.19485e-05
3.14482e-05
2.99756e-05
3.26112e-05
3.41354e-05
7.08317e-06
9.50081e-06
4.63948e-06
3.54012e-06
1.00272e-06
3.28384e-06
5.06126e-06
5.05726e-06
3.43622e-06
7.38366e-06
1.36277e-05
1.81228e-05
3.35805e-06
1.04658e-05
3.16499e-05
3.93636e-05
3.64386e-05
2.40913e-05
1.89429e-05
3.62181e-06
7.16445e-07
-1.66568e-06
-2.19073e-06
6.18283e-06
6.54636e-06
1.39807e-05
1.63443e-05
2.31257e-05
2.80157e-05
2.55452e-05
2.20931e-05
1.70126e-05
1.49372e-05
1.37168e-05
1.61436e-05
1.71604e-05
2.17425e-05
1.29359e-05
1.07604e-05
1.08037e-06
8.72133e-07
1.10434e-06
3.87693e-06
0.00969002
0.0472084
8.92918e-06
2.86292e-07
1.77846e-07
9.29116e-08
2.01152e-07
2.85319e-07
3.51105e-07
4.03236e-07
4.44279e-07
4.48752e-07
1.83228e-07
4.9019e-07
6.42362e-07
4.59166e-07
1.95828e-06
3.09787e-06
4.56527e-06
7.49952e-07
7.1946e-07
2.40293e-07
1.59518e-07
1.56141e-07
2.00176e-07
1.39593e-05
0.0219574
0.0180165
0.0157178
0.0153304
0.0151183
0.0143582
0.0131021
0.0113342
0.00943756
0.00765451
0.0072532
0.00784181
0.00857225
0.00711441
0.0355027
0.0267129
0.0248518
0.0251436
0.0273658
0.0322583
0.034803
0.0343853
0.0318309
0.029076
0.0258888
0.0225548
0.0183431
0.0144415
0.0110208
0.00888408
0.00838723
0.00909221
0.0109072
0.0134048
0.015888
0.0180681
0.0204532
0.0227974
0.025593
0.0287213
0.0309543
0.0314582
0.0321106
0.0376036
0.0151179
0.0140035
0.00924437
0.00770901
0.00708899
0.00739587
0.00753271
0.00662067
0.00461094
0.00351689
0.0020517
0.000846939
0.000501097
0.000763211
0.00142979
0.00220062
0.00305049
0.00369758
0.00414112
0.00425922
0.00405922
0.0035757
0.00307406
0.00269812
0.00282346
0.00325644
0.00424648
0.00692509
0.00936068
0.00840302
0.00202743
0.00198979
0.00184662
0.00194186
0.0021365
0.00228293
0.00236292
0.0022418
0.00217371
0.00211747
0.00210866
0.00220378
0.00249281
0.00276423
0.00304137
0.00328307
0.00348446
0.0039
0.00404313
0.00426518
0.00424155
0.00373757
0.00347397
0.00308592
0.00275466
0.00257504
0.00273767
0.00276144
0.00202954
0.00160659
0.000322862
0.00061564
0.00077864
0.00116706
0.00200709
0.00260837
0.00302341
0.0031947
0.00343783
0.00340687
0.00350922
0.00351708
0.00345977
0.00343826
0.00328555
0.00289781
0.00193563
0.00053421
0.000396271
0.000251825
0.000357592
0.0011659
0.00203721
0.000599666
0.000191171
0.000374366
0.000453744
3.49254e-05
0.000367503
0.000400428
4.67453e-05
2.44963e-05
6.08885e-05
9.52553e-05
9.35817e-05
7.28439e-05
5.76785e-05
5.49972e-05
6.07495e-05
6.06484e-05
7.04126e-05
7.70967e-05
7.34978e-05
7.46249e-05
7.49057e-05
7.06914e-05
7.17068e-05
7.27977e-05
7.16825e-05
6.53095e-05
6.99071e-05
7.51643e-05
7.93511e-05
7.7607e-05
8.31132e-05
9.2961e-05
9.82777e-05
0.000100532
0.000102453
8.69841e-05
0.000650932
0.000166619
9.92786e-05
0.000194045
0.000639327
0.000866213
0.000212581
0.000182308
0.00017703
0.000160658
0.000176148
0.000185999
3.27785e-05
0.000191999
0.000356054
0.00056286
0.000798409
0.000994948
0.00112858
0.00122114
0.00110406
0.000864617
0.000444676
-1.72151e-05
0.0003914
0.00306054
0.0149891
0.0154941
0.0117678
0.0156066
2.2825e-05
2.45012e-05
4.70935e-05
5.17507e-05
4.45577e-05
4.61139e-05
3.7047e-05
2.87543e-05
2.40314e-05
2.4702e-05
2.46095e-05
2.56526e-05
2.60766e-05
2.23331e-05
2.50992e-05
2.91249e-05
2.98979e-05
3.02347e-05
3.61537e-05
4.54538e-05
4.33951e-05
4.82264e-05
5.69616e-05
4.06992e-05
0.00014772
0.000107973
4.71965e-05
7.22573e-05
6.11001e-05
6.26907e-05
1.46826e-06
0.000115118
0.00015814
0.000213969
0.000226458
0.000239669
0.000272395
0.000280353
0.000296082
2.16962e-05
0.000250212
0.00030926
0.00033191
0.000271502
1.52944e-05
0.000278084
0.000284717
0.000246194
0.000219497
0.000197626
6.71573e-05
9.81931e-06
1.00189e-05
9.75037e-06
2.12188e-05
1.70225e-05
1.7924e-05
1.22287e-05
2.18659e-05
1.33139e-05
0.000161102
6.81506e-05
6.62901e-05
7.39186e-05
1.16475e-05
0.000163442
0.000228583
0.000298965
0.000168398
0.000665434
0.000974763
0.00112921
0.0011552
0.00120492
0.00100387
0.000704205
0.000350155
0.000265645
0.000219076
0.000133274
9.53801e-05
7.0918e-05
2.06805e-06
3.9469e-05
1.99068e-05
2.05274e-05
2.77325e-05
3.05129e-05
3.26042e-05
2.41162e-05
1.64747e-05
1.33382e-05
8.77053e-06
1.03387e-05
2.09949e-05
2.43223e-05
2.71603e-05
3.42597e-05
4.21727e-06
1.76936e-05
4.48604e-05
8.86337e-05
9.39709e-05
9.39142e-05
6.84457e-05
5.10752e-05
1.31085e-05
4.14984e-05
3.7142e-05
3.48239e-05
3.59379e-05
2.92216e-05
1.47555e-05
4.89343e-06
5.51402e-06
1.25281e-06
5.46435e-06
9.27983e-06
9.67982e-06
5.07305e-06
3.92119e-06
6.73607e-06
3.88486e-07
5.01961e-06
2.52808e-05
3.74542e-05
3.59493e-05
2.25914e-05
-4.80683e-06
1.86496e-05
1.75429e-05
1.72594e-05
1.76927e-05
1.59973e-05
1.64313e-05
1.55227e-05
1.40325e-05
-3.34239e-07
1.81262e-05
1.99757e-05
2.37612e-05
1.80981e-05
1.1304e-05
3.99202e-06
4.10448e-06
1.17034e-05
1.47594e-05
1.71171e-05
1.37017e-05
9.75335e-06
2.76865e-06
1.6811e-06
3.04501e-06
8.84015e-06
0.014905
2.57085e-05
2.65351e-07
1.83347e-07
1.22017e-07
2.49045e-07
3.58893e-07
4.47425e-07
4.45525e-07
4.74476e-07
5.06618e-07
5.14339e-07
5.20416e-07
4.95075e-07
4.90437e-07
5.02228e-07
6.8312e-07
1.3781e-06
4.64301e-06
6.16981e-06
8.33215e-07
4.61352e-07
1.92409e-07
5.55951e-08
3.44095e-07
0.000177334
0.0213545
0.0201571
0.0226473
0.0231041
0.0211183
0.0185477
0.0169489
0.0155642
0.0136937
0.01063
0.00775481
0.00741198
0.00809182
0.00709548
0.0348825
0.0255598
0.0232983
0.0240649
0.0289174
0.0343586
0.0354053
0.0337987
0.0316635
0.0294793
0.0262472
0.0213926
0.015226
0.00937956
0.00604932
0.00501945
0.00576099
0.00774911
0.0110403
0.0147716
0.0176999
0.0201374
0.0215319
0.022498
0.024068
0.0265632
0.0297095
0.0312292
0.0313354
0.0356243
0.0148331
0.0132689
0.00904953
0.00815961
0.0087503
0.00987492
0.0100376
0.00884591
0.00647014
0.0037142
0.00158212
0.000671323
0.000687527
0.000786552
0.00211971
0.00341495
0.00445076
0.00622366
0.00756356
0.00817216
0.00821732
0.00730704
0.0055356
0.00375986
0.00310234
0.00315445
0.00371639
0.00555893
0.00873026
0.00874274
0.00201366
0.00196425
0.00183341
0.00213767
0.00227901
0.00240362
0.00228171
0.00207941
0.00195481
0.00191442
0.00188477
0.00215146
0.00254842
0.00300747
0.00342896
0.00429323
0.00520127
0.00572542
0.00621443
0.00602549
0.00581741
0.00544241
0.00453925
0.00360759
0.00312151
0.00276007
0.00274876
0.00283589
0.00240774
0.00181314
0.000641926
0.000725289
0.000911978
0.0019731
0.00285899
0.00343627
0.0037706
0.00389952
0.00389276
0.00388128
0.00380741
0.00379845
0.00373966
0.00374233
0.00379011
0.00364643
0.00297656
0.00173637
0.000524859
0.000299595
0.000279956
0.000437256
0.00185078
0.000846174
0.000209005
0.00071315
0.00115022
0.000555524
0.000328474
0.00029623
4.44351e-05
3.53398e-05
7.79656e-05
9.33153e-05
6.85361e-05
4.86539e-05
4.92266e-05
4.84775e-05
6.42196e-05
6.89459e-05
8.03891e-05
7.81146e-05
8.51494e-05
8.64146e-05
8.93869e-05
8.83845e-05
8.55232e-05
8.37823e-05
7.67689e-05
7.315e-05
8.25101e-05
7.37341e-05
8.49791e-05
8.05612e-05
8.36378e-05
8.90226e-05
9.3128e-05
0.000105055
0.000101613
8.66307e-05
0.000432871
0.000135825
0.000153079
0.000804553
0.000514047
0.000131545
5.73897e-05
5.63695e-05
0.000114363
0.000130468
0.000152931
0.000160611
0.000170383
0.000156002
0.000159107
0.000167586
0.000188741
0.000212217
0.000579935
0.000907233
0.00108897
0.00111397
0.00081667
0.000363086
0.000110328
0.00116726
0.00642133
0.00967845
0.00647553
0.0127828
2.35645e-05
3.6778e-05
5.13088e-05
4.27314e-05
4.41585e-05
3.44316e-05
2.94418e-05
1.99691e-05
1.51537e-05
1.98724e-05
1.70929e-05
1.11831e-05
1.73406e-05
1.7013e-05
1.42868e-05
1.79894e-05
2.16467e-05
1.75143e-05
2.89249e-05
3.68906e-05
3.89223e-05
4.54311e-05
4.9045e-05
7.31036e-05
8.3337e-05
0.000156927
0.000113764
7.44052e-05
5.01129e-05
5.45958e-05
0.000134182
0.000163038
0.000211522
0.000224146
0.000249881
0.000292043
0.000255888
0.00073213
0.00111811
0.0013432
0.00150214
0.00150515
0.00150106
0.00119647
0.000892003
0.000566882
0.000296398
0.000305067
0.000269865
0.000232626
0.000112584
3.2344e-05
1.14575e-05
1.86202e-05
9.66474e-06
1.70703e-05
1.72663e-05
2.46479e-05
2.51698e-05
2.50544e-05
-5.58357e-05
7.47619e-05
6.74651e-05
2.6431e-06
0.000165039
0.0002512
-6.59253e-05
0.000702052
0.00115137
0.00164651
0.00200049
0.00217361
0.0022661
0.00229093
0.00214167
0.00196645
0.00157272
0.000999512
0.000250257
0.000240027
0.000172505
9.34661e-05
5.33942e-05
5.6843e-05
2.95791e-05
1.84502e-05
1.99205e-05
2.73406e-05
3.17096e-05
1.6913e-05
1.77248e-05
7.2549e-06
9.77826e-06
2.04627e-05
2.47353e-05
2.97049e-05
3.88653e-05
5.53375e-05
0.000104174
0.000162826
0.00012797
0.000403372
0.000554862
0.000429571
2.06206e-06
0.000169684
0.00013757
7.19975e-05
5.7235e-06
3.88645e-05
3.81509e-05
3.70476e-05
2.44428e-06
9.61416e-06
-8.09724e-07
6.03841e-06
5.17155e-06
1.13564e-05
1.20524e-05
8.70919e-06
1.02188e-05
1.06345e-05
1.18579e-05
1.49945e-05
3.30412e-05
3.753e-05
1.63652e-05
-6.48517e-08
2.00798e-05
2.07022e-05
2.41093e-05
2.56055e-05
2.48807e-05
2.26647e-05
1.8472e-05
1.66465e-05
1.4757e-05
1.38896e-05
5.83718e-06
1.63698e-05
2.2339e-05
1.60682e-05
3.60591e-06
1.33917e-05
1.54673e-05
1.63193e-05
1.66521e-05
1.7349e-05
1.3778e-05
8.63441e-06
5.09189e-06
1.26867e-06
1.81288e-05
0.000410539
-0.000101601
5.00277e-07
5.76555e-08
1.33809e-07
2.62795e-07
4.15692e-07
5.04999e-07
3.7874e-07
6.9916e-07
9.64354e-07
1.08688e-06
1.00724e-06
7.89629e-07
5.76749e-07
3.39176e-07
5.25178e-07
4.42728e-07
2.84499e-07
1.37637e-06
6.20705e-06
9.08531e-06
2.45545e-06
8.61075e-07
7.11146e-07
1.00107e-06
0.00800704
0.0239623
0.0278809
0.0289201
0.0245076
0.0187479
0.0161523
0.0157093
0.0159631
0.015461
0.0136238
0.00981188
0.00759483
0.00777422
0.00713544
0.0342001
0.0242738
0.0215377
0.023383
0.0303105
0.0353379
0.0363091
0.0356579
0.0351788
0.0338305
0.0303816
0.0236334
0.0151223
0.00764549
0.00422112
0.00427711
0.00688139
0.0113575
0.0164634
0.0202814
0.0223182
0.0231936
0.023325
0.0230669
0.0234093
0.0252946
0.0285129
0.030871
0.0311206
0.0346744
0.0145326
0.0128782
0.00918776
0.00905177
0.0101276
0.0116273
0.0113576
0.00877269
0.00620322
0.00337503
0.000854222
0.000615962
0.000435332
0.00191253
0.00349865
0.00488561
0.0070243
0.00853063
0.00925051
0.0097101
0.00974769
0.00957626
0.00857969
0.00641571
0.00394756
0.00336657
0.00357349
0.00474494
0.00819701
0.00887276
0.00204838
0.00197799
0.00195799
0.00228206
0.00237978
0.00230579
0.00192083
0.00172994
0.00175206
0.00183813
0.00179489
0.00203411
0.00258084
0.00321297
0.00414871
0.00555552
0.0066438
0.00733641
0.00754448
0.00747798
0.00719756
0.0065143
0.00572814
0.00433804
0.00348041
0.00294405
0.00273641
0.00283176
0.00265625
0.00200999
0.000603826
0.000751651
0.00134774
0.00243234
0.00330365
0.00373693
0.00397717
0.00398486
0.00394117
0.00386967
0.00374783
0.00374353
0.00371096
0.00373789
0.00383847
0.00393421
0.00355328
0.00244629
0.000702177
0.000378988
0.00027079
0.000331911
0.00121608
0.00139311
0.000316157
0.000788527
0.00170077
0.00134378
0.000333321
0.000220305
4.21425e-05
4.66873e-05
8.62869e-05
7.70548e-05
4.62865e-05
3.92389e-05
5.07854e-05
5.86844e-05
6.5877e-05
8.06414e-05
8.16485e-05
9.07633e-05
8.47775e-05
8.93673e-05
9.61788e-05
9.35833e-05
9.4164e-05
9.2542e-05
8.98328e-05
9.25679e-05
7.71924e-05
8.72118e-05
9.14986e-05
8.22419e-05
8.79697e-05
8.90344e-05
9.07796e-05
0.000101951
0.000101374
8.78303e-05
0.00023884
0.000104942
0.000533058
0.000323886
4.08074e-05
4.3584e-05
5.37219e-05
8.94381e-05
0.000166094
0.000189453
0.000179939
0.00017083
0.000154473
0.000150924
0.00013425
0.000138879
0.000140833
0.000160865
0.000187635
0.000183451
0.000735223
0.00103243
0.000982078
0.00064546
0.000197614
0.000563128
0.00202101
0.00430966
0.00344826
0.00962379
2.83499e-06
4.399e-05
4.32874e-05
4.65659e-05
3.8225e-05
2.96646e-05
2.64011e-05
1.71302e-05
1.08525e-05
1.46264e-05
8.94499e-06
2.00049e-05
1.87387e-05
1.8813e-05
1.93636e-05
1.96934e-05
1.99277e-05
1.0487e-05
1.86821e-05
3.30165e-05
4.18238e-05
4.31868e-05
4.6648e-05
5.67971e-05
8.23678e-05
8.26234e-05
6.85862e-05
7.37299e-05
4.95693e-05
5.25294e-05
0.000155987
0.000170846
0.000218488
0.000251718
0.00030485
0.000488432
0.0012702
0.00202149
0.00256274
0.00291795
0.00301236
0.00309976
0.00281124
0.00249458
0.00202818
0.00144494
0.000915699
0.000508164
0.000307726
0.000277964
0.000201046
7.66263e-05
2.03107e-05
1.64924e-05
1.89735e-05
1.57457e-05
1.79474e-05
5.51354e-06
3.767e-05
2.6387e-05
0.000267754
8.1558e-05
8.25619e-05
0.000136327
0.000231207
0.000309965
0.00034412
0.00116099
0.0017843
0.00234064
0.00267452
0.00347495
0.00399053
0.00405984
0.00368126
0.00290012
0.00245369
0.00198587
0.00126027
0.0004626
0.000226819
0.000157613
0.000116841
5.00752e-05
4.18197e-05
2.2394e-05
1.98954e-05
2.68697e-05
2.04579e-05
1.76129e-05
1.2904e-05
9.47279e-06
1.25418e-05
2.363e-05
2.8847e-05
3.72805e-05
7.74706e-05
0.000154715
0.000523998
0.00141333
0.00208162
0.00276776
0.00323954
0.00304941
0.0021037
0.00155192
0.000536037
0.000184899
0.000102953
4.88127e-06
4.61244e-05
4.0234e-05
1.98351e-05
1.43082e-05
2.49383e-06
5.97679e-06
5.08537e-06
1.20043e-05
1.20093e-05
1.03547e-05
1.02162e-05
1.06302e-05
4.14439e-06
2.56215e-05
3.7577e-05
3.08234e-05
3.78037e-06
2.09448e-05
2.40971e-05
2.85407e-05
1.60261e-05
2.04237e-05
8.00457e-06
1.27715e-05
9.15314e-06
2.00867e-05
1.57943e-05
1.33005e-05
1.27814e-05
1.30065e-05
1.9273e-05
1.77836e-05
1.60567e-05
2.93098e-05
-8.68428e-06
3.00615e-05
2.30237e-05
2.00045e-05
1.37729e-05
8.06626e-06
9.53897e-06
3.91792e-06
4.44051e-05
0.00012211
2.64151e-06
2.85359e-07
2.0657e-07
2.46662e-07
4.33832e-07
2.21446e-07
8.88058e-07
1.42289e-06
1.25218e-06
2.08436e-06
2.22693e-06
1.22132e-06
1.61627e-06
1.33551e-06
9.14406e-07
5.78778e-07
5.63543e-07
4.42811e-07
4.96247e-07
2.09574e-06
1.38642e-05
2.21471e-06
3.73328e-06
3.57879e-06
2.29655e-05
0.0297825
0.0288498
0.0340188
0.029515
0.0189311
0.0136544
0.0128804
0.0143762
0.0162128
0.0168925
0.015681
0.0117722
0.00802272
0.00768733
0.00702312
0.0336427
0.022952
0.0196037
0.0220686
0.0302464
0.0359489
0.0378601
0.03868
0.0392694
0.0385977
0.0354253
0.0282111
0.0170288
0.00731064
0.00412168
0.00560661
0.0114502
0.0180994
0.0227434
0.0239915
0.0237177
0.0228828
0.0221934
0.0219106
0.022503
0.0243084
0.0276837
0.0306054
0.0311169
0.0342779
0.0142285
0.0127838
0.00946601
0.00979054
0.0112137
0.0118141
0.00929189
0.00579471
0.00427109
0.00272819
0.000345477
0.0006351
0.00118226
0.00322408
0.00498465
0.00763336
0.00893423
0.0096356
0.00970139
0.00978099
0.00977829
0.00979976
0.00963763
0.00851301
0.00590348
0.0038856
0.00372819
0.00465036
0.00795283
0.00887705
0.00197484
0.00203062
0.0020462
0.00237448
0.00234902
0.00186106
0.00117705
0.000973017
0.00130063
0.00165742
0.00160798
0.00183362
0.00254851
0.00322148
0.00453898
0.00619693
0.00742395
0.00817427
0.008547
0.00844912
0.00805801
0.00743653
0.00656224
0.00517892
0.00371497
0.0031347
0.00274093
0.00280453
0.00278926
0.00210943
0.000610486
0.000738107
0.00138919
0.00260785
0.00342201
0.00376447
0.00398123
0.0039078
0.00396763
0.003907
0.00380303
0.00377089
0.00371393
0.00370438
0.00382258
0.00395497
0.00378265
0.00288891
0.00123894
0.000445135
0.000278733
0.000281064
0.000501452
0.00163154
0.00079793
0.00100156
0.00204757
0.00176365
0.00035248
0.000168004
4.18374e-05
5.59112e-05
8.60627e-05
5.57882e-05
3.50071e-05
3.81542e-05
5.19087e-05
6.23689e-05
7.18175e-05
8.5496e-05
8.67513e-05
9.55253e-05
9.17777e-05
9.84166e-05
8.93883e-05
8.91421e-05
9.54939e-05
9.38833e-05
9.5027e-05
9.34504e-05
8.39086e-05
8.34893e-05
9.44468e-05
9.47617e-05
8.50326e-05
9.22359e-05
9.68833e-05
0.000101589
0.000100522
8.65208e-05
0.000200759
0.000166287
0.00039076
3.04083e-05
3.47243e-05
4.06451e-05
6.55125e-05
0.000165804
0.000206276
0.000212955
0.000181445
0.00015487
0.000114186
0.0001162
9.43672e-05
9.76758e-05
9.96104e-05
0.000116897
0.000153511
0.000192724
0.000227648
0.000663067
0.000852275
0.000726423
0.000311853
0.000371891
0.00117545
0.00196975
0.00214609
0.00628323
3.28274e-05
4.39501e-05
5.15334e-05
4.3235e-05
3.50662e-05
2.83664e-05
2.48373e-05
2.52619e-05
1.80631e-05
2.05148e-05
1.7776e-05
1.70856e-05
1.5926e-05
1.62859e-05
1.63748e-05
1.73231e-05
1.93039e-05
2.03609e-05
1.36549e-05
2.57408e-05
2.82621e-05
4.01225e-05
4.77978e-05
5.04081e-05
6.7384e-05
8.62421e-05
8.10132e-05
6.20511e-05
6.1352e-05
5.19391e-05
0.000157801
0.000210556
0.000237404
0.000294358
0.000422542
0.00143444
0.00242022
0.00336765
0.00562504
0.00666421
0.00741241
0.00720738
0.00664792
0.00526469
0.00296164
0.00233011
0.00151542
0.000935309
0.000196838
0.00030491
0.000273229
0.000110809
3.70828e-05
2.06601e-05
1.66899e-05
1.46869e-05
2.03524e-05
2.87219e-05
5.5e-05
4.41141e-05
0.000131871
7.95147e-05
2.44805e-05
0.000187591
0.000256699
-9.04162e-05
0.00072577
0.00152277
0.00226486
0.00313183
0.00420626
0.00473489
0.00493846
0.00492811
0.00476469
0.00438152
0.00356854
0.00255944
0.00195525
0.00112369
0.000186464
0.000196966
0.000135966
8.06508e-05
5.21336e-05
3.01448e-05
2.46969e-05
2.80699e-05
1.48492e-05
1.09946e-05
1.02712e-05
1.21004e-05
1.52925e-05
2.69453e-05
3.49504e-05
2.92914e-05
0.000152764
0.000728273
0.00193182
0.00498984
0.00818805
0.0106681
0.0119831
0.0113695
0.00900594
0.00581978
0.0022024
0.000892528
0.000199541
7.80974e-05
5.26476e-05
4.21668e-05
2.99735e-05
2.52341e-06
8.20578e-06
1.92039e-06
8.21606e-06
1.45205e-05
1.39228e-05
1.24613e-05
1.03356e-05
1.12734e-05
1.37334e-05
3.24479e-05
3.89766e-05
2.13896e-05
2.06537e-05
2.36997e-05
2.97288e-05
1.16915e-05
3.58508e-05
3.29464e-05
2.96888e-05
2.67292e-05
1.30152e-05
1.40942e-05
1.74404e-05
1.35422e-05
1.19803e-05
8.746e-06
1.9612e-05
1.9382e-05
2.89443e-05
9.93253e-05
0.000152623
5.30035e-05
3.12207e-05
2.22066e-05
1.24958e-05
1.18969e-05
3.627e-06
2.06117e-06
1.74703e-05
2.59493e-06
5.60588e-07
1.4556e-07
1.88873e-07
3.89431e-07
5.94377e-07
9.63154e-07
1.69114e-06
2.93403e-06
4.46994e-06
4.22536e-06
4.77528e-06
5.09028e-06
3.06058e-06
9.82307e-07
1.27016e-06
9.72665e-07
4.51338e-07
5.4831e-07
3.73601e-07
1.0876e-07
1.09415e-05
8.62357e-06
9.59401e-06
2.18346e-05
0.00103947
0.0492608
0.0335866
0.0365784
0.0247575
0.0132331
0.010836
0.0114634
0.0130661
0.0161167
0.0177491
0.0171641
0.0134711
0.00857028
0.00768704
0.00698156
0.0333373
0.0218394
0.0174982
0.0198916
0.0283586
0.0355162
0.038759
0.0403451
0.0412564
0.0412081
0.0395792
0.0331904
0.0204652
0.0076815
0.00428626
0.00841034
0.0175098
0.0236726
0.0250874
0.0241216
0.0226446
0.0209558
0.0201371
0.0202408
0.0214196
0.0235945
0.0272496
0.0306409
0.0311633
0.0341783
0.0140164
0.0129655
0.00967756
0.0101094
0.0111852
0.00979043
0.00465456
0.00319436
0.00318955
0.00226086
0.000102864
0.000188866
0.00204047
0.0042422
0.00713085
0.00908577
0.00951273
0.00954519
0.00918907
0.00913974
0.00918853
0.00946512
0.00960997
0.00928339
0.00745899
0.00495609
0.00406798
0.00501645
0.00814962
0.00879046
0.00208837
0.00204179
0.00215698
0.00237556
0.00210514
0.00112127
0.000191856
8.76106e-05
0.000699954
0.0013953
0.00146557
0.00165553
0.0022682
0.00303708
0.00442318
0.00629759
0.00754182
0.00840282
0.00875134
0.00873398
0.00846195
0.00785593
0.00703027
0.00568882
0.00387988
0.00320076
0.00270966
0.00277811
0.00282568
0.0021003
0.000574505
0.000686717
0.00132923
0.00258621
0.00341822
0.00372845
0.00395545
0.00397133
0.00410624
0.00397045
0.00383469
0.00377384
0.00368459
0.00375347
0.00384273
0.00397937
0.00380812
0.00299111
0.0013648
0.000458992
0.000279867
0.000264923
0.000443606
0.0014889
0.00136037
0.00156739
0.00228595
0.00187844
0.000350991
0.000121837
4.05979e-05
7.11944e-05
7.88619e-05
4.7765e-05
2.84088e-05
3.61725e-05
4.08589e-05
6.08609e-05
7.90047e-05
8.41568e-05
8.54203e-05
9.57665e-05
9.44242e-05
9.81032e-05
9.14334e-05
9.31071e-05
8.85609e-05
8.52261e-05
8.80677e-05
7.76621e-05
8.40412e-05
9.55407e-05
9.40778e-05
9.30677e-05
9.0564e-05
8.77983e-05
9.09743e-05
0.000101471
0.000100571
8.13664e-05
0.000189053
0.000204661
0.000128385
3.20726e-05
1.91784e-05
4.62594e-05
0.000119157
0.000203982
0.000213344
0.000198539
0.000151167
0.000112282
6.22633e-05
6.96905e-05
4.58049e-05
5.25274e-05
5.06271e-05
6.82909e-05
0.000118267
0.000159519
0.000216463
0.000451431
0.000830883
0.000795513
0.000473528
0.000203536
0.000721871
0.00130087
0.00177151
0.00247439
4.27279e-05
4.35536e-05
4.95123e-05
4.11469e-05
3.32804e-05
2.81665e-05
2.28591e-05
2.06733e-05
2.2718e-05
1.69016e-05
1.42543e-05
1.22026e-05
1.23355e-05
1.21638e-05
1.35626e-05
1.50564e-05
1.6704e-05
1.95565e-05
2.21712e-05
8.77222e-06
2.41963e-05
3.98183e-05
4.76415e-05
4.86148e-05
5.70166e-05
7.06018e-05
6.64248e-05
7.23464e-05
7.79867e-05
7.34244e-05
0.000160399
0.00021951
0.000259039
0.000336972
0.00106986
0.0021598
0.00317169
0.00606427
0.00779045
0.00917942
0.00971063
0.00993905
0.00896186
0.00761192
0.00547989
0.00301173
0.00209577
0.00140147
0.000563245
0.000331803
0.000295048
0.000192778
7.87169e-05
2.56535e-05
2.18764e-05
1.90214e-05
1.50106e-05
4.80687e-05
6.98501e-05
4.96162e-05
1.13715e-05
7.54309e-05
6.15115e-05
0.000203626
0.000258212
-4.85698e-05
0.000861666
0.00178998
0.00256705
0.00406107
0.00464442
0.00493505
0.00504399
0.00500338
0.00501903
0.00490815
0.00452293
0.00340517
0.00239049
0.00163514
0.000635811
0.000240209
0.000157274
0.000101581
7.26684e-06
4.18082e-05
3.77862e-05
2.54758e-05
1.1839e-05
1.89627e-05
3.88451e-06
1.48244e-05
1.74255e-05
2.59973e-05
4.10864e-05
8.68255e-05
0.000107288
0.00173999
0.00476738
0.0105176
0.0144018
0.0173883
0.0188055
0.0188502
0.0161748
0.0125183
0.00581023
0.00204558
0.000261195
0.000146928
1.25344e-05
4.69271e-05
4.30956e-05
1.79824e-05
1.23742e-05
4.44309e-06
1.15697e-05
1.43702e-05
1.31499e-05
1.21058e-05