/*--------------------------------*- C++ -*----------------------------------*\
| =========                 |                                                 |
| \\      /  F ield         | OpenFOAM: The Open Source CFD Toolbox           |
|  \\    /   O peration     | Version:  2.1.1                                 |
|   \\  /    A nd           | Web:      www.OpenFOAM.org                      |
|    \\/     M anipulation  |                                                 |
\*---------------------------------------------------------------------------*/
FoamFile
{
    version     2.0;
    format      ascii;
    class       volScalarField;
    location    "0.006250000";
    object      T;
}
// * * * * * * * * * * * * * * * * * * * * * * * * * * * * * * * * * * * * * //

dimensions      [0 0 0 1 0 0 0];

internalField   nonuniform List<scalar> 
12384
(
3048.47
3041.72
3039.42
3043.41
3047.45
3054.86
3057.11
3062.81
3064.51
3066.35
3068.55
3067.07
3076.31
3065.1
2796.75
2834.09
2847.54
2858.74
2870.6
2876.43
2874.2
2867.19
2862.9
2859.55
2861.13
2860.9
2863.04
2866.12
2867.88
2871.35
2872.34
2875.66
2875.54
2877.71
2877.28
2878.92
2877.32
2878.74
2876.44
2872.59
2872.43
2838.54
2690.93
2664.99
2916.69
2934.12
2966.83
2985.83
2980.35
2985.59
2976.31
2979.4
2974.84
2971.53
2967.28
2965.05
2963.3
2961.69
2959.11
2957.29
2955.28
2949.95
2952.68
2945.45
2949.5
2947.47
2951.15
2956.57
2965.9
2971.39
2981.33
2978.26
2969.9
2977.42
2902.37
2886.82
2884.79
2877.85
2880.54
2871.41
2876.7
2873.24
2876.81
2880.04
2882.7
2884.6
2885.75
2886.01
2885.66
2884.05
2883.66
2883.48
2890.46
2886.42
2899.79
2901.34
2912.7
2918.23
2927.63
2931.94
2920.64
2920.84
2923.34
2924.5
2900.93
2896.16
2901.21
2901.6
2899.97
2892.03
2885.33
2877.2
2866.81
2860.92
2842.9
2850.31
2843.82
2848.42
2855.05
2852.22
2853.22
2851.24
2850.5
2846.19
2843.09
2838.88
2842.9
2843.5
2844.67
2844.33
2844.61
2843.38
2841.54
2840.2
2785.78
2769.64
2763.13
2765.28
2773.98
2777.71
2777.07
2773.98
2771.67
2769.15
2767.47
2765.42
2762.54
2758.83
2758.81
2753.57
2753.86
2750.04
2752.48
2750.62
2757.51
2761.47
2767.42
2773.24
2779.01
2786.57
2795.34
2808.43
2821.57
2814.67
2744.7
2746.84
2755.61
2762.84
2772.41
2765.56
2769.46
2760.6
2769.25
2754.66
2759.26
2744.01
2749.73
2738.16
2744.07
2742.82
2738.69
2748.66
2744.85
2756.14
2755.6
2756.81
2759.79
2761.22
2684.83
2628.37
2623.94
2623.06
2622.83
2622.6
2751.53
2742.51
2735.94
2743.36
2758.84
2768.84
2776.19
2774.72
2778.3
2771.61
2773.66
2765.37
2767.12
2761.5
2762.04
2764.4
2765
2768.02
2768.15
2772.32
2765.85
2749.26
2771.4
2784.15
2787.74
2789.7
2791.93
2793.5
2794.96
2796.11
2877.19
2866.43
2864.6
2864.84
2866.22
2866.16
2865.59
2862.57
2859.56
2854.97
2856.37
2852.35
2854.83
2854.19
2862.06
2862.8
2873.06
2874
2877.34
2827.07
2683.95
2668.38
2700.67
2721.92
2736.57
2738.96
2736.89
2725.92
2702.24
2682
2897.45
2865.05
2863.13
2869.87
2876.06
2881.63
2884.08
2885.18
2885.44
2880.22
2883.47
2868.77
2873.16
2865.07
2868.36
2873.07
2874.8
2878.1
2881.89
2883.93
2883.29
2855.1
2801.92
2789.76
2792.93
2790.24
2793.3
2791.37
2793.01
2790.85
2812.09
2820.24
2825.9
2829.97
2832.14
2833.44
2834.48
2832.83
2831.73
2827.1
2829.48
2821.73
2828.1
2821.82
2841.41
2837.18
2851.21
2868.35
2868.8
2875.8
2864.67
2824.89
2820.37
2819.91
2815.57
2811.74
2811.54
2814.5
2817.99
2822.06
2830.11
2835.24
2839.54
2841.96
2844.27
2863.69
2892.79
2895.96
2894.02
2888.72
2885.34
2882.51
2875.52
2873.81
2875.09
2872.85
2875.48
2872.01
2872.97
2868.55
2867.35
2860.89
2858.37
2853.92
2853.37
2849.27
2850.27
2847.03
2834.57
2837.53
2852.64
2849.19
2868.45
2906.16
2731.53
2453.55
2591.73
2735.36
2598.71
2595.72
2607.94
2619.78
2630.13
2639.14
2647.46
2659.99
2665.63
2677.24
2693.11
2704.42
2719.45
2721.77
2710.13
2674.27
2633.46
2603.73
2595.45
2597.93
2617.75
2832.73
2983.04
2994.18
3018.48
3039.18
3046.1
3052.16
3057.2
3066.5
3069.86
3075.96
3078.1
3077.86
3079.13
3068
2800.27
2841.23
2866.76
2888.62
2898.16
2887.04
2866.06
2854.37
2855.44
2860.32
2869.68
2879.75
2892.2
2902.04
2910.96
2918.97
2924.17
2928.6
2926.63
2924.29
2922.37
2919.35
2916.26
2910.92
2898.98
2884.78
2877.03
2862.42
2794.54
2717.76
2918.83
2943.98
2980.48
2986.71
2978.65
2976.77
2969.74
2970.15
2960.12
2956.51
2952.46
2951.8
2951.85
2952.92
2954.07
2953.2
2952.59
2949.24
2947.53
2940.89
2938.75
2932.23
2931.01
2934.32
2943.02
2959.4
2972.45
2979.37
2975.04
2974.45
2902.98
2886.25
2878.74
2869.19
2864.22
2859.58
2862.86
2862.92
2868.34
2873.1
2878.53
2883.4
2887.41
2890.22
2890.74
2891.09
2890.87
2891.29
2892.08
2893.98
2898.54
2900.91
2907.19
2911.35
2919.38
2927.14
2927.95
2923.65
2924.76
2927.53
2892.08
2900.93
2904.32
2904.09
2897.59
2886.39
2871.87
2866.4
2846.49
2849.54
2832.98
2836.08
2833.6
2836.61
2839.86
2845.25
2852.94
2849.23
2847.51
2846.55
2849.9
2840.29
2842.01
2850.47
2853.91
2854.14
2852.69
2850.55
2846.98
2843.11
2783.76
2768.95
2766.43
2775.81
2779.7
2771.03
2763.55
2760.28
2760.99
2762.66
2763.75
2763.7
2763.18
2761.1
2760.4
2755.11
2755.16
2751.91
2751.77
2750.28
2754.91
2757.27
2762.97
2768.18
2775.27
2781.65
2790.89
2798.65
2805.67
2797.52
2746.47
2753.95
2775.95
2768.82
2773.61
2775.84
2775.07
2763.94
2764.33
2752.21
2753.09
2743.66
2744.05
2738.11
2740.85
2736.78
2740.61
2742.92
2746.27
2753.45
2753
2760.74
2764.27
2765.31
2754.16
2651.91
2604.79
2609.57
2626.17
2618.4
2743.82
2727.78
2757.03
2782.73
2792.76
2795.83
2790.84
2788.01
2784.21
2775.96
2774.72
2768.86
2767.7
2765.59
2765.71
2767.31
2770.36
2774.51
2775.57
2775.82
2774.89
2760.92
2758.46
2783.96
2793.11
2790.07
2784.51
2781.5
2787.43
2801.47
2870.87
2861.74
2863.72
2868.25
2870.33
2871.88
2871.42
2868.17
2868.98
2865.27
2863.85
2864.29
2863.49
2864.71
2867
2867.52
2873.49
2873.18
2880.98
2868.31
2777.12
2686.51
2743.56
2778.84
2781.01
2774.98
2778.27
2787.06
2784.39
2759.26
2899.94
2864.3
2866.04
2876.04
2882.89
2892.13
2896.32
2897.96
2895.56
2897.81
2894.01
2888.66
2888.54
2883.65
2879.76
2879.72
2882.77
2883.19
2880.2
2880.76
2882.93
2875.87
2836.25
2795.84
2790.88
2789.52
2794.21
2795.52
2801.72
2799.68
2810.42
2817.29
2826.9
2831.52
2833.55
2835.77
2836.79
2837.09
2838.91
2835.9
2835.95
2835.75
2838.32
2840.24
2842.46
2844.59
2859.01
2858.81
2865.24
2876.39
2878.66
2851.98
2816.87
2797.13
2789.85
2792.1
2797.86
2803.9
2805.93
2804.03
2831.76
2835.85
2840.68
2842.45
2857.44
2884.35
2893.86
2889.96
2883.16
2877.88
2873.41
2871.16
2868.81
2868.29
2863.16
2862.78
2859.18
2861.57
2861.1
2861.81
2858.03
2852.65
2843.8
2840.87
2839.2
2843.54
2845.27
2845.64
2837.28
2836.06
2733.61
2731.39
2734.89
2782.74
2862.92
2596.04
2816.88
2634.36
2602.37
2613.31
2629.84
2642.59
2652.28
2659.42
2665.34
2667.33
2676.27
2680.35
2693.61
2715.07
2752.64
2791.58
2808.06
2778.69
2698.26
2633.25
2601.97
2600.83
2626.75
2868.05
2981.95
3006.77
3018.22
3016.75
3009.72
3012.62
3016.18
3028.35
3042.42
3061.26
3072.6
3079.73
3080.55
3072.87
2805.71
2854.61
2890.39
2914.3
2907.31
2869.91
2847
2847.52
2861.68
2874.84
2889.62
2902.62
2918.97
2935.54
2949.36
2958.14
2960.52
2959.06
2951.52
2946.01
2940.2
2938.77
2934.98
2932.3
2925.28
2906.96
2887.86
2874.44
2841.92
2763.37
2921.96
2954.22
2985.82
2987.75
2980.64
2983.03
2975.21
2975.99
2972.26
2966.86
2959.24
2956.46
2958.07
2961.89
2966.13
2973.42
2978.81
2977.41
2981
2978.41
2969.81
2959.04
2947.05
2935.72
2935.72
2942.49
2962.06
2974.74
2977.52
2975.54
2902.41
2884.24
2873.38
2863.28
2860.13
2857.32
2860.48
2863.35
2867.26
2872.18
2878.89
2886.37
2891.59
2895.17
2896.31
2896.08
2895.26
2891.18
2891.87
2890.32
2896.08
2901.94
2906.84
2908.98
2912.75
2919.91
2926.74
2926.66
2925.77
2928.69
2895.96
2904.15
2904.22
2895.8
2884.72
2872.15
2862.29
2853.72
2844.76
2839.07
2830.78
2830.67
2826.56
2830.43
2832.08
2836.21
2842.36
2850.39
2843.87
2842.61
2842.06
2843.68
2841.66
2852.77
2856.4
2855.78
2852.78
2851.64
2840.86
2838.57
2781.29
2768.57
2773.07
2777.23
2767.96
2756.03
2755.39
2760.76
2765.68
2769.61
2772.55
2774.46
2777.4
2777.39
2777.35
2775.4
2775.34
2769.03
2767.96
2762.82
2764.93
2761.84
2764.15
2768.06
2771.31
2777.32
2785.25
2794.14
2799.67
2795
2749.58
2770.67
2767.1
2775.18
2778
2770.37
2767.62
2753.97
2753
2745.92
2751.24
2743.34
2750.24
2742.94
2744.18
2742.53
2742.01
2746.99
2745.77
2754.07
2754.74
2758.38
2762.04
2766.56
2762.24
2740.97
2642.62
2639.97
2672.98
2640.53
2720.55
2754.56
2788.43
2797.84
2794.42
2787.9
2782.57
2777.95
2776.61
2768.12
2769.79
2760.72
2761.59
2757.29
2759.34
2763.24
2762.97
2772.25
2775.63
2779.69
2779.54
2771.66
2755.62
2770.88
2787.94
2787.77
2774.73
2762
2763.49
2786.66
2857.28
2862.18
2868.83
2871.73
2873.97
2876.18
2877.62
2878.34
2881.08
2882.77
2879.55
2877.06
2878.61
2877.07
2882.05
2876
2879.73
2876.94
2880.77
2879.49
2846.2
2745.59
2742.74
2782.46
2776.68
2761.64
2765.85
2792.6
2809.11
2799.6
2903.55
2862.37
2877.36
2882.91
2892.36
2898.42
2902.99
2906.79
2913.21
2906.91
2901.81
2900.19
2896.14
2891.96
2895.7
2891.86
2892.14
2893.76
2888.97
2882.77
2879.91
2878.2
2864.91
2820.1
2790.95
2782.4
2784.46
2790.61
2804.71
2806.93
2809.62
2821.07
2830.96
2833.24
2836.49
2840.2
2843.38
2847.77
2854.02
2855.25
2862.1
2861.14
2860.52
2864.05
2870.59
2865.75
2870.92
2863.66
2872.8
2869.84
2879.79
2873.1
2836.3
2797.29
2784.66
2789.28
2802.17
2815.64
2818.61
2805.52
2835.15
2839.48
2843.06
2851.14
2876.31
2891.87
2889.66
2882.34
2880.58
2880.76
2882.68
2882.82
2883.83
2878.67
2873.1
2863.56
2858.45
2854.13
2852.8
2855.57
2853.88
2844.88
2834.47
2836
2835.78
2836.17
2841.46
2845.46
2838.97
2833.99
2758.31
2745.76
2758.8
2829.94
2834.45
2864.29
2654.91
2604.69
2615.4
2633.81
2648.87
2660.3
2668.58
2671.65
2675.06
2675.97
2676.22
2673.37
2674.6
2671.72
2693.51
2743.22
2809.89
2832.24
2778.28
2679.53
2624.96
2624.65
2673.45
2939.94
2987.02
2992.06
2967.8
2954.61
2963.23
2981.13
2988.22
2998.22
3007.98
3030.2
3060.09
3075.81
3083.59
3074.95
2809.63
2868.96
2913.9
2929.91
2896.29
2851.32
2841.25
2850.1
2862.76
2870.58
2884.55
2903.35
2931.01
2955.96
2967.89
2971.01
2969.31
2965.06
2957.94
2949.27
2946.59
2941.57
2942.68
2944.18
2941.2
2928.44
2902.91
2882.97
2862
2792.77
2924.98
2959.7
2988.48
2991.74
2988.2
2992.55
2983.13
2978.94
2973.16
2972.03
2959.29
2951.94
2954.75
2967.89
2977.29
2985.68
2991.26
2987.26
2985.34
2977.06
2974.65
2974.8
2966.07
2956.08
2940.46
2938.56
2948.95
2968.95
2976.55
2975.7
2901.84
2882.85
2871.62
2862.94
2859.19
2860.14
2861.04
2864.65
2865.78
2869.15
2876.99
2886.4
2894.31
2897.25
2897
2890.18
2882.95
2879.16
2874.21
2879.15
2880.53
2888.35
2898.97
2905.7
2910.26
2914.08
2921.91
2926.79
2926.85
2928.77
2907.29
2905.05
2897.96
2885.36
2872.67
2862.77
2852.14
2847.88
2835.49
2834.61
2827.58
2827.64
2828.18
2825.97
2827.94
2829.74
2833.73
2840.6
2844.74
2838.78
2837.51
2841.05
2839.69
2849.46
2855.48
2850.93
2845.36
2846.89
2837.03
2830.39
2780.3
2771.51
2774.98
2769.62
2751.6
2752.12
2761.41
2766.56
2770.32
2775.71
2780.64
2786.52
2790.96
2792.84
2795.89
2796.37
2795.67
2795.21
2790.7
2786.69
2783.15
2775.09
2774.25
2770.37
2771.88
2774.83
2782.19
2789.96
2797.18
2794.14
2757.84
2769.91
2773.03
2778.08
2771.66
2749
2740.73
2740.33
2745.95
2748.09
2753.01
2748.37
2751.01
2745.41
2745.82
2747.63
2748.27
2753.25
2749.99
2758.07
2754.89
2761.51
2764.38
2763.91
2767.55
2760.87
2717.89
2695.14
2724.36
2668.24
2720.2
2778.6
2796.78
2792.21
2785.87
2780.36
2780.25
2776.09
2776.46
2771.23
2770.51
2766.31
2760.74
2760.54
2756.49
2758.42
2760.71
2765.65
2774.55
2778.65
2783.45
2779.41
2763.65
2759.37
2780.06
2787.35
2776.84
2755.6
2753.44
2781.87
2863.55
2867.98
2870.97
2873.82
2878.59
2885.53
2891.08
2893.56
2893.46
2893.28
2891.49
2892.69
2888.01
2890.02
2890
2885.39
2890.21
2883.12
2882.39
2882.95
2877.56
2810.03
2748.87
2769.76
2781.67
2761.25
2761.95
2797.57
2823.04
2814.17
2905.14
2874.84
2884.35
2891.69
2897.38
2905.2
2913.39
2912.29
2910.94
2907.44
2907.91
2900.38
2898.02
2900.31
2896.25
2898.29
2893.8
2893.71
2899.07
2890.94
2881.68
2878.59
2873.62
2845.72
2804.5
2780.97
2778.23
2787.24
2806.87
2814.42
2813.21
2826.55
2832.4
2835.89
2840.75
2846.56
2854.64
2866.64
2877.96
2887.67
2898.16
2900.36
2901.73
2898.55
2905.27
2894.89
2897.04
2882.23
2883.66
2873.24
2881.9
2880.49
2860.51
2815.14
2787.54
2785.58
2801.04
2823.41
2828.46
2817.12
2835.49
2838.53
2843.76
2863.6
2886.32
2891.9
2886.51
2885.41
2890.03
2897.83
2906.09
2909.83
2907.4
2897.03
2885.75
2873.77
2860.75
2851.22
2847.86
2849.99
2851
2841.68
2835.58
2840.59
2844.83
2845.56
2844.96
2845.89
2839.22
2832
2795.76
2780.35
2847.11
2915.82
2906.14
2690.75
2606.33
2615.23
2634.41
2655.72
2675.94
2694.44
2708.1
2719.5
2724.78
2721.58
2712.45
2701.98
2691.66
2676.24
2668.14
2681.19
2742.57
2833.2
2843.28
2773.49
2707.98
2698.01
2768.76
2921.79
2968.08
2936.91
2916.67
2942.17
2980.92
3004.48
3012.01
3011.15
3005.21
3011.76
3040.61
3071.02
3084.26
3077.61
2817.02
2887.19
2937.71
2937.95
2884.03
2843.06
2834.36
2841.13
2843.93
2848.67
2862.13
2892.62
2930.97
2962.18
2974.42
2975.27
2968.78
2960.97
2951.01
2945.77
2949.07
2953.82
2957.9
2960.02
2957.94
2944.65
2916.97
2890.15
2870.67
2808.1
2926.74
2962.82
2990.76
2996.44
2995.99
2992.78
2983.02
2977.5
2974.37
2969.77
2956.56
2947.9
2961.8
2975.64
2986.99
2992.6
2989.28
2983.5
2978.7
2973.19
2975.09
2970.49
2970.69
2963.25
2955.52
2941.7
2945.72
2963.29
2975.11
2974.74
2905.06
2882.4
2872.89
2864.12
2863.44
2865.28
2864.14
2865.96
2864.93
2865.01
2873.66
2887.19
2894.29
2894.62
2889.35
2878.83
2871.14
2863.69
2864.19
2862.98
2869.76
2875.12
2887.45
2899.32
2906.83
2910.9
2918.69
2924.96
2926.81
2929.75
2903.41
2899.18
2891.63
2876.58
2866.71
2854.18
2848.37
2838.32
2831.99
2831.5
2824.66
2827.06
2823.99
2826.32
2825.79
2826.06
2827.94
2835.38
2844.03
2837.32
2834
2835.32
2839.41
2843.66
2851.96
2846.43
2836.9
2839.75
2834.91
2824.23
2778.56
2773.58
2773.24
2755.06
2748.06
2756.63
2762.61
2767.66
2773.79
2780.78
2789.05
2794.87
2800.22
2803.85
2808.81
2809.77
2812.93
2813.29
2811.93
2812.09
2801.73
2793.92
2786.65
2778.14
2774.76
2774.89
2780.65
2787.29
2795.45
2794.06
2762.85
2768.79
2779.94
2771.58
2737.84
2726.39
2735.92
2750.8
2759.09
2764.65
2759.57
2757.69
2751.35
2750.97
2745.37
2747.16
2746.58
2751.99
2752.57
2762.79
2760.6
2766.3
2764.57
2767.59
2771.19
2767.94
2759.06
2741.59
2749.2
2695.14
2746.59
2789.89
2791.61
2786.53
2782.22
2779.78
2782.36
2779.04
2779.29
2773.11
2771.56
2761.57
2762.89
2757.9
2758.64
2761.43
2759.3
2765.13
2769.07
2779.27
2782.82
2784.66
2772.94
2758.23
2763.86
2777.65
2773.95
2752.38
2756.12
2783.48
2864.73
2869.2
2873.05
2879.64
2887.72
2899.11
2900.34
2904.5
2904.31
2905.74
2906.49
2902.27
2903.61
2899.84
2899.85
2895.12
2892.33
2892.05
2888.61
2883.77
2887.49
2854.14
2781.46
2764.08
2771.02
2757.99
2766.36
2811.76
2842.35
2828.26
2895.42
2890.11
2887.73
2895.22
2903.1
2908.77
2914.26
2912.83
2910.33
2908.47
2907.21
2894.71
2894.53
2887.63
2890.04
2895.43
2901.91
2896.87
2893.9
2894.56
2887.34
2878.66
2874.68
2861.88
2823.1
2790.05
2781.49
2790.2
2812.65
2824.84
2820.8
2832.34
2835.68
2839.67
2845.45
2856.29
2873.21
2891.95
2906.35
2915.01
2919.53
2918.72
2919.92
2916.98
2928.32
2920.08
2922.71
2905.81
2901.23
2882.12
2882.83
2882.76
2874.55
2840.81
2799.6
2786.44
2802.02
2828.93
2832.41
2824.4
2835.74
2838.25
2851.59
2877.09
2892.43
2891.47
2888.16
2892.67
2905.25
2921.36
2934.55
2936.12
2928.86
2920.73
2905.57
2885.08
2864.57
2849.28
2841.67
2845.1
2845.88
2845.94
2845.91
2872.51
2885.42
2871.33
2856.72
2850.94
2839.44
2830.93
2815.19
2797.28
2881.26
2894.37
2781.7
2633.21
2610.8
2630.88
2657.86
2688.16
2715.8
2739.63
2761.49
2774.96
2777.13
2774.29
2756.6
2735.83
2716.74
2702.85
2681.39
2666.43
2671.93
2758.65
2857.64
2829.74
2796.71
2797.09
2878.92
2771.64
2937.52
2892.2
2910.6
2983.37
3025.11
3042.77
3041.18
3030.02
3016.21
3009.11
3030.71
3065.54
3085.3
3078.18
2824.31
2901.09
2955.91
2948.09
2883.88
2839.71
2825.12
2822.02
2819.96
2821.67
2836.71
2868.63
2922.68
2962.3
2973.53
2972.21
2959.49
2948.58
2944.36
2953.56
2964.62
2977.35
2983.74
2984.19
2976.57
2959.87
2927.86
2894.55
2873.84
2815.04
2927.48
2962.29
2991.63
2999.67
2994.83
2993.66
2984.67
2982.82
2976.99
2966.45
2954.82
2949.49
2969.43
2983.76
2992.25
2988.72
2982.12
2977.43
2973
2971.12
2965.05
2963.85
2963.9
2963.73
2958.06
2950.73
2947.69
2961.9
2972.41
2972.19
2902.05
2884.71
2874.15
2871.79
2870.86
2872.04
2872.03
2871.4
2866.78
2862.83
2869.48
2885.01
2891.68
2893.25
2884.99
2873.75
2862.57
2855.18
2850.08
2855.32
2858.38
2865.11
2878.49
2889.12
2905.1
2907.37
2916.39
2923.45
2926.98
2928.81
2902.64
2897.16
2886.54
2873.04
2860.42
2850.11
2845
2829.95
2831.29
2823.26
2823.4
2823.21
2825.27
2825.38
2823.8
2824.5
2824.18
2831.29
2839.36
2837.16
2830.76
2831.81
2840.24
2838.05
2846.35
2842.08
2832.23
2834.35
2833.65
2820.11
2777.59
2773.87
2762.62
2745.05
2751.61
2758.08
2760.54
2767.1
2776.69
2784.34
2792.05
2796.98
2802.82
2807.8
2814.77
2818.97
2825.77
2826.7
2827.52
2826.75
2818.53
2813.33
2797.57
2787
2778.55
2776.98
2779.33
2786.63
2793.96
2793.22
2764.6
2773.87
2775.22
2736.68
2717.65
2726.11
2748.21
2767.48
2767.99
2770.49
2759.24
2759.39
2746.83
2748.59
2742.05
2743.93
2744.22
2749.58
2749.9
2760
2768.37
2768.48
2771.18
2773.88
2771.65
2772.14
2770.15
2765.74
2766.16
2729.54
2774.96
2792.82
2788.94
2783.77
2781.53
2781.75
2784.54
2778.79
2778.48
2767.37
2761.51
2755.41
2751.78
2753.89
2754.12
2754.59
2762.91
2762.12
2768.61
2776.17
2784.89
2787.27
2781.36
2763.79
2758.02
2764.77
2758.29
2754.92
2782.66
2800.46
2864.38
2871.17
2877.69
2886.89
2899.65
2902.72
2908.87
2907.8
2896.6
2889.16
2883.34
2883.91
2886.05
2895.44
2904.57
2906.68
2894.78
2900.61
2895.5
2887.83
2891.02
2878.22
2823.33
2781.18
2765.17
2755.56
2776.64
2830.33
2864.67
2843.58
2886.04
2892.77
2893
2899.55
2906.06
2913.8
2913.15
2911.7
2911.6
2903.89
2896.83
2886.18
2875.06
2872.15
2871.14
2875.02
2885.81
2898.37
2898.35
2893.98
2893.57
2883.06
2876.33
2867.16
2838.96
2802.92
2790.53
2797.92
2818.68
2829.09
2832.85
2836.08
2839.54
2843.64
2853.26
2870.55
2892.51
2914.44
2922.16
2914.93
2894.54
2882.5
2872.67
2883.2
2898.35
2914.07
2940.4
2923.56
2918.71
2894.54
2889.59
2884.15
2882.69
2860.95
2818.95
2794.39
2814.17
2834.6
2835.7
2826.22
2836.04
2840.67
2862.98
2885.84
2893.98
2891.75
2892.41
2904.75
2923
2943.88
2954.61
2953.27
2952.96
2939.51
2919.6
2896.45
2872.2
2850.38
2837.77
2838.36
2847.18
2849.55
2871.25
2914.79
2922.4
2899.05
2871.58
2855
2837.7
2826.86
2828.83
2787.05
2850.15
2824.05
2691.95
2618.34
2621.62
2650.81
2685.44
2719.27
2752.76
2789.52
2821.33
2843.46
2846.18
2828.31
2799.65
2771.33
2732.86
2719.17
2699.25
2680.54
2657.76
2674.56
2844.93
2869.2
2843.32
2873.8
2949.82
2631.53
2903.76
2870.05
2942.09
3026.5
3052.64
3057.58
3052.63
3041.07
3025.94
3012.65
3023.46
3066.08
3086.01
3080.17
2829.54
2915.12
2975.11
2963.06
2898.34
2843.38
2819.41
2811.5
2806.56
2806.6
2813.36
2844.84
2905.11
2961.37
2973.39
2968.44
2948.28
2939.99
2951.11
2965.15
2979.91
2994.84
3002.8
3004.1
2992.8
2971.67
2935.95
2895.35
2874.27
2817.61
2927.28
2957.77
2991.74
2999.98
2995.43
2992.05
2991.64
2974.65
2972.36
2963.5
2953.63
2956.13
2971.41
2988.45
2989.56
2982.19
2977.92
2973.46
2967.75
2960.17
2958.28
2960.08
2962.46
2960.55
2959.17
2951.93
2952.56
2960.96
2971.3
2969.67
2908.33
2884.47
2878.92
2877.26
2879.11
2879.62
2880.99
2880.12
2870.86
2861.98
2866.54
2880.59
2887.79
2890.45
2883.69
2870.02
2856.87
2847.62
2846.63
2846.18
2854.16
2857.84
2871.26
2883.63
2899.92
2906.66
2914.22
2922.48
2926.28
2927.96
2896.96
2895.02
2885.76
2868.55
2857.6
2847.47
2841.11
2826.58
2829.09
2818.92
2821.1
2825.13
2822.84
2824.71
2821.5
2822.23
2820.99
2829.79
2837.09
2835.13
2827.73
2829.77
2835.65
2836.95
2840.31
2836.22
2829.64
2832.64
2831.71
2816.12
2775.58
2771.22
2756.88
2741
2751.92
2755.69
2760.74
2766.93
2775.36
2783.6
2790.5
2795.87
2802.64
2807.37
2818.28
2826.32
2837.38
2837.18
2838.65
2832.85
2831.66
2823.35
2806.85
2793.3
2781.89
2779.19
2780.27
2786.21
2793.8
2790.94
2767.03
2776.32
2751.12
2714.6
2713.16
2733.58
2758.82
2774.85
2769.53
2771
2757.03
2757.1
2743.78
2746.79
2740.2
2742.71
2742.15
2748.37
2749.49
2759.6
2766.97
2771.72
2776.09
2774.95
2775.25
2776.93
2774.52
2773.14
2771.67
2765.44
2786.78
2791.51
2786.81
2782.29
2781.25
2783.18
2784.81
2777.51
2774.02
2757.62
2751.78
2737.87
2739.29
2739.19
2746.22
2750.45
2758.65
2763.19
2766.67
2776.07
2784.07
2790.25
2785.97
2769.74
2756.94
2755.89
2752.91
2792.34
2827.03
2827.73
2866.05
2875.23
2881.84
2893.47
2904.03
2905.22
2914.75
2892.23
2889.12
2875.63
2875.7
2872.67
2876.36
2888.96
2893.42
2913.64
2898.67
2905.92
2896.54
2892.33
2893.81
2888.32
2855.96
2814.28
2786.13
2772.82
2806.19
2857.15
2884.47
2857.25
2878.31
2890.19
2895.76
2902.15
2906.28
2913.09
2912.41
2908.2
2914.37
2895.91
2889.46
2875.16
2875.55
2869.46
2872.18
2872.73
2877.87
2884.65
2895.72
2897.14
2890.59
2884.11
2878.41
2870.87
2850.96
2820.04
2807.67
2814.8
2829.99
2840.23
2838.83
2840.35
2840.93
2849.3
2861.89
2883.32
2910.33
2924.34
2917.45
2887.67
2862.19
2847.05
2843.51
2840.14
2865
2879.07
2928.86
2934.95
2934.03
2906.7
2896.71
2888.24
2886.26
2873.28
2832.95
2802.72
2828.2
2838.41
2838.21
2830.76
2836.18
2847.49
2873.55
2891.28
2896.33
2894.38
2899.41
2915.7
2940.49
2959.2
2969.64
2974.34
2964.38
2941.98
2923.12
2905.18
2876.98
2851.41
2832.55
2837.33
2845.17
2857.31
2895.38
2937.71
2940.08
2915.29
2876.29
2852.89
2834.62
2825.99
2838.22
2757.37
2782.99
2745.91
2649.92
2621.47
2635.34
2669.18
2707.77
2748.89
2797.55
2847.63
2887.65
2914.46
2912.58
2886.4
2836.82
2800.43
2747.71
2724.11
2705.57
2693.91
2670.72
2642.75
2775.9
2921.49
2879.63
2926.27
2834.88
2506.6
2880.98
2868.99
2991
3052.14
3060.65
3055.64
3055.73
3057.81
3039.13
3020.69
3029.06
3070.04
3086.97
3080.13
2832.03
2922.7
2987.58
2988.3
2935.54
2871.14
2830.18
2814.22
2807.34
2804.42
2809.08
2827.8
2888.53
2958.5
2971.3
2958.52
2936.87
2943
2955.7
2969.61
2984.34
3002.75
3013.73
3015.61
3000.97
2974.45
2931.24
2892.49
2871.95
2817.06
2926.97
2951.53
2989.33
3000.35
2998.05
2992.35
2970.83
2965.72
2967.26
2963.21
2946.86
2956.87
2974.41
2991.06
2983.91
2978.79
2977.83
2965.34
2960.53
2951.11
2949.04
2948.07
2951.93
2959.11
2958.73
2956.04
2954.33
2963.6
2971.53
2969.97
2907.32
2890.16
2882.98
2886.23
2887.13
2885.03
2877.07
2879.32
2879.38
2862.87
2860.53
2874.07
2884.93
2888.07
2887.18
2869.12
2859.09
2847.87
2845.47
2844.63
2851.31
2854.98
2868.46
2884.82
2897.46
2908.56
2912.24
2923.05
2926.77
2928.69
2900.3
2894.11
2883.03
2867.39
2856.15
2846.33
2840.51
2825.44
2829.51
2817.22
2823.2
2821.16
2821.02
2821.22
2816.42
2819.95
2819.94
2829.2
2838.1
2833.12
2825.54
2827.51
2832.89
2835.97
2835.46
2832.98
2829.9
2836.01
2829.13
2816.02
2776.47
2767.42
2748.15
2742.57
2750.58
2751.85
2756.45
2764.71
2773.05
2780.81
2786.88
2792.86
2798.12
2804.65
2817.14
2831.32
2842.21
2844.21
2839.94
2841.13
2835.43
2827.91
2809.8
2794.76
2783.91
2779.95
2781.09
2786.6
2793.52
2786.56
2770.36
2769.28
2729.33
2707.71
2711.04
2737.61
2760.6
2776.05
2768.9
2771.29
2755.88
2757.12
2742.99
2746.22
2738.17
2740.31
2740.87
2745.45
2753.71
2757.71
2768.75
2778.45
2777.3
2778.09
2778.47
2780.51
2780
2779.21
2776.77
2781.55
2793
2789.82
2785.36
2780.8
2780.13
2782.79
2783.46
2775.21
2769.07
2750.87
2739.62
2728.33
2724.86
2727.48
2740.21
2746.35
2756.94
2760.38
2767.94
2775.06
2785.19
2791.51
2789
2774.51
2758.94
2751.6
2789.46
2840.16
2851.44
2845.05
2874.83
2877.11
2886.53
2897.67
2907.24
2905.35
2908.18
2886.94
2885.45
2869.99
2867.72
2868.73
2867.18
2885.16
2889.76
2908.01
2906.45
2908.51
2897.21
2904.4
2894.61
2893.34
2878.11
2845.04
2814.71
2808.26
2853.22
2884.71
2891.27
2863.79
2876.99
2890.43
2897.74
2903.83
2906.35
2912.43
2911.15
2909.73
2913.32
2892.8
2887.93
2873.69
2869.89
2861.8
2864.71
2866.01
2877.13
2881.88
2892.1
2897.73
2892.28
2886.3
2880.07
2873.28
2855.24
2829.43
2820.21
2829.82
2839.36
2838.87
2845.67
2845.61
2845.94
2853.84
2869.79
2891.8
2916.32
2929.3
2908.27
2869.43
2847.88
2828.87
2819.94
2822.43
2839.39
2858.23
2909.4
2937.24
2937.91
2919.33
2902.06
2893.04
2888.65
2880.29
2837.62
2810.36
2833.87
2841.54
2838.62
2826.45
2837.08
2852.9
2881.44
2895.78
2899.12
2898.68
2904.38
2922.68
2953.63
2963.77
2983.56
2978.7
2968.09
2947.57
2927.76
2903.82
2879.34
2848.41
2832.1
2832.66
2845.32
2857.54
2902.26
2934.71
2936.4
2905.12
2866.31
2841.58
2826.6
2825.05
2846.87
2737.23
2722.06
2689.4
2633.11
2624.84
2647.31
2683.58
2725.34
2775.83
2830.43
2884.37
2931.78
2955.98
2950.26
2920.96
2858.94
2810.13
2756.82
2724.14
2705.37
2696.63
2679.68
2641.27
2692.54
2942.34
2941.26
2947.14
2645.28
2495.24
2866.8
2885.23
3020.6
3059.66
3056.49
3039.7
3044.85
3064.53
3057.16
3038.75
3046.87
3078.24
3089.01
3080.08
3048.8
2941.49
2844.77
2931.53
2998.71
3010.71
2981.13
2927.07
2881.31
2858.27
2848.84
2845.86
2836.21
2833.84
2877.79
2956.37
2970.58
2951.78
2934.05
2942.41
2954.81
2966.47
2984.86
3004.84
3016
3014.39
2996.9
2966.67
2921.35
2885.74
2855.29
2813.54
2834.2
2893.25
2928.44
2946.16
2982.9
2994.45
2996.93
2979.55
2957.23
2950.92
2965.97
2960.84
2945.49
2954.67
2975.58
2987.06
2981.22
2979.57
2972.26
2959.76
2954.77
2945.44
2945.15
2944.02
2949.76
2952.72
2955.1
2954.83
2958.52
2963.23
2964.8
2963.91
2963.4
2937.8
2916.04
2894.29
2890.44
2892.8
2894.88
2883.78
2878.4
2883.81
2882.94
2870.11
2857.94
2866.47
2881.82
2886.27
2888.89
2876.55
2862.3
2853.43
2849.64
2847.42
2853.12
2856.04
2871.21
2884.92
2902.39
2906.93
2916.86
2922.19
2927.49
2928.43
2904.1
2893.54
2898.34
2893.49
2886.41
2868.22
2857.74
2847.65
2844.77
2830.62
2829.14
2819.78
2820.48
2817.56
2815.36
2815.32
2815.69
2820.25
2822.63
2831.25
2841.32
2829.74
2824.93
2825.9
2831.51
2835.16
2833.89
2830.47
2830.63
2835.7
2818.71
2811.92
2801.94
2801.59
2783.59
2767.72
2748
2745.04
2751.64
2751.05
2753.26
2758.61
2767.65
2775.48
2781.91
2787.03
2792.02
2797.89
2809.03
2823.94
2835.24
2842.38
2839.24
2844.07
2830.24
2823.39
2805.67
2792.87
2783.05
2779.66
2782.38
2787.51
2790.85
2779.16
2780.61
2772.93
2765.91
2741.7
2708.06
2700.61
2707.49
2730.63
2757.11
2773.99
2770.62
2770.06
2758.66
2756.87
2745.18
2743.31
2741.02
2738.37
2743.18
2749.5
2751.98
2760.62
2771.95
2780.82
2781.9
2782.28
2782.52
2783.04
2784.14
2786.77
2790.29
2786.16
2777.49
2778.46
2778.57
2778.7
2780.41
2777.5
2776.77
2780.48
2780.41
2773.76
2766.34
2747.51
2739.39
2725.72
2726.97
2728.02
2740.49
2744.57
2753.67
2760.36
2767.95
2776.31
2786.11
2792.98
2790.65
2775.05
2760.25
2792.62
2835.7
2832.58
2837.34
2852.74
2861.99
2873.12
2871.56
2873.42
2883.88
2896.41
2907.22
2904.44
2907.42
2887.31
2884.5
2870.1
2870.51
2868.17
2869.49
2886.75
2891.47
2903.55
2914.3
2905.29
2900.47
2907.5
2895.8
2897.43
2889.3
2868.03
2828.93
2847.46
2888.95
2889.7
2881.13
2870.5
2873.07
2869.56
2877.44
2883.92
2892
2901.53
2903.78
2906.36
2911.31
2911.44
2908.91
2898.26
2891.19
2872.74
2871.4
2864.8
2864.88
2868.12
2877.55
2882.5
2893.36
2895.49
2893.76
2891.59
2880.53
2875.23
2859.84
2843.26
2832.47
2847.21
2845.21
2846.22
2844.71
2846.65
2844.79
2844.49
2843.9
2854.99
2871.7
2894.61
2918.13
2931.08
2910.53
2870.98
2843.94
2825.47
2815.03
2813.1
2837.03
2849.1
2903.11
2933.64
2938.51
2934.66
2905.39
2898.2
2890.97
2881.64
2833.84
2813.84
2830.52
2844.3
2847.78
2836.3
2831.43
2826.38
2838.53
2858.91
2886.52
2899.09
2902.33
2902.2
2907.14
2923.32
2957.6
2964.82
2986.93
2979.45
2974.32
2943.96
2921.33
2902.37
2875.87
2847.52
2826.96
2832.78
2844.43
2852.98
2888.44
2916.88
2908.07
2874.92
2847.82
2834.83
2844.34
2861.24
2845.16
2754.76
2707.64
2676.17
2670.54
2653.19
2627.51
2628.29
2654.55
2691.44
2734.14
2788.17
2840
2894.92
2941.86
2969.31
2948.3
2916.98
2856.48
2802.49
2751.17
2721.3
2702.56
2695.31
2680.4
2647.37
2656.36
2916.02
2861.93
2752.92
2745.83
2843.59
2495.85
2467.62
2864.87
2909.1
3039.89
3060.51
3039.91
3010.87
3016.76
3056.49
3076.63
3066.45
3065.75
3084.6
3090.99
3081.51
3058.85
2958.46
2859.3
2929.45
3000.62
3027.31
3015.44
2992.79
2964.77
2945.72
2932.73
2927
2912.11
2873.79
2870.45
2947.91
2967.92
2949.28
2932.51
2939.58
2946.78
2958.11
2979.55
2998.63
3005.1
3000.9
2981.84
2949.31
2907.29
2877.31
2845.41
2813.08
2828.15
2876.37
2921.72
2934.84
2967.07
2985.29
2994.8
2965.3
2938.3
2942.25
2960.92
2964.15
2949.65
2954.66
2972.66
2985.55
2980.3
2978.25
2967.34
2959.53
2951.77
2941.45
2939.57
2939.73
2945.99
2952.65
2956.52
2958.3
2961.95
2967.54
2968.65
2971.33
2949.22
2929.44
2916.53
2896.44
2895.98
2899.39
2900.52
2888.99
2883.04
2892.31
2893.33
2881.36
2857.84
2860.44
2874.84
2883.19
2887.53
2888.52
2876.34
2865.85
2860.14
2855.76
2862.79
2865.74
2882.45
2893.31
2906.56
2910.23
2919.32
2924.62
2930.43
2927.91
2894.95
2894.59
2898.13
2894.43
2890.16
2872.89
2860.57
2851.59
2847.2
2839.61
2833.9
2825.77
2821.94
2819.21
2816.66
2817.58
2816.94
2824.66
2827.12
2837.75
2833.35
2825.91
2823.72
2825.48
2831.1
2834.8
2832.25
2831.55
2838.38
2810.59
2788.84
2792.2
2794.38
2793.86
2786.77
2765.01
2740.66
2743.71
2753.55
2753.82
2752.3
2753.72
2760.77
2769
2775.7
2780.39
2784.28
2789.77
2796.17
2805.27
2820.14
2825.76
2831.52
2825.28
2821.01
2810.03
2796.13
2787.93
2780.67
2781.44
2785.28
2791.47
2787.22
2780.55
2782.31
2768.81
2749.44
2723.28
2703.5
2698.56
2697.75
2718.68
2747.4
2770.62
2773.69
2771.73
2761.07
2760.33
2750.5
2750.45
2743.32
2746.81
2747.23
2754.28
2758.69
2768.23
2775.25
2783.32
2783.6
2783.9
2784.28
2785.16
2789.59
2789.47
2777.56
2769.6
2760.36
2751.04
2751.31
2763.69
2777.04
2775.26
2772.94
2776
2778.59
2773.57
2766.2
2750.85
2744.19
2731.95
2729.38
2730.9
2739.7
2744.72
2754.66
2762.64
2770.52
2778.82
2789.46
2793.85
2787.85
2769.1
2762.74
2796.94
2806.15
2770.17
2765.06
2788.65
2818.28
2845.87
2865.94
2868.8
2878.55
2889.35
2904.4
2901.66
2912
2891.63
2888.3
2877.59
2878.94
2879.6
2879.23
2893.4
2894.33
2911.22
2915.84
2899.65
2907.82
2908.03
2898.39
2900.01
2896.67
2871.57
2832.42
2897.15
2887.13
2878.57
2875.99
2872.89
2875.94
2873.67
2880.37
2880.62
2883.22
2899.48
2903.07
2904.61
2910.21
2908.9
2910.52
2910.08
2893.39
2878.37
2874.45
2865.61
2867.89
2872.11
2875.19
2890.85
2898.62
2895.73
2893.12
2890.88
2881.66
2872.98
2858.09
2842.08
2845.84
2849.59
2847.08
2847.28
2850.79
2853.7
2853.84
2847.47
2847.53
2857.37
2873.76