/*--------------------------------*- C++ -*----------------------------------*\
| =========                 |                                                 |
| \\      /  F ield         | OpenFOAM: The Open Source CFD Toolbox           |
|  \\    /   O peration     | Version:  2.1.1                                 |
|   \\  /    A nd           | Web:      www.OpenFOAM.org                      |
|    \\/     M anipulation  |                                                 |
\*---------------------------------------------------------------------------*/
FoamFile
{
    version     2.0;
    format      ascii;
    class       volScalarField;
    location    "0.006250000";
    object      Tu;
}
// * * * * * * * * * * * * * * * * * * * * * * * * * * * * * * * * * * * * * //

dimensions      [0 0 0 1 0 0 0];

internalField   nonuniform List<scalar> 
12384
(
858.019
847.69
840.954
844.525
846.94
855.973
855.818
867.072
870.142
875.403
882.133
881.207
893.696
958.55
497.485
515.327
540.634
556.809
576.571
592.13
601.733
602.926
606.771
604.56
608.588
606.054
608.587
607.055
608.21
606.637
606.939
608.306
607.91
614.101
616.666
624.629
627.44
634.069
634.337
633.691
627.064
594.593
528.844
527.283
506.154
542.222
557.13
562.572
551.846
553.183
541.126
540.666
528.857
525.467
519.417
516.484
514.112
511.178
507.972
503.552
498.839
489.403
492.474
479.376
487.054
482.442
488.948
495.102
508.266
523.676
544.25
547.833
527.286
521.605
395.08
373.963
379.54
377.198
395.239
391.539
413.911
414.402
426.942
433.02
438.559
441.031
440.763
438.063
433.744
429.449
426.348
422.754
435.42
425.857
450.198
451.505
471.801
480.712
485.872
473.389
449.36
450.393
456.135
458.533
492.895
521.525
539.466
542.564
539.131
527.773
513.968
497.253
478.092
472.677
437.325
451.697
442.062
447.934
453.786
455.66
454.423
445.2
430.968
424.795
426.794
418.071
410.763
403.671
401.057
398.084
399.265
401.317
402.969
403.381
423.698
418.561
413.326
415.661
426.971
430.68
431.564
428.395
424.241
420.408
416.483
411.379
406.231
398.808
398.815
387.365
391.12
382.726
388.971
386.315
397.164
403.735
411.859
420.109
428.727
439.545
452.029
454.061
450.934
449.67
315.449
292.116
276.772
283.587
293.548
291.345
295.335
278.65
279.437
270
270
270
270
270
270
270
270
270
270
270
270
270.9
279.61
280.324
270
273.579
274.016
273.392
273.429
271.624
351.068
363.072
383.194
398.49
406.703
407.914
409.608
399.417
402.697
384.013
390.024
370.871
375.013
363.979
366.86
372.232
375.369
383.713
387.497
395.904
397.59
396.166
395.452
393.112
386.904
385.773
387.414
388.796
389.292
389.481
361.406
383.704
390.322
388.955
384.297
376.955
370.094
362.718
353.141
345.457
344.462
336.144
339.926
336.527
353.249
354.529
376.591
383.244
398.959
385.062
354.161
351.616
363.161
364.974
372.65
371.487
373.673
372.468
371.229
369.618
371.041
365.612
382.876
398.763
407.614
410.734
407.981
404.396
396.536
382.689
381.474
359.961
362.629
352.28
355.845
362.338
365.887
370.747
379.121
382.907
380.847
364.173
344.98
339.689
344.21
338.236
342.192
336.032
336.311
331.939
284.903
298.165
305.436
312.645
316.508
316.72
315.177
310.181
304.069
299.031
297.131
286.853
293.655
283.627
311.921
305.872
328.639
354.835
353.063
361.163
365.315
352.767
355.164
360.045
362.99
366.274
369.956
371.75
370.5
366.69
275.934
272.039
274.673
291.665
325.035
326.995
314.498
307.588
307.786
305.341
308.762
309.798
305.278
303.503
304.798
296.574
295.421
285.277
283.862
276.196
277.198
271.409
271.523
270
270
270
270
270
274.837
272.365
270
270
270
270
270
270
270
348.318
437.154
437.121
430.508
424.303
418.743
414.172
410.482
411.486
406.235
401.927
403.224
396.145
397.611
397.157
408.093
423.866
438.299
450.275
454.754
455.709
449.374
340.399
794.987
803.049
811.404
824.243
820.576
821.353
822.465
837.713
852.274
877.503
892.3
893.471
898.124
948.016
495.881
521.846
553.993
584.43
612.892
622.23
620.162
612.982
610.413
606.172
601.773
594.512
585.77
577.049
568.569
561.396
557.531
554.995
561.817
570.13
585.75
601.707
621.37
636.714
646.87
643.767
636.743
616.752
573.085
536.689
509.892
548.909
558.031
556.92
541.897
538.334
523.768
519.008
504.599
499.702
494.799
494.326
494.565
495.302
494.947
490.123
488.578
480.302
476.018
464.856
465.133
457.043
456.889
465.796
477.885
498.874
525.032
545.044
542.558
528.259
396.113
377.58
381.075
389.086
404.454
410.393
426.153
429.187
436.157
440.163
442.786
442.152
438.842
433.797
428.251
422.637
418.499
417.922
418.383
424.8
435.751
444.467
456.964
466.131
474.777
478.193
465.232
453.875
461.299
466.968
504.704
541.868
548.437
542.682
531.636
523.2
506.906
503.043
470.91
481.762
452.224
459.569
455.718
460.733
462.746
465.169
462.478
455.481
442.457
428.64
425.386
423.157
409.845
399.022
393.316
391.496
393.557
397.149
400.351
402.308
422.556
416.9
411.83
423.117
430.354
424.303
414.301
409.166
407.26
406.119
406.061
405.345
404.56
401.215
400.393
391.51
391.207
386.686
386.269
385.106
392.972
397.356
406.017
412.641
423.166
431.538
446.57
454.849
457.644
452.565
311.109
291.789
307.773
320.013
311.037
287.098
279.696
270
270
270
270
270
270
270
270
270
270
270
270
270
270
270
270.271
280.743
270.911
270
270
270
270
270
373.39
393.388
411.882
417.845
417.434
414.668
406.455
399.99
395.322
382.857
379.913
370.019
367.977
364.956
364.463
365.614
368.831
376.181
382.499
388.872
397.452
400.176
399.486
394.24
382.842
378.112
379.521
381.699
388.715
391.806
378.789
392.873
387.705
377.123
368.151
360.146
352.464
342.386
339.166
329.751
326.251
324.68
321.954
325.827
334.472
341.498
358.474
368.669
391.43
394.498
379.466
355.439
372.028
375.614
379.736
378.683
381.562
380.586
379.847
379.155
369.56
368.308
393.735
408.366
408.275
400.752
391.079
381.534
367.07
360.475
348.624
334.119
332.751
327.748
325.087
330.517
344.185
353.217
359.105
369.638
376.087
371.659
355.508
342.87
349.347
348.213
351.511
345.536
346.79
342.792
281.396
296.432
312.895
319.521
316.747
310.997
303.912
295.713
291.585
281.07
275.699
272.278
273.657
274.785
281.362
290.191
318.785
328.043
342.569
360.122
369.359
363.618
359.556
361.155
368.688
375.895
380.267
381.618
379.043
371.643
295.224
293.462
296.738
316.163
324.298
317.764
314.511
320.415
332.04
344.55
352.584
356.766
357.34
355.288
346.76
339.922
323.041
311.186
295.201
286.073
280.146
284.346
282.409
283.598
280.126
280.435
273.962
270
274.033
273.548
343.813
343.602
339.95
314.381
270
270
283.054
417.023
440.803
435.686
433.187
431.768
432.156
433.733
435.47
431.339
432.726
425.211
417.219
403.585
388.813
373.953
373.693
389.972
421.772
445.217
455.836
455.98
447.332
324.615
791.593
806.618
805.321
785.34
752.82
746.132
739.229
747.663
770.22
813
866.843
900.324
903.398
944.391
499.439
529.594
573.281
612.799
634.603
625.396
608.507
600.739
592.558
582.507
569.934
557.295
542.984
528.153
515.883
505.728
504.523
508.51
516.991
535.871
555.176
581.023
609.136
634.486
654.707
659.328
648.85
631.713
601.302
555.054
512.842
554.147
559.455
557.251
546.142
550.986
539.546
534.922
515.247
507.322
499.773
499.211
502.742
506.855
508.332
512.274
514.609
506.584
507.293
501.427
488.202
475.593
467.057
456.357
461.481
474.467
501.455
531.558
545.65
535.679
394.688
379.444
385.953
397.236
412.095
418.774
428.894
431.433
435.475
437.72
437.215
434.138
428.939
422.689
416.955
412.684
410.092
408.5
413.488
413.153
425.921
432.34
448.232
455.87
463.68
469.829
470.774
460.79
460.702
469.2
532.087
547.123
540.131
529.158
524.154
515.824
511.091
508.282
495.25
489.764
471.636
474.713
467.221
473.747
473.295
473.291
470.837
462.121
449.119
432.807
423.526
422.624
412.641
397.72
390.757
390.935
394.196
397.183
401.879
403.643
420.285
414.151
416.407
424.71
419.513
406.97
403.75
404.534
409.509
415.747
423.032
428.415
434.152
435.227
436.321
432.52
433.17
422.787
420.461
410.552
412.869
406.755
409.243
413.437
417.957
426.836
437.596
450.804
458.437
457.148
304.141
303.086
337.196
306.218
280.244
270
278.051
277.45
283.9
273.699
277.347
270
270
270
270
270
270
270
270
270
270
270
270
275.852
278.351
270
270
270
270
270
392.129
412.053
420.034
417.071
411.517
404.667
399.365
393.824
389.995
379.263
379.697
367.676
368.133
362.542
365.225
369.423
365.743
375.257
378.193
385.648
391.276
399.479
399.912
395.402
382.178
376.431
378.243
384.123
387.784
397.122
397.243
389.51
375.758
365.512
358.83
353.874
349.077
342.076
340.12
333.318
329.533
323.464
326.28
324.009
331.397
333.432
348.069
354.708
375.926
389.618
394.696
370.146
372.526
378.642
382.495
379.886
383.989
389.57
383.304
380.26
373.33
374.894
409.356
407.85
394.892
383.258
371.027
359.42
353.146
339.768
327.799
322.512
313.445
308.972
315.395
311.732
318.387
334.881
344.871
350.641
359.854
365.596
361.262
346.534
347.171
348.351
348.643
343.568
349.063
347.022
279.332
303.891
321.542
316.433
308.808
300.998
293.273
286.842
282.407
270.1
270.822
270
270
270
279.277
280.315
301.588
309.376
335.896
343.15
362.207
369.838
365.707
363.988
371.29
380.267
383.908
384.71
383.038
376.115
304.982
309.316
316.267
322.356
318.997
316.16
327.865
349.183
371.535
388.134
396.554
396.515
397.405
389.919
382.165
367.497
353.231
331.83
309.942
292.855
284.163
287.219
287.43
292.652
290.608
286.349
284.291
276.895
274.664
272.749
337.058
337.912
328.256
292.036
270
270
398.47
439.706
440.025
439.371
441.645
446.357
451.035
451.424
453.712
454.665
455.525
455.395
454.618
442.281
427.183
395.054
369.977
365.09
397.104
428.079
448.905
450.27
424.702
283.458
798.007
793.431
750.421
716.222
707.882
715.461
716.426
723.545
725.637
747.76
815.077
888.401
909.932
940.985
499.515
538.433
591.549
633.419
637.83
613.026
597.514
588.502
581.017
569.887
559.407
544.575
528.453
508.478
495.634
488.521
491.354
501.847
526.002
553.543
585.065
611.171
634.69
654.889
671.109
675.286
664.559
643.635
616.765
567.617
514.812
556.291
562.074
563.936
561.763
574.053
561.055
549.819
526.206
510.046
499.724
500.727
505.952
510.708
519.848
526.318
526.124
529.117
533.573
522.77
518.043
512.229
489.625
473.473
461.14
465.793
483.978
516.489
539.962
537.35
394.442
381.189
390.346
406.003
413.719
422.989
426.571
431.232
432.534
434.017
431.111
425.449
419.454
414.383
411.022
409.937
410.161
413.5
410.639
420.28
419.088
428.658
438.236
444.989
456.405
461.966
468.478
463.632
460.277
467.914
549.628
541.347
527.469
523.161
521.095
524.741
524.553
531.639
519.253
522.728
509.664
503.205
496.726
486.959
484.934
481.295
477.162
469.662
455.658
438.432
424.035
419.393
415.767
399.53
391.422
392.126
397.487
399.615
402.469
404.479
419.499
414.373
416.551
418.162
401.187
400.041
404.859
411.217
421.609
433.452
443.838
453.362
461.087
463.837
468.845
468.91
467.155
466.609
459.029
452.415
446.256
430.406
428.013
419.115
420.484
424.009
432.597
444.777
456.994
458.558
304.133
330.237
320.505
279.237
277.747
299.247
314.976
310.626
305.449
294.083
290.712
280.316
282.574
273.442
272.985
272.522
270
270
270
270
270
270
270
270
280.065
278.883
270
273.127
278.881
270
405.627
420.914
418.302
410.984
405.203
399.593
399.244
392.664
390.549
382.106
380.614
373.785
368.323
369.586
363.739
367.623
369.969
372.581
380.877
383.078
390.211
396.534
401.564
401.65
394.335
385.294
385.232
385.167
391.934
405.425
388.853
378.563
368.306
360.529
357.019
355.569
349.468
348.348
343.528
338.838
333.3
334.429
329.594
334.077
337.583
332.771
346.701
347.253
362.407
379.794
397.115
386.06
374.564
379.263
383.952
382.409
385.973
404.266
401.913
382.245
374.184
404.955
412.91
397.359
381.51
370.85
357.376
350.087
338.409
326.838
322.437
306.747
300.732
306.439
301.555
310.037
307.904
314.116
329.507
339.444
345.38
353.438
356.959
349.385
346.068
344.854
343.54
340.617
349.343
350.235
289.308
321.251
319.429
308.988
302.027
295.219
288.998
281.893
274.055
270
270
270
270
270
271.195
274.343
300.135
299.801
322.846
330.541
355.46
365.671
370.148
367.555
370.529
379.143
383.047
382.907
379.175
375.155
313.747
320.972
324.157
319.964
315.362
326.373
352.544
381.493
404.8
414.411
420.843
421.379
417.058
403.951
391.685
380.28
364.499
344.316
319.656
297.113
285.535
282.159
291.074
287.114
284.774
287.229
286.964
279.035
274.623
272.05
317.189
322.806
281.588
270
270
360.615
436.926
444.525
442.086
445.387
451.993
457.87
459.668
462.938
464.194
464.37
460.647
461.341
463.732
459.889
454.973
438.891
398.961
358.778
367.789
397.858
420.916
421.85
376.803
270
784.024
750.284
705.653
702.551
724.049
754.835
767.522
764.089
742.72
739.351
775.16
867.736
911.009
945.081
503.999
552.773
613.194
646.687
634.274
604.688
591.611
586.049
580.732
575.43
566.797
549.224
526.915
503.021
488.135
485.567
499.125
532.925
574.565
617.483
654.31
679.158
693.202
698.825
701.945
696.961
680.4
653.241
625.252
575.486
514.831
557.69
565.775
573.024
576.705
586.359
570.903
544.75
522.643
506.359
495.46
499.376
505.564
518.965
528.891
532.413
539.37
539.82
535.73
529.458
532.597
523.074
515.394
492.142
472.869
465.279
475.659
502.795
533.963
536.293
401.525
383.67
397.047
409.234
416.956
423.85
421.609
427.05
429.887
429.995
426.359
417.508
410.732
407.148
406.482
408.112
412.285
413.132
420.559
417.277
426.377
424.384
433.754
439.131
448.394
455.134
463.306
462.893
458.51
468.819
536.966
526.031
520.525
517.384
526.452
529.364
544.088
546.145
548.963
551.599
534.756
533.776
517.783
508.374
495.761
490
482.134
475.052
459.926
443.337
426.251
417.741
414.943
404.564
392.045
393.942
399.995
402.708
402.78
405.198
416.536
413.571
415.997
403.531
397.407
399.498
407.314
420.341
432.989
444.196
455.358
464.391
471.471
477.208
485.391
484.922
488.054
488.011
486.95
489.908
473.618
462.409
449.391
433.305
426.85
425.111
430.97
440.313
454.766
459.621
310.12
333.083
286.29
280.884
317.697
335.065
330.018
318.088
303.378
302.646
292.787
297.881
293.82
300.473
294.289
296.567
291.397
290.898
279.409
276.152
270
270
270
270
281.594
285.841
276.171
274.097
277.987
270
416.906
421.755
412.661
406.558
403.162
399.759
400.602
392.965
390.429
381.682
379.803
368.101
370.405
364.388
367.506
373.472
371.738
378.297
378.962
387.797
388.624
395.997
400.952
403.237
398.831
392.004
391.268
389.803
394.099
408.057
382.502
373.445
364.358
361.405
358.086
358.11
352.099
351.322
344.522
340.99
339.969
333.872
337.163
336.046
343.925
342.112
343.421
349.357
356.635
368.352
393.553
395.487
381.295
380.427
382.795
379.516
386.135
414.257
424.216
393.032
376.393
426.115
405.829
386.591
374.899
363.924
351.829
341.223
329.328
319.173
314.851
304.328
311.828
300.598
299.872
300.323
310.749
309.795
312.801
324.611
334.147
340.967
348.46
349.696
343.314
344.092
343.18
342.234
355.11
360.587
304.913
328.227
314.909
306.485
299.291
292.516
286.781
277.342
270.064
270
270
270
270
270
278.229
273.127
293.64
294.598
321.752
320.924
345.481
359.316
371.557
372.847
370.786
377.401
380.62
375.99
371.762
373.027
320.455
326.848
323.021
317.429
319.585
343.378
377.069
406.376
424.436
434.777
443.444
442.519
430.979
422.478
405.352
384.102
364.365
346.598
324.242
299.73
280.726
282.145
284.176
281.749
281.112
282.905
283.889
280.063
274.321
272.479
306.05
314.841
270
270
303.788
417.863
445.296
444.914
447.608
456.96
463.318
464.122
466.24
467.188
468.473
475.038
471.523
467.126
463.791
463.553
458.249
459.01
443.137
383.669
348.425
374.49
380.117
370.52
319.862
282.544
772.309
716.104
697.673
735.215
792.812
829.075
837.04
821.092
789.493
757.103
768.756
852.258
915.698
947.892
508.504
559.386
626.472
657.545
634.23
601.798
591.138
587.635
586.932
582.55
574.352
555.741
529.482
499.542
487.357
493.905
530.194
588.248
645.406
687.92
716.019
739.757
749.195
746.991
737.4
721.176
694.465
659.458
629.158
578.807
513.067
556.061
567.799
580.365
583.814
587.882
553.304
529.235
509.521
500.518
492.403
500.101
512.264
526.045
533.217
544.928
542.638
540.938
533.888
532.674
522.833
518.154
514.755
506.364
484.626
472.217
474.647
498.725
526.863
531.081
395.664
390.137
399.233
415.545
418.324
419.79
417.072
419.679
424.736
426.804
419.861
410.134
405.915
403.707
403.837
409.641
412.891
417.982
416.914
426.234
424.904
424.685
432.765
431.408
443.41
448.467
457.826
460.261
457.734
466.008
530.758
519.674
512.784
517.502
524.38
533.667
555.846
552.33
574.473
565.048
562.085
549.526
535.685
519.212
504.422
497.433
486.001
477.398
463.893
447.635
428.942
416.425
413.343
407.786
397.103
397.114
402.839
405.019
404.441
406.97
414.405
410.511
406.882
395.191
396.136
401.592
409.904
423.555
435.994
444.975
455.693
464.768
473.712
482.414
492.344
497.613
506.317
506.262
507.421
506.952
496.534
490.562
467.464
450.179
433.906
429.663
430.263
438.856
452.38
459.355
317.72
314.498
284.158
318.213
345.293
344.985
326.93
316.256
298.977
307.021
304.322
320.794
316.865
328.536
322.708
324.239
317.996
314.745
302.162
297.41
287.91
273.078
270.457
274.698
279.125
289.59
290.473
286.868
290.002
277.282
424.944
417.416
409.675
405.382
403.209
400.51
399.779
389.776
389.099
377.588
373.304
368.005
363.443
364.648
363.266
364.943
378.405
378.6
383.555
387.842
392.06
395.923
403.577
406.479
405.789
401.347
397.913
394.631
403.646
412.966
382.301
369.656
364.418
363.065
361.271
355.564
355.951
347.474
346.986
341.668
337.85
335.845
335.436
340.547
338.089
351.406
339.898
356.747
352.931
363.778
389.651
399.147
390.659
384.798
381.766
376.962
388.978
426.448
443.264
407.649
381.538
424.758
395.795
383.398
372.923
357.518
348.233
332.314
326.903
315.639
320.936
314.186
300.479
295.746
289.681
287.607
293.901
306.243
313.267
316.248
325.707
334.206
341.006
344.273
342.994
341.698
340.151
341.048
357.486
362.058
325.917
323.881
314.924
307.752
299.808
290.031
282.694
278.459
270.792
276.813
271.28
278.944
275.959
286.699
285.864
280.071
300.443
290.566
318.266
318.018
340.835
352.389
371.476
375.433
373.653
377.412
379.704
369.41
364.495
364.991
324.842
327.746
321.782
317.07
327.37
361.228
398.015
425.334
439.27
452.911
462.911
458.229
461.132
445.591
418.456
388.868
364.498
345.232
325.118
293.989
280.741
275.673
280.698
270.04
270
272.916
282.033
277.51
273.166
270
301.317
321.326
275.493
283.131
368.089
437.345
447.213
448.799
456.168
460.34
460.557
466.195
472.943
482.169
482.713
482.494
478.619
482.535
465.616
468.251
455.651
455.524
459.787
431.017
342.866
349.526
354.645
324.807
278.242
302.984
751.846
700.159
711.426
796.918
858.159
872.574
867.091
859.34
829.756
788.508
782.398
859.104
920.734
950.307
511.912
568.31
637.607
668.165
642.019
605.212
592.684
590.207
588.557
586.941
580.701
564.725
534.967
501.328
487.37
512.386
577.305
645.647
695.909
724.497
747.971
768.565
780.725
783.668
767.417
741.279
702.991
661.801
629.682
579.9
510.688
550.702
569.206
580.909
583.444
567.015
528.856
506.413
502.874
494.902
489.752
498.079
511.1
526.848
543.47
546.039
542.327
539.215
530.163
522.488
519.81
520.713
518.413
508.977
494.244
475.527
477.785
496.122
523.686
525.324
409.945
389.533
405.141
413.905
416.931
412.788
411.07
413.991
418.952
423.858
420.154
409.249
400.569
398.326
399.54
405.703
408.966
413.459
422.21
421.318
430.035
422.471
429.78
429.382
435.236
444.824
451.674
456.986
454.961
464.085
519.047
514.396
510.811
510.312
521.295
532.848
555.483
558.03
582.771
568.645
563.97
556.762
534.861
524.909
508.061
501.087
486.147
479.436
463.773
446.856
429.57
416.868
412.237
410.38
403.971
402.436
406.595
407.088
405.966
408.233
410.283
408.529
402.471
388.442
394.115
402.091
412.68
420.844
429.692
439.101
450.618
461.99
473.197
481.543
497.986
508.697
523.281
521.434
523.484
513.698
514.421
504.715
481.834
461.181
441.108
432.954
430.959
437.818
452.273
457.384
319.592
302.757
304.559
345.272
354.628
345.044
321.95
312.073
298.779
314.068
318.418
338.937
335.632
349.469
343.964
346.435
339.045
335.38
322.773
316.898
303.6
287.902
283.847
276.823
284.334
292.439
294.642
295.418
297.147
285.581
427.396
414.578
408.561
404.684
402.174
399.23
396.799
386.895
386.344
372.107
373.034
360.208
364.27
360.045
362.309
363.323
374.713
382.673
386.081
391.174
393.908
399.162
404.212
407.545
407.842
405.159
401.769
408.573
412.707
418.987
380.855
367.598
366.163
363.758
363.158
351.81
357.413
343.647
351.092
340.514
343.569
340.661
337.491
347.917
339.132
355.698
340.147
362.518
351.393
362.703
386.474
399.035
398.967
392.091
385.774
379.221
402.112
442.94
458.318
420.555
388.576
412.011
394.631
386.776
372.079
354.248
343.501
324.908
330.748
317.297
322.539
309.056
317.228
306.821
308.13
299.73
296.092
291.278
306.549
318.376
315.657
325.249
335.826
341.355
343.243
346.059
342.962
352.612
367.184
375.671
335.765
326.021
319.327
310.26
299.933
290.319
281.155
280.219
279.884
287.943
285.995
293.729
301.331
295.706
306.873
290.981
305.474
293.006
315.041
316.182
336.293
350.689
369.559
377.71
376.964
379.527
377.141
362.425
354.963
357.517
326.782
327.161
319.8
318.481
337.637
376.541
413.548
436.985
453.34
467.548
473.056
479.398
469.898
447.145
422.775
394.82
362.722
342.338
319.243
293.396
273.003
274.907
271.754
270
270
274.395
276.6
274.288
273.91
270.436
296.962
336.044
312.287
332.654
405.224
444.823
449.582
451.351
457.11
460.787
469.677
480.16
486.862
491.026
494.228
494.777
479.798
490.374
471.131
469.586
456.428
452.462
457.18
459.94
369.34
311.436
333.47
298.911
283.77
319.98
745.914
698.947
755.209
858.565
887.595
874.539
874.862
884.075
866.689
825.429
817.478
879.414
928.587
954.629
512.525
569.263
644.095
681.069
663.9
623.884
598.436
592.257
590.707
589.375
587.444
574.666
541.432
501.963
494.166
536.679
619.869
683.601
713.36
734.807
755.572
782.763
795.524
799.946
783.266
750.51
703.722
658.437
626.984
578.524
505.66
544.881
565.173
579.223
572.49
541.592
502.172
495.008
494.003
493.334
489.319
498.586
512.888
534.893
542.032
544.755
546.093
528.273
524.015
510.062
508.341
504.657
505.685
510.828
499.342
485.813
481.217
501.618
524.869
525.513
407.3
397.514
405.727
416.179
413.069
409.168
407.59
412.116
415.55
419.654
417.325
406.515
399.182
394.37
397.604
397.371
409.048
410.839
419.849
421.983
427.301
419.902
426.937
431.493
426.444
446.28
446.91
456.385
455.143
467.511
520.997
511.014
504.99
507.422
514.45
525.902
547.891
547.4
575.491
555.971
556.543
545.197
530.712
523.078
505.944
500.615
484.59
475.261
461.445
444.978
427.394
415.968
412.666
412.856
409.615
410.131
411.949
411.279
409.66
415.205
411.441
403.664
391.038
387.571
391.438
397.053
408.197
417.049
422.778
430.665
443.281
455.871
466.455
477.093
495.945
515.118
529.476
530.787
524.459
526.979
519.166
510.428
487.51
465.157
445.581
434.526
431.713
438.266
453.051
455.305
323.302
304.962
328.692
359.523
357.407
345.553
318.215
309.668
298.147
319.117
324.192
346.929
345.078
357.715
354.457
359.492
353.974
347.122
344.253
327.141
317.978
301.923
289.543
284.351
289.824
298.355
302.678
304.171
304.62
314.591
431.656
417.974
409.255
403.059
399.795
396.465
392.991
383.898
383.601
371.3
366.947
361.423
358.055
358.856
364.1
362.854
375.07
381.282
390.439
392.823
398.323
400.839
405.786
409.919
410.635
406.857
411.569
419.257
410.656
409.208
387.183
369.548
370.608
360.163
365.048
348.724
357.027
341.912
350.705
338.578
339.008
340.303
332.027
348.709
343.084
351.261
349.657
363.867
350.645
370.128
382.166
398.478
404.774
400.184
389.208
391.053
432.148
459.676
462.441
427.102
402.203
409.511
401.069
391.145
374.202
353.129
340.404
328.181
330.681
316.047
327.491
314.234
314.347
299.721
302.218
296.777
304.99
296.574
298.854
318.296
316.771
321.49
332.4
339.621
341.948
342.549
344.57
361.76
370.8
366.437
346.603
340.046
328.528
312.583
301.708
291.724
284.727
280.14
287.531
292.727
299.23
305.105
301.39
305.55
311.717
303.007
309.84
300.377
313.002
319.433
334.84
352.125
367.812
379.582
379.357
381.454
374.62
358.967
344.407
336.113
328.701
328.264
320.598
320.687
348.553
389.062
422.581
444.244
468.315
466.285
485.439
473.625
467.011
453.699
431.002
391.119
358.26
334.454
320.455
287
270.658
270
271.897
270
270
270
271.863
273.098
272.808
272.162
293.351
350.443
353.311
373.91
425.302
447.721
451.133
453.722
458.51
466.964
476.299
482.562
490.39
498.493
495.19
501.958
482.971
487.962
475.482
469.029
455.393
450.257
452.674
461.373
417.279
290.224
294.731
275.335
305.369
317.097
737.902
703.904
798.753
885.763
885.211
844.112
851.735
896.525
901.407
872.931
862.721
910.298
940.447
951.333
833.979
643.023
521.783
570.946
643.803
690.445
694.428
661.683
629.194
613.966
609.11
610.68
607.724
593.8
553.585
507.333
502.656
560.913
647.983
692.779
715.359
733.579
761.639
790.625
800.55
797.791
782.751
745.203
694.575
651.077
612.848
563.781
525.258
505.659
506.362
535.102
556.344
565.223
557.142
513.737
489.516
485.004
491.863
489.379
486.869
493.966
514.337
532.92
541.292
549.185
536.208
520.521
515.893
503.339
505.082
504.598
507.716
501.061
494.42
485.763
490.214
501.085
514.577
510.881
481.806
454.351
423.132
401.188
410.258
414.311
413.401
406.277
406.611
410.721
414.165
420.504
419.87
408.616
402.049
395.19
394.119
396.316
399.329
407.023
415.314
416.676
424.096
416.485
424.807
425.036
433.558
439.226
451.061
452.737
453.972
467.756
491.643
511.769
513.956
509.658
505.071
501.088
509.617
513.916
534.896
533.081
550.648
542.923
542.998
531.75
519.904
510.978
502.746
496.805
479.308
468.04
453.599
438.351
424.543
414.863
413.409
414.61
413.835
416.88
414.743
408.753
407.285
410.891
412.482
422.101
412.124
402.565
391.389
388.898
393.23
396.247
402.213
407.964
411.858
420.39
431.872
444.759
454.963
466.457
484.525
506.412
519.455
528.831
522.553
530.253
511.428
506.773
482.402
463.239
444.234
433.025
432.452
439.831
451.255
431.587
355.715
323.316
318.392
322.561
352.014
363.696
361.478
344.439
318.957
305.501
296.637
313.203
323.64
345.322
347.432
357.996
362.255
359.749
362.193
356.581
344.893
335.033
326.058
307.475
295.86
289.964
294.297
302.889
308.789
315.878
368.238
404.79
416.201
414.884
418.336
412.431
403.42
398.579
395.303
392.583
389.072
382.324
381.751
368.252
367.816
356.772
361.455
359.338
368.294
364.531
374.63
384.331
392.372
395.59
399.268
403.101
408.397
412.534
414.204
420.432
427.228
413.421
402.814
394.137
391.045
394.217
374.658
365.566
368.45
357.033
364.322
346.568
354.796
340.015
347.923
336.197
340.594
338.415
333.733
350.774
345.638
343.912
365.26
354.999
356.393
374.915
381.46
400.516
408.107
404.982
390.435
423.52
460.822
451.136
439.79
416.778
402.621
394.019
401.365
404.241
399.822
393.859
375.237
355.506
343.006
331.775
324.41
322.182
331.93
312.656
318.024
307.442
304.331
303.28
307.742
301.036
304.284
314.91
319.661
322.151
330.451
341.146
347.202
350.827
365.864
382.464
366.753
358.781
348.365
350.906
350.995
347.135
326.461
313.825
303.147
294.367
287.126
282.252
293.375
296.215
301.063
304.34
306.795
303.809
321.793
306.126
314.817
311.104
310.726
333.875
334.826
355.58
367.433
380.462
380.571
383.251
374.537
362.604
349.263
338.09
336.344
320.311
323.813
323.444
318.35
323.372
353.901
393.841
426.645
445.297
471.747
465.16
487.976
471.658
473.099
449.817
424.387
388.581
350.377
330.497
316.769
285.279
270
271.563
270
270
270
270
272.269
270
270
270
270
335.048
363.489
378.528
381.295
400.03
435.299
449.433
452.54
454.367
459.697
471.252
475.033
483.35
493.157
502.259
491.761
499.607
481.375
486.545
472.675
469.646
451.359
446.79
449.856
459.523
441.793
297.109
283.328
292.327
293.146
309.066
519.693
536.213
741.987
721.295
835.31
888.666
852.71
771.933
783.514
871.928
929.127
919.247
910.752
935.475
948.569
954.298
866.368
664.794
534.994
565.287
630.884
683.696
720.25
720.285
700.051
686.428
674.657
668.141
657.208
627.625
571.992
511.849
506.425
578.276
661
695.001
707.141
726.33
759.453
784.941
792.248
788.737
766.421
726.596
679.621
640.8
604.017
563.498
534.188
507.529
506.208
520.17
537.169
548.831
535.914
499.014
482.269
485.248
486.562
490.224
484.393
494.321
509.941
531.262
541.812
547.839
527.214
519.915
510.168
497.631
495.08
496.389
497.901
499.05
496.836
492.527
498.435
513.921
519.815
508.178
468.214
444.92
425.575
402.944
412.615
415.505
413.753
409.248
408.156
411.546
412.963
418.903
421.531
413.881
404.411
397.199
394.69
393.18
401.689
404.504
409.533
408.775
418.864
413.71
426.588
424.278
438.33
442.01
452.778
453.267
460.429
475.031
498.995
513.858
509.952
509.139
503.394
499.147
501.666
505.633
515.028
519.583
528.293
525.468
523.367
518.765
507.832
502.424
489.449
485.116
464.499
456.059
443.554
429.515
419.385
414.428
414.29
417.723
419.774
421.841
413.225
406.812
405.134
411.388
412.861
414.718
415.06
401.136
383.419
383.407
392.287
396.161
397.971
400.19
403.747
408.945
418.726
430.151
440.516
451.379
464.29
478.855
501.363
508.47
515.5
507.164
502.877
489.06
469.319
454.001
437.941
433.416
436.375
448.306
439.84
379.992
337.468
316.747
316.676
340.647
356.173
366.495
362.493
350.604
321.875
305.262
290.68
305.735
312.771
336.359
342.861
356.686
355.619
362.059
358.214
356.391
347.758
338.604
322.716
308.762
297.526
294.191
299.109
306.875
316.494
358.685
415.419
421.101
423.311
428.229
430.662
418.583
403.836
395.718
391.656
389.413
386.682
380.793
378.546
368.215
369.208
357.874
355.653
356.108
365.07
367.38
379.061
389.018
394.628
396.617
401.734
404.679
409.535
410.604
411.793
419.28
422.374
412.51
406.918
397.636
393.633
384.239
374.221
364.308
365.828
355.193
361.995
345.575
351.528
337.435
344.764
334.866
339.482
339.139
335.875
351.311
343.121
349.306
368.992
347.885
368.608
375.818
385.714
402.778
410.427
403.415
399.85
470.751
441.118
425.634
420.305
410.653
410.194
406.928
415.985
417.867
405.844
401.242
382.463
361.226
345.959
330.341
329.353
330.604
325.193
313.707
316.595
302.764
304.807
305.41
299.543
313.286
317.955
317.874
319.359
328.158
333.655
340.394
346.297
355.076
382.546
379.3
367.156
363.976
371.888
378.896
378.558
366.491
340.216
322.745
310.614
299.984
292.78
283.62
293.293
298.789
313.481
309.966
307.273
322.095
324.155
315.348
325.042
318.354
320.478
339.772
340.228
359.717
367.833
378.104
380.522
382.437
374.962
366.652
350.106
347.661
349.334
333.672
327.172
324.118
320.518
324.009
354.688
394.922
427.778
442.964
468.485
464.663
476.903
467.78
462.907
443.394
412.949
376.433
343.84
324.474
317.316
280.132
270
270
272.62
270
270
270