/*--------------------------------*- C++ -*----------------------------------*\
| =========                 |                                                 |
| \\      /  F ield         | OpenFOAM: The Open Source CFD Toolbox           |
|  \\    /   O peration     | Version:  2.1.1                                 |
|   \\  /    A nd           | Web:      www.OpenFOAM.org                      |
|    \\/     M anipulation  |                                                 |
\*---------------------------------------------------------------------------*/
FoamFile
{
    version     2.0;
    format      ascii;
    class       volScalarField;
    location    "0.006250000";
    object      Xi;
}
// * * * * * * * * * * * * * * * * * * * * * * * * * * * * * * * * * * * * * //

dimensions      [0 0 0 0 0 0 0];

internalField   nonuniform List<scalar> 
12384
(
7.52188
10.5491
11.9374
12.865
13.6139
14.0892
14.3818
14.1474
13.7636
13.1015
12.1595
10.873
8.67965
5.49684
23.6134
26.3261
27.2574
27.667
27.3729
26.9463
26.854
27.3024
28.1604
29.8455
31.8004
34.3065
36.7586
39.4281
42.0226
44.5735
46.7875
48.3611
49.2695
48.6477
46.5907
44.0719
42.1879
40.293
38.4726
35.9654
32.0407
26.6204
20.2428
16.9902
28.1831
29.3506
30.1967
31.0549
32.3842
32.5963
33.3545
33.4385
34.5149
36.1719
38.891
42.2175
45.4269
48.9328
52.0683
55.2746
57.6322
60.4737
60.4589
61.9666
60.1017
59.6497
57.5567
55.1966
51.555
46.8471
40.1379
31.3364
21.1733
20.5785
35.9892
43.5085
45.3953
46.5548
45.1803
46.9928
47.0866
50.8315
54.3132
58.8792
63.8588
69.5954
75.785
82.0792
87.739
92.3104
94.3674
94.4815
87.1087
85.9612
78.4937
75.6115
68.6351
62.1253
53.7119
44.2415
36.4998
31.3479
30.1331
32.6185
27.9921
38.0927
47.9654
55.7182
62.2251
68.5597
74.0851
79.0524
83.2412
82.8757
85.6989
78.2894
75.9735
72.5832
69.7899
67.6196
65.4444
63.6537
62.3879
59.9058
55.3821
50.4697
44.5153
39.5793
35.6669
34.0304
35.0491
35.8842
35.2551
32.1035
22.8087
27.3006
30.9423
32.8616
33.1673
33.4367
33.6243
34.5715
36.5743
39.9643
44.0358
48.9994
53.7519
58.7
61.6914
65.396
65.198
66.1719
65.1617
65.6492
63.9512
62.7701
60.994
58.3808
54.8157
50.0153
43.9273
37.6855
31.3014
29.1474
29.8095
36.2446
42.3907
43.1032
45.1177
52.0041
59.6512
72.304
81.5367
92.6464
100.929
106.248
111.455
113.01
113.395
112.297
110.387
109.765
107.597
106.093
102.443
96.9682
86.4479
75.7632
69.3702
62.6915
59.8191
56.5035
53.8916
55.1704
29.1913
27.1033
30.5883
37.9197
46.3355
54.5422
61.8933
69.9967
74.7336
83.0738
83.9242
89.8992
87.982
88.8118
86.4047
83.1636
80.1402
75.7782
71.6467
66.0684
60.5109
54.0502
46.5824
39.0919
35.4676
34.0082
33.1839
33.0201
33.2616
33.1043
32.8537
38.8867
48.5106
58.7352
68.6191
78.0905
86.5543
94.1186
100.279
105.227
104.343
104.778
100.67
99.4199
92.1503
88.8943
79.9916
73.5289
64.1563
57.1691
49.5438
41.1977
35.1247
32.7678
30.9371
30.5933
29.8227
28.5396
26.7052
25.2062
32.8444
36.994
39.7057
42.9819
49.1704
56.949
65.8669
74.4558
83.2108
92.3891
96.9542
105.433
104.146
105.075
102.234
98.4975
95.7976
91.8445
86.427
80.6684
73.8442
64.9942
50.9968
42.9311
40.6391
40.7884
40.1502
40.7833
40.6934
41.5456
41.5065
47.7884
54.268
60.4213
69.1609
80.089
91.9343
103.89
115.179
124.853
129.296
136.736
132.408
133.895
120.35
121.314
109.217
97.9246
93.173
83.7939
72.1259
57.6056
45.0577
40.9222
39.8003
39.6606
39.8922
40.1904
40.4138
39.7379
35.3808
38.4736
45.6525
47.2982
44.2742
46.8444
52.2614
55.5885
56.7481
57.9943
58.2425
59.5425
65.6418
68.2885
68.7222
68.8537
66.9929
67.5594
68.1816
71.8052
74.7601
79.8381
83.0683
85.0911
83.9172
81.3783
78.1448
73.2039
62.3581
45.3014
17.8382
22.3486
21.7467
21.441
25.3972
46.6546
73.6336
49.721
43.2434
46.6155
49.908
52.4466
54.5287
56.4627
58.3963
59.3795
58.9623
56.641
52.2457
47.54
41.1935
34.8663
29.0739
24.6903
20.7004
16.5828
12.5125
8.62122
5.31379
3.76952
11.602
9.08223
9.69019
10.675
11.9147
13.0062
13.8506
14.1274
14.0044
13.3849
12.5583
11.5612
9.94291
9.52468
24.4833
20.2577
20.4375
19.7205
18.6019
18.0768
18.3531
19.2276
20.4466
22.0042
23.9267
26.3609
29.3954
33.0086
37.1877
41.7537
46.2893
50.6713
53.8023
56.113
56.9649
56.7869
55.2341
53.0949
50.2377
46.6084
40.6262
32.8494
24.7413
25.5213
30.312
23.0982
24.128
25.144
26.056
25.9869
25.9822
26.0314
27.4839
30.153
33.7674
37.9635
42.5035
47.5618
52.9121
58.5773
63.5388
68.4687
72.0954
75.754
76.3364
76.9421
75.2338
70.9546
65.274
57.5855
48.4341
39.0386
29.2618
28.9204
37.9996
34.6245
35.487
35.081
34.3013
34.8929
35.3834
37.864
41.5246
46.9089
53.7271
62.1088
71.8212
82.4189
93.2547
103.632
112.506
118.408
122.409
121.675
116.99
110.908
102.061
91.6742
78.3436
62.4455
45.3889
26.8683
21.1276
36.3651
27.9164
33.572
43.4084
52.8736
62.0338
70.6898
80.392
87.8793
100.141
102.938
112.36
111.978
111.6
107.583
102.465
95.4472
87.7379
78.7186
69.1109
59.0617
48.1781
38.8378
34.6214
34.7008
35.9907
36.0315
34.4618
32.7597
31.2152
36.7966
27.2457
19.4251
21.0327
20.9846
20.7246
21.6022
24.5139
29.8241
36.4516
44.0598
51.8547
60.0369
68.1151
76.2471
83.1005
90.4772
94.58
97.6896
98.0371
96.8066
91.8401
86.2949
78.7839
70.6019
61.0385
51.1295
40.582
31.3636
23.7548
33.9541
33.3712
22.4898
22.3969
26.0301
36.076
50.1932
63.1122
77.2793
89.2326
100.884
112.263
122.572
131.606
138.827
144.211
146.482
146.465
144.338
139.504
133.225
123.982
113.002
98.4351
78.4323
66.1948
52.2122
38.6655
34.9946
38.9184
64.0059
32.0007
19.2442
25.9655
35.9849
46.2429
56.0609
66.5458
76.8052
86.0339
96.4059
103.665
111.116
114.745
116.424
115.47
112.184
106.388
97.9569
88.5372
77.3543
64.1962
51.6517
40.5751
31.9683
28.6901
28.2912
27.4705
27.0198
27.5664
35.2677
37.8737
32.5014
44.141
57.0754
69.9251
82.6822
95.3666
108.524
118.854
129.518
136.557
140.296
142.042
138.263
130.324
121.303
107.636
93.7313
75.1172
58.7552
43.774
32.5658
26.6493
26.8032
26.7206
25.8524
24.3036
22.6047
21.1134
29.8281
35.1346
21.2181
21.9459
29.8169
41.4709
54.8495
69.0297
83.3964
99.4842
113.289
127.194
141.92
148.19
152.033
152.324
145.482
133.56
122.287
110.085
95.0719
79.9826
65.8111
51.8731
37.7399
28.4717
28.258
27.7175
27.873
28.3848
41.8651
43.6288
27.1961
31.128
42.9894
59.6969
77.7012
96.4401
115.482
132.827
152.134
168.002
179.507
183.952
186.129
178.587
166.801
144.012
129.443
109.798
88.3075
69.1888
52.7498
39.2523
32.8577
31.0561
30.9409
30.2417
29.8135
30.2176
40.9243
40.4178
23.4785
27.5282
32.9545
42.0836
55.8433
69.3489
78.2364
82.9413
85.0161
85.9337
85.5645
84.1562
80.9227
77.0795
71.0714
65.865
59.249
54.2035
50.9639
51.26
52.8141
56.7483
60.6014
65.0287
67.4069
69.2178
67.5834
59.2591
66.8096
19.8621
19.2288
18.454
20.6609
34.4529
53.1335
50.6956
40.9923
47.1379
55.3205
61.5643
65.6941
67.7453
67.9814
66.8024
64.883
60.8541
56.8652
51.9607
46.87
41.1792
34.3382
25.8805
18.6591
14.8087
12.6256
10.2462
7.50215
4.85935
5.30181
13.6622
10.282
11.2326
12.9298
14.7197
15.7882
16.5527
16.6463
16.0904
14.8911
13.3685
12.1655
11.092
11.2334
25.845
20.5171
19.2099
17.7846
17.2565
18.3559
20.3655
22.1468
23.6649
25.0404
26.6338
28.5385
31.1481
34.419
38.197
42.3662
46.1335
49.548
52.288
53.5301
54.1062
53.3674
51.7734
49.9152
48.137
46.4081
43.4686
37.7423
29.9358
31.5722
31.6576
23.4828
23.4337
23.668
24.1021
24.0513
25.1969
27.2487
31.2219
35.8468
40.0905
43.2014
45.5273
47.7838
50.6868
53.6761
56.8613
60.9145
63.7855
66.2885
68.9648
70.6063
70.5745
70.2939
67.1897
62.1798
54.514
45.4287
35.9302
36.7655
39.9897
36.0086
34.9242
34.6496
35.5752
37.8528
40.3242
44.1879
48.8137
54.1905
60.2149
67.1009
74.9126
83.4622
92.3209
100.745
108.103
113.763
116.121
117.978
114.292
110.344
102.922
96.1436
86.8493
73.8929
57.7387
39.0841
23.5391
37.5313
33.0297
42.6471
55.0759
65.0992
71.868
77.5459
81.9951
85.8049
91.3836
95.1573
101.149
101.566
102.624
99.5945
97.0005
93.3288
88.5764
83.146
76.1324
67.9536
57.6875
46.9547
38.5617
34.2006
32.6053
31.6613
32.3906
34.079
33.6081
38.5876
30.1321
19.9641
20.4806
20.3853
21.2946
24.3516
29.4606
35.9489
41.9303
47.4765
52.5723
57.7855
62.8637
68.2621
73.2549
78.3068
81.5473
85.5943
86.7392
87.7891
85.1681
83.011
78.0788
72.1111
65.1197
56.4871
46.9347
36.897
28.2816
38.3651
37.3697
21.9653
21.7506
33.4114
49.3578
62.0609
68.9366
77.6696
84.5315
97.1094
105.138
116.601
125.006
131.123
136.441
139.57
140.779
140.383
137.53
134.074
127.91
120.338
109.492
93.2983
76.9744
65.0084
49.3506
35.5521
36.4429
66.5597
32.51
23.1043
33.2148
45.0018
55.6445
65.0166
73.2477
80.7692
87.7601
95.6042
100.557
107.439
110.14
112.909
111.568
108.697
106.505
99.6334
93.5908
84.8689
74.5004
61.9141
50.1429
39.7418
31.2857
25.6395
23.4988
25.3778
28.4216
35.5587
41.7207
42.6921
57.1086
70.7537
82.3702
92.416
101.7
111.309
118.888
126.822
132.875
138.2
138.104
137.796
132.113
126.844
116.634
106.772
90.3742
73.6952
56.4613
43.1701
30.7679
24.5587
22.5429
22.8891
24.0484
23.6673
22.4206
32.0726
37.4664
21.3156
25.3217
38.347
54.6481
70.991
86.3961
100.985
113.381
126.935
140.886
149.999
159.321
164.342
160.8
159.404
149.429
134.885
123.053
110.993
96.2885
81.0607
66.18
51.4818
35.2415
25.6116
25.2019
28.2109
29.7374
42.5616
47.8251
29.3275
37.369
55.8593
77.0712
97.0807
116.08
133.395
148.579
167.831
178.389
186.15
191.096
192.857
184.993
179.365
160.119
146.528
124.927
108.36
86.6152
67.3262
50.9451
37.0698
29.4691
27.8368
29.6431
32.5404
34.4395
41.8836
43.0279
24.86
30.4059
39.4316
52.446
66.1875
74.3469
77.4705
78.5899
79.416
80.4692
81.6506
80.6977
79.4257
76.8276
74.215
70.5212
67.1794
63.7498
60.7761
59.3095
57.7577
57.4389
56.687
58.3272
61.4595
63.926
66.193
63.501
74.9816
25.4149
21.6274
19.1438
26.4058
48.4352
56.96
44.4651
48.875
56.5101
62.5913
66.3594
68.1727
68.7384
68.9473
67.8998
65.7355
62.6031
58.7652
54.4155
50.2654
45.4351
40.902
33.8959
23.3596
12.6661
7.91443
6.33493
5.01363
3.81451
5.32965
14.7426
11.9038
14.1733
16.3444
17.2515
17.2974
17.2588
17.1286
17.0862
16.433
14.7087
13.0773
12.2873
12.4489
27.8632
21.9502
18.9764
16.9397
17.2845
19.7851
22.5127
24.629
26.2586
27.7766
29.3303
31.3224
33.907
37.2627
40.4233
43.4095
45.477
46.8411
47.1001
46.803
46.0855
45.5081
44.9683
44.5158
44.3583
44.4862
43.9442
40.7254
34.0731
35.2355
33.0014
25.1521
23.5767
22.5231
22.1122
22.1404
24.4902
28.5477
34.5642
40.7679
45.3446
47.493
48.3018
48.6737
48.996
49.87
51.9567
53.9346
55.5277
58.1908
60.0194
61.021
63.4336
64.6848
65.2085
63.2712
58.4447
50.5001
41.3729
41.8537
42.1433
40.2495
36.5255
35.3
37.1505
40.1372
44.4262
49.5101
55.5677
61.4092
67.3406
73.4651
79.3271
84.6543
89.501
93.8966
97.9247
100.721
104.736
104.25
105.473
103.156
100.194
96.8798
90.4834
81.0535
66.493
48.6261
29.8219
38.0169
41.4464
52.6035
65.2697
72.9038
76.5561
76.9295
76.7546
75.7837
77.7505
78.349
81.2492
83.2987
84.9265
86.5906
86.6556
86.4591
85.296
83.0472
79.4162
73.7343
65.8362
55.9681
47.1099
39.4709
32.6558
27.5815
29.584
34.7696
34.9709
39.24
32.5349
21.3612
21.028
21.0073
23.3438
27.735
33.9828
40.2529
44.9659
48.6434
51.8848
54.8679
57.8811
61.2589
64.1719
67.2045
69.9567
71.8853
73.6327
74.297
74.0964
74.5181
72.1802
70.2422
65.6681
59.6607
51.5547
41.9392
32.3843
41.5769
40.0253
21.2372
27.0743
44.8323
56.0246
58.7084
62.3337
70.557
79.077
89.1132
96.5537
106.285
110.944
119.683
124.286
127.585
130.56
131.303
130.401
129.42
126.398
123.002
116.171
105.429
87.5083
73.3506
60.1046
42.466
34.7927
67.063
32.8386
27.401
40.2642
52.912
62.7806
70.1766
75.1944
80.0801
83.885
88.8071
92.1112
96.2116
99.7359
100.897
102.915
101.434
99.8498
97.2253
92.7876
88.675
81.24
71.0085
59.0548
47.6778
37.6898
28.9855
23.3081
25.2636
28.6566
35.0818
49.0709
52.9313
67.5444
80.1547
89.3187
95.8294
102.559
107.512
113.043
118.527
123.808
125.773
128.814
126.618
124.42
124.287
117.14
113.38
101.968
86.6541
69.0722
54.1394
40.7919
29.3403
21.6114
20.7142
24.2386
24.0172
21.9208
32.963
39.4065
21.4738
30.5361
47.9182
67.257
84.387
99.6598
110.839
121.477
131.548
138.722
149.867
157.554
156.987
159.848
154.879
152.963
144.095
131.515
121.033
109.662
95.2923
79.9321
64.6707
47.6891
31.9591
24.4152
28.543
30.3909
42.5458
50.4839
31.506
46.0455
69.3179
92.4188
112.495
129.603
144.768
159.121
170.401
178.341
184.199
188.447
189.987
189.055
182.925
162.426
156.19
137.777
123.755
101.89
82.7077
63.8136
47.0551
33.7301
26.7795
28.5256
35.0015
38.8544
43.1281
45.5238
27.9608
36.07
48.5627
62.6959
71.8977
74.4785
74.6876
74.9769
76.7002
77.8329
78.6615
78.4631
79.3585
79.0702
77.7722
76.1034
74.1626
72.2268
70.4485
68.6348
66.8802
60.8854
56.8716
54.696
55.7853
59.9792
66.3079
68.4395
79.6132
31.2123
23.8119
26.8597
42.3566
58.8295
49.3282
49.2334
56.1437
62.4749
66.0399
67.3773
67.6086
67.6703
67.0387
65.9965
64.4706
63.0852
60.5307
57.3137
53.6257
48.4228
42.4512
36.748
29.1194
15.6023
7.10073
4.88623
4.18069
3.87629
5.73341
15.9236
14.3101
16.905
17.8123
17.1179
15.9144
15.1342
14.9633
15.5148
16.1231
15.8061
14.2494
13.6133
13.3948
29.7745
23.5076
19.0091
16.6192
17.6629
20.9128
23.9311
26.1859
28.0213
29.6796
31.5827
34.1728
37.4294
41.1217
44.1201
45.7568
45.1099
42.514
39.6927
37.2315
35.6201
35.3621
36.0826
37.5996
39.5497
41.7572
43.4187
42.5831
37.5909
37.7205
34.5063
27.2372
24.0456
21.5649
20.3901
20.8681
24.4123
30.4349
37.7399
44.6788
49.4114
50.9234
50.9185
49.3523
47.9664
47.5958
47.5738
48.418
49.8678
51.7848
52.6391
54.4461
55.9299
58.7998
61.3751
62.4802
60.571
54.7562
46.1084
45.1823
44.0555
45.6414
38.9464
36.4893
38.0046
41.6846
47.5287
53.7659
60.9136
67.6503
73.6413
79.9077
84.4291
86.5841
86.7225
85.7484
84.5795
84.8903
85.3749
88.8335
90.0889
93.2293
93.8744
94.4002
92.0206
85.4724
72.7899
55.364
35.6616
38.4468
52.1167
61.7828
71.8916
77.2423
76.7587
74.1079
68.6824
65.0644
62.4283
61.2961
63.2308
64.5858
68.047
71.0985
74.7079
77.371
79.6839
80.417
79.8928
76.5859
71.2074
63.1552
55.0181
46.8923
37.2715
27.4451
28.0418
35.3474
35.4309
39.7988
34.874
23.0896
21.9286
22.4702
25.3068
31.1883
37.857
43.2556
47.2179
50.289
52.5691
54.2694
55.6647
56.5434
56.8952
58.121
59.374
60.7295
61.7648
61.8629
63.5599
64.1342
64.8173
65.3956
63.8162
60.3368
54.0231
45.5206
35.6455
43.486
41.3231
23.0752
36.7996
49.9335
50.6615
55.0196
64.1479
74.4504
84.2192
88.1268
93.2006
93.0377
95.9782
95.7914
100.265
102.386
106.589
109.097
115.253
118.244
121.734
121.911
118.807
112.03
95.5817
79.4876
65.7351
48.3946
36.3302
66.6172
33.3563
31.7463
46.4875
58.8164
67.2367
72.4507
74.8327
77.0236
77.792
79.5009
80.2398
83.5711
84.5034
87.4912
88.5487
88.6257
90.3893
89.8253
90.0817
87.7207
84.8849
77.0874
66.263
54.2078
43.4178
33.6568
26.4272
26.5641
28.7959
35.2004
56.1002
60.5772
74.9939
85.4198
92.625
96.2274
99.9877
101.379
104.32
106.754
108.674
112.583
113.425
115.015
113.202
114.848
114.72
112.832
108.074
96.9197
79.2358
63.47
49.5654
36.6051
26.1828
22.4231
25.564
24.4095
21.067
32.6946
40.764
22.5065
36.4369
56.7717
76.9216
94.1336
107.557
116.625
123.426
128.193
129.85
134.877
132.603
139.466
142.221
143.568
140.661
141.123
136.904
128.084
118.672
106.891
91.8088
75.434
58.4429
40.7574
28.3392
29.3818
30.012
41.3493
52.7901
34.6451
54.7645
80.2256
104.329
123.979
138.893
151.969
162.27
166.346
170.244
173.289
176.965
178.86
174.471
177.574
162.713
158.419
141.317
134.329
114.658
95.7939
75.2843
56.4322
40.7197
29.5474
28.5177
37.9124
43.2606
44.8298
47.9889
31.7831
42.6804
56.7241
69.1795
73.2697
72.7796
72.0874
72.1903
72.7914
72.037
71.9617
73.2928
74.5275
77.174
80.2428
81.7483
80.9764
79.3842
78.3101
78.5239
74.8171
67.5694
58.2785
49.5111
49.7463
57.8212
67.5725
73.4559
81.714
35.4124
25.6687
36.5973
53.0442
57.8209
49.3639
54.5801
61.0534
64.9448
65.6695
65.106
64.426
63.2562
62.026
60.6949
59.0321
59.2081
59.228
58.5227
56.3554
52.4079
45.1341
36.8723
30.3321
19.8663
8.13285
5.11225
4.51945
4.83589
6.12649
17.0348
16.4122
18.0739
17.019
15.1007
13.6616
12.6997
12.3112
13.0069
14.8241
16.1002
15.3676
14.8329
14.12
31.5837
25.3231
19.4395
16.3895
17.686
21.349
24.477
26.8921
28.81
30.9543
33.5971
37.0064
40.9173
45.2068
47.8242
47.8261
43.923
37.9885
32.6048
28.5035
26.1635
25.9587
27.839
31.016
34.8975
39.0699
42.7531
43.9885
40.5928
38.9331
35.9877
29.5339
24.8396
20.9078
19.1331
20.1061
25.1788
32.0858
40.4002
47.3589
52.1031
53.2751
52.3759
50.02
47.9215
45.6799
44.9589
44.4856
44.6168
44.7124
46.1102
48.1787
50.5685
53.4654
57.6075
60.7633
61.554
57.7453
50.386
46.9591
47.478
50.9533
42.0904
37.2164
38.2274
42.3512
49.0651
56.8469
64.8255
72.1037
78.9513
85.4027
88.7504
88.7557
85.4112
78.5881
71.2513
65.5079
65.5621
68.7048
75.226
81.6829
86.3724
91.6546
91.9985
88.3993
77.0872
59.9059
39.7007
39.0427
61.5148
67.1299
75.9392
78.908
76.869
71.1384
62.1991
56.2878
49.4104
46.9884
46.2835
48.672
52.7482
58.014
63.5096
68.3931
73.3709
76.7337
78.1094
77.0495
73.9547
68.176
60.8254
52.8552
42.7216
31.4523
29.6524
36.0525
35.045
40.3912
37.2005
25.2393
23.5205
23.9197
27.4279
34.1059
40.9634
46.077
50.0801
53.3767
55.1527
55.8144
55.3394
53.4688
50.7788
48.5865
46.9202
47.2462
48.6614
50.5707
52.9167
54.4137
57.4555
59.5433
60.8443
59.3282
55.1845
47.7632
38.0745
44.1012
42.418
28.3257
42.5513
46.0527
49.7587
58.582
71.9615
82.601
91.2547
88.7111
86.7166
79.1127
76.9842
72.5768
73.6303
75.3655
80.5254
86.0325
94.1841
99.9488
107.73
117.009
118.421
113.308
101.554
83.7718
66.7296
49.4102
36.1605
63.741
34.7381
36.0715
51.2722
63.0261
70.3715
74.0346
74.718
74.8453
72.0702
70.5595
68.1819
67.0635
67.3597
68.8196
72.667
76.4579
78.0905
82.116
84.409
85.8768
85.1522
80.3323
70.3844
58.3721
46.4597
36.1987
28.9789
28.1425
28.4044
35.4351
62.115
65.8261
79.4948
88.4893
93.7691
96.6229
95.7458
95.1259
92.203
90.8354
90.8618
92.4165
95.8653
98.8729
103.07
103.765
110.22
108.226
110.45
102.276
86.2157
70.5051
55.8197
42.2994
31.1584
26.3322
27.2267
24.358
20.2862
32.1309
42.184
24.9327
42.2252
63.0236
83.5809
101.886
112.988
121.137
121.324
120.48
112.15
108.849
111.157
113.726
120.742
127.884
130.916
131.126
131.6
130.276
123.632
114.128
100.734
84.3589
66.1235
47.3901
33.6361
31.4224
29.9607
41.4786
54.3008
38.9409
61.7618
88.0811
113.053
132.954
146.635
153.043
157.622
152.487
153.215
147.325
149.882
147.156
152.353
159.089
151.077
156.764
142.319
138.883
122.767
106.261
84.2585
64.1085
46.4497
33.645
30.8933
41.749
47.9529
48.4349
50.323
36.1161
48.6787
62.8665
72.1338
72.4734
70.3178
68.8863
68.0937
66.0792
63.1004
62.5078
62.0054
65.3709
72.2045
79.9798
85.3069
86.5176
84.929
86.3088
85.1662
82.4731
73.4915
62.4894
44.9156
46.0804
58.5306
71.475
77.6923
82.0246
38.3756
26.7275
41.9399
56.1128
52.0332
52.1254
58.3054
63.0645
64.3793
63.7369
62.16
59.1299
55.6538
52.3843
51.2053
51.469
53.2838
54.7853
57.6933
57.0429
55.5849
49.1054
38.8309
29.1033
23.0998
10.3091
5.9309
5.60989
6.61384
6.7155
18.0868
17.5348
17.7206
15.2211
13.4683
12.3597
11.2797
10.4443
11.0304
13.45
15.9409
16.044
15.8649
14.677
33.4124
26.8744
19.9708
16.0729
16.9781
20.7442
24.0598
26.6003
28.8357
31.3981
34.8316
38.9751
43.5263
48.1418
50.8815
48.893
41.8275
34.3702
28.2283
23.0764
19.1276
18.7239
21.8259
26.2071
31.5442
37.193
42.5542
45.1779
43.0282
39.0391
37.4635
31.8584
25.7915
20.6993
18.2355
19.9528
25.7128
33.3714
41.4906
49.0143
53.7048
55.0226
54.0473
51.2834
47.7717
45.4291
43.8448
41.6763
39.6187
37.5156
36.7914
39.2782
44.0532
49.3636
54.7228
60.0651
62.1928
60.2937
53.6352
46.4589
48.6185
56.7865
44.6973
38.0655
37.6905
42.0062
49.1928
58.0385
67.0024
74.4815
81.2643
87.9403
92.2672
92.0082
86.9752
76.7242
63.6682
49.7298
44.2027
51.8216
61.1917
72.4702
80.6093
88.6834
92.522
89.7272
79.7494
62.2488
42.0309
39.7081
68.9691
69.3167
77.4605
80.877
77.4895
69.8534
59.2076
50.5409
40.7569
35.3889
32.9694
35.3919
41.435
47.8955
54.975
61.4851
68.2193
72.7605
75.8485
76.4787
74.8617
70.7148
64.1924
56.2725
46.111
35.7385
33.1675
36.7886
34.1784
40.4251
39.8959
27.5359
25.0425
25.472
29.4284
36.3228
43.0285
48.939
53.7325
57.2739
58.772
58.5136
56.4724
52.6158
46.7382
40.639
35.1664
32.8942
34.6805
39.1939
42.9706
46.8767
51.0841
54.818
57.8139
58.1918
55.6311
49.1619
39.2528
42.9645
44.9059
34.4333
42.9512
45.3056
52.9195
64.9513
81.2097
91.547
97.3282
89.7762
82.4005
71.0537
64.7999
55.9783
51.8682
50.6544
57.2671
66.0408
76.8154
85.5881
95.9312
106.547
111.726
113.391
102.045
85.4928
67.0775
48.4731
35.7869
60.1331
38.462
40.6065
55.2515
66.7037
73.7228
76.6153
76.3095
74.6588
69.3195
65.0499
57.6645
52.668
47.234
48.0617
54.4137
62.2047
68.0242
73.6806
79.0915
82.7413
84.333
81.0876
72.717
60.6366
47.9232
37.0159
29.8844
28.2375
28.7181
37.1308
68.4924
68.9813
82.2448
91.0097
95.1514
97.7628
92.7725
89.89
80.164
74.2418
67.3516
66.4874
73.2044
79.9002
90.0344
93.5537
104.01
103.047
109.91
103.945
90.1958
74.9877
59.3584
45.5434
34.1754
29.0378
27.5389
23.5092
19.4925
32.4121
43.6452
29.1184
46.4906
66.5772
88.3655
107.433
117.943
125.349
117.865
112.248
98.2348
90.2858
78.8562
78.2899
84.8434
99.3416
113.371
125.561
126.15
126.485
128.061
119.626
106.506
90.1023
70.5473
50.0082
36.0845
31.55
29.3971
41.6838
56.6695
43.0123
66.4243
93.9484
120.07
138.699
151.086
151.912
146.517
134.285
125.679
114.036
106.995
112.748
117.492
134.778
136.52
148.83
141.38
140.625
128.222
112.56
91.1546
69.3912
50.2675
36.1855
34.5714
47.3368
54.6603
55.0261
52.5129
40.4051
53.613
66.7167
72.3501
70.4998
67.4927
65.4698
62.4719
57.8609
53.2956
49.6136
50.7337
57.4539
66.8924
77.2087
86.6557
89.8426
89.8704
90.1251
91.1033
86.2065
79.6463
64.9779
46.835
50.7477
65.4031
76.3334
79.3037
79.2337
40.4694
26.6826
39.6031
50.1085
50.5071
54.2781
59.9474
63.1852
63.1075
60.9592
56.5787
50.8139
45.1688
40.7395
39.8429
42.5239
47.8256
51.0383
56.0642
57.2639
57.1625
52.0372
41.6838
29.1972
22.6398
14.3976
7.63366
7.67003
9.24071
9.28342
18.546
17.6861
16.1776
13.6817
12.6732
11.8878
10.6764
9.60174
10.0021
12.4556
15.4114
16.2905
16.5518
15.1304
35.3267
28.5586
20.8084
15.6137
15.247
18.6922
22.5244
25.4128
27.885
30.8682
34.6707
39.5362
44.916
50.0935
52.2713
48.7139
40.056
32.4657
26.7027
21.2781
16.3765
14.8701
18.643
23.963
30.0725
36.6172
42.9036
46.2397
44.7837
37.7405
39.0546
34.1489
27.2237
20.8951
17.6343
19.6332
25.8677
33.3005
41.8288
49.2529
54.0986
55.673
54.964
51.7064
48.8468
46.4159
43.7043
41.2404
36.868
32.0555
28.0115
31.3735
39.4855
46.4194
53.4466
59.6358
63.3982
61.7769
55.5027
43.8562
51.1675
60.884
47.6797
37.8844
36.0819
40.0179
47.6496
57.0245
66.8828
74.9983
81.9534
88.9369
93.5721
94.6495
89.6449
80.7866
65.4745
50.0643
39.6623
44.1573
54.8907
67.718
77.7126
86.6155
93.4036
88.7384
80.075
61.8388
43.2277
42.3385
71.6755
68.7898
78.0154
81.688
78.8498
70.9175
60.0146
51.083
39.6988
32.1571
26.3046
28.2535
35.1789
42.6879
50.5859
57.6516
64.9651
70.1666
73.5193
75.0177
74.6165
71.3267
64.9951
56.8145
46.8289
37.579
35.5393
37.062
32.9982
39.6073
42.2968
29.9117
26.6106
26.2485
30.9509
38.2199
44.8837
51.0963
56.9228
61.0926
62.6714
62.0808
59.5395
54.5431
47.136
38.6004
30.6736
24.4284
24.3574
29.663
36.3222
41.8956
47.3633
52.2037
56.0013
57.6124
55.8816
49.5778
39.3994
41.2801
48.6849
39.4501
42.6862
46.9085
57.0065
70.8435
89.4209
99.7932
104.459
93.606
84.7922
71.5173
62.7774
51.0388
41.6237
33.7548
39.6816
53.048
64.7664
77.7547
87.7736
99.5901
108.291
109.963
100.54
83.458
63.8457
46.0456
35.0043
52.7561
47.0841
45.5641
59.2851
70.6114
77.5557
80.3058
79.7825
77.3597
70.983
65.1707
56.2957
46.6488
35.978
29.315
39.3032
51.2945
60.3376
68.6343
74.9903
80.5695
82.7589
81.0455
73.2076
60.8801
47.6243
36.0762
28.6146
30.2768
35.5009
45.608
75.8598
71.5971
84.3425
94.9019
97.395
100.473
93.1794
89.165
75.981
65.6539
51.838
41.3241
52.7083
64.8158
78.316
87.1327
95.8182
99.6479
107.781
101.405
92.0281
76.5417
60.426
45.9942
34.8978
28.739
25.2868
22.1149
19.8547
35.9227
46.8762
34.7662
49.5482
68.7528
90.7543
110.739
122.026
126.206
118.001
111.079
92.4922
79.0281
62.0415
52.5408
60.5022
80.2169
95.7186
114.15
123.693
123.469
127.337
122.318
109.759
92.5855
71.7444
50.3536
35.7377
30.609
30.6142
47.7553
60.5738
47.3634
69.4388
97.9843
124.395
142.283
151.816
152.008
139.155
124.451
106.488
88.3606
75.2085
74.5153
89.5592
111.114
123.216
138.179
139.155
139.037
130.811
115.601
95.5544
72.7492
52.8686
38.3713
38.7648
53.2504
62.9642
67.624
54.3585
43.5122
56.3202
68.2856
70.7319
67.7448
64.5801
61.8319
56.2589
51.2071
42.7329
37.7234
39.6357
48.83
60.7439
75.3137
86.8094
92.1662
89.8057
92.2153
92.0862
88.1317
80.8661
68.4226
57.4313
63.6072
73.9612
79.4627
78.0345
73.7285
42.5945
25.5845
35.2892
45.3286
49.5386
55.0035
59.9495
61.9541
61.018
57.0626
51.0065
43.7053
35.3412
27.623
29.309
35.856
44.4196
49.9352
55.3263
57.8764
58.2955
53.8405
43.898
30.8016
20.9591
18.8869
12.1717
13.3828
15.6516
18.5059
18.6608
17.0688
14.6733
12.9404
12.4387
12.2326
11.11
9.87683
10.1148
12.1717
14.9309
16.1626
16.8455
16.9344
23.4941
33.1278
36.0987
29.4637
21.8869
15.7444
13.5854
15.8389
19.3077
22.3349
24.977
27.89
32.0751
37.7587
44.4621
50.347
52.4615
47.7981
39.0535
32.4799
27.3001
22.4288
17.965
16.3447
19.4484
24.6446
30.637
37.4741
43.9997
47.4613
47.0569
41.6681
44.0336
45.6279
40.3355
35.6964
28.9654
22.2574
17.7358
19.2664
25.0083
32.5426
40.7068
48.634
53.6096
55.9999
55.2498
52.7281
50.4533
47.8677
46.2179
43.5466
38.5489
32.7771
27.7012
30.3736
38.7967
47.869
55.4788
61.4296
64.0297
63.0355
56.685
44.9136
46.9206
54.1415
60.477
63.9853
49.8152
38.2567
33.9289
37.1016
44.7671
54.5906
64.5658
72.5005
79.4147
86.6387
91.9283
94.7745
92.8427
85.9191
75.1555
62.4697
53.3347
52.9072
58.8357
69.7084
78.4528
87.1649
90.5978
87.9022
76.5734
59.8873
45.5227
40.337
51.3353
55.9927
53.4994
65.8469
76.1589
82.1036
80.1481
74.1262
64.3623
56.9141
47.7342
41.0732
35.0844
34.225
38.9004
45.1891
51.5884
57.7219
64.4206
68.9694
72.1955
73.739
73.4271
70.3204
63.5461
54.681
44.8202
37.4209
37.0864
38.4139
35.9718
33.6277
44.3565
49.7064
40.7543
34.0289
29.6921
28.4554
32.3245
39.0034
45.941
52.6234
59.4096
64.2376
66.6131
66.3655
64.0255
59.2335
52.0189
43.5942
36.1239
29.4398
27.4491
30.273
36.5963
41.7612
47.5481
52.3424
56.2896
57.9877
55.6862
48.6582
38.5151
35.6096
56.3387
69.219
60.4874
51.0764
47.3396
51.1677
60.3205
75.1952
94.4376
107.785
112.577
102.719
92.3306
78.9014
69.8425
58.796
48.9969
41.8535
43.4016
53.257
65.1732
76.0938
86.0313
97.9405
105.559
106.959
97.3379
79.7652
59.5269
41.527
34.6751
41.5168
53.5237
58.9478
45.9331
52.6831
64.3112
74.7464
81.7248
84.7081
84.5456
82.0655
76.3447
71.7135
63.2715
55.9504
45.6099
39.0901
42.2658
51.7976
60.0487
67.5968
74.1801
79.6406
82.1642
80.2857
72.5168
60.3763
47.2417
35.8698
34.3379
46.2806
57.0834
59.1068
65.1582
71.9383
63.8052
78.1094
88.8509
99.4776
101.056
104.854
98.2288
94.9199
82.787
73.5754
58.6795
45.8114
49.9556
60.3256
74.179
84.8864
89.1655
100.077
103.692
98.6287
90.8051
75.0622
59.0568
44.069
32.2299
23.3964
22.5402
24.3488
28.891
38.3392
57.7118
60.2454
42.7542
41.5941
52.4106
69.4585
91.261
111.132
122.85
126.817
123.897
114.417
97.1954
87.5605
70.2039
58.0728
60.0756
75.9713
92.0691
109.717
120.261
124.061
125.483
122.26
110.458
91.7212
69.0115
46.2243
30.3041
31.2875
40.1195
50.6922
65.3714
66.9135
50.4496
54.5056
75.192
101.199
126.371
143.588
152.899
152.765
137.844
124.094
106.207
87.3105
66.5076
57.9994
71.9633
99.0091
113.807
129.34
137.567
132.735
131.373
116.029
97.7403
75.1248
55.4529
41.4166
41.5952
54.6664
64.1502
61.0884
52.2342
52.573
45.7043
47.7561
58.5451
67.9788
68.7313
65.2628
61.7851
58.8482
52.3414
46.2857
35.4451
28.1914
31.164
44.1343
58.1597
73.2714
86.7214
91.2186
88.0978
89.6884
88.6879
84.6219
80.4726
72.7146
69.1932
75.0091
80.9161
83.7572
80.0842
70.1206
52.1603
39.8751
29.7268
29.5404
34.3458
42.1447
48.0508
54.168
58.6067
60.1636
58.8404
54.0173
47.9231
39.6742
30.1532
21.9025
28.4367
36.8622
45.8499
51.2771
56.6014
58.6395
59.4656
54.9092
45.2048
32.3253
20.8204
20.0423
20.1268
22.4937
24.1175
17.0084
7.16154
3.62597
18.2267
15.8234
13.4385
12.5681
12.8252
13.6476
12.5795
10.5524
10.0044
11.5199
13.909
15.5021
16.5692
16.6663
14.2499
19.8873
32.9609
29.8712
23.0167
16.5649
12.6548
12.8728
15.0201
17.3949
19.8454
22.6508
26.7325
33.3381
41.9837
49.2395
51.9107
46.6687
38.8426
33.4313
29.4851
25.6624
22.2233
21.1119
23.1984
27.2611
32.7202
39.173
45.0113
47.8841
47.2226
42.7212
32.3883
32.0713
38.0136
36.4649
31.0336
24.0726
18.6899
18.6701
23.6036
30.5625
38.7875
46.4422
52.171
54.7484
55.3634
53.6276
52.1439
50.462
50.4663
48.223
44.7709
41.052
38.3055
40.2535
45.9743
52.5927
58.6809
63.3627
64.6981
61.8758
54.2947
41.9238
31.4295
38.9245
64.9536
64.6463
51.2632
38.2719
31.7384
33.4037
40.8916
50.8849
60.7935
68.2855
74.802
81.539
88.0275
92.6439
93.579
91.2093
83.5786
76.0122
69.7469
67.7769
68.9195
75.4839
80.4699
86.9664
87.0023
83.2332
71.3966
56.182
44.4049
37.9612
30.9692
33.832
50.4074
62.4363
73.5397
81.0097
81.8107
77.74
71.1526
65.2036
59.1489
55.0456
51.7643
50.5684
52.136
54.8174
58.7966
62.2791
67.233
69.7831
71.8555
72.9694
71.9333
67.8516
60.3922
50.0097
39.5666
32.6291
32.1541
32.3554
30.4011
31.528
35.4348
38.6143
40.5333
36.352
32.4498
30.2716
32.4594
38.2241
45.3499
52.6381
59.7517
65.9509
69.6187
70.5283
69.1207
65.5069
59.9023
53.5937
46.61
42.0531
39.5086
40.7853
43.1771
47.0743
51.5134
55.3301
58.3865
58.3555
54.4949
46.2941
38.9801
42.5397
54.7332
66.2874
65.8432
51.8562
48.9608
52.0307
60.8909
74.7399
95.336
112.121
121.761
113.382
105.02
91.6311
83.1885
73.6189
67.768
62.4933
63.1995
66.75
73.6538
81.6236
91.4464
100.211
105.854
104.061
92.9492
75.8597
57.0262
40.9341
37.6412
42.7783
45.1551
43.9975
43.839
52.4504
65.2335
76.5635
84.5088
88.573
89.381
88.0187
84.3484
81.1368
74.8439
70.8907
65.3391
61.5355
60.6502
63.7742
67.0706
71.5742
76.5208
80.6295
81.7107
79.2725
71.4751
60.4204
48.156
37.0497
33.948
40.0143
47.074
52.3911
54.2214
58.0331
67.4636
81.2671
92.1378
103.007
105.418
110.492
106.207
105.398
96.1609
90.7984
80.525
73.4183
72.7844
73.3898
81.7005
86.9253
89.9721
100.965
98.2685
95.973
86.9538
71.9363
56.034
41.1278
28.5386
22.593
28.6517
33.6597
37.1166
40.281
41.1832
41.1449
37.879
38.5934
50.1489
65.9913
87.2017
107.857
121.665
129.789
127.573
119.407
111.361
105.098
93.485
89.5397
88.0729
94.4171
105.984
111.133
118.947
124.713
125.476
118.999
107.659
89.3035
66.3923
43.5683
31.0118
35.1081
42.1081