/*--------------------------------*- C++ -*----------------------------------*\
| =========                 |                                                 |
| \\      /  F ield         | OpenFOAM: The Open Source CFD Toolbox           |
|  \\    /   O peration     | Version:  2.1.1                                 |
|   \\  /    A nd           | Web:      www.OpenFOAM.org                      |
|    \\/     M anipulation  |                                                 |
\*---------------------------------------------------------------------------*/
FoamFile
{
    version     2.0;
    format      ascii;
    class       volScalarField;
    location    "0.005300000";
    object      H;
}
// * * * * * * * * * * * * * * * * * * * * * * * * * * * * * * * * * * * * * //

dimensions      [0 0 0 0 0 0 0];

internalField   nonuniform List<scalar> 
12384
(
0.000307684
0.000242987
0.000182546
0.000156426
0.000144146
0.000140783
0.000145532
0.000152699
0.000163415
0.000186243
0.000233155
0.000338443
0.000468433
0.000157253
9.07853e-06
8.53839e-06
8.84293e-06
9.58555e-06
1.37532e-05
1.71592e-05
1.88473e-05
1.98816e-05
1.92369e-05
1.89275e-05
1.7959e-05
1.83226e-05
1.76973e-05
1.83182e-05
1.70421e-05
1.72244e-05
1.53164e-05
1.48168e-05
1.31836e-05
1.22285e-05
1.10638e-05
9.77543e-06
9.13657e-06
7.81006e-06
7.66419e-06
6.69168e-06
5.82262e-06
4.94189e-06
5.27623e-06
5.28585e-06
5.27309e-05
5.37535e-05
5.84076e-05
6.16748e-05
5.1662e-05
3.18031e-05
2.30584e-05
1.87288e-05
1.84569e-05
1.8503e-05
2.11923e-05
2.07985e-05
2.53844e-05
2.72971e-05
3.29416e-05
3.44061e-05
4.10276e-05
4.14991e-05
4.65514e-05
4.55199e-05
5.6048e-05
5.72492e-05
6.8976e-05
7.11724e-05
8.056e-05
9.20052e-05
9.85714e-05
7.17411e-05
3.13438e-05
3.19451e-05
5.8138e-05
4.83748e-05
7.97846e-05
9.48713e-05
9.72237e-05
0.000100107
9.46971e-05
9.0131e-05
8.72397e-05
8.34497e-05
7.95657e-05
7.66839e-05
7.35268e-05
6.83485e-05
6.47342e-05
6.4907e-05
5.90938e-05
6.20151e-05
5.8937e-05
6.24808e-05
6.39e-05
7.31122e-05
7.56116e-05
8.23977e-05
7.9231e-05
7.03787e-05
4.79485e-05
3.92937e-05
3.68207e-05
3.78772e-05
8.57267e-05
9.02228e-05
9.2182e-05
9.15812e-05
8.81321e-05
8.57327e-05
7.9527e-05
7.81458e-05
7.05963e-05
7.38493e-05
6.36721e-05
6.64701e-05
5.94401e-05
6.50778e-05
6.2296e-05
6.07493e-05
6.40708e-05
6.30901e-05
6.67328e-05
6.59005e-05
7.17128e-05
7.76267e-05
8.01891e-05
8.67846e-05
7.74968e-05
5.29506e-05
4.3531e-05
4.70192e-05
4.6787e-05
4.95827e-05
9.65977e-05
0.000127448
0.000129763
0.000124263
0.000120814
0.000116164
0.000112366
0.000105667
0.000104257
9.84844e-05
9.71666e-05
9.30595e-05
9.17917e-05
8.76143e-05
8.86249e-05
8.37512e-05
8.43724e-05
8.00549e-05
8.14661e-05
7.93543e-05
8.01073e-05
8.03829e-05
8.07665e-05
8.27766e-05
8.52669e-05
8.93247e-05
9.59622e-05
0.000103682
9.83791e-05
7.35489e-05
6.14714e-05
6.50945e-05
4.86926e-05
3.3324e-05
3.18286e-05
2.94778e-05
2.89212e-05
3.50324e-05
4.77106e-05
5.76586e-05
6.3608e-05
6.2909e-05
6.42289e-05
6.43234e-05
6.39173e-05
6.41024e-05
6.32959e-05
6.5635e-05
6.25356e-05
5.98416e-05
5.64594e-05
5.29391e-05
4.36341e-05
2.64329e-05
1.67017e-05
1.00185e-05
1.08003e-05
1.40039e-05
2.4516e-05
2.97657e-05
2.77416e-05
2.72577e-05
3.70024e-05
5.28038e-05
7.32359e-05
7.97177e-05
8.69817e-05
8.75464e-05
8.82296e-05
8.87597e-05
8.89992e-05
8.80958e-05
8.77862e-05
8.48023e-05
8.53802e-05
8.26762e-05
8.26509e-05
8.43966e-05
8.76579e-05
9.45061e-05
9.47285e-05
0.000100224
0.000103045
0.000103475
0.000100188
0.000104838
0.000115328
0.000120739
0.000123877
0.000125209
7.37914e-05
7.88639e-05
8.06748e-05
8.03858e-05
7.9416e-05
7.69608e-05
7.62195e-05
7.60757e-05
7.61197e-05
7.54587e-05
7.69279e-05
7.58265e-05
7.95465e-05
7.92835e-05
8.32706e-05
8.32822e-05
8.57274e-05
8.72917e-05
8.84666e-05
8.93398e-05
9.2166e-05
8.43478e-05
6.89195e-05
6.36022e-05
6.19149e-05
6.24576e-05
5.96821e-05
5.95652e-05
5.75558e-05
5.663e-05
4.01402e-05
4.79552e-05
5.61257e-05
6.36259e-05
6.94052e-05
7.39205e-05
6.97367e-05
6.86388e-05
6.51955e-05
6.49031e-05
6.14533e-05
6.42376e-05
6.28422e-05
6.07993e-05
6.27754e-05
6.30315e-05
6.54406e-05
6.8157e-05
6.9858e-05
7.24249e-05
7.64176e-05
8.6391e-05
9.1666e-05
9.07861e-05
8.31996e-05
7.77905e-05
7.71909e-05
7.64233e-05
7.6854e-05
7.66073e-05
7.12258e-05
7.53882e-05
7.7542e-05
7.80545e-05
7.5872e-05
7.38141e-05
6.75867e-05
6.83752e-05
5.75721e-05
6.03224e-05
5.82898e-05
5.76132e-05
5.87448e-05
5.79323e-05
5.83066e-05
6.10882e-05
6.36499e-05
6.60316e-05
6.74465e-05
6.74704e-05
6.29194e-05
5.94626e-05
6.04734e-05
6.24643e-05
6.27358e-05
6.23495e-05
6.27526e-05
6.32185e-05
6.32141e-05
6.30338e-05
3.08557e-05
5.64643e-05
5.05655e-05
5.58333e-05
5.51536e-05
5.62395e-05
5.52876e-05
5.65879e-05
5.69492e-05
5.5979e-05
5.66705e-05
5.77361e-05
5.83349e-05
5.94235e-05
5.93111e-05
6.04849e-05
6.17806e-05
6.2385e-05
6.2641e-05
6.24544e-05
6.20552e-05
6.20374e-05
6.22584e-05
6.26849e-05
6.27087e-05
6.14667e-05
6.18316e-05
6.21038e-05
6.13897e-05
1.26154e-06
3.21005e-08
3.93916e-08
4.25159e-08
4.58526e-08
4.21931e-08
2.23919e-07
5.87357e-05
5.08325e-05
4.87589e-05
4.86033e-05
4.67874e-05
4.75848e-05
4.66566e-05
4.6101e-05
4.87246e-05
4.91526e-05
4.96144e-05
4.83816e-05
4.88125e-05
4.8715e-05
4.92594e-05
5.11271e-05
5.43947e-05
6.10377e-05
6.10943e-05
6.27934e-05
6.22152e-05
5.84412e-05
2.84412e-06
9.69995e-08
7.08477e-05
5.99499e-05
5.86975e-05
6.7084e-05
8.9536e-05
0.000109529
0.00012037
0.000115914
0.000105586
0.000106137
0.000128675
0.000224024
0.000413056
0.000232844
8.65985e-06
8.76103e-06
1.02154e-05
1.88484e-05
2.84168e-05
3.43112e-05
3.21085e-05
2.71643e-05
2.32992e-05
2.41966e-05
2.52162e-05
2.68956e-05
2.82688e-05
2.93509e-05
2.99292e-05
3.00449e-05
2.97718e-05
2.90719e-05
2.66923e-05
2.47303e-05
2.03511e-05
1.7658e-05
1.40647e-05
1.10918e-05
8.75263e-06
7.64227e-06
6.38983e-06
5.47383e-06
4.70095e-06
3.67906e-06
5.24452e-05
5.49121e-05
5.99869e-05
5.2726e-05
2.73418e-05
1.10392e-05
9.3421e-06
8.63083e-06
1.05455e-05
1.14415e-05
1.40683e-05
1.8054e-05
2.44219e-05
2.87905e-05
3.64285e-05
4.16385e-05
4.5551e-05
4.83624e-05
4.98159e-05
5.18895e-05
5.26608e-05
5.4391e-05
5.22263e-05
5.99996e-05
6.97592e-05
7.93231e-05
9.20796e-05
9.28544e-05
7.5925e-05
6.53937e-05
5.48389e-05
5.59975e-05
8.76587e-05
0.00010138
0.000104722
9.20059e-05
7.97889e-05
7.1582e-05
6.71382e-05
6.43655e-05
6.16761e-05
6.10629e-05
5.466e-05
5.63411e-05
4.74488e-05
5.08564e-05
4.19704e-05
4.60192e-05
4.49174e-05
4.65021e-05
5.08789e-05
5.84515e-05
6.59051e-05
7.6343e-05
8.05872e-05
7.83519e-05
6.55286e-05
4.99771e-05
4.45276e-05
3.96498e-05
8.64404e-05
9.2529e-05
9.3806e-05
9.14982e-05
8.57224e-05
8.28527e-05
7.67386e-05
7.26083e-05
6.36246e-05
6.3311e-05
5.60504e-05
5.83668e-05
5.40877e-05
5.62419e-05
5.47067e-05
5.64706e-05
6.02911e-05
6.18739e-05
6.77511e-05
6.90017e-05
7.54491e-05
7.40276e-05
7.91752e-05
8.34021e-05
9.01946e-05
7.50321e-05
5.76463e-05
4.95378e-05
5.44534e-05
5.51668e-05
0.00010897
0.000126654
0.000124124
0.000118074
0.000110761
0.000106219
0.000102731
9.94829e-05
9.46247e-05
9.35358e-05
9.20807e-05
9.11485e-05
9.43195e-05
9.44462e-05
9.62613e-05
9.6382e-05
9.67076e-05
9.36945e-05
9.26023e-05
8.84654e-05
8.47645e-05
8.19852e-05
8.03817e-05
7.93135e-05
8.08762e-05
8.37851e-05
8.9954e-05
9.82834e-05
0.000103737
9.33597e-05
6.55594e-05
6.01241e-05
4.00756e-05
3.64931e-05
3.77758e-05
4.14665e-05
6.88627e-05
7.89258e-05
8.40744e-05
8.07128e-05
7.63962e-05
7.19311e-05
6.8838e-05
6.67097e-05
6.65811e-05
6.73541e-05
6.99863e-05
7.11628e-05
7.44962e-05
7.65551e-05
7.72286e-05
7.54693e-05
7.09735e-05
5.24042e-05
3.08214e-05
1.67537e-05
1.03851e-05
1.07047e-05
1.72463e-05
3.00648e-05
7.97653e-05
8.79465e-05
9.06658e-05
9.05795e-05
8.76505e-05
8.43614e-05
8.29957e-05
8.30383e-05
8.37898e-05
8.49187e-05
8.56927e-05
8.60482e-05
8.59259e-05
8.47947e-05
8.26776e-05
8.18161e-05
8.02153e-05
8.33866e-05
8.36498e-05
8.81696e-05
9.31169e-05
9.71857e-05
0.000100178
0.000102749
0.000106349
0.000101561
9.94207e-05
0.000102751
0.00010952
0.000117358
8.78754e-05
8.43852e-05
7.60177e-05
7.08544e-05
6.74868e-05
6.6272e-05
6.52356e-05
6.41623e-05
6.4351e-05
6.46908e-05
6.43349e-05
6.4404e-05
6.52052e-05
6.51637e-05
6.8179e-05
7.12777e-05
7.64643e-05
8.57648e-05
8.57736e-05
8.6683e-05
9.20519e-05
9.28235e-05
7.64807e-05
6.95447e-05
7.69376e-05
7.93378e-05
7.82944e-05
7.4288e-05
6.50899e-05
6.08495e-05
6.52244e-05
7.70087e-05
7.38093e-05
7.18859e-05
6.96857e-05
6.78116e-05
6.52929e-05
6.25236e-05
5.93892e-05
5.83015e-05
5.75208e-05
5.67715e-05
5.68116e-05
5.64733e-05
5.76603e-05
5.96786e-05
6.24706e-05
6.50129e-05
6.99375e-05
6.9911e-05
7.16921e-05
8.39173e-05
9.09789e-05
9.01352e-05
7.8317e-05
7.26254e-05
7.25061e-05
7.24902e-05
7.25643e-05
7.32045e-05
7.77682e-05
8.11804e-05
8.05796e-05
7.83393e-05
7.37419e-05
7.05967e-05
6.53405e-05
6.40163e-05
5.76138e-05
5.64314e-05
5.71518e-05
5.66472e-05
5.69327e-05
5.69098e-05
5.68598e-05
5.77557e-05
6.34139e-05
6.66209e-05
6.56848e-05
6.65266e-05
6.53153e-05
6.16517e-05
6.01926e-05
6.30122e-05
6.32234e-05
6.12903e-05
5.98365e-05
5.90576e-05
5.9876e-05
6.13469e-05
5.69168e-05
5.32001e-05
5.45604e-05
5.6245e-05
5.40964e-05
5.67644e-05
5.79423e-05
5.60247e-05
5.65721e-05
5.62976e-05
5.89412e-05
5.87768e-05
6.05463e-05
6.19617e-05
6.43534e-05
6.46586e-05
6.58032e-05
6.67507e-05
6.6614e-05
6.64506e-05
6.63718e-05
6.68842e-05
6.65539e-05
6.62225e-05
6.49428e-05
6.23111e-05
6.1734e-05
6.16044e-05
6.22058e-05
2.00897e-05
9.88378e-08
9.50512e-07
2.88569e-06
2.4201e-06
1.62283e-06
5.45519e-05
5.31233e-05
5.14855e-05
4.86084e-05
5.03677e-05
5.22437e-05
5.28145e-05
5.33888e-05
5.12467e-05
5.11016e-05
5.10677e-05
5.23538e-05
5.13436e-05
5.16408e-05
4.73791e-05
4.69156e-05
4.51704e-05
4.71835e-05
5.92855e-05
6.64175e-05
6.92806e-05
6.63223e-05
6.2332e-05
1.87371e-05
1.50679e-07
4.43855e-05
5.19409e-05
8.90332e-05
0.000156998
0.00022193
0.000256116
0.000268844
0.000265256
0.000234834
0.000170183
0.000121023
0.000150522
0.000313339
0.000288569
7.3068e-06
1.00151e-05
1.73961e-05
3.49963e-05
4.75266e-05
4.5832e-05
3.72513e-05
2.82673e-05
2.36026e-05
2.48766e-05
2.72121e-05
3.1922e-05
3.35381e-05
3.39577e-05
3.51553e-05
3.69092e-05
3.76306e-05
3.89865e-05
4.0901e-05
3.9084e-05
3.46201e-05
3.15985e-05
2.40485e-05
1.83763e-05
1.26855e-05
9.81951e-06
7.77697e-06
6.18765e-06
4.93308e-06
3.5981e-06
5.184e-05
5.60866e-05
5.90096e-05
4.34004e-05
1.62919e-05
8.88198e-06
9.52893e-06
1.10699e-05
1.3987e-05
1.55869e-05
2.09465e-05
2.57682e-05
3.83083e-05
4.64035e-05
5.16504e-05
5.14223e-05
5.40199e-05
5.25022e-05
5.61914e-05
5.53306e-05
6.30856e-05
6.01023e-05
5.88412e-05
5.7447e-05
5.78044e-05
6.84796e-05
7.87757e-05
8.94006e-05
8.89326e-05
7.65367e-05
5.26807e-05
6.49784e-05
9.56762e-05
0.000105067
9.84693e-05
8.7871e-05
7.16914e-05
6.43331e-05
6.20646e-05
6.23839e-05
6.15162e-05
6.21962e-05
5.59196e-05
5.61121e-05
4.88677e-05
4.81026e-05
4.16454e-05
4.18606e-05
3.98456e-05
3.80047e-05
4.21482e-05
4.56013e-05
5.45408e-05
6.44986e-05
7.81323e-05
8.17502e-05
7.89579e-05
6.74627e-05
5.36839e-05
4.60063e-05
8.73249e-05
9.31569e-05
9.18289e-05
8.87947e-05
8.12616e-05
7.46518e-05
6.76782e-05
7.07992e-05
6.16071e-05
6.75191e-05
5.88771e-05
6.51187e-05
5.89512e-05
6.29831e-05
6.04549e-05
6.23873e-05
6.34171e-05
6.42601e-05
6.51981e-05
6.74297e-05
7.01883e-05
7.3837e-05
7.70993e-05
8.04995e-05
8.56296e-05
9.002e-05
7.76963e-05
6.85963e-05
6.52751e-05
6.24407e-05
0.000116277
0.000125326
0.000118571
0.000111624
0.000109431
0.000106465
0.000103023
9.87647e-05
9.76973e-05
9.55018e-05
9.8882e-05
0.000104561
0.000110572
0.000114894
0.000119142
0.00011847
0.000118764
0.000116705
0.000115064
0.000111398
0.000106762
9.95821e-05
9.18156e-05
8.44602e-05
8.00684e-05
8.06544e-05
8.41531e-05
9.18552e-05
0.000101391
0.000102318
6.86906e-05
5.49712e-05
4.41418e-05
4.61437e-05
5.00409e-05
7.57461e-05
8.5336e-05
8.3715e-05
7.35587e-05
6.37731e-05
4.98151e-05
4.4016e-05
4.51389e-05
4.78614e-05
5.23844e-05
5.68448e-05
5.87438e-05
6.30837e-05
6.92442e-05
7.21174e-05
7.71639e-05
8.10556e-05
8.07937e-05
7.44734e-05
5.71223e-05
2.6642e-05
1.14501e-05
8.53788e-06
1.14108e-05
2.47707e-05
8.96746e-05
9.26415e-05
9.07608e-05
8.27127e-05
8.07151e-05
8.21549e-05
8.45303e-05
8.92113e-05
9.49709e-05
9.61139e-05
9.62623e-05
9.59556e-05
9.4467e-05
9.19043e-05
9.163e-05
8.81949e-05
8.68427e-05
8.7624e-05
8.90683e-05
9.07528e-05
9.14568e-05
9.38821e-05
9.73002e-05
0.000100448
0.000102718
0.000105642
0.000100371
9.76336e-05
9.92774e-05
0.000111116
7.34643e-05
7.17856e-05
7.4531e-05
7.82587e-05
7.66351e-05
7.71876e-05
7.74828e-05
7.81711e-05
7.77027e-05
7.78564e-05
7.77731e-05
8.1403e-05
7.8268e-05
7.49359e-05
7.28808e-05
7.07116e-05
6.98983e-05
7.07501e-05
7.81354e-05
8.80408e-05
8.61822e-05
9.16111e-05
8.5828e-05
7.68276e-05
8.22578e-05
9.11097e-05
9.05505e-05
8.73146e-05
7.49718e-05
6.16698e-05
7.49587e-05
7.39996e-05
7.02239e-05
6.93963e-05
6.78237e-05
6.53145e-05
6.24398e-05
6.11794e-05
5.73165e-05
5.66323e-05
5.18151e-05
5.15067e-05
5.16197e-05
5.3761e-05
5.59624e-05
5.69964e-05
5.85984e-05
6.09836e-05
6.27684e-05
6.66617e-05
6.60215e-05
7.12464e-05
8.24829e-05
9.0565e-05
7.89633e-05
7.22799e-05
7.2562e-05
7.48045e-05
7.44317e-05
7.32751e-05
8.13895e-05
8.07369e-05
7.70317e-05
7.34556e-05
6.94834e-05
6.68973e-05
6.10095e-05
5.81122e-05
5.51331e-05
5.53063e-05
5.12061e-05
4.64884e-05
4.43328e-05
4.24605e-05
4.37521e-05
4.68959e-05
5.57793e-05
6.03527e-05
6.39226e-05
6.36018e-05
6.50248e-05
6.16129e-05
5.92391e-05
6.15778e-05
6.26855e-05
6.03786e-05
5.7178e-05
5.52252e-05
5.65749e-05
5.95868e-05
5.42823e-05
5.41123e-05
5.55008e-05
5.59286e-05
5.74681e-05
5.8702e-05
5.81114e-05
5.98321e-05
5.88212e-05
5.91606e-05
5.93953e-05
6.11749e-05
6.08974e-05
6.15281e-05
6.18959e-05
6.39484e-05
6.45314e-05
6.45426e-05
6.51401e-05
6.65786e-05
6.67555e-05
6.82883e-05
6.85526e-05
6.88082e-05
6.82238e-05
6.56439e-05
6.2349e-05
6.03696e-05
6.16115e-05
5.05679e-05
3.12432e-06
6.16701e-05
6.36608e-05
5.53269e-05
5.50509e-05
6.03554e-05
5.2137e-05
5.24757e-05
5.35288e-05
5.68384e-05
5.47742e-05
5.56428e-05
5.55351e-05
5.62059e-05
5.62259e-05
5.53965e-05
5.50404e-05
5.44713e-05
5.30996e-05
5.18885e-05
4.48071e-05
4.43654e-05
4.29218e-05
5.38234e-05
6.87162e-05
7.12233e-05
6.83472e-05
6.48166e-05
4.11815e-05
2.08303e-07
4.29493e-05
7.60411e-05
0.000182301
0.000266026
0.000288874
0.000285446
0.000281885
0.000288863
0.000287235
0.0002622
0.000168424
0.000131415
0.000248972
0.000306823
7.47799e-06
1.151e-05
2.76618e-05
5.65971e-05
6.77811e-05
6.00915e-05
3.92041e-05
2.88184e-05
2.43485e-05
2.57318e-05
2.90042e-05
3.22896e-05
3.20292e-05
3.21588e-05
3.50879e-05
3.73687e-05
4.55439e-05
5.02077e-05
5.74223e-05
5.62351e-05
5.56692e-05
4.76372e-05
3.70547e-05
2.83871e-05
1.90877e-05
1.28228e-05
9.42207e-06
7.30959e-06
5.41615e-06
3.76598e-06
5.05093e-05
5.58085e-05
5.83738e-05
3.85214e-05
1.61428e-05
1.20479e-05
1.77911e-05
2.27436e-05
2.09772e-05
2.04209e-05
2.44794e-05
3.67196e-05
4.6039e-05
5.37405e-05
5.1737e-05
4.87844e-05
4.42664e-05
4.39146e-05
4.65055e-05
4.99867e-05
5.64822e-05
6.26766e-05
6.47588e-05
6.28466e-05
5.74436e-05
5.95488e-05
6.99332e-05
8.04726e-05
8.76034e-05
8.02901e-05
5.13775e-05
7.23744e-05
0.0001015
0.00010809
9.96842e-05
8.26283e-05
6.57582e-05
6.19043e-05
6.38219e-05
6.63857e-05
6.45851e-05
6.22591e-05
5.44579e-05
5.00195e-05
4.42972e-05
4.00747e-05
3.71977e-05
3.55657e-05
3.56075e-05
3.51161e-05
3.69003e-05
3.95366e-05
4.53027e-05
5.58226e-05
6.88235e-05
8.11743e-05
8.23549e-05
7.88815e-05
6.37997e-05
4.65158e-05
8.89791e-05
9.12248e-05
9.14523e-05
7.81317e-05
7.41598e-05
7.21973e-05
6.97635e-05
7.35963e-05
7.03926e-05
7.2768e-05
6.95537e-05
7.19583e-05
6.93081e-05
7.12998e-05
6.97741e-05
7.12749e-05
7.07404e-05
7.22342e-05
6.93096e-05
7.04867e-05
6.88894e-05
7.25988e-05
7.69794e-05
8.00928e-05
8.4109e-05
8.83737e-05
9.14685e-05
8.49748e-05
7.80417e-05
6.38028e-05
0.0001139
0.000120255
0.000113563
0.000112517
0.000110208
0.00010653
0.000102354
0.000100206
9.70655e-05
0.000100331
0.000106488
0.000114503
0.000120257
0.000125947
0.000126246
0.000130208
0.000128218
0.000128423
0.000125236
0.000124116
0.000120101
0.000114534
0.000106135
9.54306e-05
8.56509e-05
8.02383e-05
8.14093e-05
8.69553e-05
9.89138e-05
0.000103727
6.74462e-05
5.52857e-05
5.12272e-05
5.59502e-05
7.64649e-05
8.81437e-05
8.30363e-05
6.48424e-05
4.21522e-05
3.52172e-05
3.56932e-05
3.91881e-05
4.93812e-05
6.17475e-05
6.86334e-05
7.1963e-05
7.36194e-05
7.01017e-05
7.00344e-05
7.03153e-05
7.45836e-05
8.05964e-05
8.603e-05
8.53343e-05
7.57651e-05
4.52489e-05
1.52014e-05
7.98205e-06
9.64778e-06
2.06565e-05
9.11655e-05
9.23846e-05
8.11549e-05
7.78653e-05
8.34773e-05
9.01755e-05
9.60757e-05
9.99506e-05
0.000103196
0.000101383
0.00010116
0.000100615
9.75062e-05
9.59673e-05
9.26228e-05
9.22928e-05
9.23616e-05
9.06883e-05
9.24662e-05
9.15899e-05
9.42036e-05
9.51091e-05
9.52828e-05
9.9089e-05
0.000101227
0.000103289
0.000104099
9.93617e-05
9.83909e-05
0.000107066
7.72598e-05
8.64448e-05
8.44343e-05
8.73967e-05
8.86069e-05
8.91634e-05
8.85012e-05
8.90697e-05
8.7124e-05
8.60633e-05
8.35066e-05
8.3528e-05
8.6668e-05
8.64055e-05
8.37185e-05
8.19495e-05
7.67341e-05
7.14732e-05
6.91457e-05
7.5375e-05
8.71951e-05
8.78738e-05
8.94301e-05
8.21279e-05
8.21555e-05
9.1663e-05
9.22233e-05
9.47137e-05
8.47619e-05
6.63337e-05
7.41359e-05
7.14292e-05
6.90328e-05
6.95392e-05
6.72692e-05
6.73763e-05
5.59934e-05
5.05952e-05
4.2313e-05
4.01597e-05
3.57016e-05
3.69946e-05
3.53656e-05
3.72538e-05
4.0493e-05
4.74e-05
5.45534e-05
6.08657e-05
5.91328e-05
6.37011e-05
6.224e-05
6.32489e-05
7.80227e-05
8.83074e-05
8.26283e-05
7.45405e-05
7.45703e-05
7.70803e-05
7.63544e-05
7.33197e-05
8.33247e-05
7.82278e-05
7.44701e-05
7.066e-05
6.80544e-05
6.43422e-05
5.92606e-05
5.43442e-05
4.8015e-05
3.94898e-05
3.46725e-05
2.99328e-05
2.73187e-05
2.46756e-05
2.5342e-05
2.90511e-05
3.50057e-05
4.55039e-05
5.96067e-05
6.06754e-05
6.21367e-05
6.30744e-05
6.17609e-05
6.16685e-05
6.33243e-05
6.16803e-05
5.81028e-05
5.63445e-05
5.54877e-05
5.98092e-05
5.35979e-05
5.48051e-05
5.57749e-05
5.83835e-05
6.11437e-05
6.15796e-05
6.14307e-05
6.3601e-05
6.48834e-05
6.40519e-05
6.3141e-05
6.14319e-05
5.98649e-05
5.94123e-05
6.08781e-05
6.16082e-05
6.11733e-05
6.32319e-05
6.29943e-05
6.53461e-05
6.72842e-05
6.30388e-05
6.09947e-05
5.89075e-05
6.27054e-05
6.6309e-05
6.34616e-05
5.96343e-05
6.01152e-05
5.73398e-05
5.86791e-05
5.45422e-05
5.63781e-05
6.34514e-05
6.3458e-05
5.45036e-05
5.32024e-05
5.5215e-05
5.94753e-05
6.1063e-05
6.26226e-05
6.19149e-05
6.30414e-05
6.11608e-05
5.94362e-05
5.9558e-05
5.62e-05
5.52122e-05
5.37797e-05
5.16687e-05
4.72078e-05
4.25926e-05
4.05822e-05
5.14311e-05
6.72282e-05
7.08827e-05
7.20631e-05
6.47313e-05
4.54569e-05
2.21045e-07
4.62976e-05
0.000121564
0.000259197
0.000278883
0.000254387
0.000213899
0.000188119
0.000187629
0.000225941
0.000260676
0.00020543
0.000139069
0.000214095
0.000307881
7.87786e-06
1.56234e-05
4.0191e-05
7.84525e-05
8.8883e-05
7.58115e-05
4.83759e-05
3.06204e-05
2.34339e-05
2.41176e-05
2.98937e-05
3.01404e-05
2.84294e-05
3.02589e-05
3.49346e-05
4.39313e-05
5.51837e-05
6.25947e-05
7.23608e-05
7.64859e-05
7.54684e-05
6.4801e-05
5.44637e-05
3.78597e-05
2.62872e-05
1.69507e-05
1.1456e-05
7.93596e-06
5.84043e-06
3.9193e-06
4.88431e-05
5.43074e-05
5.82456e-05
4.26385e-05
2.30236e-05
2.45884e-05
4.27099e-05
4.20817e-05
2.98006e-05
2.24586e-05
3.06459e-05
4.45131e-05
5.53371e-05
5.29188e-05
4.66032e-05
4.03161e-05
3.81555e-05
3.88563e-05
4.15949e-05
4.37008e-05
4.92402e-05
5.68726e-05
6.50866e-05
6.56812e-05
6.01664e-05
5.55875e-05
6.05159e-05
7.09508e-05
8.19354e-05
7.99365e-05
5.08146e-05
7.81503e-05
0.000105173
0.000110894
9.88015e-05
7.52054e-05
6.25035e-05
6.34283e-05
6.69223e-05
6.74504e-05
6.16588e-05
5.26303e-05
4.62682e-05
3.80497e-05
3.70853e-05
2.87665e-05
3.0254e-05
2.5581e-05
2.67966e-05
2.63513e-05
3.02527e-05
3.16611e-05
4.08717e-05
4.88667e-05
6.21571e-05
7.65646e-05
8.61266e-05
8.50986e-05
7.3079e-05
5.17911e-05
9.04518e-05
9.45173e-05
7.74283e-05
7.56804e-05
7.51033e-05
7.38517e-05
7.61308e-05
7.73543e-05
7.61322e-05
7.89525e-05
7.77129e-05
7.83698e-05
7.8455e-05
8.12008e-05
8.02849e-05
8.13892e-05
8.32752e-05
8.04959e-05
8.13365e-05
7.64175e-05
7.64324e-05
7.26232e-05
7.72313e-05
8.06161e-05
8.45729e-05
9.27944e-05
9.4794e-05
9.20266e-05
8.5131e-05
6.87235e-05
0.000112485
0.000117631
0.000112805
0.000111245
0.000110192
0.000106853
0.000103366
9.80907e-05
9.78149e-05
0.000102252
0.000109121
0.00011653
0.000124699
0.000127091
0.000134035
0.000133519
0.000137365
0.000133944
0.000134906
0.000129389
0.00012944
0.000124527
0.000114974
0.000103194
9.12176e-05
8.18411e-05
8.01936e-05
8.47336e-05
9.67382e-05
0.000104217
6.45323e-05
5.87743e-05
6.03615e-05
7.48284e-05
8.81692e-05
8.50809e-05
6.82859e-05
3.6968e-05
3.21246e-05
3.33825e-05
3.87213e-05
5.11123e-05
6.95665e-05
8.24504e-05
8.80851e-05
8.84218e-05
8.79456e-05
8.78576e-05
8.04386e-05
7.61152e-05
7.57306e-05
8.04958e-05
8.77107e-05
9.15148e-05
8.32757e-05
5.87996e-05
1.62534e-05
6.72315e-06
7.91923e-06
1.95662e-05
9.06061e-05
8.58148e-05
7.47503e-05
8.27538e-05
9.16515e-05
9.81345e-05
0.000102496
0.000103234
0.000102475
0.000103492
9.8847e-05
9.62804e-05
9.32583e-05
8.9261e-05
8.80707e-05
8.55494e-05
8.62557e-05
9.09782e-05
9.20382e-05
9.20749e-05
9.55516e-05
9.60222e-05
9.45888e-05
9.78987e-05
0.000100001
0.000102283
0.00010314
0.000102654
9.94844e-05
0.000106062
8.5796e-05
9.06099e-05
9.58623e-05
9.80509e-05
9.47966e-05
9.58769e-05
9.3288e-05
9.04224e-05
8.52469e-05
7.91027e-05
7.04905e-05
6.30176e-05
6.35274e-05
6.31829e-05
7.04752e-05
7.36979e-05
7.65146e-05
7.36708e-05
6.83869e-05
6.68904e-05
7.54576e-05
8.20972e-05
8.91011e-05
8.6105e-05
8.3763e-05
8.86889e-05
9.12873e-05
9.60358e-05
9.10803e-05
7.08925e-05
7.31175e-05
7.09636e-05
7.23967e-05
6.96075e-05
6.91026e-05
6.03645e-05
4.82195e-05
4.33578e-05
3.82901e-05
3.52899e-05
3.1631e-05
3.13113e-05
3.05367e-05
3.15419e-05
3.27842e-05
3.62359e-05
4.27616e-05
5.03711e-05
5.68734e-05
5.92228e-05
5.78613e-05
5.816e-05
6.6735e-05
8.25932e-05
8.47597e-05
7.75714e-05
7.73762e-05
7.77588e-05
7.6583e-05
7.35431e-05
8.22099e-05
7.53094e-05
7.2837e-05
6.9184e-05
6.63734e-05
6.13105e-05
5.80442e-05
4.6791e-05
3.37989e-05
2.47662e-05
1.84759e-05
1.4592e-05
1.27425e-05
1.13939e-05
1.26967e-05
1.47535e-05
1.9609e-05
2.6809e-05
4.05679e-05
5.54102e-05
6.07791e-05
6.31392e-05
6.06121e-05
5.92747e-05
6.09464e-05
6.1009e-05
5.87018e-05
5.53055e-05
5.28785e-05
5.91116e-05
5.36017e-05
5.45979e-05
5.94415e-05
6.3276e-05
6.51933e-05
6.64591e-05
6.9448e-05
7.10046e-05
7.25901e-05
7.2468e-05
6.86342e-05
6.52512e-05
6.13054e-05
5.83156e-05
5.76457e-05
6.05982e-05
5.94679e-05
6.12992e-05
6.09902e-05
6.41075e-05
6.10974e-05
3.55001e-05
2.24937e-05
2.48636e-05
4.23032e-05
6.2492e-05
6.39071e-05
5.94065e-05
5.87352e-05
5.83628e-05
6.46564e-05
4.87713e-05
5.01676e-05
5.78607e-05
5.64168e-05
5.36977e-05
5.43035e-05
6.03851e-05
6.34677e-05
6.84887e-05
7.37693e-05
7.63423e-05
7.63275e-05
7.52696e-05
6.89069e-05
6.49992e-05
6.1519e-05
5.84492e-05
5.35977e-05
5.19434e-05
4.82263e-05
4.13049e-05
3.83631e-05
4.80768e-05
6.41032e-05
7.01144e-05
7.17751e-05
6.6191e-05
3.35605e-05
1.80933e-07
5.10532e-05
0.00015817
0.000265694
0.00024002
0.000177276
0.000146254
0.000128704
0.000119119
0.000138736
0.000205524
0.000201725
0.0001407
0.000199974
0.000308242
8.2533e-06
1.72115e-05
5.31494e-05
8.91332e-05
0.00010202
9.04368e-05
6.11489e-05
3.49955e-05
2.45569e-05
2.47057e-05
2.80788e-05
2.72861e-05
2.58749e-05
2.90846e-05
3.46043e-05
5.02957e-05
6.19273e-05
7.30072e-05
8.34547e-05
9.46298e-05
9.30778e-05
8.30736e-05
6.37036e-05
4.6408e-05
3.13403e-05
1.95842e-05
1.283e-05
8.72301e-06
6.03332e-06
3.9627e-06
4.69637e-05
5.24324e-05
5.88961e-05
4.89218e-05
3.81276e-05
4.87809e-05
6.62294e-05
5.91909e-05
3.41477e-05
2.54658e-05
3.43683e-05
5.09271e-05
5.70417e-05
5.01488e-05
4.05859e-05
3.43505e-05
3.43363e-05
3.93456e-05
4.18777e-05
4.77776e-05
5.02313e-05
5.6769e-05
6.34309e-05
6.86111e-05
6.16131e-05
5.42055e-05
5.50513e-05
6.6547e-05
7.63264e-05
7.77728e-05
4.99933e-05
8.23677e-05
0.000104074
0.00010595
9.59827e-05
7.01212e-05
6.29123e-05
6.56418e-05
6.80905e-05
6.28013e-05
5.49054e-05
4.36598e-05
3.83721e-05
2.90082e-05
2.9382e-05
2.51885e-05
2.67403e-05
2.25112e-05
2.35674e-05
2.34949e-05
2.58969e-05
2.86604e-05
3.59481e-05
4.65874e-05
5.83211e-05
7.2645e-05
8.38707e-05
8.61606e-05
7.35841e-05
5.16459e-05
9.19849e-05
8.04539e-05
7.68485e-05
7.76582e-05
7.56735e-05
7.54648e-05
7.76526e-05
7.99198e-05
7.7611e-05
8.25953e-05
8.23899e-05
8.3783e-05
8.79341e-05
9.05978e-05
9.18308e-05
9.40327e-05
9.38319e-05
9.36422e-05
8.91397e-05
8.82284e-05
8.21698e-05
7.84862e-05
7.78679e-05
8.12573e-05
8.69328e-05
9.16074e-05
9.39467e-05
9.37476e-05
8.75779e-05
6.94911e-05
0.000110963
0.00011369
0.000110892
0.000113073
0.000111769
0.000106904
0.000103876
9.87012e-05
9.61539e-05
0.00010173
0.000109831
0.000119761
0.000124343
0.000131513
0.000133107
0.000140012
0.000138168
0.000141195
0.000135265
0.000136348
0.000130024
0.000128357
0.000123328
0.000110205
9.47605e-05
8.38634e-05
8.11077e-05
8.44085e-05
9.65558e-05
0.000104473
6.3742e-05
6.18345e-05
6.96577e-05
8.65289e-05
8.85056e-05
7.37146e-05
4.19897e-05
3.53028e-05
3.70356e-05
3.79013e-05
4.3233e-05
6.40993e-05
8.13051e-05
8.7463e-05
9.35122e-05
9.12191e-05
9.23148e-05
8.92996e-05
8.84811e-05
8.24753e-05
7.93143e-05
8.236e-05
9.01283e-05
9.54634e-05
9.01336e-05
6.17779e-05
1.31267e-05
5.70048e-06
7.99859e-06
1.92687e-05
9.14495e-05
7.9014e-05
7.8741e-05
8.83848e-05
9.683e-05
0.000101708
0.000105608
0.00010431
0.000101628
9.70604e-05
9.30949e-05
8.72792e-05
7.99894e-05
7.8902e-05
7.57067e-05
7.38956e-05
7.78845e-05
7.89416e-05
8.64615e-05
9.08107e-05
9.62466e-05
9.3816e-05
9.5264e-05
9.85119e-05
9.96954e-05
0.000100793
0.00010298
0.000104206
9.98605e-05
0.00010576
9.33873e-05
0.000100626
9.96673e-05
9.79938e-05
9.60035e-05
9.61876e-05
8.91101e-05
8.19309e-05
6.36695e-05
5.38343e-05
4.21213e-05
3.77824e-05
3.47408e-05
3.59829e-05
4.03763e-05
5.52012e-05
6.27327e-05
6.91314e-05
6.82008e-05
6.54388e-05
6.85224e-05
8.25897e-05
8.75668e-05
8.88779e-05
8.64593e-05
8.87143e-05
8.96193e-05
9.54936e-05
9.40355e-05
7.64945e-05
7.33051e-05
7.36727e-05
7.2688e-05
7.11271e-05
6.81399e-05
5.69861e-05
4.39952e-05
3.99878e-05
3.33957e-05
3.21275e-05
3.04804e-05
3.01254e-05
3.04564e-05
3.0221e-05
3.11738e-05
3.2084e-05
3.66728e-05
4.23633e-05
5.04587e-05
5.42546e-05
5.50291e-05
5.43459e-05
5.99888e-05
7.63936e-05
8.50481e-05
8.07655e-05
7.97447e-05
7.85752e-05
7.79184e-05
7.5265e-05
8.08589e-05
7.50628e-05
7.03352e-05
6.70162e-05
6.58271e-05
5.95603e-05
5.65781e-05
3.88556e-05
2.16866e-05
1.60703e-05
1.06469e-05
8.72647e-06
7.56228e-06
6.73094e-06
7.18382e-06
8.82041e-06
1.18577e-05
1.61669e-05
2.92611e-05
4.66595e-05
5.67312e-05
6.19134e-05
6.40602e-05
6.28973e-05
6.1703e-05
6.22009e-05
6.07875e-05
5.6617e-05
5.7083e-05
6.11779e-05
5.37846e-05
5.63523e-05
6.21012e-05
6.48812e-05
6.90043e-05
7.34904e-05
7.83717e-05
8.20295e-05
8.35723e-05
8.10251e-05
7.81267e-05
7.30127e-05
6.60453e-05
5.92542e-05
5.7066e-05
5.84272e-05
5.95526e-05
5.86412e-05
5.88338e-05
6.11058e-05
6.2662e-05
2.7712e-05
1.32892e-05
1.55877e-05
3.2308e-05
5.93132e-05
6.19952e-05
5.88173e-05
5.91934e-05
5.76265e-05
5.90184e-05
4.40792e-05
4.90511e-05
5.18777e-05
5.4036e-05
5.25818e-05
5.82182e-05
6.32152e-05
7.41746e-05
7.87325e-05
9.00604e-05
9.60479e-05
9.74297e-05
9.46534e-05
8.5374e-05
7.72371e-05
6.34397e-05
6.05794e-05
5.60268e-05
5.08168e-05
4.91004e-05
4.00986e-05
3.6419e-05
4.33338e-05
6.40032e-05
6.69383e-05
7.01166e-05
6.38225e-05
1.00016e-05
1.43393e-07
5.21844e-05
0.000172729
0.000249532
0.000182579
0.000128333
0.000102259
0.000103331
9.51254e-05
9.29679e-05
0.000147377
0.000168977
0.000130529
0.000203213
0.000308669
8.82967e-06
2.22747e-05
6.03901e-05
9.25204e-05
0.000100052
9.28224e-05
7.0989e-05
4.25904e-05
2.56417e-05
2.353e-05
2.59068e-05
2.47409e-05
2.34877e-05
2.75801e-05
3.58911e-05
5.08823e-05
6.17132e-05
7.34742e-05
8.27679e-05
9.81286e-05
9.8186e-05
8.84225e-05
6.47478e-05
4.67651e-05
3.10188e-05
1.94757e-05
1.29144e-05
8.5953e-06
5.71189e-06
3.90004e-06
4.42921e-05
5.0546e-05
5.96855e-05
5.72625e-05
5.64925e-05
6.94926e-05
7.61385e-05
7.1755e-05
4.13881e-05
2.59155e-05
3.80991e-05
5.41957e-05
5.81238e-05
4.55023e-05
3.68463e-05
3.23356e-05
3.55593e-05
4.37325e-05
5.46654e-05
5.89012e-05
5.98487e-05
6.36636e-05
6.77404e-05
6.90011e-05
6.28471e-05
5.19995e-05
5.06726e-05
6.11322e-05
7.14125e-05
7.46327e-05
5.15679e-05
8.08113e-05
0.000104214
0.000105378
9.10911e-05
6.70061e-05
6.35701e-05
6.62976e-05
6.51239e-05
5.82305e-05
4.8452e-05
3.77763e-05
3.30753e-05
2.90592e-05
2.97924e-05
2.72548e-05
2.77751e-05
2.43171e-05
2.39414e-05
2.37466e-05
2.4773e-05
2.96436e-05
3.41748e-05
4.78814e-05
5.63815e-05
7.07872e-05
8.18245e-05
8.49531e-05
7.42398e-05
5.07095e-05
9.24748e-05
7.7355e-05
7.80792e-05
7.64614e-05
7.39524e-05
7.4947e-05
7.65762e-05
7.82773e-05
7.66031e-05
8.01867e-05
8.18109e-05
8.68484e-05
9.2096e-05
9.80362e-05
0.000103231
0.000104355
0.000105712
0.000101034
0.000100025
9.25144e-05
8.81431e-05
8.2736e-05
7.93586e-05
8.14696e-05
8.472e-05
9.04295e-05
9.16679e-05
9.27722e-05
8.81132e-05
6.95504e-05
0.000109042
0.000111888
0.000112064
0.000114118
0.000111548
0.000106468
0.000102692
9.61205e-05
9.62912e-05
9.93615e-05
0.000109776
0.000117476
0.000126016
0.000127897
0.000133762
0.000134634
0.000139123
0.000136989
0.00013859
0.000131333
0.000129246
0.00012574
0.000122059
0.000112291
9.42955e-05
8.50165e-05
8.0904e-05
8.66987e-05
9.89713e-05
0.00010482
6.45334e-05
6.72803e-05
8.44916e-05
8.94519e-05
8.44828e-05
6.11374e-05
4.26614e-05
4.68088e-05
4.93431e-05
4.08906e-05
4.26321e-05
6.3369e-05
8.26044e-05
9.27549e-05
9.35193e-05
9.20504e-05
8.98511e-05
9.23951e-05
8.87358e-05
8.4393e-05
8.23131e-05
8.46392e-05
9.35113e-05
9.44805e-05
8.75529e-05
5.09561e-05
1.00718e-05
5.29861e-06
8.23098e-06
1.99281e-05
8.66041e-05
7.51899e-05
8.1929e-05
9.02698e-05
9.83475e-05
0.000102357
0.000102612
0.00010224
9.69334e-05
9.20148e-05
8.54596e-05
7.82689e-05