/*--------------------------------*- C++ -*----------------------------------*\
| =========                 |                                                 |
| \\      /  F ield         | OpenFOAM: The Open Source CFD Toolbox           |
|  \\    /   O peration     | Version:  2.1.1                                 |
|   \\  /    A nd           | Web:      www.OpenFOAM.org                      |
|    \\/     M anipulation  |                                                 |
\*---------------------------------------------------------------------------*/
FoamFile
{
    version     2.0;
    format      ascii;
    class       volScalarField;
    location    "0.005300000";
    object      omega;
}
// * * * * * * * * * * * * * * * * * * * * * * * * * * * * * * * * * * * * * //

dimensions      [0 0 -1 0 0 0 0];

internalField   nonuniform List<scalar> 
12384
(
11254.4
25298.6
30516.4
34546.5
37410.6
39196.8
38982.7
36867.2
33351.6
29427.7
24847.4
19157.5
12357.2
6179.45
25494.1
36993
44535.8
49353
52755.5
54946.2
56327.9
57241.1
58205.8
59824.4
62270.3
65823.1
70276.9
75567.6
81720.7
87249.5
92167.2
95381.2
96779.9
95345
92775.8
89388.9
86202.1
82109.5
76183
66105.4
49614.2
29954.3
17873.8
14229.8
44440.6
51735.9
57084.4
61966.2
66850.3
71377.8
75256.7
80108.5
81428.2
81765.2
80484.8
80858
82844.6
87405
93303.5
101067
107464
113826
116011
117320
115781
116169
113738
109659
102424
91924.6
74507.5
49109
27097.2
21533.3
44001
58776.4
71174.3
80546.9
87822.2
94102.2
97880.6
99635.7
99788.7
102173
107019
114855
124472
134239
143947
150734
154317
153658
151598
148660
145162
142675
140510
136652
129429
118276
102010
76261.7
45413.8
37285.4
55243
66391.8
72787.4
77174.3
82972.1
92487.2
104527
117591
129990
140580
148788
153794
154796
152401
150478
150353
150312
150544
149275
146487
141958
136641
129954
120661
106365
83969.6
53388.7
32046.4
30350.5
33947.7
28881.6
41843.1
51904.1
58800.4
64376
70210.5
75605.3
79438.3
80002.4
79451.7
78628.9
79625.2
84078.3
90905.9
99147.3
108588
117584
125435
130527
131827
134136
135978
137119
135914
131587
123758
111102
91902.3
64696
46042.3
27272.2
33730.3
40615
45603
49652.6
52986.4
55772.7
58490.1
62896.5
72717.2
85862.2
100179
112560
121329
125353
118493
111047
104496
99072.9
93723.4
88625.4
84258.6
80856.5
78477.7
76586
74428.2
71187.7
65848.5
56087.2
41154.9
29920.5
30741.5
40392.2
51989.5
62755.7
74231.6
87531.2
102172
117031
130702
143615
153467
161414
165661
164881
161309
155034
149790
144807
138501
130799
120331
106808
90654.4
74980.2
65444.5
61064.3
56631.9
51244.3
47836.8
35352
54761.6
71227.8
86542.6
100972
114673
126972
138773
147989
156542
161643
163253
161983
158227
153243
150146
146013
140626
133029
122275
107922
90284.3
76396.5
67392.9
60120.6
52439.8
45533.6
38572.4
32456.9
27486.2
40378.7
44074.4
56202.5
72536.2
90496
109385
126375
141647
153845
160834
165615
162552
158948
159431
158080
158216
156243
153341
148232
141071
131673
118923
102059
87956
79291.1
73741.2
69612.6
67600.9
68282.6
68910.7
40016.6
48892.5
66231
90703.4
116048
140129
162341
179016
196960
204937
214742
211272
206458
199886
194324
186451
178829
170137
159628
147596
135007
121781
109928
97638.2
85096
74875.4
69216.2
69183.1
72460.4
73689.5
23489.4
36180.6
53867.8
65134.9
71371
74330.4
75557.7
75819
77379.3
77609.6
76879.7
73967.7
71239.3
69939.1
71610.6
76335.8
83126.9
90841.9
98277.5
103938
105516
103777
102087
100632
98588
94607.2
86419.4
69839.1
41278.6
12493.6
4871.72
8210.98
10251.3
10264.9
11942.7
19809.6
44787.1
75229.7
94378.9
107129
116724
124324
131507
138698
139865
135204
125765
113264
98522.3
82172.7
63832.9
43313.1
24754.9
12602.7
6024.74
3170.88
2191.17
1847.21
1480.26
1129.64
20800.8
104060
129588
151133
172202
191906
208091
217427
217453
207180
187117
157655
118362
22496.4
26515.4
105721
140590
176397
206851
226440
234365
233651
229869
227614
229898
239778
257548
282849
317387
354925
394101
430702
459378
476629
480899
470764
449362
417873
380042
335056
281956
217624
139338
27247.4
42652.4
135145
203733
286936
351030
386550
396608
380403
353895
333290
325294
339142
374657
431303
504840
588176
671910
746723
801428
828264
820778
788078
724254
648707
557353
460979
365708
281634
205908
47242.1
55141.3
270277
359670
414726
437617
423988
395570
379236
382815
416677
476461
555759
653266
761924
876360
988498
1.08707e+06
1.16321e+06
1.19634e+06
1.19088e+06
1.14507e+06
1.06323e+06
950682
813197
662735
520439
403354
311066
237342
68627.4
55107.8
177222
207930
266680
363504
485700
617297
750797
882877
1.01142e+06
1.13037e+06
1.23722e+06
1.32528e+06
1.38987e+06
1.42002e+06
1.41765e+06
1.37965e+06
1.31279e+06
1.212e+06
1.09036e+06
946408
790078
634324
499789
392273
307536
239923
188619
146030
48280.2
49086.7
243350
325217
385910
425488
440306
430518
404103
369714
337949
318670
321062
352600
405541
477396
562479
652719
737353
806964
853784
867107
850266
811907
755537
685148
604224
513784
415552
306745
76565.8
35130.6
129071
162375
183369
194601
198558
207385
247204
333119
460307
604055
749941
890094
1.01762e+06
1.12374e+06
1.198e+06
1.22929e+06
1.20543e+06
1.14309e+06
1.04471e+06
923022
789642
660469
548732
460743
393898
338928
288620
236232
66487
49379.9
133754
159882
203285
278649
382159
500364
622672
742875
857549
964621
1.06292e+06
1.15061e+06
1.22559e+06
1.28391e+06
1.3204e+06
1.32531e+06
1.29763e+06
1.24597e+06
1.16143e+06
1.05669e+06
929324
784812
622107
455509
311572
218502
175602
153313
59944.3
61511.6
307147
418135
517974
623616
736413
853272
969959
1.08237e+06
1.18542e+06
1.27303e+06
1.33915e+06
1.37648e+06
1.38102e+06
1.34483e+06
1.27975e+06
1.18678e+06
1.07332e+06
940932
791795
627170
462069
315289
242652
231458
229660
215049
193089
161024
46456.3
58908.2
197081
304680
436056
581536
735101
889516
1.04174e+06
1.1832e+06
1.30789e+06
1.406e+06
1.4743e+06
1.49872e+06
1.48976e+06
1.43212e+06
1.35647e+06
1.24592e+06
1.12477e+06
987755
843639
690728
534609
390624
285027
256318
258796
257584
248686
236935
76236.8
57520.3
206328
357729
523676
683530
839237
993379
1.14795e+06
1.29812e+06
1.43933e+06
1.56003e+06
1.65656e+06
1.70848e+06
1.70703e+06
1.65956e+06
1.56229e+06
1.43402e+06
1.27479e+06
1.09383e+06
891661
682710
497605
357870
304649
304353
313435
308539
291163
273973
84477.5
45759.7
129029
190432
257993
318718
365273
395663
406093
402564
381437
352149
317389
289003
276490
294591
342272
407870
483680
563948
640245
704413
746360
750247
719365
661636
581556
482182
369255
254132
50571.8
11542.4
71829.3
90980.3
106477
141299
255584
420827
583957
728162
840913
926750
975390
988058
953755
887647
799852
699362
594170
490813
393197
304273
224439
142775
102648
88782.8
81251.4
71578.4
59564.6
46699.9
1340.79
28670.8
128130
151117
167309
181485
193875
204640
213031
217214
215912
207621
189945
158272
30888.1
31408.4
134830
171983
204559
227571
241060
248778
254817
261643
269608
280247
296544
316734
337911
360282
382011
404457
427162
448369
464923
473681
471969
460310
441397
416188
384086
341692
282902
205366
40764.2
44779.4
174044
251875
323601
359439
362661
351226
336943
333344
345929
372091
412043
464707
527018
593944
659693
720542
772059
812180
835180
834558
807760
760014
700407
629120
548397
458859
365893
274864
67603.3
62361
353138
410404
416074
399147
384881
393951
428673
473882
528448
581966
636905
696420
763714
837067
916412
994019
1.06753e+06
1.12225e+06
1.15113e+06
1.15361e+06
1.1263e+06
1.06678e+06
970531
839356
689758
544642
420029
316534
89646
55847.2
202830
260937
362971
486944
606134
712227
809097
902874
995483
1.08447e+06
1.16915e+06
1.24589e+06
1.31052e+06
1.35419e+06
1.37282e+06
1.36536e+06
1.33299e+06
1.2768e+06
1.19856e+06
1.09328e+06
961707
810820
661546
530947
422329
330089
254586
201087
61524
62386
325894
394597
434129
450105
448973
436039
419164
404653
399696
408894
431907
463152
499179
543809
595509
652272
709361
760624
799416
818346
815382
794645
760908
717556
663755
595521
509129
398876
95633.6
41633.8
171395
199478
212519
217987
227165
268809
360513
485776
613072
726088
827530
922254
1.0121e+06
1.0956e+06
1.16499e+06
1.20903e+06
1.21467e+06
1.1825e+06
1.11462e+06
1.01448e+06
890613
755691
626500
518359
438292
380411
331882
282801
75812.5
63058.7
159309
195204
265676
366494
473800
575163
668942
757252
842519
925009
1.00477e+06
1.07997e+06
1.14744e+06
1.20373e+06
1.24701e+06
1.27139e+06
1.27193e+06
1.24782e+06
1.20085e+06
1.13545e+06
1.05392e+06
950867
818081
656861
484978
333173
231572
181900
65626.7
79800.8
416867
508827
574051
639842
713791
796101
885777
979588
1.07072e+06
1.15198e+06
1.21783e+06
1.26064e+06
1.27631e+06
1.26669e+06
1.23423e+06
1.18145e+06
1.11589e+06
1.03966e+06
943837
816032
658512
493164
345452
252811
213451
204518
202612
187008
52680.4
66460.1
283023
419795
554021
681233
803719
922248
1.03885e+06
1.15023e+06
1.25287e+06
1.33883e+06
1.40349e+06
1.43808e+06
1.43982e+06
1.41309e+06
1.35599e+06
1.27948e+06
1.1891e+06
1.08936e+06
980859
855953
711118
556515
416324
312061
253439
224172
239289
269340
80763.9
64923.8
315684
509703
669352
794427
901600
1.00116e+06
1.10416e+06
1.20874e+06
1.31482e+06
1.41121e+06
1.49729e+06
1.56034e+06
1.59246e+06
1.57924e+06
1.53888e+06
1.47164e+06
1.38498e+06
1.27515e+06
1.12634e+06
935199
724916
533139
395075
324564
281710
255461
269894
306441
91104.8
56114
201842
291088
374712
443311
491734
520046
529569
525407
507119
479733
446357
415525
394096
395099
417507
446550
475081
506746
542750
582654
620465
645599
651308
638052
603558
541758
450106
336220
65587.4
18451.5
94768
109404
158100
280124
449902
625161
768760
877274
950120
995663
1.01748e+06
1.01464e+06
984459
932583
866618
791167
707840
616608
516305
409849
301816
193723
107906
82071
75863.7
72569
66769.5
57365.5
1461.95
34403.6
149832
169463
180327
185835
187750
189972
194783
201458
207783
211440
207743
189271
37365
37446.8
165857
198555
221020
232893
241580
254209
272747
291830
309745
330126
355607
380185
397240
405618
406955
405526
406741
412685
422403
431935
436308
434399
426592
413910
395789
367676
319922
248830
50365.2
48050.6
218130
292162
342607
348980
328565
308582
305528
330371
375091
426196
483906
546106
605557
656166
694730
722283
741299
757504
768170
768737
751793
721851
682643
635294
577155
505141
419429
325527
79489.1
69029.4
425705
438249
397609
361900
368448
421643
494923
562897
623000
666078
697879
720422
744540
772279
810409
857890
912508
967485
1.01211e+06
1.04652e+06
1.06237e+06
1.05366e+06
1.00881e+06
920074
792776
647238
507760
384781
101922
58309.8
245561
335989
458866
574529
663451
729885
782779
832483
883415
938492
997596
1.0582e+06
1.11567e+06
1.16308e+06
1.19865e+06
1.21885e+06
1.22004e+06
1.20276e+06
1.16286e+06
1.09873e+06
1.00587e+06
886991
755331
629057
514862
409950
316086
241382
71883.3
74793.1
398812
441830
455379
453478
445966
438603
437236
445204
465794
497686
532974
562527
585710
606424
622899
637637
654589
677006
702824
721283
727397
721380
705957
684627
657413
618285
558147
464508
106467
48809.9
214041
231217
234160
237582
266169
353901
478416
598862
690772
756186
807128
853677
901482
953246
1.00735e+06
1.05583e+06
1.08343e+06
1.0835e+06
1.05159e+06
987096
891862
773051
646569
531838
444919
388747
350318
316142
81640
71466.4
181939
239828
340457
449756
540291
610917
668035
719086
770664
826033
886107
948497
1.00914e+06
1.06376e+06
1.10951e+06
1.14144e+06
1.15537e+06
1.15099e+06
1.13229e+06
1.10095e+06
1.05954e+06
1.00094e+06
912302
782880
618002
441950
298863
212340
69225.4
93478.7
494441
565213
605848
643563
688152
742418
807591
880567
955809
1.02617e+06
1.08706e+06
1.13093e+06
1.15399e+06
1.15338e+06
1.13338e+06
1.10086e+06
1.06678e+06
1.03308e+06
990237
915773
796714
644205
481910
334587
242030
209431
211479
205770
56322.8
71142.9
368881
522539
651200
753600
838164
911789
982203
1.05363e+06
1.12538e+06
1.19228e+06
1.24978e+06
1.28807e+06
1.30277e+06
1.29379e+06
1.26061e+06
1.21207e+06
1.1517e+06
1.08601e+06
1.01625e+06
932256
824059
691387
549456
414801
297882
232979
248032
291207
82561.8
69856.4
426485
633737
774470
860729
916794
958927
1.00369e+06
1.05762e+06
1.12317e+06
1.19399e+06
1.26305e+06
1.32019e+06
1.36626e+06
1.38351e+06
1.38205e+06
1.36808e+06
1.34368e+06
1.30504e+06
1.23056e+06
1.09805e+06
912477
710248
533259
401864
307434
251261
265861
328314
94127.7
66787.7
292766
398751
489793
559166
605195
631683
642538
639972
625230
601455
570854
538162
510934
500874
505409
506782
492435
469726
448558
442139
459000
491320
522994
547588
557452
540189
484744
391418
73011.2
25675.3
116604
149954
258758
420515
604391
761780
868711
934435
969740
987526
992359
982893
958408
928243
893774
852539
797592
723034
624528
505637
375621
247106
127510
81024.5
71526.7
70575.5
69174.2
63552.8
1602
37878.9
165214
182465
188646
186053
177265
168515
167308
176400
192332
209844
221748
218004
42899.2
43374
197868
220221
227889
226731
232408
254535
286709
315859
342687
373862
410305
440391
453917
450303
431125
403095
377017
362075
362091
372111
385282
395229
400327
400364
395274
380478
343983
280266
56678.5
51500.9
267100
331688
361511
342575
302610
274835
283815
336866
404406
472206
542927
609907
662703
693256
698774
684649
661251
642472
635500
638043
638534
634498
622698
603828
572014
522085
451533
364202
86634.4
75838.8
502238
468414
385164
337768
370092
460829
556511
638951
706044
745116
759577
749231
729120
708553
697542
701461
723824
767979
824184
885593
941137
977879
980325
935097
839275
709470
572898
446549
110787
62380.5
298933
405756
529851
625145
680955
709197
721388
728574
737448
753004
776585
809813
852212
899523
948714
991480
1.0245e+06
1.04426e+06
1.0458e+06
1.02333e+06
971530
889241
786231
677181
570665
464483
361277
271422
78660.1
87683
476057
486500
470834
451449
440301
442118
457686
486445
527608
576976
622187
652353
669273
670509
651298
616171
579253
556375
557697
577023
601057
619863
629998
633166
631735
621817
591034
518314
111752
56879.9
260871
262017
252992
258909
317502
441946
569756
664276
719362
745587
756332
758829
758735
763072
781995
822382
868650
903524
915316
894742
836655
744263
631506
520403
434021
383547
360448
345684
84918
77134.5
205940
290220
412371
516749
585759
627907
652850
672134
694261
724023
761382
804026
848862
894642
939223
978690
1.00457e+06
1.01795e+06
1.02318e+06
1.02074e+06
1.01245e+06
991100
942319
847818
702511
523152
356135
242148
72549.8
105857
548096
604984
635895
658826
684139
713736
750646
793223
839591
886319
931705
971212
998686
1.01013e+06
1.01187e+06
1.00395e+06
995353
990619
985876
959517
885291
759455
599774
432984
298791
230140
220501
214942
58356
75664.9
442662
606112
729421
808573
857245
883592
900598
922822
953118
992534
1.03604e+06
1.07578e+06
1.10554e+06
1.11834e+06
1.11545e+06
1.09965e+06
1.07311e+06
1.04267e+06
1.00868e+06
963034
894319
792133
661717
514357
369149
278560
277347
298979
83546.3
74820
519165
729029
854722
911455
927021
921014
912304
910918
920076
945831
985949
1.03822e+06
1.09291e+06
1.13738e+06
1.17767e+06
1.21151e+06
1.24468e+06
1.26836e+06
1.26157e+06
1.19285e+06
1.04909e+06
858917
669267
508262
374475
288256
279191
339583
94897.4
79693.7
395259
509280
600358
663431
702159
723732
733321
732105
722947
706329
680908
646713
612056
591771
586638
574336
534585
472266
394072
325265
300694
331381
389370
450491
500342
523356
503190
434621
74872.3
32775.2
142630
212061
354822
536533
719336
849040
917416
941140
938751
923758
904466
886277
871060
869069
875315
876811
857674
805616
713902
587599
441012
293381
154978
85990.2
71427
70657.1
71374.4
68248.8
1737.67
40123.5
175783
190545
193721
186168
169148
149046
138995
148989
174931
207091
234395
244730
47909.7
49073.5
229356
237555
227686
212347
216394
249493
293922
331433
366395
408389
455551
491196
503509
491912
457742
407162
353388
312550
298534
309515
334077
359113
378724
390752
395011
388160
358931
302625
60144.2
55571
318652
366478
377772
339099
282022
245654
265906
341865
423981
503641
583169
653351
700536
714021
690868
638429
571404
510961
475567
474529
495375
522861
543596
554560
548413
520797
468215
392630
89461.2
82998.9
583005
502994
380852
324663
379677
495053
604759
701810
780478
823160
826963
791982
734689
670419
609323
559990
533268
548268
605905
694542
790922
869033
913582
906385
843940
736645
611979
493578
115114
68668.5
346103
457810
583190
664805
698607
700998
683321
657283
627675
599003
575085
561127
564956
593972
650536
717732
785840
844764
883632
898738
882593
836014
765228
679350
588218
490709
387374
290559
82016.4
101378
558876
532424
483833
444585
429790
442429
474548
519940
576628
640648
696739
733870
750974
742778
697805
618222
524400
442425
399675
410641
455379
507414
551766
583797
608012
623972
617980
560051
109704
65434
313874
294942
273438
288299
375590
518014
635465
704794
734838
737516
722526
692201
643813
584854
540639
550482
612981
689175
748551
773137
753620
691283
596801
494018
413689
374099
369865
374701
86161.7
81741.1
235755
343476
475176
573218
628343
652748
656508
653724
653241
659298
668483
678265
688358
704191
731324
771903
812323
851844
886278
915379
937865
948222
932350
868416
744778
570432
392121
263661
74868.5
117964
582429
638863
673875
691959
703464
710988
719602
728035
734258
738039
743316
757886
785166
815452
845195
873859
901726
928893
955240
965619
929663
831718
682995
509710
354956
260983
232004
216899
59701.9
83547.7
503166
675664
799630
862500
883143
868651
836456
806342
782689
775523
786335
815104
855488
898403
932932
958915
972185
978391
977700
965623
930871
856402
738898
585315
425736
329527
313742
301134
84064.4
85114.7
594493
806433
927434
967762
956906
917428
869833
820804
768852
726950
700779
711562
769191
845924
936594
1.0274e+06
1.11812e+06
1.19578e+06
1.24475e+06
1.23007e+06
1.131e+06
964650
772572
594959
442036
333702
299044
335809
93697.5
93782.5
504482
617353
698735
746107
767670
775072
777984
779522
781713
781059
767422
733913
688523
654548
642754
628204
586687
512901
407751
290182
208421
223936
300356
384503
459971
508642
513107
465469
70501
38935.8
169030
265455
430710
622464
794893
895549
927902
911816
869254
815597
765136
732422
729372
763437
816583
864650
885392
859920
779441
650622
493027
330222
182941
93047.8
73071.5
72117.1
73303.5
69843.4
1955.03
41189.6
178517
193227
196693
188952
169723
142839
123100
129917
162681
206959
246693
267577
52171.5
54772.4
259295
251369
223304
194626
197641
239714
293021
337522
379715
431080
487783
529519
544153
530694
489928
426482
352657
288153
258032
270614
308174
348219
379103
397673
403165
393903
365256
316233
62169.8
60386.7
368220
393709
386174
333708
264595
221600
250752
339110
429347
515960
602272
676825
722992
728234
690316
613462
515770
418580
346751
333403
370300
426862
475771
510744
523668
512618
473884
409923
87217
92357.2
665315
537310
383436
320206
390307
518269
637942
752228
847795
899000
902554
857171
779608
687667
590115
491941
404660
360374
406632
520565
650806
763960
838276
858321
823621
741515
636037
531587
114464
78566.4
381372
505770
638332
719103
747152
739770
706826
661656
605297
543055
473911
409267
353381
336856
382866
465597
561775
649594
718195
760085
769979
750564
709486
648597
575772
490992
395167
301213
83402
117127
647452
580254
496595
434294
412607
435124
481659
538884
607029
683608
753808
803906
831099
825524
774649
680352
557493
429083
327697
300254
348474
431218
506896
562625
605808
636152
640456
579044
103396
77729.4
374787
329937
297246
324312
434034
575055
680998
736479
755079
747351
722360
678586
603973
496215
377629
329269
405166
520003
617630
672396
676450
633653
552266
459918
392762
371190
386736
400464
83172.9
86474.8
272168
400650
534097
627160
679390
698017
692449
677761
662903
649866
630249
600121
557234
513683
484965
505014
574665
659523
737643
804500
857382
894470
903551
862866
756766
588674
408080
276644
75652.1
130179
600909
673115
721923
741741
744474
736857
722904
700628
664284
615832
561011
517273
514184
566679
647159
726506
796191
857113
909695
946240
937575
863819
727234
553038
387206
282860
242522
214371
60972.8
100600
558174
739827
870168
926440
932278
891650
822906
746459
664896
595349
547527
539765
580910
654307
734037
809660
866787
910099
937660
952394
942957
888381
778362
615836
446297
352524
326354
289822
84630.7
108944
665531
879011
1.00408e+06
1.03997e+06
1.01493e+06
957094
889408
812433
715555
608886
494773
418768
451688
568827
716484
860886
1.00002e+06
1.11638e+06
1.20065e+06
1.22117e+06
1.15753e+06
1.01623e+06
833790
652075
488895
367889
313430
321418
90389.3
107870
616093
718423
780547
801820
794321
774934
760905
761358
781820
810374
821030
795444
738073
684435
664293
653919
623757
563019
471660
363080
266953
244811
295454
371027
446846
501260
514255
477349
60311.1
44454
192390
303865
481928
676703
835830
911900
914390
863016
780222
681145
588553
534783
553966
637643
740737
830881
886957
887024
820129
691882
528321
355715
205177
101901
75584.2
74504.5
75511.4
70883.2
3114.57
41516.6
174863
191169
197350
193585
178825
152608
125530
122649
156564
209559
257980
283764
57363.4
60537.9
287055
261143
216669
177629
181288
227299
284290
333948
381708
440618
505808
555185
575985
567655
530006
467800
390429
316119
275379
287391
332153
378385
410627
424769
419859
398659
366810
325375
67399.6
65433.6
415839
411211
383029
321121
247184
204462
237743
327252
419501
508937
600042
680828
732602
742123
705311
627550
525772
416894
322965
285609
320524
387864
449118
492918
512895
507219
472846
413398
83172.2
99408.1
756104
568401
384153
314198
391758
523982
651922
785120
902277
969215
982672
941892
865881
771592
665478
551007
435489
340927
343727
445121
579508
701709
785537
817715
800508
738540
649633
549740
110505
98118.9
420584
566903
712672
802138
834439
827691
792658
745072
684911
614750
532667
448944
362870
301440
303577
366057
452518
539941
611346
659090
676140
670062
644981
602718
544227
469596
383326
300978
84985.7
134320
741830
623213
502131
415060
385929
417506
475742
539328
615057
703479
788777
857892
903445
916994
887236
812509
702773
577349
461387
396391
412610
474638
539327
592096
633601
658821
652406
566569
96475.2
89538.8
439513
358162
312937
355222
479898
616622
713393
764206
779303
769907
747565
711016
646319
545378
423030
344275
383801
480440
570758
622618
627657
588112
511796
431814
384280
384401
410702
412810
80092.1
96117.6
327134
463368
592842
684981
739321
759383
754111
737076
716667
694219
658777
604569
523364
425391
318327
266187
366775
500361
619991
718547
795883
850990
874541
846884
751010
586381
410209
284460
75783.6
142117
615194
712487
777077
803057
802830
787900
761269
721556
658991
576037
474800
369757
290921
338124
471218
601281
707784
792860
863258
913966
918633
859591
732219
558790
391550
290057
244866
211135
65579
131806
624306
808981
941358
999484
1.00269e+06
954410
870042
769133
649508
531264
420447
346560
355978
445285
569449
690169
784609
855396
902996
935657
940659
895371
781491
602611
426860
332906
300687
277374
92179.3
151849
749968
957763
1.08454e+06
1.12106e+06
1.09099e+06
1.02708e+06
957121
876929
772217
650920
501715
353763
304767
436137
603003
769528
924872
1.05387e+06
1.14866e+06
1.18183e+06
1.13964e+06
1.01927e+06
848050
667692
502515
377539
312536
300220
83614.7
120506
724349
806615
842434
829292
778464
711893
664620
663409
715723
789043
836572
828714
762130
682554
648930
643646
632334
598960
542404
470524
401416
360615
362805
401111
452496
493620
503073
462890
49676
47951.3
204280
323054
507441
702023
849607
908022
890688
814319
700218
559549
416530
327349
392509
534799
677450
795752
875018
893313
836519
709308
543551
366494
216179
110880
78195.4
77371.9
78565.9
72872.7
8311.09
40695.3
164562
184889
196561
199591
191610
170076
142687
132127
160724
216136
269130
298242
234017
82465.8
81222.7
264559
309297
268432
212047
169825
173648
215197
269771
320996
371226
434361
507301
567271
599607
603205
579134
531691
469726
408749
371962
376812
413204
452238
477146
480793
463029
431126
396735
363154
293122
82541
90708.3
393530
461466
418880
368078
301935
233849
199164
229233
308500
396276
484269
578320
666866
730398
755468
736334
679191
599139
510364
431330
386686
394019
434649
479519
513005
525840
511293
468703
406711
300531
88812.1
121876
721308
832073
594186
387963
309425
382701
509697
642237
792239
932756
1.02375e+06
1.05635e+06
1.03521e+06
978951
902820
813178
715052
617677
533876
503746
541224
621286
708185
772688
800535
789391
741638
666580
566863
389325
110917
121505
469121
526982
660593
803430
901076
942341
943232
916212
878421
831985
776838
712560
645898
578543
523177
494081
496355
525157
564486
602685
628458
636514
627772
602821
563780
507279
436151
364892
318021
294741
100559
162361
763766
829955
660141
500549
388809
352404
391636
455801
520290
599156
695690
794596
883433
955308
1.00014e+06
1.00945e+06
979513
916319
831826
743351
670935
638872
636444
649371
665774
677745
673465
633976
525647
274204
91642.1
126427
511421
508265
394907
337934
382691
507292
638676
734905
789035
805907
798978
784495
766700
735597
681773
614931
560860
546456
572851
608559
624731
608245
558154
484862
422712
400008
417304
443492
428594
298395
118854
129541
474062
485020
556797
655179
738978
795881
822978
824499
812572
796312
776584
744460
692660
612746
515741
412139
349583
386569
484718
595085
694366
775409
832766
856391
829433
733458
570584
407500
313982
279300
126682
137858
515949
649459
756300
831544
865108
868394
854924
828530
789222
726566
645079
544933
442005
356336
357943
450469
567447
672403
758133
828547
878925
884740
828914
702120
526494
356767
248410
234987
318740
357174
139114
153545
590087
719688
875971
1.00518e+06
1.07022e+06
1.0809e+06
1.03959e+06
962141
862891
743199
618447
495439
400231
371635
425818
533077
655234
756342
834168
888508
925948
932191
884581
758628
562383
373655
316461
425620
528381
491272
177567
200324
742296
865421
1.03132e+06
1.15375e+06
1.19611e+06
1.1706e+06
1.11181e+06
1.05216e+06
987962
907559
815800
706522
602777
536043
568453
666396
789549
914763
1.02191e+06
1.1005e+06
1.12806e+06
1.09021e+06
983243
823590
650139
489963
368543
300608
275075
262931
91610.8
119098
582822
815215
875067
883526
833666
732831
602421
498742
494606
599554
728843
818871
835598
765130
654880
600098
598032
604676
600960
580101
543742
501191
463227
441936
443659
461179
476408
470427
424923
192713
51126.1
54116.2
151890
200041
320376
508892
702016
842828
892351
868022
782640
656654
501408
335643
224957
337260
503432
654887
777783
862390
886997
831486
703824
537745
361141
215499
118267
83509.5
86549.5
92047.1
90621.7
64435.7
8215.77
2784.29
39178.6
149995
174008
192313
203717
203255
187701
163148
148468
167998
218496
271319
302771
282651
235934
241466
304478
304943
264237
209179
172153
173428
205158
252017
300273
349167
412614
491239
563960
613619
636459
633095
608280
570407
531679
506989
507745
531211
559400
578295
578964
563024
539832
519079
503468
491073
492207
500511
542141
466558
398732
338461
280039
229228
205955
225553
286994
364205
446150
540030
635660
714785
762778
772265
748166
702037
646265
593822
554544
536766
540560
553648
563193
557087
525723
472161
417734
388822
454523
683484
978051
828568
584164
381488
302114
363359
474912
603029
762260
925022
1.04707e+06
1.11003e+06
1.11877e+06
1.09228e+06
1.04631e+06
987320
921300
852318
791686
748942
738235
754022
782175
804093
808983
788678
742732
670701
578641
487150
454278
491831
518299
580937
719536
867109
978720
1.03493e+06
1.0486e+06
1.03579e+06
1.01528e+06
991672
962760
927040
885770
841168
797420
758990
726448
708065
696418
688854
678264
661393
634232
593699
538941
468100
391575
331047
306280
328375
461291
742707
1.01051e+06
872721
666073
481507
356975
322592
365229
425592
484442
562181
664632
773580
875615
967127
1.04134e+06
1.08966e+06
1.10652e+06
1.09284e+06
1.0526e+06
995135
928114
864062
812630
772645
739879
705690
657776
579880
458877
333679
395254
549889
668283
544248
414703
350218
391036
511145
640567
742605
806249
829852
827591
818917
816063
814796
805878
786213
759203
728876
705533
685275
655210
607623
543916
479823
440364
437003
461099
483313
473921
440471
466267
527201
545742
523159
588323
679809
762041
826087
867571
884361
884983
881491
876313
864020
836523
788027
726157
659827
609638
597596
627843
683922
746621
803333
841923
849844
810971
711406
565936
442327
388463
392440
415159
465092
557052
671305
781678
867429
914948
928508
925429
911987
890229
851094
798437
733574
669811
614106
588311
607316
656051
716647
772874
821666
851856
842763
779822
651116
478590
333442
295574
374399
475283
544592
567729
586877
620139
739236
892200
1.02896e+06
1.11518e+06
1.146e+06
1.12535e+06
1.07076e+06
993752
902458
805641
713435
641180
604356
612967
661083
731083
800140
858309
901775
929898
925358
864678
728626
543573
419789
470741
614965
721771
752789
744117
731165
736268
868451
1.04128e+06
1.17995e+06
1.24398e+06
1.23674e+06
1.19647e+06
1.15802e+06
1.12215e+06
1.08195e+06
1.03636e+06
980437
922956
870620
848370
866262
914222
974898
1.03189e+06
1.07042e+06
1.07259e+06
1.02393e+06
919888
770973
607696
456460
345525
281105
246695
229404
211260
373036
746043
860142
907764
900669
827496
692453
508598
326738
314147
491347
667429
787442
824490
754024
613583
528658
524307
544475
562921
569161
559611
538218
510582
483745
462313
448793
434637
405844
348592
212441
149831
149540
173445
210866
318272
499241
685236
821168
869679
848533
771114
658894
528059
409720
365480
438610
560055
681881
783190
853511
870124
808155
676932
511142
339356
204449
122141
86208.6
87463.8
92714.4
91755.1
77155.9
44369
2425.99
37161.8
133051
159454
183785
203103
210168
201773
181175
164279
173049
213438
263058
293822
282944
230303
239081
297747
291809
253344
203933
172924
173295
197482
234438
275084
318030
377903
460085
545479
614560
659998
680791
680511
666197
647441
633493
631864
642471
657013
665010
658948
643690
628206
616521
606222
594403
582977
574280
538287
416279
349124
297493
256918
226081
210206
221254
265884
328461
398829
487258
587800
682549
753996
793043
801805
788625
762856
732510
701115
671824
647916
627623
604436
569026
515301
450955
403921
424657
574243
829110
974314
752291
537166
356766
281679
326965
417605
533450
693362
872283
1.02599e+06
1.12621e+06
1.17084e+06
1.17753e+06
1.16425e+06
1.13859e+06