/*--------------------------------*- C++ -*----------------------------------*\
| =========                 |                                                 |
| \\      /  F ield         | OpenFOAM: The Open Source CFD Toolbox           |
|  \\    /   O peration     | Version:  2.1.1                                 |
|   \\  /    A nd           | Web:      www.OpenFOAM.org                      |
|    \\/     M anipulation  |                                                 |
\*---------------------------------------------------------------------------*/
FoamFile
{
    version     2.0;
    format      ascii;
    class       volScalarField;
    location    "0.005300000";
    object      rho;
}
// * * * * * * * * * * * * * * * * * * * * * * * * * * * * * * * * * * * * * //

dimensions      [1 -3 0 0 0 0 0];

internalField   nonuniform List<scalar> 
12384
(
0.695503
0.707145
0.720009
0.726153
0.731677
0.73158
0.733731
0.730786
0.731183
0.727329
0.719238
0.702585
0.6912
0.767486
0.989835
0.98035
0.978189
0.972979
0.960992
0.952299
0.940643
0.940993
0.933448
0.936611
0.92689
0.928509
0.912915
0.914128
0.892225
0.895616
0.871426
0.873465
0.857744
0.8577
0.853206
0.848325
0.855944
0.849562
0.857543
0.854103
0.852292
0.874867
0.88703
0.894759
0.732999
0.73411
0.736278
0.737346
0.752605
0.760882
0.791512
0.790154
0.818692
0.807318
0.833307
0.821952
0.841834
0.833142
0.846541
0.838878
0.851142
0.841223
0.859878
0.850091
0.874259
0.875932
0.887126
0.885598
0.88249
0.872266
0.864532
0.870271
0.909941
0.908822
0.842664
0.848028
0.824384
0.819361
0.81572
0.824493
0.828096
0.834488
0.837274
0.835871
0.830006
0.823331
0.805759
0.794066
0.758041
0.774208
0.730743
0.748496
0.725352
0.743441
0.733213
0.761069
0.755114
0.776108
0.775119
0.806212
0.817991
0.838281
0.845273
0.851409
0.870498
0.866538
0.862964
0.857737
0.846928
0.844201
0.82277
0.83289
0.789371
0.810616
0.763533
0.787805
0.750711
0.770516
0.758956
0.756734
0.780025
0.767989
0.798237
0.790523
0.810323
0.816636
0.817932
0.845283
0.85366
0.910133
0.930421
0.945363
0.942116
0.940953
0.940228
0.914712
0.908569
0.902032
0.901379
0.889858
0.885169
0.878731
0.877744
0.867523
0.872499
0.860009
0.863266
0.847578
0.853161
0.833715
0.840312
0.821631
0.828658
0.816994
0.821419
0.819014
0.818515
0.819997
0.820026
0.818401
0.815372
0.812769
0.820488
0.837288
0.888754
0.876908
0.89162
0.901772
0.902962
0.906015
0.907549
0.897506
0.885028
0.875431
0.866731
0.858552
0.858404
0.855972
0.853662
0.856195
0.851463
0.865973
0.866882
0.8861
0.897675
0.916789
0.939203
0.977179
1.0276
1.06549
1.08074
1.06694
1.03595
1.01679
0.949973
0.950201
0.936466
0.915352
0.896426
0.883505
0.874847
0.86969
0.865688
0.862306
0.859554
0.853079
0.849579
0.836037
0.837627
0.823258
0.821905
0.83386
0.837934
0.869128
0.864637
0.887397
0.891601
0.899277
0.911319
0.92328
0.924888
0.924256
0.923859
0.921829
0.873496
0.871343
0.86827
0.865142
0.862394
0.85631
0.855175
0.850575
0.850483
0.846628
0.854493
0.852868
0.864717
0.864504
0.880173
0.882317
0.89284
0.89897
0.89988
0.89519
0.882595
0.862399
0.845695
0.837398
0.825022
0.826351
0.814772
0.817658
0.810974
0.811978
0.883058
0.876333
0.862288
0.852734
0.843283
0.837717
0.818161
0.822926
0.794979
0.806895
0.781865
0.795285
0.791974
0.788755
0.812318
0.806974
0.832924
0.833844
0.845663
0.847088
0.845859
0.837377
0.828415
0.82857
0.832381
0.832451
0.837656
0.83884
0.840704
0.840391
0.900437
0.890806
0.880335
0.872512
0.860812
0.850196
0.818383
0.82749
0.771174
0.792016
0.744194
0.767108
0.739571
0.757891
0.751693
0.773732
0.774993
0.785167
0.784982
0.781227
0.775107
0.777976
0.781048
0.777383
0.774399
0.770742
0.776532
0.776471
0.779972
0.779925
0.894469
0.844809
0.812545
0.829756
0.836259
0.836989
0.827521
0.824655
0.817815
0.82097
0.819091
0.82476
0.825221
0.83011
0.833492
0.836913
0.839864
0.841359
0.841197
0.839291
0.837234
0.836288
0.835153
0.835608
0.836989
0.839083
0.843711
0.854968
0.869342
1.05954
1.30127
1.28695
1.26527
1.25698
1.2387
1.14033
0.80747
0.768308
0.760469
0.763054
0.752257
0.754625
0.750319
0.748845
0.758297
0.762384
0.766444
0.76947
0.772797
0.773653
0.774418
0.777012
0.787349
0.801544
0.808474
0.811464
0.816035
0.842834
0.994884
1.19107
0.758627
0.766387
0.766483
0.759989
0.749681
0.741592
0.738596
0.742288
0.747151
0.749071
0.745845
0.722437
0.698792
0.743279
0.989962
0.98041
0.970871
0.948953
0.924962
0.912318
0.909616
0.917225
0.921748
0.921364
0.916279
0.906467
0.895291
0.883969
0.871572
0.858863
0.846447
0.837304
0.825446
0.831357
0.820473
0.832766
0.833981
0.841679
0.847158
0.852202
0.850854
0.860847
0.870769
0.888277
0.734559
0.734597
0.737127
0.743701
0.773538
0.801846
0.831434
0.825799
0.84371
0.830925
0.847169
0.832131
0.841188
0.828582
0.833712
0.82868
0.83465
0.833978
0.844966
0.844853
0.867243
0.868025
0.887117
0.889931
0.885418
0.876555
0.866081
0.859918
0.86467
0.86737
0.845412
0.842481
0.817407
0.810965
0.812686
0.827018
0.834092
0.844968
0.849469
0.849881
0.842411
0.835631
0.808636
0.811241
0.771063
0.781106
0.743099
0.754508
0.746246
0.743188
0.747063
0.761132
0.762254
0.774879
0.778399
0.796665
0.814271
0.828812
0.840707
0.838106
0.87058
0.865672
0.860622
0.857923
0.850524
0.854044
0.839201
0.847315
0.812918
0.831379
0.787157
0.808117
0.772905
0.789489
0.774226
0.7774
0.788512
0.783984
0.80442
0.79652
0.818674
0.816259
0.828302
0.83856
0.84813
0.876079
0.907859
0.924227
0.925887
0.921734
0.931777
0.908813
0.900998
0.895864
0.885568
0.883114
0.88055
0.880712
0.876018
0.881493
0.874403
0.870918
0.869782
0.856756
0.852541
0.839489
0.834576
0.825368
0.823556
0.822768
0.819648
0.825142
0.825829
0.824672
0.825529
0.823967
0.819858
0.814701
0.814904
0.825169
0.881192
0.881964
0.896922
0.896351
0.894554
0.891882
0.869232
0.854471
0.847541
0.844318
0.849439
0.849213
0.848884
0.844204
0.845402
0.842151
0.847881
0.844415
0.849432
0.861703
0.871981
0.888219
0.908068
0.935278
0.974615
1.03044
1.07189
1.07917
1.05125
1.02411
0.893089
0.87987
0.865983
0.856054
0.84982
0.846799
0.844872
0.844092
0.842591
0.841683
0.838122
0.835572
0.827675
0.823945
0.812802
0.815327
0.808357
0.824377
0.822255
0.844478
0.855562
0.87289
0.884462
0.893101
0.90305
0.913709
0.922628
0.924678
0.924429
0.92248
0.869653
0.871821
0.873932
0.871962
0.868852
0.865557
0.861742
0.856168
0.854901
0.856333
0.854642
0.862218
0.863261
0.871401
0.876221
0.888303
0.888581
0.893278
0.896397
0.893992
0.885081
0.869203
0.849641
0.840536
0.834161
0.834287
0.822211
0.825317
0.815236
0.815374
0.85664
0.846471
0.839052
0.832029
0.825297
0.826422
0.810533
0.813839
0.789514
0.798959
0.778924
0.789953
0.784555
0.791126
0.797928
0.804881
0.818744
0.829557
0.8378
0.844669
0.84726
0.841449
0.831201
0.82714
0.829063
0.83206
0.831876
0.834253
0.835821
0.836551
0.883406
0.872174
0.869266
0.866184
0.855092
0.850686
0.824186
0.829536
0.778548
0.798171
0.762211
0.766605
0.757825
0.755896
0.767407
0.769853
0.779314
0.785726
0.789539
0.787434
0.779999
0.776116
0.781175
0.779971
0.773937
0.772727
0.774385
0.776172
0.779227
0.781571
0.850822
0.823986
0.821361
0.829138
0.82175
0.808657
0.801369
0.798904
0.802008
0.806729
0.812792
0.819629
0.826107
0.831759
0.837224
0.841446
0.8433
0.843568
0.842504
0.841314
0.840577
0.84059
0.838103
0.835921
0.835106
0.835436
0.83877
0.848559
0.861547
0.920453
1.21822
1.09203
1.02258
1.03061
1.04158
0.86849
0.780201
0.768654
0.757732
0.758815
0.752249
0.751153
0.752552
0.754405
0.75819
0.762233
0.772571
0.77559
0.775413
0.77279
0.767181
0.763942
0.768936
0.79333
0.812738
0.816391
0.812289
0.828225
0.904701
1.16463
0.776887
0.770969
0.748817
0.723433
0.711649
0.704887
0.706049
0.705907
0.715467
0.731192
0.746713
0.742231
0.70992
0.733866
0.988694
0.975572
0.950109
0.913681
0.888493
0.885875
0.897452
0.91354
0.916438
0.916219
0.904681
0.893455
0.881763
0.872431
0.859722
0.845144
0.833434
0.815727
0.811548
0.80259
0.797233
0.808107
0.807174
0.825938
0.830829
0.843843
0.848427
0.852229
0.859335
0.878533
0.735935
0.73501
0.73792
0.749204
0.796147
0.814194
0.831766
0.8142
0.831008
0.816098
0.83237
0.811268
0.818766
0.80603
0.815637
0.814158
0.821196
0.823939
0.836817
0.827897
0.855618
0.854505
0.872278
0.882568
0.884959
0.877575
0.86957
0.85937
0.858446
0.859885
0.847248
0.834958
0.80963
0.80823
0.814071
0.830643
0.842271
0.854318
0.856046
0.852706
0.839579
0.834566
0.802406
0.807491
0.772369
0.772348
0.7496
0.746674
0.750019
0.739347
0.763031
0.75673
0.772986
0.774397
0.78537
0.79477
0.805981
0.822103
0.835365
0.849835
0.868401
0.863763
0.865577
0.871241
0.873881
0.87952
0.86218
0.86815
0.831411
0.845487
0.800597
0.821421
0.782963
0.801204
0.785258
0.783259
0.802403
0.78994
0.816082
0.802688
0.828882
0.817115
0.837767
0.8339
0.849519
0.862423
0.884936
0.90082
0.907376
0.920661
0.922616
0.901536
0.893622
0.886378
0.886186
0.887002
0.886839
0.880624
0.885469
0.875195
0.874009
0.866659
0.856501
0.838397
0.833801
0.811554
0.809973
0.795684
0.795826
0.791432
0.800102
0.803934
0.815047
0.821824
0.824418
0.825901
0.823912
0.818612
0.814123
0.81957
0.887137
0.888965
0.890581
0.886929
0.882412
0.859294
0.844072
0.847533
0.856728
0.864908
0.873134
0.867336
0.866997
0.86067
0.85477
0.853613
0.843485
0.85169
0.848201
0.856959
0.864536
0.874304
0.886669
0.905942
0.933552
0.982108
1.04855
1.08061
1.06708
1.01917
0.876789
0.86047
0.850773
0.845997
0.84461
0.844132
0.842937
0.841631
0.841088
0.83875
0.833843
0.82902
0.823113
0.814658
0.810324
0.802175
0.799779
0.809382
0.814454
0.832131
0.840452
0.858133
0.868972
0.884277
0.89261
0.904222
0.911298
0.918955
0.922056
0.921896
0.877277
0.876951
0.874333
0.867616
0.863267
0.859001
0.850693
0.849169
0.842844
0.845191
0.845707
0.842593
0.854781
0.853904
0.863719
0.871952
0.886107
0.888092
0.890768
0.88724
0.881998
0.870839
0.853826
0.842219
0.835929
0.838005
0.825851
0.828911
0.818869
0.815874
0.846305
0.835483
0.833021
0.834186
0.828229
0.828041
0.814812
0.821343
0.793325
0.80675
0.785918
0.79171
0.786989
0.795279
0.793149
0.809304
0.811691
0.824919
0.83139
0.837561
0.841965
0.841405
0.833119
0.82407
0.826719
0.824795
0.825805
0.82541
0.827824
0.828455
0.866168
0.869875
0.869522
0.866459
0.854964
0.846639
0.826394
0.825148
0.782633
0.806142
0.757836
0.780515
0.757623
0.77024
0.768589
0.773078
0.781657
0.785275
0.789744
0.788305
0.782171
0.773973
0.775102
0.777243
0.775875
0.769885
0.768997
0.770073
0.775124
0.779291
0.832348
0.822288
0.823198
0.815212
0.800578
0.795414
0.794298
0.801836
0.805536
0.813617
0.819463
0.827166
0.832463
0.838226
0.839912
0.840462
0.837474
0.83433
0.833831
0.836412
0.839526
0.841579
0.842429
0.842872
0.840319
0.836377
0.835414
0.841085
0.853987
0.884251
1.03003
0.883016
0.860529
0.880349
0.868668
0.810342
0.768498
0.764558
0.756619
0.754715
0.746343
0.744275
0.74223
0.747734
0.755417
0.757055
0.767813
0.776984
0.781361
0.778722
0.770971
0.761643
0.758987
0.782446
0.821818
0.825559
0.813554
0.820625
0.873243
1.14647
0.777491
0.754005
0.71685
0.70045
0.69643
0.700718
0.701888
0.704839
0.70428
0.711302
0.735953
0.746649
0.724363
0.727296
0.985984
0.962314
0.923191
0.880572
0.861874
0.867188
0.885879
0.904122
0.912382
0.907409
0.897365
0.886122
0.879571
0.867618
0.857664
0.836711
0.829027
0.803537
0.804166
0.783031
0.789132
0.785663
0.790504
0.806239
0.816604
0.834214
0.843878
0.853097
0.858396
0.877699
0.736433
0.736093
0.738869
0.754985
0.794369
0.801933
0.800485
0.786371
0.807937
0.810038
0.813696
0.804978
0.798124
0.804097
0.807122
0.819078
0.820751
0.827247
0.834466
0.837019
0.841882
0.856762
0.859966
0.869352
0.879832
0.877914
0.869985
0.861832
0.857547
0.855768
0.845867
0.828937
0.809067
0.803397
0.817977
0.833838
0.850858
0.857404
0.855602
0.847637
0.836776
0.824298
0.809239
0.787321
0.789636
0.750214
0.766548
0.735557
0.75488
0.750019
0.761787
0.760202
0.7737
0.784869
0.793243
0.796584
0.809438
0.821784
0.832791
0.842842
0.868053
0.867955
0.885105
0.897812
0.898212
0.890236
0.871005
0.874652
0.835497
0.843819
0.805085
0.81776
0.784692
0.799192
0.783142
0.79294
0.788642
0.80736
0.802282
0.824838
0.821
0.835844
0.834734
0.845871
0.852455
0.865316
0.877509
0.89207
0.902474
0.914155
0.912462
0.890886
0.88586
0.887274
0.88789
0.88599
0.881723
0.884458
0.871831
0.870684
0.862369
0.851949
0.833277
0.826694
0.803175
0.800897
0.78065
0.781803
0.769034
0.773103
0.768702
0.778097
0.789498
0.808773
0.821836
0.825072
0.824835
0.821487
0.815001
0.817351
0.883803
0.887619
0.885797
0.883381
0.864694
0.841403
0.850774
0.870895
0.888161
0.887769
0.883649
0.868175
0.854472
0.836229
0.827958
0.819018
0.829891
0.825731
0.841054
0.847206
0.858256
0.865745
0.874492
0.885713
0.906728
0.941295
1.019
1.07554
1.05963
1.01075
0.867731
0.85289
0.845505
0.844252
0.845263
0.844649
0.842804
0.842683
0.837858
0.832597
0.827514
0.820892
0.811787
0.806858
0.795397
0.79403
0.797983
0.793994
0.809234
0.813531
0.829896
0.843455
0.856852
0.871983
0.884605
0.894603
0.904391
0.910468
0.91576
0.920744
0.873104
0.868949
0.863564
0.860367
0.852731
0.850663
0.8403
0.84427
0.832349
0.836496
0.831275
0.838115
0.831451
0.845759
0.84257
0.854132
0.865011
0.880116
0.883104
0.883004
0.877628
0.869511
0.855245
0.844088
0.833993
0.837176
0.826691
0.829619
0.821748
0.818289
0.838547
0.835186
0.834341
0.83727
0.835733
0.83201
0.817939
0.823015
0.80099
0.808603
0.789523
0.795128
0.795031
0.79717
0.796605
0.811762
0.811846
0.818917
0.825958
0.830362
0.835249
0.837877
0.83261
0.823082
0.821162
0.824943
0.820542
0.820288
0.821014
0.820884
0.861523
0.86706
0.865256
0.860505
0.847699
0.839715
0.828268
0.815623
0.79346
0.798429
0.766665
0.776868
0.769426
0.763832
0.775889
0.777312
0.780114
0.785258
0.788487
0.789207
0.784965
0.777854
0.773798
0.783752
0.784041
0.78066
0.777995
0.774151
0.778446
0.785215
0.825376
0.8234
0.815536
0.800157
0.792095
0.791664
0.796605
0.798426
0.805017
0.80767
0.815119
0.821566
0.829362
0.834242
0.837066
0.832331
0.825897
0.824498
0.827119
0.832248
0.839697
0.84652
0.852543
0.85276
0.848189
0.839799
0.833397
0.835509
0.845943
0.873362
0.891134
0.827789
0.824937
0.85072
0.824568
0.784906
0.762295
0.763226
0.750784
0.750818
0.738133
0.734741
0.732796
0.731641
0.741244
0.749319
0.756978
0.765998
0.777682
0.780933
0.772658
0.7601
0.756402
0.775244
0.821613
0.832268
0.816661
0.818292
0.868615
1.14153
0.772148
0.731125
0.698534
0.695211
0.704887
0.714568
0.721583
0.727709
0.715576
0.716234
0.725481
0.748383
0.732208
0.727848
0.981757
0.948669
0.897815
0.855087
0.842428
0.850312
0.870246
0.894733
0.906732
0.903028
0.893286
0.885165
0.875713
0.870082
0.849994
0.83676
0.817244
0.798133
0.790285
0.774722
0.777194
0.770489
0.783551
0.790254
0.805457
0.824909
0.840072
0.84837
0.858698
0.875994
0.737801
0.736254
0.738249
0.750438
0.781628
0.773261
0.769424
0.762092
0.797948
0.799565
0.809249
0.789532
0.795564
0.79736
0.81318
0.817607
0.830833
0.824853
0.833369
0.832755
0.845523
0.844679
0.862482
0.859652
0.868333
0.875487
0.872028
0.863949
0.856483
0.856927
0.847487
0.824609
0.806975
0.803381
0.821154
0.840583
0.855315
0.85789
0.853311
0.844247
0.83712
0.819025
0.82359
0.783578
0.803781
0.756323
0.776715
0.746395
0.75936
0.747434
0.771306
0.75884
0.78667
0.790754
0.798848
0.805881
0.812955
0.822618
0.836117
0.850827
0.867059
0.883748
0.909726
0.911995
0.903897
0.886676
0.877514
0.871337
0.832604
0.843999
0.803061
0.812115
0.781569
0.794108
0.779298
0.780563
0.795656
0.79021
0.815795
0.809151
0.840526
0.829718
0.852047
0.848969
0.864157
0.869989
0.881528
0.892174
0.904584
0.921376
0.901723
0.884384
0.881966
0.879623
0.879758
0.879683
0.879513
0.868068
0.867424
0.860573
0.852782
0.834949
0.827675
0.80333
0.799688
0.776451
0.776577
0.758602
0.763549
0.753987
0.764451
0.763749
0.76875
0.784688
0.807725
0.822697
0.82366
0.822317
0.815473
0.815893
0.892392
0.888875
0.882926
0.867338
0.842287
0.848642
0.876275
0.895857
0.901268
0.884264
0.878222
0.847146
0.836064
0.815062
0.802671
0.798358
0.790386
0.808772
0.817229
0.834386
0.846866
0.858231
0.864123
0.873998
0.885309
0.921331
0.997684
1.05476
1.04563
0.9981
0.861052
0.847823
0.842469
0.845992
0.846473
0.844499
0.842762
0.837846
0.831857
0.825883
0.817199
0.809042
0.800697
0.788821
0.785753
0.779175
0.775584
0.789389
0.793727
0.800358
0.81924
0.832713
0.84286
0.860973
0.876296
0.887323
0.895512
0.904199
0.910356
0.916952
0.865856
0.859651
0.856477
0.852663
0.845874
0.845372
0.838908
0.840702
0.831059
0.834177
0.834738
0.830192
0.841382
0.831169
0.847097
0.838716
0.84741
0.856325
0.869457
0.871532
0.870362
0.865666
0.857147
0.84417
0.836747
0.834317
0.829751
0.831005
0.824
0.819734
0.833587
0.836535
0.841657
0.839545
0.833414
0.836035
0.8161
0.823731
0.798116
0.803519
0.7891
0.794442
0.788286
0.802147
0.795637
0.811167
0.810799
0.822333
0.820114
0.825766
0.829704
0.834308
0.832374
0.824761
0.817484
0.815677
0.817673
0.815213
0.813968
0.812424
0.860407
0.860489
0.85815
0.851514
0.841944
0.834009
0.828806
0.809648
0.793941
0.806803
0.772661
0.798842
0.767948
0.785962
0.780596
0.780737
0.793687
0.786814
0.789784
0.79112
0.78814
0.781334
0.773906
0.771953
0.775761
0.775205
0.770689
0.768351
0.770702
0.779645
0.823483
0.819661
0.805728
0.792356
0.788266
0.7904
0.789594
0.790752
0.789039
0.796429
0.800911
0.810984
0.820579
0.830138
0.833779
0.832322
0.823613
0.821774
0.822093
0.828617
0.842387
0.865056
0.880103
0.875493
0.858874
0.844869
0.8356
0.832727
0.840409
0.865752
0.857691
0.79822
0.811957
0.826532
0.798157
0.773142
0.762309
0.756357
0.750216
0.73797
0.740503
0.733281
0.735093
0.732999
0.730482
0.740859
0.747627
0.756781
0.766654
0.776676
0.773892
0.759904
0.753322
0.766481
0.81396
0.831077
0.817673
0.821356
0.878131
1.15492
0.769299
0.720115
0.696037
0.704125
0.718045
0.732493
0.736972
0.747752
0.740583
0.72392
0.729912
0.749602
0.735318
0.734508
0.972352
0.93199
0.876956
0.841682
0.834507
0.836962
0.85549
0.884866
0.900155
0.901339
0.891653
0.882429
0.876893
0.867825
0.843284
0.835453
0.80579
0.800342
0.778268
0.776012
0.764592
0.768206
0.775176
0.784632
0.803169
0.821562
0.840586
0.851931
0.858069
0.878647
0.741885
0.73783
0.738719
0.749169
0.758908
0.756839
0.747527
0.760638
0.780763
0.805026
0.794568
0.788216
0.786585
0.802366
0.810188
0.825393
0.82012
0.826038
0.818621
0.827182
0.834937
0.840449
0.848766
0.861167
0.860642
0.870206
0.874187
0.864671
0.859392
0.857015
0.844971
0.824103
0.807935
0.803425
0.826042
0.846136
0.857908
0.856394
0.853266
0.841585
0.845542
0.818776
0.833372
0.794161
0.809228
0.765555
0.785309
0.753799
0.766945
0.756383
0.770842
0.76992
0.79169
0.794797
0.808097
0.81362
0.820234
0.8273
0.839832
0.850394
0.869591
0.906616
0.91813
0.913491
0.899462
0.889272
0.876263
0.867434
0.829365
0.841468
0.803682
0.802387
0.781864
0.789021
0.774718
0.783562
0.780401
0.799706
0.796523
0.827083
0.828605
0.849509
0.854589
0.865448
0.872956
0.878196
0.890716
0.899201
0.906406
0.919441
0.889056
0.872212
0.871033
0.870532
0.867777
0.866788
0.866658
0.868191
0.857159
0.853013
0.838253
0.83198
0.806324
0.802234
0.778571
0.777373
0.754525
0.757374
0.742596
0.751747
0.744747
0.753842
0.765126
0.778528
0.794896
0.817047
0.823456
0.823093
0.814947
0.814532
0.891533
0.886407
0.874381
0.852399
0.843333
0.871524
0.898651
0.900443
0.889834
0.87603
0.866803
0.837462
0.817502
0.789914
0.78819
0.777142
0.788795
0.785184
0.803127
0.82197
0.837269
0.850555
0.856554
0.859153
0.878322
0.90941
0.977946
1.04287
1.04382
0.989399
0.854744
0.842848
0.84265
0.845496
0.844037
0.841914
0.837003
0.832308
0.826851
0.816847
0.807072
0.798473
0.783266
0.782119
0.770304
0.763106
0.773406
0.766211
0.780232
0.787239
0.813199
0.815447
0.832932
0.854199
0.867586
0.878114
0.890732
0.89537
0.902561
0.911925
0.859527
0.85454
0.849452
0.848617
0.841025
0.84717
0.836806
0.841788
0.837485
0.849046
0.842323
0.850981
0.840182
0.851722
0.838874
0.848814
0.841162
0.84652
0.859199
0.871455
0.869765
0.86394
0.85464
0.845476
0.83579
0.836495
0.830168
0.831618
0.82644
0.821686
0.834365
0.839634
0.84305
0.840887
0.829744
0.832624
0.815082
0.821466
0.792093
0.805352
0.785307
0.785553
0.787406
0.78963
0.792448
0.812014
0.807869
0.82311
0.819641
0.825105
0.828012
0.833053
0.832896
0.828608
0.819143
0.813146
0.81351
0.813646
0.812219
0.81133
0.855864
0.853977
0.849945
0.847267
0.837203
0.828483
0.827026
0.813079
0.799405
0.816004
0.789823
0.802478
0.78081
0.78514
0.790038
0.792039
0.802841
0.790948
0.802187
0.79332
0.790358
0.78849
0.787545
0.789475
0.792438
0.789697
0.785773
0.781812
0.786729
0.79108
0.821778
0.814145
0.796938
0.787427
0.786643
0.781509
0.77963
0.774986
0.777632
0.776726
0.787581
0.796551
0.80861
0.819897
0.832258
0.835803
0.825922
0.813613
0.81111
0.81957
0.839747
0.870458
0.894215
0.888408
0.863027
0.839976
0.827802
0.829406
0.840633
0.858782
0.839975
0.78682
0.802644
0.80661
0.785203
0.765773
0.762925
0.748941
0.752421
0.73286
0.741977
0.733843
0.735909
0.738234
0.731735
0.737652
0.736275
0.749172
0.758705
0.769256
0.773583
0.759246
0.746755
0.760261
0.808801
0.831112
0.823514
0.832701
0.927095
1.16019
0.76123
0.70956
0.694586
0.709287
0.728831
0.737656
0.746691
0.755029
0.754283
0.741595
0.73747
0.751755
0.741745
0.734509
0.966056
0.921076
0.866816
0.837791
0.831891
0.833023
0.846413
0.869526
0.894519
0.89947
0.889443
0.882173
0.880676
0.863528
0.846117
0.826944
0.806125
0.800528
0.776991
0.776165
0.762122
0.770379
0.773338
0.789657
0.805798
0.82371
0.843938
0.853561
0.864485
0.880629
0.742495
0.740586
0.737057
0.74365
0.750827
0.740671
0.746723
0.748688
0.782544
0.796694
0.795346
0.777896
0.788485
0.798375
0.814652
0.816248
0.820874
0.807822
0.812812
0.810188
0.822834
0.829588
0.842542
0.851473
0.862961
0.868406
0.874232
0.868781
0.859649
0.854579
0.850756
0.821814
0.809484
0.809531
0.828957
0.850973
0.857644
0.85685
0.853503
0.845697
0.844716
0.824983
0.839996
0.798491
0.809813
0.77216
0.786447
0.757711
0.767454
0.763723
0.762672
0.790305
0.782736
0.810049
0.808446
0.821177
0.824991
0.831916
0.843519
0.853941
0.876401
0.916231
0.916282
0.911057
0.898715
0.887773
0.873233
0.863938
0.831181
0.83465
0.802387
0.80122
0.783972
0.781103
0.780875
0.777518
0.79018
0.785271
0.814908
0.814625
0.843478
0.851826
0.863525
0.878093
0.88029
0.891514
0.897271
0.904682
0.911484
0.923593
0.880637
0.866068
0.86103
0.84914
0.847694
0.85803
0.862665
0.857184
0.856689
0.843564
0.839712
0.81421
0.808217
0.785539
0.78156
0.759839
0.758178
0.741637
0.745597
0.734238
0.738751
0.742673
0.753328
0.777094
0.791095
0.815772
0.817004
0.821691
0.81329
0.815124
0.890866
0.879013
0.858084
0.842787
0.855687
0.88625
0.89628
0.88755
0.876591
0.869809
0.865699
0.829283
0.806097
0.788299
0.777783
0.779928
0.779195
0.791562
0.796828
0.813058
0.83093
0.839037
0.845377
0.853122
0.864469
0.896641
0.996794
1.04398
0.998731
0.944292
0.848309
0.837986
0.841011
0.844398
0.84266
0.838499
0.834437
0.829505
0.817429
0.810179
0.80091
0.785684
0.774441
0.773439
0.756571
0.760528
0.755617
0.765986
0.767701
0.776596
0.799995
0.805003
0.827253
0.847596
0.85813
0.871899
0.883348
0.891976
0.900094
0.909181
0.85325
0.848922
0.8459
0.844819
0.841766
0.843179
0.837537
0.846041
0.847583
0.843697
0.840737
0.838756
0.849729
0.836413
0.844859
0.831888
0.842052
0.831447
0.838517
0.848613
0.857774
0.856172
0.85472
0.845125
0.840452
0.835987
0.833137
0.83241
0.82965
0.825927
0.83635
0.842047
0.8412
0.838215
0.829755
0.8303
0.815761
0.820981
0.795234
0.806703
0.779984
0.787758
0.779574
0.790331
0.785888
0.808687
0.808122
0.822917
0.820459
0.832065
0.828962
0.833449
0.841551
0.830335
0.818039
0.820715
0.818617
0.811014
0.807759
0.807431
0.849146
0.844916
0.845953
0.845609
0.830001
0.827881
0.818349
0.821407
0.799994
0.825886
0.786329
0.811273
0.779856
0.796693
0.786759
0.806933
0.804017
0.810149
0.809387
0.796811
0.800934
0.800684
0.789401
0.780464
0.781679
0.783914
0.780005
0.776405
0.782028
0.794191
0.819
0.807488
0.790926
0.782432
0.777824
0.77371
0.76283
0.758882
0.756676
0.763372
0.766971
0.779961
0.793119
0.809852
0.82521
0.835384
0.828058
0.814674
0.812726
0.816508
0.820665
0.834699
0.854775
0.862806
0.848737
0.83504
0.822416
0.824498
0.838354
0.85944
0.842194
0.783099
0.793218
0.794362
0.77864
0.76323
0.763122
0.746113
0.752505
0.733072
0.743695
0.730156
0.735112
0.735593
0.735254
0.741372
0.735781
0.739287
0.751051
0.764397
0.768615
0.754329
0.743351
0.75223
0.799066
0.831772
0.830149
0.843388
0.986901
1.179
0.762438
0.714687
0.702205
0.718383
0.736258
0.742364
0.756431
0.751401
0.768486
0.757215
0.748036
0.761922
0.739879
0.737348
0.953459
0.905118
0.854209
0.834013
0.833456
0.838187
0.837883
0.857605
0.886925
0.89681
0.889335
0.886007
0.880007
0.867289
0.844735
0.826605
0.807578
0.802601
0.782592
0.778975
0.768559
0.775238
0.782269
0.799
0.815457
0.836992
0.851072
0.860383
0.864658
0.877133
0.747125
0.743267
0.73934
0.740683
0.740127
0.740775
0.736899
0.754229
0.771066
0.801498
0.787829
0.779029
0.784447
0.801599
0.81121
0.817691
0.813921
0.800075
0.808021
0.798457
0.8202
0.820611
0.836956
0.850789
0.861464
0.87678
0.877676
0.875745
0.864601
0.857428
0.850853
0.830259
0.808089
0.814206
0.836028
0.851699
0.857194
0.856331
0.85382
0.845945
0.845819
0.829527
0.833579
0.799114
0.813535
0.771823
0.784519
0.760204
0.771613
0.773242
0.767534
0.792349
0.784787
0.815375
0.807855
0.823071
0.826869
0.832364
0.846109
0.846691
0.893368
0.923029
0.915581
0.907544
0.896646
0.884468
0.869996
0.862028
0.834029
0.833005
0.80891
0.803936
0.787619
0.785727
0.775492
0.781819
0.783967
0.802603
0.807982
0.831936
0.846458
0.861807
0.877688
0.883682
0.89377
0.900264
0.907851
0.912639
0.914502
0.923927
0.868055
0.85276
0.841306
0.830348
0.835373
0.850255
0.855789
0.850684
0.8426
0.845829
0.827181
0.819035
0.797927
0.794759
0.771008
0.770668
0.747063
0.75016
0.736962
0.739735
0.739366
0.745253
0.76026
0.77316
0.795441
0.81337
0.816076
0.815952
0.81441
0.814232
0.887379
0.871676
0.848534
0.842748
0.865432
0.886339
0.884349
0.86851
0.863173
0.868914
0.860974
0.828903
0.811901
0.781567
0.778891
0.784436
0.784085
0.788874
0.801882
0.810902
0.825967
0.831914
0.835598
0.841867
0.863321
0.929057
1.00583
0.999554
0.968102
0.94801
0.845946
0.835855
0.838992
0.838418
0.834561
0.83399
0.830683
0.822314
0.81453
0.808543
0.793091
0.779617
0.77664
0.765189
0.749174
0.742741
0.744362
0.744937
0.768403
0.76614
0.791922
0.79619
0.830853
0.83283
0.85179
0.866808
0.876437
0.882377
0.889626
0.898795
0.855408
0.849052
0.843736
0.843972
0.836967
0.844307
0.837709
0.8504
0.838744
0.848043
0.83197
0.840446
0.828486
0.849568
0.840128
0.84021
0.832186
0.835165
0.839697
0.846364
0.859179
0.859315
0.849442
0.846755
0.840619
0.837719
0.834312
0.83132
0.828578
0.824645
0.848393
0.843947
0.83946
0.835923
0.829229
0.830044
0.817801
0.824878
0.799425
0.811327
0.789327
0.789503
0.782505
0.791455
0.789268
0.802603
0.816882
0.832004
0.830411
0.827462
0.835011
0.84773
0.840046
0.831088
0.834341
0.824507
0.813117
0.808251
0.801406
0.800102
0.856236
0.844676
0.843792
0.841212
0.82994
0.823834
0.811108
0.827183
0.801181
0.824942
0.790901
0.808322
0.783997
0.796096
0.790379
0.808437
0.811331
0.819626
0.809058
0.809047
0.809241
0.808405
0.807044
0.80546
0.801679
0.797653
0.793395
0.792848
0.799173
0.799098
0.816015
0.802164
0.785651
0.776302
0.771716
0.756949
0.754411
0.745463
0.747376
0.748174
0.756877
0.765001
0.781471
0.79664
0.81152
0.830912
0.840682
0.829666
0.817927
0.806853
0.808162
0.815488
0.821491
0.827303
0.825738
0.820743
0.820356
0.824685
0.839913
0.856667
0.873221
0.784148
0.785373
0.785687
0.775801
0.762935
0.766832
0.743825
0.755983
0.731423
0.746627
0.735408
0.740444
0.737957
0.734926
0.739157
0.734824
0.740192
0.740773
0.759029
0.76973
0.754244
0.738376
0.748211
0.798074
0.842351
0.850342
0.882065
1.06977
1.18791
0.758104
0.71175
0.703815
0.719865
0.739333
0.743702
0.757651
0.750968
0.774052
0.764694
0.77191
0.75834
0.746374
0.754574
0.804464
0.859245
0.927716
0.888031
0.852156
0.835373
0.840622
0.842968
0.83433
0.846481
0.878204
0.894236
0.89251
0.885761
0.886142
0.869872
0.850211
0.827294
0.813304
0.803091
0.789866
0.78621
0.779228
0.787945
0.799846
0.81855
0.837811
0.847793
0.847186
0.836419
0.826428
0.829321
0.769843
0.756397
0.75639
0.749044
0.739369
0.73953
0.7401
0.734965
0.738328
0.753195
0.766819
0.804879
0.783761
0.779545
0.782632
0.798287
0.810091
0.81398
0.812993
0.800247
0.809898
0.796398
0.821706
0.816095
0.840683
0.848796
0.874829
0.878058
0.883181
0.866411
0.857242
0.843265
0.8268
0.821676
0.8601
0.825041
0.815378
0.815985
0.837417
0.853893
0.854827
0.856083
0.849618
0.848591
0.841367
0.835274
0.81742
0.81987
0.804051
0.775557
0.779153
0.761539
0.764519
0.772404
0.763502
0.797009
0.781908
0.817778
0.806348
0.826468
0.828048
0.843873
0.853144
0.84386
0.850967
0.860339
0.891208
0.900491
0.90001
0.897024
0.890429
0.880964
0.867995
0.862619
0.841798
0.838297
0.816271
0.814106
0.799827
0.801514
0.798845
0.798253
0.794465
0.812476
0.824287
0.844075
0.849657
0.872374
0.885963
0.895236
0.901989
0.911061
0.914975
0.913538
0.90942
0.909557
0.902239
0.841021
0.861549
0.840094
0.821537
0.807645
0.820234
0.841392
0.849236
0.849108
0.847019
0.837443
0.833231
0.81413
0.803975
0.79284
0.780598
0.773042
0.757916
0.75294
0.748375
0.749609
0.746274
0.75873
0.765578
0.786105
0.794302
0.813115
0.808988
0.81199
0.811652
0.820156
0.844097
0.83588
0.870488
0.850515
0.837411
0.843853
0.865589
0.874829
0.867956
0.85276
0.856167
0.864685
0.860268
0.846612
0.816003
0.788334
0.78412
0.783472
0.787495
0.790092
0.805019
0.810308
0.817042
0.822588
0.828415
0.844447
0.882397
0.952149
0.989485
0.981595
0.917337
0.850917
0.819436
0.803981
0.819842
0.819181
0.825019
0.829992
0.835443
0.831823
0.826634
0.822351
0.814383
0.804963
0.794284
0.781336
0.766011
0.766192
0.744845
0.74866
0.743838
0.740162
0.766957
0.765491
0.780324
0.798365
0.822094
0.830611
0.845571
0.863286
0.871707
0.881313
0.893401
0.885561
0.865145
0.865948
0.850325
0.847675
0.84258
0.84182
0.835249
0.844868
0.837855
0.848603
0.836221
0.846508
0.822521
0.826238
0.8273
0.826037
0.835705
0.827483
0.824277
0.813659
0.832681
0.839217
0.847257
0.850847
0.851548
0.84557
0.842912
0.841048
0.83738
0.832896
0.830509
0.830609
0.829355
0.836976
0.832824
0.831584
0.834591
0.8344
0.829857
0.826542
0.821649
0.829357
0.807462
0.804171
0.786426
0.785638
0.777857
0.789884
0.793624
0.810603
0.819465
0.822071