/*--------------------------------*- C++ -*----------------------------------*\
| =========                 |                                                 |
| \\      /  F ield         | OpenFOAM: The Open Source CFD Toolbox           |
|  \\    /   O peration     | Version:  2.1.1                                 |
|   \\  /    A nd           | Web:      www.OpenFOAM.org                      |
|    \\/     M anipulation  |                                                 |
\*---------------------------------------------------------------------------*/
FoamFile
{
    version     2.0;
    format      ascii;
    class       volScalarField;
    location    "0.006150000";
    object      OH;
}
// * * * * * * * * * * * * * * * * * * * * * * * * * * * * * * * * * * * * * //

dimensions      [0 0 0 0 0 0 0];

internalField   nonuniform List<scalar> 
12384
(
0.0104263
0.0103487
0.010274
0.0102716
0.0102462
0.0102628
0.0102554
0.01029
0.0103387
0.010395
0.0104279
0.0104392
0.0104307
0.0106094
0.00424156
0.00497428
0.00542296
0.00560289
0.00580341
0.00598374
0.00611794
0.00614421
0.00607322
0.00604615
0.00605243
0.00605067
0.00608485
0.00610824
0.00613565
0.00615411
0.00617312
0.0061771
0.00620315
0.00616938
0.00616603
0.0061444
0.0060921
0.00605154
0.00603228
0.00602618
0.00607425
0.00541423
0.00413646
0.00397035
0.00552298
0.00581852
0.00611257
0.00625106
0.00619583
0.00606196
0.00586926
0.00576604
0.00558801
0.00542026
0.00512451
0.00486972
0.00466264
0.00450967
0.0043931
0.0043081
0.00425111
0.00425422
0.00425295
0.00438201
0.00448938
0.00467129
0.0048653
0.00501826
0.00524087
0.00541063
0.00567856
0.00579718
0.00534457
0.00513903
0.00408783
0.0040255
0.00390315
0.00385356
0.00384595
0.00386094
0.00389283
0.00392014
0.00391864
0.00392415
0.00392648
0.00384689
0.00384574
0.00361928
0.00376307
0.00338611
0.00355813
0.00328625
0.00342418
0.00336534
0.00342214
0.00347086
0.003533
0.00355963
0.00362204
0.00371865
0.00342028
0.00322649
0.00318455
0.00317389
0.00148457
0.00156628
0.00179903
0.00197604
0.00212038
0.00216432
0.0022055
0.00219055
0.00206134
0.002004
0.0019418
0.00183842
0.00183755
0.00179091
0.00178533
0.00182251
0.00175527
0.00198834
0.00210888
0.00256393
0.00320102
0.00411234
0.00417904
0.00380029
0.00351336
0.00342401
0.00334313
0.00342299
0.00353664
0.0036456
0.0012155
0.00091444
0.000923463
0.0010815
0.00118931
0.0013265
0.00136338
0.00132233
0.0013044
0.00123366
0.00121909
0.00116145
0.00114001
0.00110264
0.00110631
0.00106268
0.00105709
0.0010646
0.00107199
0.00108334
0.00111285
0.00117773
0.00116663
0.00125539
0.00129864
0.00134283
0.00134732
0.00141127
0.00154495
0.00148881
0.00199272
0.00208537
0.00229152
0.00211024
0.00169964
0.00156385
0.00150379
0.00149559
0.00143459
0.00145373
0.00147137
0.0013819
0.00137532
0.00137196
0.00141127
0.00143487
0.00139575
0.00136494
0.00150495
0.00151439
0.00159629
0.00162569
0.00166765
0.00169855
0.00344854
0.00374855
0.00378757
0.00378616
0.0037884
0.00378943
0.00268073
0.00185332
0.00124289
0.00107757
0.0010904
0.00110532
0.00112051
0.00107688
0.00104295
0.00100165
0.00098268
0.000916117
0.00093142
0.000925732
0.000909964
0.00096939
0.000958026
0.0010116
0.00103297
0.00104667
0.000997862
0.000967623
0.00118199
0.00165319
0.00160497
0.00160822
0.00157198
0.00155974
0.00152062
0.0015452
0.00199568
0.00172286
0.00157809
0.00162457
0.0016509
0.00171358
0.00170007
0.00166853
0.00167605
0.00159158
0.00165943
0.00155899
0.00160718
0.00164829
0.00162693
0.00168745
0.00165981
0.00169091
0.00165828
0.00125999
0.000449126
0.000333894
0.000388149
0.00045924
0.000486039
0.000525504
0.000495813
0.000427196
0.000412088
0.000354207
0.00200293
0.00114346
0.000992381
0.000989164
0.00102197
0.00104863
0.00106514
0.0010677
0.00106038
0.00108205
0.000922062
0.000936005
0.00094689
0.00102978
0.00100975
0.00103767
0.00100225
0.00102628
0.00104739
0.00105506
0.00104591
0.000953413
0.000752619
0.000621596
0.000613328
0.000611347
0.000620915
0.000626484
0.000610575
0.000601971
0.000697805
0.00070165
0.000701897
0.000725071
0.000738195
0.000736231
0.000719139
0.000738057
0.00073788
0.00068208
0.000719608
0.000641662
0.000678081
0.000640702
0.000676977
0.000710384
0.000719014
0.000774299
0.000792723
0.000814651
0.000748812
0.000565495
0.000501511
0.000489564
0.000474802
0.000465448
0.000451477
0.000456103
0.000468568
0.000481973
0.000719611
0.000855275
0.000866069
0.000757432
0.000495115
0.000406222
0.000491559
0.000675724
0.000698694
0.00073045
0.000755818
0.000690051
0.000678472
0.00079995
0.00081465
0.000830458
0.000775098
0.000764773
0.000747378
0.000738949
0.000874568
0.000859549
0.000845869
0.000827555
0.00082087
0.000807312
0.000796384
0.000726582
0.000592187
0.000694175
0.00118564
0.00111519
0.00187586
0.00324746
0.00165118
0.000793009
0.00252073
0.000172564
9.77846e-05
9.26635e-05
9.66936e-05
9.93234e-05
8.44972e-05
9.0494e-05
0.000105417
0.000110631
0.000121251
0.000129364
0.000120384
0.000151649
0.000163244
0.000167777
0.000144155
0.000116749
9.58425e-05
8.87381e-05
8.9515e-05
9.4016e-05
0.000118654
0.000767765
0.00938651
0.0096222
0.00992153
0.00998303
0.00986227
0.00976557
0.00958227
0.0095689
0.00970458
0.00998575
0.0102581
0.0104255
0.0104414
0.0105508
0.00429034
0.00509203
0.00557065
0.00587143
0.00622668
0.00649844
0.00631617
0.00603087
0.00596369
0.00596161
0.00604199
0.00615862
0.00625638
0.00634947
0.00639054
0.00642374
0.00645826
0.0065047
0.00655633
0.00664357
0.0067373
0.00682081
0.00675796
0.00656752
0.00633405
0.00614418
0.00609927
0.00586144
0.00509329
0.00423245
0.00554143
0.00592773
0.00621528
0.00617501
0.00590543
0.00569053
0.00551729
0.00530603
0.00483353
0.00431554
0.00388342
0.00361887
0.00352509
0.00342487
0.00339263
0.00334678
0.00331025
0.00329071
0.00324534
0.00331752
0.00337464
0.00359122
0.00386135
0.00424171
0.00476326
0.00510994
0.00547842
0.00573642
0.00567538
0.00519499
0.00406796
0.0039666
0.00380955
0.00378182
0.00387208
0.00394915
0.00403381
0.00409449
0.00410969
0.00409448
0.00409626
0.00411162
0.0040548
0.00399209
0.00402629
0.0038438
0.00385128
0.0037842
0.00371836
0.00369173
0.00362923
0.00358822
0.00355285
0.00354262
0.00358215
0.00370333
0.00364525
0.00316811
0.00297926
0.00300799
0.00144706
0.00191478
0.00237488
0.0026607
0.00300549
0.00324212
0.00340266
0.00341493
0.00344959
0.00347887
0.00335961
0.00321015
0.00297066
0.00266918
0.00242428
0.0022946
0.00200489
0.00201268
0.00206208
0.00228815
0.00270228
0.00363515
0.00414256
0.00346316
0.00288461
0.00273021
0.00278264
0.0028532
0.00295252
0.00319181
0.00119763
0.000969393
0.00106986
0.00130409
0.00145052
0.00144525
0.0013484
0.00120171
0.0011423
0.00111374
0.00108373
0.00106769
0.00103857
0.00103821
0.00102687
0.000990165
0.00102582
0.000980217
0.00100005
0.00104468
0.00105157
0.00109344
0.00114436
0.00119029
0.00125408
0.00130299
0.00133777
0.00135287
0.00138153
0.00129856
0.00194356
0.00210005
0.00187038
0.0014648
0.00132815
0.00144003
0.00151717
0.00182606
0.00200661
0.00213333
0.00223301
0.00221723
0.00226602
0.00223915
0.00223498
0.00220621
0.00218061
0.00210013
0.00198481
0.00191209
0.00180969
0.00173118
0.00161338
0.0017058
0.00237906
0.00375144
0.0035787
0.0035566
0.00364261
0.00362803
0.0015453
0.000995455
0.00102973
0.00111633
0.00121557
0.00118938
0.00113121
0.00106786
0.00101839
0.00096046
0.000949955
0.000859688
0.000859676
0.000869336
0.000858428
0.000865541
0.000929277
0.000955962
0.000981123
0.00103069
0.00104836
0.000969089
0.00105001
0.00144036
0.00161445
0.00145924
0.00133634
0.00126988
0.00128146
0.0013871
0.00175757
0.00147735
0.00159784
0.00180539
0.001883
0.00195887
0.00194894
0.00195418
0.00193932
0.0019029
0.00189561
0.00189954
0.00188932
0.00190623
0.00189039
0.00188549
0.00181186
0.00177637
0.00170101
0.0014956
0.000840257
0.000413306
0.000482805
0.000772126
0.000791022
0.000737822
0.000766297
0.000695846
0.000735836
0.000593706
0.00209846
0.00103845
0.000963214
0.00100051
0.00104341
0.00110442
0.00103264
0.00118442
0.00125132
0.00131623
0.00133334
0.00137532
0.00137488
0.0013768
0.0013924
0.00136868
0.0012856
0.00125183
0.0011992
0.00115352
0.00107253
0.00104947
0.000960746
0.000697605
0.000619588
0.000661513
0.000655669
0.000681803
0.000696055
0.000650979
0.000728193
0.000696314
0.000705504
0.000678358
0.000737734
0.000742193
0.000798253
0.000805445
0.000798031
0.000789486
0.000806896
0.000769957
0.000768598
0.000770738
0.000764187
0.000761681
0.000768963
0.000785712
0.000792969
0.000802942
0.000815833
0.000642682
0.000526017
0.000432175
0.000380342
0.000363423
0.00033918
0.00035886
0.000371337
0.000399925
0.000533584
0.000559002
0.000627118
0.000513001
0.000431796
0.000454319
0.00067528
0.000726495
0.000747125
0.000739067
0.000695721
0.000676587
0.000614765
0.000617908
0.000618475
0.000661041
0.000683341
0.000778548
0.000818422
0.000852036
0.000846515
0.000806876
0.000732344
0.000713539
0.00071614
0.000735063
0.000754922
0.000744204
0.000627528
0.000664304
0.000252427
0.000246145
0.00028181
0.000606286
0.00251603
0.00187705
0.000337128
0.00011414
0.000101052
0.00010237
0.000104345
0.000115565
0.000122278
0.000128276
0.000135244
0.000138509
0.0001433
0.000142535
0.000163921
0.000185672
0.000266253
0.000300887
0.000318272
0.000225883
0.000148115
0.000103328
9.28065e-05
9.64791e-05
0.000128213
0.00102595
0.00940889
0.00981016
0.00993586
0.0095223
0.00909368
0.00883541
0.00869709
0.00871517
0.00893241
0.00923834
0.00985622
0.0102573
0.0104077
0.0105105
0.00435064
0.00527892
0.0058049
0.00631051
0.00669157
0.00655485
0.00600258
0.00575668
0.00577683
0.0059594
0.00610604
0.00614572
0.00620594
0.00624594
0.00617297
0.00615259
0.00617733
0.00627846
0.00649145
0.00667109
0.00690724
0.00712971
0.00730074
0.00724375
0.00693275
0.00648217
0.00619348
0.00605815
0.00564205
0.00464112
0.00556094
0.00600894
0.00624865
0.00608467
0.00586851
0.00581815
0.00571399
0.00546964
0.00482041
0.00408333
0.00352204
0.00333258
0.00339312
0.00357911
0.00378123
0.00394443
0.00398488
0.00399609
0.00388813
0.0037959
0.00366201
0.00365765
0.00374094
0.00387036
0.00428181
0.00475525
0.00521025
0.00562196
0.00574235
0.00540622
0.00402359
0.00391473
0.00376734
0.00384172
0.00396828
0.0041091
0.00417388
0.00417681
0.00413944
0.00412808
0.00413367
0.00415611
0.00422432
0.00422602
0.00423815
0.00411287
0.00429231
0.00412256
0.00408673
0.00404322
0.00396451
0.00383842
0.00371075
0.00358269
0.00354013
0.00363093
0.00372131
0.00344906
0.00310628
0.00305503
0.00175784
0.00229809
0.00255457
0.00290975
0.00326133
0.00355972
0.00373426
0.00386153
0.00402082
0.00402334
0.00406907
0.00398044
0.00405826
0.00374737
0.00348754
0.00291691
0.00250407
0.00213807
0.0019928
0.00212092
0.00241031
0.00307839
0.0039784
0.00338937
0.00266912
0.00265222
0.00279017
0.00273462
0.00263984
0.00278917
0.00119273
0.000982586
0.00124136
0.00147398
0.00137051
0.00132081
0.00109951
0.00108123
0.00105944
0.001128
0.00107861
0.00114629
0.00109514
0.00115124
0.00107773
0.00110007
0.00107679
0.00108398
0.00105849
0.00107456
0.00107065
0.00109097
0.00111927
0.001153
0.00119514
0.00126491
0.00132191
0.00133839
0.00132694
0.00124191
0.00195449
0.0018446
0.00125832
0.00128306
0.00153883
0.00209537
0.00233819
0.00233245
0.00226436
0.00214751
0.00213224
0.00204463
0.00204321
0.00202293
0.00202466
0.00202118
0.00204284
0.00204924
0.00213563
0.0020841
0.00210268
0.00197824
0.00186105
0.00166631
0.00185953
0.00292212
0.00369
0.00366927
0.00370727
0.00365817
0.00102099
0.00097005
0.00117985
0.00123078
0.00119196
0.00111808
0.00102967
0.00094259
0.000900008
0.000823624
0.000808213
0.000715327
0.000742905
0.00072334
0.000749245
0.000740854
0.000792953
0.000867757
0.000919365
0.000949464
0.00100585
0.001014
0.00100701
0.00118961
0.00154602
0.00149515
0.00133717
0.00115953
0.00119883
0.00125597
0.00152701
0.00158348
0.00184392
0.00197815
0.0020101
0.00202423
0.00204974
0.00206584
0.00207914
0.00208466
0.00218463
0.00213103
0.0021812
0.00217484
0.00213893
0.00206639
0.0020182
0.00189413
0.00180799
0.00168963
0.00138509
0.00071292
0.00049867
0.000754861
0.000812158
0.000744702
0.000706107
0.000709524
0.000804395
0.000738075
0.00206858
0.00101061
0.00101055
0.00105349
0.00110922
0.00117503
0.00132296
0.00148776
0.00157567
0.00163042
0.00177749
0.00181988
0.00189183
0.00193468
0.00188504
0.00180707
0.00164644
0.00155084
0.00146306
0.00131054
0.00120587
0.00110702
0.00100816
0.000870511
0.000659088
0.000666473
0.000708449
0.000761553
0.000801534
0.000730161
0.000705605
0.000682191
0.000667491
0.000733965
0.000756074
0.000829259
0.000868451
0.000900678
0.000861968
0.000964782
0.000987286
0.0010029
0.00106483
0.0010138
0.00100544
0.000956383
0.000904596
0.000767103
0.00084171
0.000821135
0.000841356
0.000762265
0.000548374
0.000473208
0.000358572
0.000368232
0.000350617
0.000400344
0.000416006
0.000381334
0.000463809
0.000456921
0.000440766
0.000431295
0.000451172
0.000647347
0.000725564
0.000710696
0.000688939
0.000617944
0.000522882
0.000642024
0.000640788
0.000660612
0.000668043
0.000688794
0.000662373
0.000615489
0.000707209
0.0007959
0.000821932
0.000715321
0.000654553
0.00065166
0.000683427
0.00071911
0.000755177
0.000762687
0.000652881
0.000633928
0.00027082
0.000247847
0.000345175
0.000822375
0.00298241
0.000765845
0.000147551
0.0001103
0.000110592
0.000114731
0.000129939
0.000143781
0.000149997
0.000158288
0.000157979
0.000156827
0.000152614
0.000147713
0.000144968
0.000158421
0.00019695
0.000275066
0.000410898
0.00043704
0.000276658
0.000147518
0.000102987
0.000115009
0.000183306
0.00244698
0.00951995
0.00962845
0.00903366
0.00840453
0.0082749
0.00826837
0.00832412
0.00835431
0.00844151
0.00868681
0.00938516
0.0101073
0.010322
0.0104514
0.00438626
0.00540374
0.00612115
0.00670441
0.00692267
0.00626894
0.00562506
0.0055724
0.00572671
0.00583125
0.00593467
0.00598809
0.00603747
0.00594212
0.00583103
0.00571448
0.00587509
0.00609658
0.00645484
0.00679927
0.00715257
0.00748283
0.00772421
0.00783616
0.00757645
0.00698135
0.00638037
0.00613503
0.00588999
0.0049478
0.0055704
0.00603703
0.00619333
0.00611301
0.00608982
0.00617786
0.00612818
0.00576782
0.00514808
0.00421845
0.00347777
0.00323498
0.0035005
0.00400991
0.00450446
0.00494849
0.00507561
0.00511179
0.00506233
0.00494532
0.00476259
0.00457174
0.00430474
0.00422743
0.00428883
0.00459755
0.00503469
0.00545606
0.00576939
0.00548606
0.00396262
0.00385163
0.00375026
0.00390142
0.00408488
0.00419654
0.00420269
0.00415204
0.00409891
0.00405696
0.0040537
0.00418774
0.00431496
0.00435585
0.00438835
0.00440202
0.00438702
0.00424166
0.00429099
0.0043008
0.00421566
0.00412477
0.00392058
0.00370695
0.00355463
0.00358076
0.00370424
0.00363495
0.00336143
0.00314056
0.00232929
0.00239042
0.00258906
0.00305947
0.00350751
0.00381443
0.00399949
0.00414576
0.00419665
0.00419537
0.0041963
0.00429212
0.00430652
0.00434621
0.00415066
0.00378036
0.00303564
0.00249286
0.00209024
0.00204792
0.00223635
0.00270178
0.00369866
0.00356232
0.0027215
0.00275347
0.00306281
0.00293593
0.00249147
0.00253528
0.00116319
0.00108311
0.00139175
0.00148258
0.00132908
0.00109262
0.00106571
0.00106559
0.00113949
0.00116219
0.00118454
0.00123001
0.00118995
0.00123237
0.00117647
0.00122031
0.00117799
0.0012071
0.00117974
0.00116386
0.00114994
0.00115228
0.00112998
0.00114905
0.00116812
0.00122731
0.00127146
0.00133735
0.00131365
0.00122417
0.00185808
0.00139878
0.00115265
0.00176814
0.00231034
0.00224667
0.00190334
0.00164013
0.00153501
0.00152364
0.00153216
0.00153335
0.00147044
0.00151693
0.00148671
0.00149287
0.00155972
0.00159935
0.00175365
0.00191802
0.00204569
0.00206301
0.00201545
0.00180349
0.00173474
0.00225432
0.00328824
0.0036659
0.00363489
0.00360211
0.0008388
0.00116986
0.00122772
0.00116091
0.00104753
0.000975737
0.000899395
0.000840387
0.000801549
0.000742771
0.000710379
0.000637871
0.000694779
0.000683481
0.000680966
0.000642726
0.000673236
0.000731292
0.000834028
0.000891914
0.000947408
0.000987124
0.000984028
0.0010401
0.00121378
0.00152247
0.00145915
0.00117789
0.00112074
0.00115296
0.00161285
0.00182873
0.00193985
0.00197055
0.00200161
0.00209023
0.00214755
0.00237566
0.0025258
0.00271499
0.00277038
0.00281702
0.00275735
0.002671
0.00256234
0.00242624
0.00224012
0.00208196
0.00191872
0.00182668
0.00164451
0.001172
0.000640768
0.000688732
0.000748401
0.000730336
0.000690298
0.000781872
0.000830408
0.000828012
0.00183112
0.00103812
0.00106402
0.00109982
0.00117257
0.0013753
0.00159207
0.00170405
0.00201029
0.00221652
0.00237181
0.00251288
0.00259495
0.00257119
0.00256008
0.00246312
0.00230694
0.00207461
0.00175461
0.00155128
0.00137794
0.00125637
0.00115775
0.000994423
0.000777396
0.000649663
0.000709139
0.000808472
0.000831836
0.000741309
0.000692706
0.000661707
0.000678259
0.000752594
0.000837708
0.000875611
0.000948638
0.000951945
0.00120011
0.00131455
0.00143449
0.00156093
0.00164662
0.00161073
0.0015199
0.00138814
0.00127889
0.00112669
0.000908266
0.000880858
0.000842895
0.000833675
0.000696308
0.000554406
0.00038519
0.000368494
0.000364023
0.00044371
0.000478318
0.000443025
0.000452143
0.000431427
0.000422232
0.000455773
0.000589876
0.00076362
0.000723864
0.000704348
0.000606405
0.00061649
0.000662139
0.000707465
0.000735285
0.00076872
0.000754007
0.000756478
0.00070931
0.000686094
0.000679639
0.000720068
0.000814561
0.0006761
0.000609955
0.000652097
0.000741603
0.000816755
0.00083424
0.000807953
0.000670689
0.0006143
0.000389249
0.000340835
0.000685052
0.00173133
0.00132828
0.00021421
0.000101769
0.000118336
0.000125552
0.000152482
0.00017553
0.000181343
0.000209387
0.000220286
0.000221734
0.000211448
0.000192813
0.000182385
0.000166666
0.000153515
0.000151744
0.00017509
0.000315352
0.000545963
0.000486316
0.000307586
0.000209335
0.000207063
0.000371191
0.0032605
0.00924536
0.00868697
0.00785574
0.00785922
0.00827791
0.00862093
0.00877151
0.00869923
0.00851191
0.00863355
0.00916619
0.0100256
0.0102985
0.0104386
0.0044159
0.00556026
0.00643504
0.0070834
0.00684711
0.00594176
0.00548361
0.00538883
0.00550212
0.00556976
0.00571362
0.00590132
0.00595927
0.00569654
0.00531205
0.00533909
0.00573024
0.00621717
0.00677625
0.0072744
0.00780508
0.0081969
0.00842896
0.00841874
0.00813991
0.00751075
0.00665427
0.00619753
0.00599634
0.00506241
0.00554448
0.00603336
0.00617741
0.0062366
0.00631893
0.00648458
0.00639615
0.00598873
0.00535164
0.00440582
0.00330778
0.00297
0.00346263
0.00416884
0.00487292
0.00530045
0.0054725
0.00548575
0.00553714
0.00536802
0.00535839
0.00519171
0.00501454
0.00480308
0.0046586
0.00474943
0.00498602
0.00542717
0.00573476
0.00558143
0.00393071
0.00382823
0.00378683
0.00399993
0.00417924
0.00423959
0.00418274
0.00412046
0.00402207
0.00393563
0.0039753
0.00415162
0.00423267
0.00439487
0.0045483
0.00443544
0.00446039
0.00447138
0.0044653
0.0043839
0.00437073
0.00423303
0.00414037
0.00385567
0.00361501
0.00353693
0.00366769
0.00370206
0.00353446
0.00319538
0.00232173
0.00241144
0.00278974
0.00336323
0.00383407
0.00405281
0.00426223
0.00433163
0.00430411
0.00432494
0.00430839
0.00439207
0.00440361
0.00453195
0.00445254
0.00431045
0.00360466
0.00277147
0.00231839
0.00201422
0.00214242
0.00251492
0.00338516
0.00368646
0.00306405
0.00292318
0.00339372
0.00323021
0.00245804
0.00231872
0.00121255
0.00120058
0.00146933
0.00143864
0.00116409
0.00106149
0.00107777
0.00115228
0.00118956
0.00124744
0.00123322
0.0013146
0.00123235
0.0013116
0.00126454
0.00130508
0.00128876
0.00128789
0.00125991
0.00129293
0.00122932
0.00123292
0.00118616
0.00116824
0.00116922
0.00120267
0.00125523
0.00130814
0.00130651
0.00121068
0.0015667
0.00114413
0.00146982
0.00227464
0.00203095
0.00144586
0.00130836
0.00130202
0.0013831
0.00143381
0.00148732
0.0014396
0.00142051
0.00136722
0.00134927
0.00134287
0.00138229
0.00141288
0.00155064
0.001624
0.00181815
0.00199444
0.00205631
0.00195275
0.00175323
0.00190557
0.00259044
0.00320241
0.00335345
0.00363556
0.000853651
0.0012207
0.00115727
0.0010575
0.000996969
0.000909618
0.000823128
0.000798069
0.000752118
0.000685041
0.000710462
0.00066773
0.000650327
0.00061942
0.00062392
0.00064012
0.000673502
0.000696002
0.000732713
0.000813838
0.000873889
0.000961954
0.000959633
0.00098268
0.00114289
0.00135472
0.00147295
0.00114535
0.00107569
0.00109179
0.00176888
0.00183329
0.00191839
0.00195613
0.00204694
0.0021972
0.00259206
0.00296213
0.00321923
0.00344435
0.00355537
0.00354147
0.00349615
0.00334945
0.00308751
0.00283048
0.00258911
0.00232544
0.00208765
0.00191195
0.00178675
0.00144733
0.00085396
0.000686515
0.000739053
0.00070075
0.000704394
0.000769563
0.000956644
0.000912972
0.00158711
0.0011381
0.00110224
0.00106067
0.00135367
0.00160124
0.00178109
0.00213303
0.00238963
0.00264493
0.00281055
0.00295253
0.00299512
0.00305784
0.00303614
0.00291271
0.00280951
0.00258078
0.00227029
0.0019276
0.00158558
0.00135763
0.00126147
0.00110956
0.00091109
0.000719068
0.000661288
0.000763451
0.000822863
0.000793225
0.000677764
0.000745428
0.000743522
0.000826211
0.000860147
0.000947156
0.000984867
0.00128413
0.00154933
0.00205422
0.00258525
0.00275204
0.00285684
0.00285671
0.0026536
0.00237089
0.0019659
0.00140611
0.00119677
0.00094949
0.000887667
0.00084574
0.000802106
0.000599551
0.000451447
0.000370841
0.000358134
0.000461342
0.000501011
0.00047706
0.000434223
0.000416457
0.000433978
0.000530038
0.000710897
0.00075896
0.000716427
0.000627608
0.000636533
0.000691376
0.00076499
0.000841864
0.000813082
0.000870174
0.000820525
0.000849757
0.000773724
0.000719921
0.000666484
0.000609758
0.000820354
0.00070456
0.000570329
0.000724224
0.000933417
0.000906973
0.000992513
0.000883205
0.000681526
0.000591658
0.000486022
0.000402057
0.000804441
0.000968117
0.00034985
0.000146536
0.000111294
0.000131115
0.000159288
0.000193378
0.000232886
0.000268941
0.000273365
0.000318441
0.000316825
0.000307702
0.000268454
0.000228224
0.000190851
0.000178599
0.000155998
0.000140176
0.00017861
0.000374154
0.000598394
0.000430996
0.000374018
0.000394522
0.000810239
0.00242497
0.00874318
0.00760186
0.00744873
0.00830982
0.00908569
0.0095666
0.00965244
0.009428
0.00902472
0.00876426
0.00916447
0.00996808
0.010242
0.0103438
0.00450332
0.00574397
0.00668301
0.00729799
0.00692699
0.00578344
0.00535882
0.00527723
0.00522541
0.00531925
0.00546956
0.00577269
0.00594448
0.00545183
0.00500482
0.00516619
0.00588648
0.00655011
0.00717885
0.00786674
0.00846235
0.0089384
0.00910185
0.00903033
0.00857944
0.00779875
0.0068807
0.00625335
0.00601091
0.0051089
0.00553906
0.00596911
0.00615317
0.00630688
0.00644403
0.00650211
0.0063767
0.00595479
0.00542539
0.00439323
0.00302314
0.00280389
0.00341242
0.00425352
0.00508184
0.00540262
0.00560467
0.00555179
0.00557885
0.00543666
0.00542511
0.00538432
0.00528855
0.00521774
0.00497636
0.00493318
0.00510339
0.00538836
0.00574408
0.00556501
0.00390187
0.00378891
0.00377834
0.00403466
0.00418436
0.00413661
0.00406672
0.00401189
0.00392291
0.00386049
0.003864
0.0040163
0.00420933
0.00450182
0.00450099
0.00452704
0.00470031
0.00462854
0.00457472
0.00450404
0.00446796
0.00432973
0.00421628
0.00395483
0.00368885
0.00353018
0.00362957
0.00372832
0.00364427
0.00324604
0.0022877
0.00252021
0.00310136
0.00364696
0.00401737
0.00423837
0.00439117
0.00442498
0.00449821
0.00448563
0.00443263
0.00450952
0.00444838
0.00463683
0.00458004
0.00443864
0.00405732
0.00306611
0.00251239
0.00207835
0.00213211
0.0023901
0.00310408
0.00366608
0.00347267
0.00337586
0.00371453
0.00342224
0.00242805
0.00212272
0.00122487
0.00133486
0.00149185
0.00126814
0.00105854
0.00105674
0.00112686
0.00118234
0.00124919
0.00128186
0.00130073
0.00135799
0.00131183
0.00142006
0.00134107
0.00138605
0.00133519
0.00137865
0.00132709
0.00132945
0.00130359
0.00127187
0.00123916
0.00119436
0.00117025
0.00119251
0.00123582
0.00128662
0.00131788
0.00118732
0.00147063
0.00121741
0.00189289
0.00192363
0.00127607
0.00101039
0.00098517
0.001152
0.00139123
0.00145076
0.00145587
0.00141446
0.00131904
0.00126567
0.00120055
0.00117486
0.00125235
0.00120951
0.00138579
0.00145394
0.00165306
0.0017953
0.00200098
0.0020155
0.0018555
0.00181803
0.00218257
0.00267164
0.00299937
0.00363217
0.000929335
0.00113758
0.00109719
0.00104672
0.000951859
0.000852523
0.000804021
0.000782449
0.000732108
0.000704407
0.000663674
0.000618363
0.000579882
0.000587065
0.00057096
0.000588698
0.000621923
0.000648545
0.00072714
0.000729188
0.000827921
0.000922806
0.000946642
0.000964167
0.00104442
0.00124585
0.00126835
0.00117752
0.00105726
0.00107788
0.00173097
0.00186247
0.00189629
0.00197404
0.00213803
0.00255003
0.00311337
0.0034997
0.00387699
0.00407518
0.00414393
0.00414083
0.0040497
0.00389201
0.00366734
0.00328072
0.00297474
0.00263645
0.00228901
0.00204094
0.00193366
0.00172535
0.00125839
0.000735092
0.000681206
0.00066472
0.000753729
0.00095476
0.00116887
0.000992825
0.00124099
0.00117737
0.00112642
0.00126942
0.00151951
0.0016455
0.00201853
0.00234685
0.0027071
0.00297442
0.0030981
0.0031317
0.00317774
0.003185
0.0031892
0.00321069
0.00312197
0.0029571
0.00272361
0.00230136
0.00183206
0.00156258
0.00138514
0.00114167
0.00102232
0.000860165
0.0007546
0.000810423
0.000787332
0.000761754
0.000664639
0.00067702
0.000770212
0.000839031
0.000889225
0.000904394
0.00121926
0.00158629
0.00239815
0.00309961
0.00348935
0.00354967
0.00359408
0.00358619
0.00355117
0.00331515
0.00290277
0.00221319
0.00147461
0.00115117
0.000900027
0.000859871
0.000834031
0.00069801
0.000516825
0.000362428
0.00035408
0.000482496
0.000504882
0.000508323
0.000424208
0.000417053
0.000447067
0.000634591
0.000705763
0.000707993
0.000699428
0.000596173
0.000696262
0.000775816
0.000812409
0.000942061
0.00105649
0.00103774
0.00103367
0.000880372
0.000853935
0.000765645
0.000673252
0.000658175
0.000784241
0.000731305
0.00056223
0.000865412
0.00134737
0.00151607
0.00121159
0.000951174
0.000682395
0.000576119
0.000497268
0.000392314
0.000530819
0.000403832
0.000202932
0.000121859
0.0001135
0.000150539
0.000195203
0.000247591
0.00027544
0.000400323
0.000491103
0.000495213
0.000468965
0.000465927
0.000362264
0.00030614
0.000235387
0.00019947
0.000178013
0.000150619
0.000132572
0.000237616
0.000593238
0.000570119
0.000524105
0.000664767
0.00229178
0.0016778
0.00809613
0.00687894
0.00760499
0.00910553
0.00989582
0.0101697
0.0102479
0.0100741
0.00965678
0.00931138
0.00957669
0.0102139
0.010338
0.0103805
0.00447157
0.00581456
0.00679538
0.00739053
0.007094
0.00596769
0.00524865
0.00506659
0.00501446
0.00497929
0.00518995
0.00557245
0.00589034
0.00535996
0.00477692
0.00509972
0.00605622
0.00680858
0.00761534
0.00824066
0.00877204
0.00909227
0.00930545
0.00923707
0.0088761
0.00794552
0.00692909
0.00629578
0.00603746
0.00513902
0.00548255
0.00590379
0.00609285
0.00626381
0.00647921
0.00640269
0.00598737
0.00559801
0.00529095
0.00425432
0.0028074
0.00271832
0.0034772
0.00439106
0.0052066
0.00549727
0.00561993
0.00557728
0.00553692
0.00535893
0.00538131
0.00531216
0.00533262
0.00534002
0.0052048
0.00518186
0.00515825
0.00549068
0.00574619
0.00560715
0.00384808
0.00376269
0.00382828
0.00410737
0.00410742
0.00388825
0.00375539
0.00377789
0.00386113
0.00379217
0.00366533
0.00393279
0.00420078
0.00437845
0.00449868
0.0046658
0.0047165
0.00467173
0.00469908
0.00461795
0.00450907
0.00442594
0.00428644
0.00400926
0.00373419
0.00355533
0.00360879
0.00373236
0.00364848
0.00319673
0.0023375
0.0026858
0.00332448
0.00380172
0.00412107
0.00434227
0.00454325
0.00454488
0.00469272
0.00468374
0.00461376
0.00462335
0.00455483
0.00471575
0.00462422
0.00449283
0.00410086
0.00327839
0.00261321
0.00214895
0.00214289
0.00233734
0.0028944
0.00358941
0.00372622
0.00384619
0.00395113
0.00340141
0.0022334
0.0018612
0.00121422
0.00143549
0.00143944
0.00115729
0.00100656
0.00104091
0.00108725
0.00122099
0.00128745
0.00134615
0.00134652
0.00140591
0.00137497
0.00143053
0.00138149
0.00143876
0.00135028
0.00142996
0.00138193
0.00137543
0.00136652
0.00130524
0.00125261
0.0012243
0.00118761
0.00117687
0.00123356
0.00127674
0.00130228
0.00117704
0.00135633
0.00133569
0.00187476
0.00127218
0.000921649
0.000882606
0.00095805
0.00115504
0.00143684
0.00144802
0.00143005
0.00132597
0.00124126
0.00115659
0.00114352
0.00106896
0.00116583
0.00106718
0.00124171
0.00133293
0.00156543
0.00173615
0.00189477
0.0020366
0.00192531
0.00178513
0.00200604
0.00239097
0.00280491
0.00331255
0.00100417
0.00109496
0.00110396
0.00100758
0.000915329
0.000871594
0.000853201
0.000738125
0.000698293
0.000674309
0.000630307
0.000546523
0.000545358
0.000510506
0.000531891
0.000526403
0.000589455
0.00060666
0.000695014
0.000676171
0.000805351
0.000876845
0.000939305
0.000965021
0.000995174
0.00113788
0.00120514
0.00109419
0.00106384
0.00117052
0.00168573
0.00184291
0.00188357
0.00199636
0.00222068
0.00289244
0.00349426
0.0039163
0.00419482
0.00429081
0.00427006
0.0042482
0.00425537
0.00414988
0.00399841
0.00365829
0.00331091
0.00292588
0.00252881
0.00217539
0.00199364
0.00186616
0.00141019
0.000962985
0.000757083
0.000706759
0.000828644
0.00122299
0.00135271
0.00107476
0.00108817
0.00113428
0.00108332
0.00140322
0.00158519
0.00176864
0.00216455
0.00249434
0.00291397
0.00310737
0.00318362
0.00326465
0.00326777
0.00328312
0.00331308
0.00329922
0.00330514
0.00328849
0.00299521
0.00261596
0.00216997
0.00170852
0.00147239
0.00132945
0.00103195
0.000942211
0.00091839
0.000863471
0.000769566
0.000730923
0.000702467
0.000745276
0.000769821
0.000845326
0.000901489
0.00103196
0.00144571
0.00223672
0.00306312
0.00361978
0.0036639
0.00354311
0.00351981
0.00344733
0.00358156
0.00356555
0.00354377
0.00284838
0.00202495
0.00136798
0.00101892
0.000822631
0.000849237
0.000778454
0.000558031
0.000351988
0.000394396
0.000509602
0.000517765
0.000494525
0.000421102
0.000426168
0.00052038
0.000704666
0.000738978
0.000747665
0.000656952
0.000688789
0.000740694
0.00088492
0.000991302
0.00112656
0.00128373
0.00123049
0.00110736
0.00098602
0.000888896
0.000799164
0.000677804
0.000634556
0.000749379
0.000744323
0.000596729
0.000955729
0.0019143
0.00224587
0.00141275
0.000939765
0.000647028
0.00056252
0.000708719
0.000306529
0.000271315
0.000220378
0.000149418
0.000114913
0.00013481
0.000178773
0.000218203
0.000321779
0.000417546
0.000553284
0.000761967
0.000770648
0.000759145
0.000696927
0.000472387
0.00037422
0.000282655