/*--------------------------------*- C++ -*----------------------------------*\
| =========                 |                                                 |
| \\      /  F ield         | OpenFOAM: The Open Source CFD Toolbox           |
|  \\    /   O peration     | Version:  2.1.1                                 |
|   \\  /    A nd           | Web:      www.OpenFOAM.org                      |
|    \\/     M anipulation  |                                                 |
\*---------------------------------------------------------------------------*/
FoamFile
{
    version     2.0;
    format      ascii;
    class       volScalarField;
    location    "0.006150000";
    object      p;
}
// * * * * * * * * * * * * * * * * * * * * * * * * * * * * * * * * * * * * * //

dimensions      [1 -1 -2 0 0 0 0];

internalField   nonuniform List<scalar> 
12384
(
882515
884036
883075
885843
885030
887820
887564
889512
890454
892586
893997
895069
895886
896379
879630
881252
880120
881282
884566
884315
886368
890918
890842
892450
896662
896675
897857
898585
897953
896271
894120
890564
888665
883911
884106
882521
882098
884555
886759
886580
886482
886418
886414
886106
888239
889832
887658
894372
890904
900683
898908
907240
907079
909411
909158
906929
900599
893486
882642
873655
860813
854509
843065
845266
835558
835180
841408
840189
848820
849881
852883
855689
853281
859687
918309
918417
919334
919512
920678
920420
919696
917866
916574
913262
907611
898072
895156
869983
876838
842411
853843
826495
840273
832328
838513
844107
848850
852004
852464
851639
850870
849735
852566
852014
792043
795470
799908
803461
804221
799135
795175
790575
777412
774333
781643
769205
802866
788092
829296
833646
842168
871604
868484
882204
882053
887813
887921
888748
887242
887938
884345
886031
882892
883583
875554
875196
870068
871110
859330
857143
852651
839979
840559
825370
826840
809658
811640
793961
799515
781196
787364
781219
786020
783406
787712
804756
798486
811777
818708
819443
823801
825606
828624
828071
848696
846552
845571
843557
840797
837814
834258
832866
819714
816114
815549
807808
794707
802336
795235
791591
808359
799465
824057
818550
840499
837968
850408
849932
855551
855901
857903
859995
861726
861245
873761
871354
869845
867048
862834
856959
847354
833862
827944
807498
808178
783836
793543
784134
782273
800251
796518
811839
812522
820808
820104
824362
823728
826782
827296
828030
828944
830767
832343
832738
870516
870952
871732
871028
868227
861781
855776
839866
838718
817631
822718
811434
815974
822497
827664
836364
841168
844045
844402
844284
843971
843926
843951
843722
843691
844588
844879
845751
846116
846584
819659
819638
819321
822301
824520
826615
827497
825657
821205
819173
805717
805619
805097
804330
804534
805152
810430
811374
812813
813049
812333
811337
811218
812030
811279
809177
809947
810524
810355
811190
878325
876345
878337
877354
877670
875293
870271
861979
860106
835025
842525
813355
822510
810890
820773
825420
833742
840736
845914
848027
849104
849006
848904
849072
848369
849832
850472
851930
852392
850652
824014
829501
827200
835786
833111
847358
841677
857938
853554
869248
863345
881386
874821
895115
889667
902436
912115
910411
916831
918448
919090
919863
920442
919788
920581
919673
921198
922233
923060
924777
897908
897690
898954
899262
898762
896050
897081
896633
892584
893237
886692
888307
879989
881457
879455
878731
884740
886678
889980
892214
892873
892577
892175
890852
890598
890354
890539
890913
890557
890812
882389
883295
883295
884928
884943
886878
886851
888936
890623
891316
893221
894168
895267
895930
879530
877905
880461
880125
880245
884628
886105
886171
891150
892510
893268
896653
897069
897004
896535
895067
892452
889470
886256
883102
882459
880945
881575
880341
883059
886077
886869
886588
887100
887503
887921
889643
887644
893239
891658
898384
899959
903989
906163
907399
907363
903949
898940
890480
881205
871775
859962
854067
843295
843926
833521
837640
838035
839786
845976
848849
854298
855196
858697
856957
917809
917143
917243
916659
918087
917426
916755
916416
914540
909513
906559
896871
888307
867672
872165
840178
840405
831999
825457
828887
829996
836115
842701
848508
851837
852214
851762
850983
852327
851659
790970
795195
798760
800963
798449
796423
791668
777497
775018
776693
772129
776312
787655
792461
814384
833680
837652
860959
871881
880226
883056
889007
888425
889159
886666
886988
885652
883707
883298
883529
877477
874109
873927
867947
864923
854506
855569
843133
835354
831729
822682
812238
803943
800113
790641
781341
787015
776186
778258
788259
784497
796576
800632
810221
815078
819658
823411
825387
827569
828384
845986
845150
843566
840656
840120
836033
830980
826430
822955
813846
808919
802229
798429
793237
793062
794284
796456
803483
814706
818531
832759
837566
846867
850220
853836
855205
856566
857739
858324
858386
871011
869385
867475
864125
859705
851080
844419
824997
827174
796002
804415
785690
784834
781673
786996
785946
798437
801859
810239
816691
820718
822780
824866
824689
826464
827212
827829
829500
831136
831826
869377
869880
869451
868031
864041
856999
848273
836316
830610
816926
812628
814245
812081
816130
822584
830067
836473
841487
844558
845373
844964
844471
843937
843491
843279
843918
845056
845262
845961
846137
818325
818790
820501
822275
824304
825940
824939
822710
818545
810800
804387
805219
797262
796606
800452
803141
803932
808611
810381
812703
814050
813529
812622
811364
807551
807033
807242
807817
805618
804701
876240
877329
877027
877588
876106
872147
869257
860837
847433
836436
831937
813024
810835
812708
810562
818934
826473
836102
844040
848964
850694
850372
849070
848808
848325
848765
850032
850664
851596
850194
824141
831506
825838
838526
832905
846228
844075
854613
854686
865849
864383
877657
874952
892066
890866
904076
903731
913910
914501
916507
918824
918675
918253
918106
917310
916793
917975
920677
922285
924294
899172
899949
898379
898494
899544
897361
898785
898116
894927
892013
885551
885762
877751
876324
878365
878449
881413
885369
889210
890863
892302
892478
891748
890952
891086
890179
890555
890583
890735
891005
882675
882736
882630
884429
884417
885869
886250
888307
888978
890725
891710
893336
894081
895047
875563
877088
876013
879301
880909
879920
884273
887043
886995
891310
893501
893382
896355
896106
894970
893421
890669
887440
884706
880718
878305
876003
878572
880343
878965
881367
884706
886038
885929
887104
887477
889240
886392
893145
890345
898786
897581
903855
904282
905618
904826
902131
895754
888692
879445
870771
859891
853374
843404
842694
832759
836092
838098
835833
846254
845430
852395
857180
856676
862320
915951
915068
915167
915465
915492
914501
914506
913524
910702
907965
903042
888638
888112
866095
861030
832161
845450
819479
819184
816214
823626
828508
835592
841966
847028
849905
851244
852024
853375
853717
793233
798286
799390
798077
796545
793060
781322
773885
775905
766816
773139
765075
790320
782298
812138
819011
841626
848983
866312
875714
880741
884477
888191
887822
887700
886272
885507
885923
885518
883225
882551
877563
872442
872711
862316
862935
849651
850405
832824
836526
816563
819737
797040
805894
780875
787215
776211
779168
775224
782905
783462
793813
796076
808716
810747
817259
822374
824200
826347
827523
842693
841223
840185
839806
836559
831849
830531
821133
821120
810607
801752
803441
790561
790525
789631
791175
797311
794692
812444
811771
828897
831780
842265
846386
849981
851756
853189
855570
856633
857385
868985
867160
864658
860740
855179
845478
840092
820389
817394
796146
796287
777146
777199
772154
778638
781773
787556
797756
802936
810060
815357
819538
821303
823790
824287
826374
827989
829427
830399
831771
869126
869079
867974
864597
859077
850750
840604
829960
821524
808472
812218
800851
804433
808957
814363
821628
829622
835619
839592
842233
843557
843882
843818
843469
843367
843806
845054
845972
845866
846446
821109
820625
822230
823652
824270
825077
823052
819214
811945
807270
801396
791530
793040
796124
796620
797663
800515
801335
806861
809965
811862
814712
816656
813405
818899
818018
812267
810726
817421
821077
878513
876469
877122
876618
873727
869926
866262
850558
840642
834917
814778
805322
811299
800091
807860
810967
817762
828502
836511
843674
847241
848445
848384
847913
847648
847727
849089
850110
851170
849710
825564
831512
827457
837165
834832
845478
843186
856444
851895
866023
861535
877193
873560
885231
889247
902871
901338
910315
914833
915071
916132
917975
916249
913953
913713
913229
913886
916498
919397
921812
898033
900465
900716
899976
900298
899928
897622
897907
890943
892080
882987
880059
873424
876081
873860
877192
879841
881966
888217
889870
891887
892617
891603
891470
890866
891204
890619
891084
890683
890559
882045
882445
883039
882632
884442
884339
885872
885570
887437
888152
889597
889722
891033
891931
875098
874010
875369
873724
877466
880727
878657
883497
886619
886188
890869
892335
891718
894122
893425
890600
888103
885197
881861
878368
874523
873013
870680
875037
878826
877949
879466
883097
884390
885096
887237
887360
887514
889497
891373
895926
898250
899935
902982
902961
901793
898266
892987
886013
877225
869467
859404
852169
843987
839502
831760
833773
831262
838471
839591
845764
852715
854487
861348
860405
911898
911001
911035
909741
910147
909300
909326
907968
907453
903699
893549
887773
882469
853935
850707
836841
826997
808767
812109
818114
816938
821020
829187
835491
842209
847602
849904
852105
853101
853704
799995
799189
798989
797394
792962
784026
777014
772657
767271
762224
759356
771877
771521
787936
795536
817857
831593
845840
857517
870073
877836
881113
884990
886364
885993
885183
886061
885662
884962
884763
879950
881475
879409
871428
868878
858678
859347
844173
839983
832623
818779
817925
796708
801617
777540
786729
769817
777571
776382
775699
779261
792936
789527
804830
806703
815384
818937
822681
824436
825868
839872
839675
839115
835560
831413
830287
823246
821074
812790
807648
799066
796593
787783
786518
780481
781118
789670
793942
800569
807784
820937
826976
835689
843049
846234
850363
850747
851259
850685
850615
865994
864381
861351
855830
849915
838987
831566
813400
809498
788069
784515
772272
766642
771251
769432
777237
779403
784703
798181
801588
811352
814117
819703
821898
823320
824918
827352
829341
830506
830379
868796
867686
864108
859799
852285
841602
832040
823358
808851
809379
795930
801277
799747
801430
807176
812314
821370
828805
835016
839162
841565
843009
843748
843696
843343
843681
845972
845556
846111
846034
819109
820531
821616
823396
824644
822955
819662
814712
805479
800320
789501
789116
790192
785941
785603
792953
794998
798657
800698
805753
812830
816245
812877
816373
812944
815145
824513
826064
816738
811139
877563
878047
877445
874827
872668
865013
856924
840526
836187
816364
803473
806469
787538
789908
788699
799308
809215
817956
827962
836781
842883
846009
846771
846611
846800
846656
847251
849006
849700
847575
828998
829969
832894
832776
840365
840352
848130
848599
856533
855587
865299
866067
873440
881444
882859
896636
902565
906056
910438
915294
913132
913000
913802
910854
909673
910994
911835
912870
915425
918700
903906
902322
902629
902570
900786
900290
898353
896280
889087
887475
877660
875322
872035
867569
869785
870864
877181
878031
884671
888236
891762
892380
893340
891897
892245
891056
891664
890796
891011
891135
880749
881273
881401
881742
881705
883355
883441
885081
885730
887339
888395
890088
889802
890625
867716
868762
870191
871610
870559
874902
879564
876758
882789
886247
885115
889784
890889
888890
889654
888346
884973
881667
878773
875537
873637
870518
869977
867405
872485
878681
878837
880496
882900
884285
885198
887068
885821
891072
888822
895029
896392
898964
898645
900597
898135
894561
889660
882088
875849
866702
860641
846683
848584
830983
835852
828685
832234
833859
837472
846737
848752
858916
858579
864824
908021
909750
909790
907390
906692
906599
904681
904366
901544
893792
892522
882008
865701
848553
853390
818120
815295
808959
807987
801065
811429
811236
823496
831894
838390
843904
849329
851973
853294
854386
805352
804755
799573
795014
792562
776949
775607
769169
759402
759295
756870
769009
765377
789477
784248
820219
824536
834016
856428
861593
872198
878060
880900
883913
885857
884233
886713
887212
888495
888572
889626
882909
879979
879197
868170
867381
853532
854763
835129
839091
814797
822062
792935
801119
774017
782445
766544
768004
767298
777586
771234
788510
788045
799329
804182
811849
815500
819757
822572
823602
832232
832225
830714
828914
828405
822892
821675
814492
808624
801916
795737
787353
782836
775324
779132
779139
784195
784740
800155
801269
812941
822613
831950
836560
844595
844494
847993
850331
851421
852400
861298
859969
856378
851764
843308
833483
822349
805776
802201
776728
779415
761756
764512
754128
759770
761906
776124
776393
789519
794961
805274
813274
814021
821327
822362
824952
826825
829440
830175
830701
865558
864271
861086
854209
844835
831143
828814
811013
799701
791848
788049
781072
785274
793193
800283
802518
814125
820947
830139
836023
839756
843134
842264
843511
844901
845449
845970
847184
846469
847438
825297
825042
825546
826446
824292
821687
816152
811390
795801
793650
783323
784134
776677
781880
784101
780518
788465
792838
795773
807981
811827
812635
824696
831451
829206
822746
819178
825706
831881
836474
879517
878322
877043
874018
868422
859948
847460
828135
831115
794860
807197
779495
778573
774102
783046
784411
797134
806819
818476
828684
836797
842159
844259
845008
845424
845464
845743
846227
846962
846492
829880
828336
835103
833816
837043
844258
844588
849447
850533
855390
859727
860008
867354
875150
881664
886989
897489
906628
907136
909987
913548
909721
908624
907988
904495
903908
907742
910500
912042
915279
904369
904787
903622
904470
902148
900946
896855
896662
883716
886367
872713
868488
865076
859840
857107
862198
869163
879111
878842
887213
890325
893356
893179
893809
892137
892430
891536
891851
891340
891288
880095
880394
881565
881842
881539
880986
881767
880264
881422
880858
882094
881687
882028
882046
869881
868171
867628
870022
871821
868693
872944
878234
875080
881075
884405
882571
887102
887657
884621
884751
881602
879116
875022
872269
868882
869316
867630
867629
866009
869731
876710
876875
876204
879326
885273
883931
885364
889523
889663
891714
894840
897026
897608
895576
894967
890905
884974
879095
873531
863046
860959
843040
847450
829815
833366
827427
825825
836243
832627
843026
852831
855355
862572
862680
906013
902123
899677
900307
901860
899418
899801
897533
891527
892228
886709
867303
862274
850956
834531
809983
819930
799556
794127
795117
805373
805595
818870
826928
837548
841263
848723
851484
854118
854586
808984
809343
803785
795651
787815
779178
774771
761750
762069
758175
751844
769952
758394
788251
780760
809171
825077
825433
850772
860241
865611
872845
881136
880648
885176
884872
887702
889622
890804
891976
891418
888876
884529
879657
876210
867645
860258
853810
841049
837954
816831
821053
790898
799929
768741
779800
757058
765729
760550
768992
771806
779163
784696
797602
799111
808257
812244
816722
819344
821010
833672
831463
831035
828530
823677
821234
814948
811309
803967
796902
788537
785245
775599
778463
771358
771635
781145
777672
796048
795233
809194
818316
827809
834123
839703
845714
845753
846532
846093
846270
859220
857408
853232
846405
839142
823811
819403
798900
790585
772034
771665
756417
749391
756491
751477
756022
764732
769039
787352
784171
803043
810837
811620
821250
822265
825767
827616
829745
829981
829144
862594
861646
856481
849079
837040
824647
822183
797138
794070
792884
788135
788096
786775
784081
797245
797481
811050
816353
826495
832268
840957
841568
844780
843554
845370
846835
847195
847524
848192
848187
823304
825534
825360
825375
825766
820720
813831
804769
790219
793679
776718
771151
772021
771436
771796
782158
781415
787676
802756
802805
809594
823303
826651
822286
833240
841534
835308
829457
829775
830231
879945
879442
877041
871691
866680
849916
843426
822602
812865
794214
784144
772341
775125
776380
771558
775370
787539
794632
809684
820083
830522
837786
842248
844007
843656
843509
843987
843976
844932
844607
831477
829413
836002
832558
841788
839485
846774
845546
850515
850041
854018
857611
864078
860395
880580
883227
890165
899380
908060
905903
907136
909690
905581
904473
903739
901906
904850
907764
912762
914011
907753
907515
906765
904386
903918
901761
895617
895250
880963
884484
863085
866193
858817
860533
860977
859840
860862
873895
877687
883661
890090
892812
894937
894198
894004
892327
892715
891905
892146
891669
877327
877496
876768
877304
877701
878518
879655
881649
880807
882713
882263
883761
883648
884233
860791
861888
862302
861764
865157
868483
865940
870718
876679
873693
879519
882913
879991
884530
884588
879684
878644
873594
873274
867991
867441
863619
865292
866995
868926
867696
869931
876788
878154
877067
881669
884558
884229
885526
890037
891017
891744
894967
894917
893275
889387
886955
881817
874093
872659
859875
856000
843486
841953
827197
831863
823500
825346
834843
830746
848016
845869
859686
859624
867939
900705
898638
901647
902203
897399
894093
893115
889819
892913
886892
872114
866020
862877
833648
834394
811893
812004
791778
799341
796481
799646
806213
819733
822693
836482
843854
847390
852739
853465
854809
818171
812853
808036
799505
788074
779323
778467
758852
763487
758151
753933
767704
758388
789681
776581
811931
808512
829561
843885
856160
863995
870177
880700
879806
885501
885510
889681
890805
893943
896052
893012
895555
888503
884672
875266
875982
857847
862724
838432
845223
815000
823455
788178
800315
763900
778101
754971
765849
760423
759960
770656
776044
779877
793062
797377
802772
810378
813438
816079
817097
818772
819120
818527
817354
818080
814730
812300
806955
798017
791916
786223
778342
770688
764856
763313
767334
768101
775116
791026
791830
805305
819829
825275
833462
839385
842995
845046
846519
846959
848521
854719
852114
849818
841466
833495
817062
816042
788618
788241
766490
768223
745564
755841
744335
752094
747802
765551
758996
784848
779787
804754
805399
811199
821875
823461
826894
829470
830330
831016
829991
860029
857356
853403
842644
832120
819332
815413
789038
795682
779284
771710
768346
775986
775213
791018
787832
810333
814108
824109
834605
839791
844108
847315
850021
846835
848838
848889
848699
848196
849075
830367
828782
829199
828551
824374
821566
811266
801704
790335
784350
768166
772781
767008
768477
772968
777182
780733
797285
796345
807593
820148
830539
833953
839539
838364
844246
853696
855705
850179
851096
881027
879405
876127
870156
861141
845622
835440
813411
805499
778465
783642
758075
760956
751510
763383
766182
782920
784587
802162
812198
824935
833279
839703
841523
843603
844062
843875
844047
840995
837763
829300
832242
835494
833459
840063
842281
842500
846802
845070
849107
849944
848195
861220
859499
867219
879659
891368
892944
902187
907476
904940
905401
904247
899108
897952
897995
902397
906058
909699
914258
910517
909453
908810
907780
904061
902556
896867
892336
879257
881857
858920
862268
855901
845269
846802
860158
854116
869417
875974
883362
887805
894033
895026
894876
894137
893923
892647
892754
892294
892074
876949
877786
878659
878091
878092
877257
875205
873909
873904
873180
873525
872286
872463
872310
863494
861777
861918
863519
860513
864407
868519
865268
869404
875016
871718
876947
880329
876314
878238
879103
874824
873646
869735
867693
864573
864845
862240
862751
866942
867876
871721
871611
872332
871897
881026
879403
882864
884477
885221
890823
890788
890314
891649
890737
888521
882239
878969
872215
866431
860978
848506
844994
838480
826623
825189
823159
822017
830791
834772
841353
849978
858670
863611
866985
896375
898168
896424
891177
890784
892723
888582
888782
886046
876966
873191
867328
853488
831213
835891
807196
813792
795497
799990
797541
801634
803016
823067
824674
832268
844625
848263
851371
853709
851771
827164
820745
812584
804055
793497
783676
778511
763424
761448
760436
760913
763201
767114
787608
779358
814506
803793
835737
836652
857322
859227
874032
877194
882509
886403
889542
891685
895942
900599
903957
899112
894144
896011
887958
881749
877483
864764
862310
844811
843702
819919
820799
789439
799163
762855
777176
752870
760055
759476
754568
771333
768744
782278
786507
794739
800758
805236
810598
812483
812941
824743
824290
820908
821040
815402
812367
808889
800423
795126
791059
778034
775707
768253
768252
764713
769134
763457
774852
787295
792827
801677
820099
821705
831311
840576
841418
844296
845016
843906
845907
859473
853936
847559
836955
828265
812285
812337
781323
790474
758992
766287
743411
751991
741877
742306
746814
764497
756301
780995
778288
802049
799540
815198
820201
825629
828733
830752
831305
830278
820824
868205
858445
850313
838910
829312
815966
807385
790377
787879
772863
773186
773732
777379
775939
791431
787182
809438
813219
827224
834263
841509
846878
848117
850151
852093
848086
849735
848855
849605
849622
833355
833634
832188
829112
827356
818486
812193
802051
790229
779989
769281
765538
763122
767993
775994
774731
791118
794183
804826
817229
828007
832847
847118
856975
854061
851006
849454
854206
859151
854288
887167
883007
876549
867773
858003
839661
833924
806013
799954
775821
765549
757385
745370
748312
749912
756296
773345
782717
795814
809309
821663
830347
836674
841080
841555
841647
841816
838168
831684
820066
834195
832854
836435
837361
839127
841214
844405
844077
846381
843261
846710
845435
849765
857276
871282
869433
889843
893949
897991
902804
905347
902685
903701
900781
899666
897660
903112
905566
911146
913454
913646
912780
911757
910545
908463
904142
897378
892440
882478
876750
856772
859929
855369
844499
847247
857653
855742
863775
875773
882436
888854
893494
895843
896254
895487
893991
893800
892573
892637
891710
872877
872414
872019
871830
872072
873583
875798
876931
876478
876256
875355
874878
873005
874228
854604
862182
859612
858145
856499
856517
859754
857878
860550
866435
863857
868730
874079
870418
874753
877735
874454
874888
871725
871157
868320
865301
866263
862763
862433
864046
865378
868179
869758
871063
868028
868268
857723
874895
879142
882992
881627
886726
886048
887757
890891
891020
890296
888293
884266
880976
877126
868412
865433
852569
854657
835712
840108
822596
827537
817760
822253
833007
828971
844969
852605
861661
868115
877302
879060
872179
893034
888872
887395
891792
893496
887486
886523
886537
879991
876853
877097
862412
852495
840531
835708
811336
813102
804124
796162
802705
801330
810169
819849
830661
835818
843717
850641
851546
850799
852424
842281
848996
832769
826890
819152
809316
798800
788663
782551
772183
759852
761160
758736
775067
766343
794243
781933
817670
805078
842093
833260
861329
859687
874933
879589
882819
888366
890071
890955
892756
898390
899898
901464
906698
908334
904841
896044
897747
883357
880315
866140
867392
843612
851058
817252
828361
787185
802194
763029
776462
752618
761295
759527
757097
764445
770477
782896
781304
792828
799123
802970
806432
811137
809627
806424
801815
805764
805487
806514
805743
806025
807495
801312
798941
792503
787033
775517
778199
764423
766794
761495
767204
766578
776531
782382
796758
801129
820793
820084
835596
838945
843279
845713
847451
846854
847985
846187
844988
847359
843370
838825
831617
823623
811609
808032
781905
788392
759978
766074
740710
751566
742811
743321
743335
765561
755050
778049
783667
795367
804440
815772
823865
828738
833136
837349
838864
839002
834620
845771
851310
849043
847345
841941
834730
825960
812608
803918
788469
789543
770211
771384
767129
774387
781617
794967
791642
810066
817313
831342
836868
845181
852314
853769
853176
854599
854723
849555
849319
849046
848834
842752
837083
837206
830414
831807
827621
828241
819782
811871
802621
795343
785566
777110
778565
771638
771148
773214
786194
793496
803256
812707
825507
835461
849594
853654
859905
869490
871567
865920
863891
866628
870663
875224
877114
878423
875873
870531
864800
854423
834735
832274
799304
801113
763941
772142
745420
748346
746429
750631
753950
772576
777052
796835
805693
819006
827443
835589
838575
841179
841608
838760
838174
836704
833127
836296
828924
830180
831786
832509
838683
837810
841935
843046
843530
844821
844892
843439
845733
851893
851790
870483
873937
882952
895262
899356
901486
903115
904776
902321
901934
898224
899177
902429
908288
911425
917828
912004
912617
912863
912836
911735
911615
909736
906379
899211
892195
887224
873751
861791
855162
856623
844420
846548
855896
860674
863705
874560
885403
889264
894024
896767
897295
896397
895592
893893
893808
892297
892494
890615
891197
873965
874007
874746
874718
873775
872218
870270
868408
868020
867846
866918
866028
865641
863454
862006
858524
858789
857767
857277
856639
856528
860191
858393
861550
866089
864005
866768
872243
869834
873293
875156
871819
872629
870223
866992
866997
866796
866959
866891
866996
868300
869622
871310
871100
872192
874059
869739
877224
877203
883103
882043
885115
886380
887792
887146
889044
886318
885373
881553
880734
874380
865423
867579
850311
854007
836139
835855
824797
821676
822135
820487
834311
830673
845106
855851
857889
873203
873195
881408
884685
892685
890789
891003
890725
886669
885815
886929
882796
879470
879886
873077
860530
860777
843058
836887
825687
819458
812479
817496
807280
818542
818711
826152
830936
840712
845603
848573
852102
850044
846183
843043
844237
834184
828566
821823
815786
804264
790680
787179
783389
776798
770667
775280
774609
779873
792284
793656
816338
814796
841755
838580
864034
862388
879239
880197
887761
891098
892695
894431
897403
898006
905470
905626
908553
907489
907734
901910
896160
886798
886380
865963
872455
847283
851755
822500
826965
792585
800047
767642
778110
753392
763684
756250
762335
759546
777830
774018
786793
789027
798225
800814
804896
806165
807740
805478
798764
812482
808831
809838
809285
808785
801620
799719
798225
789199
786241
780373
775901
769658
770795
763988
774213
764809
787597
783070
800227
805088
819385
824549
837323
839676
844791
847069
847821
847209
846425
845396
844406
844883
839095
838180
827571
823567
809315
809946
782699
791421
760900
769650
745446
753310
741525
746806
747502
764070
756391
781190
790694
789739
814561
813255
824924
828348
832359
834326
836520
836236
836979
841944
844300
846382
843195
839561
832824
825135
812016
803854
789224
790976
777232
782884
778295
786667
780499
792503
800100
816037
824816
834185
842581
850724
854353
858823
859300
856885
855772
855109
850290
849688
848689
841779
836590
837453
829515
832465
828188
827736
824218
818072
800193
796679
789330
780611
777601
782752
788419
793022
792819
801465
809343
823299
833308
848153
855738
863940
868163
871977
875939
878287
876459
874499
873597
878662
876447
877953
873977
869876
863582
854988
837054
834702
797884
806680
762444
777450
756868
758529
749731
758017
766137
771311
783387
795242
809555
817086
828630
833575
835943
834313
833667
834364
833105
833828
832721
836750
832250
833222
833666
836394
836131
840574
842848
842615
845522
846387
843659
850257
848622
853617
855026
866949
877277
885984
890822
900352
901896
903821
903303
904200
902973
903489
902866
905958
909125
913171
915823
913655
915448
915257
914354
914665
914220
913619
909533
903678
893381
889851
877820
868054
853364
858407
852605
848873
854588
864719
864071
877041
886291
890876
894684
897317
897603
896846
896195
894400
893835
892380
891880
890943
890913
869038
868645
867766
867960
868170
868804
870077
871688
871431
869735
868871
868028
865475
866531
856164
860040
855185
854818
852592
853436
852944
854138
858360
858064
861463
865900
864762
868263
871568
869858
871775
872790
870849
869801
868620
866893
865742
865242
865694
867290
869668
872497
873592
874765
874870
879686
871143
874241
878111
879250
882033
884495
885531
886865
888165
887131
886715
883183
881025
877480
874953
865923
865723
849858
853936
834292
837744
825480
825077
820763
828829
833006
837995
846320
859468
862677
873276
874685
884576
885255
893754
892317
892273
891461
888454
886778
885195
883632
880264
878982
875911
863106
865459
848966
845662
833256
831123
822768
818236
825655
818605
828560
829941
837138
841883
847864
848229
847063
846581
845093
839497
840097
833569
829405
823689
819794
811190
799866
787976
779189
779505
775968
771673
783595
777921
803577
794532
823125
819745
842904
845478
863669
870405
878266
884586
890426
892105
895131
897060
897693
900314
906018
908075
908540
911836
907800
902623
901170
885224
890904
868894
872624
849838
855280
822591
833396
793148
807175
768829
781589
758685
763221
760228
764202
764611
778277
773556
787072
792205
794933
800109
803255
804083
802958
801966
804038
800734
800771
798093
798258
795696
797766
798521
792876
790109
789248
778373
777333
771046
768692
772080
771144
777022
790613
787076
808477
809818
822660
830274
837964
841092
846045
846989
847554
847269
845203
844257
843368
840559
836792
834638
825733
824128
811472
810957
788468
789423
771790
768125
751983
753149
753648
751755
752881
759378
766538
788538
782399
805122
811244
816413
828754
828010
833315
836177
835935
836625
836486
840877
840206
841035
839198
836190
831299
823826
814970
807530
795398
791367
780189
775266
781714
779174
789634
806196
811431
821195
830501
841561
850023
856187
859803
860682
861767
859942
856116
854741
853885
848679
846930
842784
834984
836788
830114
832104
832464
830488
826688
824328
816951
805686
801735
795712
794300
793306
787611
787731
800418
809833
820638
832779
845153
853989
862552
872829
877906
877475
877166
877166
878344
879329
876761
878177
878192
877336
871906
870773
862425
856653
843002
831208
807861
807353
771384
770202
755099
752752
762258
762236
768762
774746
786827
801797
809194
822128
828142
833787
834264
834880
832768
830263
830298
830190
831655
835512
832310
835009
836559
835525
839345
841955
842360
846279
849449
847098
853792
849570
850254
862309
860934
872788
875835
889811
893067
897748
902976
903581
904668
904479
905488
905275
906702
906886
909788
911648
913321
911878
915353
916412
917646