/*--------------------------------*- C++ -*----------------------------------*\
| =========                 |                                                 |
| \\      /  F ield         | OpenFOAM: The Open Source CFD Toolbox           |
|  \\    /   O peration     | Version:  2.1.1                                 |
|   \\  /    A nd           | Web:      www.OpenFOAM.org                      |
|    \\/     M anipulation  |                                                 |
\*---------------------------------------------------------------------------*/
FoamFile
{
    version     2.0;
    format      ascii;
    class       volScalarField;
    location    "0.006150000";
    object      rhoUnburned;
}
// * * * * * * * * * * * * * * * * * * * * * * * * * * * * * * * * * * * * * //

dimensions      [1 -3 0 0 0 0 0];

internalField   nonuniform List<scalar> 
12384
(
2.47651
2.52513
2.54786
2.54577
2.53184
2.51991
2.50749
2.49678
2.48882
2.48379
2.48493
2.48895
2.43116
2.23133
4.57473
4.43371
4.20914
4.10417
3.98844
3.87228
3.78146
3.74141
3.73005
3.72328
3.71166
3.70446
3.69452
3.68587
3.67598
3.66634
3.65583
3.64542
3.63123
3.62798
3.6258
3.62941
3.64557
3.66792
3.69587
3.72172
3.73175
3.99734
4.46847
4.46146
4.43705
4.22544
4.02365
3.95713
3.96046
3.98108
4.03582
4.07058
4.13569
4.20932
4.29925
4.37583
4.43658
4.48305
4.52801
4.56259
4.59951
4.60429
4.61532
4.57023
4.53592
4.4886
4.40352
4.34122
4.246
4.16858
4.0828
4.11937
4.3101
4.28444
4.49842
4.73326
4.78804
4.76573
4.7355
4.69882
4.66409
4.63562
4.61643
4.60337
4.60817
4.62583
4.63042
4.7114
4.69185
4.83943
4.82681
4.94811
4.95219
4.98121
4.93926
4.91128
4.89123
4.83998
4.84152
5.17188
5.27569
5.22386
5.15573
5.14766
5.46918
5.05432
4.8248
4.71863
4.68082
4.69579
4.70462
4.73356
4.81135
4.83831
4.83104
4.96172
4.76277
4.89255
4.75228
4.71855
4.81683
4.69913
4.79169
4.65669
4.60818
4.65548
4.74442
4.73125
4.76166
4.76391
4.78736
4.77027
4.7776
4.77446
4.70164
4.69756
4.82515
4.81016
4.79006
4.73056
4.7769
4.83245
4.90321
4.98084
5.03689
5.10867
5.15018
5.22608
5.2333
5.3306
5.30684
5.33102
5.27934
5.29162
5.23021
5.08835
5.08764
4.9723
4.86497
4.76605
4.63585
4.69429
4.76793
4.77203
6.43738
6.92788
7.47117
7.23978
6.85122
6.58893
6.53156
6.54195
6.74835
6.86592
6.89457
7.10462
7.17507
7.19159
7.18439
7.15399
7.03569
7.11592
6.74219
6.73304
6.44607
6.38449
6.20397
6.15621
6.77126
6.75406
6.64697
6.65999
6.66091
6.65965
5.75406
5.51145
5.11232
4.89941
4.82384
4.81251
4.85175
4.90822
4.95235
5.05812
5.07563
5.24728
5.19384
5.25361
5.27604
5.11162
5.12788
5.01279
4.97193
4.89218
4.88094
4.90026
4.99161
4.97053
5.06611
5.1137
5.12933
5.12469
5.10941
5.1022
5.19581
4.85294
4.75459
4.75271
4.80526
4.87491
4.94736
5.04902
5.06997
5.19467
5.15991
5.22012
5.18747
5.12763
5.05689
4.95706
4.87588
4.75561
4.69337
4.84651
5.11063
5.11728
5.08134
5.07221
5.08218
5.09105
5.10581
5.11251
5.10152
5.09932
5.91599
5.90865
5.71804
5.4194
5.29733
5.27031
5.30584
5.39075
5.47941
5.56429
5.72349
5.76761
5.79625
5.82189
5.8497
5.83308
5.77318
5.75707
5.72792
5.66707
5.66547
5.78992
6.02761
6.03733
5.94763
5.8996
5.85778
5.84286
5.87624
5.90168
6.11795
5.85432
5.73586
5.63658
5.58625
5.60378
5.67189
5.75824
5.8211
6.01934
6.04042
6.31029
6.31654
6.43243
6.36212
6.26881
6.13337
5.99361
5.90182
5.86463
5.82887
5.92502
6.02659
6.03984
6.04784
6.00799
5.98633
5.96365
5.98419
6.03838
7.24186
7.33059
7.31275
7.33741
7.1597
7.01037
7.23349
7.4881
7.50215
7.65338
7.60764
7.52187
7.57613
7.224
7.27354
7.10107
7.01655
7.06401
7.00094
6.97401
6.90618
6.85513
6.78393
6.73633
6.70193
6.67743
6.63295
6.5423
6.26467
6.52229
8.05788
8.03309
8.20402
8.54655
8.52229
8.73933
8.70768
4.62854
3.89411
3.89564
3.93258
3.97705
4.03844
4.08257
4.14246
4.21328
4.26805
4.34728
4.42848
4.50087
4.545
4.5422
4.36996
4.16752
4.0093
3.94032
3.93704
3.95817
4.17292
7.18613
2.7498
2.71683
2.64011
2.59086
2.57109
2.56714
2.55631
2.52361
2.47184
2.42503
2.41004
2.44502
2.42791
2.26145
4.57252
4.38259
4.12272
3.94199
3.75104
3.61843
3.61131
3.65427
3.67018
3.67749
3.67764
3.68158
3.69004
3.70042
3.71397
3.71606
3.70517
3.67879
3.6343
3.5751
3.51139
3.46019
3.44599
3.47894
3.55199
3.64233
3.69751
3.81354
4.10755
4.40394
4.42197
4.15361
3.96247
3.92722
3.98211
4.05875
4.12956
4.23521
4.38106
4.5394
4.65832
4.71703
4.75497
4.79733
4.83916
4.88792
4.94513
4.97897
5.02927
5.00546
5.0044
4.91867
4.78305
4.61962
4.44067
4.28998
4.14991
4.10242
4.17513
4.28588
4.51951
4.75618
4.78023
4.7167
4.64428
4.58219
4.53219
4.4998
4.49458
4.50754
4.53018
4.56198
4.62293
4.68257
4.71271
4.83744
4.8691
4.9151
4.96595
4.97833
4.98609
4.96902
4.95111
4.90937
4.85212
4.97776
5.19054
5.16768
5.01255
4.99514
5.007
4.64906
4.54426
4.5439
4.55751
4.5626
4.57504
4.63722
4.62863
4.60829
4.63721
4.62611
4.5968
4.57015
4.5423
4.47181
4.58307
4.60456
4.67966
4.66899
4.62951
4.58886
4.70689
4.74296
4.80067
4.81456
4.81842
4.80466
4.78068
4.76136
4.68627
4.72695
4.82155
4.77686
4.71676
4.80114
4.9287
5.0711
5.14837
5.16264
5.22478
5.26315
5.33105
5.31219
5.3901
5.42984
5.37345
5.46289
5.42494
5.35508
5.33164
5.25798
5.16876
5.08948
4.98822
4.87631
4.71741
4.63564
4.67395
4.72238
6.55562
7.05038
6.7816
6.16351
6.07949
6.40906
6.89913
7.25507
7.44122
7.44879
7.41597
7.35163
7.32253
7.27089
7.26859
7.27616
7.29323
7.34815
7.36856
7.13663
6.89742
6.6678
6.46677
6.23014
6.40918
6.82665
6.93196
6.94011
6.91863
6.93611
5.30549
4.92436
4.70284
4.66707
4.69417
4.75403
4.82574
4.92269
4.965
5.10901
5.08874
5.21428
5.21113
5.25909
5.20905
5.21991
5.14128
5.11699
5.06121
4.99882
4.93214
4.89051
4.92318
4.97812
5.13488
5.26359
5.27268
5.23001
5.16986
5.11751
4.8763
4.67252
4.76178
4.90612
5.0463
5.16443
5.26517
5.35007
5.41571
5.51293
5.52829
5.54386
5.54191
5.46982
5.36253
5.23881
5.11537
4.97328
4.80993
4.76341
4.93075
5.0982
5.04199
5.03149
5.05656
5.08205
5.10038
5.13195
5.13037
5.09616
5.90823
5.9081
5.47137
5.21455
5.21814
5.35181
5.55617
5.74496
5.90737
6.08797
6.21584
6.26919
6.41378
6.42712
6.34941
6.31322
6.23413
6.11654
6.03086
5.92121
5.80593
5.76245
5.85853
5.9865
5.85892
5.69759
5.65788
5.65415
5.69409
5.71097
6.21621
5.83296
5.59794
5.48964
5.54821
5.69819
5.83605
5.9847
6.20122
6.31501
6.45491
6.73539
6.76384
6.78741
6.80053
6.65244
6.51984
6.33759
6.15468
6.00046
5.85485
5.81659
5.94309
5.97493
5.92135
5.82406
5.76645
5.75566
5.79345
5.88433
7.1022
7.18216
7.17101
7.218
7.09081
7.25227
7.36298
7.51991
7.52676
7.41849
7.11343
6.68921
6.48972
6.27068
6.24154
6.25228
6.37344
6.51994
6.72514
6.84223
6.77873
6.63849
6.50798
6.39756
6.37485
6.40788
6.47596
6.50668
6.30981
6.44141
5.42935
5.41718
5.57468
6.67245
8.73215
8.8487
6.13102
4.02975
3.86374
3.91223
3.93275
3.95971
3.98795
4.01404
4.03615
4.08094
4.15074
4.25979
4.43852
4.71052
5.02639
5.22447
5.21428
4.78505
4.30699
4.00492
3.93151
3.95831
4.23006
7.59036
2.74969
2.66874
2.62957
2.70085
2.80628
2.86958
2.88504
2.84977
2.74693
2.58295
2.42578
2.39772
2.40648
2.28331
4.57128
4.30405
4.00565
3.74775
3.55461
3.54493
3.65065
3.72007
3.7472
3.76516
3.79913
3.85521
3.90662
3.96136
4.01059
4.02539
4.00143
3.9261
3.80093
3.65584
3.51269
3.3913
3.31097
3.29921
3.36606
3.49977
3.62624
3.71749
3.89507
4.26865
4.40549
4.09168
3.92819
3.92413
3.98043
4.02299
4.08718
4.21454
4.42704
4.60073
4.69048
4.70277
4.69106
4.67138
4.66985
4.67682
4.71249
4.74677
4.80833
4.86031
4.92523
4.92922
4.89033
4.8079
4.61624
4.4427
4.2546
4.12244
4.13204
4.22536
4.54529
4.77023
4.76062
4.66212
4.58077
4.51471
4.4821
4.4699
4.48347
4.50779
4.56694
4.64308
4.69395
4.78247
4.8548
4.9668
4.93192
5.0529
5.07701
5.08993
5.04891
5.02328
4.99742
4.97385
4.91015
4.90836
5.06589
5.15202
4.99595
4.92001
4.69001
4.52555
4.54724
4.60007
4.61125
4.59184
4.58885
4.55996
4.50074
4.52508
4.49205
4.49388
4.45185
4.45043
4.44258
4.4317
4.4393
4.4933
4.56935
4.6368
4.65499
4.60962
4.66011
4.74319
4.80789
4.82727
4.8208
4.79803
4.74473
4.73737
4.65923
4.73198
4.80008
4.72306
4.80414
4.98219
5.12305
5.08208
5.16161
5.09059
5.17568
5.04373
5.12962
4.96035
5.07572
4.98194
5.04344
5.04594
5.10447
5.14173
5.1624
5.18717
5.16952
5.12869
5.08546
4.99805
4.84485
4.69961
4.64069
4.67993
6.76526
6.89315
5.90156
6.07392
6.88907
7.47337
7.63151
7.543
7.53373
7.42062
7.33614
7.34055
7.22098
7.21795
7.20998
7.22386
7.27786
7.26002
7.18943
7.16977
7.00934
6.87833
6.68747
6.46169
6.31931
6.66043
6.92677
6.93494
6.88405
7.0224
4.96499
4.70362
4.64479
4.68642
4.75977
4.84359
4.89179
4.95873
4.99185
5.04555
5.08265
5.15412
5.18514
5.19828
5.17601
5.15737
5.14238
5.09473
5.08945
5.06854
5.017
4.94752
4.92112
4.94892
5.08785
5.287
5.2925
5.22511
5.12979
5.02424
4.59754
4.75137
4.96669
5.12546
5.22148
5.27722
5.33809
5.36265
5.42617
5.47252
5.45473
5.53531
5.52619
5.52256
5.49431
5.42919
5.31515
5.18323
4.99714
4.83336
4.81356
5.00591
5.04185
5.01453
5.0289
5.05516
5.07619
5.0943
5.17003
5.15486
5.88902
5.79931
5.17939
5.16822
5.38272
5.66483
5.89949
6.08869
6.24901
6.393
6.48558
6.6533
6.63443
6.59137
6.60193
6.5474
6.50672
6.43934
6.31176
6.1954
6.05013
5.89353
5.81653
5.90272
5.76754
5.59264
5.63201
5.67029
5.59432
5.56342
6.20332
5.74012
5.43446
5.51965
5.75087
5.94149
6.07507
6.28379
6.43932
6.49333
6.82976
6.9224
6.89968
7.04576
6.96135
6.90905
6.77604
6.61451
6.42732
6.237
6.04027
5.87493
5.8578
5.91471
5.84921
5.70257
5.63287
5.6328
5.67405
5.7638
7.07521
7.12369
7.07884
7.12783
7.14976
7.35887
7.41655
7.53176
7.1291
6.38969
5.9688
5.60873
5.48652
5.4078
5.39393
5.43015
5.59607
5.84071
6.1827
6.57159
6.67434
6.45794
6.26546
6.17708
6.13279
6.16484
6.26529
6.40919
6.33274
6.40318
5.41763
5.41677
5.73184
7.40454
8.6308
7.94224
4.33109
3.85805
3.86777
3.8826
3.88612
3.88727
3.88817
3.8762
3.87647
3.8791
3.89149
3.92389
3.99627
4.19043
4.56593
5.15265
5.59804
5.52283
4.89235
4.3147
4.0738
4.12214
4.70864
8.2084
2.73384
2.70892
2.85676
3.02117
3.07363
3.07044
3.05481
3.04168
3.00576
2.85462
2.56979
2.38464
2.38142
2.29008
4.55764
4.22767
3.86906
3.585
3.46186
3.58811
3.74837
3.79819
3.82482
3.87605
3.93526
4.00404
4.08809
4.1639
4.23103
4.2533
4.18327
4.02772
3.80696
3.57511
3.38803
3.2501
3.16023
3.12903
3.18717
3.33737
3.52734
3.65613
3.78811
4.16035
4.39811
4.0672
3.9141
3.90208
3.91145
3.90941
3.96455
4.12998
4.3666
4.54728
4.62514
4.60353
4.55315
4.49858
4.45662
4.41229
4.38703
4.38976
4.40955
4.46538
4.54378
4.6342
4.72835
4.72013
4.65795
4.52126
4.32586
4.17139
4.11164
4.20329
4.57524
4.78419
4.74912
4.63678
4.55029
4.49688
4.47501
4.47237
4.48708
4.5325
4.6268
4.6969
4.77289
4.88765
4.89956
4.90761
4.96008
5.04841
5.01981
5.01908
5.04617
5.05238
5.03092
5.00806
4.95763
4.90147
4.98297
5.10012
5.01362
4.88758
4.51224
4.49858
4.6056
4.65615
4.62763
4.56521
4.47893
4.39032
4.34808
4.32682
4.28538
4.29845
4.27341
4.2943
4.32028
4.31321
4.38338
4.41893
4.50112
4.5825
4.64754
4.62822
4.63336
4.71669
4.79951
4.80698
4.79029
4.77484
4.70966
4.66975
4.67225
4.71994
4.74863
4.78061
4.95845
5.08903
5.01836
5.07511
5.02259
4.97796
4.88607
4.73362
4.663
4.52352
4.51546
4.44165
4.47959
4.4933
4.58158
4.7113
4.82372
4.91919
5.04744
5.08025
5.10135
5.06373
4.95948
4.7949
4.66251
4.66338
6.84871
6.13253
5.82234
7.10213
7.63596
7.61689
7.36675
7.04334
6.85758
6.82664
6.75627
6.75526
6.7256
6.64819
6.65564
6.63191
6.50399
6.52893
6.67946
6.72054
6.84108
6.84641
6.83183
6.62082
6.42036
6.43414
6.8278
6.92284
6.83032
7.12878
4.78963
4.64305
4.65818
4.75524
4.84399
4.88816
4.90438
4.92006
4.92861
4.98748
4.99952
5.07875
5.05815
5.07052
5.06068
5.05037
5.05705
5.07282
5.04037
5.07892
5.05598
5.01768
4.95284
4.93833
5.02129
5.20565
5.27177
5.19644
5.0925
4.92975
4.74768
4.93552
5.11656
5.21217
5.25159
5.26191
5.27958
5.26917
5.32799
5.30451
5.38707
5.36077
5.40662
5.42381
5.43109
5.44417
5.41719
5.33221
5.17165
4.96539
4.83087
4.88831
5.02532
5.01325
4.99965
5.01436
5.02925
4.9232
5.00846
5.17711
5.91916
5.36137
5.09598
5.32631
5.66122
5.94098
6.13133
6.33127
6.46971
6.60096
6.76949
6.77484
6.78072
6.83876
6.78538
6.67981
6.59107
6.5419
6.50497
6.39923
6.234
6.05256
5.95123
5.868
5.8246
5.66087
5.56773
5.5922
5.58202
5.55554
6.05963
5.43843
5.43627
5.73828
5.9635
6.12009
6.25191
6.44016
6.52066
6.77423
6.96031
6.95552
7.14323
7.16046
7.13805
7.07138
6.91601
6.78505
6.63033
6.45634
6.25415
6.02339
5.88117
5.87797
5.84055
5.68286
5.60455
5.62231
5.67304
5.76399
7.07752
7.06454
7.08089
7.11459
7.27918
7.38247
7.46065
6.97954
6.17611
5.60867
5.27124
5.10661
5.03612
4.9913
5.04081
5.06035
5.17416
5.37247
5.74818
6.26812
6.67883
6.44894
6.18423
6.15184
6.1642
6.15054
6.19511
6.33433
6.33927
6.39028
5.75763
5.70463
6.96097
8.21673
8.14268
5.14659
3.90792
3.82816
3.85086
3.85715
3.85737
3.86856
3.86619
3.8804
3.87817
3.87292
3.86643
3.87177
3.87288
3.90427
4.04451
4.47031
5.28281
5.81242
5.53683
4.98962
4.61008
4.69874
5.68111
8.46351
2.77182
2.89039
3.10029
3.14463
3.06447
2.96256
2.91763
2.94407
2.99478
2.96038
2.7156
2.41778
2.3652
2.29055
4.55544
4.15412
3.74018
3.45637
3.45599
3.6652
3.80313
3.85813
3.88285
3.91873
3.96499
4.03064
4.12813
4.25343
4.33008
4.32251
4.21389
3.93663
3.60763
3.33599
3.14019
3.02123
2.96115
2.95639
3.02918
3.19875
3.43064
3.61076
3.73625
4.09356
4.40811
4.06787
3.90718
3.86584
3.8421
3.82561
3.88431
4.07118
4.31514
4.50784
4.59204
4.55429
4.48148
4.41651
4.34927
4.28104
4.24246
4.24702
4.23003
4.28872
4.29171
4.36214
4.43896
4.52863
4.57146
4.48692
4.37037
4.18422
4.12158
4.17238
4.59672
4.78324
4.72797
4.61171
4.5346
4.49013
4.47929
4.47854
4.50247
4.55755
4.64343
4.74534
4.88393
4.88015
4.84293
4.90737
4.90887
4.88592
4.92834
4.99649
5.00298
5.05297
5.04516
5.02072
4.98481
4.93967
4.94638
5.05271
4.99855
4.8704
4.39716
4.52155
4.67345
4.67249
4.55897
4.46311
4.2913
4.17893
4.12429
4.07824
4.06682
4.07782
4.08704
4.14004
4.18921
4.20949
4.29543
4.41949
4.45347
4.56417
4.63929
4.63473
4.63099
4.68031
4.76114
4.78167
4.75155
4.73982
4.66722
4.6156
4.63164
4.71702
4.75638
4.86431
5.0276
5.00742
4.98622
4.98405
4.90169
4.72952
4.57876
4.38364
4.28999
4.16227
4.12137
4.05048
4.05691
4.07179
4.14073
4.23528
4.43024
4.59253
4.78947
4.95327
5.04898
5.07779
5.03079
4.8779
4.69631
4.66449
6.72551
5.88606
6.78342
7.60783
7.5705
7.00263
6.54315
6.44115
6.44701
6.53647
6.46415
6.45677
6.27718
6.17952
5.99993
5.93541
5.90635
5.97511
6.00836
6.21456
6.45617
6.63441
6.78784
6.74439
6.53903
6.43377
6.58986
6.75346
6.67604
7.0982
4.69563
4.62431
4.7274
4.84341
4.88671
4.8726
4.8891
4.86761
4.89766
4.95845
4.98776
5.03649
5.06923
5.09849
5.09612
5.05895
4.99398
5.01574
5.00914
5.04621
5.06622
5.03617
5.00982
4.95033
4.97268
5.10993
5.18444
5.15804
5.05611
4.84222
4.87959
5.03279
5.17129
5.22627
5.22637
5.23278
5.18247
5.22918
5.29442
5.32343
5.35771
5.39985
5.37906
5.34298
5.35028
5.40024
5.41148
5.405
5.29298
5.09701
4.91847
4.85698
4.98229
5.02812
4.99251
5.01863
5.01302
4.75574
4.7427
5.07872
5.85823
4.92896
5.145
5.5318
5.87393
6.10724
6.30726
6.491
6.72952
6.8441
6.9317
6.92016
6.97471
6.85076
6.82685
6.81332
6.64889
6.5819
6.54241
6.42358
6.34859
6.25815
5.96327
5.76679
5.73237
5.67771
5.69986
5.66711
5.44479
5.35042
5.71154
5.29347
5.62381
5.91759
6.07067
6.17877
6.38337
6.55701
6.64436
7.01403
6.85838
7.20829
7.21275
7.17077
7.22872
7.20543
7.05106
6.97313
6.76611
6.63211
6.45504
6.21252
5.99071
5.89009
5.84886
5.69908
5.6099
5.65357
5.73177
5.80221
7.06668
7.03488
7.11253
7.18588
7.32103
7.43598
7.18821
6.23107
5.53953
5.13389
4.92025
4.8272
4.76732
4.73253
4.80343
4.9056
5.02445
5.14222
5.43747
6.0203
6.5963
6.49669
6.18343
6.21875
6.35412
6.35399
6.26632
6.32524
6.3429
6.39964
6.10349
5.92326
7.24651
7.76997
6.04083
4.232
3.81139
3.82212
3.84554
3.8423
3.85953
3.87302
3.87604
3.88537
3.88327
3.88005
3.87834
3.8734
3.90189
3.89131
3.89314
4.0014
4.54223
5.60839
5.91972
5.44604
5.35271
5.65734
7.08781
8.4999
2.8502
3.06895
3.194
3.05306
2.82618
2.71031
2.69503
2.74688
2.84739
2.91385
2.75575
2.43745
2.35022
2.28004
4.53268
4.07965
3.63662
3.37379
3.43346
3.69992
3.84371
3.87868
3.89965
3.90866
3.93433
4.01772
4.13856
4.28715
4.38905
4.35732
4.14962
3.74875
3.37063
3.11553
2.94792
2.84324
2.79906
2.81358
2.90596
3.09634
3.35244
3.56782
3.70234
4.07498
4.425
4.10352
3.91778
3.84614
3.80881
3.80582
3.89162
4.09341
4.30362
4.50843
4.58138
4.51727
4.45047
4.37719
4.30125
4.2372
4.1957
4.2175
4.20399
4.25081
4.2618
4.28323
4.32308
4.36037
4.43336
4.43363
4.32792
4.20417
4.11728
4.17727
4.61269
4.80355
4.74162
4.6179
4.54445
4.5169
4.49859
4.49919
4.52395
4.55354
4.66838
4.82387
4.91161
4.83927
4.90314
4.86484
4.79229
4.83439
4.86327
4.91364
4.94241
5.01889
5.04476
5.03473
4.99751
4.96428
4.94124
5.01991
4.95892
4.84166
4.4357
4.59764
4.68634
4.63109
4.48608
4.29653
4.09609
3.95587
3.85615
3.83062
3.85071
3.89182
3.94983
4.02552
4.06057
4.16995
4.18377
4.41361
4.43678
4.55688
4.63644
4.65663
4.62254
4.66035
4.70431
4.74092
4.72304
4.70233
4.62855
4.56471
4.62352
4.69884
4.77952
4.95323
4.96484
4.96101
4.93835
4.89541
4.69303
4.53856
4.35222
4.22023
4.11097
4.01809
3.95604
3.87387
3.86517
3.83458
3.88105
3.95426
4.09797
4.32499
4.5464
4.77451
4.97605
5.06632
5.05984
4.9293
4.72312
4.67449
6.48863
6.08174
7.48432
7.55741
6.8212
6.30844
6.16463
6.24556
6.38642
6.48398
6.32777
6.12028
5.85784
5.61288
5.53785
5.48956
5.36488
5.53881
5.53269
5.79762
6.04599
6.34926
6.66226
6.75387
6.65662
6.43798
6.47911
6.6003
6.64777
7.12749
4.64911
4.64077
4.81236
4.88179
4.8782
4.8696
4.86093
4.84745
4.94923
4.95185
5.00509
5.08521
5.10082
5.0826
5.09501
5.06608
5.02911
4.99704
4.95795
5.04357
5.04513
5.04285
5.04405
4.96432
4.96154
5.03008
5.10502
5.10956
5.00212
4.78506
4.93077
5.07927
5.20335
5.21156
5.19891
5.18695
5.15784
5.28679
5.28469
5.25346
5.2617
5.26918
5.3058
5.33931
5.31314
5.33895
5.35424
5.39186
5.34342
5.20198
4.98137
4.88401
4.91421
5.02752
5.02443
5.0724
4.92376
4.56231
4.50048
4.91854
5.76617
4.85567
5.331
5.7006
5.97067
6.24124
6.43296
6.70711
6.87835
6.88417
6.92744
6.94701
6.87515
6.88468
6.84482
6.69158
6.68173
6.58794
6.39789
6.44481
6.43114
6.22798
6.05182
5.92492
5.69131
5.5396
5.58296
5.60271
5.35606
5.24098
5.45751
5.37916
5.78923
5.96707
6.08805
6.28736
6.43586
6.64811
6.79544
6.88998
6.9002
6.88479
6.74176
6.79873
6.91228
7.04068
7.10312
7.05736
6.89596
6.76202
6.60658
6.38939
6.12172
5.94711
5.87498
5.74774
5.64125
5.71418
5.82678
5.86975
7.07046
7.04497
7.15769
7.23555
7.39809
7.37795
6.54623
5.70046
5.13833
4.86264
4.69772
4.56665
4.48753
4.5123
4.56189
4.72442
4.94944
5.10757
5.28738
5.77452
6.53812
6.53523
6.20569
6.33839
6.61311
6.59519
6.40843
6.36374
6.32699
6.38425
6.33494
5.73786
6.37136
6.14084
4.7761
3.92983
3.79586
3.8191
3.84038
3.83658
3.86808
3.84985
3.84364
3.82869
3.82862
3.83055
3.84578
3.83842
3.88282
3.92471
3.93289
3.89125
4.01003
4.95376
6.15551
5.82316
5.84523
6.66875
8.20069
8.08118
2.93086
3.20065
3.17478
2.8093
2.58678
2.54713
2.56168
2.6101
2.69884
2.78326
2.69032
2.42259
2.33691
2.28012
4.54756
4.05277
3.56361
3.30669
3.38745
3.66272
3.85936
3.89969
3.89979
3.90755
3.91985
3.9866
4.14383
4.30978
4.40401
4.38003
4.02503
3.54273
3.19003
2.99736
2.87367
2.7894
2.74358
2.7653
2.84534
3.0472
3.32282
3.55009
3.68984
4.04561
4.45469
4.14834
3.9395
3.8567
3.81037
3.85997
4.03075
4.19693
4.34468
4.51836
4.57426
4.49949
4.4311
4.35953
4.26573
4.21154
4.19012
4.19764
4.20549
4.25236
4.25459
4.29508
4.29729
4.30439
4.34981
4.33707
4.31499
4.18051
4.12289
4.16125
4.6329
4.81022
4.71549
4.60282
4.56716
4.56181
4.54971
4.53474
4.51921
4.5597
4.71745
4.82354
4.92193
4.92049
4.91161
4.80518
4.82499
4.81322
4.79844
4.83122
4.91438
4.96536
5.00434
5.05324
5.01032
4.97116
4.95808
5.00013
4.93637
4.82352
4.50312
4.64552
4.66226
4.56958
4.4077
4.17302
3.93634
3.79564
3.67155
3.65565
3.69889
3.77533
3.85266
3.92857
3.99645
4.10787
4.1808
4.38452
4.42563
4.59156
4.6358
4.67577
4.62883
4.63445
4.65516
4.6866
4.68141
4.67091
4.57798
4.51695
4.61797
4.69409
4.82639
4.95455
4.93287
4.91916
4.88873
4.76257
4.59733
4.46287
4.30316
4.19238
4.06838
3.97159
3.87244
3.77261
3.73304
3.68979
3.72466
3.80873
3.90296
4.12938
4.38272
4.64886
4.88938
5.06189
5.0629
4.94366
4.72126
4.69884
6.43725
6.65251
7.45834
7.02047
6.28298
5.97076
5.96171
6.24325
6.46498
6.51454
6.12549
5.90974
5.49539
5.39167
5.21552
5.14114
5.09258
5.24173
5.20252
5.5496
5.73199
6.08691
6.49936
6.73866
6.68002
6.51429
6.4475
6.49288
6.54548
6.96369
4.61826
4.71676
4.85377
4.89658
4.88401
4.88638
4.8526
4.8965
4.97159
4.95707
5.04471
5.10342
5.05157
5.12446
5.09304
5.12767
5.01549
5.02892
4.94096
5.01761
5.00195
5.05329
5.05952
4.9691
4.95613
4.99489
5.02786
5.05649
4.89491
4.7499
4.93239
5.11437
5.2143
5.19883
5.19417
5.17058
5.1999
5.29469
5.24528
5.28407
5.37448
5.3816
5.33625
5.32058
5.29596
5.33812
5.33239
5.33573
5.35846
5.22253
5.04223
4.91099
4.89085
4.97184
5.05102
5.08937
4.73829
4.3467
4.33298
4.77002
5.53706
4.98638
5.45916
5.74639
6.04284
6.2858
6.53495
6.82467
6.88016
6.93248
6.87484
6.70321
6.67966
6.63533
6.58233
6.61381
6.53572
6.3833
6.38956
6.35874
6.28289
6.18782
6.04899
5.82388
5.70644
5.58876
5.49937
5.36769
5.12566
5.06684
5.29811
5.55559
5.8245
5.96025
6.1399
6.32539
6.54713
6.69623
6.89076
6.73856
6.60268
6.65782
6.58831
6.68952
6.66667
6.73347
6.83614
7.07676
6.97271
6.86424
6.71685
6.52931
6.25045
6.02649
5.88995
5.73708
5.66058
5.78081
5.9531
6.02758
7.04812
7.07925
7.19525
7.28493
7.39229
7.12688
6.13178
5.33673
4.92029
4.67669
4.50728
4.38557
4.28892
4.29436
4.40347
4.53784
4.81662
5.11767
5.28847
5.58418
6.41251
6.64172
6.23488
6.52047
6.83277
6.77553
6.50933
6.40131
6.33555
6.39173
6.5218
5.35601
5.32023
4.97173
4.21125
3.82661
3.7884
3.81743
3.83642
3.82842
3.86123
3.83453
3.82665
3.85395
3.84035
3.8113
3.83601
3.8164
3.83809
3.89801
3.97199
3.95619
3.87167
4.20676
6.10374
6.67147
6.36186
7.47218
8.43176
7.81557
2.99908
3.23989
3.01088
2.58439
2.46409
2.48889
2.50205
2.50205
2.55261
2.6191
2.56011
2.36391
2.31512
2.26387
4.5418
4.04203
3.5368
3.24916
3.25946
3.52944
3.80424
3.898
3.91075
3.90561
3.92074
3.97265
4.10835
4.33141
4.42955
4.36052
3.89759
3.39677
3.1084
2.97933
2.88792
2.79254
2.74467
2.75818
2.84502
3.05207
3.32777
3.54797
3.68622
4.12334
4.48623
4.24754
4.01045
3.90572
3.90312
4.02651
4.23561
4.34295
4.40805
4.52283
4.5588
4.49895
4.42168
4.34638
4.25311
4.18863
4.19714
4.18109
4.21893
4.2597
4.2919
4.31412
4.31584
4.30783
4.29089
4.31714
4.25967
4.16565
4.1178
4.16758
4.65547
4.79786
4.72416
4.64626
4.60823
4.60297
4.6114
4.57083
4.54887
4.58654
4.68913
4.80697
4.98057
4.95651
4.93129
4.85695
4.85076
4.79852
4.81916
4.8375
4.91808
4.98611
4.99324
5.04266
5.04294
4.98319
4.9662
4.99839
4.88673
4.78972
4.5258
4.63234
4.63751
4.53229
4.35665
4.11229
3.87772
3.713
3.6068
3.57473
3.6221
3.71442
3.79684
3.87211
3.96692
4.08018
4.20566
4.37663
4.46005
4.61258
4.65152
4.68694
4.63587
4.61063
4.60554
4.63268
4.63047
4.62973
4.49875
4.43656
4.59245
4.70569
4.83145
4.91717
4.87543
4.88781
4.80772
4.72779
4.57348
4.48603
4.31509
4.22581
4.0688
3.983
3.83271
3.73168
3.6546
3.63743
3.65036
3.74043
3.81451
4.06542
4.28805
4.61184
4.85853
5.05388
5.07788
4.92296
4.71355
4.72437
6.30057
6.82029
7.30007
6.42222
5.93406
5.72729
5.8856
6.31222
6.54389
6.48818
6.08738
5.7277
5.34108
5.20716
5.04335
4.97691
4.94509
5.07541
5.01685
5.41731
5.5312
5.99554
6.42225
6.75639
6.6798
6.55782
6.45457
6.44822
6.47771
6.1695
4.58111
4.75481
4.8636
4.9189
4.91506
4.91429
4.87136
4.95669
4.96166
5.00103
5.05315
5.08026
5.06683
5.10928
5.14824
5.1235
5.02668
5.03639
4.95625
4.99511
4.9942
5.07916
5.03646
4.98493
4.95095
4.97344
5.00671
4.90056
4.79103
4.81738
4.89868
5.1154
5.21483
5.19398
5.18309
5.18879
5.26054
5.25359
5.30026
5.29838
5.35095
5.32722
5.3125
5.28636
5.262
5.2697
5.31168
5.29602
5.31505
5.22931
5.06561
4.92619
4.88895
4.95451
5.07981
4.93047
4.39737
4.20113
4.2761
4.66088
5.29091
5.13288
5.45593
5.74876
6.0236
6.34732
6.55705
6.83956
6.85275
6.91939
6.71109
6.72684
6.59921
6.4555
6.397
6.43198
6.3047
6.28095
6.25319
6.18195
6.20157
6.20921
5.97651
5.71385
5.60251
5.5254
5.51238
5.17218
4.90258
4.94225
5.2449
5.52219
5.73481
5.96095
6.16243
6.39536
6.57952
6.80052
6.82963
6.57159
6.66552
6.43002
6.62727
6.55626
6.58806
6.64224
6.73742
6.88876
7.00565
6.92329
6.77544
6.61728
6.35298
6.08645
5.91023
5.75003
5.71227
5.91031
6.13348
6.3436
7.08767
7.08452
7.22648
7.33808
7.38497
6.84569
5.83341
5.16085
4.7827
4.58337
4.40662
4.2758
4.23326
4.20876
4.27781
4.45255
4.74434
5.0966
5.3355
5.51068
6.31211
6.72367
6.2724
6.52963
6.83364
6.79193
6.5477
6.38348
6.27882
6.27536
7.01338
5.22377
4.68838
4.36875
3.95339
3.78611
3.78695
3.80788
3.82031
3.82803
3.85006
3.82011
3.80596
3.83211
3.82243
3.8035
3.82174
3.81399
3.81769
3.8744
3.97134
4.00454
3.91058
3.88724
5.4159
7.84543
7.52782
8.31095
8.02729
7.9284
3.04114
3.23612
2.82687
2.46046
2.42712
2.50398
2.51713
2.44539
2.42196
2.45525
2.41548
2.31254
2.30706
2.28368
2.58812
3.44052
4.43943
4.05843
3.56192
3.24746
3.12826
3.30219
3.59958
3.78847
3.88533
3.89747
3.90882
3.95724
4.08343
4.31181
4.43871
4.34812
3.81156
3.33448
3.10776
3.01884
2.93288
2.83054
2.77935
2.80193
2.91335
3.1296
3.37878
3.55496
3.66805
3.99879
4.32248
4.45108
4.49932
4.34873
4.12739
3.99452
4.03964
4.24001
4.38499
4.42624
4.45264
4.53301
4.56518
4.49581
4.42197
4.34221
4.24422
4.19241
4.16559
4.196
4.21943
4.28674
4.29765
4.34953
4.33438
4.30716
4.31097
4.27485
4.21118
4.14034
4.10431
4.15768
4.26083
4.43333
4.67422
4.84171
4.75728
4.64113
4.60083
4.63837
4.62642
4.60435
4.59438
4.57439
4.63817
4.8194
4.96842
4.95564
4.97613
4.91939
4.90979
4.83125
4.89215
4.87378
4.94017
4.99054
5.02682
5.03038
5.04245
5.0052
4.96977
4.97424
4.82036
4.59957
4.41736
4.39221
4.52809
4.60972
4.61695
4.52851
4.36442
4.135
3.90733
3.73684
3.64851
3.60606
3.6585
3.70322
3.82243
3.87688
4.0225
4.1132
4.28971
4.41479
4.53909
4.63306
4.66319
4.69715
4.62802
4.59374
4.56669
4.57646
4.61856
4.56937
4.46129
4.41564
4.40733
4.41674
4.53433
4.70882
4.84952
4.86244
4.83737
4.86682
4.78391
4.73331
4.62809
4.53845
4.39938
4.26686
4.15347
4.02346
3.89189
3.75894
3.66916
3.64184
3.65359
3.73961
3.85587
4.07097
4.31525
4.66017
4.90215
5.05865
5.04763
4.85073
4.69788
5.16628
6.15119
6.60891
6.89463
7.25735
6.78208
6.16833
5.76126
5.59505
5.82226
6.29847
6.59687
6.60161
6.13761
5.73605
5.38703
5.2246
5.08556
4.96765
4.94779
5.02433
5.06323
5.36266
5.51975
6.02367
6.47326
6.71715
6.69718
6.53645
6.44731
6.22579
5.03462
4.5644
4.56333
4.65466
4.69549
4.78833
4.89871
4.95647
4.96043
4.93936
4.91477
4.97724
4.96293
5.02301
5.03091
5.12551
5.08234
5.12307
5.13856
5.15462
5.00147
5.06084
4.98516
4.96105
5.0378
5.04424
5.03255
4.96794
4.94837
4.94566
4.85099
4.7059
4.7897
4.8834
4.89731
4.88186
5.03512
5.17639
5.25798
5.21538
5.19936
5.2271
5.29205
5.28151
5.29107
5.31256
5.37841
5.37104
5.33185
5.2273
5.22314
5.20191
5.3116
5.2366
5.27687
5.20164
5.05674
4.91121
4.87252
4.97086
5.07949
4.32269
4.14962
4.42221
4.57343
4.77675
4.94964
5.02057
5.13619
5.21207
5.42338
5.68563
5.97887
6.31364
6.57527
6.81707
6.8433
6.8008
6.68059
6.5283
6.47916
6.45729
6.40774
6.28617
6.20548
6.17291
6.13109
6.11836
6.11765
6.05431
5.92423
5.71373
5.51649
5.447
5.18371
4.84039
4.90789
5.02607
5.22372
5.30747
5.323
5.36193
5.68327
5.95608
6.19696
6.4593
6.63718
6.90912
6.75749
6.6989
6.48425
6.50271
6.51043
6.51116
6.44926
6.57511
6.65882
6.88242
6.95733
6.9406
6.81684
6.66643
6.40491
6.12637
5.89205
5.71888
5.75187
5.92525
6.14244
6.42532
6.63186
7.02277
7.04777
7.09514
7.21296
7.35706
7.37123
6.70741
5.73612
5.08339
4.73545
4.53709
4.38401
4.24644
4.20101
4.21716
4.26652
4.40331
4.77497
5.11726
5.37687
5.47166
6.25387
6.7767
6.29818
6.46869
6.74875
6.69449
6.48922
6.36162
6.53757
7.1145
7.66782
6.12564
5.29568
4.51327
4.23709
4.06322
3.84784
3.76882
3.78046
3.80292
3.79981
3.83126
3.82463
3.83483
3.80193
3.83742
3.82745
3.81177
3.81243
3.81587
3.82261
3.87738
3.98203
4.03081
3.95422
3.85937
4.65832
8.24506
8.28841
8.19783
8.20979
6.4528
3.17886
2.99876
3.05886
3.18354
2.68971
2.4253
2.43697
2.64787
2.70685
2.52252
2.3605
2.33073
2.31455
2.27813
2.29356
2.27173
2.56076
3.42796
4.3606
4.1276
3.66909
3.31433
3.04988
3.02157
3.20967
3.41824
3.60489
3.75952
3.85371
3.90465
4.03408
4.2919
4.4319
4.35254
3.77874
3.3307
3.14704
3.08384
3.01993
2.93316
2.89363
2.93205
3.05753
3.24734
3.44135
3.56341
3.67481
3.98601
4.32084
4.50112
4.49675
4.38593
4.20484
4.1218
4.21279
4.39118
4.45499
4.46672
4.4851
4.53663
4.57031
4.49944
4.44262
4.36549
4.24286
4.19507
4.15767
4.19112
4.24445
4.29248
4.35067
4.35237
4.35913
4.30767
4.29948
4.23879
4.16542
4.13441
4.1054
4.17419
4.28196
4.43329
4.64387
4.81105
4.74587
4.64284
4.6157
4.62346
4.61251
4.61539
4.61997
4.56276
4.6172
4.78938
4.89302
4.97956
5.01933
4.96053
4.95688
4.9158
4.90839
4.94723
4.95967
5.00301
5.04611
5.05588
5.03535
5.00967
4.98881
4.89004
4.64924
4.48779
4.44045
4.42537
4.53156
4.60095
4.62775
4.55418
4.43123
4.25214
4.03516
3.85555
3.74916
3.72136
3.74229
3.80282
3.89412
3.98005
4.12057
4.23555
4.40382
4.51689
4.59487
4.65602
4.68125
4.68051
4.61275
4.55322
4.52857
4.56844
4.55435
4.46742
4.41813
4.39491
4.40748
4.46828
4.59507
4.76984
4.81415
4.83872
4.80497
4.82879
4.80286
4.75731
4.70381
4.64803
4.50701
4.39216
4.26578
4.18216
4.04839
3.92394
3.80914
3.76178
3.78327
3.85501
4.02967
4.20186
4.51384
4.77192
4.99274
5.04772
4.94256
4.77115
4.84803
5.67259
6.49328
6.94577
7.01289
6.82297
6.31808
5.93655
5.62196
5.49485
5.65276
6.14976
6.69206
6.7108
6.33535
5.9373
5.55386
5.34945
5.20562
5.08259
5.09851
5.09998
5.21438
5.46858
5.69116
6.235
6.56544
6.72477
6.66987
6.49065
6.28272
5.32354
4.48837
4.41968
4.46275
4.46573
4.48944
4.64858
4.85895
4.97277
4.98915
4.98497
4.94864
5.00032
4.96742
5.04899
5.02669
5.11098
5.09776
5.15445
5.15511
5.09849
5.03222
5.05432
4.99271
4.93536
5.09827
4.98291
5.04273
4.96322
4.96039
4.94861
4.80913
4.691
4.75445
4.75983
4.76628
4.82675
4.97809
5.17735
5.27219
5.24094
5.2289
5.25179
5.29996
5.32863
5.28288
5.3098
5.25608
5.26771
5.20898
5.25478
5.24713
5.18965
5.27021
5.20454
5.2477
5.14547
5.01504
4.8971
4.86634
4.9783
4.6062
4.04678
4.39973
4.59326
4.70546
4.76249
4.83349
4.86294
4.92557
5.0487
5.27443
5.53515
5.87446
6.18107
6.49267
6.8297
6.8384
6.78283
6.6511
6.51962
6.33519
6.17244
6.10967
6.11262
6.09131
6.06594
6.05376
6.07098
6.04475
6.01847