/*--------------------------------*- C++ -*----------------------------------*\
| =========                 |                                                 |
| \\      /  F ield         | OpenFOAM: The Open Source CFD Toolbox           |
|  \\    /   O peration     | Version:  2.1.1                                 |
|   \\  /    A nd           | Web:      www.OpenFOAM.org                      |
|    \\/     M anipulation  |                                                 |
\*---------------------------------------------------------------------------*/
FoamFile
{
    version     2.0;
    format      ascii;
    class       volScalarField;
    location    "0.007400000";
    object      H2;
}
// * * * * * * * * * * * * * * * * * * * * * * * * * * * * * * * * * * * * * //

dimensions      [0 0 0 0 0 0 0];

internalField   nonuniform List<scalar> 
12384
(
0.0014538
0.00132152
0.0011959
0.0010958
0.00102224
0.00102162
0.00106528
0.00114872
0.00126393
0.00141191
0.00161163
0.00183146
0.00198405
0.0023839
0.000290955
0.000318236
0.000310381
0.000330462
0.000352509
0.000408269
0.000495092
0.000592352
0.000676391
0.000754364
0.000784503
0.000784244
0.000767835
0.000737449
0.000694808
0.000645094
0.000592542
0.000575445
0.000553808
0.000540736
0.000534062
0.000533112
0.000534065
0.000534908
0.000534496
0.00052826
0.000513175
0.000534935
0.000383459
0.000165839
0.00149359
0.00251483
0.00283875
0.00286473
0.00279658
0.00268433
0.00254295
0.00239586
0.00225199
0.00214918
0.00203646
0.00194416
0.00184155
0.00176493
0.00170107
0.0016468
0.00161252
0.00158468
0.00156254
0.00154422
0.00153737
0.00152433
0.00152933
0.00155117
0.0015958
0.00166397
0.00186581
0.00230249
0.00176222
0.00132577
0.00252082
0.00307067
0.00305844
0.00281238
0.00269314
0.00265256
0.00263453
0.00260431
0.00258744
0.00255779
0.00253686
0.00252734
0.00253018
0.00253902
0.00255309
0.00256482
0.00257666
0.00259405
0.00260584
0.00261573
0.00262516
0.00263318
0.00265092
0.00266663
0.00268686
0.00270407
0.00269777
0.00269847
0.00268016
0.00257015
0.00394522
0.00385613
0.00394163
0.00403193
0.00410671
0.00416368
0.00417573
0.00414627
0.00408599
0.00401971
0.00392717
0.0038872
0.00380204
0.00379208
0.00377368
0.00376663
0.00373739
0.00381371
0.00383545
0.00390533
0.00400981
0.0040432
0.00347047
0.00336297
0.00374372
0.00390834
0.00397158
0.00392925
0.00381865
0.00364948
0.00753127
0.00719435
0.00718443
0.00728491
0.00750935
0.00770094
0.00782766
0.00789413
0.00794576
0.00795563
0.00793571
0.00791071
0.00787672
0.00783753
0.00778105
0.00772116
0.00765179
0.00758724
0.00752507
0.00746977
0.00742094
0.00736522
0.00731828
0.00727264
0.00723275
0.00717902
0.00710577
0.0070334
0.00683174
0.00671003
0.00419605
0.00447207
0.00413702
0.00426393
0.00461892
0.00501399
0.00532228
0.00536425
0.00529586
0.00515807
0.00498211
0.0047954
0.00461953
0.00446139
0.00429032
0.00416819
0.00405579
0.00396517
0.00390586
0.00380716
0.00373629
0.00366351
0.00357068
0.00340728
0.00331454
0.00208614
0.00042024
0.000476311
0.000549198
0.000672355
0.00627193
0.00788039
0.00838142
0.0089409
0.00941902
0.00965815
0.00968176
0.00965224
0.00958633
0.00950724
0.00947805
0.00942922
0.00943874
0.0093694
0.00940279
0.00936842
0.0093874
0.00935339
0.00918329
0.008897
0.00807981
0.00681062
0.00670086
0.00679059
0.00683118
0.00688011
0.00693956
0.00699133
0.0069553
0.00681061
0.00515053
0.00510978
0.00504738
0.00498162
0.00489788
0.00477571
0.00466579
0.00458682
0.00448998
0.00444636
0.00437296
0.00436637
0.00434768
0.00437308
0.00443231
0.00453916
0.0046351
0.0065985
0.00990298
0.0100364
0.00974972
0.00964448
0.00953018
0.00941752
0.00929508
0.00922101
0.00929205
0.00963763
0.0104666
0.0117591
0.00538306
0.00514234
0.00498104
0.00494935
0.00496067
0.00494485
0.00488309
0.00481213
0.00470068
0.00459178
0.00450679
0.00442972
0.00435565
0.00429951
0.00436059
0.0043459
0.00432739
0.00441107
0.00581729
0.00796833
0.00817107
0.00806405
0.0080492
0.00807517
0.00812565
0.00819346
0.00829805
0.0084376
0.00862437
0.00876774
0.00619212
0.00588117
0.00586844
0.00590711
0.00588145
0.00579421
0.00569412
0.0055772
0.00546741
0.00537755
0.00529986
0.00526843
0.00527442
0.00542608
0.00823682
0.0107208
0.0108306
0.0103945
0.0100106
0.00980478
0.00970085
0.00965346
0.00964374
0.00967002
0.00969897
0.00972683
0.00976751
0.00983139
0.0100393
0.0107064
0.00774643
0.00742467
0.00808746
0.00896387
0.00869031
0.00835346
0.00819269
0.00812657
0.00809033
0.00808191
0.00808318
0.00810072
0.00813194
0.00817145
0.00822119
0.00826378
0.00831019
0.00835975
0.00841582
0.00844273
0.00844087
0.00838359
0.00825938
0.00818577
0.00814415
0.008073
0.00802285
0.00825136
0.00850079
0.00787963
0.0105716
0.0104122
0.0104707
0.0109612
0.0116861
0.0114884
0.0158969
0.0232466
0.0241914
0.0244886
0.0246473
0.0247128
0.0247601
0.0248015
0.0248178
0.0248083
0.024777
0.0247343
0.0246759
0.0246201
0.0245605
0.0244718
0.024321
0.0240216
0.0236225
0.0231803
0.0227061
0.0215602
0.0184954
0.0197884
0.00105825
0.000898515
0.000712342
0.000616761
0.000614916
0.00064807
0.000706276
0.000763659
0.000837484
0.000933637
0.00117625
0.00153015
0.00191461
0.00235514
0.00029705
0.000316129
0.000311067
0.000329108
0.000376957
0.000524654
0.000751424
0.00100961
0.00110656
0.0011177
0.00104982
0.00095892
0.000891198
0.000751832
0.000593428
0.000513309
0.000448825
0.00041269
0.000396311
0.000393908
0.000394167
0.000402861
0.000420799
0.00044463
0.000475943
0.000498052
0.000517798
0.000529122
0.000487317
0.000271573
0.00160884
0.00262223
0.00289788
0.00288512
0.00274582
0.0025392
0.00229984
0.00204467
0.00182918
0.00163492
0.00150098
0.00141778
0.0013673
0.00136496
0.00136875
0.00137918
0.00138823
0.00139166
0.00138425
0.00137022
0.00135007
0.00133013
0.00132171
0.00133023
0.00136136
0.00144404
0.00161032
0.00203341
0.0021979
0.00188991
0.00269486
0.00306846
0.00289285
0.00266265
0.00258752
0.00258709
0.00261848
0.00266217
0.00263954
0.00258063
0.0024904
0.00240607
0.0023234
0.00226994
0.00226859
0.00230947
0.0023542
0.00238051
0.00238663
0.00237916
0.00236588
0.00235408
0.0023535
0.00239474
0.00245177
0.00251724
0.00257651
0.00262469
0.0026577
0.00261737
0.00395506
0.00382337
0.0038792
0.00398547
0.00413383
0.00421521
0.00413824
0.00395257
0.00374132
0.00348383
0.00335519
0.00323162
0.00315937
0.00309291
0.00306142
0.00306394
0.00313088
0.00322164
0.00334197
0.00347373
0.00374931
0.00394545
0.00379919
0.00341441
0.00367349
0.00415384
0.00412597
0.00399299
0.00407269
0.00428037
0.00746435
0.007175
0.00728527
0.00761817
0.00806239
0.00841536
0.00860254
0.00863245
0.00854395
0.00841045
0.00827107
0.00814915
0.00805374
0.00796912
0.00784571
0.0077099
0.00758289
0.00747903
0.00739968
0.00734144
0.00729829
0.00726343
0.00723709
0.00721866
0.00720334
0.00717824
0.00712164
0.00705694
0.00693733
0.00678842
0.00422503
0.00450363
0.00467055
0.00577693
0.00696758
0.00749459
0.007498
0.00710969
0.00672037
0.00609598
0.00547054
0.00494446
0.00457662
0.00433416
0.00416752
0.00406614
0.00399428
0.00393258
0.00388695
0.00383261
0.00376865
0.00369155
0.00361412
0.00345006
0.00338
0.00289088
0.00104784
0.00048018
0.00067314
0.000923592
0.00603335
0.00794337
0.00885999
0.00970687
0.00993057
0.00969184
0.00934282
0.00906949
0.00887726
0.00881812
0.00877893
0.00878837
0.00879739
0.00882149
0.00887368
0.00895356
0.00905721
0.00915055
0.00915139
0.00902743
0.00868579
0.00777981
0.00681936
0.00654679
0.00651459
0.00652484
0.00669912
0.0069211
0.00722697
0.00730576
0.00514869
0.00513278
0.00512849
0.00499738
0.00473484
0.00442129
0.00412341
0.00386017
0.00366962
0.0034528
0.00338481
0.00338284
0.00342202
0.00365576
0.00389753
0.00420828
0.00439493
0.00516979
0.00774244
0.00981997
0.00999497
0.00988473
0.00988772
0.00971566
0.00930637
0.0088399
0.00853899
0.00851519
0.00926697
0.0112395
0.00527594
0.00493716
0.00498675
0.00518796
0.00527679
0.00516492
0.00493006
0.00460327
0.00427483
0.00398774
0.00375781
0.00360572
0.0034337
0.00343802
0.00360856
0.00377002
0.00394052
0.00408526
0.00489543
0.00687691
0.00811964
0.00801888
0.0080354
0.00809492
0.00805551
0.00808237
0.00818409
0.00830104
0.00851177
0.00875006
0.00636629
0.00608413
0.00627692
0.00643291
0.00631191
0.00608726
0.00578464
0.00547155
0.00519031
0.00498677
0.00488197
0.00488217
0.00496901
0.00505372
0.00609926
0.00824409
0.0102178
0.0103918
0.00966767
0.00942309
0.009406
0.00945209
0.00956057
0.00967869
0.00978974
0.00982418
0.00981186
0.00980346
0.00997166
0.0107051
0.00785369
0.00813766
0.00875594
0.00877072
0.00839838
0.00819905
0.00814201
0.00815562
0.00819116
0.00823267
0.00826883
0.00830898
0.00837053
0.00846974
0.00862354
0.00880752
0.00899756
0.00915536
0.00921729
0.00914719
0.00892074
0.00862275
0.00837444
0.00823366
0.00810531
0.00798205
0.00787273
0.00803638
0.00841546
0.00800926
0.0110915
0.00988737
0.00916332
0.0108107
0.0115887
0.0142177
0.0208736
0.0240999
0.0245185
0.024711
0.0248268
0.0248614
0.0248612
0.0248517
0.0248633
0.0248857
0.0248835
0.024816
0.0246705
0.0245125
0.024423
0.0244446
0.024346
0.0242765
0.0240603
0.0236727
0.0230695
0.0214012
0.0181346
0.0196626
0.00079676
0.000580341
0.000501387
0.000532648
0.00061935
0.000770426
0.000903914
0.00098669
0.000996438
0.000963593
0.000989469
0.00121524
0.00171786
0.00231276
0.000299637
0.000313353
0.000309698
0.000326055
0.000394175
0.000625107
0.000982967
0.0012468
0.00129413
0.00121925
0.0011127
0.000985556
0.000861719
0.00062987
0.000472367
0.000384255
0.000374674
0.000377051
0.000386684
0.000384363
0.000387911
0.000403486
0.000402504
0.000405142
0.000407195
0.000443027
0.000482416
0.000524946
0.00051327
0.000350957
0.00167238
0.00270074
0.00297544
0.00297424
0.00283661
0.0025984
0.00227033
0.00188432
0.0015199
0.00131026
0.00121194
0.00116252
0.00117283
0.00122805
0.00130062
0.00136179
0.00143229
0.00147189
0.00146088
0.00142378
0.00136803
0.00133292
0.00130024
0.00127796
0.00127283
0.00130291
0.00137215
0.00171413
0.00212477
0.00210264
0.00278869
0.00301751
0.00274344
0.0026086
0.00268862
0.00288896
0.00303803
0.00305259
0.00297496
0.00283031
0.00267225
0.00250023
0.00233243
0.00224107
0.00225725
0.00231975
0.00234644
0.0023273
0.00227118
0.00219737
0.00212835
0.00208159
0.00207048
0.00209021
0.00215673
0.00225335
0.00236651
0.00247252
0.00257566
0.00261284
0.00396962
0.00377868
0.00377632
0.00395182
0.00419886
0.00415396
0.00393583
0.00363511
0.00336059
0.00318435
0.00305462
0.00295392
0.00288501
0.00280663
0.00275912
0.00274777
0.00275782
0.00281492
0.00291694
0.0030815
0.00333171
0.003707
0.00387681
0.00366945
0.00343326
0.00368683
0.00339702
0.00307768
0.00323739
0.00382968
0.00741905
0.00718008
0.00743729
0.00800361
0.00861152
0.00898958
0.00906995
0.00892983
0.00867114
0.00842168
0.0082169
0.0080508
0.00792271
0.00778251
0.00761128
0.00744084
0.00731418
0.00724502
0.00721432
0.0072074
0.00720404
0.00719716
0.00718706
0.00717973
0.00717415
0.00716597
0.00713434
0.00707381
0.0069938
0.00685554
0.00423664
0.00471689
0.00568133
0.0076313
0.00885882
0.00879103
0.00813479
0.0073606
0.00681454
0.00587618
0.00499719
0.00443218
0.00413486
0.00401066
0.00397795
0.00399587
0.00400592
0.00403412
0.00404389
0.00402928
0.00396661
0.00385433
0.00372709
0.00357557
0.00340698
0.00322557
0.00222904
0.000781878
0.000518212
0.000909017
0.00604729
0.00788484
0.00980291
0.00996474
0.0093692
0.00878715
0.00849336
0.00845618
0.00848172
0.00862352
0.00867169
0.00878733
0.00881271
0.00885558
0.00882421
0.00882669
0.00883197
0.00889961
0.00898766
0.00900934
0.00890753
0.00848928
0.00750422
0.00661648
0.00616908
0.00608337
0.00631861
0.00648557
0.00682777
0.0074334
0.00517225
0.00528089
0.00521553
0.0048645
0.00437551
0.00389789
0.00340865
0.00311319
0.00290755
0.00270449
0.00260681
0.00261032
0.00267946
0.00284232
0.00311371
0.0035554
0.00399235
0.00439815
0.00568079
0.00816258
0.00982585
0.0101323
0.0101745
0.0100262
0.0094284
0.0086626
0.0081885
0.00806436
0.00846727
0.0104745
0.00507217
0.00499041
0.00534602
0.00562083
0.00554282
0.00517439
0.00460695
0.00403528
0.00353265
0.00311889
0.00285567
0.00269586
0.00260666
0.00263833
0.0027666
0.00302754
0.00329988
0.00363414
0.00420452
0.00584428
0.00774044
0.00815386
0.00822176
0.00810602
0.00782541
0.00789773
0.00812084
0.00836984
0.00854524
0.00874215
0.0066871
0.00660545
0.00687045
0.00675361
0.00634207
0.00578383
0.00518233
0.0045882
0.00415603
0.003906
0.00388472
0.00404458
0.00432141
0.00459197
0.00499997
0.00612353
0.00826828
0.0100802
0.00970489
0.00938097
0.00940864
0.00951877
0.00968879
0.00991304
0.0101163
0.0102105
0.0100775
0.00986246
0.0100067
0.0107971
0.00811702
0.00861802
0.00880137
0.00852229
0.0082989
0.00830388
0.00840938
0.00850831
0.00857049
0.00857997
0.00855811
0.00850901
0.008465
0.00845496
0.00853893
0.00877175
0.00910388
0.009347
0.00934195
0.00900711
0.00834598
0.0076635
0.00721138
0.00711687
0.00727369
0.00746522
0.00754982
0.00776916
0.00828955
0.0080752
0.0131454
0.0100685
0.00864069
0.0112182
0.0135523
0.0189303
0.0234433
0.0244733
0.0246203
0.0245163
0.0241989
0.0238777
0.0236951
0.023689
0.0238343
0.024085
0.0243594
0.0245068
0.0243589
0.0238756
0.0232439
0.0227028
0.0222268
0.0219457
0.0220572
0.0222999
0.0214218
0.0191765
0.0170497
0.0200707
0.000521229
0.000442108
0.00051121
0.000685233
0.000895189
0.00112392
0.00128611
0.00143266
0.00151742
0.00137968
0.00115254
0.00114256
0.001507
0.00225188
0.000299047
0.000311989
0.000305493
0.00031343
0.000375586
0.000642426
0.00103919
0.00131763
0.00139226
0.00133821
0.0012125
0.00102397
0.000847263
0.000558343
0.000390837
0.000370046
0.000370602
0.000420741
0.000462621
0.000490632
0.000497199
0.00048743
0.000461912
0.000422737
0.000423763
0.000412882
0.0004449
0.000499419
0.000515624
0.000413721
0.00165701
0.00272742
0.00307745
0.00318104
0.00312023
0.0028931
0.00243569
0.00181371
0.00133854
0.00116159
0.00107193
0.00101121
0.00104887
0.00117349
0.00131956
0.00146044
0.00153597
0.00152373
0.00143995
0.00134626
0.00129383
0.00125552
0.00123421
0.00122271
0.00121484
0.00122802
0.00127676
0.00145672
0.00195152
0.00219063
0.00282062
0.0029541
0.00267742
0.00264311
0.00290009
0.00318422
0.00327709
0.0032026
0.00310714
0.0029393
0.00275442
0.00250412
0.00228971
0.002205
0.00228155
0.00234765
0.00231368
0.00220161
0.00205594
0.00192419
0.00180778
0.00171859
0.00170342
0.00173669
0.00182608
0.00195251
0.00212275
0.00228922
0.00245862
0.00258185
0.00400793
0.00374891
0.003746
0.00408344
0.00411914
0.00390996
0.00364529
0.00335327
0.0031797
0.00302348
0.00289855
0.00278808
0.0026479
0.0025854
0.00253796
0.00251335
0.00252379
0.00256764
0.0026399
0.00275857
0.00301773
0.00334239
0.00374742
0.00381435
0.00359483
0.00341622
0.00322456
0.0027566
0.00290943
0.00342403
0.00741216
0.00719045
0.00753224
0.0082297
0.00891305
0.00924099
0.00927491
0.00904905
0.00867714
0.00838229
0.00820235
0.00805127
0.00787076
0.00764162
0.00741174
0.00725845
0.00720558
0.00722659
0.0072761
0.00732992
0.00735914
0.007359
0.00733149
0.00728211
0.00722594
0.00717985
0.00714138
0.00708582
0.00701128
0.00689351
0.00425142
0.00501812
0.00665245
0.00897686
0.00989434
0.0092605
0.00806162
0.00705886
0.00644423
0.00535101
0.00449047
0.00408621
0.00397741
0.00402099
0.0041397
0.0042505
0.00435802
0.00443424
0.00445703
0.00440247
0.00429355
0.00412756
0.00393774
0.00371581
0.00351521
0.00333234
0.00285252
0.00134323
0.000619654
0.000847097
0.00659362
0.00917945
0.0101268
0.00921054
0.00845087
0.00827563
0.00836972
0.00859752
0.00882461
0.00903144
0.00918282
0.00929897
0.00936585
0.00936439
0.00930737
0.0091921
0.00903068
0.00890745
0.00885124
0.00889291
0.00891636
0.00875919
0.00811496
0.00705127
0.0061509
0.00591186
0.00617615
0.0062897
0.00645201
0.00728318
0.00532322
0.0055433
0.00514222
0.00451274
0.00391088
0.0033179
0.00289222
0.00250817
0.00217343
0.00197871
0.00185976
0.00186569
0.00195349
0.00217936
0.00248062
0.00290085
0.00339829
0.00392882
0.00456427
0.00621172
0.00851037
0.00984594
0.0101463
0.00978848
0.00906084
0.00814219
0.00749436
0.00747293
0.00793669
0.00977751
0.00493281
0.00522326
0.0058029
0.00597989
0.00559025
0.00482144
0.00400794
0.00328393
0.0027812
0.00239563
0.00210609
0.00192236
0.00182955
0.00185997
0.00204146
0.00232992
0.00272659
0.00312865
0.003714
0.00507904
0.00709176
0.00812557
0.00825382
0.00781127
0.00736823
0.00759835
0.008004
0.00839104
0.0086535
0.00878095
0.00729733
0.00734375
0.00705221
0.0064541
0.00565869
0.00475056
0.00382203
0.0030861
0.00260457
0.00241682
0.00252068
0.0028508
0.00330089
0.00391571
0.0043699
0.00501393
0.00677247
0.00936915
0.00971375
0.0093436
0.00934048
0.00939849
0.00953683
0.00979405
0.0101282
0.0103754
0.0103716
0.0101026
0.0102094
0.0109542
0.00830041
0.008767
0.00871027
0.00844578
0.00845234
0.00861861
0.008785
0.00889684
0.00895136
0.00896263
0.00891916
0.00882572
0.00868457
0.00851764
0.00838898
0.00842398
0.00875536
0.009179
0.00923241
0.0086231
0.00763962
0.00672028
0.00598021
0.00565669
0.00596578
0.00656436
0.00704919
0.00749787
0.00817925
0.00808551
0.0148528
0.0101595
0.00853809
0.0124417
0.0168125
0.0222203
0.0242903
0.024472
0.0241594
0.0234869
0.0227343
0.0221551
0.0218524
0.021831
0.0221061
0.0226731
0.023376
0.0240366
0.0243003
0.0238349
0.022573
0.0209582
0.0194785
0.0179561
0.017508
0.0174994
0.0175112
0.0169175
0.0170892
0.0217241
0.00036934
0.000450648
0.000677134
0.000943623
0.00113288
0.00118204
0.00120399
0.00135407
0.00161144
0.0017429
0.00145823
0.00122046
0.0014174
0.00219571
0.0003007
0.000309322
0.000296611
0.000294197
0.000349499
0.00056211
0.00093503
0.00124603
0.0013901
0.00139475
0.00129211
0.00104453
0.00080564
0.000486843
0.000354591
0.00037306
0.000447197
0.000516048
0.000554843
0.000576951
0.000585325
0.000581346
0.000558706
0.000510331
0.000451006
0.000414465
0.000425361
0.000472252
0.000535745
0.00044233
0.00159884
0.00269239
0.00315649
0.00338859
0.00347203
0.00329919
0.00266165
0.00171663
0.00120152
0.0010497
0.00100513
0.00095108
0.00102735
0.00122707
0.00145609
0.00159062
0.00156103
0.0013907
0.00127365
0.00118451
0.00112498
0.00110544
0.0011042
0.00112389
0.0011394
0.00116424
0.00120724
0.00132174
0.00178495
0.0021954
0.00282227
0.00293296
0.00264385
0.00268227
0.00300738
0.00323141
0.00320369
0.00304989
0.00298029
0.00294435
0.00276337
0.00246371
0.00220476
0.00217222
0.00233229
0.00233734
0.00219466
0.00200721
0.00178672
0.00157682
0.00141859
0.0013304
0.00129768
0.00135215
0.00148577
0.00166681
0.00187635
0.00210047
0.00233267
0.00253924
0.00404559
0.00375107
0.00377544
0.00413571
0.00376988
0.00359349
0.00339019
0.00322752
0.00307392
0.00290882
0.00273222
0.00253085
0.00233893
0.0022311
0.00215619
0.00216933
0.00223369
0.00232709
0.002424
0.00252957
0.00275657
0.00308614
0.00346661
0.00379485
0.00370045
0.00342243
0.00323885
0.00268234
0.00297435
0.00366304
0.00743595
0.00718355
0.00750982
0.00822015
0.00893498
0.00923141
0.00924457
0.00893917
0.00850087
0.00826728
0.00817921
0.00801141
0.00777636
0.00747086
0.0072513
0.00719537
0.0072654
0.00739881
0.00754076
0.0076513
0.00770674
0.00769853
0.00762383
0.00751433
0.00738349
0.00726193
0.00716399
0.00708869
0.00701903
0.00690548
0.00427948
0.00532573
0.00738157
0.0098033
0.0104741
0.00959471
0.00783717
0.00680301
0.00608234
0.00489664
0.00416209
0.00395559
0.00400213
0.00416463
0.00437086
0.00456864
0.00474782
0.00486304
0.004885
0.00482909
0.00466788
0.00446194
0.00419808
0.00389801
0.00359957
0.00337205
0.00309495
0.00196364
0.000804148
0.000867431
0.00767132
0.0105049
0.00946973
0.00837903
0.00816932
0.00834035
0.0086167
0.00890341
0.00919232
0.00942651
0.00964329
0.00979446
0.00986092
0.00988827
0.00981924
0.00965486
0.00941835
0.00916527
0.0089349
0.0088556
0.00887423
0.00882262
0.00844122
0.00754
0.00638811
0.00594062
0.00614074
0.00623097
0.00620744
0.00702936
0.00603565
0.005722
0.00487909
0.00418644
0.00358911
0.00297946
0.0024617
0.00194407
0.00157987
0.0012779
0.00119659
0.0012152
0.00130475
0.00153188
0.00189687
0.0023665
0.00292452
0.00344326
0.0039858
0.00498516
0.00694206
0.00870579
0.00929196
0.00898933
0.00828681
0.0074004
0.00675169
0.0067831
0.00747024
0.0092831
0.00504074
0.00569859
0.00632661
0.00617708
0.00534731
0.00429552
0.00336332
0.00273342
0.00220553
0.00177454
0.00146032
0.00125981
0.0011944
0.00125284
0.00142831
0.0017453
0.00221399
0.00270612
0.00328474
0.00451767
0.00646662
0.0077892
0.00808405
0.00733939
0.00698584
0.00749197
0.00808032
0.00847838
0.00879115
0.00884849
0.007413
0.00700719
0.00635405
0.00553842
0.00449946
0.00328282
0.00233071
0.0015777
0.00114729
0.00105874
0.00120319
0.00168049
0.00235826
0.00311393
0.00381281
0.00442077
0.00592529
0.00892351
0.0096402
0.00925674
0.00913701
0.00906703
0.00910455
0.00928873
0.0096513
0.0101617
0.0105861
0.0106773
0.0106476
0.0111214
0.0083844
0.00881801
0.00867475
0.00853238
0.0087047
0.00894789
0.00911525
0.00920265
0.00923697
0.00923657
0.00922199
0.00916593
0.00905634
0.00885243
0.00858122
0.00834046
0.00842086
0.00888158
0.00914066
0.00849058
0.00737177
0.00641811
0.00540882
0.00488658
0.00510877
0.00581826
0.00659058
0.00729374
0.00814431
0.00804988
0.0162817
0.0108533
0.00846671
0.0138982
0.0194505
0.0235445
0.0244031
0.024071
0.0231823
0.0220022
0.0208937
0.0200446
0.0195626
0.0194783
0.0198775
0.0206966
0.0218055
0.0229958
0.0239521
0.0241278
0.0228992
0.0203366
0.0180953
0.0166079
0.0165888
0.0170136
0.0174589
0.0178163
0.0197016
0.0242733
0.000388399
0.000593345
0.000865683
0.0010592
0.00108843
0.0010697
0.00105293
0.00108692
0.00130872
0.00170475
0.00166841
0.00133121
0.00141067
0.00217396
0.00029803
0.000310502
0.000287546
0.000271358
0.000291536
0.000425678
0.000704913
0.00102314
0.00119392
0.00130411
0.00129202
0.00101988
0.000741131
0.000424822
0.0003548
0.000430168
0.00052867
0.000579795
0.000598159
0.000610282
0.000617545
0.000627096
0.000622942
0.000587053
0.000514096
0.000444656
0.000417596
0.000458757
0.000530608
0.000458795
0.0014548
0.00253875
0.00311256
0.00345951
0.00364243
0.00343099
0.0025874
0.00144255
0.00108155
0.000988432
0.000962847
0.000909988
0.00107946
0.00134839
0.00161746
0.0016133
0.00137652
0.00120575
0.00108282
0.00100625
0.000975998
0.000965235
0.00097529
0.00100781
0.00105289
0.00110107
0.00114989
0.00125627
0.00166638
0.0021865
0.00282653
0.00292945
0.00262981
0.00265458
0.00295125
0.00309335
0.00293421
0.00272875
0.00279556
0.00287989
0.00273042
0.00236952
0.00211168
0.00216727
0.00240852
0.00225642
0.00203741
0.00177619
0.0014908
0.00126387
0.00115
0.00110093
0.00111222
0.00114518
0.00122495
0.00139524
0.00166919
0.00193851
0.00222738
0.00249622
0.00411234
0.00377642
0.00381513
0.0037862
0.0033677
0.00336095
0.0033047
0.00315737
0.0029908
0.00277656
0.00251504
0.00221792
0.00204763
0.00195551
0.00193042
0.00192714
0.00198714
0.00210632
0.00222565
0.00235564
0.00256159
0.00288338
0.00329132
0.00371702
0.00374026
0.0034877
0.00324543
0.00267378
0.00327857
0.00401763
0.00744889
0.00722337
0.00740075
0.00794018
0.00857222
0.0089213
0.00891634
0.00855504
0.00817743
0.00812831
0.00811468
0.00790974
0.00763316
0.00729633
0.00716887
0.00725649
0.00745169
0.00767947
0.00789932
0.00805572
0.00812399
0.00809032
0.00797098
0.00779503
0.00758639
0.00738705
0.00721783
0.00709429
0.00701519
0.00691354
0.00430697
0.00556455
0.00783002
0.0102182
0.0107974
0.00994247
0.00755935
0.00664028
0.00584347
0.00456071
0.00399783
0.00391168
0.00404276
0.00426507
0.0045562
0.0048778
0.00514723
0.00532345
0.00535478
0.00524675
0.00505105
0.00477571
0.0044462
0.00406074
0.00368202
0.00339059
0.00318039
0.00231453
0.000968834
0.000941836
0.00862578
0.0105115
0.00868246
0.00811804
0.00820678
0.00847033
0.00880029
0.00911789
0.00944509
0.00971383
0.00997256
0.0101514
0.0102488
0.0102595
0.0102002
0.0100575
0.00980717
0.00947918
0.0091446
0.00892609
0.0088473
0.00881821
0.00858727
0.00790438
0.00675658
0.00611305
0.00617099
0.00621129
0.00607329
0.00680788
0.00671787
0.00572471
0.00470216
0.00406084
0.00336249
0.00271398
0.00211359
0.00149125
0.00117034
0.000997132
0.000930934
0.000942358
0.000995933
0.00114114
0.00141378
0.00191314
0.00252219
0.00311574
0.00364233
0.00431588
0.0057641
0.00740961
0.008043
0.00793135
0.00736028
0.0066479
0.00611845
0.00628325
0.00718624
0.00902582
0.00530576
0.00627885
0.00682413
0.00616073
0.0048799
0.00379124
0.00297392
0.00231744
0.00175932
0.00130831
0.0010767
0.000997808
0.000972148
0.000978459
0.00108003
0.00129572
0.00181231
0.00234766
0.00300905
0.00414079
0.00590696
0.00725818
0.00755714
0.00685243
0.00686583
0.00772875
0.00846185
0.00878904
0.00899312
0.00894315
0.00679649
0.00639441
0.00565695
0.00459117
0.00321233
0.00206069
0.0011043
0.000731886
0.000529653
0.000535154
0.000618693
0.00090003
0.00150821
0.0024489
0.00329155
0.00405705
0.00560406
0.00885467
0.00955635
0.00913605
0.00893005
0.00879647
0.00874561
0.00877198
0.00892855
0.00934248
0.0100487
0.010785
0.0111563
0.0112923
0.00839012
0.00885604
0.00871122
0.00866954
0.00892939
0.00917277
0.00927315
0.00925394
0.00919367
0.00915872
0.00918165
0.0092256
0.00924387
0.00915561
0.00887399
0.00849305
0.00826722
0.00852589
0.00905485
0.00857453
0.00744674
0.0066034
0.00561957
0.00477918
0.0049671
0.00560293
0.00641317
0.00729
0.00819753
0.00798361
0.0177393
0.0124091
0.00839038
0.0148381
0.0209436
0.0239709
0.0242615
0.0234364
0.0220461
0.0204558
0.0189949
0.0178497
0.0170842
0.0169636
0.0175122
0.018696
0.0201371
0.0216726
0.0231019
0.0240905
0.023746
0.0208278
0.0178413
0.0165282
0.017562
0.0211897
0.0222786
0.022784
0.0246737
0.0259693
0.000485019
0.000766033
0.000979876
0.00108235
0.00113752
0.00115118
0.00109258
0.00106851
0.00116884
0.00157514
0.00174379
0.00138701
0.00144241
0.00221174
0.000301162
0.000309433
0.000280711
0.000252856
0.000235925
0.000298658
0.000425008
0.000675417
0.000878336
0.00108886
0.00120233
0.000967152
0.000674929
0.000383465
0.000377959
0.000496878
0.000583465
0.000602211
0.000597796
0.000625665
0.000659674
0.000678377
0.000677003
0.000646548
0.000574524
0.000478946
0.000423103
0.000453021
0.000530318
0.000461819
0.00131986
0.0022882
0.0028936
0.00326501
0.00334893
0.00298799
0.00200823
0.00125006
0.00101702
0.000965856
0.000928837
0.000899053
0.00119319
0.00157703
0.00170131
0.00148349
0.00120247
0.0010346
0.000941679
0.000911228
0.000900165
0.000910441
0.000915642
0.00093622
0.000978925
0.0010449
0.00110434
0.00121532
0.00159854
0.00219088
0.0027937
0.00296848
0.0026418
0.00257083
0.00275185
0.00284573
0.00267331
0.00252803
0.00268224
0.00286578
0.0026737
0.00222543
0.00200515
0.00220758
0.00242864
0.00214697
0.00187202
0.00154889
0.00125061
0.00109639
0.00100311
0.000941315
0.000941558
0.00100542
0.00111312
0.00124448
0.00150722
0.00182796
0.00215766
0.00247561
0.00417249
0.00381351
0.00373758
0.00324627
0.00317648
0.00329107
0.00325989
0.00310295
0.00291771
0.00261147
0.00228589
0.00198349
0.00191334
0.00188388
0.00189051
0.00188644
0.00189743
0.00196636
0.00209331
0.00224348
0.0024328
0.00274227
0.00315704
0.00362251
0.00374841
0.00351948
0.00321892
0.00271361
0.00404473
0.0046513
0.00755057
0.00722155
0.00731354
0.00759604
0.00801107
0.0082811
0.00824587
0.00800005
0.00791564
0.00803686
0.0080257
0.00776855
0.00747638
0.00717332
0.00719602
0.00739456
0.00766472
0.00795782
0.0082308
0.00838392
0.00843239
0.00839042
0.00824412
0.00802037
0.007765
0.00751276
0.00729154
0.00711704
0.00701392
0.00691356
0.00432631
0.00573004
0.00800378
0.0103732
0.0109337
0.0101514
0.007309
0.00656509
0.00569987
0.0043603
0.00390331
0.00387271
0.00404333
0.00430985
0.0046742
0.00510741
0.00550087
0.00575292
0.00577898
0.00561276
0.00535044
0.00501699
0.00462156
0.00416816
0.00372775
0.0033927
0.00320489
0.00247814
0.00109829
0.00104426
0.00928353
0.00962519
0.00834953
0.00813403
0.00824065
0.00853336
0.00887991
0.00922818
0.00960447
0.00990798
0.0101978
0.0104005
0.0105238
0.0105486
0.0104741
0.0103206
0.0100755
0.00972608
0.00936043
0.00903846
0.00887176
0.00881337
0.00863513
0.00810159
0.00705033
0.00635412
0.00631421
0.00619825
0.00601698
0.00667033
0.00705542
0.00580465
0.00469049
0.00404762
0.00327429
0.00253768
0.00188833
0.00122964
0.00103361
0.000837146
0.000788375
0.000771217
0.000841692
0.000963749
0.00116416
0.00158515
0.00221151
0.00286289
0.00336905
0.00397971
0.00512651
0.0063541
0.00708044
0.0071284
0.0067148
0.00621729
0.00591403
0.00614767
0.00718938
0.00886358
0.00572369
0.00692427
0.00711289
0.00587263
0.00443147
0.00343866
0.00272769
0.00205478
0.00146166
0.00109471
0.000967911
0.000927189
0.000913654
0.000914061
0.000974377
0.00108203
0.00151539
0.00208011
0.00281739
0.00389518
0.00549996
0.00670072
0.00690493
0.00645974
0.0069884
0.00825134
0.00899745
0.00918245
0.00918426
0.00905687
0.00672623
0.00610087
0.00511235
0.0037557
0.00233162
0.00113346
0.000676872
0.000466059
0.000395642
0.000380716
0.000432185
0.000567559
0.00100045
0.00196299
0.00297973
0.00386245
0.00565019
0.00912404
0.00945992
0.00902776
0.00884555
0.00878448
0.00875468
0.00869131
0.00861705
0.00865778
0.00900291
0.00978531
0.0107075
0.0111781
0.00836152
0.00884275
0.00879853
0.00877557
0.00906182
0.00927629
0.00926051
0.00909944
0.00891389
0.00882823
0.00888656
0.00903912
0.00920806
0.00927701
0.00910507
0.00870592
0.00833429
0.00824433
0.00884849
0.00876912
0.00773594
0.00704445
0.0063838
0.00570334
0.00549755
0.00592152
0.00664031
0.00755063
0.00828077
0.00787838
0.0190182
0.015289
0.00828076
0.0146031
0.0212698
0.0239973
0.0240632
0.0228678
0.0211125
0.0191608
0.0173399
0.0157215
0.0146784
0.0144085
0.0152447
0.0168168
0.0187456
0.0205523
0.0221605
0.0236242
0.024284
0.0219379
0.0176196
0.0160956
0.0166184
0.0233497
0.0261782
0.0264031
0.0258533
0.0248371
0.00059504
0.000855582
0.0010805
0.00132906
0.00162795
0.00169614
0.00154828
0.00133825
0.0012958
0.00161217
0.00175153
0.00139736
0.00150436
0.00228959
0.000292601
0.000313666
0.000276203
0.000245723
0.000206896
0.000221537
0.000264286
0.000384637
0.000557498
0.000831067
0.00107887
0.000931639
0.000614172
0.000371472
0.000403764
0.000550397
0.000604987
0.000589196
0.000601451
0.000682237
0.000760773
0.000780281
0.000753018
0.000701461
0.00061164
0.000506039
0.000429384
0.000456097
0.000536174
0.000463896
0.00123347
0.0019136
0.00244021
0.00272444
0.00265306
0.00206383
0.00135398
0.00109009
0.000986802