/*--------------------------------*- C++ -*----------------------------------*\
| =========                 |                                                 |
| \\      /  F ield         | OpenFOAM: The Open Source CFD Toolbox           |
|  \\    /   O peration     | Version:  2.1.1                                 |
|   \\  /    A nd           | Web:      www.OpenFOAM.org                      |
|    \\/     M anipulation  |                                                 |
\*---------------------------------------------------------------------------*/
FoamFile
{
    version     2.0;
    format      ascii;
    class       volScalarField;
    location    "0.007400000";
    object      omega;
}
// * * * * * * * * * * * * * * * * * * * * * * * * * * * * * * * * * * * * * //

dimensions      [0 0 -1 0 0 0 0];

internalField   nonuniform List<scalar> 
12384
(
12772
17185.6
19576.4
21703
23630
25281.7
26430.5
26911.7
26725.3
25926.9
24493.7
22008
17895.2
11980.2
21925.8
26091
28471.9
29816.1
30781.9
31792.1
32927.1
34159.1
35352.9
36575.2
37209.5
37956.5
39482.5
42438.9
47680.4
53187
58960.5
64338.6
68537.9
71011.2
70962.4
69001
66980.6
64788.2
61995.6
58201.4
52744.6
44375.6
30666.5
17777.8
30418.6
34986.7
38028.7
39832.1
41021.8
42076.4
43296.9
44910.7
46550.5
47479.7
48639
50465.1
53628.5
59348.3
66916.1
74551.2
82159.9
88679.9
93771.8
95855.6
95250.6
91092.1
87127.5
82834.1
78037.5
72124.1
64210.8
52742.5
35073.9
24629.8
33429.4
39533.8
46851.7
53737.7
59263.6
63483.1
67053.8
70934.6
74701.3
75476.6
73562.5
70989.1
68763.1
67754
68571.1
72496.9
79303
86970.2
95016.3
102350
107825
110378
109037
106540
102861
97599.5
89559.6
75853.7
52888.1
35911
43633.6
53117.3
58764.8
61917.2
64544.9
68597.1
75786.6
86626.7
98757.6
111299
122831
133342
139490
143893
141024
137145
133034
127927
121893
114378
103831
87729.7
58933.2
34150.9
30339.9
30268.8
30721.1
30542.1
29917.8
28426.6
25141.5
30000.9
33288.1
36004.4
39298.5
43317.8
47717.1
52278.6
56781.6
60714.5
62514.1
63757.4
65319
67974.8
73931.3
80806.4
88268.6
95545.9
101694
105694
106978
104704
101930
98155.8
92860.4
85443.4
74774.6
58881.7
39419
31680
21331.9
26707.7
33318.7
40415.5
47215.6
53118.4
58181.4
61369
64725.7
71153.4
79237.5
88219.8
97768
107054
115287
120930
124069
122640
118376
114792
110188
104471
96498.6
85019.4
67326.6
42692.5
29094.7
27412.6
27438.6
29672.5
22583.9
28246.4
37732.1
49809.6
64153.2
79088.3
94116.4
108278
120435
130422
136325
138602
134853
129997
125456
121427
115970
108654
98563.6
84915.4
65963.8
44660.1
34290.2
31418.2
30876.2
31085
30636.7
29553.2
28769.1
28500.6
34907.2
54024.3
77720.1
98232.4
114697
128691
140284
148775
152628
152139
143438
135082
127159
119233
110307
98849.4
83702.4
64810.7
48176.4
39276
34767.9
33502.1
33909.7
34057.6
33057
31068.7
28497.1
26094.9
23982
22635.3
28530.2
39119.5
56831
76483.5
94285.7
110400
125460
138844
149490
155874
156800
149832
139065
130016
121587
112880
102139
87909.6
70677.1
56355.8
45794.3
39049.7
36650.2
36835.3
36679.4
35035.9
33041.8
31474.1
30800.3
30988.4
49216.8
75030.5
96476.5
115864
132862
146143
154125
156968
151232
136775
121553
109166
97429.6
85438.7
73793.5
66289.4
61719.6
57245.6
52819.6
48999.6
46826.3
45585.7
44760.4
43459.5
41962.1
40137.7
38521.2
36985.2
35368.1
33746
22072
22449.5
30698.1
42986.4
54413.5
63355.3
70240.5
75648
79971.2
83176
83052.4
80060.5
75478.4
69611.5
63631.6
57922.2
53625.7
51645.9
51916.9
53747.5
56103.3
57948.9
57122.1
55086.3
53794.5
52815.6
51593.7
49274.3
44492.1
36463.8
13944.4
16600.7
15430.6
13225.2
11863.3
17197.5
38393.2
58384.5
69700.6
77200.9
82900
87764.9
92125.5
96148.1
97034.2
93832.2
88226.3
80465.1
71745.2
62226
53342.6
47107.4
42339.5
37928.5
33767.7
29680
25454.7
20448.3
14288.3
7451.01
17104.9
48626
60373.7
72158
83312.1
93484.2
101889
107454
108917
106016
98755.8
87161.6
71626.1
19352
22531.5
79840
100012
122624
145201
164178
176594
180730
174152
160316
147291
140097
142697
160196
189587
227879
271650
317594
361903
400308
427631
438268
430013
406867
370244
322553
266618
206447
145963
35180.1
35489
146866
186239
217996
240288
252347
253277
240180
220359
201044
186426
181286
193250
226742
273724
328702
387388
445854
500057
544964
575975
587140
575653
544302
496782
434318
358247
271745
182598
44148.2
45375.8
207982
294049
368919
426304
464605
482645
474456
442189
398994
351467
305614
266442
237964
226428
243649
283342
337093
396353
454129
504173
541980
561161
555202
528169
482821
421161
346451
260406
65185.6
37564
126569
138383
151226
170061
207817
269699
349456
442197
541392
642753
741461
831091
903790
951953
963245
940509
888793
811626
714219
597282
468639
340219
225317
124604
95772.5
98585.8
97975
89777.9
32155.1
28877.3
128608
181905
234262
278814
312060
331899
336356
321229
295118
268181
246971
238336
250216
287363
339942
402093
468342
532786
588731
629501
648131
639849
609766
561141
496841
418437
327129
225608
48810.2
29280.5
152449
195603
224134
237463
232635
223205
220562
233424
272798
330459
401299
480998
565560
649426
726633
790150
833523
848215
834469
793580
733409
654419
559124
445994
316102
178613
80801
69722.2
32596.9
25189.4
80437.3
118261
187516
278974
377874
478850
580026
678570
771324
853551
919982
964969
979874
960476
917261
848958
761059
654121
528594
393317
259831
146160
107957
110454
107420
102142
91473.8
77747.9
30201.7
35926.4
193040
308143
418174
522754
623349
721861
815696
900145
967423
1.00942e+06
1.01063e+06
976386
912462
821885
706020
566457
415024
266692
153589
127243
130011
130162
131046
128381
118850
104620
89440.9
74040.4
24938.7
28236.5
141722
217272
295433
386898
489161
597030
707848
817511
919698
1.006e+06
1.06734e+06
1.09075e+06
1.06753e+06
1.00627e+06
912297
785810
626377
438677
257100
161468
148789
151317
145573
140018
127489
109595
92548.2
79563.9
31278
41518.4
201358
294067
420487
529239
619552
696391
761199
812315
842942
835176
791419
713243
600007
455527
297452
192658
172452
173933
172664
169556
165185
160441
153873
145357
133764
121266
108538
97481.9
33092.2
29002.7
129355
204932
268090
322681
367721
401348
422453
429360
419109
394111
360284
321256
280784
244092
213779
198107
201760
223962
257384
295614
334771
369711
390361
384017
357307
313520
254882
185685
44705
20349.5
73292.2
73732.1
70775.6
81266.6
156250
247176
335523
417562
489076
545683
584146
600943
591699
559579
511340
452778
388759
323832
261734
206033
163857
142768
138014
138998
134340
122849
103924
78128.5
11086.2
20706.7
61007.9
75795.8
88275.6
98587.9
106627
112575
116127
117404
115872
110963
102245
89448.8
23172.4
23669.6
96516.3
114747
133872
149407
158245
160085
156363
149821
146900
152313
165731
186723
215971
249730
286671
323058
357031
387790
414420
434103
444258
443801
432886
410779
376244
328401
268381
200435
45154.3
37484.5
175421
199703
212277
214749
210358
201942
193062
188353
190415
199990
219550
256100
305277
359884
412116
458887
500198
536068
565877
586434
595354
591185
574976
546934
505035
444737
362605
262027
57394.9
51814.5
269048
344103
392231
414703
418822
409956
390345
366149
343826
326216
313087
302290
293091
295948
324112
372949
431097
488329
538647
578774
607020
620537
617285
597924
562649
509944
438570
347294
82798.3
36055.8
133125
131848
153064
199274
270870
360421
459156
554770
640173
715801
783126
843355
893361
931863
950024
944915
920159
877772
816888
732630
622044
491467
356696
230197
121951
89307.3
99777.8
104785
34967.3
30953
160261
205271
243269
268262
280087
281095
273926
262278
254416
256143
269450
296603
339964
391551
444561
494840
541034
582602
617985
643383
654812
650692
632287
600998
557227
497828
417806
314323
64509.2
32855.3
194285
214663
221105
220743
221186
235490
262293
306316
363403
425371
486336
544661
601286
656633
709607
756088
791876
811214
808978
789233
754989
708160
645787
559857
444302
301957
158678
80920.6
33043.9
28482.9
100149
162246
264024
374043
477264
570204
654413
731054
800941
863681
916632
956067
976989
976790
957179
920962
866709
791522
687999
558690
413260
269017
152560
97813.7
94801.8
106030
101554
85586
31392.2
50944.7
273797
419273
543804
643240
720998
785464
842161
893463
936864
971196
985870
980809
957816
916176
847969
743297
603418
443217
286477
170899
121706
124129
148539
159464
151883
133737
114077
95951.9
27167.7
30815.3
190816
271860
375522
490738
601944
700874
787860
865576
935484
995609
1.04225e+06
1.06792e+06
1.06649e+06
1.04082e+06
991525
914166
796374
630505
433444
258733
162385
129323
135979
156043
152732
131662
109257
92991.9
32466.8
40354.2
240167
402809
578438
719980
814665
870516
901540
918357
925655
920189
901187
860690
781876
652495
476403
295584
193474
173860
176487
181491
185573
186658
180314
165022
140428
114546
99948.7
101501
34011
40827.7
199421
278967
342726
391120
425573
447497
458669
459609
450218
431343
405008
374062
340476
306596
275208
254679
250484
260499
272527
279876
286578
298392
315042
326450
328074
315380
282765
227360
48690.6
23887
82104.4
66948.2
83925.4
158717
257108
356397
445291
518873
574982
614080
637626
646783
640690
620043
587330
545117
493528
431938
360294
282189
205701
144695
107385
90163.9
86123.6
87215.6
86927.4
81373.8
8607.25
22956.2
73475
90867.7
103646
112670
117963
120423
121185
121068
120064
117657
113161
105526
26362.3
25335.8
112031
123965
136095
143188
142934
137369
130878
129717
141354
165299
195317
228962
264023
301482
336793
364571
383924
397254
408056
418315
426186
428510
425285
415454
395804
362058
311714
246777
52710.1
38810.8
196287
200235
191222
175501
160585
151967
154246
168921
193583
225965
264701
315357
375379
433137
478129
508685
528372
541144
551313
559923
565286
564601
558924
547598
527122
489155
423772
328459
67507.6
56004.1
312293
362559
377597
366772
344236
319761
299457
292788
302272
321078
339859
350801
352023
361066
397225
454238
513711
562996
598535
621755
634928
639635
634436
620131
595857
557875
500650
418990
95842.4
38697.3
141707
131425
167684
237832
333812
443705
552923
641891
704063
744883
773187
797125
819247
841993
859389
866144
864202
852193
828216
784278
708758
597840
462954
322108
195915
100263
97014.3
114587
36821.8
32873.7
184973
211631
229064
233309
227049
216142
206803
207072
224078
257325
303632
360544
421496
481635
529913
563929
585757
599632
609573
617776
621785
618239
607712
590889
567255
531488
473275
382913
75159.7
36097.9
230429
222181
206281
198862
212527
253679
307181
371237
438895
501183
549575
584726
611231
633891
656422
679753
702811
720003
725210
721197
709360
690794
661597
609430
520581
390247
234760
113273
33004
31554.3
120432
212972
333916
449660
548257
626805
688133
736413
777018
813949
848484
879174
902265
913139
911355
898991
875430
834619
766227
663877
530628
381595
238025
129874
95819.5
112344
109927
91057.6
32080
71908.4
355883
515372
636701
717695
764424
789168
803661
817870
835304
857485
877041
891304
899403
898353
879019
823754
720919
577709
415960
266422
167083
148883
178973
192948
183546
160972
138653
121326
29746.1
36996.7
221431
321726
447955
577876
688799
770270
825085
862128
890959
918171
945964
969529
982657
984570
974565
945810
880816
759531
582211
386851
231982
149428
150199
178543
175222
148525
122124
105250
33865.1
57545.2
324815
544288
739440
873432
941850
959741
949820
932487
919447
909609
905697
897856
860753
767117
606172
403427
241657
185104
188689
205419
221065
229794
227064
209744
177311
136135
104362
102152
35571.9
51201.8
249506
326781
383236
420628
443336
455832
461561
461766
456121
445752
431793
413616
390029
360458
328420
303604
295009
298378
295714
275853
246175
223527
225396
246050
271949
290391
288101
255240
51238.9
26009.2
86800.3
73286.4
132150
228619
335186
432792
510551
565812
601274
622581
634583
639970
637994
629890
617814
598260
566234
516088
443993
353385
256842
170771
109048
71598.9
56085.9
61196.5
73463.8
82227.2
5543.64
24362.3
86503
105661
117998
124498
125558
123336
120680
119346
119827
121511
123181
122167
29157.1
27174.1
128404
132633
136806
135990
128212
116968
109520
115392
141168
180375
222466
263631
303345
344244
377435
395251
397436
389720
380792
377931
382174
389620
397726
402783
399888
382782
346284
290010
58595.1
39447.9
216244
202768
174312
141242
116522
110569
127627
162802
207181
254852
304292
364300
431351
487829
521144
531582
526606
514344
502944
497947
499801
506236
515678
524422
527460
514087
470316
388274
75312.8
58227.4
349693
375050
360163
319528
271735
231348
212800
231038
278091
330684
372582
395690
400715
414110
460657
526316
582636
615608
626093
622518
615498
612156
609001
606368
600536
584159
548585
485290
106044
43859.8
153171
136877
187988
277845
391789
516977
629164
704019
736600
737474
721438
702805
691992
695151
711196
733324
757692
779585
793255
789263
750665
665978
540714
394080
254947
135580
95975.6
119738
38447.4
34384.7
208462
216467
214839
201746
181252
161551
152886
167191
208531
269288
341018
413157
486680
550017
588787
602578
596451
579322
560762
549334
545563
547516
552306
556639
557341
547760
514701
443236
82075.3
39136.5
267683
231495
192659
178903
207955
273254
346273
421108
495569
556038
591874
605308
602157
589336
575117
567302
571202
585519
602904
620644
635643
646829
648991
628429
566272
451041
292307
147732
33962.6
35149.1
144185
260818
390305
506677
597834
659478
694607
710017
714915
718763
727475
744140
768420
791645
812115
827569
834794
826754
793838
723625
613015
471773
319135
184989
119738
121282
115952
95241.9
32749.3
90507.1
430967
587546
695425
753824
769567
755497
727836
701570
689799
697633
721367
754361
791411
827158
850666
841711
779951
663649
511217
352105
228489
188391
207150
216009
200674
173969
154756
146362
32261.6
47813
247516
366820
508387
644660
748058
805972
823926
814857
796426
784636
790338
813371
845192
880924
914157
934114
920757
845040
695412
498881
317172
199176
175513
193255
183694
151845
125278
114113
35200.6
93629.7
444282
684359
858763
953285
976366
948755
895202
845214
819241
819201
841964
871645
878556
826655
693134
491340
298671
212085
213445
238589
263143
278548
280863
266216
232315
182090
127752
101509
36848.1
58234.1
288089
359890
406410
431089
440448
440834
437500
433703
430989
432544
436774
437124
427906
405020
371763
340719
326977
326188
316807
280937
223807
164784
144040
175845
225695
270108
291191
277233
52507
27432.4
89752.4
94662.2
174189
281081
391119
482451
545016
578689
590437
589779
585014
581624
581960
588081
600217
608870
602863
571829
507770
412001
301372
199504
123299
75670.5
52858.4
55652.4
70153.1
80968.1
3666.53
25034.1
99199.7
119267
129688
131965
127396
119776
113534
111560
115350
123603
133127
138978
31444.4
28739.5
144356
141527
137714
129712
115835
100326
92586.4
105154
142773
193170
243252
288295
332324
376647
407438
414207
397201
365643
333055
313039
313100
329866
355320
379841
395958
396485
375295
329608
62613.9
38525.9
232727
209424
168081
121319
87114.8
85960.9
118047
167712
222430
276442
331386
398008
469519
521513
540079
528859
498557
460773
426462
406343
405902
424251
454813
488781
517704
529303
507789
441767
80529.9
57936.8
379877
386851
350266
286874
217367
160945
145675
193676
273501
347319
400174
426558
432372
451415
512206
586548
634460
643205
620058
581154
546658
531899
537388
559047
584039
597679
588703
546349
112880
49554.7
166717
146852
210283
315884
442818
577529
686928
743519
746136
708563
650928
588908
540462
519137
530986
570466
624926
683709
734424
766884
761405
702335
589938
443040
295007
163765
99951.2
120929
40191.1
35381.7
227908
222048
206482
181939
152912
127855
120685
146338
206120
283789
365946
448667
530673
593392
619497
611032
575404
525269
475051
440210
429427
444616
475703
510320
540347
557903
549092
495981
85016
41382.3
303415
243369
181904
161109
204483
288700
371849
452983
532309
591202
617349
613938
585922
539884
485458
436792
411395
420847
456691
504934
552853
595431
626525
632805
592772
489836
329464
172759
34992.6
40528
168975
299378
432744
549424
634008
679923
689923
672109
638076
601506
574650
569498
591056
629540
677462
724359
764984
789567
789558
749878
663474
534588
380214
232340
147049
130433
118922
97985.7
33716.6
104527
488970
633975
728416
767787
758191
710507
643262
573353
525612
515024
543002
597156
663213
731725
790804
820233
794673
705258
565661
404228
267129
212087
219288
219585
195331
167049
161003
169704
33535.3
62357.4
270785
403675
553820
691174
783469
816389
797947
743664
674842
617198
596188
620642
679529
755090
833572
900324
932490
895751
771089
578796
382552
241287
191972
193229
175656
140782
120571
119352
36378.5
130545
573556
793780
918547
958294
930946
857318
763556
684708
652176
676361
740879
816149
868552
858084
753545
560571
355465
254486
248441
271847
298096
317514
324975
316688
288052
237514
170896
111965
38401.5
61559.8
317248
384676
421746
432283
424399
405796
385052
372235
373762
392840
421160
444710
453066
438663
403419
363604
342330
338178
328386
290513
227004
153297
109785
146930
207810
262607
293192
289824
52327.8
28929.4
92802.6
112217
202818
316824
428314
511882
558200
568887
554055
525202
495360
476962
479034
503534
544392
584378
607301
599462
550054
455759
335601
221483
136435
84447.5
59372.9
59167.5
70450.9
76723.7
2748.62
25237.7
111454
130506
137351
134237
123316
109901
99614.3
97914.9
107986
125793
144001
154817
32985.2
30021.2
157731
150706
140078
125795
107090
88242.5
80236.2
97804.5
143725
200964
254408
302065
350144
397998
426748
422702
387196
332335
273875
231493
227306
259939
309386
356625
391879
408274
400685
363045
63654.6
38117.7
240100
214960
170787
122510
88038.7
90381.9
125820
176958
231675
285499
342288
414497
489610
535376
538856
508072
455373
393731
334012
295093
294909
333246
391963
453943
508252
541909
539383
486733
82269.5
54395.6
398446
396771
349811
274654
193541
128735
123479
194081
285140
361938
415405
439459
444378
471336
550271
632454
667730
647694
586529
506378
435680
406024
432314
496431
563334
610272
626827
599552
114023
54368.3
181701
158889
232783
349782
484974
623696
727329
767299
745616
678800
589012
489120
398931
340579
345518
408557
497316
592859
676122
737228
756601
717188
615679
468948
313275
173285
101607
122425
42511.8
36008.7
240308
226638
203671
174604
143929
119528
115450
145198
208187
289390
375327
464346
552726
613336
626540
597708
535872
455295
371887
307227
290020
332484
402421
471558
529413
568989
578171
537269
82640.1
42232.2
334764
256568
173725
144378
199368
294840
381466
466116
549842
609201
630981
618720
575508
506032
418037
324004
251579
252851
319939
404996
485174
555010
608576
633224
606614
509301
346056
186984
36168.9
47260.7
193542
328741
463634
581461
662522
697605
688925
644609
575864
496537
422006
377231
391899
452698
533860
614767
687220
740828
768820
754027
688373
570965
416114
259226
161506
133051
117521
102373
36989.9
113910
523082
657008
744383
772978
746959
675875
576328
462613
365218
328669
369111
450717
546525
642639
726900
782405
781001
713869
583828
418814
271727
208992
210575
202203
168974
149871
170618
192626
33699.2
76954.3
290740
430965
583672
719406
801128
812996
765331
674290
558743
447603
391119
424411
518549
635242
754651
859368
926748
917417
811369
623505
418929
260787
189377
179527
161293
137868
130406
128927
39551
150089
679652
856072
923835
912434
841664
727082
592144
485054
462061
532723
650202
769968
860812
883292
799921
614113
407982
307614
286066
295853
314097
331674
343381
343999
327347
286405
221290
143266
42297.9
61608.3
333632
404540
438661
438058
411094
366413
316082
283585
290199
335756
393800
442341
468032
461749
424694
373350
340530
332696
326731
296767
245191
187681
151996
167380
213182
260239
289000
288313
51671.8
30830.2
94442.6
119829
215728
336296
450474
529058
561973
552424
511855
451429
387365
344159
347225
397539
470683
541284
590571
604637
572187
484460
358832
234670
143233
89802.5
65409.8
63061.7
70504.7
71317.5
2737.47
25026.8
121159
137915
140910
132566
115570
96602.6
82888.7
83328
102836
131228
155968
166718
33835.7
31276.6
165592
159717
145146
125615
103089
81874.3
73664.6
94153.1
143110
201447
255025
304025
356190
408134
435844
423470
374257
302815
222539
151983
141548
201064
276936
344011
394195
421762
422792
385281
62093.8
38476.6
235729
215386
177699
140881
117952
119459
145143
185899
232113
280291
336872
415190
494051
533852
525180
480450
412352
332783
248701
181986
187500
257978
347174
433909
507871
556684
566097
519389
79515.4
51898.4
398132
399488
352684
279365
203520
151439
159171
222177
300485
368441
415497
433765
436372
473681
574078
662815
685224
639130
544264
424420
308932
254977
329403
453287
562355
636162
667340
630394
109842
58674.7
203147
173064
255065
378387
515435
653680
752037
781802
746299
665530
560637
440123
316352
205806
194863
295051
416679
536941
640842
718602
751206
721938
624700
474997
312568
169209
104275
130127
45059.4
37324.3
243386
226745
202908
176322
150544
131394
128747
153816
209334
284216
367672
460713
555111
614703
618560
576407
499232
400207
292507
194131
173645
265290
371701
463062
535327
583827
599407
560238
76969.2
42192.6
356579
269590
168715
129250
190894
289043
375171
461334
549262
611867
636044
624404
579382
504392
404507
287617
175693
165386
258064
362165
458173
541436
604765
634872
609538
508019
340495
189747
38614
55600.9
224302
351535
483951
602496
684151
716326
700175
642659
554253
446013
328123
222037
208678
304382
419873
528252
623994
697966
744324
745091
693556
583001
425697
263025
159514
132065
127268
128259
47651
116214
531976
659290
746458
774102
742627
663428
550641
411637
268598
197322
254425
360107
474695
586172
683308
749790
756845
698779
569176
396458
242555
185541
191459
182194
156114
161079
195635
209692
37130
87636.2
308794
447749
597508
731052
806892
806567
742933
632329
490001
334118
230334
278322
405772
551347
697266
825157
912149
915365
818983
633378
425410
255480
175064
171926
173838
174838
172550
160853
51616.1
153647
735111
868143
893826
849723
749326
603355
427301
290905
310338
448002
610849
761747
874284
909853
832817
650901
462674
359882
317170
302239
302060
311032
325216
336157
336339
313972
263019
185712
46693.7
59024.8
335492
416859
457872
456364
418776
351702
265248
192819
208497
288481
373962
441590
478696
477640
438594
373967
324794
311361
310678
294301
262570
228151
206071
205826
228234
257186
276287
272187
50894.4
33372.4
97082.3
121784
217774
341603
460868
540771
567093
545836
487545
401067
299819
214284
216019
305118
409353
502252
569484
598349
579206
499367
372245
240636
144467
90580
67688.8
64870.1
70029.3
67987.1
4955.6
24624.5
127382
141154
141029
128482
106832
84136.1
70174.2
76640
106585
142444
168842
175991
125618
39141
38539.3
119408
168311
164425
149926
128719
104604
82944.3
75159.5
94689.4
140032
194434
245189
294385
350694
407177
436012
420135
365929
290104
204385
121231
106156
187645
275027
349758
405554
436011
437259
393105
225640
46129.1
41455.8
151062
222765
203752
176747
155271
145335
147735
162672
188547
221464
261247
317122
403145
486432
523292
508441
459032
387652
304444
212934
131429
147607
237828
341218
438892
520333
573072
583739
532339
310022
59445
51262.5
221856
386680
391655
352550
291246
231928
199501
210804
255465
312367
364965
400980
410467
410228
462637
583821
677517
693056
631846
518777
377338
233352
171550
308019
469639
597381
676000
701164
643146
373539
61721.1
68904.7
301639
248775
218732
285534
401713
533329
666017
760780
789597
753906
677611
578898
465479
347561
240384
217181
304154
420196
538813
643033
719708
750554
720217
620511
468150
303981
171188
135599
159162
149482
44485.8
44254.6
171294
229724
213634
196388
178755
162203
149707
147571
164787
206594
268214
344697
441698
542182
602721
603874
561051
487484
394381
294896
216361
225599
311072
407255
490500
554734
594419
600570
553062
293871
57235.9
50101.7
252287
368657
277175
167665
122928
180545
272928
354687
440487
531320
599817
632768
630489
596628
535094
451700
358336
280942
261801
314240
395521
479966
555803
611306
631606
596090
486201
319109
193834
146164
57806.3
62975.7
203332
258023
367305
493164
610524
695187
732562
721216
667216
581546
474224
354242
243484
201366
276143
385064
495111
594728
673876
724697
729607
682154
570350
407430
242332
162919
164407
177748
187446
175419
74486.3
87559.3
373992
519807
642754
732970
768049
743521
674952
574933
452002
329487
256455
281490
367589
472412
578007
669749
729318
731903
669636
531071
345016
199130
167872
183135
186604
190952
214801
246184
253981
202640
79090.2
81934.8
263180
336682
459306
598093
727087
802370
802896
739339
632146
496872
350602
239633
264898
381458
525010
674069
805621
893451
894121
797303
613018
407255
238586
181801
196977
219366
233231
234710
226385
202218
78056.8
93897.4
535748
737317
839714
850684
795576
687065
535443
356392
237439
315623
472234
642076
794290
901571
928141
848248
673867
503288
399459
334549
287128
257994
251962
266287
291185
313033
316222
290980
235028
180852
45053.2
45469.5
218676
353497
441702
492434
496907
459047
385234
285916
194367
204713
291178
382997
454481
493344
491862
449083
371827
301909
277581
280826
278670
265624
248644
235562
229083
232685
241456
246692
240439
168688
42067.6
37696.3
114006
119491
130936
215252
338407
461212
546743
575678
555539
495134
403763
293366
186496
177134
280337
391169
486784
557073
590459
576117
501357
375771
240102
141707
89665.6
70192.6
69683.8
74835.7
73166.1
44566.7
7824.37
3439.73
24145.5
128333
140596
139075
124566
101336
78784.5
69495.2
84301.9
118793
155002
178924
181775
148220
94728.8
95357.4
137524
160520
161336
151080
133239
111320
91474.5
84144.9
99969.9
136984
182336
226012
274166
334379
395492
427969
415412
367719
302909
234950
180832
174490
228626
302468
370049
420876
445986
438882
383181
257086
112079
106002
176507
194227
178585
163167
155919
156525
161338
169504
182495
202278
232911
288712
383340
470844
508337
496202
453442
393427
325242
256626
209405
220362
286381
375073
464495
538996
584309
586232
523387
358844
134401
113067
264886
360208
370319
343441
299414
259640
242400
250920
278398
315431
351954
374358
372235
369600
439962
580242
679842
696709
637381
531804
407494
303329
290638
397387
542333
659342
723845
725581
634367
421152
218378
299938
385491
256867
227074
295245
405992
527942
655989
754670
793239
772822
716737
641678
557684
475367
410071
390608
431650
508491
598479
680730
739181
755393
713952
608613
458577
304384
192186
164476
183324
188714
170674
162879
197127
195256
186691
181583
176567
170879
165331
163940
172865
198788
243674
312433
412379
517606
582678
593150
566906
518089
457388
400063
368600
382685
430965
489683
541834
578028
590678
570539
500191
321501
156640
175912
349570
370852
273392
163691
121014
169930
249554
321892
403777
497057
574069
621009
636385
624244
589513
538388
481744
435945
418166
436587
482024
537397
588636
621054
618786
563210
443788
289743
196542
183464
175022
187731
206459
250735
357187
479033
597323
689861
740961
745680
709858
645687
563845
475896
400726
362277
381480
444703
524711
604658
670427
710617
708478
655414
538571
372789
223657
171699
175612
188339
194902
187480
179457
214472
361157
488356
607492
703293
753008
749293
706172
637510
553512
474740
422467
420221
465984
537925
617118
685130
721905
706338
627831
479834
298173
181710
173747
195965
214791
234862
259877
280234
278632
248299
216687
226300
255871
330313
447906
577929
704668
786781
801328
755652
671878
568794
464835
389978
383967
452416
561195
684569
795967
866213
855695
753093
572713
380774
236108
194392
208340
228274
234361
227432
219477
224950
251743
304658
529723
697951
796753
811315
768087
683856
571451
460404
411183
466005
584919
725617
851081
930061
932644
839528
672997
519995
418521
339146
265758
206733
183641
201872
246682
292156
319966
318085
280578
228916
200367
213206
295811
393714
480863
540240
555012
526583
464124
382562
318811
318063
370321
437208
491981
518940
508603
457816
370076
279962
239086
242214
250790
251939
247156
240149
231495
222723
215032
206634
196223
179128
148368
145365
146542
137208
145578
219379
335720
456374
547457
586029
576807
529293
455005
369876
302523
296468
353271
431798
505339
560326
585160
565946
491624
369321
232533
134626
86463.6
69867.4
70223.2
75040.3
73925.2
56865
25763.9
2677.79
23751.3
123500
136940
136013
123570
104250
87377.7
84002.5
101105
132598
164157
183098
180547
144804
89326.7
88508.2
125448
144520
151728
148631
138000
122351
107200
100968
111032
136039
167681
199857
244138
307390
374496
415414
414893
383046
338096
294416
264475
263030
295320
346511
397377
434974
447966
427044
358989
243048
117359
115338
163250
156915
144200
139478
143394
151624
159146
164406
169210
178597
200400
257701
358634
448369
493544
495343
470605
432659
390261
350055
326487
333485
373428
435015
502082
557801
586431
571263
491548
333709
122844
109401
245104
317176
333064
320696
296055
274693
267167
271188
285871
308324
331136
339625
324614
318861
405431
559999
673184
705960
668568
592549
508502
451642
459425
536046
643798
730384
767334
736444
617433
422541
262292
333070
368554
219258
205784
284277
386252
494593
620202
730691
790568
798180
773491
732449
685288
640010
605097
590406
604259
641543
692026
739031
767199
759150
701183
590813
448134
307950
206736
174276
185710
191594
177523
164550
172206
157150
158956
166298
172763
176510
176603
175308
176719
187710
216076
275162
375225
485596
560950
590861
592252
578452
558303
541259
535295
541884
559477
579619
592390
589577
564273
509256
415499
273598
170249
217434
383539
357874
254495
154647
123691
162839
223821
280227
353754
447971
534020
596762
633491
647421
643211
626035
602293
579651
565549
564955
580015
601857
619415
619535
587830
510989
389027
261186
198233
192827
182525
182260
184419
224400
323709
439437
558470
661494
732123
762050
755230
723380
676724
624495
577630
546563
539701
561591
600739
645684
683113
699303
679593
613301
492249
335721
216878
177563
173889
177295
175453
165710
168436
209284
326840
439172
553286
654881
723514
749122
740521
710262
668150
626877
596319
586956
603477
639372
682051
714719
718706
676752
579402
429101
271909
188199
182810
205340
229825
251677
270533
277875
263504
223169
179856
185568
222673
305142
409687
531037
660706
758728
798613
783931
734824
671468
608207
561256
546889
575756
639409