/*--------------------------------*- C++ -*----------------------------------*\
| =========                 |                                                 |
| \\      /  F ield         | OpenFOAM: The Open Source CFD Toolbox           |
|  \\    /   O peration     | Version:  2.1.1                                 |
|   \\  /    A nd           | Web:      www.OpenFOAM.org                      |
|    \\/     M anipulation  |                                                 |
\*---------------------------------------------------------------------------*/
FoamFile
{
    version     2.0;
    format      ascii;
    class       volScalarField;
    location    "0.007400000";
    object      p;
}
// * * * * * * * * * * * * * * * * * * * * * * * * * * * * * * * * * * * * * //

dimensions      [1 -1 -2 0 0 0 0];

internalField   nonuniform List<scalar> 
12384
(
843818
844004
844363
844389
845288
845172
845881
846188
847262
847282
847801
848259
848554
848563
834353
834273
834006
834181
833392
833463
833052
832006
832591
832462
833436
833260
833907
834134
834277
833927
833054
831948
830126
829343
827816
828377
828506
829717
829790
831656
831613
832368
833529
831856
838850
838619
839713
839152
841360
840138
843632
843353
846234
848084
850674
851881
853424
854169
854001
852809
850612
847723
843954
841639
838801
838121
838001
838825
839392
839640
839399
839124
839034
839194
866486
865799
865004
864006
863248
860555
860421
859087
861189
866418
865875
869056
872679
873017
873580
873910
873569
872838
871827
870781
870378
868875
871502
872543
872967
875244
875461
875375
875408
875640
861982
861852
862462
862594
865337
866500
868773
870529
869883
867258
865037
860721
848851
854709
847856
852895
849732
864003
865263
874290
875408
879172
879888
879888
879658
880693
881186
881904
882400
882285
879412
878885
878636
878483
877529
876957
876977
876796
877936
877123
880185
881120
881444
881981
881061
879713
877076
872841
868389
867247
863879
861245
863010
867091
867655
869325
871495
871980
872761
873342
855571
855250
855207
854952
854909
857958
859310
862326
864613
866763
868405
868093
866282
863214
862819
850992
856453
849862
848635
851757
854704
856843
858808
859004
857842
856037
854236
852719
853661
851117
840690
841895
842294
844271
844947
846354
845426
845855
839306
840830
830524
833070
826806
828277
831649
835006
839755
841358
845516
845602
846079
847281
846857
848361
848330
849189
849546
849616
849553
850362
889538
889113
891914
894044
894338
891591
886976
878946
870714
862504
861634
852728
856446
859159
862727
864160
863150
860897
860055
856452
852581
851745
851256
848188
849519
847694
847952
847693
847907
848354
836039
836589
836264
841196
842052
843953
844583
842649
838957
836155
832070
827030
834164
828229
848145
845148
860047
860526
866935
867714
871390
869745
875385
874344
879493
879117
881093
881012
881899
881875
875230
869511
868604
863780
861649
860421
853323
847836
845296
837890
840574
838184
838881
837571
837024
836223
837539
837368
838865
839524
841387
842473
843472
843836
844196
844487
844115
844569
844564
844995
851114
850975
850703
850493
850476
849512
849590
848737
849358
850923
851967
853783
856834
857954
860784
861711
863222
864120
865168
865024
865198
863452
864726
860629
863761
867182
867659
870905
871348
872173
837571
838968
838214
838106
837836
838699
838610
839334
839230
839116
838102
838009
836738
839117
839094
842362
844489
846022
846905
846650
845675
844320
843472
842459
841672
841935
841362
841672
841618
841868
845738
845854
845704
846389
846397
846365
846341
846624
847023
847714
847966
848335
848384
848975
834629
834892
834752
834017
833834
833032
833002
832228
832189
832243
832938
833433
833800
834010
834145
833665
832797
831715
829163
829548
827907
827569
828806
827975
830851
831152
832322
833691
833217
834965
839420
839198
839146
839342
840052
840035
842530
842520
846351
846713
849387
850990
851996
852438
852004
851015
848785
845893
842354
839918
836726
835965
836307
836625
837908
838922
839713
839921
840121
840078
867153
866124
864845
862602
860532
859245
857670
860292
861075
861095
866859
868486
869508
872298
872432
872510
872435
871798
870520
869494
868346
868804
866079
869868
872308
872996
874583
875558
875306
875945
862921
861683
861873
863578
864217
866563
868458
868990
867759
867127
861237
850791
853777
845428
844940
842568
849635
857319
860420
870515
874638
879102
880077
880335
880246
880570
880923
881493
881838
881540
880005
879527
878701
877788
877411
876279
875328
874810
877038
877721
877721
880286
881032
880367
879817
877872
875017
870832
866160
864789
860654
861975
860908
862166
867181
869696
869620
872162
873676
874010
856443
855771
855221
855573
854915
857026
859529
861328
863572
865810
866603
866141
865026
862582
854710
853764
851424
847715
848250
849385
851009
853542
855119
856870
857019
856154
854442
853460
853042
852314
842065
841640
842783
844005
845232
845911
845313
843055
839003
835093
830873
826305
827744
825128
827198
829811
834818
839502
844300
845260
847563
847466
847889
848427
847985
849546
850021
849757
849915
848604
889470
889060
890374
891630
891084
888106
881992
872829
870296
856977
853935
848137
849086
853282
857288
860900
862494
861999
859509
857158
854279
849472
850654
849146
848026
847966
847660
847643
847582
848293
838115
837190
837703
840277
841897
842873
842461
840330
837943
832768
826455
827212
825380
828986
839224
842933
856925
857565
868193
868089
872367
870409
874951
874648
878480
879683
880467
881873
881806
882830
876504
869737
867247
865211
859142
855871
852843
841520
840051
838669
833801
835969
836553
837347
836479
835780
834535
837366
836981
838827
839592
840960
841845
842772
843007
843456
843501
843878
844063
844956
851886
851439
851016
851010
850383
850175
848367
848705
847788
850093
850150
853254
855364
858394
859360
861995
862294
863759
864134
864857
863672
863566
862636
861895
862773
864809
867042
869842
871559
873161
838762
838904
838246
838332
838139
838763
839145
839384
838628
837195
836432
835116
835351
835491
838151
839342
842458
844304
845124
845210
844475
843479
842089
841490
841620
840527
840830
840958
841223
841824
843993
844263
844697
844767
845297
846117
847449
847575
847874
848288
848816
848942
849134
848911
835884
834382
834248
834542
833438
833542
832596
832764
832471
832624
832703
833334
833887
834046
834121
833709
832696
831284
828636
829567
827622
826614
827184
828290
830124
830887
833341
833135
834815
834111
839225
838674
838937
838138
839955
838823
842534
841353
845653
846251
847971
849388
850532
850721
850267
848987
846335
843869
840020
837666
834995
833802
833743
835072
835861
837471
838424
839985
840338
841247
865369
864130
862989
860879
858782
856743
856965
857368
858238
862533
863915
867737
868939
869066
870982
871414
870777
869746
868214
865350
862521
862605
865516
863269
867279
871250
872558
873937
874990
875906
861721
861651
862269
864558
865706
866667
868474
867500
867717
862978
852987
850684
848681
837022
840841
844851
841871
849528
857345
865046
870328
874976
878081
879370
879979
880674
880844
881374
881430
881036
878977
878100
877610
877467
876255
874876
874422
874108
874696
876867
878164
877720
879524
879694
877889
875871
872158
867051
865019
861264
860363
857142
859732
859951
861761
867674
869946
869920
872343
873808
857352
855530
856031
856136
855744
857666
858848
861749
862730
864908
865405
865230
862772
857781
852013
853938
843203
844150
842886
843386
847219
849081
851706
853030
854258
854130
853953
853002
853153
852122
841444
842335
843160
844731
845264
845846
843100
842051
833961
835056
824053
826669
818454
819196
823952
826299
828872
834186
839051
842872
844944
847178
848539
848348
849225
849479
848606
850167
850101
850727
886935
888139
889039
889211
887997
882854
877396
868737
862068
848522
849972
847349
847279
846816
850548
854124
857405
858233
857877
856036
854654
849827
850761
849233
847907
848068
848096
847945
847903
848263
838158
838014
839370
841379
841735
842548
840832
839242
834399
826783
823811
820178
824975
821584
834859
837831
849815
855538
863493
866407
871475
869912
875182
873766
879126
878940
881708
881319
882531
882328
871322
868843
867435
863983
855737
854421
846298
836914
837364
826639
829678
829845
831291
832012
833548
834645
834572
836842
837024
838437
839393
840011
841173
841505
842325
842523
842894
843417
843462
844054
852092
851799
850974
850920
849851
848822
847454
846469
846077
848520
849740
851936
853619
857204
859409
860605
862477
863018
863665
863357
863683
862126
861137
860135
860864
862913
865336
867659
869873
871512
838101
838682
838454
838700
838495
838300
838303
837502
836525
835544
834040
833515
829928
833255
834209
837167
838847
841363
843120
843490
843196
842207
841704
841467
840095
839981
839977
840330
840255
839958
848408
848503
848628
848454
847388
847763
847152
847270
847528
848090
848209
848662
848647
849252
834543
836024
835474
834209
834434
833199
833282
832457
832720
832893
832912
833144
833793
834233
834046
833810
832033
831040
828621
828601
825631
825946
828017
826778
830287
831496
832274
834832
834638
836590
838452
838151
837779
838505
838396
839051
841213
841963
843238
845706
846890
847253
848060
848340
847332
845680
843273
840039
836713
833533
832205
830332
831574
832376
834041
836517
837677
839297
840576
841659
863430
862028
860913
859017
857042
855584
854689
858455
856700
860336
864380
864274
867741
867912
867256
868651
868437
865948
862400
861047
860470
855341
856329
862158
861459
864474
869345
872182
873236
875189
864485
863824
864273
865306
866706
867926
867434
866780
865164
853764
850386
849315
833571
838954
834896
832522
839734
844103
846276
859281
864165
871516
875280
877943
879123
880167
880632
880809
880809
880488
878086
877321
877630
876174
874302
873773
874000
874497
874587
874292
876911
877757
876039
876903
875607
872264
867481
864080
860684
854446
851395
850033
852332
857267
858970
861598
868122
869978
869785
872877
856159
856880
855498
855599
857084
858317
858930
861131
863383
863228
864551
862888
857531
854561
851783
844909
839013
841173
841627
842289
840105
844185
846142
849109
850619
852590
852471
852632
852447
852512
843136
843186
844235
844960
845460
844791
841185
840094
830799
828548
823244
816532
819713
817133
812926
819588
824254
828634
833572
838027
843417
846572
847162
848922
849534
849289
851530
850863
850215
852233
887284
887636
887584
886411
882807
876989
872536
859092
852442
847868
838793
830898
830944
838844
843547
849020
852028
854834
855922
855452
853544
851520
850382
848463
849220
848122
847977
847867
847914
848179
839687
838915
839942
841254
842316
841039
839543
835626
827935
821897
820597
817662
812764
818848
828132
828540
846323
847157
862276
863019
870115
869707
873783
875449
877249
880867
880995
883388
884171
883705
876247
873940
868028
863651
857021
844600
835216
835993
819076
820766
815975
817913
823190
827314
829520
831615
834609
835021
836763
836709
837449
838318
838874
839766
840259
841183
841110
841008
841328
842578
852168
851937
851188
850620
848679
847947
846375
846342
846087
845202
847544
850972
850904
855572
857908
860240
860956
862497
862413
863480
861704
860319
859494
860666
860669
860924
863749
865771
867799
869094
840315
840219
839488
838229
838998
838283
837525
835666
833745
831240
829461
827838
830073
827405
829433
831945
835908
838128
840101
841377
841336
841368
840680
839413
839231
839080
839172
838750
839017
840218
846338
846601
846487
847101
847921
847558
848966
849494
849756
849726
849917
849715
849774
850116
838070
835256
835447
835341
833965
834370
832980
833255
833229
832926
833515
833533
834133
833932
834113
833821
831121
831707
827721
827498
825356
826231
826427
826317
831082
830150
834243
834334
836336
835968
839212
838250
838519
837615
839020
838219
840510
841174
843524
843296
845983
846428
845984
845827
844687
842590
839251
836740
832651
830428
826991
828208
827999
830181
829948
834405
836392
838611
840165
841906
861384
860186
859034
856926
855054
853646
853648
854046
859062
858026
861325
864729
863965
866360
866660
865063
864176
861502
857749
852424
850027
855147
849021
849548
856810
861045
863148
867466
870464
873093
863543
863720
865902
866776
867362
868706
867158
865283
860515
847186
851274
837178
830640
830007
822157
825577
827708
837600
840879
852354
856951
868250
872143
876396
878559
879483
879958
879962
879336
879079
876391
876531
875598
874102
873935
874001
873205
872786
874443
874855
874464
876189
875957
873603
872489
868255
863181
860340
852102
848469
847183
850632
850242
852775
858307
858941
861839
868117
869083
869671
858772
856415
857293
857744
857239
859687
859793
861560
862218
863562
861908
858999
855960
851543
846000
837571
839561
833638
830282
832258
839075
837659
842056
845308
848581
850024
851581
851586
852296
851586
843340
844029
845209
845855
845288
844461
839503
836579
825414
828626
812540
815762
806340
804500
811410
810745
812887
826535
825978
837667
839453
843199
847231
849095
849117
851230
850933
851361
853181
851145
886021
887183
885569
882156
878614
871458
865091
848993
850896
831953
829550
832498
833015
828487
833867
840245
846532
851543
854145
855407
854051
851540
851385
850614
848097
849192
848051
848391
848128
848708
842230
843207
842945
842174
842117
841211
836129
832710
821001
818582
813426
805498
812301
814048
818017
824014
839621
841023
859526
859917
869808
868606
875323
874278
879993
879900
883265
883192
883513
886898
877545
877299
870173
860846
854347
835942
830692
818655
815991
809488
808903
807764
811050
818474
825332
829482
832031
834604
834094
835541
835513
836024
836656
837123
838431
839070
840157
840992
841749
841599
852012
852094
851253
849710
847853
846798
844935
843555
842295
845081
842555
848716
848892
853206
855856
858647
860569
860354
861610
861091
860452
859700
859566
858715
858510
860527
861892
864142
865782
867455
839506
839995
839454
839575
838723
838625
836540
833758
832852
828324
826110
823285
819429
824499
825480
827240
829473
832787
835666
837859
839823
840108
839186
839426
839294
838579
837755
837872
837779
837309
851640
851797
851909
850741
850742
851306
849173
848891
848903
849067
849181
849746
849499
849708
836125
838460
836351
836333
835591
834111
834447
832895
832569
833018
833484
833287
833887
834933
834322
833639
831250
831399
826832
827103
825243
824843
826412
826805
828653
832503
833335
836003
837023
838728
838342
838537
837892
838464
838937
838978
840458
840222
842737
843463
843010
844207
844049
843109
841543
839117
834969
831416
828288
826684
826661
824324
824178
826485
827944
833083
833927
838460
839946
841269
859087
858321
857015
855708
854242
853586
854987
853360
856201
860131
859714
861963
864333
862239
863902
863676
859015
855145
850200
843841
835703
835122
844059
845401
843474
851516
861335
863782
867309
869086
865951
866553
868035
869365
869274
868482
867300
864814
853260
846143
846717
826399
831206
818039
823295
820570
818645
830066
830972
848097
851524
865001
869585
874707
877661
879088
879242
879375
879595
878715
876617
875557
874489
874369
874336
873200
873059
872929
873250
874649
875072
873702
874944
872492
870394
863387
858937
856939
846115
847978
848170
845321
845808
845050
852063
859327
860212
862318
867938
867370
857667
857885
857118
856716
858255
859483
860713
861422
862559
862099
860898
857166
854892
847545
842776
834824
835469
828721
831078
831752
829591
835868
837459
841479
844189
848080
849673
850981
850796
850940
844467
845398
846053
846632
845651
843404
838606
833188
825235
819344
809410
810910
804046
806717
800908
812023
807386
819879
820680
835657
833611
843974
845778
847276
850874
851067
851899
854345
852657
854179
884707
884221
882334
880156
874301
865337
858519
845236
842368
824016
827675
817535
815950
826305
828901
837895
842287
849018
853968
854390
855280
853393
851806
850410
850684
848493
849111
847940
848221
848633
844775
844705
846085
844986
842743
839589
836767
826333
819699
815096
809411
803506
801861
800717
818275
812308
840218
834399
857649
858076
867727
871564
874331
877258
879337
882593
883077
885199
888018
885238
878545
877687
869154
860872
844564
829837
828962
806362
796137
792537
794800
800404
804888
810795
819027
825812
830265
831756
833251
832445
833514
833820
834644
835241
835104
836034
837659
839714
840048
841663
851794
851883
850648
849139
847075
845661
841964
839188
838149
837943
842922
842402
847631
850667
854171
856593
859388
860307
861177
860781
859977
860228
858157
858992
859430
859135
861260
862845
863049
863996
842619
841350
841840
840187
839792
837588
836912
831577
828473
824382
818600
818638
820100
812900
816008
821434
826236
830689
833727
836453
838264
838037
838030
838082
837014
836301
836496
836270
836751
837711
849857
849714
849827
850586
849872
849758
851294
851724
851683
851873
850795
850839
850824
850734
841218
837889
839219
836277
836625
835297
834905
834478
834743
834607
834365
835006
834678
834394
835190
833821
831596
831157
826637
827152
824487
824359
826608
826218
831448
831117
835571
836790
837397
838337
840056
839041
839496
837826
838718
838274
840531
840236
841380
842978
843589
842980
843784
842403
839176
836422
831370
830151
823989
822194
817836
819489
820220
824931
824009
831331
831502
839034
838687
842410
857855
857504
856030
855497
853883
854274
853891
854440
857405
857916
860573
861178
861545
863047
860204
860043
854592
849254
843793
839717
838391
828362
823826
835133
847533
847541
852957
857075
865773
868463
867528
866769
869408
870625
871013
869247
867270
861925
851289
846577
840021
823493
828842
815219
817623
818017
817310
829686
824517
845377
847469
862671
867007
873862
876899
878364
878489
877572
877224
876951
874149
874138
874331
874551
873416
872957
873012
873405
873230
873572
874648
874036
872654
871497
868174
858042
859719
851534
840625
845135
837084
835273
841626
845587
845555
854301
860570
861141
862783
867835
860726
859142
859540
860097
859930
861191
861229
861847
862240
862339
860129
856605
852692
848161
838371
832615
831100
824804
823155
822963
829994
828635
832881
839741
842409
846418
848707
849808
850776
850949
845521
846131
846788
846696
845864
842466
837620
832418
821537
817140
806927
802109
797251
795043
796725
804104
803666
821787
815054
831998
832572
842563
842945
849731
850192
851234
854467
853212
854485
858035
883535
881787
880266
876935
870490
861924
853890
839572
837384
817680
825083
812303
820120
817174
825945
834378
839958
849241
853061
857839
855937
856542
854535
851945
850598
850804
848492
849353
848493
848840
847290
847406
847079
847499
844848
839806
834749
824426
816794
815344
801123
801695
803745
798757
816144
808320
839061
832159
857372
856433
871526
870989
876948
879235
880789
884033
885512
888544
887281
890749
878243
876140
868402
858344
837721
827631
819457
792826
792043
786775
785248
788927
797278
803994
814468
821360
827056
829241
828643
829963
830139
830776
830321
830998
834930
835812
836256
838049
839993
840067
851318
851166
850572
848655
845499
843981
838432
838021
835621
837362
835529
842382
842486
848891
852909
855301
858274
859538
860001
860593
860472
860347
858949
859272
858926
859945
859800
862167
862716
862526
841982
843095
841554
842004
840093
838644
834560
831976
824071
825473
817239
814891
811039
816143
815953
816199
819605
824510
830036
833401
835425
836983
838224
837440
836665
837028
836205
836149
835659
834362
855222
855631
854939
854607
854900
853423
852310
851728
850780
850967
852116
851059
851644
851814
837664
841300
838124
839790
836609
837413
835275
834277
834097
833973
835012
835173
835494
836370
835066
834250
833274
829862
829150
828162
827382
826953
828780
828117
829614
834596
836130
837941
839582
840907
839035
839955
839316
840171
839817
840019
840798
840737
841671
841703
842272
842043
841244
840708
837258
833890
828911
826717
821677
822098
820652
820627
819241
824053
822310
830529
832485
836228
840217
842249
856119
854884
856046
855064
855055
853513
854427
857057
856517
859042
861768
861535
862202
861325
861280
857478
851047
846494
837868
826444
824449
829068
826023
820728
833962
839157
848577
859969
860080
867077
869828
871476
872793
873078
872255
870896
866807
858728
854826
841206
838597
821436
825151
810693
813460
813086
809853
827341
820466
843996
845873
860977
865435
872988
876071
877534
878138
877793
876672
876103
874965
875265
874933
873654
873237
873252
872832
873141
874136
874011
874017
873994
872569
871311
865127
857546
859063
843358
841439
840949
834839
836330
838251
846921
846147
850254
858710
862193
861820
864459
860588
860069
859386
859184
860232
860977
862073
863342
862492
861886
861166
856342
850924
848348
838948
829249
832578
824105
823240
823415
829023
827954
831881
837054
842378
844865
848305
849257
849535
849153
845973
846667
846860
846624
845150
842463
836140
830851
823043
816144
801035
804057
796499
799372
794070
805484
797947
817596
813087
832290
830795
840068
845927
849839
850438
854500
853459
855350
858705
852870
879460
880884
877519
874418
869174
856739
855532
837467
832228
820533
819931
812941
815983
817377
827516
831337
841075
847041
855734
857809
860012
857592
856172
854119
851544
849016
849254
847527
848835
848127
852845
852911
851698
848627
846543
842305
832491
821486
823146
808925
800364
801220
805253
798240
816167
810191
839936
832591
856475
863312
871314
873994
880450
882625
885783
884334
888876
889727
893573
895302
865015
872118
868144
856532
837548
820186
814989
797099
777424
778960
777433
786046
792957
799344
812229
818840
823153
825315
827051
826929
827503
827409
828444
829142
829127
832307
834733
836411
839272
840139
849918
850365
849555
847275
844527
841969
839320
836200
835732
835618
835927
840804
838445
848546
850776
854767
857551
859455
860223
861159
860816
860619
860280
860222
859667
861046
860730
861186
860290
859040
844859
842798
844176
841428
841036
838843
833513
831394
822081
823709
810924
813602
806042
804798
808665
816469
816090
820913
828187
830877
834134
836432
835422
835025
835197
833954
833225
833029
833214
834860
853558
853515
853734
853312
853168
853888
852875
853234
854703
853308
852290
852842
850064
850392
849945
845537
846024
842022
842490
839300
839822
836869
837677
836675
835704
835829
835348
835467
836394
836207
836968
835579
833843
831504
829128
826363
825291
826792
825850
829181
833741
835057
837921
839277
841815
843033
842689
839331
841923
840262
840862
839563
840105
839788
840755
840963
841360
841762
842049
842397
841641
840122
835214
834745
827271
825645
818071
819256
815330
816708
816383
822298
821387
830418
830340
839540
840549
845669
847179
848450
852934
853965
855219
856343
855158
855360
857649
856562
858405
861770
860995
861579
862444
861792
860909
855916
848811
842464
832555
825095
820015
813853
821299
824288
830101
840041
843852
854011
860319
864228
858302
847411
867776
868583
870833
871644
871966
869311
865925
860237
855376
838790
840657
819931
825306
810052
812858
815728
809191
827969
819316
844364
845114
859500
864906
872488
875432
877176
876766
875811
874319
871985
871217
862326
871949
873044
872730
872993
873374
873191
872994
872724
873381
874231
873901
874051
872510
870112
863935
860641
853338
841827
845357
839457
836493
836728
838742
845986
846713
852226
855865
859809
861787
862927
857836
860230
862900
861530
862112
862351
862122
862578
863387
863124
863686
862715
860766
859519
851882
847585
844042
830799
828792
829741
824094
822482
828612
828150
831615
837706
840725
844913
846570
847716
846971
846970
841926
845134
846187
846036
846519
846015
844812
842983
835631
832008
826029
811505
803768
804354
797149
795264
794667
803754
798650
816436
811489
830092
831251
842065
847075
850037
853976
853867
856061
859911
857842
865004
864566
869305
877225
873718
874827
873993
866754
857423
857462
835009
837237
819477
824034
812447
814051
824707
828588
834115
842935
851540
856933
861145
862302
862138
858191
856453
854381
852908
850987
852129
851087
852175
851401
847595
853001
851349
851482
847248
844829
845534
834952
822342
825869
815472
804770
807633
807618
803804
816901
815421
838525
840529
861161
865725
875538
880584
882791
883918
886442
890539
889993
892452
894174
896005
898902
905859
888208
882406
873590
864588
840735
811781
818730
798812
770854
783861
778251
785523
791754
796922
808266
816283
820324
821500
822466
823120
821306
820801
820862
822555
825321
827792
833065
836509
839070
841693
846468
846470
849963
850502
849863
847793
844427
841188
839940
833701
832213
833070
831429
840171
837538
849559
848852
855423
857702
859757
860975
861444
862403
861431
861331
860739
861296
861051
861118
860520
858989
858372
841710
851097
845406
846277
844002
844719
840350
840283
832613
832320
821775
823051
810030
812984
806312
808068
806349
814870
814778
818020
828063
830626
832388
834628
836013
835958
834804
834254
834040
833606
833000
831325
831343
830101
859215
858834
858923
858816
857275
856714
857375
854914
853459
854151
852553
852386
853284
851669
849689
847691
845584
844363
842925
841934
839555
840063
837292
837110
837216
836996
837401
838467
838052
838316
837586
836420
835407
834418
832053
832268
832888
829994
833371
836435
836720
838430
840179
842453
842561
843783
842656
840948
842499
841692
840916
841197
840795
841311
841150
841528
841764
841990
841807
841640
841431
839614
834717
833835
828146
823279
818930
818441
816583
818186
817870
819545
825948
828398
830996
839627
840491
845551
846540
849392
852883
854226
856450
856213
855947
858240
857397
858672
861967
861411
863012
865077
864166
862461
861160
857014
850554
839291
832364
825542
818786
813175
817406
819195
826903
839911
845131
853788
861636
866546
861325
857433
869416
867426
868655
870528
870594
868975
867419
861717
855720
840942
842753
822312
827184
813294
817804
816752
812290
828577
822891
845000
846946
858945
866237
871043
874107
875114
876060
875308
873670
872223
872896
867142
873550
871960
871901
872651
872552
872146
872769
873349
873098
873556
874240
873322
872437
869426
864879
859691
851503
849619
842722
837552
836803
836877
841653
846464
848389
854347
857248
861133
863167
864765
860110
861696
864006
862883
862342
862107
862559
863748
863644
864484
864601
863981
862589
858926
855799
848230
847466
836802
828192
830515
830954
827796
827783
831018
834808
838385
842735
844897
846928
847044
847113
846910
843987
845328
845984
845660
845822
845521
845313
842638
835471
836580
824846
811916
809530
807547
795735
801317
796033
806055
799165
818064
813965
832371
832299
846889
847315
851938
855080
855768
856095
859383
861380
859970
867511
869429
871346
875322
875413
871442
868952
862847
851849
842946
840571
825158
821676
821149
827631
824647
828604
838208
847492
854618
860416
863187
864198
862538
862276
857415
856044
853250
853662
851659
853093
851615
851952
852737
852741
851396
851128
853897
850019
842344
840295
831126
820236
817378
818248
811416
812884
808789
822824
828912
839590
852806
863259
873521
879554
884358
886909
888622
889861
891086
893669
896408
896703
902549
902756
905221
894509
887716
875388
862945
845356
823395
813434
800442
780187
773965
776570
786954
790824
799509
809198
815504
818370
820420
820732
820468
822000
822833
822589
822772
826713
826369
828807
834707
838481
840152
844386
845185
847863
848692
848828
847512
844357
841610
838908
837273
833915
835173
832282
841048
838351
849520
849650
856835
858201
860805
861834
862259
862423
862700
861947
861963
861225
861605
860687
860744
857641
858606
848473
851934
846537
847574
843920
844714
840606
840881
833218
833598
821325
824743
812013
813904
806723
807768
809680
813356
812654
820632
825607
829260
832165
833394
833408
833172
832513
832351
831881
831657
831911
831832
829608
830035
857799
857930
857368
857282
858000
856713
856216
858170
857063
855854
856589
853961
853363
853607
850048
848018
848536
844562
845510
842424
842340
839641
840346
838162
838124
838093
838907
838137
838883
839759
840112
839418
836864
834079
833547
831901
830620
835079
835413
835362
837637
841244
842400
843170
844358
845538
842968
842031
843180
842538
842140
841348
841533
840802
841442
841874
841777
842074
842167
841797
840974
840272
835273
832740
828952
825062
820344
820313
816400
818034
816908
824166
826345
828349
834456
840431
840944
846697
845764
847692
852800
855947
856060
856720
859240
858975
859084
862330
861809
863291
865573
865564
864809
864215
861478
857625
852057
839612
830522
829227
819901
815445
819075
818206
831514
839567
845147
854661
859621
862821
859138
859679
867045
866070
867819
870060
870086
869804
868370
863380
858452
845832
845380
829137
829451
819514
815640
819439
818184
832621
826968
848533
848668
860806
865288
870574
871806
873258
872652
871517
871435
872027
870959
868970
873721
872311
872767
872143
871320
871140
870751
871745
872991
872481
872562
872597
871950
868528
865235
859422
856481
849487
844767
842825
839485
842436
844186
848559
850840
856562
859094
863108
864168
866000
861845
861855
864322
863364
863511
863711
864129
863589
864616
865523
865220
864955
864138
861710
858259
851420
849345
845090
837383
829128
828832
834835
832704
832663
837937
840832
844154
846060
846639
846843
845144
845802
844270
844394
845056
844357
844677
845577
845137
843012
839520
837079
825277
821449
813854
808428
801769
798093
798168
804057
808177
819256
817867
834517
839858
844524
850535
854482
854721
857174
858892
858239
862145
863573
864300
870019
870642
871874
873360
873158
871575
863131
858881
849366
844282
838348
838354
830633
824822
835699
842085
848291
852033
859188
863994
866904
866612
866043
862571
861771
857274
856870
854169
855416
852800
853843
852438
851568
854517
853573
854887
853332
853077
851581
843151
838016
830730
818937
811807
814474
812209
820550
827495
838260
844994
861025
870667
879803
882505
885240
889101
891534
891801
894283
895540
897365
900936
904913
902429
906134
898052
894948
884222
864834
850071
842843
808310
795881
801211
792797
786584
795740
798398
802114
809876
816271
818135
817727
817192
816657
816650
816749
818031
817455
821115
828297
829052
831431
837576
840782
843013
844099
845963
846672
846848
846205
844992
841235
839080
835229
835393
833263
835851
840707
841280
850195
851529
857732
859646
862079
862762
863097
863061
862595
863014
861719
862062
861050
861194
859262
859253
857233
853469
850464
850166
845186