/*--------------------------------*- C++ -*----------------------------------*\
| =========                 |                                                 |
| \\      /  F ield         | OpenFOAM: The Open Source CFD Toolbox           |
|  \\    /   O peration     | Version:  2.1.1                                 |
|   \\  /    A nd           | Web:      www.OpenFOAM.org                      |
|    \\/     M anipulation  |                                                 |
\*---------------------------------------------------------------------------*/
FoamFile
{
    version     2.0;
    format      ascii;
    class       volScalarField;
    location    "0.007400000";
    object      rho;
}
// * * * * * * * * * * * * * * * * * * * * * * * * * * * * * * * * * * * * * //

dimensions      [1 -3 0 0 0 0 0];

internalField   nonuniform List<scalar> 
12384
(
0.813361
0.817881
0.822516
0.826194
0.829651
0.829696
0.828708
0.825786
0.822518
0.817118
0.811263
0.806346
0.803045
0.796922
0.882008
0.876945
0.87698
0.873356
0.866835
0.861499
0.853283
0.844242
0.838271
0.83451
0.834097
0.834035
0.835473
0.837141
0.839435
0.841831
0.843766
0.845539
0.845788
0.846206
0.845332
0.845917
0.845943
0.846913
0.847018
0.848917
0.847595
0.847642
0.867633
0.922463
0.82795
0.821379
0.819506
0.818587
0.820841
0.820391
0.824246
0.824433
0.82777
0.829752
0.832544
0.833927
0.835446
0.836311
0.836319
0.835483
0.833659
0.831244
0.828035
0.826101
0.823799
0.823324
0.823155
0.82369
0.823811
0.823467
0.82206
0.820588
0.824172
0.826647
0.858514
0.851916
0.848745
0.849076
0.849514
0.84824
0.848394
0.847695
0.849762
0.854062
0.853661
0.856382
0.859219
0.859197
0.859319
0.859259
0.85867
0.857767
0.856731
0.855768
0.855427
0.854227
0.856481
0.857358
0.857718
0.859693
0.860206
0.860368
0.860427
0.861514
0.847134
0.849057
0.849583
0.849239
0.851034
0.851551
0.853196
0.854856
0.854909
0.853161
0.852142
0.848813
0.839807
0.844591
0.839315
0.843757
0.841023
0.852328
0.852713
0.859402
0.859377
0.862043
0.866561
0.868324
0.866957
0.866893
0.867079
0.868004
0.86914
0.870136
0.859318
0.861125
0.859638
0.858065
0.854585
0.851449
0.849447
0.847928
0.848052
0.847069
0.849701
0.850944
0.851886
0.853135
0.853674
0.853762
0.852815
0.85044
0.847744
0.847589
0.845622
0.844017
0.845896
0.849424
0.850174
0.851823
0.853958
0.854182
0.853266
0.852987
0.867809
0.862286
0.863462
0.861785
0.859126
0.859097
0.858047
0.860033
0.862208
0.864821
0.867195
0.868066
0.86788
0.866354
0.866976
0.858073
0.863089
0.858479
0.858036
0.861114
0.86423
0.866306
0.86831
0.867738
0.867515
0.883947
0.936022
0.928386
0.919997
0.912106
0.84181
0.825207
0.819406
0.816654
0.814344
0.814293
0.81315
0.813334
0.808267
0.809323
0.801105
0.803325
0.79841
0.799652
0.802408
0.804865
0.808792
0.810038
0.8141
0.815594
0.821386
0.834255
0.835998
0.836492
0.835723
0.835023
0.833954
0.832714
0.831899
0.832291
0.85095
0.849571
0.851652
0.853447
0.853932
0.852204
0.848942
0.842938
0.836723
0.830117
0.830113
0.822858
0.825917
0.827859
0.829974
0.830041
0.82854
0.823777
0.818053
0.814457
0.811334
0.810361
0.809436
0.806606
0.807176
0.805318
0.805182
0.805201
0.805924
0.806215
0.809778
0.810224
0.809863
0.813479
0.813847
0.815377
0.816149
0.814945
0.812541
0.810827
0.807909
0.804334
0.810398
0.805997
0.821796
0.818915
0.830916
0.830091
0.829945
0.827758
0.830862
0.829013
0.832664
0.830565
0.833518
0.832194
0.83344
0.833526
0.833801
0.833583
0.826547
0.822256
0.821506
0.817581
0.816203
0.816026
0.811535
0.807871
0.806525
0.80117
0.803629
0.801574
0.801421
0.799374
0.79249
0.787223
0.788322
0.78927
0.791535
0.792725
0.794605
0.79569
0.796609
0.796787
0.796974
0.796994
0.796474
0.796493
0.79567
0.794446
0.82468
0.82664
0.814461
0.802274
0.804165
0.805572
0.806857
0.806781
0.807618
0.809101
0.810087
0.811648
0.814012
0.814838
0.816768
0.817335
0.81824
0.818644
0.819118
0.818703
0.818672
0.817357
0.818741
0.815731
0.818393
0.821176
0.821417
0.822457
0.821651
0.827306
0.792597
0.79426
0.793542
0.791769
0.789376
0.791163
0.769954
0.739714
0.736869
0.73611
0.735111
0.734911
0.733904
0.735545
0.735671
0.738342
0.740344
0.741928
0.743047
0.743219
0.7427
0.741916
0.741659
0.741635
0.742092
0.743386
0.744327
0.748299
0.759172
0.756343
0.828881
0.837939
0.84848
0.855024
0.85578
0.853887
0.850176
0.846606
0.84232
0.835864
0.826416
0.814016
0.80461
0.797382
0.881443
0.877505
0.877449
0.87274
0.86461
0.850889
0.834609
0.822492
0.81761
0.817988
0.820521
0.823725
0.829057
0.836118
0.84461
0.852837
0.857951
0.859953
0.858725
0.859079
0.857329
0.856158
0.855766
0.852977
0.853101
0.851378
0.850462
0.848779
0.855183
0.891996
0.827654
0.820819
0.818335
0.818494
0.820177
0.821699
0.825318
0.8262
0.830304
0.831499
0.834383
0.836414
0.837561
0.838244
0.837658
0.83625
0.834163
0.831529
0.828406
0.826371
0.823988
0.82364
0.823986
0.823884
0.824148
0.824009
0.823524
0.822042
0.822459
0.824805
0.857326
0.851022
0.849444
0.849759
0.849037
0.848591
0.847616
0.849937
0.851108
0.851856
0.856933
0.858288
0.858807
0.860518
0.859697
0.858802
0.858111
0.85744
0.856602
0.856173
0.855674
0.856389
0.854249
0.857312
0.859004
0.859225
0.860298
0.861001
0.860531
0.861336
0.84784
0.849107
0.849287
0.849896
0.849143
0.850477
0.852546
0.854651
0.85559
0.856296
0.853395
0.846091
0.84985
0.843834
0.843674
0.841475
0.846863
0.852495
0.853253
0.859383
0.86158
0.863095
0.864598
0.867531
0.867465
0.865483
0.866497
0.868015
0.867661
0.86582
0.860265
0.861527
0.858368
0.852901
0.845711
0.838804
0.834406
0.83322
0.836596
0.839741
0.842469
0.846645
0.84861
0.849442
0.851038
0.851389
0.850704
0.848516
0.845629
0.845164
0.842291
0.843744
0.843264
0.844688
0.849151
0.851603
0.852132
0.854428
0.854597
0.853879
0.86805
0.862023
0.859506
0.852366
0.844889
0.843835
0.846183
0.849689
0.853397
0.857845
0.862225
0.865189
0.866982
0.866623
0.86106
0.860836
0.859586
0.856885
0.857641
0.859046
0.86087
0.863601
0.865486
0.866706
0.867238
0.87275
0.898906
0.928923
0.914214
0.902689
0.845499
0.824292
0.81616
0.812057
0.811642
0.812776
0.813097
0.812032
0.80915
0.806206
0.802686
0.798772
0.800003
0.797856
0.799388
0.801376
0.805403
0.808833
0.813212
0.814519
0.818165
0.82483
0.83479
0.839816
0.838852
0.837807
0.834998
0.831484
0.829423
0.82801
0.851189
0.849515
0.850064
0.851478
0.852172
0.851166
0.847793
0.841334
0.840203
0.829312
0.827366
0.822269
0.822886
0.826449
0.828717
0.830059
0.829555
0.826678
0.820421
0.816008
0.813655
0.81011
0.810732
0.808986
0.80716
0.806341
0.804995
0.803596
0.803961
0.805869
0.812325
0.811422
0.810229
0.810952
0.811906
0.813382
0.814386
0.814369
0.814133
0.811616
0.80763
0.80913
0.807324
0.81035
0.818865
0.820754
0.83157
0.830365
0.834835
0.829297
0.831884
0.831236
0.833724
0.831516
0.832193
0.830275
0.828743
0.830427
0.831641
0.833401
0.827277
0.821701
0.81877
0.817174
0.81288
0.812273
0.811878
0.805006
0.80526
0.805188
0.801788
0.803107
0.802591
0.801747
0.797096
0.791458
0.786814
0.789436
0.791427
0.793835
0.794854
0.796041
0.796552
0.796863
0.796446
0.796399
0.796167
0.796169
0.79557
0.794425
0.821457
0.814334
0.804967
0.803403
0.8053
0.806216
0.805086
0.805204
0.804246
0.805957
0.806166
0.808883
0.810889
0.813462
0.814041
0.815674
0.815097
0.815409
0.815115
0.815583
0.815233
0.815892
0.815816
0.815651
0.816874
0.819105
0.821352
0.822641
0.822142
0.826969
0.790158
0.795659
0.798191
0.791998
0.789812
0.777879
0.74931
0.736387
0.73472
0.732521
0.731073
0.729644
0.729684
0.729936
0.732231
0.733721
0.73689
0.739566
0.74173
0.743153
0.743143
0.742046
0.740876
0.740322
0.740778
0.741019
0.742927
0.748289
0.760003
0.756722
0.842292
0.858667
0.866582
0.863643
0.855185
0.846859
0.840369
0.835322
0.834792
0.835957
0.835033
0.826088
0.810169
0.797731
0.881905
0.877158
0.877116
0.873779
0.862325
0.84382
0.82392
0.81397
0.812551
0.814398
0.817269
0.821952
0.82956
0.842256
0.856898
0.864736
0.866515
0.864513
0.860166
0.858736
0.856345
0.856009
0.856694
0.8575
0.857305
0.85555
0.854644
0.850458
0.851017
0.873623
0.827011
0.81948
0.817318
0.816725
0.819455
0.819947
0.823779
0.823486
0.827638
0.830287
0.834118
0.8377
0.839697
0.839433
0.837867
0.835078
0.83215
0.829653
0.826131
0.824106
0.822015
0.821703
0.822321
0.823893
0.824554
0.825073
0.823962
0.823471
0.822473
0.824735
0.854654
0.848905
0.848847
0.848784
0.846939
0.843877
0.84293
0.84339
0.845457
0.850678
0.853594
0.857293
0.857498
0.856185
0.856349
0.856068
0.855945
0.856126
0.856159
0.854983
0.853593
0.854377
0.856992
0.854917
0.857798
0.860328
0.860467
0.860869
0.860954
0.861316
0.846631
0.84921
0.849861
0.850134
0.848663
0.849686
0.853487
0.855687
0.858616
0.857536
0.851049
0.850512
0.850158
0.840855
0.84484
0.848568
0.845569
0.851616
0.856272
0.860652
0.861434
0.862394
0.862755
0.865022
0.866905
0.868016
0.870578
0.875551
0.873863
0.869595
0.85973
0.860266
0.855469
0.846983
0.835771
0.827253
0.824909
0.827765
0.834262
0.842474
0.848313
0.850718
0.85265
0.853521
0.853344
0.852864
0.850588
0.846529
0.844301
0.840699
0.83966
0.837033
0.839509
0.840522
0.842948
0.848734
0.851565
0.852356
0.854013
0.854
0.868519
0.860184
0.853659
0.84241
0.835395
0.837845
0.843304
0.849757
0.852535
0.858551
0.864351
0.86823
0.868059
0.864503
0.859531
0.860941
0.851855
0.852455
0.851459
0.852072
0.85606
0.858528
0.861828
0.864056
0.864884
0.866677
0.879911
0.909257
0.921435
0.903214
0.845136
0.82549
0.811452
0.81109
0.813271
0.815522
0.813871
0.81265
0.805477
0.805406
0.795712
0.797123
0.790332
0.790747
0.795065
0.79725
0.799842
0.804594
0.808715
0.812301
0.814534
0.818919
0.828067
0.837894
0.842174
0.840598
0.835435
0.831647
0.827734
0.827806
0.848703
0.847976
0.848797
0.850367
0.851504
0.849479
0.846106
0.841005
0.83765
0.827556
0.829684
0.827467
0.826966
0.825322
0.826507
0.827558
0.828046
0.826512
0.822583
0.817272
0.814356
0.810997
0.811849
0.810219
0.808473
0.808322
0.807298
0.80472
0.803303
0.805234
0.813226
0.810993
0.809524
0.809851
0.810788
0.813699
0.815165
0.816777
0.815519
0.811408
0.811057
0.809813
0.814263
0.81149
0.821252
0.821387
0.828558
0.831952
0.834735
0.82996
0.831172
0.831652
0.835868
0.833177
0.834909
0.830237
0.828003
0.825387
0.828322
0.83131
0.823749
0.821154
0.818859
0.816385
0.811823
0.81375
0.810627
0.805523
0.807833
0.800026
0.802659
0.802203
0.802155
0.800895
0.799422
0.795931
0.790701
0.789264
0.791567
0.794235
0.795164
0.79549
0.795988
0.795436
0.795047
0.794442
0.794739
0.795566
0.795024
0.793578
0.816074
0.806955
0.80258
0.803978
0.804104
0.802529
0.79997
0.79768
0.796463
0.798238
0.79966
0.802576
0.805594
0.81006
0.812909
0.814067
0.814608
0.81405
0.814134
0.814825
0.817014
0.817613
0.817872
0.81699
0.817119
0.81842
0.820529
0.821732
0.821474
0.825191
0.781413
0.795228
0.801335
0.79126
0.780951
0.756704
0.737904
0.732924
0.730978
0.729216
0.727891
0.727555
0.725113
0.727563
0.728305
0.730599
0.732481
0.735691
0.739525
0.743265
0.746081
0.746769
0.746988
0.747458
0.745885
0.744896
0.747608
0.755403
0.763319
0.754094
0.868831
0.876627
0.869844
0.854113
0.83955
0.83155
0.82532
0.819934
0.817034
0.821414
0.828752
0.828904
0.815187
0.799021
0.880394
0.878742
0.878901
0.875357
0.864607
0.842662
0.821822
0.811149
0.80911
0.809934
0.812999
0.819157
0.829806
0.848502
0.864447
0.868368
0.863508
0.857524
0.850934
0.848047
0.844315
0.84528
0.849265
0.851363
0.857158
0.857699
0.856469
0.854484
0.850152
0.86789
0.826373
0.818558
0.815233
0.815164
0.81572
0.817175
0.819283
0.821069
0.824505
0.829462
0.832774
0.836403
0.83898
0.838416
0.835042
0.831751
0.828685
0.825378
0.82251
0.820416
0.820218
0.819377
0.821053
0.822168
0.823928
0.82587
0.82564
0.824092
0.823158
0.824196
0.852515
0.847196
0.847835
0.846606
0.842757
0.838421
0.836046
0.839485
0.84095
0.847106
0.853246
0.854026
0.855342
0.853059
0.85132
0.853172
0.855014
0.855291
0.854452
0.855265
0.856012
0.852518
0.853541
0.857907
0.856567
0.857638
0.860165
0.861095
0.860516
0.860968
0.848573
0.850959
0.851259
0.848456
0.848328
0.851271
0.854459
0.857396
0.859641
0.852417
0.851374
0.852091
0.840019
0.845452
0.842527
0.840741
0.846548
0.849934
0.850586
0.860412
0.860757
0.862398
0.86226
0.86326
0.86541
0.867385
0.871491
0.878652
0.877326
0.871579
0.85914
0.859626
0.854404
0.84233
0.829157
0.822461
0.821826
0.827501
0.836587
0.844512
0.851542
0.854556
0.852632
0.853806
0.853614
0.851053
0.845929
0.841264
0.83638
0.829685
0.826407
0.825231
0.828085
0.833606
0.836997
0.841288
0.848653
0.851709
0.851975
0.853424
0.867352
0.859199
0.847544
0.834437
0.83159
0.836715
0.844899
0.851423
0.855134
0.860388
0.867342
0.868623
0.864517
0.861157
0.857482
0.850468
0.844345
0.845481
0.845819
0.847102
0.846381
0.851528
0.85516
0.859603
0.862334
0.864184
0.870151
0.89154
0.916342
0.906341
0.842766
0.818985
0.810549
0.813849
0.816609
0.816144
0.811971
0.809539
0.800055
0.79678
0.791108
0.78491
0.78692
0.785137
0.782154
0.788477
0.793691
0.798444
0.803835
0.807943
0.812837
0.816223
0.821579
0.833109
0.841906
0.842254
0.839188
0.831632
0.826378
0.827495
0.84714
0.846687
0.848161
0.849923
0.849418
0.846375
0.845976
0.837882
0.834515
0.832045
0.825081
0.818682
0.818262
0.823647
0.825221
0.82687
0.825488
0.826033
0.824302
0.819556
0.814997
0.81248
0.811515
0.810043
0.810398
0.809803
0.809282
0.806759
0.803416
0.804484
0.814262
0.810078
0.808141
0.808746
0.811518
0.814453
0.817297
0.817557
0.815319
0.813702
0.814977
0.813946
0.810459
0.815342
0.821626
0.819315
0.830816
0.827781
0.836518
0.830531
0.830776
0.830957
0.835077
0.835843
0.834762
0.831745
0.82652
0.824805
0.826237
0.830453
0.827358
0.82468
0.819877
0.818627
0.816824
0.811049
0.807039
0.810486
0.799842
0.801991
0.797828
0.79759
0.798743
0.800471
0.799761
0.797986
0.794719
0.789008
0.791363
0.793116
0.793959
0.794587
0.794653
0.794658
0.793745
0.793166
0.792455
0.792943
0.792829
0.792169
0.812836
0.804108
0.80209
0.802841
0.79977
0.796561
0.79244
0.790215
0.788646
0.787569
0.790039
0.794485
0.797223
0.804334
0.809482
0.813739
0.814444
0.814553
0.813853
0.816653
0.818197
0.819369
0.820235
0.821401
0.820172
0.818955
0.820384
0.82097
0.820254
0.82325
0.776267
0.796581
0.803186
0.785438
0.766448
0.742982
0.733147
0.730062
0.727709
0.725882
0.725229
0.724723
0.726565
0.724792
0.725961
0.727255
0.729628
0.731369
0.73468
0.740052
0.746636
0.752459
0.755741
0.759554
0.760925
0.76063
0.760615
0.76261
0.762505
0.749354
0.882171
0.874281
0.853428
0.838934
0.833585
0.831854
0.831111
0.827257
0.819548
0.813839
0.819505
0.827187
0.818717
0.800522
0.883381
0.878196
0.880047
0.879632
0.870158
0.849701
0.82585
0.812713
0.808791
0.807736
0.810288
0.817711
0.831908
0.854937
0.867873
0.86506
0.855381
0.849079
0.841071
0.838576
0.83572
0.836799
0.839021
0.842936
0.852444
0.855281
0.859255
0.856073
0.852265
0.863563
0.827317
0.818712
0.815004
0.812545
0.813108
0.813066
0.816314
0.820099
0.826805
0.828984
0.832745
0.836519
0.83786
0.835562
0.831115
0.827823
0.824143
0.822189
0.820317
0.820049
0.818188
0.819646
0.819607
0.821398
0.821338
0.825151
0.825974
0.825299
0.82342
0.824142
0.850704
0.84609
0.846217
0.843892
0.838976
0.834249
0.832954
0.834853
0.841294
0.844783
0.850644
0.854358
0.851049
0.850171
0.850203
0.851597
0.854157
0.85488
0.854042
0.851517
0.851013
0.856222
0.851091
0.851105
0.856089
0.857852
0.857294
0.858912
0.859354
0.859577
0.8474
0.850556
0.851613
0.847171
0.849349
0.853404
0.855872
0.858526
0.857674
0.848426
0.853828
0.843934
0.840221
0.841066
0.835007
0.838044
0.839247
0.847268
0.848725
0.857648
0.858202
0.863432
0.861074
0.862563
0.864352
0.865898
0.869886
0.87842
0.875226
0.87018
0.857571
0.859145
0.853214
0.841302
0.828913
0.822928
0.822457
0.829167
0.840657
0.848147
0.851753
0.854426
0.853281
0.852237
0.851655
0.84632
0.838714
0.832653
0.822607
0.817017
0.814807
0.817847
0.819086
0.823909
0.831662
0.835866
0.841467
0.849269
0.851208
0.850932
0.86943
0.856861
0.844857
0.832098
0.828765
0.836897
0.847371
0.853066
0.855438
0.86379
0.867481
0.866206
0.862684
0.856949
0.849961
0.840531
0.840411
0.834444
0.831472
0.833812
0.841308
0.842531
0.84898
0.854713
0.859939
0.861563
0.86623
0.882265
0.908291
0.9047
0.831305
0.810158
0.813261
0.817494
0.817325
0.81513
0.808709
0.804481
0.792937
0.793833
0.779315
0.780663
0.772774
0.770988
0.777256
0.777924
0.781257
0.794282
0.796077
0.806937
0.809168
0.812795
0.81875
0.82836
0.838609
0.843778
0.839521
0.831358
0.826859
0.825083
0.844122
0.846172
0.847579
0.847676
0.847297
0.844302
0.842936
0.833022
0.837229
0.822884
0.822967
0.824981
0.823831
0.81872
0.82105
0.823554
0.824498
0.824511
0.825137
0.822894
0.817849
0.813527
0.81289
0.812404
0.810546
0.811765
0.810945
0.809132
0.804373
0.804294
0.814112
0.811221
0.808888
0.808936
0.812852
0.817277
0.817313
0.819839
0.814512
0.815661
0.813711
0.808364
0.814747
0.815894
0.817946
0.820253
0.829915
0.826901
0.836635
0.830388
0.831502
0.829
0.835266
0.835186
0.836858
0.829278
0.825899
0.822697
0.823438
0.830773
0.828113
0.827593
0.823912
0.820666
0.819962
0.809163
0.810696
0.80527
0.805451
0.801462
0.799266
0.795709
0.794791
0.796549
0.799067
0.799245
0.795184
0.789699
0.789527
0.792435
0.792904
0.79364
0.794144
0.794112
0.794258
0.792942
0.791887
0.791546
0.792174
0.791134
0.811091
0.802703
0.801297
0.799562
0.794611
0.789799
0.784652
0.780682
0.777938
0.779457
0.778166
0.784878
0.788323
0.796122
0.803348
0.810505
0.814477
0.814019
0.813804
0.815666
0.818514
0.819986
0.821691
0.8222
0.821054
0.820423
0.820116
0.82022
0.818868
0.822255
0.769999
0.793742
0.803831
0.779946
0.754693
0.736841
0.730717
0.727803
0.727103
0.724785
0.724601
0.723493
0.721434
0.725122
0.725355
0.725712
0.726208
0.727534
0.729508
0.733912
0.743043
0.753939
0.76024
0.764896
0.764652
0.762485
0.760323
0.759262
0.75339
0.739782
0.885909
0.865423
0.846206
0.839299
0.83873
0.840351
0.839384
0.837838
0.829099
0.816257
0.813984
0.823401
0.818803
0.800724
0.881744
0.881267
0.882211
0.884364
0.880037
0.862221
0.839795
0.821738
0.813018
0.809959
0.80984
0.817402
0.834818
0.861949
0.868022
0.859859
0.847708
0.842206
0.835539
0.834558
0.831908
0.83107
0.833231
0.836718
0.844448
0.854213
0.858207
0.858548
0.853266
0.864105
0.827417
0.819985
0.814456
0.812342
0.812968
0.812339
0.816785
0.821393
0.829138
0.830675
0.831322
0.836521
0.836246
0.831042
0.827005
0.823804
0.820416
0.820277
0.819934
0.820283
0.820939
0.81913
0.818739
0.820153
0.82083
0.824974
0.824949
0.826554
0.823696
0.823537
0.849325
0.844519
0.844321
0.842456
0.837899
0.83446
0.835527
0.835961
0.83976
0.846357
0.849673
0.851898
0.849939
0.845714
0.848491
0.852938
0.852552
0.851985
0.850378
0.847931
0.843919
0.845018
0.852742
0.85282
0.848769
0.852372
0.85787
0.85733
0.857661
0.85655
0.848916
0.852231
0.851664
0.849023
0.851912
0.854273
0.857896
0.859752
0.852775
0.848947
0.852513
0.837662
0.84391
0.833421
0.838327
0.83604
0.833847
0.843148
0.842371
0.856344
0.856172
0.863577
0.861606
0.862301
0.863575
0.864996
0.868058
0.877642
0.872135
0.86794
0.857706
0.858342
0.854234
0.846326
0.835982
0.828883
0.829376
0.836938
0.845504
0.851152
0.853604
0.853004
0.852762
0.851982
0.848977
0.839086
0.830318
0.82343
0.810235
0.808382
0.807299
0.805713
0.808424
0.811673
0.821907
0.832721
0.838057
0.843537
0.850041
0.849179
0.868528
0.856555
0.842215
0.828887
0.827387
0.834961
0.849823
0.853588
0.856883
0.864744
0.86794
0.864913
0.861113
0.852187
0.844887
0.835114
0.832936
0.825769
0.827484
0.829496
0.829522
0.837666
0.842547
0.849626
0.85541
0.859698
0.863515
0.877142
0.899963
0.900964
0.82054
0.809801
0.816899
0.819178
0.817237
0.813346
0.806589
0.800155
0.790688
0.784368
0.773965
0.774072
0.76766
0.769907
0.765796
0.7757
0.774017
0.786348
0.789773
0.803978
0.803992
0.812988
0.816147
0.823417
0.836712
0.842057
0.839019
0.831944
0.8244
0.826079
0.842984
0.844056
0.845711
0.846563
0.843856
0.84108
0.840273
0.832828
0.834958
0.8227
0.827394
0.818274
0.815601
0.821461
0.819777
0.824507
0.824152
0.825109
0.826607
0.824283
0.820811
0.816826
0.814758
0.813482
0.813437
0.811802
0.812217
0.809361
0.804891
0.803986
0.813834
0.810479
0.809644
0.811122
0.815463
0.818462
0.821247
0.817784
0.816786
0.816278
0.814746
0.811841
0.811225
0.809787
0.822255
0.813887
0.833794
0.824213
0.83773
0.830719
0.830634
0.831074
0.833562
0.837419
0.834598
0.827881
0.822366
0.822223
0.825696
0.8281
0.828878
0.829816
0.827038
0.825017
0.816196
0.811722
0.817338
0.807271
0.803207
0.801236
0.799719
0.797592
0.794341
0.794087
0.795769
0.798045
0.795386
0.787712
0.789175
0.790137
0.791341
0.791889
0.792733
0.793466
0.793272
0.793135
0.792489
0.791205
0.78979
0.790801
0.810651
0.801595
0.799569
0.796424
0.789953
0.783961
0.776986
0.771817
0.769298
0.768548
0.772853
0.774253
0.781372
0.788194
0.796801
0.805258
0.812557
0.815085
0.813959
0.815408
0.818288
0.820175
0.819928
0.822788
0.822301
0.820196
0.820217
0.819166
0.816635
0.82012
0.766639
0.788277
0.806193
0.776037
0.74894
0.733387
0.730245
0.726208
0.724782
0.723628
0.721316
0.722795
0.724827
0.719762
0.721299
0.723791
0.725644
0.727384
0.728371
0.730405
0.736823
0.750196
0.761104
0.764678
0.760093
0.747458
0.74422
0.742766
0.737882
0.735346
0.874811
0.851306
0.841265
0.838314
0.834974
0.834317
0.838728
0.841058
0.837338
0.82355
0.81423
0.821254
0.819281
0.800979
0.886224
0.880692
0.8858
0.887453
0.889466
0.879917
0.860939
0.842126
0.829665
0.819443
0.812864
0.820074
0.839067
0.865613
0.866711
0.853475
0.84259
0.839244
0.834566
0.832774
0.827897
0.826578
0.828994
0.831357
0.842058
0.849526
0.859172
0.859336
0.853618
0.863243
0.830329
0.822271
0.817319
0.812929
0.812907
0.81407
0.820211
0.825316
0.829974
0.831338
0.833569
0.837548
0.834656
0.828542
0.823792
0.821209
0.820198
0.822719
0.819481
0.819062
0.815678
0.816826
0.816943
0.820398
0.818698
0.824341
0.823631
0.827887
0.822892
0.824457
0.848838
0.843816
0.84318
0.842432
0.83874
0.836936
0.836851
0.838576
0.841838
0.845632
0.851144
0.85057
0.845906
0.846036
0.847131
0.852247
0.850569
0.848985
0.84828
0.849249
0.851023
0.843852
0.839834
0.848221
0.855853
0.851875
0.85241
0.852964
0.857064
0.856178
0.849767
0.851667
0.850945
0.851565
0.855059
0.856254
0.85925
0.858331
0.851943
0.850616
0.849379
0.837452
0.843951
0.832355
0.834556
0.83479
0.833678
0.844406
0.83812
0.855572
0.854365
0.863556
0.861368
0.862647
0.863325
0.864264
0.867736
0.875742
0.866527
0.863154
0.855027
0.857351
0.855326
0.851669
0.844791
0.840384
0.841701
0.847188
0.850702
0.852371
0.854083
0.853339
0.851247
0.851299
0.845092
0.831146
0.826216
0.813542
0.799496
0.799595
0.792141
0.791829
0.799833
0.807493
0.813158
0.826129
0.836649
0.841546
0.845629
0.849539
0.8713
0.856873
0.84315
0.830575
0.82751
0.835292
0.851516
0.854053
0.857159
0.866449
0.868073
0.864733
0.858941
0.851869
0.83993
0.831172
0.82631
0.819085
0.817445
0.818647
0.826822
0.829242
0.836932
0.847044
0.85338
0.858209
0.862404
0.874166
0.894435
0.896676
0.814979
0.813469
0.818776
0.81919
0.817123
0.812216
0.805082
0.798657
0.78656
0.781067
0.770248
0.765272
0.760647
0.758591
0.760515
0.767375
0.768864
0.786007
0.783387
0.799981
0.802365
0.81149
0.813252
0.823406
0.833091
0.83978
0.838583
0.8281
0.823588
0.827755
0.842391
0.841979
0.844005
0.843981
0.841321
0.839469
0.838056
0.830793
0.833898
0.820589
0.828431
0.81723
0.82273
0.817376
0.820429
0.823465
0.824287
0.827281
0.826432
0.82841
0.823218
0.820448
0.818193
0.815465
0.8132
0.812546
0.811449
0.810493
0.804769
0.803877
0.814024
0.809691
0.808103
0.814255
0.819165
0.819856
0.821542
0.818227
0.816384
0.819358
0.810837
0.812826
0.815131
0.810486
0.823763
0.813244
0.835292
0.824485
0.839313
0.830615
0.834896
0.83074
0.835465
0.838479
0.832603
0.824766
0.821401
0.823563
0.824674
0.830825
0.829856
0.83052
0.828825
0.825806
0.816736
0.81553
0.820115
0.806517
0.810554
0.806726
0.801797
0.795847
0.79252
0.791115
0.793958
0.795278
0.792821
0.785298
0.785664
0.787972
0.78817
0.788446
0.787953
0.788736
0.792432
0.793705
0.794031
0.793722
0.791975
0.79006
0.810644
0.801282
0.798325
0.794036
0.785899
0.779286
0.770766
0.767509
0.764158
0.765124
0.764096
0.770692
0.773388
0.782529
0.7914
0.800456
0.80927
0.81477
0.81389
0.814734
0.818191
0.819592
0.818491
0.820442
0.820551
0.820171
0.818534
0.817813
0.816306
0.819978
0.760975
0.777681
0.806573
0.77836
0.747451
0.733309
0.728206
0.726669
0.722544
0.725838
0.722379
0.722669
0.721319
0.725365
0.723979
0.722027
0.722136
0.723949
0.726777
0.728002
0.730646
0.743967
0.762399
0.766279
0.763959
0.741948
0.733016
0.732432
0.734116
0.736778
0.869169
0.850234
0.841886
0.831006
0.82144
0.817841
0.821335
0.828123
0.83019
0.820993
0.814733
0.820836
0.818611
0.800903
0.884042
0.883455
0.885272
0.891792
0.894552
0.896064
0.885023
0.868122
0.850038
0.830023
0.818061
0.823169
0.843256
0.868847
0.864048
0.848585
0.841578
0.838366
0.836118
0.829993
0.82464
0.822884
0.826092
0.829164
0.837462
0.850572
0.858912
0.860001
0.855337
0.865416
0.83103
0.825666
0.820487
0.818397
0.817893
0.820725
0.825327
0.829809
0.831631
0.831689
0.835063
0.837943
0.829812
0.825674
0.821547
0.820487
0.821046
0.822403
0.819242
0.820406
0.819407
0.819122
0.817082
0.820431
0.818192
0.824482
0.824908
0.825938
0.823944
0.824309
0.848175
0.84207
0.842714
0.842091
0.841116
0.838665
0.839403
0.841874
0.842026
0.847544
0.852779
0.849595
0.844986
0.844991
0.849809
0.85136
0.848721
0.848414
0.846923
0.841431
0.842289
0.847382
0.844277
0.838162
0.846355
0.846214
0.849397
0.855858
0.85267
0.855229
0.851369
0.854157
0.851843
0.856205
0.856824
0.858612
0.859682
0.855983
0.855169
0.847337
0.849546
0.836829
0.841688
0.828507
0.830795
0.830392
0.82724
0.842946
0.835263
0.855194
0.85395
0.863127
0.861013
0.861648
0.862959
0.863774
0.869834
0.869036
0.860471
0.857267
0.855245
0.858103
0.856683
0.854301
0.851936
0.850735
0.851385
0.852656
0.853679
0.853842
0.854086
0.853026
0.851708
0.850541
0.840193
0.828192
0.822765
0.803798
0.796651
0.793354
0.787694
0.78981
0.794657
0.806719
0.812093
0.821648
0.834184
0.842029
0.8447
0.84678
0.871552
0.857446
0.843252
0.830161
0.827659
0.835946
0.85304
0.855123
0.857483
0.866734
0.869558
0.86503
0.857874
0.852117
0.840357
0.827746
0.8264
0.816997
0.815965
0.817923
0.824901
0.827987
0.83553
0.844642
0.853482
0.857037
0.8622
0.873467
0.891264
0.891303
0.812735
0.815293
0.818405
0.819174
0.816772
0.812316
0.803864
0.797119
0.787141
0.779722
0.764813
0.766103
0.759092
0.761122
0.757681
0.767044
0.763279
0.78125
0.78048
0.799173
0.800268
0.809259
0.815299
0.822537
0.831332
0.840439
0.834759
0.826004
0.825367
0.822651
0.839325
0.840787
0.8415
0.841735
0.840586
0.835701
0.839945
0.829844
0.831092
0.824288
0.825197
0.819073
0.820471
0.819195
0.823628
0.821861
0.825999
0.826265
0.829511
0.829015
0.827375
0.822878
0.819868
0.816804
0.811797
0.808826
0.810982
0.807797
0.803815
0.802825
0.815977
0.808542
0.810388
0.816804
0.821688
0.822816
0.820594
0.81672
0.822721
0.815568
0.81121
0.813081
0.816997
0.810749
0.824944
0.816526
0.837002
0.826045
0.839412
0.836669
0.835645
0.833269
0.838405
0.839371
0.831826
0.821946
0.823439
0.825805
0.831589
0.834377
0.818656
0.82826
0.829675
0.826285
0.820184
0.816365
0.82246
0.815901
0.803207
0.804661
0.799959
0.798448
0.791898
0.788217
0.792919
0.79316
0.787889
0.782147
0.784547
0.785144
0.785065
0.784093
0.784405
0.785087
0.785785
0.789225
0.792311
0.794092
0.795727
0.794436
0.81006
0.802193
0.796696
0.79172
0.78403
0.776304
0.769712
0.764703
0.762886
0.76257
0.762995
0.76769
0.767918
0.779565
0.786797
0.797177
0.80641
0.813778
0.815548
0.814787
0.817388
0.819365
0.818529
0.818741
0.818565
0.819115
0.817442
0.81601
0.815067
0.81852
0.762255
0.76105
0.804456
0.785608
0.749778
0.733417
0.727416
0.72639
0.721613
0.725521
0.719035
0.723691
0.720165
0.719435
0.721169
0.723927
0.720629
0.721743
0.725996
0.727156
0.728254
0.736661
0.760179
0.76908
0.775954
0.754739
0.735739
0.736834
0.748335
0.768943
0.861385
0.845228
0.831338
0.813076
0.804981
0.807385
0.810708
0.816744
0.823389
0.81841
0.815712
0.82181
0.813151
0.802149
0.830254
0.866583
0.891163
0.883169
0.888947
0.892193
0.899583
0.902104
0.900967
0.890115
0.87026
0.842645
0.823117
0.82627
0.846784
0.869672
0.862975
0.846199
0.841633
0.840501
0.834576
0.825065
0.818581
0.818575
0.820422
0.828188
0.840275
0.85086
0.860067
0.859817
0.857317
0.868568
0.872332
0.852514
0.835254
0.828122
0.825736
0.823232
0.824359
0.826566
0.830696
0.832388
0.833541
0.834514
0.839041
0.837565
0.828023
0.824523
0.819778
0.82307
0.821405
0.822403
0.816913
0.818714
0.815318
0.816287
0.815083
0.81929
0.817881
0.824845
0.823542
0.828276
0.823958
0.827334
0.832576
0.839068
0.846214
0.842381
0.841857
0.842897
0.84164
0.841364
0.843026
0.842
0.844496
0.85127
0.852067
0.847773
0.844426
0.846563
0.850604
0.850633
0.847648
0.847105
0.844501
0.841986
0.839662
0.835174
0.841447
0.842132
0.843573
0.847296
0.845463
0.850952
0.852966
0.852144
0.841089
0.82996
0.849222
0.849735
0.853148
0.856655
0.857406
0.857904
0.85917
0.857245
0.855734
0.845585
0.851745
0.835977
0.842129
0.828005
0.830516
0.832678
0.826765
0.843629
0.834719
0.855846
0.853509
0.861682
0.860291
0.861082
0.862613
0.865239
0.867693
0.860206
0.854256
0.849639
0.846911
0.840334
0.852201
0.856508
0.85541
0.854946
0.854683
0.854118
0.853756
0.853379
0.853789
0.854664
0.85399
0.852586
0.852193
0.848629
0.838009
0.829758
0.817739
0.802421
0.800169
0.792659
0.789602
0.79111
0.796276
0.806889
0.81317
0.823634
0.832339
0.840259
0.844625
0.845523
0.846816
0.865632
0.873625
0.859406
0.846367
0.834386
0.829684
0.839456
0.854775
0.85455
0.857746
0.867347
0.869686
0.868554
0.859732
0.852707
0.845842
0.830542
0.824817
0.823315
0.818058
0.818038
0.825501
0.829106
0.836317
0.846439
0.852714
0.857411
0.86094
0.872909
0.887225
0.878417
0.815944
0.807588
0.812114
0.813041
0.816613
0.81855
0.817001
0.813281
0.8043
0.798392
0.790097
0.776399
0.767274
0.766487
0.759703
0.758017
0.758067
0.76574
0.763835
0.779964
0.779222
0.79694
0.800298
0.810698
0.816213
0.82259
0.833806
0.83641
0.829136
0.825201
0.823503
0.829913
0.827173
0.830994
0.838189
0.83563
0.838808
0.840921
0.837757
0.835417
0.840959
0.826562
0.834525
0.822963
0.828162
0.818107
0.818578
0.825172
0.824191
0.82385
0.827325
0.829939
0.830598
0.831707
0.829644
0.826132
0.820829
0.816214
0.809983
0.810314
0.809692
0.808071
0.805835
0.811568
0.813817
0.807354
0.807957
0.801998
0.810075
0.816362
0.820356
0.824591
0.822489
0.817302
0.824818
0.82095
0.814733