/*--------------------------------*- C++ -*----------------------------------*\
| =========                 |                                                 |
| \\      /  F ield         | OpenFOAM: The Open Source CFD Toolbox           |
|  \\    /   O peration     | Version:  2.1.1                                 |
|   \\  /    A nd           | Web:      www.OpenFOAM.org                      |
|    \\/     M anipulation  |                                                 |
\*---------------------------------------------------------------------------*/
FoamFile
{
    version     2.0;
    format      ascii;
    class       volScalarField;
    location    "0.006300000";
    object      G;
}
// * * * * * * * * * * * * * * * * * * * * * * * * * * * * * * * * * * * * * //

dimensions      [0 0 0 0 0 0 0];

internalField   nonuniform List<scalar> 
12384
(
1
1
1
1
1
1
1
1
1
1
1
1
1
1
1
1
1
1
1
1
1
1
1
1
1
1
1
1
1
0.999999
0.999998
0.999996
0.999993
0.999993
0.999996
0.999998
0.999999
1
1
1
1
1
1
1
1
1
1
1
1
1
1
1
1
1
1
0.999998
0.999991
0.999958
0.999905
0.999713
0.999595
0.99928
0.999425
0.999375
0.999685
0.999687
0.999892
0.999938
0.999985
0.999998
1
1
1
1
1
1
1
1
1
1
1
0.999998
0.999989
0.999955
0.99978
0.999219
0.997041
0.993189
0.980024
0.972912
0.944152
0.95212
0.948648
0.96701
0.972219
0.987433
0.992348
0.997947
0.999666
0.999985
1
1
1
1
1
1
0.999996
0.999954
0.99977
0.999238
0.9979
0.995649
0.994838
0.990497
0.993802
0.994363
0.997205
0.998203
0.998934
0.999405
0.999672
0.999843
0.999915
0.999933
0.999972
0.999994
1
1
1
1
1
1
1
1
1
1
1
1
1
1
1
1
1
0.999999
0.999995
0.999967
0.999865
0.999579
0.99929
0.99869
0.999282
0.999143
0.999749
0.999692
0.999905
0.999902
0.999966
0.999983
0.999994
0.999999
1
1
1
1
1
1
1
1
1
0.999996
0.999913
0.999213
0.995731
0.983233
0.958151
0.930356
0.86771
0.859069
0.836837
0.848561
0.862607
0.877317
0.90183
0.928624
0.953263
0.974777
0.990744
0.997125
0.997685
0.999427
0.999649
0.999843
0.999911
0.999852
1
1
1
1
0.999997
0.999949
0.999659
0.997868
0.996381
0.986213
0.987127
0.977243
0.984562
0.983406
0.991767
0.9925
0.997191
0.998383
0.999349
0.999788
0.999952
0.999993
1
1
1
1
1
1
1
1
1
1
0.999994
0.999818
0.998482
0.992299
0.982249
0.953982
0.942162
0.913744
0.92648
0.929756
0.957179
0.964639
0.980307
0.987548
0.994147
0.998043
0.999617
0.999915
0.999987
1
1
1
1
1
1
1
1
1
1
1
1
1
0.999993
0.999891
0.998933
0.99463
0.984353
0.955589
0.939387
0.88533
0.902272
0.88273
0.904895
0.912236
0.939805
0.959308
0.977751
0.98811
0.99629
0.999242
0.999983
1
1
1
1
1
1
1
1
1
0.999999
0.999993
0.999898
0.999043
0.994573
0.981975
0.954788
0.930566
0.886897
0.885733
0.883753
0.929866
0.938559
0.965618
0.978061
0.988058
0.994552
0.997675
0.999576
0.999986
1
1
1
1
1
1
1
1
1
1
0.999999
0.999995
0.999998
0.999991
0.999924
0.99985
0.999801
0.999736
0.999747
0.999482
0.99838
0.997559
0.997523
0.998304
0.998904
0.999228
0.999206
0.99864
0.99726
0.995395
0.991702
0.989443
0.990274
0.992455
0.995062
0.997607
0.99958
0.999999
1
1
1
1
1
0.999949
0.986034
0.999985
0.999993
0.999969
0.999917
0.999844
0.999763
0.999627
0.999534
0.999257
0.999556
0.999727
0.999928
0.999987
0.999999
1
1
1
1
1
1
1
1
1
1
1
1
1
1
1
1
1
1
1
1
1
1
1
1
1
1
1
1
1
1
1
1
1
1
1
0.999999
0.999988
0.999893
0.999312
0.997005
0.990777
0.980011
0.966794
0.956486
0.953873
0.961855
0.973861
0.985843
0.994023
0.998918
0.999964
1
1
1
1
1
1
1
0.999999
0.999999
0.999999
0.999998
0.999979
0.999828
0.998562
0.993186
0.972048
0.927855
0.846927
0.760801
0.671758
0.59828
0.552908
0.558073
0.555905
0.63803
0.721105
0.834179
0.935495
0.990163
0.99969
0.999999
1
1
0.999999
0.999993
0.999986
0.999973
0.999945
0.999887
0.999739
0.999136
0.996697
0.986516
0.948545
0.857264
0.692265
0.477957
0.315355
0.179572
0.117065
0.0784657
0.0721075
0.083082
0.113694
0.177717
0.302997
0.522502
0.805918
0.975038
0.999985
1
1
1
0.999981
0.998015
0.977529
0.910643
0.786166
0.630906
0.490144
0.32027
0.235976
0.19761
0.152632
0.150368
0.171593
0.218869
0.306125
0.441436
0.618008
0.814328
0.946295
0.993336
0.999718
0.999975
0.999972
0.999922
0.999874
0.999946
0.999979
0.999996
1
1
1
1
1
1
1
1
0.999972
0.998993
0.988885
0.94955
0.865748
0.747348
0.624539
0.511488
0.429232
0.392233
0.365971
0.397281
0.415505
0.534071
0.621705
0.760979
0.878191
0.958181
0.993072
0.999722
0.999999
1
1
1
1
1
1
0.999847
0.987593
0.89672
0.721293
0.465609
0.28752
0.144956
0.0673821
0.0347655
0.0176867
0.0133019
0.0115064
0.0123038
0.0154531
0.0222859
0.0371355
0.0824997
0.19668
0.434491
0.744308
0.864377
0.965541
0.99831
0.999435
0.998427
0.998186
1
1
1
0.999773
0.991598
0.939315
0.812981
0.607716
0.442173
0.270796
0.202476
0.143402
0.121254
0.127289
0.154663
0.206642
0.299726
0.426204
0.610575
0.799138
0.94626
0.994497
0.999853
0.999999
1
1
1
1
1
1
1
0.999983
0.995222
0.928589
0.739507
0.474193
0.278673
0.136282
0.0842963
0.0492799
0.0364762
0.0371038
0.0445859
0.0619011
0.106333
0.175624
0.304745
0.530638
0.809128
0.968034
0.997413
0.999962
0.999998
0.999995
0.999993
0.999998
1
1
1
1
1
1
1
0.999997
0.998029
0.949355
0.732405
0.450623
0.213142
0.0761558
0.0389232
0.0111723
0.00680472
0.00468431
0.00420276
0.00738876
0.0175992
0.0408978
0.102484
0.270376
0.55248
0.845522
0.982323
0.999814
1
1
1
1
1
1
1
1
1
0.999714
0.977993
0.836163
0.57266
0.325352
0.17701
0.0763048
0.0477079
0.0293369
0.0257429
0.0263672
0.0501955
0.0775174
0.159301
0.317259
0.547015
0.797487
0.954427
0.995771
0.999799
0.999973
0.999985
0.99999
0.999996
0.999998
0.999999
1
1
1
0.999999
0.999927
0.994601
0.904678
0.68165
0.53773
0.487068
0.476372
0.479606
0.504489
0.557671
0.638756
0.727624
0.820395
0.899601
0.950567
0.977759
0.98578
0.978243
0.955902
0.931663
0.876172
0.803079
0.779391
0.778106
0.833992
0.933484
0.999169
1
1
1
1
0.999968
0.906637
0.973204
0.994226
0.96405
0.87729
0.779279
0.70941
0.669888
0.665022
0.690333
0.738825
0.816203
0.883588
0.945251
0.980952
0.996543
0.99983
1
1
1
1
1
1
1
1
1
1
1
1
1
1
1
1
1
1
1
1
1
1
1
1
1
1
1
1
1
1
1
1
1
0.999999
0.999996
0.999973
0.999847
0.999316
0.99769
0.994024
0.987714
0.979973
0.974595
0.972333
0.976
0.982387
0.988331
0.9925
0.99659
0.999473
0.999991
1
1
1
1
1
1
1
1
0.999998
0.999973
0.999549
0.997782
0.992617
0.985519
0.969783
0.949662
0.908486
0.867344
0.806061
0.766129
0.709779
0.715241
0.690781
0.718242
0.750816
0.80761
0.878609
0.959341
0.995491
0.999925
1
1
0.999992
0.999992
0.999985
0.999945
0.999791
0.999238
0.997551
0.991948
0.97946
0.94676
0.886863
0.773698
0.642711
0.460418
0.342116
0.206656
0.142286
0.102007
0.0896044
0.0805684
0.109492
0.136836
0.208576
0.32423
0.533239
0.826286
0.991547
0.999999
1
1
0.999006
0.97113
0.881821
0.769817
0.671978
0.605924
0.487177
0.416771
0.360532
0.297246
0.25002
0.229313
0.250872
0.268783
0.304752
0.38089
0.492499
0.639337
0.817891
0.942437
0.992227
0.999616
0.999963
0.999985
0.99999
0.999979
0.999952
0.999974
1
1
1
1
1
1
1
0.999983
0.99939
0.994968
0.981239
0.952717
0.907985
0.846944
0.773599
0.710319
0.645222
0.613084
0.57512
0.608634
0.585014
0.644953
0.685705
0.758854
0.83669
0.91237
0.970305
0.995901
0.999904
1
1
1
1
1
0.999955
0.988339
0.945048
0.889221
0.794988
0.650414
0.445142
0.30134
0.179334
0.116596
0.0617241
0.0422162
0.031771
0.0239608
0.0218012
0.0226912
0.0297022
0.0438071
0.078269
0.179383
0.41682
0.68543
0.817928
0.967513
0.99949
0.999385
0.997493
1
1
0.999945
0.994178
0.947185
0.836773
0.705684
0.525067
0.421241
0.284188
0.233652
0.167823
0.159456
0.150583
0.159403
0.21533
0.26301
0.36166
0.472964
0.630378
0.809761
0.948189
0.99443
0.999824
0.999999
1
1
1
1
1
1
0.997618
0.931345
0.718024
0.497116
0.327957
0.183848
0.125041
0.0828182
0.048152
0.0423237
0.0360221
0.0440855
0.055767
0.0782851
0.114781
0.171161
0.285104
0.502221
0.789482
0.956059
0.996939
0.999979
1
1
1
1
1
1
1
1
1
1
0.999485
0.953765
0.713999
0.406779
0.201951
0.0853229
0.0324444
0.0170274
0.00417497
0.003763
0.00175815
0.00188467
0.0021145
0.00447526
0.0117833
0.036477
0.0906672
0.247378
0.556874
0.835762
0.982298
0.999948
1
1
1
1
1
1
1
0.999972
0.985572
0.819077
0.525835
0.284092
0.153972
0.0659473
0.0390761
0.0176865
0.0144511
0.0108746
0.0170265
0.0224936
0.0375461
0.0698637
0.131144
0.269441
0.481561
0.762661
0.947579
0.996024
0.999923
0.999997
0.999999
0.999994
0.999975
0.999976
1
0.999999
1
0.999975
0.996446
0.92336
0.712691
0.596812
0.570044
0.577172
0.577149
0.58439
0.60916
0.628827
0.663013
0.71592
0.773594
0.831862
0.880458
0.916402
0.93872
0.929404
0.908656
0.929433
0.9245
0.891256
0.888429
0.850402
0.812618
0.8571
0.996698
1
1
1
1
0.983024
0.940666
0.981122
0.939808
0.837904
0.740532
0.683416
0.65402
0.652789
0.654011
0.686713
0.730251
0.792148
0.854219
0.913149
0.956677
0.985398
0.997176
0.99989
1
1
1
1
1
1
1
1
1
1
1
1
1
1
1
1
1
1
1
1
1
1
1
1
1
1
1
1
1
1
0.999999
0.999997
0.999991
0.999964
0.999849
0.9995
0.998731
0.997636
0.996616
0.995938
0.995559
0.995277
0.99509
0.994811
0.994864
0.995023
0.995187
0.99597
0.998415
0.999892
1
1
1
1
1
1
1
1
0.999995
0.999817
0.997269
0.990753
0.980462
0.974986
0.965649
0.96017
0.944921
0.925659
0.898956
0.872704
0.843153
0.843203
0.83254
0.841975
0.835617
0.84906
0.874249
0.925941
0.982839
0.999053
1
1
0.999923
0.999979
0.999976
0.999908
0.999528
0.997729
0.990033
0.97089
0.929098
0.871169
0.770734
0.679326
0.567031
0.494318
0.392914
0.32213
0.232593
0.215195
0.161488
0.153642
0.142413
0.167516
0.194959
0.250871
0.404961
0.664864
0.933514
0.999775
1
1
0.988033
0.900013
0.772581
0.690271
0.667355
0.657258
0.631779
0.670739
0.600677
0.582181
0.519543
0.51287
0.469752
0.449391
0.433757
0.430496
0.468511
0.551505
0.69221
0.844273
0.953588
0.992052
0.999421
0.999982
1
0.999997
0.99991
0.999934
1
1
1
1
1
1
0.999997
0.999779
0.997617
0.990753
0.97778
0.957663
0.932368
0.900042
0.87012
0.831124
0.807914
0.780338
0.779623
0.775765
0.80818
0.794556
0.82451
0.838494
0.864274
0.901023
0.949082
0.986328
0.998989
0.999993
1
1
1
0.999999
0.996538
0.986872
0.974403
0.922795
0.807983
0.656979
0.464588
0.328393
0.300206
0.176534
0.148259
0.129263
0.0922038
0.0801253
0.0654379
0.0549453
0.045256
0.045475
0.0593922
0.0993577
0.222504
0.468826
0.678764
0.858822
0.993744
0.999407
0.997755
1
0.999999
0.998501
0.967063
0.8775
0.766862
0.66116
0.551078
0.493865
0.386231
0.328879
0.2906
0.241797
0.249322
0.245346
0.284999
0.326346
0.388569
0.453027
0.549157
0.682711
0.84796
0.962782
0.996324
0.999909
1
1
1
0.999999
1
0.999993
0.965628
0.775825
0.56291
0.372589
0.263381
0.190284
0.16049
0.0939701
0.0847523
0.0630138
0.0687289
0.0641699
0.08041
0.0948318
0.114759
0.138679
0.187088
0.305129
0.542274
0.822696
0.96332
0.998262
0.999993
1
1
1
1
1
1
1
1
0.999995
0.988274
0.800181
0.467842
0.232143
0.107979
0.0523154
0.0276346
0.012922
0.0055152
0.00429249
0.00186672
0.00142813
0.00178566
0.00279725
0.00879424
0.0157669
0.0437647
0.135522
0.302566
0.599673
0.898853
0.9941
0.999994
1
1
0.999999
1
1
1
0.998403
0.894196
0.560534
0.285817
0.139775
0.0649965
0.0366625
0.0194363
0.0178693
0.0121578
0.0123609
0.00972374
0.0161505
0.025356
0.0425726
0.0754979
0.13885
0.2701
0.5131
0.787866
0.961956
0.998319
0.999988
1
0.999994
0.999795
0.999664
1
0.999998
0.999997
0.999132
0.961041
0.774292
0.631059
0.626578
0.641113
0.652976
0.669019
0.67105
0.677148
0.68227
0.691908
0.69851
0.710477
0.736788
0.77921
0.818282
0.832772
0.820619
0.832724
0.882389
0.935741
0.956059
0.949871
0.905067
0.831134
0.790597
0.993798
1
1
1
0.997663
0.921675
0.958348
0.930134
0.83461
0.738521
0.68418
0.673313
0.688491
0.702845
0.73236
0.755313
0.78954
0.805853
0.851873
0.881641
0.928502
0.968608
0.993014
0.999368
0.999997
1
1
1
1
1
1
1
1
1
1
1
1
1
1
1
1
1
1
1
1
1
1
1
1
1
1
1
0.999999
0.999998
0.999992
0.999973
0.999903
0.999673
0.998997
0.99773
0.996755
0.99757
0.998872
0.999551
0.999796
0.999868
0.999854
0.999771
0.999513
0.998937
0.9979
0.996636
0.99717
0.999467
1
1
0.999999
1
1
1
1
1
0.999982
0.999309
0.992444
0.979249
0.965749
0.963121
0.961742
0.966875
0.964883
0.960553
0.951948
0.945476
0.926514
0.923649
0.917811
0.921701
0.91048
0.898911
0.889857
0.908654
0.960749
0.995059
1
1
0.999335
0.99992
0.99996
0.999878
0.999258
0.995255
0.979871
0.93304
0.865836
0.762445
0.664046
0.555902
0.521769
0.477487
0.504619
0.471557
0.506028
0.443944
0.386996
0.305913
0.278842
0.222917
0.207207
0.254174
0.342014
0.538044
0.854647
0.997482
1
0.999984
0.955394
0.821627
0.702473
0.655462
0.696613
0.747332
0.820174
0.876616
0.875251
0.875805
0.861621
0.803906
0.743668
0.674231
0.603807
0.547904
0.516941
0.535759
0.611882
0.753284
0.882314
0.960494
0.992673
0.999742
1
0.999999
0.999878
0.999885
1
1
1
1
1
1
0.999969
0.999088
0.994568
0.984134
0.966927
0.948099
0.930499
0.921852
0.915233
0.919073
0.916729
0.923634
0.915654
0.909185
0.925429
0.920655
0.923205
0.919582
0.914065
0.916152
0.937102
0.972512
0.995789
0.999918
1
1
1
0.999846
0.997106
0.994165
0.968327
0.849155
0.658328
0.533082
0.410385
0.465075
0.399441
0.415235
0.420497
0.347913
0.301472
0.239262
0.189085
0.141248
0.107097
0.0754766
0.0623238
0.0763093
0.121543
0.291112
0.542054
0.770191
0.977175
0.999351
0.998253
1
0.999972
0.990741
0.922842
0.820524
0.727704
0.657974
0.630133
0.600379
0.536234
0.543225
0.468315
0.463194
0.41583
0.416713
0.427687
0.436494
0.462311
0.491127
0.531596
0.604623
0.745052
0.900049
0.982146
0.998883
0.99999
1
1
0.999999
1
0.99993
0.893124
0.631286
0.473134
0.340884
0.2593
0.242519
0.208269
0.139448
0.150605
0.134762
0.11457
0.12974
0.121953
0.134252
0.143771
0.154553
0.160274
0.211672
0.360511
0.640041
0.881356
0.98141
0.999637
1
1
0.999999
1
1
1
1
1
0.99979
0.942988
0.630005
0.319852
0.151343
0.0659572
0.0504127
0.0359539
0.0182308
0.0178781
0.0149975
0.00829383
0.00662458
0.00506232
0.00682777
0.00635463
0.0137689
0.0405064
0.0739913
0.185098
0.45696
0.717161
0.948586
0.999577
1
0.999999
0.999999
1
0.999999
0.999992
0.983294
0.729312
0.348175
0.151217
0.068033
0.0384387
0.0248043
0.0214245
0.0113245
0.0133822
0.0113801
0.0154896
0.0160066
0.0230393
0.0331277
0.0563444
0.0874077
0.164817
0.314493
0.589547
0.863786
0.986614
0.999775
0.999997
0.999981
0.998712
0.997753
1
0.999995
0.999926
0.989762
0.866778
0.663411
0.627001
0.677829
0.700289
0.739376
0.762404
0.781773
0.801968
0.810328
0.783351
0.732361
0.676835
0.647081
0.669968
0.702268
0.690713
0.697053
0.748508
0.815766
0.947008
0.988052
0.983238
0.936855
0.822885
0.723431
0.992353
1
1
0.999764
0.960944
0.891079
0.938651
0.858581
0.751776
0.69404
0.707764
0.747497
0.78655
0.824628
0.849564
0.878543
0.894705
0.875134
0.891351
0.876543
0.908348
0.940109
0.984393
0.998816
0.999987
1
1
1
1
1
1
1
1
1
1
1
1
1
1
1
1
1
1
1
1
1
1
1
1
1
1
1
0.999999
0.999994
0.999972
0.999862
0.99943
0.998329
0.996074
0.993424
0.994169
0.998228
0.999751
0.999977
0.999998
1
1
0.999999
0.999988
0.999865
0.999156
0.997099
0.995873
0.998454
1
1
0.999996
1
1
1
1
1
0.999963
0.998539
0.986747
0.968211
0.952207
0.950522
0.96161
0.967884
0.978121
0.978991
0.980962
0.980143
0.978655
0.975802
0.969288
0.965902
0.954873
0.93585
0.908608
0.898892
0.934557
0.98391
0.999999
1
0.996358
0.999704
0.999939
0.99988
0.99923
0.994777
0.970243
0.90796
0.801002
0.691649
0.557625
0.490514
0.429013
0.475924
0.532101
0.701476
0.811881
0.832553
0.737441
0.618691
0.454199
0.322529
0.272773
0.27386
0.303106
0.481132
0.796536
0.989521
1
0.999829
0.917277
0.767161
0.655676
0.640119
0.719905
0.826041
0.924072
0.974226
0.985013
0.992481
0.987585
0.978076
0.949525
0.889976
0.789311
0.673212
0.584649
0.554795
0.600416
0.695375
0.815202
0.915506
0.971363
0.997833
0.99999
0.999998
0.999844
0.999918
1
1
1
1
1
0.999998
0.999864
0.997769
0.989407
0.96979
0.942281
0.923416
0.915409
0.927535
0.943268
0.967771
0.983963
0.990024
0.992871
0.989625
0.986166
0.981804
0.97798
0.966489
0.954749
0.939089
0.941888
0.96562
0.991581
0.999653
1
1
1
0.999485
0.998962
0.988545
0.910764
0.706649
0.495049
0.423407
0.439134
0.594882
0.649763
0.748698
0.776312
0.753664
0.695359
0.598141
0.472528
0.319494
0.211967
0.134264
0.086354
0.0754031
0.100301
0.210599
0.455477
0.724927
0.962909
0.998929
0.998863
1
0.999685
0.973883
0.877793
0.765295
0.692794
0.671123
0.680968
0.685019
0.730105
0.766193
0.763379
0.756659
0.734759
0.687793
0.629599
0.625054
0.562249
0.550887
0.55263
0.570784
0.669293
0.83306
0.960157
0.996814
0.999936
0.999999
0.999999
0.999999
1
0.99966
0.803617
0.578668
0.42013
0.304923
0.307586
0.295108
0.249737
0.312465
0.327092
0.319452
0.319553
0.264116
0.255102
0.213214
0.20702
0.187235
0.171275
0.174352
0.271126
0.487664
0.777496
0.945828
0.996551
0.999981
0.999999
0.999997
1
1
1
1
1
0.998019
0.885641
0.514434
0.222158
0.0975111
0.0500709
0.0611253
0.0433461
0.0529696
0.0933681
0.0740482
0.0612731
0.0391645
0.0299045
0.0143501
0.0141454
0.0283628
0.031304
0.062862
0.167042
0.330229
0.657182
0.918801
0.996456
0.999992
0.999998
0.999999
1
0.999998
0.999864
0.943643
0.556834
0.209693
0.0883199
0.0374196
0.0271444
0.0200421
0.0285004
0.0514395
0.0525937
0.0519937
0.0415715
0.0372793
0.0348033
0.0302184
0.0526259
0.0635247
0.116355
0.201836
0.423716
0.73656
0.956684
0.998585
0.99997
0.999849
0.993233
0.990149
0.999998
0.999987
0.999016
0.957183
0.753575
0.622775
0.663115
0.72137
0.760279
0.823317
0.86689
0.919446
0.947759
0.940073
0.902091
0.80932
0.68827
0.588929
0.57862
0.609223
0.584491
0.588112
0.668285
0.765348
0.940447
0.997933
0.995252
0.937354
0.779539
0.672746
0.99282
1
0.999997
0.995082
0.887658
0.931078
0.895662
0.790256
0.721691
0.729527
0.779213
0.83304
0.888853
0.9343
0.965142
0.969505
0.972203
0.952365
0.937316
0.899102
0.903775
0.914127
0.967817
0.997131
0.999982
1
1
1
1
1
1
1
1
1
1
1
1
1
1
1
1
1
1
1
1
1
0.999999
1
1
1
1
1
0.999999
0.999993
0.999958
0.999718
0.998618
0.995348
0.990061
0.985764
0.992322
0.998888
0.999931
0.999998
1
1
1
1
1
0.999982
0.999609
0.997437
0.994069
0.996492
1
1
0.99998
1
1
1
1
1
0.999953
0.997887
0.983588
0.960195
0.942264
0.941989
0.959301
0.970125
0.982963
0.987639
0.992216
0.995414
0.99755
0.997393
0.996088
0.989171
0.980354
0.955756
0.922096
0.891035
0.907469
0.965581
0.999999
0.999999
0.987291
0.999086
0.999915
0.999915
0.999507
0.994648
0.965293
0.881342
0.767924
0.63828
0.526683
0.41646
0.382589
0.409972
0.516671
0.788407
0.9667
0.993476
0.973261
0.865859
0.645782
0.448573
0.340861
0.279404
0.30941
0.465849
0.757327
0.983455
1
0.999459
0.893139
0.737387
0.622356
0.625139
0.729439
0.871152
0.958987
0.994958
0.999508
0.999952
0.999897
0.998968
0.992202
0.96713
0.891184
0.787905
0.666717
0.609399
0.616708
0.693229
0.790345
0.878334
0.953801
0.992495
0.999882
0.999976
0.999813
0.999937
1
1
0.999998
1
1
0.999994
0.999637
0.995868
0.980777
0.947809
0.907068
0.885837
0.888047
0.918505
0.950434
0.987539
0.997765
0.999818
0.999963
0.999942
0.999628
0.998133
0.995265
0.989668
0.975161
0.957152
0.942878
0.954493
0.984172
0.998956
1
1
0.999983
0.999719
0.997972
0.97449
0.812009
0.533141
0.377044
0.351774
0.439522
0.669577
0.756802
0.917035
0.952944
0.984977
0.984043
0.937328
0.810692
0.605378
0.39577
0.213786
0.119227
0.0800192
0.0927258
0.157122
0.378984
0.727792
0.971845
0.999112
0.999625
1
0.998238
0.95107
0.820718
0.703192
0.644203
0.654561
0.67623
0.744324
0.843986
0.910063
0.955449
0.983071
0.974178
0.946714
0.840803
0.802327
0.678996
0.606208
0.583995
0.559367
0.624768
0.787676
0.939877
0.994779
0.999878
0.999997
0.999999
1
1
0.998691
0.745507
0.530716
0.3972
0.294606
0.3152
0.340212
0.352292
0.535183
0.636673
0.754935
0.748039
0.661034
0.481437
0.393619
0.279303
0.251154
0.181137
0.182005
0.22323
0.402441
0.699395
0.913724
0.9928
0.999893
0.999994
0.999999
1
1
1
1
0.999999
0.993846
0.840785
0.429103
0.162121
0.0687129
0.0466168
0.0632765
0.0596826
0.152886
0.282272
0.368911
0.417269
0.312825
0.129188
0.0731424
0.0544422
0.0340236
0.0464772
0.0911902
0.139359
0.298031
0.571371
0.86666
0.992909
0.99996
0.999998
1
1
0.999994
0.999111
0.881544
0.416833
0.137078
0.0574084
0.026085
0.0226045
0.0266417
0.0517196
0.0737774
0.152856
0.203154
0.213335
0.116233
0.0838564
0.0435679
0.0553493
0.0513859
0.0937591
0.142113
0.319091
0.622351
0.917335
0.996118
0.999873
0.998896
0.973341
0.962254
0.999973
0.999971
0.993898
0.901714
0.675845
0.628971
0.698393
0.766292
0.825032
0.90409
0.953694
0.986653
0.993599
0.990052
0.971359
0.881117
0.729573
0.562106
0.534295
0.581875
0.545218
0.544243
0.625875
0.750412
0.92499
0.994888
0.983855
0.864086
0.71054
0.67484
0.995304
1
0.999994
0.984349
0.935205
0.928864
0.857905
0.766008
0.743775
0.774484
0.833555
0.908578
0.968688
0.992314
0.998144
0.998645
0.996745
0.984487
0.967199
0.918591
0.90412
0.896879
0.95124
0.99351
0.999969
1
1
1
1
1
1
1
1
1
1
1
1
1
1
1
1
1
1
1
1
1
0.999995
1
1
1
1
1
1
0.999998
0.999985
0.999878
0.998822
0.993616
0.985645
0.981982
0.992938
0.999248
0.999963
0.999999
1
1
1
1
1
0.999993
0.999662
0.996844
0.991494
0.994416
1
1
0.999913
0.999999
1
1
1
1
0.99996
0.998024
0.983594
0.956417
0.940678
0.936512
0.956525
0.969513
0.98356
0.989869
0.996323
0.999007
0.999882
0.999979
0.99988
0.997912
0.990185
0.967054
0.925025
0.886891
0.886501
0.951691
1
0.999998
0.970408
0.997155
0.999891
0.999971
0.999821
0.997057
0.973094
0.899579
0.773046
0.649958
0.509498
0.407874
0.331979
0.367012
0.437199
0.721925
0.945474
0.994606
0.991819
0.921845
0.724022
0.523876
0.363422
0.302819
0.334538
0.463266
0.760954
0.983593
0.999999
0.999178
0.891171
0.73119
0.605524
0.605648
0.720622
0.869741
0.953053
0.995703
0.999868
0.999999
1
0.999962
0.998674
0.987475
0.938895
0.847959
0.753309
0.66281
0.677019
0.712878
0.780398
0.874094
0.944345
0.991471
0.999592
0.999921
0.9998
0.999969
1
0.999999
0.999988
0.999999
1
0.999985
0.999386
0.993428
0.971281
0.922008
0.866142
0.838364
0.84509
0.886381
0.939157
0.986772
0.998947
0.999987
1
1
0.999998
0.999896
0.99874
0.995384
0.984788
0.962115
0.94685
0.952843
0.981676
0.998722
1
0.999999
0.99987
0.999676
0.995746
0.946961
0.73756
0.424578
0.243773
0.297241
0.374256
0.608287
0.727175
0.927503
0.974781
0.998981
0.999929
0.997775
0.931997
0.738799
0.484506
0.276177
0.14033
0.0831274
0.0911562
0.150801
0.376907
0.760045
0.977998
0.999661
0.999987
0.999996
0.992672
0.914039
0.75552
0.633552
0.584025
0.590268
0.643873
0.724428
0.841549
0.926469
0.988889
0.999762
0.999994
0.997879
0.967003
0.886244
0.767819
0.644879
0.609272
0.543376
0.608686
0.762832
0.933938
0.995196
0.999933
0.999999
0.999993
0.999972
1
0.996077
0.711033
0.49686
0.355173
0.306688
0.275681
0.342802
0.409172
0.619907
0.814764
0.974531
0.996969
0.952134
0.775603
0.528741
0.414172
0.2642
0.231796
0.176524
0.225188
0.376128
0.649222
0.909988
0.992035
0.999883
0.999998
1
1
1
1
0.999998
0.999945
0.988284
0.812046
0.387353
0.130759
0.0585526
0.0442566
0.0545006
0.0702359
0.231094
0.412179
0.750961
0.946694
0.827245
0.471374
0.236647
0.0952231
0.0672894
0.0837826
0.0939308
0.156582
0.309026
0.555574
0.862179
0.994803
0.999977
0.999999
0.999999
0.999999
0.999973
0.995346
0.80181
0.331588
0.099358
0.0405613
0.0182286
0.0186532
0.0243371
0.064724
0.135246
0.344495
0.606322
0.705767
0.292384
0.207462
0.0573615
0.066938
0.0431423
0.082012
0.112919
0.253378
0.540724
0.878237
0.992272
0.999574
0.99534
0.933441
0.889506
0.999374
0.999944
0.982088
0.853154
0.649784
0.656197
0.737726
0.816424
0.872338
0.950233
0.986886
0.999069
0.999933
0.999666
0.992081
0.930977
0.76418
0.566192
0.53714
0.589526
0.524481
0.579793
0.660703
0.743161
0.894494
0.952474
0.890178
0.759499
0.665548
0.755022
0.998207
1
0.999997
0.995632
0.964953
0.928928
0.848353
0.773574
0.779236
0.825107
0.9024
0.969434
0.996118
0.999871
0.999999
0.999996
0.99978
0.993145
0.974606
0.924693
0.899078
0.881844
0.935094
0.989631
0.999928
1
1
1
1
1
1
1
1
1
1
1
1
1
1
1
1
1
1
1
1
1
1
0.999821
0.999988
1
1
1
1
1
1
1
1
0.999995
0.999775
0.994939
0.983132
0.979517
0.993557
0.999294
0.999952
0.999999
1
1
1
1
1
0.999987
0.999467
0.995259
0.988505
0.990806
0.999231
0.999998
0.999998
0.99967
0.999837
0.999998
1
1
1
1
0.99998
0.998764
0.98649
0.962266
0.943117
0.937048
0.952626
0.967262
0.97876
0.988786
0.995725
0.999327
0.999973
0.999999
0.999984
0.999089
0.990597
0.967389
0.918341
0.874184
0.883334
0.933609
0.997493
0.999999
0.999996
0.9911
0.949451
0.991599
0.999829
0.999988
0.999959
0.998822
0.983015
0.915983
0.818235
0.698307
0.576225
0.436705
0.355459
0.339387
0.36865
0.537141
0.759069
0.918277
0.942262
0.881094
0.690248
0.533392
0.376495
0.33453
0.362193
0.510257
0.811419
0.982211
0.999618
0.999994
0.999962
0.985848
0.898704
0.740452
0.60579
0.587423
0.68575
0.82066
0.909007
0.978929
0.997155
0.999707
0.999942
0.999673
0.997154
0.983625
0.944773
0.872318
0.785715
0.737461
0.725947
0.769912
0.82551
0.900658
0.962706
0.994278
0.99966
0.999753
0.999673
0.999864
0.999978
1
0.999995
0.999543
0.999893
0.999992
0.999997
0.999969
0.999247
0.992901
0.966672
0.906752
0.837099
0.787645
0.787092
0.828358
0.905711
0.969962
0.995352
0.999776
0.999997
1
0.999997
0.999928
0.999016
0.994745
0.982658
0.962133
0.938571
0.948895
0.979986
0.998649
0.999986
0.999997
0.999745
0.983631
0.99756
0.998311
0.990438
0.931232
0.683205
0.386687
0.178133
0.197445
0.272333
0.460483
0.564706
0.818172
0.887539
0.98057
0.994357
0.985003
0.908306
0.689996
0.468429
0.237773
0.134675
0.081909
0.0948048
0.161336
0.420564
0.823161
0.996946
0.999937
0.99936
0.999905
0.999747
0.987735
0.958231
0.840587
0.678246
0.560584
0.507796
0.513319
0.564061
0.64438
0.73096
0.843873
0.938304
0.991484
0.998921
0.993866
0.965898
0.881201
0.75601
0.658587
0.591588
0.544848
0.598538
0.763525
0.934145
0.995549
0.999921
0.999816
0.991029
0.963565
0.97384
0.999606
0.998877
0.885738
0.667712
0.463225
0.325617
0.282974
0.255232
0.28424
0.342156
0.513503
0.66838
0.913029
0.986389
0.965217
0.795407
0.616786
0.408598
0.318854
0.229263
0.200798
0.2415
0.375342
0.677882
0.918921
0.995687
0.999977
1
1
1
0.999996
0.999801
0.999894
0.999843
0.997126
0.997977
0.975519
0.791412
0.381875
0.13262
0.0518617
0.0394711
0.0474532
0.0612484
0.191114
0.375196
0.663873
0.914594
0.891555
0.653938
0.312619
0.150366
0.118585
0.0929552
0.118768
0.185581
0.309118
0.575647
0.887898
0.997409
0.999999
0.999999
0.999859
0.998233
0.999871
0.999833
0.996214
0.975108
0.711008
0.277087
0.0818308
0.0306409
0.0138868
0.0147085
0.0182671
0.0461402
0.0901788
0.304032
0.669677
0.886134
0.44951
0.239701
0.0689904
0.0721472
0.0389643
0.0722241
0.1009
0.222905
0.485244
0.837839
0.985483
0.998802
0.99305
0.926234
0.850083
0.941981
0.999979
0.99997
0.990155
0.953058
0.806532
0.657381
0.689178
0.781682
0.850277
0.909333
0.968938
0.99557
0.999925
1
0.999978
0.996168
0.946398
0.787106
0.599938
0.574262
0.68158
0.604931
0.663029
0.743969
0.77599
0.821571
0.837115
0.716752
0.623518
0.582591
0.674672
0.927506
1
1
0.999913
0.999849
0.996964
0.976071
0.934314
0.86103
0.814804
0.81816
0.872909
0.942877
0.986536
0.999141
0.999997
1
0.999999
0.999717
0.991114
0.968773
0.912592
0.883749
0.871258
0.925006
0.986885
0.999861
1
1
1
1
1
1
1
1
1
1
1
1
1
1
1
1
1
1
1
1
1
1
1
1
0.99985
0.999987
1
1
1
1
1
1
1
1
1
0.999992
0.998291
0.987761
0.983595
0.994539
0.999179
0.999894
0.999992
1
1
1
1
0.999999
0.99993
0.998582
0.99148
0.98134
0.984042
0.997055
0.999958
0.999979
0.999598
0.999825
0.999993
1
1
1
1
0.999995
0.999445
0.992207
0.973061
0.952362
0.943318
0.953224
0.961479
0.972456
0.979876
0.990348
0.997098
0.999549
0.999885
0.999565
0.996905
0.983015
0.955319
0.909076
0.88466
0.906723
0.962799
0.996784
0.999989
0.999945
0.974714
0.931693
0.982394
0.999559
0.999994
0.999994
0.99977
0.992427
0.951823
0.877382
0.779066
0.656096
0.536079
0.420017
0.35165
0.343009
0.395289
0.517819
0.623092
0.686255
0.654901
0.605875
0.454285
0.38107
0.388297
0.42105
0.592595
0.868329
0.985438
0.999325
0.999997
0.999974
0.988664
0.919585
0.781066
0.631644
0.577117
0.626668
0.735654
0.822678
0.905356
0.957477
0.974869
0.986217
0.986475
0.975961
0.955282
0.917596
0.867216
0.815547
0.794316
0.788223
0.810934
0.858361
0.931871
0.983638
0.998911
0.99996
0.999985
0.999979
0.999995
0.999994
0.999975
0.999884
0.999183
0.999725
0.999962
0.999993
0.999972
0.999552
0.995089
0.972573
0.914347
0.823493
0.750853
0.733953
0.756511
0.815695
0.905403
0.972001
0.993397
0.998565
0.999456
0.999466
0.998497
0.996415
0.985431
0.971353
0.94464
0.939835
0.956118
0.990418
0.999525
0.999916
0.995771
0.960488
0.960572
0.99635
0.997831
0.990846
0.94418
0.730675
0.377881
0.160058
0.137342
0.147057
0.288879
0.323616
0.529365
0.566746
0.717183
0.756171
0.724073
0.625598
0.438778
0.30108
0.150269
0.0931052
0.0772486
0.101523
0.184363
0.459718
0.87267
0.997658
0.998989
0.994039
0.990366
0.992966
0.992748
0.958778
0.830989
0.652412
0.515227
0.452512
0.440072
0.464305
0.513209
0.565571
0.642254
0.717685
0.818354
0.869439
0.850186
0.840606
0.747987
0.679131
0.603198
0.55389
0.528433
0.605239
0.75751
0.925088
0.992919
0.999845
0.999906
0.998507
0.991166
0.983295
0.979619
0.966496
0.851995
0.64377
0.444783
0.305366
0.259015
0.217569
0.209916
0.227182
0.299087
0.377766
0.486147
0.588963
0.597509
0.561581
0.451962
0.360343
0.282339
0.248109
0.222571
0.271326
0.450321
0.718716
0.943029
0.998396
0.999999
1
0.999998
0.999934
0.999616
0.998596
0.998155
0.998404
0.999229
0.999455
0.985341
0.84377
0.445527
0.169042
0.0616466
0.0330511
0.0400848
0.0462837
0.08234
0.18656
0.332735
0.46338
0.512087
0.403052
0.221499
0.16107
0.117329
0.119808
0.152047
0.20386
0.353768
0.631463
0.926506
0.999271
0.999999
0.999982
0.999512
0.998252
0.998762
0.999219
0.999182
0.983359
0.737238
0.292068
0.0828327
0.0287322
0.0123534
0.0112758
0.0104077
0.0211677
0.0287478
0.0758352
0.134409
0.304288
0.12832
0.152981
0.0439496
0.0708606
0.0325936
0.0723765
0.0985268
0.210014
0.465576
0.8062
0.978716
0.999112
0.99897
0.977626
0.927002
0.964397
0.994818
0.995671
0.983357
0.957209
0.827633
0.720562
0.735126
0.827481
0.878219
0.936184
0.970527
0.995634
0.999733
0.999961
0.999658
0.992033
0.938446
0.788297
0.63592
0.645956
0.762703
0.723742
0.776153
0.827755
0.807681
0.746428
0.671542
0.531811
0.415698
0.449612
0.690614
0.944077
0.993682
0.998543
0.999672
0.999814
0.998866
0.990153
0.960844
0.899081
0.853534
0.86546
0.9061
0.956279
0.988904
0.998748
0.999907
0.999963
0.999543
0.996329
0.974998
0.940438
0.891698
0.850271
0.862964
0.924743
0.988156
0.999852
1
1
1
0.999999
1
1
1
1
1
1
1
1
1
1
1
1
1
1
1
1
1
1
1
1
0.999973
0.999981
1
1
1
1
1
1
1
1
1
1
0.999806