/*--------------------------------*- C++ -*----------------------------------*\
| =========                 |                                                 |
| \\      /  F ield         | OpenFOAM: The Open Source CFD Toolbox           |
|  \\    /   O peration     | Version:  2.1.1                                 |
|   \\  /    A nd           | Web:      www.OpenFOAM.org                      |
|    \\/     M anipulation  |                                                 |
\*---------------------------------------------------------------------------*/
FoamFile
{
    version     2.0;
    format      ascii;
    class       volScalarField;
    location    "0.006300000";
    object      O;
}
// * * * * * * * * * * * * * * * * * * * * * * * * * * * * * * * * * * * * * //

dimensions      [0 0 0 0 0 0 0];

internalField   nonuniform List<scalar> 
12384
(
0.00108702
0.00108059
0.00108133
0.00105974
0.00104398
0.00101333
0.00100446
0.000982501
0.000989286
0.000980943
0.000991553
0.000986315
0.00097702
0.000928029
0.000318898
0.000397104
0.000441673
0.000469434
0.000498988
0.000514228
0.000522264
0.000517844
0.000520283
0.000519802
0.000523151
0.000529569
0.0005328
0.000537927
0.000541007
0.000541899
0.000546994
0.000545167
0.000543822
0.000542637
0.000547268
0.000541587
0.000549066
0.000554424
0.000556595
0.000551934
0.000543575
0.000489774
0.000324681
0.000300289
0.000403011
0.000441263
0.000440747
0.000396103
0.000364113
0.000325379
0.000294912
0.000267139
0.000241144
0.000215088
0.000194691
0.000173478
0.000160755
0.000155335
0.000151819
0.000148541
0.000151658
0.000151781
0.000165377
0.000163751
0.00017936
0.000175014
0.000199224
0.000207743
0.00023739
0.000279527
0.00034281
0.000421323
0.000401006
0.000354554
0.000164516
0.000158513
0.000148847
0.000150601
0.000153378
0.000151633
0.000151431
0.000156027
0.000153941
0.000155103
0.000160677
0.00016003
0.00015193
0.000152102
0.000143324
0.000149545
0.000134817
0.000145543
0.000134836
0.000137152
0.000139252
0.000142063
0.000140702
0.000141701
0.000143763
0.000141883
0.000135011
0.000113696
0.000112227
0.000103259
5.3669e-05
6.68257e-05
8.72351e-05
0.0001039
0.000113828
0.000118348
8.40998e-05
9.34868e-05
0.000104548
8.90486e-05
0.000102262
9.30557e-05
0.000102373
0.000101857
0.000103337
9.00132e-05
8.18525e-05
8.75412e-05
6.09466e-05
5.73544e-05
0.000109044
0.00016145
0.000133388
0.000110702
0.000105256
9.0589e-05
9.43456e-05
9.47291e-05
0.000103392
0.000113485
1.42767e-05
8.55322e-06
8.65742e-06
1.32856e-05
1.75952e-05
1.93305e-05
2.0037e-05
1.95806e-05
2.0067e-05
1.93316e-05
1.88308e-05
1.86602e-05
1.85231e-05
1.8533e-05
1.93332e-05
1.84139e-05
2.01433e-05
1.97722e-05
2.17188e-05
2.21317e-05
2.52727e-05
2.45238e-05
2.8143e-05
3.06439e-05
3.28261e-05
3.41594e-05
3.72302e-05
2.34741e-05
3.37491e-05
2.38444e-05
5.05603e-05
6.29316e-05
6.60467e-05
4.85009e-05
2.08791e-05
3.61382e-05
3.40482e-05
2.23246e-05
2.13264e-05
1.92971e-05
1.8989e-05
2.8844e-05
2.152e-05
2.6023e-05
3.08299e-05
2.3643e-05
2.45943e-05
2.47171e-05
2.53964e-05
2.55425e-05
2.46285e-05
3.1239e-05
3.19758e-05
5.18e-05
0.000178907
0.000191162
0.000190183
0.000189524
0.000187949
0.000186327
6.24987e-05
3.39115e-05
1.98285e-05
1.51198e-05
1.51332e-05
1.48767e-05
1.51885e-05
1.49077e-05
1.41192e-05
1.28766e-05
1.38819e-05
1.37831e-05
1.29471e-05
1.3621e-05
1.51881e-05
1.44533e-05
1.66318e-05
1.78002e-05
1.76427e-05
1.88852e-05
1.92788e-05
2.19447e-05
3.32311e-05
3.53688e-05
3.03287e-05
3.29211e-05
3.04949e-05
2.93426e-05
2.30187e-05
2.49794e-05
3.43686e-05
2.21536e-05
2.08007e-05
2.00234e-05
2.1439e-05
2.469e-05
2.72066e-05
2.60941e-05
2.90983e-05
2.53076e-05
2.81517e-05
2.8078e-05
3.16137e-05
2.99823e-05
3.33018e-05
3.59691e-05
3.35244e-05
3.55906e-05
2.2534e-05
7.45394e-06
2.19416e-06
2.21278e-06
2.68332e-06
3.64203e-06
3.96703e-06
4.00107e-06
3.46682e-06
2.49572e-06
2.23991e-06
1.69274e-06
4.79939e-05
1.46008e-05
1.65308e-05
1.5859e-05
1.61863e-05
1.70574e-05
1.90744e-05
1.91019e-05
8.26668e-06
1.05602e-05
1.43685e-05
1.16918e-05
1.52942e-05
1.44935e-05
1.06658e-05
1.5285e-05
1.18668e-05
1.41583e-05
1.143e-05
1.19268e-05
1.34773e-05
1.61249e-05
7.22589e-06
5.83716e-06
6.51502e-06
6.97263e-06
7.37404e-06
5.35546e-06
7.28014e-06
6.59313e-06
6.45143e-06
4.7708e-06
6.07179e-06
6.79648e-06
7.08531e-06
7.33277e-06
7.21605e-06
6.95761e-06
8.18055e-06
8.6057e-06
6.94655e-06
7.64035e-06
7.55929e-06
9.17815e-06
7.94928e-06
1.00432e-05
9.50828e-06
1.07642e-05
1.00011e-05
1.10456e-05
7.50479e-06
5.57024e-06
4.24403e-06
3.69613e-06
3.44295e-06
3.50294e-06
3.88923e-06
4.10767e-06
4.23493e-06
4.38925e-06
7.90695e-06
7.0775e-06
7.53433e-06
5.96844e-06
2.7288e-06
6.42294e-06
4.07878e-06
4.01411e-06
9.14804e-06
8.44287e-06
7.49936e-06
6.86029e-06
6.76785e-06
6.79585e-06
7.07347e-06
7.39447e-06
7.59694e-06
8.66032e-06
8.65138e-06
8.34618e-06
7.85908e-06
7.61496e-06
6.88753e-06
7.61085e-06
7.41164e-06
7.44887e-06
7.37721e-06
7.14384e-06
5.63201e-06
5.06911e-06
6.48607e-06
5.84502e-06
5.38818e-06
3.79852e-05
0.000171511
5.01374e-05
9.37206e-05
9.59093e-07
1.95758e-07
1.09351e-07
1.91375e-07
3.10501e-07
3.51819e-07
2.28152e-07
3.17007e-07
3.37838e-07
4.78463e-07
6.32816e-07
7.40005e-07
6.90176e-07
8.97461e-07
9.54229e-07
7.87619e-07
5.14733e-07
2.9385e-07
2.0377e-07
1.46305e-07
1.43403e-07
2.01773e-07
1.46816e-06
0.00102885
0.00103996
0.00103035
0.00100389
0.000948511
0.000898876
0.000870976
0.00084653
0.000852411
0.000863804
0.00091635
0.00095726
0.000977881
0.00094202
0.000318765
0.000408124
0.000456501
0.000505655
0.000554514
0.000536139
0.000514097
0.000502655
0.000512942
0.0005169
0.000525015
0.000518375
0.000516973
0.000507472
0.000504186
0.00047186
0.000458921
0.00045045
0.000453767
0.000466661
0.0004852
0.000510651
0.000536476
0.000557754
0.000585219
0.000568712
0.000558799
0.000521224
0.000432176
0.000348468
0.000408583
0.00044366
0.000418547
0.000362408
0.000327861
0.000293021
0.000268147
0.000240416
0.000218352
0.00017903
0.000150296
0.000110322
8.84216e-05
7.56137e-05
7.98569e-05
8.36125e-05
9.95812e-05
0.000115205
0.000129495
0.00014175
0.000153958
0.000157119
0.000159352
0.000170578
0.000184641
0.000222902
0.000293263
0.000379504
0.000424328
0.000395658
0.000162581
0.000154203
0.000150282
0.000152319
0.000164003
0.000169078
0.000169655
0.000167434
0.00016154
0.000155917
0.000152723
0.000155725
0.000154639
0.000160127
0.000155913
0.000163076
0.000157106
0.000162155
0.000157657
0.000159545
0.000160996
0.00015411
0.000151737
0.000149284
0.00014234
0.000147077
0.000143525
0.000134967
0.000101627
9.5027e-05
4.40687e-05
7.41768e-05
0.000104473
0.000121727
0.000119326
0.000140121
0.000155542
0.000180863
0.000178739
0.00018258
0.00018414
0.000173373
0.000180522
0.000180611
0.000167384
0.000157043
0.00013861
9.94173e-05
8.16921e-05
6.29611e-05
7.20959e-05
0.000143167
0.00012617
7.9119e-05
5.95736e-05
5.09775e-05
4.85847e-05
4.36006e-05
4.61587e-05
6.49133e-05
1.39754e-05
8.58422e-06
1.16611e-05
1.85356e-05
2.11935e-05
2.11026e-05
1.78744e-05
1.54662e-05
1.46888e-05
1.48525e-05
1.56682e-05
1.67231e-05
1.77848e-05
1.7062e-05
1.78339e-05
1.86766e-05
2.01212e-05
2.07313e-05
2.06758e-05
2.08728e-05
2.42991e-05
2.34482e-05
2.65041e-05
2.73568e-05
2.99951e-05
3.29704e-05
3.40551e-05
3.71546e-05
3.82322e-05
3.27076e-05
4.89574e-05
5.97324e-05
3.78551e-05
3.03889e-05
3.43263e-05
1.55979e-05
2.83135e-05
2.51906e-05
1.87032e-05
1.6896e-05
2.59176e-05
2.63301e-05
2.8588e-05
3.98807e-05
4.57509e-05
5.36406e-05
5.61622e-05
5.73435e-05
5.66892e-05
5.14768e-05
3.84733e-05
3.11463e-05
1.34425e-05
2.22045e-05
0.000101591
0.00018201
0.000181001
0.000181408
0.000178216
0.000182978
2.17745e-05
1.33203e-05
1.16841e-05
1.39667e-05
1.44543e-05
1.62687e-05
1.477e-05
1.48986e-05
1.35187e-05
1.07207e-05
1.05405e-05
1.15692e-05
1.14462e-05
1.00398e-05
1.13788e-05
1.32355e-05
1.29769e-05
1.47375e-05
1.73858e-05
1.68569e-05
1.87981e-05
1.98648e-05
2.76858e-05
3.30515e-05
2.99393e-05
2.06705e-05
1.49107e-05
2.32677e-05
2.31572e-05
2.41204e-05
2.53722e-05
2.14785e-05
2.24273e-05
2.93322e-05
3.00553e-05
3.37421e-05
3.29766e-05
3.19189e-05
3.31422e-05
3.50687e-05
3.57463e-05
3.72278e-05
3.58587e-05
3.7497e-05
3.96511e-05
3.7526e-05
3.85988e-05
3.52259e-05
3.54229e-05
2.00378e-05
3.24655e-06
2.81903e-06
5.72647e-06
3.33592e-06
6.89002e-06
6.66162e-06
6.73315e-06
5.18658e-06
6.29811e-06
4.77714e-06
4.9915e-05
1.39425e-05
1.72906e-05
1.74003e-05
1.87654e-05
1.49422e-05
2.55181e-05
2.99641e-05
3.42212e-05
3.57188e-05
3.68694e-05
3.45189e-05
3.44412e-05
3.2591e-05
3.02602e-05
2.95769e-05
2.6196e-05
2.44455e-05
1.87296e-05
1.96778e-05
1.43086e-05
1.15632e-05
1.26597e-05
7.37172e-06
7.07739e-06
6.93517e-06
8.14751e-06
8.57267e-06
7.70685e-06
6.07783e-06
6.17119e-06
6.72927e-06
6.06217e-06
6.7859e-06
7.28415e-06
7.87296e-06
8.27797e-06
1.04147e-05
1.09724e-05
1.15565e-05
1.21269e-05
1.20393e-05
1.21948e-05
1.19701e-05
1.21635e-05
1.18318e-05
1.1521e-05
1.04595e-05
1.15231e-05
9.92985e-06
9.45569e-06
6.00834e-06
2.73428e-06
1.85176e-06
2.16955e-06
3.1067e-06
2.69272e-06
3.33726e-06
2.89804e-06
3.24212e-06
3.60798e-06
4.80068e-06
5.44585e-06
3.02015e-06
5.13817e-06
8.17358e-06
9.42237e-06
7.78289e-06
5.8113e-06
5.39252e-06
2.77427e-06
5.95735e-06
6.07188e-06
6.12413e-06
5.98763e-06
2.6755e-06
4.88618e-06
4.93501e-06
6.73987e-06
6.8578e-06
7.41736e-06
6.51965e-06
5.95644e-06
4.99318e-06
4.28069e-06
4.67338e-06
5.02894e-06
6.58753e-06
5.74121e-06
4.94341e-06
7.18177e-07
6.2673e-07
6.70577e-07
1.34174e-06
0.000140959
0.000104023
3.39625e-06
2.99229e-07
1.42032e-07
2.15853e-07
3.08164e-07
3.7976e-07
4.26541e-07
2.9372e-07
3.49083e-07
3.74353e-07
4.37946e-07
4.50624e-07
5.44156e-07
4.1955e-07
1.30574e-06
2.05365e-06
2.58039e-06
1.25355e-06
6.29965e-07
2.5654e-07
1.68491e-07
1.5217e-07
1.6674e-07
4.1035e-06
0.00102139
0.00103004
0.000989031
0.000913446
0.000848568
0.000811895
0.000796262
0.000771442
0.000758639
0.000767345
0.00082264
0.000899787
0.000960947
0.00093587
0.000322088
0.000410025
0.000488717
0.000548452
0.000567693
0.000508912
0.000482182
0.00047808
0.000495224
0.000495413
0.00049175
0.000483016
0.00046769
0.00042516
0.000376779
0.000332655
0.000326556
0.000334893
0.00035505
0.000395369
0.000425967
0.000463882
0.000505429
0.000543447
0.000577158
0.000591464
0.00058181
0.000552154
0.000491289
0.000398199
0.000410952
0.000442271
0.000402917
0.000361134
0.000347508
0.000345918
0.000338546
0.000304072
0.000266534
0.000212679
0.000140447
8.50943e-05
6.75223e-05
6.32367e-05
7.19899e-05
0.000109705
0.000136629
0.000168494
0.000200276
0.000220502
0.000232915
0.00023367
0.000220712
0.000199588
0.000188671
0.00019374
0.000241725
0.000322943
0.00041027
0.000409643
0.000158716
0.000150127
0.000146435
0.000164884
0.000174405
0.00017654
0.000167314
0.000158559
0.000147835
0.000142757
0.000142681
0.00014347
0.000153719
0.000163616
0.000172054
0.000181791
0.000182068
0.0001815
0.000180679
0.000182912
0.00017909
0.000183145
0.000171575
0.000164878
0.000154342
0.000143124
0.000145759
0.000144842
0.000116836
0.000107618
6.28287e-05
9.52128e-05
0.00011435
0.000115678
0.000151401
0.000184028
0.000215407
0.000231621
0.000241471
0.000246274
0.00024003
0.000228958
0.000232198
0.000234256
0.000225031
0.000211348
0.000192279
0.00015594
9.64258e-05
6.87239e-05
6.05114e-05
8.84661e-05
0.000128196
7.08984e-05
5.02356e-05
5.99189e-05
5.57095e-05
6.19881e-05
5.31552e-05
5.61861e-05
1.35631e-05
9.75386e-06
1.60636e-05
2.20031e-05
2.07198e-05
1.4869e-05
1.43794e-05
1.26564e-05
1.44803e-05
1.51048e-05
1.79073e-05
1.82918e-05
2.05703e-05
2.21882e-05
2.17063e-05
2.26904e-05
2.45696e-05
2.40124e-05
2.46699e-05
2.49744e-05
2.41412e-05
2.65143e-05
2.75085e-05
2.61342e-05
2.73866e-05
2.95319e-05
3.25809e-05
3.37735e-05
3.58222e-05
3.16983e-05
4.77897e-05
2.01135e-05
2.61565e-05
3.54085e-05
4.00077e-05
3.41152e-05
2.58401e-05
2.38563e-05
2.44023e-05
2.39855e-05
2.58245e-05
2.88197e-05
2.95959e-05
2.79789e-05
3.01072e-05
1.95335e-05
2.70272e-05
3.68314e-05
5.31362e-05
5.88576e-05
5.80744e-05
4.38776e-05
3.31982e-05
2.55868e-05
4.9103e-05
0.00012774
0.000178261
0.000177493
0.00017164
0.000177534
8.73069e-06
9.84977e-06
1.49726e-05
1.53772e-05
1.60958e-05
1.35524e-05
1.2136e-05
1.13089e-05
1.12314e-05
8.34381e-06
8.27734e-06
9.22191e-06
9.40588e-06
9.67441e-06
7.62898e-06
1.00535e-05
1.1621e-05
1.19128e-05
1.42117e-05
1.41291e-05
1.63417e-05
1.79818e-05
2.14555e-05
2.33439e-05
3.25698e-05
2.5677e-05
1.80397e-05
2.1849e-05
1.92649e-05
1.95907e-05
1.91939e-05
2.44525e-05
3.19808e-05
3.23263e-05
3.33087e-05
3.89788e-05
3.79412e-05
4.11311e-05
4.32522e-05
3.70539e-05
4.38315e-05
4.43195e-05
3.37107e-05
3.30478e-05
4.60836e-05
4.54677e-05
4.17404e-05
4.03063e-05
3.61001e-05
3.03612e-05
1.00127e-05
2.90632e-06
5.68054e-06
4.29825e-06
6.11851e-06
5.48118e-06
6.07001e-06
4.9656e-06
7.95639e-06
6.14741e-06
2.91323e-05
1.83488e-05
1.82556e-05
1.99768e-05
1.94123e-05
3.24322e-05
3.64021e-05
4.23356e-05
3.83119e-05
4.79425e-05
5.48036e-05
6.63847e-05
6.70625e-05
6.74846e-05
6.52583e-05
5.70667e-05
3.93575e-05
2.48771e-05
3.23802e-05
2.41932e-05
2.23379e-05
1.7469e-05
7.58628e-06
1.20608e-05
6.43198e-06
7.4539e-06
9.08883e-06
1.06271e-05
1.0828e-05
9.5243e-06
6.26133e-06
5.07316e-06
6.52176e-06
7.05017e-06
8.08785e-06
1.10835e-05
1.2222e-05
3.84944e-06
1.305e-05
1.83615e-05
2.31889e-05
2.19088e-05
2.49239e-05
2.20417e-05
1.95001e-05
1.1541e-05
7.76893e-06
1.32435e-05
1.31407e-05
1.12514e-05
1.22913e-05
5.98184e-06
4.06218e-06
1.68029e-06
3.64183e-06
1.72754e-06
3.5154e-06
5.02063e-06
4.73861e-06
4.01135e-06
3.05552e-06
1.93144e-06
2.71243e-06
4.26771e-06
7.41083e-06
8.48815e-06
8.03082e-06
3.78877e-06
6.1254e-06
6.62453e-06
6.54032e-06
7.08498e-06
7.00814e-06
6.57302e-06
6.7234e-06
6.14211e-06
5.55363e-06
2.08596e-06
4.34958e-06
6.52412e-06
5.9763e-06
6.02578e-06
4.01437e-06
2.78083e-06
3.54437e-06
4.30607e-06
4.55094e-06
4.96792e-06
4.54955e-06
3.6462e-06
1.68626e-06
1.01842e-06
1.40558e-06
1.72385e-06
0.000166248
5.2573e-06
3.11818e-07
1.55403e-07
2.2378e-07
3.36212e-07
4.27524e-07
4.41272e-07
5.09531e-07
5.35122e-07
5.7541e-07
5.78233e-07
5.78108e-07
5.5155e-07
5.33066e-07
4.92609e-07
5.50779e-07
1.07267e-06
2.29605e-06
2.01838e-06
1.48793e-06
2.06005e-07
1.89946e-07
1.73468e-07
2.3607e-07
1.64352e-05
0.00101945
0.000978376
0.000847083
0.000789485
0.000790159
0.000800181
0.000787059
0.000772169
0.000747426
0.000735201
0.000757825
0.000847404
0.000928689
0.000929181
0.000324006
0.000428611
0.00051526
0.00057427
0.000544696
0.000470886
0.000458134
0.000457924
0.000465029
0.000470196
0.000482758
0.000469066
0.00044715
0.000385187
0.000308876
0.000293465
0.000303721
0.000345697
0.000413489
0.000459569
0.000499126
0.000533732
0.000558859
0.000575672
0.000603505
0.00061787
0.000615551
0.000571052
0.000525315
0.000415337
0.000410978
0.00044131
0.000402522
0.000381019
0.000402132
0.000416593
0.000403365
0.000348527
0.000287059
0.000208568
0.000114428
8.46611e-05
8.37258e-05
7.62216e-05
0.000127239
0.000174366
0.00021218
0.000248679
0.00027671
0.000298238
0.000316686
0.000318112
0.000305779
0.000266823
0.000223265
0.000197022
0.000218268
0.00028433
0.00039012
0.000414621
0.000154628
0.000148032
0.000150677
0.000171241
0.000177613
0.000168369
0.000149043
0.000133067
0.000131683
0.000135524
0.000130775
0.000138854
0.000154245
0.000168284
0.000191558
0.00019733
0.000207687
0.000212171
0.000217728
0.00021579
0.000213894
0.000203994
0.00019199
0.000182797
0.000165841
0.000150289
0.000149496
0.000152082
0.000133718
0.000108283
9.8711e-05
0.000106941
9.00242e-05
0.000144721
0.00017725
0.000222149
0.000248502
0.000264329
0.000282477
0.000280254
0.00027482
0.000271519
0.000272342
0.000259062
0.000256909
0.000244678
0.000231536
0.000199202
0.000134425
8.3781e-05
5.95776e-05
6.99416e-05
0.000112664
8.10154e-05
5.09542e-05
8.00284e-05
9.25316e-05
6.87171e-05
5.1198e-05
4.33746e-05
1.34036e-05
1.1791e-05
1.9256e-05
2.12092e-05
1.62037e-05
1.29044e-05
1.15163e-05
1.44902e-05
1.61473e-05
1.98003e-05
2.07913e-05
2.35555e-05
2.3433e-05
2.59673e-05
2.4509e-05
2.7026e-05
2.81294e-05
2.70082e-05
2.78646e-05
2.67871e-05
2.65843e-05
2.70326e-05
2.83331e-05
2.73066e-05
2.66749e-05
2.75484e-05
3.0119e-05
3.36066e-05
3.41353e-05
3.11623e-05
3.59237e-05
2.94407e-05
3.37435e-05
4.06265e-05
2.61679e-05
1.03381e-05
1.09939e-05
1.66962e-05
2.32796e-05
2.90879e-05
2.91122e-05
3.233e-05
2.98508e-05
2.99432e-05
2.96942e-05
2.79429e-05
2.862e-05
3.15398e-05
3.14727e-05
4.3151e-05
5.83773e-05
5.92307e-05
4.40688e-05
3.11428e-05
2.88231e-05
7.22149e-05
0.000158552
0.00016996
0.000138474
0.000173662
1.01047e-05
1.20516e-05
1.51496e-05
1.5955e-05
1.38581e-05
1.16628e-05
9.82237e-06
1.04731e-05
1.00449e-05
7.53019e-06
6.65572e-06
6.16104e-06
7.76077e-06
5.95641e-06
5.90108e-06
7.7013e-06
9.52609e-06
8.69221e-06
1.12385e-05
1.39558e-05
1.39948e-05
1.61938e-05
1.84295e-05
2.4506e-05
2.4081e-05
3.22559e-05
2.66015e-05
2.27927e-05
1.84845e-05
1.75025e-05
2.83987e-05
2.81588e-05
3.35097e-05
3.71606e-05
3.89095e-05
4.6242e-05
4.79451e-05
7.03853e-05
8.03487e-05
9.15991e-05
9.60684e-05
9.75868e-05
8.89666e-05
8.01511e-05
6.82074e-05
5.49085e-05
3.95412e-05
4.35912e-05
4.11813e-05
3.69126e-05
1.58057e-05
7.17165e-06
5.00013e-06
7.10162e-06
6.66463e-06
5.36371e-06
6.14794e-06
5.30797e-06
9.96541e-06
8.52141e-06
2.50053e-05
2.08038e-05
2.06783e-05
1.93671e-05
3.39319e-05
3.91564e-05
2.55568e-05
4.92403e-05
6.12124e-05
7.7222e-05
9.14493e-05
9.94274e-05
0.000102419
9.99361e-05
9.70437e-05
9.36306e-05
8.46789e-05
6.99955e-05
4.54015e-05
3.57714e-05
2.97686e-05
1.97474e-05
1.58788e-05
1.69861e-05
9.71863e-06
6.72486e-06
6.61064e-06
9.00424e-06
1.03445e-05
9.12956e-06
6.04997e-06
5.92187e-06
6.57947e-06
7.59491e-06
1.10478e-05
1.30172e-05
9.49279e-06
2.29624e-05
3.2314e-05
4.20751e-05
5.87098e-05
7.21044e-05
6.94707e-05
6.24231e-05
3.49539e-05
3.44933e-05
2.43991e-05
1.50489e-05
1.42373e-05
1.31604e-05
1.21346e-05
1.03808e-05
6.81207e-06
2.4997e-06
1.90721e-06
2.65375e-06
3.43924e-06
6.38838e-06
6.25117e-06
5.1742e-06
3.89281e-06
4.07783e-06
2.96118e-06
6.0659e-06
8.26089e-06
8.38524e-06
4.61369e-06
6.73135e-06
7.29442e-06
8.11769e-06
9.23213e-06
5.1373e-06
4.28739e-06
8.4838e-06
8.01304e-06
6.651e-06
6.0976e-06
5.77637e-06
3.87068e-06
5.89116e-06
5.79136e-06
6.60147e-06
5.47092e-06
5.28224e-06
5.2497e-06
3.7237e-06
4.97355e-06
5.22728e-06
4.73259e-06
3.55436e-06
2.25016e-06
1.17776e-06
5.76229e-06
2.23444e-05
1.92883e-05
4.03148e-07
1.3396e-07
2.1718e-07
3.39416e-07
4.00229e-07
5.30349e-07
5.9172e-07
8.19089e-07
8.46355e-07
9.20518e-07
8.80448e-07
6.73545e-07
5.67161e-07
2.91169e-07
5.19758e-07
5.06018e-07
2.63789e-07
1.00867e-06
2.62838e-06
2.52149e-06
1.35961e-06
5.71144e-07
4.48696e-07
1.2221e-06
0.000125865
0.00096995
0.000833359
0.000755142
0.000784999
0.000853694
0.000894107
0.000903392
0.000865696
0.000810526
0.000756137
0.000744299
0.000815294
0.000910507
0.000923551
0.000329611
0.000441743
0.000542262
0.000585741
0.000526613
0.000450238
0.000451006
0.000446229
0.000447648
0.000435051
0.000454006
0.000461912
0.000452906
0.000367394
0.000290508
0.000303452
0.000380307
0.000466774
0.000539474
0.000598581
0.00063523
0.000653827
0.000665778
0.000661687
0.000659262
0.000658682
0.00064825
0.00059098
0.000534134
0.000428684
0.000407323
0.000440656
0.000413221
0.000415206
0.000449134
0.00044769
0.000406213
0.000315401
0.000255987
0.000180313
8.3841e-05
8.06632e-05
7.93427e-05
0.000141363
0.000204432
0.000259953
0.000295714
0.000316666
0.000340151
0.000346931
0.000364407
0.000364758
0.000367016
0.000336505
0.000273382
0.000224948
0.000213791
0.000255992
0.000362309
0.000416177
0.000151343
0.000146721
0.000153551
0.000174242
0.00017059
0.000141744
0.000117845
0.000111991
0.000117591
0.000124421
0.000115264
0.000128835
0.000145955
0.000175248
0.00019614
0.000219139
0.000226687
0.000243763
0.000243502
0.000244062
0.00023773
0.000228731
0.000215083
0.000192634
0.000184315
0.00016003
0.000150771
0.000153413
0.000144653
0.000117643
9.76213e-05
0.000103063
0.000104187
0.000155677
0.000202702
0.00024131
0.000263302
0.000283926
0.000298188
0.000291553
0.000295251
0.000294628
0.000281429
0.000275821
0.000262177
0.000258917
0.00024951
0.000231417
0.000173758
8.24448e-05
6.33895e-05
6.0339e-05
8.07734e-05
9.74625e-05
5.75571e-05
8.12653e-05
0.000116168
0.000108155
5.34349e-05
3.70335e-05
1.35354e-05
1.39925e-05
2.06371e-05
1.70745e-05
1.25894e-05
9.95152e-06
1.28798e-05
1.47157e-05
1.88983e-05
2.01232e-05
2.31902e-05
2.33749e-05
2.63773e-05
2.5889e-05
2.8893e-05
2.71351e-05
3.08525e-05
2.78503e-05
2.90138e-05
3.32966e-05
3.13811e-05
2.91851e-05
3.01949e-05
2.99976e-05
2.72919e-05
2.84015e-05
2.94106e-05
3.05607e-05
3.157e-05
2.96095e-05
3.72604e-05
2.79287e-05
4.0638e-05
2.27182e-05
1.28712e-05
1.45312e-05
9.83058e-06
2.85459e-05
3.40199e-05
3.52658e-05
3.36626e-05
3.12988e-05
2.9738e-05
2.63585e-05
2.69709e-05
2.65246e-05
2.52397e-05
2.84111e-05
2.97058e-05
3.03236e-05
4.40359e-05
5.8623e-05
5.7902e-05
4.39088e-05
2.56584e-05
4.3711e-05
9.74967e-05
0.000121645
0.000108652
0.000164579
7.9205e-06
1.43258e-05
1.36883e-05
1.45669e-05
1.27929e-05
1.07808e-05
8.97018e-06
1.08613e-05
8.94744e-06
5.79514e-06
5.07618e-06
7.95856e-06
8.03781e-06
7.90411e-06
7.91874e-06
8.64261e-06
7.06597e-06
5.9439e-06
8.7712e-06
1.14733e-05
1.4287e-05
1.45401e-05
1.62719e-05
1.99521e-05
1.00717e-05
2.87008e-05
2.48433e-05
2.28009e-05
1.73504e-05
1.76364e-05
2.92812e-05
3.03276e-05
3.562e-05
4.3572e-05
4.94784e-05
6.16191e-05
9.75568e-05
0.000124369
0.000138745
0.000156432
0.000160288
0.0001582
0.000152669
0.000135014
0.000114129
9.02503e-05
5.81765e-05
4.39225e-05
4.38816e-05
4.22474e-05
3.20139e-05
1.26749e-05
5.86305e-06
6.16921e-06
6.27505e-06
5.32437e-06
6.35736e-06
8.76319e-06
1.14992e-05
9.23946e-06
4.40286e-05
2.22301e-05
8.37336e-06
2.7099e-05
3.81293e-05
4.15012e-05
3.50652e-05
6.04429e-05
8.4745e-05
0.00010589
0.000115494
0.00012416
0.000129961
0.00013226
0.000130797
0.000122098
0.000116165
9.73135e-05
7.91703e-05
5.10757e-05
3.5589e-05
2.95387e-05
2.40247e-05
1.18808e-05
1.23279e-05
9.28558e-06
8.37581e-06
9.83974e-06
8.38456e-06
8.27431e-06
4.63891e-06
6.27723e-06
6.84229e-06
8.50779e-06
1.26403e-05
9.54775e-06
2.66353e-05
2.81497e-05
7.65568e-05
0.000118345
0.000142736
0.000162681
0.000168463
0.000150142
0.000122194
8.88129e-05
4.41986e-05
3.02412e-05
1.65553e-05
1.44636e-05
1.35667e-05
1.18468e-05
6.40962e-06
4.64932e-06
2.34858e-06
2.74281e-06
5.20451e-06
6.16541e-06
5.86844e-06
5.50606e-06
3.92434e-06
4.09671e-06
3.87668e-06
7.25742e-06
8.49119e-06
6.95069e-06
3.31395e-06
7.61894e-06
9.36208e-06
5.37815e-06
8.2967e-06
9.27567e-06
8.48379e-06
9.20715e-06
5.37002e-06
4.30348e-06
6.78889e-06
5.3628e-06
5.09252e-06
5.42613e-06
6.14997e-06
6.52541e-06
7.38655e-06
8.95432e-06
9.84497e-06
7.91348e-06
6.37011e-06
5.8762e-06
4.94516e-06
3.52586e-06
3.40314e-06
2.72988e-06
1.41935e-05
1.79117e-05
1.41497e-06
2.69653e-07
8.8821e-08
3.09692e-07
3.9378e-07
4.47142e-07
7.06049e-07
1.18014e-06
1.14989e-06
1.59077e-06
1.73436e-06
1.48625e-06
1.29045e-06
1.11303e-06
6.60584e-07
4.86731e-07
3.87869e-07
5.04403e-07
4.57033e-07
1.21162e-06
4.62731e-06
1.71747e-06
1.74439e-06
1.5309e-06
5.31492e-06
0.000154859
0.000892518
0.000718629
0.000761208
0.000876562
0.000955932
0.000997322
0.00103132
0.000997701
0.000910365
0.000802742
0.000761019
0.000807388
0.000895061
0.000917223
0.00032973
0.000451674
0.000563332
0.000601912
0.00051531
0.000453402
0.000426075
0.00041801
0.000414482
0.000416693
0.00042933
0.000444621
0.000456086
0.000367411
0.000297487
0.000368533
0.000494927
0.000593278
0.000663374
0.00071471
0.000755159
0.000794481
0.000801935
0.000774134
0.000735746
0.000705741
0.000664167
0.000606215
0.00054155
0.000439381
0.000401631
0.000439387
0.000425622
0.000434307
0.000461089
0.000444654
0.000333312
0.000240272
0.000202577
0.000153512
6.72259e-05
5.96028e-05
0.000121587
0.000202055
0.000271205
0.000322788
0.000345353
0.00035933
0.000364461
0.000369474
0.000371267
0.000374323
0.000386667
0.000372032
0.000324969
0.000260927
0.000224763
0.000252879
0.000346763
0.000412256
0.000156762
0.000145242
0.000162732
0.000172794
0.000153852
0.000110206
7.42009e-05
7.20776e-05
9.78224e-05
0.000109166
0.000105272
0.000111784
0.000138863
0.000174278
0.00020585
0.000223433
0.000245747
0.000256819
0.000263554
0.00025897
0.000256911
0.000243236
0.000225307
0.000212167
0.000198304
0.000167375
0.000156635
0.000160643
0.000149774
0.000134356
9.4794e-05
0.000105638
0.000106174
0.000163491
0.000211328
0.000242443
0.000265999
0.000290342
0.000312485
0.000305941
0.00031992
0.000306821
0.000304891
0.00028668
0.000275378
0.000263329
0.000257847
0.000244928
0.000193692
0.000109768
6.85752e-05
5.09477e-05
7.25868e-05
9.59211e-05
7.66786e-05
7.90303e-05
0.000130987
0.000127774
6.14821e-05
3.29189e-05
1.38158e-05
1.60129e-05
1.99581e-05
1.47673e-05
1.12864e-05
1.02851e-05
1.37227e-05
1.58585e-05
1.95547e-05
2.06259e-05
2.38317e-05
2.42946e-05
2.78426e-05
2.73241e-05
2.7436e-05
2.76941e-05
2.92306e-05
2.94925e-05
2.94961e-05
3.10413e-05
3.19586e-05
3.0915e-05
2.98799e-05
2.9911e-05
2.8303e-05
2.87457e-05
2.90708e-05
2.96731e-05
3.30512e-05
2.93851e-05
3.42273e-05
3.39727e-05
2.85413e-05
1.23236e-05
9.70113e-06
1.66189e-05
2.89591e-05
3.72088e-05
3.89215e-05
3.59631e-05
3.32638e-05
2.63612e-05
2.47918e-05
2.19779e-05
1.90822e-05
1.86428e-05
2.3323e-05
2.40731e-05
2.72536e-05
2.97172e-05
3.28682e-05
4.63749e-05
5.80005e-05
4.98984e-05
2.87401e-05
3.38718e-05
6.77457e-05
8.70487e-05
9.24431e-05
0.000132258
1.3324e-05
1.41815e-05
1.5513e-05
1.39329e-05
1.1945e-05
1.045e-05
9.13723e-06
9.90524e-06
6.07985e-06
7.94432e-06
6.86183e-06
6.44886e-06
6.18633e-06
6.63852e-06
7.14648e-06
7.17634e-06
8.75565e-06
9.16959e-06
6.22141e-06
9.54704e-06
1.22468e-05
1.53133e-05
1.48138e-05
1.69729e-05
2.09498e-05
2.40991e-05
2.38962e-05
2.01875e-05
2.07749e-05
1.99336e-05
3.09838e-05
3.63186e-05
4.22157e-05
5.11481e-05
6.42985e-05
0.000114638
0.000147076
0.000167475
0.000193031
0.000207066
0.000213588
0.000212416
0.000199419
0.00018589
0.000154959
0.000121674
8.66913e-05
5.47183e-05
2.64319e-05
4.39624e-05
3.77504e-05
2.09706e-05
6.98204e-06
6.33327e-06
5.8075e-06
5.78883e-06
7.52258e-06
1.14406e-05
1.52403e-05
1.21499e-05
2.90898e-05
2.09866e-05
2.13544e-05
3.12821e-05
3.98554e-05
4.39985e-05
4.04429e-05
7.28672e-05
0.000106377
0.000125583
0.000135405
0.000146768
0.000146154
0.000145407
0.000143172
0.000143245
0.000133778
0.000122121
0.000109164
7.49959e-05
3.06233e-05
3.51945e-05
2.736e-05
1.80513e-05
1.74615e-05
1.18918e-05
1.02066e-05
1.10947e-05
7.53778e-06
6.84983e-06
5.86528e-06
6.5319e-06
7.57642e-06
1.15083e-05
5.14019e-06
2.3442e-05
2.02803e-05
7.92022e-05
0.000134463
0.000189049
0.000213394
0.000220793
0.000218987
0.000213329
0.000204679
0.000159743
0.000107045
4.89241e-05
2.72251e-05
1.3925e-05
1.37227e-05
1.20295e-05
9.70146e-06
6.8194e-06
3.74819e-06
3.61953e-06
5.95401e-06
6.52765e-06
6.17678e-06
5.32098e-06
3.97101e-06
4.27326e-06
5.28722e-06
7.827e-06
7.52064e-06
5.7047e-06
7.26773e-06
8.64502e-06
6.60423e-06
1.21984e-05
1.32969e-05
1.15722e-05
1.27841e-05
7.94212e-06
6.12906e-06
7.70486e-06
4.71221e-06
6.08093e-06
5.00193e-06
5.58813e-06
6.67216e-06
8.0067e-06
9.45722e-06
2.26778e-05
2.25402e-05
8.87409e-06
7.03613e-06
6.59049e-06
4.89793e-06
3.33446e-06
3.73637e-06
2.03277e-06
6.29787e-06
3.44315e-06
4.7511e-07
1.82559e-07
1.54591e-07
3.52155e-07
4.27282e-07
8.00737e-07
7.97475e-07
2.13921e-06
3.27519e-06
2.79336e-06
2.35009e-06
3.18192e-06
2.08864e-06
1.41815e-06
9.22036e-07
6.98083e-07
5.74106e-07
3.75581e-07
4.42179e-07
3.28847e-07
3.16269e-06
2.82508e-06
3.75578e-06
6.12726e-06
5.31327e-05
9.72874e-05
0.000801962
0.000687866
0.000839533
0.000952768
0.00100369
0.00101179
0.00104503
0.00105927
0.000987672
0.000859944
0.000812261
0.000833052
0.000899343
0.000907812
0.000327912
0.000452601
0.000576619
0.000612275
0.000540874
0.000442614
0.000419447
0.000404205
0.000402476
0.000404046
0.000412956
0.000432451
0.000449776
0.000375137
0.000318032
0.000452681
0.000584013
0.00067142
0.000742338
0.000789736
0.00082905
0.000862643
0.000884921
0.000864059
0.00081242
0.000755908
0.000686436
0.000606027
0.000532537
0.000429248
0.000391879
0.000435249
0.000432292
0.000447158
0.000458173
0.000389131
0.000228074
0.000150116
0.000161912
0.000142179
6.12079e-05
7.26708e-05
0.000160682
0.000256669
0.000313639
0.000355235
0.000364642
0.000365373
0.000360861
0.00036464
0.000362174
0.000374371
0.000377911
0.000389808
0.000348609
0.000282636
0.000242195
0.000253545
0.000336832
0.000399153
0.000152992
0.000143238
0.000162385
0.000165709
0.000137711
6.9935e-05
6.94895e-05
7.18039e-05
6.96595e-05
9.68246e-05
0.000101963
9.9094e-05
0.000128575
0.000168471
0.000202215
0.000224504
0.000250384
0.000263182
0.000268371
0.000269964
0.000267011
0.000251959
0.000237859
0.000224597
0.000200904
0.000177499
0.000164618
0.000163365
0.000159539
0.000133692
9.3201e-05
0.000104427
0.000107651
0.000164732
0.000209088
0.000230799
0.000260414
0.000281254
0.000309441
0.000311171
0.000314415
0.000302884
0.000288294
0.000281379
0.000271095
0.000262315
0.000265272
0.000246114
0.000204268
0.000121784
6.93836e-05
5.1997e-05
6.47984e-05
9.66758e-05
9.62284e-05
0.000103667
0.000131694
0.000128977
6.39696e-05
2.31045e-05
1.45596e-05
1.74626e-05
1.82752e-05
1.25067e-05
8.63595e-06
1.02797e-05
1.37534e-05
1.52181e-05
1.8974e-05
2.21354e-05
2.3606e-05
2.44371e-05
2.81968e-05
2.68335e-05
2.95481e-05
2.79093e-05
2.8925e-05
3.0523e-05
2.90617e-05
2.89746e-05
3.35464e-05
3.27032e-05
3.40513e-05
3.05875e-05
2.90142e-05
2.77102e-05
2.69695e-05
2.94164e-05
3.07505e-05
2.91566e-05
3.38084e-05
3.39012e-05
1.60185e-05
7.57723e-06
1.12669e-05
1.20166e-05
3.31382e-05
3.92693e-05
3.88127e-05
3.23179e-05
2.8675e-05
2.30991e-05
1.98579e-05
1.15163e-05
1.31708e-05
1.32332e-05
1.78533e-05
1.87012e-05
2.42643e-05
2.91964e-05
3.13979e-05
4.06866e-05
5.5481e-05
5.26389e-05
2.89598e-05
2.86108e-05
5.16578e-05
6.74574e-05
8.02876e-05
8.94574e-05
1.45195e-05
1.33349e-05
1.51497e-05
1.30813e-05
1.15147e-05
1.01863e-05
8.68818e-06
7.81968e-06
8.20896e-06
7.02663e-06
6.08677e-06
4.90291e-06
4.90113e-06
4.64474e-06