/*--------------------------------*- C++ -*----------------------------------*\
| =========                 |                                                 |
| \\      /  F ield         | OpenFOAM: The Open Source CFD Toolbox           |
|  \\    /   O peration     | Version:  2.1.1                                 |
|   \\  /    A nd           | Web:      www.OpenFOAM.org                      |
|    \\/     M anipulation  |                                                 |
\*---------------------------------------------------------------------------*/
FoamFile
{
    version     2.0;
    format      ascii;
    class       volScalarField;
    location    "0.006300000";
    object      O2;
}
// * * * * * * * * * * * * * * * * * * * * * * * * * * * * * * * * * * * * * //

dimensions      [0 0 0 0 0 0 0];

internalField   nonuniform List<scalar> 
12384
(
0.0124137
0.0136689
0.0139223
0.0132854
0.0125119
0.0116698
0.0110504
0.0105248
0.010276
0.0102162
0.0102421
0.0104937
0.00945604
0.00654526
0.035662
0.0281761
0.027027
0.0271642
0.0275586
0.0285593
0.030037
0.0311175
0.0319131
0.0322167
0.0321317
0.0318155
0.0314358
0.0307727
0.0301188
0.0294445
0.028812
0.0284531
0.0283288
0.0284871
0.0289671
0.0297857
0.0301857
0.0307921
0.031367
0.0319388
0.0317347
0.0319401
0.0415599
0.0439849
0.0154504
0.0152359
0.0110976
0.00892636
0.007587
0.00638539
0.00529295
0.00425451
0.00381699
0.00339005
0.00302225
0.00268479
0.00242512
0.00230329
0.00220406
0.00222884
0.00224971
0.00231714
0.00249952
0.00251602
0.00275313
0.00272576
0.00306401
0.0031987
0.00364765
0.00431099
0.00626627
0.00912521
0.00870438
0.00645947
0.00241271
0.00240347
0.00219016
0.0021746
0.00220771
0.00219022
0.0022121
0.00226344
0.00225275
0.00226811
0.00233149
0.00233403
0.00227334
0.00229578
0.00222801
0.00233286
0.00217804
0.00233596
0.00219945
0.00226106
0.002287
0.00224984
0.00221017
0.00215164
0.00215689
0.00226259
0.00227625
0.00181422
0.00170037
0.0015557
0.000277549
0.000348529
0.000491994
0.000612649
0.000690423
0.000733629
0.000247473
0.000451905
0.000656716
0.000564754
0.000760045
0.000691466
0.000827048
0.000843777
0.000845283
0.000621336
0.000414934
0.000544723
0.000341883
0.000337546
0.00141785
0.00258729
0.0020644
0.00154431
0.00142497
0.00119533
0.00123698
0.00127661
0.00147677
0.00170655
4.53638e-05
2.05016e-05
2.20847e-05
4.16972e-05
5.97106e-05
6.736e-05
7.0955e-05
6.9355e-05
7.10708e-05
6.8117e-05
6.60903e-05
6.54587e-05
6.48722e-05
6.51212e-05
6.80617e-05
6.46783e-05
7.10224e-05
6.98398e-05
7.65857e-05
7.82313e-05
8.90707e-05
8.62426e-05
9.90732e-05
0.000108016
0.000116283
0.000121152
0.000130963
5.54131e-06
9.48412e-05
1.83602e-05
0.000627638
0.00104074
0.00123446
0.000673762
9.27666e-06
0.000240319
0.000226816
-4.50667e-05
-3.268e-05
-1.21703e-05
2.53705e-05
0.000205852
0.000111493
0.000215872
0.000298376
0.000194667
0.000207469
0.000199467
0.000183296
0.000141537
7.41658e-05
0.000208853
0.000211841
0.00079515
0.0113049
0.0157905
0.0162799
0.0167479
0.0168907
0.016802
0.000858998
0.0001969
7.13287e-05
4.86907e-05
4.7358e-05
4.62124e-05
4.74038e-05
4.76962e-05
4.39904e-05
4.12221e-05
4.42736e-05
4.51696e-05
4.10803e-05
4.4431e-05
4.92737e-05
4.6706e-05
5.36398e-05
5.80517e-05
5.67118e-05
6.08955e-05
6.1833e-05
7.45064e-05
0.000148664
0.0001733
0.000138164
0.000155498
0.00013557
0.000125484
7.96075e-05
9.54869e-05
0.000204207
9.15042e-05
7.4407e-05
7.27927e-05
8.80414e-05
0.000118754
0.000140484
0.000138517
0.000162072
0.000137548
0.000158025
0.000159493
0.00018104
0.000170259
0.000188543
0.000205803
0.000182579
0.00019049
8.19066e-05
1.80706e-05
3.85481e-06
3.90245e-06
4.80777e-06
7.60227e-06
8.58888e-06
8.71161e-06
7.23232e-06
4.45757e-06
4.03468e-06
2.89196e-06
0.000308453
3.37665e-05
5.74893e-05
5.31334e-05
5.4289e-05
5.8393e-05
6.74359e-05
6.87979e-05
-1.93939e-05
7.64557e-06
3.91254e-05
2.69633e-05
5.39465e-05
5.29428e-05
2.25823e-05
5.80641e-05
2.77799e-05
4.17844e-05
1.64398e-05
1.83337e-05
2.70038e-05
5.81765e-05
2.06978e-05
1.38555e-05
1.60605e-05
1.78465e-05
1.93615e-05
1.09163e-05
1.88964e-05
1.6189e-05
1.74206e-05
9.07651e-06
1.3503e-05
1.56707e-05
1.66714e-05
1.78643e-05
1.79067e-05
1.74127e-05
2.33391e-05
2.51752e-05
1.94406e-05
2.22226e-05
2.22689e-05
2.77914e-05
2.2838e-05
2.98373e-05
2.68387e-05
3.11268e-05
2.77017e-05
3.23157e-05
1.83524e-05
1.28179e-05
9.16185e-06
7.52504e-06
6.61707e-06
6.59839e-06
7.54913e-06
8.17703e-06
8.67086e-06
9.34983e-06
2.85817e-05
1.92658e-05
2.3038e-05
2.02599e-05
3.66243e-06
2.05424e-05
-9.38421e-06
-9.28342e-06
3.33685e-05
3.02302e-05
2.60636e-05
2.3188e-05
2.24688e-05
2.25067e-05
2.36878e-05
2.52379e-05
2.64574e-05
3.09399e-05
3.12231e-05
3.02894e-05
2.84281e-05
2.73164e-05
2.43562e-05
2.70135e-05
2.61574e-05
2.62689e-05
2.59445e-05
2.49232e-05
1.8215e-05
1.57228e-05
2.19975e-05
1.91646e-05
3.56997e-06
0.000532433
0.0202217
0.0621885
0.046678
1.35713e-06
1.61697e-07
6.96258e-08
1.64569e-07
2.93466e-07
3.4029e-07
1.80512e-07
2.95864e-07
3.34461e-07
5.14718e-07
7.19301e-07
8.61391e-07
8.00497e-07
1.15062e-06
1.23982e-06
9.4142e-07
5.52193e-07
2.72434e-07
1.68205e-07
1.15949e-07
1.13637e-07
1.66272e-07
1.8873e-06
0.0222883
0.0204071
0.0167532
0.0140485
0.012338
0.011131
0.00996468
0.00866505
0.00795162
0.00771452
0.0080716
0.00881226
0.0090258
0.00698834
0.0354301
0.0275572
0.0260691
0.026299
0.027852
0.0307175
0.0332914
0.0340949
0.0331167
0.0316721
0.0295492
0.0269004
0.0242667
0.0213611
0.0184485
0.016068
0.0145105
0.0140458
0.0144107
0.0154687
0.0170784
0.019274
0.0217761
0.0245843
0.0274719
0.0301805
0.0314485
0.0316523
0.0347008
0.0402479
0.0154312
0.0141546
0.00946984
0.00729548
0.00602445
0.00511218
0.00444327
0.00389666
0.00346217
0.00279589
0.00212373
0.00133329
0.000850691
0.000617084
0.000691141
0.000805736
0.00113068
0.00146867
0.00177972
0.00203382
0.00223604
0.00233466
0.00236084
0.0025192
0.00275026
0.00337489
0.00443971
0.00743731
0.00938716
0.00809374
0.00239276
0.00230817
0.00215772
0.0021809
0.00234801
0.00243312
0.0024458
0.00240246
0.00231717
0.0022402
0.00220738
0.00227114
0.00233341
0.00248672
0.00254669
0.00271082
0.00271941
0.00283207
0.00279818
0.00283483
0.00283361
0.00268875
0.00255356
0.00239798
0.00221851
0.0022823
0.00235284
0.00222495
0.00144787
0.00128596
0.000198459
0.000396361
0.000617933
0.000760134
0.000877257
0.00139706
0.00179163
0.00221861
0.00233251
0.00247359
0.00251998
0.00245087
0.00253923
0.00253255
0.00232125
0.00204845
0.00160507
0.000799072
0.000500491
0.0003653
0.000460762
0.00211125
0.00189641
0.000832505
0.000452869
0.000316933
0.000239028
0.000113592
0.000159056
0.000587096
4.39575e-05
2.09025e-05
3.52558e-05
6.42725e-05
7.60671e-05
7.60159e-05
6.30446e-05
5.30827e-05
4.95324e-05
4.98981e-05
5.28379e-05
5.67542e-05
6.07253e-05
5.76342e-05
6.04974e-05
6.36393e-05
6.89717e-05
7.13231e-05
7.08649e-05
7.18538e-05
8.43386e-05
8.132e-05
9.25638e-05
9.59205e-05
0.000105767
0.000116925
0.000120375
0.000130994
0.000135205
0.000112274
0.0006234
0.000946456
0.000248533
0.000185723
0.000222526
-0.000104976
0.000175126
9.59537e-05
-1.73499e-05
-6.01263e-05
0.000122653
0.000187192
0.00027997
0.000542719
0.000696436
0.000904056
0.000974693
0.00100736
0.000990991
0.000854935
0.000547971
0.00029509
-0.000132444
3.33245e-05
0.00215149
0.0151418
0.0193456
0.0182666
0.0160153
0.017275
9.35251e-05
4.1215e-05
3.14439e-05
4.05383e-05
4.32368e-05
5.13324e-05
4.58126e-05
4.75227e-05
4.19898e-05
3.15993e-05
3.07302e-05
3.54315e-05
3.49588e-05
2.89877e-05
3.39782e-05
4.11234e-05
3.93677e-05
4.60831e-05
5.60125e-05
5.34062e-05
6.0263e-05
6.45744e-05
0.000100274
0.000156689
0.00013654
6.47227e-05
1.57652e-05
8.3696e-05
8.23066e-05
8.69067e-05
0.000121523
7.66617e-05
9.08393e-05
0.00015224
0.000164672
0.000199467
0.000197442
0.0001959
0.000206384
0.000222038
0.000227944
0.000237712
0.000227308
0.000236952
0.000248366
0.000229822
0.000231827
0.000198472
0.000187724
7.08904e-05
6.2323e-06
5.15743e-06
1.36089e-05
1.37564e-06
1.69333e-05
1.62761e-05
1.65282e-05
9.70658e-06
1.54628e-05
1.10456e-05
0.000329179
2.92962e-05
5.90986e-05
5.85335e-05
6.60202e-05
2.88421e-05
0.00012448
0.000168421
0.000208919
0.000228426
0.00023945
0.000228021
0.000228475
0.00021548
0.000197864
0.000188581
0.000157734
0.000137866
8.79261e-05
8.5228e-05
3.82116e-05
1.39597e-05
4.34309e-05
2.04284e-05
1.8098e-05
1.70893e-05
2.24695e-05
2.4432e-05
2.06778e-05
1.36691e-05
1.69052e-05
1.72577e-05
1.25532e-05
1.52088e-05
1.80131e-05
2.15545e-05
2.4424e-05
3.41807e-05
3.72245e-05
4.05799e-05
4.31299e-05
4.32015e-05
4.37614e-05
4.27208e-05
4.25705e-05
4.06203e-05
3.80681e-05
3.22066e-05
3.4939e-05
2.80442e-05
2.51313e-05
1.40677e-05
4.67371e-06
1.82705e-06
2.44047e-06
4.93239e-06
3.8493e-06
5.73359e-06
4.64552e-06
5.70885e-06
9.11814e-06
1.4784e-05
1.73623e-05
5.69821e-06
1.46892e-05
2.89473e-05
3.41149e-05
2.65505e-05
1.68383e-05
1.33768e-05
1.17667e-06
1.4646e-05
1.48867e-05
1.50171e-05
1.47407e-05
8.23937e-07
1.11154e-05
1.27831e-05
2.1485e-05
2.29487e-05
2.56419e-05
2.19134e-05
1.90258e-05
1.48853e-05
1.21174e-05
1.38965e-05
1.58567e-05
2.24503e-05
1.87043e-05
1.51727e-05
9.12819e-07
7.12153e-07
8.23539e-07
2.13695e-06
0.0059955
0.0429673
8.39374e-06
2.83962e-07
1.01769e-07
1.86143e-07
2.87415e-07
3.63845e-07
4.13223e-07
2.28422e-07
2.97742e-07
3.33588e-07
4.17524e-07
4.47961e-07
5.88088e-07
3.23301e-07
1.83015e-06
3.45671e-06
4.63215e-06
1.71561e-06
7.02623e-07
2.26976e-07
1.35687e-07
1.2141e-07
1.279e-07
9.86723e-06
0.0221148
0.018578
0.0174254
0.0178368
0.0173593
0.0162251
0.0147483
0.0124831
0.0104455
0.00805294
0.00739996
0.00780702
0.00857881
0.00715863
0.0349893
0.0264753
0.0250208
0.0255888
0.0289143
0.033468
0.034685
0.0338067
0.0309554
0.0284743
0.0252706
0.0216331
0.0169164
0.0125426
0.00871626
0.00685353
0.00635638
0.00682985
0.00808945
0.0097865
0.0124088
0.0148755
0.0172612
0.0201785
0.0233816
0.0268801
0.0301491
0.031379
0.0322328
0.0371711
0.0152155
0.0129956
0.0086205
0.00715439
0.00691773
0.00736007
0.00745536
0.00656511
0.00486492
0.00338154
0.00190757
0.000688709
0.000265475
0.000196722
0.000454084
0.00115904
0.00176759
0.00244262
0.00304199
0.00349838
0.00372839
0.00375224
0.00347478
0.003065
0.00280659
0.00290682
0.00363883
0.00544208
0.00877748
0.0087705
0.00234436
0.00222832
0.00212142
0.00236935
0.00252696
0.00255892
0.00239848
0.0022294
0.00206198
0.00198316
0.00198522
0.00208758
0.00237136
0.00267185
0.00295016
0.00320582
0.00330806
0.00350807
0.00370889
0.00383898
0.00372898
0.00335334
0.00309854
0.00282705
0.0025038
0.00227288
0.0023425
0.00238266
0.00180346
0.00143677
0.000312091
0.000548859
0.000713001
0.000929416
0.00170707
0.00236285
0.00289874
0.00326158
0.00345015
0.0035447
0.00351495
0.00341453
0.00347755
0.00349652
0.00336266
0.00312774
0.00271261
0.00195558
0.000697157
0.000410242
0.000360522
0.000874042
0.00188621
0.000663633
0.000268507
0.000485956
0.000405453
0.000404332
0.000330746
0.000354013
4.21288e-05
2.61506e-05
5.4067e-05
7.92805e-05
7.48886e-05
5.10181e-05
4.80193e-05
4.06098e-05
4.73857e-05
4.93358e-05
5.98022e-05
6.05892e-05
6.87081e-05
7.43326e-05
7.1446e-05
7.46918e-05
8.12453e-05
7.87203e-05
8.04633e-05
8.29454e-05
8.01648e-05
9.04758e-05
9.5237e-05
9.08347e-05
9.59454e-05
0.000104214
0.000115496
0.000119084
0.000125033
0.000106994
0.000626512
-9.46123e-05
0.000141017
0.000235149
0.000499274
0.000227727
0.000155352
0.000133775
0.000137491
0.000138831
0.000155904
0.00018149
0.000189807
0.000182361
0.000199334
-2.63236e-05
0.000220705
0.000512678
0.000892977
0.00104722
0.00102932
0.000716775
0.000382736
0.000102701
0.000703532
0.00438755
0.0154274
0.0142792
0.01007
0.0143973
2.08421e-05
2.29135e-05
4.43007e-05
4.71593e-05
5.06955e-05
4.08536e-05
3.51126e-05
3.26131e-05
3.2183e-05
2.11667e-05
2.06151e-05
2.51532e-05
2.5355e-05
2.65172e-05
1.7833e-05
2.68443e-05
3.32891e-05
3.38731e-05
4.31753e-05
4.26332e-05
5.12125e-05
5.70302e-05
7.23067e-05
7.29849e-05
0.000158025
0.00010643
4.19074e-05
7.75898e-05
6.48874e-05
6.51202e-05
5.49054e-05
0.000104199
0.000172409
0.000184697
0.000197188
0.000242736
0.000241793
0.000267749
0.000286919
0.000190288
0.000331239
0.000354642
0.000140432
8.84592e-05
0.000304517
0.000296071
0.000265918
0.000247362
0.000206736
0.000148776
2.84108e-05
5.34825e-06
1.34381e-05
5.11249e-06
1.4766e-05
1.29342e-05
1.45328e-05
7.71915e-06
2.16378e-05
1.432e-05
-2.79296e-05
6.66861e-05
6.18053e-05
7.06899e-05
6.80249e-05
0.000183912
0.000227758
0.000279683
0.00028374
0.000631117
0.000835056
0.00114019
0.00118262
0.00120325
0.00112983
0.000920766
0.000477699
1.33698e-05
0.000204765
0.000134907
0.000109005
6.17425e-05
-1.66766e-05
4.02454e-05
1.51981e-05
1.87484e-05
2.6126e-05
3.27305e-05
3.30749e-05
2.68833e-05
1.74962e-05
9.68907e-06
1.39508e-05
1.72694e-05
2.3087e-05
3.66685e-05
4.27676e-05
-3.19707e-05
4.76067e-05
9.21833e-05
0.000134621
0.000126389
0.00014927
0.000122753
9.97826e-05
3.37363e-05
-4.41201e-06
4.66154e-05
4.39103e-05
3.50096e-05
3.79552e-05
1.03037e-05
8.36143e-06
1.2744e-06
6.64008e-06
1.05844e-06
6.25083e-06
1.06911e-05
9.97409e-06
7.75048e-06
5.93196e-06
1.2727e-06
4.15563e-06
1.07364e-05
2.52114e-05
3.0058e-05
2.64835e-05
6.42181e-06
1.50173e-05
1.59287e-05
1.55545e-05
1.68935e-05
1.67472e-05
1.56889e-05
1.61131e-05
1.47163e-05
1.34015e-05
-1.86958e-06
9.65272e-06
2.02301e-05
1.91832e-05
1.94105e-05
1.02785e-05
4.85664e-06
8.22824e-06
1.11937e-05
1.276e-05
1.53895e-05
1.38273e-05
9.83842e-06
3.00283e-06
1.60255e-06
2.4202e-06
9.92034e-07
0.0096535
2.70632e-06
3.07648e-07
1.16633e-07
1.90958e-07
3.12173e-07
4.0722e-07
4.22782e-07
4.91691e-07
5.18134e-07
5.58857e-07
5.61396e-07
5.60301e-07
5.31966e-07
5.14509e-07
4.78689e-07
5.78637e-07
1.40583e-06
4.02243e-06
2.97825e-06
2.1258e-06
1.40682e-07
1.50533e-07
1.32631e-07
1.81876e-07
9.61293e-05
0.0219278
0.0224704
0.0253691
0.0243906
0.0215955
0.0187
0.0172742
0.016139
0.0145678
0.0113264
0.0079814
0.00742542
0.00805698
0.00713983
0.0344733
0.0255707
0.0235308
0.0251747
0.0306497
0.0350193
0.0351757
0.0336256
0.0320622
0.0304497
0.0272942
0.0222701
0.0156657
0.00919812
0.00542201
0.00454794
0.00538593
0.00746062
0.00995858
0.0132098
0.0157402
0.0176317
0.0193458
0.0205926
0.0222024
0.0249643
0.0285465
0.0308693
0.03143
0.035335
0.0149326
0.0122528
0.0084822
0.00791737
0.00890273
0.00988495
0.00987359
0.00827796
0.00574747
0.00326436
0.0013273
0.000544861
0.000537822
0.000502546
0.00149329
0.00246405
0.00328436
0.00399568
0.00516738
0.00631243
0.00709926
0.00724777
0.00654029
0.00473097
0.00351567
0.00299554
0.00328194
0.0043094
0.00790684
0.00895727
0.00229355
0.0021934
0.00219377
0.00250265
0.00259714
0.00241397
0.00204367
0.00176636
0.00174586
0.00180529
0.00177321
0.00201447
0.00243999
0.00288403
0.00337849
0.00413346
0.00505158
0.00562018
0.00597951
0.0059735
0.00573441
0.00514159
0.00417292
0.00328998
0.00284112
0.00244588
0.00237524
0.00246381
0.00212512
0.00153906
0.000570513
0.000651096
0.000432883
0.00149691
0.00226747
0.00304569
0.00348656
0.00377878
0.00393239
0.0039518
0.00387639
0.00386757
0.00386985
0.00378477
0.00379187
0.00368645
0.0034608
0.00284848
0.00159087
0.000527944
0.00034668
0.000441157
0.00151041
0.000864147
0.00029453
0.000909309
0.00121201
0.000638852
0.000310958
0.00024763
4.13753e-05
3.49748e-05
6.78614e-05
7.68834e-05
5.63157e-05
4.1728e-05
3.55643e-05
4.69643e-05
5.2959e-05
6.67209e-05
6.97665e-05
7.95328e-05
7.7883e-05
8.64214e-05
7.95557e-05
8.78886e-05
9.11044e-05
8.48347e-05
8.77507e-05
8.22787e-05
8.41759e-05
8.7409e-05
9.52996e-05
9.35322e-05
9.26747e-05
9.66638e-05
0.000106567
0.000119166
0.000119312
0.000104853
0.000329581
0.000169129
0.000218003
0.000523489
0.000156113
1.26213e-05
1.44499e-05
6.48097e-05
0.000123884
0.000176425
0.000181692
0.00020397
0.00018951
0.000189646
0.000187392
0.000177378
0.000185094
0.000210346
0.000293869
0.000668624
0.00103193
0.00105879
0.000717239
0.000316707
0.000194371
0.00138169
0.00723665
0.00858966
0.00554409
0.011255
2.45509e-05
3.10345e-05
4.58895e-05
4.99247e-05
4.16463e-05
3.2715e-05
2.53258e-05
2.84951e-05
2.63883e-05
1.68451e-05
1.32253e-05
1.11078e-05
1.81833e-05
9.87893e-06
9.66491e-06
1.64026e-05
2.36802e-05
1.97678e-05
3.0428e-05
4.16302e-05
4.19948e-05
5.04338e-05
5.92784e-05
8.70606e-05
8.82961e-05
0.000157474
0.000110002
8.18161e-05
6.15123e-05
5.51066e-05
0.000135274
0.000144772
0.000191149
0.000222847
0.000243716
0.00030243
0.000390129
0.000905405
0.00126172
0.00150469
0.00165086
0.00163421
0.00144424
0.0011828
0.000879493
0.000539884
0.000158157
0.000281939
0.000254091
0.000211103
3.21753e-05
1.73583e-05
1.14243e-05
1.74325e-05
1.62735e-05
1.25643e-05
1.45816e-05
6.91954e-06
2.80023e-05
2.43414e-05
-0.000134627
7.32686e-05
7.21683e-05
6.39921e-05
0.000193802
0.000247169
-6.82495e-05
0.000539776
0.000941288
0.00140443
0.00177828
0.00201586
0.0021337
0.00210551
0.00204695
0.00192861
0.00165525
0.00119728
0.000531356
0.000233205
0.000174115
8.91652e-05
5.06541e-05
6.08988e-05
2.9389e-05
1.59614e-05
1.60777e-05
2.65348e-05
3.08884e-05
2.51794e-05
1.59538e-05
1.13552e-05
1.49696e-05
2.09098e-05
3.66001e-05
4.63377e-05
1.69405e-05
0.000130125
0.000209809
0.00045082
0.000905308
0.00126583
0.00117916
0.00097233
0.000301498
0.000224151
0.000140335
5.69495e-05
5.11844e-05
4.45264e-05
3.87398e-05
2.99795e-05
1.6208e-05
3.69838e-06
1.65661e-06
3.60627e-06
6.19112e-06
1.46943e-05
1.43867e-05
1.12051e-05
9.5565e-06
9.97724e-06
4.57307e-06
1.89199e-05
2.89791e-05
2.81752e-05
9.39689e-06
1.64146e-05
1.74824e-05
1.95254e-05
2.251e-05
3.49459e-06
5.82672e-07
2.08298e-05
1.95651e-05
1.60617e-05
1.46364e-05
1.39698e-05
6.34394e-06
1.69893e-05
1.80795e-05
2.14545e-05
1.63516e-05
1.54635e-05
1.53666e-05
8.9734e-06
1.42798e-05
1.59497e-05
1.43408e-05
9.38908e-06
4.84617e-06
1.54098e-06
1.88e-05
0.000115316
0.000118718
4.18149e-07
9.63657e-08
1.80845e-07
3.12708e-07
3.8015e-07
5.15024e-07
5.75548e-07
8.67327e-07
9.0607e-07
1.0029e-06
9.45576e-07
6.87766e-07
5.37005e-07
1.87457e-07
5.00798e-07
4.84336e-07
1.89681e-07
1.29809e-06
4.70379e-06
4.55758e-06
1.90369e-06
6.22727e-07
4.62098e-07
1.75431e-06
0.00478622
0.0253109
0.0305012
0.0297988
0.0233193
0.0172559
0.0152137
0.0153193
0.0159957
0.0158589
0.0140783
0.0101626
0.00755902
0.00774975
0.00708928
0.0339509
0.0242007
0.0222099
0.0246936
0.0319195
0.0358734
0.0364878
0.0364795
0.036458
0.0355783
0.0325318
0.0262996
0.0173451
0.00862664
0.00475453
0.00533859
0.00860208
0.0136066
0.0175569
0.0205419
0.0220476
0.022774
0.0229162
0.0227274
0.02278
0.0242396
0.0274148
0.0303392
0.0311698
0.0344924
0.0146755
0.0120242
0.00878039
0.00893302
0.0103392
0.0115353
0.00993274
0.00682605
0.00414014
0.00268166
0.00067837
0.000515971
0.000498806
0.00177753
0.00307203
0.00417412
0.00599526
0.00728057
0.0081474
0.00869999
0.00917224
0.00930353
0.00909494
0.00775132
0.00506684
0.00351245
0.00323803
0.00393359
0.00710748
0.00897137
0.00225252
0.00218471
0.0022659
0.00258003
0.00248929
0.00192898
0.00137733
0.00123581
0.0014128
0.00158023
0.00152716
0.00182356
0.00234916
0.0030294
0.00379925
0.00530617
0.0064312
0.00717799
0.00747777
0.00749391
0.00714188
0.00652824
0.00554165
0.00416661
0.00323447
0.0026766
0.0024224
0.00248253
0.0023273
0.00173099
0.000577354
0.000633956
0.00066488
0.00176224
0.00269388
0.00337879
0.00370049
0.0039303
0.00401493
0.00392427
0.00392575
0.00390362
0.0038094
0.00381804
0.00376985
0.00383187
0.0037877
0.00344879
0.0023587
0.000511586
0.00037225
0.000360855
0.000775618
0.00119476
0.000422367
0.000905945
0.00173865
0.00149278
0.00032956
0.000190548
4.18652e-05
4.45911e-05
7.40761e-05
6.03971e-05
4.06058e-05
2.89955e-05
4.03649e-05
4.72214e-05
6.33943e-05
6.78591e-05
7.90031e-05
7.8629e-05
8.88351e-05
8.54263e-05
9.5041e-05
8.60738e-05
9.80091e-05
8.44098e-05
8.84131e-05
0.00010325
9.69696e-05
9.06034e-05
9.84857e-05
0.00010161
9.40634e-05
9.96533e-05
0.000104104
0.000108668
0.000110872
9.94209e-05
0.00024717
0.000159713
0.000475372
0.000125443
4.30501e-05
4.95752e-05
7.63426e-06
0.000166766
0.000216473
0.000229946
0.000213439
0.000194835
0.000178628
0.000151174
0.000156888
0.000155329
0.000149712
0.00017765
0.000194092
0.000222763
0.00066916
0.00103714
0.0010198
0.00064714
0.000172329
0.000624509
0.00211245
0.00406282
0.00260498
0.0077919
1.25559e-05
4.15562e-05
4.05646e-05
4.43933e-05
3.69451e-05
2.87842e-05
2.1634e-05
2.92863e-05
2.15642e-05
9.27055e-06
5.61762e-06
1.95008e-05
1.9587e-05
1.92987e-05
1.93114e-05
2.11676e-05
1.30457e-05
7.92521e-06
1.95975e-05
3.104e-05
4.30478e-05
4.40495e-05
5.05841e-05
6.66778e-05
-3.10849e-05
0.000120536
8.96317e-05
8.12588e-05
5.70038e-05
5.52929e-05
0.000147675
0.000163741
0.000210281
0.000272889
0.000326025
0.000746354
0.00157776
0.00225354
0.0026854
0.00319392
0.00357712
0.00355228
0.00293104
0.00251868
0.00198319
0.00138762
0.00068898
0.000259149
0.00028283
0.000258998
0.000166559
4.01574e-05
1.37546e-05
1.47304e-05
1.50696e-05
1.24121e-05
1.52368e-05
2.04069e-05
3.17148e-05
2.6454e-05
0.000277816
7.69148e-05
-2.9779e-05
0.000135833
0.000232756
0.000269836
0.000215625
0.000909056
0.0015387
0.00212161
0.00243893
0.00304289
0.00358017
0.00385348
0.00374635
0.00311207
0.00246019
0.00199906
0.00142697
0.000611227
0.000230112
0.000169873
0.000113711
1.88143e-05
4.15921e-05
2.63958e-05
2.2524e-05
2.93007e-05
2.12731e-05
1.93666e-05
8.0516e-06
1.28731e-05
1.69654e-05
2.56773e-05
4.44015e-05
1.69907e-05
0.00015973
0.000147562
0.00138941
0.00241629
0.00438064
0.0056705
0.00618467
0.00461779
0.00251806
0.00164133
0.000493174
0.000187497
6.91588e-05
5.19073e-05
4.60524e-05
3.73691e-05
1.23827e-05
9.91408e-06
3.06968e-06
3.99734e-06
1.12844e-05
1.44819e-05
1.37042e-05
1.23504e-05
9.50136e-06
9.90951e-06
8.80123e-06
2.44283e-05
2.94225e-05
2.03194e-05
8.94223e-07
1.83031e-05
2.26835e-05
2.78952e-06
1.46612e-05
1.85218e-05
1.55308e-05
1.99528e-05
5.8744e-06
3.18109e-06
1.65405e-05
1.28759e-05
1.24619e-05
1.49904e-05
1.94568e-05
2.12231e-05
2.50861e-05
3.23138e-05
3.58581e-05
2.74408e-05
2.03564e-05
1.85316e-05
1.50404e-05
9.10935e-06
8.22911e-06
6.15515e-06
7.6442e-05
0.000107304
2.52237e-06
2.50343e-07
4.37801e-08
2.79365e-07
3.73199e-07
3.94527e-07
7.27058e-07
1.33713e-06
1.17296e-06
1.89457e-06
2.09803e-06
1.66824e-06
1.48244e-06
1.23112e-06
6.71879e-07
4.39128e-07
3.12803e-07
4.80154e-07
4.43304e-07
1.69173e-06
1.10825e-05
1.89917e-06
2.80956e-06
2.45136e-06
1.5513e-05
0.0260575
0.0306389
0.0352162
0.027849
0.0166354
0.0122602
0.012248
0.0136071
0.0160577
0.0170011
0.0158243
0.0119085
0.00794004
0.0075839
0.00694034
0.0334703
0.0232534
0.0203168
0.023805
0.031819
0.0367056
0.0383988
0.0395104
0.0402374
0.0399046
0.0378183
0.0318205
0.0208583
0.00881168
0.00508777
0.00817878
0.0153038
0.0212565
0.0240327
0.0246585
0.0241887
0.0234796
0.0230058
0.0227724
0.0227583
0.0238604
0.0266347
0.0300176
0.0310718
0.0341309
0.0143816
0.0120201
0.00919565
0.00974278
0.0113415
0.0111051
0.00700295
0.0037184
0.00310327
0.00213343
0.000310859
0.000122326
0.00135338
0.00300041
0.00474238
0.00721311
0.00844619
0.00899306
0.00926663
0.00942939
0.00959683
0.00969887
0.0098729
0.00924642
0.00713999
0.0041599
0.00345406
0.0038651
0.0065792
0.00900301
0.00229209
0.00218324
0.00239554
0.00258489
0.00220804
0.00123806
0.000456578
0.000428752
0.000974808
0.00130061
0.0013053
0.00151469
0.00217095
0.00301351
0.00424071
0.00594611
0.00711439
0.00791344
0.00834279
0.00832982
0.00799211
0.00736767
0.00643343
0.00514609
0.00352321
0.00286919
0.00251824
0.00256104
0.00243858
0.00195741
0.000563829
0.000648921
0.000749723
0.00197312
0.00290205
0.00343833
0.00370937
0.00393766
0.00410145
0.00400165
0.00405236
0.00391336
0.00390662
0.00380378
0.0038093
0.00382844
0.00389462
0.00370987
0.00275779
0.00102812
0.000411217
0.000289351
0.000470366
0.00122116
0.000774909
0.000879398
0.00199329
0.00190625
0.000388182
0.000153099
4.30194e-05
5.34249e-05
7.17874e-05
5.01771e-05
3.45197e-05
2.97856e-05
4.32358e-05
5.15387e-05
6.64122e-05
7.05965e-05
8.20538e-05
8.26066e-05
9.45747e-05
9.0636e-05
8.75533e-05
8.40271e-05
8.67998e-05
8.44195e-05
8.46391e-05
9.08909e-05
9.47371e-05
9.24486e-05
9.3976e-05
9.90188e-05
9.69326e-05
0.000100583
0.000102773
0.000105618
0.000116736
9.88013e-05
0.000218445
0.000217227
0.000179337
3.97887e-05
2.74733e-05
5.93402e-05
0.000163121
0.000241865
0.000255975
0.000231114
0.000200652
0.000143929
0.000124602
0.000102057
8.22022e-05
8.18584e-05
0.000121707
0.000133813
0.00016655
0.00019395
0.000309119
0.000750974
0.00102123
0.000808281
0.000280223
0.000360553
0.00130219
0.00184095
0.00195352
0.00475313
3.58168e-05
4.1977e-05
4.82414e-05
4.15687e-05
3.33808e-05
2.74166e-05
2.1938e-05
2.50452e-05
9.72719e-06
1.92862e-05
1.62875e-05
1.51842e-05
1.44797e-05
1.56934e-05
1.7058e-05
1.7208e-05
2.12353e-05
2.24782e-05
8.75026e-06
2.26457e-05
3.45544e-05
4.74069e-05
4.49387e-05
5.37169e-05
7.1785e-05
8.67985e-05
8.5322e-05
6.9305e-05
7.08023e-05
6.50543e-05
0.000161651
0.000209723
0.000258131
0.000333156
0.000762551
0.0019047
0.00272921
0.00404024
0.00597389
0.00701338
0.00766939
0.00742184
0.00659519
0.00513945
0.0029857
0.00219084
0.00135882
0.000603844
-6.55047e-05
0.000277526
0.000218618
7.63047e-05
1.5246e-05
1.5171e-05
1.36965e-05
1.37176e-05
1.84388e-05
3.0084e-05
4.56028e-05
3.66786e-05
0.000152506
7.26879e-05
7.93361e-05
0.000170248
0.000247005
0.000289295
0.000419242
0.0012582
0.0020488
0.00261297
0.00373302
0.00446677
0.00469991
0.00480502
0.00480232
0.00459341
0.00391668
0.00259678
0.00214788
0.00128624
0.000167679
0.00021711
0.000145641
6.23453e-05
6.24036e-05
3.7776e-05
3.04562e-05
3.43513e-05
1.67828e-05
1.24767e-05
1.12846e-05
1.47703e-05
2.02948e-05
3.86289e-05
-2.19382e-05
0.000130263
-4.05548e-05
0.00145493
0.00342894
0.00774276
0.0115986
0.0140921
0.0142188
0.0130528
0.00961336
0.00522504
0.00212858
0.000564559
0.000163191
4.36069e-05
4.8249e-05
3.93663e-05
2.72012e-05
1.61943e-05
7.15581e-06
6.63259e-06
1.37532e-05
1.56923e-05
1.47342e-05
1.21294e-05
9.54602e-06
1.04109e-05
1.52288e-05
2.70615e-05
2.47947e-05
1.30824e-05
1.7581e-05
2.08334e-05
7.0622e-06
2.96572e-05
3.23169e-05
2.36652e-05
2.94988e-05
1.12912e-05
7.15351e-06
1.67565e-05
6.44174e-06
1.47554e-05
1.21636e-05
1.57193e-05
2.18311e-05
2.77025e-05
3.13414e-05
0.000141566
0.000142038
2.77121e-05
2.36678e-05
2.16326e-05
1.4743e-05
8.20882e-06
9.22523e-06
4.2167e-06
1.11753e-05
8.51975e-06
5.43067e-07
1.45578e-07
1.14339e-07
3.26933e-07
3.67813e-07
8.50025e-07
6.28626e-07
2.80484e-06
4.63002e-06
3.37655e-06
2.55797e-06
4.41891e-06
2.65646e-06
1.62822e-06
9.98371e-07
7.07305e-07
5.65707e-07
3.00409e-07
4.13662e-07
2.89719e-07
6.82571e-06
2.37001e-06
8.50818e-06
1.86438e-05
0.000964233
0.0468072
0.0351221
0.0366047
0.0213441
0.0115842
0.0102547
0.0110133
0.0125188
0.0156165
0.0176579
0.0170857
0.013195
0.00829865
0.00753791
0.00687826
0.0333255
0.0220701
0.0182449
0.0214754
0.0300339
0.036175
0.0391495
0.0406236
0.0413755
0.0413864
0.0402989
0.0353787
0.0240441
0.0092357
0.00623714
0.0129789
0.0220753
0.02562
0.0256211
0.0244621
0.0230538
0.0215977
0.0209288
0.0212068
0.0220604
0.0236031
0.0266194
0.0300464
0.0311354
0.0340496
0.0141428
0.0122875
0.00957872
0.0101731
0.0112132
0.00872384
0.00341455
0.00194647
0.00221744
0.00187507
0.000177728
0.0003706
0.00212935
0.00402765
0.00692422
0.0087549
0.00914093
0.00918423
0.0090151
0.00898752
0.00907284
0.00937723
0.00965144
0.00974231
0.00835171
0.00532074
0.00377586
0.00391408
0.00646798
0.0088618
0.0022424
0.00217581
0.00241796
0.00250138
0.00185922
0.000436145
0.000439298
0.000456783
0.000463344
0.00106005
0.00116055
0.00119357
0.0019089
0.00286867
0.00422446
0.00606512
0.00727917
0.00805961
0.00849479
0.00859923
0.00834457
0.00771786
0.0068801
0.00562705
0.00382184
0.00304175
0.00263562
0.00259668
0.00258167
0.00196555
0.00055321
0.000644429
0.000822324
0.00206651
0.00291562
0.00327913
0.0035889
0.0038539
0.00411611
0.00409531
0.00403277
0.00388553
0.00377001
0.00375353
0.00374905
0.00381854
0.00397218
0.00377624
0.0029344
0.0012601
0.000418743
0.000291011
0.000405357
0.00114072
0.00117801
0.00132498
0.00205761
0.00197784
0.000409297
7.45844e-05
4.60323e-05
5.99354e-05
6.50766e-05
4.02412e-05
2.31289e-05
2.93686e-05
4.30273e-05
4.9256e-05
6.47243e-05
7.70708e-05
8.1799e-05
8.36738e-05
9.62066e-05
8.86404e-05
9.3556e-05
8.17461e-05
7.99221e-05
8.4802e-05
7.67964e-05
7.7971e-05
9.83941e-05
9.73919e-05
0.000107405
0.000100582
9.89973e-05
9.6745e-05
9.53132e-05
0.000105161
0.000109088
9.82788e-05
0.000212747
0.000219199
5.8404e-05
1.69423e-05
3.32866e-05
1.85333e-05
0.000202331
0.000259712
0.000254241
0.000199479
0.000156898
0.000110093
7.23893e-05
1.33891e-05
2.19102e-05
2.60595e-05
6.87081e-05
8.31493e-05
0.00013446
0.000181933
0.00021035
0.000562296
0.000949947
0.000877008
0.000329681
0.000257382
0.000847248
0.00126504
0.001599
0.00185943
4.12519e-05
3.86635e-05
4.66253e-05
3.8248e-05
3.17456e-05
2.64536e-05
1.9812e-05
1.64499e-05
1.99684e-05
1.65272e-05
1.40021e-05
1.08387e-05
1.07513e-05
1.02425e-05
1.40735e-05
1.48333e-05
1.9046e-05
2.01819e-05
1.24447e-05
1.58538e-05
2.7783e-05
4.11546e-05
5.16663e-05
4.55214e-05
5.47832e-05
6.47143e-05
6.52897e-05
8.08352e-05
9.39113e-05
7.52554e-05
0.000178234
0.000197813
0.000270064
0.000250895
0.00146285
0.00265322
0.00379655
0.00630247
0.0078658
0.00914288
0.00983391
0.00994319
0.00885648
0.00765471
0.0052217
0.00288915
0.00192137
0.00114015
0.000289076
0.000294806
0.000242337
0.000122746
3.96455e-05
1.60711e-05
1.74543e-05
2.12451e-06
2.53677e-05
4.53039e-05
5.78228e-05
4.16665e-05
3.18946e-05
7.64327e-05
0.000100545
0.000174845
0.000246381
0.00028701
0.000672191
0.00148753
0.00230368
0.00327678
0.00442956
0.00486067
0.00489756
0.0049457
0.00500776
0.00494508
0.00470257
0.00392294
0.00255265
0.00183475
0.000830021
0.000276903
0.000189362
9.56964e-05
-2.25624e-05
4.23961e-05
4.45901e-05
3.30887e-05
1.52284e-06
2.10918e-05
1.19278e-06
1.57946e-05
2.36284e-05
4.33114e-05
2.18568e-05
0.000179132
0.000721985
0.00231186
0.00694815
0.0121195
0.0163203
0.0191062
0.0201683
0.0190216
0.0159885
0.011119
0.00531621
0.00165639
-6.66241e-05
0.000101304
5.63652e-05
4.83154e-05
3.36962e-05
2.56458e-06
1.03357e-05
9.4079e-06
1.4793e-05
1.53071e-05
1.35538e-05
1.28706e-05
9.59305e-06
3.8304e-06