/*--------------------------------*- C++ -*----------------------------------*\
| =========                 |                                                 |
| \\      /  F ield         | OpenFOAM: The Open Source CFD Toolbox           |
|  \\    /   O peration     | Version:  2.1.1                                 |
|   \\  /    A nd           | Web:      www.OpenFOAM.org                      |
|    \\/     M anipulation  |                                                 |
\*---------------------------------------------------------------------------*/
FoamFile
{
    version     2.0;
    format      ascii;
    class       volScalarField;
    location    "0.006300000";
    object      T;
}
// * * * * * * * * * * * * * * * * * * * * * * * * * * * * * * * * * * * * * //

dimensions      [0 0 0 1 0 0 0];

internalField   nonuniform List<scalar> 
12384
(
3070.42
3062.99
3060.89
3062.53
3066.47
3067.65
3071.28
3070.43
3072.87
3070.29
3071.53
3067.9
3075.65
3065.13
2803.96
2838.84
2854.42
2865.96
2879.72
2881.18
2880.71
2874.46
2873.51
2874.01
2876.29
2879.77
2882.92
2887.27
2891.06
2894.05
2896.3
2896.99
2896.76
2895.34
2894.46
2890.37
2890.43
2888.79
2886.73
2882.57
2879.24
2848.44
2699.08
2673.38
2923.31
2946.19
2977.03
2981.66
2977.29
2967.78
2964.84
2955.94
2950.5
2940.89
2937.34
2931.84
2930.52
2925.04
2925.36
2921.87
2923.51
2922.1
2926.97
2925.03
2933.89
2931.32
2942.96
2944.7
2956.05
2969.21
2985.31
2993.83
2987.22
2994.86
2935.99
2921.3
2914.89
2908.56
2900.92
2896.8
2891.07
2889.95
2887.48
2887.95
2885.76
2886.43
2883.18
2884.59
2875.71
2878.82
2867.63
2872.07
2863.79
2868.36
2865.78
2874.44
2875.03
2882.54
2888.31
2895.31
2886.32
2882.67
2885.33
2888.31
2881.29
2882.19
2889.28
2893.1
2894.6
2893.04
2892.14
2882.89
2881.37
2864.33
2867.15
2854.92
2857.44
2856.36
2858.16
2863.23
2867
2864.59
2860.14
2853.09
2850.12
2842.9
2845.84
2845.53
2847.64
2843.01
2845.06
2841.05
2838.96
2837.45
2760.69
2745.88
2738.62
2743.91
2750.04
2755.01
2752.55
2751.1
2748.74
2747.87
2747.4
2747.85
2747.63
2748.16
2750.41
2748.06
2757.42
2753.05
2766.67
2764.4
2779.29
2781.24
2792.37
2797.73
2801.68
2809.01
2816.96
2832.04
2839.61
2833.21
2750.59
2754.06
2764.72
2775.73
2783.77
2784.09
2782.33
2786.34
2783.44
2779.86
2777.59
2774.4
2767.63
2769.86
2763.5
2767.25
2767.98
2768.72
2770.69
2772.87
2774.65
2773.02
2772.77
2769.5
2674.91
2634.26
2629.43
2628.29
2627.69
2627.82
2751.81
2740.61
2736.79
2744.32
2757.77
2765.48
2771.29
2767
2772.62
2764.32
2765.81
2761.47
2765.57
2760.35
2771.8
2771.33
2782.37
2784.93
2789.18
2790.82
2786.65
2771.78
2792.06
2801.95
2805.82
2804.37
2805.04
2805.78
2809.38
2810.94
2872.14
2860.56
2857.72
2856.46
2858.61
2853.74
2858.12
2848.62
2853.9
2847.8
2852.64
2852.46
2858.6
2862.86
2868.24
2871.61
2875.32
2877.7
2871.77
2769.36
2672.18
2673.08
2702.32
2715.36
2720.22
2721.2
2715.41
2703.08
2677.97
2659.47
2893.08
2864.6
2859.64
2865.85
2867.59
2870.92
2871.52
2872.03
2875.64
2865.83
2871.11
2855.1
2861.41
2849.8
2854.16
2851.6
2856.68
2859.87
2867.27
2868.16
2871.52
2848.99
2796.8
2789.62
2794.03
2796.18
2798.25
2802.05
2801.97
2800.64
2846.68
2854.71
2860.64
2863.58
2864.91
2866.03
2865.69
2864.46
2860.33
2861.81
2854.71
2858.58
2856.29
2865.18
2866.93
2876.1
2882.23
2886.54
2893.82
2887.09
2855.15
2830.24
2826.72
2820.64
2816.4
2815.02
2817.35
2819.72
2822.76
2826.87
2819.77
2823.27
2826.17
2829.21
2832.69
2859.73
2878.47
2878.54
2873
2867.48
2867.04
2862.04
2861.1
2861.16
2862.82
2865.25
2867.15
2867.98
2868.61
2867.01
2864.3
2862.59
2856.7
2851.14
2852.28
2847.1
2846.29
2846.03
2835.96
2833.83
2824.32
2820.86
2841.61
2883.19
2779.45
2476.68
2591.71
2716.77
2593.82
2595.44
2615.43
2630.34
2642.36
2650.16
2659.46
2663.63
2678.39
2686.53
2701.8
2714.56
2726.98
2729.45
2718.08
2678.91
2634.09
2597.09
2581.16
2580.45
2595.58
2790.74
3008.72
3018.92
3040.57
3051.59
3059.81
3060.24
3065.09
3068.37
3076.07
3077.67
3080.49
3078.22
3078.52
3068.14
2804.89
2844.9
2872.98
2895.9
2901.13
2884.67
2868.9
2861.15
2869.43
2877.56
2889.69
2904.63
2915.86
2928.26
2940.31
2950.68
2955.41
2956.11
2954.2
2949.8
2944.91
2936.23
2929.18
2920.85
2909.79
2895.76
2885.39
2869.95
2802.83
2729.62
2926.14
2954.77
2984.43
2979.16
2971.55
2961.72
2958.5
2949.43
2943.3
2934.97
2929.06
2922.83
2921.56
2919.07
2920.49
2920.33
2923.57
2925.5
2927.33
2928.41
2931.71
2929.72
2934.48
2935.84
2941.69
2952.79
2974.9
2989.16
2993.15
2992.74
2935.16
2917.69
2906.89
2896.56
2887.18
2882.34
2880.85
2880.85
2881.05
2882.64
2885.83
2886.67
2889.38
2888.91
2886.26
2884.94
2880
2877.66
2874.26
2874.2
2874.4
2875.3
2876.23
2878.87
2884.2
2892.55
2892.57
2888.22
2889.84
2889.44
2877.61
2887.05
2892.68
2895.5
2894.08
2885.61
2878.43
2870.62
2857.48
2853.79
2851.17
2845.39
2842.87
2843.47
2846.42
2850.21
2854.94
2860.98
2858.09
2854.65
2853.62
2845.23
2847.1
2853.38
2855.25
2853.07
2851.56
2848.45
2844.17
2840.32
2760.02
2745.17
2743.93
2752.92
2755.77
2746.85
2740.34
2738.31
2740.11
2742.97
2746.05
2748.81
2751.36
2754.41
2756
2757.7
2761.66
2762.93
2769.11
2769.18
2777.83
2780.64
2786.21
2792.29
2797.27
2802.24
2809.59
2817.75
2823.72
2815.02
2752.47
2762.8
2781.5
2782.19
2786.3
2792.09
2785.84
2783.54
2777.92
2776.96
2770.59
2768.15
2767.09
2763.21
2760.92
2759.9
2762.14
2763.7
2765.53
2768.97
2772.96
2774.24
2777.33
2775.58
2756.94
2643.57
2610.36
2621.19
2641.17
2628.65
2742.84
2730.56
2758.63
2780.25
2789.21
2787.9
2785.22
2779.29
2775.76
2767.41
2767.75
2763.62
2763.49
2767.45
2771.7
2777.64
2784.75
2787.78
2792.13
2793.95
2793.51
2781.13
2779.69
2800.99
2805.97
2799.87
2792.85
2787.51
2793.59
2808.36
2865.85
2857.02
2857.9
2859.54
2862.12
2861.32
2860.4
2859.45
2861.61
2859.56
2860.93
2863.78
2866.68
2869.11
2872.58
2874.59
2876.11
2877.64
2877.81
2843.04
2721.65
2692.28
2748.05
2762.11
2755.91
2753.38
2758.18
2766.22
2760.26
2736.98
2897.01
2862.77
2862.72
2871.29
2875.9
2882.87
2883.89
2887.93
2886.08
2882.78
2885.14
2875.86
2876.38
2872.37
2867.4
2866.24
2867.02
2865.79
2865.33
2868.05
2871.58
2867.73
2835
2796.31
2790.8
2795.37
2797.88
2803.17
2808.09
2807.48
2843.81
2850.54
2860.04
2863.74
2866.08
2868.16
2869.43
2869.69
2871.98
2868.54
2871.86
2871.53
2872.51
2870.75
2877.62
2876.66
2881.47
2886.81
2889.25
2893.35
2880.68
2841.21
2810.27
2797.81
2796.33
2802.27
2811.3
2817.44
2816.59
2810.68
2822.02
2825.24
2828.37
2831.55
2850.77
2872.13
2874.43
2868.04
2863.38
2859.19
2856.76
2855.95
2856.73
2857.18
2856
2855.98
2855.14
2856.57
2858.38
2860.47
2857.27
2851.93
2847.41
2840.16
2836.12
2839.65
2843.03
2844.28
2838.1
2833.93
2718.87
2716.34
2718.06
2762.94
2871.19
2614.2
2806.79
2627.91
2598.79
2616.57
2635.3
2648.35
2656.46
2662.56
2666.35
2669.19
2674.96
2679.12
2691.54
2712.7
2750.14
2786.12
2802.33
2775.3
2690.68
2622.76
2588.26
2583.22
2604.13
2828.87
3007.88
3028.7
3031
3019.22
3015.08
3014.53
3020.46
3030.1
3043.56
3058.98
3073.59
3078.46
3079.76
3071.2
2807.7
2857.78
2895.19
2915.48
2899.71
2862.94
2854.29
2857.38
2877.12
2888.35
2905.06
2919.91
2941.63
2959.64
2976.1
2981.99
2982.98
2980.75
2976.53
2971.15
2960.7
2952.89
2947.92
2939.67
2932.15
2918.87
2897.72
2882.46
2849.3
2773.26
2928.83
2962.24
2987.15
2979.97
2975.91
2968.07
2965.38
2956.72
2956.41
2947.15
2937.51
2926.75
2926.24
2925.38
2932.73
2934.18
2943.52
2947.96
2955.34
2957.26
2964.04
2959.37
2955.39
2947.61
2942.23
2944.71
2958.46
2981.75
2992.03
2993.4
2933.41
2913.07
2900.8
2889.03
2882.52
2880.68
2879.63
2879.64
2879.33
2881.8
2884.47
2892.44
2894.39
2896.49
2891.95
2892.22
2884.67
2881.15
2876.52
2875.58
2874.01
2880.24
2878.92
2880.21
2881.84
2886.59
2893.5
2894.55
2891.69
2895.49
2879.47
2891.55
2894.25
2891.42
2881.56
2872.83
2866.67
2853.3
2849.9
2845.31
2840.02
2837.07
2835.33
2838.16
2838.92
2840.4
2844.41
2850.08
2856.68
2852.62
2850.02
2849.99
2846.41
2855.12
2858.61
2855.69
2849.52
2844.3
2835.39
2833.56
2759.07
2746.3
2751.11
2754.9
2744.44
2732.93
2734.32
2740.65
2745.85
2751.77
2756.57
2762.46
2766.9
2770.59
2775.58
2778.14
2781.87
2781.62
2789.08
2785.02
2788.57
2787.45
2789.22
2790.66
2792.68
2796.36
2801.33
2809.38
2816.34
2811.87
2759.76
2782.19
2777.95
2789.34
2787.71
2778.16
2764.65
2760.5
2760.71
2759.36
2762.77
2761.78
2762.56
2759.02
2759.17
2764.38
2763.59
2765.22
2765.57
2766.22
2768.95
2772.51
2773.07
2772.61
2767.44
2735.73
2644.38
2657.23
2692.46
2654.73
2719.91
2754.96
2786.08
2793.67
2789.34
2783.15
2780.24
2770.22
2772.32
2763.38
2765.03
2759.71
2760.98
2761.98
2763.66
2771.73
2776.39
2785.24
2790.34
2795.02
2795.61
2789.18
2775.22
2790.14
2803.74
2798.12
2783.6
2768.48
2770.31
2795.78
2852.91
2858.91
2862.2
2864.78
2867.91
2870.23
2869.38
2875.04
2878.02
2877.82
2880.23
2879.62
2883.74
2885.08
2882.85
2881.99
2880.78
2878.57
2878.55
2872.16
2805.62
2717.17
2746.64
2764.1
2748.66
2740.98
2750.33
2776.66
2787.21
2776.63
2902.46
2861.41
2873.64
2879.26
2886.25
2890.55
2894.28
2897.49
2896.64
2894.2
2894.31
2882.73
2888.67
2880.7
2881.06
2878.48
2880.77
2882.37
2878.1
2873.04
2871.37
2875.39
2861.96
2821.71
2797.14
2791.58
2793.67
2803.57
2816.34
2821.54
2843.19
2853.17
2862.06
2865.15
2868.89
2872.45
2877.46
2887.77
2889.47
2897.89
2897.65
2902.84
2900.64
2903.53
2899.48
2897.73
2894.36
2888.8
2888.14
2888.78
2891.22
2868.47
2821.29
2795.23
2792.19
2801.98
2817.31
2831.28
2830.88
2813.9
2824.78
2829.06
2832.39
2845.41
2867.05
2873.83
2868.06
2863.04
2862.6
2865.39
2870.42
2874.62
2874.03
2870.56
2865.73
2860.48
2855.61
2852.51
2852.37
2855.96
2854
2847.27
2843.98
2835.86
2830.51
2835.9
2837.81
2842.51
2839.29
2834.01
2749.27
2734.97
2740.52
2804.33
2852.12
2844.58
2646.53
2601.31
2614.98
2636.05
2650.76
2660.33
2668.41
2671.65
2676.71
2676.89
2676.32
2672.5
2671.56
2670.17
2688.3
2733
2794.39
2820.23
2759.51
2662.42
2607.01
2603.86
2649.46
2904.78
3007.28
2999.79
2970.98
2966.24
2979.17
2995.77
3003.3
3005.02
3009.57
3028.93
3056.13
3073.48
3080.34
3072.97
2810.45
2870.73
2915.37
2923.89
2883.91
2848.28
2847.69
2858.16
2869.53
2875.41
2889.73
2913.24
2944.56
2973.02
2986.06
2990.53
2986.74
2982.79
2978.28
2967.62
2961.73
2958.08
2950.99
2948.09
2943.83
2933.15
2911.28
2891.43
2868.11
2801.16
2931.05
2967.23
2989.06
2985.5
2984.11
2978.04
2972.2
2959.74
2958
2949.53
2936.48
2922.87
2925.93
2934.41
2944.12
2951.62
2960.76
2967.4
2967.98
2965.33
2968.42
2967.71
2970.16
2967.24
2956.5
2946.47
2950.27
2973.03
2988.83
2993.32
2931.67
2909.51
2896.14
2886.23
2883.06
2882.18
2881.22
2879.35
2878.78
2876.63
2885.03
2892.58
2898.2
2896.77
2895.88
2885.53
2875.96
2865.45
2865.24
2860.95
2864.2
2867.21
2877.14
2882.64
2881.17
2886
2892.92
2895.25
2894.62
2899.64
2894.29
2894.79
2895.07
2882.4
2873.23
2864.58
2854.18
2845.68
2846.74
2834.42
2835.02
2830.5
2833.4
2831.92
2833.79
2836.45
2837.26
2841.04
2848.29
2850.33
2846.97
2846.93
2845.36
2852.67
2857.21
2852.45
2842.18
2843.5
2833.38
2824.97
2758.74
2749.85
2754.45
2747.28
2730.25
2732.64
2740.74
2746.15
2752.27
2758.89
2766.31
2773.06
2779
2785.06
2789.1
2794.59
2798.17
2803.64
2805.07
2811.46
2802.59
2801.82
2796.63
2793.61
2791.41
2792.55
2796.68
2803.08
2811.53
2809.88
2767.8
2779.94
2787.08
2786.99
2766
2747.99
2750.34
2758.68
2767.83
2768.95
2769.9
2773.85
2763.08
2763.71
2762.78
2758.64
2759.79
2761.62
2766.08
2767.74
2767.06
2769.33
2772.53
2772.62
2771.05
2760.68
2711.04
2700.81
2728.32
2677.66
2724.78
2775.84
2792.83
2788.08
2783.42
2778.66
2776.44
2772.17
2773.76
2767.15
2766.49
2766.33
2761.57
2765.79
2764.72
2768.8
2773.13
2779.08
2785.12
2791.01
2795.81
2793.65
2780.35
2776.3
2794.04
2797.25
2785.33
2765.31
2761.44
2789.81
2861.79
2863.67
2866.59
2873.22
2876.15
2882.92
2890.52
2894.32
2890.88
2894.75
2893.27
2896.11
2893.74
2894.35
2893.3
2891.87
2890.15
2883.39
2879.49
2879.46
2855.05
2766.67
2739.25
2760.75
2755.03
2739.36
2748.51
2786.96
2804.12
2793.15
2903.43
2873.53
2880.7
2886.73
2892.08
2897.43
2904.17
2899.86
2899.35
2899.06
2894.89
2891.2
2892.92
2886.5
2884.53
2885.35
2883.6
2889.62
2887.21
2882.72
2881.38
2877.51
2872.83
2855.61
2815.99
2790.44
2785.86
2798.16
2818.99
2826.13
2843.13
2858.41
2863.34
2867.16
2872.2
2880.78
2894.5
2904.86
2920.51
2929.4
2937.94
2939.01
2940.07
2932.78
2934.45
2923.97
2914.57
2903.62
2892.52
2888.35
2891.4
2884.32
2847.04
2804.13
2792.76
2796.51
2818.45
2838.09
2838.62
2825.29
2825.76
2828.65
2838.43
2857.84
2872.66
2870.83
2866.75
2867.52
2876.23
2888.36
2896.26
2900.42
2898.24
2892.12
2883.07
2872.03
2860.32
2851.75
2848.74
2851.26
2853.18
2851.68
2844.43
2844.62
2844.92
2844.42
2841.33
2843.77
2840.42
2833.19
2785.36
2768.87
2831.83
2896.95
2872.81
2674.45
2598.59
2611.27
2634.18
2654.74
2672.35
2691.16
2706.06
2719.22
2723.5
2720.52
2709.56
2701.98
2687.5
2675.79
2666.57
2677.18
2729.09
2814.92
2826.61
2751.06
2683.64
2671.01
2745.35
2923.62
2983.82
2941.16
2931.63
2969.04
3012.16
3028.44
3032.19
3022.11
3012.55
3011.02
3036.71
3065.13
3080.14
3073.4
2815.48
2883.76
2932.36
2926.23
2871.88
2839.62
2837.68
2840.12
2843.13
2847.94
2861.9
2892.46
2935.61
2973.1
2986.49
2986.73
2982.69
2970.65
2964.92
2958.68
2958.43
2958.25
2958.6
2957.19
2954.7
2945.96
2923.44
2897.78
2875.39
2812.68
2931.55
2968.87
2991.34
2990.81
2990.76
2981.16
2974.54
2963.46
2964.05
2947.23
2934.34
2923.66
2936.14
2945.39
2960.5
2968.95
2966.06
2963.74
2964.6
2961.66
2964.2
2965.81
2970.59
2969.65
2968.16
2954.18
2949.81
2963.85
2985.34
2990.9
2930.26
2907.17
2894.34
2887.2
2885.63
2885.83
2884
2882.76
2876.03
2875.62
2881.82
2892.97
2895.72
2898.1
2890.55
2878.66
2862.13
2858.35
2850.39
2851.23
2851.55
2860.69
2867.46
2876.53
2884.56
2887.5
2891.19
2897.83
2902.43
2900.39
2893.9
2893.35
2890.08
2877.42
2864.98
2858.18
2846.61
2842.63
2838.48
2829.14
2828.49
2829.86
2825.53
2825.45
2827.21
2829.45
2833.52
2836.28
2842.18
2850.74
2843.31
2842.54
2845.95
2848.27
2855.01
2850.39
2835.06
2837.39
2831.92
2821.28
2759.27
2753.45
2752.82
2735.72
2728.71
2738.21
2743.25
2748.93
2756.66
2765.29
2772.89
2779.27
2785.73
2791.13
2798.29
2803.64
2811.75
2816.4
2818.6
2825.65
2821.83
2815.69
2807.44
2799.14
2792.58
2788.33
2789.89
2796.77
2805.87
2806.31
2775.23
2781.22
2789.94
2759.05
2734.35
2742.71
2760.77
2777.29
2784.48
2779.51
2781.52
2769.16
2766.88
2766
2759.41
2759.88
2758.18
2758.62
2760.77
2767.25
2768.64
2767.64
2767.76
2768.15
2769.52
2765.41
2756.95
2742.56
2755.76
2708.88
2755.77
2788.67
2789.12
2784.08
2781.09
2778.96
2778.75
2778.44
2775.33
2767.62
2768.62
2759.43
2761.1
2759.97
2763.03
2766.46
2770.34
2774.85
2780.58
2786.78
2792.05
2795.3
2785.1
2772.46
2779.72
2786.14
2779.27
2763.12
2772.27
2794.06
2862.15
2868.49
2871.43
2883.54
2890.67
2897.99
2904.58
2904.61
2901.7
2906.76
2904.74
2902.76
2908.38
2903.8
2901.15
2897.35
2896.79
2891.07
2883.67
2880.56
2874.22
2816.4
2750.18
2751.47
2751.31
2740
2753.42
2799.55
2827.93
2806.81
2895.22
2886.81
2887.02
2892.11
2896.15
2900.95
2904.3
2899.3
2903.99
2901.58
2894.39
2892.82
2886.59
2881.02
2882.67
2885.62
2894.83
2890.99
2890.16
2897.33
2889.1
2881.05
2883.82
2867.85
2831.64
2805.85
2796.32
2804.67
2827.75
2841.33
2852.37
2861.21
2864.6
2869.77
2878.61
2894.06
2910.68
2933.28
2938.95
2947.19
2932.7
2929.08
2925.71
2939.61
2947.89
2943.61
2937.41
2923.28
2905.1
2893.93
2889.47
2890.13
2869.41
2825.06
2799.7
2799.69
2825.82
2843.01
2841.56
2831.24
2825.95
2828.8
2844.22
2866.19
2872.92
2868.76
2871.51
2878.6
2896.64
2912.51
2919.87
2922.56
2920.76
2912.52
2901.73
2886.99
2867.93
2853.94
2845.41
2848.45
2856.16
2860.81
2862.36
2884.18
2884.06
2867.13
2852.63
2848.52
2841.86
2832.8
2802.29
2791.61
2870.9
2875.14
2753.71
2619.15
2605.71
2627.66
2653.7
2682.67
2711.57
2737.9
2761.08
2772.91
2775.56
2768.55
2745.23
2731.65
2709.14
2698.67
2677.77
2664.45
2666.9
2745.93
2845.53
2814.63
2776.65
2774.06
2858.2
2782.76
2945.85
2903.79
2940.57
3017.8
3053.99
3059.6
3055.59
3039.26
3021.44
3008.88
3025.32
3060.93
3078.8
3073.16
2817.75
2895.83
2946.83
2932.15
2868.7
2833.08
2822.9
2820.79
2818.87
2821.02
2831.63
2862.02
2915.74
2970.99
2985.13
2981.97
2967.04
2956.06
2956.6
2962.93
2970.93
2979.4
2982.26
2978.76
2969.76
2956.52
2932.95
2901.87
2878.35
2819.88
2931.4
2968.49
2992.53
2994.73
2990.45
2983.64
2975.12
2967.08
2958.13
2945.12
2933.9
2932.05
2941.94
2959.66
2967.86
2966.72
2961.78
2961.51
2959.58
2959.87
2961.23
2961.86
2966.73
2969.19
2969.13
2964.26
2951.36
2960.34
2981.19
2988.72
2928.02
2906.01
2893.54
2890.21
2890.4
2891.38
2894.1
2888.91
2880.23
2872.99
2879.17
2888.21
2895.67
2893.83
2889.36
2868.96
2859.24
2847.72
2842.2
2840.24
2846.62
2852.19
2859.3
2872.56
2888.45
2887.41
2892.23
2901.16
2903.55
2906.57
2894.34
2891.69
2887.72
2872.77
2860.47
2852.98
2843.58
2837.8
2832.42
2822.68
2828.22
2822.54
2827.71
2828.97
2830.41
2829.74
2829.88
2831.52
2837.05
2846.63
2841.01
2840.71
2844.14
2845.22
2852.08
2846.36
2835.14
2833.89
2835.91
2818.85
2759.75
2755.85
2746.65
2727.22
2733.68
2739.28
2742.95
2751.02
2759.53
2767.88
2774.86
2780.65
2787.8
2793.31
2803.1
2814.79
2821.34
2831.27
2832.18
2833.81
2833.44
2829.94
2816.38
2805.64
2794.46
2788.61
2789.31
2795.13
2802.36
2805.54
2776.42
2786.41
2771.79
2731.11
2731.81
2753.8
2779.23
2789.28
2787.13
2779.51
2778.49
2763.92
2760.93
2753.53
2749.48
2748.95
2750.46
2753.91
2754.77
2760.09
2766.84
2769.28
2768.5
2769.46
2770.17
2768.42
2760.86
2758.01
2758.46
2732.18
2779.11
2790.3
2785.68
2782.24
2780.26
2781.47
2782.75
2778.42
2770.24
2763.41
2755.52
2747.32
2745.23
2750.25
2755.44
2759.54
2768.84
2769.01
2775.65
2783.3
2788.96
2792.92
2788.48
2773.93
2768.87
2771.36
2762.41
2774.45
2801.48
2809.9
2865.88
2872.59
2881.96
2892.98
2900.34
2909.98
2911.59
2902.16
2897.4
2889.29
2885.1
2888.72
2890.25
2900.95
2909.13
2905.4
2900.77
2896.52
2892.74
2883.37
2880.73
2848.69
2782.1
2755.15
2747.97
2740.18
2768.26
2821.34
2849.33
2827.39
2885.99
2887.98
2888.23
2895.74
2898.56
2900.58
2903.25
2900.74
2906.75
2898
2888.06
2884.57
2873.47
2871.63
2871.27
2878.58
2881.8
2894.14
2902.83
2898.25
2898.91
2894.87
2887.36
2885.8
2860.91
2822.27
2808.01
2815.44
2834.16
2846.34
2859.66
2863.56
2866.06
2873.05
2888.42
2905.7
2930.63
2939.76
2940.14
2921.46
2905.23
2888.89
2887.78
2892.1
2913.44
2938.54
2945.32
2941.03
2918.05
2903.49
2890.5
2891.16
2881.24
2846.46
2813.9
2809.9
2838.1
2845.97
2843.38
2834.27
2825.83
2831
2853.23
2870.09
2874.64
2871.23
2876.88
2891.29
2915.73
2929.66
2942.03
2947.87
2940.23
2930.17
2915.07
2898.49
2876.87
2855.63
2844.03
2849.32
2860.12
2872.97
2897.32
2929.63
2928.19
2894.23
2866.34
2853.94
2841.6
2831.52
2810.75
2789.74
2856.52
2807.34
2667.14
2605.37
2615.54
2646.54
2681.2
2716.29
2752.12
2787.69
2817.85
2838.97
2835.41
2819.09
2784.72
2756.33
2722.59
2709.81
2692.22
2677.71
2655.34
2669.78
2826.25
2860.79
2830.51
2859.32
2934.06
2636.38
2913.15
2886.07
2981.72
3054.78
3067.44
3065.49
3060.87
3047.51
3027.88
3008.95
3019.74
3057.87
3077.37
3071.54
2819.17
2904.12
2963.31
2945.36
2881.43
2835.64
2817.07
2810.27
2809.33
2810.54
2816.7
2844.12
2898.35
2965.83
2978.79
2968.22
2950.68
2951.99
2962.28
2973.72
2985.12
2995.9
3001.47
2998.28
2986.18
2966.79
2938.68
2900.9
2875.4
2817.48
2929.37
2965.24
2991.92
2996.39
2990.72
2983.61
2972.24
2956.55
2952.13
2945.58
2933.28
2933.84
2948.3
2969.14
2965.13
2965.11
2960.48
2958.52
2955.71
2956.17
2953.48
2959.68
2961.24
2968.96
2967.94
2965.8
2955.32
2960.21
2978.88
2985.2
2926.8
2905.83
2895.79
2894.01
2894.58
2898.72
2891.17
2888.85
2883.38
2872.6
2871.13
2885.1
2889.81
2894.02
2886.96
2866.59
2856.33
2844.37
2838.55
2838.52
2843.37
2848.32
2856.75
2872.22
2886.14
2889.76
2896.17
2903.11
2906.64
2912.29
2895.7
2891.37
2885.5
2869.06
2857.64
2850.74
2844.31
2834.83
2831.25
2822.79
2826.16
2822.4
2823.65
2824.98
2828.68
2827.26
2828.75
2829.9
2835.8
2844.09
2843.05
2840.11
2840.55
2845.4
2846.39
2845.29
2834.79
2834.45
2834.77
2818.79
2761.38
2755.65
2740.7
2727.33
2736.27
2738.26
2743.05
2750.83
2759.68
2767.25
2774.29
2780.12
2787.65
2792.36
2808.56
2819.37
2834.62
2838.05
2843.95
2844.17
2838.96
2834.53
2825.37
2807.57
2795.23
2785.68
2783.88
2788.76
2797.47
2798.64
2780.34
2785.4
2745.81
2723.49
2738.07
2765.16
2785.54
2792.13
2786.19
2776.83
2776.95
2756.56
2760.37
2745.84
2748.67
2748.69
2746.85
2750.65
2753.84
2758.62
2763.98
2768.53
2767.28
2766.89
2768.3
2767.3
2764.7
2763.73
2762.29
2761.47
2786.65
2786.95
2783.5
2779.91
2780.56
2782.69
2782.96
2773.32
2765.38
2755.67
2742.97
2732.23
2733.14
2732.22
2746.55
2749.38
2765.12
2765.75
2769.36
2780.16
2786.01
2790.73
2789.09
2775.87
2764.6
2760.39
2767.14
2812.46
2840.11
2835.77
2871.17
2878.33
2888.89
2905.68
2905.69
2915.61
2911.62
2893.15
2892.01
2879.28
2877.05
2874.5
2884.75
2887.87
2902.99
2908.51
2906.2
2896.07
2895.82
2885.73
2883.59
2869.27
2815.93
2782.14
2766.24
2764.35
2804.93
2847.02
2868.45
2842.09
2877.61
2884.57
2891.12
2896.98
2898.33
2899.89
2900.66
2902.84
2904.97
2890.97
2885.92
2876.76
2868.17
2867.63
2870.67
2869.79
2877.95
2894.19
2901.95
2902.12
2908.68
2899.64
2893.41
2890.95
2873.18
2837.49
2824.53
2833.78
2848.75
2853.8
2864.12
2864.56
2867.37
2876.86
2894.53
2914.57
2933.8
2943.98
2923.42
2896.49
2866.23
2854.04
2848.18
2861.64
2875.54
2908.78
2935.81
2947.86
2934.23
2911.88
2892.62
2891.39
2886.26
2861.19
2824.37
2820.22
2845.13
2848.68
2844.54
2836.46
2825.79
2837.89
2861.25
2873.47
2875.46
2874.09
2882.79
2903.25
2930.93
2945.83
2959.79
2960.89
2952.08
2941.1
2921.15
2907.43
2882.58
2858.28
2845.32
2853.53
2864.39
2884.06
2929.49
2950.26
2946.43
2906.28
2871.26
2854.71
2838.77
2830.65
2816.59
2763.98
2800.93
2734.09
2629.85
2609.27
2630.14
2666.61
2703.74
2744.11
2792.72
2844.16
2884.27
2904.4
2896.14
2867.89
2817.19
2779.94
2731.59
2712.58
2695.9
2689.2
2666
2641.61
2757.9
2913.06
2868.33
2917.03
2821.14
2505.99
2889.7
2898.02
3024.45
3067.15
3066.43
3054.88
3056.24
3059.54
3035.53
3015.79
3020.27
3061.04
3076.76
3071.12
2821.13
2905.69
2972.32
2972.61
2918.79
2861.2
2829.24
2819.79
2818.37
2825.53
2836.3
2847.09
2890.44
2964.83
2977.02
2959.21
2945.08
2953.01
2964.01
2977.01
2993.03
3007.03
3017.35
3011.78
2995.18
2970.23
2935.1
2895.16
2871.23
2818.21
2926.71
2957.19
2990.33
2996.61
2992.36
2986.28
2955.18
2946.92
2949.83
2946.34
2932.56
2936.15
2953.99
2970.75
2963.57
2964.38
2958.78
2956.32
2949.99
2947.59
2949.45
2953.33
2956.97
2966.51
2968.02
2965.4
2961.59
2963.1
2981.04
2984.72
2926.27
2906.57
2897.09
2897.47
2900.88
2896.58
2893.77
2897.45
2895.99
2875.7
2870.06
2876.93
2888.73
2890.65
2892.92
2868.19
2858.98
2846.83
2837.4
2836.43
2839.81
2846.77
2858.68
2871.9
2887.32
2893.81
2898.47
2905.37
2912.65
2913.25
2897.41
2891.19
2884.47
2867.8
2856.49
2850.11
2845.86
2833.82
2833.45
2823.8
2823.89
2822.51
2826.08
2826.34
2827.53
2826.18
2825.92
2832.29
2834.72
2847.92
2842.35
2838.48
2839.07
2843.48
2846.17
2841.04
2836.7
2836.53
2836.76
2817.78
2762.6
2754.94
2736.77
2730.32
2736.9
2738.4
2741.66
2748.56
2757.52
2765.33
2772.6
2777.94
2785.1
2791.33
2806.62
2821.68
2837.12
2847.13
2844.52
2846.78
2844.55
2833.9
2824.98
2808.2
2792.29
2784.93
2784.31
2788.55
2797.73
2799.25
2782.81
2771.99
2729.41
2723.85
2739.06
2768.29
2786.83
2787.84
2790.39
2775.75
2773.79
2754.82
2759.65
2738.78
2743.59
2737.56
2740.69
2742.73
2748.3
2754.74
2762.35
2768.42
2765.42
2766.37
2768.27
2767.77
2766.25
2764.86
2769.73
2773.25
2788.65
2785.33
2782.09
2778.44
2779.65
2782.15
2779.76
2772
2760.68
2748.61
2733.31
2726.22
2723.37
2727.06
2733.73
2748.73
2758.43
2764.39
2764.18
2778.46
2781.78
2789.09
2788.22
2777.06
2762.61
2755.47
2809.28
2848.04
2859.12
2852.89
2877.54
2881.69
2893.29
2908.21
2913.67
2914.47
2909.41
2892.84
2888.6
2875.29
2874.01
2870.87
2874.56
2886.49
2895.12
2912.92
2903.68
2903.04
2895.79
2889.75
2886.75
2877.07
2847.2
2815.31
2799.64
2803.19
2847.57
2870.19
2875.23
2847.12
2872.66
2886.75
2893.85
2897.62
2897.45
2897.65
2900.7
2902.91
2902.15
2890.25
2885.04
2870.48
2865.52
2865.5
2866.48
2870.06
2882.22
2889.22
2904.84
2911.52
2908.65
2911.64
2901.12
2895.04
2880.39
2853.58
2840.35
2849.39
2856.26
2856.35
2867.13
2866.38
2868.37
2879.22
2895.33
2917.61
2932.19
2945.2
2913.29
2884.29
2850.94
2836.63
2826.1
2838.74
2844.47
2889.84
2918.53
2953.31
2935.01
2916.78
2896.93
2892.18
2887.09
2866.04
2828.4
2825.5
2845.43
2850.95
2844.92
2835.16
2827.06
2842.5
2867.71
2876.58
2877.99
2876.85
2888.56
2908.87
2937.99
2953.25
2968.54
2973.28
2964.2
2945.91
2926.78
2910.1
2886.11
2860.54
2843
2853.14
2868.83
2890.5
2935.38
2954.61
2935.34
2898.67
2865.37
2844.96
2835.29
2831.11
2822.28
2739.04
2740.12
2682.7
2620.72
2616.8
2642.61
2682.95
2723.34
2774.03
2831.85
2889.27
2931.16
2950.26
2935.09
2900.12
2836.82
2789.12
2736.25
2711.54
2694.82
2689.8
2673.05
2639.23
2682.08
2933.16
2928.69
2932.48
2629.23
2483.89
2877.4
2917.69
3045.69
3066.22
3049.19
3029.3
3040.82
3062.77
3050.64
3027.66
3039
3066.75
3077.52
3067.21
3025.79
2920.69
2827.05
2910.16
2981.69
2993.45
2967.45
2918.98
2884.22
2875.39
2880.46
2892.92
2896.88
2880.57
2888.63
2955.36
2971.32
2944.46
2936.97
2949.61
2960.67
2976.49
2996.43
3014.78
3018.87
3015
2994.85
2964.55
2922.59
2888.13
2857.23
2813.21
2848.47
2903.18
2927.17
2952.73
2986.11
2993.36
2991.86
2971.93
2939.25
2933.45
2948.61
2946.8
2933.92
2936.53
2957.42
2968.23
2964.64
2962.6
2959.78
2951.69
2945.56
2942.45
2945.74
2946.56
2955.23
2962.69
2968.29
2965.49
2963.65
2969.35
2974.54
2973.96
2980.39
2965.29
2936.29
2911.03
2900.14
2902.87
2904.61
2895.77
2893.6
2904.35
2905.89
2885.25
2868.59
2871.13
2884.09
2890.66
2893.56
2876.84
2863.41
2852.29
2849.15
2846.08
2849.68
2851.02
2865.59
2876.2
2892.94
2896.24
2902.93
2912.72
2917.6
2918.38
2893.17
2886.08
2891.74
2888.27
2884.52
2867.57
2856.17
2851.53
2846.76
2836.46
2834.92
2827.34
2821.04
2822.55
2819.32
2822.36
2823.09
2824.31
2827.69
2831.91
2839.71
2848.57
2841.64
2840.15
2841.79
2846.01
2843.62
2840.76
2835.13
2840.78
2826.18
2816.96
2807.4
2796.57
2768.86
2755.48
2735.74
2731.95
2738.07
2738.22
2741.26
2745.81
2753.61
2763.24
2769.05
2774.55
2780.24
2789.48
2801.31
2814.91
2829.42
2841.32
2844.91
2839.24
2841.93
2831.08
2816.41
2800.88
2790.18
2780.07
2780.61
2785.74
2793.12
2789.94
2787.17
2789.99
2779.58
2745.46
2722.88
2721.72
2735.81
2760.02
2787.57
2791.26
2789.38
2777.99
2773.27
2753.04
2758.88
2737.56
2742.26
2737.8
2740.09
2744.55
2745.5
2754.93
2760.11
2768.49
2763.92
2766.61
2764.4
2768.23
2768.14
2777.2
2771.69
2759.67
2758.43
2761.85
2767.08
2771.41
2774.25
2774.69
2776.4
2779.64
2777.79
2771.72
2760.88
2746.7
2735.14
2725.9
2726.1
2729.67
2733.98
2747.3
2753.44
2758.14
2763.79
2775.4
2781.09
2787.3
2787.02
2773
2765.26
2806.25
2830.61
2831.42
2853.6
2867.94
2871.26
2883.06
2876.38
2883.36
2894.51
2909.49
2915.64
2915.88
2909.55
2895.57
2890.26
2876.37
2876.28
2873.84
2880.89
2885.6
2900.67
2908.29
2908.33
2901.87
2897.65
2892.84
2886.44
2884.32
2866.51
2843.48
2818.27
2842.72
2874.77
2875.52
2863.18
2860.27
2865.23
2863.66
2872.73
2880.94
2887.81
2893.8
2895.44
2895.73
2897.88
2901.47
2901.54
2893.76
2887.99
2876.31
2868.06
2866.83
2867.14
2876.26
2882.73
2890.75
2911.78
2910.65
2910.02
2914.48
2901.97
2897.2
2882.7
2859.4
2850.54
2862.58
2860.41
2858.29
2861.41
2860.63
2861.46
2861.42
2865.33
2876.95
2893.72
2914.89
2930.04
2943.59
2913.89
2882.43
2845.94
2836.23
2823.51
2833.72
2842.78
2879.6
2915.64
2955.44
2933.97
2917.98
2898.42
2892.7
2886.35
2863.44
2826.38
2823.17
2841.68
2857.08
2851.93
2836.93
2827.61
2823.33
2830.83
2849.11
2871.97
2879.64
2879.54
2880.79
2889.56
2911.33
2937.63
2956.68
2969.46
2974.11
2964.97
2945.96
2926.88
2909.56
2887.36
2861.36
2846.38
2857.88
2870.4
2887.87
2921.9
2928.86
2908.17
2872.5
2854.7
2847.66
2850.97
2849.26
2787.79
2725.74
2725.49
2691.92
2685.74
2647.99
2617.43
2623.15
2653.79
2691.77
2737.33
2789.39
2846.67
2901.33
2942.06
2964.31
2935.84
2897.09
2834.21
2783.39
2731.61
2705.87
2693.14
2688.44
2674.98
2644.01
2649.59
2912.73
2859.77
2755.6
2731.69
2842.07
2484.14
2457.24
2877.09
2948.27
3051.8
3056.73
3021.56
2994.34
3012.96
3058.29
3067.79
3052.48
3053.24
3072.82
3076.13
3064.4
3033.61
2930.02
2838.5
2914.79
2985.43
3013.51
3003.1
2984.64
2971.44
2961.81
2965.41
2973.11
2966.17
2938.11
2900.57
2951.54
2970.2
2937.96
2930.92
2939.14
2953.54
2970.18
2994.53
3008.53
3010.68
3002.78
2979.91
2946.71
2905.69
2869.77
2834.92
2813.61
2842.73
2893.65
2927.6
2945.09
2974.81
2986.88
2987.51
2959.63
2927.18
2926.87
2945.53
2948.28
2934.99
2935.77
2958.93
2969.24
2964.73
2964.73
2958.47
2952.53
2945.57
2942.16
2944.59
2945.63
2956.96
2963.01
2968.64
2966.04
2966.32
2972.29
2979.46
2978.31
2980.7
2957.95
2940
2916.25
2903.42
2905.65
2909.24
2904.22
2902.08
2915.39
2917.01
2899.86
2871.88
2863.37
2879.12
2890.19
2893.6
2892.62
2874.68
2863.59
2854.35
2851.05
2852.42
2864.22
2871.31
2883.46
2897.62
2899.81
2906.71
2915.45
2919.55
2917.32
2887.44
2884.67
2892.53
2887.37
2887.82
2871.56
2858.94
2851.7
2849.64
2843.09
2838.72
2833.84
2824.14
2824.55
2824.62
2822.18
2823.69
2827.01
2832.24
2837.45
2847.78
2846.51
2840.38
2839.28
2841.67
2848.25
2844.77
2840.24
2844.73
2825.02
2801.34
2793.97
2799.42
2795.14
2780.31
2759.9
2735.18
2736.09
2741.83
2743.01
2742.2
2743.77
2750.43
2758.13
2765.02
2770.88
2774.41
2779.12
2789.74
2805.18
2817.25
2825.53
2829.62
2831.63
2823.08
2819.84
2801.58
2792.62
2781.86
2780.92
2781.32
2788.93
2795.17
2792.88
2791.03
2785.74
2765.68
2732.56
2723.54
2719.65
2727.5
2750.9
2781.13
2793.72
2793.19
2777.73
2778.22
2756.75
2758.61
2740.91
2743.55
2740.61
2740.69
2744.68
2745.73
2756.12
2760.85
2767.09
2763.42
2764.72
2764.08
2767.53
2773.66
2769.45
2757.23
2745.31
2737.5
2734.12
2745.67
2759.91
2772.23
2772.61
2772.81
2777.89
2778.45
2773.33
2764.52
2752.19
2741.71
2733.43
2733.12
2735.1
2735.45
2747
2748.26
2756.97
2762.4
2773.73
2779.03
2786.56
2780.49
2765.52
2766.98
2800.33
2784.2
2764.14
2782.69
2810.97
2832.25
2861.31
2872.65
2880.87
2891.14
2908.97
2915.54
2916.38
2915.68
2901.79
2895.85
2888.53
2884.2
2883.5
2885.59
2894.16
2903.17
2911.54
2905.43
2902.94
2898.72
2892.42
2890.46
2887.2
2878.9
2858.28
2826.6
2883.98
2874.13
2865.34
2864.4
2863.59
2866.85
2869.97
2874
2874.24
2878.01
2890.68
2893.77
2894.89
2897.04
2897.91
2902.21
2897.42
2890.29
2885.18
2880.51
2877.64
2879.85
2885
2886.35
2899.52
2910.06
2911.21
2914.29
2914.39
2903.59
2897.21
2881.84
2861.57
2861.01
2865.57
2861.6