/*--------------------------------*- C++ -*----------------------------------*\
| =========                 |                                                 |
| \\      /  F ield         | OpenFOAM: The Open Source CFD Toolbox           |
|  \\    /   O peration     | Version:  2.1.1                                 |
|   \\  /    A nd           | Web:      www.OpenFOAM.org                      |
|    \\/     M anipulation  |                                                 |
\*---------------------------------------------------------------------------*/
FoamFile
{
    version     2.0;
    format      ascii;
    class       volVectorField;
    location    "0.006300000";
    object      U;
}
// * * * * * * * * * * * * * * * * * * * * * * * * * * * * * * * * * * * * * //

dimensions      [0 1 -1 0 0 0 0];

internalField   nonuniform List<vector> 
12384
(
(-1.72951 -0.799373 0)
(0.0862946 -2.71817 0)
(4.39597 -3.4617 0)
(10.0882 -4.68666 0)
(17.0777 -3.94252 0)
(23.4412 -4.68276 0)
(28.9511 -1.89811 0)
(32.1355 -2.11727 0)
(32.2052 1.84373 0)
(29.6909 1.61711 0)
(23.7203 4.93378 0)
(17.3232 3.59616 0)
(9.61076 5.19078 0)
(3.89593 3.21265 0)
(-6.30619 7.23115 0)
(-20.865 5.29845 0)
(-31.9613 5.84592 0)
(-40.3134 0.88187 0)
(-43.399 2.21983 0)
(-45.1966 -2.41408 0)
(-42.5451 -1.45775 0)
(-38.2347 -5.34659 0)
(-33.0605 -3.62214 0)
(-23.7024 -5.78804 0)
(-13.6821 -6.24069 0)
(1.10419 -7.98168 0)
(18.2744 -9.18377 0)
(39.1334 -10.657 0)
(62.9992 -11.7308 0)
(88.0065 -11.9214 0)
(113.802 -11.4041 0)
(137.586 -9.99511 0)
(158.029 -7.99204 0)
(173.179 -5.54828 0)
(181.227 -0.580735 0)
(181.247 0.811642 0)
(173.678 5.99264 0)
(157.398 11.8148 0)
(129.68 17.6087 0)
(93.2366 20.4524 0)
(54.1517 19.3506 0)
(20.8013 13.7251 0)
(1.12287 4.44141 0)
(-4.70167 -6.00181 0)
(-6.40267 10.0917 0)
(-19.5174 10.9276 0)
(-34.2655 11.0636 0)
(-50.4295 9.49947 0)
(-60.4033 7.16236 0)
(-66.5718 1.93726 0)
(-66.9609 2.57215 0)
(-60.1873 -5.96842 0)
(-43.3633 -8.34674 0)
(-18.6126 -13.3814 0)
(10.9208 -14.794 0)
(45.0387 -17.6602 0)
(81.2542 -17.1366 0)
(117.845 -17.706 0)
(151.951 -14.9849 0)
(184.16 -13.9985 0)
(209.886 -10.0813 0)
(231.112 -9.05155 0)
(245.201 -3.22203 0)
(252.804 -1.89325 0)
(251.383 3.57481 0)
(246.62 4.92491 0)
(222.854 11.3688 0)
(199.654 16.5963 0)
(158.816 22.4524 0)
(115.808 24.556 0)
(70.1305 22.6136 0)
(32.156 16.6427 0)
(6.66715 7.1426 0)
(-0.972933 -2.86488 0)
(-10.3881 10.9767 0)
(-30.3004 11.0828 0)
(-51.139 9.73196 0)
(-67.592 7.26753 0)
(-82.5094 2.46179 0)
(-87.5461 -0.139824 0)
(-82.995 -8.57946 0)
(-70.2736 -9.70922 0)
(-46.9492 -16.5927 0)
(-17.2062 -17.4493 0)
(19.7348 -22.3092 0)
(62.2056 -21.6975 0)
(108.195 -25.6273 0)
(156.521 -21.7678 0)
(201.909 -22.9896 0)
(244.011 -17.1872 0)
(280.595 -14.8565 0)
(303.475 -9.14945 0)
(324.296 -3.13348 0)
(320.921 5.8338 0)
(309.78 10.4863 0)
(275.081 22.8286 0)
(225.639 30.2989 0)
(160.693 37.356 0)
(93.4938 33.9819 0)
(33.966 26.9322 0)
(-5.39602 15.5427 0)
(-21.9111 0.403082 0)
(-19.2346 -4.79507 0)
(-8.05051 -9.34743 0)
(-20.0612 14.4105 0)
(-17.7102 -1.05419 0)
(8.14937 -20.5372 0)
(59.8185 -31.7717 0)
(124.008 -37.3117 0)
(194.33 -36.2176 0)
(264.307 -33.2488 0)
(320.768 -26.6003 0)
(370.17 -22.7143 0)
(411.971 -11.4811 0)
(430.35 -8.27091 0)
(447.531 -2.45052 0)
(442.424 4.64876 0)
(426.684 13.3578 0)
(396.189 21.0548 0)
(349.995 29.1203 0)
(288.984 36.4179 0)
(217.843 38.3399 0)
(147.59 33.7247 0)
(90.7568 23.891 0)
(52.3512 14.1001 0)
(28.0198 7.94599 0)
(13.2465 6.14782 0)
(-4.31712 5.32257 0)
(-16.6474 3.01441 0)
(-26.0418 -1.04004 0)
(-27.2271 -6.81776 0)
(-18.3894 -9.89261 0)
(-7.2187 -8.85667 0)
(-0.199844 -6.81838 0)
(-2.10408 5.14658 0)
(-6.15101 4.94854 0)
(-9.31981 3.82762 0)
(-9.92459 2.48616 0)
(-7.09396 -0.313837 0)
(1.29122 -4.25023 0)
(15.4327 -7.51383 0)
(34.4671 -10.9357 0)
(58.747 -13.2824 0)
(86.5578 -15.5953 0)
(116.948 -16.6041 0)
(148.459 -17.4253 0)
(179.774 -16.2722 0)
(208.485 -16.2176 0)
(234.647 -10.8276 0)
(251.827 -12.3718 0)
(262.742 -4.12495 0)
(267.187 -7.66209 0)
(255.729 7.41677 0)
(243.293 4.07457 0)
(213.104 14.2843 0)
(184.748 13.5771 0)
(134.83 22.817 0)
(93.6041 23.2116 0)
(49.0223 24.3029 0)
(14.1989 19.4545 0)
(-11.3282 14.538 0)
(-22.9251 7.01035 0)
(-22.1801 1.89184 0)
(-11.186 -8.09795 0)
(-0.997106 -1.89783 0)
(1.52992 -3.38776 0)
(8.519 -5.89899 0)
(20.6225 -8.57491 0)
(38.2715 -11.2329 0)
(61.4584 -13.7894 0)
(90.1347 -15.8984 0)
(120.569 -16.3289 0)
(151.616 -17.7183 0)
(184.296 -13.3993 0)
(210.449 -16.7593 0)
(233.14 -8.22113 0)
(253.23 -10.8554 0)
(260.496 -2.39813 0)
(267.138 -4.24766 0)
(258.875 4.72478 0)
(248.19 8.0002 0)
(227.492 11.7327 0)
(198.264 15.9755 0)
(161.435 19.6866 0)
(117.841 21.8816 0)
(72.7148 20.4528 0)
(32.1378 16.8502 0)
(-0.536445 12.53 0)
(-23.5445 7.3546 0)
(-36.322 2.14496 0)
(-42.585 -2.19712 0)
(-40.0419 -5.27799 0)
(-27.7758 -10.8222 0)
(-10.3028 -11.5571 0)
(1.30251 3.69497 0)
(8.46931 -0.738295 0)
(25.005 -7.04101 0)
(51.8816 -12.6448 0)
(88.5601 -16.8586 0)
(128.421 -19.823 0)
(172.964 -19.5263 0)
(215.683 -20.7221 0)
(251.376 -14.7187 0)
(287.224 -15.8108 0)
(306.747 -7.30515 0)
(327.596 -8.85602 0)
(330.408 2.36177 0)
(326.098 1.85607 0)
(307.304 12.673 0)
(281.932 12.1131 0)
(234.699 23.8845 0)
(186.556 25.4956 0)
(126.838 29.5205 0)
(73.0296 25.6659 0)
(25.3607 20.6855 0)
(-9.91421 14.2242 0)
(-33.7937 9.43864 0)
(-49.9479 6.17145 0)
(-59.0603 3.44417 0)
(-62.4449 -0.208067 0)
(-58.7094 -3.83772 0)
(-45.2604 -8.58348 0)
(-26.0532 -9.38398 0)
(-7.9427 -6.63136 0)
(-0.676716 2.78441 0)
(8.27046 -6.37266 0)
(32.6775 -15.4886 0)
(66.6158 -19.4582 0)
(110.529 -22.7435 0)
(156.076 -23.6521 0)
(198.168 -20.0464 0)
(239.049 -19.7455 0)
(265.578 -11.5856 0)
(290.765 -12.0047 0)
(297.698 -1.26267 0)
(294.71 -1.33423 0)
(279.81 8.81876 0)
(259.709 10.6666 0)
(218.156 20.2741 0)
(172.918 26.3524 0)
(116.429 29.6219 0)
(60.6213 27.4765 0)
(11.9496 21.9429 0)
(-24.4639 15.1974 0)
(-48.3373 8.99736 0)
(-62.3461 4.8187 0)
(-69.6701 2.50195 0)
(-73.0893 0.684994 0)
(-71.1967 -1.54581 0)
(-61.5451 -6.74062 0)
(-45.6001 -8.17085 0)
(-28.5784 -8.0062 0)
(-14.4459 -5.03964 0)
(-4.43655 -2.73953 0)
(-7.8189 6.76406 0)
(-16.1022 2.96365 0)
(-20.0903 0.34714 0)
(-11.2922 -8.05415 0)
(12.2335 -16.215 0)
(49.1468 -22.1439 0)
(98.6436 -27.8979 0)
(148.875 -27.5595 0)
(203.828 -29.7161 0)
(256.129 -24.9114 0)
(294.357 -18.9981 0)
(334.595 -17.144 0)
(352.539 -6.04909 0)
(370.196 -4.14489 0)
(361.849 7.99536 0)
(344.706 13.4395 0)
(305.873 22.622 0)
(256.688 29.7914 0)
(194.817 33.0554 0)
(130.606 28.9773 0)
(76.2039 23.1846 0)
(35.1094 15.1062 0)
(7.5813 9.53087 0)
(-7.33536 4.66571 0)
(-14.7331 0.799204 0)
(-17.5641 -2.2057 0)
(-16.1546 -5.11389 0)
(-11.2892 -9.72807 0)
(-5.41497 -7.75171 0)
(-1.08518 -5.99398 0)
(-6.07878 2.87111 0)
(-12.2377 -2.23891 0)
(-11.7375 -5.17434 0)
(0.0355684 -13.9449 0)
(27.0884 -21.5751 0)
(66.6862 -27.0576 0)
(114.46 -29.758 0)
(166.715 -29.5168 0)
(211.898 -27.9169 0)
(252.123 -21.3993 0)
(283.935 -19.0157 0)
(300.984 -8.3719 0)
(302.547 -9.48961 0)
(285.704 10.018 0)
(258.379 11.0012 0)
(205.667 26.0504 0)
(143.589 31.5859 0)
(72.9608 30.7125 0)
(13.8793 26.2087 0)
(-36.3499 18.7088 0)
(-72.5934 12.2004 0)
(-94.1516 5.41248 0)
(-102.304 0.640385 0)
(-104 -1.58607 0)
(-100.01 -4.72469 0)
(-86.2756 -9.15358 0)
(-63.9217 -14.052 0)
(-36.5151 -15.1832 0)
(-12.5208 -11.2089 0)
(-1.22732 -2.47567 0)
(3.98112 -2.66523 0)
(7.76835 0.0859786 0)
(8.0635 2.00705 0)
(3.65453 5.87942 0)
(-8.7133 9.84895 0)
(-28.3784 13.4157 0)
(-54.323 16.1302 0)
(-85.2709 16.9247 0)
(-113.783 16.2209 0)
(-138.227 11.3163 0)
(-153.967 5.54972 0)
(-156.154 0.130936 0)
(-147.031 -5.02634 0)
(-128.161 -10.2561 0)
(-100.802 -13.5546 0)
(-67.4151 -15.9505 0)
(-32.1958 -16.4256 0)
(1.72068 -15.6428 0)
(31.9787 -13.6469 0)
(58.4962 -12.6675 0)
(81.4631 -11.2337 0)
(99.0819 -10.6363 0)
(115.22 -6.82891 0)
(124.739 -4.62858 0)
(121.483 0.436925 0)
(113.104 5.75985 0)
(92.6805 10.6117 0)
(65.0975 12.1563 0)
(36.2132 11.5608 0)
(11.0602 8.46767 0)
(4.80268 -4.09883 0)
(13.2915 -4.05846 0)
(17.7232 -0.227335 0)
(17.2004 1.19103 0)
(12.7727 3.57582 0)
(7.30359 3.89382 0)
(-1.05397 7.26739 0)
(-18.7047 13.0909 0)
(-47.5274 17.0752 0)
(-83.6362 20.3124 0)
(-122.96 21.2709 0)
(-160.726 18.3161 0)
(-189.534 12.4252 0)
(-207.654 4.15051 0)
(-208.751 -0.265434 0)
(-201.109 -8.95458 0)
(-179.815 -11.0307 0)
(-153.589 -16.0056 0)
(-120.588 -16.9576 0)
(-86.2243 -17.0481 0)
(-53.6681 -15.7273 0)
(-24.2131 -12.6637 0)
(-0.358596 -9.24361 0)
(16.5168 -5.79841 0)
(26.7864 -1.62205 0)
(30.0542 1.16482 0)
(29.4309 2.77895 0)
(24.6625 5.14157 0)
(16.2681 6.07884 0)
(6.421 7.80237 0)
(-0.230828 -2.8175 0)
(2.14672 -8.08678 0)
(7.61966 -10.858 0)
(13.7698 -13.6641 0)
(21.9503 -11.9931 0)
(28.4563 -12.1257 0)
(34.016 -6.18427 0)
(37.2772 -4.06651 0)
(37.5024 4.24095 0)
(35.4842 6.12683 0)
(29.1009 13.6459 0)
(22.3242 12.7327 0)
(12.5886 15.8055 0)
(4.22772 12.0292 0)
(-6.86383 20.0481 0)
(-20.2375 16.6455 0)
(-30.0671 14.9608 0)
(-37.8298 4.30228 0)
(-40.4396 4.6785 0)
(-42.5552 -4.4524 0)
(-41.1876 -3.39239 0)
(-39.9432 -11.2263 0)
(-36.423 -8.75204 0)
(-29.8303 -14.7125 0)
(-22.1371 -16.4589 0)
(-8.92912 -22.1827 0)
(7.68591 -26.4272 0)
(28.4348 -31.5471 0)
(52.7694 -34.4339 0)
(79.306 -35.1253 0)
(105.676 -33.3652 0)
(129.638 -28.8578 0)
(149.772 -22.8067 0)
(164.573 -15.4418 0)
(173.629 -4.3414 0)
(176.931 3.19484 0)
(173.364 15.4775 0)
(163.333 29.8042 0)
(146.329 44.3815 0)
(121.535 54.5792 0)
(90.0014 55.6095 0)
(56.2174 44.0003 0)
(26.9905 23.9418 0)
(6.24772 1.62266 0)
(-8.82201 32.0201 0)
(-24.6065 33.4121 0)
(-39.0113 31.4693 0)
(-52.1392 25.5643 0)
(-57.3879 18.5432 0)
(-60.8697 4.8356 0)
(-55.1237 0.433442 0)
(-44.8893 -16.5662 0)
(-27.8953 -25.2108 0)
(-4.87346 -37.4517 0)
(23.1611 -43.0483 0)
(54.8774 -49.3222 0)
(89.1878 -49.588 0)
(123.02 -48.8114 0)
(155.004 -43.1304 0)
(184.711 -37.6985 0)
(207.281 -29.1893 0)
(228.138 -22.819 0)
(241.956 -11.546 0)
(247.255 -4.1383 0)
(250.093 9.11132 0)
(246.479 14.2613 0)
(231.136 30.8276 0)
(216.583 41.7828 0)
(188.964 57.2782 0)
(157.885 65.5181 0)
(119.959 66.0242 0)
(78.8075 54.3747 0)
(40.501 34.7481 0)
(12.0144 8.97714 0)
(-12.7526 35.527 0)
(-35.1497 33.9741 0)
(-55.2296 28.0726 0)
(-69.9982 20.2627 0)
(-81.3718 7.18446 0)
(-85.5957 -1.87187 0)
(-81.4484 -20.5052 0)
(-69.8109 -30.1938 0)
(-47.6364 -44.6106 0)
(-19.404 -53.2321 0)
(15.9887 -62.1818 0)
(58.1283 -66.3843 0)
(101.911 -70.489 0)
(148.697 -67.103 0)
(192.607 -63.5422 0)
(235.528 -52.2706 0)
(267.885 -42.1159 0)
(293.059 -25.2115 0)
(313.592 -7.37109 0)
(314.488 11.7419 0)
(306.439 30.3175 0)
(287.928 54.7488 0)
(257.237 77.427 0)
(213.986 94.5452 0)
(161.869 97.6506 0)
(104.999 83.3973 0)
(53.5933 54.2847 0)
(17.9994 19.4835 0)
(0.249107 -0.53537 0)
(-3.67171 -18.0863 0)
(-1.49664 19.1888 0)
(18.1135 -22.34 0)
(58.4949 -65.1857 0)
(113.438 -92.4066 0)
(175.777 -103.212 0)
(238.909 -99.3762 0)
(296.283 -91.1327 0)
(345.94 -74.0899 0)
(392.19 -53.2557 0)
(423.341 -37.7402 0)
(441.362 -16.1387 0)
(456.342 -1.81445 0)
(451.64 18.8301 0)
(440.608 37.6624 0)
(417.36 57.8623 0)
(385.642 77.8996 0)
(344.524 96.3225 0)
(292.984 107.095 0)
(232.777 101.574 0)
(167.837 80.9213 0)
(108.117 54.7984 0)
(62.0009 34.6902 0)
(29.8164 23.9437 0)
(3.41688 18.5278 0)
(-13.5041 12.6318 0)
(-25.4969 -3.26904 0)
(-28.2745 -16.3673 0)
(-21.4901 -29.1946 0)
(-10.7501 -25.8325 0)
(-1.7094 -21.3015 0)
(-2.32692 15.2184 0)
(-6.04095 14.1942 0)
(-7.68122 9.94185 0)
(-5.90856 4.64928 0)
(-0.165219 -3.53757 0)
(9.86425 -13.3141 0)
(24.9089 -22.3777 0)
(44.0199 -31.8474 0)
(67.0187 -38.9135 0)
(93.7716 -45.017 0)
(123.309 -48.8673 0)
(154.323 -50.0621 0)
(185.005 -49.1693 0)
(215.407 -45.9838 0)
(241.927 -37.2624 0)
(259.561 -32.6331 0)
(272.107 -13.6086 0)
(271.554 -9.43487 0)
(266.477 15.1856 0)
(254.155 16.1315 0)
(230.497 37.1579 0)
(207.462 41.6161 0)
(170.513 59.5543 0)
(140.668 64.4918 0)
(104.064 68.1881 0)
(70.0281 60.6226 0)
(40.2591 48.7894 0)
(16.6815 29.707 0)
(2.36029 17.789 0)
(-1.73397 -1.27621 0)
(0.548279 -4.83248 0)
(3.66026 -11.1849 0)
(10.8893 -18.2063 0)
(24.8312 -26.9814 0)
(43.4113 -34.6098 0)
(68.2385 -40.8831 0)
(95.721 -48.8271 0)
(126.387 -46.6169 0)
(159.845 -53.1323 0)
(189.928 -39.9201 0)
(218.19 -44.662 0)
(241.243 -24.5315 0)
(258.568 -26.0357 0)
(266.924 -7.50719 0)
(271.343 -0.432534 0)
(266.604 11.7748 0)
(252.916 22.3322 0)
(238.164 32.2101 0)
(216.139 42.6954 0)
(188.169 52.7317 0)
(155.142 59.5213 0)
(116.978 60.199 0)
(76.6137 53.2191 0)
(38.5801 41.9246 0)
(6.72021 26.9221 0)
(-14.6051 12.7971 0)
(-25.4587 -1.53976 0)
(-28.3695 -13.7339 0)
(-21.2657 -27.5249 0)
(-8.07308 -32.1986 0)
(3.91875 6.38049 0)
(17.2215 -8.52294 0)
(40.8185 -24.9301 0)
(73.2664 -40.5618 0)
(113.013 -51.5089 0)
(153.642 -57.9779 0)
(197.863 -57.389 0)
(239.726 -56.1996 0)
(276.985 -44.5631 0)
(311.957 -39.3499 0)
(330.007 -24.4759 0)
(350.491 -14.924 0)
(351.459 -0.556555 0)
(342.884 9.55713 0)
(330.946 33.4163 0)
(307.62 37.4268 0)
(275.996 62.7008 0)
(237.337 69.11 0)
(191.855 81.5607 0)
(142.018 77.6795 0)
(88.6873 67.9886 0)
(39.8927 50.8634 0)
(0.232408 35.4823 0)
(-27.405 23.614 0)
(-44.1866 13.84 0)
(-51.4304 1.92807 0)
(-48.8865 -11.154 0)
(-37.1199 -22.8301 0)
(-20.7953 -24.4717 0)
(-6.21307 -17.1246 0)
(5.67259 -3.12593 0)
(27.4064 -28.5248 0)
(62.8791 -50.5142 0)
(103.733 -60.88 0)
(149.781 -66.3459 0)
(192.266 -68.0988 0)
(235.043 -56.4781 0)
(271.47 -51.1103 0)
(295.15 -35.3199 0)
(318.075 -25.7835 0)
(323.78 -7.29273 0)
(318.402 3.23306 0)
(307.832 23.9977 0)
(286.928 33.4565 0)
(258.143 54.934 0)
(223.995 69.7304 0)
(179.342 81.7499 0)
(128.372 82.778 0)
(73.5612 71.1616 0)
(22.8878 54.2002 0)
(-16.7617 35.2122 0)
(-44.0373 19.7571 0)
(-60.4099 11.0654 0)
(-67.6501 3.39419 0)
(-67.9348 -5.6597 0)
(-58.905 -18.6941 0)
(-44.3369 -24.4896 0)
(-27.7316 -22.7284 0)
(-12.7396 -17.3593 0)
(-3.80034 -11.0615 0)
(-6.4057 15.9718 0)
(-8.12431 3.81322 0)
(-3.5198 -7.0136 0)
(13.4588 -28.4395 0)
(42.6107 -51.206 0)
(82.1433 -67.4439 0)
(132.386 -82.0528 0)
(181.499 -82.9208 0)
(234.606 -82.0222 0)
(284.885 -71.8929 0)
(324.1 -55.9915 0)
(362.531 -42.6917 0)
(379.02 -19.0493 0)
(395.077 -5.49575 0)
(393.855 16.7033 0)
(379.63 35.9428 0)
(358.883 57.8771 0)
(325.124 75.1445 0)
(277.734 87.1047 0)
(224.945 86.7637 0)
(165.342 74.1143 0)
(108.648 54.5488 0)
(62.4945 36.0946 0)
(26.913 15.8171 0)
(1.94361 2.24426 0)
(-11.5825 -10.0594 0)
(-15.9514 -19.9583 0)
(-12.068 -33.2949 0)
(-5.72135 -30.223 0)
(-1.89968 -25.0519 0)
(-3.35603 2.34747 0)
(-3.5578 -10.4843 0)
(6.15657 -21.4916 0)
(28.7789 -45.6449 0)
(63.2604 -66.5672 0)
(108.07 -81.6245 0)
(159.522 -87.525 0)
(210.023 -88.0186 0)
(257.119 -78.7104 0)
(296.192 -62.3523 0)
(321.005 -46.8195 0)
(338.677 -23.1436 0)
(341.782 -6.97478 0)
(332.573 23.5895 0)
(305.349 37.2066 0)
(273.9 70.1428 0)
(227.914 83.1578 0)
(168.642 92.0479 0)
(102.525 85.6228 0)
(36.9254 67.6535 0)
(-19.622 47.7665 0)
(-60.0601 25.1272 0)
(-84.8832 9.99557 0)
(-96.9282 0.363621 0)
(-96.4713 -11.0114 0)
(-85.7328 -26.1234 0)
(-64.5024 -40.5097 0)
(-37.536 -43.8647 0)
(-12.9427 -32.7437 0)
(-0.69095 -7.48763 0)
(-0.02049 -0.915506 0)
(-3.51293 5.80975 0)
(-11.6307 10.9932 0)
(-25.8332 22.4722 0)
(-46.248 33.5883 0)
(-72.2119 43.0609 0)
(-100.772 49.1927 0)
(-129.264 49.1755 0)
(-154.744 43.7744 0)
(-173.989 32.0195 0)
(-184.423 16.4539 0)
(-184.529 -1.04891 0)
(-174.025 -15.8724 0)
(-152.834 -30.5797 0)
(-123.409 -41.4068 0)
(-88.3961 -48.1871 0)
(-50.5652 -50.06 0)
(-13.9568 -47.4793 0)
(18.2237 -41.867 0)
(45.4693 -38.2755 0)
(71.6303 -35.0629 0)
(93.0425 -32.565 0)
(108.174 -22.2251 0)
(120.337 -15.1819 0)
(122.41 1.09323 0)
(112.907 14.9069 0)
(96.614 27.6353 0)
(73.191 35.0071 0)
(44.329 35.7998 0)
(14.6632 28.9325 0)
(3.33048 -11.1873 0)
(8.81886 -9.31655 0)
(10.7179 1.11827 0)
(6.04869 7.48833 0)
(-4.16594 13.9436 0)
(-18.7222 16.9489 0)
(-40.5913 32.1402 0)
(-76.8755 47.0282 0)
(-118.894 57.2766 0)
(-160.924 61.478 0)
(-198.671 59.1176 0)
(-227.004 48.4007 0)
(-246.009 31.6873 0)
(-253.319 12.5656 0)
(-250.433 -4.51421 0)
(-241.654 -23.0345 0)
(-218.622 -34.2798 0)
(-190.449 -45.5597 0)
(-156.632 -51.3677 0)
(-119.504 -50.0365 0)
(-85.7409 -47.6146 0)
(-54.9929 -37.7602 0)
(-30.3745 -27.9817 0)
(-12.4189 -17.9382 0)
(-0.103699 -7.45819 0)
(7.03684 -0.727664 0)
(11.0822 5.09089 0)
(11.0764 10.2412 0)
(7.77295 14.0441 0)
(3.50545 17.2231 0)
(0.829861 -6.34877 0)
(4.76829 -14.3101 0)
(11.3344 -19.5259 0)
(17.8886 -22.6801 0)
(25.7115 -20.5531 0)
(30.5558 -19.194 0)
(36.021 -10.9916 0)
(38.1456 -6.38237 0)
(39.4946 5.30032 0)
(37.962 10.6388 0)
(32.2573 21.1337 0)
(24.6696 22.4704 0)
(14.8441 26.6487 0)
(5.46847 23.6407 0)
(-5.53758 31.3716 0)
(-18.2907 26.4451 0)
(-27.8094 22.2375 0)
(-35.0358 6.83716 0)
(-39.275 6.43468 0)
(-41.8417 -6.37989 0)
(-43.7723 -4.19595 0)
(-44.5056 -14.808 0)
(-44.432 -12.0671 0)
(-40.0839 -22.6228 0)
(-33.4472 -25.8675 0)
(-20.6252 -36.4842 0)
(-4.18366 -44.1972 0)
(17.5581 -53.3786 0)
(42.677 -58.9083 0)
(69.4212 -59.8003 0)
(95.2736 -55.914 0)
(117.759 -47.8808 0)
(136.038 -37.2895 0)
(149.189 -25.3402 0)
(157.937 -10.3564 0)
(161.197 3.40782 0)
(158.219 20.8182 0)
(151.043 40.7985 0)
(139.016 62.2517 0)
(121.674 80.1014 0)
(97.6602 86.8847 0)
(68.1169 76.6409 0)
(37.8601 51.1153 0)
(11.7091 20.6466 0)
(-8.05512 54.9697 0)
(-22.4581 54.8198 0)
(-34.4534 49.6165 0)
(-44.2725 38.4634 0)
(-47.5682 26.0105 0)
(-48.6025 6.71785 0)
(-42.3752 -4.74489 0)
(-31.7166 -27.1719 0)
(-16.157 -41.3385 0)
(4.89144 -59.2939 0)
(29.7 -69.4206 0)
(58.0428 -78.6196 0)
(88.0505 -79.2734 0)
(117.705 -77.3106 0)
(145.363 -68.484 0)
(171.349 -59.8078 0)
(191.886 -46.8872 0)
(210.665 -35.4047 0)
(223.492 -20.9732 0)
(230.21 -7.23316 0)
(231.29 10.1774 0)
(229.487 22.3288 0)
(216.493 44.3511 0)
(205.123 60.431 0)
(186.375 81.179 0)
(162.802 97.1061 0)
(132.89 103.985 0)
(96.1218 95.2107 0)
(55.6426 72.5899 0)
(18.2197 38.1783 0)
(-12.1542 61.1662 0)
(-33.2144 55.6769 0)
(-51.4027 44.467 0)
(-65.164 30.9704 0)
(-76.8502 11.3054 0)
(-81.1246 -5.87403 0)
(-79.6369 -31.8165 0)
(-69.0472 -51.2663 0)
(-51.0364 -72.1122 0)
(-26.1199 -87.7485 0)
(6.03879 -100.046 0)
(41.8924 -109.792 0)
(82.6219 -114.838 0)
(125.073 -111.338 0)
(166.22 -103.631 0)
(204.721 -87.8091 0)
(236.359 -69.5585 0)
(260.735 -40.4557 0)
(277.247 -17.3823 0)
(282.32 13.4401 0)
(278.681 41.068 0)
(265.334 74.3397 0)
(247.776 105.013 0)
(215.463 135.065 0)
(181.523 148.354 0)
(135.21 136.742 0)
(88.8778 101.947 0)
(47.3568 54.2214 0)
(16.9329 15.8466 0)
(1.76252 -13.013 0)
(8.98276 9.2244 0)
(39.3384 -57.5859 0)
(83.9423 -116.685 0)
(135.041 -150.501 0)
(189.072 -162.491 0)
(238.489 -154.775 0)
(283.262 -140.89 0)
(327.022 -108.698 0)
(359.782 -85.9287 0)
(386.746 -56.6711 0)
(404.124 -28.0219 0)
(416.053 2.51788 0)
(419.377 25.9582 0)
(409.081 53.537 0)
(393.432 82.6251 0)
(369.26 111.724 0)
(340.313 138.932 0)
(304.733 158.817 0)
(258.587 161.984 0)
(202.328 143.545 0)
(143.387 110.609 0)
(90.8823 75.6462 0)
(50.9898 52.0418 0)
(20.5867 37.5372 0)
(-1.70071 25.5429 0)
(-17.5128 -2.10692 0)
(-22.374 -23.5178 0)
(-18.1938 -46.4654 0)
(-9.44514 -42.1438 0)
(-1.67847 -35.7381 0)
(-1.99644 25.1223 0)
(-5.27789 22.6112 0)
(-6.34328 15.2915 0)
(-4.23338 4.77282 0)
(1.85766 -7.41064 0)
(11.4925 -23.1238 0)
(24.7223 -36.3713 0)
(42.0328 -51.2739 0)
(62.7054 -62.8562 0)
(87.1832 -72.907 0)
(114.997 -79.9009 0)
(144.251 -82.39 0)
(174.231 -82.0095 0)
(203.251 -75.5017 0)
(228.148 -65.3532 0)
(247.492 -54.3551 0)
(260.225 -26.4541 0)
(266.85 -16.6514 0)
(260.159 14.586 0)
(251.018 24.702 0)
(222.724 56.9599 0)
(204.406 63.7962 0)
(170.659 88.5067 0)
(147.916 96.4561 0)
(120.198 104.302 0)
(94.0677 98.4318 0)
(66.6844 85.711 0)
(40.289 62.4999 0)
(19.3421 40.9834 0)
(5.01356 14.2687 0)
(-0.919604 -7.66798 0)
(2.6269 -20.1922 0)
(11.0376 -31.5903 0)
(23.88 -45.2991 0)
(42.3858 -57.9482 0)
(64.9767 -69.7629 0)
(93.0437 -81.1726 0)
(123.089 -78.5612 0)
(154.696 -85.9421 0)
(185.442 -71.6111 0)
(210.633 -66.7917 0)
(232.355 -47.3605 0)
(246.436 -37.9991 0)
(257.977 -14.955 0)
(259.408 0.973443 0)
(254.072 17.9287 0)
(245.775 33.7591 0)
(229.217 49.171 0)
(209.671 63.4361 0)
(186.522 77.5556 0)
(160.851 88.225 0)
(132.461 92.1802 0)
(100.356 87.362 0)
(66.4354 73.1296 0)
(35.8558 51.8714 0)
(11.5895 28.2595 0)
(-4.41334 5.29731 0)
(-11.5693 -16.3272 0)
(-10.9046 -37.8445 0)
(-4.78355 -45.9638 0)
(6.29155 3.40183 0)
(23.627 -21.9542 0)
(50.0426 -48.0098 0)
(83.5328 -71.2303 0)
(122.406 -86.6054 0)
(160.315 -95.507 0)
(200.81 -93.6509 0)
(237.713 -88.6966 0)
(268.36 -74.8395 0)
(296.961 -64.6219 0)
(314.153 -43.6152 0)
(332.691 -26.1716 0)
(334.714 -3.72218 0)
(335.482 20.3946 0)
(321.745 42.081 0)
(302.233 62.3321 0)
(278.52 87.2383 0)
(245.683 104.239 0)
(211.625 123.044 0)
(170.249 125.559 0)
(124.654 117.964 0)
(76.2638 97.8417 0)
(32.8022 72.6404 0)
(-0.24477 49.2511 0)
(-21.7373 27.5932 0)
(-31.8419 6.57298 0)
(-30.8189 -17.1529 0)
(-22.235 -34.5176 0)
(-11.3856 -36.3613 0)
(-2.50352 -24.084 0)
(12.7002 -22.3065 0)
(43.5361 -60.5023 0)
(83.5918 -89.8992 0)
(127.859 -104.498 0)
(170.098 -110.116 0)
(208.348 -107.797 0)
(245.402 -90.209 0)
(271.528 -81.1196 0)
(291.645 -58.1659 0)
(309.939 -39.9812 0)
(314.124 -14.1502 0)
(313.708 5.95859 0)
(300.535 33.6883 0)
(285.889 53.8353 0)
(260.963 80.441 0)
(233.684 103.353 0)
(200.89 122.667 0)
(161.073 132.443 0)
(114.394 125.18 0)
(64.8968 103.162 0)
(19.4955 73.4855 0)
(-16.4196 45.4873 0)
(-40.976 26.5158 0)
(-54.9111 9.25329 0)
(-57.2627 -7.65857 0)
(-51.6835 -29.1091 0)
(-39.5537 -38.6064 0)
(-26.3415 -36.7344 0)
(-15.343 -27.6722 0)
(-4.82547 -18.3928 0)
(-3.58335 21.5027 0)
(-2.78166 0.405399 0)
(6.12256 -21.184 0)
(25.7934 -54.258 0)
(56.3931 -88.4878 0)
(96.5024 -114.12 0)
(143.369 -133.352 0)
(190.353 -136.665 0)
(240.177 -128.986 0)
(281.617 -116.091 0)
(317.409 -91.3284 0)
(350.985 -67.0402 0)
(364.979 -36.9941 0)
(381.577 -6.70162 0)
(382.671 22.2727 0)
(376.633 53.0047 0)
(359.037 82.069 0)
(334.812 106.436 0)
(301.748 128.481 0)
(258.702 135.615 0)
(206.901 127.182 0)
(151.377 106.166 0)
(95.607 75.2928 0)
(51.9538 41.3994 0)
(22.6346 15.5116 0)
(3.64814 -8.14035 0)
(-4.61077 -29.3548 0)
(-3.78355 -46.2553 0)
(-0.848845 -45.7896 0)
(0.213843 -39.6348 0)
(-1.56065 -1.1699 0)
(2.76914 -23.2719 0)
(18.0737 -48.7209 0)
(46.4577 -84.9394 0)
(85.3408 -116.785 0)
(132.882 -139.143 0)
(181.419 -146.073 0)
(228.536 -144.742 0)
(270.996 -124.058 0)
(305.306 -102.619 0)
(328.144 -74.5861 0)
(341.019 -39.3403 0)
(342.287 -8.00074 0)
(328.42 28.582 0)
(314.328 59.7937 0)
(286.602 95.5971 0)
(253.297 123.966 0)
(211.509 143.916 0)
(157.956 148.359 0)
(97.8884 129.938 0)
(36.5467 99.4735 0)
(-14.714 62.1232 0)
(-52.6506 31.7995 0)
(-73.887 9.76233 0)
(-79.2002 -14.4033 0)
(-71.7233 -41.4886 0)
(-53.1621 -65.2402 0)
(-29.4795 -70.5091 0)
(-8.22676 -52.6621 0)
(1.7372 -10.4086 0)
(-3.09583 5.32815 0)
(-11.6044 17.1473 0)
(-25.4221 28.7017 0)
(-45.1003 46.2842 0)
(-69.1028 62.0283 0)
(-95.5492 74.8649 0)
(-123.448 80.6363 0)
(-150.253 78.9698 0)
(-172.509 67.2478 0)
(-188.907 49.6431 0)
(-198.866 24.1156 0)
(-199.504 -4.50406 0)
(-188.779 -30.4637 0)
(-167.025 -53.5248 0)
(-136.504 -71.5431 0)
(-100.422 -82.6255 0)
(-61.7515 -85.7039 0)
(-23.8001 -81.1842 0)
(9.40994 -72.1908 0)
(36.4876 -65.4805 0)
(63.0708 -59.0993 0)
(85.5612 -55.828 0)
(99.381 -41.3604 0)
(110.892 -23.4391 0)
(112.768 0.498238 0)
(102.661 21.4313 0)
(87.9463 42.5456 0)
(66.8232 55.5441 0)
(40.7489 59.4166 0)
(13.5454 52.5367 0)
(1.07605 -16.5292 0)
(2.77261 -10.6175 0)
(0.0036365 4.56018 0)
(-9.55123 20.4259 0)
(-23.797 30.1258 0)
(-47.4983 43.4125 0)
(-82.7007 71.524 0)
(-124.011 90.1921 0)
(-165.246 101.044 0)
(-202.46 101.616 0)
(-231.19 91.0689 0)
(-252.357 70.9347 0)
(-264.743 45.0296 0)
(-272.599 16.412 0)
(-269.643 -11.0955 0)
(-259.433 -39.06 0)
(-236.68 -58.5502 0)
(-208.292 -76.9945 0)
(-175.495 -86.1654 0)
(-139.188 -84.8887 0)
(-104.002 -80.7458 0)
(-72.1077 -63.7055 0)
(-47.4861 -47.5436 0)
(-29.5584 -30.0332 0)
(-17.8999 -15.0131 0)
(-10.0564 -4.05369 0)
(-5.26108 4.4042 0)
(-2.90135 12.129 0)
(-2.12783 17.3789 0)
(-1.23001 20.9238 0)
(1.88644 -11.1789 0)
(6.83017 -20.728 0)
(12.2624 -28.3651 0)
(17.8856 -30.211 0)
(24.0009 -28.6933 0)
(28.9007 -24.5733 0)
(33.0841 -15.5066 0)
(36.1051 -7.23802 0)
(36.8617 5.53671 0)
(36.1647 15.2372 0)
(30.7779 26.2842 0)
(24.2034 33.388 0)
(15.8455 37.5088 0)
(4.84866 35.5813 0)
(-5.8595 41.5823 0)
(-15.1515 36.645 0)
(-25.5397 28.1505 0)
(-33.7632 12.6184 0)
(-38.5009 8.28072 0)
(-43.7548 -4.45355 0)
(-44.9209 -3.91017 0)
(-47.6838 -15.7307 0)
(-47.7282 -14.7 0)
(-44.4452 -29.507 0)
(-37.4698 -35.2271 0)
(-24.732 -51.0251 0)
(-9.06116 -62.7059 0)
(11.5951 -74.7782 0)
(35.9974 -82.7947 0)
(61.5892 -83.2986 0)
(85.041 -76.7958 0)
(104.737 -64.7774 0)
(120.522 -49.5823 0)
(131.774 -33.4489 0)
(137.977 -14.4678 0)
(140.742 4.90777 0)
(139.294 27.2123 0)
(133.146 50.3983 0)
(123.624 75.3566 0)
(109.695 98.5255 0)
(90.4711 110.718 0)
(66.1338 105.15 0)
(38.3706 79.7116 0)
(12.0783 45.3908 0)
(-7.50776 75.2399 0)
(-19.4869 73.114 0)
(-28.8566 64.0198 0)
(-36.4852 48.7859 0)
(-37.1205 30.9342 0)
(-36.3847 8.19546 0)
(-29.7573 -10.4666 0)
(-20.0126 -36.7949 0)
(-6.75935 -55.0973 0)
(11.1109 -78.3155 0)
(31.6275 -91.2396 0)
(56.0493 -103.692 0)
(81.451 -103.427 0)
(106.596 -101.137 0)
(130.748 -88.4883 0)
(153.048 -78.4664 0)
(171.181 -61.668 0)
(188.295 -46.1522 0)
(201.269 -28.3686 0)
(206.043 -9.80445 0)
(208.534 11.2037 0)
(206.393 30.5965 0)
(195.532 53.7835 0)
(184.46 76.7094 0)
(169.532 99.8014 0)
(151.351 121.574 0)
(126.951 134.751 0)
(96.5664 132.727 0)
(59.2987 112.021 0)
(20.25 75.8795 0)
(-10.2599 83.4917 0)
(-28.3249 74.7754 0)
(-44.4712 59.1094 0)
(-57.5793 40.4814 0)
(-68.2997 16.274 0)
(-75.483 -8.99837 0)
(-74.5778 -39.1603 0)
(-67.478 -68.5044 0)
(-53.4707 -94.749 0)
(-33.2327 -116.265 0)
(-8.46627 -134.018 0)
(20.9987 -148.127 0)
(54.4734 -154.044 0)
(91.6351 -152.845 0)
(127.67 -140.253 0)
(162.273 -121.5 0)
(192.652 -93.0442 0)
(213.56 -57.8081 0)
(228.567 -25.7032 0)
(235.696 14.3816 0)
(233.57 51.0306 0)
(226.736 91.7851 0)
(210.643 127.749 0)
(192.96 162.294 0)
(167.025 182.407 0)
(136.109 179.168 0)
(98.143 146.826 0)
(57.4373 91.4022 0)
(27.0746 40.3308 0)
(7.71709 -0.136929 0)
(14.3357 -13.9108 0)
(48.6056 -96.8016 0)
(91.1421 -163.874 0)
(135.168 -198.859 0)
(175.869 -209.264 0)
(211.488 -196.545 0)
(248.26 -175.34 0)
(278.313 -139.577 0)
(300.56 -111.659 0)
(325.676 -73.2107 0)
(338.51 -37.3395 0)
(353.059 -1.7503 0)
(354.199 32.9497 0)
(354.425 70.531 0)
(344.748 104.103 0)
(327.183 136.524 0)
(305.515 168.5 0)
(280.977 195.473 0)
(249.702 208.077 0)
(209.146 197.105 0)
(161.382 163.471 0)
(112.24 118.577 0)
(71.9582 84.7174 0)
(40.4009 58.4024 0)
(16.3629 42.181 0)
(-2.19001 2.16009 0)
(-9.81247 -25.2762 0)
(-10.6222 -59.4541 0)
(-7.38266 -55.1157 0)
(-1.57106 -48.267 0)
(-1.95207 34.7108 0)
(-4.73077 30.5241 0)
(-5.89711 19.7491 0)
(-4.53213 5.23621 0)
(0.149899 -10.7194 0)
(7.7321 -31.0009 0)
(18.3032 -48.5551 0)
(32.4322 -67.4474 0)
(50.1746 -83.8438 0)
(71.8176 -98.0766 0)
(97.2694 -108.88 0)
(124.804 -113.137 0)
(152.881 -113.362 0)
(181.111 -104.393 0)
(203.779 -91.4516 0)
(224.213 -72.5105 0)
(238.062 -45.8807 0)
(240.857 -21.0067 0)
(239.423 18.6453 0)
(224.301 33.8708 0)
(204.631 76.7434 0)
(180.84 85.5188 0)
(158.489 113.141 0)
(136.955 122.302 0)
(115.665 132.593 0)
(94.6662 131.174 0)
(72.8182 120.071 0)
(48.3791 98.0077 0)
(25.24 70.91 0)
(7.54948 38.3779 0)
(-0.522779 -11.0205 0)
(1.65924 -26.7792 0)
(8.15791 -44.3496 0)
(18.299 -62.301 0)
(34.2208 -80.0015 0)
(57.2274 -98.0518 0)
(83.9396 -112.799 0)
(111.616 -111.377 0)
(138.573 -117.964 0)
(168.14 -98.71 0)
(189.698 -93.041 0)
(206.626 -67.9588 0)
(225.657 -48.3985 0)
(234.129 -25.8361 0)
(237.081 -1.56693 0)
(233.09 20.7528 0)
(219.142 43.839 0)
(205.671 63.9201 0)
(187.829 81.2379 0)
(167.362 95.9567 0)
(145.549 109.524 0)
(123.745 116.837 0)
(101.158 114.865 0)
(76.2159 101.826 0)
(49.142 78.7697 0)
(24.3437 48.2939 0)
(6.31376 15.7253 0)
(-3.69467 -14.8887 0)
(-5.14531 -42.8118 0)
(-2.55257 -55.8739 0)
(6.91665 -4.9788 0)
(24.7384 -38.3362 0)
(50.0154 -72.2162 0)
(80.5208 -100.522 0)
(114.257 -119.013 0)
(147.537 -128.767 0)
(183.887 -124.282 0)
(213.484 -117.443 0)
(240.513 -101.522 0)
(268.045 -81.1336 0)
(279.2 -59.5487 0)
(293.77 -34.0839 0)
(301.582 -7.36173 0)
(293.884 24.3135 0)
(285.67 50.8843 0)
(272.736 79.9167 0)
(252.904 108.064 0)
(227.271 132.108 0)
(201.679 154.139 0)
(168.919 163.325 0)
(133.963 160.353 0)
(94.3139 141.239 0)
(55.3599 110.388 0)
(22.6292 77.0641 0)
(0.883925 43.5648 0)
(-8.73556 12.0738 0)
(-8.91019 -20.9825 0)
(-3.03234 -42.0729 0)
(2.23465 -41.1073 0)
(2.51739 -22.6581 0)
(16.6103 -50.4018 0)
(54.1522 -99.6735 0)
(94.1104 -129.953 0)
(133.096 -145.118 0)
(170.886 -148.17 0)
(204.282 -140.489 0)
(229.686 -119.306 0)
(250.645 -105.274 0)
(268.486 -71.4827 0)
(277.362 -49.8481 0)
(283.222 -20.3353 0)
(280.08 9.95473 0)
(273.798 40.4393 0)
(256.594 72.378 0)
(239.735 100.493 0)
(218.086 129.478 0)
(193.126 152.701 0)
(164.386 169.975 0)
(129.043 169.355 0)
(88.0939 149.517 0)
(45.5742 115.103 0)
(8.64862 77.7891 0)
(-19.5791 46.3534 0)
(-35.4014 20.3043 0)
(-40.8427 -6.97319 0)
(-38.1484 -36.8587 0)
(-29.4806 -49.3025 0)
(-18.1848 -47.2958 0)
(-6.94737 -36.1882 0)
(-1.89261 -24.6141 0)
(-2.15508 24.5965 0)
(-0.777995 -5.3886 0)
(8.98528 -37.299 0)
(28.8029 -81.4841 0)
(57.7764 -124.666 0)
(94.7877 -159.022 0)
(137.275 -180.601 0)
(179.257 -183.597 0)
(220.247 -170.892 0)
(254.116 -154.09 0)
(285.141 -120.48 0)
(312.77 -88.2855 0)
(325.867 -52.6672 0)
(342.462 -12.6294 0)
(349.156 23.7167 0)
(344.551 61.3778 0)
(333.157 98.359 0)
(317.356 131.576 0)
(290.974 155.875 0)
(256.898 170.932 0)
(222.534 172.29 0)
(176.855 151.718 0)
(129.01 115.576 0)
(86.6979 75.1726 0)
(49.1358 36.2389 0)
(22.3461 -1.52381 0)
(7.12845 -34.5212 0)
(0.560472 -59.6865 0)
(0.137722 -60.9611 0)
(-0.0875039 -53.0092 0)
(-0.153105 -7.71047 0)
(7.27187 -40.4814 0)
(25.5418 -79.2246 0)