/*--------------------------------*- C++ -*----------------------------------*\
| =========                 |                                                 |
| \\      /  F ield         | OpenFOAM: The Open Source CFD Toolbox           |
|  \\    /   O peration     | Version:  2.1.1                                 |
|   \\  /    A nd           | Web:      www.OpenFOAM.org                      |
|    \\/     M anipulation  |                                                 |
\*---------------------------------------------------------------------------*/
FoamFile
{
    version     2.0;
    format      ascii;
    class       volScalarField;
    location    "0.003150000";
    object      mut;
}
// * * * * * * * * * * * * * * * * * * * * * * * * * * * * * * * * * * * * * //

dimensions      [1 -1 -1 0 0 0 0];

internalField   nonuniform List<scalar> 
12384
(
3.96491e-06
1.57845e-05
4.35282e-05
4.66603e-05
0.000130851
0.000238408
7.44612e-05
4.26849e-05
1.64815e-05
1.01039e-05
5.24767e-06
3.5325e-06
4.85433e-06
2.10878e-06
7.36334e-06
6.68179e-05
0.00012245
0.000200495
0.000252814
0.000302083
0.00037915
0.000439691
0.00058443
0.000594408
0.000839
0.0012329
0.00426367
0.00332314
0.00307421
0.00240109
0.00224903
0.00206716
0.000744813
0.00058774
0.000481301
0.000294419
0.000304942
0.000665082
0.00109636
0.000707286
0.000259144
6.59014e-05
3.11733e-05
6.504e-06
0.000293906
0.00122112
0.00206882
0.0031973
0.00372505
0.00373278
0.00352256
0.00359483
0.00388724
0.0047864
0.00723333
0.0125135
0.0117526
0.00764066
0.00470193
0.00300468
0.00199918
0.00137362
0.00085004
0.000531399
0.000313952
0.000206592
0.000184517
0.000159261
0.000130803
9.95199e-05
7.89557e-05
4.99356e-05
3.19455e-05
1.07155e-05
0.000774984
0.00132495
0.00168628
0.0022185
0.00288628
0.00365082
0.00463418
0.00558459
0.00692828
0.0081923
0.0102498
0.0136825
0.015663
0.0114536
0.00761156
0.00562566
0.0043378
0.00337744
0.00269694
0.00212772
0.00154885
0.000976142
0.000497378
0.000228762
0.00012094
9.51877e-05
7.85269e-05
7.90655e-05
9.83139e-05
1.84618e-05
0.000674033
0.00139819
0.00139185
0.00140584
0.00146185
0.00165133
0.00177704
0.00222554
0.00305182
0.00435293
0.00809537
0.0143827
0.0332246
0.0163989
0.00893613
0.0052383
0.00366664
0.00286304
0.00208512
0.00148525
0.0010653
0.000825058
0.00071256
0.000559174
0.000564469
0.000308796
0.000147398
7.84082e-05
3.86543e-05
5.03527e-06
2.61224e-05
0.000175323
0.000316703
0.000727986
0.00143189
0.00152533
0.00102272
0.000730918
0.00056626
0.000562238
0.00060065
0.000992565
0.00143671
0.000992672
0.00110732
0.0010791
0.000878231
0.000767445
0.000452178
0.000292382
0.000161568
0.000158376
0.000196474
0.000300453
0.000592052
0.00098138
0.000500901
7.90342e-05
1.35253e-05
8.4209e-06
2.723e-06
1.48613e-05
0.000141196
0.000681956
0.00176324
0.00216575
0.00232311
0.00173403
0.00127789
0.00086854
0.000553254
0.000352209
0.00019901
0.000104956
5.53083e-05
2.45928e-05
1.15824e-05
1.07654e-05
2.72254e-05
0.00010899
0.000964115
0.00135873
0.000115091
1.67758e-05
7.78735e-06
4.80362e-06
2.8552e-06
1.72972e-06
1.89669e-06
3.79909e-06
4.01435e-06
3.4634e-06
3.02073e-06
1.77932e-06
1.68598e-06
3.37226e-06
3.62931e-06
1.65827e-06
7.10201e-07
6.61932e-07
4.54669e-07
6.23079e-07
4.27179e-07
5.48383e-07
7.57065e-07
1.12307e-06
9.94707e-07
1.15372e-06
9.68499e-07
1.74248e-06
1.40956e-06
1.29072e-06
9.55145e-07
8.72143e-07
5.71719e-07
4.63012e-07
2.95765e-07
2.1419e-07
1.45301e-07
6.69489e-08
3.72312e-07
5.77837e-07
8.65101e-07
9.62815e-07
1.00459e-06
9.02094e-07
9.38035e-07
1.80448e-06
1.63751e-06
7.36702e-07
4.8053e-07
3.64246e-07
3.13342e-07
2.58579e-07
2.26623e-07
1.90752e-07
1.68936e-07
1.41223e-07
1.3089e-07
1.12324e-07
1.11929e-07
1.02637e-07
1.13553e-07
9.86854e-08
9.73071e-08
9.94284e-08
6.79452e-07
4.12303e-07
4.85595e-07
1.34477e-06
2.3177e-07
1.57722e-07
1.58578e-07
2.01301e-07
3.59864e-07
9.84247e-07
1.12973e-05
9.5091e-05
0.000136102
0.000136129
0.000136129
0.000136128
0.000136132
0.000136131
0.000136136
0.000136131
0.000136132
0.000136123
0.000136117
0.000136113
0.000136111
0.000136105
0.000136106
0.0001361
0.0001361
0.000136095
0.000136092
0.00013609
0.00013608
0.000135935
0.000135951
0.000136075
0.000136085
0.000136089
0.000136092
0.000136096
0.0001361
0.000136101
0.000136105
0.000136107
0.00013611
0.000136112
0.000136116
0.000136122
0.000136123
0.000136126
0.000136122
0.000136118
0.000136113
0.000136109
0.000136109
0.000136104
0.000136103
0.000136099
0.000136097
0.000136092
0.00013609
0.000136084
0.000136072
0.000135949
0.000135935
0.000136078
0.000136085
0.00013609
0.000136094
0.000136098
0.000136103
0.000136103
0.000136108
0.000136108
0.000136112
0.000136113
0.000136118
0.000136122
0.000136126
0.000136127
0.000136122
0.000136118
0.000136112
0.00013611
0.000136107
0.000136107
0.000136103
0.000136101
0.000136098
0.000136094
0.00013609
0.000136085
0.000136078
0.000135933
0.000135949
0.000136075
0.000136086
0.000136089
0.000136095
0.000136096
0.000136104
0.000136101
0.000136109
0.000136105
0.000136113
0.000136111
0.000136118
0.00013612
0.000136123
0.000136124
0.000136119
0.000136117
0.000136112
0.000136109
0.000136108
0.000136103
0.000136103
0.000136097
0.000136096
0.00013609
0.000136088
0.000136084
0.00013607
0.000135947
1.01147e-05
9.35906e-05
0.000203671
0.000263699
0.000397355
0.000497732
0.000623246
0.0006724
0.000624088
0.000549951
0.000376439
0.000207967
8.45033e-05
1.14733e-05
2.53767e-05
0.000633057
0.00134508
0.00219399
0.0030311
0.00375697
0.00488107
0.0060508
0.00786111
0.00943653
0.0100663
0.0143446
0.0147736
0.0170019
0.0168234
0.0163137
0.0146867
0.0133766
0.0115845
0.0102169
0.00884076
0.00772143
0.00666459
0.00570013
0.00445136
0.00285334
0.00145658
0.000810347
0.000332979
2.44633e-05
0.00093438
0.00473806
0.00514101
0.00552076
0.00554315
0.00561576
0.00557463
0.00562129
0.00567406
0.00570937
0.00565697
0.00552678
0.00529583
0.00508665
0.00480414
0.00462997
0.00443698
0.00437867
0.00437794
0.00441141
0.00428
0.0039713
0.00363928
0.00334068
0.00300928
0.00247845
0.00184295
0.00106161
0.000470156
6.27613e-05
0.0030724
0.00524135
0.00590603
0.00683587
0.00708063
0.00724067
0.00715819
0.00714915
0.00732975
0.0074559
0.00764771
0.00782562
0.00820237
0.00879302
0.00936476
0.00979203
0.0100622
0.0102851
0.0102026
0.00971276
0.0089591
0.00804609
0.00672698
0.00527927
0.00398713
0.00286788
0.00170202
0.00081792
0.000396603
8.80642e-05
0.00357945
0.00985717
0.0119462
0.0135655
0.0135573
0.0140812
0.0141612
0.0145214
0.0137658
0.0143176
0.0141456
0.0145336
0.0152289
0.0161749
0.0169078
0.0181083
0.0195435
0.0202936
0.020454
0.0196999
0.0169811
0.0151092
0.0125595
0.0103734
0.00736815
0.00378479
0.00233311
0.00112044
0.000507079
1.8156e-05
8.68687e-05
0.000750636
0.00142049
0.00255882
0.00411279
0.0050309
0.00577832
0.00616147
0.00674149
0.00758408
0.0086745
0.00997315
0.0116485
0.0143928
0.01638
0.017559
0.0170015
0.0162494
0.0130233
0.00814552
0.00506703
0.00372122
0.00325376
0.00254926
0.00201942
0.00146997
0.001008
0.000528946
0.000145311
1.52875e-05
0.000156602
0.000827628
0.00222257
0.00363054
0.00519214
0.00600778
0.00651348
0.00619748
0.00574143
0.00478544
0.003795
0.00269487
0.00190433
0.00119581
0.000770971
0.000395877
0.000220654
0.000216377
0.000476641
0.00234245
0.0069231
0.0087157
0.00201287
0.000328351
9.02767e-05
4.96596e-05
2.63898e-05
1.66288e-05
1.11534e-05
4.83294e-06
2.21964e-05
2.74235e-05
3.22794e-05
3.22178e-05
3.42174e-05
1.95304e-05
1.43618e-05
8.53621e-06
6.72381e-06
5.54241e-06
4.97681e-06
4.67254e-06
4.75143e-06
5.1644e-06
5.38613e-06
6.46536e-06
8.21538e-06
9.8033e-06
1.05056e-05
1.14891e-05
1.10145e-05
9.1346e-06
8.09037e-06
6.12123e-06
5.35536e-06
3.74748e-06
3.33597e-06
2.12197e-06
1.94021e-06
4.9456e-08
1.89777e-07
2.31538e-06
1.98682e-06
1.96996e-06
1.86388e-06
1.64493e-06
1.61075e-06
1.60263e-06
1.85778e-06
2.06225e-06
2.33602e-06
2.53504e-06
2.64368e-06
2.73499e-06
2.70654e-06
2.6891e-06
2.63907e-06
2.54879e-06
2.44997e-06
2.2621e-06
2.10603e-06
1.89083e-06
1.64787e-06
1.56155e-06
1.52094e-06
1.46345e-06
1.9908e-06
2.75739e-06
2.22947e-06
8.85108e-07
1.3389e-07
2.02549e-06
2.19325e-06
3.17742e-06
5.79051e-06
4.9139e-06
4.36032e-07
1.78244e-06
5.75573e-05
0.0002269
0.000533583
0.00053363
0.000533318
0.000533396
0.000533158
0.000533277
0.000533242
0.000533496
0.00053348
0.000533615
0.000533686
0.000533661
0.000533872
0.000533744
0.000533925
0.000533785
0.000534009
0.000533738
0.000513452
0.00013756
0.000137653
0.000512669
0.000533882
0.000533826
0.000533941
0.000533743
0.000533902
0.000533685
0.000533801
0.000533552
0.00053366
0.000533409
0.000533417
0.000533199
0.000533234
0.000533096
0.000533329
0.000533278
0.000533569
0.000533523
0.000533759
0.000533661
0.000533881
0.000533741
0.000533929
0.000533744
0.000533895
0.000533694
0.000512217
0.000137632
0.000137549
0.000513042
0.000533674
0.000533833
0.000533975
0.000533828
0.000533958
0.00053375
0.000533852
0.000533604
0.000533696
0.000533409
0.000533426
0.000533196
0.000533188
0.00053319
0.000533188
0.000533408
0.000533397
0.000533672
0.000533579
0.000533815
0.000533706
0.000533903
0.000533765
0.000533918
0.000533788
0.000533745
0.000513157
0.000137553
0.000137641
0.000512673
0.00053384
0.000533782
0.000533915
0.000533732
0.000533945
0.000533746
0.000533918
0.000533668
0.000533785
0.000533493
0.000533492
0.000533209
0.00053326
0.000533094
0.000533306
0.00053326
0.000533521
0.000533484
0.000533755
0.000533667
0.000533907
0.000533767
0.00053396
0.000533761
0.000533893
0.000533652
0.000512188
0.000137627
2.40527e-05
0.00018614
0.000414921
0.000599916
0.000891162
0.00105407
0.00119389
0.0012207
0.00122754
0.00111235
0.00075542
0.000448382
0.000187119
5.205e-05
8.38419e-05
0.00207433
0.00354694
0.00479239
0.00589111
0.00682592
0.00790182
0.00901189
0.0100365
0.0120328
0.0122752
0.0155373
0.0184554
0.0190419
0.0193639
0.0180989
0.0163362
0.0142621
0.0123136
0.0107572
0.00963997
0.008579
0.00732609
0.00606988
0.00462488
0.00320884
0.00183226
0.00104086
0.00048483
3.72635e-05
0.000732518
0.00537048
0.00558123
0.00552566
0.0058718
0.00579597
0.0058516
0.00588009
0.00609945
0.00614882
0.00596928
0.00585813
0.0055684
0.00540548
0.00505808
0.00497403
0.00477635
0.00475271
0.00481368
0.00496363
0.0048633
0.00452888
0.0041729
0.00396309
0.00375313
0.00311715
0.00224961
0.00146832
0.000859144
0.000101063
0.00409131
0.00588112
0.00618312
0.00673082
0.00703257
0.00703957
0.00709809
0.007544
0.00827741
0.00913444
0.00964502
0.0103397
0.0120352
0.0128477
0.0126032
0.0119619
0.011158
0.0107364
0.0103775
0.00981856
0.00881769
0.00758099
0.00643531
0.00528649
0.00448232
0.00358563
0.00259086
0.00150647
0.00084675
0.000347111
0.00535966
0.00937723
0.0113051
0.0127531
0.0127284
0.0135639
0.0131111
0.0137341
0.0132472
0.0138277
0.0144202
0.0151578
0.0157516
0.0176251
0.0184796
0.0197122
0.0222411
0.0234666
0.0249009
0.0240972
0.0237959
0.0221216
0.0214141
0.0188294
0.0148494
0.00966517
0.00580229
0.00378663
0.00181504
2.64126e-05
0.000158614
0.00123775
0.00247349
0.00407
0.00561282
0.0063653
0.00659075
0.00708499
0.00817541
0.00988306
0.012122
0.0150406
0.0202083
0.0242286
0.0265106
0.0291
0.0301383
0.0245103
0.0209752
0.0147818
0.0102949
0.00810185
0.00589093
0.00496661
0.00335088
0.00239672
0.00168326
0.000624563
0.000161387
3.37479e-05
0.000449752
0.00242396
0.00454737
0.00658078
0.00822623
0.00901354
0.00931606
0.00911642
0.00859952
0.00743893
0.0058554
0.00444693
0.00334377
0.00232975
0.00149926
0.000733337
0.000364112
0.000673191
0.00277892
0.00737325
0.0115715
0.0149069
0.00557165
0.00136622
0.000449593
0.000253177
0.000114116
3.14444e-05
1.29653e-05
3.15094e-06
7.43619e-06
4.78077e-05
0.00010003
8.96212e-05
9.21481e-05
5.36974e-05
3.33234e-05
1.91117e-05
1.68474e-05
1.47976e-05
1.49857e-05
1.50815e-05
1.55541e-05
1.58916e-05
1.51973e-05
1.54714e-05
1.49149e-05
1.41952e-05
1.33554e-05
1.17343e-05
1.08833e-05
9.09905e-06
7.7383e-06
7.00522e-06
6.09185e-06
5.08608e-06
4.02648e-06
3.51351e-06
3.12482e-06
8.45542e-08
1.6833e-07
1.90048e-06
1.52387e-06
1.53109e-06
1.51061e-06
1.25316e-06
1.21072e-06
1.19307e-06
1.2613e-06
1.41033e-06
1.5892e-06
1.88672e-06
2.22187e-06
2.51973e-06
2.74077e-06
2.8628e-06
2.89239e-06
2.89707e-06
2.83579e-06
2.8338e-06
2.59891e-06
2.28283e-06
2.26796e-06
2.08066e-06
1.80399e-06
1.99776e-06
2.20608e-06
2.45094e-06
2.71154e-06
7.30563e-07
1.00253e-07
7.19997e-07
7.79261e-07
1.07236e-06
1.42042e-06
2.67296e-06
8.17334e-06
3.82718e-06
8.36213e-07
3.97171e-05
0.000268377
0.000661562
0.000661117
0.000660958
0.000660563
0.000660655
0.000660647
0.000661167
0.000661405
0.000661728
0.000661889
0.000661999
0.000662341
0.000662312
0.000662623
0.000662557
0.000662831
0.0006626
0.000642935
0.000176507
0.000176448
0.000642814
0.000662785
0.000662611
0.000662684
0.000662363
0.000662402
0.000662071
0.000662102
0.000661748
0.000661744
0.000661346
0.000661211
0.000660704
0.000660639
0.000660437
0.000660803
0.000660936
0.000661423
0.000661462
0.000661839
0.000661841
0.000662186
0.000662164
0.000662508
0.000662476
0.000662747
0.000662595
0.00064274
0.000176451
0.0001765
0.00064265
0.000662539
0.00066266
0.000662652
0.000662348
0.000662358
0.000662021
0.000662034
0.000661678
0.00066167
0.000661275
0.000661162
0.000660682
0.000660549
0.000660556
0.000660675
0.000661164
0.000661282
0.000661676
0.000661682
0.000662031
0.000662012
0.000662339
0.000662315
0.000662615
0.000662585
0.00066257
0.000642549
0.000176497
0.000176445
0.000642779
0.000662741
0.000662565
0.000662634
0.00066232
0.000662369
0.000662038
0.000662084
0.000661743
0.000661744
0.000661352
0.000661246
0.000660745
0.000660664
0.000660414
0.000660757
0.000660889
0.000661379
0.000661421
0.000661798
0.00066181
0.000662166
0.000662151
0.000662495
0.000662469
0.000662734
0.00066259
0.000642733
0.000176447
7.76217e-05
0.000320678
0.000736153
0.00118652
0.00168392
0.00194648
0.00211324
0.00217822
0.00216625
0.00218838
0.00179397
0.00120515
0.000502501
0.000305953
0.000293306
0.00431968
0.00604306
0.00736894
0.00817869
0.00898504
0.0100055
0.0106868
0.0117159
0.0137824
0.0152312
0.0167685
0.0210598
0.0222325
0.0224174
0.0204381
0.0175738
0.0154064
0.0132125
0.0115809
0.0107574
0.0100856
0.00878626
0.00721073
0.00561308
0.00381402
0.00222316
0.00133281
0.000777817
7.27371e-05
0.000835069
0.00572349
0.0056573
0.00608622
0.00601621
0.00615292
0.00629228
0.00626892
0.0063161
0.00642207
0.00638504
0.00612339
0.00589541
0.00563421
0.00544725
0.00522365
0.00509526
0.00498128
0.00491931
0.00511077
0.00512447
0.00485514
0.0045573
0.00448424
0.00444113
0.00388619
0.00297435
0.00218624
0.00149486
0.000244168
0.00358236
0.00677291
0.0067099
0.00713157
0.00715481
0.00731855
0.00771824
0.00878663
0.0100986
0.0108045
0.0116914
0.0146042
0.0178861
0.0179386
0.0165654
0.0146037
0.0129953
0.0113921
0.0104578
0.0099591
0.00924772
0.00813782
0.00721698
0.00652839
0.00582957
0.00487044
0.00384798
0.00273258
0.00206825
0.00162347
0.0081048
0.00935137
0.0106562
0.0114584
0.0123831
0.0127371
0.012605
0.0128356
0.0129749
0.0137682
0.0140898
0.0157943
0.0171531
0.0185107
0.0200978
0.0219168
0.0236806
0.0262336
0.0270558
0.028013
0.0273345
0.0287745
0.0265704
0.0250154
0.0216964
0.0151127
0.0124141
0.00862813
0.00635847
0.000160326
0.000492225
0.00335383
0.00535144
0.00637345
0.00732103
0.00737714
0.00755723
0.00864901
0.0107572
0.0134729
0.0163426
0.0216729
0.0279626
0.0327558
0.0381854
0.0428336
0.0416361
0.0335547
0.0255973
0.021597
0.0158698
0.0121163
0.00987977
0.00743867
0.00615023
0.00366213
0.00258147
0.00135616
0.000292969
2.61932e-05
0.000478172
0.00391245
0.00677173
0.00872254
0.010438
0.0107466
0.0113366
0.0114949
0.0116807
0.0112154
0.0104661
0.00956519
0.00801831
0.00601024
0.00427793
0.00225775
0.000919248
0.00111241
0.00374754
0.00855616
0.0118011
0.0142814
0.00599496
0.00320341
0.00272914
0.00198358
0.00130768
0.000324067
5.05598e-05
5.41199e-06
3.8945e-05
8.70987e-05
0.000207836
0.000216243
0.000219516
0.000152058
9.75632e-05
6.34476e-05
4.90263e-05
4.34453e-05
4.22628e-05
3.82642e-05
3.36234e-05
2.76116e-05
2.35388e-05
2.06895e-05
1.8856e-05
1.81804e-05
1.62606e-05
1.49588e-05
1.29377e-05
1.22242e-05
1.01709e-05
8.90889e-06
7.81394e-06
6.94597e-06
5.77817e-06
4.88411e-06
4.67617e-06
1.573e-07
1.28499e-07
1.766e-06
1.6235e-06
1.85533e-06
1.62896e-06
1.58979e-06
1.48288e-06
1.45522e-06
1.50973e-06
1.60662e-06
1.78923e-06
1.94005e-06
2.11342e-06
2.24332e-06
2.33643e-06
2.44347e-06
2.50057e-06
2.45624e-06
2.37545e-06
2.16951e-06
1.96741e-06
2.0964e-06
1.88659e-06
1.63621e-06
1.54556e-06
1.8214e-06
1.64119e-06
1.74145e-06
1.52761e-06
4.91752e-07
8.26139e-08
3.57483e-07
4.49531e-07
4.79052e-07
7.02451e-07
8.95509e-07
1.60603e-06
3.67086e-06
2.12792e-05
7.13861e-07
1.38339e-05
0.000280647
0.000667712
0.000667718
0.000667663
0.000667668
0.000667658
0.000667706
0.000667701
0.000667807
0.000667832
0.000667746
0.00066779
0.000667776
0.000667813
0.0006678
0.000667838
0.000667535
0.000642887
0.000175374
0.000175403
0.000642897
0.000667576
0.000667796
0.000667805
0.000667768
0.000667774
0.000667742
0.000667749
0.000667714
0.000667717
0.000667679
0.000667671
0.000667624
0.000667625
0.000667602
0.000667642
0.000667647
0.0006677
0.000667699
0.000667741
0.000667737
0.000667778
0.000667776
0.000667822
0.000667804
0.000667881
0.000667581
0.000642911
0.000175398
0.000175372
0.00064293
0.000667565
0.000667798
0.000667852
0.000667796
0.000667795
0.000667751
0.000667758
0.000667715
0.000667718
0.000667675
0.00066767
0.000667618
0.000667687
0.000667688
0.000667613
0.000667667
0.000667671
0.000667713
0.000667711
0.000667752
0.000667747
0.000667791
0.000667789
0.000667841
0.000667813
0.000667611
0.000642927
0.000175372
0.000175402
0.000642864
0.000667565
0.000667788
0.000667796
0.000667766
0.000667769
0.00066774
0.000667747
0.000667717
0.000667719
0.000667681
0.000667677
0.000667625
0.000667625
0.0006676
0.000667635
0.000667641
0.000667693
0.000667693
0.000667736
0.000667732
0.000667774
0.000667769
0.000667821
0.000667802
0.000667877
0.000667581
0.000642925
0.000175398
0.000107118
0.000514883
0.00116938
0.00188228
0.00248116
0.00278355
0.00299958
0.00317141
0.0031872
0.00319586
0.00311198
0.00255468
0.00137679
0.000449704
0.000614728
0.00642222
0.00799322
0.00888099
0.00929062
0.00933639
0.00941418
0.010168
0.0113743
0.0126114
0.0143876
0.0149036
0.0184457
0.0206737
0.0219296
0.0213874
0.0183587
0.0151773
0.0132554
0.011617
0.0107897
0.010589
0.00962723
0.00852646
0.00682584
0.00493448
0.00309214
0.00224238
0.00135154
0.000332766
0.0012644
0.00637631
0.00610812
0.0059372
0.00609187
0.00612527
0.00630976
0.00661356
0.00663876
0.00647757
0.00640469
0.00632829
0.00605861
0.00587743
0.00563371
0.00551749
0.00529014
0.00508114
0.00487462
0.00498339
0.00514468
0.00491078
0.00462229
0.00466625
0.0049143
0.00466287
0.00399109
0.00333181
0.00268861
0.000808195
0.00349743
0.00764433
0.0073992
0.00764904
0.00737792
0.0078617
0.00877088
0.0104288
0.0114394
0.0121998
0.0156833
0.0213247
0.0239545
0.0219678
0.018551
0.0155626
0.0133269
0.011637
0.01069
0.0108338
0.0107748
0.0100254
0.00933756
0.00865451
0.00767378
0.00635308
0.00525586
0.00441396
0.00405901
0.00825658
0.00947764
0.00910573
0.00980926
0.0112833
0.0118631
0.0120054
0.0124221
0.0122989
0.0124433
0.0133477
0.0143456
0.0157313
0.0177528
0.0183516
0.0198855
0.0224842
0.0246632
0.0259641
0.027718
0.0270405
0.0271386
0.0268356
0.0262751
0.0247102
0.0215835
0.0200277
0.0167509
0.0165641
0.0139481
0.000610092
0.00292572
0.00794647
0.00884007
0.00869539
0.00838977
0.00808574
0.0089368
0.0111956
0.0143041
0.0170715
0.0213353
0.0274943
0.0338326
0.0413845
0.049974
0.0518815
0.0447766
0.0341313
0.0270135
0.0218585
0.0196078
0.0160474
0.0142103
0.0127515
0.00976528
0.00817471
0.00475864
0.00294035
0.000855849
4.32714e-05
0.000483222
0.00655521
0.00886632
0.0107568
0.0114841
0.0121308
0.0129626
0.0141521
0.0160242
0.017775
0.0190474
0.0187088
0.0176111
0.014466
0.0124574
0.0082285
0.00410695
0.00176184
0.00339587
0.00625525
0.00933273
0.00999349
0.00633896
0.00539883
0.00566111
0.00475837
0.00374966
0.00149987
0.000311174
2.21319e-05
5.17608e-05
0.000204178
0.000422273
0.00050013
0.000593477
0.000449484
0.000336654
0.000209827
0.000154943
0.000111027
8.90561e-05
7.44351e-05
5.70931e-05
4.55076e-05
3.67778e-05
3.05666e-05
2.70515e-05
2.46702e-05
2.28551e-05
2.05144e-05
1.79556e-05
1.55951e-05
1.42076e-05
1.22405e-05
1.00431e-05
8.96667e-06
8.00037e-06
6.4439e-06
7.09443e-06
2.44853e-07
1.12857e-07
1.62887e-06
1.59191e-06
2.07383e-06
2.42547e-06
2.42108e-06
2.39605e-06
2.31441e-06
2.20739e-06
2.25789e-06
2.31966e-06
2.52002e-06
2.68884e-06
2.88409e-06
2.96564e-06
2.94075e-06
2.83222e-06
2.64492e-06
2.25992e-06
2.13843e-06
2.13452e-06
1.79883e-06
1.61015e-06
1.53411e-06
1.5261e-06
1.27768e-06
1.40437e-06
9.64335e-07
1.21762e-06
2.80738e-07
7.81453e-08
3.42814e-07
2.73332e-07
3.74707e-07
3.74553e-07
5.36404e-07
6.64474e-07
1.12851e-06
2.12372e-06
1.06574e-05
1.66583e-06
9.29457e-06
0.000294735
0.000650987
0.000651161
0.000650973
0.000651136
0.000650961
0.000651125
0.000651015
0.000650982
0.000651142
0.000650951
0.000651138
0.000650955
0.000651142
0.000650959
0.000650869
0.000626096
0.000169907
0.000169863
0.000626444
0.000650644
0.000651119
0.000650936
0.000651124
0.00065094
0.000651128
0.000650944
0.000651126
0.000650942
0.000651115
0.000650934
0.000651103
0.000650932
0.0006511
0.000650931
0.000651106
0.000650938
0.000651118
0.00065094
0.00065112
0.00065094
0.000651118
0.000650935
0.000651117
0.000650958
0.000650794
0.000626461
0.000169866
0.0001699
0.000626226
0.000650818
0.000651117
0.000650941
0.000651123
0.000650939
0.000651119
0.000650938
0.00065112
0.000650937
0.000651112
0.000650926
0.000651102
0.000650935
0.000650936
0.000651097
0.000650924
0.000651109
0.000650931
0.000651117
0.000650937
0.000651119
0.000650936
0.000651117
0.000650934
0.000651116
0.000650758
0.000626269
0.000169897
0.000169866
0.000626423
0.000650638
0.000651121
0.000650932
0.000651124
0.000650938
0.000651132
0.00065094
0.000651131
0.000650942
0.00065112
0.000650934
0.000651107
0.000650923
0.000651098
0.000650926
0.000651101
0.000650935
0.00065112
0.000650939
0.000651124
0.000650941
0.000651121
0.000650937
0.000651117
0.00065096
0.000650793
0.00062648
0.000169866
4.25542e-05
0.000825147
0.00181378
0.00270678
0.00328257
0.00352247
0.00375934
0.00392235
0.00398239
0.00407966
0.00396542
0.00408126
0.00366115
0.000952418
0.00179743
0.00796576
0.00886754
0.00911423
0.008669
0.00845126
0.00871961
0.00913376
0.00952972
0.0105275
0.0118148
0.0126765
0.0135121
0.0171134
0.0183633
0.0193542
0.0174976
0.0142588
0.012687
0.0112606
0.0105843
0.0101421
0.0102303
0.00942314
0.00824506
0.00654219
0.00475202
0.00429601
0.00253559
0.000142322
0.00182016
0.00697673
0.0067644
0.00646051
0.00655324
0.0066116
0.00652536
0.00641373
0.00656258
0.006588
0.00637821
0.00615061
0.00609689
0.00584229
0.00574699
0.00553155
0.00528851
0.00499311
0.0047537
0.00492854
0.0049999
0.0047401
0.00451782
0.00464122
0.00513055
0.00528541
0.00516212
0.00469099
0.00442152
0.00436536
0.00327447
0.00846717
0.00793032
0.00800973
0.00791882
0.00858622
0.0100861
0.0116011
0.0122021
0.0146347
0.0213114
0.0280477
0.028778
0.0243476
0.0194421
0.0154892
0.0131923
0.0121099
0.012448
0.0135396
0.0138295
0.0133661
0.0124113
0.0110179
0.00913784
0.00781637
0.00637101
0.00603848
0.00579937
0.0167064
0.00678372
0.00986431
0.0107196
0.011246
0.0120467
0.0122359
0.0120753
0.0121349
0.0121921
0.0128098
0.0141348
0.0154113
0.0163143
0.0187634
0.0203812
0.0226556
0.0250848
0.0261788
0.0247564
0.0249272
0.023484
0.0232846
0.0233966
0.0197912
0.0182623
0.0164632
0.0186615
0.0190548
0.020949
0.00179063
0.0121334
0.0111597
0.0102199
0.00988878
0.0089718
0.00940367
0.0112746
0.0145668
0.0174064
0.0205012
0.025573
0.031981
0.0399715
0.0496611
0.0557983
0.0485638
0.0374075
0.0350911
0.0312404
0.0280203
0.0251736
0.02257
0.0196757
0.0181544
0.0164366
0.0127739
0.00955516
0.00496999
0.00260905
0.000172162
0.00069816
0.0123923
0.0124227
0.012949
0.0124942
0.0134726
0.014532
0.017073
0.0204233
0.0234069
0.0263004
0.0271563
0.0263086
0.0239333
0.0206144
0.0188066
0.0121996
0.00625876
0.00314942
0.00414442
0.00571331
0.00655478
0.00532362
0.00583358
0.00712873
0.00562536
0.00517729
0.00251841
0.000900445
6.17528e-05
0.00010693
0.000543955
0.000936881
0.00121523
0.00129534
0.00118869
0.000842581
0.000614821
0.000400909
0.000299575
0.000222992
0.00015853
0.000111349
7.45603e-05
5.49568e-05
4.4604e-05
3.82203e-05
3.33152e-05
2.97326e-05
2.75585e-05
2.42321e-05
2.05717e-05
1.80966e-05
1.66631e-05
1.35728e-05
1.13474e-05
9.63801e-06
8.98745e-06
9.30538e-06
7.53055e-07
1.24589e-07
1.70214e-06
2.51163e-06
3.1462e-06
4.06802e-06
4.18873e-06
3.98049e-06
3.57464e-06
3.36455e-06
3.10356e-06
3.00885e-06
2.91882e-06
3.04141e-06
3.18059e-06
3.22416e-06
3.21776e-06
3.18113e-06
2.92057e-06
2.75601e-06
2.43958e-06
2.02569e-06
1.86628e-06
1.72738e-06
1.46936e-06
1.4184e-06
1.42943e-06
1.10868e-06
9.86363e-07
7.95704e-07
3.01696e-07
1.14346e-07
2.55857e-07
3.16165e-07
2.63171e-07
3.29789e-07
3.3147e-07
4.44439e-07
5.48267e-07
9.09069e-07
1.64182e-06
7.67035e-06
2.7058e-06
1.00737e-05
0.000284738
0.000630675
0.000630563
0.000630657
0.000630541
0.00063063
0.000630597
0.000630574
0.000630638
0.000630538
0.000630637
0.000630536
0.000630637
0.000630533
0.000630389
0.00060697
0.000164201
0.000164205
0.000607008
0.000630256
0.000630623
0.000630512
0.000630627
0.00063052
0.00063063
0.000630526
0.00063063
0.000630526
0.000630624
0.000630516
0.000630618
0.000630514
0.000630616
0.000630516
0.00063062
0.000630519
0.000630623
0.00063052
0.00063062
0.000630511
0.000630618
0.000630511
0.000630611
0.000630539
0.000630356
0.000607039
0.000164202
0.000164198
0.000606992
0.000630381
0.000630623
0.000630527
0.000630621
0.000630518
0.000630619
0.000630519
0.000630623
0.000630518
0.000630621
0.00063051
0.000630607
0.000630549
0.000630544
0.000630603
0.000630507
0.000630617
0.000630512
0.00063062
0.000630516
0.000630616
0.000630513
0.000630611
0.000630513
0.000630612
0.000630345
0.000607009
0.000164197
0.000164206
0.000607007
0.000630259
0.000630623
0.000630509
0.000630623
0.000630517
0.000630628
0.000630523
0.000630632
0.000630524
0.000630627
0.000630514
0.000630613
0.000630506
0.000630611
0.000630507
0.000630613
0.000630515
0.000630625
0.000630524
0.000630627
0.00063052
0.000630621
0.000630516
0.00063062
0.000630543
0.000630362
0.000607063
0.000164203
4.75561e-05
0.00132733
0.00270602
0.00368815
0.00406939
0.0041734
0.00430363
0.00455381
0.00482687
0.00466881
0.00467454
0.00540305
0.0063094
0.00183881
0.00509941
0.00882579
0.00899835
0.00852116
0.00815397
0.00780049
0.00790232
0.0082233
0.00893755
0.0094429
0.00997169
0.0111599
0.0109506
0.0136474
0.0153049
0.0163823
0.014991
0.0130694
0.0118561
0.0109436
0.0101487
0.0103311
0.0106935
0.0105621
0.00975384
0.00836245
0.00696182
0.00649424
0.00435838
0.000164298
0.00322728
0.00809679
0.00726584
0.00710283
0.00672439
0.00668402
0.0064651
0.00638682
0.00618367
0.00615516
0.00624166
0.00607647
0.00580831
0.00566054
0.00551952
0.00537746
0.00517578
0.00495303
0.00491478
0.0049678
0.00482096
0.00450044
0.00437866
0.00468412
0.00537115
0.00581867
0.00613482
0.00605709
0.00610613
0.00436502
0.00309534
0.00914659
0.00871432
0.00838243
0.00857957
0.00943421
0.0110182
0.0122091
0.0128099
0.0174918
0.0266617
0.0333008
0.0323221
0.0277362
0.0231284
0.0194012
0.017108
0.0167548
0.0175432
0.0183588
0.0182238
0.0169876
0.0148882
0.0127006
0.0105143
0.00930719
0.00766652
0.00755865
0.00743809
0.0220816
0.00524657
0.011873
0.0115349
0.0123665
0.0126619
0.0126545
0.0124328
0.0118682
0.0123846
0.0127126
0.013716
0.0152301
0.0167716
0.0183141
0.0211035
0.022815
0.0257494
0.028312
0.0275619
0.0240939
0.0202083
0.0159842
0.0144066
0.0132353
0.0139713
0.0163686
0.0168071
0.0189936
0.0189398
0.00508367
0.0224122
0.0111361
0.0105857
0.0100703
0.0100911
0.0113717
0.0147676
0.0181681
0.0207514
0.024524
0.0295848
0.035964
0.0442688
0.0504397
0.0502662
0.0470647
0.0380599
0.0399366
0.0348689
0.0324507
0.028729
0.0259096
0.0233799
0.0213089
0.019473
0.0178953
0.0143797
0.0105111
0.00529656
0.00189648
0.0010323
0.0202054
0.0170202
0.0154273
0.013855
0.0150369
0.0162439
0.0199195
0.0229809
0.0266543
0.0298633
0.0309626
0.0313524
0.0286048
0.028494
0.0244742
0.0224525
0.0148061
0.00739358
0.00366583
0.00406815
0.00402246
0.00333686
0.00408888
0.004269
0.00307472
0.00223375
0.00119951
0.000505804
3.43356e-05
0.000200828
0.00133925
0.00250051
0.00324457
0.00378196
0.00293485
0.0023498
0.00154331
0.00119248
0.000803103
0.000558366
0.000410023
0.000267458
0.000163361
0.000106081
6.99117e-05
5.14785e-05
4.25455e-05
3.68992e-05
3.27682e-05
2.93819e-05
2.63446e-05
2.22238e-05
1.92408e-05
1.71552e-05
1.37773e-05
1.22167e-05
1.05858e-05
1.19187e-05
3.03721e-06
1.80422e-07
2.72394e-06
3.97833e-06
6.01678e-06
7.2258e-06
7.18173e-06
7.12758e-06
6.35241e-06
5.40037e-06
4.67735e-06
4.03342e-06
3.64385e-06
3.33983e-06
3.29829e-06
3.35223e-06
3.50497e-06
3.34673e-06
3.22475e-06
2.93627e-06
2.55235e-06
2.33805e-06
2.06134e-06
1.77007e-06
1.67567e-06
1.47008e-06
1.33338e-06
1.18172e-06
7.9084e-07
7.61588e-07
2.08646e-07
1.13751e-07
2.9106e-07
2.75739e-07
3.336e-07
2.86487e-07
3.1649e-07
3.18403e-07
4.05577e-07
5.03736e-07
8.32482e-07
1.50464e-06
7.98287e-06
2.27315e-06
1.78799e-05
0.000285559
0.000597329
0.000597359
0.000597302
0.000597328
0.000597348
0.000597315
0.000597337
0.000597272
0.000597328
0.000597268
0.000597317
0.00059727
0.000597066
0.000574383
0.000153637
0.000153642
0.000574384
0.000597003
0.000597311
0.000597258
0.000597319
0.000597267
0.000597326
0.000597274
0.000597327
0.000597274
0.000597324
0.000597276
0.000597322
0.000597281
0.00059732
0.000597279
0.000597321
0.000597272
0.000597321
0.000597265
0.000597315
0.000597257
0.000597308
0.000597251
0.000597305
0.000597276
0.000597064
0.000574438
0.000153642
0.000153633
0.000574425
0.000597096
0.000597323
0.00059726
0.000597309
0.000597257
0.000597313
0.000597262
0.000597318
0.000597265
0.000597323
0.000597268
0.000597319
0.000597301
0.000597298
0.000597315
0.00059727
0.000597319
0.000597264
0.00059732
0.00059726
0.000597312
0.000597254
0.000597302
0.000597247
0.000597305