/*--------------------------------*- C++ -*----------------------------------*\
| =========                 |                                                 |
| \\      /  F ield         | OpenFOAM: The Open Source CFD Toolbox           |
|  \\    /   O peration     | Version:  2.1.1                                 |
|   \\  /    A nd           | Web:      www.OpenFOAM.org                      |
|    \\/     M anipulation  |                                                 |
\*---------------------------------------------------------------------------*/
FoamFile
{
    version     2.0;
    format      ascii;
    class       volScalarField;
    location    "0.000050000";
    object      c;
}
// * * * * * * * * * * * * * * * * * * * * * * * * * * * * * * * * * * * * * //

dimensions      [0 0 0 0 0 0 0];

internalField   nonuniform List<scalar> 
12384
(
1.29095e-08
1.276e-08
4.47458e-11
1.15354e-13
2.38587e-16
4.18624e-19
6.52474e-22
9.25346e-25
1.19854e-27
1.44073e-30
1.62695e-33
1.71857e-36
1.68643e-39
1.47157e-42
2.27071e-61
6.28719e-62
1.18895e-64
1.40388e-67
1.28921e-70
1.00635e-73
6.98234e-77
4.41273e-80
2.58021e-83
1.41123e-86
7.27943e-90
3.56352e-93
1.66377e-96
7.43812e-100
3.19441e-103
1.32135e-106
5.27589e-110
2.03714e-113
7.61846e-117
2.76316e-120
9.73025e-124
3.33007e-127
1.10854e-130
3.59204e-134
1.13392e-137
3.49591e-141
1.05709e-144
3.1323e-148
8.97261e-152
2.06678e-155
5.8008e-172
1.53368e-172
4.45401e-176
1.55076e-179
4.39528e-183
1.06633e-186
2.2386e-190
4.0289e-194
6.29703e-198
8.71361e-202
1.09046e-205
1.25721e-209
1.35517e-213
1.38023e-217
1.33771e-221
1.23985e-225
1.1031e-229
9.45156e-234
7.82233e-238
6.27017e-242
4.88014e-246
3.69849e-250
2.73492e-254
1.9775e-258
1.40235e-262
9.93714e-267
7.23637e-271
5.19951e-275
3.28427e-279
3.21123e-284
5.85127e-309
9.16161e-307
3.23014e-310
5.88206e-314
7.96077e-318
7.90505e-322
0
0
0
0
0
0
0
0
0
0
0
0
0
0
0
0
0
0
0
0
0
0
0
0
0
0
0
0
0
0
0
0
0
0
0
0
0
0
0
0
0
0
0
0
0
0
0
0
0
0
0
0
0
0
0
0
0
0
0
0
0
0
0
0
0
0
0
0
0
0
0
0
0
0
0
0
0
0
0
0
0
0
0
0
0
0
0
0
0
0
0
0
0
0
0
0
0
0
0
0
0
0
0
0
0
0
0
0
0
0
0
0
0
0
0
0
0
0
0
0
0
0
0
0
0
0
0
0
0
0
0
0
0
0
0
0
0
0
0
0
0
0
0
0
0
0
0
0
0
0
0
0
0
0
0
0
0
0
0
0
0
0
0
0
0
0
0
0
0
0
0
0
0
0
0
0
0
0
0
0
0
0
0
0
0
0
0
0
0
0
0
0
0
0
0
0
0
0
0
0
0
0
0
0
0
0
0
0
0
0
0
0
0
0
0
0
0
0
0
0
0
0
0
0
0
0
0
0
0
0
0
0
0
0
0
0
0
0
0
0
0
0
0
0
0
0
0
0
0
0
0
0
0
0
0
0
0
0
0
0
0
0
0
0
0
0
0
0
0
0
0
0
0
0
0
0
0
0
0
0
0
0
0
0
0
0
0
0
0
0
0
0
0
0
5.67769e-06
5.16115e-06
1.27622e-08
3.13866e-11
6.60016e-14
1.18612e-16
1.88192e-19
2.76169e-22
3.89287e-25
5.23085e-28
6.61263e-31
7.79625e-34
8.40494e-37
7.74476e-40
4.52047e-58
1.20325e-58
2.28346e-61
2.69536e-64
2.47478e-67
1.93407e-70
1.35091e-73
8.64171e-77
5.13531e-80
2.86379e-83
1.51023e-86
7.57531e-90
3.63045e-93
1.66824e-96
7.37115e-100
3.13907e-103
1.2909e-106
5.13466e-110
1.97817e-113
7.39025e-117
2.68007e-120
9.44284e-124
3.23473e-127
1.07811e-130
3.50134e-134
1.11144e-137
3.45572e-141
1.05052e-144
3.08232e-148
6.38657e-152
8.4607e-167
1.01607e-167
2.02342e-171
7.09636e-175
2.10764e-178
5.21759e-182
1.11447e-185
2.04634e-189
3.25516e-193
4.56488e-197
5.76377e-201
6.68541e-205
7.24099e-209
7.41185e-213
7.22811e-217
6.75117e-221
6.06106e-225
5.24499e-229
4.38583e-233
3.55231e-237
2.79347e-241
2.13745e-245
1.5944e-249
1.16201e-253
8.32339e-258
5.92446e-262
4.20875e-266
2.93932e-270
1.92785e-274
3.1958e-279
1.11015e-303
5.92288e-302
1.99662e-305
3.75645e-309
5.26352e-313
6.17864e-317
6.39815e-321
0
0
0
0
0
0
0
0
0
0
0
0
0
0
0
0
0
0
0
0
0
0
0
0
0
0
0
0
0
0
0
0
0
0
0
0
0
0
0
0
0
0
0
0
0
0
0
0
0
0
0
0
0
0
0
0
0
0
0
0
0
0
0
0
0
0
0
0
0
0
0
0
0
0
0
0
0
0
0
0
0
0
0
0
0
0
0
0
0
0
0
0
0
0
0
0
0
0
0
0
0
0
0
0
0
0
0
0
0
0
0
0
0
0
0
0
0
0
0
0
0
0
0
0
0
0
0
0
0
0
0
0
0
0
0
0
0
0
0
0
0
0
0
0
0
0
0
0
0
0
0
0
0
0
0
0
0
0
0
0
0
0
0
0
0
0
0
0
0
0
0
0
0
0
0
0
0
0
0
0
0
0
0
0
0
0
0
0
0
0
0
0
0
0
0
0
0
0
0
0
0
0
0
0
0
0
0
0
0
0
0
0
0
0
0
0
0
0
0
0
0
0
0
0
0
0
0
0
0
0
0
0
0
0
0
0
0
0
0
0
0
0
0
0
0
0
0
0
0
0
0
0
0
0
0
0
0
0
0
0
0
0
0
0
0
0
0
0
0
0
0
0
0
0
0
0
0
0
0
0
0
0
0
0
0
0
0
0
0
0
0
0
0
0.00373137
0.00322073
1.14989e-06
2.57203e-10
1.5846e-13
2.67478e-16
1.90039e-19
3.8059e-22
1.72781e-24
7.89287e-27
2.1387e-29
3.09243e-32
3.20882e-35
5.64577e-39
8.43982e-55
2.01278e-55
3.64906e-58
4.11387e-61
3.64806e-64
2.77487e-67
1.9038e-70
1.20767e-73
7.17229e-77
4.0236e-80
2.14654e-83
1.09442e-86
5.35165e-90
2.5165e-93
1.14031e-96
4.98784e-100
2.10904e-103
8.63124e-107
3.42253e-110
1.31625e-113
4.91397e-117
1.78196e-120
6.27988e-124
2.15242e-127
7.19776e-131
2.35459e-134
7.48069e-138
2.301e-141
6.84858e-145
2.86238e-149
5.1259e-163
6.47149e-164
4.29811e-167
1.59778e-170
4.85134e-174
1.21773e-177
2.61945e-181
4.82113e-185
7.66972e-189
1.0721e-192
1.34419e-196
1.54363e-200
1.65323e-204
1.67428e-208
1.61876e-212
1.50325e-216
1.34576e-220
1.1642e-224
9.75047e-229
7.92049e-233
6.25227e-237
4.80432e-241
3.59962e-245
2.63498e-249
1.89449e-253
1.34496e-257
9.36269e-262
6.34814e-266
4.19702e-270
6.86168e-275
1.8433e-298
2.10887e-297
6.45457e-301
1.1698e-304
1.61871e-308
1.87992e-312
1.94046e-316
1.82705e-320
0
0
0
0
0
0
0
0
0
0
0
0
0
0
0
0
0
0
0
0
0
0
0
0
0
0
0
0
0
0
0
0
0
0
0
0
0
0
0
0
0
0
0
0
0
0
0
0
0
0
0
0
0
0
0
0
0
0
0
0
0
0
0
0
0
0
0
0
0
0
0
0
0
0
0
0
0
0
0
0
0
0
0
0
0
0
0
0
0
0
0
0
0
0
0
0
0
0
0
0
0
0
0
0
0
0
0
0
0
0
0
0
0
0
0
0
0
0
0
0
0
0
0
0
0
0
0
0
0
0
0
0
0
0
0
0
0
0
0
0
0
0
0
0
0
0
0
0
0
0
0
0
0
0
0
0
0
0
0
0
0
0
0
0
0
0
0
0
0
0
0
0
0
0
0
0
0
0
0
0
0
0
0
0
0
0
0
0
0
0
0
0
0
0
0
0
0
0
0
0
0
0
0
0
0
0
0
0
0
0
0
0
0
0
0
0
0
0
0
0
0
0
0
0
0
0
0
0
0
0
0
0
0
0
0
0
0
0
0
0
0
0
0
0
0
0
0
0
0
0
0
0
0
0
0
0
0
0
0
0
0
0
0
0
0
0
0
0
0
0
0
0
0
0
0
0
0
0
0
0
0
0
0
0
0
0
0
0
0
0
0
0
1
1
0.00724813
1.48728e-06
1.10031e-09
2.73432e-12
1.50205e-15
1.21203e-18
2.77146e-21
1.12739e-23
3.82389e-26
6.89866e-29
8.19868e-32
2.4515e-35
1.71326e-50
1.14053e-51
2.05431e-54
2.34434e-57
2.13448e-60
1.68448e-63
1.19944e-66
7.88234e-70
4.84809e-73
2.81656e-76
1.55546e-79
8.20307e-83
4.14529e-86
2.01251e-89
9.40667e-93
4.24034e-96
1.84614e-99
7.77275e-103
3.16822e-106
1.25147e-109
4.79499e-113
1.78353e-116
6.44525e-120
2.26456e-123
7.74122e-127
2.57634e-130
8.35285e-134
2.63972e-137
8.09102e-141
5.42361e-145
3.12921e-158
9.88173e-160
6.31075e-163
2.6145e-166
7.92833e-170
1.99912e-173
4.33285e-177
8.00661e-181
1.27756e-184
1.78766e-188
2.23627e-192
2.55248e-196
2.70893e-200
2.71516e-204
2.59985e-208
2.39624e-212
2.13531e-216
1.84412e-220
1.54575e-224
1.25894e-228
9.97495e-233
7.69978e-237
5.79976e-241
4.27029e-245
3.07882e-249
2.17734e-253
1.51275e-257
1.03399e-261
6.94396e-266
2.08163e-270
3.43871e-293
5.43391e-293
1.55038e-296
2.668e-300
3.56266e-304
4.05423e-308
4.12166e-312
3.8485e-316
3.3636e-320
0
0
0
0
0
0
0
0
0
0
0
0
0
0
0
0
0
0
0
0
0
0
0
0
0
0
0
0
0
0
0
0
0
0
0
0
0
0
0
0
0
0
0
0
0
0
0
0
0
0
0
0
0
0
0
0
0
0
0
0
0
0
0
0
0
0
0
0
0
0
0
0
0
0
0
0
0
0
0
0
0
0
0
0
0
0
0
0
0
0
0
0
0
0
0
0
0
0
0
0
0
0
0
0
0
0
0
0
0
0
0
0
0
0
0
0
0
0
0
0
0
0
0
0
0
0
0
0
0
0
0
0
0
0
0
0
0
0
0
0
0
0
0
0
0
0
0
0
0
0
0
0
0
0
0
0
0
0
0
0
0
0
0
0
0
0
0
0
0
0
0
0
0
0
0
0
0
0
0
0
0
0
0
0
0
0
0
0
0
0
0
0
0
0
0
0
0
0
0
0
0
0
0
0
0
0
0
0
0
0
0
0
0
0
0
0
0
0
0
0
0
0
0
0
0
0
0
0
0
0
0
0
0
0
0
0
0
0
0
0
0
0
0
0
0
0
0
0
0
0
0
0
0
0
0
0
0
0
0
0
0
0
0
0
0
0
0
0
0
0
0
0
0
0
0
0
0
0
0
0
0
0
0
0
0
0
0
0
0
0
0
1
1
1
0.0069842
5.65e-06
2.00866e-08
1.14656e-11
6.62753e-15
6.42522e-18
1.23529e-20
3.61824e-23
7.76726e-26
1.04049e-28
4.35178e-32
2.75497e-46
4.51157e-48
7.57999e-51
8.49423e-54
7.77713e-57
6.25132e-60
4.56657e-63
3.09118e-66
1.96254e-69
1.17805e-72
6.72356e-76
3.66363e-79
1.91188e-82
9.57897e-86
4.61695e-89
2.14437e-92
9.6112e-96
4.16237e-99
1.74373e-102
7.07361e-106
2.7812e-109
1.0608e-112
3.92824e-116
1.41337e-119
4.94452e-123
1.68305e-126
5.57769e-130
1.8008e-133
5.64257e-137
4.85044e-141
1.59697e-153
1.09037e-155
6.24124e-159
2.44385e-162
8.02591e-166
1.94992e-169
4.08784e-173
7.23452e-177
1.1022e-180
1.46625e-184
1.7358e-188
1.86708e-192
1.86164e-196
1.75094e-200
1.57498e-204
1.36805e-208
1.15429e-212
9.4889e-217
7.60932e-221
5.95544e-225
4.55072e-229
3.39708e-233
2.47964e-237
1.77194e-241
1.24132e-245
8.53747e-250
5.77314e-254
3.84344e-258
2.51623e-262
7.59915e-267
6.43277e-288
1.01638e-288
2.44056e-292
3.66847e-296
4.37709e-300
4.52208e-304
4.22359e-308
3.65679e-312
2.98245e-316
2.29642e-320
0
0
0
0
0
0
0
0
0
0
0
0
0
0
0
0
0
0
0
0
0
0
0
0
0
0
0
0
0
0
0
0
0
0
0
0
0
0
0
0
0
0
0
0
0
0
0
0
0
0
0
0
0
0
0
0
0
0
0
0
0
0
0
0
0
0
0
0
0
0
0
0
0
0
0
0
0
0
0
0
0
0
0
0
0
0
0
0
0
0
0
0
0
0
0
0
0
0
0
0
0
0
0
0
0
0
0
0
0
0
0
0
0
0
0
0
0
0
0
0
0
0
0
0
0
0
0
0
0
0
0
0
0
0
0
0
0
0
0
0
0
0
0
0
0
0
0
0
0
0
0
0
0
0
0
0
0
0
0
0
0
0
0
0
0
0
0
0
0
0
0
0
0
0
0
0
0
0
0
0
0
0
0
0
0
0
0
0
0
0
0
0
0
0
0
0
0
0
0
0
0
0
0
0
0
0
0
0
0
0
0
0
0
0
0
0
0
0
0
0
0
0
0
0
0
0
0
0
0
0
0
0
0
0
0
0
0
0
0
0
0
0
0
0
0
0
0
0
0
0
0
0
0
0
0
0
0
0
0
0
0
0
0
0
0
0
0
0
0
0
0
0
0
0
0
0
0
0
0
0
0
0
0
0
0
0
0
0
0
0
1
1
1
1
0.0124853
6.40845e-05
3.99106e-08
2.19891e-11
1.74003e-14
1.89033e-17
3.08636e-20
6.25549e-23
9.46024e-26
5.74422e-29
2.5342e-42
1.46042e-44
2.26729e-47
2.50129e-50
2.31362e-53
1.90303e-56
1.43216e-59
1.00225e-62
6.58946e-66
4.09848e-69
2.42355e-72
1.36757e-75
7.38545e-79
3.82599e-82
1.90499e-85
9.13155e-89
4.22013e-92
1.88276e-95
8.1181e-99
3.38662e-102
1.36821e-105
5.35813e-109
2.0357e-112
7.50935e-116
2.69158e-119
9.38079e-123
3.18122e-126
1.05038e-129
3.36814e-133
3.95901e-137
5.00813e-149
1.04537e-151
5.28143e-155
1.95001e-158
6.22276e-162
1.81912e-165
3.68303e-169
6.14725e-173
8.83948e-177
1.10685e-180
1.23066e-184
1.24052e-188
1.15665e-192
1.01577e-196
8.53145e-201
6.93348e-205
5.49515e-209
4.26567e-213
3.24882e-217
2.4282e-221
1.78038e-225
1.2802e-229
9.02822e-234
6.24715e-238
4.24493e-242
2.83549e-246
1.86408e-250
1.20755e-254
7.69972e-259
2.34319e-263
1.1958e-282
1.88763e-284
3.6664e-288
4.70053e-292
4.92936e-296
4.5674e-300
3.88265e-304
3.09412e-308
2.34338e-312
1.70254e-316
1.17785e-320
0
0
0
0
0
0
0
0
0
0
0
0
0
0
0
0
0
0
0
0
0
0
0
0
0
0
0
0
0
0
0
0
0
0
0
0
0
0
0
0
0
0
0
0
0
0
0
0
0
0
0
0
0
0
0
0
0
0
0
0
0
0
0
0
0
0
0
0
0
0
0
0
0
0
0
0
0
0
0
0
0
0
0
0
0
0
0
0
0
0
0
0
0
0
0
0
0
0
0
0
0
0
0
0
0
0
0
0
0
0
0
0
0
0
0
0
0
0
0
0
0
0
0
0
0
0
0
0
0
0
0
0
0
0
0
0
0
0
0
0
0
0
0
0
0
0
0
0
0
0
0
0
0
0
0
0
0
0
0
0
0
0
0
0
0
0
0
0
0
0
0
0
0
0
0
0
0
0
0
0
0
0
0
0
0
0
0
0
0
0
0
0
0
0
0
0
0
0
0
0
0
0
0
0
0
0
0
0
0
0
0
0
0
0
0
0
0
0
0
0
0
0
0
0
0
0
0
0
0
0
0
0
0
0
0
0
0
0
0
0
0
0
0
0
0
0
0
0
0
0
0
0
0
0
0
0
0
0
0
0
0
0
0
0
0
0
0
0
0
0
0
0
0
0
0
0
0
0
0
0
0
0
0
0
0
0
0
0
0
1
1
1
1
1
0.00602374
1.29144e-05
2.11203e-08
2.67135e-11
2.85281e-14
3.0013e-17
3.87099e-20
5.47958e-23
5.39625e-26
1.40727e-38
3.73086e-41
5.30863e-44
5.78458e-47
5.43122e-50
4.5922e-53
3.5748e-56
2.59561e-59
1.77282e-62
1.14576e-65
7.03764e-69
4.12217e-72
2.30868e-75
1.23911e-78
6.38538e-82
3.16456e-85
1.51051e-88
6.95331e-92
3.09054e-95
1.32779e-98
5.51983e-102
2.22245e-105
8.67436e-109
3.28478e-112
1.20777e-115
4.31514e-119
1.49916e-122
5.06796e-126
1.665e-129
3.02026e-133
1.0115e-144
8.44489e-148
3.70737e-151
1.28913e-154
4.00186e-158
1.15789e-161
3.18547e-165
4.90232e-169
6.53434e-173
7.55322e-177
7.76757e-181
7.25938e-185
6.28336e-189
5.12428e-193
3.99799e-197
3.02217e-201
2.23442e-205
1.62547e-209
1.1668e-213
8.26925e-218
5.7821e-222
3.9847e-226
2.70408e-230
1.80624e-234
1.18767e-238
7.69103e-243
4.9088e-247
3.09077e-251
1.91765e-255
5.88744e-260
2.24165e-277
3.52479e-280
5.21017e-284
5.51408e-288
4.97492e-292
4.07251e-296
3.11622e-300
2.26658e-304
1.58364e-308
1.07049e-312
7.03662e-317
4.39224e-321
0
0
0
0
0
0
0
0
0
0
0
0
0
0
0
0
0
0
0
0
0
0
0
0
0
0
0
0
0
0
0
0
0
0
0
0
0
0
0
0
0
0
0
0
0
0
0
0
0
0
0
0
0
0
0
0
0
0
0
0
0
0
0
0
0
0
0
0
0
0
0
0
0
0
0
0
0
0
0
0
0
0
0
0
0
0
0
0
0
0
0
0
0
0
0
0
0
0
0
0
0
0
0
0
0
0
0
0
0
0
0
0
0
0
0
0
0
0
0
0
0
0
0
0
0
0
0
0
0
0
0
0
0
0
0
0
0
0
0
0
0
0
0
0
0
0
0
0
0
0
0
0
0
0
0
0
0
0
0
0
0
0
0
0
0
0
0
0
0
0
0
0
0
0
0
0
0
0
0
0
0
0
0
0
0
0
0
0
0
0
0
0
0
0
0
0
0
0
0
0
0
0
0
0
0
0
0
0
0
0
0
0
0
0
0
0
0
0
0
0
0
0
0
0
0
0
0
0
0
0
0
0
0
0
0
0
0
0
0
0
0
0
0
0
0
0
0
0
0
0
0
0
0
0
0
0
0
0
0
0
0
0
0
0
0
0
0
0
0
0
0
0
0
0
0
0
0
0
0
0
0
0
0
0
0
0
0
0
1
1
1
1
1
0.00897194
2.96222e-05
7.27772e-08
1.36255e-10
2.08531e-13
2.86175e-16
4.13277e-19
6.65645e-22
8.53635e-25
3.69493e-35
5.98033e-38
7.63626e-41
8.1202e-44
7.68808e-47
6.66037e-50
5.35685e-53
4.03615e-56
2.86658e-59
1.92791e-62
1.2322e-65
7.50598e-69
4.3683e-72
2.43389e-75
1.30066e-78
6.67747e-82
3.29823e-85
1.56947e-88
7.20391e-92
3.19315e-95
1.36827e-98
5.67361e-102
2.27871e-105
8.87241e-109
3.35184e-112
1.22956e-115
4.3829e-119
1.51923e-122
5.11981e-126
1.31789e-129
1.03562e-140
4.65047e-144
1.72338e-147
5.55188e-151
1.66045e-154
4.7265e-158
1.2959e-161
3.44274e-165
4.22086e-169
4.33e-173
3.99597e-177
3.3908e-181
2.68705e-185
2.01678e-189
1.45278e-193
1.01647e-197
6.97618e-202
4.72974e-206
3.1805e-210
2.12403e-214
1.40795e-218
9.24976e-223
6.01291e-227
3.86275e-231
2.45046e-235
1.53475e-239
9.49202e-244
5.80013e-248
3.49769e-252
1.13697e-256
4.15936e-272
6.40258e-276
6.53257e-280
5.44938e-284
4.11419e-288
2.92244e-292
1.98828e-296
1.30846e-300
8.38023e-305
5.24528e-309
3.21821e-313
1.93998e-317
1.082e-321
0
0
0
0
0
0
0
0
0
0
0
0
0
0
0
0
0
0
0
0
0
0
0
0
0
0
0
0
0
0
0
0
0
0
0
0
0
0
0
0
0
0
0
0
0
0
0
0
0
0
0
0
0
0
0
0
0
0
0
0
0
0
0
0
0
0
0
0
0
0
0
0
0
0
0
0
0
0
0
0
0
0
0
0
0
0
0
0
0
0
0
0
0
0
0
0
0
0
0
0
0
0
0
0
0
0
0
0
0
0
0
0
0
0
0
0
0
0
0
0
0
0
0
0
0
0
0
0
0
0
0
0
0
0
0
0
0
0
0
0
0
0
0
0
0
0
0
0
0
0
0
0
0
0
0
0
0
0
0
0
0
0
0
0
0
0
0
0
0
0
0
0
0
0
0
0
0
0
0
0
0
0
0
0
0
0
0
0
0
0
0
0
0
0
0
0
0
0
0
0
0
0
0
0
0
0
0
0
0
0
0
0
0
0
0
0
0
0
0
0
0
0
0
0
0
0
0
0
0
0
0
0
0
0
0
0
0
0
0
0
0
0
0
0
0
0
0
0
0
0
0
0
0
0
0
0
0
0
0
0
0
0
0
0
0
0
0
0
0
0
0
0
0
0
0
0
0
0
0
0
0
0
0
0
0
0
0
1
1
1
1
1
0.0132642
6.9575e-05
2.63426e-07
7.56523e-10
1.75827e-12
3.5299e-15
6.69269e-18
1.31069e-20
2.51102e-23
3.76727e-26
4.30825e-29
5.02952e-32
6.02816e-35
6.65555e-38
6.78012e-41
6.41901e-44
5.6789e-47
4.71578e-50
3.68953e-53
2.72858e-56
1.91292e-59
1.27458e-62
8.08993e-66
4.9016e-69
2.84033e-72
1.57687e-75
8.40067e-79
4.30095e-82
2.11907e-85
1.00603e-88
4.60761e-92
2.03812e-95
8.71624e-99
3.60745e-102
1.44627e-105
5.62159e-109
2.12006e-112
7.76373e-116
2.76278e-119
9.55808e-123
3.19142e-126
8.99996e-130
2.12242e-133
5.71911e-137
1.73578e-140
5.18985e-144
1.51458e-147
4.3188e-151
1.20444e-154
3.28585e-158
8.77438e-162
2.29171e-165
1.87183e-169
1.45783e-173
1.08198e-177
7.66181e-182
5.20911e-186
3.43091e-190
2.21035e-194
1.40519e-198
8.87487e-203
5.59096e-207
3.51791e-211
2.20914e-215
1.38184e-219
8.59048e-224
5.29742e-228
3.23604e-232
1.95524e-236
1.16829e-240
6.90495e-245
4.03459e-249
2.25974e-253
6.73077e-258
4.13626e-263
1.53517e-267
9.84756e-272
6.28839e-276
3.91941e-280
2.40471e-284
1.46059e-288
8.77e-293
5.20326e-297
3.05024e-301
1.76714e-305
1.01221e-309
5.73518e-314
3.21619e-318
1.23516e-322
0
0
0
0
0
0
0
0
0
0
0
0
0
0
0
0
0
0
0
0
0
0
0
0
0
0
0
0
0
0
0
0
0
0
0
0
0
0
0
0
0
0
0
0
0
0
0
0
0
0
0
0
0
0
0
0
0
0
0
0
0
0
0
0
0
0
0
0
0
0
0
0
0
0
0
0
0
0
0
0
0
0
0
0
0
0
0
0
0
0
0
0
0
0
0
0
0
0
0
0
0
0
0
0
0
0
0
0
0
0
0
0
0
0
0
0
0
0
0
0
0
0
0
0
0
0
0
0
0
0
0
0
0
0
0
0
0
0
0
0
0
0
0
0
0
0
0
0
0
0
0
0
0
0
0
0
0
0
0
0
0
0
0
0
0
0
0
0
0
0
0
0
0
0
0
0
0
0
0
0
0
0
0
0
0
0
0
0
0
0
0
0
0
0
0
0
0
0
0
0
0
0
0
0
0
0
0
0
0
0
0
0
0
0
0
0
0
0
0
0
0
0
0
0
0
0
0
0
0
0
0
0
0
0
0
0
0
0
0
0
0
0
0
0
0
0
0
0
0
0
0
0
0
0
0
0
0
0
0
0
0
0
0
0
0
0
0
0
0
0
0
0
0
0
0
0
0
0
0
0
0
0
0
0
0
0
0
0
0
0
0
0
0
0
0
0
0
0
0
0
0
0
0
0
0
0
1
1
1
1
1
0.0146695
9.10923e-05
3.97564e-07
1.31765e-09
3.53361e-12
8.07167e-15
1.67329e-17
3.4049e-20
6.7112e-23
1.20706e-25
1.94725e-28
2.79727e-31
3.68705e-34
4.57863e-37
5.30906e-40
5.72287e-43
5.74451e-46
5.37531e-49
4.70696e-52
3.88029e-55
3.02348e-58
2.23377e-61
1.56902e-64
1.0503e-67
6.7146e-71
4.10759e-74
2.40866e-77
1.35605e-80
7.34043e-84
3.82556e-87
1.92191e-90
9.31822e-94
4.36472e-97
1.97713e-100
8.66909e-104
3.68258e-107
1.51192e-110
5.99462e-114
2.30187e-117
8.51484e-121
2.99378e-124
1.02338e-127
3.45142e-131
1.11467e-134
3.50984e-138
1.1071e-141
3.45987e-145
1.06692e-148
3.24951e-152
9.70076e-156
2.8197e-159
7.99132e-163
2.17851e-166
1.55701e-170
1.05123e-174
6.72884e-179
4.13467e-183
2.48011e-187
1.47679e-191
8.84267e-196
5.35844e-200
3.2851e-204
2.02781e-208
1.25239e-212
7.69562e-217
4.68627e-221
2.82188e-225
1.67897e-229
9.69854e-234
5.3937e-238
2.92558e-242
1.514e-246
7.04672e-251
3.26683e-255
1.60871e-259
7.34798e-264
3.3392e-268
1.68144e-272
8.86775e-277
4.80349e-281
2.69689e-285
1.53632e-289
8.66059e-294
4.83085e-298
2.66712e-302
1.45823e-306
7.90003e-311
4.24333e-315
2.25946e-319
0
0
0
0
0
0
0
0
0
0
0
0
0
0
0
0
0
0
0
0
0
0
0
0
0
0
0
0
0
0
0
0
0
0
0
0
0
0
0
0
0
0
0
0
0
0
0
0
0
0
0
0
0
0
0
0
0
0
0
0
0
0
0
0
0
0
0
0
0
0
0
0
0
0
0
0
0
0
0
0
0
0
0
0
0
0
0
0
0
0
0
0
0
0
0
0
0
0
0
0
0
0
0
0
0
0
0
0
0
0
0
0
0
0
0
0
0
0
0
0
0
0
0
0
0
0
0
0
0
0
0
0
0
0
0
0
0
0
0
0
0
0
0
0
0
0
0
0
0
0
0
0
0
0
0
0
0
0
0
0
0
0
0
0
0
0
0
0
0
0
0
0
0
0
0
0
0
0
0
0
0
0
0
0
0
0
0
0
0
0
0
0
0
0
0
0
0
0
0
0
0
0
0
0
0
0
0
0
0
0
0
0
0
0
0
0
0
0
0
0
0
0
0
0
0
0
0
0
0
0
0
0
0
0
0
0
0
0
0
0
0
0
0
0
0
0
0
0
0
0
0
0
0
0
0
0
0
0
0
0
0
0
0
0
0
0
0
0
0
0
0
0
0
0
0
0
0
0
0
0
0
0
0
0
0
0
0
0
0
0
0
0
0
0
0
0
0
0
0
0
0
0
0
0
0
0
1
1
1
1
0.0224313
0.000370146
1.55455e-06
5.23002e-09
1.48342e-11
3.66366e-14
8.29831e-17
1.86364e-19
4.01649e-22
7.63892e-25
1.28023e-27
1.93556e-30
2.67105e-33
3.4215e-36
4.12069e-39
4.72271e-42
5.14433e-45
5.22859e-48
4.92906e-51
4.34058e-54
3.59206e-57
2.80675e-60
2.07872e-63
1.46386e-66
9.82831e-70
6.30576e-73
3.87387e-76
2.28282e-79
1.29241e-82
7.0397e-86
3.69397e-89
1.86955e-92
9.13618e-96
4.31537e-99
1.97203e-102
8.72648e-106
3.74247e-109
1.55625e-112
6.21634e-116
2.3638e-119
8.62352e-123
3.03354e-126
1.02992e-129
3.3911e-133
1.09003e-136
3.44615e-140
1.07464e-143
3.34301e-147
1.04797e-150
3.2599e-154
9.91012e-158
2.94242e-161
8.53263e-165
6.63841e-169
5.04519e-173
3.72786e-177
2.67009e-181
1.85235e-185
1.24596e-189
8.14598e-194
5.19481e-198
3.24492e-202
1.99425e-206
1.21103e-210
7.2932e-215
4.36762e-219
2.60513e-223
1.54851e-227
9.17019e-232
5.3982e-236
3.0128e-240
1.51757e-244
7.12385e-249
3.20282e-253
1.37877e-257
5.80743e-262
2.46276e-266
1.07875e-270
4.90637e-275
2.40872e-279
1.32056e-283
7.61712e-288
4.37739e-292
2.49961e-296
1.41809e-300
7.99043e-305
4.47037e-309
2.48285e-313
1.36886e-317
6.42285e-322
0
0
0
0
0
0
0
0
0
0
0
0
0
0
0
0
0
0
0
0
0
0
0
0
0
0
0
0
0
0
0
0
0
0
0
0
0
0
0
0
0
0
0
0
0
0
0
0
0
0
0
0
0
0
0
0
0
0
0
0
0
0
0
0
0
0
0
0
0
0
0
0
0
0
0
0
0
0
0
0
0
0
0
0
0
0
0
0
0
0
0
0
0
0
0
0
0
0
0
0
0
0
0
0
0
0
0
0
0
0
0
0
0
0
0
0
0
0
0
0
0
0
0
0
0
0
0
0
0
0
0
0
0
0
0
0
0
0
0
0
0
0
0
0
0
0
0
0
0
0
0
0
0
0
0
0
0
0
0
0
0
0
0
0
0
0
0
0
0
0
0
0
0
0
0
0
0
0
0
0
0
0
0
0
0
0
0
0
0
0
0
0
0
0
0
0
0
0
0
0
0
0
0
0
0
0
0
0
0
0
0
0
0
0
0
0
0
0
0
0
0
0
0
0
0
0
0
0
0
0
0
0
0
0
0
0
0
0
0
0
0
0
0
0
0
0
0
0
0
0
0
0
0
0
0
0
0
0
0
0
0
0
0
0
0
0
0
0
0
0
0
0
0
0
0
0
0
0
0
0
0
0
0
0
0
0
0
0
0
0
0
0
0
0
0
0
0
0
0
0
0
0
0
0
0
0
1
1
1
0.0204488
0.000190044
1.67243e-06
7.09291e-09
2.31628e-11
6.73559e-14
1.76045e-16
4.3165e-19
1.03189e-21
2.19723e-24
4.00017e-27
6.37177e-30
9.17584e-33
1.23112e-35
1.54739e-38
1.80901e-41
1.97646e-44
2.02451e-47
1.94264e-50
1.75067e-53
1.48635e-56
1.19266e-59
9.07175e-63
6.55884e-66
4.51849e-69
2.97266e-72
1.87128e-75
1.12914e-78
6.5413e-82
3.64353e-85
1.95389e-88
1.01002e-91
5.0385e-95
2.42815e-98
1.13156e-101
5.10399e-105
2.23022e-108
9.44807e-112
3.88347e-115
1.54668e-118
5.96946e-122
2.23586e-125
8.07575e-129
2.78185e-132
9.22765e-136
3.03155e-139
9.92251e-143
3.18998e-146
1.00237e-149
3.08305e-153
9.27574e-157
2.73037e-160
7.865e-164
1.9656e-167
1.20085e-171
7.20485e-176
4.50531e-180
2.97219e-184
2.02652e-188
1.3914e-192
9.45451e-197
6.30755e-201
4.12396e-205
2.64598e-209
1.67056e-213
1.04105e-217
6.42121e-222
3.92861e-226
2.38751e-230
1.44221e-234
8.65984e-239
5.15164e-243
3.02915e-247
1.76092e-251
9.87313e-256
5.08603e-260
2.47135e-264
1.26196e-268
6.92887e-273
3.8783e-277
2.15662e-281
1.19239e-285
6.55555e-290
3.58399e-294
1.94851e-298
1.05349e-302
5.66448e-307
3.02906e-311
1.61099e-315
8.53548e-320
0
0
0
0
0
0
0
0
0
0
0
0
0
0
0
0
0
0
0
0
0
0
0
0
0
0
0
0
0
0
0
0
0
0
0
0
0
0
0
0
0
0
0
0
0
0
0
0
0
0
0
0
0
0
0
0
0
0
0
0
0
0
0
0
0
0
0
0
0
0
0
0
0
0
0
0
0
0
0
0
0
0
0
0
0
0
0
0
0
0
0
0
0
0
0
0
0
0
0
0
0
0
0
0
0
0
0
0
0
0
0
0
0
0
0
0
0
0
0
0
0
0
0
0
0
0
0
0
0
0
0
0
0
0
0
0
0
0
0
0
0
0
0
0
0
0
0
0
0
0
0
0
0
0
0
0
0
0
0
0
0
0
0
0
0
0
0
0
0
0
0
0
0
0
0
0
0
0
0
0
0
0
0
0
0
0
0
0
0
0
0
0
0
0
0
0
0
0
0
0
0
0
0
0
0
0
0
0
0
0
0
0
0
0
0
0
0
0
0
0
0
0
0
0
0
0
0
0
0
0
0
0
0
0
0
0
0
0
0
0
0
0
0
0
0
0
0
0
0
0
0
0
0
0
0
0
0
0
0
0
0
0
0
0
0
0
0
0
0
0
0
0
0
0
0
0
0
0
0
0
0
0
0
0
0
0
0
0
0
0
0
0
0
0
0
0
0
0
0
0
0
0
0
0
0
0
0
1
1
0.0211271
0.000166922
1.01532e-06
5.71925e-09
2.15735e-11
6.69553e-14
1.9698e-16
5.42954e-19
1.46772e-21
3.53859e-24
7.08991e-27
1.22471e-29
1.87774e-32
2.61605e-35
3.37011e-38
4.02956e-41
4.48153e-44
4.65995e-47
4.54648e-50
4.17244e-53
3.61093e-56
2.95446e-59
2.29126e-62
1.68838e-65
1.18486e-68
7.93568e-72
5.08239e-75
3.11811e-78
1.83552e-81
1.03829e-84
5.65151e-88
2.96376e-91
1.4992e-94
7.32298e-98
3.45754e-101
1.57947e-104
6.98723e-108
2.99581e-111
1.2459e-114
5.02966e-118
1.97198e-121
7.51186e-125
2.78151e-128
9.99147e-132
3.47224e-135
1.17208e-138
3.86771e-142
1.24867e-145
3.93948e-149
1.21505e-152
3.66542e-156
1.08186e-159
3.1251e-163
8.52658e-167
6.96193e-171
5.04306e-175
3.47183e-179
2.38611e-183
1.67139e-187
1.18967e-191
8.49223e-196
6.00479e-200
4.1746e-204
2.84527e-208
1.90151e-212
1.24834e-216
8.07051e-221
5.15095e-225
3.25252e-229
2.0351e-233
1.26303e-237
7.77878e-242
4.75382e-246
2.88163e-250
1.7319e-254
1.02891e-258
6.01724e-263
3.47066e-267
1.98465e-271
1.12763e-275
6.36619e-280
3.57172e-284
1.99171e-288
1.10404e-292
6.08416e-297
3.33357e-301
1.8161e-305
9.83805e-310
5.2995e-314
2.83861e-318
5.92879e-323
0
0
0
0
0
0
0
0
0
0
0
0
0
0
0
0
0
0
0
0
0
0
0
0
0
0
0
0
0
0
0
0
0
0
0
0
0
0
0
0
0
0
0
0
0
0
0
0
0
0
0
0
0
0
0
0
0
0
0
0
0
0
0
0
0
0
0
0
0
0
0
0
0
0
0
0
0
0
0
0
0
0
0
0
0
0
0
0
0
0
0
0
0
0
0
0
0
0
0
0
0
0
0
0
0
0
0
0
0
0
0
0
0
0
0
0
0
0
0
0
0
0
0
0
0
0
0
0
0
0
0
0
0
0
0
0
0
0
0
0
0
0
0
0
0
0
0
0
0
0
0
0
0
0
0
0
0
0
0
0
0
0
0
0
0
0
0
0
0
0
0
0
0
0
0
0
0
0
0
0
0
0
0
0
0
0
0
0
0
0
0
0
0
0
0
0
0
0
0
0
0
0
0
0
0
0
0
0
0
0
0
0
0
0
0
0
0
0
0
0
0
0
0
0
0
0
0
0
0
0
0
0
0
0
0
0
0
0
0
0
0
0
0
0
0
0
0
0
0
0
0
0
0
0
0
0
0
0
0
0
0
0
0
0
0
0
0
0
0
0
0
0
0
0
0
0
0
0
0
0
0
0
0
0
0
0
0
0
0
0
0
0
0
0
0
0
0
0
0
0
0
0
0
0
0
0
0
0.0152019
0.0139279
0.000244952
1.03392e-06
4.14158e-09
1.62441e-11
5.27572e-14
1.5469e-16
4.53934e-19
1.36101e-21
3.9038e-24
9.01335e-27
1.71083e-29
2.82728e-32
4.17699e-35
5.6106e-38
6.93696e-41
7.95009e-44
8.48787e-47
8.48079e-50
7.95988e-53
7.03954e-56
5.88219e-59
4.65583e-62
3.49912e-65
2.50269e-68
1.70708e-71
1.11262e-74
6.94179e-78
4.15285e-81
2.38581e-84
1.31811e-87
7.01225e-91
3.59649e-94
1.78034e-97
8.51504e-101
3.93871e-104
1.76362e-107
7.65096e-111
3.21842e-114
1.31377e-117
5.2079e-121
2.00617e-124
7.51431e-128
2.73821e-131
9.7091e-135
3.34881e-138
1.12404e-141
3.67656e-145
1.17321e-148
3.65512e-152
1.11249e-155
3.30992e-159
9.63111e-163
2.70644e-166
2.51397e-170
2.11889e-174
1.64642e-178
1.22346e-182
8.98067e-187
6.62296e-191
4.91305e-195
3.63841e-199
2.66607e-203
1.921e-207
1.35716e-211
9.39892e-216
6.38919e-220
4.27206e-224
2.8159e-228
1.83337e-232
1.1809e-236
7.53295e-241
4.76178e-245
2.98354e-249
1.8529e-253
1.14047e-257
6.95471e-262
4.1995e-266
2.51038e-270
1.48604e-274
8.71526e-279
5.0662e-283
2.92027e-287
1.66984e-291
9.47524e-296
5.33707e-300
2.98485e-304
1.65785e-308
9.14629e-313
5.01287e-317
2.67784e-321
0
0
0
0
0
0
0
0
0
0
0
0
0
0
0
0
0
0
0
0
0
0
0
0
0
0
0
0
0
0
0
0
0
0
0
0
0
0
0
0
0
0
0
0
0
0
0
0
0
0
0
0
0
0
0
0
0
0
0
0
0
0
0
0
0
0
0
0
0
0
0
0
0
0
0
0
0
0
0
0
0
0
0
0
0
0
0
0
0
0
0
0
0
0
0
0
0
0
0
0
0
0
0
0
0
0
0
0
0
0
0
0
0
0
0
0
0
0
0
0
0
0
0
0
0
0
0
0
0
0
0
0
0
0
0
0
0
0
0
0
0
0
0
0
0
0
0
0
0
0
0
0
0
0
0
0
0
0
0
0
0
0
0
0
0
0
0
0
0
0
0
0
0
0
0
0
0
0
0
0
0
0
0
0
0
0
0
0
0
0
0
0
0
0
0
0
0
0
0
0
0
0
0
0
0
0
0
0
0
0
0
0
0
0
0
0
0
0
0
0
0
0
0
0
0
0
0
0
0
0
0
0
0
0
0
0
0
0
0
0
0
0
0
0
0
0
0
0
0
0
0
0
0
0
0
0
0
0
0
0
0
0
0
0
0
0
0
0
0
0
0
0
0
0
0
0
0
0
0
0
0
0
0
0
0
0
0
0
0
0
0
0
0
0
0
0
0
0
0
0
0
0
0
0
0
0
0
0
7.34686e-05
7.24454e-05
8.43984e-07
3.66248e-09
1.26529e-11
3.98912e-14
1.12958e-16
3.12749e-19
9.54498e-22
3.18253e-24
8.88525e-27
1.91822e-29
3.47176e-32
5.50867e-35
7.84498e-38
1.01755e-40
1.21464e-43
1.34412e-46
1.38661e-49
1.33971e-52
1.21699e-55
1.04279e-58
8.45247e-62
6.49786e-65
4.74879e-68
3.30648e-71
2.19784e-74
1.39727e-77
8.5106e-81
4.97424e-84
2.79392e-87
1.51011e-90
7.86423e-94
3.9506e-97
1.91647e-100
8.98703e-104
4.07773e-107
1.79184e-110
7.63177e-114
3.15314e-117
1.26469e-120
4.92778e-124
1.86657e-127
6.87761e-131
2.46653e-134
8.61412e-138
2.93065e-141
9.71624e-145
3.1408e-148
9.90518e-152
3.0495e-155
9.17053e-159
2.69525e-162
7.70892e-166
7.537e-170
6.91738e-174
5.90156e-178
4.74013e-182
3.6719e-186
2.80588e-190
2.14258e-194
1.63796e-198
1.24716e-202
9.39232e-207
6.95889e-211
5.05853e-215
3.6058e-219
2.52282e-223
1.73549e-227
1.17611e-231
7.86565e-236
5.19879e-240
3.39931e-244
2.20026e-248
1.41023e-252
8.95128e-257
5.62691e-261
3.50293e-265
2.15949e-269
1.31837e-273
7.97137e-278
4.77452e-282
2.83363e-286
1.66688e-290
9.72181e-295
5.62343e-299
3.22691e-303
1.83744e-307
1.03842e-311
5.82568e-316
3.24255e-320
0
0
0
0
0
0
0
0
0
0
0
0
0
0
0
0
0
0
0
0
0
0
0
0
0
0
0
0
0
0
0
0
0
0
0
0
0
0
0
0
0
0
0
0
0
0
0
0
0
0
0
0
0
0
0
0
0
0
0
0
0
0
0
0
0
0
0
0
0
0
0
0
0
0
0
0
0
0
0
0
0
0
0
0
0
0
0
0
0
0
0
0
0
0
0
0
0
0
0
0
0
0
0
0
0
0
0
0
0
0
0
0
0
0
0
0
0
0
0
0
0
0
0
0
0
0
0
0
0
0
0
0
0
0
0
0
0
0
0
0
0
0
0
0
0
0
0
0
0
0
0
0
0
0
0
0
0
0
0
0
0
0
0
0
0
0
0
0
0
0
0
0
0
0
0
0
0
0
0
0
0
0
0
0
0
0
0
0
0
0
0
0
0
0
0
0
0
0
0
0
0
0
0
0
0
0
0
0
0
0
0
0
0
0
0
0
0
0
0
0
0
0
0
0
0
0
0
0
0
0
0
0
0
0
0
0
0
0
0
0
0
0
0
0
0
0
0
0
0
0
0
0
0
0
0
0
0
0
0
0
0
0
0
0
0
0
0
0
0
0
0
0
0
0
0
0
0
0
0
0
0
0
0
0
0
0
0
0
0
0
0
0
0
0
0
0
0
0
0
0
0
0
0
0
0
0
0
0
0
2.76947e-07
2.77272e-07
2.42026e-09
9.90488e-12
3.09234e-14
8.46462e-17
2.13777e-19
5.55744e-22
1.67937e-24
5.24306e-27
1.27099e-29
2.48828e-32
4.17266e-35
6.19723e-38
8.31138e-41
1.01933e-43
1.15362e-46
1.21303e-49
1.19143e-52
1.09796e-55
9.5289e-59
7.81303e-62
6.06919e-65
4.47782e-68
3.145e-71
2.10719e-74
1.34944e-77
8.27451e-81
4.86608e-84
2.74866e-87
1.4934e-90
7.81451e-94
3.94298e-97
1.92057e-100
9.04004e-104
4.11598e-107
1.81442e-110
7.75066e-114
3.21094e-117
1.29108e-120
5.04217e-124
1.91393e-127
7.06588e-131
2.53866e-134
8.88168e-138
3.02739e-141
1.00579e-144
3.25814e-148
1.02956e-151
3.17532e-155
9.56345e-159
2.81431e-162
8.05178e-166
3.62866e-170
3.11229e-174
2.69796e-178
2.2074e-182
1.73208e-186
1.33427e-190
1.02498e-194
7.88514e-199
6.04916e-203
4.59503e-207
3.43564e-211
2.52002e-215
1.8117e-219
1.27758e-223
8.8518e-228
6.03762e-232
4.06161e-236
2.69893e-240
1.77348e-244
1.15321e-248
7.42338e-253
4.73127e-257
2.98576e-261
1.86569e-265
1.15436e-269
7.07252e-274
4.29118e-278
2.57881e-282
1.53537e-286
9.05914e-291
5.29872e-295
3.07326e-299
1.76805e-303
1.00918e-307
5.71639e-312
3.21395e-316
1.78704e-320
0
0
0
0
0
0
0
0
0
0
0
0
0
0
0
0
0
0
0
0
0
0
0
0
0
0
0
0
0
0
0
0
0
0
0
0
0
0
0
0
0
0
0
0
0
0
0
0
0
0
0
0
0
0
0
0
0
0
0
0
0
0
0
0
0
0
0
0
0
0
0
0
0
0
0
0
0
0
0
0
0
0
0
0
0
0
0
0
0
0
0
0
0
0
0
0
0
0
0
0
0
0
0
0
0
0
0
0
0
0
0
0
0
0
0
0
0
0
0
0
0
0
0
0
0
0
0
0
0
0
0
0
0
0
0
0
0
0
0
0
0
0
0
0
0
0
0
0
0
0
0
0
0
0
0
0
0
0
0
0
0
0
0
0
0
0
0
0
0
0
0
0
0
0
0
0
0
0
0
0
0
0
0
0
0
0
0
0
0
0
0
0
0
0
0
0
0
0
0
0
0
0
0
0
0
0
0
0
0
0
0
0
0
0
0
0
0
0
0
0
0
0
0
0
0
0
0
0
0
0
0
0
0
0
0
0
0
0
0
0
0
0
0
0
0
0
0
0
0
0
0
0
0
0
0
0
0
0
0
0
0
0
0
0
0
0
0
0
0
0
0
0
0
0
0
0
0
0
0
0
0
0
0
0
0
0
0
0
0
0
0
0
0
0
0
0
0
0
0
0
0
0
0
0
0
0
0
0
0
0
1.29063e-08
1.27616e-08
4.47472e-11
1.15355e-13
2.38588e-16
4.18623e-19
6.52471e-22
9.25342e-25
1.19853e-27
1.44073e-30
1.62695e-33
1.71859e-36
1.68646e-39
1.4716e-42
2.27092e-61
6.28667e-62
1.18888e-64
1.40383e-67
1.28919e-70
1.00636e-73
6.98254e-77
4.41296e-80
2.58041e-83
1.41138e-86
7.28038e-90
3.56408e-93
1.66408e-96
7.43977e-100
3.19522e-103
1.32173e-106
5.27762e-110
2.03789e-113
7.62158e-117
2.76441e-120
9.7351e-124
3.33189e-127
1.1092e-130
3.59436e-134
1.13471e-137
3.49855e-141
1.05795e-144
3.13502e-148
8.98094e-152
2.06879e-155
5.82778e-172
1.53429e-172
4.45846e-176
1.55265e-179
4.40348e-183
1.06858e-186
2.24303e-190
4.03605e-194
6.30742e-198
8.7278e-202
1.09229e-205
1.25945e-209
1.35775e-213
1.38304e-217
1.34062e-221
1.24273e-225
1.10583e-229
9.47648e-234
7.84434e-238
6.289e-242
4.8958e-246
3.71115e-250
2.7449e-254
1.98519e-258
1.40815e-262
9.98065e-267
7.26987e-271
5.22491e-275
3.30117e-279
3.22836e-284
5.89096e-309
9.2162e-307
3.25022e-310
5.92021e-314
8.01471e-318
7.90505e-322
0
0
0
0
0
0
0
0
0
0
0
0
0
0
0
0
0
0
0
0
0
0
0
0
0
0
0
0
0
0
0
0
0
0
0
0
0
0
0
0
0
0
0
0
0
0
0
0
0
0
0
0
0
0
0
0
0
0
0
0
0
0
0
0
0
0
0
0
0
0
0
0
0
0
0
0
0
0
0
0
0
0
0
0
0
0
0
0
0
0
0
0
0
0
0
0
0
0
0
0
0
0
0
0
0
0
0
0
0
0
0
0
0
0
0
0
0
0
0
0
0
0
0
0
0
0
0
0
0
0
0
0
0
0
0
0
0
0
0
0
0
0
0
0
0
0
0
0
0
0
0
0
0
0
0
0
0
0
0
0
0
0
0
0
0
0
0
0
0
0
0
0
0
0
0
0
0
0
0
0
0
0
0
0
0
0
0
0
0
0
0
0
0
0
0
0
0
0
0
0
0
0
0
0
0
0
0
0
0
0
0
0
0
0
0
0
0
0
0
0
0
0
0
0
0
0
0
0
0
0
0
0
0
0
0
0
0
0
0
0
0
0
0
0
0
0
0
0
0
0
0
0
0
0
0
0
0
0
0
0
0
0
0
0
0
0
0
0
0
0
0
0
0
0
0
0
0
0
0
0
0
0
0
0
0
0
0
0
0
0
0
0
0
0
5.67383e-06
5.16176e-06
1.27641e-08
3.13883e-11
6.60025e-14
1.18612e-16
1.88192e-19
2.76167e-22
3.89286e-25
5.23085e-28
6.61265e-31
7.79632e-34
8.40507e-37
7.74494e-40
4.52086e-58
1.20316e-58
2.28334e-61
2.69527e-64
2.47476e-67
1.9341e-70
1.35096e-73
8.64224e-77
5.13576e-80
2.86411e-83
1.51044e-86
7.5766e-90
3.63117e-93
1.66863e-96
7.37312e-100
3.14002e-103
1.29134e-106
5.13661e-110
1.979e-113
7.39368e-117
2.68144e-120
9.44808e-124
3.23668e-127
1.07882e-130
3.50382e-134
1.11229e-137
3.45854e-141
1.05143e-144
3.0852e-148
6.39277e-152
8.49325e-167
1.01635e-167
2.02538e-171
7.10501e-175
2.11127e-178
5.22812e-182
1.11666e-185
2.05002e-189
3.26058e-193
4.5723e-197
5.77336e-201
6.69716e-205
7.25463e-209
7.42684e-213
7.24378e-217
6.7668e-221