/*--------------------------------*- C++ -*----------------------------------*\
| =========                 |                                                 |
| \\      /  F ield         | OpenFOAM: The Open Source CFD Toolbox           |
|  \\    /   O peration     | Version:  2.1.1                                 |
|   \\  /    A nd           | Web:      www.OpenFOAM.org                      |
|    \\/     M anipulation  |                                                 |
\*---------------------------------------------------------------------------*/
FoamFile
{
    version     2.0;
    format      ascii;
    class       volVectorField;
    location    "0.000050000";
    object      U;
}
// * * * * * * * * * * * * * * * * * * * * * * * * * * * * * * * * * * * * * //

dimensions      [0 1 -1 0 0 0 0];

internalField   nonuniform List<vector> 
12384
(
(-0.763871 2.20589 0)
(-2.52651 2.17543 0)
(-3.46764 1.73455 0)
(-3.17429 1.56174 0)
(-2.18941 1.19107 0)
(-0.940208 0.601382 0)
(-0.0769017 0.086666 0)
(0.021546 -0.0220192 0)
(0.0169166 -0.0147392 0)
(0.00301131 -0.00918419 0)
(-0.00272187 -0.00595747 0)
(-0.00344235 -0.00435674 0)
(-0.00144261 -0.00529904 0)
(-0.000725988 -0.00478818 0)
(0.000755623 -0.00483667 0)
(0.00160209 -0.00546555 0)
(0.00342034 -0.00443061 0)
(0.0031587 -0.00564711 0)
(0.00209106 -0.00610246 0)
(0.00103234 -0.00621116 0)
(0.00027566 -0.00653697 0)
(8.54145e-06 -0.0067463 0)
(-3.10188e-05 -0.00680692 0)
(-1.86472e-05 -0.0068082 0)
(-4.73127e-06 -0.00680822 0)
(6.78289e-07 -0.00681011 0)
(4.85205e-07 -0.00681029 0)
(1.12461e-07 -0.00681039 0)
(2.98388e-09 -0.00681045 0)
(-2.95798e-09 -0.00681045 0)
(-1.12463e-07 -0.00681039 0)
(-4.8515e-07 -0.00681029 0)
(-6.78279e-07 -0.00681011 0)
(4.73126e-06 -0.00680822 0)
(1.8647e-05 -0.0068082 0)
(3.1019e-05 -0.00680692 0)
(-8.54144e-06 -0.0067463 0)
(-0.00027566 -0.00653697 0)
(-0.00103234 -0.00621116 0)
(-0.00209106 -0.00610246 0)
(-0.0031587 -0.00564711 0)
(-0.00342034 -0.00443061 0)
(-0.00160209 -0.00546555 0)
(-0.000755624 -0.00483667 0)
(0.000755624 -0.00483667 0)
(0.00160209 -0.00546555 0)
(0.00342034 -0.00443061 0)
(0.0031587 -0.00564711 0)
(0.00209106 -0.00610246 0)
(0.00103234 -0.00621116 0)
(0.00027566 -0.00653697 0)
(8.54143e-06 -0.0067463 0)
(-3.10187e-05 -0.00680692 0)
(-1.86472e-05 -0.0068082 0)
(-4.73124e-06 -0.00680822 0)
(6.78191e-07 -0.00681011 0)
(4.85346e-07 -0.00681029 0)
(1.12544e-07 -0.00681039 0)
(2.80909e-09 -0.00681045 0)
(-2.96569e-09 -0.00681045 0)
(-1.12491e-07 -0.00681039 0)
(-4.85304e-07 -0.00681029 0)
(-6.78211e-07 -0.00681011 0)
(4.73119e-06 -0.00680822 0)
(1.86469e-05 -0.0068082 0)
(3.10192e-05 -0.00680692 0)
(-8.54143e-06 -0.0067463 0)
(-0.00027566 -0.00653697 0)
(-0.00103234 -0.00621116 0)
(-0.00209106 -0.00610246 0)
(-0.0031587 -0.00564711 0)
(-0.00342034 -0.00443061 0)
(-0.00160209 -0.00546555 0)
(-0.000755624 -0.00483667 0)
(0.000755623 -0.00483667 0)
(0.00160209 -0.00546555 0)
(0.00342034 -0.00443061 0)
(0.0031587 -0.00564711 0)
(0.00209106 -0.00610246 0)
(0.00103234 -0.00621116 0)
(0.00027566 -0.00653697 0)
(8.54124e-06 -0.0067463 0)
(-3.10184e-05 -0.00680692 0)
(-1.86472e-05 -0.0068082 0)
(-4.73126e-06 -0.00680822 0)
(6.78207e-07 -0.00681011 0)
(4.85374e-07 -0.00681029 0)
(1.12555e-07 -0.00681039 0)
(2.76418e-09 -0.00681045 0)
(-2.80735e-09 -0.00681045 0)
(-1.12581e-07 -0.00681039 0)
(-4.85563e-07 -0.00681029 0)
(-6.78071e-07 -0.00681011 0)
(4.7313e-06 -0.00680822 0)
(1.86468e-05 -0.0068082 0)
(3.10192e-05 -0.00680692 0)
(-8.54126e-06 -0.0067463 0)
(-0.000275661 -0.00653697 0)
(-0.00103234 -0.00621116 0)
(-0.00209106 -0.00610246 0)
(-0.0031587 -0.00564711 0)
(-0.00342034 -0.00443061 0)
(-0.00160209 -0.00546555 0)
(-0.000755624 -0.00483667 0)
(0.000755623 -0.00483667 0)
(0.00160209 -0.00546555 0)
(0.00342034 -0.00443061 0)
(0.0031587 -0.00564711 0)
(0.00209106 -0.00610246 0)
(0.00103234 -0.00621116 0)
(0.00027566 -0.00653697 0)
(8.54146e-06 -0.0067463 0)
(-3.1019e-05 -0.00680692 0)
(-1.86469e-05 -0.0068082 0)
(-4.73141e-06 -0.00680822 0)
(6.78786e-07 -0.00681011 0)
(4.85105e-07 -0.00681029 0)
(1.12382e-07 -0.00681039 0)
(2.8721e-09 -0.00681045 0)
(-3.09725e-09 -0.00681045 0)
(-1.12787e-07 -0.00681039 0)
(-4.85136e-07 -0.00681029 0)
(-6.78521e-07 -0.00681011 0)
(4.73178e-06 -0.00680822 0)
(1.86473e-05 -0.0068082 0)
(3.10186e-05 -0.00680692 0)
(-8.54148e-06 -0.0067463 0)
(-0.00027566 -0.00653697 0)
(-0.00103234 -0.00621116 0)
(-0.00209106 -0.00610246 0)
(-0.0031587 -0.00564711 0)
(-0.00342034 -0.00443061 0)
(-0.00160209 -0.00546555 0)
(-0.000755624 -0.00483667 0)
(0.000755624 -0.00483667 0)
(0.00160209 -0.00546555 0)
(0.00342034 -0.00443061 0)
(0.0031587 -0.00564711 0)
(0.00209106 -0.00610246 0)
(0.00103234 -0.00621116 0)
(0.00027566 -0.00653697 0)
(8.54144e-06 -0.0067463 0)
(-3.10188e-05 -0.00680692 0)
(-1.86471e-05 -0.0068082 0)
(-4.73108e-06 -0.00680822 0)
(6.78301e-07 -0.00681011 0)
(4.85153e-07 -0.00681029 0)
(1.12485e-07 -0.00681039 0)
(3.15801e-09 -0.00681045 0)
(-3.25302e-09 -0.00681045 0)
(-1.12272e-07 -0.00681039 0)
(-4.85325e-07 -0.00681028 0)
(-6.78308e-07 -0.00681011 0)
(4.73102e-06 -0.00680822 0)
(1.86474e-05 -0.0068082 0)
(3.10192e-05 -0.00680692 0)
(-8.54196e-06 -0.0067463 0)
(-0.000275661 -0.00653697 0)
(-0.00103234 -0.00621116 0)
(-0.00209106 -0.00610246 0)
(-0.0031587 -0.00564711 0)
(-0.00342034 -0.00443061 0)
(-0.00160209 -0.00546555 0)
(-0.000755624 -0.00483667 0)
(0.000755623 -0.00483667 0)
(0.00160209 -0.00546555 0)
(0.00342034 -0.00443061 0)
(0.0031587 -0.00564711 0)
(0.00209106 -0.00610246 0)
(0.00103234 -0.00621116 0)
(0.00027566 -0.00653697 0)
(8.54149e-06 -0.0067463 0)
(-3.10184e-05 -0.00680692 0)
(-1.86473e-05 -0.0068082 0)
(-4.73183e-06 -0.00680822 0)
(6.78009e-07 -0.00681011 0)
(4.85911e-07 -0.00681029 0)
(1.12653e-07 -0.00681039 0)
(2.44267e-09 -0.00681045 0)
(-2.96488e-09 -0.00681045 0)
(-1.12111e-07 -0.00681039 0)
(-4.85428e-07 -0.00681029 0)
(-6.78194e-07 -0.00681011 0)
(4.73135e-06 -0.00680822 0)
(1.8647e-05 -0.0068082 0)
(3.10188e-05 -0.00680693 0)
(-8.54145e-06 -0.0067463 0)
(-0.00027566 -0.00653697 0)
(-0.00103234 -0.00621116 0)
(-0.00209106 -0.00610246 0)
(-0.0031587 -0.00564711 0)
(-0.00342034 -0.00443061 0)
(-0.00160209 -0.00546555 0)
(-0.000755624 -0.00483667 0)
(0.000755623 -0.00483667 0)
(0.00160209 -0.00546555 0)
(0.00342034 -0.00443061 0)
(0.0031587 -0.00564711 0)
(0.00209106 -0.00610246 0)
(0.00103234 -0.00621116 0)
(0.00027566 -0.00653697 0)
(8.54182e-06 -0.0067463 0)
(-3.10181e-05 -0.00680692 0)
(-1.86477e-05 -0.0068082 0)
(-4.73156e-06 -0.00680822 0)
(6.7818e-07 -0.00681011 0)
(4.85609e-07 -0.00681029 0)
(1.12289e-07 -0.00681039 0)
(3.3146e-09 -0.00681045 0)
(-2.62644e-09 -0.00681045 0)
(-1.12584e-07 -0.00681039 0)
(-4.8549e-07 -0.00681029 0)
(-6.78121e-07 -0.00681011 0)
(4.73073e-06 -0.00680822 0)
(1.86468e-05 -0.0068082 0)
(3.10192e-05 -0.00680692 0)
(-8.54135e-06 -0.0067463 0)
(-0.00027566 -0.00653697 0)
(-0.00103234 -0.00621116 0)
(-0.00209106 -0.00610246 0)
(-0.0031587 -0.00564711 0)
(-0.00342034 -0.00443061 0)
(-0.00160209 -0.00546555 0)
(-0.000755624 -0.00483667 0)
(0.000755623 -0.00483667 0)
(0.00160209 -0.00546555 0)
(0.00342034 -0.00443061 0)
(0.0031587 -0.00564711 0)
(0.00209106 -0.00610246 0)
(0.00103234 -0.00621116 0)
(0.00027566 -0.00653697 0)
(8.54135e-06 -0.0067463 0)
(-3.10183e-05 -0.00680692 0)
(-1.86469e-05 -0.0068082 0)
(-4.73096e-06 -0.00680822 0)
(6.78035e-07 -0.00681011 0)
(4.85e-07 -0.00681029 0)
(1.12513e-07 -0.00681039 0)
(3.44104e-09 -0.00681045 0)
(-3.19029e-09 -0.00681045 0)
(-1.12694e-07 -0.00681039 0)
(-4.85192e-07 -0.00681029 0)
(-6.78642e-07 -0.00681011 0)
(4.73079e-06 -0.00680822 0)
(1.86468e-05 -0.0068082 0)
(3.10198e-05 -0.00680692 0)
(-8.54123e-06 -0.0067463 0)
(-0.000275661 -0.00653697 0)
(-0.00103234 -0.00621116 0)
(-0.00209106 -0.00610246 0)
(-0.0031587 -0.00564711 0)
(-0.00342034 -0.00443061 0)
(-0.00160209 -0.00546555 0)
(-0.000755624 -0.00483667 0)
(0.000755624 -0.00483667 0)
(0.00160209 -0.00546555 0)
(0.00342034 -0.00443061 0)
(0.0031587 -0.00564711 0)
(0.00209106 -0.00610246 0)
(0.00103234 -0.00621116 0)
(0.00027566 -0.00653697 0)
(8.54157e-06 -0.0067463 0)
(-3.10187e-05 -0.00680692 0)
(-1.86469e-05 -0.0068082 0)
(-4.73134e-06 -0.00680822 0)
(6.79014e-07 -0.00681011 0)
(4.84975e-07 -0.00681029 0)
(1.11607e-07 -0.00681039 0)
(2.97247e-09 -0.00681045 0)
(-2.83604e-09 -0.00681045 0)
(-1.12464e-07 -0.00681039 0)
(-4.85163e-07 -0.00681029 0)
(-6.7803e-07 -0.00681011 0)
(4.73154e-06 -0.00680822 0)
(1.86473e-05 -0.0068082 0)
(3.10181e-05 -0.00680692 0)
(-8.5417e-06 -0.0067463 0)
(-0.000275659 -0.00653697 0)
(-0.00103234 -0.00621116 0)
(-0.00209106 -0.00610246 0)
(-0.0031587 -0.00564711 0)
(-0.00342034 -0.00443061 0)
(-0.00160209 -0.00546555 0)
(-0.000755624 -0.00483667 0)
(0.000755623 -0.00483667 0)
(0.00160209 -0.00546555 0)
(0.00342034 -0.00443061 0)
(0.0031587 -0.00564711 0)
(0.00209106 -0.00610246 0)
(0.00103234 -0.00621116 0)
(0.000275659 -0.00653697 0)
(8.54132e-06 -0.0067463 0)
(-3.1018e-05 -0.00680692 0)
(-1.86482e-05 -0.0068082 0)
(-4.73103e-06 -0.00680822 0)
(6.79249e-07 -0.00681011 0)
(4.8545e-07 -0.00681029 0)
(1.11846e-07 -0.00681039 0)
(2.533e-09 -0.00681045 0)
(-2.51985e-09 -0.00681045 0)
(-1.12374e-07 -0.00681039 0)
(-4.8538e-07 -0.00681029 0)
(-6.78133e-07 -0.00681011 0)
(4.73211e-06 -0.00680822 0)
(1.86473e-05 -0.0068082 0)
(3.10184e-05 -0.00680692 0)
(-8.54143e-06 -0.0067463 0)
(-0.000275661 -0.00653697 0)
(-0.00103234 -0.00621116 0)
(-0.00209106 -0.00610246 0)
(-0.0031587 -0.00564711 0)
(-0.00342034 -0.00443061 0)
(-0.00160209 -0.00546555 0)
(-0.000755623 -0.00483667 0)
(0.000755623 -0.00483667 0)
(0.00160209 -0.00546555 0)
(0.00342034 -0.00443061 0)
(0.0031587 -0.00564711 0)
(0.00209106 -0.00610246 0)
(0.00103234 -0.00621116 0)
(0.00027566 -0.00653697 0)
(8.54171e-06 -0.0067463 0)
(-3.10181e-05 -0.00680692 0)
(-1.86475e-05 -0.0068082 0)
(-4.73178e-06 -0.00680822 0)
(6.78234e-07 -0.00681011 0)
(4.8558e-07 -0.00681029 0)
(1.12748e-07 -0.00681039 0)
(2.78458e-09 -0.00681045 0)
(-2.53266e-09 -0.00681045 0)
(-1.12986e-07 -0.00681039 0)
(-4.85968e-07 -0.00681029 0)
(-6.78255e-07 -0.00681011 0)
(4.73211e-06 -0.00680822 0)
(1.86481e-05 -0.0068082 0)
(3.10178e-05 -0.00680692 0)
(-8.54127e-06 -0.0067463 0)
(-0.000275661 -0.00653697 0)
(-0.00103234 -0.00621116 0)
(-0.00209106 -0.00610246 0)
(-0.0031587 -0.00564711 0)
(-0.00342034 -0.00443061 0)
(-0.00160209 -0.00546555 0)
(-0.000755623 -0.00483667 0)
(0.000755623 -0.00483667 0)
(0.00160209 -0.00546555 0)
(0.00342034 -0.00443061 0)
(0.0031587 -0.00564711 0)
(0.00209106 -0.00610246 0)
(0.00103234 -0.00621116 0)
(0.000275661 -0.00653697 0)
(8.54121e-06 -0.0067463 0)
(-3.1018e-05 -0.00680692 0)
(-1.86478e-05 -0.0068082 0)
(-4.73179e-06 -0.00680822 0)
(6.78789e-07 -0.00681011 0)
(4.85063e-07 -0.00681028 0)
(1.12048e-07 -0.00681039 0)
(3.68197e-09 -0.00681045 0)
(-2.46126e-09 -0.00681045 0)
(-1.12733e-07 -0.00681039 0)
(-4.84696e-07 -0.00681029 0)
(-6.79069e-07 -0.00681011 0)
(4.73115e-06 -0.00680822 0)
(1.8646e-05 -0.0068082 0)
(3.10188e-05 -0.00680692 0)
(-8.54966e-06 -0.0067463 0)
(-0.000275673 -0.00653697 0)
(-0.0010323 -0.00621118 0)
(-0.002091 -0.00610226 0)
(-0.00315891 -0.00564694 0)
(-0.00342006 -0.00443338 0)
(-0.00160104 -0.00546392 0)
(-0.00075742 -0.00484069 0)
(-0.849844 0.234109 0)
(-2.13908 1.10275 0)
(-3.07532 2.50005 0)
(-3.50167 2.9372 0)
(-3.1327 2.78828 0)
(-2.18781 1.90778 0)
(-0.957355 0.779959 0)
(-0.0931427 0.0523016 0)
(0.0235328 -0.0484669 0)
(0.0158606 -0.0452063 0)
(0.000495537 -0.0369078 0)
(-0.01011 -0.032263 0)
(-0.0167791 -0.0312564 0)
(-0.0192491 -0.0265528 0)
(0.0189706 -0.0263633 0)
(0.0161895 -0.031432 0)
(0.01126 -0.0316186 0)
(0.00693979 -0.0342771 0)
(0.00300475 -0.0365683 0)
(0.000685129 -0.0369852 0)
(-5.06278e-05 -0.0368728 0)
(-8.3473e-05 -0.036876 0)
(-5.86672e-05 -0.0368715 0)
(-2.43454e-05 -0.0368599 0)
(-1.35939e-06 -0.0368369 0)
(2.09046e-06 -0.0368273 0)
(5.83414e-07 -0.036827 0)
(-3.86799e-08 -0.0368271 0)
(-2.46323e-08 -0.0368271 0)
(2.46517e-08 -0.0368271 0)
(3.87245e-08 -0.0368271 0)
(-5.8337e-07 -0.036827 0)
(-2.0905e-06 -0.0368273 0)
(1.35937e-06 -0.0368369 0)
(2.43453e-05 -0.0368599 0)
(5.86673e-05 -0.0368715 0)
(8.34732e-05 -0.036876 0)
(5.06273e-05 -0.0368728 0)
(-0.000685129 -0.0369852 0)
(-0.00300475 -0.0365683 0)
(-0.00693979 -0.0342771 0)
(-0.01126 -0.0316186 0)
(-0.0161895 -0.031432 0)
(-0.0189706 -0.0263633 0)
(0.0189706 -0.0263633 0)
(0.0161895 -0.031432 0)
(0.01126 -0.0316186 0)
(0.00693979 -0.0342771 0)
(0.00300475 -0.0365683 0)
(0.000685129 -0.0369852 0)
(-5.06277e-05 -0.0368728 0)
(-8.34729e-05 -0.036876 0)
(-5.86673e-05 -0.0368715 0)
(-2.43453e-05 -0.0368599 0)
(-1.3594e-06 -0.0368369 0)
(2.09053e-06 -0.0368273 0)
(5.83411e-07 -0.036827 0)
(-3.88126e-08 -0.0368271 0)
(-2.46216e-08 -0.0368271 0)
(2.46603e-08 -0.0368271 0)
(3.86995e-08 -0.0368271 0)
(-5.83473e-07 -0.036827 0)
(-2.0906e-06 -0.0368273 0)
(1.3595e-06 -0.0368369 0)
(2.43452e-05 -0.0368599 0)
(5.86675e-05 -0.0368715 0)
(8.34733e-05 -0.036876 0)
(5.06271e-05 -0.0368728 0)
(-0.000685129 -0.0369852 0)
(-0.00300475 -0.0365683 0)
(-0.00693979 -0.0342771 0)
(-0.01126 -0.0316186 0)
(-0.0161895 -0.031432 0)
(-0.0189706 -0.0263633 0)
(0.0189706 -0.0263633 0)
(0.0161895 -0.031432 0)
(0.01126 -0.0316186 0)
(0.00693979 -0.0342771 0)
(0.00300475 -0.0365683 0)
(0.000685129 -0.0369852 0)
(-5.06278e-05 -0.0368728 0)
(-8.3473e-05 -0.036876 0)
(-5.86672e-05 -0.0368715 0)
(-2.43453e-05 -0.0368599 0)
(-1.35929e-06 -0.0368369 0)
(2.09069e-06 -0.0368273 0)
(5.83296e-07 -0.036827 0)
(-3.89472e-08 -0.0368271 0)
(-2.46817e-08 -0.0368271 0)
(2.44988e-08 -0.0368271 0)
(3.90191e-08 -0.0368271 0)
(-5.83468e-07 -0.036827 0)
(-2.0905e-06 -0.0368273 0)
(1.35931e-06 -0.0368369 0)
(2.43453e-05 -0.0368599 0)
(5.86676e-05 -0.0368715 0)
(8.34733e-05 -0.036876 0)
(5.06271e-05 -0.0368728 0)
(-0.000685129 -0.0369852 0)
(-0.00300475 -0.0365683 0)
(-0.00693979 -0.0342771 0)
(-0.01126 -0.0316186 0)
(-0.0161895 -0.031432 0)
(-0.0189706 -0.0263633 0)
(0.0189706 -0.0263633 0)
(0.0161895 -0.031432 0)
(0.01126 -0.0316186 0)
(0.00693979 -0.0342771 0)
(0.00300475 -0.0365683 0)
(0.000685129 -0.0369852 0)
(-5.06278e-05 -0.0368728 0)
(-8.34731e-05 -0.036876 0)
(-5.86672e-05 -0.0368715 0)
(-2.43454e-05 -0.0368599 0)
(-1.35933e-06 -0.0368369 0)
(2.09076e-06 -0.0368273 0)
(5.83168e-07 -0.036827 0)
(-3.8462e-08 -0.0368271 0)
(-2.49048e-08 -0.0368271 0)
(2.4619e-08 -0.0368271 0)
(3.84881e-08 -0.0368271 0)
(-5.83077e-07 -0.036827 0)
(-2.09037e-06 -0.0368273 0)
(1.35919e-06 -0.0368369 0)
(2.43453e-05 -0.0368599 0)
(5.86672e-05 -0.0368715 0)
(8.34729e-05 -0.036876 0)
(5.06275e-05 -0.0368728 0)
(-0.000685129 -0.0369852 0)
(-0.00300475 -0.0365684 0)
(-0.00693979 -0.0342771 0)
(-0.01126 -0.0316186 0)
(-0.0161895 -0.031432 0)
(-0.0189706 -0.0263633 0)
(0.0189706 -0.0263633 0)
(0.0161895 -0.031432 0)
(0.01126 -0.0316186 0)
(0.00693979 -0.0342771 0)
(0.00300475 -0.0365683 0)
(0.000685129 -0.0369852 0)
(-5.06273e-05 -0.0368728 0)
(-8.34731e-05 -0.036876 0)
(-5.86673e-05 -0.0368715 0)
(-2.43454e-05 -0.0368599 0)
(-1.35954e-06 -0.0368369 0)
(2.09021e-06 -0.0368273 0)
(5.83781e-07 -0.036827 0)
(-3.86264e-08 -0.0368271 0)
(-2.47201e-08 -0.0368271 0)
(2.49767e-08 -0.0368271 0)
(3.81506e-08 -0.0368271 0)
(-5.83511e-07 -0.036827 0)
(-2.09004e-06 -0.0368273 0)
(1.3593e-06 -0.0368369 0)
(2.43453e-05 -0.0368599 0)
(5.86674e-05 -0.0368715 0)
(8.34732e-05 -0.036876 0)
(5.06275e-05 -0.0368728 0)
(-0.000685129 -0.0369852 0)
(-0.00300475 -0.0365683 0)
(-0.00693979 -0.0342771 0)
(-0.01126 -0.0316186 0)
(-0.0161895 -0.031432 0)
(-0.0189706 -0.0263633 0)
(0.0189706 -0.0263633 0)
(0.0161895 -0.031432 0)
(0.01126 -0.0316186 0)
(0.00693979 -0.0342771 0)
(0.00300475 -0.0365683 0)
(0.00068513 -0.0369852 0)
(-5.0628e-05 -0.0368728 0)
(-8.34729e-05 -0.036876 0)
(-5.86673e-05 -0.0368715 0)
(-2.43456e-05 -0.0368599 0)
(-1.3592e-06 -0.0368369 0)
(2.09062e-06 -0.0368273 0)
(5.8345e-07 -0.036827 0)
(-3.84693e-08 -0.0368271 0)
(-2.46754e-08 -0.0368271 0)
(2.44896e-08 -0.0368271 0)
(3.87087e-08 -0.0368271 0)
(-5.83442e-07 -0.036827 0)
(-2.09071e-06 -0.0368273 0)
(1.3593e-06 -0.0368369 0)
(2.43456e-05 -0.0368599 0)
(5.8667e-05 -0.0368715 0)
(8.3473e-05 -0.036876 0)
(5.06278e-05 -0.0368728 0)
(-0.000685129 -0.0369852 0)
(-0.00300475 -0.0365683 0)
(-0.00693979 -0.0342771 0)
(-0.01126 -0.0316186 0)
(-0.0161895 -0.031432 0)
(-0.0189706 -0.0263633 0)
(0.0189706 -0.0263633 0)
(0.0161895 -0.031432 0)
(0.01126 -0.0316186 0)
(0.00693979 -0.0342771 0)
(0.00300475 -0.0365683 0)
(0.00068513 -0.0369852 0)
(-5.06281e-05 -0.0368728 0)
(-8.34727e-05 -0.036876 0)
(-5.86675e-05 -0.0368715 0)
(-2.4346e-05 -0.0368599 0)
(-1.35908e-06 -0.0368369 0)
(2.09081e-06 -0.0368273 0)
(5.8378e-07 -0.036827 0)
(-3.87278e-08 -0.0368271 0)
(-2.45807e-08 -0.0368271 0)
(2.48476e-08 -0.0368271 0)
(3.83604e-08 -0.0368271 0)
(-5.83814e-07 -0.036827 0)
(-2.0909e-06 -0.0368273 0)
(1.35959e-06 -0.0368369 0)
(2.43452e-05 -0.0368599 0)
(5.86675e-05 -0.0368715 0)
(8.34733e-05 -0.036876 0)
(5.06276e-05 -0.0368728 0)
(-0.000685129 -0.0369852 0)
(-0.00300475 -0.0365684 0)
(-0.00693979 -0.0342771 0)
(-0.01126 -0.0316186 0)
(-0.0161895 -0.031432 0)
(-0.0189706 -0.0263633 0)
(0.0189706 -0.0263633 0)
(0.0161895 -0.031432 0)
(0.01126 -0.0316186 0)
(0.00693979 -0.0342771 0)
(0.00300475 -0.0365683 0)
(0.000685129 -0.0369852 0)
(-5.06285e-05 -0.0368728 0)
(-8.34724e-05 -0.036876 0)
(-5.86669e-05 -0.0368715 0)
(-2.43452e-05 -0.0368599 0)
(-1.35969e-06 -0.0368369 0)
(2.09071e-06 -0.0368273 0)
(5.83021e-07 -0.036827 0)
(-3.85889e-08 -0.0368271 0)
(-2.47934e-08 -0.0368271 0)
(2.48019e-08 -0.0368271 0)
(3.8699e-08 -0.0368271 0)
(-5.83207e-07 -0.036827 0)
(-2.0905e-06 -0.0368273 0)
(1.35905e-06 -0.0368369 0)
(2.43454e-05 -0.0368599 0)
(5.86675e-05 -0.0368715 0)
(8.34734e-05 -0.036876 0)
(5.06266e-05 -0.0368728 0)
(-0.000685128 -0.0369852 0)
(-0.00300475 -0.0365684 0)
(-0.00693979 -0.0342771 0)
(-0.01126 -0.0316186 0)
(-0.0161895 -0.031432 0)
(-0.0189706 -0.0263633 0)
(0.0189706 -0.0263633 0)
(0.0161895 -0.031432 0)
(0.01126 -0.0316186 0)
(0.00693979 -0.0342771 0)
(0.00300475 -0.0365684 0)
(0.000685129 -0.0369852 0)
(-5.06265e-05 -0.0368728 0)
(-8.34731e-05 -0.036876 0)
(-5.86676e-05 -0.0368715 0)
(-2.43454e-05 -0.0368599 0)
(-1.35878e-06 -0.0368369 0)
(2.09025e-06 -0.0368273 0)
(5.83183e-07 -0.036827 0)
(-3.8753e-08 -0.0368271 0)
(-2.46598e-08 -0.0368271 0)
(2.50504e-08 -0.0368271 0)
(3.85617e-08 -0.0368271 0)
(-5.83043e-07 -0.036827 0)
(-2.09064e-06 -0.0368273 0)
(1.35921e-06 -0.0368369 0)
(2.43451e-05 -0.0368599 0)
(5.86674e-05 -0.0368715 0)
(8.34727e-05 -0.036876 0)
(5.06281e-05 -0.0368728 0)
(-0.000685129 -0.0369852 0)
(-0.00300475 -0.0365683 0)
(-0.00693979 -0.0342771 0)
(-0.01126 -0.0316186 0)
(-0.0161895 -0.031432 0)
(-0.0189706 -0.0263633 0)
(0.0189706 -0.0263633 0)
(0.0161895 -0.031432 0)
(0.01126 -0.0316186 0)
(0.00693979 -0.0342771 0)
(0.00300475 -0.0365683 0)
(0.000685129 -0.0369852 0)
(-5.06279e-05 -0.0368728 0)
(-8.34725e-05 -0.036876 0)
(-5.86671e-05 -0.0368715 0)
(-2.43461e-05 -0.0368599 0)
(-1.35885e-06 -0.0368369 0)
(2.09078e-06 -0.0368273 0)
(5.83473e-07 -0.036827 0)
(-3.8564e-08 -0.0368271 0)
(-2.4383e-08 -0.0368271 0)
(2.4361e-08 -0.0368271 0)
(3.89018e-08 -0.0368271 0)
(-5.83935e-07 -0.036827 0)
(-2.09051e-06 -0.0368273 0)
(1.35995e-06 -0.0368369 0)
(2.43455e-05 -0.0368599 0)
(5.86674e-05 -0.0368715 0)
(8.34729e-05 -0.036876 0)
(5.06269e-05 -0.0368728 0)
(-0.00068513 -0.0369852 0)
(-0.00300475 -0.0365683 0)
(-0.00693979 -0.0342771 0)
(-0.01126 -0.0316186 0)
(-0.0161895 -0.031432 0)
(-0.0189706 -0.0263633 0)
(0.0189706 -0.0263633 0)
(0.0161895 -0.031432 0)
(0.01126 -0.0316186 0)
(0.00693979 -0.0342771 0)
(0.00300475 -0.0365683 0)
(0.00068513 -0.0369852 0)
(-5.06284e-05 -0.0368728 0)
(-8.34734e-05 -0.036876 0)
(-5.86672e-05 -0.0368715 0)
(-2.43455e-05 -0.0368599 0)
(-1.35901e-06 -0.0368369 0)
(2.09025e-06 -0.0368273 0)
(5.83378e-07 -0.036827 0)
(-3.86468e-08 -0.0368271 0)
(-2.44782e-08 -0.0368271 0)
(2.50535e-08 -0.0368271 0)
(3.86182e-08 -0.0368271 0)
(-5.83661e-07 -0.036827 0)
(-2.08971e-06 -0.0368273 0)
(1.35865e-06 -0.0368369 0)
(2.43459e-05 -0.0368599 0)
(5.86675e-05 -0.0368715 0)
(8.34722e-05 -0.036876 0)
(5.06284e-05 -0.0368728 0)
(-0.00068513 -0.0369852 0)
(-0.00300475 -0.0365683 0)
(-0.00693979 -0.0342771 0)
(-0.01126 -0.0316186 0)
(-0.0161895 -0.031432 0)
(-0.0189706 -0.0263633 0)
(0.0189706 -0.0263633 0)
(0.0161895 -0.031432 0)
(0.01126 -0.0316186 0)
(0.00693979 -0.0342771 0)
(0.00300475 -0.0365683 0)
(0.00068513 -0.0369852 0)
(-5.06291e-05 -0.0368728 0)
(-8.34727e-05 -0.036876 0)
(-5.86671e-05 -0.0368715 0)
(-2.4345e-05 -0.0368599 0)
(-1.35932e-06 -0.0368369 0)
(2.08987e-06 -0.0368273 0)
(5.83169e-07 -0.036827 0)
(-3.81742e-08 -0.0368271 0)
(-2.42179e-08 -0.0368271 0)
(2.52798e-08 -0.0368271 0)
(3.86533e-08 -0.0368271 0)
(-5.8414e-07 -0.036827 0)
(-2.09065e-06 -0.0368273 0)
(1.35996e-06 -0.0368369 0)
(2.43455e-05 -0.0368599 0)
(5.8666e-05 -0.0368715 0)
(8.34716e-05 -0.036876 0)
(5.06781e-05 -0.0368728 0)
(-0.000685108 -0.0369851 0)
(-0.00300539 -0.0365692 0)
(-0.0069418 -0.0342806 0)
(-0.0112644 -0.0316216 0)
(-0.0161905 -0.0314414 0)
(-0.0189693 -0.0263707 0)
(-0.221742 -8.8268 0)
(0.230952 -6.88638 0)
(-0.193405 -0.531731 0)
(-1.74418 1.54238 0)
(-2.58126 2.55684 0)
(-2.48908 2.11753 0)
(-1.65016 1.3603 0)
(-0.622365 0.489862 0)
(-0.0290589 -0.00515654 0)
(0.0111341 -0.0468592 0)
(0.0112172 -0.0396747 0)
(0.0144438 -0.0347355 0)
(0.021707 -0.0304944 0)
(0.0249621 -0.0279218 0)
(-0.0250539 -0.0282775 0)
(-0.0224921 -0.0305968 0)
(-0.0156322 -0.0337625 0)
(-0.00836146 -0.0355936 0)
(-0.00224813 -0.0365347 0)
(0.000199994 -0.0372799 0)
(0.000105036 -0.0375679 0)
(-4.52908e-05 -0.0374904 0)
(-4.09926e-05 -0.0374278 0)
(-3.31829e-06 -0.0374061 0)
(1.76118e-06 -0.0374129 0)
(8.03181e-07 -0.0374167 0)
(-3.34848e-08 -0.0374166 0)
(-7.46685e-08 -0.0374165 0)
(-1.09947e-08 -0.0374164 0)
(1.09966e-08 -0.0374164 0)
(7.4643e-08 -0.0374165 0)
(3.35997e-08 -0.0374166 0)
(-8.03188e-07 -0.0374167 0)
(-1.76125e-06 -0.0374129 0)
(3.31826e-06 -0.0374061 0)
(4.09926e-05 -0.0374278 0)
(4.52908e-05 -0.0374904 0)
(-0.000105037 -0.0375679 0)
(-0.000199994 -0.0372799 0)
(0.00224813 -0.0365347 0)
(0.00836146 -0.0355936 0)
(0.0156322 -0.0337625 0)
(0.0224921 -0.0305968 0)
(0.0250539 -0.0282774 0)
(-0.0250539 -0.0282774 0)
(-0.0224921 -0.0305968 0)
(-0.0156322 -0.0337625 0)
(-0.00836146 -0.0355936 0)
(-0.00224813 -0.0365347 0)
(0.000199994 -0.0372799 0)
(0.000105037 -0.0375679 0)
(-4.52907e-05 -0.0374904 0)
(-4.09926e-05 -0.0374278 0)
(-3.31826e-06 -0.0374061 0)
(1.76116e-06 -0.0374129 0)
(8.03059e-07 -0.0374167 0)
(-3.34584e-08 -0.0374166 0)
(-7.45833e-08 -0.0374165 0)
(-1.09585e-08 -0.0374164 0)
(1.07876e-08 -0.0374164 0)
(7.46901e-08 -0.0374165 0)
(3.34809e-08 -0.0374166 0)
(-8.03166e-07 -0.0374167 0)
(-1.76127e-06 -0.0374129 0)
(3.31824e-06 -0.0374061 0)
(4.09927e-05 -0.0374278 0)
(4.52908e-05 -0.0374904 0)
(-0.000105037 -0.0375679 0)
(-0.000199994 -0.0372799 0)
(0.00224813 -0.0365347 0)
(0.00836146 -0.0355936 0)
(0.0156322 -0.0337625 0)
(0.0224921 -0.0305968 0)
(0.0250539 -0.0282774 0)
(-0.0250539 -0.0282774 0)
(-0.0224921 -0.0305968 0)
(-0.0156322 -0.0337625 0)
(-0.00836146 -0.0355936 0)
(-0.00224813 -0.0365347 0)
(0.000199994 -0.0372799 0)
(0.000105037 -0.0375679 0)
(-4.52909e-05 -0.0374904 0)
(-4.09926e-05 -0.0374278 0)
(-3.31834e-06 -0.0374061 0)
(1.76139e-06 -0.0374129 0)
(8.03249e-07 -0.0374167 0)
(-3.35714e-08 -0.0374166 0)
(-7.46943e-08 -0.0374165 0)
(-1.09347e-08 -0.0374164 0)
(1.07471e-08 -0.0374164 0)
(7.45945e-08 -0.0374165 0)
(3.37477e-08 -0.0374166 0)
(-8.03316e-07 -0.0374167 0)
(-1.76083e-06 -0.0374129 0)
(3.31824e-06 -0.0374061 0)
(4.09925e-05 -0.0374278 0)
(4.52908e-05 -0.0374904 0)
(-0.000105037 -0.0375679 0)
(-0.000199994 -0.0372799 0)
(0.00224813 -0.0365347 0)
(0.00836147 -0.0355936 0)
(0.0156322 -0.0337625 0)
(0.0224921 -0.0305968 0)
(0.0250539 -0.0282774 0)
(-0.0250539 -0.0282774 0)
(-0.0224921 -0.0305968 0)
(-0.0156322 -0.0337625 0)
(-0.00836146 -0.0355936 0)
(-0.00224813 -0.0365347 0)
(0.000199994 -0.0372799 0)
(0.000105037 -0.0375679 0)
(-4.52909e-05 -0.0374904 0)
(-4.09926e-05 -0.0374278 0)
(-3.31803e-06 -0.0374061 0)
(1.76097e-06 -0.0374129 0)
(8.03172e-07 -0.0374167 0)
(-3.33188e-08 -0.0374166 0)
(-7.47022e-08 -0.0374165 0)
(-1.11882e-08 -0.0374164 0)
(1.10466e-08 -0.0374164 0)
(7.44754e-08 -0.0374165 0)
(3.36138e-08 -0.0374166 0)
(-8.03179e-07 -0.0374167 0)
(-1.76111e-06 -0.0374129 0)
(3.31822e-06 -0.0374061 0)
(4.09928e-05 -0.0374278 0)
(4.52905e-05 -0.0374904 0)
(-0.000105037 -0.0375679 0)
(-0.000199994 -0.0372799 0)
(0.00224813 -0.0365347 0)
(0.00836146 -0.0355936 0)
(0.0156322 -0.0337625 0)
(0.0224921 -0.0305968 0)
(0.0250539 -0.0282774 0)
(-0.0250539 -0.0282774 0)
(-0.0224921 -0.0305968 0)
(-0.0156322 -0.0337625 0)
(-0.00836146 -0.0355936 0)
(-0.00224813 -0.0365347 0)
(0.000199994 -0.0372799 0)
(0.000105037 -0.0375679 0)
(-4.52909e-05 -0.0374904 0)
(-4.09926e-05 -0.0374278 0)
(-3.31818e-06 -0.0374061 0)
(1.76135e-06 -0.0374129 0)
(8.03305e-07 -0.0374167 0)
(-3.35535e-08 -0.0374166 0)
(-7.47331e-08 -0.0374165 0)
(-1.07228e-08 -0.0374164 0)
(1.06712e-08 -0.0374164 0)
(7.42194e-08 -0.0374165 0)
(3.34513e-08 -0.0374166 0)
(-8.03019e-07 -0.0374167 0)
(-1.76075e-06 -0.0374129 0)
(3.31841e-06 -0.0374061 0)
(4.09926e-05 -0.0374278 0)
(4.52905e-05 -0.0374904 0)
(-0.000105037 -0.0375679 0)
(-0.000199995 -0.0372799 0)
(0.00224813 -0.0365347 0)
(0.00836146 -0.0355936 0)
(0.0156322 -0.0337625 0)
(0.0224921 -0.0305968 0)
(0.0250539 -0.0282774 0)
(-0.0250539 -0.0282774 0)
(-0.0224921 -0.0305968 0)
(-0.0156322 -0.0337625 0)
(-0.00836146 -0.0355936 0)
(-0.00224813 -0.0365347 0)
(0.000199994 -0.0372799 0)
(0.000105037 -0.0375679 0)
(-4.52905e-05 -0.0374904 0)
(-4.09927e-05 -0.0374278 0)
(-3.31812e-06 -0.0374061 0)
(1.76122e-06 -0.0374129 0)
(8.03152e-07 -0.0374167 0)
(-3.36094e-08 -0.0374166 0)
(-7.47928e-08 -0.0374165 0)
(-1.06995e-08 -0.0374164 0)
(1.07793e-08 -0.0374164 0)
(7.46851e-08 -0.0374165 0)
(3.34213e-08 -0.0374166 0)
(-8.0349e-07 -0.0374167 0)
(-1.76111e-06 -0.0374129 0)
(3.31894e-06 -0.0374061 0)
(4.09923e-05 -0.0374278 0)
(4.52906e-05 -0.0374904 0)
(-0.000105037 -0.0375679 0)
(-0.000199994 -0.0372799 0)
(0.00224813 -0.0365347 0)
(0.00836146 -0.0355936 0)
(0.0156322 -0.0337625 0)
(0.0224921 -0.0305968 0)
(0.0250539 -0.0282774 0)
(-0.0250539 -0.0282774 0)
(-0.0224921 -0.0305968 0)
(-0.0156322 -0.0337625 0)
(-0.00836146 -0.0355936 0)
(-0.00224813 -0.0365347 0)
(0.000199994 -0.0372799 0)
(0.000105037 -0.0375679 0)
(-4.52909e-05 -0.0374904 0)
(-4.09926e-05 -0.0374278 0)
(-3.31866e-06 -0.0374061 0)
(1.76142e-06 -0.0374129 0)
(8.03076e-07 -0.0374167 0)
(-3.33669e-08 -0.0374166 0)
(-7.5145e-08 -0.0374165 0)
(-1.07556e-08 -0.0374164 0)
(1.15723e-08 -0.0374164 0)
(7.5039e-08 -0.0374165 0)
(3.30885e-08 -0.0374166 0)
(-8.03732e-07 -0.0374167 0)
(-1.76135e-06 -0.0374129 0)
(3.31852e-06 -0.0374061 0)
(4.09924e-05 -0.0374278 0)
(4.52913e-05 -0.0374904 0)
(-0.000105037 -0.0375679 0)
(-0.000199994 -0.0372799 0)
(0.00224813 -0.0365347 0)
(0.00836146 -0.0355936 0)
(0.0156322 -0.0337625 0)
(0.0224921 -0.0305968 0)
(0.0250539 -0.0282774 0)
(-0.0250539 -0.0282774 0)
(-0.0224921 -0.0305968 0)
(-0.0156322 -0.0337625 0)
(-0.00836146 -0.0355936 0)
(-0.00224813 -0.0365347 0)
(0.000199994 -0.0372799 0)
(0.000105037 -0.0375679 0)
(-4.52908e-05 -0.0374904 0)
(-4.09921e-05 -0.0374278 0)
(-3.31826e-06 -0.0374061 0)
(1.76123e-06 -0.0374129 0)
(8.02927e-07 -0.0374167 0)
(-3.37612e-08 -0.0374166 0)
(-7.48167e-08 -0.0374165 0)
(-1.03425e-08 -0.0374164 0)
(1.07433e-08 -0.0374164 0)
(7.4489e-08 -0.0374165 0)
(3.36258e-08 -0.0374166 0)
(-8.03439e-07 -0.0374167 0)
(-1.7615e-06 -0.0374129 0)
(3.3181e-06 -0.0374061 0)
(4.09931e-05 -0.0374278 0)
(4.52909e-05 -0.0374904 0)
(-0.000105036 -0.0375679 0)
(-0.000199995 -0.0372799 0)
(0.00224813 -0.0365347 0)
(0.00836147 -0.0355936 0)
(0.0156322 -0.0337625 0)
(0.0224921 -0.0305968 0)
(0.0250539 -0.0282774 0)
(-0.0250539 -0.0282774 0)
(-0.0224921 -0.0305968 0)
(-0.0156322 -0.0337625 0)
(-0.00836147 -0.0355936 0)
(-0.00224813 -0.0365347 0)
(0.000199994 -0.0372799 0)
(0.000105037 -0.0375679 0)
(-4.52907e-05 -0.0374904 0)
(-4.09923e-05 -0.0374278 0)
(-3.31828e-06 -0.0374061 0)
(1.76084e-06 -0.0374129 0)
(8.03692e-07 -0.0374167 0)
(-3.35823e-08 -0.0374166 0)
(-7.47564e-08 -0.0374165 0)
(-1.17784e-08 -0.0374164 0)
(1.09716e-08 -0.0374164 0)
(7.51817e-08 -0.0374165 0)
(3.43001e-08 -0.0374166 0)
(-8.03076e-07 -0.0374167 0)
(-1.76147e-06 -0.0374129 0)
(3.31835e-06 -0.0374061 0)
(4.0992e-05 -0.0374278 0)
(4.52905e-05 -0.0374904 0)
(-0.000105037 -0.0375679 0)
(-0.000199994 -0.0372799 0)
(0.00224813 -0.0365347 0)
(0.00836146 -0.0355936 0)
(0.0156322 -0.0337625 0)
(0.0224921 -0.0305968 0)
(0.0250539 -0.0282774 0)
(-0.0250539 -0.0282774 0)
(-0.0224921 -0.0305968 0)
(-0.0156322 -0.0337625 0)
(-0.00836146 -0.0355936 0)
(-0.00224813 -0.0365347 0)
(0.000199994 -0.0372799 0)
(0.000105037 -0.0375679 0)
(-4.52907e-05 -0.0374904 0)
(-4.09926e-05 -0.0374278 0)
(-3.31844e-06 -0.0374061 0)
(1.7613e-06 -0.0374129 0)
(8.03064e-07 -0.0374167 0)
(-3.33339e-08 -0.0374166 0)
(-7.52532e-08 -0.0374165 0)
(-1.05949e-08 -0.0374164 0)
(1.17507e-08 -0.0374164 0)
(7.46998e-08 -0.0374165 0)
(3.38124e-08 -0.0374166 0)
(-8.03522e-07 -0.0374167 0)
(-1.76166e-06 -0.0374129 0)
(3.31855e-06 -0.0374061 0)
(4.09924e-05 -0.0374278 0)
(4.52908e-05 -0.0374904 0)
(-0.000105037 -0.0375679 0)
(-0.000199994 -0.0372799 0)
(0.00224813 -0.0365347 0)
(0.00836146 -0.0355936 0)
(0.0156322 -0.0337625 0)
(0.0224921 -0.0305968 0)
(0.0250539 -0.0282774 0)
(-0.0250539 -0.0282774 0)
(-0.0224921 -0.0305968 0)
(-0.0156322 -0.0337625 0)
(-0.00836146 -0.0355936 0)
(-0.00224813 -0.0365347 0)
(0.000199995 -0.0372799 0)
(0.000105037 -0.0375679 0)
(-4.5291e-05 -0.0374904 0)
(-4.09922e-05 -0.0374278 0)
(-3.31854e-06 -0.0374061 0)
(1.7611e-06 -0.0374129 0)
(8.03289e-07 -0.0374167 0)
(-3.38937e-08 -0.0374166 0)
(-7.40767e-08 -0.0374165 0)
(-1.09709e-08 -0.0374164 0)
(1.06729e-08 -0.0374164 0)
(7.41247e-08 -0.0374165 0)