/*--------------------------------*- C++ -*----------------------------------*\
| =========                 |                                                 |
| \\      /  F ield         | OpenFOAM: The Open Source CFD Toolbox           |
|  \\    /   O peration     | Version:  2.1.1                                 |
|   \\  /    A nd           | Web:      www.OpenFOAM.org                      |
|    \\/     M anipulation  |                                                 |
\*---------------------------------------------------------------------------*/
FoamFile
{
    version     2.0;
    format      ascii;
    class       volScalarField;
    location    "0.002350000";
    object      fH;
}
// * * * * * * * * * * * * * * * * * * * * * * * * * * * * * * * * * * * * * //

dimensions      [0 0 0 0 0 0 0];

internalField   nonuniform List<scalar> 
12384
(
0.0260299
0.0264568
0.0262514
0.0258955
0.0255771
0.0251545
0.0257033
0.0258134
0.0234759
0.0234675
0.0248636
0.0268065
0.028731
0.0290444
0.0214086
0.0193723
0.0188006
0.0190885
0.0192056
0.0192102
0.0191877
0.0191997
0.0191858
0.0191498
0.0190611
0.0188726
0.0187494
0.0186209
0.0185131
0.018398
0.018271
0.0181762
0.0180821
0.0178815
0.0178486
0.0177805
0.0178168
0.0183502
0.020669
0.0238618
0.0274652
0.0290532
0.0293962
0.0292479
0.0233391
0.0227954
0.0247712
0.0247295
0.0239251
0.0241998
0.0247843
0.0252639
0.0259039
0.0260914
0.0263392
0.0264153
0.0265547
0.026643
0.0268119
0.0267994
0.0264691
0.025936
0.0259801
0.0252882
0.0236878
0.0214787
0.0192527
0.01782
0.0178006
0.0195082
0.0232665
0.0272206
0.0292134
0.029227
0.0262848
0.0226221
0.0196007
0.0194699
0.0207626
0.0232985
0.0248854
0.025948
0.026743
0.0279346
0.0284666
0.0292711
0.0285659
0.0278624
0.027329
0.0262505
0.0248651
0.023279
0.0208411
0.0191894
0.0175614
0.017228
0.0176118
0.0195856
0.0221209
0.0252777
0.0279632
0.0291423
0.0292674
0.0291242
0.0268571
0.0254587
0.0244123
0.0227732
0.0213136
0.0203245
0.0192243
0.0191838
0.019103
0.0186773
0.0186702
0.0188507
0.0195504
0.02053
0.0217877
0.0233117
0.0248109
0.0260295
0.0269489
0.027637
0.0283609
0.0286545
0.0289605
0.0290403
0.0290729
0.0290734
0.0290736
0.0290702
0.0290665
0.0290708
0.0281913
0.0279173
0.0279774
0.0281008
0.0282244
0.0284163
0.0285905
0.0287217
0.0288973
0.0289116
0.0290431
0.0289942
0.0290661
0.02901
0.0290518
0.0290184
0.0290359
0.0290311
0.0290283
0.029037
0.0290353
0.0290334
0.0290412
0.0290315
0.0290448
0.0290312
0.0290466
0.0290329
0.029044
0.0290704
0.0290748
0.0290361
0.0290358
0.0290296
0.0290343
0.0290286
0.0290319
0.0290259
0.0290286
0.0290225
0.0290252
0.0290191
0.0290203
0.0290145
0.0290153
0.0290119
0.0290146
0.029015
0.0290188
0.0290195
0.0290212
0.0290221
0.0290229
0.0290233
0.0290242
0.0290244
0.0290249
0.0290251
0.0290268
0.0290722
0.0290723
0.029026
0.0290233
0.0290219
0.0290205
0.0290192
0.0290178
0.0290165
0.0290152
0.029014
0.0290126
0.029011
0.0290086
0.0290062
0.0290044
0.0290045
0.0290061
0.0290085
0.029011
0.0290126
0.029014
0.0290154
0.0290166
0.029018
0.0290193
0.0290205
0.0290216
0.029023
0.0290259
0.0290722
0.0290723
0.0290261
0.0290235
0.029022
0.0290208
0.0290196
0.0290183
0.0290171
0.0290158
0.0290145
0.0290132
0.0290115
0.0290088
0.0290063
0.0290044
0.0290047
0.0290061
0.0290085
0.0290109
0.0290126
0.029014
0.0290154
0.0290167
0.0290181
0.0290194
0.0290206
0.0290217
0.029023
0.0290259
0.0290722
0.0290722
0.0290264
0.0290235
0.0290215
0.0290204
0.029019
0.0290177
0.0290164
0.0290152
0.029014
0.0290128
0.0290112
0.029009
0.0290067
0.029005
0.0290043
0.0290058
0.0290084
0.0290115
0.0290133
0.0290146
0.0290164
0.0290177
0.029019
0.02902
0.0290213
0.0290224
0.0290238
0.0290262
0.0290723
0.0290722
0.0290259
0.0290231
0.0290218
0.0290205
0.0290193
0.0290181
0.0290168
0.0290156
0.0290143
0.029013
0.0290114
0.0290088
0.0290065
0.0290045
0.0290045
0.0290059
0.0290084
0.0290108
0.0290126
0.0290141
0.0290155
0.0290167
0.0290182
0.0290195
0.0290207
0.0290217
0.029023
0.0290258
0.0290722
0.0290723
0.0290255
0.029023
0.0290221
0.0290211
0.02902
0.0290185
0.029017
0.0290156
0.0290141
0.0290127
0.0290109
0.0290084
0.0290062
0.0290044
0.0290044
0.0290061
0.0290084
0.029011
0.0290127
0.0290141
0.0290155
0.0290167
0.0290181
0.0290194
0.0290205
0.0290218
0.0290231
0.0290256
0.0290723
0.0290722
0.0290258
0.0290229
0.0290214
0.0290202
0.0290189
0.029018
0.0290167
0.0290158
0.0290144
0.0290132
0.0290116
0.0290093
0.0290068
0.0290048
0.0290044
0.0290058
0.0290083
0.0290107
0.0290124
0.029014
0.0290155
0.0290169
0.0290182
0.0290196
0.0290207
0.0290218
0.0290229
0.0290257
0.0290722
0.0253997
0.0236732
0.0210325
0.0188421
0.0185072
0.0191486
0.0189671
0.0201048
0.0177348
0.0170842
0.0187056
0.0207859
0.0238298
0.0270444
0.0184504
0.0172806
0.0180898
0.0189261
0.0188621
0.0187827
0.0186861
0.0186849
0.0186201
0.018654
0.0185552
0.018442
0.0182431
0.0180367
0.0178798
0.0176571
0.0175204
0.0175244
0.0173898
0.0169248
0.0170042
0.0165052
0.0156067
0.0153762
0.0158097
0.0173929
0.0215348
0.0259865
0.0290531
0.0293902
0.0229825
0.0227935
0.0240401
0.0235554
0.0232705
0.0240774
0.0248094
0.0253952
0.025934
0.0261785
0.0263643
0.0265278
0.0267293
0.0269505
0.0273271
0.0278513
0.0281628
0.0283217
0.0297628
0.0308752
0.032051
0.0320917
0.027971
0.0216903
0.0165211
0.0139467
0.0156848
0.0210153
0.0269033
0.0293199
0.0227956
0.0187242
0.0186466
0.0222198
0.0254174
0.0270872
0.0278605
0.0282596
0.029321
0.0308461
0.033976
0.036624
0.036929
0.0358777
0.0361827
0.0375217
0.0387019
0.0391751
0.0390949
0.03508
0.0292406
0.0211673
0.0147639
0.0114875
0.0113366
0.0137758
0.0183996
0.0246675
0.0284949
0.0293606
0.0190776
0.0156603
0.0138781
0.012774
0.0136647
0.0145344
0.0172848
0.0183418
0.018968
0.0187438
0.0170364
0.0150826
0.0128285
0.0117499
0.0114093
0.0116343
0.0119495
0.0130712
0.0140182
0.0156365
0.0169077
0.018858
0.0207126
0.0228858
0.0249159
0.0264858
0.027512
0.0281086
0.028227
0.0286044
0.0164566
0.0158587
0.0161819
0.0163934
0.0167465
0.0175835
0.0180724
0.0191339
0.0197775
0.020862
0.0215432
0.0224755
0.0230601
0.0237759
0.0241982
0.0247046
0.0250496
0.0254649
0.0257729
0.0261081
0.0263156
0.0265935
0.0267096
0.0269113
0.0270343
0.0271151
0.0272519
0.0272516
0.0273237
0.0282664
0.0272064
0.0263114
0.0262899
0.0263541
0.0264305
0.0265301
0.0265541
0.0266409
0.0266352
0.0267082
0.0266748
0.0267378
0.0266723
0.0267062
0.0266442
0.0266941
0.0266753
0.0267686
0.0267823
0.0268581
0.0268553
0.0269167
0.0269041
0.0269513
0.0269382
0.0269766
0.0269574
0.0269809
0.0269968
0.0282395
0.0282216
0.026963
0.0268992
0.0268927
0.0268574
0.0268547
0.026814
0.026811
0.0267724
0.0267697
0.02673
0.026724
0.0266697
0.0266438
0.0266037
0.0266164
0.0266282
0.0266835
0.0267075
0.0267478
0.0267553
0.0267958
0.0268006
0.0268405
0.0268477
0.0268845
0.0268918
0.0269182
0.0269834
0.028189
0.0281915
0.0269924
0.0269153
0.0269111
0.0268749
0.026871
0.0268315
0.0268276
0.0267896
0.026784
0.0267443
0.0267324
0.0266768
0.0266451
0.0266057
0.026618
0.0266299
0.0266832
0.026707
0.0267473
0.0267549
0.0267959
0.026801
0.0268413
0.0268485
0.0268853
0.0268925
0.0269185
0.0269841
0.0281888
0.0281885
0.0269823
0.0269185
0.0268848
0.0268797
0.0268424
0.0268363
0.0267979
0.0267947
0.026757
0.0267521
0.026714
0.026694
0.0266399
0.0266257
0.0266045
0.0266358
0.0266673
0.0267289
0.026758
0.0267774
0.0268173
0.0268245
0.0268628
0.026866
0.0269018
0.0269007
0.0269321
0.0269755
0.0282326
0.0281859
0.0269883
0.0269112
0.0269066
0.0268709
0.0268671
0.0268278
0.0268235
0.0267857
0.0267807
0.0267419
0.0267314
0.0266783
0.026648
0.0266072
0.0266163
0.0266268
0.0266803
0.0267057
0.0267469
0.0267551
0.0267968
0.0268025
0.0268429
0.0268504
0.0268874
0.0268943
0.0269183
0.0269845
0.0281894
0.0282361
0.0269727
0.0269136
0.0269084
0.0268743
0.0268695
0.0268276
0.026821
0.0267804
0.0267728
0.0267313
0.0267217
0.0266696
0.0266432
0.0266092
0.0266087
0.0266409
0.0266706
0.0267239
0.0267341
0.0267745
0.0267807
0.0268201
0.0268253
0.0268651
0.0268683
0.0269038
0.0269107
0.0269712
0.0282347
0.0281913
0.0269865
0.0269063
0.0269013
0.0268625
0.0268601
0.0268187
0.0268175
0.0267782
0.026778
0.0267377
0.0267313
0.026681
0.0266544
0.0266105
0.0266164
0.0266265
0.0266786
0.0267049
0.0267451
0.0267528
0.0267947
0.0268
0.0268415
0.026848
0.0268865
0.0268944
0.0269186
0.0269847
0.028191
0.0236124
0.0185243
0.0149605
0.0131336
0.0131353
0.0136357
0.0135836
0.0132231
0.0110323
0.0113912
0.0127116
0.0138283
0.0162307
0.0214516
0.0158609
0.0157051
0.0168459
0.0184178
0.0187302
0.0200155
0.0206897
0.0207872
0.0203478
0.0200975
0.019817
0.0197307
0.0196623
0.0196574
0.0195641
0.0190212
0.0180768
0.0174072
0.0170993
0.0163844
0.0151624
0.0146714
0.0141398
0.0134814
0.0131415
0.0128053
0.0151449
0.0196007
0.0265288
0.0291604
0.0224701
0.0227696
0.0236504
0.0223712
0.0218238
0.0219852
0.0230526
0.0235063
0.0240001
0.0244148
0.0249978
0.0255828
0.025782
0.0254891
0.0259396
0.0261979
0.0271235
0.0296537
0.0330785
0.0382862
0.0469717
0.0446033
0.03906
0.031422
0.0274586
0.0184697
0.0126546
0.0139613
0.022128
0.0288998
0.0191166
0.0165861
0.0208851
0.0256742
0.0278995
0.0274853
0.0240005
0.0242569
0.0264903
0.0301351
0.0362836
0.040835
0.0414975
0.0392582
0.0371652
0.035644
0.0363106
0.0391135
0.0430081
0.0462616
0.0490403
0.0458177
0.0361925
0.0220706
0.0128776
0.00920972
0.00983202
0.014091
0.0222165
0.0272801
0.0105442
0.0109175
0.0125059
0.0172999
0.02282
0.0285994
0.0325139
0.0347009
0.0357005
0.0363501
0.0363916
0.033517
0.0273619
0.020078
0.01477
0.0117296
0.0103958
0.00949593
0.00918076
0.00877729
0.00886108
0.0086326
0.00872172
0.00884295
0.00913376
0.0101367
0.0119271
0.0141733
0.0162049
0.017397
0.00836877
0.00864124
0.00882393
0.00874937
0.00885361
0.00863974
0.00881814
0.0086119
0.00886336
0.00864321
0.00890794
0.00873933
0.00893697
0.00884439
0.00899574
0.00892934
0.0089987
0.00897133
0.00894665
0.00897682
0.00890931
0.00900797
0.00889827
0.00908189
0.00893478
0.00919782
0.00905116
0.00931853
0.00922618
0.00852325
0.00794534
0.008853
0.00890986
0.00898392
0.00894676
0.00901054
0.00899778
0.00906025
0.00904919
0.00910623
0.0091049
0.00915146
0.00916981
0.00922205
0.0092374
0.00925969
0.00924338
0.00921684
0.00917932
0.00915762
0.00913672
0.00912193
0.00910752
0.00910322
0.00908935
0.00908899
0.00908065
0.00908073
0.00903921
0.00800285
0.00800426
0.00906689
0.00911791
0.00913972
0.00915528
0.00916981
0.00918736
0.00920172
0.0092176
0.00923295
0.00925056
0.00926947
0.00930173
0.00933605
0.00935775
0.00935892
0.00933718
0.00930354
0.00927052
0.00925085
0.0092327
0.00921478
0.00919878
0.0091832
0.00916576
0.00915094
0.00913453
0.00911934
0.00907038
0.00800274
0.00800311
0.00906035
0.00911439
0.00913345
0.00914658
0.00916131
0.00917642
0.00919155
0.00920654
0.00922392
0.00924166
0.00926456
0.00929855
0.00933658
0.00935764
0.00935863
0.00933689
0.00930456
0.00927177
0.00925186
0.00923341
0.00921506
0.00919876
0.00918278
0.00916509
0.00915022
0.00913397
0.00911925
0.00907023
0.00800272
0.00800212
0.00906824
0.0091225
0.00914217
0.00915644
0.0091711
0.00918687
0.0092014
0.00921589
0.00923116
0.00924764
0.00926602
0.0092957
0.00932873
0.00935242
0.00935944
0.00934548
0.00930779
0.00926542
0.00923698
0.0092243
0.00920069
0.00918309
0.00916747
0.00915316
0.00913917
0.00912796
0.00911152
0.00905852
0.00800256
0.00800338
0.00906589
0.00911811
0.00913658
0.00914928
0.00916386
0.00917902
0.00919461
0.00920943
0.00922606
0.00924317
0.00926486
0.00929676
0.00933376
0.00935618
0.00935987
0.00933931
0.00930693
0.00927286
0.00925251
0.00923372
0.00921479
0.0091981
0.00918195
0.00916401
0.00914844
0.00913201
0.00911854
0.00906927
0.0080027
0.00800362
0.00906824
0.0091191
0.00912996
0.00914654
0.00916274
0.00918121
0.00919771
0.00921497
0.00923317
0.00925167
0.00927232
0.00930276
0.00933644
0.00935913
0.00935869
0.00933794
0.00930228
0.00927069
0.0092496
0.00923166
0.00921444
0.00919795
0.00918247
0.00916516
0.00915064
0.00913491
0.0091188
0.0090701
0.00800394
0.00800351
0.00906772
0.00912233
0.00914114
0.00915474
0.00916892
0.00918386
0.00919846
0.0092123
0.00922726
0.00924398
0.00926435
0.00929282
0.00932867
0.00935302
0.00936129
0.00934136
0.00930952
0.00927489
0.00925509
0.00923604
0.00921683
0.00919955
0.00918276
0.00916507
0.00914915
0.00913222
0.00911919
0.00907015
0.00800271
0.0194934
0.0149376
0.0129137
0.0123338
0.0120927
0.0116906
0.0109241
0.0108486
0.0104082
0.00944569
0.00933595
0.0101
0.0118435
0.0152179
0.0138813
0.0149471
0.019874
0.0196618
0.0216794
0.0236144
0.0242764
0.0240851
0.0237024
0.0241225
0.0245827
0.0256862
0.0262959
0.0263163
0.0251102
0.0232836
0.0219484
0.0215233
0.0217007
0.0219301
0.0209806
0.0204716
0.0174642
0.0133376
0.00952104
0.0109429
0.0114541
0.0136141
0.0210491
0.027937
0.0221349
0.0228548
0.0236344
0.0218015
0.0210221
0.0204345
0.0208404
0.0211674
0.0214649
0.0216131
0.0219296
0.022679
0.0229349
0.0225563
0.022685
0.0229351
0.0240212
0.0269111
0.0317644
0.0353016
0.0352672
0.0407647
0.0458565
0.0487559
0.0385326
0.0276487
0.0170688
0.0123583
0.0168237
0.0270304
0.0156064
0.0167693
0.0237313
0.0282816
0.0294491
0.0247263
0.0199933
0.0194623
0.0229597
0.0270895
0.0339239
0.0391783
0.0433371
0.0481684
0.0432806
0.0382613
0.036409
0.0386071
0.0392203
0.0420633
0.0449362
0.0515079
0.053243
0.0465196
0.0296854
0.0159627
0.010082
0.00951297
0.0144197
0.022425
0.0103915
0.0134768
0.0210503
0.0298865
0.0341277
0.0352459
0.0335644
0.0321634
0.034117
0.0373641
0.0418854
0.0455739
0.0466892
0.0421598
0.0321939
0.0237115
0.0180874
0.015033
0.0131421
0.0119999
0.0109182
0.0102931
0.00964191
0.00921074
0.0089389
0.00875026
0.00862401
0.00875918
0.00904603
0.00926348
0.01153
0.0127637
0.0124339
0.012054
0.0113252
0.0110362
0.0104188
0.0102305
0.00968891
0.00967739
0.00923981
0.00933238
0.00899244
0.0091356
0.00887657
0.00898496
0.00880988
0.00888509
0.00874365
0.00882923
0.00869394
0.00877969
0.00866627
0.0087281
0.00865091
0.00868818
0.00864082
0.00866945
0.00862545
0.00847996
0.00865489
0.00874282
0.00876025
0.0087182
0.00873703
0.00870608
0.00872019
0.00869607
0.0087094
0.00868934
0.0087016
0.00868693
0.0086976
0.00868807
0.00869594
0.0086896
0.00869233
0.008688
0.00868665
0.00868607
0.00868363
0.00868519
0.00868197
0.00868488
0.00868157
0.00868524
0.00868232
0.00868594
0.00867337
0.00849192
0.00849332
0.00867694
0.00868854
0.00869181
0.00869113
0.00869401
0.00869256
0.00869583
0.00869399
0.00869749
0.00869573
0.00869938
0.00869849
0.00870294
0.00870182
0.00870423
0.00870058
0.00870098
0.00869686
0.00869819
0.0086948
0.00869632
0.00869303
0.00869464
0.00869126
0.00869282
0.00868932
0.00868949
0.00867557
0.00849539
0.0084949
0.00867619
0.00868756
0.00869189
0.00869017
0.00869357
0.00869184
0.00869522
0.00869347
0.00869689
0.00869536
0.00869896
0.00869836
0.00870282
0.00870186
0.0087041
0.00870054
0.008701
0.00869689
0.00869823
0.0086948
0.00869632
0.00869301
0.00869462
0.00869123
0.00869278
0.00868931
0.00868949
0.00867552
0.00849541
0.00849561
0.00867555
0.00869032
0.0086895
0.00869324
0.00869127
0.0086949
0.00869295
0.00869643
0.00869459
0.0086981
0.00869654
0.00870057
0.00870002
0.0087037
0.00870189
0.00870324
0.00869885
0.00869864
0.00869535
0.00869419
0.00869575
0.00869219
0.00869403
0.00869043
0.00869255
0.00868892
0.00869041
0.00867573
0.00849166
0.00849531
0.00867613
0.00868771
0.00869208
0.00869033
0.00869371
0.00869199
0.00869535
0.00869361
0.00869697
0.00869542
0.00869896
0.00869827
0.00870265
0.00870178
0.00870417
0.0087007
0.00870113
0.00869695
0.00869825
0.00869483
0.0086963
0.00869299
0.00869456
0.00869117
0.00869265
0.00868919
0.00868937
0.0086756
0.0084953
0.00849186
0.00867593
0.0086893
0.00869157
0.00868999
0.00869381
0.0086919
0.00869562
0.0086937
0.00869737
0.00869568
0.00869933
0.00869848
0.00870273
0.00870186
0.00870183
0.00870281
0.00869848
0.0086992
0.00869561
0.00869728
0.00869371
0.00869558
0.008692
0.00869384
0.0086903
0.00869183
0.00868817
0.00867609
0.00849189
0.00849501
0.00867627
0.00868785
0.00869228
0.00869045
0.00869402
0.00869212
0.00869567
0.00869368
0.00869722
0.00869536
0.00869908
0.00869801
0.00870253
0.00870149
0.00870434
0.00870084
0.00870138
0.00869712
0.0086986
0.0086951
0.00869672
0.00869326
0.00869495
0.00869144
0.00869293
0.00868937
0.0086896
0.00867559
0.00849525
0.0159477
0.0145358
0.0148895
0.0155349
0.0143956
0.0132883
0.0149592
0.0173354
0.0160844
0.0146222
0.0115675
0.00877909
0.00977783
0.0109368
0.0141086
0.0182071
0.0223979
0.0243174
0.0272582
0.0294753
0.0296457
0.030193
0.0319117
0.0343692
0.0372316
0.038777
0.0382597
0.0357496
0.0325388
0.0301732
0.0293077
0.0292101
0.0290028
0.0284638
0.027255
0.0253034
0.0219352
0.0179307
0.0132898
0.00899905
0.0106749
0.0112863
0.016761
0.0257012
0.0218422
0.0232514
0.0236655
0.0224659
0.0215733
0.0207624
0.0202202
0.0200088
0.0198289
0.0196248
0.0196356
0.0200153
0.0204475
0.0206886
0.020944
0.0210945
0.0217045
0.023335
0.0265723
0.0277054
0.0268792
0.0336567
0.0446368
0.0490284
0.0460418
0.0375777
0.0240412
0.0150095
0.014078
0.0241684
0.0136039
0.0177342
0.0259277
0.03037
0.0296393
0.0237033
0.018335
0.0172052
0.0204096
0.0247666
0.0287471
0.0332951
0.0412522
0.0520181
0.0499045
0.0437838
0.0422948
0.0409726
0.0408566
0.0430651
0.045432
0.0479763
0.0523004
0.0564516
0.0507812
0.0324883
0.0167407
0.0104657
0.00994431
0.0155278
0.0120025
0.0202218
0.0294027
0.0338133
0.0305677
0.0248963
0.021562
0.0201407
0.0229821
0.0262891
0.0329844
0.0408125
0.0488972
0.053145
0.0506123
0.0409314
0.0309191
0.0239425
0.0200173
0.0175411
0.0160059
0.0145031
0.0135116
0.0124855
0.011781
0.0110323
0.0103373
0.00970332
0.00927472
0.00903609
0.0166585
0.0203912
0.0210558
0.0195662
0.0180427
0.0162243
0.0152556
0.0142098
0.0136419
0.0130078
0.0126875
0.0122617
0.0121034
0.0117981
0.0117244
0.0115001
0.0114723
0.011309
0.0112946
0.0111877
0.0111634
0.0110892
0.0110658
0.0110042
0.0109842
0.0109175
0.0108946
0.0108144
0.0107918
0.0107329
0.0111009
0.0111635
0.0110928
0.0111138
0.0110471
0.0110521
0.0110096
0.0110112
0.0109796
0.0109847
0.0109598
0.0109664
0.0109479
0.0109534
0.0109405
0.0109442
0.0109363
0.0109367
0.0109336
0.0109319
0.0109315
0.0109285
0.0109294
0.0109257
0.010928
0.0109235
0.0109271
0.0109224
0.0109243
0.0109009
0.0109047
0.0109242
0.0109274
0.0109232
0.0109287
0.0109226
0.0109288
0.0109222
0.0109286
0.0109218
0.0109286
0.0109221
0.0109288
0.0109228
0.010929
0.0109229
0.0109289
0.0109223
0.0109283
0.0109216
0.0109281
0.0109214
0.0109283
0.0109215
0.0109282
0.0109215
0.0109278
0.0109228
0.0109205
0.0109061
0.0109059
0.0109204
0.0109281
0.0109211
0.0109283
0.0109211
0.0109282
0.0109212
0.010928
0.0109212
0.0109282
0.0109219
0.0109285
0.0109226
0.0109288
0.0109228
0.0109286
0.0109222
0.0109282
0.0109215
0.010928
0.0109214
0.0109283
0.0109215
0.0109283
0.0109216
0.0109278
0.0109229
0.0109205
0.0109061
0.0109042
0.0109197
0.0109218
0.0109278
0.0109208
0.0109278
0.0109207
0.0109279
0.0109208
0.0109278
0.0109212
0.010928
0.0109219
0.0109284
0.0109225
0.0109286
0.0109227
0.0109288
0.0109237
0.0109258
0.0109271
0.0109215
0.0109284
0.010921
0.010928
0.0109207
0.0109278
0.0109205
0.010925
0.0109
0.0109062
0.0109203
0.0109283
0.0109211
0.0109283
0.0109211
0.0109281
0.0109212
0.010928
0.0109212
0.0109281
0.0109218
0.0109285
0.0109226
0.0109288
0.0109228
0.0109287
0.0109224
0.0109283
0.0109216
0.0109281
0.0109215
0.0109284
0.0109215
0.0109282
0.0109215
0.0109276
0.0109232
0.0109207
0.0109062
0.0109002
0.0109234
0.0109224
0.0109216
0.0109278
0.0109208
0.0109281
0.0109209
0.0109279
0.0109209
0.0109281
0.0109215
0.0109285
0.0109226
0.0109277
0.0109277
0.0109229
0.0109287
0.0109218
0.0109283
0.0109211
0.0109281
0.0109212
0.0109284
0.0109213
0.0109284
0.0109218
0.0109241
0.0109229
0.0109016
0.0109059
0.0109203
0.0109282
0.0109209
0.0109285
0.0109209
0.0109285
0.0109209
0.0109283
0.0109208
0.0109282
0.0109213
0.0109286
0.0109222
0.010929
0.0109227
0.010929
0.0109224
0.0109286
0.0109216
0.0109283
0.0109214
0.0109286
0.0109216
0.0109285
0.0109214
0.0109276
0.0109231
0.0109203
0.0109057
0.0152747
0.0178027
0.0213769
0.0223224
0.0202643
0.0196208
0.022541
0.0236936
0.0219589
0.0196908
0.0163121
0.0119855
0.0095398
0.00945372
0.0152268
0.0213339
0.0272903
0.0298355
0.0326724
0.0340003
0.0356759
0.0385563
0.0422401
0.0463312
0.0488557
0.048812
0.0459607
0.0418785
0.0383089
0.0362667
0.0351469
0.0340875
0.0326998
0.0309985
0.0291809
0.0274726
0.0253796
0.021813
0.0165897
0.0129885
0.0118053
0.0115326
0.0131759
0.0215648
0.0218268
0.0239846
0.0240296
0.0233994
0.022847
0.0220478
0.0213515
0.0202995
0.0191967
0.0185785
0.0189261
0.0201817
0.021866
0.0234274
0.0240381
0.0239161
0.023139
0.0228374
0.0231691
0.0228831
0.0227963
0.0263175
0.0358004
0.0461296
0.0534948
0.0494772
0.0325797
0.0194514
0.0144137
0.0215571
0.011149
0.0185743
0.0281765
0.0323116
0.0311549
0.0253392
0.0200835
0.0161067
0.0215914
0.0235805
0.0267855
0.0290102
0.0370355
0.0544077
0.0581667
0.0555831
0.0528366
0.0498704
0.0478471
0.0492721
0.0509622
0.0515242
0.0532531
0.056561
0.0581955
0.05082
0.0310882
0.0153184
0.0101184
0.0104229
0.0153694
0.0257919
0.0327058
0.0316006
0.0229793
0.0197289
0.0169358
0.0165125
0.0177446
0.0217155
0.0280429
0.0353618
0.0440355
0.0529824
0.0580313
0.0563122
0.0475898
0.0374887
0.029972
0.0254929
0.0225957
0.0205458
0.0186646
0.017183
0.0157481
0.0144772
0.0132608
0.0120594
0.0108949
0.00992633
0.0232416
0.0290107
0.0313808
0.0309978
0.0278888
0.0246624
0.0216682
0.0200656
0.0185412
0.0178676
0.0168381
0.0165816
0.0157955
0.0157584
0.0151217
0.0151906
0.0146632
0.0147888
0.0143353
0.0144909
0.0140963
0.0142475
0.0139051
0.0140304
0.0137345
0.0138161
0.013577
0.0135973
0.0134214
0.0132436
0.0142892
0.0142317
0.0142362
0.0140506
0.0140592
0.0139298
0.0139424
0.013844
0.0138615
0.0137867
0.0138049
0.0137512
0.0137663
0.0137296
0.0137399
0.0137143
0.0137225
0.0137047
0.0137098
0.0136988
0.0137012
0.0136946
0.0136939
0.0136919
0.0136899
0.0136887
0.0136883
0.0136864
0.0136757
0.013498
0.0135061
0.0136805
0.0136923
0.0136906
0.0136935
0.0136905
0.0136925
0.0136903
0.0136916
0.0136901
0.0136914
0.0136903
0.0136916
0.0136907
0.0136917
0.0136906
0.0136916
0.01369
0.0136909
0.0136893
0.0136907
0.0136892
0.0136907
0.0136894
0.0136911
0.0136895
0.013691
0.0136887
0.0136763
0.0134968
0.0134963
0.0136774
0.0136905
0.0136895
0.013691
0.013689
0.0136905
0.0136888
0.0136903
0.013689
0.0136907
0.0136895
0.0136912
0.0136901
0.0136916
0.01369
0.0136914
0.0136897
0.0136908
0.0136892
0.0136906
0.0136891
0.0136907
0.0136893
0.0136911
0.0136895
0.013691
0.0136889
0.0136763
0.0134968
0.0134954
0.0136749
0.0136888
0.013691
0.0136892
0.0136906
0.0136888
0.0136902
0.0136886
0.0136902
0.0136889
0.0136905
0.0136894
0.0136911
0.0136897
0.0136913
0.0136899
0.0136917
0.0136903
0.0136898
0.0136901
0.0136891
0.0136907
0.013689
0.0136904
0.013689
0.0136907
0.013688
0.0136779
0.0134982
0.0134958
0.0136774
0.0136908
0.0136896
0.0136911
0.013689
0.0136904
0.0136888
0.0136903
0.0136889
0.0136905
0.0136894
0.0136912
0.01369
0.0136915
0.0136901
0.0136914
0.0136898
0.0136909
0.0136893
0.0136907
0.0136892
0.0136909
0.0136894
0.0136911
0.0136894
0.0136906
0.013689
0.0136765
0.0134969
0.0134981
0.0136774
0.0136876
0.0136888
0.0136902
0.0136889
0.0136905
0.0136889
0.0136904
0.013689
0.0136907
0.0136893
0.0136913
0.01369
0.0136906
0.0136907
0.0136902
0.0136914
0.0136893
0.0136908
0.013689
0.0136905
0.0136891
0.0136907
0.0136893
0.013691
0.0136895
0.0136877
0.0136773
0.0134985
0.0134957
0.0136772
0.0136904
0.0136894
0.0136909
0.0136892
0.0136905
0.013689
0.0136903
0.013689
0.0136904
0.0136895
0.0136913
0.0136903
0.0136921
0.0136906
0.0136921
0.0136904
0.0136914
0.0136898
0.0136909
0.0136896
0.0136911
0.0136899
0.0136913
0.0136892
0.0136905
0.0136888
0.0136758
0.0134961
0.0186441
0.0243056
0.0279026
0.0280987
0.0268378
0.026948
0.027552
0.0263087
0.0229837
0.0186959
0.0152312
0.0130727
0.0107817
0.00951949
0.0162896
0.0248089
0.0309995
0.0329158
0.0341541
0.0363763
0.0401651
0.0447647
0.0496723
0.0533835
0.055323
0.0550599
0.0526604
0.0490739
0.0455478
0.0427281
0.0405616
0.0385421
0.036038
0.0325697
0.0285868
0.0260592
0.0252209
0.0237796
0.019902
0.0148313
0.0130421
0.0119904
0.0129398
0.0191381
0.0220096
0.0245999
0.0248712
0.0251664
0.0246491
0.0265447
0.0257537
0.0220612
0.0189407
0.0180287
0.0194557
0.0234576
0.0293837
0.0337806
0.0361427
0.0355881
0.0325029
0.028379
0.0253064
0.0233908
0.0224727
0.0232157
0.0274016
0.0375097
0.0509196
0.0540738
0.0445327
0.025828
0.0158471
0.0195035
0.0116654
0.0180232
0.0277474
0.0333873
0.0334663
0.030087
0.0257061
0.0233535
0.0248253
0.0250051
0.0253956
0.0264299
0.0324093
0.0546137
0.0674099
0.0681191
0.0663022
0.061953
0.0606033
0.0596697
0.0588731
0.0609088
0.0607088
0.058754
0.0601906
0.0595007
0.0500585
0.0296713
0.0149082
0.0100414
0.018814
0.0287295
0.032572
0.0290734
0.0230993
0.0178217
0.0167875
0.0161174
0.0175979
0.0221476
0.028637
0.0360344
0.043522
0.0512646
0.0585119
0.0624303
0.0606355
0.0529587
0.0436051
0.0362994
0.0315675
0.0284586
0.0259135
0.0239021
0.0218385
0.0202175
0.0182787
0.0163468
0.0143067
0.0117307
0.0283717
0.0310608
0.0352871
0.0394243
0.0396187
0.0354462
0.030829
0.0274255
0.0254688
0.0239952
0.0230808
0.0222021
0.0216618
0.021103
0.020736
0.0204067
0.0200978
0.0199493
0.0196309
0.0196282
0.0193135
0.0193475
0.0190793
0.0190961
0.0188671
0.0188394
0.0186059
0.0184909
0.0182226
0.0180011
0.0197482
0.0195902
0.0193409
0.0192621
0.0191073
0.0190649
0.018964
0.0189506
0.0188727
0.0188782
0.0188156
0.0188283
0.0187796
0.0187929
0.0187562
0.0187669
0.018742
0.0187481
0.018733
0.0187353
0.0187262
0.0187256
0.0187197
0.018718
0.0187148
0.018712
0.0187103
0.0187057
0.0187056
0.0187575
0.0187735
0.0187098
0.0187075
0.0187066
0.0187082
0.0187046
0.0187064
0.0187029
0.0187055
0.018702
0.018705
0.0187016
0.0187044
0.0187015
0.0187039
0.0187014
0.0187038
0.0187009
0.0187039
0.0187007
0.0187044
0.0187007
0.0187049
0.0187014
0.0187056
0.0187022
0.0187048
0.0187017
0.0187029
0.0187589
0.0187587
0.0187041
0.018705
0.0187021
0.0187054
0.018701
0.0187046
0.0187004
0.018704
0.0187003
0.0187039
0.0187005
0.0187035
0.0187008
0.0187033
0.0187009
0.0187032
0.0187006
0.0187037
0.0187005
0.0187042
0.0187006
0.0187048
0.0187014
0.0187055
0.0187021
0.0187047
0.0187019
0.0187029
0.018759
0.0187559
0.0187009
0.0187022
0.0187055
0.0187019
0.018705
0.0187008
0.0187042
0.0187001
0.0187038
0.0187001
0.0187034
0.0187004
0.0187031
0.0187008
0.0187032
0.018701
0.0187037
0.0187024
0.0187011
0.0187026
0.0187009
0.0187047
0.018701
0.0187049
0.0187015
0.018705
0.0187011
0.0187053
0.0187613
0.0187581
0.0187035
0.0187051
0.0187022
0.0187054
0.0187011
0.0187044
0.0187003
0.0187038
0.0187002
0.0187037
0.0187005
0.0187035
0.0187008
0.0187032
0.018701
0.0187033
0.0187007
0.0187037
0.0187006
0.0187044
0.0187008
0.0187049
0.0187014
0.0187054
0.018702
0.0187041
0.0187022
0.0187031
0.018759
0.0187614
0.0187036
0.0187007
0.0187013
0.0187043
0.0187012
0.0187049
0.0187006
0.0187043
0.0187004
0.0187041
0.0187003
0.0187038
0.0187009
0.0187021
0.0187019
0.018701
0.0187035
0.0187003
0.018704
0.0187003
0.0187042
0.0187006
0.0187048
0.0187014
0.0187053
0.0187021
0.0187006
0.0187029
0.0187619
0.0187581
0.0187035
0.018705
0.0187019
0.0187056
0.018701
0.0187051
0.0187003
0.0187045
0.0186998
0.0187039
0.0186997
0.0187035
0.0187002
0.0187033
0.0187005
0.0187029
0.0187001
0.0187032
0.0186999
0.0187037
0.0187
0.0187044
0.0187006
0.0187052
0.0187012
0.0187036
0.0187013
0.0187015
0.018757
0.0256144
0.0303404
0.0316126
0.0308803
0.0307946
0.0320602
0.0324026
0.0297489
0.0233605
0.016583
0.013004
0.0120878
0.0115199
0.0121484
0.0136981
0.027192
0.0322236
0.0321638
0.0322576
0.0347683
0.0393679
0.04462
0.0492657
0.053263
0.0564034
0.0582871
0.0580068
0.0555092
0.0519853
0.0487362
0.0462365
0.0437981
0.039583
0.0325252
0.0249339
0.0213968
0.02174
0.0223289
0.0197668
0.0151368
0.0117602
0.0129491
0.0130423
0.0170511
0.0219948
0.0255793
0.026985
0.0266672
0.0268081
0.0309649
0.0305773
0.0245221
0.0188294
0.0177468
0.0201379
0.02729
0.0369651
0.0456493
0.0519594
0.0549089
0.0515934
0.044376
0.0363305
0.0304951
0.0258129
0.0232131
0.023753
0.0287084
0.0420586
0.0537394
0.0490742
0.0331063
0.0176432
0.0186815
0.0130666
0.0183382
0.0262126
0.0317818
0.0336216
0.0334715
0.0320821
0.0307197
0.0283755
0.0252457
0.0246881
0.0254773
0.0307982
0.0506604
0.0719614
0.0752213
0.0744289
0.0729425
0.0727807
0.0707974
0.0694962
0.0688716
0.0682649
0.0670441
0.0631843
0.0622965
0.0606872
0.0498183
0.0256734
0.0108898
0.0229581
0.0284687
0.0302968
0.0275191
0.0226708
0.0192617
0.0166299
0.0176028
0.0207921
0.0266064
0.033343
0.040493
0.0471878
0.0534007
0.0589687
0.0637625
0.0659439
0.0639155
0.0573711
0.0493594
0.0426209
0.0380696
0.0346193
0.0319766
0.0290913
0.0267743
0.0240882
0.0212976
0.0173984
0.0132174
0.0245698
0.0267504
0.0322397
0.0407802
0.0462782
0.0455008
0.040499
0.0362355
0.0331436
0.0316489
0.0300144
0.029312
0.028067
0.0277657
0.0267503
0.0267154
0.0258419
0.0259625
0.0251845
0.0254018
0.0246856
0.0249424
0.0242787
0.0245177
0.0238916
0.0240526
0.0234664
0.0234712
0.0228357
0.0226724
0.0260624
0.0253265
0.0251308
0.0246174
0.0245587
0.0242715
0.0242572
0.0240765
0.0240779
0.0239599
0.0239631
0.0238869
0.0238892
0.0238349
0.0238421
0.0237986
0.0238095
0.0237761
0.0237862
0.0237623
0.0237692
0.0237517
0.0237555
0.0237432
0.0237444
0.0237344
0.0237316
0.0237205
0.0237166
0.0237731
0.0238097
0.0237342
0.0237317
0.0237329
0.0237365
0.0237347
0.023737
0.0237355
0.0237366
0.0237359
0.0237365
0.0237361
0.0237361
0.0237357
0.0237357
0.0237353
0.0237355
0.0237351
0.0237353
0.0237348
0.023735
0.0237346
0.0237349
0.0237346
0.0237343
0.0237324
0.0237305
0.0237261
0.0237261
0.0237911
0.0237913
0.0237274
0.0237272
0.0237302
0.0237326
0.0237332
0.0237342
0.023734
0.0237344
0.0237344
0.0237348
0.0237347
0.0237349
0.0237347
0.023735
0.0237346
0.0237349
0.0237347
0.0237348
0.0237346
0.0237347
0.0237345
0.0237348
0.0237345
0.0237343
0.0237322
0.0237304
0.0237261
0.0237261
0.0237911
0.0237887
0.0237246
0.0237267
0.0237306
0.0237323
0.0237335
0.0237339
0.0237342
0.023734
0.0237342
0.0237343
0.0237346
0.0237345
0.0237346
0.0237344
0.023735
0.0237345
0.0237358
0.0237352
0.0237344
0.0237344
0.0237348