/*--------------------------------*- C++ -*----------------------------------*\
| =========                 |                                                 |
| \\      /  F ield         | OpenFOAM: The Open Source CFD Toolbox           |
|  \\    /   O peration     | Version:  2.1.1                                 |
|   \\  /    A nd           | Web:      www.OpenFOAM.org                      |
|    \\/     M anipulation  |                                                 |
\*---------------------------------------------------------------------------*/
FoamFile
{
    version     2.0;
    format      ascii;
    class       volScalarField;
    location    "0.002350000";
    object      H2O2;
}
// * * * * * * * * * * * * * * * * * * * * * * * * * * * * * * * * * * * * * //

dimensions      [0 0 0 0 0 0 0];

internalField   nonuniform List<scalar> 
12384
(
6.0112e-07
5.78401e-07
5.44524e-07
4.14103e-07
4.08189e-07
4.35263e-07
3.85663e-07
4.4763e-07
3.16535e-08
4.56512e-10
3.61765e-11
1.35529e-12
4.05251e-14
1.27756e-15
1.95868e-11
4.5216e-10
4.97779e-09
1.87327e-08
2.67173e-08
4.10339e-08
5.69042e-08
6.93851e-08
7.19732e-08
7.33906e-08
7.69389e-08
7.02621e-08
6.20791e-08
5.66755e-08
4.73686e-08
4.1612e-08
3.21634e-08
2.79306e-08
2.20845e-08
1.39913e-08
8.82686e-09
2.33722e-09
3.6449e-10
1.09456e-10
4.07621e-11
4.48403e-12
1.69995e-13
1.83072e-15
1.78812e-17
1.68102e-19
4.76517e-11
4.65823e-09
3.79373e-08
9.84174e-08
3.72036e-07
3.94557e-07
4.14211e-07
4.25807e-07
4.06889e-07
4.05885e-07
3.80175e-07
4.16492e-07
3.89401e-07
9.5478e-08
5.29872e-08
4.35942e-08
3.7898e-08
3.39271e-08
2.96193e-08
2.15017e-08
5.58143e-09
7.63112e-10
8.21421e-11
5.05982e-12
3.03699e-14
1.59034e-16
5.83617e-19
1.30862e-21
1.82066e-24
1.02251e-26
5.98999e-32
1.00989e-30
2.76916e-30
5.13158e-29
3.22284e-25
2.3665e-21
1.25367e-17
4.23166e-14
1.40085e-10
1.97309e-09
4.80203e-09
6.02145e-09
5.17967e-09
1.15255e-09
2.72185e-10
1.06508e-10
1.22011e-11
1.37419e-12
9.54886e-14
2.16983e-15
3.61459e-17
4.43351e-19
1.7026e-21
1.86237e-24
2.17387e-27
2.45581e-30
2.02513e-33
1.60223e-36
1.61639e-39
1.71022e-42
1.06478e-59
2.43882e-60
1.12378e-62
2.48399e-65
3.20895e-68
3.14218e-71
3.06557e-74
3.96592e-77
8.46424e-80
1.12707e-82
1.09166e-85
8.11236e-89
4.55509e-92
1.68708e-95
6.17531e-99
2.33842e-102
8.78727e-106
3.05126e-109
1.0505e-112
3.7284e-116
1.20086e-119
4.67567e-123
1.83673e-126
8.04818e-130
3.67779e-133
1.74758e-136
8.30221e-140
3.92529e-143
1.80466e-146
8.01598e-150
1.45718e-162
5.79153e-164
6.19684e-167
4.10089e-170
1.93853e-173
5.15071e-179
2.31916e-184
3.18295e-189
4.89329e-194
7.21972e-199
8.30605e-204
6.67673e-209
3.93965e-214
2.1536e-219
1.11037e-224
5.79843e-230
2.9326e-235
1.52409e-240
8.15182e-246
3.92411e-251
1.54223e-256
5.19475e-262
1.56373e-267
4.19612e-273
1.02035e-278
2.33329e-284
4.76222e-290
9.48477e-296
1.99913e-301
5.74328e-307
0
0
0
0
0
0
0
0
0
0
0
0
0
0
0
0
0
0
0
0
0
0
0
0
0
0
0
0
0
0
0
0
0
0
0
0
0
0
0
0
0
0
0
0
0
0
0
0
0
0
0
0
0
0
0
0
0
0
0
0
0
0
0
0
0
0
0
0
0
0
0
0
0
0
0
0
0
0
0
0
0
0
0
0
0
0
0
0
0
0
0
0
0
0
0
0
0
0
0
0
0
0
0
0
0
0
0
0
0
0
0
0
0
0
0
0
0
0
0
0
0
0
0
0
0
0
0
0
0
0
0
0
0
0
0
0
0
0
0
0
0
0
0
0
0
0
0
0
0
0
0
0
0
0
0
0
0
0
0
0
0
0
0
0
0
0
0
0
0
0
0
0
0
0
0
0
0
0
0
0
0
0
0
0
0
0
0
0
0
0
0
0
0
0
0
0
0
0
0
0
0
0
0
0
0
0
0
0
0
0
6.00556e-07
5.64321e-07
4.07436e-07
2.09636e-07
1.67864e-07
1.88169e-07
1.87913e-07
6.19378e-08
1.10114e-08
2.5373e-09
3.55181e-10
1.85731e-11
1.24162e-12
4.43176e-14
9.3714e-10
1.16267e-08
5.48201e-08
1.87068e-07
1.82685e-07
1.77073e-07
1.73617e-07
1.6997e-07
1.68862e-07
1.68213e-07
1.64759e-07
1.60203e-07
1.53152e-07
1.42633e-07
1.38291e-07
1.31714e-07
1.27957e-07
1.2832e-07
1.24381e-07
1.06215e-07
1.08656e-07
2.4022e-08
7.78079e-09
2.60813e-09
5.90367e-10
7.30544e-11
1.08075e-11
2.11746e-13
1.60753e-15
1.33396e-17
4.25233e-09
5.47404e-08
4.38957e-07
3.96827e-07
3.74689e-07
4.03536e-07
4.16427e-07
4.19105e-07
4.13169e-07
3.9739e-07
3.9479e-07
3.79556e-07
4.11395e-07
3.75261e-07
3.63484e-07
3.37797e-07
3.15382e-07
3.12056e-07
2.04656e-07
1.52451e-07
2.53136e-08
1.02841e-08
2.02803e-08
4.27359e-09
1.37068e-11
2.42055e-14
5.09514e-17
2.47228e-19
7.59765e-22
3.93842e-24
1.59885e-29
2.35441e-28
1.41621e-27
7.90143e-27
8.67712e-25
1.50148e-21
2.57606e-18
4.81431e-15
5.63071e-12
4.35955e-09
6.83431e-09
7.41484e-09
9.28641e-09
4.11949e-09
2.543e-09
1.201e-09
1.34645e-10
1.74356e-11
3.64473e-12
4.05758e-13
6.69181e-14
1.23394e-15
1.21669e-18
5.67477e-23
2.38415e-26
3.00408e-29
5.53803e-32
9.24976e-35
6.96055e-38
6.14333e-41
1.0874e-56
1.0152e-57
2.72388e-60
4.69713e-63
1.27766e-65
2.18329e-68
7.10046e-71
1.00889e-73
1.98583e-76
2.9297e-79
2.1225e-82
8.81842e-86
1.68261e-89
1.37905e-93
5.21032e-98
1.5628e-102
2.90554e-106
2.44824e-109
1.13119e-112
9.21138e-116
2.6204e-119
1.08023e-122
4.69624e-126
2.24923e-129
1.01811e-132
1.15298e-135
8.42611e-138
4.28069e-141
2.00208e-144
8.5222e-148
1.21884e-159
3.8087e-161
4.56473e-164
3.0396e-167
1.57774e-170
7.38067e-174
5.34556e-179
1.11705e-183
2.04069e-188
5.27289e-193
7.49467e-198
6.5093e-203
3.71178e-208
1.85605e-213
8.9137e-219
4.40506e-224
2.20602e-229
1.11411e-234
5.82393e-240
2.93728e-245
1.21753e-250
4.24221e-256
1.30663e-261
3.46994e-267
8.18508e-273
1.69053e-278
3.12123e-284
5.49522e-290
1.01051e-295
2.03089e-301
0
0
0
0
0
0
0
0
0
0
0
0
0
0
0
0
0
0
0
0
0
0
0
0
0
0
0
0
0
0
0
0
0
0
0
0
0
0
0
0
0
0
0
0
0
0
0
0
0
0
0
0
0
0
0
0
0
0
0
0
0
0
0
0
0
0
0
0
0
0
0
0
0
0
0
0
0
0
0
0
0
0
0
0
0
0
0
0
0
0
0
0
0
0
0
0
0
0
0
0
0
0
0
0
0
0
0
0
0
0
0
0
0
0
0
0
0
0
0
0
0
0
0
0
0
0
0
0
0
0
0
0
0
0
0
0
0
0
0
0
0
0
0
0
0
0
0
0
0
0
0
0
0
0
0
0
0
0
0
0
0
0
0
0
0
0
0
0
0
0
0
0
0
0
0
0
0
0
0
0
0
0
0
0
0
0
0
0
0
0
0
0
0
0
0
0
0
0
0
0
0
0
0
0
0
0
0
0
0
0
5.63913e-07
2.71215e-07
9.50056e-08
3.30035e-08
2.62924e-08
3.23323e-08
3.1507e-08
1.11361e-08
3.39061e-09
2.7498e-09
1.831e-09
1.61896e-10
7.61551e-12
7.8312e-13
4.7675e-09
3.21014e-08
1.08177e-07
1.66916e-07
1.77906e-07
2.30017e-07
2.64423e-07
2.61941e-07
2.38815e-07
2.27569e-07
2.16543e-07
2.13406e-07
2.11482e-07
2.11372e-07
2.08038e-07
1.82675e-07
1.44294e-07
1.23771e-07
1.10268e-07
9.20705e-08
6.08115e-08
4.94029e-08
4.10569e-08
7.70162e-09
2.26908e-09
7.16991e-10
1.73216e-10
7.29517e-12
1.46579e-13
8.52619e-16
4.35035e-09
6.00855e-08
4.11296e-07
3.51906e-07
3.2059e-07
3.27213e-07
3.6323e-07
3.79972e-07
3.93133e-07
3.99719e-07
4.0025e-07
4.00129e-07
3.94278e-07
4.08151e-07
4.05018e-07
4.11538e-07
3.80025e-07
2.0539e-07
5.94976e-08
1.25909e-08
2.16238e-09
3.0634e-09
1.11578e-08
3.62275e-08
2.06306e-08
2.21464e-10
2.31913e-14
2.05169e-17
2.39123e-19
1.92696e-21
3.36921e-27
8.04605e-26
1.9016e-24
5.56819e-24
4.95361e-24
3.43939e-22
6.14095e-19
2.07308e-15
6.08531e-12
3.39319e-09
4.67812e-09
7.9291e-09
6.05975e-09
1.08105e-08
1.87192e-08
2.58268e-08
6.28434e-09
1.34619e-09
3.53294e-10
2.08794e-11
3.74856e-13
1.82188e-14
1.62724e-15
5.49718e-17
2.69327e-21
8.84746e-27
3.13953e-31
2.04925e-33
2.57952e-35
4.6654e-38
1.6168e-54
6.53424e-55
1.07572e-56
2.22044e-58
8.566e-61
7.90514e-64
2.22135e-67
1.08702e-70
9.30059e-74
1.23977e-76
1.75228e-79
4.19261e-82
1.57572e-84
4.69446e-88
3.15348e-92
1.65288e-97
3.71569e-102
3.10585e-106
6.28739e-110
1.48212e-113
2.0173e-118
4.22206e-122
1.53851e-125
5.38542e-129
1.98947e-132
3.85622e-134
9.07392e-136
8.82471e-139
4.40368e-142
1.25554e-145
1.04681e-157
5.59108e-159
7.0685e-162
4.05555e-165
2.02826e-168
5.69605e-172
2.12318e-175
3.7816e-180
7.67586e-185
2.66889e-189
4.17397e-194
2.42739e-199
1.32283e-204
4.73866e-210
2.00707e-215
7.64167e-221
3.49129e-226
1.54037e-231
7.24941e-237
3.67122e-242
1.63545e-247
7.45645e-253
2.49369e-258
8.88902e-264
2.06892e-269
5.38933e-275
8.10243e-281
1.48715e-286
2.24791e-292
2.21289e-298
1.02272e-321
4.94066e-324
0
0
0
0
0
0
0
0
0
0
0
0
0
0
0
0
0
0
0
0
0
0
0
0
0
0
0
0
0
0
0
0
0
0
0
0
0
0
0
0
0
0
0
0
0
0
0
0
0
0
0
0
0
0
0
0
0
0
0
0
0
0
0
0
0
0
0
0
0
0
0
0
0
0
0
0
0
0
0
0
0
0
0
0
0
0
0
0
0
0
0
0
0
0
0
0
0
0
0
0
0
0
0
0
0
0
0
0
0
0
0
0
0
0
0
0
0
0
0
0
0
0
0
0
0
0
0
0
0
0
0
0
0
0
0
0
0
0
0
0
0
0
0
0
0
0
0
0
0
0
0
0
0
0
0
0
0
0
0
0
0
0
0
0
0
0
0
0
0
0
0
0
0
0
0
0
0
0
0
0
0
0
0
0
0
0
0
0
0
0
0
0
0
0
0
0
0
0
0
0
0
0
0
0
0
0
0
0
3.34986e-07
1.01221e-07
4.49559e-08
3.21604e-08
1.55156e-08
1.19167e-08
7.27252e-09
6.95857e-09
5.30896e-09
1.90201e-09
1.00209e-09
7.2942e-10
1.30208e-10
4.28292e-12
7.11313e-09
5.54343e-08
2.27563e-07
2.2038e-07
4.17191e-07
5.7065e-07
5.89696e-07
5.76498e-07
5.4671e-07
5.28914e-07
5.15236e-07
5.13544e-07
5.0874e-07
5.15585e-07
5.29967e-07
4.82186e-07
4.09249e-07
3.65798e-07
3.56741e-07
3.39721e-07
2.71237e-07
2.50837e-07
1.25467e-07
2.85159e-08
2.75982e-09
1.46351e-09
3.06235e-10
2.74198e-12
1.30283e-13
1.46615e-15
1.95835e-09
4.56183e-08
4.04212e-07
3.19215e-07
2.8602e-07
2.41682e-07
2.68988e-07
2.76771e-07
2.91845e-07
3.04324e-07
3.15947e-07
3.40899e-07
3.56026e-07
3.37561e-07
3.45658e-07
3.63759e-07
4.05301e-07
3.96486e-07
1.06303e-07
2.75079e-08
2.77386e-08
7.89108e-09
2.58864e-09
1.39927e-09
1.20986e-08
4.12532e-08
4.78943e-10
1.7117e-14
5.25029e-17
8.23903e-19
7.21353e-25
3.93967e-23
1.34049e-21
2.60096e-21
1.54754e-21
7.91254e-22
1.42513e-20
9.61912e-17
7.30054e-13
1.16499e-09
4.27883e-09
3.88782e-09
4.52258e-09
1.50344e-09
4.55143e-09
1.26852e-08
2.22944e-08
1.20007e-08
1.08329e-08
1.27322e-09
2.61338e-10
3.20031e-12
3.35098e-14
7.96587e-16
9.42018e-17
2.42328e-20
3.34523e-26
8.01349e-31
6.42126e-33
3.89755e-35
2.28475e-50
3.14715e-50
1.29961e-51
1.67459e-54
4.38529e-58
1.85857e-61
2.12115e-64
1.78704e-67
9.86832e-71
5.14578e-74
2.50082e-77
1.57059e-80
1.46147e-83
3.3494e-86
2.60097e-88
4.06684e-91
3.77057e-95
2.5393e-99
3.06168e-103
6.35583e-107
3.6543e-112
8.26232e-116
1.83832e-119
4.12099e-123
1.09333e-126
2.67195e-130
1.33576e-132
2.99279e-136
5.60134e-140
5.97604e-144
3.49093e-152
2.45297e-153
2.19103e-156
1.15178e-159
3.56007e-163
1.12278e-166
2.34845e-170
6.13066e-174
6.55306e-179
6.61662e-183
4.65049e-188
3.09336e-193
9.62937e-199
3.51234e-204
8.67847e-210
2.96949e-215
8.844e-221
3.50868e-226
1.25928e-231
5.86972e-237
2.47142e-242
1.3463e-247
5.61936e-253
2.33043e-258
6.56357e-264
1.66173e-269
2.63534e-275
3.73638e-281
4.83384e-287
6.09424e-293
1.68041e-315
2.35355e-318
9.88131e-324
0
0
0
0
0
0
0
0
0
0
0
0
0
0
0
0
0
0
0
0
0
0
0
0
0
0
0
0
0
0
0
0
0
0
0
0
0
0
0
0
0
0
0
0
0
0
0
0
0
0
0
0
0
0
0
0
0
0
0
0
0
0
0
0
0
0
0
0
0
0
0
0
0
0
0
0
0
0
0
0
0
0
0
0
0
0
0
0
0
0
0
0
0
0
0
0
0
0
0
0
0
0
0
0
0
0
0
0
0
0
0
0
0
0
0
0
0
0
0
0
0
0
0
0
0
0
0
0
0
0
0
0
0
0
0
0
0
0
0
0
0
0
0
0
0
0
0
0
0
0
0
0
0
0
0
0
0
0
0
0
0
0
0
0
0
0
0
0
0
0
0
0
0
0
0
0
0
0
0
0
0
0
0
0
0
0
0
0
0
0
0
0
0
0
0
0
0
0
0
0
0
0
0
0
0
0
0
1.40451e-07
1.16122e-07
1.57834e-07
1.80409e-07
8.36955e-08
3.3189e-08
7.30838e-08
1.82385e-07
1.05305e-07
5.53488e-08
1.10654e-08
8.15342e-10
6.71804e-10
2.49821e-11
8.36179e-09
1.52918e-07
3.40611e-07
5.31998e-07
5.77578e-07
4.22908e-07
3.92915e-07
3.50787e-07
1.97711e-07
1.18614e-07
5.98317e-08
4.14247e-08
4.235e-08
7.25083e-08
1.55777e-07
3.01391e-07
3.54223e-07
3.62328e-07
3.91665e-07
3.88169e-07
3.9874e-07
4.07036e-07
3.12123e-07
1.39308e-07
2.76252e-08
1.72247e-09
4.40378e-10
2.05844e-12
1.14928e-13
4.14907e-15
4.65453e-10
3.08069e-08
3.79273e-07
3.45654e-07
3.02597e-07
2.70096e-07
2.30813e-07
2.26033e-07
2.19767e-07
2.13774e-07
2.14476e-07
2.29514e-07
2.5401e-07
2.6274e-07
2.74905e-07
2.78423e-07
3.17538e-07
3.81839e-07
4.14975e-07
3.71384e-07
4.10328e-07
5.18783e-08
3.05191e-09
1.35225e-09
2.50617e-09
5.13036e-09
1.26995e-08
4.56683e-12
3.77417e-15
2.39183e-16
2.89107e-22
2.10113e-20
5.3156e-19
6.75191e-19
8.26396e-19
6.23608e-19
7.8418e-20
1.77047e-17
6.98782e-14
4.9665e-11
6.24044e-09
1.05905e-08
6.25497e-09
8.35638e-10
1.20222e-09
4.12612e-09
5.39137e-09
7.54687e-09
7.7658e-09
4.76583e-09
2.75666e-09
4.16596e-10
1.81127e-11
6.7848e-14
5.54185e-16
4.31989e-17
2.90148e-20
8.15327e-26
2.43106e-30
1.20029e-32
9.50947e-46
1.92076e-45
3.68431e-48
1.13578e-51
1.56047e-54
1.39927e-57
3.50442e-61
8.74651e-65
6.20801e-68
4.0782e-71
8.76371e-75
1.61885e-78
3.88425e-82
1.95606e-85
3.32754e-88
2.23602e-90
2.91094e-92
5.08525e-95
1.76831e-98
5.04967e-102
1.48989e-105
3.45733e-109
9.45833e-113
1.95026e-116
4.27403e-120
7.72352e-124
1.24671e-127
1.56286e-131
1.4642e-135
1.0718e-139
4.06127e-147
2.79769e-148
3.56575e-151
1.99881e-154
7.82951e-158
1.98228e-161
5.29866e-165
1.15706e-168
2.96271e-172
4.75504e-176
3.43363e-181
1.54516e-186
5.25222e-192
1.35316e-197
3.35189e-203
7.38041e-209
1.95061e-214
5.14607e-220
1.65581e-225
5.34864e-231
2.0839e-236
8.9698e-242
4.50314e-247
2.20486e-252
9.12808e-258
2.51608e-263
4.32812e-269
5.27558e-275
6.21655e-281
7.81741e-287
9.54016e-309
1.09805e-311
3.64951e-317
9.38725e-323
0
0
0
0
0
0
0
0
0
0
0
0
0
0
0
0
0
0
0
0
0
0
0
0
0
0
0
0
0
0
0
0
0
0
0
0
0
0
0
0
0
0
0
0
0
0
0
0
0
0
0
0
0
0
0
0
0
0
0
0
0
0
0
0
0
0
0
0
0
0
0
0
0
0
0
0
0
0
0
0
0
0
0
0
0
0
0
0
0
0
0
0
0
0
0
0
0
0
0
0
0
0
0
0
0
0
0
0
0
0
0
0
0
0
0
0
0
0
0
0
0
0
0
0
0
0
0
0
0
0
0
0
0
0
0
0
0
0
0
0
0
0
0
0
0
0
0
0
0
0
0
0
0
0
0
0
0
0
0
0
0
0
0
0
0
0
0
0
0
0
0
0
0
0
0
0
0
0
0
0
0
0
0
0
0
0
0
0
0
0
0
0
0
0
0
0
0
0
0
0
0
0
0
0
0
0
1.69217e-07
4.4274e-07
7.90391e-07
7.83662e-07
4.96418e-07
3.5537e-07
4.97955e-07
5.26435e-07
4.34672e-07
2.75613e-07
8.82967e-08
1.34192e-08
1.37889e-09
1.54498e-10
1.80045e-08
2.86884e-07
4.93634e-07
3.96245e-07
2.13288e-07
1.5827e-07
9.86048e-08
5.11089e-08
2.5207e-08
1.19691e-08
6.90506e-09
6.37686e-09
9.87137e-09
1.92096e-08
3.72704e-08
6.25321e-08
7.83076e-08
1.07944e-07
1.37458e-07
2.0656e-07
2.50745e-07
3.56185e-07
4.0636e-07
3.07929e-07
9.64461e-08
2.29257e-08
1.39102e-09
1.15697e-10
1.43117e-12
1.48653e-13
6.89903e-11
1.79986e-08
1.51661e-07
3.87197e-07
3.66346e-07
3.24516e-07
2.83763e-07
2.37438e-07
1.89176e-07
1.6872e-07
1.81934e-07
2.36872e-07
3.17636e-07
3.77412e-07
3.99397e-07
3.90681e-07
3.70798e-07
3.69301e-07
3.80241e-07
3.77631e-07
3.7567e-07
4.35611e-07
2.52554e-08
2.48333e-09
6.07619e-10
1.27509e-09
1.55425e-08
4.16178e-09
1.3709e-12
4.67883e-14
8.51918e-20
1.06937e-17
1.21746e-16
1.19139e-16
2.44978e-16
5.96585e-16
3.1842e-16
1.76949e-16
9.17173e-14
1.35694e-11
8.59423e-10
2.4677e-08
1.93921e-08
5.36701e-10
2.70213e-10
4.44431e-10
6.60791e-10
1.21411e-09
1.85143e-09
1.31726e-09
1.02316e-09
9.26022e-10
1.66517e-10
2.21673e-11
6.44411e-14
4.37463e-16
4.7602e-17
8.00939e-21
6.72029e-27
2.76917e-30
6.16939e-41
1.33183e-41
3.46027e-45
4.19229e-48
4.09453e-51
5.8208e-55
1.93145e-59
5.54867e-63
1.66488e-66
3.29894e-69
3.37061e-71
7.16478e-75
1.26097e-78
2.25407e-82
8.8746e-86
1.08153e-88
6.11984e-91
5.26416e-93
3.8302e-95
5.28103e-98
2.72665e-101
1.11945e-104
3.46626e-108
1.08139e-111
2.50229e-115
5.61567e-119
9.60035e-123
1.10985e-126
9.07728e-131
4.36757e-135
8.02708e-143
1.21818e-144
6.70441e-148
6.46597e-151
8.64831e-154
5.62656e-157
1.88339e-160
5.81222e-164
1.54266e-167
5.00668e-171
1.14839e-174
5.8297e-180
1.64382e-185
4.58973e-191
8.52667e-197
1.86546e-202
3.27064e-208
7.93733e-214
1.69409e-219
5.07511e-225
1.31758e-230
5.12754e-236
1.8048e-241
9.19003e-247
4.12595e-252
1.59323e-257
2.80679e-263
3.72322e-269
3.96104e-275
4.31463e-281
4.84393e-302
5.23176e-305
1.257e-310
2.23883e-316
4.10074e-322
0
0
0
0
0
0
0
0
0
0
0
0
0
0
0
0
0
0
0
0
0
0
0
0
0
0
0
0
0
0
0
0
0
0
0
0
0
0
0
0
0
0
0
0
0
0
0
0
0
0
0
0
0
0
0
0
0
0
0
0
0
0
0
0
0
0
0
0
0
0
0
0
0
0
0
0
0
0
0
0
0
0
0
0
0
0
0
0
0
0
0
0
0
0
0
0
0
0
0
0
0
0
0
0
0
0
0
0
0
0
0
0
0
0
0
0
0
0
0
0
0
0
0
0
0
0
0
0
0
0
0
0
0
0
0
0
0
0
0
0
0
0
0
0
0
0
0
0
0
0
0
0
0
0
0
0
0
0
0
0
0
0
0
0
0
0
0
0
0
0
0
0
0
0
0
0
0
0
0
0
0
0
0
0
0
0
0
0
0
0
0
0
0
0
0
0
0
0
0
0
0
0
0
0
0
5.45131e-07
9.84217e-07
8.69603e-07
7.74644e-07
7.05846e-07
5.95303e-07
5.07802e-07
5.33317e-07
4.73143e-07
1.97204e-07
6.08008e-08
2.32695e-08
6.58831e-09
5.7559e-10
3.07265e-08
4.32517e-07
3.09812e-07
1.96761e-07
1.53312e-07
8.68041e-08
4.03709e-08
1.53361e-08
6.79845e-09
3.40812e-09
2.29583e-09
2.05681e-09
2.62932e-09
4.58381e-09
8.73601e-09
1.56223e-08
2.52391e-08
3.72547e-08
6.62663e-08
1.30134e-07
3.14736e-07
4.01914e-07
4.08496e-07
3.76979e-07
2.19901e-07
5.17855e-08
4.02947e-09
1.36093e-09
5.83628e-11
4.58985e-12
4.43982e-11
1.27955e-08
1.04244e-07
4.1662e-07
4.21786e-07
4.07285e-07
4.14943e-07
3.20207e-07
1.81715e-07
1.44599e-07
2.09402e-07
4.27152e-07
3.06612e-07
1.00797e-07
5.09572e-08
4.779e-08
8.22162e-08
3.08696e-07
4.33327e-07
3.91094e-07
3.54683e-07
3.86307e-07
3.86273e-07
1.70503e-08
1.02521e-09
5.61878e-10
3.08642e-09
7.76253e-08
1.22214e-09
8.90761e-12
1.82679e-16
3.92066e-15
3.10823e-14
2.41586e-14
4.24241e-14
1.49278e-13
3.90194e-13
4.97788e-13
2.24961e-12
6.04143e-11
2.24201e-09
4.06607e-08
6.98593e-08
5.20726e-10
5.54475e-11
5.08233e-11
6.26766e-11
1.35225e-10
1.56153e-10
2.17893e-10
2.45981e-10
1.5135e-10
1.54282e-10
6.19633e-11
1.00159e-11
2.54154e-14
1.76452e-16
1.77039e-17
1.4358e-21
1.59275e-26
1.47388e-36
3.29791e-38
8.42661e-42
2.32216e-44
1.2751e-47
1.14886e-51
7.50836e-55
2.61769e-58
8.20254e-62
3.38319e-65
8.8587e-68
1.30599e-71
2.15963e-75
4.00888e-79
8.95858e-83
3.71442e-86
4.29613e-89
1.84568e-91
1.23568e-93
6.11636e-96
1.89494e-98
3.11735e-101
2.49905e-104
1.36725e-107
4.92485e-111
1.68328e-114
4.00255e-118
6.69314e-122
6.42291e-126
1.84801e-130
2.09358e-139
1.60773e-141
3.64126e-145
1.10663e-148
8.26273e-152
1.44017e-154
3.4729e-157
3.48648e-160
1.78447e-163
7.36877e-167
2.94369e-170
9.99354e-174
3.46002e-179
8.71713e-185
1.78439e-190
3.16295e-196
5.5222e-202
1.01696e-207
1.94425e-213
4.28094e-219
9.62057e-225
2.68495e-230
7.99189e-236
3.03286e-241
1.30542e-246
5.25283e-252
1.21818e-257
1.79339e-263
1.93681e-269
2.09897e-275
2.40663e-295
1.89442e-298
3.47432e-304
5.29794e-310
7.67285e-316
1.14129e-321
0
0
0
0
0
0
0
0
0
0
0
0
0
0
0
0
0
0
0
0
0
0
0
0
0
0
0
0
0
0
0
0
0
0
0
0
0
0
0
0
0
0
0
0
0
0
0
0
0
0
0
0
0
0
0
0
0
0
0
0
0
0
0
0
0
0
0
0
0
0
0
0
0
0
0
0
0
0
0
0
0
0
0
0
0
0
0
0
0
0
0
0
0
0
0
0
0
0
0
0
0
0
0
0
0
0
0
0
0
0
0
0
0
0
0
0
0
0
0
0
0
0
0
0
0
0
0
0
0
0
0
0
0
0
0
0
0
0
0
0
0
0
0
0
0
0
0
0
0
0
0
0
0
0
0
0
0
0
0
0
0
0
0
0
0
0
0
0
0
0
0
0
0
0
0
0
0
0
0
0
0
0
0
0
0
0
0
0
0
0
0
0
0
0
0
0
0
0
0
0
0
0
0
0
9.81976e-07
7.42438e-07
6.02794e-07
5.00704e-07
3.70403e-07
1.85286e-07
1.5036e-07
2.97941e-07
4.41306e-07
9.52214e-08
2.26731e-08
1.3925e-08
1.05278e-08
6.59031e-09
3.30579e-08
4.43754e-07
2.1669e-07
2.22126e-07
2.09697e-07
1.09572e-07
4.45781e-08
1.55152e-08
7.03035e-09
3.40357e-09
1.7932e-09
1.26901e-09
1.21606e-09
1.73518e-09
2.81842e-09
4.76179e-09
8.74056e-09
1.42674e-08
3.08537e-08
9.84887e-08
4.03677e-07
2.86288e-07
3.05828e-07
3.25965e-07
2.156e-07
5.96566e-08
1.22961e-08
9.01791e-09
5.28787e-10
2.16038e-11
1.73312e-11
6.99916e-09
6.38803e-08
3.82055e-07
3.94413e-07
1.42448e-07
1.63435e-07
4.0703e-07
1.78542e-07
1.37373e-07
2.35148e-07
4.40974e-07
5.38616e-08
1.16883e-08
4.04172e-09
2.52046e-09
4.24415e-09
1.17481e-08
4.38418e-08
2.0467e-07
4.29069e-07
3.8082e-07
4.00211e-07
2.88893e-07
5.5642e-09
5.88372e-10
1.34338e-09
5.91038e-08
1.36669e-08
4.2055e-10
2.93363e-13
1.51129e-12
6.26042e-12
7.84141e-12
9.61327e-12
1.47608e-11
2.64415e-11
6.55099e-11
2.9328e-10
2.14567e-09
1.55639e-08
1.25865e-07
1.65211e-07
1.07454e-09
2.51628e-11
1.66241e-11
1.86987e-11
2.26048e-11
2.30291e-11
2.82267e-11
4.19564e-11
4.59762e-11
4.99875e-11
5.80886e-11
2.64515e-11
6.38913e-13
9.99154e-16
8.10978e-18
1.19985e-18
5.12556e-24
2.07237e-32
9.38042e-35
5.36684e-38
1.11001e-40
6.09001e-44
4.00379e-47
1.55625e-50
8.60815e-54
3.67609e-57
9.31593e-61
9.74846e-65
1.1107e-68
1.71482e-72
3.43017e-76
8.61752e-80
2.6306e-83
1.28741e-86
1.82326e-89
5.54118e-92
2.51837e-94
9.49498e-97
2.14448e-99
4.05812e-102
5.96508e-105
8.50472e-108
6.89018e-111
3.04286e-114
8.35504e-118
9.49473e-122
2.81903e-126
5.78888e-136
7.81104e-138
1.11027e-141
9.35245e-146
2.31434e-149
1.99886e-152
3.80273e-155
6.4073e-158
8.09968e-161
6.74222e-164
5.17828e-167
2.90428e-170
1.51564e-173
4.53435e-179
1.0097e-184
1.75967e-190
2.95009e-196
4.8389e-202
8.26509e-208
1.4811e-213
2.7768e-219
5.92766e-225
1.37859e-230
3.97053e-236
1.33181e-241
5.10564e-247
1.40667e-252
2.4587e-258
3.01929e-264
3.43769e-270
4.37793e-289
3.37666e-292
3.46173e-298
3.64675e-304
4.13151e-310
4.90379e-316
6.27463e-322
0
0
0
0
0
0
0
0
0
0
0
0
0
0
0
0
0
0
0
0
0
0
0
0
0
0
0
0
0
0
0
0
0
0
0
0
0
0
0
0
0
0
0
0
0
0
0
0
0
0
0
0
0
0
0
0
0
0
0
0
0
0
0
0
0
0
0
0
0
0
0
0
0
0
0
0
0
0
0
0
0
0
0
0
0
0
0
0
0
0
0
0
0
0
0
0
0
0
0
0
0
0
0
0
0
0
0
0
0
0
0
0
0
0
0
0
0
0
0
0
0
0
0
0
0
0
0
0
0
0
0
0
0
0
0
0
0
0
0
0
0
0
0
0
0
0
0
0
0
0
0
0
0
0
0
0
0
0
0
0
0
0
0
0
0
0
0
0
0
0
0
0
0
0
0
0
0
0
0
0
0
0
0
0
0
0
0
0
0
0
0
0
0
0
0
0
0
0
0
0
0
0
0
5.34897e-07
3.72608e-07
3.29835e-07
2.56019e-07
8.96518e-08
2.91613e-08
1.72086e-08
3.22729e-08
3.58362e-07
1.09408e-07
2.20445e-08
2.02381e-08
7.09977e-08
1.59672e-07
2.08908e-07
2.07417e-07
2.58876e-07
3.29056e-07
2.67874e-07
3.95501e-07
5.02852e-07
4.01892e-07
1.63708e-07
5.14891e-08
2.09528e-08
7.18032e-09
2.46655e-09
1.03898e-09
6.50435e-10
6.97417e-10
1.18884e-09
1.97786e-09
2.69718e-09
4.43798e-09
1.44104e-08
1.60577e-07
2.67761e-07
1.27376e-07
1.39873e-07
1.85214e-07
1.39936e-07
6.99032e-08
5.27924e-08
4.26445e-08
1.05747e-09
9.44997e-11
3.39698e-11
1.72668e-11
1.10586e-11
6.5921e-10
1.32425e-08
3.98838e-08
2.15329e-07
1.12042e-07
1.16357e-07
4.25957e-07
1.82496e-07
1.30902e-07
2.07778e-07
4.28252e-07
9.31772e-08
2.0601e-08
6.12554e-09
2.68775e-09
1.11623e-09
1.4126e-09
2.98697e-09
1.25062e-08
9.11271e-08
4.26096e-07
3.69204e-07
4.15406e-07
7.48508e-08
2.00582e-09
6.40615e-10
5.63812e-09
1.05431e-07
5.75618e-09
5.12647e-10
2.09073e-10
6.66024e-11
1.40525e-10
4.1379e-10
2.21471e-09
5.94177e-09
9.82577e-09
1.38071e-08
1.8876e-08
2.49314e-08
5.22725e-08
9.67845e-08
4.08616e-07
6.07386e-08
2.02777e-09
4.55956e-11
1.56712e-11
1.13391e-11
1.16505e-11
1.60709e-11
1.75187e-11
1.87198e-11
1.85619e-11
1.75395e-11
1.76568e-11
1.25786e-11
7.02204e-12
3.53918e-14
8.14707e-17
1.50415e-18
1.55383e-20
9.95588e-25
2.06049e-27
9.72339e-30
4.96766e-32
9.35694e-35
1.85986e-37
1.83167e-40
2.37805e-43
3.07786e-46
1.95178e-49
2.76139e-53
8.76906e-58
4.87173e-62
4.79955e-66
8.29494e-70
1.80858e-73
4.67803e-77
1.53154e-80
6.22195e-84
4.23076e-87
5.12636e-90
1.21166e-92
4.25647e-95
1.1361e-97
2.29421e-100
3.5474e-103
5.16633e-106
6.60124e-109
9.29653e-112
1.42988e-114
7.50782e-118
6.26587e-122
7.86306e-126
1.75652e-129
1.0821e-132
7.00636e-136
1.38929e-139
3.54872e-143
9.82944e-147
5.42515e-150
7.2189e-153
1.0149e-155
1.1334e-158
9.88309e-162
7.03931e-165
4.66664e-168
3.03102e-171
1.60448e-174
3.03263e-180
5.09711e-186
9.60092e-192
1.52314e-197
2.54332e-203
3.97632e-209
6.87904e-215
1.13672e-220
2.24833e-226
4.5387e-232
1.19684e-237
3.49473e-243
1.51909e-248
4.5409e-254
1.0832e-259
1.70743e-265
1.01584e-271
9.53414e-278
7.99605e-284
9.47655e-290
1.55806e-295
2.20268e-301
3.33861e-307
4.76182e-313
7.23144e-319
0
0
0
0
0
0
0
0
0
0
0
0
0
0
0
0
0
0
0
0
0
0
0
0
0
0
0
0
0
0
0
0
0
0
0
0
0
0
0
0
0
0
0
0
0
0
0
0
0
0
0
0
0
0
0
0
0
0
0
0
0
0
0
0
0
0
0
0
0
0
0
0
0
0
0
0
0
0
0
0
0
0
0
0
0
0
0
0
0
0
0
0
0
0
0
0
0
0
0
0
0
0
0
0
0
0
0
0
0
0
0
0
0
0
0
0
0
0
0
0
0
0
0
0
0
0
0
0
0
0
0
0
0
0
0
0
0
0
0
0
0
0
0
0
0
0
0
0
0
0
0
0
0
0
0
0
0
0
0
0
0
0
0
0
0
0
0
0
0
0
0
0
0
0
0
0
0
0
0
0
0
0
0
0
0
0
0
0
0
0
0
0
0
0
0
0
0
0
0
0
0
0
0
0
0
0
0
0
0
0
0
0
0
0
0
0
0
1.58359e-07
1.29432e-07
1.24966e-07
7.69676e-08
1.97167e-08
4.09187e-09
2.03297e-09
3.95458e-09
3.55247e-08
2.60769e-07
4.15686e-08
3.33453e-08
1.06071e-07
2.49579e-07
3.18516e-07
3.71264e-07
4.00314e-07
4.20629e-07
4.641e-07
5.93686e-07
6.01306e-07
6.07071e-07
6.082e-07
3.28059e-07
8.46489e-08
1.78543e-08
3.19014e-09
8.06579e-10
4.28835e-10
4.36747e-10
5.72534e-10
6.26421e-10
7.3156e-10
1.65956e-09
1.13117e-08
4.05379e-07
1.20036e-07
6.04615e-08
6.83244e-08
9.34965e-08
9.01785e-08
7.01132e-08
6.78518e-08
5.13996e-08
3.68362e-09
3.26328e-09
3.61852e-09
2.12416e-09
2.48608e-09
3.01042e-09
4.32382e-09
8.21354e-09
2.35794e-08
7.59756e-08
1.52078e-07
4.16608e-07
2.61757e-07
1.8069e-07
2.11593e-07
2.88476e-07
3.76276e-07
4.24057e-07
3.16753e-07
4.85954e-08
8.23585e-09
1.83961e-09
9.93905e-10
1.80719e-09
1.09864e-08
1.68383e-07
4.12782e-07
3.74471e-07
4.15367e-07
2.43902e-08
1.29092e-09
1.07248e-09
8.2866e-09
9.19898e-08
2.44766e-08
1.19091e-08
7.90301e-09
6.30753e-09
6.47893e-09
1.20196e-08
2.79567e-08
5.40088e-08
7.88261e-08
8.55062e-08
8.8925e-08
4.27478e-07
3.92312e-07
7.7217e-08
2.11701e-08
2.60111e-09
1.43679e-10
2.82043e-11
1.79873e-11
1.17436e-11
1.16144e-11
1.54886e-11
1.75193e-11
1.81104e-11
1.60127e-11
1.04351e-11
1.16343e-11
7.98811e-12
1.90091e-12
6.58935e-15
1.33655e-17
1.80406e-19
1.07733e-20
1.47928e-22
3.50182e-25
6.50118e-28
1.06727e-30
1.44826e-33
1.2425e-36
4.75549e-40
1.33633e-43
2.19568e-47
2.60934e-51
2.32779e-55
1.61305e-59
1.48751e-63
2.13559e-67
4.81156e-71
1.34589e-74
4.42789e-78
1.76713e-81
8.21486e-85
4.81324e-88
3.59356e-91
3.98145e-94
5.06803e-97
6.98967e-100
7.62097e-103
8.53285e-106
8.87656e-109
9.87046e-112
1.22689e-114
1.51467e-117
3.74673e-120
2.39793e-123
1.10282e-126
4.07354e-130
6.56123e-134
8.1134e-138
1.01493e-141
2.08221e-145
7.7176e-149
5.24473e-152
5.20494e-155
4.61476e-158
3.36668e-161
2.45315e-164
1.60534e-167
1.0444e-170
5.78617e-174
1.72961e-179
3.8149e-185
9.08871e-191
1.80266e-196
3.87031e-202
7.10632e-208
1.63095e-213
2.87156e-219
6.52254e-225
1.22765e-230
3.07842e-236
6.90072e-242
2.13273e-247
5.97973e-253
1.81189e-258
3.81982e-264
6.4505e-270
8.74126e-276
1.27137e-281
2.01181e-287
4.47142e-293
7.94413e-299
1.48274e-304
2.57365e-310
4.53874e-316
7.36158e-322
0
0
0
0
0
0
0
0
0
0
0
0
0
0
0
0
0
0
0
0
0
0
0
0
0
0
0
0
0
0
0
0
0
0
0
0
0
0
0
0
0
0
0
0
0
0
0
0
0
0
0
0
0
0
0
0
0
0
0
0
0
0
0
0
0
0
0
0
0
0
0
0
0
0
0
0
0
0
0
0
0
0
0
0
0
0
0
0
0
0
0
0
0
0
0
0
0
0
0
0
0
0
0
0
0
0
0
0
0
0
0
0
0
0
0
0
0
0
0
0
0
0
0
0
0
0
0
0
0
0
0
0
0
0
0
0
0
0
0
0
0
0
0
0
0
0
0
0
0
0
0
0
0
0
0
0
0
0
0
0
0
0
0
0
0
0
0
0
0
0
0
0
0
0
0
0
0
0
0
0
0
0
0
0
0
0
0
0
0
0
0
0
0
0
0
0
0
0
0
0
0
0
0
0
0
0
0
0
0
0
0
0
0
0
0
0
2.93424e-08
3.34752e-08
3.45337e-08
1.78765e-08
3.78919e-09
6.51984e-10
3.47576e-10
6.31447e-10
5.35229e-09
3.58228e-07
1.18128e-07
5.28369e-08
1.03662e-07
2.65718e-07
3.51896e-07
4.198e-07
5.13462e-07
5.50492e-07
5.7946e-07
5.74772e-07
5.79966e-07
5.95677e-07
6.39499e-07
6.09856e-07
1.8699e-07
2.01473e-08
2.51286e-09
5.86866e-10
3.24498e-10
2.83952e-10
2.68656e-10
2.56261e-10
3.30912e-10
1.25319e-09
1.53347e-08
3.20639e-07
6.69673e-08
4.22736e-08
4.86171e-08
6.26057e-08
6.74844e-08
6.72618e-08
6.88582e-08
7.26531e-08
8.63367e-08
9.67628e-08
1.0357e-07
1.30282e-07
1.95099e-07
4.24677e-07
1.89577e-07
2.35375e-07
2.18665e-07
1.1229e-07
7.66128e-08
2.18262e-07
4.11135e-07
4.16142e-07
4.04765e-07
3.60699e-07
3.40948e-07
4.02668e-07
4.28821e-07
4.29608e-07
1.54276e-07
1.48883e-08
1.79335e-09
7.61941e-10
1.85839e-09
1.47825e-08
2.13992e-07
4.08634e-07
3.96157e-07
3.38572e-07
1.29067e-08
1.73653e-09
1.43219e-09
5.27007e-09
2.92916e-08
1.22164e-07
1.87498e-07
2.64718e-07
3.31436e-07
3.61579e-07
3.68118e-07
3.29032e-07
2.54331e-07
2.13659e-07
2.3579e-07
2.84042e-07
4.7684e-08
1.06889e-08
5.94167e-09
3.01875e-09
1.02602e-09
2.0823e-10
5.52288e-11
2.36189e-11
1.76358e-11
1.62451e-11
1.66535e-11
1.81449e-11
1.82198e-11
1.53906e-11
1.00433e-11
5.28528e-12
4.92923e-12
1.30677e-12
3.45346e-15
8.97387e-18
1.15591e-19
6.53042e-22
1.86377e-24
3.31416e-27
3.54558e-30
6.14737e-33
4.98512e-36
5.19244e-39
2.92348e-42
1.11954e-45
2.44513e-49
4.39669e-53
4.74013e-57
3.46872e-61
3.70635e-65
5.5263e-69
1.15423e-72
2.75072e-76
7.24848e-80
1.92015e-83
6.48524e-87
2.43261e-90
1.33486e-93
7.51597e-97
6.23678e-100
4.45339e-103
3.90388e-106
3.37196e-109
2.68211e-112
2.75668e-115
2.28629e-118
2.41516e-121
2.25805e-124
1.41387e-127
6.16207e-131
1.90055e-134
4.53507e-138
9.29998e-142
2.38679e-145
9.27491e-149
4.90389e-152
2.98797e-155
2.21402e-158
1.41291e-161
8.728e-165
5.19932e-168
3.29465e-171
1.844e-174
4.88169e-180
1.14353e-185
2.6891e-191
5.85232e-197
1.41754e-202
2.90593e-208
6.12578e-214
1.2112e-219
2.52133e-225
5.10553e-231
1.13212e-236
2.52701e-242
6.48483e-248
1.72068e-253
5.36053e-259
1.69237e-264
4.76314e-270
1.23834e-275
2.93168e-281
7.11866e-287
1.77545e-292
3.98188e-298
8.93574e-304
1.78264e-309
3.25946e-315
5.31615e-321
0
0
0
0
0
0
0
0
0
0
0
0
0
0
0
0
0
0
0
0
0
0
0
0
0
0
0
0
0
0
0
0
0
0
0
0
0
0
0
0
0
0
0
0
0
0
0
0
0
0
0
0
0
0
0
0
0
0
0
0
0
0
0
0
0
0
0
0
0
0
0
0
0
0
0
0
0
0
0
0
0
0
0
0
0
0
0
0
0
0
0
0
0
0
0
0
0
0
0
0
0
0
0
0
0
0
0
0
0
0
0
0
0
0
0
0
0
0
0
0
0
0
0
0
0
0
0
0
0
0
0
0
0
0
0
0
0
0
0
0
0
0
0
0
0
0
0
0
0
0
0
0
0
0
0
0
0
0
0
0
0
0
0
0
0
0
0
0
0
0
0
0
0
0
0
0
0
0
0
0
0
0
0
0
0
0
0
0
0
0
0
0
0
0
0
0
0
0
0
0
0
0
0
0
0
0
0
0
0
0
0
0
0
0
0
0
3.26145e-09
5.82257e-09
6.03531e-09
3.02517e-09
7.5314e-10
2.23648e-10
1.28654e-10
2.1397e-10
9.53404e-10
1.30692e-08
3.86107e-07
3.35443e-07
3.5174e-07
4.31665e-07
4.68001e-07
5.13399e-07
5.46268e-07
5.44774e-07
5.70927e-07
5.90427e-07
5.78813e-07
5.9785e-07
6.09597e-07
4.79043e-07
8.46536e-08
8.71794e-09
1.25144e-09
3.71498e-10
2.53777e-10
2.06556e-10
1.69379e-10
1.71738e-10
2.37155e-10
1.29499e-09
1.58491e-08
3.6498e-07
7.54828e-08
3.63587e-08
3.5843e-08
4.66569e-08
5.4854e-08
6.476e-08
7.142e-08
7.99553e-08
1.00977e-07
1.28557e-07
1.75393e-07
2.97644e-07
3.93683e-07
2.89581e-07
3.72636e-07
7.37675e-08
1.33998e-07
6.97496e-08
5.69576e-08
5.74835e-08
5.40045e-08
4.06878e-08
2.79408e-08
2.92764e-08
5.63907e-08
2.16765e-07
3.94031e-07
2.75329e-07
4.76151e-08
1.00991e-08
1.4668e-09
4.46002e-10
4.51403e-10
2.06226e-09
1.89538e-08
1.75672e-07
4.14487e-07
4.12376e-07
2.63844e-07
1.92108e-08
2.76972e-09
2.56453e-09
4.29201e-09
8.64275e-09
1.33553e-08
2.34733e-08
2.68706e-08
2.76161e-08
2.42804e-08
1.72902e-08
8.28284e-09
6.05792e-09
6.29826e-09
1.57836e-08
1.16908e-08
4.25535e-09
1.49109e-09
9.2601e-10
4.06048e-10
1.44365e-10
6.06617e-11
3.64347e-11
2.37109e-11
2.08771e-11
1.92491e-11
1.88059e-11
1.93987e-11
1.89648e-11
1.70457e-11
1.12205e-11
5.39174e-12
4.34859e-12
1.52333e-12
6.89694e-15
6.44482e-17
1.65181e-19
3.12087e-22
3.07548e-25
5.28461e-28
4.26843e-31
6.40543e-34
4.21082e-37
3.86602e-40
1.6666e-43
5.79284e-47
1.32834e-50
2.03983e-54
1.73482e-58
1.43312e-62
1.39811e-66
1.97599e-70