/*--------------------------------*- C++ -*----------------------------------*\
| =========                 |                                                 |
| \\      /  F ield         | OpenFOAM: The Open Source CFD Toolbox           |
|  \\    /   O peration     | Version:  2.1.1                                 |
|   \\  /    A nd           | Web:      www.OpenFOAM.org                      |
|    \\/     M anipulation  |                                                 |
\*---------------------------------------------------------------------------*/
FoamFile
{
    version     2.0;
    format      ascii;
    class       volScalarField;
    location    "0.002350000";
    object      k;
}
// * * * * * * * * * * * * * * * * * * * * * * * * * * * * * * * * * * * * * //

dimensions      [0 2 -2 0 0 0 0];

internalField   nonuniform List<scalar> 
12384
(
0.148318
0.19433
0.233316
0.24754
0.284047
0.318946
0.254416
0.172565
0.187031
0.177702
0.157014
0.151617
0.141733
0.107362
0.117294
0.182327
0.199713
0.194042
0.180923
0.207786
0.228173
0.272619
0.317857
0.378847
0.463009
0.547175
0.671626
0.830012
0.892413
1.15131
1.29573
1.415
1.41538
1.35364
1.25462
1.3575
1.25513
1.05483
0.771437
0.631772
0.405407
0.278713
0.201459
0.120327
0.128875
0.360299
2.98429
6.2892
14.7602
23.5305
27.483
28.822
23.5419
19.4977
14.1585
9.90269
6.52292
3.88434
2.31838
1.59914
1.47453
1.57032
1.49613
1.68713
1.44634
1.25988
1.00732
0.85052
0.553675
0.366422
0.223259
0.149413
0.130796
0.110458
0.111338
0.120747
0.120343
0.129336
0.154205
0.256672
0.787334
3.67936
16.3908
38.4156
47.3439
50.4914
33.4486
11.5578
5.03095
2.63008
1.76229
1.46286
1.43597
1.24683
1.14161
0.929181
0.823842
0.556233
0.348185
0.220173
0.146885
0.12292
0.116363
0.112978
0.102533
0.105375
0.107181
0.10918
0.113802
0.119247
0.132356
0.142558
0.157459
0.171109
0.184983
0.195215
0.199399
0.197493
0.189317
0.177424
0.16418
0.151148
0.139205
0.129048
0.120878
0.11517
0.111776
0.109735
0.108954
0.108645
0.107954
0.107489
0.105948
0.104468
0.0998762
0.101041
0.101108
0.101699
0.101821
0.102064
0.102185
0.102084
0.102105
0.101846
0.101809
0.101512
0.101443
0.10114
0.101059
0.100761
0.100674
0.100379
0.100288
0.0999805
0.099882
0.0995734
0.0994869
0.0991913
0.0991174
0.0988342
0.098752
0.0985015
0.0983916
0.0981841
0.0976541
0.0976931
0.0976973
0.0976806
0.0977011
0.0976857
0.0977046
0.0976818
0.0976898
0.0976586
0.0976666
0.0976327
0.0976413
0.0976089
0.0976134
0.0975883
0.0975895
0.0975703
0.097569
0.0975533
0.0975519
0.097539
0.0975383
0.0975272
0.0975264
0.0975179
0.0975165
0.0975098
0.097509
0.0974691
0.0974568
0.0974882
0.0974891
0.0974886
0.0974902
0.0974907
0.0974926
0.0974911
0.0974935
0.0974909
0.097493
0.097491
0.0974916
0.0974911
0.0974897
0.0974912
0.0974899
0.0974905
0.0974906
0.0974897
0.0974907
0.097489
0.0974903
0.0974883
0.0974887
0.0974867
0.0974862
0.0974844
0.0974797
0.0974715
0.0974721
0.097482
0.0974835
0.0974853
0.0974868
0.0974872
0.0974895
0.0974882
0.0974906
0.097489
0.0974906
0.0974896
0.0974898
0.0974902
0.0974886
0.0974906
0.0974892
0.0974901
0.0974902
0.0974894
0.0974905
0.0974889
0.0974903
0.0974882
0.0974886
0.0974866
0.0974863
0.0974842
0.0974797
0.0974715
0.0974742
0.0974786
0.0974825
0.097486
0.0974888
0.09749
0.0974896
0.0974914
0.0974899
0.0974915
0.0974901
0.0974907
0.0974904
0.0974892
0.0974903
0.0974884
0.0974903
0.0974894
0.0974887
0.0974903
0.0974895
0.0974891
0.0974912
0.0974894
0.0974906
0.0974895
0.0974886
0.0974888
0.0974865
0.0974567
0.097473
0.0974819
0.0974836
0.0974853
0.0974867
0.0974873
0.0974893
0.0974884
0.0974904
0.0974891
0.0974905
0.0974897
0.0974899
0.0974902
0.0974886
0.0974906
0.0974892
0.0974901
0.0974903
0.0974893
0.0974903
0.0974887
0.0974899
0.0974879
0.0974884
0.0974862
0.0974864
0.0974843
0.0974798
0.0974714
0.0974575
0.0974846
0.0974847
0.0974872
0.0974907
0.097491
0.0974925
0.0974912
0.0974925
0.0974906
0.0974918
0.0974907
0.0974912
0.0974907
0.0974924
0.0974926
0.0974905
0.0974905
0.0974904
0.0974912
0.0974902
0.0974919
0.0974907
0.0974917
0.0974903
0.0974894
0.0974863
0.0974842
0.0974847
0.0974571
0.0974721
0.097482
0.097485
0.0974857
0.0974902
0.0974878
0.0974938
0.097489
0.0974949
0.0974896
0.0974946
0.0974901
0.0974928
0.0974906
0.0974904
0.0974902
0.0974882
0.0974899
0.0974898
0.0974889
0.097491
0.0974887
0.0974911
0.097488
0.0974894
0.0974862
0.0974866
0.0974842
0.0974796
0.0974715
0.218024
0.693411
1.07975
1.31594
1.63286
1.93082
1.58418
1.51801
1.5789
1.3643
1.08688
0.907495
0.668524
0.148373
0.228054
1.24048
1.55756
1.69001
2.0939
3.01114
4.60693
6.67378
8.93576
11.46
13.4217
15.6748
17.0919
17.8378
17.8716
17.7507
17.1492
16.3792
14.5909
13.4632
14.1588
15.5689
13.8017
11.8916
9.76664
7.37346
4.85594
2.95868
1.76329
0.263724
12.427
107.425
222.561
265.81
314.367
298.486
238.875
231.596
209.014
174.035
148.078
146.597
108.478
53.9997
34.6076
28.8862
24.6326
22.5905
20.786
23.6944
25.5786
22.3021
18.6009
15.1214
12.0127
8.81285
5.5052
2.90361
1.35635
0.253896
0.192782
1.288
6.52977
29.4774
105.967
281.822
545.022
793.117
859.128
811.428
763.976
692.253
379.408
119.069
44.9537
20.5084
12.2658
9.35177
8.9139
9.02371
9.46727
9.53543
9.0375
8.00445
6.44255
4.4952
2.67636
1.38678
0.589572
0.157168
0.106361
0.150096
0.175704
0.216291
0.276672
0.356276
0.460151
0.601419
0.726887
0.792761
0.949276
1.1458
1.35808
1.53289
1.64982
1.69215
1.66963
1.59316
1.47976
1.33518
1.1662
0.981317
0.785817
0.593149
0.425995
0.304083
0.218994
0.163486
0.129613
0.106874
0.100634
0.108625
0.1095
0.110548
0.112014
0.113208
0.114509
0.115357
0.115816
0.115869
0.115471
0.114827
0.1139
0.112833
0.111729
0.110541
0.109515
0.108412
0.107513
0.106542
0.105791
0.104953
0.104367
0.103661
0.103225
0.102682
0.102366
0.102004
0.10174
0.0982385
0.0975752
0.100815
0.100833
0.100859
0.100841
0.100815
0.100818
0.100773
0.100771
0.100708
0.100692
0.100619
0.100591
0.100505
0.100476
0.100416
0.100431
0.100407
0.100428
0.100388
0.100401
0.100353
0.100356
0.100299
0.100296
0.100231
0.100222
0.10016
0.100097
0.0973957
0.0973761
0.100082
0.100124
0.100094
0.100103
0.100067
0.100077
0.100043
0.100053
0.100012
0.100017
0.0999719
0.099969
0.0999164
0.0999146
0.0998933
0.0999361
0.0999442
0.0999926
0.0999907
0.100032
0.100023
0.100057
0.100043
0.100076
0.100062
0.100098
0.100111
0.100069
0.0973703
0.0973785
0.100054
0.100128
0.100091
0.100101
0.100066
0.100079
0.100043
0.100056
0.100017
0.100023
0.0999783
0.099974
0.0999192
0.0999146
0.0998909
0.0999323
0.0999404
0.0999899
0.099988
0.100031
0.100023
0.100056
0.100042
0.100076
0.100061
0.100097
0.100111
0.100068
0.0973705
0.0973683
0.100073
0.100102
0.100099
0.100062
0.100073
0.100039
0.100052
0.100017
0.100026
0.0999857
0.0999888
0.0999423
0.099935
0.0998929
0.0999122
0.0999165
0.0999712
0.0999757
0.100015
0.100039
0.100042
0.100077
0.100063
0.100095
0.100082
0.100115
0.100097
0.100067
0.0973718
0.0973784
0.100053
0.100126
0.10009
0.1001
0.100064
0.100077
0.100041
0.100053
0.100013
0.100019
0.0999759
0.0999726
0.0999184
0.0999153
0.0998906
0.0999323
0.0999406
0.0999902
0.0999892
0.100031
0.100024
0.100059
0.100045
0.100079
0.100064
0.100099
0.100113
0.100067
0.0973707
0.0973678
0.100069
0.100096
0.100084
0.100089
0.100058
0.100071
0.100038
0.100051
0.100012
0.100017
0.0999723
0.0999683
0.0999147
0.0999031
0.0999044
0.0999142
0.0999666
0.0999696
0.100014
0.100009
0.100048
0.100035
0.100068
0.100056
0.100087
0.100079
0.100101
0.100068
0.0973694
0.0973779
0.10005
0.100117
0.100077
0.100088
0.100053
0.10007
0.100037
0.100055
0.100018
0.100028
0.0999841
0.0999827
0.0999285
0.0999227
0.0998908
0.0999277
0.0999365
0.0999874
0.0999869
0.100031
0.100024
0.100059
0.100044
0.100078
0.100062
0.100095
0.100109
0.100064
0.0973707
0.249234
1.05581
1.36742
1.66257
2.15853
3.03704
2.20798
1.77413
1.8016
1.62743
1.31549
1.09499
0.843236
0.155628
0.32034
2.48262
3.67453
5.10614
8.74202
15.0707
22.3227
27.317
30.0965
32.1093
34.821
37.7198
39.5511
38.8076
36.6872
34.5178
32.4709
27.3031
20.6317
19.125
17.0242
13.0714
13.3135
14.8155
12.4781
9.05875
6.28796
4.34953
2.89978
0.371847
21.7166
173.775
271.651
243.842
291.952
325.164
299.176
348.738
452.013
572.079
679.144
777.967
686.749
519.648
364.979
234.921
152.284
98.1614
62.7865
47.859
37.6274
33.1289
30.7632
23.9585
15.3837
9.35788
5.53207
3.1577
1.92233
0.341001
0.333549
3.27258
16.4074
69.2852
219.113
489.181
788.05
965.59
1002.33
1219.38
2108.54
2911.72
1936.28
663.685
225.488
116.076
72.0456
43.557
29.3672
21.8233
17.7661
14.1899
11.1798
8.2748
5.4784
3.35214
1.92492
1.08292
0.58658
0.152169
0.112032
0.219723
0.286537
0.40397
0.615291
0.9682
1.3648
1.9077
2.05831
2.01552
1.9831
1.97278
1.97638
1.93762
1.83138
1.67889
1.49648
1.30573
1.11333
0.934821
0.758512
0.599682
0.466286
0.362519
0.282316
0.221518
0.1778
0.146011
0.125396
0.106041
0.101028
0.11462
0.114715
0.114874
0.115203
0.115304
0.11519
0.114992
0.114388
0.113866
0.112945
0.112127
0.111116
0.110102
0.109194
0.108102
0.107363
0.106387
0.105831
0.104994
0.104563
0.103872
0.103518
0.10299
0.102692
0.102301
0.102082
0.101795
0.101593
0.0983986
0.0979012
0.100829
0.100775
0.100747
0.100713
0.100672
0.100649
0.100588
0.10057
0.100506
0.100479
0.100413
0.100371
0.100297
0.100259
0.100212
0.100235
0.100231
0.100268
0.100249
0.100274
0.100241
0.100257
0.100212
0.100218
0.100162
0.100161
0.100105
0.100084
0.0976621
0.0976506
0.0999828
0.100008
0.0999773
0.0999912
0.09995
0.0999632
0.0999184
0.0999295
0.0998816
0.0998869
0.0998293
0.0998215
0.0997567
0.0997514
0.0997248
0.0997812
0.0997934
0.0998571
0.0998592
0.0999106
0.0999032
0.0999504
0.0999384
0.0999826
0.0999727
0.100007
0.100003
0.0999921
0.0976082
0.0976094
0.100012
0.100032
0.0999879
0.100007
0.0999638
0.0999791
0.0999334
0.0999443
0.0998943
0.0998989
0.0998404
0.0998272
0.0997594
0.0997506
0.0997213
0.0997758
0.0997877
0.0998515
0.0998537
0.0999066
0.0998999
0.099947
0.0999372
0.0999817
0.0999719
0.100006
0.100004
0.0999918
0.097608
0.0976056
0.0999912
0.0999886
0.0999919
0.0999548
0.099971
0.0999302
0.099944
0.0998989
0.0999096
0.099859
0.0998592
0.0997973
0.0997868
0.0997275
0.0997459
0.0997473
0.099821
0.0998462
0.0998864
0.0999093
0.09992
0.0999674
0.0999561
0.0999974
0.0999807
0.100016
0.0999951
0.100001
0.0976525
0.0976062
0.100007
0.10003
0.0999859
0.100006
0.0999626
0.0999769
0.0999317
0.0999431
0.0998932
0.0998984
0.0998401
0.0998289
0.0997618
0.0997523
0.0997207
0.0997735
0.0997862
0.0998497
0.0998527
0.0999061
0.0998997
0.099948
0.0999371
0.0999827
0.0999738
0.100007
0.100006
0.0999939
0.0976087
0.0976493
0.0999782
0.0999932
0.0999918
0.0999906
0.0999499
0.0999628
0.0999186
0.0999294
0.0998809
0.0998873
0.0998293
0.0998222
0.0997568
0.0997355
0.0997361
0.0997579
0.099823
0.0998302
0.099888
0.0998813
0.0999306
0.0999189
0.0999639
0.0999501
0.0999923
0.0999835
0.0999913
0.0999686
0.0976495
0.097605
0.100004
0.100025
0.0999806
0.1
0.0999578
0.0999729
0.0999264
0.0999395
0.0998904
0.0998975
0.0998413
0.0998332
0.0997667
0.0997556
0.0997164
0.0997646
0.0997789
0.0998435
0.099847
0.0999006
0.0998949
0.0999448
0.0999344
0.0999799
0.0999713
0.100004
0.100007
0.0999938
0.0976074
0.329377
1.92209
2.21624
3.11683
4.81612
6.73516
5.32067
4.76342
4.27037
2.83761
1.83744
1.42305
1.07192
0.166223
0.404884
6.40953
15.5109
21.2655
27.7857
35.7406
46.0066
54.3241
59.0496
64.3087
74.3883
87.8572
97.2444
99.9377
99.5212
96.6116
86.9993
70.2592
52.9459
44.9004
35.7576
27.2548
25.1163
24.1782
19.4443
12.7611
9.41015
6.4533
4.57054
0.632298
31.7808
260.178
312.122
222.773
198.985
272.913
389.523
667.383
1055.25
1442.4
1796.77
2151.62
2217.56
2006.6
1618.45
1174.31
753.481
460.772
277.479
171.607
110.087
72.3179
59.6872
45.0739
28.1237
17.0334
8.84278
4.86501
3.16563
0.513173
0.659
7.20618
29.0809
93.8822
214.866
350.025
428.514
457.525
712.538
1990.27
4969.88
8079.65
6708.23
2139.54
930.927
523.117
243.106
147.814
109.384
78.5369
51.265
34.2064
22.9882
15.0162
9.00873
4.93655
2.53532
1.33176
0.761847
0.153252
0.126986
0.446168
0.810251
1.59269
2.95027
4.07202
4.83244
6.13762
6.8444
6.56503
5.76522
4.87182
4.16061
3.62087
3.15005
2.68789
2.23303
1.81744
1.45271
1.14571
0.883679
0.673336
0.509803
0.387897
0.29625
0.23007
0.182766
0.149839
0.128922
0.106423
0.101526
0.126784
0.125711
0.124511
0.123427
0.122125
0.120804
0.119309
0.11781
0.116304
0.11489
0.11341
0.112121
0.110777
0.109652
0.108513
0.10758
0.106578
0.105847
0.105025
0.104423
0.103792
0.103278
0.10283
0.102399
0.102073
0.101758
0.101506
0.101237
0.0982953
0.0977684
0.100562
0.10053
0.100495
0.10045
0.1004
0.100372
0.100333
0.1003
0.100271
0.100233
0.100204
0.100164
0.100139
0.100104
0.100078
0.100051
0.100024
0.100001
0.0999704
0.0999455
0.0999131
0.0998866
0.0998514
0.0998195
0.099777
0.0997454
0.0997047
0.099643
0.0974753
0.0974598
0.099602
0.0996258
0.0996109
0.0996086
0.0995973
0.0995964
0.0995887
0.0995892
0.0995831
0.0995832
0.099577
0.0995768
0.0995713
0.0995722
0.0995695
0.0995738
0.0995731
0.0995791
0.0995786
0.0995844
0.0995825
0.0995882
0.0995873
0.0995949
0.0995924
0.0996077
0.0996066
0.0995758
0.0974846
0.0974861
0.0995667
0.099602
0.0995912
0.099591
0.0995851
0.0995866
0.0995821
0.0995842
0.0995796
0.0995806
0.0995749
0.0995757
0.0995703
0.0995718
0.0995694
0.099574
0.0995734
0.0995795
0.0995791
0.0995849
0.0995831
0.0995886
0.0995877
0.0995952
0.0995924
0.0996073
0.0996067
0.0995763
0.0974848
0.0974856
0.0995762
0.0995972
0.0996077
0.0995956
0.0995961
0.0995888
0.0995899
0.0995842
0.0995857
0.0995799
0.0995803
0.0995742
0.0995751
0.0995703
0.099573
0.0995711
0.099577
0.0995729
0.0995906
0.0995961
0.0995814
0.0995864
0.0995848
0.0995907
0.0995898
0.0995981
0.0995958
0.0995752
0.0974567
0.0974879
0.0995713
0.0996024
0.0995913
0.0995912
0.0995851
0.0995868
0.0995823
0.0995843
0.0995796
0.0995808
0.0995752
0.0995758
0.0995704
0.0995717
0.0995691
0.0995735
0.0995728
0.0995786
0.0995784
0.0995842
0.0995826
0.0995883
0.099588
0.0995954
0.0995927
0.0996065
0.0996069
0.0995751
0.0974844
0.0974565
0.0995826
0.0995951
0.0995899
0.0996028
0.0995927
0.0995932
0.0995859
0.0995871
0.0995813
0.099582
0.0995758
0.0995764
0.0995702
0.0995836
0.0995829
0.0995694
0.0995754
0.0995746
0.0995803
0.0995794
0.099585
0.0995837
0.0995903
0.0995902
0.0995997
0.0995931
0.0996047
0.0995863
0.0974565
0.0974868
0.0995685
0.0996004
0.0995902
0.0995902
0.0995853
0.0995871
0.0995838
0.0995856
0.0995819
0.0995828
0.0995776
0.0995772
0.0995709
0.0995712
0.099568
0.0995714
0.0995705
0.0995766
0.0995775
0.099584
0.0995832
0.099589
0.0995887
0.0995967
0.0995931
0.0996069
0.0996074
0.0995765
0.0974851
0.375758
2.85684
3.61392
5.2009
7.98455
12.2127
11.0765
10.6074
9.80762
6.78648
3.86677
2.16913
1.57954
0.210184
0.777417
17.507
47.8135
71.3731
78.123
83.356
92.3358
103.874
115.41
130.788
150.204
169.366
181.02
184.631
186.884
187.709
180.215
160.35
130.461
100.61
78.3546
66.1081
55.7375
51.4974
42.5982
17.319
11.2192
7.97011
6.5785
1.11117
43.5205
366.171
377.123
191.263
143.182
336.101
680.046
1261.01
1799.96
2177.85
2515.24
2931.45
3207.18
3219.43
3004.43
2589.66
2047.82
1509.12
1041.52
644.482
376.352
224.746
159.216
121.755
89.3104
36.3333
17.2619
9.66221
6.49507
0.994267
0.929451
11.1612
31.7388
73.5665
130.17
167.298
153.067
157.013
629.854
3180.46
8523.02
13748.8
15675.4
4797.8
2234.66
1408.4
774.252
419.708
255.64
168.607
133.304
94.5148
57.8495
34.8615
19.719
10.2093
5.00135
2.53992
1.38832
0.208336
0.163391
1.19993
2.60197
3.25202
3.93149
5.79095
10.5669
17.8872
22.509
21.442
17.3864
13.0538
9.60763
7.27897
5.72339
4.59472
3.65497
2.85356
2.1921
1.67603
1.25951
0.917453
0.669675
0.491525
0.364639
0.274744
0.211238
0.168113
0.140635
0.107613
0.102302
0.148965
0.146955
0.142646
0.138333
0.134655
0.130923
0.127647
0.124405
0.121671
0.11909
0.11683
0.114723
0.112987
0.111176
0.109928
0.108421
0.107553
0.106318
0.105724
0.104703
0.10429
0.103477
0.103174
0.102553
0.102295
0.101849
0.101626
0.101309
0.0983343
0.0979796
0.100723
0.100675
0.100581
0.100575
0.10054
0.10049
0.100468
0.100407
0.10039
0.10033
0.100316
0.100256
0.100245
0.100187
0.100178
0.100123
0.100114
0.100062
0.100053
0.1
0.0999922
0.099937
0.0999282
0.0998674
0.0998519
0.0997878
0.0997706
0.0996789
0.097522
0.0975081
0.099638
0.0996583
0.0996724
0.0996449
0.0996666
0.0996399
0.0996631
0.0996361
0.0996605
0.0996329
0.0996565
0.0996293
0.0996522
0.0996267
0.0996505
0.099627
0.0996526
0.0996291
0.099655
0.0996305
0.0996554
0.0996301
0.0996545
0.0996295
0.0996543
0.0996331
0.0996443
0.0996322
0.0974822
0.0974839
0.0996297
0.0996288
0.0996551
0.0996296
0.0996556
0.0996303
0.099656
0.0996307
0.099656
0.0996297
0.0996535
0.0996276
0.0996507
0.0996259
0.09965
0.0996268
0.0996527
0.0996291
0.0996552
0.0996307
0.0996556
0.0996301
0.0996545
0.0996296
0.0996544
0.0996334
0.0996438
0.0996326
0.097482
0.0974852
0.0996297
0.0996532
0.0996318
0.0996558
0.0996305
0.0996563
0.0996308
0.099657
0.0996311
0.099656
0.0996296
0.0996533
0.0996275
0.0996508
0.0996265
0.0996507
0.0996262
0.0996503
0.0996369
0.0996329
0.0996542
0.0996294
0.099655
0.0996311
0.0996567
0.0996336
0.0996599
0.0996062
0.0975076
0.097481
0.0996321
0.0996281
0.0996547
0.0996291
0.0996555
0.09963
0.0996562
0.0996307
0.0996563
0.0996296
0.0996538
0.0996276
0.0996508
0.0996259
0.0996496
0.0996265
0.0996521
0.0996286
0.0996545
0.0996301
0.0996547
0.0996294
0.0996538
0.0996289
0.0996538
0.0996339
0.0996425
0.0996318
0.097482
0.0975086
0.0996105
0.0996545
0.0996529
0.0996322
0.0996563
0.0996306
0.0996556
0.0996304
0.099656
0.0996295
0.0996537
0.0996269
0.0996504
0.099626
0.0996274
0.0996497
0.0996262
0.0996528
0.0996286
0.0996551
0.0996296
0.0996548
0.0996293
0.0996544
0.0996295
0.0996532
0.099648
0.0996131
0.0975062
0.0974823
0.0996293
0.0996267
0.0996548
0.0996288
0.0996557
0.0996302
0.0996572
0.0996313
0.0996579
0.099631
0.0996555
0.0996281
0.0996509
0.0996247
0.0996484
0.0996247
0.0996496
0.0996272
0.0996545
0.0996305
0.0996558
0.0996302
0.0996551
0.0996301
0.0996551
0.0996358
0.0996437
0.0996344
0.0974824
0.434381
3.64738
5.54201
8.38841
11.7531
15.7891
14.3309
15.0901
15.7116
15.0518
12.2718
5.46927
2.53101
0.239416
1.68316
43.3642
113.969
161.738
172.313
173.257
182.313
200.007
222.425
243.609
260.411
270.166
269.283
266.355
267.74
270.28
265.589
248.456
219.815
192.007
170.716
155.875
134.089
109.662
70.9711
33.6
15.0782
11.146
9.77286
2.36289
47.432
495.536
484.138
161.218
136.615
794.377
1155.92
1712.35
2189.47
2459.93
2647.96
2918.18
3186.96
3430.42
3606.61
3598.36
3335.97
2872.02
2317.11
1625.61
1049.38
648.938
417.824
281.485
219.693
119.164
48.9898
24.8559
17.335
2.46852
0.978659
13.5741
26.693
45.4491
65.0444
69.3396
51.4613
69.0618
1093.28
5020.24
11776.3
17336.8
22926.2
7783.75
3678.58
2161.7
1301.51
788.143
504.06
335.679
247.941
177.447
131.133
82.6586
47.3334
24.52
11.8191
5.83286
3.14601
0.37655
0.162733
2.13634
2.64857
2.9729
5.11247
14.5177
38.8362
65.1523
78.5522
68.8556
50.6662
34.0127
22.3128
15.0992
10.7917
8.0916
6.17945
4.69252
3.51438
2.60144
1.90612
1.38913
0.970633
0.680959
0.484508
0.35254
0.262268
0.202226
0.164529
0.109285
0.104436
0.196025
0.197456
0.182435
0.166809
0.155298
0.146132
0.139243
0.133275
0.128489
0.124348
0.120913
0.117946
0.115546
0.113254
0.111616
0.109802
0.108668
0.107218
0.106444
0.105304
0.10476
0.103871
0.103474
0.102808
0.102518
0.102024
0.101795
0.101446
0.0983548
0.0979984
0.10089
0.100854
0.100736
0.100702
0.100626
0.100575
0.100532
0.100482
0.100449
0.100398
0.100368
0.100316
0.100289
0.100245
0.100224
0.100177
0.10016
0.100113
0.100096
0.100048
0.100033
0.0999841
0.099968
0.0999141
0.0998913
0.0998289
0.0998019
0.0997214
0.0975236
0.0975103
0.0996848
0.0996935
0.0996963
0.0996764
0.0996891
0.099671
0.0996852
0.0996677
0.0996822
0.099664
0.0996775
0.0996593
0.0996728
0.0996564
0.0996715
0.0996565
0.0996733
0.0996591
0.0996755
0.0996604
0.0996754
0.0996591
0.0996729
0.0996574
0.0996712
0.0996605
0.0996732
0.0996547
0.0975034
0.0975038
0.0996508
0.0996607
0.0996745
0.0996581
0.0996751
0.0996598
0.0996761
0.0996609
0.0996764
0.0996597
0.0996741
0.0996573
0.0996713
0.0996554
0.0996713
0.0996565
0.0996733
0.0996592
0.0996755
0.0996606
0.0996755
0.0996593
0.0996731
0.0996577
0.0996714
0.0996605
0.0996724
0.099655
0.0975032
0.0975031
0.0996608
0.099675
0.0996601
0.0996739
0.0996593
0.0996761
0.0996611
0.0996779
0.0996616
0.099677
0.0996601
0.0996744
0.0996575
0.0996726
0.0996566
0.0996718
0.0996563
0.0996686
0.0996675
0.0996625
0.0996741
0.099659
0.0996751
0.0996598
0.0996752
0.0996603
0.0996787
0.0996438
0.0975054
0.0975045
0.0996522
0.0996594
0.0996738
0.0996575
0.099675
0.0996597
0.0996764
0.099661
0.0996768
0.0996598
0.0996744
0.0996572
0.0996713
0.0996553
0.0996708
0.0996559
0.0996725
0.0996585
0.0996746
0.0996595
0.0996743
0.0996581
0.0996721
0.0996574
0.0996711
0.0996624
0.0996708
0.0996534
0.0975032
0.0975061
0.0996491
0.0996758
0.0996744
0.0996615
0.099675
0.0996594
0.0996757
0.0996604
0.0996766
0.0996597
0.0996749
0.0996571
0.0996702
0.0996605
0.0996609
0.0996691
0.0996561
0.0996739
0.0996588
0.0996756
0.0996595
0.0996747
0.099658
0.0996728
0.0996576
0.0996711
0.0996742
0.0996513
0.0975049
0.0975052
0.0996499
0.0996585
0.0996729
0.0996568
0.0996744
0.0996592
0.0996764
0.0996613
0.0996779
0.0996617
0.0996759
0.099658
0.0996715
0.0996544
0.0996695
0.099654
0.099671
0.0996582
0.0996754
0.0996612
0.0996763
0.0996606
0.0996745
0.0996597
0.0996745
0.0996649
0.0996732
0.0996588
0.0975033
0.505481
4.49607
7.56199
11.6647
15.2979
19.1059
19.0479
23.2079
29.1122
34.6392
30.8886
17.2833
6.34273
0.503376
6.13751
144.619
292.29
336.209
327.704
301.1
296.165
310.231
330.387
344.093
347.313
343.715
338.759
341.833
350.143
358.653
363.478
362.066
358.645
366.03
376.257
366.23
336.582
287.541
199.202
87.7128
24.7902
23.2939
16.7031
9.06035
62.0752
648.42
570.079
187.406
207.926
1492
1742.55
2125.07
2457
2622.49
2702.35
2802.7
2907.94
3053.32
3218.58
3386.85
3536.39
3539.15
3288.62
2629.56
1958.68
1426.26
1015.46
704.497
562.997
424.473
241.087
106.119
63.4163
9.70233
0.394971
13.442
20.1303
30.9714
47.3201
80.9625
227.094
1383.16
4637.85
9667.62
15677.2
20611.5
21962.7
9864.73
5060.4
2855.57
1747.65
1116.97
753.314
546.468
414.516
314.728
226.483
168.625
108.473
64.9843
36.0123
19.2911
10.7567
1.45168
0.128259
2.82172
3.73002
10.5039
31.1465
92.5121
193.709
269.571
271.553
210.292
137.779
83.9859
50.2079
31.2334
20.8275
14.783
10.8743
8.077
5.92527
4.2968
3.06891
2.18213
1.55496
1.10097
0.755622
0.533213
0.386143
0.286374
0.222596
0.115781
0.1115
0.343488
0.356666
0.292164
0.231609
0.195303
0.172366
0.157627
0.14661
0.138491
0.131933
0.12693
0.122622
0.119274
0.116219
0.11393
0.111732
0.110138
0.108511
0.10742
0.106178
0.105425
0.104483
0.103949
0.103223
0.10284
0.102272
0.102
0.101594
0.0985064
0.0981431
0.101084
0.100941
0.100889
0.100808
0.100764
0.100689
0.10064
0.100583
0.100528
0.100486
0.100435
0.100396
0.10035
0.100315
0.100274
0.10024
0.100206
0.100171
0.10014
0.100104
0.100078
0.10004
0.100012
0.0999688
0.0999349
0.0998829
0.0998412
0.0997633
0.0974761
0.0974656
0.0997216
0.0997338
0.0997299
0.0997163
0.0997194
0.0997092
0.0997138
0.0997047
0.0997091
0.0996992
0.0997029
0.0996942
0.0996983
0.0996921
0.0996969
0.0996918
0.0996981
0.0996933
0.0997002
0.0996936
0.0996999
0.0996918
0.0996968
0.0996892
0.0996948
0.0996898
0.099697
0.0996767
0.0974548
0.097456
0.0996723
0.0996895
0.0996952
0.099689
0.0996979
0.099692
0.0997001
0.0996942
0.099701
0.0996935
0.0996991
0.099692
0.0996967
0.0996914
0.0996967
0.099692
0.0996983
0.0996935
0.0997004
0.099694
0.0997001
0.099692
0.099697
0.0996895
0.0996952
0.0996901
0.0996963
0.0996769
0.0974549
0.097457
0.0996816
0.0996949
0.0996886
0.0996952
0.0996911
0.0996992
0.0996939
0.0997018
0.0996952
0.0997014
0.099694
0.099699
0.0996928
0.0996979
0.0996921
0.099697
0.0996904
0.0996941
0.0996993
0.0996949
0.099699
0.099691
0.0996985
0.0996911
0.0996961
0.0996893
0.0996972
0.0996695
0.0974591
0.0974553
0.0996739
0.0996881
0.0996947
0.0996887
0.0996981
0.0996924
0.0997006
0.0996946
0.0997016
0.0996938
0.0996992
0.099692
0.0996966
0.0996913
0.0996961
0.0996912
0.0996976
0.0996927
0.0996994
0.0996928
0.0996988
0.0996908
0.099696
0.0996891
0.099695
0.0996924
0.0996951
0.0996755
0.0974548
0.0974598
0.0996728
0.0996982
0.0996983
0.0996915
0.0996968
0.0996908
0.0996986
0.0996928
0.0997003
0.0996928
0.0996997
0.0996912
0.0996964
0.0996924
0.0996929
0.0996954
0.0996906
0.0996988
0.0996922
0.0996996
0.0996924
0.0996981
0.09969
0.0996951
0.0996876
0.099693
0.0996992
0.0996743
0.0974589
0.0974558
0.0996703
0.0996861
0.0996934
0.0996872
0.099697
0.0996905
0.0996998
0.0996929
0.0997016
0.0996939
0.0997004
0.0996913
0.0996965
0.0996894
0.0996953
0.0996906
0.0996975
0.0996933
0.0997011
0.0996952
0.0997019
0.0996944
0.0996998
0.0996921
0.0996994
0.0996953
0.0996979
0.0996809
0.0974556
0.660963
5.5772
9.56168
14.5356
18.9864
25.3995
30.4994
45.5427
66.7622
86.5694
86.4567
69.5589
35.8533
10.5409
23.4103
582.027
695.402
610.594
546.191
462.742
412.449
400.135
403.851
403.788
399.005
396.299
404.718
427.557
460.117
493.423
526.19
565.448
622.952
724.547
825.812
870.215
861.157
801.108
646.106
356.089
93.7194
108.544
51.6256
94.9626
97.1999
1513.69
1306.17
684.782
641.878
1984.66
2377.17
2597.09
2730.15
2751.37
2718.96
2760.61
2767.09
2786.81
2793.76
2888.51
3127.96
3343.67
3414.35
3196.53
2783.02
2410.7
2061.45
1691.03
1454.72
1278.65
1043.85
567.371
211.63
35.8655
1.10247
14.0046
27.1176
71.5469
324.253
1068.84
3346.39
7334.63
12184.1
16772.3
20569
24299
18700.2
10856.4
6192.57
3862.82
2538.73
1638.04
1079.1
783.405
622.132
511.537
407.606
303.646
218.119
146.468
94.7328
54.9716
29.4763
3.61944
0.429226
7.4798
34.86
110.914
332.967
627.256
926.649
1009.3
839.272
565.669
336.766
188.141
105.232
62.1446
39.7833
27.2852
19.5329
14.192
10.2473
7.30835
5.13147
3.58606
2.50113
1.74994
1.20983
0.807704
0.537629
0.374682
0.299274
0.122397
0.232208
0.950403
0.960102
0.643392
0.39696
0.275677
0.217081
0.185571
0.165721
0.152155
0.142246
0.134854
0.128758
0.124053
0.119944
0.116876
0.114045
0.111986
0.109974
0.108588
0.107143
0.106189
0.10513
0.104469
0.103682
0.103217
0.102657
0.102466
0.10212
0.0989927
0.0977295
0.101294
0.100962
0.101024
0.100856
0.100859
0.100729
0.100722
0.100637
0.10061
0.100547
0.10051
0.100457
0.100419
0.100371
0.100338
0.100296
0.100267
0.100226
0.100198
0.100159
0.100134
0.100097
0.100064
0.100025
0.0999881
0.0999405
0.0998915
0.0998197
0.0974776
0.0974548
0.0997772
0.0997821
0.0997716
0.0997587
0.0997569
0.099748
0.099749
0.0997411
0.0997417
0.0997342
0.0997351
0.0997305
0.0997321
0.0997277
0.0997301
0.0997283
0.0997318
0.0997284
0.0997325
0.0997286
0.0997325
0.0997271
0.0997298
0.0997253
0.0997288
0.099726
0.0997333
0.0997122
0.0974493
0.0974494
0.099708
0.0997274
0.0997291
0.099726
0.0997315
0.099728
0.0997332
0.0997296
0.0997334
0.0997286
0.0997315
0.0997285
0.0997307
0.0997269
0.0997299
0.0997286
0.0997318
0.0997286
0.0997327
0.0997288
0.0997327
0.0997274
0.09973
0.0997255
0.0997292
0.0997264
0.0997327
0.0997124
0.097449
0.0974509
0.0997173
0.0997305
0.0997256
0.099729
0.0997271
0.099732
0.0997292
0.0997341
0.0997302
0.0997337
0.0997291
0.0997322
0.0997292
0.0997304
0.0997274
0.0997304
0.0997272
0.0997268
0.0997338
0.0997299
0.0997317
0.0997268
0.0997314
0.0997271
0.0997298
0.099726
0.0997315
0.0997082
0.0974482
0.0974498
0.0997097
0.0997257
0.0997288
0.0997261
0.0997318
0.0997285
0.0997335
0.0997301
0.0997337
0.099729
0.0997315
0.0997284
0.0997305
0.099727
0.0997293
0.0997279
0.0997311
0.0997278
0.0997318
0.0997276
0.0997314
0.099726
0.0997289
0.099725
0.099729
0.0997285
0.0997317
0.099711
0.0974492
0.0974485
0.0997107
0.0997321
0.0997328
0.0997281
0.09973
0.0997264
0.0997313
0.0997281
0.0997323
0.0997279
0.0997321
0.0997277
0.0997303
0.0997282
0.0997285
0.0997295
0.0997273
0.0997315
0.0997277
0.0997322
0.0997279
0.099731
0.0997257
0.0997285
0.0997244
0.0997267
0.0997333
0.0997121
0.0974481
0.0974498
0.0997059
0.0997238
0.0997282
0.099725
0.0997311
0.0997266
0.099733
0.099729
0.0997345
0.0997297
0.0997335
0.0997273
0.0997299
0.0997253
0.0997287
0.0997257
0.0997298
0.099728
0.0997329
0.0997302
0.0997344
0.0997302
0.099733
0.0997281
0.0997319
0.0997313
0.0997346
0.0997178
0.0974506
0.878656
6.83553
11.1382
16.6735
23.7488
36.2278
53.1701
86.4047
129.353
179.483
220.357
255.996
277.612
310.828
125.53
675.314
3002.95
3141.85
1830.1
1120.99
803.685
617.88
516.366
473.183
458.007
452.059
454.827
465.586
490.516
537.109
603.651
683.159
776.46
899.311
1086.55
1378.67
1681.66
1919.87
2037.05
1996.85
1646.11
982.307
579.61
450.788
318.392
796.441
670.126
695.288
2407.08
2944.45
2268.36
1514.51
1106.5
1940.2
3216.29
3193.32
3035.85
2927.56
2880.23
2979.4
3091.89
3223.95
3153.93
2996.5
2939.65
3060.01
3277.04
3382.08
3371.98
3301.51
3227.44
3075.25
2947.22
2957.77
2904.06
3320.95
1810.61
4919.33
2728.75
1397.49
534.635
478.298
796.407
1853.78
3892.99
7308.19
11896.8
16808.8
21334.7
24402.9
25971.2
25095.3
19301.9
12232.4
8150.46
6011.06
4467.71
3243.54
2276.41
1487.96
1058.95
837.67
683.607
549.882
424.488
308.531
224.371
173.121
164.61
1169.66
433.648
141.317
237.607
366.44
835.299
1559.22
2466.75
3317.43
3446.3
2917.01
2107.45
1281.05
698.723
366.445
197.404
114.619
72.6258
49.3416
34.8875
25.1415
18.0532
12.8716
8.98811
6.27229
4.33655
3.07476
2.21413
1.64853
1.27717
1.11256
1.24845
2.16869
0.52479
0.210406
2.04661
2.98065
2.46413
1.49694
0.738554
0.416185
0.287857
0.228315
0.194548
0.172987
0.157602
0.146367
0.137519
0.130861
0.125358
0.121146
0.117545
0.114733
0.112322
0.110385
0.108746
0.107378
0.106232
0.10533
0.104474
0.103918
0.103354
0.103085
0.102894
0.103713
0.0987022
0.0992425
0.103216
0.103026
0.102147
0.101729
0.101364
0.101189
0.100993
0.100908
0.100782
0.10073
0.100638
0.100597
0.100528
0.100494
0.100435
0.100406
0.100352
0.100329
0.100279
0.100257
0.100213
0.100193
0.100155
0.100132
0.1001
0.100081
0.100061
0.100053
0.100043
0.0999421
0.0974084
0.0974068
0.099949
0.100024
0.0999694
0.0999148
0.0998717
0.0998434
0.0998205
0.0998064
0.0997932
0.0997854
0.0997752
0.0997708
0.0997654
0.0997634
0.0997611
0.0997604
0.0997602
0.0997616
0.0997623
0.0997658
0.0997666
0.0997727
0.0997756
0.0997849
0.0997953
0.0998137
0.0998339
0.0998613