/*--------------------------------*- C++ -*----------------------------------*\
| =========                 |                                                 |
| \\      /  F ield         | OpenFOAM: The Open Source CFD Toolbox           |
|  \\    /   O peration     | Version:  2.1.1                                 |
|   \\  /    A nd           | Web:      www.OpenFOAM.org                      |
|    \\/     M anipulation  |                                                 |
\*---------------------------------------------------------------------------*/
FoamFile
{
    version     2.0;
    format      ascii;
    class       volScalarField;
    location    "0.002350000";
    object      N2;
}
// * * * * * * * * * * * * * * * * * * * * * * * * * * * * * * * * * * * * * //

dimensions      [0 0 0 0 0 0 0];

internalField   nonuniform List<scalar> 
12384
(
0.747113
0.746785
0.746943
0.747217
0.747462
0.747787
0.747365
0.74728
0.749045
0.749049
0.747978
0.746488
0.745012
0.744772
0.750628
0.752191
0.75263
0.752411
0.752323
0.752323
0.752343
0.752337
0.752348
0.752376
0.752445
0.752589
0.752683
0.75278
0.752861
0.752948
0.753043
0.753115
0.753185
0.753337
0.753361
0.753412
0.753384
0.752974
0.751196
0.748747
0.745983
0.744765
0.744502
0.744615
0.749148
0.749565
0.748051
0.748088
0.748727
0.748517
0.74807
0.747703
0.74721
0.747066
0.746875
0.746817
0.74671
0.74662
0.746488
0.746497
0.746749
0.747158
0.747124
0.747654
0.748881
0.750575
0.752282
0.753381
0.753396
0.752086
0.749203
0.74617
0.744642
0.744631
0.746888
0.749698
0.752015
0.752116
0.751124
0.749179
0.747962
0.747147
0.746537
0.745623
0.745215
0.744598
0.745139
0.745678
0.746087
0.746915
0.747977
0.749194
0.751064
0.752331
0.75358
0.753835
0.753541
0.752027
0.750082
0.747661
0.745601
0.744696
0.7446
0.74471
0.746449
0.747522
0.748325
0.749582
0.750701
0.75146
0.752304
0.752335
0.752397
0.752724
0.752729
0.752591
0.752054
0.751302
0.750338
0.749169
0.748019
0.747084
0.746379
0.745851
0.745296
0.745071
0.744836
0.744775
0.74475
0.744749
0.744749
0.744752
0.744755
0.744751
0.745426
0.745636
0.74559
0.745495
0.7454
0.745253
0.74512
0.745019
0.744884
0.744873
0.744772
0.74481
0.744755
0.744798
0.744766
0.744791
0.744778
0.744782
0.744784
0.744777
0.744778
0.74478
0.744774
0.744781
0.744771
0.744782
0.74477
0.74478
0.744772
0.744752
0.744748
0.744778
0.744778
0.744783
0.744779
0.744784
0.744781
0.744786
0.744784
0.744788
0.744786
0.744791
0.74479
0.744794
0.744794
0.744796
0.744794
0.744794
0.744791
0.744791
0.744789
0.744789
0.744788
0.744788
0.744787
0.744787
0.744786
0.744786
0.744785
0.74475
0.74475
0.744786
0.744788
0.744789
0.74479
0.744791
0.744792
0.744793
0.744794
0.744795
0.744796
0.744797
0.744799
0.744801
0.744802
0.744802
0.744801
0.744799
0.744797
0.744796
0.744795
0.744794
0.744793
0.744792
0.744791
0.74479
0.744789
0.744788
0.744786
0.74475
0.74475
0.744786
0.744788
0.744789
0.74479
0.744791
0.744791
0.744792
0.744793
0.744794
0.744795
0.744797
0.744799
0.744801
0.744802
0.744802
0.744801
0.744799
0.744797
0.744796
0.744795
0.744794
0.744793
0.744792
0.744791
0.74479
0.744789
0.744788
0.744786
0.74475
0.74475
0.744785
0.744788
0.744789
0.74479
0.744791
0.744792
0.744793
0.744794
0.744795
0.744796
0.744797
0.744799
0.7448
0.744802
0.744802
0.744801
0.744799
0.744797
0.744795
0.744794
0.744793
0.744792
0.744791
0.74479
0.744789
0.744788
0.744787
0.744785
0.74475
0.74475
0.744786
0.744788
0.744789
0.74479
0.744791
0.744792
0.744793
0.744794
0.744795
0.744796
0.744797
0.744799
0.744801
0.744802
0.744802
0.744801
0.744799
0.744797
0.744796
0.744795
0.744794
0.744793
0.744792
0.744791
0.74479
0.744789
0.744788
0.744786
0.74475
0.74475
0.744786
0.744788
0.744789
0.744789
0.74479
0.744791
0.744792
0.744794
0.744795
0.744796
0.744797
0.744799
0.744801
0.744802
0.744802
0.744801
0.744799
0.744797
0.744796
0.744795
0.744794
0.744793
0.744792
0.744791
0.74479
0.744789
0.744788
0.744786
0.74475
0.74475
0.744786
0.744788
0.744789
0.74479
0.744791
0.744792
0.744793
0.744793
0.744794
0.744795
0.744797
0.744798
0.7448
0.744802
0.744802
0.744801
0.744799
0.744797
0.744796
0.744795
0.744794
0.744793
0.744792
0.744791
0.74479
0.744789
0.744788
0.744786
0.74475
0.747599
0.74892
0.750947
0.752636
0.752894
0.7524
0.75254
0.751637
0.753449
0.753946
0.752702
0.751106
0.748771
0.746306
0.752898
0.753797
0.753188
0.752571
0.752621
0.752682
0.752756
0.752757
0.752807
0.752781
0.752857
0.752944
0.753098
0.753254
0.753373
0.753541
0.753645
0.753642
0.753744
0.754099
0.754038
0.754398
0.755082
0.755257
0.754923
0.753709
0.750532
0.747117
0.744765
0.744506
0.749421
0.74957
0.748639
0.74901
0.749229
0.74861
0.748051
0.747602
0.747187
0.746999
0.746856
0.746731
0.746577
0.746409
0.746122
0.745722
0.745483
0.745362
0.744254
0.743396
0.742474
0.742437
0.745597
0.750413
0.754378
0.756352
0.755019
0.75093
0.746414
0.74456
0.749565
0.752688
0.752747
0.750006
0.747554
0.746273
0.74568
0.745373
0.744559
0.74339
0.740991
0.738967
0.738737
0.739534
0.739298
0.73827
0.737364
0.737001
0.737062
0.740142
0.744621
0.750814
0.755725
0.758238
0.758354
0.756483
0.752937
0.748129
0.745193
0.744529
0.752416
0.755038
0.756405
0.757252
0.756569
0.755901
0.753792
0.752981
0.752501
0.752673
0.753982
0.755481
0.75721
0.758037
0.758298
0.758126
0.757884
0.757024
0.756297
0.755056
0.754081
0.752585
0.751162
0.749495
0.747938
0.746734
0.745947
0.745489
0.745398
0.745109
0.754427
0.754886
0.754638
0.754475
0.754205
0.753563
0.753188
0.752373
0.75188
0.751048
0.750525
0.74981
0.749362
0.748813
0.748489
0.7481
0.747836
0.747517
0.747281
0.747024
0.746865
0.746651
0.746562
0.746408
0.746313
0.746251
0.746146
0.746147
0.746091
0.745368
0.746181
0.746868
0.746884
0.746835
0.746776
0.7467
0.746682
0.746615
0.746619
0.746563
0.746589
0.746541
0.746591
0.746565
0.746613
0.746574
0.746589
0.746517
0.746507
0.746448
0.746451
0.746404
0.746413
0.746377
0.746387
0.746358
0.746372
0.746354
0.746342
0.745389
0.745403
0.746368
0.746417
0.746422
0.746449
0.746451
0.746482
0.746485
0.746514
0.746516
0.746547
0.746551
0.746593
0.746613
0.746644
0.746634
0.746625
0.746582
0.746564
0.746533
0.746527
0.746496
0.746493
0.746462
0.746456
0.746428
0.746423
0.746402
0.746352
0.745428
0.745426
0.746345
0.746405
0.746408
0.746436
0.746439
0.746469
0.746472
0.746501
0.746505
0.746536
0.746545
0.746588
0.746612
0.746642
0.746633
0.746624
0.746583
0.746564
0.746533
0.746528
0.746496
0.746492
0.746461
0.746456
0.746428
0.746422
0.746402
0.746352
0.745428
0.745428
0.746353
0.746402
0.746428
0.746432
0.746461
0.746465
0.746495
0.746497
0.746526
0.74653
0.746559
0.746574
0.746616
0.746627
0.746643
0.746619
0.746595
0.746548
0.746525
0.74651
0.74648
0.746474
0.746445
0.746442
0.746415
0.746416
0.746392
0.746358
0.745394
0.74543
0.746349
0.746408
0.746411
0.746439
0.746442
0.746472
0.746475
0.746504
0.746508
0.746538
0.746546
0.746586
0.74661
0.746641
0.746634
0.746626
0.746585
0.746565
0.746534
0.746527
0.746495
0.746491
0.74646
0.746454
0.746426
0.746421
0.746402
0.746352
0.745427
0.745391
0.746361
0.746406
0.74641
0.746436
0.74644
0.746472
0.746477
0.746508
0.746514
0.746546
0.746553
0.746593
0.746613
0.746639
0.74664
0.746615
0.746592
0.746551
0.746544
0.746513
0.746508
0.746478
0.746474
0.746443
0.746441
0.746413
0.746408
0.746362
0.745393
0.745426
0.74635
0.746411
0.746415
0.746445
0.746447
0.746479
0.74648
0.74651
0.74651
0.746541
0.746546
0.746584
0.746605
0.746638
0.746634
0.746626
0.746586
0.746566
0.746535
0.746529
0.746497
0.746493
0.746461
0.746456
0.746427
0.746421
0.746402
0.746351
0.745426
0.748967
0.752881
0.755614
0.757007
0.757006
0.756623
0.756663
0.756919
0.758604
0.75832
0.757301
0.756443
0.7546
0.750596
0.754885
0.755019
0.754159
0.752963
0.752722
0.751729
0.751209
0.751134
0.751471
0.751665
0.751883
0.75195
0.752003
0.752006
0.752079
0.752498
0.753224
0.75373
0.753964
0.754514
0.755459
0.755833
0.756237
0.756716
0.756971
0.757228
0.755433
0.752015
0.746701
0.744683
0.749815
0.749589
0.748937
0.749919
0.75034
0.750216
0.749396
0.749048
0.748669
0.748352
0.747907
0.747458
0.747304
0.74753
0.747183
0.746984
0.746277
0.744338
0.741703
0.737713
0.731052
0.732868
0.73712
0.742955
0.745989
0.752883
0.757343
0.756341
0.750077
0.744882
0.752387
0.754328
0.75103
0.747357
0.74565
0.745967
0.74864
0.748444
0.746731
0.743935
0.739224
0.73576
0.735252
0.736968
0.738572
0.739737
0.739206
0.73705
0.734062
0.731565
0.729434
0.731906
0.739289
0.750121
0.757172
0.759986
0.759508
0.756242
0.750009
0.746125
0.758962
0.758676
0.757457
0.75378
0.749546
0.745113
0.74211
0.740433
0.739666
0.739168
0.739136
0.741341
0.746062
0.751649
0.755721
0.758053
0.759076
0.759766
0.760008
0.760317
0.760253
0.760428
0.76036
0.760267
0.760044
0.759275
0.757901
0.756178
0.75462
0.753706
0.760631
0.760422
0.760282
0.760339
0.760259
0.760423
0.760286
0.760444
0.760251
0.76042
0.760217
0.760346
0.760195
0.760266
0.76015
0.760201
0.760148
0.760169
0.760187
0.760164
0.760216
0.76014
0.760225
0.760084
0.760197
0.759995
0.760107
0.759902
0.759973
0.760512
0.760956
0.760259
0.760216
0.760159
0.760187
0.760138
0.760148
0.7601
0.760109
0.760065
0.760066
0.76003
0.760016
0.759976
0.759964
0.759947
0.75996
0.75998
0.760009
0.760026
0.760042
0.760053
0.760064
0.760067
0.760078
0.760078
0.760085
0.760085
0.760116
0.760911
0.76091
0.760095
0.760056
0.760039
0.760027
0.760016
0.760003
0.759992
0.75998
0.759968
0.759954
0.75994
0.759915
0.759889
0.759872
0.759871
0.759888
0.759914
0.759939
0.759954
0.759968
0.759982
0.759994
0.760006
0.760019
0.760031
0.760043
0.760055
0.760093
0.760911
0.760911
0.7601
0.760059
0.760044
0.760034
0.760023
0.760011
0.76
0.759988
0.759975
0.759961
0.759944
0.759918
0.759888
0.759872
0.759871
0.759888
0.759913
0.759938
0.759953
0.759968
0.759982
0.759994
0.760006
0.76002
0.760031
0.760044
0.760055
0.760093
0.760912
0.760912
0.760094
0.760053
0.760037
0.760027
0.760015
0.760003
0.759992
0.759981
0.759969
0.759957
0.759943
0.75992
0.759894
0.759876
0.759871
0.759882
0.75991
0.759943
0.759965
0.759975
0.759993
0.760006
0.760018
0.760029
0.76004
0.760048
0.760061
0.760102
0.760912
0.760911
0.760096
0.760056
0.760042
0.760032
0.760021
0.760009
0.759997
0.759986
0.759973
0.75996
0.759943
0.759919
0.759891
0.759873
0.759871
0.759886
0.759911
0.759937
0.759953
0.759967
0.759982
0.759995
0.760007
0.760021
0.760033
0.760045
0.760056
0.760093
0.760912
0.760911
0.760094
0.760055
0.760047
0.760034
0.760022
0.760008
0.759995
0.759982
0.759968
0.759954
0.759938
0.759914
0.759888
0.759871
0.759871
0.759887
0.759915
0.759939
0.759955
0.759969
0.759982
0.759995
0.760007
0.76002
0.760031
0.760043
0.760055
0.760093
0.760911
0.760911
0.760095
0.760053
0.760038
0.760028
0.760017
0.760006
0.759994
0.759984
0.759972
0.759959
0.759944
0.759922
0.759894
0.759876
0.759869
0.759885
0.759909
0.759936
0.759951
0.759965
0.75998
0.759993
0.760006
0.76002
0.760032
0.760045
0.760055
0.760093
0.760912
0.752133
0.755631
0.757176
0.757622
0.757808
0.758119
0.758708
0.758765
0.759101
0.759824
0.7599
0.759306
0.757966
0.755377
0.756407
0.755624
0.751839
0.752003
0.750451
0.748965
0.748458
0.748604
0.748897
0.748576
0.748224
0.747378
0.746909
0.746893
0.747821
0.749219
0.750244
0.750571
0.750435
0.750258
0.750986
0.751376
0.753687
0.756851
0.759778
0.758661
0.758265
0.756607
0.750904
0.745621
0.750072
0.749522
0.74895
0.750357
0.750955
0.751404
0.751094
0.750843
0.750616
0.750502
0.750259
0.749682
0.749486
0.749777
0.749678
0.749486
0.748653
0.746439
0.742711
0.74
0.740026
0.735814
0.731907
0.729682
0.737524
0.745846
0.753957
0.757571
0.754145
0.746316
0.755079
0.754187
0.748847
0.745357
0.744461
0.748084
0.751714
0.752121
0.749439
0.746271
0.74103
0.737009
0.73384
0.730134
0.733884
0.737732
0.739151
0.737467
0.736997
0.734792
0.732583
0.727541
0.72621
0.731367
0.74428
0.754806
0.759317
0.759753
0.755989
0.749849
0.759079
0.756713
0.750903
0.744126
0.740872
0.740015
0.741304
0.742379
0.740881
0.73839
0.734922
0.732093
0.731237
0.734711
0.742356
0.748862
0.753176
0.755519
0.756969
0.757845
0.758675
0.759155
0.759654
0.759985
0.760193
0.760338
0.760435
0.760331
0.760111
0.759944
0.758206
0.75726
0.757513
0.757804
0.758363
0.758585
0.759058
0.759203
0.759618
0.759627
0.759963
0.759892
0.760152
0.760043
0.760241
0.760158
0.760292
0.760235
0.760343
0.760278
0.760381
0.760316
0.760403
0.760355
0.760414
0.760386
0.760422
0.7604
0.760434
0.760545
0.760411
0.760344
0.76033
0.760363
0.760348
0.760372
0.760361
0.76038
0.760369
0.760385
0.760375
0.760387
0.760379
0.760386
0.76038
0.760385
0.760383
0.760386
0.760387
0.760387
0.760389
0.760388
0.76039
0.760388
0.760391
0.760388
0.76039
0.760387
0.760397
0.760536
0.760535
0.760394
0.760385
0.760383
0.760383
0.760381
0.760382
0.76038
0.760381
0.760379
0.76038
0.760377
0.760378
0.760374
0.760375
0.760373
0.760376
0.760376
0.760379
0.760378
0.760381
0.760379
0.760382
0.760381
0.760383
0.760382
0.760385
0.760385
0.760395
0.760534
0.760534
0.760395
0.760386
0.760383
0.760384
0.760382
0.760383
0.76038
0.760382
0.760379
0.76038
0.760377
0.760378
0.760374
0.760375
0.760374
0.760376
0.760376
0.760379
0.760378
0.760381
0.760379
0.760382
0.760381
0.760383
0.760382
0.760385
0.760385
0.760395
0.760534
0.760533
0.760395
0.760384
0.760385
0.760382
0.760383
0.760381
0.760382
0.760379
0.760381
0.760378
0.760379
0.760376
0.760377
0.760374
0.760375
0.760374
0.760378
0.760378
0.76038
0.760381
0.76038
0.760383
0.760381
0.760384
0.760382
0.760385
0.760384
0.760395
0.760536
0.760534
0.760395
0.760386
0.760383
0.760384
0.760381
0.760383
0.76038
0.760382
0.760379
0.76038
0.760377
0.760378
0.760375
0.760375
0.760373
0.760376
0.760376
0.760379
0.760378
0.760381
0.76038
0.760382
0.760381
0.760383
0.760382
0.760385
0.760385
0.760395
0.760534
0.760536
0.760395
0.760385
0.760383
0.760384
0.760381
0.760383
0.76038
0.760381
0.760379
0.76038
0.760377
0.760378
0.760375
0.760375
0.760375
0.760375
0.760378
0.760377
0.76038
0.760379
0.760381
0.76038
0.760383
0.760381
0.760384
0.760383
0.760386
0.760395
0.760536
0.760534
0.760395
0.760386
0.760383
0.760384
0.760381
0.760383
0.76038
0.760382
0.760379
0.76038
0.760377
0.760378
0.760375
0.760376
0.760373
0.760376
0.760376
0.760379
0.760378
0.76038
0.760379
0.760382
0.760381
0.760383
0.760382
0.760385
0.760385
0.760395
0.760534
0.754851
0.755936
0.755668
0.755171
0.756043
0.756889
0.755615
0.753785
0.754745
0.755871
0.758214
0.760333
0.759554
0.758661
0.756234
0.753125
0.749899
0.748427
0.746175
0.744475
0.744344
0.743922
0.742597
0.740714
0.738521
0.737337
0.737733
0.739656
0.742117
0.743937
0.744604
0.74468
0.744839
0.745253
0.746177
0.747673
0.750254
0.753334
0.756888
0.76018
0.758863
0.758393
0.754193
0.747336
0.750296
0.749217
0.748926
0.749846
0.750533
0.751153
0.75157
0.751734
0.751873
0.752032
0.752023
0.751729
0.751394
0.75121
0.751014
0.750899
0.750432
0.749179
0.746697
0.745834
0.746463
0.74126
0.732843
0.729473
0.731765
0.738235
0.74861
0.755537
0.756251
0.748512
0.756615
0.753447
0.747162
0.743755
0.744315
0.748868
0.752986
0.753853
0.751395
0.748053
0.745
0.741516
0.73544
0.727177
0.7288
0.733497
0.73464
0.735655
0.735743
0.734049
0.732233
0.730255
0.726933
0.723749
0.728098
0.74213
0.754209
0.759022
0.759422
0.755139
0.757844
0.751539
0.744497
0.741114
0.743603
0.747953
0.750511
0.751601
0.749422
0.746885
0.741749
0.735745
0.729543
0.726285
0.728228
0.735654
0.743334
0.748685
0.751696
0.753595
0.754773
0.755925
0.756686
0.757473
0.758013
0.758588
0.759121
0.759607
0.759936
0.760119
0.754272
0.751409
0.750899
0.752042
0.75321
0.754605
0.755348
0.75615
0.756586
0.757072
0.757318
0.757645
0.757766
0.758
0.758057
0.758229
0.75825
0.758375
0.758387
0.758468
0.758487
0.758544
0.758562
0.758609
0.758625
0.758676
0.758693
0.758755
0.758772
0.758817
0.758535
0.758487
0.758541
0.758525
0.758576
0.758572
0.758605
0.758604
0.758628
0.758624
0.758643
0.758638
0.758652
0.758648
0.758658
0.758655
0.758661
0.758661
0.758663
0.758665
0.758665
0.758667
0.758667
0.758669
0.758668
0.758671
0.758668
0.758672
0.758671
0.758688
0.758686
0.758671
0.758668
0.758671
0.758667
0.758672
0.758667
0.758672
0.758667
0.758672
0.758667
0.758672
0.758667
0.758672
0.758667
0.758672
0.758667
0.758672
0.758667
0.758673
0.758668
0.758673
0.758667
0.758673
0.758668
0.758673
0.758668
0.758672
0.758673
0.758684
0.758685
0.758673
0.758668
0.758673
0.758667
0.758673
0.758668
0.758673
0.758668
0.758673
0.758668
0.758672
0.758667
0.758672
0.758667
0.758672
0.758667
0.758672
0.758668
0.758673
0.758668
0.758673
0.758667
0.758673
0.758667
0.758673
0.758668
0.758672
0.758673
0.758684
0.758686
0.758674
0.758672
0.758668
0.758673
0.758668
0.758673
0.758668
0.758673
0.758668
0.758673
0.758668
0.758672
0.758667
0.758672
0.758667
0.758672
0.758667
0.758671
0.758669
0.758668
0.758673
0.758667
0.758673
0.758668
0.758673
0.758668
0.758673
0.75867
0.758689
0.758684
0.758674
0.758667
0.758673
0.758667
0.758673
0.758668
0.758673
0.758668
0.758673
0.758668
0.758672
0.758667
0.758672
0.758667
0.758672
0.758667
0.758672
0.758667
0.758673
0.758668
0.758673
0.758667
0.758673
0.758667
0.758673
0.758668
0.758671
0.758673
0.758684
0.758689
0.758671
0.758672
0.758673
0.758668
0.758673
0.758668
0.758673
0.758668
0.758673
0.758668
0.758673
0.758667
0.758672
0.758668
0.758668
0.758672
0.758667
0.758672
0.758667
0.758673
0.758668
0.758673
0.758667
0.758673
0.758667
0.758672
0.758671
0.758672
0.758688
0.758685
0.758674
0.758668
0.758673
0.758667
0.758673
0.758667
0.758673
0.758667
0.758673
0.758667
0.758673
0.758667
0.758672
0.758667
0.758672
0.758667
0.758672
0.758667
0.758673
0.758667
0.758673
0.758667
0.758673
0.758667
0.758673
0.758668
0.758671
0.758674
0.758685
0.755372
0.753431
0.750683
0.749957
0.751536
0.752035
0.749788
0.748904
0.750236
0.75198
0.75457
0.757891
0.759748
0.759799
0.75538
0.750716
0.74615
0.744198
0.742014
0.740997
0.739713
0.737506
0.734682
0.731543
0.729606
0.729639
0.731827
0.73496
0.737695
0.73926
0.740118
0.74093
0.741993
0.743301
0.744702
0.746011
0.747614
0.750348
0.754356
0.757119
0.757997
0.758204
0.756943
0.750509
0.750308
0.748654
0.748629
0.74913
0.749553
0.750168
0.750702
0.751509
0.752363
0.752839
0.752571
0.7516
0.750308
0.749108
0.74864
0.748734
0.749329
0.749561
0.749306
0.749526
0.749592
0.746892
0.739618
0.731698
0.726046
0.729128
0.742066
0.75213
0.755994
0.750515
0.758498
0.752803
0.745437
0.742265
0.743153
0.747614
0.751645
0.754695
0.750488
0.748963
0.746504
0.7448
0.738671
0.725347
0.722463
0.724447
0.72655
0.728826
0.73038
0.729286
0.727988
0.727556
0.72621
0.723666
0.722411
0.728069
0.743204
0.7553
0.759289
0.759055
0.755261
0.747266
0.741963
0.742811
0.749424
0.751917
0.754059
0.754384
0.753439
0.750393
0.74554
0.739926
0.733273
0.72641
0.722537
0.723856
0.730546
0.738294
0.74406
0.747496
0.749718
0.75129
0.752733
0.75387
0.75497
0.755945
0.756878
0.7578
0.758693
0.759436
0.749223
0.744797
0.742979
0.743273
0.745658
0.748133
0.750429
0.751659
0.752828
0.753345
0.754134
0.754331
0.754934
0.754962
0.755451
0.755398
0.755803
0.755706
0.756054
0.755935
0.756237
0.756121
0.756384
0.756288
0.756515
0.756452
0.756636
0.75662
0.756755
0.756892
0.756089
0.756134
0.75613
0.756273
0.756266
0.756365
0.756355
0.756431
0.756418
0.756475
0.756461
0.756502
0.756491
0.756519
0.756511
0.75653
0.756524
0.756538
0.756534
0.756542
0.75654
0.756546
0.756546
0.756548
0.756549
0.75655
0.75655
0.756552
0.75656
0.756696
0.75669
0.756556
0.756547
0.756549
0.756546
0.756549
0.756547
0.756549
0.756548
0.756549
0.756548
0.756549
0.756548
0.756549
0.756548
0.756549
0.756548
0.756549
0.756548
0.75655
0.756549
0.75655
0.756549
0.75655
0.756548
0.756549
0.756548
0.75655
0.75656
0.756697
0.756698
0.756559
0.756549
0.756549
0.756548
0.75655
0.756549
0.75655
0.756549
0.75655
0.756549
0.75655
0.756548
0.756549
0.756548
0.756549
0.756548
0.756549
0.756548
0.75655
0.756549
0.75655
0.756549
0.75655
0.756548
0.756549
0.756548
0.75655
0.75656
0.756697
0.756698
0.756561
0.75655
0.756548
0.75655
0.756549
0.75655
0.756549
0.75655
0.756549
0.75655
0.756549
0.75655
0.756548
0.756549
0.756548
0.756549
0.756548
0.756549
0.756549
0.756549
0.75655
0.756549
0.75655
0.756549
0.75655
0.756549
0.756551
0.756558
0.756696
0.756698
0.756559
0.756549
0.756549
0.756548
0.75655
0.756549
0.75655
0.756549
0.75655
0.756549
0.75655
0.756548
0.756549
0.756548
0.756549
0.756548
0.756549
0.756548
0.75655
0.756549
0.75655
0.756548
0.75655
0.756548
0.75655
0.756549
0.75655
0.756559
0.756697
0.756696
0.756559
0.756551
0.75655
0.756549
0.75655
0.756549
0.75655
0.756549
0.75655
0.756549
0.75655
0.756548
0.756549
0.756549
0.756549
0.756549
0.756548
0.75655
0.756549
0.75655
0.756549
0.75655
0.756549
0.75655
0.756548
0.75655
0.756551
0.756559
0.756696
0.756698
0.756559
0.756549
0.75655
0.756548
0.75655
0.756549
0.75655
0.756549
0.75655
0.756549
0.756549
0.756548
0.756549
0.756547
0.756549
0.756547
0.756549
0.756548
0.756549
0.756548
0.756549
0.756548
0.756549
0.756548
0.75655
0.756549
0.75655
0.75656
0.756698
0.752789
0.748436
0.745683
0.745533
0.746495
0.746411
0.745951
0.746899
0.749449
0.752749
0.755406
0.757054
0.758816
0.759752
0.754566
0.748051
0.7433
0.741828
0.740879
0.739176
0.736273
0.732745
0.728979
0.726131
0.724646
0.724848
0.726685
0.729438
0.732144
0.734308
0.735969
0.737517
0.739435
0.742093
0.745158
0.747091
0.747736
0.748838
0.751817
0.755712
0.75705
0.757855
0.757125
0.75237
0.750168
0.748181
0.74798
0.747778
0.748173
0.746718
0.747326
0.750158
0.75256
0.75326
0.752163
0.749085
0.744546
0.741165
0.739355
0.73978
0.742144
0.745318
0.74767
0.749136
0.749841
0.749271
0.746065
0.738308
0.728021
0.725603
0.732923
0.747244
0.754895
0.75209
0.758102
0.753225
0.745766
0.74144
0.74138
0.743972
0.747332
0.749137
0.748008
0.74787
0.74757
0.746779
0.742216
0.725189
0.71537
0.714826
0.716219
0.719555
0.72059
0.721307
0.72192
0.720356
0.720509
0.721989
0.720881
0.72141
0.728653
0.744291
0.755615
0.759348
0.752619
0.745013
0.742066
0.744749
0.749332
0.75338
0.754173
0.754687
0.753552
0.750062
0.745084
0.73941
0.733666
0.727727
0.722168
0.719163
0.72054
0.726428
0.733603
0.739207
0.742836
0.745221
0.747173
0.748716
0.750299
0.751542
0.753029
0.754511
0.756076
0.758052
0.745287
0.743225
0.739983
0.73681
0.73666
0.739861
0.743403
0.746013
0.747514
0.748645
0.749346
0.75002
0.750434
0.750863
0.751144
0.751397
0.751634
0.751748
0.751992
0.751994
0.752236
0.752209
0.752415
0.752402
0.752578
0.752599
0.752778
0.752867
0.753072
0.753242
0.751902
0.752023
0.752215
0.752275
0.752394
0.752426
0.752504
0.752514
0.752574
0.752569
0.752617
0.752608
0.752645
0.752635
0.752663
0.752655
0.752674
0.752669
0.752681
0.752679
0.752686
0.752687
0.752691
0.752692
0.752695
0.752697
0.752698
0.752702
0.752702
0.752662
0.75265
0.752699
0.7527
0.752701
0.7527
0.752703
0.752701
0.752704
0.752702
0.752705
0.752702
0.752705
0.752703
0.752705
0.752703
0.752705
0.752703
0.752705
0.752703
0.752706
0.752703
0.752706
0.752702
0.752705
0.752702
0.752704
0.752702
0.752705
0.752704
0.752661
0.752661
0.752703
0.752702
0.752705
0.752702
0.752705
0.752703
0.752706
0.752703
0.752706
0.752703
0.752706
0.752704
0.752706
0.752704
0.752705
0.752704
0.752706
0.752703
0.752706
0.752703
0.752706
0.752702
0.752705
0.752702
0.752705
0.752703
0.752705
0.752704
0.752661
0.752663
0.752705
0.752704
0.752702
0.752705
0.752702
0.752706
0.752703
0.752706
0.752703
0.752706
0.752704
0.752706
0.752704
0.752706
0.752704
0.752705
0.752703
0.752704
0.752705
0.752704
0.752705
0.752703
0.752705
0.752702
0.752705
0.752702
0.752705
0.752702
0.752659
0.752662
0.752703
0.752702
0.752704
0.752702
0.752705
0.752703
0.752706
0.752703
0.752706
0.752703
0.752706
0.752704
0.752706
0.752704
0.752705
0.752704
0.752706
0.752703
0.752706
0.752703
0.752706
0.752702
0.752705
0.752702
0.752705
0.752703
0.752704
0.752704
0.752661
0.752659
0.752703
0.752706
0.752705
0.752703
0.752705
0.752702
0.752706
0.752703
0.752706
0.752703
0.752706
0.752703
0.752705
0.752705
0.752705
0.752705
0.752703
0.752706
0.752703
0.752706
0.752703
0.752706
0.752702
0.752705
0.752702
0.752705
0.752706
0.752704
0.752659
0.752662
0.752704
0.752702
0.752705
0.752702
0.752705
0.752702
0.752706
0.752703
0.752706
0.752703
0.752706
0.752703
0.752706
0.752704
0.752706
0.752704
0.752706
0.752704
0.752706
0.752703
0.752706
0.752703
0.752706
0.752702
0.752705
0.752703
0.752705
0.752705
0.752662
0.747433
0.743808
0.742828
0.743392
0.743458
0.742484
0.742221
0.744264
0.74916
0.754362
0.757107
0.757811
0.758251
0.757747
0.756575
0.746225
0.742358
0.742404
0.742332
0.740408
0.736884
0.732856
0.729291
0.726224
0.723818
0.72237
0.722586
0.724504
0.727202
0.729697
0.731616
0.733486
0.736719
0.742127
0.747956
0.750668
0.750405
0.749952
0.751922
0.755479
0.758065
0.75713
0.757046
0.753971
0.750179
0.74743
0.746356
0.746625
0.746517
0.743327
0.743626
0.74827
0.752646
0.753473
0.751634
0.74615
0.738725
0.732066
0.727222
0.724963
0.727503
0.733043
0.739211
0.743689
0.74728
0.749273
0.748859
0.745065
0.734821
0.725859
0.729438
0.741682
0.75352
0.75272
0.757027
0.752984
0.746944
0.742672
0.741261
0.741376
0.742441
0.743486
0.745285
0.747685
0.748114
0.747516
0.743455
0.72822
0.71188
0.709381
0.709989
0.711128
0.711252
0.712772
0.71377
0.714249
0.714714
0.71565
0.718587
0.719265
0.7205
0.728837
0.747357
0.758697
0.74944
0.745213
0.743811
0.745942
0.74966
0.752275
0.754294
0.753548
0.751101
0.746642
0.741474
0.73599
0.730855
0.726089
0.721818
0.718141
0.716468
0.718024
0.723043
0.729189
0.734358
0.737849
0.740495
0.742522
0.744736
0.746513
0.748573
0.750714
0.753705
0.756912
0.748204
0.746531
0.742321
0.73577
0.731552
0.732149
0.735985
0.739256
0.741627
0.742774
0.744027
0.744566
0.745521
0.745752
0.746531
0.746558
0.747228
0.747135
0.747732
0.747566
0.748115
0.747918
0.748427
0.748244
0.748724
0.7486
0.74905
0.749046
0.749534
0.749659
0.747059
0.747623
0.747773
0.748167
0.748212
0.748433
0.748444
0.748582
0.748581
0.748672
0.748669
0.748728
0.748726
0.748767
0.748762
0.748795
0.748787
0.748813
0.748805
0.748823
0.748818
0.748831
0.748828
0.748838
0.748837
0.748845
0.748847
0.748855
0.748858
0.748815
0.748787
0.748845
0.748847
0.748846
0.748843
0.748844
0.748843
0.748844
0.748843
0.748843
0.748843
0.748843
0.748843
0.748844
0.748844
0.748844
0.748844
0.748844
0.748844
0.748844
0.748844
0.748844
0.748844
0.748844
0.748845
0.748846
0.748847
0.748851
0.748851
0.748801
0.748801
0.74885
0.74885
0.748848
0.748846
0.748845
0.748845
0.748845
0.748845
0.748845
0.748844
0.748844
0.748844
0.748844
0.748844
0.748844
0.748844
0.748844
0.748844
0.748844
0.748844
0.748844
0.748844
0.748844
0.748845
0.748846
0.748848
0.748851
0.748851
0.748801
0.748803
0.748852
0.74885
0.748847
0.748846
0.748845
0.748845
0.748845
0.748845
0.748845
0.748845
0.748844
0.748844
0.748844
0.748845
0.748844
0.748844
0.748843
0.748844
0.748845
0.748845
0.748844
0.748844
0.748845
0.748845
0.748846
0.748848
0.748851
0.74885
0.748799
0.748802
0.74885
0.74885
0.748848
0.748846
0.748845
0.748845
0.748845
0.748845
0.748845
0.748844
0.748844
0.748844
0.748844
0.748844
0.748844
0.748844
0.748844
0.748844
0.748844
0.748844
0.748844
0.748844
0.748844
0.748845
0.748846
0.748848
0.748851
0.748851
0.748801
0.748799
0.748851
0.748851
0.748849
0.748846
0.748845
0.748844
0.748845
0.748844
0.748844
0.748844
0.748844
0.748844
0.748844
0.748844
0.748844
0.748844
0.748844
0.748844
0.748844
0.748844
0.748844
0.748844
0.748844
0.748845
0.748846
0.748848
0.748852
0.748851
0.748799
0.748801
0.74885
0.74885
0.748848
0.748846
0.748845
0.748845
0.748844
0.748844
0.748844
0.748845
0.748844
0.748844
0.748844
0.748844
0.748844
0.748844
0.748844
0.748844
0.748844
0.748844
0.748844
0.748844
0.748845
0.748845
0.748847
0.74885
0.748857
0.748866
0.748816
0.741505
0.739938
0.740724
0.741776
0.739926
0.736528
0.734988
0.737968
0.745736
0.753942
0.757172
0.757321
0.754994
0.752809
0.75184
0.751723
0.751009
0.744583
0.743039
0.744569
0.745554
0.744613
0.74151
0.737716
0.733968
0.729782
0.725064
0.721161
0.719483
0.720508
0.722848
0.724893
0.72622
0.728424
0.734344
0.743683
0.751036
0.753647
0.753331
0.752426
0.753309
0.755115
0.755658
0.756149
0.756063
0.755603
0.757029
0.754204
0.749985
0.747133
0.745007
0.74419
0.744643
0.742817
0.742813
0.747495
0.752603
0.753631
0.752211
0.747885
0.741895
0.736125
0.730597
0.725794
0.72084
0.72125
0.725263
0.732712
0.741024
0.747467
0.749449
0.748334
0.742537
0.730737
0.726372
0.73491
0.748967
0.752937
0.753563
0.75594
0.756994
0.754825
0.751662
0.749349
0.747799
0.747422
0.747139
0.747726
0.749095
0.749738
0.748085
0.74639
0.741745
0.730743
0.714205
0.709103
0.70853
0.708768
0.709217
0.709639
0.70999
0.709945
0.709647
0.709676
0.713443
0.716049
0.718565
0.719958
0.731742
0.751841
0.757667
0.758036
0.756842
0.754534
0.754244
0.7534
0.754168
0.753455
0.751285
0.747905
0.743925
0.738966
0.734486
0.730056
0.726279
0.722888
0.719886
0.717242
0.715205
0.714664
0.716274
0.720073
0.725091
0.729425
0.732709
0.735232
0.737458
0.739635
0.74201
0.744765
0.748169
0.753118
0.753874
0.753743
0.751274
0.747784
0.741828
0.73476
0.728627
0.726857
0.72926
0.732475
0.734782
0.736258
0.737313
0.738187
0.73891
0.739485
0.740002
0.740338
0.740757
0.740921
0.741302
0.741353
0.741709
0.741693
0.742055
0.741996
0.742365
0.742339
0.742782
0.742896
0.743457
0.74386
0.742537
0.74202
0.741228
0.741126
0.741707
0.741777
0.742078
0.742092
0.74226
0.742269
0.742367
0.742377
0.742436
0.742445
0.742484
0.742491
0.742518
0.742523
0.742541
0.742546
0.742557
0.742564
0.742569
0.742577
0.74258
0.742588
0.74259
0.7426
0.742602
0.742612
0.742596
0.742352
0.742102
0.742101
0.742315
0.742581
0.742606
0.742608
0.742609
0.742609
0.742608
0.742609
0.742609
0.74261
0.742609
0.74261
0.742609
0.74261
0.74261
0.74261
0.74261
0.742611
0.74261
0.742611
0.742611
0.742612
0.742611
0.742613
0.742612
0.742615
0.742616
0.742617
0.742595
0.742334
0.742095
0.742095
0.742334
0.742594
0.742615
0.742617
0.742614
0.742614
0.742612
0.742613
0.742611
0.742612
0.742611
0.742611
0.74261
0.742611
0.742611
0.742611
0.74261
0.742611
0.74261
0.742612
0.742611
0.742612
0.742611
0.742613
0.742612
0.742615
0.742616
0.742617
0.742595
0.742334
0.742095
0.742095
0.742336
0.742597
0.742616
0.742616
0.742615
0.742613
0.742613
0.742611
0.742612
0.742611
0.742612
0.742611
0.742611