/*--------------------------------*- C++ -*----------------------------------*\
| =========                 |                                                 |
| \\      /  F ield         | OpenFOAM: The Open Source CFD Toolbox           |
|  \\    /   O peration     | Version:  2.1.1                                 |
|   \\  /    A nd           | Web:      www.OpenFOAM.org                      |
|    \\/     M anipulation  |                                                 |
\*---------------------------------------------------------------------------*/
FoamFile
{
    version     2.0;
    format      ascii;
    class       volScalarField;
    location    "0.002350000";
    object      O;
}
// * * * * * * * * * * * * * * * * * * * * * * * * * * * * * * * * * * * * * //

dimensions      [0 0 0 0 0 0 0];

internalField   nonuniform List<scalar> 
12384
(
0.000630705
0.000626751
0.000529761
0.00027593
0.000271093
0.000251414
0.00028272
0.000260999
1.86172e-05
2.999e-07
2.85304e-08
1.3268e-09
4.25399e-11
1.3793e-12
8.61126e-09
1.35329e-07
1.42658e-06
5.32254e-06
7.13734e-06
9.66638e-06
1.29205e-05
1.5821e-05
1.66068e-05
1.68884e-05
1.7376e-05
1.54503e-05
1.32831e-05
1.15782e-05
9.21148e-06
7.63748e-06
5.70509e-06
5.40671e-06
4.55606e-06
3.04804e-06
2.02676e-06
5.6619e-07
9.10233e-08
2.95537e-08
1.79219e-08
3.23466e-09
1.6796e-10
1.92648e-12
1.95481e-14
1.84917e-16
2.71962e-08
2.57156e-06
2.46689e-05
5.28808e-05
0.000213216
0.000220682
0.000241299
0.000257186
0.000278934
0.000283535
0.000299133
0.000286665
0.000293459
6.76185e-05
4.03502e-05
3.42946e-05
3.05381e-05
2.50193e-05
2.14733e-05
1.51068e-05
3.52101e-06
3.69074e-07
2.78855e-08
1.23497e-09
7.22605e-12
5.02016e-14
3.32133e-16
1.05195e-18
1.7028e-21
1.04968e-23
5.2713e-29
5.98833e-28
9.76831e-28
1.71172e-26
1.38968e-22
1.4832e-18
9.52233e-15
3.93344e-11
1.19979e-07
1.89996e-06
4.48451e-06
5.87844e-06
4.72364e-06
1.07642e-06
2.44049e-07
8.85821e-08
9.00182e-09
8.42837e-10
4.04174e-11
7.08457e-13
7.81185e-15
8.19416e-17
3.60621e-19
5.73519e-22
1.02872e-24
1.65507e-27
1.66009e-30
1.39156e-33
1.36173e-36
1.37885e-39
1.37728e-56
2.80957e-57
1.17029e-59
2.03467e-62
2.23634e-65
1.8173e-68
1.40232e-71
1.75752e-74
3.58467e-77
3.67158e-80
3.51482e-83
2.69469e-86
1.74852e-89
7.81361e-93
3.57061e-96
1.71002e-99
7.75874e-103
3.09837e-106
1.15193e-109
4.19722e-113
1.44726e-116
5.45656e-120
2.15775e-123
9.33662e-127
4.24984e-130
1.99208e-133
9.41388e-137
4.4146e-140
2.03188e-143
9.07776e-147
2.47709e-159
9.78467e-161
1.04888e-163
6.96611e-167
3.30404e-170
8.82659e-176
4.00806e-181
5.52858e-186
8.63513e-191
1.27072e-195
1.51233e-200
1.21068e-205
7.27903e-211
3.95887e-216
2.08432e-221
1.07918e-226
5.56816e-232
2.88873e-237
1.55098e-242
7.56827e-248
2.96248e-253
1.01171e-258
3.03315e-264
8.23754e-270
1.99589e-275
4.41551e-281
9.02291e-287
1.79515e-292
3.80668e-298
1.09221e-303
0
0
0
0
0
0
0
0
0
0
0
0
0
0
0
0
0
0
0
0
0
0
0
0
0
0
0
0
0
0
0
0
0
0
0
0
0
0
0
0
0
0
0
0
0
0
0
0
0
0
0
0
0
0
0
0
0
0
0
0
0
0
0
0
0
0
0
0
0
0
0
0
0
0
0
0
0
0
0
0
0
0
0
0
0
0
0
0
0
0
0
0
0
0
0
0
0
0
0
0
0
0
0
0
0
0
0
0
0
0
0
0
0
0
0
0
0
0
0
0
0
0
0
0
0
0
0
0
0
0
0
0
0
0
0
0
0
0
0
0
0
0
0
0
0
0
0
0
0
0
0
0
0
0
0
0
0
0
0
0
0
0
0
0
0
0
0
0
0
0
0
0
0
0
0
0
0
0
0
0
0
0
0
0
0
0
0
0
0
0
0
0
0
0
0
0
0
0
0
0
0
0
0
0
0
0
0
0
0
0
0.000598897
0.00047197
0.000220654
5.26872e-05
3.11811e-05
4.21071e-05
3.83601e-05
1.71729e-05
2.43961e-06
5.13545e-07
1.09341e-07
8.55969e-09
9.07349e-10
4.34325e-11
2.36098e-07
2.06737e-06
8.82794e-06
3.76063e-05
3.67976e-05
3.58162e-05
3.4219e-05
3.46298e-05
3.34121e-05
3.41948e-05
3.2551e-05
3.07394e-05
2.74424e-05
2.44135e-05
2.2691e-05
2.02845e-05
1.87819e-05
1.88029e-05
1.73455e-05
1.29771e-05
1.347e-05
2.5789e-06
8.97079e-07
3.13679e-07
8.54744e-08
1.63114e-08
5.68486e-09
1.89166e-10
1.68672e-12
1.45323e-14
2.32142e-06
2.43519e-05
0.000198017
0.00018635
0.000177747
0.000211883
0.000241715
0.00026275
0.00027716
0.000288807
0.00029399
0.000298555
0.000278971
0.000289014
0.000284038
0.000269009
0.000253123
0.000240534
0.000163811
0.000106703
2.13983e-05
9.26979e-06
1.79428e-05
2.0377e-06
2.35535e-09
1.87061e-12
6.95866e-15
1.07935e-16
6.30336e-19
3.81037e-21
9.45946e-27
7.08047e-26
4.12147e-25
4.31279e-24
6.84391e-22
1.43096e-18
2.66979e-15
4.92559e-12
6.55256e-09
4.02642e-06
4.69682e-06
4.12057e-06
4.86867e-06
2.87389e-06
2.12123e-06
9.10283e-07
1.14437e-07
1.41388e-08
2.98303e-09
3.87561e-10
6.22356e-11
5.32154e-13
1.23926e-16
1.48835e-21
5.44638e-25
2.18037e-27
1.34315e-29
5.81805e-32
5.37317e-35
4.90106e-38
5.00932e-54
1.88603e-55
2.69878e-58
2.91605e-61
1.15342e-63
2.72075e-66
1.94568e-68
3.5124e-71
8.30567e-74
1.10282e-76
4.51403e-80
1.00225e-83
8.06271e-88
3.9475e-92
1.24175e-96
4.24985e-101
8.99357e-105
1.26263e-107
1.14183e-110
1.55476e-113
6.64505e-117
4.25828e-120
2.52884e-123
1.6689e-126
1.00253e-129
1.27526e-132
9.60739e-135
5.08625e-138
2.34969e-141
9.84867e-145
3.08303e-157
8.03691e-159
1.02356e-161
7.49636e-165
4.39928e-168
2.58628e-171
2.1349e-176
5.75136e-181
1.21152e-185
3.86578e-190
6.17702e-195
6.34563e-200
3.96574e-205
2.18034e-210
1.12116e-215
5.89763e-221
3.08965e-226
1.64375e-231
8.87222e-237
4.6667e-242
1.96987e-247
7.11841e-253
2.20293e-258
5.98954e-264
1.42644e-269
2.97059e-275
5.53194e-281
9.71883e-287
1.80426e-292
3.81567e-298
1.39327e-321
0
0
0
0
0
0
0
0
0
0
0
0
0
0
0
0
0
0
0
0
0
0
0
0
0
0
0
0
0
0
0
0
0
0
0
0
0
0
0
0
0
0
0
0
0
0
0
0
0
0
0
0
0
0
0
0
0
0
0
0
0
0
0
0
0
0
0
0
0
0
0
0
0
0
0
0
0
0
0
0
0
0
0
0
0
0
0
0
0
0
0
0
0
0
0
0
0
0
0
0
0
0
0
0
0
0
0
0
0
0
0
0
0
0
0
0
0
0
0
0
0
0
0
0
0
0
0
0
0
0
0
0
0
0
0
0
0
0
0
0
0
0
0
0
0
0
0
0
0
0
0
0
0
0
0
0
0
0
0
0
0
0
0
0
0
0
0
0
0
0
0
0
0
0
0
0
0
0
0
0
0
0
0
0
0
0
0
0
0
0
0
0
0
0
0
0
0
0
0
0
0
0
0
0
0
0
0
0
0
0.000469452
9.30669e-05
1.1865e-05
1.16196e-06
6.97582e-07
1.1535e-06
1.1096e-06
3.12692e-07
3.07905e-08
4.44722e-08
7.69174e-08
1.20022e-08
1.24316e-09
4.10311e-10
6.59817e-07
2.50295e-06
1.221e-05
2.94344e-05
3.46229e-05
6.18864e-05
8.03807e-05
8.47468e-05
7.05168e-05
6.47377e-05
5.80153e-05
5.59076e-05
5.41476e-05
5.40193e-05
5.17306e-05
4.01118e-05
2.48037e-05
1.76327e-05
1.41438e-05
9.46486e-06
3.98757e-06
2.76844e-06
1.74858e-06
3.1825e-07
1.10308e-07
3.45619e-08
1.98079e-08
2.69267e-09
1.37139e-10
9.3711e-13
2.31379e-06
2.58345e-05
0.000187146
0.00013662
0.000117507
0.000123781
0.000169559
0.000188691
0.000211826
0.00022897
0.000256064
0.000274366
0.000281121
0.000269133
0.000280467
0.000283718
0.000282214
0.000173901
4.7509e-05
8.7435e-06
1.01294e-06
1.57967e-06
7.00533e-06
2.26266e-05
1.78013e-05
6.01233e-08
1.08179e-12
1.60064e-15
1.2463e-16
1.61858e-18
1.11332e-24
1.46048e-23
8.52515e-22
4.55144e-21
5.05774e-21
3.36706e-19
4.87496e-16
1.73774e-12
5.79886e-09
3.53573e-06
2.639e-06
2.54856e-06
3.39408e-06
6.40245e-06
1.1708e-05
2.0018e-05
4.47043e-06
9.73484e-07
2.11516e-07
1.13269e-08
2.02938e-10
1.05402e-11
1.24165e-12
2.58957e-14
1.38791e-19
6.46494e-26
3.4736e-30
1.65623e-31
1.22466e-32
3.47075e-35
2.8415e-53
1.52667e-53
5.77451e-55
6.33804e-56
7.64814e-58
1.12876e-60
3.25746e-64
9.38299e-68
1.15254e-70
1.35376e-73
1.51075e-76
5.05427e-79
1.75409e-81
2.01922e-85
3.30438e-90
4.69493e-96
4.74783e-101
2.10611e-105
3.34519e-109
7.5154e-113
1.14444e-117
1.60738e-121
7.09541e-125
2.99724e-128
1.45563e-131
5.67777e-133
3.71833e-134
7.88303e-137
7.87525e-140
3.25483e-143
3.08999e-157
2.08377e-158
3.4353e-161
1.80201e-164
1.01625e-167
2.11417e-171
1.02616e-174
1.31992e-179
3.89352e-184
9.93432e-189
2.21207e-193
9.70381e-199
6.27291e-204
2.09896e-209
9.90395e-215
3.62539e-220
1.73023e-225
7.53833e-231
3.48649e-236
1.80806e-241
7.68297e-247
3.75085e-252
1.16534e-257
4.66464e-263
9.95315e-269
2.98593e-274
4.69507e-280
9.81968e-286
1.43085e-291
6.68181e-298
2.1393e-321
1.4822e-323
0
0
0
0
0
0
0
0
0
0
0
0
0
0
0
0
0
0
0
0
0
0
0
0
0
0
0
0
0
0
0
0
0
0
0
0
0
0
0
0
0
0
0
0
0
0
0
0
0
0
0
0
0
0
0
0
0
0
0
0
0
0
0
0
0
0
0
0
0
0
0
0
0
0
0
0
0
0
0
0
0
0
0
0
0
0
0
0
0
0
0
0
0
0
0
0
0
0
0
0
0
0
0
0
0
0
0
0
0
0
0
0
0
0
0
0
0
0
0
0
0
0
0
0
0
0
0
0
0
0
0
0
0
0
0
0
0
0
0
0
0
0
0
0
0
0
0
0
0
0
0
0
0
0
0
0
0
0
0
0
0
0
0
0
0
0
0
0
0
0
0
0
0
0
0
0
0
0
0
0
0
0
0
0
0
0
0
0
0
0
0
0
0
0
0
0
0
0
0
0
0
0
0
0
0
0
0
0
0.000140049
1.36978e-05
2.73807e-06
1.29324e-06
2.70552e-07
1.53723e-07
5.61116e-08
5.21619e-08
2.85459e-08
5.24197e-09
3.01949e-09
6.93045e-09
4.05921e-09
5.13443e-10
4.05152e-07
3.2487e-06
5.80098e-05
5.27408e-05
0.000215497
0.000475373
0.00054173
0.000517475
0.000459728
0.000429334
0.000426922
0.000469796
0.000501704
0.000513484
0.000474528
0.000341204
0.000228945
0.000183441
0.000165163
0.000149963
9.0588e-05
7.4411e-05
1.82477e-05
8.81677e-07
7.07287e-09
2.33413e-08
7.58121e-09
1.89331e-10
6.30008e-11
1.49221e-12
9.83406e-07
2.24558e-05
0.000188375
0.000116752
8.9301e-05
7.26781e-05
8.54614e-05
9.69126e-05
0.000105742
0.000111182
0.000123821
0.000154368
0.000165435
0.000149181
0.000153496
0.000163177
0.000208648
0.000280662
6.5574e-05
2.13463e-05
2.10683e-05
4.05725e-06
1.26024e-06
6.24361e-07
8.47899e-06
3.29125e-05
9.77824e-08
6.74215e-13
9.97803e-15
6.88998e-16
9.84642e-23
7.55613e-21
9.37489e-19
2.63319e-18
1.68227e-18
6.61721e-19
6.13438e-18
3.75919e-14
5.08651e-10
1.15749e-06
3.27506e-06
2.36343e-06
2.17247e-06
6.58945e-07
2.37552e-06
8.41285e-06
1.55577e-05
7.99012e-06
6.87045e-06
6.24548e-07
1.58505e-07
1.15093e-09
1.51169e-11
4.22423e-13
7.82703e-14
3.5021e-18
4.30771e-25
6.38949e-30
5.5502e-31
1.96782e-32
3.29042e-49
2.58041e-48
8.87693e-49
2.6754e-51
6.00952e-55
2.88382e-58
2.89225e-61
2.78868e-64
1.08092e-67
4.67704e-71
2.19641e-74
1.12654e-77
1.09863e-80
2.94275e-83
3.15301e-85
3.1033e-88
1.03603e-92
2.84101e-97
1.66768e-101
2.00317e-105
8.62763e-111
9.15229e-115
1.7481e-118
3.16325e-122
6.79527e-126
1.29581e-129
4.94523e-132
1.47291e-135
3.83439e-139
4.71846e-143
1.13053e-150
1.52588e-151
1.14404e-154
4.81888e-158
9.5682e-162
2.65126e-165
3.57695e-169
8.23509e-173
6.36528e-178
6.35289e-182
3.03084e-187
2.09304e-192
4.72862e-198
1.85737e-203
3.95242e-209
1.45779e-214
3.81158e-220
1.61617e-225
5.08087e-231
2.58574e-236
9.39356e-242
5.66025e-247
2.05377e-252
9.25607e-258
2.47741e-263
6.2691e-269
9.76173e-275
1.45813e-280
1.73653e-286
1.81211e-292
6.40682e-315
1.03752e-317
4.44659e-323
0
0
0
0
0
0
0
0
0
0
0
0
0
0
0
0
0
0
0
0
0
0
0
0
0
0
0
0
0
0
0
0
0
0
0
0
0
0
0
0
0
0
0
0
0
0
0
0
0
0
0
0
0
0
0
0
0
0
0
0
0
0
0
0
0
0
0
0
0
0
0
0
0
0
0
0
0
0
0
0
0
0
0
0
0
0
0
0
0
0
0
0
0
0
0
0
0
0
0
0
0
0
0
0
0
0
0
0
0
0
0
0
0
0
0
0
0
0
0
0
0
0
0
0
0
0
0
0
0
0
0
0
0
0
0
0
0
0
0
0
0
0
0
0
0
0
0
0
0
0
0
0
0
0
0
0
0
0
0
0
0
0
0
0
0
0
0
0
0
0
0
0
0
0
0
0
0
0
0
0
0
0
0
0
0
0
0
0
0
0
0
0
0
0
0
0
0
0
0
0
0
0
0
0
0
0
0
2.6404e-05
1.89707e-05
3.81744e-05
4.78457e-05
9.38739e-06
1.27724e-06
6.74018e-06
4.29117e-05
1.4086e-05
3.72987e-06
1.35139e-07
1.40133e-09
5.25858e-09
4.81429e-10
4.74852e-07
2.57915e-05
0.000140688
0.000411705
0.000680111
0.000575024
0.000518766
0.000448236
0.000264132
0.000140811
6.42955e-05
4.81247e-05
4.85293e-05
8.72699e-05
0.000194528
0.000357271
0.000437007
0.000451104
0.000458459
0.000418633
0.000343404
0.000265401
0.000125028
2.32841e-05
8.47862e-07
2.89267e-09
7.04616e-09
4.56294e-11
2.20385e-11
3.57136e-12
2.04127e-07
1.76291e-05
0.000197335
0.000142781
0.000107916
8.2145e-05
6.79246e-05
6.23069e-05
5.78708e-05
5.26601e-05
5.2877e-05
6.19582e-05
7.28225e-05
8.06693e-05
8.8406e-05
9.36876e-05
0.000112422
0.000179066
0.000281633
0.000270286
0.000275382
3.63018e-05
1.55928e-06
5.94718e-07
1.33345e-06
3.29095e-06
8.39607e-06
5.15322e-10
3.08604e-13
1.59163e-13
1.97378e-20
5.13e-18
4.63346e-16
7.20766e-16
9.33004e-16
4.73589e-16
2.42604e-17
4.14697e-15
3.27421e-11
4.11076e-08
6.20746e-06
8.14469e-06
3.64451e-06
2.75428e-07
4.86535e-07
2.08486e-06
2.88373e-06
3.26243e-06
3.49018e-06
2.2092e-06
1.29725e-06
1.20366e-07
8.53176e-09
2.81463e-11
2.37935e-13
3.70693e-14
5.06449e-18
1.20541e-24
2.91447e-29
1.50404e-30
3.76633e-44
1.15325e-42
6.08809e-45
1.68024e-48
2.57044e-51
1.75672e-54
2.84044e-58
5.39484e-62
5.56111e-65
5.11985e-68
1.10824e-71
6.71988e-76
2.52205e-79
1.12178e-82
2.1428e-85
2.04966e-87
3.46287e-89
3.98196e-92
7.5019e-96
1.23971e-99
2.32549e-103
3.91666e-107
6.27526e-111
9.71931e-115
1.60996e-118
1.97202e-122
1.66362e-126
1.61485e-130
1.16778e-134
7.2809e-139
1.10339e-144
1.86466e-145
2.67579e-148
1.10723e-151
3.07459e-155
4.53893e-159
8.84873e-163
1.29816e-166
2.75847e-170
3.25484e-174
2.07899e-179
7.03166e-185
2.0456e-190
4.78875e-196
1.1491e-201
2.25763e-207
5.85259e-213
1.36091e-218
4.32056e-224
1.21306e-229
4.70951e-235
1.97983e-240
9.9054e-246
4.74178e-251
1.95573e-256
5.24575e-262
9.90131e-268
1.15408e-273
1.34684e-279
1.63078e-285
2.42529e-307
2.8525e-310
9.25365e-316
2.35175e-321
0
0
0
0
0
0
0
0
0
0
0
0
0
0
0
0
0
0
0
0
0
0
0
0
0
0
0
0
0
0
0
0
0
0
0
0
0
0
0
0
0
0
0
0
0
0
0
0
0
0
0
0
0
0
0
0
0
0
0
0
0
0
0
0
0
0
0
0
0
0
0
0
0
0
0
0
0
0
0
0
0
0
0
0
0
0
0
0
0
0
0
0
0
0
0
0
0
0
0
0
0
0
0
0
0
0
0
0
0
0
0
0
0
0
0
0
0
0
0
0
0
0
0
0
0
0
0
0
0
0
0
0
0
0
0
0
0
0
0
0
0
0
0
0
0
0
0
0
0
0
0
0
0
0
0
0
0
0
0
0
0
0
0
0
0
0
0
0
0
0
0
0
0
0
0
0
0
0
0
0
0
0
0
0
0
0
0
0
0
0
0
0
0
0
0
0
0
0
0
0
0
0
0
0
0
0
3.97961e-05
0.000311549
0.00105889
0.00103701
0.00037534
0.000175266
0.000375685
0.00044043
0.000271503
9.97212e-05
9.11404e-06
2.01383e-07
3.84289e-09
9.67512e-10
1.36532e-06
0.00010152
0.000498596
0.000512392
0.000292652
0.000198015
0.000127345
6.23818e-05
2.71011e-05
1.12814e-05
5.95622e-06
5.23672e-06
8.69958e-06
1.88428e-05
4.13765e-05
6.98332e-05
9.46511e-05
0.000117583
0.000162725
0.000210265
0.000241954
0.000283338
0.000267374
0.000120076
1.0862e-05
5.80957e-07
3.70497e-08
3.08295e-09
7.92442e-11
7.74115e-11
2.99037e-08
1.12439e-05
7.61527e-05
0.000180911
0.000157748
0.000127503
0.00010284
6.92772e-05
4.29875e-05
3.25628e-05
3.82193e-05
6.58195e-05
0.000120297
0.000185264
0.000211461
0.000207269
0.000171917
0.000156375
0.000170743
0.000156352
0.000152327
0.000277007
1.81044e-05
1.20845e-06
2.19595e-07
5.42487e-07
1.25955e-05
1.36322e-06
1.24339e-10
2.37792e-11
1.76721e-18
3.21859e-15
1.30009e-13
1.35636e-13
2.67434e-13
5.41532e-13
1.40355e-13
2.98675e-14
5.04426e-11
1.00686e-08
8.08267e-07
2.03617e-05
1.19687e-05
1.71846e-07
7.7161e-08
1.21593e-07
2.30341e-07
4.26218e-07
5.86372e-07
4.92673e-07
3.34251e-07
2.7451e-07
5.40049e-08
9.2064e-09
2.31339e-11
1.86686e-13
3.16115e-14
9.00887e-19
8.8877e-26
3.8738e-29
1.03303e-38
1.76962e-38
5.6321e-42
6.30636e-45
4.04481e-48
3.51349e-52
5.80921e-57
1.49129e-60
5.96516e-64
2.42085e-66
4.48862e-68
8.84062e-72
4.99247e-76
1.29658e-79
4.23736e-83
5.3294e-86
4.4052e-88
5.42989e-90
4.57707e-92
4.94213e-95
1.79705e-98
5.29366e-102
1.24749e-105
2.47521e-109
4.52474e-113
6.38959e-117
6.49055e-121
4.55998e-125
2.00058e-129
5.61908e-134
8.62618e-140
2.10438e-141
1.09955e-144
1.06708e-147
1.45188e-150
7.07385e-154
1.54755e-157
3.62847e-161
6.86029e-165
1.90601e-168
3.31888e-172
1.55912e-177
3.3277e-183
9.20352e-189
1.3608e-194
3.08163e-200
4.49637e-206
1.1321e-211
2.07029e-217
6.60091e-223
1.37157e-228
6.01863e-234
1.79828e-239
9.43131e-245
4.2338e-250
1.549e-255
2.70188e-261
3.60778e-267
3.52141e-273
3.41226e-279
6.23056e-300
6.49898e-303
1.56549e-308
2.6121e-314
4.78651e-320
0
0
0
0
0
0
0
0
0
0
0
0
0
0
0
0
0
0
0
0
0
0
0
0
0
0
0
0
0
0
0
0
0
0
0
0
0
0
0
0
0
0
0
0
0
0
0
0
0
0
0
0
0
0
0
0
0
0
0
0
0
0
0
0
0
0
0
0
0
0
0
0
0
0
0
0
0
0
0
0
0
0
0
0
0
0
0
0
0
0
0
0
0
0
0
0
0
0
0
0
0
0
0
0
0
0
0
0
0
0
0
0
0
0
0
0
0
0
0
0
0
0
0
0
0
0
0
0
0
0
0
0
0
0
0
0
0
0
0
0
0
0
0
0
0
0
0
0
0
0
0
0
0
0
0
0
0
0
0
0
0
0
0
0
0
0
0
0
0
0
0
0
0
0
0
0
0
0
0
0
0
0
0
0
0
0
0
0
0
0
0
0
0
0
0
0
0
0
0
0
0
0
0
0
0
0.000470764
0.00185716
0.00193673
0.00155569
0.00109667
0.000767587
0.000603053
0.000560088
0.000334086
4.96634e-05
4.30163e-06
6.20849e-07
4.89315e-08
3.13356e-09
3.02018e-06
0.000274019
0.000384969
0.000268851
0.000189275
0.00011046
4.5309e-05
1.53052e-05
5.72793e-06
2.48983e-06
1.34276e-06
1.17237e-06
1.72419e-06
3.41029e-06
7.15895e-06
1.42598e-05
2.44688e-05
4.05493e-05
7.58875e-05
0.00015303
0.000289384
0.000284363
0.00026298
0.000204055
6.00494e-05
3.05843e-06
1.6489e-07
3.85313e-08
2.9634e-09
1.54706e-09
1.9801e-08
8.92955e-06
5.88501e-05
0.000258351
0.000232381
0.000285793
0.000272421
0.000129213
3.85493e-05
2.41317e-05
4.82511e-05
0.00024498
0.000324492
0.000104956
5.0625e-05
4.67338e-05
7.32328e-05
0.000237188
0.000255204
0.00017931
0.000140903
0.000171438
0.00027191
1.02164e-05
3.95391e-07
1.9816e-07
1.63424e-06
4.96319e-05
1.75554e-07
3.11803e-09
5.24501e-15
1.04453e-12
3.2246e-11
2.69521e-11
4.72822e-11
1.74815e-10
3.65416e-10
3.63696e-10
1.89256e-09
5.22646e-08
1.79264e-06
2.88961e-05
5.17765e-05
1.60845e-07
1.01468e-08
9.1842e-09
1.15492e-08
2.98409e-08
3.52559e-08
4.44207e-08
5.72267e-08
3.49554e-08
3.8076e-08
1.10875e-08
1.92498e-09
7.57187e-12
8.44086e-14
1.50655e-14
1.55664e-19
2.04814e-25
6.67145e-34
5.14659e-35
1.42743e-38
3.78441e-41
1.34816e-44
4.44773e-49
2.19786e-52
6.49455e-56
2.88666e-59
2.76614e-62
1.17891e-64
1.46794e-68
1.14164e-72
2.51781e-76
4.22308e-80
1.48428e-83
1.77017e-86
1.05739e-88
1.03019e-90
6.60167e-93
2.23385e-95
3.67558e-98
2.54991e-101
1.09584e-104
3.309e-108
8.87562e-112
1.3214e-115
1.38237e-119
6.72663e-124
6.55374e-129
3.60149e-136
2.75651e-138
5.95615e-142
1.54377e-145
1.11931e-148
2.32541e-151
5.76326e-154
5.65802e-157
2.46271e-160
8.66921e-164
3.07142e-167
9.29925e-171
2.89675e-176
6.74743e-182
1.28906e-187
2.13517e-193
3.53771e-199
6.39538e-205
1.1471e-210
2.52421e-216
5.21317e-222
1.48398e-227
4.18046e-233
1.58808e-238
6.58198e-244
2.62731e-249
6.0156e-255
8.51229e-261
8.75524e-267
9.0165e-273
1.59101e-292
1.19919e-295
2.04336e-301
3.15694e-307
4.4402e-313
6.53758e-319
0
0
0
0
0
0
0
0
0
0
0
0
0
0
0
0
0
0
0
0
0
0
0
0
0
0
0
0
0
0
0
0
0
0
0
0
0
0
0
0
0
0
0
0
0
0
0
0
0
0
0
0
0
0
0
0
0
0
0
0
0
0
0
0
0
0
0
0
0
0
0
0
0
0
0
0
0
0
0
0
0
0
0
0
0
0
0
0
0
0
0
0
0
0
0
0
0
0
0
0
0
0
0
0
0
0
0
0
0
0
0
0
0
0
0
0
0
0
0
0
0
0
0
0
0
0
0
0
0
0
0
0
0
0
0
0
0
0
0
0
0
0
0
0
0
0
0
0
0
0
0
0
0
0
0
0
0
0
0
0
0
0
0
0
0
0
0
0
0
0
0
0
0
0
0
0
0
0
0
0
0
0
0
0
0
0
0
0
0
0
0
0
0
0
0
0
0
0
0
0
0
0
0
0
0.00202351
0.00175607
0.00129069
0.00089345
0.000526557
0.000248184
0.000186655
0.000343647
0.000291954
1.08849e-05
5.93316e-07
2.18008e-07
1.28891e-07
1.06094e-07
1.21083e-06
0.00041196
0.000300844
0.000310734
0.000291609
0.000147482
5.13381e-05
1.54538e-05
5.94734e-06
2.46604e-06
1.12877e-06
6.77612e-07
6.57626e-07
9.96787e-07
1.68345e-06
3.56322e-06
7.40104e-06
1.24323e-05
3.13002e-05
0.000101321
0.000251903
0.000104139
0.000117021
0.000140899
5.6652e-05
3.9207e-06
1.63337e-07
2.2284e-07
2.755e-08
4.51055e-09
8.11901e-09
5.2039e-06
4.577e-05
0.000293671
0.000284372
0.000108028
0.000125063
0.000231492
3.66136e-05
2.09878e-05
6.477e-05
0.000390065
5.26089e-05
1.04917e-05
2.51022e-06
1.47798e-06
2.85925e-06
8.33525e-06
3.80914e-05
0.00016627
0.000268235
0.000172905
0.000195833
0.00021824
3.2618e-06
2.09667e-07
5.99806e-07
4.70849e-05
2.67941e-06
1.26963e-07
1.58806e-11
4.31781e-10
6.09119e-09
8.81718e-09
1.0692e-08
1.72825e-08
3.09807e-08
7.37341e-08
3.16753e-07
1.80615e-06
1.03817e-05
6.61436e-05
0.000100266
3.74636e-07
3.75243e-09
1.97343e-09
2.42315e-09
3.01469e-09
3.09218e-09
4.12972e-09
5.58705e-09
7.24495e-09
7.21572e-09
6.69884e-09
6.56308e-09
2.01879e-10
3.58933e-13
4.00246e-15
8.52868e-16
1.06506e-22
1.93608e-29
1.47431e-31
8.60075e-35
1.74429e-37
6.07387e-41
2.1505e-44
4.57725e-48
3.17473e-51
2.5685e-54
1.20316e-57
1.21376e-61
8.57628e-66
7.35546e-70
1.94978e-73
4.00228e-77
1.01419e-80
4.33353e-84
7.01167e-87
2.67877e-89
1.66911e-91
8.1983e-94
2.15296e-96
4.69913e-99
7.36679e-102
1.1233e-104
7.80842e-108
2.80657e-111
5.41966e-115
2.63302e-119
1.84088e-124
7.74457e-133
1.24025e-134
1.99261e-138
1.12389e-142
2.44306e-146
2.18585e-149
4.78646e-152
9.88992e-155
1.39497e-157
1.08123e-160
9.26086e-164
5.27423e-167
2.66299e-170
7.88523e-176
1.643e-181
2.85223e-187
4.47754e-193
7.4157e-199
1.18375e-204
2.16842e-210
3.79385e-216
8.31496e-222
1.80708e-227
5.33904e-233
1.66152e-238
6.51712e-244
1.71368e-249
2.9828e-255
3.31896e-261
3.76337e-267
7.39293e-286
5.30548e-289
5.35903e-295
5.32396e-301
5.97852e-307
6.84922e-313
8.71453e-319
0
0
0
0
0
0
0
0
0
0
0
0
0
0
0
0
0
0
0
0
0
0
0
0
0
0
0
0
0
0
0
0
0
0
0
0
0
0
0
0
0
0
0
0
0
0
0
0
0
0
0
0
0
0
0
0
0
0
0
0
0
0
0
0
0
0
0
0
0
0
0
0
0
0
0
0
0
0
0
0
0
0
0
0
0
0
0
0
0
0
0
0
0
0
0
0
0
0
0
0
0
0
0
0
0
0
0
0
0
0
0
0
0
0
0
0
0
0
0
0
0
0
0
0
0
0
0
0
0
0
0
0
0
0
0
0
0
0
0
0
0
0
0
0
0
0
0
0
0
0
0
0
0
0
0
0
0
0
0
0
0
0
0
0
0
0
0
0
0
0
0
0
0
0
0
0
0
0
0
0
0
0
0
0
0
0
0
0
0
0
0
0
0
0
0
0
0
0
0
0
0
0
0
0.00130395
0.000883489
0.000623393
0.000405832
0.000115476
2.89418e-05
1.62983e-05
3.32535e-05
0.000331402
1.44297e-05
5.57973e-07
4.81586e-07
6.28993e-06
3.44559e-05
6.08553e-05
6.56465e-05
9.18637e-05
0.000393101
0.00032418
0.000520928
0.000628819
0.000523971
0.0002099
6.17354e-05
2.02281e-05
6.02447e-06
1.48719e-06
5.42229e-07
3.03877e-07
3.38372e-07
6.49521e-07
1.14259e-06
1.81809e-06
3.13172e-06
1.29588e-05
0.00013534
8.87196e-05
1.87868e-05
2.32889e-05
4.17622e-05
2.36738e-05
5.62555e-06
3.21605e-06
1.9702e-06
9.05576e-08
1.07334e-08
1.97921e-09
3.35033e-09
5.82998e-09
5.01671e-07
1.1427e-05
3.11778e-05
0.000203075
7.33915e-05
6.84904e-05
0.000263185
3.73085e-05
1.87587e-05
4.66123e-05
0.000271939
8.91736e-05
1.70187e-05
3.74775e-06
1.66341e-06
4.721e-07
7.49278e-07
1.75571e-06
1.08471e-05
7.82863e-05
0.000263943
0.000164143
0.000224752
6.43344e-05
9.22555e-07
2.43099e-07
3.54549e-06
5.48778e-05
1.56183e-06
1.55414e-07
2.18419e-08
3.72346e-09
2.22492e-08
1.79165e-07
1.54928e-06
5.17852e-06
8.88981e-06
1.23532e-05
1.51826e-05
1.55078e-05
2.43868e-05
4.90707e-05
0.000267161
4.64016e-05
7.36109e-07
7.22874e-09
1.80228e-09
1.3571e-09
1.4146e-09
1.71074e-09
1.90415e-09
2.10916e-09
2.15931e-09
2.06283e-09
1.714e-09
1.65844e-09
1.94165e-09
1.02965e-11
2.81448e-14
8.72709e-16
6.14359e-18
5.61839e-23
1.05389e-25
8.96522e-28
1.26246e-29
2.91589e-32
7.10701e-35
5.78526e-38
9.77925e-41
2.0763e-43
2.56993e-46
4.2348e-50
9.92258e-55
4.73612e-59
3.46789e-63
4.35958e-67
8.68865e-71
1.89856e-74
5.61569e-78
2.03312e-81
1.36175e-84
1.72086e-87
4.95208e-90
2.33838e-92
7.60415e-95
1.79689e-97
3.22201e-100
4.90435e-103
7.97001e-106
1.22712e-108
1.82446e-111
7.84826e-115
2.4413e-119
2.56122e-123
6.01024e-127
7.4788e-130
9.47317e-133
2.36112e-136
4.44027e-140
8.7854e-144
4.48283e-147
6.78345e-150
1.14079e-152
1.43415e-155
1.31546e-158
1.0221e-161
6.55253e-165
4.6952e-168
2.69921e-171
5.19972e-177
8.86397e-183
1.71282e-188
2.75827e-194
4.7288e-200
7.44144e-206
1.30258e-211
2.1712e-217
4.33692e-223
8.75734e-229
2.33869e-234
6.80989e-240
2.57879e-245
7.80789e-251
2.02205e-256
3.29389e-262
2.06168e-268
1.86791e-274
1.47946e-280
1.71885e-286
3.03987e-292
4.30904e-298
6.72352e-304
9.57868e-310
1.47716e-315
2.2233e-321
0
0
0
0
0
0
0
0
0
0
0
0
0
0
0
0
0
0
0
0
0
0
0
0
0
0
0
0
0
0
0
0
0
0
0
0
0
0
0
0
0
0
0
0
0
0
0
0
0
0
0
0
0
0
0
0
0
0
0
0
0
0
0
0
0
0
0
0
0
0
0
0
0
0
0
0
0
0
0
0
0
0
0
0
0
0
0
0
0
0
0
0
0
0
0
0
0
0
0
0
0
0
0
0
0
0
0
0
0
0
0
0
0
0
0
0
0
0
0
0
0
0
0
0
0
0
0
0
0
0
0
0
0
0
0
0
0
0
0
0
0
0
0
0
0
0
0
0
0
0
0
0
0
0
0
0
0
0
0
0
0
0
0
0
0
0
0
0
0
0
0
0
0
0
0
0
0
0
0
0
0
0
0
0
0
0
0
0
0
0
0
0
0
0
0
0
0
0
0
0
0
0
0
0
0
0
0
0
0
0
0
0
0
0
0
0
0.000353056
0.000269506
0.000219682
0.000113139
1.93525e-05
2.95983e-06
1.25263e-06
2.79397e-06
3.33073e-05
8.78429e-05
1.97886e-06
1.30713e-06
1.3823e-05
8.17523e-05
0.000148286
0.000219373
0.000308268
0.000489949
0.000564606
0.00063149
0.000563842
0.000562528
0.000681682
0.000403217
0.000102686
1.65738e-05
2.2046e-06
4.01391e-07
1.58391e-07
1.59028e-07
2.47744e-07
2.86604e-07
3.65288e-07
9.97349e-07
8.91459e-06
0.000273451
1.6365e-05
4.05174e-06
5.43909e-06
1.01585e-05
9.21522e-06
5.65922e-06
5.33928e-06
2.776e-06
5.73023e-07
6.84497e-07
1.19296e-06
8.88175e-07
1.37254e-06
2.27318e-06
3.80799e-06
6.98664e-06
1.8862e-05
6.23613e-05
0.000111441
0.000280035
7.53135e-05
3.67219e-05
4.91473e-05
9.95302e-05
0.000180254
0.000265812
0.000242264
3.30366e-05
6.17609e-06
1.07228e-06
4.99263e-07
1.01638e-06
9.38274e-06
0.000130069
0.000231028
0.000179953
0.000277907
1.88956e-05
5.79426e-07
4.55503e-07
5.14705e-06
4.9612e-05
8.47568e-06
3.19387e-06
1.56648e-06
1.02746e-06
1.04041e-06
2.13063e-06
6.25577e-06
1.62681e-05
2.71062e-05
2.73963e-05
2.48915e-05
0.000113941
0.000272658
6.35312e-05
1.18571e-05
1.10508e-06
3.31599e-08
4.45291e-09
2.33055e-09
1.42112e-09
1.38051e-09
1.52827e-09
1.8629e-09
2.02197e-09
1.64317e-09
1.20586e-09
1.13341e-09
1.39104e-09
4.84365e-10
1.3258e-12
4.77221e-15
1.25689e-16
1.17249e-17
1.68715e-19
3.70348e-22
7.69998e-25
1.37802e-27
2.12462e-30
2.00564e-33
7.92889e-37
2.13497e-40
1.83663e-44
2.78001e-48
1.58908e-52
9.84136e-57
6.50213e-61
2.36346e-65
1.90693e-68
4.94466e-72
1.46385e-75
5.60107e-79
2.51386e-82
1.4885e-85
1.16748e-88
1.51721e-91
2.30636e-94
3.81759e-97
2.39019e-100
1.92124e-103
7.82753e-106
1.00185e-108
1.34428e-111
2.09276e-114
5.13543e-117
3.39447e-120
1.57418e-123
6.79061e-127
1.06905e-130
1.01986e-134
9.74269e-139
1.46121e-142
5.06441e-146
3.67556e-149
4.10685e-152
4.01396e-155
3.21185e-158
2.42119e-161
1.70199e-164
1.22536e-167
6.75103e-171
2.23019e-176
4.93484e-182
1.22576e-187
2.42312e-193
5.34617e-199
9.7897e-205
2.39108e-210
4.16992e-216
9.88942e-222
1.83938e-227
4.7764e-233
1.06028e-238
3.2715e-244
8.97843e-250
2.91018e-255
6.09278e-261
1.02693e-266
1.26958e-272
1.73305e-278
2.97229e-284
6.30381e-290
1.12223e-295
2.20246e-301
3.82907e-307
6.93653e-313
1.13003e-318
0
0
0
0
0
0
0
0
0
0
0
0
0
0
0
0
0
0
0
0
0
0
0
0
0
0
0
0
0
0
0
0
0
0
0
0
0
0
0
0
0
0
0
0
0
0
0
0
0
0
0
0
0
0
0
0
0
0
0
0
0
0
0
0
0
0
0
0
0
0
0
0
0
0
0
0
0
0
0
0
0
0
0
0
0
0
0
0
0
0
0
0
0
0
0
0
0
0
0
0
0
0
0
0
0
0
0
0
0
0
0
0
0
0
0
0
0
0
0
0
0
0
0
0
0
0
0
0
0
0
0
0
0
0
0
0
0
0
0
0
0
0
0
0
0
0
0
0
0
0
0
0
0
0
0
0
0
0
0
0
0
0
0
0
0
0
0
0
0
0
0
0
0
0
0
0
0
0
0
0
0
0
0
0
0
0
0
0
0
0
0
0
0
0
0
0
0
0
0
0
0
0
0
0
0
0
0
0
0
0
0
0
0
0
0
0
4.23838e-05
5.25156e-05
4.98621e-05
1.86519e-05
2.92526e-06
3.13705e-07
1.1963e-07
2.95157e-07
3.78732e-06
0.000287343
1.63777e-05
3.30769e-06
1.31444e-05
9.46536e-05
0.000177685
0.000284089
0.000467776
0.000548742
0.000562221
0.00050447
0.000489254
0.000525506
0.000625251
0.000730089
0.000243152
1.95031e-05
1.53546e-06
2.49776e-07
1.28445e-07
1.03896e-07
9.53572e-08
9.14152e-08
1.27489e-07
6.62477e-07
1.15918e-05
0.000130362
5.00753e-06
1.91416e-06
2.68713e-06
4.33704e-06
5.18311e-06
5.02827e-06
5.29255e-06
5.9662e-06
7.6756e-06
9.85349e-06
1.19058e-05
1.62122e-05
3.48802e-05
0.00016528
0.000103487
0.000157292
0.000138274
6.06533e-05
6.4691e-05
0.000183873
0.00028594
0.000273032
0.000286563
0.000275159
0.000265345
0.000282206
0.000265364
0.000282008
0.000103081
1.14944e-05
9.83282e-07
3.53484e-07
1.10762e-06
1.25363e-05
0.000183972
0.000242249
0.000221105
0.000272662
9.30261e-06
7.95587e-07
6.73779e-07
3.19141e-06
2.38835e-05
0.000104859
0.000179699
0.000247709
0.000296391
0.000305077
0.000303583
0.00028923
0.00023439
0.000193534
0.000196003
0.000201628
3.05369e-05
6.00493e-06
3.15058e-06
1.40321e-06
3.59297e-07
4.75749e-08
1.00771e-08
3.41778e-09
2.06789e-09
1.72894e-09
1.73476e-09
2.00618e-09
2.11181e-09
1.60917e-09
1.1836e-09
6.27883e-10
8.03257e-10
2.43477e-10
1.03322e-12
2.65678e-15
4.95141e-17
3.13567e-19
1.04418e-21
1.92641e-24
2.16274e-27
3.81964e-30
3.11603e-33
3.12761e-36
1.75809e-39
5.2479e-43
1.24897e-46
1.90979e-50
1.75429e-54
1.27557e-58
1.2005e-62
1.56392e-66
3.71345e-70
8.60966e-74
2.1905e-77
5.26933e-81
1.7781e-84
6.69589e-88
4.19216e-91
2.48384e-94
2.40544e-97
1.90795e-100
1.59897e-103
7.8505e-107
1.82349e-109
1.88193e-112
1.51459e-115
2.39012e-118
2.7965e-121
1.70799e-124
7.13267e-128
1.94006e-131
3.68973e-135
6.43741e-139
1.37812e-142
4.90151e-146
2.62375e-149
1.70152e-152
1.3215e-155
9.25984e-159
6.09803e-162
3.43951e-165
2.45407e-168
1.43369e-171
4.1455e-177
9.79101e-183
2.34381e-188
5.11265e-194
1.32768e-199
2.72789e-205
5.93332e-211
1.17131e-216
2.49939e-222
5.0511e-228
1.14159e-233
2.54713e-239
6.39763e-245
1.68898e-250
5.498e-256
1.74114e-261
4.84136e-267
1.21498e-272
2.77385e-278
6.56167e-284
1.70459e-289
3.81316e-295
8.79534e-301
1.75354e-306
3.2684e-312
5.32879e-318
9.88131e-324
0
0
0
0
0
0
0
0
0
0
0
0
0
0
0
0
0
0
0
0
0
0
0
0
0
0
0
0
0
0
0
0
0
0
0
0
0
0
0
0
0
0
0
0
0
0
0
0
0
0
0
0
0
0
0
0
0
0
0
0
0
0
0
0
0
0
0
0
0
0
0
0
0
0
0
0
0
0
0
0
0
0
0
0
0
0
0
0
0
0
0
0
0
0
0
0
0
0
0
0
0
0
0
0
0
0
0
0
0
0
0
0
0
0
0
0
0
0
0
0
0
0
0
0
0
0
0
0
0
0
0
0
0
0
0
0
0
0
0
0
0
0
0
0
0
0
0
0
0
0
0
0
0
0
0
0
0
0
0
0
0
0
0
0
0
0
0
0
0
0
0
0
0
0
0
0
0
0
0
0
0
0
0
0
0
0
0
0
0
0
0
0
0
0
0
0
0
0
0
0
0
0
0
0
0
0
0
0
0
0
0
0
0
0
0
2.91215e-06
5.74502e-06
6.17632e-06
2.34776e-06
3.83197e-07
8.03039e-08
4.02263e-08
7.215e-08
4.73653e-07
9.97603e-06
0.000297944
0.000152141
0.000173001
0.000287286
0.000357745
0.000416485
0.000467268
0.000466697
0.000511158
0.000576177
0.000618096
0.000682094
0.000717814
0.000605588
0.000104074
7.08254e-06
6.86462e-07
1.50065e-07
9.05192e-08
6.33607e-08
5.67981e-08
5.92502e-08
7.27123e-08
6.84925e-07
1.24589e-05
0.0001738
6.4248e-06
1.44172e-06
1.40239e-06
2.39906e-06
3.37676e-06
4.57183e-06
5.74297e-06
7.26425e-06
1.19686e-05
2.02972e-05
3.91783e-05
0.000128653
0.000276165
0.000253714
0.000284752
6.53413e-05
9.46978e-05
5.7996e-05
4.50429e-05
4.61193e-05
4.29416e-05
2.87306e-05
2.19108e-05
2.30918e-05
4.49318e-05
0.000178814
0.000274978
0.000195905
4.22508e-05
7.86473e-06
7.76302e-07
1.85572e-07
1.72375e-07
1.15478e-06
1.57942e-05
0.000141891
0.000274731
0.000270456
0.000216095
1.40356e-05
1.49234e-06
1.38869e-06
2.66553e-06
6.0976e-06
1.05492e-05
2.04808e-05
2.3581e-05
2.45544e-05
2.10654e-05
1.40859e-05
5.4186e-06
3.96988e-06
3.83235e-06
8.58568e-06
7.00391e-06
1.86799e-06
6.08083e-07
3.02797e-07
1.01136e-07
3.43054e-08
1.1271e-08
4.88323e-09
3.35332e-09
2.6793e-09
2.34926e-09
2.24739e-09
2.38557e-09
2.36523e-09
2.11577e-09
1.34134e-09
6.38035e-10
5.87806e-10
3.749e-10
1.87821e-12
1.64115e-14
5.01943e-17
9.28432e-20
8.17632e-23
1.71351e-25
1.56391e-28
2.17874e-31
1.50978e-34
1.46954e-37
4.56082e-41
1.70737e-44
3.65422e-48
5.88849e-52
1.77686e-56
1.06288e-60
6.10206e-65
5.7265e-68
1.03598e-71
2.63029e-75