/*--------------------------------*- C++ -*----------------------------------*\
| =========                 |                                                 |
| \\      /  F ield         | OpenFOAM: The Open Source CFD Toolbox           |
|  \\    /   O peration     | Version:  2.1.1                                 |
|   \\  /    A nd           | Web:      www.OpenFOAM.org                      |
|    \\/     M anipulation  |                                                 |
\*---------------------------------------------------------------------------*/
FoamFile
{
    version     2.0;
    format      ascii;
    class       volScalarField;
    location    "0.002350000";
    object      OH;
}
// * * * * * * * * * * * * * * * * * * * * * * * * * * * * * * * * * * * * * //

dimensions      [0 0 0 0 0 0 0];

internalField   nonuniform List<scalar> 
12384
(
0.0066174
0.00668306
0.00597968
0.003941
0.0038442
0.00361134
0.0039542
0.00381509
0.000246516
3.71929e-06
3.42822e-07
1.6497e-08
6.16921e-10
2.08234e-11
1.17048e-07
2.26292e-06
2.53229e-05
9.84206e-05
0.000140466
0.000209577
0.00028949
0.000353992
0.000371406
0.000378803
0.000393229
0.000356265
0.000310846
0.000276198
0.000223956
0.000189971
0.000143164
0.000130467
0.000105311
6.78243e-05
4.34366e-05
1.1663e-05
1.82119e-06
5.6199e-07
2.6535e-07
3.95663e-08
2.16285e-09
2.9061e-11
3.03621e-13
2.83143e-15
3.35748e-07
3.29591e-05
0.000310094
0.000771328
0.00310261
0.00320772
0.00346887
0.00368149
0.00396476
0.0040347
0.00419733
0.00411996
0.00419708
0.000984497
0.000587878
0.000482286
0.000407012
0.000322897
0.00027447
0.00018783
4.34288e-05
5.05289e-06
4.67393e-07
2.44787e-08
1.42998e-10
8.22655e-13
4.15026e-15
1.35494e-17
2.63236e-20
1.61459e-22
6.42183e-28
7.6738e-27
1.59093e-26
2.83275e-25
2.02738e-21
1.85522e-17
1.14019e-13
4.76118e-10
1.48088e-06
2.52427e-05
6.37012e-05
9.21201e-05
6.85142e-05
1.43073e-05
3.13759e-06
1.07757e-06
1.08144e-07
1.05388e-08
5.82488e-10
1.1938e-11
1.5937e-13
1.78758e-15
7.20967e-18
9.22792e-21
1.35393e-23
2.00762e-26
2.2567e-29
2.14759e-32
2.13384e-35
2.16261e-38
1.67025e-55
3.29414e-56
1.38242e-58
2.57704e-61
3.05767e-64
2.70692e-67
2.34898e-70
2.9565e-73
6.03734e-76
6.92452e-79
6.61114e-82
4.9528e-85
2.95604e-88
1.19712e-91
4.93977e-95
2.17064e-98
9.43299e-102
3.78227e-105
1.4505e-108
5.4863e-112
2.02369e-115
7.95417e-119
3.2696e-122
1.43362e-125
6.55918e-129
3.08241e-132
1.45782e-135
6.84359e-139
3.1474e-142
1.40567e-145
3.21735e-158
1.23691e-159
1.33362e-162
8.96484e-166
4.30552e-169
1.17339e-174
5.42945e-180
7.59947e-185
1.21106e-189
1.78525e-194
2.13731e-199
1.7013e-204
1.03093e-209
5.57057e-215
2.94544e-220
1.51937e-225
7.85102e-231
4.07084e-236
2.18476e-241
1.06678e-246
4.17541e-252
1.42512e-257
4.27701e-263
1.15992e-268
2.81506e-274
6.25263e-280
1.27997e-285
2.54255e-291
5.39423e-297
1.55318e-302
0
0
0
0
0
0
0
0
0
0
0
0
0
0
0
0
0
0
0
0
0
0
0
0
0
0
0
0
0
0
0
0
0
0
0
0
0
0
0
0
0
0
0
0
0
0
0
0
0
0
0
0
0
0
0
0
0
0
0
0
0
0
0
0
0
0
0
0
0
0
0
0
0
0
0
0
0
0
0
0
0
0
0
0
0
0
0
0
0
0
0
0
0
0
0
0
0
0
0
0
0
0
0
0
0
0
0
0
0
0
0
0
0
0
0
0
0
0
0
0
0
0
0
0
0
0
0
0
0
0
0
0
0
0
0
0
0
0
0
0
0
0
0
0
0
0
0
0
0
0
0
0
0
0
0
0
0
0
0
0
0
0
0
0
0
0
0
0
0
0
0
0
0
0
0
0
0
0
0
0
0
0
0
0
0
0
0
0
0
0
0
0
0
0
0
0
0
0
0
0
0
0
0
0
0
0
0
0
0
0
0.00626142
0.00507833
0.00288095
0.00107815
0.000764113
0.000947797
0.000886366
0.000341537
5.26186e-05
1.18797e-05
1.98662e-06
1.25741e-07
1.11379e-08
5.47249e-10
4.32963e-06
4.84838e-05
0.000234085
0.000873822
0.000859556
0.000842175
0.000815209
0.000821089
0.000800887
0.000813555
0.000785827
0.000755094
0.000699451
0.000645488
0.000611467
0.000563849
0.000534176
0.000534644
0.000505814
0.000415047
0.000426854
8.8103e-05
2.9073e-05
9.71644e-06
2.40088e-06
3.5256e-07
7.8836e-08
2.28859e-09
2.54577e-11
2.25546e-13
2.94277e-05
0.000366568
0.00300367
0.00282322
0.0027102
0.00311812
0.00347643
0.00374775
0.00395747
0.00409031
0.0041642
0.0042295
0.00412176
0.00423268
0.00426114
0.00422513
0.00412408
0.00403789
0.00333323
0.00267087
0.000705272
0.000271544
0.000253075
2.82045e-05
5.64812e-08
7.40492e-11
1.90947e-13
1.52898e-15
7.9105e-18
5.90051e-20
1.2185e-25
1.26609e-24
7.43087e-24
5.67213e-23
8.24127e-21
1.80159e-17
3.48687e-14
6.65282e-11
9.85516e-08
7.69607e-05
0.000188857
0.000290339
0.00036712
0.000164772
9.97665e-05
5.11075e-05
6.48289e-06
8.18525e-07
1.71662e-07
1.39948e-08
9.67811e-10
7.4144e-12
3.93036e-15
1.06516e-19
4.20701e-23
8.49167e-26
2.47294e-28
7.04226e-31
7.79009e-34
7.92339e-37
8.53878e-53
5.45136e-54
1.15818e-56
1.67128e-59
5.17715e-62
9.95875e-65
4.34459e-67
6.72691e-70
1.43289e-72
1.96352e-75
1.09017e-78
3.50478e-82
4.75667e-86
3.19346e-90
1.11995e-94
3.54653e-99
7.00312e-103
7.18635e-106
4.55229e-109
4.40992e-112
1.50522e-115
7.43597e-119
3.73553e-122
2.13869e-125
1.18642e-128
1.55449e-131
1.2434e-133
6.92624e-137
3.24959e-140
1.42878e-143
7.95842e-156
2.32619e-157
2.83328e-160
1.96137e-163
1.0762e-166
5.52029e-170
4.25844e-175
9.93284e-180
1.9388e-184
5.54695e-189
8.47459e-194
8.03279e-199
4.87701e-204
2.59766e-209
1.31456e-214
6.83642e-220
3.55753e-225
1.88917e-230
1.0226e-235
5.39283e-241
2.28055e-246
8.30451e-252
2.58542e-257
7.09708e-263
1.70087e-268
3.55541e-274
6.65652e-280
1.16961e-285
2.17807e-291
4.95295e-297
1.66401e-320
1.97626e-323
0
0
0
0
0
0
0
0
0
0
0
0
0
0
0
0
0
0
0
0
0
0
0
0
0
0
0
0
0
0
0
0
0
0
0
0
0
0
0
0
0
0
0
0
0
0
0
0
0
0
0
0
0
0
0
0
0
0
0
0
0
0
0
0
0
0
0
0
0
0
0
0
0
0
0
0
0
0
0
0
0
0
0
0
0
0
0
0
0
0
0
0
0
0
0
0
0
0
0
0
0
0
0
0
0
0
0
0
0
0
0
0
0
0
0
0
0
0
0
0
0
0
0
0
0
0
0
0
0
0
0
0
0
0
0
0
0
0
0
0
0
0
0
0
0
0
0
0
0
0
0
0
0
0
0
0
0
0
0
0
0
0
0
0
0
0
0
0
0
0
0
0
0
0
0
0
0
0
0
0
0
0
0
0
0
0
0
0
0
0
0
0
0
0
0
0
0
0
0
0
0
0
0
0
0
0
0
0
0.00505187
0.00153375
0.000361697
7.70171e-05
5.54972e-05
7.7683e-05
7.55401e-05
2.33575e-05
4.90435e-06
4.85543e-06
4.66581e-06
5.13445e-07
3.27887e-08
5.73408e-09
1.81265e-05
0.000101831
0.000397394
0.000735283
0.000822825
0.00124382
0.0015028
0.00155713
0.00136933
0.00128363
0.00118459
0.00115363
0.001128
0.00112614
0.00109254
0.000913837
0.000653311
0.000511256
0.000442775
0.000331336
0.000182938
0.000141904
0.000103919
1.94157e-05
5.94154e-06
1.92236e-06
6.41034e-07
4.42896e-08
1.67929e-09
1.42421e-11
2.96416e-05
0.000401506
0.00284338
0.00222706
0.00198741
0.00206405
0.00261018
0.00283606
0.00310438
0.00330926
0.00362061
0.00386943
0.0039575
0.00381285
0.00398293
0.00405648
0.00421295
0.00344151
0.0017465
0.000714202
0.000211611
0.000279271
0.00062447
0.00067285
0.000240506
1.10746e-06
5.81307e-11
6.33241e-14
1.64238e-15
2.46079e-17
1.92913e-23
3.5029e-22
1.23311e-20
5.50509e-20
6.70256e-20
4.30949e-18
5.83064e-15
2.06134e-11
6.91694e-08
5.96292e-05
0.00017403
0.000396084
0.000423619
0.000593915
0.000829162
0.00111019
0.000271052
6.77205e-05
2.09642e-05
1.49339e-06
3.28689e-08
1.26261e-09
5.31563e-11
3.42461e-13
6.71818e-18
1.09021e-23
4.36438e-28
6.10658e-30
1.60047e-31
4.5107e-34
3.51795e-51
1.6213e-51
3.60797e-53
1.41529e-54
9.55717e-57
1.5678e-59
7.9391e-63
4.29024e-66
4.47607e-69
5.87128e-72
7.76291e-75
1.42357e-77
2.25529e-80
3.24395e-84
1.20186e-88
3.81766e-94
6.35442e-99
4.21029e-103
7.85394e-107
1.86902e-110
2.68247e-115
4.74518e-119
1.87414e-122
7.15087e-126
3.03824e-129
7.68505e-131
2.60981e-132
3.25893e-135
2.14002e-138
7.10333e-142
1.28251e-154
7.27233e-156
1.01751e-158
5.63393e-162
2.95745e-165
7.40683e-169
3.05398e-172
4.82646e-177
1.12941e-181
3.4953e-186
6.27835e-191
3.32029e-196
1.94614e-201
6.78204e-207
3.01102e-212
1.13044e-217
5.25834e-223
2.3156e-228
1.0805e-233
5.54737e-239
2.42e-244
1.1389e-249
3.69365e-255
1.38431e-260
3.10883e-266
8.60178e-272
1.34638e-277
2.63375e-283
3.91204e-289
2.94999e-295
1.15554e-318
4.9703e-321
0
0
0
0
0
0
0
0
0
0
0
0
0
0
0
0
0
0
0
0
0
0
0
0
0
0
0
0
0
0
0
0
0
0
0
0
0
0
0
0
0
0
0
0
0
0
0
0
0
0
0
0
0
0
0
0
0
0
0
0
0
0
0
0
0
0
0
0
0
0
0
0
0
0
0
0
0
0
0
0
0
0
0
0
0
0
0
0
0
0
0
0
0
0
0
0
0
0
0
0
0
0
0
0
0
0
0
0
0
0
0
0
0
0
0
0
0
0
0
0
0
0
0
0
0
0
0
0
0
0
0
0
0
0
0
0
0
0
0
0
0
0
0
0
0
0
0
0
0
0
0
0
0
0
0
0
0
0
0
0
0
0
0
0
0
0
0
0
0
0
0
0
0
0
0
0
0
0
0
0
0
0
0
0
0
0
0
0
0
0
0
0
0
0
0
0
0
0
0
0
0
0
0
0
0
0
0
0
0.00205869
0.00039595
0.000130586
7.86446e-05
2.90528e-05
1.95815e-05
9.97462e-06
9.4413e-06
6.24799e-06
1.71625e-06
9.82516e-07
1.07777e-06
2.99668e-07
1.63985e-08
1.98387e-05
0.000159904
0.00118791
0.00111073
0.00290792
0.00509455
0.00565501
0.00546056
0.00499536
0.00486232
0.00491956
0.00543612
0.00578091
0.00587399
0.00534815
0.00408743
0.00303941
0.0025979
0.00245377
0.0023231
0.00163499
0.00142156
0.000523427
6.43866e-05
2.41804e-06
2.58534e-06
6.31467e-07
8.40098e-09
9.04162e-10
1.98729e-11
1.28556e-05
0.000321169
0.00285151
0.00197787
0.00162473
0.00140096
0.00156908
0.00171743
0.00183553
0.00190483
0.00205829
0.00242746
0.00255867
0.00236526
0.00241994
0.00253962
0.00308323
0.00416524
0.00218504
0.00115666
0.00114858
0.000469099
0.000241362
0.000165113
0.000699505
0.000484295
2.17216e-06
4.00182e-11
2.27887e-13
8.70564e-15
2.85073e-21
1.79708e-19
1.15288e-17
3.63412e-17
2.61709e-17
7.90436e-18
9.40779e-17
6.06255e-13
6.32021e-09
1.44599e-05
0.000121453
0.00021544
0.00032677
0.000171673
0.000341711
0.000698526
0.000960152
0.000675426
0.000616694
8.35062e-05
1.77744e-05
2.78034e-07
3.5091e-09
5.46318e-11
1.29444e-12
8.92353e-17
5.02842e-23
9.52407e-28
1.8925e-29
2.53573e-31
4.61535e-47
1.25962e-46
1.24394e-47
4.19088e-50
1.8236e-53
1.01844e-56
8.39132e-60
6.43335e-63
3.70479e-66
2.62131e-69
1.93172e-72
1.48062e-75
1.46355e-78
2.50302e-81
7.68227e-84
3.87438e-87
2.12433e-91
9.97739e-96
9.10222e-100
1.54812e-103
8.45996e-109
1.3683e-112
2.93607e-116
6.45735e-120
1.53215e-123
3.33159e-127
1.4901e-129
3.75705e-133
8.24586e-137
9.50422e-141
1.03026e-148
9.32032e-150
7.73098e-153
3.79128e-156
9.75932e-160
2.9768e-163
5.20751e-167
1.32578e-170
1.23057e-175
1.23643e-179
7.68689e-185
5.20565e-190
1.4384e-195
5.42156e-201
1.25938e-206
4.44982e-212
1.25682e-217
5.14124e-223
1.74879e-228
8.46559e-234
3.37295e-239
1.90914e-244
7.59677e-250
3.24031e-255
9.08395e-261
2.27308e-266
3.62785e-272
5.23796e-278
6.58635e-284
8.05937e-290
2.376e-312
3.51635e-315
1.51431e-320
0
0
0
0
0
0
0
0
0
0
0
0
0
0
0
0
0
0
0
0
0
0
0
0
0
0
0
0
0
0
0
0
0
0
0
0
0
0
0
0
0
0
0
0
0
0
0
0
0
0
0
0
0
0
0
0
0
0
0
0
0
0
0
0
0
0
0
0
0
0
0
0
0
0
0
0
0
0
0
0
0
0
0
0
0
0
0
0
0
0
0
0
0
0
0
0
0
0
0
0
0
0
0
0
0
0
0
0
0
0
0
0
0
0
0
0
0
0
0
0
0
0
0
0
0
0
0
0
0
0
0
0
0
0
0
0
0
0
0
0
0
0
0
0
0
0
0
0
0
0
0
0
0
0
0
0
0
0
0
0
0
0
0
0
0
0
0
0
0
0
0
0
0
0
0
0
0
0
0
0
0
0
0
0
0
0
0
0
0
0
0
0
0
0
0
0
0
0
0
0
0
0
0
0
0
0
0
0.000627838
0.000481739
0.000761192
0.000900944
0.000305786
8.16157e-05
0.000254778
0.000899405
0.000426194
0.000170502
1.78695e-05
6.27448e-07
9.09204e-07
4.83951e-08
2.39054e-05
0.000673884
0.00226815
0.00477487
0.00722812
0.00695538
0.00656653
0.00611197
0.00471658
0.00336883
0.00227516
0.00188479
0.001908
0.00258469
0.00395557
0.00534759
0.0059177
0.00601916
0.00608999
0.00563586
0.00477186
0.00374968
0.00207022
0.000623098
6.27918e-05
1.32175e-06
7.72086e-07
4.05344e-09
5.24977e-10
4.30681e-11
2.74853e-06
0.000232769
0.00293165
0.00229528
0.00186749
0.00152749
0.00132998
0.00124857
0.00118353
0.00110754
0.00111084
0.00124469
0.00140272
0.00150577
0.00160883
0.00167722
0.00192656
0.00273048
0.00411418
0.00422611
0.00412141
0.00151713
0.00027698
0.000159885
0.000248734
0.000244035
0.000105223
1.64418e-08
1.20754e-11
1.93714e-12
8.77805e-19
1.05436e-16
5.60402e-15
1.25745e-14
1.48229e-14
5.804e-15
4.61387e-16
9.18048e-14
4.85164e-10
4.852e-07
9.17681e-05
0.00031149
0.000442861
0.000103474
0.000141005
0.000318363
0.000383025
0.000429249
0.000441125
0.000330688
0.000246532
3.25954e-05
1.89829e-06
8.5962e-09
4.66784e-11
9.33713e-13
1.13609e-16
1.22715e-22
3.5381e-27
4.16442e-29
2.97018e-42
1.7529e-41
9.02305e-44
4.74625e-47
4.38149e-50
2.01754e-53
3.80723e-57
8.19771e-61
6.85647e-64
6.00532e-67
2.92522e-70
9.91334e-74
4.50037e-77
2.85122e-80
4.09537e-83
1.49564e-85
6.53184e-88
4.92955e-91
1.21113e-94
2.71968e-98
6.71739e-102
1.40626e-105
3.06064e-109
5.84158e-113
1.17754e-116
1.88223e-120
2.29788e-124
2.61063e-128
2.34693e-132
1.57207e-136
2.73971e-143
2.8014e-144
3.76583e-147
1.82027e-150
6.14662e-154
1.24051e-157
2.91983e-161
5.48689e-165
1.31336e-168
1.89753e-172
1.29672e-177
5.26861e-183
1.71683e-188
4.25271e-194
1.03814e-199
2.19326e-205
5.74204e-211
1.45425e-216
4.65921e-222
1.44579e-227
5.63698e-233
2.39924e-238
1.20634e-243
5.8428e-249
2.42172e-254
6.59089e-260
1.20328e-265
1.43437e-271
1.68667e-277
2.08302e-283
2.81784e-305
3.27613e-308
1.07685e-313
2.72438e-319
0
0
0
0
0
0
0
0
0
0
0
0
0
0
0
0
0
0
0
0
0
0
0
0
0
0
0
0
0
0
0
0
0
0
0
0
0
0
0
0
0
0
0
0
0
0
0
0
0
0
0
0
0
0
0
0
0
0
0
0
0
0
0
0
0
0
0
0
0
0
0
0
0
0
0
0
0
0
0
0
0
0
0
0
0
0
0
0
0
0
0
0
0
0
0
0
0
0
0
0
0
0
0
0
0
0
0
0
0
0
0
0
0
0
0
0
0
0
0
0
0
0
0
0
0
0
0
0
0
0
0
0
0
0
0
0
0
0
0
0
0
0
0
0
0
0
0
0
0
0
0
0
0
0
0
0
0
0
0
0
0
0
0
0
0
0
0
0
0
0
0
0
0
0
0
0
0
0
0
0
0
0
0
0
0
0
0
0
0
0
0
0
0
0
0
0
0
0
0
0
0
0
0
0
0
0
0.000796533
0.0032177
0.00779486
0.00792981
0.0039292
0.00237646
0.00422876
0.00485791
0.00338487
0.00166298
0.000322679
2.39776e-05
1.28504e-06
1.94885e-07
5.58429e-05
0.00177998
0.00600569
0.00656735
0.00502345
0.00410777
0.00323435
0.00219147
0.00139116
0.000848404
0.000598185
0.000559438
0.000732706
0.00113153
0.0017327
0.0023043
0.00271952
0.00308995
0.00358452
0.00400652
0.00418838
0.004281
0.00377886
0.00201029
0.000364479
4.93637e-05
2.99549e-06
2.44991e-07
3.97713e-09
1.05853e-09
4.032e-07
0.000139973
0.00113061
0.00275519
0.00248126
0.00210586
0.00179543
0.00135127
0.00096245
0.000786943
0.000882667
0.0013019
0.00201823
0.00279594
0.00310807
0.00305106
0.00264232
0.0024683
0.00263666
0.00247457
0.00242826
0.00402994
0.0010485
0.000235021
9.05092e-05
0.000150726
0.000439278
2.30611e-05
4.46411e-09
3.24924e-10
1.69972e-16
5.96197e-14
1.7761e-12
3.29653e-12
5.36928e-12
6.47621e-12
2.18774e-12
8.10868e-13
6.93743e-10
1.21762e-07
9.97764e-06
0.00034187
0.000839256
7.80244e-05
4.97312e-05
6.46615e-05
9.37903e-05
0.00013137
0.000163212
0.00014307
0.000114729
0.000104169
2.30325e-05
2.95117e-06
8.12183e-09
3.63675e-11
6.87701e-13
2.61201e-17
1.03453e-23
4.16288e-27
3.24998e-37
2.05238e-37
1.34754e-40
1.33798e-43
4.95636e-47
5.57354e-51
1.35908e-55
3.70019e-59
1.19632e-62
3.23453e-65
5.89755e-67
3.29884e-70
9.4942e-74
3.28171e-77
1.62781e-80
1.87436e-83
6.23732e-86
2.6084e-88
7.56352e-91
5.97991e-94
2.3702e-97
8.1402e-101
2.25446e-104
5.76986e-108
1.25367e-111
2.32544e-115
3.27355e-119
3.30378e-123
2.11262e-127
8.11191e-132
1.04971e-138
2.99287e-140
2.2138e-143
1.97484e-146
1.8307e-149
8.20787e-153
2.08634e-156
5.61519e-160
1.28057e-163
3.89852e-167
8.01707e-171
3.931e-176
1.00538e-181
2.79466e-187
4.74285e-193
1.05169e-198
1.7334e-204
4.27176e-210
8.60254e-216
2.63548e-221
6.36364e-227
2.56704e-232
8.57304e-238
4.41332e-243
2.01404e-248
7.49178e-254
1.33377e-259
1.7709e-265
1.81976e-271
1.88915e-277
2.60171e-298
2.77426e-301
6.66836e-307
1.17741e-312
2.1546e-318
4.94066e-324
0
0
0
0
0
0
0
0
0
0
0
0
0
0
0
0
0
0
0
0
0
0
0
0
0
0
0
0
0
0
0
0
0
0
0
0
0
0
0
0
0
0
0
0
0
0
0
0
0
0
0
0
0
0
0
0
0
0
0
0
0
0
0
0
0
0
0
0
0
0
0
0
0
0
0
0
0
0
0
0
0
0
0
0
0
0
0
0
0
0
0
0
0
0
0
0
0
0
0
0
0
0
0
0
0
0
0
0
0
0
0
0
0
0
0
0
0
0
0
0
0
0
0
0
0
0
0
0
0
0
0
0
0
0
0
0
0
0
0
0
0
0
0
0
0
0
0
0
0
0
0
0
0
0
0
0
0
0
0
0
0
0
0
0
0
0
0
0
0
0
0
0
0
0
0
0
0
0
0
0
0
0
0
0
0
0
0
0
0
0
0
0
0
0
0
0
0
0
0
0
0
0
0
0
0.00429842
0.0120253
0.0135055
0.0119626
0.00944655
0.00767161
0.00677838
0.00618844
0.00399122
0.00103202
0.000192015
5.2009e-05
9.00717e-06
6.90482e-07
0.000107344
0.00375938
0.00571773
0.00476907
0.00402516
0.00295863
0.00183474
0.00102261
0.000583608
0.000365257
0.000266938
0.000246113
0.000299834
0.000434461
0.000661703
0.000961157
0.0012905
0.0017195
0.00240366
0.00342637
0.00455096
0.00403462
0.00371599
0.00300458
0.00121456
0.000152538
1.02869e-05
3.00341e-06
1.59875e-07
2.63624e-08
2.61527e-07
0.000108034
0.000850123
0.00366743
0.00337613
0.00413967
0.0038879
0.00212338
0.00088802
0.000640385
0.00104346
0.00333915
0.00498081
0.00279858
0.00190442
0.00180918
0.00227052
0.00401604
0.00367502
0.00274043
0.00227842
0.00264913
0.00418578
0.000777604
0.000124627
8.47287e-05
0.000285346
0.000713044
4.93729e-06
5.18037e-08
4.03066e-13
2.08513e-11
4.22662e-10
7.51591e-10
1.32839e-09
2.93447e-09
4.38797e-09
4.5195e-09
2.2648e-08
6.20113e-07
2.15113e-05
0.000381325
0.0018448
7.51526e-05
1.56795e-05
1.46565e-05
1.71861e-05
2.9259e-05
3.28533e-05
3.67352e-05
4.19502e-05
3.25674e-05
3.44221e-05
9.71657e-06
1.29562e-06
3.20678e-09
1.47506e-11
2.4797e-13
4.82679e-18
2.43884e-23
1.19065e-32
7.126e-34
3.35691e-37
5.41608e-40
1.63854e-43
9.01469e-48
5.22838e-51
1.71666e-54
5.89686e-58
3.54344e-61
1.65336e-63
6.07796e-67
1.63167e-70
5.24823e-74
1.67632e-77
8.34564e-81
9.18057e-84
2.59866e-86
9.68105e-89
2.72051e-91
4.80824e-94
5.18566e-97
3.07787e-100
1.36337e-103
4.4342e-107
1.33124e-110
2.56428e-114
3.55218e-118
2.60516e-122
5.10361e-127
4.75995e-135
5.1211e-137
2.11653e-140
9.03569e-144
6.70949e-147
8.41838e-150
1.03325e-152
6.92655e-156
2.84009e-159
1.02371e-162
3.76961e-166
1.19954e-169
3.90962e-175
9.54541e-181
1.88206e-186
3.26181e-192
5.53893e-198
1.01569e-203
1.88598e-209
4.15088e-215
9.06165e-221
2.53572e-226
7.42316e-232
2.8146e-237
1.19542e-242
4.78515e-248
1.11188e-253
1.60412e-259
1.72071e-265
1.81685e-271
2.54564e-291
1.96087e-294
3.48043e-300
5.37147e-306
7.67623e-312
1.13542e-317
1.4822e-323
0
0
0
0
0
0
0
0
0
0
0
0
0
0
0
0
0
0
0
0
0
0
0
0
0
0
0
0
0
0
0
0
0
0
0
0
0
0
0
0
0
0
0
0
0
0
0
0
0
0
0
0
0
0
0
0
0
0
0
0
0
0
0
0
0
0
0
0
0
0
0
0
0
0
0
0
0
0
0
0
0
0
0
0
0
0
0
0
0
0
0
0
0
0
0
0
0
0
0
0
0
0
0
0
0
0
0
0
0
0
0
0
0
0
0
0
0
0
0
0
0
0
0
0
0
0
0
0
0
0
0
0
0
0
0
0
0
0
0
0
0
0
0
0
0
0
0
0
0
0
0
0
0
0
0
0
0
0
0
0
0
0
0
0
0
0
0
0
0
0
0
0
0
0
0
0
0
0
0
0
0
0
0
0
0
0
0
0
0
0
0
0
0
0
0
0
0
0
0
0
0
0
0
0.0131098
0.0133403
0.0115548
0.00923605
0.00682555
0.00453703
0.00385413
0.00516975
0.00371113
0.00036486
5.01996e-05
2.55113e-05
1.72881e-05
1.22983e-05
8.04719e-05
0.0053243
0.00507821
0.00516628
0.00496993
0.00350213
0.00196789
0.00102967
0.000598437
0.000364098
0.000237044
0.000177964
0.000172611
0.000214412
0.00029622
0.00044718
0.000664683
0.000903887
0.00149378
0.00271837
0.00357721
0.00181293
0.0019736
0.00226251
0.0011649
0.000180906
2.04332e-05
1.90717e-05
1.46426e-06
1.00753e-07
1.07202e-07
6.28574e-05
0.000668265
0.00421792
0.00417452
0.00267469
0.00287784
0.00334738
0.000855577
0.000578413
0.00128643
0.00517531
0.00201782
0.000816654
0.000382901
0.000278987
0.000392802
0.000740644
0.00163989
0.00343353
0.00386838
0.00266115
0.00293133
0.00389258
0.000411452
8.78565e-05
0.000160624
0.0017376
6.29585e-05
2.31451e-06
8.48576e-10
8.3746e-09
7.4215e-08
1.98532e-07
3.11827e-07
4.68642e-07
7.40403e-07
1.35797e-06
4.40683e-06
2.15993e-05
0.000127547
0.000979312
0.00261013
0.000121733
8.98498e-06
5.9804e-06
6.73611e-06
7.78394e-06
7.9172e-06
9.67947e-06
1.11093e-05
1.2742e-05
1.28471e-05
1.26449e-05
4.35828e-06
1.01309e-07
1.5745e-10
6.87963e-13
1.03803e-14
9.31453e-21
2.39197e-28
1.97916e-30
1.41302e-33
2.13363e-36
7.49729e-40
3.61672e-43
1.10795e-46
6.45967e-50
3.62423e-53
1.42787e-56
3.4034e-60
6.9375e-64
1.62109e-67
5.07966e-71
1.64785e-74
6.20016e-78
3.47354e-81
4.22838e-84
9.68948e-87
2.87475e-89
7.10413e-92
1.19428e-94
1.61847e-97
1.78043e-100
1.69035e-103
9.65781e-107
3.37367e-110
7.4376e-114
5.69653e-118
9.52474e-123
8.91926e-132
1.458e-133
4.52216e-137
8.12305e-141
2.99866e-144
2.50774e-147
3.30423e-150
3.90494e-153
3.54086e-156
2.3418e-159
1.46239e-162
7.69697e-166
3.39964e-169
9.7923e-175
1.93477e-180
3.35205e-186
5.16561e-192
8.56169e-198
1.35968e-203
2.49051e-209
4.39992e-215
9.59097e-221
2.11462e-226
6.21222e-232
1.97199e-237
7.66582e-243
2.04686e-248
3.56286e-254
4.11337e-260
4.67305e-266
8.45419e-285
6.03851e-288
6.07486e-294
6.11089e-300
6.87223e-306
7.93569e-312
1.00999e-317
1.4822e-323
0
0
0
0
0
0
0
0
0
0
0
0
0
0
0
0
0
0
0
0
0
0
0
0
0
0
0
0
0
0
0
0
0
0
0
0
0
0
0
0
0
0
0
0
0
0
0
0
0
0
0
0
0
0
0
0
0
0
0
0
0
0
0
0
0
0
0
0
0
0
0
0
0
0
0
0
0
0
0
0
0
0
0
0
0
0
0
0
0
0
0
0
0
0
0
0
0
0
0
0
0
0
0
0
0
0
0
0
0
0
0
0
0
0
0
0
0
0
0
0
0
0
0
0
0
0
0
0
0
0
0
0
0
0
0
0
0
0
0
0
0
0
0
0
0
0
0
0
0
0
0
0
0
0
0
0
0
0
0
0
0
0
0
0
0
0
0
0
0
0
0
0
0
0
0
0
0
0
0
0
0
0
0
0
0
0
0
0
0
0
0
0
0
0
0
0
0
0
0
0
0
0
0.0117066
0.00962245
0.00793931
0.00604949
0.00304073
0.00143682
0.00104233
0.0015444
0.0047789
0.000449337
4.7878e-05
4.28568e-05
0.000250361
0.000815843
0.00122263
0.00129034
0.00164609
0.00555312
0.00524672
0.00654962
0.0070658
0.00657202
0.00413629
0.00218823
0.00119998
0.000608329
0.000281
0.000151972
0.000111981
0.000120222
0.000170206
0.000236176
0.000305011
0.000419577
0.000906142
0.00298443
0.00160988
0.000534171
0.000623289
0.000941459
0.000630735
0.000231063
0.000158561
0.000112079
3.45894e-06
3.46375e-07
9.87628e-08
7.65184e-08
7.53764e-08
6.05066e-06
0.000173031
0.000642291
0.00376266
0.00227426
0.00222647
0.00377755
0.00086788
0.000534239
0.00101964
0.00376915
0.00253671
0.00106173
0.000483793
0.000292147
0.000153168
0.000184745
0.000310324
0.000840158
0.00247901
0.00379008
0.00255462
0.00328062
0.00209906
0.000200731
9.66307e-05
0.000432499
0.000816939
3.14079e-05
3.1225e-06
7.89754e-07
1.95724e-07
6.16662e-07
2.82354e-06
1.9858e-05
6.3208e-05
0.000109946
0.000154686
0.000190136
0.00020586
0.00034378
0.000701212
0.00404798
0.00172801
0.000180663
1.27148e-05
5.68534e-06
5.15089e-06
5.31219e-06
5.56909e-06
5.91949e-06
6.27566e-06
6.34214e-06
6.15363e-06
5.64637e-06
3.4095e-06
1.43273e-06
5.64363e-09
1.30377e-11
1.10411e-13
9.6339e-17
3.70515e-21
6.96342e-24
4.09263e-26
3.05994e-28
6.53496e-31
1.38801e-33
1.33068e-36
1.93704e-39
2.97906e-42
2.92772e-45
6.94824e-49
4.45923e-53
4.04382e-57
5.71837e-61
1.2055e-64
3.32023e-68
1.03924e-71
3.84667e-75
1.75039e-78
1.20578e-81
1.37701e-84
2.59876e-87
6.36656e-90
1.29883e-92
2.09318e-95
2.66909e-98
2.98341e-101
3.1221e-104
3.07954e-107
2.72081e-110
9.22955e-114
4.65368e-118
5.87236e-122
1.32011e-125
1.09907e-128
1.08441e-131
5.77215e-135
3.55209e-138
1.56608e-141
1.04081e-144
1.13298e-147
1.27571e-150
1.14788e-153
8.58452e-157
5.62788e-160
3.3914e-163
1.98917e-166
9.99928e-170
1.83136e-175
3.03994e-181
4.95093e-187
7.67688e-193
1.22343e-198
1.90892e-204
3.16807e-210
5.29428e-216
1.01116e-221
2.05496e-227
5.27895e-233
1.54007e-238
5.58258e-244
1.62081e-249
3.55316e-255
5.31662e-261
4.53716e-267
4.40654e-273
4.06048e-279
4.8456e-285
7.52818e-291
1.05397e-296
1.56602e-302
2.22653e-308
3.35229e-314
5.03749e-320
0
0
0
0
0
0
0
0
0
0
0
0
0
0
0
0
0
0
0
0
0
0
0
0
0
0
0
0
0
0
0
0
0
0
0
0
0
0
0
0
0
0
0
0
0
0
0
0
0
0
0
0
0
0
0
0
0
0
0
0
0
0
0
0
0
0
0
0
0
0
0
0
0
0
0
0
0
0
0
0
0
0
0
0
0
0
0
0
0
0
0
0
0
0
0
0
0
0
0
0
0
0
0
0
0
0
0
0
0
0
0
0
0
0
0
0
0
0
0
0
0
0
0
0
0
0
0
0
0
0
0
0
0
0
0
0
0
0
0
0
0
0
0
0
0
0
0
0
0
0
0
0
0
0
0
0
0
0
0
0
0
0
0
0
0
0
0
0
0
0
0
0
0
0
0
0
0
0
0
0
0
0
0
0
0
0
0
0
0
0
0
0
0
0
0
0
0
0
0
0
0
0
0
0
0
0
0
0
0
0
0
0
0
0
0
0
0.00595655
0.00510562
0.00451906
0.00307036
0.00117012
0.00039736
0.000245086
0.000387829
0.00149086
0.0015959
0.000112422
8.51305e-05
0.000434766
0.0015141
0.00234433
0.00316341
0.00429775
0.00614981
0.00667808
0.00657479
0.00571574
0.00567926
0.00698552
0.0058275
0.00287344
0.00106665
0.000344036
0.000132805
7.99269e-05
8.08761e-05
0.000100358
0.000108562
0.000124058
0.000221952
0.000742533
0.00387238
0.000486124
0.000184763
0.000225538
0.000347698
0.000325275
0.000232054
0.000222613
0.000141745
1.52054e-05
1.49603e-05
2.07052e-05
1.34829e-05
1.73866e-05
2.77482e-05
5.10717e-05
0.000109634
0.000357906
0.00206385
0.00272097
0.00401475
0.00143747
0.000857851
0.00105689
0.00175541
0.00273933
0.00381306
0.00404795
0.00148705
0.000605513
0.000229155
0.000148837
0.000224383
0.000766865
0.00318964
0.00334929
0.00273457
0.0039767
0.00107088
0.000156842
0.00013478
0.000523449
0.000734183
0.000153279
6.59252e-05
3.81685e-05
2.83679e-05
2.91201e-05
5.65464e-05
0.000146385
0.000322725
0.000493261
0.000508406
0.000485372
0.00200308
0.00416951
0.00208852
0.000840804
0.000224623
3.13582e-05
1.01534e-05
6.56751e-06
5.3342e-06
5.22612e-06
5.27433e-06
5.8589e-06
6.11967e-06
5.46713e-06
4.72115e-06
4.62021e-06
2.30621e-06
3.82886e-07
1.10333e-09
2.31677e-12
1.46541e-14
3.27991e-16
1.97111e-18
4.29818e-21
8.76358e-24
1.67069e-26
2.53728e-29
2.92718e-32
1.83115e-35
7.95543e-39
1.61988e-42
3.0598e-46
2.97452e-50
2.61047e-54
2.69119e-58
3.77824e-62
1.11409e-65
3.41464e-69
1.23743e-72
5.19591e-76
2.49681e-79
1.44123e-82
1.00987e-85
9.36645e-89
9.7582e-92
1.07598e-94
8.9411e-98
8.15664e-101
8.86787e-104
8.22274e-107
7.79672e-110
7.6042e-113
8.68499e-116
3.93372e-119
1.85131e-122
9.02534e-126
2.80297e-129
6.69795e-133
1.53857e-136
4.27e-140
1.86992e-143
1.2507e-146
1.02705e-149
7.88052e-153
5.37608e-156
3.53432e-159
2.1762e-162
1.36124e-165
7.38693e-169
1.94689e-174
4.22894e-180
9.79887e-186
1.93495e-191
4.07377e-197
7.50491e-203
1.5752e-208
2.83005e-214
6.07259e-220
1.16201e-225
2.78174e-231
6.3214e-237
1.85943e-242
5.23525e-248
1.55586e-253
3.27187e-259
5.69474e-265
8.10106e-271
1.26478e-276
2.21736e-282
4.39207e-288
7.76402e-294
1.41988e-299
2.45582e-305
4.28619e-311
6.95876e-317
1.08694e-322
0
0
0
0
0
0
0
0
0
0
0
0
0
0
0
0
0
0
0
0
0
0
0
0
0
0
0
0
0
0
0
0
0
0
0
0
0
0
0
0
0
0
0
0
0
0
0
0
0
0
0
0
0
0
0
0
0
0
0
0
0
0
0
0
0
0
0
0
0
0
0
0
0
0
0
0
0
0
0
0
0
0
0
0
0
0
0
0
0
0
0
0
0
0
0
0
0
0
0
0
0
0
0
0
0
0
0
0
0
0
0
0
0
0
0
0
0
0
0
0
0
0
0
0
0
0
0
0
0
0
0
0
0
0
0
0
0
0
0
0
0
0
0
0
0
0
0
0
0
0
0
0
0
0
0
0
0
0
0
0
0
0
0
0
0
0
0
0
0
0
0
0
0
0
0
0
0
0
0
0
0
0
0
0
0
0
0
0
0
0
0
0
0
0
0
0
0
0
0
0
0
0
0
0
0
0
0
0
0
0
0
0
0
0
0
0.00188826
0.00207359
0.00199385
0.00119192
0.000400425
0.000114547
6.89078e-05
0.000111846
0.000456718
0.00427899
0.00048604
0.000161936
0.000418633
0.00168426
0.00269168
0.00379472
0.00539107
0.0059668
0.00590717
0.00528939
0.00511446
0.00537585
0.00616286
0.00740267
0.00451689
0.00116134
0.000283187
0.000101751
6.82592e-05
6.104e-05
5.83371e-05
5.61644e-05
6.91186e-05
0.000176049
0.00084748
0.00213698
0.000212948
0.000110078
0.000138869
0.000193193
0.000218067
0.000213572
0.000221348
0.000241144
0.000288217
0.000340058
0.000388632
0.000481778
0.000824659
0.00260013
0.00267482
0.00329537
0.00306704
0.00213876
0.00210955
0.00356104
0.00412898
0.00390165
0.00414747
0.00426069
0.0041983
0.0041493
0.00382182
0.00408957
0.00263415
0.000861572
0.000221577
0.000121195
0.000233747
0.000894444
0.00359027
0.00347275
0.00321458
0.00425022
0.000742514
0.000185108
0.000173405
0.000404017
0.00123571
0.00260546
0.00347693
0.0040987
0.00435667
0.00428301
0.00426633
0.00435247
0.00401957
0.00365926
0.00370692
0.00377906
0.00139856
0.000574176
0.000405275
0.000259827
0.000118802
3.77331e-05
1.56092e-05
8.42264e-06
6.16547e-06
5.6038e-06
5.63103e-06
6.09805e-06
6.2567e-06
5.38873e-06
4.64128e-06
2.40908e-06
1.46294e-06
2.75318e-07
7.50126e-10
1.68339e-12
1.93852e-14
9.70348e-17
2.71291e-19
4.90318e-22
6.57226e-25
1.0228e-27
1.01746e-30
9.97693e-34
6.41333e-37
2.42919e-40
6.42793e-44
1.07311e-47
1.15851e-51
9.89152e-56
1.02999e-59
1.52095e-63
3.36294e-67
8.29333e-71
2.26159e-74
6.48584e-78
2.18544e-81
8.13362e-85
3.93363e-88
2.09218e-91
1.4683e-94
9.96913e-98
7.23425e-101
5.00803e-104
4.38874e-107
3.59033e-110
2.69746e-113
2.57561e-116
2.14918e-119
1.30306e-122
6.26421e-126
2.38994e-129
7.41653e-133
2.17081e-136
6.93659e-140
2.82882e-143
1.49886e-146
8.97663e-150
5.84217e-153
3.58739e-156
2.15995e-159
1.203e-162
7.2376e-166
3.96769e-169
1.01981e-174
2.3721e-180
5.55084e-186
1.20107e-191
2.72009e-197
5.51343e-203
1.15289e-208
2.25806e-214
4.67751e-220
9.41064e-226
2.07173e-231
4.61212e-237
1.15724e-242
3.05991e-248
9.53038e-254
2.98873e-259
8.64292e-265
2.2703e-270
5.58644e-276
1.36548e-281
3.38591e-287
7.58978e-293
1.69595e-298
3.37941e-304
6.16095e-310
1.00387e-315
1.57607e-321
0
0
0
0
0
0
0
0
0
0
0
0
0
0
0
0
0
0
0
0
0
0
0
0
0
0
0
0
0
0
0
0
0
0
0
0
0
0
0
0
0
0
0
0
0
0
0
0
0
0
0
0
0
0
0
0
0
0
0
0
0
0
0
0
0
0
0
0
0
0
0
0
0
0
0
0
0
0
0
0
0
0
0
0
0
0
0
0
0
0
0
0
0
0
0
0
0
0
0
0
0
0
0
0
0
0
0
0
0
0
0
0
0
0
0
0
0
0
0
0
0
0
0
0
0
0
0
0
0
0
0
0
0
0
0
0
0
0
0
0
0
0
0
0
0
0
0
0
0
0
0
0
0
0
0
0
0
0
0
0
0
0
0
0
0
0
0
0
0
0
0
0
0
0
0
0
0
0
0
0
0
0
0
0
0
0
0
0
0
0
0
0
0
0
0
0
0
0
0
0
0
0
0
0
0
0
0
0
0
0
0
0
0
0
0
0.000403833
0.000603616
0.000617796
0.000357557
0.000127222
5.16192e-05
3.59347e-05
4.97392e-05
0.000144424
0.000773289
0.00427145
0.00234431
0.00254981
0.00368537
0.00433375
0.00477239
0.00512331
0.00511468
0.00547332
0.00611811
0.00658979
0.00706493
0.00731229
0.00706287
0.00286514
0.000656188
0.000174265
7.57462e-05
5.54459e-05
4.68902e-05
4.3568e-05
4.40843e-05
5.27403e-05
0.000179569
0.000869349
0.00265871
0.000254643
9.17142e-05
8.98005e-05
0.000128161
0.000164587
0.000200164
0.000234587
0.000279291
0.000390863
0.000563547
0.000896851
0.0021044
0.00387656
0.0041391
0.00423608
0.00211596
0.00252393
0.00196768
0.00169421
0.00171581
0.00164801
0.0013495
0.00117561
0.00121647
0.00169091
0.00350559
0.00416684
0.00374292
0.00171414
0.000694965
0.000189771
8.47415e-05
8.10095e-05
0.000240717
0.00100365
0.00310782
0.00392318
0.00384803
0.00388826
0.00090362
0.000267778
0.000255126
0.000361516
0.000570897
0.00080467
0.00111803
0.00122499
0.00125766
0.00113868
0.000899745
0.000536603
0.000465561
0.000456768
0.00072282
0.000626425
0.000303222
0.00016334
0.00010874
5.92114e-05
3.20298e-05
1.68682e-05
1.02911e-05
8.33212e-06
7.21211e-06
6.65268e-06
6.48273e-06
6.71288e-06
6.66316e-06
6.20886e-06
5.10453e-06
2.48378e-06
1.37329e-06
4.06453e-07
1.58818e-09
1.47973e-11
4.73351e-14
8.55009e-17
9.46477e-20
1.53843e-22
1.55773e-25
2.03487e-28
1.5239e-31
1.3563e-34
5.25126e-38
1.89448e-41
4.07207e-45
6.07578e-49
4.84505e-53
3.81995e-57
3.68579e-61
6.54787e-65
1.30175e-68
3.31142e-72
9.32962e-76
2.78154e-79
8.75363e-83
2.74203e-86
1.01107e-89
3.55974e-93
1.49454e-96
6.38891e-100
2.65299e-103
1.33678e-106
6.34633e-110
3.15196e-113
1.68315e-116
8.24384e-120
3.48878e-123
1.52374e-126
5.57742e-130
1.80258e-133
5.7833e-137
1.8418e-140
6.60321e-144
2.59943e-147
1.1283e-150
4.93494e-154
2.18756e-157
1.02426e-160
4.78835e-164
2.32448e-167
9.98964e-171
2.10528e-176
3.73521e-182