/*--------------------------------*- C++ -*----------------------------------*\
| =========                 |                                                 |
| \\      /  F ield         | OpenFOAM: The Open Source CFD Toolbox           |
|  \\    /   O peration     | Version:  2.1.1                                 |
|   \\  /    A nd           | Web:      www.OpenFOAM.org                      |
|    \\/     M anipulation  |                                                 |
\*---------------------------------------------------------------------------*/
FoamFile
{
    version     2.0;
    format      ascii;
    class       volScalarField;
    location    "0.005100000";
    object      fH;
}
// * * * * * * * * * * * * * * * * * * * * * * * * * * * * * * * * * * * * * //

dimensions      [0 0 0 0 0 0 0];

internalField   nonuniform List<scalar> 
12384
(
0.0341754
0.0324872
0.0309837
0.0300866
0.0297001
0.0295858
0.0297539
0.0300867
0.030696
0.0317068
0.0335494
0.0358846
0.0351629
0.0268433
0.0225466
0.0230126
0.0231851
0.0233581
0.0235787
0.0239722
0.0242758
0.0245197
0.0246292
0.0246624
0.0246191
0.0245399
0.0244515
0.024368
0.0242922
0.0242036
0.0241407
0.0240558
0.0239775
0.0239229
0.0238713
0.023835
0.0237914
0.0237531
0.0237079
0.0236739
0.0235462
0.0228282
0.0234698
0.0235608
0.0301637
0.0304845
0.0305687
0.0304222
0.0298587
0.029767
0.0311752
0.031908
0.0312438
0.0306829
0.0295658
0.0292996
0.0291835
0.0293001
0.0294933
0.0296952
0.0298124
0.0299443
0.0300503
0.0301835
0.0303283
0.0305798
0.0307642
0.0309961
0.031119
0.0311863
0.0310999
0.0298295
0.0265658
0.0253013
0.0309509
0.0296896
0.0283236
0.0280706
0.0287227
0.0298277
0.0310046
0.0318134
0.0321393
0.0322339
0.0322734
0.0323121
0.032365
0.0323978
0.0324304
0.0324338
0.0324145
0.0322729
0.0323295
0.0321166
0.031946
0.0317557
0.0314513
0.0310215
0.0305074
0.0299907
0.029437
0.0288515
0.0281942
0.0280097
0.0333689
0.0336165
0.0333573
0.0332396
0.0331835
0.0330474
0.0329237
0.0328397
0.0328449
0.032723
0.0328845
0.0326089
0.0328643
0.0325832
0.0327014
0.0325246
0.032407
0.0323571
0.0321587
0.0320796
0.0319965
0.0319328
0.0318219
0.0315979
0.0311953
0.0301079
0.0279978
0.027326
0.0274998
0.0276316
0.0315301
0.0342333
0.0361554
0.0365479
0.0365972
0.036751
0.0367512
0.036934
0.0370121
0.0371227
0.0372137
0.0372817
0.0373498
0.0373259
0.0372453
0.0370993
0.0369658
0.0366246
0.0370703
0.0365228
0.0369462
0.0366204
0.0367371
0.0366442
0.0366833
0.0367402
0.0368507
0.0364462
0.031755
0.0297512
0.0306282
0.0326302
0.0318299
0.0299248
0.0291596
0.0289201
0.028677
0.0283573
0.0280304
0.027707
0.0276221
0.0276143
0.0279194
0.0278429
0.0279578
0.0278423
0.0273345
0.0267987
0.0267415
0.0257019
0.0258197
0.0252495
0.0249603
0.0250925
0.0249939
0.0252525
0.0258271
0.0266756
0.0276206
0.0278565
0.025804
0.0259076
0.0275944
0.0306978
0.033276
0.0344447
0.0347497
0.0347868
0.0348517
0.0348208
0.0350466
0.0349533
0.0351722
0.0350152
0.0350691
0.0349976
0.0352401
0.0350466
0.0352564
0.0350014
0.0350868
0.0349153
0.0347867
0.0338559
0.0326273
0.0325833
0.0337258
0.0342413
0.0341339
0.033771
0.0304205
0.0321384
0.0331393
0.033539
0.0337031
0.0336784
0.0336571
0.0336339
0.0337306
0.0337313
0.0340633
0.0341765
0.034651
0.0351305
0.0355538
0.0360956
0.0367226
0.0373167
0.0378004
0.0379214
0.0376618
0.0373491
0.039923
0.0441824
0.0459491
0.0464622
0.0463792
0.0462237
0.0454077
0.0450273
0.0270222
0.0272801
0.028082
0.0290185
0.029676
0.0301467
0.0304858
0.030695
0.0309323
0.0310248
0.0313886
0.0312517
0.0315495
0.0314015
0.0315499
0.0314196
0.0320152
0.0318515
0.0324238
0.0327049
0.0335567
0.0352169
0.0372455
0.0375152
0.0373263
0.0371754
0.0370111
0.0368877
0.0368073
0.0367396
0.0336874
0.0344285
0.0359618
0.0374656
0.0385717
0.0393252
0.0395655
0.0400152
0.0398341
0.0403453
0.0401688
0.0404246
0.0405101
0.040465
0.0407695
0.0409978
0.041317
0.0416464
0.0420445
0.0425758
0.0431412
0.0432608
0.0416643
0.0396231
0.0395077
0.0398514
0.0395424
0.0391391
0.0388471
0.0388457
0.027285
0.0349393
0.041896
0.0400967
0.0357813
0.0333816
0.032904
0.0328243
0.0338954
0.0346696
0.0355883
0.0362027
0.0367299
0.037186
0.0376673
0.0381339
0.0384833
0.0387176
0.0387925
0.0387346
0.0384457
0.0381231
0.0375073
0.0367695
0.0358703
0.0348874
0.034139
0.0347442
0.0333523
0.0200609
0.0168609
0.0168606
0.0170862
0.0172826
0.0177871
0.0199876
0.0419544
0.05514
0.0536872
0.0537851
0.0538765
0.0541638
0.0539903
0.0542662
0.0540068
0.0538623
0.0535564
0.0529473
0.051947
0.0500902
0.0475195
0.0444887
0.042872
0.0431142
0.0428119
0.0407844
0.0352988
0.0264584
0.0191939
0.0176569
0.0272938
0.026416
0.0260112
0.0261381
0.0264204
0.0268238
0.0269789
0.0270576
0.0272063
0.0278821
0.0298552
0.0335414
0.0348909
0.0291357
0.0225791
0.023147
0.023408
0.0239711
0.024713
0.0253419
0.0258017
0.0258645
0.0257094
0.025446
0.0251088
0.0248518
0.0246784
0.0245639
0.0244945
0.0244336
0.0243794
0.0243171
0.0242526
0.0241586
0.0240589
0.0239443
0.0238362
0.0237455
0.0236859
0.0236518
0.0236201
0.0231984
0.0228587
0.0222485
0.0300643
0.0303511
0.0303258
0.0300625
0.0297871
0.030632
0.0317208
0.0313128
0.028776
0.0261948
0.0253165
0.025117
0.0257771
0.0265106
0.0271126
0.0275813
0.0277565
0.0278789
0.0279208
0.027946
0.0280044
0.0281432
0.0285389
0.0291077
0.0297562
0.0303217
0.0306926
0.0305435
0.0294131
0.0276159
0.0305719
0.0288981
0.0281006
0.0288211
0.0309426
0.0331439
0.0339913
0.0336418
0.0327291
0.0321008
0.0317645
0.0316547
0.031652
0.0316706
0.0317128
0.0317432
0.031733
0.0317033
0.0317864
0.0318873
0.0320247
0.0320867
0.032047
0.0316606
0.0312455
0.03066
0.0299268
0.0292459
0.0286249
0.0283006
0.0334274
0.0337227
0.0335568
0.0335068
0.032948
0.0323597
0.0320675
0.0319196
0.0318048
0.031735
0.031674
0.0316435
0.0315784
0.0315965
0.0316429
0.0317225
0.0317908
0.031791
0.0317248
0.03165
0.0316203
0.0316006
0.0315771
0.0315156
0.0313333
0.030849
0.0295722
0.0283478
0.0276748
0.0279189
0.032098
0.0350117
0.0364882
0.0368257
0.0370274
0.0372982
0.0375758
0.0378488
0.0381547
0.0384361
0.0386069
0.0386348
0.0384099
0.0379717
0.0373051
0.0367152
0.0362349
0.0358868
0.0358712
0.0357999
0.0358413
0.0359132
0.0360018
0.0361633
0.0363415
0.0365518
0.0367742
0.0367087
0.0341171
0.0315805
0.0315814
0.032451
0.0305265
0.0295185
0.029847
0.0302582
0.0295735
0.0286307
0.0284388
0.0292578
0.0309597
0.0323876
0.0333169
0.0339249
0.0341908
0.0342235
0.0340152
0.0331491
0.0316342
0.0296456
0.0278257
0.0259836
0.0249729
0.0243932
0.0243393
0.0246113
0.0252242
0.0262069
0.0273382
0.0278928
0.0304877
0.0321109
0.0344432
0.0351693
0.0352138
0.0352987
0.0357077
0.03631
0.0369015
0.03723
0.0373346
0.0372509
0.0370016
0.0366598
0.0363903
0.0362058
0.03606
0.0359332
0.035888
0.0358366
0.0358271
0.0357556
0.0354811
0.0349235
0.0337479
0.0327927
0.0326432
0.0332788
0.0341429
0.0340495
0.0373202
0.0371398
0.0363955
0.0354638
0.0346421
0.0340241
0.0334924
0.0330007
0.032504
0.0320138
0.0316485
0.0313771
0.0312289
0.0312499
0.031464
0.0319356
0.0326512
0.0337856
0.0352207
0.0364687
0.0371142
0.0371254
0.0380444
0.0406634
0.0420004
0.0426392
0.0430513
0.0444945
0.0456883
0.0459397
0.0283448
0.0303799
0.031601
0.0319211
0.0318195
0.03158
0.0313468
0.0311349
0.0308985
0.0308007
0.0305063
0.0303734
0.030098
0.0300058
0.0299581
0.0299367
0.0301705
0.0303849
0.030943
0.0315599
0.0325286
0.0339848
0.0361368
0.0375027
0.0374124
0.0371984
0.0370425
0.0369075
0.0366921
0.0364796
0.0349593
0.0371133
0.0391352
0.039846
0.0394996
0.0385776
0.0376231
0.0367486
0.0362094
0.0357336
0.0356055
0.0356167
0.0356615
0.0359992
0.0364895
0.0371838
0.0381139
0.0392014
0.0403575
0.0414593
0.0424718
0.0430944
0.042773
0.0406015
0.0390745
0.0390202
0.0386422
0.0382512
0.0380636
0.0379802
0.0334656
0.0397256
0.0400477
0.0353061
0.0335651
0.0336988
0.03586
0.0381063
0.0400234
0.0412794
0.0420853
0.0427255
0.0431915
0.0434893
0.0436431
0.0435818
0.0431171
0.0423872
0.0417249
0.0413554
0.0414326
0.0416
0.0415687
0.0412216
0.0401102
0.0381154
0.0357614
0.0349467
0.034305
0.0261971
0.0168373
0.0186031
0.0222746
0.0252288
0.0287119
0.037058
0.0518506
0.0553064
0.0549317
0.0555971
0.0559664
0.0559529
0.05585
0.0556131
0.0556853
0.055867
0.0562225
0.0566477
0.0569571
0.0567271
0.0548286
0.0493558
0.0420544
0.0387925
0.0413739
0.0436526
0.0421043
0.0340921
0.0228731
0.0178691
0.0255483
0.0254805
0.026142
0.0277398
0.0293897
0.0303773
0.0305754
0.0299835
0.0286963
0.0274235
0.0277029
0.0305455
0.0342195
0.0305086
0.0227014
0.0234991
0.0241262
0.0250569
0.0261602
0.026827
0.0270582
0.0267782
0.0261517
0.0255163
0.0250515
0.0248292
0.0247512
0.0247322
0.0247547
0.0247972
0.0248587
0.0249137
0.0249148
0.0248443
0.0247127
0.0245434
0.0243196
0.0240692
0.0238459
0.0237005
0.0236479
0.0234505
0.0228634
0.0219604
0.0299331
0.0298176
0.0296151
0.0296144
0.0299624
0.0313979
0.0317335
0.0294433
0.0262206
0.0245017
0.0239631
0.0242073
0.025032
0.0261916
0.0269372
0.0272953
0.0274722
0.0275684
0.0276122
0.0275638
0.0274633
0.0272868
0.0273041
0.0274525
0.0279915
0.0287486
0.0295483
0.0301724
0.0300325
0.0286947
0.0301183
0.0283863
0.0282568
0.0301929
0.033075
0.034697
0.0342248
0.0326365
0.0310571
0.0303788
0.0302485
0.0302659
0.0302951
0.0302899
0.0302217
0.0301554
0.0300469
0.029913
0.0298152
0.0298151
0.0299579
0.0302433
0.030704
0.0310756
0.0311791
0.0309017
0.03027
0.0295482
0.0289229
0.0285116
0.0335154
0.0339501
0.0338455
0.0330892
0.0317479
0.0313011
0.0310986
0.0308461
0.0305499
0.030392
0.0302455
0.0302702
0.0302066
0.0302788
0.0303158
0.0304001
0.0305152
0.030609
0.0307573
0.0307937
0.0308369
0.0308831
0.0310005
0.0311674
0.0312284
0.0311085
0.0306202
0.0297016
0.0285262
0.0282025
0.0326395
0.0356687
0.0368537
0.0371112
0.0372464
0.0372926
0.0373348
0.0375481
0.0380068
0.0385509
0.0389271
0.0387966
0.0379118
0.0366575
0.0355592
0.0348945
0.0344759
0.0345698
0.0344
0.0347249
0.0345904
0.0349231
0.0351172
0.0354695
0.0358072
0.0361843
0.0365931
0.0367706
0.0355794
0.032927
0.0321129
0.0317106
0.0305945
0.0315501
0.032388
0.0304463
0.0286112
0.0288179
0.0314158
0.0343983
0.03572
0.0362253
0.0361355
0.036277
0.0363699
0.0366451
0.0370707
0.0375071
0.0371274
0.0357407
0.0330174
0.0294871
0.0267706
0.0248528
0.0241116
0.0242395
0.0248175
0.0259317
0.0272134
0.0279336
0.0329285
0.0352563
0.0360102
0.0356368
0.0361897
0.0374432
0.038721
0.0395262
0.0398428
0.0396386
0.0391549
0.0384736
0.0377412
0.0369961
0.0363591
0.0358681
0.0355665
0.0355358
0.0356863
0.0357772
0.0359879
0.036184
0.0362694
0.0360149
0.0351308
0.0337993
0.0328262
0.0326568
0.0334609
0.0340342
0.035824
0.0336335
0.031931
0.0307887
0.0301006
0.0295835
0.0292947
0.0290607
0.0288943
0.028785
0.028699
0.0286594
0.0286085
0.02856
0.0286211
0.0287244
0.0291473
0.0300168
0.031553
0.0334121
0.0352239
0.0362721
0.0369668
0.0381662
0.0391434
0.0393445
0.0391665
0.0407706
0.0435659
0.0455369
0.0297966
0.0325399
0.0320251
0.0315435
0.0313046
0.0312598
0.0312113
0.0311034
0.0308577
0.0306741
0.0302097
0.0301262
0.0297862
0.0295997
0.0294271
0.0291783
0.0289551
0.0291389
0.0292853
0.0299062
0.0309869
0.0325247
0.0346496
0.0368778
0.037583
0.0374277
0.0373037
0.0371506
0.0367582
0.036331
0.0360328
0.0398214
0.0399251
0.0382793
0.0361899
0.0343528
0.0331597
0.0320379
0.0316195
0.0309648
0.0309337
0.0306654
0.0308611
0.0311539
0.0317628
0.0325686
0.0337484
0.0353494
0.0372553
0.0392023
0.0409463
0.0423774
0.0430058
0.0421922
0.0400645
0.0389799
0.0386065
0.0384195
0.0382476
0.0378642
0.0379416
0.0395637
0.0360162
0.0335608
0.0348928
0.0376967
0.0403683
0.0418076
0.042308
0.042721
0.0432324
0.0437804
0.0441123
0.0441046
0.0433559
0.041612
0.0392466
0.0371326
0.0356022
0.0345626
0.0343511
0.0354548
0.0376033
0.0398573
0.0413315
0.040804
0.038272
0.0359918
0.0351139
0.0299556
0.0184391
0.0266227
0.0362005
0.0380098
0.0412064
0.0501622
0.0557718
0.0557914
0.0556721
0.0552602
0.0542086
0.0530755
0.0524553
0.0523007
0.0524816
0.0527587
0.0532527
0.054054
0.0553764
0.0570396
0.0581623
0.056608
0.0487527
0.0371033
0.0350061
0.039197
0.0425178
0.03799
0.0254471
0.018069
0.0252192
0.0259371
0.0284206
0.0313292
0.0324818
0.0326756
0.0326415
0.0323382
0.0312261
0.0289462
0.02742
0.0289437
0.033132
0.0312536
0.0229125
0.0240138
0.0249997
0.0262114
0.0275211
0.0282245
0.0282169
0.0274946
0.0263622
0.025458
0.0250876
0.0250072
0.024981
0.024979
0.0250741
0.0252676
0.0255412
0.025766
0.025912
0.0258383
0.0256182
0.0253039
0.0249656
0.0245853
0.0242035
0.0239008
0.02373
0.0235871
0.0230413
0.0219304
0.0296848
0.0289465
0.0287186
0.0292827
0.0303103
0.0320313
0.0316976
0.0289471
0.0264398
0.0249471
0.0239839
0.0243159
0.0254351
0.0266045
0.0272016
0.027516
0.027827
0.0280545
0.0281966
0.0282113
0.0280866
0.0278028
0.0273965
0.0271223
0.0270649
0.0274934
0.0283038
0.029282
0.0298405
0.0290275
0.0297671
0.0281203
0.0287722
0.0317217
0.034675
0.035402
0.0340768
0.0319937
0.0303176
0.0299027
0.0299294
0.0299588
0.0299506
0.0298719
0.0297649
0.0296366
0.029493
0.029345
0.0292045
0.0290863
0.0290274
0.0290939
0.0293728
0.0298373
0.0303028
0.030498
0.0302057
0.0296187
0.0290676
0.0286518
0.03366
0.0342068
0.0337729
0.0317492
0.0309582
0.0307942
0.0303972
0.0299645
0.0296139
0.0296826
0.0294587
0.0296481
0.0294829
0.0296612
0.0296817
0.0297604
0.0298605
0.0298748
0.0299688
0.0299757
0.0300997
0.0301671
0.0303475
0.0306035
0.0308783
0.0309958
0.030922
0.0304221
0.0293377
0.0285464
0.0330185
0.0361544
0.0370866
0.0371735
0.0368208
0.0362861
0.0359352
0.0359832
0.0365387
0.0374421
0.0382302
0.0380505
0.036655
0.0351329
0.0342354
0.0340506
0.0342244
0.0345621
0.0347492
0.0350274
0.0350541
0.0350867
0.0351312
0.0352614
0.0355275
0.0359126
0.0364041
0.0367568
0.0362305
0.0338192
0.0321094
0.0316065
0.0320508
0.0331748
0.0311858
0.0288858
0.0293862
0.0326507
0.0358529
0.0366798
0.0359738
0.0348508
0.03413
0.033956
0.0341435
0.0345789
0.0350847
0.0362692
0.0373656
0.0384156
0.0373159
0.0341688
0.0301531
0.0264782
0.024524
0.024166
0.0248121
0.0260596
0.0273348
0.0279941
0.0344412
0.0362288
0.0361183
0.0368498
0.0387553
0.0406943
0.0415282
0.0413315
0.0404973
0.0393485
0.0382936
0.0373247
0.0366963
0.0361214
0.0358526
0.0357812
0.0357741
0.0358345
0.0358046
0.0358748
0.0360495
0.0363869
0.0367753
0.0368472
0.0363084
0.0350937
0.0336117
0.0326382
0.0329569
0.0338551
0.0310768
0.0303791
0.0297572
0.029318
0.0289912
0.0287747
0.028707
0.0287302
0.0289008
0.0291189
0.0292833
0.0293549
0.029325
0.0291768
0.0289259
0.0287143
0.0284861
0.0284535
0.0290878
0.0305707
0.0326243
0.0345875
0.0358706
0.0367974
0.0374454
0.0376022
0.0374421
0.0384656
0.0418034
0.0449857
0.0316446
0.0323192
0.0315004
0.0320508
0.0326971
0.0328342
0.0325601
0.0320911
0.0315566
0.0310107
0.0306647
0.0302584
0.0300024
0.0297991
0.0295878
0.0293533
0.0290696
0.0288834
0.0287062
0.0288807
0.0296389
0.0310375
0.0331438
0.0356935
0.037374
0.0376336
0.037486
0.0372302
0.0366933
0.0363956
0.0379342
0.0403549
0.0379359
0.0351234
0.0331245
0.0316436
0.0305432
0.0296258
0.028977
0.0284318
0.0280505
0.0280055
0.0279998
0.0282524
0.028681
0.0293512
0.030394
0.0319194
0.0339624
0.0363651
0.038763
0.0409045
0.0425395
0.0429174
0.0417619
0.0403077
0.0396884
0.0394493
0.0388576
0.0379436
0.0402091
0.037556
0.034175
0.0348415
0.0378917
0.0402796
0.0408573
0.0407401
0.0406278
0.0409211
0.041609
0.042448
0.0430599
0.0427894
0.0410975
0.038098
0.0352071
0.0333076
0.0316445
0.0300668
0.028907
0.0289286
0.0309768
0.0351665
0.0394651
0.0415679
0.0400922
0.0372167
0.0358442
0.0318094
0.0220474
0.0383351
0.0477732
0.0474411
0.0505033
0.0557219
0.0563697
0.0556586
0.0545474
0.0527299
0.0509096
0.0498242
0.0495572
0.0498245
0.0504023
0.051107
0.0515232
0.0519112
0.0525797
0.0542879
0.0568532
0.0585589
0.0561969
0.0433567
0.0340313
0.0367753
0.0409944
0.038094
0.0259733
0.0181396
0.0252381
0.0270706
0.0310751
0.0329656
0.032604
0.0315774
0.0309433
0.031117
0.0312052
0.0299673
0.0277468
0.0280505
0.0320839
0.0315327
0.0231786
0.024621
0.0258451
0.0272977
0.0287511
0.0294666
0.0292248
0.0281157
0.0264428
0.0254382
0.0252431
0.0251779
0.0250656
0.0250561
0.0252667
0.0257148
0.026225
0.0267009
0.0269451
0.0269506
0.0266383
0.0261552
0.0255745
0.0250821
0.0246133
0.0241762
0.0238814
0.0236822
0.0231725
0.0219587
0.0293534
0.0281632
0.0280144
0.029197
0.0308562
0.0325842
0.0322588
0.0304606
0.028893
0.0265555
0.0245239
0.0246366
0.025897
0.0269572
0.0274272
0.0279114
0.0283948
0.0286977
0.0288652
0.0289977
0.0289629
0.0287486
0.0282291
0.0275927
0.0271044
0.0269682
0.0274479
0.0284307
0.0294148
0.0290971
0.0295441
0.0280641
0.0292967
0.0329374
0.0358284
0.0363278
0.0344326
0.0316058
0.029922
0.0298137
0.029861
0.0298253
0.0297071
0.0295469
0.0293519
0.0291855
0.0290826
0.0290043
0.0290473
0.029064
0.0289779
0.0288569
0.0288384
0.0290291
0.0294265
0.0297974
0.0298079
0.0294808
0.0291046
0.0287388
0.0337498
0.0344072
0.0331862
0.0306933
0.0307242
0.0301461
0.0295221
0.0292504
0.0292852
0.0294422
0.0296411
0.029806
0.0298873
0.0299677
0.0299253
0.0299322
0.0299154
0.0298103
0.0297987
0.0296865
0.0296869
0.0296697
0.0297861
0.0300392
0.0304169
0.0307267
0.0308572
0.0306458
0.0297789
0.028769
0.0333618
0.0363985
0.0372031
0.0369678
0.0362786
0.0357444
0.0353982
0.0351552
0.0352793
0.0361809
0.0373531
0.037382
0.0358963
0.034468
0.0343078
0.0348133
0.0354732
0.0358256
0.0361309
0.0361998
0.0361417
0.0360449
0.0358101
0.0356461
0.0356261
0.0358252
0.036307
0.0367355
0.0364882
0.0342254
0.0321172
0.0322475
0.0335539
0.0328993
0.0300094
0.0302324
0.0333794
0.0361907
0.0373976
0.0358434
0.0335118
0.0323339
0.0324352
0.0329886
0.0335925
0.0339812
0.0343372
0.0348016
0.0361075
0.03796
0.0387049
0.0372844
0.0333147
0.0283901
0.0252634
0.0244956
0.0252215
0.0265109
0.0276123
0.0280637
0.0353662
0.0366029
0.037036
0.0393032
0.0419717
0.0426084
0.0417664
0.0398836
0.0379809
0.0364936
0.0357347
0.0355142
0.0355807
0.0358334
0.0362416
0.0365957
0.0368132
0.0367796
0.0368185
0.0365709
0.036651
0.0366521
0.0371012
0.0374459
0.0372203
0.0362623
0.0346247
0.0329941
0.0327738
0.0337181
0.0298835
0.0298041
0.0295633
0.0292974
0.0291509
0.0292388
0.0295836
0.0300786
0.0304751
0.0306176
0.0305643
0.0303496
0.0301035
0.0299637
0.0297613
0.029515
0.0290678
0.0285942
0.0283924
0.0289322
0.0304872
0.0326088
0.034496
0.035711
0.0364148
0.0366109
0.0364836
0.0373293
0.0407663
0.0445332
0.0322871
0.0316465
0.0332394
0.0343685
0.0341427
0.0333347
0.0322801
0.0312501
0.0303423
0.029758
0.0293126
0.0290679
0.0289434
0.0288706
0.0289085
0.0288343
0.0288336
0.028788
0.0286463
0.0285563
0.0288314
0.0298953
0.0318229
0.0344237
0.0366393
0.0375458
0.0375888
0.0372748
0.0365171
0.0364105
0.0396331
0.0384405
0.0354538
0.0332899
0.0316987
0.0304249
0.029216
0.0281718
0.0273148
0.026686
0.026232
0.0260351
0.0261926
0.0263624
0.0267684
0.0273902
0.0282862
0.0295556
0.0313405
0.0337024
0.0363645
0.039017
0.0413396
0.0427168
0.0427606
0.0418691
0.0410877
0.0405261
0.0394246
0.0380019
0.0399771
0.035907
0.0344244
0.0370001
0.0395566
0.0401743
0.0395591
0.0389452
0.0388493
0.0391778
0.0399168
0.040976
0.0419204
0.0418413
0.0398623
0.0365404
0.0344485
0.0335649
0.032112
0.0294354
0.0271184
0.02638
0.0275104
0.0313129
0.0370983
0.0412359
0.0408782
0.0381125
0.0364306
0.0325056
0.0271899
0.0484974
0.0542926
0.0535717
0.0552762
0.0568744
0.0560417
0.0544381
0.0521252
0.049458
0.0474803
0.0463761
0.0462248
0.0468907
0.0483484
0.0499695
0.051218
0.0515093
0.0514357
0.0520626
0.0546292
0.0579818
0.0588007
0.0503105
0.0358328
0.0359116
0.0392147
0.0368453
0.0254368
0.0180543
0.0252455
0.0285683
0.0326274
0.0326192
0.0308329
0.0291272
0.0281288
0.028099
0.0291149
0.029129
0.0277019
0.0277988
0.0314028
0.0314946
0.0234707
0.0251842
0.0265519
0.0281817
0.0295815
0.0301431
0.0298112
0.0285283
0.026387
0.0254118
0.0253783
0.0252597
0.0250186
0.0250334
0.0254188
0.0260672
0.0267725
0.0273342
0.0275989
0.0275964
0.0273383
0.0267765
0.0260638
0.0254099
0.0249204
0.0244503
0.0240416
0.023778
0.0232318
0.0219649
0.0290716
0.0277648
0.0276576
0.0293299
0.0313447
0.0332002
0.0333777
0.0327078
0.0317121
0.0282957
0.0251387
0.0249721
0.0263207
0.0272343
0.0276677
0.0284066
0.0288725
0.0290459
0.0291197
0.0293085
0.0294848
0.0293793
0.028964
0.0282116
0.0274386
0.0269184
0.027008
0.0278518
0.0290392
0.0290499
0.0294323
0.0280689
0.0299235
0.0339757
0.0368132
0.0371923
0.0344502
0.0308121
0.0296957
0.0298248
0.029795
0.0296639
0.0294895
0.0291699
0.0288008
0.028508
0.0283521
0.0283452
0.0284624
0.0286863
0.0288133
0.028798
0.028677
0.0286541
0.028858
0.0291896
0.0293235
0.0292465
0.0290796
0.028779
0.0338963
0.0342443
0.0318561
0.0305546
0.0302188
0.029297
0.0290818
0.0292851
0.0295533
0.029767
0.0300275
0.0301626
0.0303191
0.0303297
0.0303548
0.030264
0.030151
0.0300364
0.0299291
0.0297605
0.0296276
0.0294496
0.0294066
0.0295729
0.0299863
0.0304368
0.0306628
0.0306346
0.0299587
0.0288916
0.033411
0.036619
0.0372937
0.0369104
0.0366521
0.0367602
0.0365796
0.0356299
0.0348282
0.0352561
0.0367411
0.0370933
0.0356751
0.0345895
0.0350422
0.0358266
0.036365
0.0365527
0.0367536
0.0366605
0.0366672
0.036578
0.0364006
0.0361512
0.0359469
0.0359548
0.0362976
0.0368127
0.0365547
0.0342555
0.0322228
0.0331946
0.0345355
0.032682
0.0312502
0.0335235
0.0366546
0.0381093
0.0372621
0.0334585
0.0312504
0.0314475
0.0325525
0.0335257
0.0341912
0.0345337
0.0346759
0.03487
0.0355723
0.037317
0.0390234
0.0385872
0.0351811
0.029544
0.0257822
0.0250584
0.0258637
0.0270609
0.027911
0.0281331
0.0359686
0.037118
0.038954
0.0423378
0.0434069
0.0420548
0.039322
0.0365934
0.0350656
0.0345367
0.0347046
0.0352996
0.0361298
0.0370611
0.037856
0.0383692
0.0385755
0.0384233
0.0381255
0.0377261
0.0374383
0.0373252
0.0375947
0.0379939
0.0380129
0.0372152
0.0354651
0.0332927
0.032743
0.0336632
0.0300228
0.0299454
0.0295566
0.0293992
0.029542
0.0300708
0.0307218
0.0312326
0.0311996
0.0308023
0.0300346
0.0292978
0.0287569
0.0286445
0.0288944
0.0291612
0.0292034
0.0289682
0.0284688
0.0283589
0.0291586
0.0309975
0.0330501
0.0346395
0.0355594
0.0358586
0.0358508
0.0366764
0.0404335
0.0442488
0.032204
0.0329896
0.0354422
0.0350868
0.0339225
0.032375
0.0309072
0.0296642
0.0288914
0.0284893
0.0283413
0.0283364
0.0284251
0.0284209
0.0284534
0.0284176
0.028477
0.0285673
0.0285922
0.0284994
0.0284772
0.0291805
0.0308327
0.0333129
0.035716
0.037128
0.0374875
0.0371241
0.0364948
0.0369834
0.03998
0.0366593
0.0342224
0.0325959
0.0311622
0.0298548
0.0283859
0.0273711
0.0262149
0.0255812
0.0250191
0.0248027
0.0247983
0.0250853
0.0255769
0.0261875
0.0270466
0.0280962
0.0295775
0.0316201
0.0342342
0.0371126
0.0398456
0.0419109
0.0427212
0.0425756
0.0420268
0.0412657
0.0397252
0.0380251
0.0391817
0.0350097
0.0353504
0.0384959
0.039769
0.0391889
0.0382322
0.0378675
0.0378355
0.0380365
0.0385009
0.0394612
0.040689
0.0412393
0.03972
0.0365003
0.0353252
0.0354743
0.0341319
0.0306031
0.0270134
0.0259011
0.0266887
0.0304472
0.0368047
0.0414784
0.0411226
0.0383761
0.0369181
0.0329423
0.0319556
0.0535107
0.0576475
0.0569322
0.0571115
0.0567435
0.0551304
0.0525799
0.0493172
0.0460239
0.0436658
0.0420864
0.0419287
0.0429914
0.045068
0.0480047
0.0506008
0.0517892
0.0514134
0.0507751
0.0524965
0.0570779
0.0596177
0.0558636
0.0391479
0.0343146
0.0368491
0.0339504
0.0237412
0.0178704
0.0254515
0.029483
0.0326919
0.0315644
0.0294755
0.0281971
0.0272572
0.0265395
0.026886
0.0275971
0.0271818
0.0274581
0.0310947
0.0314822
0.0237799
0.0257128
0.0271626
0.0288295
0.0300123
0.0302299
0.0299071
0.0288058
0.0263203
0.0253403
0.025448
0.0253014
0.0249448
0.0249811
0.0254468
0.0261925
0.0269408
0.0274423
0.0276081
0.0275312
0.0272849
0.0267979
0.0261069
0.0254898
0.0250557
0.0246072
0.0241798
0.0238144
0.0231852
0.0219532
0.0289316
0.0276251
0.0277346
0.0295891
0.0318516
0.0337315
0.0344655
0.0345355
0.0335375
0.0294893
0.0256023
0.0252739
0.0266844
0.0274364
0.0279812
0.0287593
0.0289301
0.0288349
0.0288294
0.0291064
0.0295079
0.0295778
0.0292097
0.0284669
0.02763
0.026943
0.0268115
0.0275837
0.0288165
0.0289985
0.029318
0.0281891
0.0305385
0.0347889
0.0374792
0.0375232
0.0338774
0.0299974
0.0296067
0.029883
0.029695
0.0295528
0.029344
0.0288572
0.0282678
0.0278082
0.0275489
0.0275323
0.02775
0.028073
0.0284071
0.0285624
0.0285117
0.0284189
0.0284857
0.0285148
0.0288143
0.0290497
0.0290523
0.0287564
0.033971
0.0335238
0.0309138
0.030296
0.0292978
0.0290533
0.029288
0.0295218
0.0297016
0.0298742
0.0300633
0.0301927
0.030303
0.030374
0.030451
0.0304496
0.0303658
0.0302473
0.0300784
0.029892
0.0296534
0.0293435
0.02919
0.0292812
0.0297084
0.0301926
0.0304999
0.030516
0.0299736
0.028934
0.0336795
0.0366725
0.0373142
0.0372684
0.0378638
0.0388892
0.0387622
0.03685
0.0348826
0.0345688
0.0363315
0.0370537
0.0356977
0.0348167
0.0355373
0.0362579
0.0366127
0.0367847
0.0368206
0.0367781
0.0367299
0.0366952
0.0366246
0.0364524
0.0361964
0.036118
0.0364506
0.0368723
0.0363034
0.0341981
0.0324668
0.0343175
0.0350963
0.0335357
0.0342247
0.0370717
0.0388644
0.0387509
0.0355246
0.0313155
0.0302826
0.0315752
0.0330899
0.0337667
0.0341605
0.0346277
0.0349484
0.0351609
0.035762
0.0376648
0.0393978
0.0387642
0.0352103
0.0292303
0.0259298
0.0255744
0.0264422
0.0275004
0.0281795
0.0282015
0.0363688
0.0381437
0.0416138
0.0438592
0.0429169
0.0399364
0.0367514
0.034652
0.0340233
0.034206
0.0349155
0.0361478
0.037682
0.0391168
0.040114
0.0407892
0.0407269
0.040365
0.0397971
0.0390624
0.0385203
0.0381798
0.0382875
0.0386637
0.0387318
0.0379144
0.0359352
0.0333003
0.0327251
0.0337279
0.0303372
0.0298107
0.0295454
0.0295923
0.0301455
0.0309248
0.0315437
0.0316366
0.031054
0.0299053
0.0285738
0.0274925
0.0268573
0.0266643
0.0271992
0.0279769
0.0286469
0.0289098
0.0285755
0.0282161
0.0285736
0.0299415
0.0319048
0.0336438
0.0347705
0.0351766
0.0353691
0.0366918
0.0409202
0.0438919
0.0324595
0.0352595
0.0361324
0.035032
0.0332729
0.0313577
0.0297838
0.0286972
0.0282791
0.0282595
0.0284632
0.0287102
0.0288281
0.0288851
0.0287226
0.0285079
0.0283418
0.0283623
0.0284677
0.0284608
0.0283979
0.0288601
0.0302327
0.0326073
0.0349912
0.0366503
0.0372086
0.0366716
0.0367382
0.0378028
0.0392793
0.0355126
0.0339168
0.0326734
0.0312498
0.029797
0.0281679
0.0270058
0.0258
0.0251105
0.0244777
0.0242392
0.024238
0.024432
0.0249404
0.0255581
0.0263931
0.0272749
0.028527
0.0302103
0.0326704
0.0355384
0.0384555
0.0408662
0.0422888
0.0425618
0.0422541
0.0414389
0.0395894
0.0379047
0.0381967
0.0346794
0.0365329
0.039107
0.0393213
0.038229
0.037569
0.0374351
0.0374621
0.0376113
0.0378189
0.038286
0.0393476
0.0405575
0.0401503
0.0369656
0.036045
0.0372527
0.0367352
0.0334801
0.0296675
0.0277
0.0294231
0.033376
0.039066
0.0419974
0.0408725
0.0384522
0.0370366
0.0327022
0.0358945
0.0562103
0.0591307
0.0583594
0.0575615
0.0563048
0.054058
0.0506866
0.046741
0.0428431
0.040068
0.0379592
0.0377087
0.0389931
0.0418664
0.0455351
0.0494876
0.0519758
0.0519163
0.0502885
0.0506738
0.0560503
0.0603512
0.0586979
0.0431112
0.0326362
0.0332205
0.0302452
0.021554
0.0172737
0.025425
0.0297801
0.0324322
0.0308879
0.0291581
0.0282757
0.0274735
0.0266195
0.0260643
0.0262473
0.0265371
0.0275033
0.0312794
0.0313026
0.024069
0.0262521
0.0276585
0.0291988
0.0300349
0.0296966
0.0296519
0.0289181
0.0262886
0.0251378
0.0254723
0.025366
0.0248904
0.0248516
0.0253222
0.0260203
0.0266895
0.0270763
0.0270261
0.0267065
0.0264572
0.0261205
0.0257126
0.0253559
0.025097
0.0247085
0.0242413
0.0238303
0.0230876
0.0218898
0.0289337
0.0278883
0.0279231
0.0296507
0.0318301
0.0339641
0.0350172
0.0352212
0.0342599
0.0301025
0.0258898
0.0255155
0.0269563
0.0276165
0.0282337
0.0288232
0.0286677
0.0282988
0.0282621
0.0287003
0.0292286
0.0293958
0.0290488
0.0282876
0.027506
0.0268658
0.0267853
0.0276434
0.0287042
0.0289251
0.0293119
0.0283316
0.0310968
0.0354744
0.0379868
0.037361
0.0329663
0.0294774
0.0297658
0.0298317
0.0296012
0.0295649
0.0293191
0.0287782
0.0281277
0.0276162
0.0272188
0.027083
0.0271802
0.0275113
0.0279172
0.0281695
0.0281913
0.0281224
0.0280818
0.0283702
0.0286146
0.0289378
0.0289772
0.0287072
0.0337993
0.0328722
0.030443
0.0296662
0.0290506
0.0292322
0.0294029
0.0294948
0.0296116
0.0297561
0.0298948
0.0299863
0.0300958
0.0302082
0.03033
0.0304085
0.0303932
0.0302605
0.0301012
0.0298509
0.0295652
0.0292181
0.0290496
0.0291831
0.0296128
0.0300688
0.0303531
0.0303868
0.0298589
0.0288527
0.0334495
0.0366986
0.0375126
0.0378681
0.0392608
0.0405973
0.0402491
0.0381943
0.03516
0.0339391
0.0360032
0.0371339
0.0357829
0.0349349
0.0356985
0.0363305
0.0367105
0.036864
0.0368353
0.0367332
0.0366602
0.0366374
0.0365935
0.0365012
0.0363197
0.0363906
0.0367402
0.0367511
0.0357453
0.0340439
0.0328087
0.0352878
0.0361442
0.0356845
0.0375441
0.0394184
0.0398027
0.0383354
0.0337972
0.0301713
0.0299532
0.0316468
0.032904
0.0332699
0.0338544
0.0348486
0.035691
0.03624
0.0371474
0.0388612
0.0395991
0.0378479
0.0329709
0.0277815
0.0259055
0.0259904
0.0268787
0.0278811
0.0283541
0.0281652
0.0365944
0.0396105
0.0435239
0.0438602
0.0417968
0.0386406
0.0355981
0.0339778
0.033801
0.0342152
0.0353413
0.0371891
0.0391336
0.0406292
0.0414353
0.0420796
0.0421159
0.0416034
0.0409691
0.040083
0.0393878
0.0389448
0.0390087
0.0393981
0.0394019
0.0383751
0.0357123
0.0328021
0.0328955
0.0337355
0.0302893
0.0299924
0.0299562
0.0302856
0.0309091
0.0316553
0.0320822
0.0318319
0.0307924
0.0292397
0.0277387
0.0265525
0.0260493
0.0259154
0.0263139
0.0273334
0.0282039
0.0286337
0.0284904
0.028134
0.0283311
0.0294077
0.0311747
0.0329003
0.034124
0.0345239
0.0349678
0.0375789
0.0409515
0.0418393
0.0336172
0.0363295
0.0364693
0.0349457
0.0328052
0.0307589
0.029217
0.0284202
0.0282832
0.0284908
0.0288144
0.0291014
0.0292586
0.0292086
0.0289262
0.0284893
0.0282628
0.0283103
0.0284564
0.0284464
0.0283497
0.0287982
0.0300857
0.0323237
0.0346727
0.0363498
0.0368382
0.0363457
0.0384447
0.0393011
0.038388
0.0352032
0.034341
0.0332955
0.031886
0.030257
0.028568
0.0272664
0.0260395
0.0252306
0.0245268
0.0242791
0.0242164
0.0243506
0.0249098
0.0253148
0.0262259
0.0268586
0.0280727
0.0294947
0.0317954
0.0345502
0.0374428
0.0399175
0.0415746
0.0422222
0.0420162
0.0411314
0.0390248
0.0376909
0.0375614
0.0347441
0.0372773
0.0392439
0.038747
0.0376226
0.0371099
0.0368632
0.0368325
0.0371956
0.0376684
0.0378467
0.0382634
0.0396854
0.0404719