/*--------------------------------*- C++ -*----------------------------------*\
| =========                 |                                                 |
| \\      /  F ield         | OpenFOAM: The Open Source CFD Toolbox           |
|  \\    /   O peration     | Version:  2.1.1                                 |
|   \\  /    A nd           | Web:      www.OpenFOAM.org                      |
|    \\/     M anipulation  |                                                 |
\*---------------------------------------------------------------------------*/
FoamFile
{
    version     2.0;
    format      ascii;
    class       volScalarField;
    location    "0.005100000";
    object      mut;
}
// * * * * * * * * * * * * * * * * * * * * * * * * * * * * * * * * * * * * * //

dimensions      [1 -1 -1 0 0 0 0];

internalField   nonuniform List<scalar> 
12384
(
0.000976807
0.00272982
0.00234897
0.00210535
0.00190912
0.00174459
0.00151931
0.00126003
0.00106779
0.000940485
0.000837547
0.000726555
0.000566866
0.00050558
0.00715372
0.0074477
0.00629543
0.00531013
0.00485979
0.00477089
0.00521001
0.00640017
0.0094563
0.0179789
0.0189142
0.0110319
0.0075013
0.00602222
0.00533035
0.00493971
0.00472819
0.00451784
0.00433328
0.00398645
0.00380188
0.00362628
0.00361395
0.0036587
0.00372319
0.00355617
0.00291731
0.00219691
0.00330367
0.00214428
0.0105824
0.0124916
0.0130402
0.00774746
0.00520073
0.00370808
0.00317675
0.00273277
0.00271903
0.00261665
0.0027012
0.00303771
0.00372351
0.00528067
0.0087685
0.0179631
0.0328681
0.0292018
0.0183119
0.0143907
0.0123011
0.011016
0.0106534
0.0115266
0.0138111
0.0180691
0.0202254
0.00897988
0.00244021
0.00134953
0.0115102
0.0156902
0.0132856
0.00958513
0.00827033
0.00841171
0.0100297
0.013739
0.0236831
0.0273468
0.0138022
0.00840784
0.00626924
0.00529878
0.00492349
0.00473423
0.00476729
0.00484378
0.00504355
0.00547939
0.00634029
0.0072716
0.00819181
0.00912678
0.0101511
0.0113937
0.0125778
0.0118473
0.00799348
0.00802961
0.015499
0.0182322
0.0192785
0.0235775
0.0245908
0.0254256
0.0125706
0.00835624
0.00666846
0.00611008
0.0057309
0.00580724
0.00577687
0.00602802
0.00617135
0.00673661
0.00709464
0.00797445
0.00865894
0.0101806
0.011975
0.0150214
0.0195164
0.0274179
0.0314608
0.0252847
0.00830434
0.00187912
0.00150022
0.00277684
0.00382226
0.00333127
0.00294981
0.00264612
0.00256314
0.00268851
0.00319403
0.00403239
0.00499614
0.00677474
0.0111721
0.0243326
0.014602
0.00833306
0.0063542
0.00575249
0.00558248
0.00576416
0.00571471
0.00613291
0.00616254
0.00651907
0.00641402
0.006648
0.00695282
0.00774031
0.0089664
0.0107244
0.0148896
0.0118002
0.00867713
0.00532289
0.00443751
0.00411837
0.00416945
0.00453547
0.00576776
0.00808442
0.0151555
0.0173803
0.00775272
0.00501241
0.00408877
0.00366473
0.00339626
0.0031621
0.0028378
0.00284244
0.00282247
0.00319277
0.00350537
0.00404068
0.00468163
0.00537827
0.00637962
0.0076286
0.00937842
0.0116891
0.0135884
0.0119769
0.00437407
0.00426709
0.0059814
0.00751358
0.00742892
0.00630273
0.00537287
0.00482697
0.00462247
0.00464088
0.00484515
0.00500641
0.00515469
0.00520919
0.00510452
0.00473268
0.00443009
0.00432733
0.00425085
0.00450518
0.00485366
0.00561165
0.00699206
0.0102981
0.0190176
0.0200463
0.0140551
0.0121488
0.0125843
0.0135184
0.00472404
0.00228449
0.00234281
0.00268016
0.0030847
0.00349655
0.00400658
0.00448865
0.00502525
0.00549783
0.00570397
0.00592661
0.00545832
0.00508524
0.00473823
0.00460388
0.00470779
0.0049575
0.00565487
0.00676873
0.00879565
0.0126087
0.0221021
0.0205955
0.0140616
0.00823314
0.0053207
0.00361924
0.00266969
0.00228669
0.0119161
0.00821653
0.00657978
0.00552229
0.0049147
0.00470426
0.00466657
0.00476551
0.00490231
0.00512592
0.00510026
0.00529815
0.00522015
0.00531064
0.00540098
0.00542976
0.00598672
0.00699789
0.00866248
0.0119831
0.0190806
0.0360323
0.0247336
0.011711
0.00717516
0.0053725
0.00457118
0.00448447
0.00624389
0.0142081
0.00990377
0.00534661
0.00419856
0.00363536
0.0036134
0.00388441
0.00426292
0.00448856
0.00475116
0.00481151
0.00476192
0.00470163
0.00456528
0.00451969
0.00481705
0.00517824
0.00573566
0.00667176
0.00826946
0.0111046
0.0170474
0.0317255
0.0366735
0.0290714
0.0134203
0.00705964
0.00464588
0.00408689
0.00544691
0.0121045
0.00679376
0.00670196
0.00775961
0.00725085
0.00660374
0.00577995
0.00518371
0.00476542
0.00475901
0.00513124
0.00607556
0.00823524
0.0152848
0.0209808
0.0101162
0.00626523
0.00489746
0.00440127
0.00416726
0.00413695
0.00401899
0.00398954
0.00414103
0.00455307
0.00520415
0.00617161
0.00719948
0.00719743
0.00446845
0.00160365
0.000180079
0.000272882
0.00037294
0.00033913
0.000496306
0.00139339
0.00442428
0.00600256
0.00550227
0.00498807
0.00467355
0.00464849
0.00501503
0.00607103
0.0068164
0.00752353
0.00788278
0.00827388
0.00877056
0.00969836
0.0111891
0.0041973
0.00035548
4.66462e-05
1.58551e-05
9.97613e-06
8.34413e-06
9.18414e-06
1.10188e-05
8.67883e-06
0.00189873
0.0024289
0.0027116
0.00313177
0.00355092
0.00393232
0.00423374
0.00443503
0.00451163
0.0043854
0.00399138
0.00330616
0.0024992
0.00405419
0.00757678
0.00256334
0.00309368
0.00360019
0.00382452
0.00383809
0.00373778
0.00371454
0.00378668
0.00404396
0.00452483
0.00524476
0.00619462
0.00729167
0.00847498
0.00966019
0.0107876
0.0116964
0.0124289
0.0128927
0.0130535
0.0130834
0.0127905
0.0123714
0.0116269
0.0105231
0.00885702
0.00673838
0.00414831
0.00602957
0.0103521
0.00231712
0.00258655
0.00325275
0.00455175
0.00543613
0.00632949
0.00632043
0.00646777
0.00623648
0.00666131
0.00703384
0.00777449
0.00861859
0.00972643
0.0108413
0.0121239
0.0132379
0.0143066
0.0150985
0.0157262
0.0158131
0.0158274
0.0153751
0.0145698
0.0132593
0.0113815
0.00901164
0.00639415
0.0125168
0.013467
0.00649609
0.00863976
0.0100325
0.0104261
0.0102639
0.00985599
0.00941088
0.00918954
0.0093958
0.0102848
0.0119399
0.0143775
0.0172429
0.0202699
0.023086
0.025302
0.0270502
0.0281036
0.0281673
0.0276984
0.026412
0.0245098
0.0221553
0.0195822
0.0168827
0.0140433
0.0110295
0.00801567
0.0200762
0.00829087
0.0055742
0.0054716
0.00528281
0.00536397
0.0060399
0.00727118
0.00906474
0.0109674
0.0132824
0.0150802
0.017323
0.0186531
0.0203082
0.0209845
0.021877
0.0217256
0.0217843
0.0209805
0.0203529
0.0191447
0.0179946
0.0166163
0.0149989
0.0129402
0.010578
0.00794471
0.0056652
0.00378581
0.00502669
0.00380744
0.0068903
0.00891346
0.0103548
0.0110638
0.0113096
0.0111237
0.0106342
0.00987559
0.00900631
0.00819075
0.00771016
0.00767774
0.00818123
0.009161
0.0105732
0.0120948
0.0140458
0.0151154
0.0169143
0.0171694
0.018212
0.0178641
0.0178758
0.0172635
0.0164352
0.0150212
0.0125786
0.00912948
0.0197826
0.00847643
0.0039262
0.00491937
0.00539678
0.00546689
0.00523725
0.00521408
0.00508718
0.00526144
0.00580365
0.00738042
0.00968862
0.0125744
0.0152389
0.0179452
0.0200321
0.020932
0.0223995
0.0217665
0.0221381
0.020925
0.0206149
0.0193564
0.0181403
0.0167466
0.0151788
0.0134745
0.0115689
0.00923892
0.0116635
0.0095327
0.00366037
0.00385638
0.00409241
0.00463147
0.00580259
0.00787491
0.0106964
0.0136986
0.0163103
0.0189543
0.0213059
0.0231758
0.0251788
0.0266811
0.0275672
0.0280709
0.0281059
0.0275305
0.0266518
0.024954
0.0229663
0.0199642
0.0164852
0.01277
0.00956651
0.00715356
0.00547708
0.0044401
0.018091
0.00686155
0.00620888
0.00740209
0.00966139
0.0122396
0.0149788
0.017531
0.0199389
0.0221847
0.0241342
0.0258223
0.0270626
0.0278967
0.0282212
0.0281439
0.0277853
0.0269135
0.0258508
0.0242852
0.0217211
0.0184267
0.0141596
0.0102727
0.00728103
0.00557237
0.00482718
0.00432861
0.00390201
0.00367757
0.00501583
0.0186734
0.00434773
0.00471324
0.00648598
0.00881863
0.0112631
0.0136544
0.0160887
0.0180742
0.0202434
0.0217897
0.0240264
0.0249434
0.0266256
0.0274582
0.0274175
0.0281354
0.0265544
0.026308
0.0244
0.0219302
0.0185689
0.0145272
0.010672
0.00808931
0.0067752
0.00586033
0.00555965
0.00706158
0.00994627
0.0170363
0.00445793
0.00557059
0.00885394
0.0129805
0.0171279
0.0211238
0.024552
0.0286615
0.0305579
0.0339566
0.0350494
0.0358972
0.036327
0.0357774
0.0343762
0.032655
0.0303791
0.0275811
0.0243926
0.0206994
0.0166779
0.0129458
0.0100775
0.00823396
0.00699844
0.00597763
0.0055173
0.00695599
0.00879967
0.0138127
0.00316809
0.00453439
0.00615159
0.00758765
0.00839938
0.00885625
0.00875374
0.00860093
0.00822022
0.0076731
0.00694599
0.00628191
0.00587616
0.00607217
0.00696338
0.00831795
0.00994476
0.011705
0.0132557
0.0144494
0.0151086
0.0153374
0.0151465
0.0145878
0.0136568
0.0121173
0.00981049
0.00703239
0.00882156
0.000622066
0.00162935
0.00227694
0.00283123
0.00388174
0.0069231
0.0106609
0.0142992
0.0173196
0.0191888
0.020235
0.0206034
0.0204617
0.0199072
0.0187196
0.0171406
0.0151643
0.0130152
0.0107885
0.00865705
0.00661252
0.00445013
0.00129387
0.000190158
6.38954e-05
3.71817e-05
2.49472e-05
1.73294e-05
1.36283e-05
6.46278e-06
0.00238077
0.0029822
0.00310041
0.00327626
0.0034612
0.00365184
0.00385522
0.00403095
0.00420001
0.00431838
0.00420252
0.00374637
0.00304121
0.00416135
0.00858643
0.00277164
0.00326612
0.00367608
0.00386074
0.00386532
0.00390721
0.00410233
0.00444346
0.00493118
0.00551332
0.00619423
0.00697582
0.00779309
0.00866837
0.00951752
0.0103174
0.0110068
0.0115995
0.0118896
0.0120744
0.0119436
0.0117726
0.0114469
0.0111111
0.0105448
0.00954637
0.00793235
0.00569903
0.00711464
0.00950702
0.00218462
0.00246348
0.00316232
0.00435248
0.00503199
0.00556888
0.00538454
0.00572361
0.00601951
0.00731687
0.00863103
0.00976708
0.0107142
0.0117733
0.0127061
0.0135422
0.0143094
0.0149401
0.0153888
0.0158257
0.0159095
0.0159051
0.0155862
0.0149853
0.0139894
0.0125543
0.0105423
0.00806455
0.0188509
0.0125046
0.00719377
0.00893804
0.00966674
0.0095839
0.00925054
0.00902668
0.00919351
0.0099305
0.0112268
0.0131395
0.0154473
0.0179702
0.0205265
0.0228499
0.0249071
0.0266935
0.0277997
0.0286439
0.0286582
0.0281634
0.0268205
0.0248644
0.022545
0.0200094
0.0174537
0.0148768
0.0122082
0.00943709
0.0232346
0.00520528
0.00519079
0.00489054
0.00500114
0.00593196
0.00765135
0.00974288
0.0118362
0.013771
0.0154755
0.0168961
0.0185794
0.0193336
0.0208479
0.0212513
0.0218856
0.0216374
0.0216098
0.0207601
0.0200489
0.0190213
0.017927
0.0167721
0.0155394
0.0139446
0.0119644
0.00964723
0.00725137
0.00515411
0.00998983
0.00329088
0.00796721
0.00958144
0.0106072
0.0111748
0.0113785
0.0113704
0.0111117
0.0106421
0.0101379
0.00976899
0.00977568
0.0101349
0.0106677
0.0111892
0.0118961
0.0126151
0.0136979
0.0143754
0.0158397
0.0160008
0.0168059
0.0166167
0.0165821
0.0161735
0.0158755
0.0152325
0.0136264
0.0108856
0.0187951
0.00641683
0.0046309
0.00544942
0.00565232
0.00572559
0.00579066
0.00605342
0.00609181
0.00644214
0.00786005
0.0106737
0.0135745
0.0165427
0.0186332
0.0209894
0.0225614
0.023044
0.0238556
0.0226254
0.0223258
0.0203165
0.0189417
0.017705
0.016581
0.0152862
0.01401
0.0127346
0.0114248
0.00981223
0.00796289
0.0142882
0.00395778
0.00410773
0.00449185
0.00543027
0.00747282
0.0101426
0.0126322
0.0149879
0.0171091
0.0187236
0.0205544
0.0223857
0.023712
0.02505
0.0262538
0.0266268
0.0272739
0.0264053
0.0261259
0.0246113
0.0234272
0.0211326
0.0186086
0.0152289
0.0118751
0.00886242
0.0065406
0.00501347
0.0201474
0.00626821
0.00911355
0.010057
0.0117299
0.0136615
0.0154987
0.0174805
0.0193268
0.0211792
0.0229266
0.0244193
0.0256479
0.026556
0.0270511
0.0271756
0.0268719
0.0265139
0.0256071
0.0246663
0.0230874
0.0208754
0.017547
0.0138145
0.0100698
0.00722414
0.00553291
0.0046518
0.00421178
0.00393833
0.00493448
0.0154289
0.00500108
0.00605446
0.00813479
0.0101656
0.0119582
0.0137272
0.015529
0.0169848
0.0190016
0.0204563
0.0221957
0.0232726
0.0246684
0.0256158
0.02547
0.0264913
0.0254759
0.0249121
0.0242489
0.0226069
0.0202534
0.0171476
0.0134474
0.00999295
0.00741813
0.00571133
0.0050944
0.00667482
0.0080202
0.0194157
0.00538351
0.00772066
0.0119639
0.0160346
0.0195372
0.0226329
0.0254659
0.0281106
0.0302981
0.0327202
0.0335702
0.0350643
0.0347946
0.0347519
0.0334531
0.0319058
0.0299005
0.0277102
0.0252584
0.0224812
0.0192271
0.0156755
0.0123359
0.00961031
0.00742561
0.00583463
0.00507603
0.00618475
0.00767552
0.0148765
0.00418037
0.00595705
0.00779968
0.00932456
0.0102605
0.0109476
0.0110954
0.0112286
0.010985
0.0104347
0.00969215
0.00888858
0.0082282
0.00809854
0.00864565
0.00941332
0.0101918
0.0110758
0.0119982
0.0128598
0.0133964
0.0135838
0.013402
0.0130441
0.0124276
0.0115984
0.0102164
0.00803693
0.00679381
0.00108805
0.00195042
0.00253342
0.00395748
0.00702891
0.010774
0.014223
0.0170484
0.0190031
0.0200988
0.0207649
0.0210146
0.0210413
0.0203722
0.0195064
0.018096
0.0165658
0.0147326
0.0127975
0.0106429
0.00845969
0.00615111
0.00302385
0.00041355
0.000111781
5.13893e-05
2.92291e-05
1.88004e-05
1.39126e-05
5.62851e-06
0.00259054
0.00331469
0.00326012
0.00330216
0.00334898
0.00340047
0.00345777
0.00358389
0.00377003
0.00404903
0.00431417
0.00420757
0.00368091
0.00412782
0.00794682
0.00334781
0.00378177
0.00401067
0.00395446
0.00390218
0.00404384
0.00454748
0.00521924
0.00591666
0.00655324
0.00716131
0.00780011
0.00839809
0.00891856
0.00935957
0.00975159
0.0101453
0.0103452
0.0106496
0.0106856
0.0107503
0.0106105
0.0105631
0.0104724
0.0103734
0.00994719
0.00880538
0.00689581
0.00606441
0.00703678
0.00247145
0.0029432
0.00383601
0.0048488
0.00521249
0.00530117
0.00481949
0.00506837
0.00630268
0.00824402
0.0100188
0.0114531
0.0123463
0.0134058
0.0142697
0.014704
0.0149374
0.014942
0.0149552
0.0149336
0.0150683
0.0150602
0.0150309
0.0147909
0.0143135
0.0133068
0.0117197
0.00946367
0.0124175
0.00836099
0.008447
0.00945135
0.0094504
0.00887921
0.0083622
0.00849476
0.0096122
0.0114688
0.0136824
0.0162111
0.0185621
0.0205964
0.0222021
0.0234673
0.0245074
0.0253844
0.0261786
0.0264736
0.0265365
0.0261684
0.025172
0.0236839
0.0217956
0.0197089
0.0175831
0.0154517
0.0132393
0.0107301
0.0179256
0.0040037
0.00541972
0.00473908
0.00529957
0.00720109
0.00972597
0.0120274
0.0138862
0.0150399
0.016152
0.0165404
0.0177202
0.0179107
0.0191239
0.0192541
0.0198479
0.0199795
0.0198809
0.0194416
0.0189413
0.018166
0.0173921
0.016603
0.0158515
0.0147734
0.0132614
0.0112165
0.00880382
0.00636643
0.0193492
0.00310734
0.00947769
0.0104973
0.0109683
0.0111544
0.0112574
0.0113152
0.0112684
0.011219
0.0111435
0.0112809
0.0118454
0.0126552
0.013154
0.0132058
0.013208
0.012892
0.0130628
0.0132622
0.0139693
0.0140812
0.0148468
0.0148471
0.0149746
0.0150898
0.0153233
0.0154121
0.0148811
0.0125707
0.0147345
0.00527222
0.00570655
0.00612543
0.00613281
0.00633646
0.00659148
0.00685501
0.00704749
0.00817219
0.0113476
0.0150815
0.0179163
0.020031
0.0211651
0.0224169
0.02352
0.023723
0.0243783
0.0231584
0.0223131
0.0202789
0.0181592
0.0161241
0.0149151
0.0137291
0.012667
0.0118664
0.0113209
0.0106421
0.00620941
0.0193812
0.00445873
0.00455027
0.00527523
0.00700867
0.00950637
0.0120176
0.0138855
0.0150249
0.0161993
0.017314
0.0181637
0.0195084
0.0207961
0.0219845
0.0228263
0.0237561
0.0240106
0.0242463
0.0239876
0.0233913
0.0230022
0.0214302
0.0196565
0.0168852
0.0136664
0.0104565
0.00774356
0.00584829
0.0216906
0.00550854
0.0116736
0.0120422
0.0128913
0.013645
0.0146754
0.0156448
0.0169611
0.0182364
0.0195809
0.021007
0.0220764
0.0230911
0.0237252
0.0242685
0.0245275
0.0244778
0.0246689
0.0242674
0.0235128
0.0223913
0.0202383
0.0170004
0.0132585
0.00989032
0.00719736
0.00562781
0.00476078
0.00429313
0.00524714
0.0127179
0.00574433
0.00758708
0.00961314
0.0111557
0.0123088
0.0136007
0.0145405
0.0156268
0.0173244
0.018179
0.0196841
0.0210428
0.0218986
0.0228648
0.0231757
0.0233113
0.0236608
0.0233514
0.0228433
0.0227915
0.0214854
0.0193598
0.0162917
0.0127421
0.00948412
0.00705855
0.00578548
0.0065896
0.00750032
0.0205065
0.00644106
0.0103718
0.0149883
0.0185134
0.020993
0.0226327
0.0245299
0.0255269
0.0277472
0.0287136
0.0305614
0.0310519
0.0317978
0.0313655
0.0308552
0.0299271
0.0283653
0.0269403
0.0253281
0.0235542
0.0213228
0.0185191
0.0153941
0.0123678
0.00965836
0.00744186
0.00601647
0.00607564
0.00785616
0.0104475
0.00602892
0.0082707
0.0102209
0.0116979
0.0126539
0.0134795
0.0137347
0.0138075
0.0137591
0.013392
0.0126228
0.011716
0.0108576
0.010499
0.0107327
0.0109748
0.0107943
0.0105227
0.0103705
0.010548
0.0108912
0.0112135
0.011398
0.0113764
0.0113654
0.011301
0.0105986
0.00907093
0.00547252
0.00160389
0.0024593
0.00366353
0.00637853
0.010099
0.0137583
0.0168489
0.0188403
0.0199078
0.0203086
0.0204793
0.0204601
0.0201284
0.0195933
0.018877
0.0180847
0.0170371
0.0158782
0.0143444
0.0124293
0.0101004
0.00758152
0.00464166
0.000895109
0.000179732
7.17769e-05
3.78399e-05
2.44016e-05
1.91898e-05
5.87039e-06
0.00265757
0.00347885
0.00334776
0.00335602
0.00329064
0.00315214
0.00305659
0.00309498
0.00334823
0.00378846
0.00435366
0.00464417
0.00439062
0.00415339
0.00693177
0.00399607
0.00421832
0.00414654
0.00383252
0.00372947
0.00408298
0.00489602
0.00583014
0.0066392
0.00730404
0.00793714
0.00857675
0.00899418
0.00919154
0.00917955
0.00905397
0.00886231
0.00886076
0.00885178
0.00901217
0.00913317
0.00935411
0.00946131
0.00972475
0.0100329
0.0101185
0.00949944
0.0078854
0.00533517
0.00553388
0.00290578
0.00352839
0.00442699
0.00515998
0.00531575
0.00487038
0.0042509
0.00463289
0.00648735
0.00919014
0.0110483
0.0124266
0.0137755
0.0147028
0.0154255
0.0156715
0.0152733
0.014679
0.0139905
0.0136283
0.0133493
0.0134771
0.0136887
0.0138612
0.0139849
0.0135718
0.0125562
0.0106817
0.00917506
0.00669043
0.00981859
0.00999815
0.00929181
0.00814643
0.00754369
0.00828829
0.0104574
0.0132223
0.015982
0.018621
0.0205232
0.0216231
0.0220639
0.0220349
0.0220148
0.0218724
0.021886
0.0219246
0.0217832
0.021625
0.0213287
0.0207136
0.0196183
0.0182998
0.0169129
0.0154856
0.0138751
0.0117313
0.0146476
0.00357961
0.0058433
0.0048272
0.00600071
0.00867974
0.0114781
0.0136107
0.0147672
0.0151651
0.0153202
0.0149148
0.0151024
0.014855
0.0152062
0.0154661
0.0159771
0.0162717
0.0165597
0.0166395
0.0165195
0.0163892
0.0160436
0.0158139
0.015542
0.015025
0.0140954
0.012329
0.00995982
0.0074437
0.0217495
0.00309291
0.0112778
0.0115617
0.0113438
0.0109613
0.01075
0.0107552
0.0110634
0.0115597
0.0120105
0.0126093
0.0136399
0.0147417
0.0151692
0.0147623
0.0139073
0.0129615
0.0126531
0.0118415
0.0118129
0.0116205
0.0120503
0.0122423
0.0129717
0.0136862
0.0145947
0.0157646
0.0158369
0.0139129
0.0126291
0.00475517
0.00688889
0.00681216
0.00672071
0.00690749
0.00715147
0.0073945
0.00828208
0.0107207
0.0152835
0.019208
0.0209972
0.0214839
0.0210806
0.020876
0.0209688
0.0209733
0.0218475
0.0213013
0.0208513
0.0191613
0.0172746
0.0149904
0.0133982
0.0123473
0.011411
0.0109658
0.0112893
0.0115685
0.0053252
0.0250081
0.00501723
0.00516449
0.00631853
0.00884554
0.0115127
0.0131803
0.0142056
0.0145967
0.0145411
0.0148543
0.0154468
0.0158767
0.016718
0.0177299
0.0184952
0.0191167
0.0201091
0.0202844
0.0212858
0.0210436
0.0215948
0.0207837
0.0196954
0.0174959
0.014636
0.0114513
0.00864787
0.00660578
0.0163116
0.00519199
0.0129929
0.0128659
0.0129049
0.0129374
0.0130316
0.013501
0.0141141
0.0150645
0.0159934
0.0170426
0.018132
0.0189398
0.0196712
0.0202995
0.0207926
0.0215001
0.0222013
0.0226316
0.0230119
0.0229646
0.021378
0.0190051
0.0156522
0.0119539
0.00871882
0.00661663
0.00522759
0.00454257
0.00623472
0.011928
0.00646111
0.00882848
0.0107926
0.0121924
0.0131604
0.0139686
0.0142684
0.0149059
0.0157535
0.0158836
0.0169742
0.017701
0.0185406
0.0190884
0.0199526
0.0200665
0.020554
0.0210978
0.0212591
0.0215159
0.0218691
0.0204857
0.0181303
0.0148528
0.0114265
0.0085618
0.00680085
0.00678018
0.00817363
0.0213297
0.0077776
0.0128477
0.0175289
0.0201983
0.0217199
0.0217165
0.0225381
0.0220564
0.0231697
0.0232784
0.0246758
0.0254092
0.0259242
0.0265332
0.0263922
0.0264503
0.0257606
0.0250444
0.0242719
0.0234387
0.0221555
0.020236
0.017646
0.0147227
0.0118016
0.00921926
0.00727319
0.00646595
0.00862757
0.00841185
0.00822673
0.0106665
0.0125859
0.0140043
0.0148698
0.0154487
0.0158714
0.0159874
0.0159255
0.0159661
0.0154506
0.0144522
0.0134004
0.0127936
0.0127798
0.0125071
0.0115653
0.0102147
0.00885124
0.00807778
0.00787573
0.00844691
0.00911792
0.00987699
0.010541
0.0109696
0.0110757
0.00996792
0.00439284
0.00232599
0.00311858
0.00509787
0.00857738
0.0125667
0.0160293
0.0184854
0.0196947
0.0199699
0.0196762
0.0192369
0.0186804
0.0182488
0.0177342
0.0174471
0.0170989
0.016863
0.0163108
0.0154032
0.0137794
0.0114959
0.0087608
0.00581662
0.00173906
0.000280881
9.58697e-05
4.83446e-05
3.2488e-05
2.85895e-05
6.83356e-06
0.00273799
0.00347377
0.00340222
0.00341912
0.00328214
0.00299883
0.00269837
0.00264165
0.00293608
0.00355518
0.00438443
0.0050634
0.0051268
0.00450007
0.00633266
0.00461335
0.00450563
0.00411988
0.00361023
0.0035035
0.00409167
0.00514684
0.00625583
0.00712851
0.0078517
0.00859562
0.00923233
0.00954429
0.00944609
0.00898049
0.00821041
0.00759166
0.00704329
0.00686849
0.00695433
0.00741484
0.00785628
0.008437
0.00901345
0.00964668
0.0101662
0.00996123
0.00871953
0.00497862
0.00446108
0.00341188
0.00391615
0.00477756
0.00522602
0.00526952
0.00439303
0.00375637
0.00453253
0.00685065
0.00956356
0.0118804
0.013054
0.014354
0.0157349
0.0163101
0.0161707
0.0154881
0.0140814
0.0126724
0.0115444
0.0111687
0.0113116
0.0119502
0.0126178
0.0132958
0.0135849
0.0131668
0.011697
0.00755495
0.00589091
0.0112827
0.0105373
0.00909775
0.00744501
0.00674718
0.00828441
0.0113937
0.0146835
0.0177664
0.0201975
0.0211904
0.0211961
0.0202497
0.0191977
0.0179363
0.0168597
0.0161185
0.0157211
0.0157808
0.0159775
0.0162917
0.0166293
0.0166452
0.0164146
0.0159605
0.0152948
0.0142413
0.012401
0.0126574
0.00334489
0.0063431
0.00517199
0.00693841
0.0100356
0.0128926
0.0144715
0.0151864
0.0148119
0.0144513
0.0131765
0.0126582
0.0115293
0.0113116
0.0109856
0.0113209
0.0118783
0.0124924
0.0130107
0.0135791
0.0140754
0.0143463
0.0146988
0.0149091
0.014934
0.0143709
0.0130998
0.0110566
0.00839068
0.0230684
0.00315047
0.012987
0.0126149
0.0115207
0.0103618
0.00954631
0.00965512
0.0104638
0.0115762
0.0125236
0.0135159
0.0149018
0.0162626
0.0166472
0.0157386
0.0146474
0.0135812
0.0125104
0.0109291
0.0100783
0.00888328
0.00862865
0.00913155
0.0106397
0.0123466
0.014417
0.0161727
0.0168702
0.015272
0.0116538
0.00447212
0.00820746
0.00764498
0.00726799
0.00724378
0.00742381
0.00808252
0.00980994
0.0135124
0.0189921
0.0220595
0.0224996
0.0210016
0.0192435
0.0173875
0.016305
0.0158835
0.016814
0.0174823
0.0177807
0.0170919
0.0157356
0.0138831
0.0123224
0.0113326
0.0103573
0.0103446
0.0114478
0.0124878
0.0047073
0.0274574
0.00566153
0.00608531
0.00797101
0.0107854
0.0131894
0.0143449
0.0143002
0.0139171
0.0134619
0.012937
0.0128956
0.0129638
0.01272
0.0128779
0.0129318
0.013677
0.0148295
0.0160043
0.0176147
0.0184238
0.0196086
0.0196445
0.0190841
0.0174111
0.0149101
0.0119596
0.00922516
0.00727497
0.0118591
0.00571017
0.0136695
0.013406
0.0130865
0.0126196
0.012357
0.0122923
0.0126117
0.012968
0.0134021
0.0136324
0.0137752
0.0141492
0.0144279
0.0152287
0.0163602
0.0176972
0.0188512
0.0201682
0.02184
0.0219646
0.0217338
0.0197794
0.0167926
0.0130996
0.0097503
0.00716071
0.00562934
0.00483978
0.00800498
0.013798
0.0073419
0.0100107
0.0121818
0.0138024
0.0146965
0.0151691
0.0149438
0.0149876
0.0145053
0.0139976
0.013748
0.0137234
0.0139327
0.0142821
0.0152038
0.0160827
0.0169638
0.0178643
0.0192918
0.0200347
0.0209066
0.0209107
0.0189018
0.0158736
0.0125472
0.00952133
0.00745078
0.00691272
0.0102592
0.0220375
0.00933866
0.0150722
0.0195674
0.0217375
0.0223477
0.0212921
0.0209315
0.0189949
0.0185861
0.0173948
0.0173801
0.0176671
0.0189679
0.0203232
0.0209728
0.0219316
0.0222846
0.02257
0.0223221
0.0223492
0.0218326
0.0207417
0.0187866
0.0161952
0.0133047
0.0105428
0.00829209
0.00683007
0.0105286
0.00750444
0.0105186
0.0129195
0.0146678
0.01584
0.0164201
0.0164599
0.0165393
0.0169897
0.0172913
0.0175714
0.0176905
0.0168884
0.0155616
0.0147058
0.0144029
0.0138846
0.0125243
0.0105023
0.0083508
0.00633655
0.00516921
0.00607881
0.00750464
0.00893499
0.0100399
0.0111311
0.0115255
0.0105588
0.0031618
0.00376523
0.00386467
0.00648484
0.0103268
0.0143197
0.0175461
0.0193253
0.0197471
0.0194065
0.0182908
0.017151
0.0160747
0.0152037
0.0149795
0.0152147
0.0158087
0.0162076
0.0164014
0.0159638
0.0147347
0.0125532
0.00965016
0.00662002
0.00284453
0.000463729
0.000125327
6.55885e-05
4.65078e-05
4.79286e-05
9.17994e-06
0.00284402
0.00343728
0.00344619
0.00347713
0.00332221
0.00295668
0.00252082
0.00236637
0.00269418
0.0034673
0.0044829
0.00540458
0.00571574
0.00530909
0.00631269
0.0051718
0.00468821
0.0040069
0.00334324
0.00327442
0.00404738
0.00520029
0.00636925
0.00726283
0.00803964
0.00891334
0.0096844
0.00996966
0.00968917
0.00879498
0.00767016
0.00637618
0.00533023
0.00480512
0.00504248
0.00572171
0.00662971
0.00750995
0.00840437
0.00941699
0.0102551
0.0104533
0.00940229
0.00482582
0.00409615
0.00386973
0.00412348
0.00482638
0.00509554
0.0050035
0.0040293
0.00355201
0.0046117
0.00710339
0.00983694
0.0119513
0.0134818
0.0146969
0.015946
0.016912
0.0167009
0.0153828
0.0134958
0.0110661
0.0093219
0.00853629
0.00913025
0.0102283
0.0116336
0.0128109
0.0136123
0.0136524
0.0124833
0.00644829
0.00553082
0.0125619
0.0110051
0.00884647
0.00671987
0.00610002
0.00841152
0.0122152
0.0155324
0.0186566
0.0205768
0.0207338
0.0197154
0.0181889
0.0165261
0.0146659
0.0130308
0.0116229
0.0105231
0.010299
0.0107653
0.0116995
0.0128545
0.0139062
0.0147267
0.0151006
0.0151339
0.0144971
0.0127918
0.0117718
0.00325389
0.00684683
0.0058598
0.00820371
0.0115247
0.0141685
0.0155029
0.0158944
0.0153602
0.0146494
0.0129861
0.0117972
0.0100009
0.00881596
0.00776772
0.00761809
0.00805078
0.00887014
0.0099547
0.0111004
0.0121337
0.0129928
0.0138018
0.0144655
0.0147231
0.0145286
0.0135362
0.0115934
0.0089001
0.0168892
0.00314151
0.0146982
0.0136721
0.0118699
0.00972519
0.00815699
0.008058
0.00950917
0.0113373
0.0126933
0.0138668
0.0156327
0.0172407
0.0174809
0.0166356
0.0158479
0.0144816
0.0129807
0.0110326
0.00933211
0.0070575
0.00590557
0.0066737
0.0094287
0.0122349
0.0148749
0.016968
0.0178038
0.0161882
0.0129228
0.00423638
0.00965766
0.00852477
0.00770913
0.00734547
0.00764614
0.00882218
0.0115304
0.0162599
0.0217027
0.0238497
0.0227116
0.0201073
0.0172106
0.0140316
0.0115707
0.010393
0.0117174
0.0131529
0.01462
0.0147291
0.0141989
0.0130023
0.0118791
0.0108091
0.00987149
0.0103136
0.0119036
0.0131661
0.00433804
0.0298493
0.00669582
0.00736558
0.0100829
0.0129918
0.0146901
0.0154235
0.0150946
0.0138394
0.0130795
0.0125693
0.0118069
0.0111406
0.0101879
0.00870813
0.00752855
0.00767778
0.00973806
0.0117736
0.014343
0.0158441
0.0177535
0.0183334
0.0182868
0.0169514
0.0148205
0.0120949
0.00963841
0.00788495
0.0100584
0.00697392
0.0136439
0.0137981
0.0134681
0.0128422
0.0125292
0.0125989
0.0126821
0.0127301
0.0124342
0.0120344
0.0109719
0.00978093
0.0088552
0.00936902
0.0114353
0.0135288
0.0154336
0.0178544
0.0193557
0.0209368
0.0209001
0.0195121
0.0169007
0.0133151
0.00994412
0.0072838
0.00577868
0.00514071
0.011909
0.0199648
0.00844837
0.0115646
0.0141346
0.0159696
0.0168535
0.0170089
0.0165938
0.0157191
0.0143043
0.0129902
0.0114496
0.0103097
0.00935283
0.00911646
0.00990889
0.0115193
0.0135977
0.0149893
0.0170137
0.0185839
0.0199475
0.0201359
0.0190046
0.0161522
0.0127651
0.00972957
0.00766963
0.006833
0.0168014
0.0244213
0.0115173
0.0172267
0.0215816
0.0232908
0.0238299
0.0221312
0.02086
0.018189
0.0162795
0.0133187
0.0116496
0.0106763
0.0115841
0.0135786
0.0156182
0.0174178
0.018552
0.0198952
0.020088
0.0207505
0.0206721
0.020144
0.0187973
0.0166207
0.0139409
0.0112368
0.00885707
0.00700165
0.0144987
0.00713709
0.0127444
0.0149101
0.0163972
0.0170672
0.0169928
0.0164216
0.0158203
0.0160867
0.0172509
0.0181818
0.0188561
0.0186192
0.0172336
0.0158953
0.015444
0.0148703
0.0134212
0.0114642
0.00905559
0.00659761
0.00478976
0.00538442
0.00726442
0.00883581
0.0102685
0.0113228
0.0116843
0.0108729
0.00226019
0.00715954
0.0046063
0.00749282
0.0115148
0.0155272
0.018281
0.019611
0.0193396
0.0182581
0.0165354
0.0145451
0.0126072
0.0113043
0.011507
0.0128051
0.0142751
0.0154993
0.0162761
0.0162448
0.015341
0.0132259
0.0102516
0.0070869
0.00385979
0.000891796
0.00018733
0.00011079
9.28658e-05
0.000119959
3.15441e-05
0.0031154
0.00331756
0.00341364
0.00351786
0.00342298
0.00312812
0.00272181
0.00242649
0.00260711
0.00340325
0.00457022
0.00565495
0.00624927
0.00709128
0.0066532
0.00561865
0.00470939
0.00382038
0.00309642
0.0031385
0.0039806
0.00511175
0.00630351
0.00723017
0.0080812
0.00911104
0.00993741
0.0102209
0.00981959
0.00892857
0.00746459
0.00589834
0.00437851
0.00352101
0.00371092
0.00469934
0.00579736
0.00696253
0.00814956
0.00935301
0.0104564
0.0107315
0.00983973
0.00512667
0.00428523
0.00440079
0.00417917
0.00467327
0.004818
0.00474088
0.00387591
0.0036614
0.00481758
0.00708971
0.00981615
0.0119026
0.0131686
0.0148594
0.0162407
0.0171837
0.017246
0.0157875
0.013235
0.0104432
0.007709
0.00675865
0.00789143
0.00956649
0.011382
0.0129392
0.0139378
0.0140421
0.0129341
0.00580785
0.00514566
0.0137231
0.0114224
0.0085842
0.00603304
0.00556713
0.00848808
0.0124751
0.0157051
0.0187041
0.0203008
0.0199606
0.018683
0.0169249
0.0153111
0.0137739
0.0118143
0.0101178
0.00856752
0.00771458
0.00797032
0.00923306
0.0110641
0.0129116
0.0144301
0.0153438
0.01558
0.0146065
0.0128412
0.0124049
0.00321744
0.00773496
0.00696022
0.0098987
0.0132531
0.0157734
0.0170561
0.017566
0.017098
0.0165154
0.0147458
0.0135398
0.0114408
0.00983401
0.00803
0.00705462
0.00684719
0.00759865
0.00888722
0.0102914
0.0115808
0.012768
0.0137843
0.014417
0.0147973
0.0145961
0.0136899
0.0117624
0.00933994
0.015882
0.00326355
0.0162901
0.0144951
0.0118683
0.00895478
0.00666665
0.00641625
0.00826041
0.0106808
0.0124326
0.0136247
0.0155935
0.017496
0.0179869
0.0175467
0.0169804
0.0157664
0.0146071
0.0127224
0.010625
0.00820862
0.00716515
0.00837545
0.0110447
0.0139386
0.016571
0.0184025
0.0184737
0.016286
0.0191205
0.00409576
0.0113604
0.00921785
0.00771613
0.00716755
0.00772104
0.00955252
0.0130681
0.0184457
0.023487
0.0246528
0.022667
0.0198086
0.0163828
0.0123703
0.00874738
0.00691425
0.00827609
0.010386
0.0124822
0.0132401
0.0133523
0.0126765
0.0116894
0.01055
0.0100399
0.0110015
0.0125974
0.0138299
0.00447231
0.0333625
0.00799257
0.00904943
0.012141
0.015105
0.0166353