/*--------------------------------*- C++ -*----------------------------------*\
| =========                 |                                                 |
| \\      /  F ield         | OpenFOAM: The Open Source CFD Toolbox           |
|  \\    /   O peration     | Version:  2.1.1                                 |
|   \\  /    A nd           | Web:      www.OpenFOAM.org                      |
|    \\/     M anipulation  |                                                 |
\*---------------------------------------------------------------------------*/
FoamFile
{
    version     2.0;
    format      ascii;
    class       volScalarField;
    location    "0.005100000";
    object      rhoUnburned;
}
// * * * * * * * * * * * * * * * * * * * * * * * * * * * * * * * * * * * * * //

dimensions      [1 -3 0 0 0 0 0];

internalField   nonuniform List<scalar> 
12384
(
1.90003
2.05106
2.20238
2.30963
2.36132
2.38181
2.36726
2.33313
2.2697
2.16972
2.0016
1.77349
1.64826
2.62997
4.4404
4.59488
4.98181
5.34801
5.34026
5.34783
5.18382
5.07156
4.94348
4.86169
4.81875
4.80593
4.78783
4.7733
4.75209
4.74432
4.73006
4.74138
4.74856
4.81878
4.81676
4.89277
4.90089
4.92997
4.95254
5.0529
5.17418
4.93976
4.89351
4.84697
5.89967
6.21557
6.07985
6.07507
5.31777
5.16974
4.80193
4.73952
4.63658
4.54143
4.59853
4.45498
4.45505
4.40892
4.36394
4.3621
4.35924
4.37913
4.40367
4.43755
4.44417
4.46978
4.46139
4.4415
4.42496
4.38919
4.33623
4.24897
4.33272
4.46484
5.15656
5.24901
5.95417
6.37537
6.29913
5.90581
5.47156
5.12842
4.89221
4.75601
4.66698
4.63553
4.64751
4.68777
4.74221
4.81087
4.84171
4.96006
4.89136
4.93008
4.90566
4.94885
4.99381
5.03918
5.10172
5.18785
5.36112
5.469
5.03566
4.93689
5.88716
5.50013
5.32974
5.28193
5.3234
5.43534
5.50947
5.63135
5.75529
5.73949
5.95535
5.90922
6.15159
6.06762
6.20484
5.9996
6.05961
5.69246
5.6741
5.48623
5.45864
5.39648
5.39001
5.41291
5.53915
5.61851
5.26426
4.87566
4.88865
4.93111
5.75799
4.56163
4.24299
4.21386
4.20372
4.22828
4.24044
4.26762
4.28282
4.29922
4.30934
4.33394
4.36105
4.39517
4.44343
4.49499
4.54149
4.59287
4.66087
4.65075
4.74411
4.67184
4.72461
4.63993
4.59687
4.49296
4.36163
4.31491
5.04417
5.39615
5.54472
5.41826
5.70335
6.5873
7.20001
7.89896
8.00537
8.15276
8.22842
8.10664
8.13083
7.98011
7.988
7.81963
7.8241
7.93866
7.80503
8.24866
8.06958
8.6049
8.61634
8.82679
8.9457
9.0225
9.04086
9.02733
8.99183
8.91134
8.51002
7.0255
5.82386
5.86965
5.92199
5.65288
5.33089
5.2549
5.23404
5.23815
5.32296
5.42907
5.36449
5.5151
5.46853
5.58125
5.54666
5.47461
5.48971
5.36391
5.34361
5.23589
5.17569
5.12367
5.08746
5.13658
5.17163
5.19687
4.99756
4.66852
4.37471
4.23874
7.29621
7.05866
6.77778
6.69414
6.55456
6.53023
6.46509
6.36135
6.2886
6.16775
6.1087
6.04139
6.00863
5.97609
5.93939
5.93235
5.76038
5.71803
5.50765
5.44119
5.36373
5.29647
5.10046
4.86109
4.83363
4.82672
4.94672
5.05377
5.17944
5.2831
4.4844
4.49903
4.58594
4.69579
4.79432
4.9129
5.08488
5.26152
5.49457
5.58834
5.9919
5.88536
6.35548
6.28011
6.11304
6.16639
5.76101
5.47345
5.36319
5.06845
4.92744
4.85081
4.9873
4.66142
4.44814
4.49457
4.69343
4.84095
4.87704
4.86762
7.05331
6.76662
6.32387
5.94966
5.74865
5.68132
5.56292
5.85944
5.73644
6.22333
5.99972
6.38572
6.10239
6.23368
5.86054
5.72863
5.59011
5.42767
5.26608
5.14257
5.09941
5.17695
5.38165
5.60084
5.64974
5.58276
5.56789
5.55282
5.54046
5.55915
8.15401
7.58669
6.69549
6.80547
7.69394
7.79191
8.01837
7.97501
7.78978
7.42369
7.10311
6.92413
6.79901
6.73479
6.68947
6.66261
6.69127
6.72513
6.82384
6.93944
6.98756
7.27387
7.3888
7.50969
7.63672
7.73859
7.7958
7.73232
7.83902
8.36433
9.46209
9.44431
8.93589
8.24015
7.98524
8.41202
6.00159
4.05751
4.16006
4.14063
4.13358
4.11998
4.14133
4.14015
4.16619
4.1947
4.23621
4.30906
4.43283
4.63946
4.97708
5.41473
5.66313
5.78079
5.82495
6.40897
7.40436
8.05288
8.31911
7.88764
2.60991
2.7441
2.81283
2.81646
2.79216
2.74195
2.72072
2.71292
2.69909
2.62298
2.3871
1.98966
1.71091
2.27569
4.55394
4.94639
5.32375
5.35681
5.16645
4.87353
4.53877
4.37491
4.35644
4.37488
4.40684
4.39574
4.32476
4.21932
4.10063
4.00316
3.93147
3.90255
3.89525
3.92145
3.97599
4.04568
4.17468
4.32974
4.52728
4.75483
5.03073
5.04505
4.87677
4.59127
5.81722
6.36589
6.00809
5.96935
5.22313
5.14013
4.8208
4.86212
4.78943
4.83392
4.62603
4.58221
4.48591
4.43531
4.33892
4.29885
4.22835
4.23939
4.23476
4.27371
4.30148
4.37943
4.42173
4.48357
4.48059
4.45312
4.41661
4.33889
4.26901
4.1218
5.20213
5.58468
6.23669
6.28027
5.60073
4.84266
4.45224
4.30837
4.23503
4.21915
4.2539
4.32488
4.42879
4.55928
4.69358
4.79966
4.91491
4.95588
4.93141
4.876
4.79029
4.73412
4.73471
4.78345
4.87311
4.99596
5.18745
5.43682
5.34614
5.085
5.81991
5.37457
5.23277
5.28765
5.54134
5.75547
5.89074
5.92862
6.02842
6.01318
6.19856
6.21603
6.39311
6.37729
6.37302
6.18857
6.10647
5.916
5.77792
5.59435
5.50928
5.40638
5.38309
5.37252
5.47043
5.57456
5.65028
5.40102
5.23684
5.18719
5.43317
4.42763
4.24506
4.24103
4.30938
4.37214
4.42657
4.45951
4.48151
4.5108
4.55517
4.62263
4.73771
4.86738
5.02098
5.15714
5.28405
5.29805
5.45322
5.36404
5.47125
5.26137
5.21364
4.95429
4.80372
4.63302
4.4612
4.31241
4.64006
5.0426
5.47002
5.56289
6.3864
7.19689
7.19656
6.97293
6.7031
6.95944
6.73057
6.59237
6.05121
5.71353
5.473
5.39074
5.34022
5.3674
5.4136
5.6355
6.05331
6.7122
7.32
7.94012
8.53475
9.01305
9.077
9.06799
9.01924
8.95152
8.85396
7.35193
5.50596
5.30768
5.11217
5.08235
5.05537
5.06418
5.10694
5.0662
5.0524
5.13392
5.13941
5.16695
5.28947
5.24462
5.25389
5.25355
5.19492
5.15692
5.10162
5.07116
5.03646
5.02652
5.05156
5.05637
5.10418
5.16058
5.11779
4.99301
4.6816
4.35577
6.02284
5.75003
5.59798
5.46854
5.49211
5.45709
5.52361
5.51186
5.51406
5.52855
5.55817
5.60065
5.65055
5.71041
5.75242
5.72821
5.70365
5.57392
5.45559
5.43447
5.34055
5.3104
5.14114
4.99565
4.92025
4.85619
4.78361
4.79836
4.78992
4.95876
4.50982
4.70897
4.95578
5.23035
5.53208
5.86329
6.19265
6.50225
6.93919
7.36932
7.12753
7.19329
6.92374
7.06489
7.11468
7.07882
6.98913
6.72394
6.03003
5.58854
5.29835
4.99143
4.94555
4.89418
4.66072
4.86504
5.22862
5.40934
5.41241
5.36503
6.35358
5.9427
5.5386
5.41956
5.47572
5.64882
5.96431
6.26582
6.48148
6.9317
6.95585
6.92271
6.89313
6.98511
6.7164
6.48396
6.15964
5.85416
5.6132
5.40943
5.24785
5.17249
5.24273
5.47948
5.65191
5.62595
5.59798
5.62047
5.64775
5.64771
7.72697
7.28923
6.94554
7.59663
7.85616
7.78869
7.21095
6.36155
5.89159
5.64079
5.51435
5.43331
5.4245
5.44289
5.48789
5.55141
5.66272
5.82403
5.95174
6.07236
6.09917
6.16524
6.20528
6.31719
6.58908
7.09747
7.6794
7.75045
7.81029
8.46034
8.17115
7.98317
8.30915
8.66089
8.36327
6.95057
4.42003
3.99339
4.00363
3.91174
3.86978
3.8622
3.88466
3.8973
3.92986
3.93877
3.94235
3.93706
3.9405
3.98649
4.15694
4.72458
5.66096
6.12648
5.59336
5.41818
5.842
7.48302
8.34967
7.88552
2.83062
2.86679
2.80611
2.62238
2.42942
2.29676
2.26189
2.31728
2.46684
2.64698
2.63484
2.32646
1.82773
2.08227
4.78469
5.2969
5.41766
5.15896
4.65873
4.30009
4.13483
4.14461
4.22093
4.32166
4.3723
4.2629
4.02085
3.78379
3.58674
3.45676
3.37544
3.33239
3.31555
3.33778
3.37331
3.4532
3.56282
3.74169
3.97411
4.30249
4.71286
4.99518
4.9159
4.53619
5.8545
6.37127
5.91088
5.82043
5.16332
5.14251
4.85081
5.07551
4.84566
4.84213
4.5998
4.49582
4.43841
4.34861
4.20031
4.10184
4.02892
4.00726
4.0116
4.04285
4.07414
4.12459
4.19112
4.28445
4.39993
4.47465
4.47531
4.42654
4.32074
4.12239
5.28617
5.9474
6.35597
5.90128
4.94063
4.43034
4.29414
4.27491
4.25781
4.29924
4.41164
4.58645
4.78474
4.96752
5.12224
5.25329
5.30763
5.36132
5.33422
5.23431
5.10696
5.00892
4.90943
4.8508
4.83527
4.88927
5.0304
5.30452
5.46573
5.24296
5.73711
5.27888
5.22118
5.50185
5.90151
5.96412
5.89573
5.74953
5.58187
5.49037
5.44141
5.41563
5.59717
5.6105
5.78097
5.84099
5.92456
5.90327
5.80873
5.71778
5.58723
5.5023
5.41898
5.36944
5.41561
5.52338
5.61203
5.65687
5.60574
5.61865
5.1876
4.36424
4.25478
4.32112
4.4048
4.4835
4.50213
4.51627
4.52891
4.57572
4.66913
4.81958
5.05507
5.2783
5.42768
5.4885
5.5524
5.48414
5.62819
5.45721
5.70206
5.50981
5.41406
5.2011
5.00409
4.74514
4.53457
4.36943
4.40702
4.82881
5.47465
5.9854
6.5243
6.30855
5.72656
6.10126
6.25552
6.22958
5.66106
5.07912
4.80843
4.77905
4.7779
4.84203
4.79389
4.76358
4.69907
4.5566
4.59996
4.79875
5.33653
6.48268
7.28553
8.34704
9.03379
9.09127
9.04094
8.94003
8.84058
7.65541
5.22062
5.00965
4.92307
4.94126
4.97994
4.90997
4.88744
4.93989
4.92908
4.94069
5.09938
5.09731
5.14838
5.21872
5.25163
5.21589
5.21183
5.07361
5.08343
4.9806
4.99245
4.94687
4.98633
4.97562
5.03055
5.09298
5.12577
5.08505
4.87372
4.48613
5.54127
5.43053
5.43584
5.4821
5.48316
5.56798
5.55573
5.59567
5.58234
5.56708
5.59738
5.60817
5.67063
5.73188
5.7825
5.81419
5.78079
5.76093
5.62885
5.51233
5.38166
5.31249
5.17802
5.09465
4.98039
4.8883
4.85196
4.79846
4.76433
4.89045
4.88403
5.02491
5.47661
5.8889
6.21661
6.57347
6.84108
7.19167
7.40095
7.38124
7.15382
7.10499
6.97165
7.04724
7.14772
7.03709
7.49543
7.45914
7.27344
6.32615
5.83364
5.38978
5.09123
4.9875
4.92251
4.97699
5.289
5.47741
5.54013
5.52076
6.00727
5.40154
5.33244
5.5499
5.9152
6.34697
6.829
7.22394
7.46595
7.30169
7.30649
7.10062
7.20478
7.14981
7.33166
7.34429
6.99808
6.51562
6.08392
5.77302
5.53634
5.34869
5.27068
5.36325
5.57288
5.63957
5.65135
5.66975
5.73081
5.76025
7.41012
7.16839
7.6117
7.7439
7.57351
6.41636
5.70552
5.34868
5.2046
5.13516
5.16381
5.1754
5.2236
5.33309
5.49783
5.75511
6.07546
6.39614
6.66124
6.87985
7.00914
6.91514
6.59911
6.3171
6.14805
6.38114
7.04794
7.60891
7.72002
8.10966
8.34522
8.56378
7.4409
6.94989
6.14545
4.66792
3.97369
3.90924
3.85499
3.81904
3.84969
3.8917
3.92866
3.96365
3.9951
4.03895
4.08098
4.09711
4.05839
3.97389
3.89277
4.03903
4.82954
6.5197
6.68547
5.8139
5.4939
7.02486
8.14592
7.95021
2.86697
2.80758
2.54451
2.22096
2.08236
2.04554
2.04315
2.06835
2.16474
2.42983
2.65352
2.50453
1.96053
2.00137
5.02683
5.46209
5.29893
4.82179
4.2959
4.0645
4.05788
4.10607
4.23488
4.37989
4.38021
4.08447
3.70862
3.44259
3.27534
3.18094
3.10137
3.04705
3.01333
3.0102
3.04814
3.11169
3.21428
3.34606
3.55799
3.87397
4.34635
4.84064
4.92099
4.54425
5.94373
6.29894
5.86303
5.66044
5.12456
5.1365
4.85154
5.23887
4.95504
4.83302
4.62264
4.51809
4.36958
4.28492
4.07436
3.95708
3.91584
3.92843
3.95497
3.98582
3.99503
4.02145
4.04682
4.11496
4.20808
4.33186
4.44513
4.46821
4.37205
4.13721
5.43324
6.16007
6.3863
5.52217
4.68613
4.40803
4.40979
4.38117
4.37967
4.48779
4.69192
4.94732
5.1484
5.27724
5.34439
5.35316
5.36088
5.34522
5.34891
5.28961
5.19924
5.13462
5.065
4.98934
4.93189
4.91604
4.99016
5.22469
5.47468
5.33869
5.68832
5.23357
5.29171
5.83409
5.9241
5.65788
5.29462
4.96625
4.69623
4.46852
4.4285
4.34431
4.43834
4.46503
4.68573
4.87889
5.06541
5.39037
5.55891
5.6959
5.62969
5.591
5.47884
5.37178
5.35831
5.44641
5.5112
5.57766
5.7262
5.49887
5.06506
4.3354
4.28639
4.37526
4.46935
4.50707
4.5253
4.52794
4.54517
4.61049
4.732
4.95525
5.2255
5.37323
5.3211
5.07549
4.88838
4.74033
4.61896
4.6351
4.74983
4.77087
4.90684
4.92731
4.85164
4.69594
4.54976
4.33839
4.3028
4.60106
5.59436
6.0828
6.03714
5.59703
5.73629
6.26773
5.95463
5.38439
4.81668
4.65264
4.79112
5.03885
5.14358
5.2345
5.15082
5.07154
4.96148
4.66304
4.50205
4.33124
4.41445
5.04318
6.10116
7.35671
8.86473
9.03806
9.0371
8.92482
8.81301
7.82601
5.05018
4.82698
4.87371
4.85812
4.80836
4.82397
4.81126
4.83802
4.97093
4.95944
5.03108
5.16554
5.20602
5.23014
5.28964
5.2746
5.23583
5.16646
5.04295
4.99752
4.95478
4.88041
4.9227
4.90882
4.94116
4.99997
5.06778
5.07581
4.93183
4.54785
5.13306
5.2241
5.35192
5.49105
5.622
5.58187
5.61694
5.52912
5.50669
5.46183
5.40175
5.43638
5.44123
5.51212
5.52318
5.57033
5.63956
5.61673
5.60385
5.59412
5.44908
5.31021
5.20692
5.13627
4.96047
4.9203
4.79874
4.73461
4.7015
4.87059
5.07021
5.3071
5.92598
6.21077
6.41519
6.74034
6.86703
7.48607
7.30033
7.3702
7.00958
6.97857
6.98889
6.89753
7.03509
7.08135
7.18695
7.50571
7.61668
7.39646
6.43958
5.86142
5.39
5.12744
5.03336
5.09345
5.24826
5.38538
5.54547
5.58884
5.71979
5.23467
5.47664
5.97433
6.47076
6.96932
7.49587
7.63697
7.45873
7.52463
7.22239
7.34567
7.18961
7.3299
7.33252
7.46011
7.55548
7.31683
6.73266
6.23245
5.87195
5.61017
5.41651
5.36325
5.46298
5.57604
5.62535
5.66706
5.77171
5.77931
7.05604
7.49029
7.75218
7.55851
6.28367
5.52233
5.18782
5.13202
5.16197
5.12303
5.13622
5.22017
5.31291
5.49163
5.79311
6.2026
6.52616
6.80836
7.09579
7.42148
7.65659
7.77803
7.54037
6.84473
6.30377
6.13177
6.43405
7.29069
7.44974
8.11563
8.97035
6.65122
5.16267
5.22153
4.72271
4.03634
3.84592
3.83453
3.8116
3.82906
3.86953
3.86554
3.89036
3.89475
3.91863
3.96327
4.05527
4.15784
4.23883
4.19417
4.03042
3.8891
4.09381
5.56605
7.15537
6.22244
5.64562
6.81839
8.11782
7.94778
2.86038
2.68142
2.2674
2.04444
2.02982
2.06718
2.1139
2.11987
2.12949
2.27123
2.59083
2.60717
2.08547
1.98415
5.18312
5.46118
5.09836
4.57569
4.16825
4.04505
4.03951
4.03698
4.23626
4.40951
4.34754
3.89982
3.50738
3.29557
3.18675
3.09323
2.99837
2.90269
2.83005
2.81079
2.84344
2.92049
3.01567
3.14374
3.29867
3.56979
4.02817
4.62685
4.89512
4.52733
5.96642
6.18783
5.71514
5.53941
5.17733
5.06795
4.91887
5.08144
5.0169
5.00128
4.59435
4.52187
4.39019
4.17238
3.97995
3.89804
3.91774
4.01672
4.08773
4.11169
4.08618
4.05736
4.03735
4.04176
4.10395
4.20289
4.34226
4.44805
4.40205
4.15235
5.51929
6.32016
6.28479
5.24424
4.60834
4.48634
4.5012
4.46308
4.50422
4.69437
5.00112
5.24641
5.32796
5.34439
5.2881
5.20767
5.156
5.10576
5.07057
5.07327
5.08388
5.07657
5.07844
5.0801
5.0432
4.99488
5.01123
5.19264
5.47267
5.4197
5.59358
5.18866
5.41025
5.91636
5.52797
5.03003
4.59103
4.26813
4.03002
3.87216
3.78673
3.71673
3.69988
3.73115
3.80209
3.97223
4.22497
4.62547
4.98981
5.41498
5.52269
5.61484
5.51281
5.37066
5.30258
5.29285
5.42232
5.54746
5.6183
5.63179
4.99245
4.34735
4.31838
4.4121
4.46156
4.45107
4.45972
4.50495
4.55048
4.63257
4.78004
5.03367
5.23498
5.13003
4.70289
4.34214
4.07289
3.92852
3.88884
3.9002
3.93614
4.02135
4.20024
4.34774
4.47787
4.51875
4.39748
4.29449
4.27802
4.53622
5.69212
5.93088
5.51455
5.46643
5.90146
5.80402
5.23371
4.7931
4.62405
4.80668
5.23417
5.49598
5.41713
5.29133
5.07091
4.96815
4.91604
4.82161
4.57131
4.32536
4.1887
4.39365
5.14581
6.65197
8.2701
9.02143
8.97668
8.9014
8.78111
7.84186
4.90678
4.72831
4.8163
4.78028
4.71166
4.75314
4.86927
4.87627
4.89969
5.01051
5.04342
5.00178
5.18725
5.1139
5.11016
5.14411
5.11368
5.09144
5.07545
4.95662
4.94543
4.85154
4.85412
4.85123
4.8721
4.91454
4.99784
5.02161
4.92162
4.55335
5.04255
5.25668
5.5373
5.70787
5.70518
5.63486
5.45946
5.3199
5.17816
5.13808
5.12278
5.11375
5.21377
5.25548
5.34266
5.38397
5.4344
5.41402
5.51134
5.5153
5.37686
5.37553
5.21738
5.08167
4.97164
4.90224
4.69878
4.67302
4.69282
4.80304
5.13056
5.73154
6.03283
6.17375
6.40663
6.74059
6.97452
7.42881
7.36983
7.38628
6.98489
7.05396
6.96912
6.97201
6.93508
7.13382
7.09134
7.32459
7.5662
7.64045
7.28432
6.27145
5.73319
5.32548
5.13283
5.12468
5.24381
5.30664
5.52594
5.5852
5.35146
5.30812
5.79876
6.3311
6.87325
7.18262
7.74774
7.52598
7.45958
7.59574
7.23735
7.36897
7.3045
7.23849
7.35182
7.37381
7.57919
7.59491
7.39311
6.78901
6.27102
5.89452
5.62328
5.45982
5.43588
5.50149
5.57977
5.67319
5.80684
5.81927
7.00938
7.6274
7.74353
6.46362
5.491
5.1599
5.07906
5.01405
5.03799
5.11744
5.11923
5.2072
5.36538
5.58821
5.97451
6.36084
6.60509
6.65119
6.94478
7.48792
7.46784
7.58882
7.85464
7.57703
6.55852
6.01702
6.285
6.93386
7.20474
8.00718
8.50739
5.02082
4.40497
4.45439
4.14702
3.8458
3.80405
3.80285
3.81817
3.83781
3.85964
3.84433
3.83597
3.84012
3.83921
3.85628
3.9082
4.04855
4.24342
4.35625
4.23427
3.97062
3.87927
4.661
6.90529
6.48561
5.96189
7.02398
8.16984
7.73751
2.85076
2.53043
2.11239
2.04308
2.1041
2.18561
2.27626
2.35006
2.31683
2.3546
2.5862
2.63229
2.16503
1.9794
5.29113
5.43316
5.00162
4.49004
4.19085
4.1301
4.00462
3.91361
4.21269
4.41756
4.30512
3.80369
3.44149
3.27915
3.20009
3.09361
2.94766
2.78862
2.70422
2.68015
2.71412
2.79644
2.91999
3.03309
3.16676
3.3871
3.82531
4.48844
4.87498
4.50247
6.09231
5.95552
5.70133
5.41719
5.19885
4.93925
4.93678
4.97793
4.9076
5.01343
4.66383
4.4789
4.38036
4.14613
3.91414
3.92556
4.10205
4.23315
4.30299
4.28944
4.23413
4.15633
4.09146
4.03919
4.05515
4.14499
4.26928
4.41813
4.41693
4.14554
5.60537
6.34345
6.18119
5.09982
4.64173
4.59778
4.56831
4.51816
4.63376
4.90618
5.23038
5.38063
5.32859
5.31678
5.16991
5.10264
5.04553
5.02275
4.95782
4.90787
4.92544
4.97348
5.01628
5.05565
5.05507
5.04574
5.0735
5.24169
5.55075
5.49027
5.56815
5.24748
5.64847
5.57739
4.93795
4.4591
4.13429
3.92152
3.76015
3.65422
3.55296
3.48658
3.43863
3.42831
3.45265
3.55733
3.72371
4.09174
4.5141
5.06185
5.31004
5.53985
5.44937
5.33562
5.19339
5.21341
5.25158
5.28965
5.409
5.40041
5.00958
4.35235
4.32962
4.40105
4.36425
4.27424
4.26502
4.39369
4.54367
4.64985
4.79882
5.03765
5.10243
4.7163
4.23406
3.92108
3.73026
3.68477
3.65648
3.63805
3.65289
3.68072
3.77521
3.92791
4.11406
4.19302
4.23416
4.20861
4.16602
4.50145
5.72925
5.69292
5.22942
5.44318
5.65558
5.25742
4.79749
4.60359
4.67236
5.20263
5.73318
5.5734
5.24477
4.91379
4.73389
4.6586
4.6472
4.67071
4.51699
4.35576
4.11472
4.18531
4.71289
6.23131
7.99486
8.93665
8.89859
8.84881
8.82345
7.78311
4.76534
4.73903
4.69724
4.63571
4.74964
4.76257
4.79179
4.86912
4.84843
4.83077
4.98008
4.90519
4.92979
4.96304
4.94855
4.9631
4.94339
4.94616
4.96807
4.91234
4.89268
4.82655
4.78509
4.79105
4.80578
4.84624
4.91539
4.96983
4.87596
4.52699
4.97639
5.34596
5.65621
5.7201
5.61916
5.42044
5.27517
5.11001
5.07748
5.02487
5.12497
5.25722
5.30736
5.47312
5.41419
5.39753
5.29134
5.3082
5.38919
5.25453
5.41937
5.28973
5.17788
5.05013
4.94077
4.80193
4.67095
4.57531
4.64347
4.82332
5.27961
5.87199
5.94309
6.1954
6.46607
6.796
6.98313
7.35687
7.04139
7.19733
7.07042
6.96911
6.9271
6.90256
6.8574
7.00698
7.09363
7.19686
7.30094
7.63542
7.6038
6.90253
5.94124
5.52752
5.28184
5.14781
5.1741
5.27343
5.54145
5.52349
5.22274
5.46296
6.04335
6.56533
6.94955
7.30423
7.63202
7.21074
7.43128
7.02944
7.23265
7.2544
7.15638
7.2409
7.33137
7.30855
7.5008
7.54806
7.64812
7.3484
6.67313
6.18942
5.82627
5.59697
5.492
5.49423
5.56807
5.67819
5.83681
5.82005
7.16254
7.69917
7.09364
5.7558
5.13026
4.96878
4.9381
4.87393
4.78763
4.85927
5.03145
5.13694
5.3206
5.59786
5.9902
6.41437
6.45655
6.37072
6.71951
7.22949
7.39647
7.37937
7.50568
7.53523
6.42071
5.97444
6.09492
6.76196
7.04007
7.81209
8.23573
4.3449
4.01742
4.07119
3.90958
3.77572
3.78952
3.80652
3.82373
3.84379
3.85678
3.8343
3.86659
3.8559
3.8567
3.82704
3.82802
3.89844
4.14642
4.43141
4.42576
4.06574
3.84081
4.10711
6.29718
7.19472
6.64769
7.54578
8.32866
7.55573
2.83024
2.43694
2.09827
2.10668
2.18777
2.24344
2.31706
2.47454
2.57226
2.55543
2.66317
2.67484
2.20709
1.98105
5.34834
5.38057
4.93435
4.51091
4.31867
4.36492
4.03511
3.79541
4.18444
4.4291
4.32984
3.81897
3.44377
3.31447
3.25727
3.13599
2.93008
2.74894
2.65994
2.6498
2.67977
2.77348
2.89279
3.01306
3.11126
3.3007
3.73574
4.43244
4.84484
4.4029
5.96134
5.85683
5.68305
5.31693
5.16697
4.90239
4.8849
4.82484
4.88323
4.97748
4.64644
4.52363
4.3119
4.08644
3.9597
4.03171
4.30159
4.45962
4.4405
4.42187
4.30267
4.23182
4.14353
4.09902
4.04468
4.13152
4.25626
4.40784
4.39711
4.1218
5.64171
6.34212
6.01086
5.03862
4.63823
4.61481
4.57457
4.53882
4.73988
5.12962
5.35778
5.3972
5.32436
5.28678
5.11878
5.11951
4.94273
4.86095
4.82806
4.80208
4.83701
4.88157
4.96766
5.01731
5.04653
5.06925
5.12547
5.29482
5.58683
5.43945
5.47796
5.33715
5.58617
5.00764
4.47893
4.15403
3.98036
3.84367
3.73108
3.61744
3.52269
3.43677
3.38722
3.33536
3.33269
3.39336
3.51441
3.86314
4.25135
4.84356
5.13507
5.40718
5.31085
5.18419
5.08463
5.07796
5.10954
5.16749
5.36891
5.41478
5.01995
4.40511
4.36262
4.33389
4.17044
4.00019
4.04241
4.28613
4.50927
4.63532
4.79605
4.96662
4.92567
4.46987
4.01924
3.76193
3.69247
3.62605
3.58813
3.50938
3.5593
3.52306
3.5963
3.66083
3.81103
3.98423
4.09719
4.08248
4.1257
4.4252
5.78072
5.45753
5.09874
5.30586
5.20925
4.80678
4.59814
4.57237
4.88663
5.6539
5.92054
5.45073
4.98529
4.72789
4.64178
4.56113
4.54615
4.50327
4.43029
4.26663
4.04368
4.14426
4.66881
6.24592
8.0533
9.00023
8.93164
8.85288
8.8003
7.56445
4.68119
4.64252
4.61537
4.60467
4.67675
4.75031
4.71835
4.71243
4.80407
4.76194
4.76831
4.86097
4.86286
4.76504
4.91204
4.82241
4.82632
4.78982
4.82715
4.81265
4.81477
4.79536
4.72654
4.73707
4.75442
4.78994
4.86381
4.90517
4.81386
4.45801
5.0386
5.53348
5.76825
5.75239
5.67681
5.45705
5.21119
5.11293
5.06543
5.1286
5.1284
5.30205
5.47814
5.53079
5.73676
5.61462
5.50021
5.37774
5.14563
5.26963
5.23858
5.20143
5.14773
4.97768
4.88172
4.7203
4.58415
4.51944
4.61433
4.8338
5.40916
5.78826
5.9534
6.21407
6.48604
6.74286
6.80635
6.64761
6.52022
6.65586
6.53483
6.86295
6.82822
6.8046
6.87248
6.8903
6.97892
7.22789
7.1433
7.46155
7.55534
7.1162
6.24807
5.62595
5.34277
5.22722
5.1872
5.26875
5.53104
5.4218
5.12182
5.59904
6.16118
6.6015
7.04768
7.2855
7.52091
7.22396
7.26493
6.82921
7.09756
6.83029
6.93629
7.08617
7.19172
7.30807
7.46121
7.41247
7.70412
7.52626
6.96497
6.43573
6.02529
5.72917
5.57657
5.54623
5.59447
5.70326
5.87992
5.82622
7.3094
7.72395
6.45082
5.33072
4.94376
4.80045
4.65442
4.59167
4.54931
4.52497
4.72965
4.99618
5.22059
5.49039
5.94362
6.40348
6.40028
6.16956
6.30372
6.93084
7.63067
7.61647
7.77902
6.8855
6.17786
5.84961
6.16531
6.68784
6.77042
7.77376
7.5388
4.06616
3.85369
3.88109
3.79878
3.75904
3.7717
3.80611
3.83289
3.83295
3.85708
3.85738
3.88893
3.88908
3.86543
3.85048
3.82223
3.82561
4.03555
4.43213
4.60041
4.167
3.81278
3.88468
5.64094
7.685
7.61219
7.83081
8.08954
7.1662
2.82138
2.40561
2.11689
2.17871
2.30676
2.37738
2.38821
2.4754
2.6813
2.78672
2.79304
2.68144
2.16909
1.985
5.42553
5.32292
4.94777
4.60656
4.54495
4.66591
4.05358
3.67885
4.08717
4.39709
4.35912
3.85853
3.47682
3.37316
3.34181
3.20781
2.99629
2.79314
2.71042
2.72859
2.78493
2.85873
2.95528
3.02552
3.09985
3.27861
3.74971
4.50972
4.82289
4.35725
5.96143
5.83882
5.68048
5.29634
5.15951
4.85083
4.83813
4.7814
4.79251
4.99366
4.60414
4.47573
4.31327
4.01638
3.96128
4.16018
4.41476
4.55453
4.55902
4.43203
4.37016
4.27759
4.17688
4.14289
4.0859
4.1658
4.29136
4.42539
4.36741
4.09931
5.65728
6.31665
5.85877
4.98436
4.69587
4.63554
4.59837
4.58265
4.8579
5.2801
5.35826
5.29818
5.26956
5.36074
5.26368
5.16081
5.03472
4.92652
4.75218
4.78452
4.78741
4.84856
4.88255
4.98458
5.04391
5.09108
5.21935
5.51961
5.74159
5.51081
5.51861
5.36926
5.24378
4.60025
4.2702
4.12991
4.03263
3.92063
3.80577
3.68066
3.58212
3.49809
3.43801
3.37734
3.35701
3.38884
3.54562
3.85251
4.24144
4.76475
5.01269
5.19153
5.06615
5.02968
4.924
4.93973
4.94084
5.05962
5.19394
5.1975
5.04864
4.41004
4.33973
4.26118
3.98181
3.77875
3.8503
4.1855
4.49574
4.60234
4.75499
4.91305
4.8409
4.34838
3.93456
3.7574
3.70758
3.58101
3.52495
3.45179
3.47257
3.45818
3.48608
3.56464
3.6974
3.85624
3.94778
4.03436
4.18052
4.423
5.67958
5.202
4.9227
5.02038
4.78238
4.59533
4.54398
4.64521
5.20129
5.93977
6.015
5.42187
4.9726
4.80234
4.71419
4.62712
4.49233
4.38319
4.26351
4.11511
4.01087
4.23351
5.05979
6.87687
8.25591
8.36207
8.34387
8.66996
8.49016
7.37136
4.63041
4.54578
4.50748
4.58366
4.61395
4.64646
4.70002
4.64932
4.64217
4.74444
4.69808
4.7095
4.89299
4.73878
4.86407
4.82095
4.73775
4.77348
4.73396
4.7816
4.76841
4.77808
4.68008
4.7064
4.70937
4.76473
4.8209
4.8653
4.71152
4.37151
5.05853
5.50095
5.77315
5.75522
5.59446
5.45893
5.29646
5.10193
5.02584
5.13631
5.17653
5.22701
5.54815
5.72462
5.75155
5.72163
5.67967
5.26808
5.2246
5.16112
5.1244
5.16805
5.01844
4.94755
4.77774
4.66729
4.46612
4.51088
4.66855
4.83243
5.36466
5.67596
5.90028
6.16418
6.49982
6.59401
6.64808
6.21879
6.4311
6.39628
6.84152
6.91347
6.71768
6.78591
6.75261
6.93112
6.85793
7.10579
7.12565
7.33761
7.42614
7.11926
6.27406
5.75832
5.37437
5.23824
5.21452
5.42937
5.32935
5.24517
5.08002
5.6659
6.11259
6.54935
7.04252
7.32184
7.69769
7.44895
7.37681
6.90279
7.1511
6.79958
6.98144
6.98619
7.18923
7.16391
7.52188
7.32363
7.67748
7.54164
7.2723
6.60615
6.12843
5.84108
5.66943
5.61272
5.64524
5.77961
5.94632
5.81732
7.4475
7.60995
6.01837
5.08949
4.80291
4.64852
4.44762
4.31165
4.333
4.33265
4.42725
4.70369
5.09216
5.39006
5.78813
6.37668
6.49753
6.02937
5.85298
6.07488
6.39187
6.72658
6.47192
6.13218
5.7707
5.83354
6.25867
6.59376
6.79052
7.6621
7.12415
3.92242
3.72673
3.76752
3.74908
3.74581
3.78129
3.78553
3.83765
3.83348
3.84247
3.84439
3.88594
3.8795
3.88427
3.87513
3.8274
3.80323
3.96236
4.4405
4.72037
4.2436
3.7567
3.78089
5.27805
7.79744
7.98244
8.21458
7.65161
7.2374
2.83012
2.45456
2.17563
2.28652
2.51773
2.71946
2.71657
2.54861
2.62519
2.82271
2.84286
2.68352
2.13125
1.98065
2.1537
3.16899
5.21139
5.33838
5.06301
4.87739
4.86158
4.74468
4.01037
3.56667
3.93161
4.34551
4.40286
3.96689
3.53205
3.42952
3.42313
3.3389
3.1261
2.93265
2.83382
2.85466
2.90491
2.95261
3.00257
3.03895
3.10678
3.34004
3.91822
4.6338
4.71652
4.20927
4.50647
5.49161
5.80837
5.61907
5.62671
5.25354
5.1713
4.88408
4.79507
4.79072
4.75483
4.9509
4.58856
4.45838
4.25882
4.01472
3.95871
4.19768
4.52206
4.63887
4.59964
4.50735
4.36455
4.30338
4.20901
4.17457
4.16614
4.26432
4.37072
4.44615
4.29108
3.96677
3.95406
4.37143
5.53182
6.22362
5.73484
4.92225
4.69739
4.63689
4.60783
4.62577
4.92659
5.28328
5.35214
5.38351
5.39601
5.46085
5.43127
5.36812
5.06995
5.12331
4.82023
4.82747
4.81249
4.8806
4.93039
5.03303
5.10168
5.27549
5.4693
5.59976
5.54046
5.35344
5.65746
5.81799
5.53116
5.25082
4.78093
4.42722
4.29984
4.24085
4.16161
4.04149
3.922
3.79229
3.69213
3.62345
3.5665
3.52249
3.52004
3.57069
3.75584
4.00135
4.34103
4.70912
4.8172
4.88605
4.83799
4.8038
4.77388
4.77141
4.81407
4.94441
5.18342
5.10245
4.93971
4.99075
5.12936
4.46411
4.32092
4.17542
3.88008
3.71359
3.7625
4.11283
4.48171
4.5939
4.69179
4.84607
4.79514
4.30828
3.93263
3.80932
3.73271
3.59729
3.53009
3.42653
3.44185
3.42179
3.47746
3.54438
3.68276
3.81318
3.93827
4.05687
4.24334
4.69864
5.36586
5.77851
5.72643
5.05591
4.77555
4.69663
4.58837
4.55306
4.56659
4.74316
5.39693
6.15341
6.21119
5.60344
5.19651
4.97365
4.81505
4.59835
4.43899
4.24918
4.14775
4.11249
4.23949
4.79472
6.10552
7.46797
7.95829
7.85964
8.14996
8.47045
8.25688
7.22511
4.84087
4.37862
4.53261
4.42203
4.40568
4.51489
4.61782
4.59503
4.59937
4.63865
4.56759
4.61797
4.73551
4.67916
4.79722
4.85539
4.84115
4.76716
4.80865
4.71008
4.788
4.76115
4.75951
4.72684
4.65565
4.69378
4.69798
4.74789
4.81836
4.78133
4.55455
4.41018
4.59083
4.64132
5.00684
5.36624
5.66882
5.78871
5.72215
5.42606
5.21985
5.14619
5.00138
5.01374
5.19765
5.27946
5.40933
5.69444
5.66497
5.74329
5.49915
5.33944
5.25229
5.07143
5.16216
5.0124
5.00234
4.83055
4.70345
4.50435
4.47708
4.65628
4.86941
5.1365
5.41106
5.56795
5.56707
5.71803
5.91719
6.18054
6.50966
6.51492
6.57556
6.16874
6.45182
6.4718
6.85169
6.93613
6.75729
6.7999
6.79971
6.84237
6.87496
7.02908
6.98938
7.36332
7.31741
6.95135
6.22455
5.70928
5.38505
5.22
5.29407
5.32608
5.07749
5.2805
5.41993
5.49002
5.48311
5.83596
6.14126
6.54378
6.89485
7.41373
7.69898
7.62073
7.43277
7.24881
7.18367
7.21543
7.12311
7.04216
7.2277
7.09567
7.48312
7.33187
7.59361
7.52841
7.31442
6.68784
6.1841
5.90904
5.74247
5.6818
5.75199
5.91391
6.05014
5.85987
5.87165
6.64118
7.52926
7.45707
5.76347
4.96412
4.7092
4.50382
4.32793
4.17804
4.13728
4.17566
4.25795
4.44657
4.85628
5.26588
5.58187
6.24134
6.71997
6.19569
5.76611
5.62524
5.70613
5.6644
5.70601
5.64496
5.74821
5.92281
6.12356
6.25295
6.58373
7.79983
8.31419
8.90194
7.22656
3.86655
3.65841
3.70262
3.7228
3.72982
3.76613
3.78402
3.81846
3.84217
3.82712
3.8575
3.8828
3.89507
3.88146
3.86958
3.82119
3.80812
3.96054
4.47125
4.78822
4.25923
3.68127
3.70095
5.02815
7.86303
8.22058
8.36929
8.16292
7.84948
3.20972
3.03044
2.84394
2.54779
2.26532
2.4132
2.73058
3.08916
3.21458
2.8973
2.5964
2.68874
2.80561
2.7114
2.22821
2.00579
2.0679
2.77765
4.6092
5.34035
5.2244
4.92042
4.5972
4.20809
3.76742
3.43027
3.71504
4.21145
4.42157
4.08952
3.60068
3.47829
3.50682
3.48324
3.33957
3.12805
2.97829
2.92805
2.95021
2.98138
3.00753
3.05833
3.1914
3.54206
4.19144
4.66898
4.37783
3.99377
4.35058
4.99482
5.20355
4.96377
5.14993
5.16837
5.13578
5.02636
4.85673
4.89319
4.74808
4.99268
4.51641
4.46851
4.25005
3.98147
3.94305
4.11455
4.41959
4.58651
4.61908
4.5223
4.38814
4.31997
4.26791
4.2728
4.29409
4.37366
4.38406
4.2418
3.97697
3.86218
4.39521
4.88303
5.62791
6.10115
5.51836
4.87147
4.70119
4.63684
4.57856
4.65612
4.98938
5.30337
5.31494
5.35658
5.50281
5.52808
5.50823
5.48104
5.30822
5.11244
5.07863
4.94715
4.90893
4.96213
5.01344
5.1419
5.26347
5.4602
5.55078
5.49675
5.42094
5.53368
5.71535
5.73157
5.39707
5.04221
4.67403
4.4886
4.42269
4.37809
4.29984
4.20097
4.07547
3.93488
3.8372
3.77905
3.75551
3.77357
3.79588
3.85227
3.98521
4.19644
4.40151
4.57702
4.60563
4.6577
4.60846
4.60937
4.58699
4.65067
4.7515
4.9347
5.01386
5.0224
4.95394
4.99992
4.96245
4.42582
4.30574
4.13073
3.85988
3.73503
3.78637
4.12395
4.46941
4.58001
4.62907
4.79138
4.77404
4.35833
3.99626
3.87698
3.79456
3.69344
3.60178
3.51629
3.48168
3.49605
3.55273
3.65177
3.76715
3.8943
4.03424
4.24243
4.66873
5.32325
5.62301
5.70833
5.34515
4.76614
4.55031
4.56341
4.56292
4.58153
4.61821
4.7655
5.4556
6.41473
6.49208
5.99537
5.59038
5.35761
5.09527
4.87501
4.61462
4.47534
4.47549
4.59462
5.09787
6.04525
7.07349
7.60791
7.67789
7.82012
8.04812
8.05035
7.42542
5.98991
4.3597
4.3983
4.38056
4.19955
4.2337
4.4012
4.55859
4.60238
4.56164
4.55671
4.57197
4.54707
4.6758
4.74862
4.71306
4.82753
4.86986
4.8226
4.81377
4.77526
4.84624
4.7539
4.7682
4.70919
4.63714
4.7135
4.71416
4.75816
4.75726
4.62133
4.46071
4.50289
4.58615
4.62365
4.90496
5.17952
5.47489
5.56827
5.5552
5.43868
5.17629
5.04165
5.07584
4.98778
5.04272
5.32597
5.36861
5.52852
5.68875
5.56811
5.50479
5.3189
5.23292
5.15742
5.05494
4.9956
4.8718
4.7267
4.52685
4.47727
4.69668
4.94114
5.10258
5.29221
5.31891
5.32521
5.28834
5.39411
5.8044
6.07473
6.53154
6.50026
6.61446
6.24197
6.48434
6.49826
6.90203
7.00564
6.77518
6.85446
6.80638
6.89673
6.79157
7.09295
6.95151
7.31568
7.3149
6.71251
6.04986
5.62234
5.38294
5.35764
5.40796