/*--------------------------------*- C++ -*----------------------------------*\
| =========                 |                                                 |
| \\      /  F ield         | OpenFOAM: The Open Source CFD Toolbox           |
|  \\    /   O peration     | Version:  2.1.1                                 |
|   \\  /    A nd           | Web:      www.OpenFOAM.org                      |
|    \\/     M anipulation  |                                                 |
\*---------------------------------------------------------------------------*/
FoamFile
{
    version     2.0;
    format      ascii;
    class       volScalarField;
    location    "0.004550000";
    object      H2;
}
// * * * * * * * * * * * * * * * * * * * * * * * * * * * * * * * * * * * * * //

dimensions      [0 0 0 0 0 0 0];

internalField   nonuniform List<scalar> 
12384
(
0.00963729
0.00956111
0.00911274
0.00875189
0.00861552
0.00886482
0.00921121
0.0093248
0.00902821
0.00831348
0.00767683
0.00640078
0.00156402
0.00025406
7.66846e-05
0.000120843
0.000116853
0.000101098
9.86986e-05
9.31582e-05
9.61356e-05
9.77687e-05
0.000104257
0.000108411
0.000108302
0.000112134
0.000109453
0.000101695
0.000105418
9.44169e-05
9.75587e-05
8.67811e-05
8.87531e-05
8.27644e-05
8.66125e-05
8.36333e-05
8.92675e-05
9.57943e-05
0.00015284
9.32453e-05
2.50417e-05
3.63386e-05
9.36369e-05
0.000166192
0.00136681
0.00244447
0.00260847
0.00255088
0.00240852
0.00219435
0.00196816
0.0017257
0.00150913
0.00121819
0.00106876
0.000911736
0.000842604
0.000851509
0.000914597
0.000984106
0.00103768
0.00105078
0.00103067
0.000981623
0.000889934
0.000816666
0.000804677
0.000811229
0.000930057
0.00142267
0.00249721
0.00144987
0.000444217
0.000153046
0.00222344
0.00325852
0.00369884
0.00334098
0.00304299
0.00284288
0.00267466
0.00252537
0.00235149
0.00220543
0.0020377
0.00189995
0.00176138
0.00172608
0.00153686
0.00163121
0.00151336
0.00165598
0.00166337
0.00162443
0.00174521
0.00182688
0.00183535
0.00192041
0.00228757
0.00128916
0.000569435
0.000552129
0.000566767
0.000541229
0.000661019
0.00156128
0.00307559
0.00383236
0.00425255
0.00430552
0.00416195
0.00391011
0.00359279
0.00326155
0.00294995
0.00262141
0.00235947
0.00222496
0.00177398
0.00218654
0.00165262
0.0022179
0.00187755
0.00300395
0.00257917
0.00333017
0.00393324
0.00311242
0.00109139
0.000709562
0.000442329
0.00047023
0.000570532
0.000621046
0.000598514
0.00504098
0.00566807
0.00381085
0.0026195
0.00247402
0.00279368
0.00329161
0.00392783
0.00449874
0.00499496
0.00535623
0.00570183
0.005932
0.00608329
0.00616583
0.00624084
0.00623818
0.00621214
0.0062202
0.00629741
0.00618035
0.00618538
0.00602476
0.0058781
0.00541935
0.00420259
0.00286931
0.00158592
0.000616373
0.00130468
0.00218617
0.00658259
0.00882895
0.00743972
0.00393276
0.00232251
0.00186952
0.00171852
0.00229265
0.00174165
0.00131659
0.00141637
0.000842177
0.000846977
0.000698977
0.000651822
0.000603263
0.000553353
0.000509138
0.000474797
0.000466765
0.000455054
0.000465466
0.000448157
0.00045103
0.00043073
0.000437027
0.00100867
0.000407372
5.10595e-05
0.000110653
0.00552134
0.00854258
0.00733642
0.00673447
0.00644521
0.00606633
0.00572793
0.00554623
0.00529846
0.00521508
0.0051174
0.00512009
0.00517176
0.00527143
0.0054002
0.00558809
0.0058209
0.00599479
0.00623257
0.00652799
0.0067221
0.0068819
0.00697285
0.00692773
0.00663991
0.00568078
0.00425657
0.00492905
1.53322e-05
5.66999e-05
0.0150222
0.0165928
0.0143198
0.0129644
0.0119442
0.0113557
0.0111207
0.0111561
0.0113358
0.0116348
0.0119811
0.0124172
0.0128356
0.0131466
0.0135661
0.0139372
0.0143744
0.0147641
0.0157744
0.0159764
0.0174567
0.0177921
0.0188582
0.0193363
0.0199345
0.0204287
0.0207907
0.0132163
0.000204789
0.00150872
0.00238187
0.00198565
0.00209104
0.00275971
0.00407966
0.00601829
0.007715
0.00881483
0.00922599
0.00958504
0.00931028
0.00951049
0.00984638
0.00899789
0.00935268
0.00836431
0.00902615
0.00820452
0.00919848
0.00863794
0.00922649
0.0090625
0.00966825
0.00983295
0.00904545
0.00845246
0.00934775
0.00969579
0.00144852
0.0123356
0.0129569
0.0137102
0.0149191
0.0154489
0.0150451
0.0133758
0.011947
0.0111262
0.0106606
0.010294
0.00998416
0.00966429
0.0090386
0.00867926
0.00806784
0.00805668
0.00740882
0.00721629
0.00697525
0.0067984
0.00674471
0.00690874
0.00769521
0.0118046
0.0148835
0.0114575
0.00854274
0.00760807
1.95277e-05
0.00414565
0.0186852
0.0206328
0.0187436
0.0159458
0.0134994
0.0120047
0.0110596
0.0105763
0.0103696
0.010352
0.0104654
0.010555
0.0106567
0.0107574
0.0108057
0.0107835
0.0106995
0.0106242
0.010404
0.0101787
0.00976926
0.00956407
0.00936228
0.00973016
0.013475
0.00356327
5.41457e-06
5.12581e-06
1.38433e-06
2.26401e-06
3.23381e-06
1.87222e-05
0.00254689
0.0155215
0.0226088
0.0256159
0.0274658
0.0282151
0.0292326
0.0295992
0.0299998
0.0304488
0.0303778
0.0305254
0.0299043
0.0288018
0.0268598
0.0240005
0.0200231
0.0161351
0.0123694
0.00957057
0.0054878
0.000866932
4.33441e-05
5.51261e-06
2.67355e-06
4.55009e-06
0.00642105
0.00468456
0.00311768
0.00236789
0.0020808
0.00258263
0.00371946
0.00594984
0.00773835
0.00814939
0.00765239
0.00668418
0.00318028
0.000464566
7.48426e-05
0.000109763
9.00218e-05
7.8535e-05
9.11429e-05
9.65167e-05
0.000132474
0.000149885
0.000181087
0.000188287
0.00017867
0.000162192
0.000148204
0.000143163
0.000139236
0.000129972
0.000130203
0.000123838
0.000120935
0.000118858
0.000112616
0.000108137
0.00010086
0.000101808
0.00012895
0.000131745
6.55946e-05
4.14109e-05
3.98616e-05
7.41588e-05
0.00139539
0.00262767
0.00242375
0.00207741
0.00148148
0.00100373
0.00069908
0.000544913
0.000422971
0.000368507
0.00041152
0.000627713
0.00127824
0.00222711
0.0027551
0.00288663
0.00275914
0.00255195
0.00234604
0.00216658
0.00194841
0.0015493
0.00114012
0.000859076
0.000776629
0.00106557
0.00184371
0.00250877
0.00186341
0.000306809
0.00252195
0.00409218
0.00349391
0.00268329
0.00241074
0.00216976
0.00184876
0.00143193
0.0011607
0.000975155
0.00085973
0.000776568
0.000757823
0.000682275
0.000746469
0.000617171
0.000696248
0.000521951
0.000557927
0.000656988
0.000735612
0.000887528
0.00109788
0.0014037
0.00195932
0.00190591
0.000945605
0.000595009
0.000757299
0.000752047
0.000546172
0.000995488
0.00282067
0.00429266
0.0048171
0.00458735
0.00388568
0.00297056
0.00201939
0.00107531
0.000653473
0.000417223
0.000335183
0.000291177
0.000293343
0.00028608
0.000305041
0.000316616
0.000336466
0.000404099
0.000570621
0.00102223
0.00239379
0.00321704
0.00216379
0.000944522
0.000676615
0.000636667
0.000786013
0.000839368
0.000936165
0.00497716
0.00390716
0.00241753
0.00276022
0.00422062
0.00534376
0.00617197
0.0067054
0.00717492
0.0074915
0.00765694
0.00764586
0.00751929
0.00740892
0.00732887
0.00728356
0.00724992
0.00722589
0.00754501
0.00751441
0.00770784
0.00749794
0.00729432
0.0069061
0.00639747
0.00545259
0.00397945
0.00257562
0.00140565
0.00156688
0.00384138
0.00778848
0.00685403
0.00283963
0.00159094
0.00209934
0.00381402
0.00406348
0.00256332
0.00167842
0.000397857
0.00032493
0.000267383
0.000304952
0.000427548
0.000479108
0.00059834
0.000602146
0.000552669
0.000474948
0.000403726
0.000359059
0.000335503
0.000339776
0.00035889
0.00036007
0.000361089
0.000728054
0.000501474
0.000107539
0.00190762
0.0075867
0.00783146
0.00683445
0.00658319
0.00634053
0.00605045
0.00554728
0.00490483
0.0043979
0.00402296
0.00386187
0.00381625
0.00394103
0.00404589
0.00420527
0.00426145
0.00437879
0.00445406
0.00458404
0.00476373
0.00498083
0.00524948
0.00556332
0.00584047
0.00581134
0.00524614
0.00401291
0.00444435
0.00013739
0.00661435
0.0151219
0.0131482
0.0100494
0.00896738
0.00868034
0.00880081
0.00910048
0.00952758
0.0100503
0.010426
0.010551
0.010646
0.0106158
0.0106273
0.0108293
0.0112584
0.0118579
0.0121093
0.0131247
0.0137815
0.0150142
0.0158841
0.0166236
0.0167304
0.0169768
0.0181522
0.0199776
0.0153035
0.00069684
0.00172033
0.00144322
0.00122774
0.00206968
0.00470791
0.00840328
0.0106615
0.010992
0.011057
0.010946
0.0100867
0.00981215
0.00872122
0.00824906
0.00762434
0.00755828
0.00681181
0.00710977
0.006864
0.006251
0.00615853
0.00602401
0.00634576
0.00723701
0.00834502
0.00888432
0.00846427
0.00846796
0.00916444
0.00380958
0.0115503
0.0115415
0.0128936
0.0146476
0.0149846
0.0135054
0.011774
0.0117989
0.0117123
0.0111407
0.0100688
0.00878454
0.00744914
0.00626029
0.0053282
0.00452379
0.00413117
0.00361125
0.00336885
0.00332019
0.00370264
0.00425306
0.00492225
0.0058236
0.00851148
0.0128469
0.0148268
0.0126657
0.0103265
0.0028619
0.0132759
0.0196898
0.0168304
0.0120337
0.00950223
0.00764583
0.00733631
0.00663387
0.00660318
0.00664648
0.0070179
0.00784065
0.00891507
0.0101102
0.0109092
0.011338
0.0114768
0.0112302
0.0105392
0.00945067
0.00816238
0.00702443
0.00667829
0.00701283
0.0078617
0.0115244
0.0103449
0.000489511
6.6364e-06
1.76423e-06
2.85352e-06
1.20755e-05
0.000607857
0.0128504
0.0230263
0.0279748
0.0300199
0.0311573
0.0320531
0.0324419
0.0330525
0.0335668
0.0338248
0.0345532
0.0352423
0.0362298
0.0370123
0.0377376
0.037504
0.0370976
0.034396
0.0307951
0.0256265
0.0218754
0.017142
0.00670672
0.00010528
4.87191e-06
4.20398e-06
0.00177474
0.00108444
0.000714931
0.000625889
0.000619206
0.000653037
0.000792247
0.00152274
0.00377059
0.00622081
0.00688454
0.00634651
0.00400749
0.000733437
7.39864e-05
9.45429e-05
9.04255e-05
0.000109214
0.000182212
0.000241658
0.000335537
0.00030358
0.000252601
0.000198047
0.000159479
0.000130411
0.00012945
0.000126138
0.000140569
0.000147669
0.000159485
0.000157331
0.000160275
0.000166062
0.000161825
0.000156542
0.000140469
0.00011847
0.000124367
0.000151612
0.00013153
9.88557e-05
5.73031e-05
5.90947e-05
0.00146029
0.00252834
0.0018552
0.00120804
0.000543658
0.000357608
0.000251691
0.000258079
0.000363429
0.00104731
0.0029609
0.00472648
0.00543322
0.00538635
0.00486563
0.00393988
0.00299879
0.00241131
0.002179
0.00223973
0.00244352
0.00248506
0.00206194
0.00123554
0.000793483
0.000825407
0.00131008
0.0021895
0.00251071
0.000670485
0.002964
0.0041968
0.00268421
0.00236741
0.00221134
0.00178521
0.00125592
0.000922959
0.000668248
0.000606411
0.000605591
0.000663851
0.000816083
0.000925702
0.00103137
0.000899889
0.000910974
0.000699063
0.000624772
0.000514167
0.000501403
0.000529243
0.000656617
0.000889285
0.00131753
0.00188355
0.00144724
0.000816615
0.000796146
0.000909536
0.00038697
0.000916267
0.00363959
0.00544835
0.00565185
0.0049269
0.00370574
0.00234707
0.0010486
0.000498689
0.000350085
0.000293242
0.000310346
0.000328742
0.000370846
0.00040618
0.000456833
0.000441943
0.000434304
0.000375301
0.000402159
0.000486437
0.00100657
0.00269507
0.00288167
0.00160387
0.000858909
0.000816815
0.000944053
0.000868363
0.00158359
0.00417137
0.00270356
0.00313849
0.00496989
0.00610156
0.00680408
0.00742647
0.00779358
0.00790735
0.00764367
0.00723985
0.00694202
0.00678627
0.00678296
0.00681014
0.00686309
0.00689723
0.00693705
0.00695017
0.00705904
0.00723104
0.00754626
0.0077646
0.00785739
0.00744906
0.00662579
0.00511628
0.00334019
0.00213145
0.00215932
0.00544584
0.00726473
0.0036053
0.00181313
0.00362842
0.00686463
0.00699098
0.00413575
0.000983917
0.000284033
0.000125249
0.000111047
0.000160795
0.000240797
0.000742556
0.0014683
0.00211939
0.0021892
0.00202702
0.00147756
0.000864333
0.000471387
0.000358187
0.000293167
0.000277272
0.000281638
0.000276751
0.000466177
0.000566893
0.000416703
0.00554946
0.00823841
0.00799771
0.00828193
0.00921939
0.00943756
0.00885539
0.0076272
0.00614818
0.00491064
0.00419811
0.00394112
0.00399257
0.00408128
0.00404207
0.00381044
0.00366118
0.00380129
0.00396657
0.00415397
0.00431145
0.00439632
0.00453532
0.00473131
0.0049388
0.00494987
0.00446446
0.0033313
0.00378547
0.00274214
0.0119946
0.0134162
0.0102412
0.00908121
0.00905638
0.00923947
0.00953989
0.00985324
0.0100448
0.00978158
0.00928058
0.00829323
0.00759268
0.00670216
0.00640384
0.00623364
0.0066852
0.00752058
0.00866049
0.00990285
0.0108099
0.0116718
0.0121688
0.0121334
0.011193
0.0109343
0.0132244
0.0179926
0.0157173
0.00114488
0.00120359
0.000760763
0.00122438
0.00496893
0.00966361
0.0117761
0.0116488
0.0118353
0.0117691
0.0100957
0.00752785
0.004812
0.00352284
0.00279429
0.00294915
0.00357986
0.00422704
0.00511703
0.00556408
0.00519625
0.00480083
0.0038093
0.00313626
0.00352348
0.00499588
0.00703949
0.0080088
0.00808104
0.00855033
0.00514671
0.00966995
0.00913452
0.0118537
0.014251
0.0143475
0.0132553
0.0140136
0.0141863
0.0130203
0.0104788
0.00750674
0.00486832
0.00282844
0.00184092
0.00109005
0.000954934
0.000785563
0.000775498
0.000693039
0.000767242
0.000903433
0.00139551
0.00230948
0.00338027
0.00541535
0.00934628
0.0135828
0.0150747
0.0125686
0.0108304
0.0177507
0.0157943
0.0106831
0.00717093
0.00604482
0.00477885
0.00366306
0.00233882
0.00174889
0.00146657
0.00190627
0.00308357
0.00504373
0.00741075
0.00987182
0.0115393
0.0122215
0.0119076
0.0104119
0.00798322
0.00521457
0.00298752
0.0022814
0.00296695
0.00487567
0.00868962
0.0128265
0.00732433
1.83049e-05
2.06358e-06
4.81457e-06
8.69469e-05
0.00881693
0.0220898
0.0286265
0.0308324
0.0315838
0.0309645
0.0305265
0.0296675
0.0290412
0.0285704
0.0288991
0.0295635
0.0305815
0.032017
0.0335818
0.0352144
0.0363368
0.0358928
0.0330664
0.0265418
0.0203468
0.0149613
0.0149124
0.0127481
0.00383861
1.68811e-05
3.81367e-06
0.00114255
0.000589909
0.00053649
0.000597874
0.000663027
0.000595899
0.00054345
0.000682582
0.0015751
0.00391199
0.00549277
0.00563635
0.00412305
0.000950135
7.15659e-05
0.000101237
0.000145356
0.00026824
0.000411627
0.000442349
0.000361862
0.000232663
0.000165943
0.0001296
0.000103201
9.72474e-05
0.000135537
0.000193139
0.000273685
0.000348859
0.000375899
0.000384116
0.000354588
0.000328046
0.000299705
0.000273175
0.000218092
0.000156272
0.000136536
0.000150466
0.000179874
0.000167011
9.66559e-05
6.15171e-05
0.00155446
0.00232003
0.00157095
0.000879467
0.000389296
0.000307682
0.000417187
0.0010391
0.00276514
0.00505666
0.00640122
0.00682261
0.00670499
0.00609741
0.00485468
0.00302963
0.00166766
0.00111597
0.00108996
0.00137233
0.00188074
0.00240038
0.00249977
0.00178564
0.00095067
0.000753821
0.00100649
0.00174529
0.00241496
0.0010013
0.00371799
0.00388168
0.00251996
0.00239034
0.00213032
0.00165676
0.00113969
0.000728792
0.000534565
0.000501885
0.000577406
0.000884341
0.00127098
0.00183871
0.00200422
0.00218924
0.00194265
0.00177582
0.00129178
0.000928102
0.000619657
0.000515597
0.000488138
0.000549547
0.000890764
0.00153615
0.00170799
0.00107279
0.000852569
0.000980759
0.000307546
0.00163456
0.00530877
0.00641669
0.00607385
0.00496308
0.00327033
0.00170839
0.000771206
0.000496744
0.00045643
0.000534885
0.000702349
0.0010123
0.00136441
0.00177964
0.001961
0.00199826
0.00169583
0.00111861
0.000717267
0.000546203
0.000729136
0.00218793
0.00321391
0.00238107
0.00111202
0.000925533
0.00119587
0.0010628
0.00202591
0.00335951
0.00285409
0.00467659
0.00609569
0.00692083
0.0076718
0.00797553
0.00786757
0.0074214
0.00700589
0.00680236
0.00685323
0.00703703
0.00713922
0.00727137
0.00736695
0.0074433
0.00751697
0.00752908
0.00743888
0.00742865
0.00749097
0.00770595
0.00805717
0.00821073
0.00753085
0.00609438
0.00415921
0.0026334
0.00293023
0.00615627
0.00547583
0.00227457
0.00311307
0.00772887
0.00957501
0.00741896
0.00376232
0.00094587
0.000234051
9.9243e-05
7.83078e-05
0.000111936
0.000237293
0.000852197
0.00199073
0.00255186
0.002589
0.00216981
0.00147903
0.000881313
0.000477432
0.000353332
0.000266945
0.000236436
0.000226018
0.000208775
0.000336415
0.000554279
0.00148802
0.00763225
0.00881694
0.00974539
0.0116222
0.0130353
0.0131202
0.011923
0.00983259
0.00735806
0.00525431
0.00394578
0.00328859
0.00301496
0.00268562
0.00234064
0.00240784
0.00278933
0.00339952
0.00420787
0.00461664
0.00484437
0.00458564
0.0044451
0.00430015
0.00433647
0.00432212
0.00368252
0.00256125
0.0031471
0.00719264
0.0134517
0.0120917
0.0106258
0.0110727
0.0111733
0.0106524
0.00992751
0.00917327
0.0083474
0.00738051
0.00645542
0.00518458
0.0042142
0.00336091
0.00279779
0.00256018
0.00230557
0.00275766
0.00322656
0.00508006
0.00652412
0.00781618
0.00801254
0.0067947
0.00446583
0.00363881
0.00728014
0.0153853
0.0155423
0.00110944
0.00075903
0.000633519
0.00313368
0.00898454
0.0115798
0.0118814
0.012686
0.0131746
0.00999909
0.00463391
0.00140686
0.000305747
0.000184793
0.000154819
0.000173847
0.000233249
0.000465621
0.00152592
0.0032913
0.00428295
0.00429554
0.00317911
0.00194098
0.00111659
0.00170096
0.00403377
0.00664166
0.00750101
0.00798479
0.00571439
0.00743811
0.0068751
0.0116399
0.0143686
0.0143186
0.0157379
0.0162035
0.0144732
0.0103367
0.00574006
0.0022494
0.000727232
0.000419867
0.000366246
0.000352707
0.000355603
0.000387715
0.000348014
0.00034555
0.000285816
0.000295307
0.000380841
0.000618374
0.00133184
0.00292039
0.00612816
0.0111321
0.0148518
0.0136931
0.0141398
0.0165819
0.0110189
0.00697829
0.00507976
0.00374181
0.00204177
0.000819461
0.000363289
0.000213132
0.000170949
0.000186494
0.000306213
0.000910749
0.0032595
0.00691014
0.0108039
0.0133571
0.0136011
0.011038
0.00695211
0.00262991
0.000530062
0.000287986
0.00047263
0.00194348
0.00613975
0.0124366
0.0105939
4.06566e-05
2.36712e-06
1.10191e-05
0.00160685
0.0167919
0.0277507
0.0311565
0.0311261
0.0302229
0.0285399
0.0271449
0.0257074
0.0249988
0.0246149
0.0248074
0.0254283
0.0267055
0.0281232
0.0301172
0.0321153
0.0341709
0.0345591
0.0308743
0.0211036
0.0123243
0.00815657
0.0094981
0.0130593
0.00836767
6.56878e-05
3.58553e-06
0.000920364
0.000489128
0.00062897
0.00119463
0.00147465
0.000995369
0.000617442
0.000581829
0.00104174
0.00272403
0.00420075
0.00474136
0.00386557
0.00102926
7.23605e-05
0.000140449
0.000293143
0.00053423
0.000570655
0.000455323
0.00034694
0.00025209
0.000178563
0.000123722
0.000108673
0.00014243
0.000259995
0.000455438
0.000699205
0.000831936
0.000883349
0.000896232
0.000879734
0.0007798
0.000667816
0.000550437
0.000400024
0.000263078
0.000165826
0.000158685
0.0001922
0.000220956
0.00013698
6.83605e-05
0.00161581
0.0020854
0.00153558
0.000978083
0.000708268
0.00099836
0.00215259
0.00416561
0.00580689
0.00699597
0.00739649
0.0073944
0.00708498
0.00613408
0.00432795
0.00187018
0.000780501
0.000631814
0.000798237
0.00115179
0.00177001
0.00234854
0.00253285
0.00205915
0.00107151
0.000729995
0.00085046
0.00150166
0.00210555
0.00116407
0.00461755
0.00337891
0.00248444
0.00246781
0.00242422
0.00228176
0.00155114
0.000798466
0.000474966
0.000420567
0.000527169
0.00102541
0.00182789
0.00246528
0.00261138
0.00262435
0.00230618
0.00223815
0.00175182
0.00122677
0.000917857
0.000652223
0.000474824
0.000454852
0.000614607
0.00111899
0.00175212
0.00141624
0.000954471
0.000989433
0.000459774
0.00385096
0.00645251
0.00676825
0.00625762
0.0047353
0.00270388
0.00105571
0.000640194
0.000607484
0.000813316
0.00123796
0.00198195
0.00261038
0.00299932
0.00325652
0.00327637
0.00332903
0.00321937
0.00258881
0.00147131
0.000827899
0.000818594
0.00208753
0.00350656
0.00294832
0.00144164
0.00101916
0.00141713
0.00126421
0.00224208
0.00311434
0.00379947
0.00576732
0.00685095
0.00770416
0.00811567
0.00793326
0.00754863
0.00720469
0.00725528
0.00743937
0.00762678
0.00758165
0.007624
0.00785153
0.00795166
0.00808552
0.00812686
0.00812024
0.00806045
0.00790212
0.00770463
0.00770325
0.00808632
0.00854666
0.0082078
0.00685398
0.00486096
0.00298858
0.00376347
0.00619183
0.00388635
0.00230937
0.00596026
0.0105863
0.0110863
0.0091848
0.00681826
0.0033016
0.000501993
0.000119145
6.61493e-05
6.84718e-05
0.000128429
0.000422437
0.000980601
0.00120426
0.000849186
0.000471189
0.000334388
0.000245617
0.00021131
0.000190143
0.000178426
0.000168226
0.000156968
0.000146053
0.000226555
0.000472895
0.00317806
0.00870471
0.0103064
0.0126106
0.0153722
0.0166606
0.0163481
0.0146767
0.0119025
0.00850348
0.00539038
0.00327915
0.00227795
0.00175419
0.00149435
0.00176021
0.00293287
0.00521377
0.00712439
0.0084309
0.00948952
0.00979387
0.00936447
0.007824
0.0058546
0.00465345
0.00404226
0.00308112
0.00176226
0.00250667
0.0095577
0.0136255
0.0124598
0.0130736
0.0138034
0.0127042
0.0107948
0.0089418
0.00743567
0.00652536
0.00583599
0.00501867
0.00393824
0.00304951
0.00259631
0.00217658
0.00183491
0.00159529
0.00137708
0.00139062
0.00195012
0.00290584
0.00426063
0.00432835
0.00242956
0.000546225
0.000338789
0.00219276
0.0123637
0.0151539
0.000958543
0.000538295
0.00104973
0.00666812
0.0110857
0.0123024
0.0134548
0.0141492
0.0105872
0.00503676
0.000662997
0.000197649
9.04328e-05
9.15135e-05
9.57106e-05
0.00011708
0.00012986
0.000190144
0.000396199
0.00129974
0.0031966
0.00417346
0.00335798
0.00181461
0.000573352
0.00045189
0.00153102
0.00510646
0.00693837
0.00759356
0.00567883
0.00566664
0.0066071
0.0124279
0.0148951
0.0165842
0.0181118
0.0161857
0.0111647
0.00534134
0.00139281
0.000399942
0.000328452
0.000399758
0.0006338
0.000822583
0.000698524
0.000665179
0.000417072
0.000327831
0.00024245
0.000215319
0.00021404
0.000257442
0.00046562
0.00119804
0.00370802
0.00872349
0.0141424
0.0142317
0.0154311
0.0139272
0.00786999
0.00558189
0.00435164
0.00298311
0.00176107
0.000848697
0.000432715
0.000222866
0.00013413
0.000117492
0.000128541
0.000227923
0.000826628
0.00389395
0.00930722
0.0145602
0.0159273
0.0122419
0.00593251
0.000963734
0.000170952
0.000115677
0.000178741
0.000623068
0.0046871
0.0122394
0.0118351
4.83311e-05
2.83502e-06
3.15336e-05
0.00709252
0.0226802
0.0301514
0.0313634
0.0297953
0.0278404
0.0254517
0.0236841
0.0218565
0.0207958
0.019898
0.0200329
0.0208971
0.0223506
0.024498
0.026617
0.0290013
0.0315954
0.0337202
0.0327626
0.0206749
0.00754458
0.00466989
0.00714734
0.0111363
0.0084335
9.31422e-05
3.30898e-06
0.000787294
0.000459596
0.00105783
0.00271793
0.0031175
0.00152848
0.00068834
0.000573058
0.000958253
0.00222309
0.00343137
0.00401397
0.00350678
0.00104899
7.19353e-05
0.000219179
0.000514821
0.00067128
0.00064028
0.00062597
0.000631435
0.000498081
0.000287742
0.00016213
0.000133162
0.000192113
0.000353442
0.000633967
0.000786054
0.000795891
0.000762569
0.00079071
0.000895749
0.00109231
0.00115812
0.00104311
0.000742779
0.00042831
0.000237346
0.000171266
0.000191277
0.000230112
0.000158762
7.2934e-05
0.00161732
0.00196693
0.00193445
0.00194437
0.0020046
0.00303986
0.00442184
0.00603546
0.00703199
0.00754268
0.00767421
0.00738883
0.00666421
0.0057496
0.00354745
0.000903678
0.000447159
0.000486402
0.000698271
0.00119751
0.00199068
0.00242711
0.00249833
0.00199763
0.00105962
0.000693603
0.000843128
0.00132404
0.00172274
0.00117692
0.005347
0.00314258
0.00260958
0.00291404
0.00367345
0.00389622
0.00287752
0.00122254
0.000504364
0.000355657
0.000459684
0.00100611
0.00202792
0.00277145
0.00280095
0.00258012
0.00203631
0.00166769
0.00135011
0.00113148
0.000949679
0.000729584
0.000457719
0.000386958
0.000469879
0.000907553
0.00162194
0.00163389
0.00109274
0.00101378
0.00253362
0.00573559
0.00675384
0.00698621
0.00639225
0.00447762
0.00209247
0.000831549
0.000689278
0.00091646
0.00147434
0.00241553
0.00301596
0.00326337
0.00327462
0.00322955
0.00323894
0.00329213
0.00353955
0.00322784
0.00228517
0.00121361
0.00104689
0.00228486
0.0037994
0.00335832
0.00169106
0.00105502
0.00164576
0.00145791
0.00235313
0.00315582
0.00467777
0.00644474
0.00757599
0.00823519
0.00816601
0.00794601
0.00776328
0.00785663
0.00797086
0.00814238
0.00798343
0.00783459
0.00780358
0.00807129
0.00825781
0.00831774
0.00842603
0.00847335
0.00842004
0.00818449
0.00788888
0.00777567
0.00817021
0.00884562
0.00870561
0.00741384
0.00540772
0.00323724
0.00448478
0.00576521
0.00296402
0.00307942
0.008499
0.0119834
0.0125532
0.0117055
0.0104429
0.00731397
0.0026429
0.000237697
7.04575e-05
5.4925e-05
8.03199e-05
0.000237839
0.000491746
0.000520072
0.000314601
0.000205671
0.000154918
0.000131494
0.000120267
0.000111051
0.000102665
9.84752e-05
9.9993e-05
0.000102148
0.000164119
0.000453367
0.00436911
0.00970242
0.012271
0.015797
0.0185009
0.0192954
0.0186179
0.0167802
0.0136611
0.00951825
0.00539645
0.00258583
0.00143913
0.00123781
0.00174356
0.00404528
0.00721328
0.0098221
0.0113987
0.0126008
0.0136423
0.0145923
0.0149708
0.0137221
0.0106618
0.00677482
0.00444865
0.00269282
0.00109947
0.00194752
0.0108661
0.0139379
0.0143706
0.0162358
0.0159751
0.0134106
0.0103499
0.00774463
0.00625735
0.00565709
0.00528493
0.0042346
0.00343657
0.00281244
0.00256766
0.00220339
0.00191501
0.00162169
0.00141025
0.00119916
0.00116654
0.00142439
0.00206152
0.00182292
0.000606971
0.000143523
0.000103281
0.000545068
0.0106359
0.0143905
0.000823041
0.000571541
0.00301512
0.00949704
0.0124624
0.0138199
0.0145025
0.011895
0.00654597
0.00230899
0.000332058
0.000137304
0.000115795
0.000161631
0.000297503
0.000411399
0.000439624
0.000453092
0.000617362
0.00130049
0.00315234
0.00418981
0.00355515
0.00186699
0.000451978
0.000233935
0.000535213
0.0035842
0.00602277
0.0071745
0.00531115
0.00452232
0.00801648
0.0140853
0.0166161
0.0194802
0.0182062
0.0129441
0.00684739
0.00176883
0.00042214
0.000300387
0.000527776
0.00140813
0.00156133
0.00101074
0.000419658
0.000234354
0.00015334
0.000163058
0.000156677
0.000148564
0.000150437
0.000170888
0.000251733
0.000519779
0.00215276
0.00693808
0.0134135
0.0143413
0.0151404
0.0114475
0.00673954
0.00567851
0.00523287
0.00488036
0.00484666
0.00464032
0.00391846
0.0023454
0.000776656
0.000249374
0.000198441
0.000292817
0.000482325
0.0014883
0.00667302
0.0146493
0.0181028
0.013774
0.006063
0.000549092
0.000143564
0.000107409
0.000151797
0.000495853
0.00467259
0.0129969
0.012587
4.5429e-05
3.19331e-06
6.3223e-05
0.011232
0.0259769
0.0311628
0.0308693
0.0279667
0.0253705
0.0225043
0.0202988
0.0176357
0.0158208
0.0143741
0.014021
0.0149225
0.0174283
0.0203495
0.0238641
0.026446
0.0288672
0.0316432
0.0341653
0.0272772
0.00885826
0.00307603
0.00598791
0.00924152
0.00696578
9.00859e-05
3.19079e-06
0.000716259
0.000498232
0.00192756
0.00481835
0.00449153
0.00178469
0.000733757
0.000606466
0.0010439
0.00200543
0.00295122
0.00354743
0.00305048
0.00118506
9.72544e-05
0.000351579
0.000654875
0.000792298
0.000921048
0.00121588
0.00142489
0.00106134
0.000503647
0.000225063
0.000150441
0.000177211
0.000337122
0.000531089
0.000599493
0.000492217
0.000439343
0.000436752
0.000526812
0.000854075
0.00129584
0.00151575
0.00122528
0.000649446
0.000316389
0.00020647
0.000205544
0.000248077
0.000167156
7.41159e-05
0.00157866
0.00196628
0.0024766
0.00305979
0.00356885
0.00470788
0.00576073
0.00670899
0.00730708
0.00755908
0.00725982
0.00624635
0.00564258
0.00523424
0.00279656
0.000504728
0.000312896
0.000408914
0.000585513
0.0010756
0.0019146
0.00230124
0.00223063
0.00160869
0.000894488
0.000683553
0.000845477
0.00117698
0.00131234
0.00109577
0.00567098
0.00308512
0.00290484
0.00408326
0.00592427
0.00657837
0.00536631
0.00273363
0.000698409
0.00034423
0.000404169
0.000862809
0.00193766
0.00284687
0.00276177
0.00199537
0.00135452
0.000867065
0.000702303
0.000750146
0.000682215
0.000587731
0.000440562
0.000369373
0.000432937
0.000768392
0.00152153
0.00180008
0.00130848
0.00104629
0.00536634
0.00605109
0.00677585
0.00709938
0.00659297
0.00432991
0.00164036
0.000788607
0.00080572
0.00125402
0.0022572
0.0029831
0.00321497
0.0031674
0.00294967
0.00277558
0.00280876
0.00297877
0.00318757
0.00329162
0.00266391
0.0015481
0.00128009
0.00251359
0.00397364
0.0034168
0.00164902
0.00106726
0.00191074
0.00172887
0.00250016
0.00354517
0.00539059
0.00712759
0.00831702
0.00864973
0.00849824
0.00847466
0.00852518
0.00854225
0.00861076
0.00864608
0.0083068
0.00784252
0.00795088
0.00833083
0.00842841
0.00841202
0.00854439
0.00869081
0.00858954
0.00830361
0.00797786
0.0078754
0.00845723
0.00926683
0.00911042
0.00778396
0.00565053
0.0033345
0.00496489
0.00501595
0.00265887
0.00459993
0.0101715
0.0126328
0.0130872
0.0132507
0.0131578
0.0109647
0.0065129
0.00110258
0.000118334
5.64656e-05
6.12431e-05
0.000165508
0.000388407
0.000462239
0.000318478
0.000209928
0.00016284
0.000146022
0.000159996
0.000196374
0.000204006
0.000151639
0.000105677
9.2575e-05
0.000125795
0.0003926
0.00525042
0.0109102
0.0144129
0.0184316
0.0205356
0.0209257
0.0200794
0.0181166
0.0149145
0.0104043
0.00533155
0.00199774
0.00122327
0.00155625
0.00437785
0.00826036
0.0106975
0.0120614
0.0130594
0.013941
0.0148185
0.0160762
0.0173507
0.0181177
0.0155161
0.0101805
0.00541791
0.00248496
0.000714964
0.00148817
0.0117761
0.0149913
0.0172141
0.0190668
0.0172196
0.0134035
0.00947263
0.00661724
0.00531218
0.00509684
0.00490491
0.00397288
0.00357058
0.00297881
0.00253062
0.00195215
0.00139328
0.00118614
0.00124341
0.0011664
0.0011584
0.0010658
0.00113103
0.000794986
0.000308819
9.55797e-05
7.17525e-05
0.000323788
0.0106452
0.0134191
0.000751653
0.000918538
0.00646526
0.0117676
0.0135812
0.0142488
0.0123958
0.00902804
0.00532809
0.00195322
0.000418818
0.000221793
0.000199089
0.000402824
0.000763175
0.00102577
0.00133914
0.00143455
0.00135797
0.00292896
0.00369755
0.00420625
0.00370602
0.0016023
0.000324719
0.000175515
0.000373855
0.00311262
0.00552135
0.00667887
0.00497376
0.00496385
0.0108408
0.0166384
0.0195543
0.0199338
0.0158693
0.00940422
0.00397905
0.000710328
0.000342932
0.000552244
0.00149488
0.00232232
0.00136983
0.000320442
0.000170196
6.8808e-05
6.79111e-05
6.13524e-05
8.3339e-05
0.000101444
0.000107551
0.000120808
0.00017349
0.000339149
0.00121725
0.00597108
0.0130732
0.0142881
0.0146023
0.00980193
0.00687081
0.00689432
0.00748497
0.00825335
0.0090581
0.00945061
0.00924053
0.0082889
0.0062524
0.00326006
0.0013182
0.00104206
0.0012191
0.000870298
0.00331947
0.0125997
0.0192608
0.0169801
0.0080772
0.0015419
0.000215608
0.000157733
0.000225292
0.000954771
0.00683796
0.0150196
0.0121974
2.28747e-05
3.42534e-06
0.000107147
0.0138185
0.0275526
0.0313011
0.0299722
0.0264728
0.0232897
0.0200246
0.0171997
0.0135389
0.0107458
0.00827359
0.0078261
0.00903975
0.0117739
0.0158371
0.0206435
0.0247456
0.0274513
0.029295
0.0327301
0.0340591
0.0159329
0.0024297
0.00355075
0.0059487
0.00225532
2.73297e-05
2.78554e-06
0.000642732
0.000548188
0.00295876
0.00643763
0.0056057
0.00210351
0.000862119
0.000733539
0.00105332
0.00184947
0.00266894
0.0031804
0.0026527
0.00123875
0.000106979
0.000492524
0.000831056
0.0010352
0.001515
0.00212611
0.00229247
0.00155895
0.000734817
0.000291478
0.000154981
0.00016408