/*--------------------------------*- C++ -*----------------------------------*\
| =========                 |                                                 |
| \\      /  F ield         | OpenFOAM: The Open Source CFD Toolbox           |
|  \\    /   O peration     | Version:  2.1.1                                 |
|   \\  /    A nd           | Web:      www.OpenFOAM.org                      |
|    \\/     M anipulation  |                                                 |
\*---------------------------------------------------------------------------*/
FoamFile
{
    version     2.0;
    format      ascii;
    class       volScalarField;
    location    "0.004550000";
    object      HO2;
}
// * * * * * * * * * * * * * * * * * * * * * * * * * * * * * * * * * * * * * //

dimensions      [0 0 0 0 0 0 0];

internalField   nonuniform List<scalar> 
12384
(
2.96858e-06
2.74975e-06
2.81448e-06
2.92168e-06
2.94155e-06
2.91243e-06
2.85922e-06
2.93338e-06
3.19601e-06
3.6334e-06
4.38105e-06
7.48652e-06
1.89074e-05
1.00469e-05
8.6158e-06
9.42409e-06
9.07257e-06
8.34717e-06
8.40496e-06
8.25476e-06
8.4441e-06
8.53006e-06
8.68894e-06
8.76517e-06
8.56533e-06
8.71562e-06
8.46769e-06
8.13759e-06
8.30712e-06
7.83627e-06
7.97907e-06
7.52945e-06
7.65364e-06
7.28113e-06
7.44274e-06
7.23381e-06
7.4747e-06
7.69943e-06
9.30484e-06
9.7186e-06
6.47921e-06
6.50217e-06
7.09663e-06
6.9598e-06
1.62327e-06
8.06684e-07
7.62692e-07
7.45518e-07
8.63335e-07
1.1676e-06
1.33652e-06
1.72084e-06
1.9283e-06
2.29822e-06
3.21221e-06
3.81064e-06
4.172e-06
4.26966e-06
4.16443e-06
4.01694e-06
3.86693e-06
3.81625e-06
3.86979e-06
3.98217e-06
4.24892e-06
4.74789e-06
4.71139e-06
5.24441e-06
5.32212e-06
5.25951e-06
4.54102e-06
5.68231e-06
8.704e-06
8.92718e-06
1.26734e-06
6.63002e-07
4.98833e-07
1.02206e-06
1.4285e-06
1.74246e-06
2.0058e-06
2.2192e-06
2.40825e-06
2.5262e-06
2.61234e-06
2.58492e-06
2.58989e-06
2.38239e-06
2.54578e-06
1.89549e-06
2.26247e-06
1.63545e-06
1.81285e-06
1.78944e-06
1.87864e-06
1.95881e-06
1.99899e-06
1.99604e-06
1.66279e-06
2.0866e-06
4.83575e-06
4.76436e-06
4.66505e-06
4.46019e-06
2.94867e-06
1.30638e-06
5.2863e-07
2.05241e-07
1.82871e-07
1.78642e-07
1.86565e-07
1.99196e-07
2.16513e-07
4.26496e-07
5.87664e-07
7.53484e-07
8.90501e-07
9.5345e-07
1.18826e-06
9.75645e-07
1.24534e-06
1.11292e-06
1.17839e-06
7.93524e-07
1.0744e-06
7.4528e-07
4.10103e-07
9.41804e-07
4.08318e-06
7.50058e-06
9.2343e-06
9.0442e-06
8.31011e-06
7.96753e-06
3.15351e-06
1.37418e-07
1.03543e-07
2.03621e-07
7.56508e-07
8.30342e-07
6.66435e-07
4.10876e-07
1.97335e-07
1.65959e-07
1.39217e-07
1.1935e-07
1.00792e-07
8.82792e-08
6.29578e-08
5.93308e-08
6.02865e-08
6.98877e-08
5.02053e-08
6.2394e-08
7.03919e-08
8.63272e-08
7.6805e-08
1.19882e-07
1.64796e-07
2.12243e-07
3.90909e-07
1.27626e-06
2.4204e-06
5.59875e-06
4.00479e-06
2.20013e-06
1.93669e-07
8.96601e-08
1.39993e-07
5.06953e-07
1.8025e-06
1.92567e-06
2.03984e-06
1.43974e-06
1.83245e-06
1.74008e-06
1.5625e-06
2.47919e-06
2.48001e-06
2.88345e-06
3.03157e-06
3.16028e-06
3.30993e-06
3.43625e-06
3.84008e-06
3.87291e-06
3.93584e-06
3.86076e-06
3.96102e-06
3.92928e-06
4.0386e-06
3.99568e-06
1.96144e-06
4.1647e-06
7.43443e-06
7.57664e-06
2.13526e-07
7.12992e-08
9.43058e-08
1.14289e-07
1.23112e-07
1.77971e-07
2.51774e-07
2.61119e-07
3.18649e-07
3.55993e-07
3.50824e-07
3.62419e-07
3.25463e-07
3.14855e-07
2.35298e-07
2.16601e-07
1.58192e-07
1.47667e-07
8.69854e-08
1.0647e-07
9.19963e-08
1.00727e-07
1.00456e-07
1.08505e-07
1.23667e-07
2.28432e-07
4.5724e-07
4.1079e-07
6.39847e-06
8.1885e-06
9.59763e-09
6.10311e-09
1.10258e-08
1.36313e-08
1.73427e-08
1.98716e-08
2.24962e-08
2.31294e-08
2.29342e-08
1.9179e-08
1.82492e-08
1.14097e-08
8.93462e-09
1.01994e-08
7.39818e-09
7.4798e-09
5.95068e-09
6.203e-09
5.3802e-09
4.93732e-09
4.61905e-09
5.10757e-09
3.56153e-09
3.2353e-09
2.50472e-09
2.59406e-09
2.29409e-09
1.0929e-08
1.11938e-05
5.46973e-06
3.73685e-06
4.07673e-06
3.60141e-06
2.45623e-06
7.80478e-07
2.34233e-07
1.004e-07
4.58499e-08
3.03785e-08
2.32338e-08
1.96967e-08
1.09248e-08
1.56327e-08
2.36559e-08
2.10096e-08
3.24376e-08
2.22868e-08
3.29629e-08
2.41711e-08
3.2443e-08
3.97588e-08
5.16261e-08
5.8489e-08
7.07596e-08
1.21053e-07
2.17102e-07
2.53273e-07
2.28392e-07
1.42028e-06
2.04865e-08
2.04092e-08
1.66755e-08
1.13297e-08
8.7716e-09
1.02426e-08
1.64828e-08
2.40708e-08
3.51526e-08
4.07224e-08
4.31566e-08
4.32271e-08
4.61581e-08
3.7525e-08
4.50732e-08
6.39313e-08
4.59821e-08
5.87682e-08
5.42813e-08
6.53059e-08
7.54998e-08
8.7071e-08
9.48685e-08
9.02939e-08
2.34991e-08
8.07175e-09
1.96746e-08
4.25187e-08
6.36934e-08
5.03018e-06
1.64299e-07
2.52049e-09
1.90388e-09
3.11489e-09
4.22953e-09
9.40906e-09
9.8248e-09
1.61257e-08
1.80367e-08
1.96217e-08
1.96687e-08
1.97447e-08
1.81056e-08
1.76651e-08
1.75893e-08
1.75593e-08
1.70409e-08
1.87006e-08
1.84566e-08
1.88549e-08
2.00481e-08
2.19806e-08
2.74764e-08
2.7083e-08
3.18374e-08
1.26803e-08
2.37355e-07
3.88374e-06
3.81975e-06
2.0735e-06
2.85057e-06
3.48865e-06
5.8292e-06
7.89641e-07
4.8934e-09
1.60945e-09
1.05363e-09
5.21458e-10
5.58177e-10
4.29926e-10
4.55539e-10
3.85342e-10
3.78444e-10
3.41809e-10
3.72916e-10
4.5333e-10
4.82435e-10
7.44477e-10
1.01642e-09
1.37152e-09
3.60614e-09
1.19794e-08
2.44284e-08
1.15741e-07
2.51508e-06
6.70038e-06
3.99705e-06
2.9023e-06
3.55421e-06
3.28406e-06
4.35881e-06
6.78618e-06
7.64752e-06
8.53174e-06
7.28779e-06
5.81081e-06
3.66566e-06
2.82403e-06
3.10827e-06
3.73235e-06
6.07851e-06
1.32465e-05
1.28988e-05
8.51485e-06
8.74012e-06
7.6886e-06
7.20008e-06
7.73424e-06
7.84229e-06
8.60077e-06
8.90287e-06
9.15999e-06
9.22433e-06
9.23652e-06
9.06189e-06
9.2287e-06
8.73818e-06
8.82373e-06
8.49342e-06
8.5569e-06
8.34928e-06
8.3044e-06
8.25254e-06
8.04772e-06
7.95125e-06
7.70287e-06
7.84629e-06
8.57172e-06
9.94576e-06
8.83789e-06
7.67694e-06
7.11218e-06
7.12165e-06
1.62628e-06
7.52034e-07
8.57082e-07
1.06573e-06
1.40512e-06
2.68647e-06
3.63179e-06
5.02189e-06
5.67675e-06
6.28634e-06
6.00339e-06
4.60609e-06
2.41915e-06
1.72595e-06
1.36424e-06
1.23642e-06
1.38886e-06
1.57654e-06
1.73608e-06
1.95007e-06
2.15619e-06
2.54442e-06
3.73171e-06
4.79967e-06
5.41188e-06
5.57619e-06
4.75487e-06
4.82348e-06
5.24386e-06
9.13698e-06
1.12164e-06
4.41083e-07
9.59262e-07
2.00781e-06
2.3332e-06
2.54354e-06
2.71721e-06
2.95071e-06
3.8819e-06
4.29576e-06
4.46676e-06
4.53742e-06
4.41507e-06
4.32691e-06
3.94143e-06
4.02647e-06
3.53421e-06
3.67719e-06
3.79927e-06
3.51023e-06
3.44872e-06
3.24524e-06
2.80643e-06
2.14589e-06
1.80601e-06
1.7602e-06
3.08593e-06
4.17843e-06
3.6902e-06
3.55817e-06
3.28308e-06
1.97596e-06
6.59614e-07
1.8065e-07
1.52155e-07
1.63703e-07
2.01304e-07
5.77724e-07
1.06591e-06
1.55032e-06
2.98818e-06
4.14933e-06
4.9052e-06
5.83919e-06
6.1651e-06
6.68731e-06
6.87507e-06
7.03583e-06
7.00422e-06
6.67745e-06
5.97374e-06
3.67221e-06
1.48398e-06
7.82576e-07
1.72202e-06
4.87782e-06
7.51118e-06
8.12598e-06
7.58276e-06
7.39314e-06
2.17109e-06
1.39665e-07
1.98346e-07
8.58414e-07
6.82516e-07
1.81805e-07
1.20753e-07
7.55685e-08
5.05239e-08
4.36812e-08
4.58621e-08
5.12193e-08
5.94433e-08
6.48905e-08
7.26045e-08
8.05174e-08
7.93625e-08
8.3985e-08
7.92615e-08
8.41941e-08
9.01825e-08
7.84374e-08
9.7575e-08
1.07246e-07
1.08705e-07
1.13495e-07
2.36291e-07
4.27071e-07
1.50966e-06
2.51423e-06
2.94254e-06
5.92084e-07
1.38075e-07
1.61634e-07
1.28264e-06
2.31959e-06
1.83631e-06
4.66526e-07
3.99939e-07
1.11901e-06
1.29735e-06
4.37824e-06
4.80244e-06
5.03491e-06
4.86279e-06
4.10128e-06
3.53477e-06
3.17477e-06
3.16805e-06
3.30957e-06
3.82972e-06
4.22736e-06
4.47002e-06
4.59626e-06
4.56358e-06
4.44668e-06
4.43939e-06
4.41753e-06
2.7777e-06
3.44354e-06
7.61483e-06
1.58683e-06
9.42268e-08
8.11237e-08
9.14672e-08
1.05602e-07
9.83204e-08
1.57677e-07
2.44289e-07
3.40687e-07
4.56286e-07
5.26166e-07
5.46438e-07
5.63106e-07
5.53223e-07
5.2213e-07
4.90938e-07
4.46149e-07
3.88201e-07
3.65974e-07
3.12059e-07
2.99396e-07
2.65897e-07
2.37065e-07
1.92017e-07
1.72584e-07
1.90095e-07
2.60354e-07
4.67085e-07
4.95638e-07
8.53003e-06
1.04649e-07
1.02696e-08
1.40562e-08
3.09113e-08
4.03699e-08
4.43593e-08
3.65538e-08
3.0489e-08
2.21808e-08
2.90491e-08
2.55609e-08
2.37932e-08
2.30549e-08
2.22474e-08
2.05977e-08
1.73479e-08
1.61016e-08
1.36166e-08
1.10524e-08
1.073e-08
9.8781e-09
8.33054e-09
7.74291e-09
6.53772e-09
6.76902e-09
6.33434e-09
5.15138e-09
2.759e-09
5.83013e-09
8.84478e-06
4.58681e-06
5.66377e-06
5.77689e-06
3.11005e-06
5.1903e-07
8.06766e-08
2.682e-08
1.74731e-08
1.31825e-08
1.32374e-08
1.68489e-08
1.52562e-08
2.54131e-08
3.30121e-08
3.89635e-08
4.08298e-08
4.95549e-08
4.36685e-08
4.73792e-08
3.61589e-08
7.71358e-08
9.80394e-08
7.9304e-08
1.0432e-07
9.3517e-08
1.05108e-07
1.62155e-07
2.37238e-07
2.37061e-07
2.69242e-07
3.07833e-08
2.73324e-08
1.87839e-08
1.13847e-08
9.23292e-09
1.47966e-08
2.22567e-08
2.23185e-08
2.45874e-08
3.05642e-08
4.03718e-08
5.92585e-08
7.99569e-08
8.94126e-08
1.51506e-07
1.92262e-07
2.182e-07
2.14532e-07
3.8577e-07
3.6217e-07
2.35729e-07
2.28204e-07
1.96241e-07
1.32164e-07
6.10336e-08
8.89287e-09
8.26431e-09
1.20437e-08
2.60832e-08
5.94504e-07
6.67791e-09
2.20274e-09
4.18263e-09
1.11149e-08
1.93394e-08
4.07633e-08
4.28745e-08
5.16045e-08
4.9312e-08
4.98658e-08
4.75198e-08
3.71674e-08
2.80654e-08
2.00393e-08
1.64265e-08
1.74275e-08
1.69082e-08
1.74512e-08
2.19321e-08
1.73442e-08
4.51294e-08
6.50745e-08
7.29719e-08
6.75724e-08
5.61315e-08
1.87452e-08
2.54849e-08
3.76925e-06
4.39381e-06
2.43279e-06
3.29159e-06
5.61769e-06
3.52524e-06
1.06256e-08
1.45276e-09
6.35111e-10
6.11093e-10
4.6848e-10
4.0863e-10
3.12433e-10
3.07271e-10
2.60036e-10
2.63702e-10
2.24276e-10
2.36865e-10
2.16171e-10
1.49238e-10
1.2363e-10
1.24688e-10
1.63617e-10
2.29295e-10
4.96072e-10
1.07746e-09
2.60799e-09
5.88362e-09
6.82947e-08
7.04133e-06
3.66195e-06
3.4826e-06
1.03641e-05
1.2327e-05
1.32987e-05
1.32835e-05
1.31713e-05
1.29165e-05
1.24868e-05
9.78794e-06
5.98685e-06
3.83916e-06
3.6338e-06
5.59053e-06
1.09082e-05
1.37643e-05
8.44628e-06
7.73253e-06
7.20203e-06
7.51294e-06
8.37458e-06
8.50502e-06
8.55724e-06
8.71336e-06
9.13509e-06
9.14546e-06
9.3395e-06
8.91496e-06
9.10948e-06
8.8358e-06
9.11992e-06
8.93761e-06
9.07234e-06
9.00699e-06
8.90571e-06
9.0666e-06
9.02031e-06
8.77638e-06
8.54334e-06
8.08102e-06
8.34444e-06
9.44716e-06
1.01273e-05
9.85754e-06
8.31461e-06
7.24913e-06
1.48931e-06
8.02397e-07
1.14947e-06
1.74096e-06
3.50706e-06
5.43155e-06
6.01585e-06
6.59856e-06
5.67891e-06
3.00827e-06
9.50677e-07
3.18733e-07
2.43453e-07
2.67838e-07
3.56259e-07
4.8283e-07
1.11262e-06
1.63315e-06
1.85384e-06
1.80208e-06
1.72349e-06
1.81432e-06
2.20588e-06
3.60344e-06
5.10809e-06
5.65154e-06
5.60346e-06
4.93493e-06
5.17483e-06
8.50761e-06
8.63598e-07
5.38892e-07
1.94035e-06
2.38763e-06
2.3862e-06
2.61338e-06
3.41865e-06
4.17628e-06
4.72339e-06
5.35198e-06
5.27924e-06
4.57216e-06
4.01379e-06
3.51429e-06
3.16957e-06
3.02868e-06
3.01797e-06
3.24677e-06
3.49405e-06
3.71817e-06
4.27729e-06
4.20521e-06
3.695e-06
3.19451e-06
2.0701e-06
1.70875e-06
1.8667e-06
3.28341e-06
3.40428e-06
3.03365e-06
4.20461e-06
2.2073e-06
2.16887e-07
1.17898e-07
1.07115e-07
1.45076e-07
2.11213e-07
8.97523e-07
1.83426e-06
3.50097e-06
5.07024e-06
6.24049e-06
6.57421e-06
7.18519e-06
7.18932e-06
7.54163e-06
7.05441e-06
7.79935e-06
7.55092e-06
8.29517e-06
7.6564e-06
6.65473e-06
3.47055e-06
1.10262e-06
9.29371e-07
2.19051e-06
5.26171e-06
7.01334e-06
6.44259e-06
6.64779e-06
1.28763e-06
1.82499e-07
7.09667e-07
4.89146e-07
1.40478e-07
7.85666e-08
4.93128e-08
4.2439e-08
4.15008e-08
5.09829e-08
6.17935e-08
8.34415e-08
9.62987e-08
1.07647e-07
1.08235e-07
1.09993e-07
1.15428e-07
1.15279e-07
1.17609e-07
1.44774e-07
1.34216e-07
1.34988e-07
1.45298e-07
1.2255e-07
9.63112e-08
9.96724e-08
1.15795e-07
2.66418e-07
7.20854e-07
1.87619e-06
2.24091e-06
3.18558e-07
1.41027e-07
4.93625e-07
2.11522e-06
5.4516e-07
1.65176e-07
1.46529e-07
3.68751e-07
2.34542e-06
5.07565e-06
6.1543e-06
6.19825e-06
5.81298e-06
5.21204e-06
2.75544e-06
1.33312e-06
1.00479e-06
9.66454e-07
1.05165e-06
1.33343e-06
2.3966e-06
3.54088e-06
4.46387e-06
4.82605e-06
4.91135e-06
4.88082e-06
4.91159e-06
3.86056e-06
3.25103e-06
6.01005e-06
1.97623e-07
7.66726e-08
6.81736e-08
5.97595e-08
5.10492e-08
4.30107e-08
7.05462e-08
1.30874e-07
2.12848e-07
4.05067e-07
5.47285e-07
6.48637e-07
6.71171e-07
6.73342e-07
6.85945e-07
6.81002e-07
6.60966e-07
5.52669e-07
4.98466e-07
4.32804e-07
4.03776e-07
3.93329e-07
3.80864e-07
3.55976e-07
3.14813e-07
2.98161e-07
3.57491e-07
8.00697e-07
5.77961e-07
9.75804e-07
2.17078e-08
1.39414e-08
3.07225e-08
3.23427e-08
3.82384e-08
3.0612e-08
2.52438e-08
2.77536e-08
2.65929e-08
2.97159e-08
3.72725e-08
5.89029e-08
9.17915e-08
1.0878e-07
1.13202e-07
9.61802e-08
8.64119e-08
6.21785e-08
4.05262e-08
2.83641e-08
2.54773e-08
2.28238e-08
1.79781e-08
1.88512e-08
3.05019e-08
3.07603e-08
1.63326e-08
5.16108e-09
5.84752e-09
6.68862e-06
6.53808e-06
8.12147e-06
4.76878e-06
3.8965e-07
4.06653e-08
1.52807e-08
1.37708e-08
1.09015e-08
1.54259e-08
2.20178e-08
4.81941e-08
1.42068e-07
2.08391e-07
6.63798e-07
5.76662e-07
2.14984e-07
1.81769e-07
1.24609e-07
1.03224e-07
1.29629e-07
1.70092e-07
2.97115e-07
6.17557e-07
3.71365e-07
2.53448e-07
1.28186e-07
1.36069e-07
2.01919e-07
2.48698e-07
1.95696e-07
5.1195e-08
3.99641e-08
2.42528e-08
1.13112e-08
1.13393e-08
1.54403e-08
1.30676e-08
1.26389e-08
1.61009e-08
3.62227e-08
8.58539e-08
2.41433e-07
8.37969e-07
1.41817e-06
1.51502e-06
2.23012e-06
2.66038e-06
2.69326e-06
2.92281e-06
2.71814e-06
2.31705e-06
1.3835e-06
1.02556e-06
4.62248e-07
1.52532e-07
2.97685e-08
1.20786e-08
7.01336e-09
1.31802e-08
1.22861e-08
3.64284e-09
5.0622e-09
1.69633e-08
4.45087e-08
4.39794e-08
1.30025e-07
1.89912e-07
8.6229e-07
1.16492e-06
1.30957e-06
1.08351e-06
4.78632e-07
1.04865e-07
4.58427e-08
2.22198e-08
1.54042e-08
1.2452e-08
1.36317e-08
2.35512e-08
5.06243e-08
1.51374e-07
6.34786e-07
1.14235e-06
7.31911e-07
1.90967e-07
4.42585e-08
9.17231e-09
5.52223e-08
5.69717e-06
2.71308e-06
4.10551e-06
7.6421e-06
3.29744e-08
2.10161e-09
8.01605e-10
5.30282e-10
5.68061e-10
5.66211e-10
5.85759e-10
6.37496e-10
6.90957e-10
6.85696e-10
6.93569e-10
6.47594e-10
4.92959e-10
3.7612e-10
3.28481e-10
2.92053e-10
2.11527e-10
2.16453e-10
3.05058e-10
8.73599e-10
3.31969e-09
1.1735e-08
1.21139e-08
1.15292e-08
2.31545e-07
5.43931e-06
3.47508e-06
1.25364e-05
1.35819e-05
1.37339e-05
1.33732e-05
1.31342e-05
1.31009e-05
1.28382e-05
1.24885e-05
9.5785e-06
6.10171e-06
4.79147e-06
5.84389e-06
1.0096e-05
1.39763e-05
8.17459e-06
7.38409e-06
7.40059e-06
7.66385e-06
7.24469e-06
7.25457e-06
7.91104e-06
8.58218e-06
8.86527e-06
8.96603e-06
9.14864e-06
9.31544e-06
9.92515e-06
1.04007e-05
1.05533e-05
1.06555e-05
1.01447e-05
1.00846e-05
9.75074e-06
9.70739e-06
9.56017e-06
9.62518e-06
9.22633e-06
8.78671e-06
8.47575e-06
9.02938e-06
1.02073e-05
1.05735e-05
9.6271e-06
7.63607e-06
1.40291e-06
9.10309e-07
1.28402e-06
2.53482e-06
4.34181e-06
5.32773e-06
4.70625e-06
2.78696e-06
9.78817e-07
2.51757e-07
1.0219e-07
1.14188e-07
1.1767e-07
1.6597e-07
3.23465e-07
1.08502e-06
2.20842e-06
3.27183e-06
3.2612e-06
2.3902e-06
2.11576e-06
1.81592e-06
1.87001e-06
2.53176e-06
4.50368e-06
6.04558e-06
5.88312e-06
5.131e-06
5.28472e-06
7.85563e-06
4.04882e-07
6.39291e-07
2.19835e-06
2.26381e-06
2.35352e-06
2.63313e-06
3.69281e-06
4.59265e-06
5.48185e-06
5.50062e-06
5.12419e-06
3.71347e-06
2.31936e-06
1.95107e-06
1.78657e-06
1.41677e-06
1.71398e-06
1.53997e-06
1.85737e-06
2.78766e-06
3.54803e-06
4.161e-06
4.29912e-06
3.85962e-06
3.01786e-06
1.81241e-06
1.65006e-06
2.25375e-06
2.99671e-06
2.75578e-06
4.65366e-06
1.26949e-06
1.2598e-07
5.45486e-08
8.37959e-08
1.43412e-07
4.24151e-07
1.22626e-06
2.68126e-06
4.43961e-06
5.38339e-06
5.62928e-06
5.35344e-06
4.36312e-06
3.66387e-06
2.97939e-06
3.00555e-06
2.94729e-06
3.47921e-06
5.00891e-06
6.73567e-06
6.49482e-06
4.37025e-06
1.39004e-06
5.90589e-07
1.24984e-06
3.59251e-06
5.46922e-06
5.42558e-06
6.05625e-06
1.05632e-06
3.7356e-07
6.31978e-07
1.44261e-07
7.89878e-08
4.7996e-08
3.96051e-08
4.15498e-08
5.11933e-08
7.71515e-08
9.00074e-08
9.79602e-08
1.02833e-07
9.65635e-08
9.66974e-08
9.96017e-08
1.04924e-07
1.04307e-07
1.27418e-07
1.32309e-07
1.43468e-07
1.71271e-07
1.74511e-07
1.47463e-07
1.11894e-07
8.93622e-08
9.33866e-08
1.35228e-07
3.94619e-07
1.4119e-06
1.39236e-06
1.47763e-07
2.336e-07
1.66529e-06
9.89711e-07
1.40594e-07
7.42954e-08
1.41691e-07
3.89569e-07
2.47886e-06
5.57294e-06
6.18183e-06
6.21307e-06
6.0415e-06
5.39952e-06
2.43647e-06
1.06668e-06
7.82845e-07
7.61948e-07
9.79137e-07
1.33389e-06
2.34654e-06
3.52108e-06
4.49591e-06
4.97098e-06
5.2776e-06
5.33664e-06
5.45209e-06
4.58545e-06
3.30116e-06
2.197e-06
1.02827e-07
5.98933e-08
4.00132e-08
2.53692e-08
2.19825e-08
2.39299e-08
3.54794e-08
6.39439e-08
1.40695e-07
3.67886e-07
5.9072e-07
1.20405e-06
1.49322e-06
1.87535e-06
2.04406e-06
1.79471e-06
1.17051e-06
6.22908e-07
2.89008e-07
2.4303e-07
2.15742e-07
2.58596e-07
2.97598e-07
3.72814e-07
4.0698e-07
4.19976e-07
4.87187e-07
1.47795e-06
1.14244e-06
8.71305e-08
1.51959e-08
1.72399e-08
2.56931e-08
2.13807e-08
1.93114e-08
2.17906e-08
2.52318e-08
3.26936e-08
4.71578e-08
9.05668e-08
1.38726e-07
3.39581e-07
5.32894e-07
9.2538e-07
1.3947e-06
1.51708e-06
1.56865e-06
1.22838e-06
7.13194e-07
2.55425e-07
1.05675e-07
8.28411e-08
7.67314e-08
1.16126e-07
3.50733e-07
4.6137e-07
1.05215e-07
8.81379e-09
6.72067e-09
7.00112e-06
8.79753e-06
8.04855e-06
1.22293e-06
4.52024e-08
1.60672e-08
1.30992e-08
8.73867e-09
1.22103e-08
3.57662e-08
2.10908e-07
1.49816e-06
4.79769e-06
5.68597e-06
5.71668e-06
5.66718e-06
5.23477e-06
3.82903e-06
1.30924e-06
3.99366e-07
1.88169e-07
1.8825e-07
6.7283e-07
1.55646e-06
2.68243e-06
1.79146e-06
3.49637e-07
1.40037e-07
1.68552e-07
2.33039e-07
1.6758e-07
1.20688e-07
1.21534e-07
2.48508e-08
1.11587e-08
1.13621e-08
5.61189e-09
4.64059e-09
1.17456e-08
3.79015e-08
1.81456e-07
1.3699e-06
3.47275e-06
4.7351e-06
4.73719e-06
4.62173e-06
4.59128e-06
4.38772e-06
4.56869e-06
4.60682e-06
4.92342e-06
4.91327e-06
4.42742e-06
3.15078e-06
1.54103e-06
7.64853e-07
8.20917e-08
2.33772e-08
8.81073e-09
1.04259e-08
6.09096e-09
4.54353e-09
1.70671e-08
4.6412e-08
1.07032e-07
1.86094e-07
1.01566e-06
2.60167e-06
4.64562e-06
5.74879e-06
5.98909e-06
5.9051e-06
4.97941e-06
2.3411e-06
3.38423e-07
5.65765e-08
1.94527e-08
1.05378e-08
1.01154e-08
1.93729e-08
7.06657e-08
8.44877e-07
4.61632e-06
6.42846e-06
5.18177e-06
1.404e-06
6.584e-08
1.4519e-08
2.28102e-08
6.8643e-06
2.91653e-06
5.25042e-06
1.44121e-06
5.70843e-09
7.82815e-10
5.87498e-10
6.71127e-10
7.7285e-10
8.95765e-10
1.05307e-09
1.49217e-09
1.55725e-09
1.65045e-09
1.70042e-09
1.53069e-09
1.24036e-09
8.65723e-10
7.1684e-10
4.5369e-10
3.65664e-10
3.2575e-10
4.26036e-10
2.70395e-09
1.88999e-08
6.95033e-08
3.01012e-08
1.67754e-08
4.07033e-08
7.26849e-06
3.55891e-06
1.34516e-05
1.40321e-05
1.35357e-05
1.21202e-05
1.14097e-05
1.22073e-05
1.27422e-05
1.24948e-05
1.11865e-05
7.62634e-06
6.56226e-06
6.46359e-06
1.02427e-05
1.37004e-05
7.9166e-06
7.36382e-06
7.02893e-06
6.35086e-06
6.23198e-06
6.77638e-06
7.57441e-06
8.186e-06
8.73093e-06
8.925e-06
9.51009e-06
1.02768e-05
1.155e-05
1.18715e-05
1.10185e-05
1.06104e-05
9.97899e-06
9.77369e-06
9.5155e-06
9.28899e-06
9.36108e-06
9.55936e-06
9.63878e-06
9.38327e-06
8.84217e-06
9.03042e-06
9.89879e-06
1.07062e-05
1.02587e-05
7.99966e-06
1.34084e-06
1.03119e-06
1.35527e-06
2.04022e-06
2.83539e-06
2.42292e-06
1.19984e-06
3.12385e-07
1.60379e-07
9.87219e-08
8.60617e-08
8.59678e-08
1.02165e-07
1.51829e-07
3.95199e-07
2.05095e-06
4.27397e-06
4.90468e-06
3.97322e-06
2.89145e-06
2.03372e-06
1.85505e-06
1.73641e-06
2.37002e-06
4.06274e-06
6.01747e-06
6.01491e-06
6.09471e-06
5.65395e-06
7.37196e-06
3.32622e-07
1.14498e-06
2.1837e-06
2.12691e-06
2.04697e-06
2.07983e-06
2.5489e-06
4.34932e-06
5.57371e-06
5.62581e-06
4.91286e-06
3.06601e-06
1.97343e-06
1.45427e-06
1.31862e-06
1.23158e-06
1.51209e-06
1.281e-06
1.71162e-06
1.89177e-06
2.83723e-06
3.3318e-06
4.18992e-06
4.32985e-06
3.58217e-06
2.27706e-06
1.56129e-06
1.59568e-06
2.46542e-06
2.45356e-06
3.79963e-06
2.05032e-07
5.42836e-08
5.05126e-08
7.4058e-08
1.55227e-07
7.15652e-07
1.81539e-06
3.4581e-06
4.5446e-06
4.12793e-06
3.385e-06
2.40363e-06
2.03172e-06
1.70668e-06
1.54105e-06
1.64472e-06
1.65439e-06
1.90678e-06
2.72123e-06
3.58511e-06
5.04722e-06
3.91996e-06
1.33955e-06
2.84629e-07
7.65155e-07
2.13876e-06
4.76386e-06
4.61041e-06
5.20232e-06
9.40265e-07
4.94087e-07
2.01873e-07
9.56161e-08
5.09888e-08
3.89274e-08
3.46681e-08
5.22889e-08
6.29997e-08
7.51639e-08
7.86449e-08
7.56139e-08
7.15119e-08
8.02626e-08
8.80554e-08
8.80333e-08
1.01505e-07
9.72241e-08
1.18101e-07
1.07922e-07
1.46045e-07
1.52551e-07
1.77547e-07
1.62203e-07
1.26024e-07
7.23397e-08
7.38637e-08
1.00026e-07
2.68872e-07
1.05987e-06
5.29814e-07
1.34858e-07
4.06581e-07
1.58458e-06
1.7818e-07
5.86358e-08
5.66663e-08
7.09484e-08
1.33488e-07
5.30306e-07
3.51106e-06
6.14061e-06
6.09739e-06
5.98468e-06
6.04251e-06
4.12226e-06
2.06513e-06
1.4754e-06
2.44026e-06
3.83792e-06
4.60238e-06
5.2373e-06
5.43357e-06
5.54907e-06
5.61513e-06
5.67138e-06
5.7494e-06
5.80562e-06
5.36338e-06
3.84811e-06
9.64155e-07
8.17386e-08
4.1933e-08
2.08582e-08
1.36745e-08
1.11598e-08
1.0547e-08
2.01176e-08
3.82794e-08
9.97622e-08
2.9767e-07
1.01552e-06
2.09176e-06
2.59189e-06
2.59326e-06
2.02063e-06
8.70057e-07
1.58064e-07
5.43139e-08
2.95091e-08
1.66314e-08
1.77786e-08
1.9384e-08
4.29349e-08
1.28861e-07
2.95542e-07
4.62863e-07
1.03233e-06
2.19831e-06
1.77608e-06
4.12798e-08
1.48673e-08
1.58758e-08
1.1711e-08
9.45712e-09
7.51765e-09
2.05463e-08
3.32977e-08
6.81257e-08
1.10568e-07
2.09772e-07
4.74167e-07
6.91088e-07
1.35143e-06
1.72224e-06
2.04087e-06
2.2764e-06
2.23911e-06
2.73717e-06
2.44932e-06
2.21122e-06
1.06111e-06
3.99946e-07
3.60782e-07
1.54088e-06
6.08648e-06
7.88943e-06
1.81043e-06
2.27348e-08
7.98876e-09
8.39616e-06
9.43692e-06
4.87556e-06
1.249e-07
1.97419e-08
9.68242e-09
9.42509e-09
1.24564e-08
3.55964e-08
2.7483e-07
3.61217e-06
6.22528e-06
6.03068e-06
6.10383e-06
5.90753e-06
5.95313e-06
5.818e-06
5.50416e-06
4.27292e-06
1.427e-06
4.39274e-07
2.25969e-07
4.88069e-07
1.70847e-06
5.08457e-06
5.65246e-06
1.91126e-06
2.8744e-07
1.54548e-07
2.2775e-07
2.00878e-07
2.11118e-07
1.22178e-07
1.89253e-08
9.58786e-09
5.48648e-09
3.3713e-09
5.79917e-09
2.78518e-08
2.23131e-07
1.95531e-06
5.19587e-06
5.20226e-06
4.39567e-06
3.11992e-06
2.5481e-06
2.91007e-06
2.98211e-06
4.18961e-06
4.65834e-06
5.32988e-06
5.46251e-06
5.51754e-06
5.12269e-06
4.22442e-06
1.72488e-06
2.95339e-07
5.05233e-08
1.06379e-08
9.89134e-09
4.27628e-09
8.16482e-09
4.34307e-08
7.62738e-08
1.6356e-07
4.71771e-07
1.16053e-06
2.51366e-06
4.25591e-06
5.68789e-06
6.19545e-06
6.36762e-06
6.37925e-06
5.60173e-06
2.62303e-06
1.99632e-07
1.74403e-08
8.34982e-09
5.44538e-09
1.49127e-08
7.82963e-08
2.62793e-06
7.3439e-06
7.70367e-06
7.61805e-06
3.99145e-06
2.1679e-07
1.54803e-08
1.42338e-08
7.21631e-06
3.14693e-06
6.91995e-06
6.78322e-08
2.11086e-09
8.09256e-10
7.39311e-10
8.51726e-10
9.86584e-10
1.86483e-09
1.93762e-09
3.27692e-09
4.38209e-09
3.9167e-09
3.42171e-09
4.76528e-09
3.14907e-09
2.19721e-09
1.35985e-09
9.97667e-10
5.0428e-10
3.78298e-10
3.47677e-10
3.10595e-09
8.09545e-08
2.67016e-07
1.12663e-07
3.11169e-08
4.76281e-08
7.30958e-06
3.27862e-06
1.41062e-05
1.40438e-05
1.24738e-05
8.34615e-06
7.8686e-06
1.07847e-05
1.28136e-05
1.27315e-05
1.13835e-05
8.55143e-06
7.97508e-06
8.39737e-06
1.03305e-05
1.31358e-05
7.82341e-06
7.02596e-06
5.86923e-06
5.50389e-06
5.57262e-06
5.69101e-06
5.79289e-06
6.71353e-06
8.16846e-06
8.98345e-06
9.47854e-06
1.10536e-05
1.1845e-05
1.18697e-05
1.11081e-05
1.09727e-05
1.10455e-05
1.10193e-05
1.01865e-05
9.40054e-06
8.86474e-06
8.7631e-06
9.19187e-06
9.48634e-06
9.21369e-06
9.14163e-06
9.86338e-06
1.05961e-05
1.03939e-05
8.19893e-06
1.28026e-06
1.09119e-06
1.10599e-06
1.0847e-06
1.10275e-06
6.1442e-07
2.47164e-07
1.37105e-07
8.37295e-08
7.46104e-08
7.48318e-08
8.65735e-08
1.0864e-07
1.95699e-07
5.09019e-07
4.01789e-06
5.82488e-06
5.39309e-06
4.08078e-06
2.57799e-06
1.80012e-06
1.72533e-06
1.73369e-06
2.43904e-06
4.1611e-06
5.98906e-06
6.71918e-06
6.47573e-06
6.87621e-06
7.35851e-06
2.64648e-07
1.41043e-06
2.0717e-06
1.60134e-06
6.94012e-07
5.89761e-07
1.32529e-06
3.17855e-06
5.43506e-06
5.58619e-06
4.89016e-06
3.04839e-06
1.6283e-06
1.17101e-06
1.29212e-06
1.2646e-06
1.67481e-06
1.77899e-06
2.07816e-06
2.22894e-06
2.76091e-06
3.33274e-06
4.25283e-06
4.51297e-06
4.08918e-06
2.60724e-06
1.51496e-06
1.38434e-06
1.61197e-06
2.18776e-06
8.06289e-07
1.03341e-07
5.07582e-08
4.82151e-08
6.60153e-08
1.69572e-07
1.02843e-06
2.6219e-06
3.78258e-06
3.66863e-06
2.62167e-06
1.9593e-06
1.56863e-06
1.43193e-06
1.42901e-06
1.55818e-06
1.62586e-06
1.68592e-06
1.56074e-06
1.95477e-06
2.95423e-06
3.66937e-06
3.05335e-06
1.11822e-06
2.39912e-07
4.18005e-07
1.74796e-06
4.18285e-06
3.47429e-06
3.9413e-06
8.86498e-07
3.97808e-07
1.81623e-07
5.67185e-08
4.0167e-08
3.56422e-08
3.82766e-08
4.75477e-08
5.96353e-08
5.56921e-08
5.29673e-08
5.13693e-08
6.3935e-08
6.91629e-08
8.19776e-08
8.34045e-08
8.95108e-08
9.5336e-08
1.04626e-07
1.12687e-07
1.26699e-07
1.55302e-07
1.71415e-07
1.58114e-07
1.21918e-07
6.06647e-08
5.73136e-08
8.58633e-08
2.0325e-07
7.95519e-07
3.96756e-07
1.83222e-07
9.64395e-07
9.20509e-07
9.81065e-08
3.87172e-08
2.52665e-08
3.90759e-08
4.94901e-08
9.52613e-08
8.12785e-07
5.25153e-06
6.10725e-06
5.85135e-06
6.07579e-06
5.30082e-06
3.48958e-06
3.39598e-06
4.72074e-06
5.46098e-06
5.75609e-06
5.9136e-06
5.92442e-06
5.93529e-06
5.94292e-06
5.95688e-06
5.95073e-06
5.9617e-06
5.73461e-06
3.95234e-06
4.51405e-07
6.02298e-08
2.52592e-08
1.30289e-08
8.24488e-09
6.44119e-09
8.71995e-09
1.24373e-08
2.43572e-08
4.82582e-08
2.82202e-07
1.52803e-06
2.5861e-06
2.58735e-06
1.88808e-06
2.71444e-07
5.89414e-08
2.07449e-08
1.30467e-08
6.30865e-09
5.45647e-09
3.86529e-09
3.76396e-09
5.11176e-09
1.47881e-08
7.93956e-08
3.66395e-07
1.50025e-06
3.646e-06
2.31885e-06
3.34467e-08
1.29434e-08
1.07116e-08
4.24089e-09
5.46659e-09
1.01188e-08
2.41226e-08
6.04466e-08
1.06078e-07
2.42562e-07
4.11309e-07
6.88469e-07
1.05041e-06
1.32186e-06
1.39465e-06
1.40363e-06
1.68436e-06
1.82932e-06
2.40584e-06
3.03054e-06
3.7945e-06
2.53013e-06
2.03165e-06
2.03728e-06
5.81042e-06
9.08706e-06
9.39756e-06
6.48528e-06
3.95859e-08
1.19371e-08
8.99833e-06
8.80675e-06
1.24363e-06
3.1021e-08
1.0999e-08
9.29499e-09
1.05905e-08
2.69299e-08
1.54718e-07
1.71627e-06
5.48037e-06
6.60347e-06
6.02927e-06
5.82034e-06
4.78788e-06
4.18666e-06
3.97042e-06
3.89021e-06
3.11721e-06
1.42428e-06
4.69445e-07
2.47909e-07
3.45389e-07
1.57555e-06
5.88143e-06
7.23589e-06
4.35969e-06
3.50396e-07
1.5143e-07
1.84881e-07
2.49408e-07
3.87897e-07
8.57381e-08
1.33982e-08
6.10272e-09
2.05372e-09
3.85665e-09
1.89723e-08
1.1827e-07
1.88178e-06
5.07595e-06
5.15913e-06
3.47704e-06
1.35266e-06
1.38462e-06
1.98899e-06
4.32648e-06
5.33404e-06
5.74167e-06
5.71561e-06
5.7084e-06
5.83102e-06
5.80015e-06
5.78029e-06
5.60539e-06
3.89147e-06
1.27014e-06
8.45437e-08
1.2463e-08
1.00491e-08
5.77927e-09
1.58213e-08
5.91571e-08
1.03936e-07
1.3343e-07
1.76336e-07
1.75931e-07
1.95788e-07
2.30437e-07
9.34482e-07
2.84657e-06
5.54455e-06
6.34042e-06
5.58775e-06
3.93873e-06
1.40237e-06
6.36178e-08
7.88329e-09
4.18696e-09
1.01974e-08
7.37634e-08
4.07759e-06
7.48442e-06
7.73409e-06
7.70851e-06
5.16677e-06
2.17557e-07
1.37724e-08
8.80066e-09
7.01069e-06
3.26195e-06
7.75035e-06
2.12225e-08
1.25253e-09
7.15868e-10
7.24673e-10
9.50203e-10
2.21038e-09
3.6025e-09
5.97025e-09
9.77365e-09
1.50274e-08
2.46054e-08
2.81781e-08
2.18674e-08
1.27994e-08
5.51763e-09
2.73034e-09
1.66022e-09
1.01378e-09
6.89497e-10
3.9303e-10
9.17756e-10
5.01337e-08
7.64125e-07
1.26973e-07
4.78239e-08
7.91715e-08
7.50883e-06
3.32174e-06
1.42754e-05
1.42779e-05
9.94187e-06
5.25434e-06
5.3443e-06
1.03602e-05
1.31018e-05
1.29452e-05
1.19001e-05
1.01556e-05
9.49591e-06
9.44493e-06
1.0416e-05
1.28252e-05
7.7648e-06
6.04808e-06
4.72094e-06
4.35144e-06
4.01119e-06
3.33394e-06
2.88275e-06
4.53073e-06
7.15802e-06
8.68666e-06
9.48409e-06
1.06367e-05
1.18422e-05
1.20057e-05
1.18926e-05
1.16132e-05
1.20397e-05
1.18097e-05
1.14812e-05
1.04692e-05
8.52423e-06
7.86283e-06
7.94286e-06
9.20557e-06
9.50525e-06
9.41889e-06
9.86032e-06
1.05164e-05
1.04312e-05
8.19887e-06
1.32928e-06
1.09125e-06
8.1886e-07
5.33932e-07
2.42929e-07
1.96396e-07
1.42255e-07
8.27688e-08
6.8682e-08
6.78806e-08
7.77898e-08
1.27923e-07
1.79804e-07
2.42111e-07
1.27004e-06
5.93345e-06
6.49072e-06
5.82557e-06
4.79105e-06
3.03895e-06
1.84326e-06
1.81533e-06
1.96584e-06
2.74038e-06
4.61165e-06
6.49018e-06
6.78586e-06
7.1452e-06
7.9436e-06
8.04213e-06
2.752e-07
1.41828e-06
1.66005e-06
6.34135e-07
2.56849e-07
1.70133e-07
2.90994e-07
1.39517e-06
4.16244e-06
5.50181e-06
5.08018e-06
3.09709e-06
1.57003e-06
1.13082e-06
1.22112e-06
1.68536e-06
2.28839e-06
3.33338e-06
3.88938e-06
3.55175e-06
3.68409e-06
3.66032e-06
4.40454e-06
4.59719e-06
4.31292e-06
3.05555e-06
1.54331e-06
1.24394e-06
1.4253e-06
1.98459e-06
1.23162e-07
8.56729e-08
5.05955e-08
4.6759e-08
5.23891e-08
1.76764e-07
1.26152e-06
3.04209e-06
3.67469e-06
3.0346e-06
2.03451e-06
1.51914e-06
1.36099e-06
1.52277e-06
1.73336e-06
2.11246e-06
2.12806e-06
2.20141e-06
1.98253e-06
1.96656e-06
2.47516e-06
2.88654e-06
2.11646e-06
9.03993e-07
2.09755e-07
3.37953e-07
1.64117e-06
4.01142e-06
3.13686e-06
3.4742e-06
8.04772e-07
2.25488e-07
1.21213e-07
5.82561e-08
3.38736e-08
2.82528e-08
3.96471e-08
4.00794e-08
3.92847e-08
3.57949e-08
4.27192e-08
3.5909e-08
4.55325e-08
7.68761e-08
9.10678e-08
9.43508e-08
9.96682e-08
1.18052e-07
1.15054e-07
1.17478e-07
1.30053e-07
1.51904e-07
1.61698e-07
1.50938e-07
9.63038e-08
5.16236e-08
3.94594e-08
7.65552e-08
1.74633e-07
7.28086e-07
2.95277e-07
2.57576e-07
1.165e-06
3.32345e-07
5.34261e-08
2.61249e-08
2.49298e-08
2.22628e-08
2.12014e-08
3.50314e-08
9.61762e-08
1.51362e-06
6.11635e-06
5.84759e-06
5.92496e-06
5.71243e-06
4.32228e-06
3.88264e-06
4.69883e-06
5.43385e-06
5.7097e-06
5.80025e-06
5.72322e-06
5.51548e-06
5.47396e-06
5.76408e-06
5.94984e-06
5.9846e-06
5.94299e-06
4.30136e-06
3.22681e-07
4.40358e-08
1.80406e-08
8.6905e-09
6.0237e-09
5.93488e-09
5.53574e-09
9.19657e-09
1.74711e-08
4.54877e-08
2.63573e-07