/*--------------------------------*- C++ -*----------------------------------*\
| =========                 |                                                 |
| \\      /  F ield         | OpenFOAM: The Open Source CFD Toolbox           |
|  \\    /   O peration     | Version:  2.1.1                                 |
|   \\  /    A nd           | Web:      www.OpenFOAM.org                      |
|    \\/     M anipulation  |                                                 |
\*---------------------------------------------------------------------------*/
FoamFile
{
    version     2.0;
    format      ascii;
    class       volScalarField;
    location    "0.004550000";
    object      N2;
}
// * * * * * * * * * * * * * * * * * * * * * * * * * * * * * * * * * * * * * //

dimensions      [0 0 0 0 0 0 0];

internalField   nonuniform List<scalar> 
12384
(
0.738127
0.738173
0.738543
0.738846
0.738956
0.738756
0.738469
0.73838
0.738643
0.739257
0.739834
0.741089
0.746768
0.748238
0.750089
0.749406
0.7493
0.749287
0.749302
0.749328
0.749328
0.74932
0.749257
0.749222
0.749174
0.749167
0.749139
0.74918
0.74917
0.749227
0.749215
0.749279
0.749282
0.749281
0.749261
0.749256
0.749242
0.749234
0.749012
0.750273
0.751909
0.750833
0.749024
0.747962
0.744549
0.74355
0.743418
0.743453
0.743591
0.743807
0.744014
0.744269
0.744475
0.744766
0.745046
0.745333
0.745472
0.745478
0.745383
0.745278
0.745191
0.745169
0.745203
0.745282
0.745434
0.745602
0.745609
0.745676
0.745554
0.744997
0.743996
0.745034
0.747028
0.748595
0.743768
0.742831
0.742537
0.74281
0.743111
0.743315
0.743492
0.743645
0.743815
0.743951
0.744101
0.744219
0.74434
0.744346
0.744525
0.744364
0.744506
0.74431
0.744324
0.744356
0.744266
0.744214
0.744209
0.744141
0.743793
0.744669
0.745925
0.74594
0.745886
0.74589
0.7455
0.744346
0.743014
0.742395
0.742075
0.742034
0.742143
0.742335
0.742577
0.742843
0.743118
0.743403
0.743637
0.743748
0.744148
0.743773
0.744248
0.743763
0.744055
0.743068
0.743462
0.742786
0.742344
0.742984
0.745105
0.746162
0.747073
0.746942
0.746561
0.746409
0.74559
0.741473
0.740995
0.74241
0.743408
0.743534
0.743254
0.742816
0.742321
0.741886
0.741508
0.741232
0.740969
0.740793
0.740673
0.740611
0.740554
0.740558
0.740574
0.74057
0.740512
0.740601
0.740595
0.740719
0.740838
0.74119
0.742139
0.743254
0.744469
0.745976
0.744796
0.743893
0.740313
0.738603
0.73966
0.742356
0.743737
0.744134
0.744278
0.743726
0.744234
0.744576
0.744462
0.74513
0.745109
0.745394
0.745468
0.745564
0.745649
0.745729
0.745822
0.74586
0.745909
0.745873
0.745943
0.745938
0.746022
0.746
0.744865
0.74612
0.750251
0.74862
0.741112
0.738823
0.739737
0.740192
0.740411
0.740691
0.740956
0.741091
0.741285
0.741357
0.741428
0.741431
0.741386
0.741312
0.741203
0.74106
0.740877
0.740744
0.740557
0.740347
0.740199
0.740079
0.740011
0.740046
0.740264
0.740995
0.742109
0.74159
0.752802
0.75022
0.733981
0.732811
0.734506
0.735518
0.73628
0.736719
0.736895
0.736869
0.736734
0.736511
0.736252
0.735927
0.735616
0.735384
0.735074
0.734796
0.734471
0.73418
0.733425
0.733275
0.732169
0.731918
0.731125
0.730768
0.730322
0.729955
0.729687
0.735333
0.748549
0.744836
0.743935
0.744319
0.744168
0.743451
0.742279
0.740722
0.73945
0.73862
0.738312
0.738045
0.738252
0.738099
0.737851
0.738486
0.73822
0.738962
0.738465
0.739082
0.73833
0.738753
0.738306
0.738431
0.737979
0.737855
0.738449
0.738903
0.738225
0.737957
0.744402
0.735981
0.73552
0.734958
0.734058
0.733663
0.733964
0.735209
0.736274
0.736888
0.737237
0.737511
0.737743
0.737982
0.738447
0.738722
0.739184
0.739192
0.73968
0.739825
0.740007
0.740141
0.740182
0.740059
0.739465
0.736382
0.734088
0.736644
0.738824
0.739531
0.750688
0.742148
0.731258
0.729807
0.731213
0.733299
0.735123
0.736238
0.736944
0.737305
0.73746
0.737473
0.737388
0.737321
0.737245
0.73717
0.737133
0.73715
0.737213
0.737269
0.737434
0.737602
0.737908
0.73806
0.738208
0.737935
0.735138
0.742598
0.753276
0.753347
0.75391
0.754269
0.754332
0.751449
0.743412
0.733614
0.728332
0.726092
0.724717
0.724159
0.7234
0.723127
0.722828
0.722494
0.722548
0.722437
0.722899
0.723722
0.725168
0.727297
0.730261
0.733156
0.735962
0.738056
0.741124
0.745043
0.74961
0.752996
0.754015
0.75336
0.740684
0.742217
0.743729
0.744499
0.744794
0.744268
0.743077
0.741116
0.739655
0.73935
0.739804
0.740717
0.744414
0.747962
0.750095
0.749321
0.749209
0.749238
0.749166
0.749111
0.748778
0.748586
0.748402
0.748374
0.748454
0.748551
0.748698
0.748766
0.748857
0.748891
0.748939
0.748969
0.749013
0.749037
0.749079
0.749101
0.749142
0.74918
0.749056
0.749512
0.750798
0.75125
0.751033
0.749453
0.744527
0.7434
0.74358
0.743885
0.744417
0.745023
0.745557
0.746047
0.746463
0.746701
0.746548
0.7458
0.744736
0.743855
0.743372
0.74324
0.743369
0.743567
0.743761
0.743941
0.744151
0.744535
0.745057
0.745555
0.745746
0.745442
0.744587
0.744027
0.74463
0.747608
0.743506
0.742228
0.742674
0.743493
0.743765
0.743991
0.744282
0.744652
0.744988
0.745272
0.745434
0.745551
0.745555
0.745643
0.745507
0.74569
0.745511
0.745759
0.745733
0.74556
0.745458
0.745241
0.744918
0.744584
0.744084
0.744123
0.745149
0.745763
0.745488
0.745471
0.745702
0.744909
0.743238
0.742044
0.741644
0.741819
0.742354
0.743101
0.743937
0.744766
0.745498
0.746117
0.746518
0.746852
0.746966
0.747151
0.747116
0.747107
0.747003
0.746668
0.746154
0.745134
0.743655
0.742881
0.743877
0.745415
0.74623
0.746415
0.746052
0.745919
0.744994
0.741521
0.742337
0.743583
0.743282
0.742098
0.741242
0.74061
0.740208
0.739855
0.739617
0.739493
0.739502
0.739597
0.739681
0.739742
0.739775
0.739801
0.739819
0.739579
0.739602
0.739455
0.739615
0.739769
0.740062
0.740434
0.741169
0.742314
0.743529
0.744636
0.744516
0.742434
0.739397
0.740106
0.743233
0.744416
0.74393
0.74244
0.742242
0.743458
0.744205
0.746088
0.746378
0.746652
0.746482
0.746016
0.745772
0.745573
0.745562
0.745652
0.745825
0.746116
0.746301
0.7464
0.746386
0.746313
0.746308
0.746311
0.745361
0.745755
0.748824
0.744082
0.739547
0.739362
0.740115
0.740305
0.740473
0.740699
0.741091
0.741591
0.741994
0.742289
0.742415
0.742453
0.742357
0.742274
0.74215
0.742101
0.742005
0.741945
0.74184
0.741702
0.741534
0.741326
0.741079
0.740866
0.740891
0.741329
0.742295
0.741971
0.748477
0.740282
0.733906
0.73538
0.737696
0.738504
0.738722
0.738629
0.738403
0.738081
0.737695
0.737415
0.737321
0.73725
0.737273
0.737265
0.737115
0.736795
0.736347
0.73616
0.7354
0.73491
0.733988
0.733338
0.732787
0.732707
0.732524
0.731648
0.73029
0.733776
0.746363
0.744608
0.744932
0.745186
0.744121
0.741762
0.738929
0.737239
0.736995
0.736948
0.737031
0.737672
0.737877
0.738694
0.739049
0.739518
0.739568
0.740128
0.739905
0.740089
0.740538
0.740615
0.740715
0.740466
0.739812
0.738979
0.738572
0.738891
0.738893
0.738362
0.742417
0.736569
0.736576
0.735568
0.734261
0.73401
0.735113
0.736404
0.736385
0.73645
0.736878
0.73768
0.738641
0.73965
0.740533
0.74125
0.741866
0.742168
0.74256
0.742721
0.742756
0.742494
0.742077
0.741565
0.740871
0.738848
0.735603
0.73413
0.735741
0.73749
0.743149
0.735293
0.730509
0.732639
0.736216
0.738105
0.739502
0.739735
0.740263
0.740286
0.740253
0.739974
0.739355
0.738547
0.737654
0.737056
0.736735
0.736632
0.736816
0.737332
0.73814
0.739113
0.73997
0.740231
0.739979
0.739338
0.736594
0.737477
0.745723
0.75294
0.754144
0.754364
0.752164
0.745514
0.735604
0.72802
0.724335
0.722809
0.721962
0.721293
0.721006
0.720549
0.720167
0.719975
0.719433
0.718919
0.718184
0.717602
0.717062
0.717237
0.71754
0.719551
0.722233
0.726082
0.728874
0.732402
0.740209
0.748336
0.753317
0.753477
0.745383
0.746481
0.7473
0.747505
0.747501
0.747381
0.746991
0.745587
0.743065
0.74091
0.740408
0.740967
0.743399
0.747395
0.750068
0.749171
0.74895
0.748723
0.748196
0.747776
0.747348
0.747504
0.747871
0.748284
0.7487
0.748996
0.74909
0.749076
0.748979
0.748851
0.748738
0.748674
0.748643
0.74865
0.74868
0.748748
0.748857
0.749014
0.749041
0.749107
0.749674
0.750223
0.750874
0.750103
0.74445
0.743487
0.74408
0.744691
0.745727
0.746565
0.747111
0.747247
0.746598
0.745028
0.743144
0.741733
0.741185
0.741224
0.741633
0.742354
0.743131
0.74369
0.743915
0.743859
0.743684
0.743659
0.744064
0.744924
0.745682
0.745729
0.745178
0.744316
0.744062
0.746487
0.743107
0.742163
0.743484
0.743804
0.743935
0.744318
0.744809
0.745317
0.745699
0.745868
0.745858
0.74569
0.745422
0.745221
0.745038
0.745185
0.745166
0.745472
0.745603
0.745777
0.745908
0.745822
0.745599
0.745233
0.744645
0.744134
0.744511
0.745339
0.745389
0.745191
0.746236
0.745048
0.742542
0.741163
0.741008
0.74156
0.742491
0.743648
0.744804
0.745778
0.746528
0.747005
0.747075
0.747149
0.747003
0.746937
0.746698
0.746857
0.746845
0.747178
0.746894
0.746457
0.745116
0.743362
0.743182
0.744407
0.745584
0.745889
0.74567
0.745788
0.744317
0.742135
0.743329
0.74295
0.741527
0.740664
0.740134
0.739667
0.73939
0.739305
0.739503
0.739808
0.740034
0.740152
0.740154
0.740134
0.740095
0.740069
0.74004
0.740032
0.739949
0.739819
0.73958
0.739415
0.739342
0.739651
0.740274
0.741429
0.742785
0.743949
0.743926
0.741175
0.739794
0.742602
0.744203
0.742593
0.740097
0.740001
0.742184
0.74489
0.746525
0.747823
0.748034
0.747475
0.746748
0.745318
0.744402
0.743837
0.743773
0.743917
0.7444
0.745107
0.7458
0.74631
0.746575
0.746642
0.746627
0.746645
0.745869
0.745641
0.746455
0.741087
0.739054
0.739236
0.739021
0.738312
0.738145
0.738585
0.739519
0.740627
0.741594
0.742158
0.74237
0.742333
0.742267
0.742299
0.742478
0.742589
0.742469
0.742335
0.742184
0.74206
0.741995
0.741887
0.741735
0.741571
0.741559
0.741937
0.742813
0.742484
0.743288
0.73624
0.73518
0.737552
0.738418
0.738439
0.7383
0.738074
0.737843
0.7377
0.737896
0.738268
0.739012
0.739543
0.740216
0.740432
0.740558
0.740227
0.739596
0.738738
0.737805
0.737127
0.736481
0.736109
0.736134
0.736839
0.737032
0.735322
0.731768
0.733465
0.745426
0.745336
0.746112
0.745026
0.741548
0.737984
0.736408
0.736505
0.736366
0.736413
0.737663
0.73959
0.741645
0.742626
0.74325
0.743105
0.742586
0.742093
0.741412
0.741072
0.741351
0.741655
0.742421
0.742915
0.742647
0.741512
0.739964
0.739234
0.739184
0.738831
0.741392
0.737978
0.738373
0.736345
0.734557
0.734485
0.7353
0.734734
0.734605
0.735475
0.737374
0.739607
0.741608
0.74321
0.744091
0.74472
0.744911
0.745216
0.745231
0.745385
0.745245
0.745008
0.744454
0.743664
0.742711
0.741183
0.738216
0.735057
0.733945
0.735814
0.737118
0.731953
0.733411
0.737226
0.739859
0.740695
0.741665
0.742516
0.743608
0.744127
0.744374
0.743987
0.742952
0.74146
0.739679
0.737831
0.736585
0.736074
0.736309
0.737427
0.739247
0.741338
0.743048
0.743695
0.743078
0.741598
0.738714
0.73562
0.739743
0.751461
0.754277
0.753697
0.748656
0.738619
0.728717
0.723846
0.722203
0.721641
0.722103
0.72243
0.723071
0.723538
0.723889
0.723644
0.723148
0.72239
0.72132
0.720154
0.718938
0.718104
0.718435
0.720539
0.725402
0.730013
0.734024
0.73406
0.735677
0.742388
0.751493
0.753648
0.746422
0.747643
0.747838
0.747586
0.7474
0.747546
0.74764
0.747253
0.745508
0.742956
0.741609
0.741589
0.743211
0.746982
0.750001
0.748846
0.748231
0.74743
0.746747
0.746681
0.747087
0.74775
0.748447
0.748986
0.749456
0.749604
0.749314
0.748821
0.748288
0.747911
0.747668
0.747629
0.747671
0.74779
0.747935
0.748109
0.748351
0.748666
0.748904
0.748943
0.749063
0.74933
0.750187
0.750214
0.744362
0.743671
0.744324
0.745138
0.746231
0.746662
0.74625
0.744997
0.743311
0.741473
0.740431
0.740125
0.740214
0.740671
0.741636
0.743106
0.744386
0.745002
0.745032
0.744657
0.744204
0.743734
0.743657
0.744338
0.745401
0.745857
0.745562
0.744719
0.744165
0.74583
0.742508
0.742417
0.743659
0.743774
0.744001
0.744432
0.744991
0.745614
0.746056
0.746125
0.745877
0.745286
0.744704
0.744188
0.744036
0.743844
0.74408
0.744198
0.744639
0.745123
0.745629
0.745858
0.745957
0.745759
0.745205
0.744432
0.744267
0.744843
0.745246
0.745055
0.746557
0.744282
0.74127
0.740425
0.740686
0.741533
0.742838
0.744211
0.745299
0.746034
0.746362
0.746261
0.745871
0.745354
0.744836
0.744427
0.744275
0.744237
0.744556
0.745315
0.746074
0.74633
0.745607
0.743824
0.742867
0.743637
0.74501
0.745548
0.745229
0.745476
0.743923
0.742753
0.743196
0.741747
0.740668
0.740047
0.739482
0.739254
0.739334
0.739672
0.739985
0.740139
0.740101
0.739962
0.739885
0.739786
0.739714
0.739657
0.739602
0.739594
0.739662
0.739671
0.739625
0.73946
0.739192
0.739076
0.73959
0.740667
0.742174
0.743469
0.743176
0.740609
0.741142
0.74376
0.74297
0.739442
0.738047
0.739677
0.74247
0.744959
0.746796
0.748225
0.748547
0.748067
0.746823
0.745124
0.743945
0.743457
0.743422
0.743793
0.7444
0.745077
0.745791
0.746327
0.746683
0.746874
0.746962
0.747101
0.746398
0.745652
0.744511
0.739513
0.738618
0.737921
0.736516
0.735458
0.735394
0.736287
0.737854
0.739722
0.741331
0.742358
0.74287
0.743137
0.743468
0.743786
0.743704
0.743301
0.742733
0.742122
0.741806
0.741631
0.741832
0.741944
0.742065
0.742042
0.742055
0.74255
0.743542
0.743014
0.739844
0.735152
0.736167
0.737266
0.736932
0.736858
0.737247
0.737788
0.73835
0.738971
0.739703
0.740405
0.741383
0.742151
0.742807
0.743338
0.743547
0.743766
0.743339
0.742888
0.741453
0.740349
0.739374
0.739224
0.740147
0.74193
0.742574
0.739779
0.733708
0.733595
0.745502
0.746228
0.746312
0.74298
0.738489
0.736554
0.73633
0.735729
0.735362
0.737733
0.741787
0.744459
0.746506
0.747269
0.74757
0.747389
0.746922
0.745886
0.744358
0.742802
0.742049
0.742039
0.742896
0.744031
0.744783
0.744243
0.742256
0.740264
0.73962
0.739259
0.740955
0.739661
0.740087
0.736506
0.73447
0.734507
0.73345
0.733102
0.734391
0.73748
0.740939
0.743744
0.745397
0.746104
0.74624
0.746276
0.74627
0.74615
0.74633
0.746329
0.746581
0.746523
0.746177
0.745508
0.744529
0.743129
0.740632
0.736886
0.734111
0.734976
0.734648
0.732823
0.736975
0.740004
0.741433
0.742456
0.74387
0.745122
0.746196
0.746953
0.747308
0.747175
0.746422
0.744957
0.742781
0.740056
0.737135
0.735228
0.735045
0.736958
0.740025
0.743368
0.745823
0.746848
0.746085
0.743999
0.740619
0.735912
0.737291
0.750106
0.754275
0.752542
0.744269
0.732665
0.7245
0.72196
0.721981
0.722654
0.723908
0.724947
0.726017
0.726545
0.72683
0.726686
0.726224
0.725275
0.724221
0.722734
0.721245
0.719713
0.719425
0.722174
0.72945
0.735993
0.739115
0.738098
0.735445
0.738956
0.749294
0.753793
0.746885
0.748068
0.747531
0.74629
0.7458
0.746609
0.747455
0.747507
0.746398
0.744198
0.74275
0.742392
0.743466
0.746793
0.749834
0.748268
0.747152
0.746326
0.746225
0.746562
0.747051
0.747593
0.748313
0.749073
0.749502
0.749341
0.748573
0.747718
0.746964
0.746643
0.746484
0.746434
0.74642
0.746548
0.746741
0.747073
0.747531
0.748103
0.748618
0.748822
0.748807
0.748817
0.749624
0.750178
0.744301
0.743878
0.744365
0.744924
0.745395
0.744972
0.743844
0.74216
0.740892
0.739994
0.739691
0.739692
0.739927
0.740641
0.742047
0.744198
0.745563
0.745838
0.745494
0.744894
0.744284
0.743781
0.743611
0.744086
0.745191
0.745897
0.745762
0.745044
0.744478
0.745609
0.741814
0.742801
0.743688
0.74369
0.743717
0.74384
0.744508
0.745496
0.746207
0.746337
0.745939
0.745011
0.744201
0.743613
0.743471
0.743459
0.74376
0.743791
0.744249
0.744702
0.745152
0.745555
0.745976
0.746055
0.745639
0.744802
0.744222
0.744494
0.745025
0.744987
0.745938
0.742381
0.740398
0.740161
0.740546
0.741706
0.743336
0.74479
0.745611
0.74584
0.745537
0.744923
0.744176
0.743603
0.743233
0.742991
0.742991
0.742948
0.743069
0.743702
0.744754
0.745631
0.745434
0.743903
0.742651
0.743114
0.744536
0.745324
0.744853
0.745118
0.743727
0.742962
0.742418
0.740918
0.740099
0.739458
0.739148
0.739285
0.739575
0.739834
0.739796
0.739658
0.739517
0.739551
0.739519
0.739347
0.739273
0.73917
0.73914
0.739144
0.739191
0.739311
0.739464
0.739463
0.739172
0.73882
0.739078
0.740101
0.741623
0.743133
0.742487
0.740584
0.742377
0.743729
0.740763
0.737288
0.736913
0.738334
0.74013
0.742778
0.745695
0.747923
0.748863
0.748839
0.747806
0.74604
0.744896
0.744642
0.745134
0.745846
0.746404
0.746792
0.747081
0.747261
0.74736
0.747446
0.747536
0.74763
0.746947
0.74583
0.742939
0.738702
0.737501
0.735775
0.733713
0.73275
0.732981
0.734229
0.736302
0.738854
0.741217
0.742854
0.743842
0.744349
0.744567
0.744263
0.743147
0.741341
0.739894
0.73891
0.738115
0.73789
0.738209
0.739367
0.740853
0.741785
0.742272
0.743052
0.744302
0.743624
0.738063
0.735022
0.735893
0.735438
0.734895
0.735713
0.73714
0.738524
0.739661
0.740349
0.74087
0.741528
0.742384
0.743118
0.743551
0.743942
0.744261
0.744453
0.744696
0.744645
0.744129
0.743182
0.742094
0.742038
0.743625
0.746133
0.747022
0.743854
0.735961
0.733884
0.745824
0.746718
0.745233
0.740242
0.736922
0.736015
0.735156
0.734633
0.737291
0.741485
0.745536
0.747291
0.74841
0.748371
0.748364
0.748012
0.747851
0.747276
0.746145
0.744559
0.742875
0.742137
0.742738
0.744155
0.745832
0.746208
0.744399
0.741442
0.740042
0.739554
0.740985
0.740993
0.740289
0.735916
0.734077
0.73282
0.731684
0.733115
0.73686
0.741245
0.744524
0.746249
0.746422
0.746068
0.745469
0.745155
0.745373
0.745453
0.746045
0.746423
0.746793
0.747029
0.747023
0.746678
0.745898
0.744667
0.742498
0.738689
0.73464
0.734574
0.733684
0.734804
0.739333
0.741048
0.741992
0.743026
0.744118
0.745073
0.745914
0.746873
0.747619
0.747925
0.747681
0.746765
0.745106
0.742342
0.738248
0.73433
0.73331
0.736058
0.740781
0.744972
0.747761
0.748479
0.747771
0.745611
0.741742
0.736059
0.736362
0.749616
0.754164
0.750812
0.739919
0.728276
0.722707
0.721803
0.722972
0.724428
0.726205
0.727521
0.728882
0.729671
0.730341
0.730241
0.729594
0.728513
0.726913
0.725339
0.723563
0.721632
0.720049
0.720764
0.729769
0.739579
0.741762
0.739881
0.736881
0.738907
0.748567
0.754055
0.747263
0.748183
0.746536
0.744272
0.743862
0.745715
0.747309
0.747561
0.746557
0.744751
0.743614
0.743132
0.743816
0.746703
0.749598
0.74749
0.746268
0.745873
0.745945
0.745991
0.745999
0.746454
0.747445
0.748538
0.749188
0.74903
0.748194
0.747274
0.74679
0.746766
0.746863
0.746792
0.746519
0.746095
0.745907
0.746056
0.746592
0.747412
0.748219
0.748656
0.748694
0.748638
0.749369
0.75014
0.744289
0.743981
0.744006
0.743993
0.743949
0.743037
0.741955
0.740718
0.739965
0.73958
0.739481
0.739697
0.740244
0.740939
0.742657
0.745378
0.746432
0.746251
0.745632
0.744784
0.744068
0.743697
0.743639
0.744148
0.745222
0.745959
0.74585
0.745298
0.744923
0.745598
0.741249
0.743036
0.743568
0.743246
0.742584
0.7424
0.743236
0.744809
0.746118
0.746494
0.746089
0.745028
0.74399
0.743323
0.743314
0.743507
0.744006
0.744331
0.744631
0.744801
0.745113
0.74547
0.746049
0.746272
0.745955
0.745115
0.744321
0.744286
0.744755
0.744908
0.74349
0.740944
0.740172
0.739997
0.740443
0.741903
0.743872
0.745221
0.745613
0.745337
0.744625
0.743754
0.743199
0.742979
0.742964
0.743023
0.74302
0.742982
0.742751
0.743065
0.743986
0.744974
0.745024
0.74371
0.742423
0.742735
0.74428
0.74519
0.744562
0.744779
0.743634
0.742907
0.741751
0.740405
0.739554
0.739059
0.73911
0.739276
0.739414
0.739342
0.739257
0.739127
0.739248
0.739359
0.739383
0.739181
0.739039
0.738995
0.738913
0.738877
0.738918
0.739098
0.739324
0.739408
0.739108
0.738593
0.738701
0.739678
0.741198
0.742884
0.741921
0.740918
0.743101
0.742996
0.738857
0.73624
0.735813
0.73645
0.737397
0.739753
0.743361
0.746751
0.748755
0.749208
0.748557
0.746851
0.745757
0.745717
0.746482
0.74713
0.747555
0.747796
0.747971
0.748113
0.748243
0.748305
0.748283
0.748246
0.747467
0.745912
0.742017
0.737952
0.736028
0.733395
0.731379
0.730785
0.731289
0.732659
0.734989
0.738082
0.741213
0.743507
0.744607
0.744776
0.744257
0.742241
0.739827
0.737868
0.736691
0.735795
0.735019
0.734312
0.73403
0.734961
0.737242
0.740158
0.74195
0.743433
0.745067
0.744163
0.737084
0.73479
0.734469
0.73308
0.733276
0.735188
0.737473
0.739427
0.74054
0.741013
0.741313
0.742157
0.742744
0.743319
0.743526
0.743831
0.744107
0.744367
0.74462
0.744858
0.745003
0.744615
0.744006
0.744202
0.745955
0.748538
0.74931
0.746201
0.737254
0.734453
0.746148
0.74655
0.743076
0.738103
0.735895
0.734884
0.73437
0.736309
0.740338
0.743751
0.746538
0.747756
0.74801
0.747463
0.746564
0.746084
0.745994
0.745941
0.745541
0.744556
0.742923
0.742129
0.742623
0.744105
0.746289
0.747315
0.74577
0.742598
0.740716
0.739865
0.741269
0.741889
0.739223
0.73468
0.732795
0.730667
0.731613
0.735531
0.740107
0.744207
0.746152
0.746496
0.745637
0.744441
0.744317
0.744833
0.746081
0.746876
0.747577
0.747485
0.747554
0.747596
0.747587
0.747381
0.746801
0.745754
0.743826
0.740036
0.735183
0.734492
0.7339
0.736654
0.740184
0.740981
0.74132
0.741594
0.741619
0.741778
0.742329
0.743608
0.745218
0.746703
0.747235
0.746584
0.74576
0.744367
0.740234
0.734263
0.731688
0.734916
0.740681
0.745727
0.748104
0.748572
0.74808
0.746016
0.741754
0.735495
0.7358
0.749959
0.75401
0.749433
0.736813
0.72582
0.721953
0.72217
0.724334
0.726262
0.728397
0.730038
0.732023
0.733372
0.734453
0.734715
0.734043
0.732173
0.730001
0.727383
0.725463
0.723663
0.721595
0.719717
0.724852
0.738586
0.742978
0.740739
0.738295
0.740015
0.748827
0.754232
0.747442
0.748076
0.745152
0.742191
0.742474
0.745381
0.747259
0.747525
0.746515
0.745143
0.744218
0.743674
0.74424
0.746473
0.749104
0.746659
0.745767
0.745546
0.745334
0.744878
0.744675
0.745263
0.746538
0.747973
0.74895
0.749081
0.748278
0.747567
0.747385
0.747643
0.747929
0.747911
0.747554
0.746637
0.745722
0.745385
0.745712
0.746749
0.747831
0.748485
0.74861
0.748524
0.749288
0.750116
0.744328
0.743981
0.743528
0.743015
0.742599
0.741731
0.740928
0.740208
0.739757
0.739567
0.739793
0.740554
0.741018
0.741337
0.743325
0.746335
0.746944
0.746516
0.745904
0.745008
0.744136
0.743813
0.743892
0.744515
0.745489
0.746075
0.745866
0.745559
0.745524
0.745774
0.741005
0.743078
0.743264
0.742263
0.740808
0.740315
0.741236
0.743369
0.745594
0.746509
0.746263
0.74521
0.744057
0.743249
0.743341
0.744047
0.744654
0.74532
0.745609
0.745501
0.745598
0.745708
0.746133
0.746342
0.746102
0.745363
0.744405
0.744134
0.744555
0.744826
0.741226
0.740704
0.740155
0.739912
0.740293
0.742015
0.744271
0.745354
0.745463
0.744837
0.743897
0.743217
0.743006
0.743069
0.743277
0.74348
0.743454
0.74332
0.743117
0.743019
0.743616
0.744589
0.744684
0.743497
0.742286
0.742675
0.744296
0.74515
0.744293
0.744495
0.743497
0.742613
0.741204
0.739892
0.738997
0.738747
0.73886
0.738877
0.73884
0.738826
0.738775
0.738748
0.739003
0.739354
0.739272
0.738985
0.738911
0.738925
0.738825
0.738713
0.738791
0.739008
0.739255
0.739333
0.738888
0.738276
0.738395
0.739398
0.74101
0.742795
0.741543
0.7415
0.74338
0.741825
0.7376
0.735755
0.735419
0.735297
0.735367
0.737008
0.740357
0.744715
0.747943
0.749172
0.749033
0.74746
0.746174
0.745885
0.746466
0.747095
0.747489
0.747633
0.747514
0.747208
0.747143
0.747587
0.748194
0.74839
0.747878
0.746156
0.741327
0.737046
0.734429
0.73143
0.729859
0.729568
0.7302
0.731664
0.734054
0.737426
0.741262
0.744052
0.744764
0.74443
0.741985
0.739039
0.737212
0.736193
0.735451
0.734794
0.734141
0.733205
0.732257
0.731688
0.733623
0.7376
0.741197
0.743629
0.74582
0.744629
0.736402
0.734004
0.73235
0.730972
0.732347
0.735193
0.738122
0.740278
0.74127
0.741456
0.741626
0.742365
0.742646
0.743111
0.743496
0.743992
0.744487
0.744687
0.744683
0.744785
0.744954
0.745106
0.745022
0.745537
0.747252
0.749435
0.750133
0.747197
0.737247
0.735178
0.746284
0.745503
0.740396
0.736414
0.735062
0.73456
0.735936
0.738451
0.741267
0.744079
0.746266
0.747232
0.747152
0.746183
0.745285
0.74482
0.74453
0.744443
0.744513
0.74312
0.742495
0.742116
0.742509
0.74436
0.746677
0.747848
0.746433
0.742943
0.741102
0.740241
0.741537
0.741543
0.737102
0.732778
0.730611
0.730328
0.733349
0.738168
0.742305
0.745479
0.746325
0.745601
0.744352
0.743632
0.744493
0.74645
0.747595
0.748878
0.749037
0.749087
0.748551
0.748252
0.748163
0.747925
0.747463
0.746514
0.744671
0.740754
0.735437
0.734531
0.734301
0.737883
0.740085
0.740068
0.739624
0.739043
0.738434
0.738138
0.738296
0.739017
0.740537
0.742813
0.744547
0.744849
0.74464
0.745086
0.742737
0.735792
0.730826
0.732525
0.739177
0.744361
0.747345
0.747971
0.747354
0.745043
0.740112
0.733985
0.736091
0.751129
0.753912
0.748506
0.734882
0.724647
0.721849
0.722838
0.725443
0.727811
0.730243
0.732343
0.735076
0.737165
0.73903
0.73937
0.738442
0.736392
0.733357
0.729779
0.726726
0.724714
0.723342
0.720785
0.719796
0.733302
0.743564
0.742627
0.740767
0.74371
0.750981
0.754455
0.747675
0.747917
0.743991
0.740739
0.741494
0.744966
0.747041
0.747374
0.746675
0.745531
0.744582
0.74408
0.744572
0.746333
0.748782
0.746191
0.745444
0.745104
0.744527
0.744001
0.743895
0.744648
0.745986
0.74755
0.748738
0.749109
0.748438
0.747784
0.747778
0.748084
0.748291
0.748177
0.747687
0.746701
0.745625
0.745115
0.745396
0.746425
0.747623
0.748356
0.748506
0.748505
0.74934
0.750107
0.744345
0.744094
0.743394
0.742464
0.741841
0.741123
0.740558
0.740134
0.739833
0.740096
0.740928
0.74192
0.741904
0.741707
0.743989
0.74684
0.747242
0.746813
0.746438
0.745865
0.744935
0.744442
0.744547
0.745148
0.745916
0.746112
0.745879
0.745989
0.746264
0.745951
0.740942
0.742916
0.742714
0.740926
0.738854
0.738221
0.739035
0.74131
0.744513
0.746314
0.746381
0.74546
0.744273
0.74331
0.743371
0.744434
0.745134
0.746192
0.746339
0.746217
0.746088
0.74614
0.746407
0.746578
0.746315
0.745502
0.744466
0.744043
0.744393
0.744778
0.741217
0.740892
0.740147
0.739941
0.740238
0.741847
0.744246
0.745431
0.745264
0.744506
0.74361
0.743165
0.743149
0.743359
0.743679
0.74375
0.743541
0.743317
0.74315
0.743022
0.743606
0.744414
0.744464
0.743463
0.7425
0.742998
0.744638
0.745171
0.744017
0.744288
0.743433
0.742503
0.740991
0.739455
0.738416
0.738212
0.738234
0.738037
0.737997
0.738251
0.73841
0.738457
0.738834
0.739321
0.739257
0.738735
0.738783
0.739025
0.738885
0.738768
0.738902
0.739124
0.739287
0.739185
0.73848
0.737895
0.738135
0.739265
0.741162
0.742751
0.741363
0.741879
0.743304
0.740732
0.736953
0.735582
0.735306
0.734955
0.734679
0.735273
0.737711
0.742013
0.746439
0.748821
0.749304
0.748258
0.746708
0.74599
0.746342
0.747275
0.747821
0.747743
0.746746
0.745349
0.74451
0.744905
0.746649
0.74804
0.747943
0.74628
0.740835
0.736199
0.732986
0.730102
0.728828
0.728775
0.729466
0.731136
0.733484
0.736921
0.741229
0.744288
0.744614
0.742907
0.739411
0.737589
0.737011
0.736835
0.735656
0.73471
0.734343
0.733693
0.732021
0.730792
0.731376
0.735706
0.740414
0.743936
0.746487
0.744965
0.735917
0.732778
0.730264
0.729622
0.731881
0.735194
0.738574
0.741046
0.741858
0.741785
0.741662
0.742292
0.742415
0.743042
0.744096
0.745349
0.746031
0.746113
0.745781
0.745415
0.745247
0.745387
0.745591
0.746359
0.74806
0.749878
0.750209
0.745738
0.736623
0.736007
0.746386
0.743813
0.738131
0.736114
0.735837
0.73674
0.737784
0.739
0.74114
0.743707
0.745679
0.746777
0.746807
0.745971
0.745196
0.744601
0.744071
0.743511
0.743043
0.742433
0.74205
0.742159
0.743053
0.745154
0.747519
0.74825
0.74611
0.742996
0.741599
0.74038
0.741895
0.740736
0.734583
0.730809
0.730005
0.731741
0.735083
0.739544
0.743162
0.745778
0.746001
0.744651
0.743656
0.743447
0.744717
0.747157
0.748364
0.749641
0.749631
0.749415
0.749144
0.748757
0.748574
0.748327
0.747906
0.746937
0.74495
0.740649
0.735127
0.734698
0.73463
0.73839
0.739539
0.738816
0.73807
0.737516
0.737137
0.736876
0.736723
0.73663
0.7371
0.738493
0.741045
0.742597
0.742343
0.744123
0.744375
0.738909
0.731146
0.729974
0.7354
0.741527
0.74498
0.7461
0.745151
0.742235
0.736968
0.732486
0.738041
0.752327
0.753954
0.748837
0.734906
0.724506
0.721906
0.723202
0.726217
0.728778
0.731565
0.734008
0.737148
0.739698
0.741383
0.741706
0.741149
0.739028
0.736174
0.731874
0.727848
0.72487
0.723809
0.722396
0.718476
0.725598
0.742908
0.744963
0.744831
0.747766
0.752024
0.753652
0.747736
0.747858
0.743182
0.739957
0.740923
0.744369
0.74648
0.746962
0.746498
0.745467
0.745029
0.745605
0.746449
0.747208
0.74824
0.748688
0.747946
0.745572
0.745103
0.744613
0.744057
0.743648
0.743805
0.744617
0.745984
0.747336
0.748507
0.749149
0.748568
0.747878
0.747877
0.748127
0.748159
0.747797
0.747028
0.746184
0.745449
0.745184
0.745529
0.746543
0.747673
0.748313
0.748417
0.748529
0.749339
0.749979
0.749138
0.746996
0.744649
0.744258
0.743553
0.742394
0.741611
0.740981
0.740549
0.740408
0.740594
0.741649
0.742803
0.743325
0.74263
0.741961
0.74442
0.747066
0.747445
0.747066
0.746797
0.746565
0.746134
0.745574
0.745489
0.745821
0.746109
0.746128
0.746005
0.746577
0.746871
0.746026
0.744806
0.741985
0.741116
0.742598
0.741777
0.739438
0.737448
0.73693
0.737465
0.739232
0.74283
0.745689
0.746373
0.745702
0.744575
0.7435
0.74334
0.744376
0.745426
0.746565
0.746697
0.74677
0.746592
0.746577
0.746687
0.746743
0.746385
0.745518
0.744427
0.743906
0.744318
0.744705
0.744692
0.743994
0.741881
0.740775
0.740401
0.740171
0.740176
0.741386
0.744036
0.745262
0.745185
0.744402
0.743766
0.743439
0.743343
0.743603
0.7439
0.74395
0.743643
0.743284
0.743129
0.743113
0.743794
0.744387
0.744483
0.743756
0.743124
0.743791
0.745219
0.745168
0.743785
0.743963
0.744703
0.744024
0.743405
0.742455
0.740829
0.73904
0.737747
0.737383
0.737119
0.736819
0.736994
0.737495
0.738081
0.738173
0.738613
0.739405
0.739147
0.738575
0.738628
0.739072
0.7391
0.739104
0.739195
0.739324
0.739167
0.738621
0.737769
0.737595
0.738309
0.740256
0.741668
0.741227
0.740319
0.740643
0.741475
0.742481
0.742996
0.739789
0.736695
0.735617
0.735397
0.735017
0.734673
0.734752
0.735909
0.739332
0.744393
0.74805
0.749411
0.749135
0.747973
0.747148
0.747517
0.748195
0.748272
0.746961
0.744117
0.741583
0.740423
0.740761
0.742909
0.746306
0.747683
0.74645
0.745659
0.74264
0.739731
0.735256
0.731834
0.729108
0.728122
0.728108
0.728963
0.730926
0.733275
0.7364
0.741086
0.744273
0.744167
0.740995
0.738215
0.738085
0.738891
0.737603
0.735075
0.733388
0.733355
0.733213
0.73148
0.730115
0.731032
0.735343
0.740696
0.744532
0.747077
0.745284
0.744163
0.738511
0.734733
0.731182
0.728775
0.728887
0.731081
0.734209
0.73801
0.741225
0.742277
0.741967
0.741552
0.741999
0.742232
0.743662
0.74559
0.747281
0.747996
0.748233
0.747674
0.746865
0.746091
0.745887
0.746117
0.746986
0.748549
0.750119
0.749541
0.743049
0.736685
0.737725
0.743656
0.746548
0.745265
0.74116
0.737877
0.73765
0.738629
0.738819
0.738519
0.738906
0.740722
0.742995
0.744962
0.746277