/*--------------------------------*- C++ -*----------------------------------*\
| =========                 |                                                 |
| \\      /  F ield         | OpenFOAM: The Open Source CFD Toolbox           |
|  \\    /   O peration     | Version:  2.1.1                                 |
|   \\  /    A nd           | Web:      www.OpenFOAM.org                      |
|    \\/     M anipulation  |                                                 |
\*---------------------------------------------------------------------------*/
FoamFile
{
    version     2.0;
    format      ascii;
    class       volScalarField;
    location    "0.004550000";
    object      Xi;
}
// * * * * * * * * * * * * * * * * * * * * * * * * * * * * * * * * * * * * * //

dimensions      [0 0 0 0 0 0 0];

internalField   nonuniform List<scalar> 
12384
(
3.62108
7.67664
9.15596
10.0858
10.4982
10.2266
9.40976
8.39495
7.6253
6.93472
5.93588
4.68783
4.46093
6.26037
27.1936
37.1605
48.3632
59.3528
64.7099
70.3254
72.663
75.2444
77.265
79.2068
83.3808
84.6349
89.0773
94.1158
94.0674
99.9186
97.4981
100.992
96.2231
96.3081
89.2478
84.7609
73.826
61.1001
39.9723
30.5478
33.3735
31.4861
25.5352
17.653
59.1542
83.1096
91.2652
96.8416
101.569
92.3542
93.1427
88.4275
89.5219
88.871
89.8472
91.6936
93.2962
95.2013
98.0182
100.438
103.249
103.806
102.78
97.1336
87.0892
75.3744
67.8054
54.1305
41.0461
26.6041
17.6939
18.1114
19.2628
16.3895
43.2941
52.1572
54.2483
56.5007
60.5678
64.7935
70.0653
75.5712
81.564
88.0749
95.1155
103.761
111.23
120.723
123.576
144.149
131.157
151.289
137.022
135.909
121.32
109.569
99.3954
85.8573
67.8339
52.4317
37.9275
36.2073
35.7915
30.7676
64.7638
87.096
100.222
115.521
127.559
138.842
148.483
158.295
166.353
174.51
180.329
187.173
190.233
194.606
197.423
189.416
194.522
156.706
167.638
123.321
123.421
100.912
88.5099
77.5625
61.3624
41.0277
31.8581
25.8512
22.7632
22.5045
36.7103
44.3904
53.7489
63.9511
71.7564
76.3979
78.4026
79.2524
80.0693
81.7976
84.389
88.9335
94.8144
102.011
108.099
114.903
118.368
118.407
122.788
117.89
108.107
101.933
103.379
91.8308
88.7119
84.8179
78.7138
69.5671
54.7458
39.5551
25.8877
31.6884
32.2519
34.0838
38.7875
45.9584
50.5176
58.0284
60.9661
64.8217
68.5949
80.3753
84.8578
95.1039
95.3529
94.3085
95.9901
96.9181
99.9373
102.251
104.71
105.057
105.391
103.652
102.569
98.7433
93.2322
83.699
65.514
44.7814
26.0385
36.3517
34.2287
45.0449
64.4793
74.6567
83.0676
86.8859
88.5281
89.5567
86.5846
85.1786
81.479
78.8667
75.914
73.1368
72.3445
70.5647
71.4334
68.8874
71.815
67.1374
68.5538
63.5908
62.4566
60.7252
58.2142
55.1692
48.7682
35.417
14.4275
24.3649
37.6276
55.9077
71.6407
82.2833
92.9991
95.9823
99.3007
98.2568
95.816
95.5253
92.3661
93.8447
96.0847
92.3492
98.42
93.0016
93.2932
86.7892
78.7585
76.3056
65.6235
58.7277
54.1916
45.6402
37.4573
28.3998
18.4273
10.6604
21.752
30.7547
43.6824
55.8816
64.6043
70.118
74.3199
76.956
84.1099
93.6498
102.121
106.461
129.77
133.839
134.439
138.057
135.567
136.079
141.141
140.347
114.054
115.166
94.3273
91.9574
81.0064
73.0771
65.3026
55.1161
43.7135
38.3598
43.5006
43.2583
57.8576
67.8811
73.5556
76.713
76.9573
75.8744
75.1765
76.7822
82.6179
90.7576
99.7729
108.092
121.637
139.521
141.839
164.307
156.349
163.897
153.296
139.846
125.029
109.812
93.5057
82.2147
79.8611
78.8347
74.3793
70.5246
38.3641
51.3766
51.1211
61.1843
69.5902
81.0885
86.3704
95.6399
94.7526
96.9732
94.2251
92.8673
91.1962
90.873
92.082
93.9223
96.6845
101.012
104.626
103.871
104.219
98.1261
91.4966
77.0637
64.8366
45.4202
25.1136
15.7593
6.4582
3.80503
9.00526
8.73507
10.9616
16.4145
21.0291
18.7079
20.1597
23.0871
27.8184
32.0448
38.7577
42.7778
48.6145
51.1706
53.6195
51.1917
46.3019
40.0569
31.4538
21.2324
11.3566
5.88051
5.2453
5.10091
5.10958
5.48012
5.2107
5.18465
4.66864
3.9244
7.07179
11.1593
13.5643
15.7166
17.3863
17.6308
16.591
14.5705
12.9214
11.7441
10.6858
9.04439
8.04846
12.5501
29.9133
30.5159
41.4381
49.2143
48.2447
49.3416
46.3277
45.8201
45.5072
46.9005
49.8159
54.3329
57.9118
64.8455
68.5973
74.9924
78.253
82.639
84.9636
86.2482
88.1635
87.6239
87.7343
80.5174
64.8221
46.8103
37.8696
30.4121
26.7309
28.9974
60.0945
50.0789
53.411
57.6779
61.2893
55.6543
58.9967
57.7245
61.6759
62.8879
66.8339
68.1514
69.1305
71.0145
75.0867
80.8222
87.594
95.0992
102.315
106.332
109.945
111.473
110.989
107.162
95.9139
70.1059
40.4573
21.7164
15.5231
22.7024
46.8548
31.7604
32.4579
35.9918
40.9343
47.1731
56.0273
67.2023
79.9328
93.9229
109.454
125.645
141.993
162.015
178.107
199.326
217.978
245.69
233.194
226.91
208.142
184.076
160.499
135.538
108.287
86.1994
63.92
37.9434
31.3577
40.8489
69.0651
59.3909
74.2763
90.1683
104.304
119.458
136.05
154.475
173.895
193.786
212.917
229.54
226.337
214.317
208.98
201.093
196.144
192.772
189.307
179.466
169.522
162.193
147.902
134.098
111.9
76.7451
45.5399
26.2009
19.9626
28.4865
51.4194
39.8751
45.6538
51.4852
53.5833
53.2713
53.6585
55.2827
58.5769
64.223
67.9952
75.6521
83.7122
94.9815
107.395
118.292
129.318
136.543
146.973
139.979
133.333
129.958
117.58
105.589
99.0063
87.3906
74.1236
60.2409
46.7496
62.314
33.2014
28.6039
32.7038
41.9921
57.622
68.9831
74.5351
72.847
76.7882
89.803
112.976
119.61
112.552
101.626
92.9897
82.317
77.5208
74.4259
76.4555
80.4111
85.77
91.8691
96.6158
99.437
99.9058
97.7467
93.4623
85.2021
70.7621
72.0568
48.745
56.2607
63.2993
78.7703
93.5706
94.7111
94.4754
88.28
82.8322
78.1784
72.6161
67.4924
62.5205
57.5212
53.0611
50.4203
49.5647
50.7959
54.7738
58.886
66.6352
71.2295
77.702
80.2349
78.9501
76.2716
71.9658
64.8186
54.7287
51.2591
46.5408
50.5683
54.0707
62.9079
71.3443
72.6674
74.0991
70.3117
67.1588
64.1855
61.7855
63.314
67.7656
74.4541
85.8007
97.1775
111.663
117.433
120.924
124.606
109.385
102.74
88.6235
79.4431
72.8267
65.6908
60.0513
51.9548
40.9103
36.5978
47.0738
31.2761
35.4668
39.9729
42.0467
43.8146
46.4933
50.0305
56.3301
64.0765
78.5086
95.1688
125.456
151.706
168.659
190.934
201.022
209.012
217.054
209.697
193.48
171.479
144.549
126.075
103.799
86.8587
68.9933
53.1228
38.6202
47.6806
76.9387
37.6459
42.2057
44.9906
45.9205
45.2319
43.5764
45.6518
55.5568
69.9822
84.9387
101.372
116.819
141.396
163.496
191.668
220.799
236.868
265.821
259.131
259.776
232.871
202.468
174.776
145.359
111.402
83.443
61.1007
47.6356
82.1016
81.8511
48.4342
42.6975
49.9578
58.8376
66.7278
69.8414
72.1371
71.1
71.0926
69.0719
69.0903
69.5542
72.0921
76.0901
81.7598
87.0519
95.4506
105.176
112.822
124.034
133.977
137.51
135.081
125.949
106.54
77.9443
53.1241
34.0082
14.3811
23.6689
23.308
36.714
53.1435
45.1381
45.7191
50.9165
56.3194
64.1483
67.7745
74.3023
75.0508
77.3203
74.7066
71.7872
65.6611
58.5718
50.2927
40.6445
29.1712
15.7483
4.93298
3.20239
2.82913
2.64286
2.47299
2.75869
3.03032
2.90434
4.70341
12.3504
17.3098
19.7897
21.1286
21.9946
22.5677
22.2738
19.6553
15.8973
13.2602
11.8118
10.4304
9.39298
14.7959
37.0952
40.1588
51.0622
51.8887
46.1023
44.8913
42.4164
43.762
45.5768
48.1772
49.998
53.8445
54.8222
58.2101
58.8458
62.1654
63.5769
66.3827
68.7881
68.9474
70.3059
72.965
75.8459
80.0756
73.8742
57.6517
44.093
33.9673
28.7296
34.5942
68.0939
51.3811
58.251
57.366
64.3964
57.085
59.9086
56.0282
58.1012
55.0511
53.2477
53.5528
57.852
63.9565
71.4872
79.2143
87.0476
94.1985
99.007
101.961
100.713
97.4391
99.1289
102.114
101.673
85.7158
56.932
31.2683
17.9645
22.6898
51.6623
31.001
34.2238
39.1223
46.6885
56.2053
68.1326
80.7142
93.7559
104.815
114.629
122.252
131.965
143.439
152.213
178.481
185.674
211.905
215.615
222.349
211.084
199.826
180.639
158.85
132.957
107.508
87.7531
60.5543
37.0353
47.9529
82.4522
70.9044
87.1964
102.08
114.46
126.844
139.254
154.331
170.431
184.615
176.262
165.26
160.417
152.534
150.831
146.71
146.689
144.254
147.543
145.78
149.79
150.769
156.216
149.202
136.598
107.917
70.5145
40.4862
24.1394
32.3095
59.9716
46.3592
52.295
54.9596
55.5833
56.7888
58.2561
60.9304
60.1891
61.6024
64.3464
69.1047
78.2307
86.7597
97.8205
107.523
114.62
121.468
125.089
117.137
116.716
110.23
96.5633
93.7833
89.4431
84.1994
76.7774
65.8136
53.3328
70.3958
37.7483
30.1963
36.6778
51.2801
63.6335
64.3002
61.4001
67.6664
84.8651
126.652
143.631
144.399
139.734
125.636
114.843
98.2897
88.2124
78.4386
73.639
70.6144
71.0305
73.8421
78.3748
83.0961
87.1352
90.1191
91.2594
89.8118
81.8871
81.4966
66.5982
65.0086
77.0104
91.9133
96.0941
89.2517
86.1524
82.1865
80.1354
78.4464
75.2482
71.2234
64.6457
58.7126
54.0953
50.8457
50.3241
50.7042
53.9632
56.7317
61.6484
65.1963
68.2166
70.3794
71.3502
71.7831
71.3843
69.3383
63.705
58.8517
76.7465
57.2844
64.9766
73.1722
78.1199
78.0898
77.3681
74.8825
71.9488
69.4178
69.0683
70.6363
75.1688
79.0482
88.4743
97.9736
108.141
116.555
121.799
124.192
110.651
101.046
86.5857
79.8135
71.1256
67.2073
61.9252
54.9985
44.9663
40.7666
53.6473
36.1555
42.0808
46.0959
48.0173
51.1935
57.4603
60.3509
63.8507
68.7746
92.3883
118.924
160.376
184.436
197.938
217.444
222.825
224.726
227.503
216.836
197.538
174.429
148.656
142.865
123.231
105.34
84.4766
65.3344
48.0299
56.6252
80.0839
42.1885
45.6443
45.364
43.9915
42.463
44.1129
54.711
72.9787
88.4092
102.562
118.328
138.49
175.781
197.12
252.336
263.946
277.274
285.234
286.594
284.998
274.05
256.276
216.54
183.846
147.056
110.002
79.5529
57.4287
85.2011
89.8549
46.4046
53.4463
68.2858
81.8242
90.7041
95.2098
96.9232
98.4829
98.1268
96.4459
94.0666
91.1376
88.0763
79.841
75.4421
75.6548
77.189
84.3096
93.6119
104.683
120.606
134.043
137.157
133.614
119.015
91.4592
61.0927
38.0035
23.248
32.0902
30.8884
45.5999
47.7304
44.1337
47.8411
54.5668
60.4625
69.1347
73.9559
81.4119
83.6801
86.6425
85.0915
81.0699
77.5234
69.364
62.6902
53.3184
43.2644
29.3785
11.0404
4.41633
3.6928
3.37639
2.82822
2.58266
2.88217
3.00113
5.18301
16.2841
21.6037
22.3986
21.8773
21.3341
21.7586
22.545
22.0081
18.6876
14.8793
12.9568
11.6322
10.7829
17.1063
47.0151
49.9739
54.0892
49.3466
46.7778
47.6641
50.4795
53.7034
56.7651
57.8189
57.0094
54.9769
49.9913
45.9797
43.2566
41.8846
43.1769
44.7388
48.1018
51.3224
54.5657
57.2585
63.541
71.8858
75.5211
65.9467
49.904
38.0534
31.0015
38.7108
75.644
54.6512
62.1318
64.9327
71.1303
64.4027
64.519
56.8472
54.2048
50.9337
52.7885
57.0967
64.5053
73.1216
80.4194
87.8546
95.4564
101.112
104.192
102.468
97.7872
92.5683
89.5278
94.1331
100.791
93.4581
69.3967
40.3059
22.8272
23.8777
54.764
32.422
36.4044
43.0767
52.1806
63.0231
75.8736
90.8087
105.799
113.947
116.791
116.25
115.622
114.672
121.298
137.611
136.731
158.466
166.139
175.343
186.025
188.31
187.393
175.535
155.135
128.081
105.693
85.1319
52.21
54.6219
97.7642
81.9817
94.9221
108.576
119.755
128.831
138.422
149.115
158.632
144.097
133.431
125.626
119.584
116.454
112.014
110.106
107.279
107.749
105.596
111.416
117.66
134.363
149.237
155.855
150.108
131.139
94.3125
56.3097
31.6266
34.9523
68.5065
54.8728
59.3755
59.7259
60.2707
61.604
62.63
63.4648
61.6346
61.4519
66.9773
74.9564
82.7081
92.3752
98.4712
103.432
106.783
111.103
105.17
105.056
101.182
91.3862
85.7425
82.7847
80.3132
79.3874
76.4186
69.145
58.2737
75.5937
41.6382
34.2362
44.1768
58.7389
63.5589
57.2933
59.4352
69.1092
91.6113
133.558
155.012
160.688
158.997
146.868
133.407
115.196
103.118
91.6187
83.5321
76.0591
70.4477
67.0045
66.7479
69.6318
74.3339
81.0354
88.1121
94.1885
93.1609
87.8128
78.5836
73.7148
89.8968
93.4653
88.8516
82.0834
79.4368
78.9616
80.121
81.9547
81.8324
78.6201
72.7309
67.1195
63.1378
62.9575
63.7245
67.0316
70.5306
75.2698
77.2698
80.7336
78.1431
75.3892
70.861
68.459
69.0036
71.833
72.5235
64.8064
83.9378
65.8647
73.4447
80.2099
78.7279
80.034
79.6871
79.8317
78.4077
77.4412
74.7822
76.5875
78.9523
84.0632
92.8854
98.6678
105.164
114.434
113.558
121.62
109.234
103.276
91.0674
81.1886
74.8179
71.7963
68.7523
59.9368
48.7184
45.0466
58.9955
42.2251
48.696
52.392
54.4619
59.8208
61.8278
62.2062
62.7538
78.4518
123.275
165.625
199.674
216.59
222.26
236.002
238.798
240.036
233.187
219.495
194.138
175.745
141.925
135.211
133.452
121.463
102.254
78.925
58.7472
65.2599
81.6153
46.7425
49.0697
45.7904
42.7768
42.5828
51.3484
68.951
87.1465
102.224
120.298
145.371
176.962
201.66
223.29
236.981
246.332
252.838
259.246
265.992
269.176
270.631
263.141
254.745
221.428
179.675
137.929
98.4654
68.9338
88.9344
85.843
55.3828
72.0887
91.784
104.032
112.096
118.449
123.512
127.486
129.459
128.382
124.316
117.56
109.013
98.7358
82.1609
70.6322
65.4786
65.3223
72.0536
83.2899
104.365
117.67
126.164
130.254
125.67
100.017
64.883
39.0633
27.5343
41.1246
39.2554
54.0394
44.8924
45.4545
50.1568
58.0712
64.4394
73.6414
78.6504
85.7979
88.3837
90.6336
89.3516
87.3588
82.3292
77.5961
70.4295
63.1471
53.3949
40.97
22.0469
6.55733
5.08797
4.54202
3.47501
2.81172
2.86055
3.19613
5.53391
19.2865
23.8537
22.568
19.2391
17.4709
18.1159
20.0626
20.9349
19.2971
15.8261
13.8207
12.7206
12.1311
19.8537
57.277
56.9376
54.8816
51.1259
53.0704
56.2999
59.7946
62.6277
65.2591
66.5702
61.8237
54.2133
43.9328
36.4851
32.678
30.3952
30.3811
30.8383
32.2891
35.3984
38.9225
44.0385
50.8691
61.2629
71.9131
69.0632
55.4047
41.4336
33.8985
42.9425
82.2944
58.5667
63.1251
70.8137
73.9508
66.2043
64.219
56.7901
54.0997
53.6136
58.3883
65.21
72.9373
82.1759
88.6502
96.5836
103.429
104.831
101.025
96.888
91.8263
84.0683
84.2736
86.2884
98.5098
97.1067
78.0195
47.4752
28.081
25.6579
56.5453
34.3343
38.7224
45.6502
54.7754
65.5388
79.8338
97.6718
117.38
126.852
129.282
118.271
103.996
100.882
99.2851
104.084
107.212
124.072
126.922
141.911
151.727
171.349
182.051
184.478
171.232
146.824
121.427
101.525
69.2871
65.5854
110.659
86.8925
99.1045
112.345
121.214
128.875
135.77
143.514
130.363
114.053
105.587
98.1638
95.0796
92.1477
91.8137
90.8403
90.3692
89.8164
87.0673
87.645
97.1536
115.604
142.482
159.209
159.695
146.508
113.616
69.8624
39.0359
38.104
77.207
64.5709
65.3743
64.5239
62.8479
66.6481
67.734
62.3791
65.0673
69.9691
75.2826
85.2939
94.2337
97.5735
97.6057
95.7419
92.45
90.9378
86.2048
88.1117
80.5849
79.2432
75.591
73.4434
73.5465
75.1839
75.5666
72.0784
63.6976
81.1826
45.479
40.459
53.2431
64.5092
59.8249
56.1175
59.2876
67.5716
80.5622
110.358
155.789
167.578
172.906
165.415
153.292
133.501
121.332
110.907
103.876
96.7098
88.3995
79.3819
71.8871
67.5358
68.4324
75.5196
87.1835
99.1556
106.043
92.7995
85.83
82.6824
91.7796
89.7062
82.1191
76.181
75.1707
76.3069
80.5778
86.0102
89.5433
88.7448
83.668
80.0143
80.8567
84.0675
89.1832
91.6843
94.9446
97.2122
99.8314
96.3603
95.8914
89.2998
80.2052
70.876
67.8071
75.7168
82.0753
68.2795
89.6239
74.7987
80.9694
80.7061
79.1222
80.3085
83.0342
85.0096
85.3071
80.3565
78.5882
78.5754
86.1717
93.3555
97.9756
100.763
104.331
112.759
107.033
112.991
102.98
105.175
93.0992
87.7275
80.6734
79.2603
74.9314
68.6824
55.1571
49.1662
64.0377
49.2748
55.3299
57.0393
61.5004
63.4597
61.9964
57.8922
70.2723
98.7057
159.943
191.457
217
213.618
201.393
201.759
203.158
210.628
213.982
202.485
193.323
152.452
139.036
123.558
125.934
127.895
115.789
89.7585
68.8671
71.9002
82.572
53.4151
52.0757
45.3675
42.2406
46.3649
60.3409
79.5846
97.2228
116.124
146.796
173.447
187.607
197.966
194.925
193.986
201.676
204.241
217.732
224.839
235.921
242.521
249.932
253.124
236.592
205.804
163.196
115.131
79.9299
92.1754
89.7023
69.2528
92.1151
107.36
117.256
128.804
136.749
141.957
145.865
149.137
150.158
147.388
137.351
126.018
117.734
96.5864
74.6607
59.5435
54.5301
54.0989
63.5602
81.9536
92.7731
106.73
117.274
125.375
101.698
66.8345
39.2931
28.8618
51.2823
47.2881
50.4199
44.4866
46.7071
52.5978
60.856
67.3184
75.5781
79.6366
85.1731
86.0693
87.2221
87.0146
83.0679
82.6936
77.9692
74.8933
68.4121
60.6244
49.5036
32.1802
10.1143
6.62759
5.66887
3.98822
3.06805
3.09332
3.70304
6.02088
21.3378
24.8368
20.7391
16.4065
14.7409
15.5854
17.866
19.2066
18.6084
15.933
14.5095
13.6202
13.5073
22.7001
67.3033
64.0829
57.879
56.8392
59.5581
60.9465
61.8614
64.0229
68.9957
71.9557
67.961
55.5714
44.9661
36.5193
32.4489
30.0456
28.7238
27.1414
26.6883
27.1278
29.3904
33.7767
40.8351
52.4534
65.5165
69.3065
58.445
44.5675
36.9169
47.094
90.1641
62.2549
64.3845
69.6031
70.6405
63.4976
59.6966
55.7663
55.081
56.095
62.3693
71.4344
80.1154
88.4556
94.2315
104.137
110.637
104.027
93.0119
84.9131
79.572
75.6639
78.6128
82.4175
96.1941
100.678
81.1567
53.3252
33.3402
28.257
57.0345
36.3933
39.745
46.6073
54.6855
66.1296
80.122
97.9425
123.281
143.916
145.748
124.072
109.271
95.1358
84.1172
87.398
85.8075
93.9194
97.7951
116.297
127.225
142.452
169.037
185.351
185.836
165.871
138.403
116.237
86.3922
76.6774
115.743
89.1926
101.853
112.98
121.489
127.798
134.284
130.43
107.3
94.1081
84.1986
79.6892
77.42
78.372
79.9085
81.1206
80.3038
78.1597
74.6414
75.2624
81.1384
104.975
135.223
157.172
163.54
158.858
128.781
82.7421
46.9073
40.9239
84.4659
73.0428
64.1487
66.3397
68.5397
66.8295
67.7882
70.2825
71.427
77.3934
88.7204
95.3449
100.311
102.844
97.7617
90.6137
81.0524
74.4138
67.5322
64.8531
65.5933
64.929
65.5657
66.475
68.5932
71.8681
74.4694
72.7223
66.0995
82.0002
49.6468
48.5993
61.9668
66.5998
58.2277
56.6651
61.1282
66.254
73.3863
89.4185
132.819
166.094
179.079
177.063
167.619
148.126
137.286
129.662
127.313
122.207
114.976
104.944
93.9593
83.6507
76.5912
77.816
89.1505
106.331
120.38
96.7327
90.9156
89.7066
92.8002
83.918
76.4718
72.1737
70.9619
74.1097
80.344
89.5108
96.8423
99.692
97.3448
97.4869
101.082
105.725
104.919
104.759
104.583
105.696
105.998
105.64
99.2391
95.1364
89.5331
77.0213
71.3914
77.1355
91.2622
71.6583
95.9207
83.8074
85.2247
80.6469
78.2327
80.1225
85.4282
89.3401
87.1077
81.7142
78.58
87.0744
96.5551
109.317
111.643
120.131
114.942
117.44
106.182
108.034
99.0886
100.911
93.4404
91.7251
86.3182
82.4067
78.2162
74.5013
60.5852
53.0503
69.4691
56.9202
61.9525
63.8062
66.293
64.2167
58.6901
60.2104
82.3536
115.379
179.513
199.742
212.122
191.725
162.245
148.296
140.04
146.983
163.493
165.799
162.478
129.13
116.67
117.104
116.053
125.342
127.071
105.662
81.9832
81.0499
85.5506
59.2221
52.6379
44.5444
43.6791
52.7567
68.0403
85.0786
106.578
133.114
170.195
186.692
181.861
169.54
154.723
163.534
161.684
167.753
172.083
180.171
193.367
211.776
226.089
243.098
236.359
214.485
179.062
128.629
88.5728
95.0548
97.1653
85.6192
107.484
113.435
114.102
115.75
118.912
120.345
126.269
137.233
147.65
146.789
137.769
127.556
121.185
113.775
85.8348
61.6091
51.32
49.2982
53.757
63.8662
75.9811
93.5538
109.385
118.864
99.3118
64.5585
40.2959
28.6522
61.0326
55.2973
48.5688
44.792
48.0899
54.4819
62.4965
67.8617
74.9995
75.7317
79.6456
77.0416
77.539
75.2158
76.1866
73.8919
75.3706
73.1526
70.0797
65.2793
54.7069
39.9747
15.0403
7.26509
6.60387
4.53851
3.46503
3.51756
4.25151
6.56925
22.9491
24.3524
18.6122
14.5017
13.6876
14.9694
16.7885
18.0961
17.5149
15.9819
14.8629
14.4114
15.0995
25.5299
75.9931
73.3403
64.364
63.8734
62.6228
59.3964
56.8525
59.1535
66.5296
75.3464
72.9107
62.137
49.3047
41.295
37.3574
35.7206
32.42
29.025
26.0375
24.2812
25.1754
28.1392
34.4526
45.8715
60.404
66.4615
59.2285
46.1948
39.7097
52.35
94.5165
66.4426
63.1315
65.1866
66.0122
60.4297
57.2538
54.3819
54.9485
59.1626
66.9231
75.9926
84.6976
92.7466
97.1706
108.501
113.791
96.1153
80.8183
70.3361
68.9102
68.8653
74.7533
82.4351
97.4851
98.3965
83.2376
56.6678
39.0959
30.1759
57.4179
38.0765
40.6213
46.0761
54.7012
65.0184
77.8718
93.9724
124.295
153.787
157.316
142.522
119.511
93.9863
85.2922
79.9198
69.5681
72.3283
75.9077
89.8877
106.19
130.667
155.592
179.657
185.309
168.852
146.497
127.589
99.1169
85.9226
118.998
91.4276
102.182
112.858
120.489
127.56
132.724
115.545
94.4779
79.3422
71.8366
67.1874
66.9907
67.0484
67.4376
66.4686
65.7105
63.5802
64.1734
64.7532
72.423
92.6406
128.497
158.548
164.752
162.549
139.972
90.4654
52.5692
44.1469
94.1188
78.465
69.9068
63.9817
67.6625
70.2164
67.7545
70.7352
80.0708
86.866
92.8071
106.013
109.171
102.499
92.086
81.4892
69.7988
57.908
48.7179
45.2055
49.2766
53.5776
58.1282
62.1505
66.2152
70.6286
74.5433
73.0621
67.9276
81.2358
55.8281
59.0832
69.2297
67.2195
58.7424
59.0901
62.3945
66.8417
71.4616
80.2453
102.833
157.829
177.455
181.084
176.916
158.036
146.605
140.12
140.046
138.354
134.595
126.894
116.334
104.216
94.2452
89.6006
97.2816
115.979
136.165
105.847
100.24
97.0896
93.458
81.7221
72.3781
67.035
66.3474
69.9383
79.1428
90.7899
103.388
108.694
111.387
113.147
117.162
112.6
109.346
106.5
108.296
105.501
101.073
99.3301
96.2701
95.2319
89.9307
84.8578
75.0056
82.399
96.1132
71.4354
102.672
92.4535
87.9421
79.6192
76.689
80.2828
87.0131
92.2248
87.5285
80.2997
83.3115
96.5281
116.629
132.639
141.895
143.618
135.54
125.063
110.202
107.71
94.3037
95.9725
90.7663
91.1562
85.7663
82.3656
79.4046
77.6598
64.287
54.7138
76.1932
68.6724
71.034
72.1507
70.2613
61.9664
58.093
66.4663
89.5796
128.028
178.498
187.501
207.997
168.732
150.2
125.585
103.706
100.97
116.186
124.621
132.068
109.975
98.9857
102.62
114.879
121.37
129.972
113.799
88.2541
83.2491
88.9478
64.4928
53.2594
46.9006
48.9603
57.4258
72.3796
90.3774
118.093
150.924
185.061
180.897
167.102
156.877
150.627
159.597
132.426
136.958
109.407
125.196
152.322
181.434
206.708
232.116
228.151
209.485
186.223
136.087
94.3994
96.9675
106.684
102.084
115.164
109.091
102.6
97.9607
92.9947
93.8328
96.0341
101.364
109.638
121.006
126.718
119.58
116.331
119.456
102.126
67.8427
52.6017
49.2623
54.766
63.2137
73.2775
88.4023
103.049
112.358
89.1582
61.8398
43.8763
27.4513
71.0532
60.5977
48.9511
45.2557
49.0365
55.8576
62.3675
67.1732
71.6238
70.3058
70.5331
65.7963
64.3974
62.6023
63.4227
64.6493
68.0457
69.4917
69.6739
66.0548
58.7228
45.1793
21.1394
7.32642
6.971
5.49298
4.45489
4.91009
5.74865
9.40809
23.7466
23.4128
16.9402
13.7255
13.4593
15.3479
17.1798
17.8125
17.4475
16.0854
15.3908
15.3735
16.957
29.2102
87.1481
82.7956
69.2659
65.1497
59.0979
51.9187
48.8111
51.8506
61.9286
73.2652
78.7418
67.5792
53.4735
45.8085
43.7116
41.3297
38.0539
33.0623
27.2394
24.1684
24.259
27.142
32.8506
44.0163
57.4853
63.9668
57.5027
46.6744
43.0985
58.7013
101.833
71.8754
61.6568
60.8415
63.6031
57.4691
56.243
53.4511
55.9872
61.5857
70.3555
79.1334
86.315
93.2748
98.1699
109.165
109.727
88.4772
68.6231
63.6137
62.6012
68.2185
73.8764
85.6631
95.6369
97.8347
80.5597
59.3938
45.6273
33.1277
59.4727
40.1362
40.7485
45.0779
53.3763
65.1626
76.8211
89.9086
112.683
147.87
173.604
156.474
130.734
104.281
92.9455
83.8493
72.5387
69.4985
61.8727
76.9069
94.1461
118.248
153.012
182.062
194.414
184.516
162.451
138.391
105.753
96.5451
123.744
91.423
101.111
111.344
120.199
126.317
131.594
110.671
85.6241
73.5729
65.2638
62.149
60.76
59.8591
57.2719
52.7789
47.9559
46.9466
49.1353
54.7938
64.7372
87.6993
119.246
157.741
162.162
165.806
143.37
94.3653
57.6344
47.0441
103.842
76.0835
71.7215
68.6954
62.9835
64.5875
68.0665
69.6363
74.4286
87.2202
99.1247
102.589
106.002
96.6836
85.6257
78.5818
68.2937
54.1407
41.4121
37.026
41.5731
50.4264
55.9355
62.7829
68.2169
72.3011
74.2142
73.5533
66.9556
75.2898
60.3209
69.6429
76.4623
66.933
60.029
59.8181
63.0672
67.0918
71.7062
76.3117
89.0662
125.048
166.846
179.657
180.472
165.421
151.565
143.897
144.106
146.764
146.486
140.617
128.595
115.309
105.334
101.303
106.989
127.594
155.821
121.308
113.089
105.78
95.0638
79.6947
69.1977
61.6896
58.8934
64.7713
75.4088
89.3607
105.246
117.845
120.306
122.24
119.866
113.683
112.32
113.195
115.665
106.245
98.4291
90.2121
83.2273
87.4786
86.7352
86.3302
81.4562
86.6773
100.264
68.4351
109.787
99.8428
89.8895
79.0213
74.7342
78.676
88.674
94.5075
88.2621
81.6937
88.5914
113.643
138.024
166.169
161.495
145.854
133.776
123.031
109.636
99.8601
91.8718
89.0676
87.163
86.0144
84.417
81.2516
81.8572
80.7292
68.0661
61.5785
86.3455
83.9834
82.9835
79.9925
69.743
60.7388
60.5917
70.6908
95.5081
127.934
162.69
192.048
195.818
156.155
149.75
133.523
111.601
94.164
94.1856
96.2084
92.4603
91.7146
88.4615
98.0844
112.241
130.458
134.136
125.269
98.5421
85.91
94.2411
68.738
55.2989
50.9407
53.1106
59.8249
75.7079
95.4677
128.432
164.546
185.237
174.915
160.561
164.711
159.962
162.742
151.562
151.634
126.33
115.942
138.319
170.717
198.527
227.099
216.677
199.719
183.159
133.949
95.8374
97.975
117.59
115.81
116.195
101.905
91.7874
86.6832
84.2428
82.7432
84.2591
87.2183
89.4565
94.572
102.184
107.001
100.042
112.235
113.681
79.6927
55.0262
49.5884
53.186
62.8619
76.0787
88.2614
99.585
95.521
77.8173
59.0794
53.1637
30.1371
81.3048
66.8871
50.2158
45.9232
49.4719
56.114
62.2472
65.0654
68.2993
63.9601
61.9797
52.5103
47.9797
44.093
50.318
55.1099
62.5746
65.5373
66.8687
66.5242
60.3806
48.4256
27.4551
8.50336
6.82967
7.21829
7.49394
8.99951
11.4993
21.2113
23.644
22.1333
15.8526
13.4462
13.9077
16.2364
18.0371
18.2431
17.4808
16.5975
17.2428
20.7258
25.0976
31.5821
72.1971
124.237
116.335
98.4654
77.6596
66.4869
55.1897
47.0133
43.644
47.237
55.5968
71.5272
80.3651
71.9093
56.7238
50.1016
47.4281
46.5717
43.9691
37.7515
31.4911
27.4269
27.1957
29.8336
35.5415
45.7661
56.9247
60.9619
54.4053
47.0781
46.3722
57.8545
82.6618
82.9194
97.9559
77.3782
61.6153
55.391
59.0608
54.5144
54.5783
52.7778
56.7757
63.2521
72.2561
80.5446
85.8899
90.9541
96.6781
105.187
103.639
80.2666
64.8482
58.8535
63.1677
68.034
77.1399
84.4747
94.804
89.8677
74.9743
63.5742
53.8955
41.3173
47.4161
58.2668
51.1361
40.9145
40.3787
43.9321
52.4262
63.7371
76.1249
83.916
98.4388
136.17
171.089
163.423
149.909
116.294
102.58
94.7887
86.8367
79.9848
74.514
80.1748
93.3605
119.3
147.127
178.628
187.111
177.868
160.032
138.818
109.53
93.7086
113.81
115.507
83.2832
86.9484
98.4967
109.886
118.36
124.736
129.153
106.897
85.9912
71.5984
65.883
63.2174
61.2923
59.4956
56.7773
50.6452
42.5192
37.803
40.45
46.7401
60.3166
81.2026
114.103
144.868
160.431
161.778
138.332
94.0929
61.4049
50.0995
61.3113
83.5342
98.8822
79.4135
68.04
65.9934
62.9389
55.6362
55.6237
60.8148
68.6142
78.0109
92.6049
106.319
104.403
98.1887
86.7991
76.6272
67.0908
57.6665
48.3377
45.4564
50.3019
55.5967
61.3187
68.2999
73.0114
74.5036
77.5878
72.2675
65.4106
69.1053
68.4824
94.1133
77.5427
89.4655
82.1766
68.2334
61.149
60.1712
62.1856
64.7617
67.2724
74.3294
79.9776
100.591
152.84
172.03
179.689
170.736
158.176
148.621
149.787
152.899
152.348
141.937
126.514
113.933
99.6899
95.1879
106.75
131.496
171.319
171.546
163.128
144.568
138.458
117.507
96.6243
78.8822
64.5565
54.0042
50.7584
56.2973
69.4965
83.5747
102.949
117.126
124.679
121.51
119.891
117.145
127.147
130.135
137.488
116.15
98.1035
86.5212
77.1653
83.2882
87.5499
91.2671
85.5469
89.7358
100.003
80.2994
73.6371
111.443
131.802
108.311
91.9491
77.6521
71.0043
75.0927
86.7505
96.7403
90.0158
83.4904
93.7337
126.4
162.978
185.079
170.947
147.606
124.104
106.859
100.311
86.0254
85.7297
83.8954
80.2136
83.633
82.3991
83.117
85.6993
79.9294
71.305
68.4548
99.2099
111.44
111.985
108.199
95.9576
80.6926
66.1551
60.5199
63.0714
75.663
94.4073
120.899
163.478
186.943
177.225
166.198
149.013
144.634
133.01
115.583
107.973
91.1522
91.1182
87.1785
95.8224
105.759
125.23
139.936
150.08
126.483
95.642
66.7549
83.8226
122.296
105.599
76.609
63.0172
56.4633
54.5995
64.1807
79.9822
99.1197
130.611
169.474
180.284
177.643
168.569
175.31
177.852
199.057
188.375
205.057
192.21
179.496
180.136
196.503
212.402
225.597
203.037
190.582
171.637
125.822
95.1591
91.8837
99.9592
111.366
126.163
126.306
114.6
95.1876
84.4184
77.1439
75.4748
77.1423
78.1352
81.4665
83.0362
82.5094
84.8707
94.7644
87.8008
93.5605
114.428
100.329
61.7699
48.9039
48.6394
55.8134
65.7733
75.5127
80.5527
76.7111
67.0134
57.9168
69.1357
70.8415
82.8001
107.385
87.3392
69.5362
52.6137
46.5962
49.2166
55.5279
60.804
63.8858
63.9134
62.3676
55.4489
44.9584
34.1238
30.8768
41.1628
50.7664
60.2224
62.335
66.2673
66.2077
61.2571
49.9483
32.2834
11.4932
5.83812
9.63672
13.7324
18.8939
20.4733
15.0845
6.57361
2.99089
23.1964
21.211
15.6261
13.4446
14.2054
17.1778
18.9329
18.6193
18.3526
19.7771
28.0239
45.093
61.0739
74.7994
106.215
145.774
135.004
92.1365
69.2031
53.5622
45.8347
41.2738
41.0906
42.6833
51.8476
66.8812
79.5046
73.7094
60.8596
52.226
50.8581
51.3291
49.2237
44.7233
38.5653
34.7223
34.0239
36.4495
41.9955
50.3295
56.9845
57.6373
52.2029
47.8567
50.8488
56.5798
56.4661
62.9076
95.5487
77.2895
61.1375
52.8329
53.3675
49.4866
51.5285
51.6691
57.5197
65.635
72.4375
79.0475
82.8172
86.9422
89.9195
99.2386
95.2663
78.2999
62.4134
59.3891
61.7733
68.5436
73.9246
83.1483
84.5513
80.3969
72.4115
67.7853
59.52
50.5396
43.6669
39.4592
43.6988
41.3007
40.9778
43.7552
50.2348
60.6409
70.8638
79.2972
87.7465
114.066
152.759
167.477
159.498
132.641
115.293
105.381
102.703
102.143
93.401
100.901
111.351
126.539
153.729
172.243
184.634
177.636
162.84
135.403
110.977
94.7849
75.9923
67.3804
72.3184
82.287
94.8429
106.381
116.231
120.745
125.924
111.704
88.1819
76.156
69.6026
65.255
65.2555
65.227
63.5132
59.7182
51.1204
44.7087
42.4788
48.2226
58.4428
79.0209
105.36
136.576
154.835
148.335
127.044
87.0311
60.1915
54.1777
50.6982
58.529
87.268
77.3963
68.3987
59.77
52.3688
47.8614
44.7608
47.2014
56.6427
70.5348
85.4853
93.3587
99.9732
90.2684
80.9151
76.4717
71.4689
67.4344
63.268
61.9186
64.0419
67.3614
73.3214
76.9771
76.8986
80.0208
76.4859
68.4771
65.6462
65.1422
69.511
91.3601
97.0077
92.4051
82.3118
68.6861
61.471
60.1273
59.991
59.7521
63.0553
66.7118
75.6913
88.0405
116.553
160.539
175.128
174.428
167.054
159.103
158.219
157.677
150.08
134.613
118.503
106.706
101.32
95.4639
91.165
126.611
172.397
195.907
154.513
109.971
139.448
118.981
97.1124
76.4503
60.6717
48.1094
43.7514
50.7645
63.9497
76.6112
93.6984
111.971
118.615
117.808
118.52
127.463
141.073
153.696
164.858
145.551
127.047
111.789
96.9686
100.657
97.3142
96.1104
87.4518
92.0095
97.6334
81.3832
59.7508
93.4843
133.208
111.356
91.9919
74.7312
65.1707
68.2912
81.8034
95.3881
93.8403
84.9459
95.0516
131.346
167.25
195.219
171.637
147.719
118.815
103.202
96.8004
88.7646
88.633
84.5313
82.0931
85.9399
87.8271
90.026
91.8213
79.1165
71.4143
68.6458
88.6316
119.581
144.084
123.475
96.3224
71.2595
60.5404
59.2617
66.4785
75.7711
90.5791
117.706
149.568
171.973
179.593
169.177
156.173
150.455
153.176
149.792
143.438
122.931
121.838
113.185
119.328
129.69
139.099
168.694