/*--------------------------------*- C++ -*----------------------------------*\
| =========                 |                                                 |
| \\      /  F ield         | OpenFOAM: The Open Source CFD Toolbox           |
|  \\    /   O peration     | Version:  2.1.1                                 |
|   \\  /    A nd           | Web:      www.OpenFOAM.org                      |
|    \\/     M anipulation  |                                                 |
\*---------------------------------------------------------------------------*/
FoamFile
{
    version     2.0;
    format      ascii;
    class       volScalarField;
    location    "0.001800000";
    object      alphat;
}
// * * * * * * * * * * * * * * * * * * * * * * * * * * * * * * * * * * * * * //

dimensions      [1 -1 -1 0 0 0 0];

internalField   nonuniform List<scalar> 
12384
(
5.75802e-07
5.23852e-07
4.72761e-07
5.29889e-07
2.68588e-06
6.20104e-06
1.61708e-05
1.95541e-05
5.86725e-06
4.00123e-06
3.10223e-06
3.72355e-06
6.0799e-06
9.45218e-06
9.65979e-06
5.55413e-06
4.52845e-06
3.86663e-06
3.58243e-06
4.98381e-06
4.66001e-06
6.37471e-06
9.27163e-06
1.44388e-05
1.76733e-05
1.86368e-05
2.23921e-05
1.78749e-05
1.91748e-05
2.43866e-05
2.26956e-05
3.19564e-05
2.54829e-05
1.27993e-05
6.87252e-06
3.6299e-06
2.91681e-06
2.48259e-06
2.35543e-06
3.04593e-06
2.9837e-06
3.61333e-06
4.26628e-06
4.14685e-06
4.82226e-06
2.19198e-06
1.39419e-06
1.02273e-06
8.39918e-07
7.808e-07
8.31496e-07
9.94859e-07
1.23347e-06
1.66801e-06
2.17972e-06
3.29094e-06
5.00073e-06
5.91286e-06
5.04824e-06
3.40673e-06
2.4617e-06
1.72662e-06
1.28168e-06
1.02331e-06
8.89651e-07
7.9884e-07
7.81242e-07
8.21913e-07
9.40543e-07
1.11727e-06
1.3783e-06
1.82793e-06
2.79662e-06
5.85429e-06
1.51374e-05
1.2245e-05
1.51819e-05
8.7446e-06
3.88472e-06
2.28122e-06
1.56461e-06
1.18655e-06
9.70205e-07
8.31896e-07
7.45718e-07
6.90149e-07
6.51887e-07
6.24213e-07
5.98605e-07
5.82911e-07
5.67856e-07
5.61635e-07
5.61251e-07
5.70232e-07
5.96985e-07
6.48019e-07
7.25893e-07
8.018e-07
9.42441e-07
1.11557e-06
1.40226e-06
1.91815e-06
3.04469e-06
7.43491e-06
1.12814e-05
6.97098e-06
4.75381e-06
3.66604e-06
3.06074e-06
2.67927e-06
2.44821e-06
2.29604e-06
2.22394e-06
2.1975e-06
2.19158e-06
2.22241e-06
2.25623e-06
2.33484e-06
2.41911e-06
2.54931e-06
2.68652e-06
2.87813e-06
3.0827e-06
3.35378e-06
3.65818e-06
4.05826e-06
4.59325e-06
5.28768e-06
6.2058e-06
7.45497e-06
9.5386e-06
1.32308e-05
2.16004e-05
5.46137e-05
0.000137558
0.000130367
9.64361e-05
8.16043e-05
7.13645e-05
6.57411e-05
6.2916e-05
6.33001e-05
6.51989e-05
6.8474e-05
7.32075e-05
7.94488e-05
8.70411e-05
9.65002e-05
0.000107304
0.000120388
0.000135048
0.000137299
0.000137264
0.000137269
0.000137243
0.000137249
0.000137225
0.000137229
0.000137216
0.000137206
0.000137208
0.000137198
0.000137196
0.000137139
0.000137114
0.000137178
0.000137184
0.000137185
0.000137186
0.000137187
0.000137189
0.000137192
0.000137193
0.000137197
0.000137196
0.0001372
0.000137203
0.000137207
0.000137207
0.00013721
0.000137206
0.000137205
0.000137198
0.000137197
0.000137194
0.000137193
0.00013719
0.00013719
0.000137187
0.000137187
0.000137184
0.000137185
0.00013718
0.000137115
0.000137114
0.000137179
0.000137181
0.000137185
0.000137185
0.00013719
0.000137191
0.000137194
0.000137194
0.000137197
0.000137197
0.000137201
0.000137203
0.000137207
0.000137208
0.00013721
0.000137206
0.000137204
0.000137199
0.000137198
0.000137195
0.000137194
0.000137191
0.00013719
0.000137187
0.000137185
0.000137182
0.000137181
0.000137176
0.000137124
0.000137124
0.000137177
0.000137178
0.000137183
0.000137183
0.000137188
0.000137189
0.000137192
0.000137192
0.000137196
0.000137196
0.000137199
0.000137202
0.000137207
0.000137207
0.00013721
0.000137205
0.000137204
0.000137199
0.000137197
0.000137195
0.000137194
0.000137191
0.00013719
0.000137187
0.000137185
0.000137183
0.000137181
0.000137176
0.000137124
0.000137126
0.000137174
0.000137179
0.000137183
0.000137187
0.000137188
0.000137192
0.000137192
0.000137195
0.000137196
0.000137198
0.000137199
0.000137204
0.000137205
0.000137209
0.000137207
0.000137208
0.000137202
0.000137198
0.000137197
0.000137194
0.000137193
0.00013719
0.00013719
0.000137188
0.000137186
0.000137183
0.000137183
0.000137178
0.000137115
0.000137126
0.000137177
0.000137178
0.000137183
0.000137183
0.000137188
0.000137189
0.000137192
0.000137193
0.000137196
0.000137196
0.0001372
0.000137202
0.000137207
0.000137207
0.00013721
0.000137206
0.000137204
0.000137198
0.000137198
0.000137195
0.000137194
0.00013719
0.00013719
0.000137186
0.000137184
0.000137182
0.000137181
0.000137176
0.000137124
0.000137115
0.000137178
0.000137181
0.000137185
0.000137186
0.00013719
0.00013719
0.000137193
0.000137194
0.000137197
0.000137197
0.000137201
0.000137203
0.000137208
0.000137211
0.000137211
0.000137208
0.000137204
0.000137201
0.000137197
0.000137197
0.000137195
0.000137194
0.000137191
0.000137191
0.000137186
0.000137185
0.000137181
0.000137178
0.000137116
0.000137126
0.000137178
0.00013718
0.000137185
0.000137187
0.00013719
0.000137193
0.000137193
0.000137196
0.000137197
0.000137199
0.0001372
0.000137204
0.000137208
0.000137208
0.00013721
0.000137205
0.000137206
0.000137201
0.000137199
0.000137197
0.000137195
0.000137192
0.000137191
0.000137187
0.000137185
0.000137183
0.000137182
0.000137176
0.000137125
1.23467e-06
1.72487e-06
2.24644e-06
2.54732e-06
9.49065e-06
2.41751e-05
3.45966e-05
3.98499e-05
4.21722e-05
4.00622e-05
3.17706e-05
2.70667e-05
2.77009e-05
9.28928e-06
1.72817e-05
3.15885e-05
3.10154e-05
2.90647e-05
2.20398e-05
1.93722e-05
1.81616e-05
1.80353e-05
1.98472e-05
2.14841e-05
2.46881e-05
3.13963e-05
3.24431e-05
4.46652e-05
5.73715e-05
6.54788e-05
7.82288e-05
8.62347e-05
9.09174e-05
9.03454e-05
9.21245e-05
8.8225e-05
8.35756e-05
7.55022e-05
6.62468e-05
5.21043e-05
3.93684e-05
3.09789e-05
2.6899e-05
2.78186e-06
2.2618e-06
1.96346e-05
1.62279e-05
1.5786e-05
1.70606e-05
1.99231e-05
2.29273e-05
2.7161e-05
2.91819e-05
3.03389e-05
2.88142e-05
2.83109e-05
2.9395e-05
3.15618e-05
3.36687e-05
3.54031e-05
3.48885e-05
3.40525e-05
3.31588e-05
3.07809e-05
2.86745e-05
2.5563e-05
2.22417e-05
1.94994e-05
1.62725e-05
1.43556e-05
1.29788e-05
1.27486e-05
1.4593e-05
2.94398e-06
7.56708e-06
4.17885e-05
3.10518e-05
2.32289e-05
1.77001e-05
1.41614e-05
1.1872e-05
1.03753e-05
9.35494e-06
8.61565e-06
8.0569e-06
7.59887e-06
7.19869e-06
6.89166e-06
6.60481e-06
6.42245e-06
6.30452e-06
6.2828e-06
6.32569e-06
6.54011e-06
6.82281e-06
7.2863e-06
8.09586e-06
9.18298e-06
1.10501e-05
1.42722e-05
2.00482e-05
2.26698e-05
7.36543e-06
4.87328e-06
4.96586e-06
4.51767e-06
4.05491e-06
3.73206e-06
3.73172e-06
3.93302e-06
4.16955e-06
4.31946e-06
4.3064e-06
4.22378e-06
4.00595e-06
3.77284e-06
3.5085e-06
3.30259e-06
3.12418e-06
3.04229e-06
3.03326e-06
3.13823e-06
3.30215e-06
3.57124e-06
3.92797e-06
4.34555e-06
4.88018e-06
5.56362e-06
6.52074e-06
7.91356e-06
1.01164e-05
1.38447e-05
2.19107e-05
4.70542e-05
6.72003e-05
6.63637e-05
6.15579e-05
5.9739e-05
5.89405e-05
5.61774e-05
5.49266e-05
5.64055e-05
5.91477e-05
6.30066e-05
6.81387e-05
7.47834e-05
8.32117e-05
9.37422e-05
0.000105868
0.000120204
0.000137366
0.000158853
0.000186121
0.000219749
0.000263531
0.000318442
0.000386969
0.000484575
0.000642717
0.000744401
0.000744527
0.000744552
0.000716773
0.000138151
0.00013809
0.000717974
0.000744314
0.000744449
0.00074462
0.000744614
0.000744746
0.000744472
0.000744521
0.000744168
0.000744204
0.000743782
0.000743643
0.000743314
0.000743259
0.000743093
0.000743419
0.000743504
0.000744027
0.000744045
0.000744336
0.000744297
0.000744538
0.000744413
0.000744589
0.000744396
0.000744578
0.00074438
0.000718004
0.000138095
0.000138088
0.00071824
0.00074471
0.000744581
0.000744651
0.000744452
0.000744571
0.000744313
0.000744393
0.000744068
0.000744137
0.000743739
0.000743623
0.000743277
0.000743199
0.000743067
0.000743432
0.000743476
0.000743962
0.000743998
0.000744326
0.000744253
0.00074454
0.000744387
0.000744596
0.000744354
0.000744523
0.000744549
0.000716706
0.000138133
0.00013813
0.000717018
0.000744672
0.000744465
0.000744577
0.000744375
0.000744558
0.000744302
0.00074442
0.000744082
0.000744164
0.000743797
0.00074364
0.000743284
0.000743198
0.000743062
0.000743416
0.000743463
0.000743937
0.000743992
0.000744332
0.000744267
0.000744561
0.000744417
0.000744627
0.000744376
0.000744523
0.000744531
0.000716681
0.000138133
0.000138138
0.000717002
0.000744668
0.000744686
0.000744414
0.000744571
0.00074433
0.000744461
0.000744159
0.000744233
0.00074392
0.000743901
0.000743436
0.000743454
0.000743099
0.000743224
0.000743294
0.000743722
0.000743846
0.000744057
0.000744168
0.000744198
0.000744451
0.000744332
0.000744536
0.000744388
0.000744654
0.000744531
0.000718193
0.00013809
0.000138139
0.000716942
0.000744658
0.000744456
0.000744565
0.000744354
0.000744533
0.000744263
0.000744366
0.000744029
0.00074412
0.000743755
0.000743623
0.000743292
0.000743211
0.000743066
0.000743418
0.000743481
0.000743955
0.000744004
0.000744337
0.000744282
0.000744572
0.000744438
0.00074465
0.000744399
0.00074453
0.000744515
0.000716655
0.000138133
0.000138088
0.00071775
0.000744352
0.000744546
0.000744693
0.000744593
0.000744718
0.000744446
0.000744505
0.000744149
0.000744191
0.00074375
0.000743626
0.000743275
0.000743149
0.000743149
0.000743264
0.000743602
0.000743746
0.000744162
0.000744112
0.000744435
0.000744356
0.000744596
0.00074445
0.000744565
0.000744463
0.000744496
0.000717853
0.000138087
0.000138135
0.000716924
0.00074464
0.000744431
0.000744551
0.000744361
0.000744615
0.000744392
0.000744572
0.000744253
0.000744341
0.000743921
0.000743759
0.000743313
0.000743262
0.000743084
0.000743411
0.000743491
0.000743903
0.000743968
0.000744359
0.000744316
0.000744641
0.000744518
0.000744728
0.000744468
0.000744551
0.000744474
0.000716559
0.000138133
2.08942e-06
2.27012e-06
2.97944e-06
3.84365e-06
1.28567e-05
2.32948e-05
2.84602e-05
2.49906e-05
2.99185e-05
3.71596e-05
3.73306e-05
3.23807e-05
3.34301e-05
6.52756e-06
7.85124e-06
3.2976e-05
1.88834e-05
1.351e-05
5.94245e-06
7.04722e-06
8.21216e-06
9.55787e-06
1.05658e-05
1.10303e-05
1.24251e-05
1.40735e-05
1.67276e-05
1.79706e-05
1.77313e-05
1.78305e-05
4.294e-05
5.61293e-05
6.25432e-05
6.52899e-05
6.78748e-05
6.92421e-05
6.56774e-05
6.26697e-05
5.63256e-05
4.79848e-05
3.98691e-05
3.39508e-05
2.8503e-05
3.73185e-06
2.80138e-06
2.12542e-05
2.13687e-05
2.34318e-05
2.83088e-05
3.5979e-05
4.63575e-05
5.40146e-05
5.66953e-05
5.57734e-05
5.13506e-05
4.48807e-05
4.05897e-05
3.82784e-05
3.80626e-05
3.75228e-05
3.68155e-05
3.4395e-05
3.15202e-05
2.96149e-05
2.69253e-05
2.43721e-05
2.19554e-05
1.94802e-05
1.7992e-05
1.67833e-05
1.48371e-05
1.26244e-05
1.28319e-05
1.8438e-06
4.422e-06
2.40291e-05
1.908e-05
1.59068e-05
1.35485e-05
1.18974e-05
1.07212e-05
9.8613e-06
9.23744e-06
8.79989e-06
8.47282e-06
8.2512e-06
8.10383e-06
7.9703e-06
7.94116e-06
7.94262e-06
8.05284e-06
8.30624e-06
8.67522e-06
9.25484e-06
1.00216e-05
1.12156e-05
1.27103e-05
1.50205e-05
1.80381e-05
2.33853e-05
3.20189e-05
5.05867e-05
7.73497e-06
4.3115e-06
3.75502e-06
4.90625e-06
1.09998e-05
1.11049e-05
1.12848e-05
1.13607e-05
1.1195e-05
1.08179e-05
1.02176e-05
9.5142e-06
8.69936e-06
7.88585e-06
7.07573e-06
6.40611e-06
5.79405e-06
5.35599e-06
5.02836e-06
4.91884e-06
4.96224e-06
5.2557e-06
5.7355e-06
6.31995e-06
7.14334e-06
8.25618e-06
9.68275e-06
1.16407e-05
1.46746e-05
2.00699e-05
3.13344e-05
5.88259e-05
5.15885e-05
5.3759e-05
5.64476e-05
6.06502e-05
6.49874e-05
6.96241e-05
7.36199e-05
7.88324e-05
8.56765e-05
9.39805e-05
0.000103798
0.000115203
0.000128426
0.000143543
0.00016067
0.000179932
0.000199924
0.000221363
0.000246277
0.000273652
0.000307578
0.000342324
0.000377377
0.000414079
0.00045489
0.000511392
0.000580048
0.000679652
0.000814078
0.000178389
0.000178405
0.000911499
0.000936949
0.000936993
0.000936943
0.000936678
0.000936569
0.000936176
0.000936104
0.000935682
0.000935572
0.000935107
0.000934825
0.000934187
0.000933991
0.000933752
0.000934185
0.000934591
0.000935316
0.000935554
0.000936037
0.000936176
0.000936527
0.000936556
0.000936877
0.000936864
0.000937133
0.000937025
0.000912088
0.000178396
0.000178399
0.00091108
0.000936986
0.000936836
0.000936804
0.000936478
0.00093644
0.000936081
0.000936053
0.000935663
0.00093558
0.000935105
0.000934802
0.000934133
0.000933925
0.000933763
0.000934271
0.000934625
0.000935272
0.00093542
0.000935852
0.000935928
0.000936307
0.000936345
0.00093672
0.00093675
0.00093704
0.000937069
0.00091143
0.00017837
0.00017837
0.000911861
0.000937191
0.000936937
0.000936948
0.000936613
0.000936597
0.000936236
0.000936206
0.000935802
0.000935715
0.000935212
0.000934859
0.000934149
0.000933926
0.000933761
0.000934257
0.000934599
0.000935244
0.000935392
0.000935838
0.000935921
0.000936306
0.00093635
0.000936729
0.000936761
0.000937045
0.000937071
0.000911442
0.00017837
0.000178367
0.000911283
0.00093696
0.000936952
0.000936641
0.000936639
0.000936278
0.000936263
0.000935896
0.000935862
0.000935446
0.000935323
0.000934724
0.000934383
0.000933851
0.000933889
0.00093401
0.000934739
0.000935232
0.000935692
0.000935913
0.000936119
0.000936495
0.000936526
0.00093686
0.000936851
0.000937132
0.000937008
0.000911751
0.000178403
0.000178366
0.000911558
0.000937157
0.000936905
0.000936924
0.00093658
0.000936564
0.000936198
0.000936176
0.000935774
0.000935692
0.000935203
0.000934884
0.000934187
0.000933948
0.000933747
0.000934221
0.00093457
0.000935225
0.000935383
0.000935834
0.000935925
0.000936314
0.000936363
0.000936749
0.000936786
0.000937068
0.000937086
0.000911523
0.000178371
0.000178399
0.000911383
0.000936937
0.000937003
0.000936884
0.000936572
0.000936513
0.00093614
0.000936086
0.000935675
0.000935577
0.00093509
0.000934801
0.000934145
0.000933851
0.000933854
0.000934138
0.000934814
0.000935115
0.000935604
0.000935695
0.000936099
0.000936137
0.000936497
0.000936541
0.000936854
0.000936938
0.000936967
0.000911197
0.000178399
0.000178365
0.000911517
0.0009371
0.000932018
0.000931788
0.000930658
0.0009365
0.000936141
0.000936141
0.000935759
0.000935694
0.000935216
0.00093495
0.000934263
0.000934004
0.000933727
0.000934176
0.000934527
0.00093519
0.000935349
0.000935802
0.000935902
0.000936306
0.000936361
0.00093674
0.000936783
0.000937062
0.000937087
0.000911528
0.00017837
4.14508e-06
4.63267e-06
5.34113e-06
8.29956e-06
1.0528e-05
1.35348e-05
1.42461e-05
1.22526e-05
1.55715e-05
2.02418e-05
3.01668e-05
3.56353e-05
3.6947e-05
1.32787e-05
7.44223e-06
3.49581e-05
7.82572e-06
7.04413e-06
9.46551e-06
1.16717e-05
1.19083e-05
1.20664e-05
1.14862e-05
1.09227e-05
1.24039e-05
1.55436e-05
1.79183e-05
1.74178e-05
1.83694e-05
2.03388e-05
2.08218e-05
2.10273e-05
1.94537e-05
1.97863e-05
4.93577e-05
7.49904e-05
7.30859e-05
6.502e-05
5.51663e-05
4.84455e-05
4.41966e-05
3.92422e-05
3.09269e-05
1.21237e-05
6.68661e-06
2.55548e-05
3.13931e-05
4.1745e-05
5.69165e-05
7.28223e-05
8.14251e-05
9.67676e-05
0.000109857
0.000121521
0.000115703
0.000100274
7.84755e-05
6.25183e-05
5.20247e-05
4.66161e-05
4.30847e-05
3.9861e-05
3.56739e-05
3.12865e-05
2.89017e-05
2.54766e-05
2.32562e-05
2.07456e-05
1.93768e-05
1.87622e-05
1.62986e-05
1.35448e-05
1.1854e-05
1.4516e-06
2.33936e-06
1.5385e-05
1.20964e-05
1.04608e-05
9.4565e-06
8.83228e-06
8.42654e-06
8.1453e-06
7.92459e-06
7.75217e-06
7.62527e-06
7.54791e-06
7.49333e-06
7.47985e-06
7.4896e-06
7.58053e-06
7.67977e-06
7.92999e-06
8.32146e-06
8.84384e-06
9.61539e-06
1.06845e-05
1.21084e-05
1.43568e-05
1.74285e-05
2.23586e-05
3.06656e-05
4.59888e-05
1.06493e-05
3.3883e-06
2.69196e-06
9.52802e-06
2.34126e-05
4.17091e-05
3.86934e-05
3.51762e-05
3.19007e-05
2.88358e-05
2.56497e-05
2.26874e-05
1.97291e-05
1.71638e-05
1.47353e-05
1.26672e-05
1.08522e-05
9.35044e-06
8.14058e-06
7.17988e-06
6.54924e-06
6.19124e-06
6.16433e-06
6.4058e-06
6.96825e-06
7.89726e-06
9.18571e-06
1.10757e-05
1.3979e-05
1.88899e-05
2.88741e-05
5.03848e-05
3.58425e-05
3.78757e-05
4.03699e-05
4.4858e-05
4.84608e-05
5.29488e-05
5.7619e-05
6.25318e-05
6.90514e-05
7.68833e-05
8.6227e-05
9.71918e-05
0.000110475
0.000125823
0.00014352
0.000163552
0.000186964
0.00021308
0.000242242
0.000274953
0.000314251
0.000360646
0.000419584
0.000498279
0.000598169
0.000722818
0.000888765
0.00093854
0.000904037
0.000176911
0.000176879
0.000903775
0.000938322
0.000938647
0.000938625
0.000938553
0.000938573
0.000938546
0.000938537
0.000938516
0.000938508
0.000938486
0.000938468
0.000938441
0.000938426
0.000938421
0.000938432
0.000938452
0.000938478
0.000938491
0.000938508
0.000938522
0.000938541
0.000938553
0.000938575
0.000938584
0.000938612
0.000938345
0.000903768
0.00017688
0.000176877
0.0009038
0.000938392
0.000938608
0.000938606
0.000938568
0.000938555
0.000938532
0.000938526
0.000938507
0.000938495
0.000938475
0.000938453
0.000938428
0.00093841
0.00093841
0.000938425
0.000938448
0.000938474
0.000938488
0.000938505
0.000938511
0.000938526
0.000938538
0.000938564
0.000938561
0.000938646
0.000938397
0.000903931
0.000176891
0.000176894
0.000903863
0.000938351
0.000938578
0.000938563
0.000938548
0.000938535
0.000938523
0.000938517
0.000938505
0.000938493
0.000938474
0.000938451
0.000938426
0.000938409
0.000938412
0.000938427
0.00093845
0.000938475
0.00093849
0.000938507
0.000938513
0.000938527
0.000938539
0.000938566
0.000938561
0.000938642
0.000938398
0.000903942
0.000176892
0.000176893
0.00090388
0.000938321
0.00093863
0.000938579
0.000938572
0.000938548
0.000938538
0.000938521
0.000938514
0.000938497
0.000938483
0.000938456
0.000938438
0.000938417
0.000938412
0.000938424
0.000938452
0.000938455
0.000938555
0.00093857
0.000938516
0.000938534
0.000938545
0.000938569
0.000938578
0.000938604
0.000938336
0.000903759
0.000176879
0.000176895
0.000903917
0.000938351
0.000938577
0.000938563
0.000938547
0.000938535
0.000938524
0.000938516
0.000938504
0.000938493
0.000938475
0.000938453
0.000938429
0.00093841
0.00093841
0.000938424
0.000938446
0.000938472
0.000938488
0.000938503
0.000938511
0.000938526
0.00093854
0.000938566
0.00093856
0.000938636
0.000938398
0.000903927
0.000176891
0.000176878
0.00090381
0.000938287
0.000938564
0.000938626
0.000938574
0.000938563
0.000938536
0.000938529
0.000938509
0.000938499
0.000938477
0.000938457
0.000938425
0.000938477
0.000938473
0.000938418
0.000938455
0.000938475
0.000938495
0.000938505
0.000938523
0.000938529
0.000938554
0.000938565
0.000938607
0.000938563
0.000938315
0.000903781
0.000176877
0.000176894
0.000903872
0.000938346
0.000938572
0.000938561
0.000938547
0.000938537
0.000938527
0.000938521
0.000938511
0.000938503
0.000938484
0.000938466
0.000938438
0.000938418
0.000938414
0.000938423
0.000938446
0.00093847
0.000938488
0.000938505
0.000938515
0.00093853
0.000938543
0.000938573
0.000938564
0.000938634
0.000938399
0.000903942
0.000176892
4.26381e-06
6.26038e-06
7.2659e-06
1.09884e-05
9.12015e-06
9.41567e-06
9.60587e-06
8.64248e-06
9.25125e-06
8.6042e-06
9.36045e-06
2.20441e-05
3.95382e-05
9.64192e-06
9.39021e-06
2.75006e-05
1.14221e-05
1.85336e-05
1.94049e-05
1.96559e-05
1.85456e-05
1.73545e-05
1.65658e-05
1.59854e-05
1.74464e-05
1.97421e-05
1.93227e-05
1.96586e-05
2.13692e-05
2.26317e-05
2.26834e-05
2.44872e-05
2.4071e-05
2.02243e-05
1.8515e-05
4.7982e-05
8.10302e-05
7.60677e-05
6.48082e-05
5.48438e-05
5.00541e-05
4.5876e-05
3.84258e-05
4.17051e-06
4.87401e-06
3.07625e-05
4.38634e-05
5.40817e-05
5.83156e-05
7.1648e-05
0.000106753
0.000165685
0.000238674
0.000279533
0.000276855
0.000228423
0.000169085
0.000120347
8.78271e-05
6.72959e-05
5.57228e-05
4.83979e-05
4.28338e-05
3.69943e-05
3.20045e-05
2.89432e-05
2.53658e-05
2.28464e-05
2.08512e-05
2.04044e-05
1.81181e-05
1.42567e-05
1.16832e-05
1.24375e-06
1.34821e-06
1.20368e-05
1.0197e-05
9.66416e-06
9.00842e-06
8.14708e-06
7.45432e-06
7.21046e-06
7.10623e-06
7.04657e-06
6.97215e-06
6.90635e-06
6.86131e-06
6.84322e-06
6.84752e-06
6.91503e-06
6.96895e-06
7.19622e-06
7.40683e-06
7.85846e-06
8.44912e-06
9.32465e-06
1.04564e-05
1.2247e-05
1.45758e-05
1.81572e-05
2.40251e-05
3.33852e-05
1.88154e-05
2.50794e-06
2.07687e-06
2.07838e-05
4.02903e-05
4.40789e-05
4.80418e-05
5.27137e-05
5.78113e-05
6.379e-05
6.14879e-05
5.22423e-05
4.40586e-05
3.6711e-05
3.07624e-05
2.55952e-05
2.11347e-05
1.74863e-05
1.44208e-05
1.20294e-05
1.0135e-05
8.76589e-06
7.78791e-06
7.26947e-06
7.16581e-06
7.58017e-06
8.45642e-06
9.97538e-06
1.22713e-05
1.61995e-05
2.37043e-05
3.7153e-05
2.54181e-05
2.71073e-05
2.9442e-05
3.31383e-05
3.69089e-05
4.04132e-05
4.47695e-05
4.95796e-05
5.52217e-05
6.21781e-05
7.04402e-05
8.02538e-05
9.20212e-05
0.000105881
0.000122002
0.000141001
0.000163224
0.000189039
0.000218556
0.000253014
0.00029352
0.000343063
0.000402801
0.00048029
0.000584613
0.00073051
0.000914016
0.000913727
0.000879913
0.000171287
0.000171302
0.000879426
0.000913761
0.000913861
0.000913922
0.000914031
0.000913847
0.000914032
0.000913844
0.000914035
0.000913843
0.00091403
0.000913833
0.000914011
0.000913826
0.000914001
0.000913826
0.000914005
0.000913833
0.000914007
0.000913839
0.000914016
0.000913843
0.000914029
0.00091385
0.000914035
0.000913863
0.000913756
0.000879401
0.000171299
0.000171294
0.000879566
0.000913642
0.000914023
0.000913844
0.000914029
0.000913842
0.000914032
0.00091384
0.000914031
0.000913836
0.000914018
0.000913824
0.000913998
0.000913816
0.000913991
0.00091382
0.000914005
0.000913833
0.000914023
0.000913839
0.000914025
0.000913839
0.000914018
0.000913833
0.000914009
0.000913866
0.000913618
0.000879809
0.000171268
0.000171272
0.000879773
0.000913566
0.000914019
0.000913839
0.000914028
0.000913844
0.000914032
0.000913842
0.000914029
0.000913836
0.000914014
0.000913824
0.000913996
0.000913817
0.000913992
0.000913822
0.000914006
0.000913834
0.000914024
0.000913841
0.000914027
0.00091384
0.000914018
0.000913834
0.000914007
0.000913868
0.000913613
0.000879819
0.000171268
0.000171275
0.000879792
0.000913716
0.000913848
0.000914028
0.000913844
0.000914034
0.000913845
0.000914037
0.000913842
0.000914029
0.000913835
0.00091401
0.000913825
0.000913997
0.00091382
0.000913993
0.000913819
0.000913985
0.000913877
0.000913858
0.000914014
0.000913838
0.000914025
0.000913849
0.000914033
0.000913859
0.000913775
0.000879432
0.000171301
0.000171269
0.000879797
0.000913562
0.000914017
0.000913839
0.000914028
0.000913843
0.000914034
0.000913842
0.000914031
0.000913836
0.000914015
0.000913825
0.000913996
0.000913817
0.00091399
0.00091382
0.000914003
0.000913832
0.00091402
0.000913838
0.000914022
0.000913838
0.000914014
0.000913832
0.000914003
0.000913876
0.000913603
0.000879799
0.000171268
0.000171303
0.000879503
0.000913739
0.000913986
0.000913861
0.000914037
0.000913846
0.000914032
0.000913841
0.000914033
0.000913834
0.00091402
0.00091382
0.000913995
0.00091382
0.000913833
0.000913989
0.000913818
0.000914016
0.000913834
0.000914031
0.000913841
0.000914031
0.000913844
0.00091403
0.000913848
0.000913998
0.000913718
0.000879517
0.0001713
0.00017127
0.000879777
0.000913558
0.000914018
0.000913836
0.000914028
0.000913843
0.000914039
0.000913846
0.000914041
0.000913844
0.000914029
0.000913827
0.000914
0.000913814
0.000913984
0.000913815
0.00091399
0.000913827
0.000914023
0.000913842
0.000914026
0.000913843
0.000914021
0.000913839
0.000914008
0.000913884
0.000913605
0.000879832
0.000171269
3.08367e-06
6.67047e-06
7.95695e-06
1.10198e-05
8.78143e-06
8.64174e-06
8.01442e-06
7.53226e-06
7.23915e-06
7.52058e-06
8.03716e-06
9.42735e-06
2.86478e-05
5.15981e-06
8.23407e-06
2.27344e-05
1.88698e-05
2.95686e-05
3.10448e-05
2.93727e-05
2.68406e-05
2.37633e-05
2.22247e-05
2.06562e-05
2.03701e-05
2.03211e-05
1.94982e-05
2.04207e-05
2.16999e-05
2.32446e-05
2.31613e-05
2.30994e-05
2.65921e-05
2.74895e-05
2.29019e-05
2.01175e-05
6.24002e-05
8.93158e-05
8.23843e-05
7.08845e-05
6.52463e-05
6.11554e-05
5.29811e-05
3.32007e-06
2.71431e-06
3.77124e-05
5.28176e-05
4.97214e-05
5.6748e-05
0.000109989
0.000254676
0.000466109
0.000649115
0.000727043
0.00066425
0.000531065
0.000365784
0.000241591
0.000157553
0.000108811
8.09829e-05
6.46509e-05
5.40902e-05
4.64161e-05
3.89243e-05
3.33282e-05
2.95434e-05
2.57885e-05
2.35484e-05
2.19581e-05
2.0699e-05
1.69206e-05
1.33317e-05
1.06372e-06
9.09717e-07
1.09297e-05
1.09799e-05
1.31075e-05
1.29505e-05
1.11884e-05
9.12114e-06
7.78269e-06
7.12811e-06
6.85061e-06
6.67634e-06
6.52211e-06
6.40745e-06
6.32622e-06
6.29184e-06
6.24407e-06
6.31432e-06
6.41042e-06
6.60186e-06
6.93225e-06
7.35479e-06
7.98671e-06
8.89696e-06
1.01754e-05
1.18661e-05
1.43871e-05
1.80284e-05
2.3407e-05
3.10255e-05
1.77499e-06
1.68104e-06
2.08824e-05
2.39217e-05
2.74819e-05
3.12726e-05
3.55871e-05
4.05496e-05
4.61381e-05
5.25988e-05
5.9839e-05
6.78714e-05
7.02497e-05
5.70202e-05
4.6619e-05
3.75329e-05
3.04456e-05
2.46804e-05
2.0218e-05
1.64014e-05
1.35559e-05
1.1335e-05
9.79353e-06
8.74874e-06
8.26859e-06
8.35044e-06
8.80529e-06
1.06321e-05
1.36127e-05
1.89488e-05
2.61077e-05
1.79927e-05
1.97791e-05
2.22555e-05
2.48747e-05
2.81383e-05
3.2068e-05
3.61701e-05
4.05864e-05
4.55774e-05
5.16293e-05
5.89379e-05
6.75838e-05
7.79538e-05
9.00171e-05
0.000104045
0.000120497
0.000139982
0.000162722
0.000189352
0.000220364
0.000257056
0.000300647
0.000353728
0.000420457
0.000511072
0.000638256
0.000824745
0.000885703
0.000853321
0.000165636
0.000165619
0.000853184
0.000885634
0.00088581
0.000885875
0.000885895
0.000885807
0.000885898
0.000885806
0.000885905
0.000885805
0.000885904
0.000885794
0.000885887
0.000885789
0.000885881
0.000885786
0.000885881
0.00088579
0.00088588
0.000885786
0.000885889
0.000885797
0.000885898
0.000885803
0.000885898
0.000885808
0.000885648
0.000853224
0.00016562
0.000165615
0.000853202
0.000885595
0.000885885
0.000885795
0.000885892
0.000885797
0.000885899
0.000885801
0.000885903
0.000885796
0.000885889
0.000885781
0.000885869
0.000885771
0.000885864
0.000885775
0.000885877
0.000885789
0.000885893
0.000885794
0.000885892
0.000885788
0.000885879
0.000885783
0.000885864
0.000885802
0.000885584
0.000853217
0.000165616
0.000165617
0.00085325
0.000885546
0.000885884
0.000885788
0.000885893
0.000885796
0.000885897
0.000885801
0.000885899
0.000885794
0.000885885
0.00088578
0.000885867
0.000885771
0.000885866
0.000885777
0.000885878
0.00088579
0.000885894
0.000885795
0.000885894
0.000885789
0.00088588
0.000885784
0.000885864
0.000885803
0.000885579
0.000853217
0.000165616
0.000165618
0.000853234
0.000885623
0.000885798
0.000885885
0.000885794
0.000885899
0.0008858
0.000885907
0.000885802
0.000885901
0.000885794
0.000885884
0.000885783
0.000885873
0.000885778
0.000885868
0.000885778
0.000885851
0.000885833
0.00088581
0.000885883
0.000885793
0.000885895
0.000885803
0.000885896
0.000885803
0.000885657
0.00085322
0.000165617
0.000165619
0.000853217
0.000885538
0.000885879
0.000885783
0.000885892
0.000885794
0.000885898
0.000885799
0.0008859
0.000885795
0.000885886
0.00088578
0.000885868
0.000885772
0.000885864
0.000885775
0.000885875
0.000885787
0.000885889
0.000885791
0.000885886
0.000885784
0.000885875
0.000885784
0.000885862
0.000885814
0.000885568
0.000853218
0.000165616
0.000165618
0.000853197
0.000885628
0.000885883
0.000885822
0.000885897
0.000885803
0.000885899
0.0008858
0.0008859
0.000885793
0.000885892
0.00088578
0.000885862
0.000885795
0.000885798
0.000885854
0.000885774
0.000885887
0.000885791
0.000885899
0.000885798
0.000885895
0.000885797
0.000885889
0.000885801
0.000885869
0.000885638
0.000853197
0.000165617
0.000165619
0.000853218
0.000885533
0.000885875
0.000885779
0.000885887
0.00088579
0.000885896
0.000885799
0.000885904
0.000885798
0.000885892
0.000885778
0.000885863
0.000885759
0.000885854
0.000885762
0.000885859
0.000885778
0.000885886
0.000885795
0.000885892
0.000885793
0.00088588
0.00088579
0.000885874
0.000885821
0.000885572
0.000853238
0.000165616
2.05164e-06
6.73538e-06
8.0454e-06
9.60711e-06
8.63018e-06
7.29206e-06
6.41085e-06
5.59484e-06
5.99576e-06
6.88688e-06
8.36192e-06
8.16325e-06
1.72823e-05
4.27789e-06
5.71019e-06
2.01113e-05
3.84356e-05
4.62773e-05
4.16627e-05
3.89843e-05
3.40537e-05
2.99649e-05
2.6137e-05
2.38142e-05
2.18505e-05
2.09186e-05
2.0611e-05
2.16816e-05
2.31325e-05
2.45732e-05
2.47772e-05
2.63508e-05
2.84245e-05
3.23075e-05
3.25205e-05
3.05313e-05
2.65997e-05
6.28879e-05
0.000106953
0.000105187
9.84341e-05
9.75567e-05
9.55351e-05
6.38612e-06
4.09187e-06
5.6074e-05
8.00569e-05
0.000127416
0.000269438
0.000603552
0.00111737
0.001644
0.00190511
0.00189397
0.00160488
0.00117705
0.000778106
0.000479941
0.000288809
0.00018252
0.000124777
9.34173e-05
7.39508e-05
6.09695e-05
5.12172e-05
4.26759e-05
3.62864e-05
3.23038e-05
2.86443e-05
2.67451e-05
2.48819e-05
2.31107e-05
1.93047e-05
1.07557e-06
7.04066e-07
1.18594e-05
1.88388e-05
2.52352e-05
2.456e-05
1.99747e-05
1.46535e-05
1.07802e-05
8.6823e-06
7.696e-06
7.08745e-06
6.64789e-06
6.31095e-06
6.06319e-06
5.89858e-06
5.73974e-06
5.7438e-06
5.69059e-06
5.79589e-06
5.96037e-06
6.23249e-06
6.64927e-06
7.26072e-06
8.02069e-06
9.10059e-06
1.05691e-05
1.25022e-05
1.54283e-05
1.84394e-05
1.19439e-06
1.41213e-06
1.23932e-05
1.39691e-05
1.68519e-05
2.025e-05
2.39501e-05
2.81203e-05
3.2743e-05
3.7988e-05
4.39792e-05
5.08287e-05
5.84306e-05
6.75808e-05
7.78579e-05
6.54144e-05
5.23422e-05
4.13564e-05
3.31249e-05
2.65506e-05
2.14981e-05
1.74186e-05
1.43602e-05
1.20001e-05
1.03664e-05
7.67923e-06
7.33781e-06
8.50086e-06
1.05844e-05
1.41829e-05
1.70796e-05
1.23344e-05
1.42791e-05
1.65801e-05
1.85034e-05
2.12872e-05
2.44643e-05
2.82419e-05
3.22488e-05
3.64738e-05
4.13494e-05
4.72883e-05
5.43866e-05
6.29334e-05
7.31169e-05
8.51763e-05
9.90513e-05
0.000115058
0.000134239
0.000157167
0.000184404
0.000216172
0.000252932
0.00029724
0.000353152
0.000426981
0.00053419
0.000696683
0.000838021
0.000806568
0.000154937
0.000154919
0.000806521
0.000837917
0.000838144
0.000838198
0.000838193
0.000838149
0.000838196
0.000838157
0.000838203
0.000838163
0.000838203
0.000838162
0.000838193
0.000838163
0.000838187
0.000838156
0.000838187
0.000838152
0.000838181
0.00083814
0.000838185
0.000838147
0.000838189
0.000838146
0.000838178
0.000838139
0.000837926
0.000806508
0.000154919
0.000154916
0.000806574
0.000837922
0.000838167
0.000838128
0.000838181
0.000838145
0.000838195
0.000838153
0.000838201
0.000838155