/*--------------------------------*- C++ -*----------------------------------*\
| =========                 |                                                 |
| \\      /  F ield         | OpenFOAM: The Open Source CFD Toolbox           |
|  \\    /   O peration     | Version:  2.1.1                                 |
|   \\  /    A nd           | Web:      www.OpenFOAM.org                      |
|    \\/     M anipulation  |                                                 |
\*---------------------------------------------------------------------------*/
FoamFile
{
    version     2.0;
    format      ascii;
    class       volScalarField;
    location    "0.001800000";
    object      c;
}
// * * * * * * * * * * * * * * * * * * * * * * * * * * * * * * * * * * * * * //

dimensions      [0 0 0 0 0 0 0];

internalField   nonuniform List<scalar> 
12384
(
1
1
1
1
0.209176
0.0151288
0.000357358
0.000238845
8.90602e-05
6.97854e-06
1.93301e-07
4.69666e-09
1.1853e-10
2.0851e-12
3.91465e-09
4.07951e-07
2.26777e-05
0.000136311
0.00129785
0.00730745
0.0134861
0.01614
0.0143014
0.0136029
0.0119482
0.00779617
0.00982352
0.00449923
0.00157655
0.000371936
9.03249e-05
3.79428e-05
1.21927e-05
4.78438e-07
1.29313e-09
2.56947e-12
4.67877e-15
8.22313e-18
1.39038e-20
2.42517e-23
4.95417e-26
9.06431e-28
5.62842e-28
9.61008e-26
8.24656e-29
3.21325e-27
3.1023e-26
7.30368e-26
5.92431e-26
1.99521e-26
2.69686e-27
7.08656e-28
2.9391e-28
9.14215e-29
3.22658e-29
4.73623e-29
8.03601e-29
1.82842e-29
2.67377e-31
4.91332e-35
8.94647e-39
1.66514e-42
3.18139e-46
6.26859e-50
1.25287e-53
2.64068e-57
5.76282e-61
1.28549e-64
3.01158e-68
6.75597e-72
1.49779e-75
3.34439e-79
7.4509e-83
1.67286e-86
1.29737e-102
5.21313e-104
4.70771e-107
6.76325e-109
1.86675e-111
2.24311e-114
1.28071e-117
4.56677e-121
1.23296e-124
2.14072e-128
3.71135e-132
6.5843e-136
1.20352e-139
2.2577e-143
4.31808e-147
8.36384e-151
1.62715e-154
3.15541e-158
6.08043e-162
1.15324e-165
1.03269e-171
1.78358e-177
1.50172e-182
7.45444e-187
2.46682e-191
4.66757e-196
7.4795e-201
9.90671e-206
1.91352e-211
2.76038e-217
1.9971e-238
1.46643e-240
1.65095e-245
1.00293e-250
4.00665e-256
1.34125e-261
4.11157e-267
1.20286e-272
3.28781e-278
8.14132e-284
1.8369e-289
3.79732e-295
7.35735e-301
1.35938e-306
9.89941e-312
1.25635e-314
2.03706e-317
0
0
0
0
0
0
0
0
0
0
0
0
0
0
0
0
0
0
0
0
0
0
0
0
0
0
0
0
0
0
0
0
0
0
0
0
0
0
0
0
0
0
0
0
0
0
0
0
0
0
0
0
0
0
0
0
0
0
0
0
0
0
0
0
0
0
0
0
0
0
0
0
0
0
0
0
0
0
0
0
0
0
0
0
0
0
0
0
0
0
0
0
0
0
0
0
0
0
0
0
0
0
0
0
0
0
0
0
0
0
0
0
0
0
0
0
0
0
0
0
0
0
0
0
0
0
0
0
0
0
0
0
0
0
0
0
0
0
0
0
0
0
0
0
0
0
0
0
0
0
0
0
0
0
0
0
0
0
0
0
0
0
0
0
0
0
0
0
0
0
0
0
0
0
0
0
0
0
0
0
0
0
0
0
0
0
0
0
0
0
0
0
0
0
0
0
0
0
0
0
0
0
0
0
0
0
0
0
0
0
0
0
0
0
0
0
0
0
0
0
0
0
0
0
0
0
0
0
0
0
0
0
0
0
0
0
0
0
0
0
0
0
0
0
0
0
0
0
0
0
0
0
0
1
1
1
1
0.280595
0.0562083
0.010302
0.0130239
0.0054374
0.000369608
1.25618e-05
2.7918e-07
6.6747e-09
1.0822e-10
3.03014e-07
0.000101953
0.00473933
0.0153224
0.0791516
0.150472
0.200377
0.230687
0.211264
0.210938
0.195394
0.148643
0.178001
0.109528
0.0627067
0.0415552
0.0117168
0.00429507
0.00138774
7.30961e-05
3.35765e-07
7.41887e-11
7.02154e-14
7.02658e-17
1.47774e-19
1.61706e-21
7.5573e-24
3.62096e-25
1.82788e-25
4.2709e-23
5.09375e-26
2.14892e-24
2.55687e-23
7.53375e-23
7.96141e-23
3.95185e-23
6.73232e-24
2.11319e-24
9.73837e-25
3.32903e-25
1.05613e-25
1.27801e-25
2.69506e-25
7.34286e-26
1.57693e-27
1.08008e-31
1.21641e-35
1.99912e-40
8.51152e-44
2.22312e-47
2.08904e-51
1.8581e-55
2.2052e-59
3.41583e-63
6.3461e-67
1.33123e-70
2.90269e-74
6.57566e-78
1.50258e-81
3.49688e-85
5.72779e-99
2.43998e-100
2.2223e-103
3.621e-105
1.05351e-107
1.30798e-110
7.36284e-114
2.44508e-117
5.87984e-121
3.12535e-125
2.17363e-129
2.38291e-133
3.59859e-137
5.90089e-141
1.03192e-144
1.86181e-148
3.45693e-152
6.78836e-156
1.34816e-159
2.80119e-163
7.98138e-167
9.41454e-172
1.38376e-176
1.12713e-180
3.11897e-185
5.18775e-190
7.37761e-195
9.6095e-200
1.83057e-205
2.08941e-211
2.6154e-232
2.09416e-234
2.37849e-239
1.37966e-244
5.04642e-250
1.5596e-255
4.51011e-261
1.2723e-266
3.39361e-272
8.21597e-278
1.81025e-283
3.64913e-289
6.85481e-295
1.20791e-300
2.04554e-306
1.44778e-311
1.77387e-314
2.71765e-317
0
0
0
0
0
0
0
0
0
0
0
0
0
0
0
0
0
0
0
0
0
0
0
0
0
0
0
0
0
0
0
0
0
0
0
0
0
0
0
0
0
0
0
0
0
0
0
0
0
0
0
0
0
0
0
0
0
0
0
0
0
0
0
0
0
0
0
0
0
0
0
0
0
0
0
0
0
0
0
0
0
0
0
0
0
0
0
0
0
0
0
0
0
0
0
0
0
0
0
0
0
0
0
0
0
0
0
0
0
0
0
0
0
0
0
0
0
0
0
0
0
0
0
0
0
0
0
0
0
0
0
0
0
0
0
0
0
0
0
0
0
0
0
0
0
0
0
0
0
0
0
0
0
0
0
0
0
0
0
0
0
0
0
0
0
0
0
0
0
0
0
0
0
0
0
0
0
0
0
0
0
0
0
0
0
0
0
0
0
0
0
0
0
0
0
0
0
0
0
0
0
0
0
0
0
0
0
0
0
0
0
0
0
0
0
0
0
0
0
0
0
0
0
0
0
0
0
0
0
0
0
0
0
0
0
0
0
0
0
0
0
0
0
0
0
0
0
0
0
0
0
0
1
1
1
1
0.362304
0.195614
0.137382
0.213577
0.109644
0.0380717
0.00269619
2.95823e-05
5.84465e-07
6.37371e-09
5.65855e-05
0.0122687
0.121767
0.224609
1
1
1
1
1
1
1
1
1
1
1
1
0.24062
0.104131
0.0578371
0.0299141
0.00470131
7.02334e-07
2.68683e-10
3.27862e-14
5.8061e-17
5.54194e-19
1.79458e-21
1.26941e-22
7.03993e-23
1.55202e-20
4.06988e-23
2.55968e-21
4.96458e-20
1.98271e-19
2.41551e-19
1.13655e-19
1.70162e-20
4.57645e-21
2.23907e-21
6.80439e-22
2.56963e-22
2.12916e-22
8.37419e-22
4.16826e-22
2.33363e-23
1.10382e-26
2.83186e-30
3.1646e-35
3.39851e-39
3.70317e-43
1.94618e-47
1.57476e-52
8.93052e-57
5.85766e-61
1.09551e-64
1.06397e-68
2.63439e-72
4.8786e-76
1.02973e-79
4.94363e-83
7.70784e-95
4.34227e-96
4.3134e-99
7.77895e-101
2.41803e-103
3.15524e-106
1.78928e-109
5.64333e-113
1.26289e-116
1.34576e-121
1.97323e-125
2.87492e-129
4.15019e-133
6.0778e-137
9.08372e-141
1.4636e-144
2.32211e-148
4.13657e-152
7.20239e-156
1.36185e-159
2.86686e-163
7.1443e-166
1.06948e-170
1.29976e-174
2.76983e-179
3.81416e-184
4.41866e-189
4.76924e-194
1.08122e-199
1.10437e-205
4.15679e-226
3.33663e-228
3.28199e-233
1.78909e-238
5.87496e-244
1.63825e-249
4.35968e-255
1.16687e-260
3.00395e-266
7.09042e-272
1.53203e-277
3.0565e-283
5.67969e-289
9.85142e-295
1.60859e-300
2.50703e-306
1.28163e-311
1.31487e-314
1.87796e-317
0
0
0
0
0
0
0
0
0
0
0
0
0
0
0
0
0
0
0
0
0
0
0
0
0
0
0
0
0
0
0
0
0
0
0
0
0
0
0
0
0
0
0
0
0
0
0
0
0
0
0
0
0
0
0
0
0
0
0
0
0
0
0
0
0
0
0
0
0
0
0
0
0
0
0
0
0
0
0
0
0
0
0
0
0
0
0
0
0
0
0
0
0
0
0
0
0
0
0
0
0
0
0
0
0
0
0
0
0
0
0
0
0
0
0
0
0
0
0
0
0
0
0
0
0
0
0
0
0
0
0
0
0
0
0
0
0
0
0
0
0
0
0
0
0
0
0
0
0
0
0
0
0
0
0
0
0
0
0
0
0
0
0
0
0
0
0
0
0
0
0
0
0
0
0
0
0
0
0
0
0
0
0
0
0
0
0
0
0
0
0
0
0
0
0
0
0
0
0
0
0
0
0
0
0
0
0
0
0
0
0
0
0
0
0
0
0
0
0
0
0
0
0
0
0
0
0
0
0
0
0
0
0
0
0
0
0
0
0
0
0
0
0
0
0
0
0
0
0
0
0
1
1
1
1
1
0.999804
0.999751
1
0.658567
0.327767
0.104284
0.0112041
0.000146086
9.03048e-07
0.000723296
0.0740468
1
1
1
1
1
1
1
1
1
1
1
1
1
1
1
1
1
1
0.163129
0.0110379
1.38961e-05
1.24437e-09
1.75538e-12
1.10995e-15
1.03691e-18
5.19389e-20
3.54454e-20
4.74014e-18
7.62916e-20
7.52317e-18
1.19797e-16
2.8622e-16
1.96386e-16
8.61734e-17
1.41321e-17
4.25164e-18
2.21976e-18
7.13982e-19
3.12407e-19
1.47244e-19
7.00218e-19
4.58673e-19
4.33527e-20
4.66236e-23
2.99671e-26
9.74695e-30
1.8626e-33
2.29214e-37
1.3919e-41
1.02546e-46
6.95847e-51
4.78167e-55
3.22433e-60
1.14315e-64
1.78334e-68
1.12979e-72
1.16866e-76
1.83385e-79
4.23593e-90
1.76269e-91
1.46899e-94
2.5078e-96
8.04696e-99
1.17623e-101
7.7456e-105
2.88295e-108
7.25926e-112
1.40223e-115
2.29904e-119
3.42722e-123
5.02147e-127
7.38613e-131
1.10156e-134
1.75452e-138
2.73234e-142
4.75485e-146
8.01127e-150
1.46816e-153
2.70127e-157
5.04864e-161
9.42528e-165
1.53127e-168
2.49555e-173
2.8198e-178
2.59361e-183
2.0639e-188
6.1855e-194
6.97754e-200
7.94167e-220
5.50846e-222
3.82334e-227
1.5671e-232
4.76955e-238
1.26189e-243
3.23558e-249
8.54316e-255
2.21077e-260
5.26113e-266
1.16146e-271
2.39494e-277
4.61115e-283
8.24613e-289
1.36935e-294
2.12438e-300
3.13003e-306
9.03333e-312
7.04771e-315
1.04515e-317
0
0
0
0
0
0
0
0
0
0
0
0
0
0
0
0
0
0
0
0
0
0
0
0
0
0
0
0
0
0
0
0
0
0
0
0
0
0
0
0
0
0
0
0
0
0
0
0
0
0
0
0
0
0
0
0
0
0
0
0
0
0
0
0
0
0
0
0
0
0
0
0
0
0
0
0
0
0
0
0
0
0
0
0
0
0
0
0
0
0
0
0
0
0
0
0
0
0
0
0
0
0
0
0
0
0
0
0
0
0
0
0
0
0
0
0
0
0
0
0
0
0
0
0
0
0
0
0
0
0
0
0
0
0
0
0
0
0
0
0
0
0
0
0
0
0
0
0
0
0
0
0
0
0
0
0
0
0
0
0
0
0
0
0
0
0
0
0
0
0
0
0
0
0
0
0
0
0
0
0
0
0
0
0
0
0
0
0
0
0
0
0
0
0
0
0
0
0
0
0
0
0
0
0
0
0
0
0
0
0
0
0
0
0
0
0
0
0
0
0
0
0
0
0
0
0
0
0
0
0
0
0
0
0
0
0
0
0
0
0
0
0
0
0
0
0
0
0
0
0
1
1
1
1
1
1
1
1
1
1
0.999706
0.21734
0.035136
0.000289727
0.0072768
0.157468
1
1
1
1
1
1
1
1
1
1
1
1
1
1
1
1
1
1
1
0.167805
0.0120729
2.04312e-05
4.04768e-08
3.05083e-11
3.0622e-14
4.24694e-17
6.10241e-18
1.28634e-15
2.12699e-16
1.08832e-14
1.06013e-13
1.58323e-13
1.00898e-13
5.27751e-14
1.15952e-14
3.91277e-15
2.28899e-15
7.37146e-16
3.82297e-16
1.15947e-16
5.39513e-16
4.11631e-16
4.2216e-17
4.65863e-20
4.15961e-23
2.84551e-26
1.18307e-29
2.83577e-33
4.37903e-37
5.43912e-41
5.11148e-45
3.77585e-49
2.18824e-54
8.46133e-59
6.34908e-64
1.07727e-68
7.824e-73
1.42381e-75
9.94263e-86
1.94865e-87
1.10745e-90
1.59201e-92
5.08943e-95
8.43297e-98
7.14292e-101
3.65953e-104
1.26692e-107
3.21103e-111
6.58422e-115
1.19451e-118
2.05075e-122
3.43981e-126
5.71597e-130
9.67903e-134
1.61653e-137
2.8844e-141
4.9599e-145
9.32426e-149
1.72739e-152
3.30745e-156
6.33372e-160
1.19661e-163
2.14899e-167
2.06687e-172
1.54615e-177
9.30903e-183
3.69475e-188
4.74397e-194
1.48994e-213
6.66318e-216
2.90102e-221
8.32359e-227
2.02832e-232
4.72966e-238
1.13069e-243
2.88525e-249
7.57445e-255
1.90208e-260
4.51625e-266
1.03255e-271
2.19837e-277
4.32725e-283
7.81905e-289
1.29351e-294
1.97807e-300
2.8427e-306
5.72833e-312
2.59938e-315
3.78426e-318
0
0
0
0
0
0
0
0
0
0
0
0
0
0
0
0
0
0
0
0
0
0
0
0
0
0
0
0
0
0
0
0
0
0
0
0
0
0
0
0
0
0
0
0
0
0
0
0
0
0
0
0
0
0
0
0
0
0
0
0
0
0
0
0
0
0
0
0
0
0
0
0
0
0
0
0
0
0
0
0
0
0
0
0
0
0
0
0
0
0
0
0
0
0
0
0
0
0
0
0
0
0
0
0
0
0
0
0
0
0
0
0
0
0
0
0
0
0
0
0
0
0
0
0
0
0
0
0
0
0
0
0
0
0
0
0
0
0
0
0
0
0
0
0
0
0
0
0
0
0
0
0
0
0
0
0
0
0
0
0
0
0
0
0
0
0
0
0
0
0
0
0
0
0
0
0
0
0
0
0
0
0
0
0
0
0
0
0
0
0
0
0
0
0
0
0
0
0
0
0
0
0
0
0
0
0
0
0
0
0
0
0
0
0
0
0
0
0
0
0
0
0
0
0
0
0
0
0
0
0
0
0
0
0
0
0
0
0
0
0
0
0
0
0
0
0
0
0
0
1
1
1
1
1
1
1
1
1
1
1
1
0.203539
0.0104868
0.0143339
0.307142
1
1
1
1
1
1
1
1
1
1
1
1
1
1
1
1
1
1
1
1
0.128855
0.00806852
6.10874e-05
5.30395e-07
6.80587e-10
8.32209e-13
3.23636e-15
4.02119e-13
4.15493e-13
6.34806e-12
5.88164e-11
8.86148e-11
6.05485e-11
4.22419e-11
1.39267e-11
7.46263e-12
6.23539e-12
3.5425e-12
1.0136e-12
1.59858e-13
4.74629e-13
3.78384e-13
3.23944e-14
3.44754e-17
3.08593e-20
2.37291e-23
1.54724e-26
7.44549e-30
2.2728e-33
4.6098e-37
7.06078e-41
8.16741e-45
7.60176e-49
6.07379e-53
4.11437e-58
7.79194e-63
2.28116e-68
3.29436e-71
1.06834e-81
9.14378e-84
3.6644e-87
5.5263e-89
1.76465e-91
2.91006e-94
2.55351e-97
1.53652e-100
7.12874e-104
2.53866e-107
6.99892e-111
1.62493e-114
3.42469e-118
6.85502e-122
1.31911e-125
2.44996e-129
4.56697e-133
8.41162e-137
1.55399e-140
2.97193e-144
5.7026e-148
1.12473e-151
2.2212e-155
4.35447e-159
8.3687e-163
1.52163e-166
9.6931e-172
4.58841e-177
1.82051e-182
2.7317e-188
2.64626e-207
6.36224e-210
1.71711e-215
3.38813e-221
6.01663e-227
1.04518e-232
1.87467e-238
3.61356e-244
7.70496e-250
1.84661e-255
5.01049e-261
1.45761e-266
4.00686e-272
9.82423e-278
2.14944e-283
4.1783e-289
7.28665e-295
1.14906e-300
1.67446e-306
2.86435e-312
7.47969e-316
1.02301e-318
0
0
0
0
0
0
0
0
0
0
0
0
0
0
0
0
0
0
0
0
0
0
0
0
0
0
0
0
0
0
0
0
0
0
0
0
0
0
0
0
0
0
0
0
0
0
0
0
0
0
0
0
0
0
0
0
0
0
0
0
0
0
0
0
0
0
0
0
0
0
0
0
0
0
0
0
0
0
0
0
0
0
0
0
0
0
0
0
0
0
0
0
0
0
0
0
0
0
0
0
0
0
0
0
0
0
0
0
0
0
0
0
0
0
0
0
0
0
0
0
0
0
0
0
0
0
0
0
0
0
0
0
0
0
0
0
0
0
0
0
0
0
0
0
0
0
0
0
0
0
0
0
0
0
0
0
0
0
0
0
0
0
0
0
0
0
0
0
0
0
0
0
0
0
0
0
0
0
0
0
0
0
0
0
0
0
0
0
0
0
0
0
0
0
0
0
0
0
0
0
0
0
0
0
0
0
0
0
0
0
0
0
0
0
0
0
0
0
0
0
0
0
0
0
0
0
0
0
0
0
0
0
0
0
0
0
0
0
0
0
0
0
0
0
0
0
0
0
1
1
1
1
1
1
1
1
1
1
1
1
0.342044
0.0241751
0.0523378
1
1
1
1
1
1
1
1
1
1
1
1
1
1
1
1
1
1
1
1
1
1
0.220943
0.0195246
0.000222622
6.96399e-06
1.34082e-08
1.11759e-11
1.88262e-10
4.73727e-10
2.61845e-09
2.79432e-08
4.84542e-08
4.14747e-08
3.68734e-08
2.86013e-08
3.10732e-08
3.23328e-08
2.02696e-08
7.56387e-09
1.66425e-09
7.64715e-10
4.48254e-10
1.9714e-11
1.74436e-14
1.54237e-17
1.20165e-20
8.24901e-24
5.0464e-27
2.53927e-30
9.42897e-34
2.52025e-37
5.21995e-41
7.89473e-45
9.67743e-49
9.28939e-53
5.1017e-57
1.00322e-62
1.27274e-66
6.73912e-78
3.28977e-80
8.63846e-84
1.86887e-85
5.82909e-88
9.09354e-91
7.7156e-94
4.43093e-97
2.07522e-100
8.5986e-104
3.07182e-107
9.30987e-111
2.48097e-114
6.04644e-118
1.38478e-121
2.95309e-125
6.20656e-129
1.23326e-132
2.487e-136
4.91789e-140
1.00128e-143
2.03204e-147
4.24746e-151
8.69774e-155
1.79099e-158
3.48782e-162
6.46539e-166
2.48282e-171
7.80633e-177
1.15868e-182
4.32436e-201
6.11478e-204
1.05618e-209
1.46423e-215
1.91787e-221
2.52738e-227
3.46816e-233
5.1123e-239
8.29672e-245
1.51593e-250
3.16018e-256
7.57053e-262
2.07188e-267
6.47782e-273
1.99829e-278
5.29935e-284
1.19193e-289
2.29449e-295
3.87096e-301
5.86673e-307
9.58627e-313
1.6796e-316
1.95403e-319
0
0
0
0
0
0
0
0
0
0
0
0
0
0
0
0
0
0
0
0
0
0
0
0
0
0
0
0
0
0
0
0
0
0
0
0
0
0
0
0
0
0
0
0
0
0
0
0
0
0
0
0
0
0
0
0
0
0
0
0
0
0
0
0
0
0
0
0
0
0
0
0
0
0
0
0
0
0
0
0
0
0
0
0
0
0
0
0
0
0
0
0
0
0
0
0
0
0
0
0
0
0
0
0
0
0
0
0
0
0
0
0
0
0
0
0
0
0
0
0
0
0
0
0
0
0
0
0
0
0
0
0
0
0
0
0
0
0
0
0
0
0
0
0
0
0
0
0
0
0
0
0
0
0
0
0
0
0
0
0
0
0
0
0
0
0
0
0
0
0
0
0
0
0
0
0
0
0
0
0
0
0
0
0
0
0
0
0
0
0
0
0
0
0
0
0
0
0
0
0
0
0
0
0
0
0
0
0
0
0
0
0
0
0
0
0
0
0
0
0
0
0
0
0
0
0
0
0
0
0
0
0
0
0
0
0
0
0
0
0
0
0
0
0
0
0
0
1
1
1
1
1
1
1
1
1
1
1
1
0.283056
0.0202606
0.107051
1
1
1
1
1
1
1
1
1
1
1
1
1
1
1
1
1
1
1
1
1
1
1
0.229797
0.0320854
0.00242144
9.90082e-05
1.8449e-07
1.63254e-07
3.20179e-07
8.22561e-07
1.06367e-05
2.11087e-05
2.08464e-05
2.09965e-05
2.90546e-05
4.2238e-05
4.7691e-05
3.49079e-05
1.79273e-05
7.07495e-06
3.16813e-06
7.43627e-07
6.21477e-09
8.01272e-12
6.47118e-15
3.9887e-18
2.17532e-21
1.1302e-24
5.90346e-28
2.91728e-31
1.31e-34
4.91831e-38
1.57279e-41
3.87172e-45
7.39596e-49
9.57015e-53
1.47018e-57
4.89248e-62
3.09682e-74
1.23087e-76
2.30389e-80
8.91752e-82
2.41274e-84
2.96535e-87
2.22593e-90
1.19247e-93
5.21036e-97
2.07795e-100
7.81517e-104
2.71431e-107
8.59413e-111
2.507e-114
6.7524e-118
1.68272e-121
3.97562e-125
8.81826e-129
1.91919e-132
4.04209e-136
8.58289e-140
1.80072e-143
3.88891e-147
8.23629e-151
1.78537e-154
3.67989e-158
7.49655e-162
1.37215e-165
3.71734e-171
5.90499e-177
6.42977e-195
6.28079e-198
5.71792e-204
5.17346e-210
4.82948e-216
4.77388e-222
5.05716e-228
5.82309e-234
7.36419e-240
1.0415e-245
1.66837e-251
3.09428e-257
6.65739e-263
1.66841e-268
4.82222e-274
1.5887e-279
5.03869e-285
1.31673e-290
2.86857e-296
5.29927e-302
8.57401e-308
1.483e-313
2.76134e-317
8.53251e-321
0
0
0
0
0
0
0
0
0
0
0
0
0
0
0
0
0
0
0
0
0
0
0
0
0
0
0
0
0
0
0
0
0
0
0
0
0
0
0
0
0
0
0
0
0
0
0
0
0
0
0
0
0
0
0
0
0
0
0
0
0
0
0
0
0
0
0
0
0
0
0
0
0
0
0
0
0
0
0
0
0
0
0
0
0
0
0
0
0
0
0
0
0
0
0
0
0
0
0
0
0
0
0
0
0
0
0
0
0
0
0
0
0
0
0
0
0
0
0
0
0
0
0
0
0
0
0
0
0
0
0
0
0
0
0
0
0
0
0
0
0
0
0
0
0
0
0
0
0
0
0
0
0
0
0
0
0
0
0
0
0
0
0
0
0
0
0
0
0
0
0
0
0
0
0
0
0
0
0
0
0
0
0
0
0
0
0
0
0
0
0
0
0
0
0
0
0
0
0
0
0
0
0
0
0
0
0
0
0
0
0
0
0
0
0
0
0
0
0
0
0
0
0
0
0
0
0
0
0
0
0
0
0
0
0
0
0
0
0
0
0
0
0
0
0
0
1
1
1
1
1
1
1
1
1
1
1
1
1
0.149103
1
1
1
1
1
1
1
1
1
1
1
1
1
1
1
1
1
1
1
1
1
1
1
1
1
1
1
1
0.193755
0.0296643
0.00132651
0.000107535
5.73191e-05
5.52986e-05
7.55913e-05
0.000208325
0.00431953
0.0104624
0.0122452
0.0124454
0.0149585
0.0203434
0.0258539
0.0242871
0.0170754
0.0100069
0.00498884
0.0010415
6.84468e-06
8.38079e-09
6.80839e-12
4.23285e-15
2.181e-18
1.01119e-21
4.4861e-25
1.98639e-28
9.28562e-32
4.13027e-35
1.7285e-38
6.56087e-42
2.02847e-45
4.71992e-49
6.36397e-53
5.85298e-58
1.49619e-62
2.52672e-66
1.40925e-70
4.03202e-74
9.36101e-77
5.472e-78
1.151e-80
1.00207e-83
6.10834e-87
2.95165e-90
1.2089e-93
4.51369e-97
1.62486e-100
5.66032e-104
1.87834e-107
5.88817e-111
1.73885e-114
4.82455e-118
1.2687e-121
3.14565e-125
7.48347e-129
1.71829e-132
3.87551e-136
8.61252e-140
1.92425e-143
4.31117e-147
9.72873e-151
2.16019e-154
4.73557e-158
9.69453e-162
1.87816e-165
3.1267e-171
4.44203e-177
5.56208e-183
7.92669e-189
1.0158e-194
1.21795e-200
1.3855e-206
1.54544e-212
1.74664e-218
2.036e-224
2.49356e-230
3.24942e-236
4.63692e-242
7.37558e-248
1.33965e-253
2.79315e-259
6.71931e-265
1.8474e-270
5.80159e-276
2.06873e-281
7.2266e-287
2.10038e-292
4.98233e-298
9.85152e-304
1.66727e-309
7.01396e-315
5.88992e-318
0
0
0
0
0
0
0
0
0
0
0
0
0
0
0
0
0
0
0
0
0
0
0
0
0
0
0
0
0
0
0
0
0
0
0
0
0
0
0
0
0
0
0
0
0
0
0
0
0
0
0
0
0
0
0
0
0
0
0
0
0
0
0
0
0
0
0
0
0
0
0
0
0
0
0
0
0
0
0
0
0
0
0
0
0
0
0
0
0
0
0
0
0
0
0
0
0
0
0
0
0
0
0
0
0
0
0
0
0
0
0
0
0
0
0
0
0
0
0
0
0
0
0
0
0
0
0
0
0
0
0
0
0
0
0
0
0
0
0
0
0
0
0
0
0
0
0
0
0
0
0
0
0
0
0
0
0
0
0
0
0
0
0
0
0
0
0
0
0
0
0
0
0
0
0
0
0
0
0
0
0
0
0
0
0
0
0
0
0
0
0
0
0
0
0
0
0
0
0
0
0
0
0
0
0
0
0
0
0
0
0
0
0
0
0
0
0
0
0
0
0
0
0
0
0
0
0
0
0
0
0
0
0
0
0
0
0
0
0
0
0
0
0
0
0
0
0
0
0
0
0
0
0
0
0
0
0
0
0
0
0
0
0
0
1
1
1
1
1
1
1
1
1
1
1
1
1
0.998035
1
1
1
1
1
1
1
1
1
1
1
1
1
1
1
1
1
1
1
1
1
1
1
1
1
1
1
1
1
1
0.255765
0.0565832
0.0232926
0.0113115
0.0134025
0.045816
0.103093
0.164565
0.188435
0.185147
0.16889
0.194775
0.226667
0.244131
0.212737
0.138912
0.0804777
0.0365288
0.00683108
6.36181e-06
4.77401e-09
3.01713e-12
1.63596e-15
7.72964e-19
3.32804e-22
1.34184e-25
5.69556e-29
2.39648e-32
1.09258e-35
4.68419e-39
1.96238e-42
7.15545e-46
2.09289e-49
1.77918e-53
4.17849e-58
4.87276e-62
8.35236e-66
4.02476e-69
8.85951e-72
4.72643e-74
4.50398e-77
2.87909e-80
1.47582e-83
6.47324e-87
2.50661e-90
8.93863e-94
3.0467e-97
1.01316e-100
3.27302e-104
1.01922e-107
3.04522e-111
8.66592e-115
2.35669e-118
6.10819e-122
1.51406e-125
3.61236e-129
8.37597e-133
1.89945e-136
4.27951e-140
9.66193e-144
2.19802e-147
5.08059e-151
1.18081e-154
2.71531e-158
6.29349e-162
1.33927e-165
1.82474e-171
2.33334e-177
4.132e-183
4.03916e-189
4.12859e-195
4.25822e-201
4.39434e-207
4.56968e-213
4.82249e-219
5.24104e-225
5.96813e-231
7.31262e-237
9.84663e-243
1.49674e-248
2.5947e-254
5.18155e-260
1.18428e-265
3.09555e-271
9.19338e-277
2.86172e-282
7.86247e-288
1.77682e-293
3.35815e-299
5.4507e-305
7.77091e-311
2.02257e-316
8.11997e-320
0
0
0
0
0
0
0
0
0
0
0
0
0
0
0
0
0
0
0
0
0
0
0
0
0
0
0
0
0
0
0
0
0
0
0
0
0
0
0
0
0
0
0
0
0
0
0
0
0
0
0
0
0
0
0
0
0
0
0
0
0
0
0
0
0
0
0
0
0
0
0
0
0
0
0
0
0
0
0
0
0
0
0
0
0
0
0
0
0
0
0
0
0
0
0
0
0
0
0
0
0
0
0
0
0
0
0
0
0
0
0
0
0
0
0
0
0
0
0
0
0
0
0
0
0
0
0
0
0
0
0
0
0
0
0
0
0
0
0
0
0
0
0
0
0
0
0
0
0
0
0
0
0
0
0
0
0
0
0
0
0
0
0
0
0
0
0
0
0
0
0
0
0
0
0
0
0
0
0
0
0
0
0
0
0
0
0
0
0
0
0
0
0
0
0
0
0
0
0
0
0
0
0
0
0
0
0
0
0
0
0
0
0
0
0
0
0
0
0
0
0
0
0
0
0
0
0
0
0
0
0
0
0
0
0
0
0
0
0
0
0
0
0
0
0
0
0
0
0
0
0
0
0
0
0
0
0
0
0
0
0
0
0
1
1
1
1
1
1
1
1
1
1
1
1
1
1
1
1
1
1
1
1
1
1
1
1
1
1
1
1
1
1
1
1
1
1
1
1
1
1
1
1
1
1
1
1
1
1
1
0.997076
0.999854
0.99988
1
1
1
1
1
1
1
1
1
0.922643
0.441169
0.180497
0.0468633
0.00278705
1.20212e-06
5.30136e-10
2.32678e-13
1.12173e-16
5.93842e-20
3.21553e-23
1.74677e-26
8.38791e-30
4.08979e-33
1.84445e-36
8.12673e-40
3.4652e-43
1.41736e-46
5.41258e-50
1.48919e-53
3.06727e-57
5.55452e-61
3.12377e-64
3.06358e-67
2.06312e-70
1.2666e-73
6.63564e-77
3.03791e-80
1.24148e-83
4.61462e-87
1.58916e-90
5.16446e-94
1.61662e-97
4.91415e-101
1.45687e-104
4.1926e-108
1.16866e-111
3.14673e-115
8.17992e-119
2.03871e-122
4.94391e-126
1.14285e-129
2.61633e-133
5.7481e-137
1.25857e-140
2.71433e-144
5.93963e-148
1.31661e-151
3.00836e-155
6.98416e-159
1.64109e-162
3.93324e-166
4.76512e-172
4.1989e-177
1.94714e-183
1.1151e-189
8.00073e-196
6.63293e-202
5.92228e-208
5.49716e-214
5.29127e-220
5.32759e-226
5.74992e-232
6.78741e-238
9.00913e-244
1.35758e-249
2.34416e-255
4.60066e-261
1.02597e-266
2.58189e-272
7.26903e-278
1.93414e-283
4.25495e-289
7.87933e-295
1.26412e-300
1.78996e-306
2.29905e-312
2.7264e-318
0
0
0
0
0
0
0
0
0
0
0
0
0
0
0
0
0
0
0
0
0
0
0
0
0
0
0
0
0
0
0
0
0
0
0
0
0
0
0
0
0
0
0
0
0
0
0
0
0
0
0
0
0
0
0
0
0
0
0
0
0
0
0
0
0
0
0
0
0
0
0
0
0
0
0
0
0
0
0
0
0
0
0
0
0
0
0
0
0
0
0
0
0
0
0
0
0
0
0
0
0
0
0
0
0
0
0
0
0
0
0
0
0
0
0
0
0
0
0
0
0
0
0
0
0
0
0
0
0
0
0
0
0
0
0
0
0
0
0
0
0
0
0
0
0
0
0
0
0
0
0
0
0
0
0
0
0
0
0
0
0
0
0
0
0
0
0
0
0
0
0
0
0
0
0
0
0
0
0
0
0
0
0
0
0
0
0
0
0
0
0
0
0
0
0
0
0
0
0
0
0
0
0
0
0
0
0
0
0
0
0
0
0
0
0
0
0
0
0
0
0
0
0
0
0
0
0
0
0
0
0
0
0
0
0
0
0
0
0
0
0
0
0
0
0
0
0
0
0
0
0
0
0
0
0
0
0
0
0
0
0
0
0
1
1
1
1
1
1
1
1
1
1
1
1
1
1
1
1
1
1
1
1
1
1
1
1
1
1
1
1
1
1
1
1
1
1
1
1
1
1
1
1
1
1
1
1
1
1
1
1
1
1
1
1
1
1
1
1
1
1
1
1
1
0.564803
0.129137
0.0143387
7.83412e-06
4.14152e-09
2.26969e-12
1.30149e-15
7.32112e-19
3.87002e-22
2.03507e-25
9.87968e-29
5.30438e-32
2.6389e-35
1.40938e-38
7.0545e-42
3.65599e-45
1.79468e-48
8.91681e-52
4.26525e-55
1.93914e-58
8.84645e-62
3.99507e-65
1.7336e-68
7.26214e-72
2.88115e-75
1.08702e-78
3.93005e-82
1.36768e-85
4.61013e-89
1.51191e-92
4.86207e-96
1.53819e-99
4.81079e-103
1.48502e-106
4.51018e-110
1.35644e-113
3.99357e-117
1.16545e-120
3.32424e-124
9.35712e-128
2.59522e-131
7.07868e-135
1.91613e-138
5.1028e-142
1.34447e-145
3.49101e-149
9.01444e-153
2.27591e-156
5.74765e-160
1.42267e-163
3.05022e-167
3.04699e-173
2.69213e-179
2.16004e-185
1.61647e-191
1.17888e-197
8.65092e-204
6.74564e-210
5.95015e-216
6.17536e-222
7.57387e-228
1.05711e-233
1.62717e-239
2.70004e-245
4.81475e-251
9.22389e-257
1.91628e-262
4.35234e-268
1.06635e-273
2.45187e-279
4.73169e-285
7.84245e-291
1.14885e-296
1.52209e-302
1.86847e-308
2.16418e-314
2.40709e-320
0
0
0
0
0
0
0
0
0
0
0
0
0
0
0
0
0
0
0
0
0
0
0
0
0
0
0
0
0
0
0
0
0
0
0
0
0
0
0
0
0
0
0
0
0
0
0
0
0
0
0
0
0
0
0
0
0
0
0
0
0
0
0
0
0
0
0
0
0
0
0
0
0
0
0
0
0
0
0
0
0
0
0
0
0
0
0
0
0
0
0
0
0
0
0
0
0
0
0
0
0
0
0
0
0
0
0
0
0
0
0
0
0
0
0
0
0
0
0
0
0
0
0
0
0
0
0
0
0
0
0
0
0
0
0
0
0
0
0
0
0
0
0
0
0
0
0
0
0
0
0
0
0
0
0
0
0
0
0
0
0
0
0
0
0
0
0
0
0
0
0
0
0
0
0
0
0
0
0
0
0
0
0
0
0
0
0
0
0
0
0
0
0
0
0
0
0
0
0
0
0
0
0
0
0
0
0
0
0
0
0
0
0
0
0
0
0
0
0
0
0
0
0
0
0
0
0
0
0
0
0
0
0
0
0
0
0
0
0
0
0
0
0
0
0
0
0
0
0
0
0
0
0
0
0
0
0
0
0
0
0
0
1
1
1
1
1
1
1
1
1
1
1
1
1
1
1
1
1
1
1
1
1
1
1
1
1
1
1
1
1
1
1
1
1
1
1
1
1
1
1
1
1
1
1
1
1
1
1
1
1
1
1
1
1
1
1
1
1
1
1
1
1
1
0.236034
0.0323742
1.89253e-05
8.60885e-09
4.30454e-12
2.47238e-15
1.52383e-18
8.84738e-22
5.02563e-25
2.56064e-28
1.43525e-31
7.35561e-35
3.99497e-38
2.05986e-41
1.06807e-44
5.26195e-48
2.59147e-51
1.18383e-54
5.07981e-58
2.1811e-61
8.91271e-65
3.71877e-68
1.51037e-71
5.97675e-75
2.27274e-78
8.33492e-82
2.96274e-85
1.02503e-88
3.45908e-92
1.1406e-95
3.68692e-99
1.16282e-102
3.62462e-106
1.09959e-109
3.30788e-113
9.68201e-117
2.79867e-120
7.95582e-124
2.21855e-127
6.15178e-131
1.67045e-134
4.50879e-138
1.19846e-141
3.14994e-145
8.24032e-149
2.11836e-152
5.41463e-156
1.37094e-159
3.40305e-163
7.99621e-167
1.01708e-172
1.17124e-178
1.21806e-184
1.17428e-190
1.07059e-196
9.43298e-203
8.3083e-209
7.56026e-215
7.4974e-221
8.4642e-227
1.10152e-232
1.65205e-238
2.76119e-244
5.06273e-250
1.00111e-255
2.14547e-261
4.976e-267
1.18323e-272
2.52724e-278
4.59269e-284
7.24632e-290
1.02305e-295
1.31823e-301
1.59176e-307
1.83114e-313
2.04711e-319
0
0
0
0
0
0
0
0
0
0
0
0
0
0
0
0
0
0
0
0
0
0
0
0
0
0
0
0
0
0
0
0
0
0
0
0
0
0
0
0
0
0
0
0
0
0
0
0
0
0
0
0
0
0
0
0
0
0
0
0
0
0
0
0
0
0
0
0
0
0
0
0
0
0
0
0
0
0
0
0
0
0
0
0
0
0
0
0
0
0
0
0
0
0
0
0
0
0
0
0
0
0
0
0
0
0
0
0
0
0
0
0
0
0
0
0
0
0
0
0
0
0
0
0
0
0
0
0
0
0
0
0
0
0
0
0
0
0
0
0
0
0
0
0
0
0
0
0
0
0
0
0
0
0
0
0
0
0
0
0
0
0
0
0
0
0
0
0
0
0
0
0
0
0
0
0
0
0
0
0
0
0
0
0
0
0
0
0
0
0
0
0
0
0
0
0
0
0
0
0
0
0
0
0
0
0
0
0
0
0
0
0
0
0
0
0
0
0
0
0
0
0
0
0
0
0
0
0
0
0
0
0
0
0
0
0
0
0
0
0
0
0
0
0
0
0
0
0
0
0
0
0
0
0
0
0
0
0
0
0
0
0
1
1
1
1
1
1
1
1
1
1
1
1
1
1
1
1
1
1
1
1
1
1
1
1
1
1
1
1
1
1
1
1
1
1
1
1
1
1
1
1
1
1
1
1
1
1
1
1
1
1
1
1
1
1
1
1
1
1
1
1
1
1
0.275243
0.0397636
0.000139982
1.50491e-08
4.28248e-12
2.12763e-15
1.25494e-18
7.64204e-22
4.55618e-25
2.46251e-28
1.4402e-31
7.65965e-35
4.37562e-38
2.25519e-41
1.18839e-44
5.41867e-48
2.47758e-51
9.36915e-55
3.66964e-58
1.27361e-61
4.96245e-65
1.92819e-68
7.97232e-72
3.22532e-75
1.26677e-78
4.80178e-82
1.7666e-85
6.31398e-89
2.19881e-92
7.46478e-96
2.47302e-99
8.02231e-103
2.54348e-106
7.88586e-110
2.41499e-113
7.19223e-117
2.12563e-120
6.12364e-124
1.74235e-127
4.8828e-131
1.34227e-134
3.66974e-138
9.82061e-142
2.61353e-145
6.83194e-149
1.75664e-152
4.50162e-156
1.12667e-159
2.82003e-163
6.50971e-167
8.61873e-173
1.0168e-178
1.08203e-184
1.06907e-190
9.91579e-197
8.94199e-203
8.04136e-209
7.52479e-215
7.74269e-221
9.12681e-227
1.23676e-232
1.91323e-238
3.25785e-244
6.02751e-250
1.19328e-255
2.54509e-261
5.40654e-267
1.02785e-272
1.6832e-278
2.44533e-284
3.20791e-290
3.9047e-296
4.48282e-302
4.96456e-308
5.3738e-314
5.7776e-320
0
0
0
0
0
0
0
0
0
0
0
0
0
0
0
0
0
0
0
0
0
0
0
0
0
0
0
0
0
0
0
0
0
0
0
0
0
0
0
0
0
0
0
0
0
0
0
0
0
0
0
0
0
0
0
0
0
0
0
0
0
0
0
0
0
0
0
0
0
0
0
0
0
0
0
0
0
0
0
0
0
0
0
0
0
0
0
0
0
0
0
0
0
0
0
0
0
0
0
0
0
0
0
0
0
0
0
0
0
0
0
0
0
0
0
0
0
0
0
0
0
0
0
0
0
0
0
0
0
0
0
0
0
0
0
0
0
0
0
0
0
0
0
0
0
0
0
0
0
0
0
0
0
0
0
0
0
0
0
0
0
0
0
0
0
0
0
0
0
0
0
0
0
0
0
0
0
0
0
0
0
0
0
0
0
0
0
0
0
0
0
0
0
0
0
0
0
0
0
0
0
0
0
0
0
0
0
0
0
0
0
0
0
0
0
0
0
0
0
0
0
0
0
0
0
0
0
0
0
0
0
0
0
0
0
0
0
0
0
0
0
0
0
0
0
0
0
0
0
0
0
0
0
0
0
0
0
0
0
0
0
0
1
1
1
1
1
1
1
1
1
1
1
1
1
1
1
1
1
1
1
1
1
1
1
1
1
1
1
1
1
1
1
1
1
1
1
1
1
1
1
1
1
1
1
1
1
1
1
1
1
1
1
1
1
1
1
1
1
1
1
0.999232
0.99609
0.613038
0.15664
0.0185937
7.70987e-06
2.21227e-09
6.06459e-13
2.01954e-16
8.41431e-20
4.05574e-23
2.2593e-26
1.25915e-29
7.7503e-33
4.44596e-36
2.62739e-39
1.42454e-42
7.61503e-46
3.5995e-49
1.651e-52
6.42131e-56
2.55316e-59
9.27349e-63
3.66065e-66
1.45152e-69
5.95751e-73
2.40906e-76
9.46373e-80
3.60906e-83
1.3401e-86
4.85892e-90
1.7211e-93
5.96124e-97
2.01418e-100
6.67093e-104
2.15364e-107
6.78907e-111
2.10846e-114
6.35087e-118
1.89216e-121
5.48508e-125
1.56395e-128
4.39105e-132
1.20772e-135
3.2908e-139
8.79248e-143
2.32352e-146
6.04582e-150
1.54252e-153
3.92014e-157
9.69399e-161
2.38521e-164
1.44323e-168
5.1876e-175
2.41847e-181
1.89546e-187
2.28828e-193
3.23018e-199
4.74134e-205
6.90241e-211
1.00505e-216
1.45809e-222
2.12766e-228
3.13931e-234
4.75735e-240
7.41536e-246
1.21454e-251
1.9373e-257
2.79349e-263
3.59073e-269
4.2624e-275
4.74019e-281
5.08639e-287
5.31449e-293
5.51628e-299
5.7047e-305
5.94578e-311
6.23878e-317
1.4822e-323
0
0
0
0
0
0
0
0
0
0
0
0
0
0
0
0
0
0
0
0
0
0
0
0
0
0
0
0
0
0
0
0
0
0
0
0
0
0
0
0
0
0
0
0
0
0
0
0
0
0
0
0
0
0
0
0
0
0
0
0
0
0
0
0
0
0
0
0
0
0
0
0
0
0
0
0
0
0
0
0
0
0
0
0
0
0
0
0
0
0
0
0
0
0
0
0
0
0
0
0
0
0
0
0
0
0
0
0
0
0
0
0
0
0
0
0
0
0
0
0
0
0
0
0
0
0
0
0
0
0
0
0
0
0
0
0
0
0
0
0
0
0
0
0
0
0
0
0
0
0
0
0
0
0
0
0
0
0
0
0
0
0
0
0
0
0
0
0
0
0
0
0
0
0
0
0
0
0
0
0
0
0
0
0
0
0
0
0
0
0
0
0
0
0
0
0
0
0
0
0
0
0
0
0
0
0
0
0
0
0
0
0
0
0
0
0
0
0
0
0
0
0
0
0
0
0
0
0
0
0
0
0
0
0
0
0
0
0
0
0
0
0
0
0
0
0
0
0
0
0
0
0
0
0
0
0
0
0
0
0
0
0
1
1
1
1
1
1
1
1
1
1
1
1
1
1
1
1
1
1
1
1
1
1
1
1
1
1
1
1
1
1
1
1
1
1
1
1
1
1
1
1
1
1
1
1
1
1
1
1
1
1
1
1
1
1
1
1
1
1
1
0.684313
0.18861
0.0368898
0.00115224
2.28999e-05
1.82882e-08
1.08095e-11
5.60597e-15
2.82974e-18
1.51658e-21
8.55894e-25
4.97359e-28
2.68638e-31
1.4917e-34
7.45638e-38
3.91741e-41
1.90718e-44
9.55198e-48
4.43671e-51
2.09386e-54
9.10957e-58
4.0004e-61
1.63879e-64
6.70389e-68
2.60516e-71
1.00366e-74
3.74396e-78
1.37628e-81
4.96586e-85
1.76611e-88
6.18263e-92
2.13046e-95
7.21622e-99
2.39984e-102
7.8612e-106
2.51345e-109
7.94104e-113
2.4487e-116
7.42664e-120
2.22145e-123
6.49401e-127
1.88196e-130
5.3308e-134
1.49449e-137
4.12428e-141
1.11843e-144
3.00822e-148
7.9391e-152
2.06531e-155
5.33526e-159
1.34626e-162
3.35873e-166
4.51687e-172
5.68336e-178
6.63655e-184
7.24002e-190
7.28356e-196
6.91516e-202
6.19539e-208
5.27569e-214
4.37493e-220
3.55056e-226
2.91931e-232
2.46714e-238
2.22497e-244
2.14614e-250
2.24903e-256
2.48117e-262
2.83298e-268
3.23902e-274
3.70319e-280
4.1807e-286
4.70907e-292
5.26914e-298
5.91964e-304
6.65321e-310
7.53815e-316
6.57107e-322
0
0
0
0
0
0
0
0
0
0
0
0
0
0
0
0
0
0
0
0
0
0
0
0
0
0
0
0
0
0
0
0
0
0
0
0
0
0
0
0
0
0
0
0
0
0
0
0
0
0
0
0
0
0
0
0
0
0
0
0
0
0
0
0
0
0
0
0
0
0
0
0
0
0
0
0
0
0
0
0
0
0
0
0
0
0
0
0
0
0
0
0
0
0
0
0
0
0
0
0
0
0
0
0
0
0
0
0
0
0
0
0
0
0
0
0
0
0
0
0
0
0
0
0
0
0
0
0
0
0
0
0
0
0
0
0
0
0
0
0
0
0
0
0
0
0
0
0
0
0
0
0
0
0
0
0
0
0
0
0
0
0
0
0
0
0
0
0
0
0
0
0
0
0
0
0
0
0
0
0
0
0
0
0
0
0
0
0
0
0
0
0
0
0
0
0
0
0
0
0
0
0
0
0
0
0
0
0
0
0
0
0
0
0
0
0
0
0
0
0
0
0
0
0
0
0
0
0
0
0
0
0
0
0
0
0
0
0
0
0
0
0
0
0
0
0
0
0
0
0
0
0
0
0
0
0
0
0
0
0
0
0
0
1
1
1
1
0.289497
0.0300567
0.000624258
0.000208412
6.27529e-05
7.61792e-06
2.66139e-07
6.64977e-09
1.43802e-10
2.56502e-12
2.68058e-08
5.79453e-06
0.000102708
0.00022988
0.0025641
0.0112155
0.0207569
0.0212973
0.0191017
0.0148684
0.0108723
0.0117082
0.00579453
0.00349729
0.00135091
0.000336969
6.78122e-05
2.68311e-05
8.21166e-06
2.51374e-07
1.04778e-09
1.65852e-12
2.77268e-15
4.7042e-18
8.35785e-21
1.65869e-23
4.88638e-26
1.33369e-27
4.20547e-28
7.73908e-26
9.07267e-29
4.30365e-27
4.19893e-26
9.5455e-26
8.15764e-26
2.36454e-26
4.06237e-27
5.97675e-28
2.81303e-28
1.22237e-28
6.53291e-29
9.65806e-29
1.80002e-28
4.46586e-29
8.44631e-31
1.75652e-34
3.68917e-38
7.76e-42
1.66425e-45
3.57039e-49
7.70402e-53
1.66283e-56
3.64097e-60
8.10006e-64
1.80044e-67
4.00253e-71
8.90781e-75
1.96523e-78
4.31164e-82
9.49399e-86
5.59561e-102
1.67291e-103
1.5489e-106
1.73761e-108
5.06401e-111
5.70651e-114
3.12041e-117
1.0809e-120
2.79784e-124
4.60856e-128
7.42648e-132
1.22049e-135
2.08514e-139
3.75575e-143
7.09676e-147
1.38242e-150
2.73159e-154
5.41817e-158
1.06909e-161
2.09201e-165
3.04937e-171
6.09526e-177
5.0357e-182
3.67005e-186
9.95433e-191
1.96943e-195
3.20066e-200
4.40958e-205
9.31921e-211
1.47026e-216
1.28892e-237
1.19895e-239
1.37241e-244
8.12071e-250
3.07169e-255
9.60312e-261
2.78864e-266
7.87763e-272
2.12904e-277
5.34216e-283
1.22276e-288
2.6035e-294
5.13834e-300
9.65644e-306
2.48247e-311
1.25103e-314
2.05096e-317
0
0
0
0
0
0
0
0
0
0
0
0
0
0
0
0
0
0
0
0
0
0
0
0
0
0
0
0
0
0
0
0
0
0
0
0
0
0
0
0
0
0
0
0
0
0
0
0
0
0
0
0
0
0
0
0
0
0
0
0
0
0
0
0
0
0
0
0
0
0
0
0
0
0
0
0
0
0
0
0
0
0
0
0
0
0
0
0
0
0
0
0
0
0
0
0
0
0
0
0
0
0
0
0
0
0
0
0
0
0
0
0
0
0
0
0
0
0
0
0
0
0
0
0
0
0
0
0
0
0
0
0
0
0
0
0
0
0
0
0
0
0
0
0
0
0
0
0
0
0
0
0
0
0
0
0
0
0
0
0
0
0
0
0
0
0
0
0
0
0
0
0
0
0
0
0
0
0
0
0