/*--------------------------------*- C++ -*----------------------------------*\
| =========                 |                                                 |
| \\      /  F ield         | OpenFOAM: The Open Source CFD Toolbox           |
|  \\    /   O peration     | Version:  2.1.1                                 |
|   \\  /    A nd           | Web:      www.OpenFOAM.org                      |
|    \\/     M anipulation  |                                                 |
\*---------------------------------------------------------------------------*/
FoamFile
{
    version     2.0;
    format      ascii;
    class       volScalarField;
    location    "0.001800000";
    object      O;
}
// * * * * * * * * * * * * * * * * * * * * * * * * * * * * * * * * * * * * * //

dimensions      [0 0 0 0 0 0 0];

internalField   nonuniform List<scalar> 
12384
(
0.00030328
0.000325968
0.00033418
0.00033115
6.88886e-05
5.77496e-06
1.41738e-07
7.85573e-08
3.0546e-08
2.87299e-09
8.11061e-11
1.72144e-12
3.72796e-14
6.95335e-16
1.13097e-12
6.11219e-11
1.8122e-09
1.11298e-08
1.12297e-07
5.93895e-07
1.0781e-06
1.28293e-06
1.13273e-06
1.04143e-06
8.55892e-07
5.45236e-07
6.35997e-07
2.76633e-07
9.73615e-08
2.15436e-08
5.57353e-09
2.08427e-09
7.06744e-10
3.85154e-11
1.33558e-13
5.67588e-16
1.68395e-18
3.55892e-21
5.41493e-24
7.96981e-27
1.56393e-29
2.88172e-31
1.80951e-31
3.11624e-29
3.57019e-32
1.3378e-30
1.05331e-29
1.82224e-29
9.63894e-30
2.11663e-30
2.3407e-31
5.39926e-32
2.38459e-32
5.8692e-33
2.14718e-33
2.63719e-33
4.7064e-33
1.2538e-33
2.54312e-35
7.32931e-39
1.99091e-42
5.47984e-46
1.27143e-49
2.67926e-53
5.20012e-57
9.69669e-61
2.00702e-64
4.31593e-68
9.97351e-72
2.26257e-75
5.03605e-79
1.1261e-82
2.51445e-86
5.66297e-90
5.61937e-106
2.33195e-107
2.03932e-110
2.88094e-112
7.93214e-115
9.53489e-118
5.54294e-121
2.03443e-124
5.45034e-128
9.32692e-132
1.58932e-135
2.6635e-139
4.60853e-143
8.32148e-147
1.54878e-150
2.94935e-154
5.66732e-158
1.09609e-161
2.10539e-165
3.99893e-169
3.57939e-175
6.17089e-181
5.21164e-186
2.57928e-190
8.54524e-195
1.6163e-199
2.58867e-204
3.42891e-209
6.62605e-215
9.54275e-221
6.89729e-242
5.09804e-244
5.7415e-249
3.49265e-254
1.39478e-259
4.67456e-265
1.43122e-270
4.19971e-276
1.14513e-281
2.84705e-287
6.40818e-293
1.32921e-298
2.5717e-304
4.76511e-310
3.46675e-315
4.40826e-318
7.14419e-321
0
0
0
0
0
0
0
0
0
0
0
0
0
0
0
0
0
0
0
0
0
0
0
0
0
0
0
0
0
0
0
0
0
0
0
0
0
0
0
0
0
0
0
0
0
0
0
0
0
0
0
0
0
0
0
0
0
0
0
0
0
0
0
0
0
0
0
0
0
0
0
0
0
0
0
0
0
0
0
0
0
0
0
0
0
0
0
0
0
0
0
0
0
0
0
0
0
0
0
0
0
0
0
0
0
0
0
0
0
0
0
0
0
0
0
0
0
0
0
0
0
0
0
0
0
0
0
0
0
0
0
0
0
0
0
0
0
0
0
0
0
0
0
0
0
0
0
0
0
0
0
0
0
0
0
0
0
0
0
0
0
0
0
0
0
0
0
0
0
0
0
0
0
0
0
0
0
0
0
0
0
0
0
0
0
0
0
0
0
0
0
0
0
0
0
0
0
0
0
0
0
0
0
0
0
0
0
0
0
0
0
0
0
0
0
0
0
0
0
0
0
0
0
0
0
0
0
0
0
0
0
0
0
0
0
0
0
0
0
0
0
0
0
0
0
0
0
0
0
0
0
0
0
0.000265727
0.000248444
0.000266989
0.000243515
3.78686e-05
3.1689e-06
5.24634e-07
1.42346e-07
4.08133e-08
5.43775e-09
6.3551e-10
4.53071e-11
2.29018e-12
4.53113e-14
1.79849e-11
1.20316e-09
9.49309e-08
5.77782e-07
3.14643e-06
5.88368e-06
1.17468e-05
1.49493e-05
1.35017e-05
1.34399e-05
1.04522e-05
6.27363e-06
6.35856e-06
3.04216e-06
1.55239e-06
8.37858e-07
1.90709e-07
4.13364e-08
6.12686e-09
1.4006e-10
1.98395e-13
6.64114e-17
1.20821e-19
6.71866e-22
8.09236e-24
3.53058e-25
3.24714e-27
1.30279e-28
5.72676e-29
1.33294e-26
8.81302e-30
7.70233e-29
1.82553e-28
2.27549e-28
2.33593e-28
5.0617e-28
4.00174e-28
3.54594e-28
2.06151e-28
1.14061e-28
2.70651e-29
2.70152e-29
1.26677e-29
5.74909e-31
1.57359e-33
3.99373e-38
3.51138e-42
8.98228e-47
6.52083e-50
6.40283e-53
2.04395e-56
6.00018e-60
2.62386e-63
9.49394e-67
2.69079e-70
5.62986e-74
1.0843e-77
2.29522e-81
5.11944e-85
1.17668e-88
4.33229e-104
4.49478e-106
2.86716e-109
4.24691e-111
1.15879e-113
1.39638e-116
8.98678e-120
4.26195e-123
1.67919e-126
1.73268e-130
2.25683e-134
4.60165e-138
1.33337e-141
3.46562e-145
1.02961e-148
2.47231e-152
6.57417e-156
1.6317e-159
3.99315e-163
9.87386e-167
3.23523e-170
4.09089e-175
6.11203e-180
4.89234e-184
1.33644e-188
2.19062e-193
3.02756e-198
3.91644e-203
7.40384e-209
7.83247e-215
6.36211e-236
4.89473e-238
5.90425e-243
3.73076e-248
1.53819e-253
5.23707e-259
1.63664e-264
4.92066e-270
1.38687e-275
3.43678e-281
7.79884e-287
1.59676e-292
3.04961e-298
5.42216e-304
9.13049e-310
6.43594e-315
7.86813e-318
1.20009e-320
0
0
0
0
0
0
0
0
0
0
0
0
0
0
0
0
0
0
0
0
0
0
0
0
0
0
0
0
0
0
0
0
0
0
0
0
0
0
0
0
0
0
0
0
0
0
0
0
0
0
0
0
0
0
0
0
0
0
0
0
0
0
0
0
0
0
0
0
0
0
0
0
0
0
0
0
0
0
0
0
0
0
0
0
0
0
0
0
0
0
0
0
0
0
0
0
0
0
0
0
0
0
0
0
0
0
0
0
0
0
0
0
0
0
0
0
0
0
0
0
0
0
0
0
0
0
0
0
0
0
0
0
0
0
0
0
0
0
0
0
0
0
0
0
0
0
0
0
0
0
0
0
0
0
0
0
0
0
0
0
0
0
0
0
0
0
0
0
0
0
0
0
0
0
0
0
0
0
0
0
0
0
0
0
0
0
0
0
0
0
0
0
0
0
0
0
0
0
0
0
0
0
0
0
0
0
0
0
0
0
0
0
0
0
0
0
0
0
0
0
0
0
0
0
0
0
0
0
0
0
0
0
0
0
0
0
0
0
0
0
0
0
0
0
0
0
0
0
0
0
0
0
0.000125635
4.84512e-05
2.92842e-05
3.38859e-05
2.68119e-07
2.27225e-08
1.84226e-08
5.49241e-09
7.16537e-09
3.16443e-09
6.28417e-10
1.30611e-11
4.11072e-12
5.81072e-13
8.41222e-11
2.34162e-07
1.35829e-05
2.3417e-05
6.86377e-05
0.000197542
0.000308005
0.000305893
0.00029109
0.00025358
0.00024395
0.000243356
0.000200538
7.99287e-05
4.89582e-05
4.18367e-05
1.08932e-05
6.11756e-06
2.57845e-06
7.01541e-07
4.44447e-08
3.66818e-13
9.66482e-18
6.34545e-22
1.77167e-24
3.32412e-25
3.43702e-26
3.18195e-26
2.90857e-26
5.14543e-24
7.37672e-29
1.08093e-27
7.70634e-26
6.7394e-24
9.15816e-23
1.68239e-23
9.336e-25
1.54396e-25
3.83609e-26
8.25997e-27
3.24279e-27
1.91492e-27
8.34807e-27
1.69493e-26
9.64265e-27
9.01688e-31
9.52626e-36
7.6352e-42
1.4109e-46
7.57884e-51
1.43995e-55
7.82125e-61
7.42267e-65
1.05768e-68
2.11504e-71
4.95561e-74
1.77139e-76
1.07024e-79
3.73182e-83
2.07922e-86
2.74832e-103
8.21391e-104
2.57212e-106
9.82178e-108
3.37624e-110
2.84523e-113
8.8141e-117
1.29523e-120
1.73995e-124
1.27401e-129
1.321e-133
1.5603e-137
1.46282e-141
2.15455e-145
3.08605e-149
5.10202e-153
8.36384e-157
1.47217e-160
2.62749e-164
4.83317e-168
9.93706e-172
2.64224e-174
5.48003e-179
1.19808e-182
4.41644e-187
1.53821e-191
4.67276e-196
8.06188e-201
4.19926e-206
3.538e-212
4.07756e-235
6.3134e-237
7.53005e-242
4.60959e-247
1.57175e-252
5.45645e-258
1.18641e-263
4.5955e-269
9.22027e-275
3.24285e-280
5.33698e-286
1.52925e-291
2.49508e-297
5.75465e-303
8.74317e-309
1.5309e-314
7.25437e-320
6.91692e-323
0
0
0
0
0
0
0
0
0
0
0
0
0
0
0
0
0
0
0
0
0
0
0
0
0
0
0
0
0
0
0
0
0
0
0
0
0
0
0
0
0
0
0
0
0
0
0
0
0
0
0
0
0
0
0
0
0
0
0
0
0
0
0
0
0
0
0
0
0
0
0
0
0
0
0
0
0
0
0
0
0
0
0
0
0
0
0
0
0
0
0
0
0
0
0
0
0
0
0
0
0
0
0
0
0
0
0
0
0
0
0
0
0
0
0
0
0
0
0
0
0
0
0
0
0
0
0
0
0
0
0
0
0
0
0
0
0
0
0
0
0
0
0
0
0
0
0
0
0
0
0
0
0
0
0
0
0
0
0
0
0
0
0
0
0
0
0
0
0
0
0
0
0
0
0
0
0
0
0
0
0
0
0
0
0
0
0
0
0
0
0
0
0
0
0
0
0
0
0
0
0
0
0
0
0
0
0
0
0
0
0
0
0
0
0
0
0
0
0
0
0
0
0
0
0
0
0
0
0
0
0
0
0
0
0
0
0
0
0
0
0
0
0
0
0
0
0
0
0
0
0
0
8.89556e-06
2.62517e-06
5.08853e-07
2.35547e-07
9.32458e-09
5.30657e-09
4.61387e-09
5.22282e-08
2.1648e-08
1.94706e-08
7.62954e-09
6.00279e-10
1.44257e-11
1.05684e-12
1.64035e-09
6.3271e-06
0.000254846
0.000271415
0.00020158
6.92835e-05
6.75466e-05
5.4463e-05
5.82521e-05
5.20056e-05
3.04806e-05
2.40397e-05
2.73598e-05
7.15429e-05
0.000158143
0.000151741
0.000148836
0.000318577
0.000301852
0.000203566
2.81806e-05
1.11184e-06
1.15985e-10
5.42869e-16
1.10783e-19
1.53479e-23
7.88072e-26
3.60919e-25
8.73089e-24
1.95796e-21
6.55575e-27
1.30587e-23
1.78488e-20
4.73109e-20
7.02276e-21
3.09606e-21
1.65418e-21
1.01355e-21
6.37803e-22
1.42878e-22
1.59544e-23
2.37351e-24
2.18453e-24
6.26485e-25
5.79793e-26
3.26245e-28
5.29159e-30
1.92403e-33
4.98144e-38
7.34296e-43
1.19439e-47
1.78492e-53
3.43712e-58
7.99781e-63
3.65227e-68
1.45265e-72
9.66659e-76
1.41676e-78
1.29769e-81
9.48804e-84
1.85053e-96
3.14701e-96
1.41143e-98
5.57001e-100
2.11296e-102
2.20051e-105
6.06388e-109
6.43958e-113
4.25851e-117
2.45019e-121
1.41992e-125
9.59769e-130
7.20204e-134
4.85578e-138
5.05983e-142
5.84905e-146
5.1272e-150
7.14314e-154
1.03143e-157
1.56854e-161
2.54338e-165
3.86079e-169
5.80982e-173
8.30457e-177
1.08348e-181
1.26849e-186
1.02386e-191
8.93827e-197
2.35324e-202
2.3298e-208
1.17418e-227
6.86755e-230
4.36044e-235
1.51222e-240
4.37096e-246
1.04929e-251
2.55585e-257
5.77359e-263
1.43357e-268
2.96221e-274
6.54721e-280
1.16718e-285
2.36852e-291
3.64411e-297
6.55442e-303
8.76758e-309
1.40096e-314
3.53405e-320
2.96439e-323
0
0
0
0
0
0
0
0
0
0
0
0
0
0
0
0
0
0
0
0
0
0
0
0
0
0
0
0
0
0
0
0
0
0
0
0
0
0
0
0
0
0
0
0
0
0
0
0
0
0
0
0
0
0
0
0
0
0
0
0
0
0
0
0
0
0
0
0
0
0
0
0
0
0
0
0
0
0
0
0
0
0
0
0
0
0
0
0
0
0
0
0
0
0
0
0
0
0
0
0
0
0
0
0
0
0
0
0
0
0
0
0
0
0
0
0
0
0
0
0
0
0
0
0
0
0
0
0
0
0
0
0
0
0
0
0
0
0
0
0
0
0
0
0
0
0
0
0
0
0
0
0
0
0
0
0
0
0
0
0
0
0
0
0
0
0
0
0
0
0
0
0
0
0
0
0
0
0
0
0
0
0
0
0
0
0
0
0
0
0
0
0
0
0
0
0
0
0
0
0
0
0
0
0
0
0
0
0
0
0
0
0
0
0
0
0
0
0
0
0
0
0
0
0
0
0
0
0
0
0
0
0
0
0
0
0
0
0
0
0
0
0
0
0
0
0
0
0
0
0
0
1.2268e-06
1.22363e-06
8.11495e-07
2.61432e-07
2.12385e-05
0.000155944
3.15139e-05
3.02149e-05
8.42964e-06
5.9756e-06
3.0825e-07
8.26532e-08
4.89588e-09
5.03692e-12
9.98225e-08
2.72078e-05
5.88767e-05
5.87517e-05
4.80702e-05
1.94303e-05
2.7607e-05
1.73269e-05
1.24409e-05
6.63651e-06
3.50313e-06
1.50682e-06
2.0671e-06
4.64791e-06
7.29867e-06
7.75724e-06
8.62327e-06
3.04736e-05
7.75589e-05
0.000156187
7.55559e-05
5.15433e-05
2.89715e-06
7.87764e-10
7.85775e-14
6.03239e-18
8.85779e-22
8.20148e-24
1.22303e-22
4.42354e-19
5.72269e-23
9.44978e-19
3.17861e-17
8.97856e-18
1.34505e-17
2.25062e-17
1.96005e-18
2.52163e-19
1.55685e-19
4.05117e-20
5.29495e-20
4.72867e-20
4.06887e-20
1.75789e-21
2.61746e-23
1.45925e-26
3.40387e-29
4.25434e-31
4.41185e-33
5.51398e-37
1.70903e-41
6.25595e-46
1.37057e-50
2.48171e-55
3.14202e-61
3.50736e-66
1.18447e-71
1.87612e-76
4.52116e-80
3.71364e-82
1.97795e-90
8.16253e-91
2.53503e-94
1.48758e-96
2.59847e-99
3.37944e-102
4.95388e-105
1.25e-107
4.41038e-111
4.09474e-115
3.01968e-119
2.28259e-123
1.85671e-127
1.64764e-131
1.57181e-135
1.74882e-139
1.873e-143
2.67845e-147
2.8325e-151
4.56187e-155
6.58244e-159
9.55122e-163
1.37214e-166
2.13988e-170
3.17116e-174
2.11937e-179
1.10029e-184
4.71929e-190
1.55952e-195
1.40548e-201
1.38638e-219
6.90071e-222
2.30244e-227
5.38856e-233
9.12605e-239
1.89695e-244
3.87296e-250
8.89849e-256
1.87585e-261
4.33783e-267
8.46414e-273
1.82561e-278
3.64759e-284
7.14221e-290
1.21809e-295
2.02309e-301
2.94745e-307
4.25025e-313
8.25435e-319
3.7549e-322
0
0
0
0
0
0
0
0
0
0
0
0
0
0
0
0
0
0
0
0
0
0
0
0
0
0
0
0
0
0
0
0
0
0
0
0
0
0
0
0
0
0
0
0
0
0
0
0
0
0
0
0
0
0
0
0
0
0
0
0
0
0
0
0
0
0
0
0
0
0
0
0
0
0
0
0
0
0
0
0
0
0
0
0
0
0
0
0
0
0
0
0
0
0
0
0
0
0
0
0
0
0
0
0
0
0
0
0
0
0
0
0
0
0
0
0
0
0
0
0
0
0
0
0
0
0
0
0
0
0
0
0
0
0
0
0
0
0
0
0
0
0
0
0
0
0
0
0
0
0
0
0
0
0
0
0
0
0
0
0
0
0
0
0
0
0
0
0
0
0
0
0
0
0
0
0
0
0
0
0
0
0
0
0
0
0
0
0
0
0
0
0
0
0
0
0
0
0
0
0
0
0
0
0
0
0
0
0
0
0
0
0
0
0
0
0
0
0
0
0
0
0
0
0
0
0
0
0
0
0
0
0
0
0
0
0
0
0
0
0
0
0
0
0
0
0
0
0
0
0
1.65655e-05
5.37945e-05
0.000117228
0.000101215
0.00107037
0.00103862
0.000569393
0.000203005
0.000145863
7.28318e-05
2.85437e-05
6.72758e-06
8.34596e-08
4.12021e-10
5.91311e-07
6.71073e-05
2.56361e-05
2.42673e-05
4.96029e-05
6.60583e-05
5.77118e-05
2.7323e-05
1.16729e-05
4.86019e-06
1.94639e-06
8.83592e-07
4.97035e-07
4.85083e-07
7.13457e-07
6.12038e-07
1.12384e-06
2.78337e-06
7.56362e-06
1.86176e-05
1.83743e-05
7.22179e-05
2.68227e-05
3.12221e-06
6.20753e-09
4.70786e-12
2.19344e-16
3.3676e-20
2.63503e-21
4.83193e-17
7.6144e-19
1.88421e-15
6.81181e-15
8.61167e-15
2.3649e-14
9.82088e-15
5.78977e-16
3.05802e-16
1.13868e-16
6.46753e-17
1.92057e-17
9.41425e-18
1.78686e-16
1.9871e-17
9.06489e-20
9.97909e-24
3.83633e-27
6.21928e-30
4.95626e-32
5.36738e-34
9.86409e-37
9.25991e-41
5.3709e-45
1.76849e-49
3.68056e-54
6.56803e-59
6.10423e-65
3.08075e-70
4.10295e-76
5.88042e-79
1.98582e-85
1.67311e-87
4.51049e-91
6.44792e-93
8.02264e-96
3.20647e-99
1.18552e-102
8.31515e-106
1.74497e-108
4.90701e-111
3.09493e-114
4.73971e-118
5.91339e-122
7.31409e-126
8.69815e-130
1.07748e-133
1.33342e-137
1.89162e-141
2.3432e-145
3.70109e-149
4.86419e-153
7.78073e-157
1.12002e-160
1.58318e-164
2.32177e-168
2.97707e-172
1.36619e-177
4.37988e-183
1.06682e-188
1.08637e-194
9.79565e-212
2.71658e-214
5.62118e-220
7.02061e-226
8.97987e-232
1.13395e-237
1.67173e-243
2.4948e-249
4.70338e-255
9.701e-261
2.35243e-266
6.05212e-272
1.50729e-277
3.33571e-283
6.90364e-289
1.2956e-294
2.16781e-300
3.34392e-306
4.67965e-312
7.92206e-318
1.99603e-321
4.94066e-324
0
0
0
0
0
0
0
0
0
0
0
0
0
0
0
0
0
0
0
0
0
0
0
0
0
0
0
0
0
0
0
0
0
0
0
0
0
0
0
0
0
0
0
0
0
0
0
0
0
0
0
0
0
0
0
0
0
0
0
0
0
0
0
0
0
0
0
0
0
0
0
0
0
0
0
0
0
0
0
0
0
0
0
0
0
0
0
0
0
0
0
0
0
0
0
0
0
0
0
0
0
0
0
0
0
0
0
0
0
0
0
0
0
0
0
0
0
0
0
0
0
0
0
0
0
0
0
0
0
0
0
0
0
0
0
0
0
0
0
0
0
0
0
0
0
0
0
0
0
0
0
0
0
0
0
0
0
0
0
0
0
0
0
0
0
0
0
0
0
0
0
0
0
0
0
0
0
0
0
0
0
0
0
0
0
0
0
0
0
0
0
0
0
0
0
0
0
0
0
0
0
0
0
0
0
0
0
0
0
0
0
0
0
0
0
0
0
0
0
0
0
0
0
0
0
0
0
0
0
0
0
0
0
0
0
0
0
0
0
0
0
0
0
0
0
0
0
0
0.000791032
0.0011083
0.00128551
0.00135419
0.00111366
0.000844501
0.000581822
0.00031956
0.000282691
0.000231862
0.0001222
4.65408e-05
9.06375e-07
2.6831e-09
3.97594e-06
0.00014359
4.95617e-05
3.99777e-05
0.000147318
0.000279181
0.00028282
0.000145882
3.42851e-05
1.11324e-05
3.19128e-06
7.48916e-07
3.63309e-07
1.45039e-07
1.69687e-07
2.07319e-07
3.4203e-07
5.93677e-07
1.39747e-06
3.24292e-06
3.60985e-06
5.15166e-06
1.66722e-05
2.61088e-05
7.19645e-06
5.59037e-08
1.50983e-10
7.26309e-15
1.08519e-18
3.49709e-15
5.27179e-15
9.9003e-13
4.17625e-12
6.61341e-12
1.4324e-11
1.46801e-11
7.14076e-12
4.23092e-12
2.99298e-12
1.02767e-12
3.18977e-13
1.46591e-13
2.50165e-13
7.50658e-14
1.64017e-16
1.20051e-20
1.77753e-24
6.84806e-28
1.08389e-30
5.87693e-33
4.07712e-35
1.14057e-37
1.09981e-40
1.52946e-44
9.15132e-49
3.43013e-53
5.91881e-58
3.84961e-63
8.34615e-70
2.2663e-74
2.86908e-81
1.1152e-83
3.40697e-87
6.60465e-89
2.50607e-91
4.95556e-95
3.74028e-99
5.50689e-103
2.859e-106
4.78663e-109
1.04803e-111
1.34997e-114
8.68337e-118
2.65545e-121
5.8017e-125
1.04723e-128
1.87765e-132
3.01587e-136
5.19521e-140
8.44003e-144
1.47127e-147
2.47964e-151
4.38619e-155
7.23172e-159
1.23189e-162
1.77134e-166
2.40679e-170
5.94254e-176
1.02361e-181
7.42085e-188
1.63328e-204
2.57205e-207
3.88282e-213
4.24017e-219
4.13773e-225
4.36697e-231
4.90981e-237
6.40291e-243
9.19705e-249
1.57706e-254
2.91579e-260
6.8101e-266
1.664e-271
5.2131e-277
1.5047e-282
4.06393e-288
8.51881e-294
1.67416e-299
2.66818e-305
4.1142e-311
6.42206e-317
1.14179e-320
1.4822e-323
0
0
0
0
0
0
0
0
0
0
0
0
0
0
0
0
0
0
0
0
0
0
0
0
0
0
0
0
0
0
0
0
0
0
0
0
0
0
0
0
0
0
0
0
0
0
0
0
0
0
0
0
0
0
0
0
0
0
0
0
0
0
0
0
0
0
0
0
0
0
0
0
0
0
0
0
0
0
0
0
0
0
0
0
0
0
0
0
0
0
0
0
0
0
0
0
0
0
0
0
0
0
0
0
0
0
0
0
0
0
0
0
0
0
0
0
0
0
0
0
0
0
0
0
0
0
0
0
0
0
0
0
0
0
0
0
0
0
0
0
0
0
0
0
0
0
0
0
0
0
0
0
0
0
0
0
0
0
0
0
0
0
0
0
0
0
0
0
0
0
0
0
0
0
0
0
0
0
0
0
0
0
0
0
0
0
0
0
0
0
0
0
0
0
0
0
0
0
0
0
0
0
0
0
0
0
0
0
0
0
0
0
0
0
0
0
0
0
0
0
0
0
0
0
0
0
0
0
0
0
0
0
0
0
0
0
0
0
0
0
0
0
0
0
0
0
0
0.00140189
0.00129671
0.00103938
0.000778455
0.000560222
0.000390006
0.000291471
0.000294428
0.000302236
0.00029632
0.000157551
3.41475e-05
6.47371e-07
1.15715e-08
1.21304e-05
0.000168046
7.43633e-05
0.000139199
0.000287452
0.000201669
0.000214712
0.000292652
0.000269569
7.19227e-05
7.64268e-06
2.67051e-06
7.00802e-07
2.11879e-07
9.39776e-08
7.93632e-08
9.87448e-08
1.32677e-07
2.97992e-07
6.52489e-07
1.14675e-06
1.86283e-06
3.67581e-06
6.1108e-06
8.74486e-06
8.13348e-06
9.51419e-07
5.395e-09
5.56173e-14
3.41885e-13
1.39923e-11
7.52362e-11
1.68873e-09
5.1603e-09
6.52142e-09
7.33483e-09
1.02444e-08
1.47385e-08
1.66878e-08
1.07408e-08
6.66681e-09
3.13525e-09
6.81899e-10
3.89104e-11
4.52588e-14
7.86701e-18
9.13608e-22
1.98138e-25
9.44636e-29
1.01846e-31
2.94819e-34
1.21431e-36
2.51898e-39
6.79504e-42
6.61894e-45
1.30562e-48
9.65777e-53
2.21335e-57
1.7627e-63
1.69249e-69
1.33099e-77
3.12219e-80
1.96654e-84
1.13834e-85
9.3053e-88
3.96465e-91
2.10205e-95
1.21757e-99
1.80412e-103
1.23315e-106
1.72549e-109
2.52182e-112
2.09541e-115
1.3023e-118
6.43069e-122
2.4829e-125
9.09096e-129
2.80062e-132
7.08073e-136
1.73758e-139
3.75372e-143
7.94079e-147
1.65009e-150
3.166e-154
6.28557e-158
1.06547e-161
1.80854e-165
2.26541e-169
3.45901e-175
2.57531e-181
1.34708e-198
6.66984e-202
6.3539e-208
1.0451e-213
1.6028e-219
1.97619e-225
2.21037e-231
2.58932e-237
3.1892e-243
4.37219e-249
6.83808e-255
1.24013e-260
2.58329e-266
6.32886e-272
1.77389e-277
5.79192e-283
1.78243e-288
4.65538e-294
9.86556e-300
1.82671e-305
2.88787e-311
5.00587e-317
9.1995e-321
4.94066e-324
0
0
0
0
0
0
0
0
0
0
0
0
0
0
0
0
0
0
0
0
0
0
0
0
0
0
0
0
0
0
0
0
0
0
0
0
0
0
0
0
0
0
0
0
0
0
0
0
0
0
0
0
0
0
0
0
0
0
0
0
0
0
0
0
0
0
0
0
0
0
0
0
0
0
0
0
0
0
0
0
0
0
0
0
0
0
0
0
0
0
0
0
0
0
0
0
0
0
0
0
0
0
0
0
0
0
0
0
0
0
0
0
0
0
0
0
0
0
0
0
0
0
0
0
0
0
0
0
0
0
0
0
0
0
0
0
0
0
0
0
0
0
0
0
0
0
0
0
0
0
0
0
0
0
0
0
0
0
0
0
0
0
0
0
0
0
0
0
0
0
0
0
0
0
0
0
0
0
0
0
0
0
0
0
0
0
0
0
0
0
0
0
0
0
0
0
0
0
0
0
0
0
0
0
0
0
0
0
0
0
0
0
0
0
0
0
0
0
0
0
0
0
0
0
0
0
0
0
0
0
0
0
0
0
0
0
0
0
0
0
0
0
0
0
0
0
0.000692595
0.000570405
0.000316342
0.000249047
0.000213668
0.000162364
0.00011331
7.67367e-05
6.66761e-05
0.0001484
0.000237596
1.49316e-05
1.59573e-07
7.91606e-08
1.28152e-06
9.77559e-06
0.000158876
0.000194875
0.000212037
0.000302897
0.0001098
8.698e-05
0.000120016
0.00018036
0.000268847
0.000313904
8.19887e-05
1.02507e-05
1.46494e-06
2.98097e-07
9.048e-08
4.28715e-08
3.82433e-08
4.26693e-08
8.34545e-08
1.16829e-07
2.30285e-07
4.54416e-07
1.06668e-06
1.59343e-06
1.13553e-06
6.50053e-06
2.79736e-05
1.10686e-05
7.27529e-08
4.11388e-10
2.26532e-11
9.87486e-12
1.68398e-11
2.1624e-10
2.37574e-08
2.08874e-07
7.28513e-07
1.81382e-06
4.08049e-06
7.91868e-06
9.57345e-06
3.98989e-06
8.23708e-07
2.08844e-07
4.17413e-08
4.74577e-09
1.31306e-11
5.31193e-15
9.3832e-19
2.15579e-22
7.53202e-26
2.82094e-29
2.32487e-32
4.45509e-35
1.26053e-37
2.82267e-40
3.95167e-43
7.06248e-46
7.89672e-49
1.41191e-52
3.16893e-57
3.51644e-64
1.34318e-69
4.5038e-73
7.17812e-76
4.08484e-79
2.17052e-81
9.41379e-82
4.89331e-84
4.31279e-88
2.76921e-92
2.15334e-96
2.38489e-100
6.25324e-104
5.04818e-107
4.95705e-110
4.34489e-113
2.7069e-116
1.37476e-119
5.46563e-123
2.19876e-126
7.3176e-130
2.18029e-133
7.06088e-137
1.88033e-140
4.74388e-144
1.41761e-147
4.40617e-151
1.20264e-154
3.75237e-158
1.2132e-161
3.69222e-165
8.35137e-169
9.51419e-175
1.83364e-180
2.18004e-186
8.08328e-193
2.14398e-199
1.50879e-205
2.39999e-211
4.48984e-217
7.57428e-223
1.04856e-228
1.32558e-234
2.47719e-240
3.7826e-246
6.72584e-252
1.34001e-257
2.9905e-263
7.55357e-269
2.18138e-274
7.00446e-280
2.61057e-285
9.16229e-291
2.77599e-296
6.55539e-302
1.34571e-307
2.25953e-313
9.82514e-319
8.20149e-322
0
0
0
0
0
0
0
0
0
0
0
0
0
0
0
0
0
0
0
0
0
0
0
0
0
0
0
0
0
0
0
0
0
0
0
0
0
0
0
0
0
0
0
0
0
0
0
0
0
0
0
0
0
0
0
0
0
0
0
0
0
0
0
0
0
0
0
0
0
0
0
0
0
0
0
0
0
0
0
0
0
0
0
0
0
0
0
0
0
0
0
0
0
0
0
0
0
0
0
0
0
0
0
0
0
0
0
0
0
0
0
0
0
0
0
0
0
0
0
0
0
0
0
0
0
0
0
0
0
0
0
0
0
0
0
0
0
0
0
0
0
0
0
0
0
0
0
0
0
0
0
0
0
0
0
0
0
0
0
0
0
0
0
0
0
0
0
0
0
0
0
0
0
0
0
0
0
0
0
0
0
0
0
0
0
0
0
0
0
0
0
0
0
0
0
0
0
0
0
0
0
0
0
0
0
0
0
0
0
0
0
0
0
0
0
0
0
0
0
0
0
0
0
0
0
0
0
0
0
0
0
0
0
0
0
0
0
0
0
0
0
0
0
0
0
0
0
0
0
0
0
0
0
0
0
0
0
0
0
0
0
0
0
0
0.000103368
8.94029e-05
4.14853e-05
4.42136e-05
6.22562e-05
6.43512e-05
2.30145e-05
7.92704e-06
4.59217e-06
3.53297e-06
2.22243e-05
0.000179394
2.33612e-06
1.51324e-07
2.71173e-06
1.17273e-05
5.01341e-05
0.000263445
0.000305398
0.000162669
7.1166e-05
0.000119579
0.000225398
0.000262675
0.000294278
0.000326145
0.000194402
2.01925e-05
1.96545e-06
3.02646e-07
7.71633e-08
3.8177e-08
2.77056e-08
1.64457e-08
2.43513e-08
3.23088e-08
4.08205e-08
8.1469e-08
2.35301e-07
5.19212e-07
1.57236e-06
1.57747e-06
6.57952e-07
8.23819e-06
6.82266e-05
4.96768e-06
9.31692e-07
5.51575e-07
1.11117e-06
6.11043e-06
1.98354e-05
4.94281e-05
6.36986e-05
1.78532e-05
5.12881e-06
1.64255e-06
5.85178e-07
2.09084e-07
8.95289e-08
3.62524e-08
1.35047e-08
9.12143e-09
1.99738e-09
9.22919e-13
4.85984e-16
1.39304e-19
5.12389e-23
1.63756e-26
1.00357e-29
5.21176e-33
6.30831e-36
9.65058e-39
1.7345e-41
2.61969e-44
4.06887e-47
6.91281e-50
8.89063e-53
2.87523e-57
7.19351e-63
3.75469e-67
8.99535e-71
1.06324e-73
1.64207e-75
2.04746e-77
2.27465e-81
1.68563e-85
1.5742e-89
1.82556e-93
2.59053e-97
5.34083e-101
2.38239e-104
1.40572e-107
1.02089e-110
6.14893e-114
2.69295e-117
1.27346e-120
4.57622e-124
1.68685e-127
5.39324e-131
1.5876e-134
4.38824e-138
1.35181e-141
3.62171e-145
1.00523e-148
2.83555e-152
9.08114e-156
2.55816e-159
9.01681e-163
2.73443e-166
1.61124e-169
1.76181e-175
1.14434e-181
5.70242e-188
1.59885e-194
9.93674e-201
1.27087e-206
1.70753e-212
2.54847e-218
3.14809e-224
4.05251e-230
4.99682e-236
6.79908e-242
9.62054e-248
1.45587e-253
2.72009e-259
6.18557e-265
1.4858e-270
4.17341e-276
1.29282e-281
4.18655e-287
1.19621e-292
2.75441e-298
5.41303e-304
8.82952e-310
1.3085e-315
3.40905e-321
0
0
0
0
0
0
0
0
0
0
0
0
0
0
0
0
0
0
0
0
0
0
0
0
0
0
0
0
0
0
0
0
0
0
0
0
0
0
0
0
0
0
0
0
0
0
0
0
0
0
0
0
0
0
0
0
0
0
0
0
0
0
0
0
0
0
0
0
0
0
0
0
0
0
0
0
0
0
0
0
0
0
0
0
0
0
0
0
0
0
0
0
0
0
0
0
0
0
0
0
0
0
0
0
0
0
0
0
0
0
0
0
0
0
0
0
0
0
0
0
0
0
0
0
0
0
0
0
0
0
0
0
0
0
0
0
0
0
0
0
0
0
0
0
0
0
0
0
0
0
0
0
0
0
0
0
0
0
0
0
0
0
0
0
0
0
0
0
0
0
0
0
0
0
0
0
0
0
0
0
0
0
0
0
0
0
0
0
0
0
0
0
0
0
0
0
0
0
0
0
0
0
0
0
0
0
0
0
0
0
0
0
0
0
0
0
0
0
0
0
0
0
0
0
0
0
0
0
0
0
0
0
0
0
0
0
0
0
0
0
0
0
0
0
0
0
0
0
0
0
0
0
0
0
0
0
0
0
0
0
0
0
0
0
2.81242e-06
4.59156e-06
2.24367e-06
2.70051e-06
5.26439e-06
3.84837e-06
4.09768e-06
9.27331e-07
3.58723e-07
2.35427e-07
5.55989e-07
9.205e-06
0.000306577
0.000298582
0.000285957
0.000289337
8.4381e-05
0.000201631
0.000155226
8.25286e-05
0.000176984
0.000218278
7.17013e-05
0.00011576
0.000226442
0.000207478
6.20067e-05
4.4163e-06
7.0334e-07
1.12434e-07
4.41675e-08
2.73655e-08
1.52295e-08
1.28576e-08
1.1403e-08
1.10684e-08
1.27399e-08
1.52424e-08
4.16403e-08
9.68537e-08
3.48127e-07
6.66024e-07
2.31203e-06
4.69296e-06
8.80708e-07
9.47209e-06
7.62731e-05
0.000336449
0.000352564
0.000344874
0.000315145
0.000143546
2.88647e-05
4.23695e-06
5.50859e-07
1.24913e-07
4.559e-08
1.50891e-08
5.93484e-09
3.08156e-09
1.77779e-09
2.35826e-09
1.25927e-09
1.28763e-10
6.56451e-14
2.12314e-17
6.50115e-21
2.17296e-24
1.19865e-27
6.24312e-31
5.77608e-34
4.73289e-37
5.4741e-40
7.03221e-43
9.47942e-46
1.33952e-48
1.15361e-51
2.86342e-54
4.24028e-57
1.26314e-60
2.33825e-64
7.71475e-68
1.82616e-71
2.27924e-75
3.01035e-79
4.26978e-83
6.79386e-87
1.22674e-90
2.24292e-94
5.59035e-98
1.68473e-101
6.64568e-105
3.03074e-108
1.48875e-111
5.78552e-115
2.42947e-118
8.599e-122
2.68875e-125
8.17055e-129
2.45697e-132
6.87616e-136
1.78434e-139
4.45288e-143
1.03436e-146
2.8667e-150
7.91704e-154
2.11593e-157
5.92823e-161
1.53744e-164
6.56818e-168
1.50794e-171
1.24646e-177
5.18051e-183
1.20427e-189
4.94706e-196
3.79598e-202
3.56929e-208
3.65591e-214
3.60411e-220
3.76496e-226
3.97659e-232
4.64677e-238
5.40949e-244
8.1273e-250
1.28874e-255
2.40022e-261
4.86857e-267
1.13856e-272
2.9396e-278
8.53062e-284
2.31962e-289
5.19912e-295
9.8272e-301
1.59287e-306
2.30321e-312
2.97264e-318
4.94066e-324
0
0
0
0
0
0
0
0
0
0
0
0
0
0
0
0
0
0
0
0
0
0
0
0
0
0
0
0
0
0
0
0
0
0
0
0
0
0
0
0
0
0
0
0
0
0
0
0
0
0
0
0
0
0
0
0
0
0
0
0
0
0
0
0
0
0
0
0
0
0
0
0
0
0
0
0
0
0
0
0
0
0
0
0
0
0
0
0
0
0
0
0
0
0
0
0
0
0
0
0
0
0
0
0
0
0
0
0
0
0
0
0
0
0
0
0
0
0
0
0
0
0
0
0
0
0
0
0
0
0
0
0
0
0
0
0
0
0
0
0
0
0
0
0
0
0
0
0
0
0
0
0
0
0
0
0
0
0
0
0
0
0
0
0
0
0
0
0
0
0
0
0
0
0
0
0
0
0
0
0
0
0
0
0
0
0
0
0
0
0
0
0
0
0
0
0
0
0
0
0
0
0
0
0
0
0
0
0
0
0
0
0
0
0
0
0
0
0
0
0
0
0
0
0
0
0
0
0
0
0
0
0
0
0
0
0
0
0
0
0
0
0
0
0
0
0
0
0
0
0
0
0
0
0
0
0
0
0
0
0
0
0
0
3.13934e-08
1.52184e-07
2.20607e-07
1.7601e-07
2.14543e-07
1.11275e-07
4.92139e-08
4.35151e-08
3.2746e-08
2.30616e-08
3.00893e-08
1.04966e-07
5.2019e-07
5.93414e-07
7.2761e-07
2.31356e-05
0.000177664
0.000118775
0.000103144
0.000219569
2.49668e-05
3.05963e-06
2.9217e-06
9.27392e-06
1.22664e-05
1.26364e-05
2.24355e-06
5.09161e-07
1.1084e-07
3.26754e-08
1.81095e-08
1.37436e-08
1.15946e-08
1.01767e-08
8.91425e-09
5.56087e-09
5.43025e-09
5.56278e-09
1.07747e-08
1.62831e-08
3.8755e-08
9.88599e-08
3.122e-07
8.60878e-07
6.28118e-07
2.38959e-06
1.26761e-05
3.56278e-05
3.21847e-05
1.41013e-05
4.14426e-06
1.05107e-06
3.27012e-07
1.48436e-07
4.66452e-08
1.63511e-08
7.27832e-09
4.80612e-09
2.28371e-09
1.70782e-09
2.44373e-09
2.05882e-09
6.6781e-10
2.31742e-10
2.10697e-13
1.24152e-16
4.4669e-20
2.44502e-23
1.38817e-26
7.12703e-30
3.86861e-33
2.08603e-36
1.18746e-39
1.50611e-42
1.7566e-45
1.79854e-48
1.86903e-51
1.75314e-54
2.05325e-57
1.57272e-60
7.35124e-64
2.30373e-67
5.11839e-71
9.11701e-75
1.60117e-78
2.99587e-82
5.63941e-86
1.47958e-89
3.71149e-93
9.344e-97
2.76364e-100
9.21486e-104
3.87842e-107
1.57109e-110
6.00874e-114
2.13309e-117
7.81354e-121
2.88027e-124
1.03581e-127
3.31477e-131
1.05788e-134
3.22164e-138
9.56025e-142
3.04445e-145
9.57611e-149
2.93891e-152
8.54208e-156
2.46888e-159
6.77712e-163
1.88262e-166
4.5584e-170
8.59294e-174
6.35707e-180
3.26361e-186
2.2299e-192
1.66365e-198
1.24443e-204
9.77946e-211
7.83268e-217
7.3089e-223
9.39573e-229
1.09745e-234
1.61832e-240
2.76682e-246
4.7162e-252
9.03164e-258
1.75497e-263
3.83262e-269
8.78372e-275
2.22985e-280
5.16315e-286
1.02158e-291
1.70523e-297
2.54137e-303
3.396e-309
4.21559e-315
4.93572e-321
0
0
0
0
0
0
0
0
0
0
0
0
0
0
0
0
0
0
0
0
0
0
0
0
0
0
0
0
0
0
0
0
0
0
0
0
0
0
0
0
0
0
0
0
0
0
0
0
0
0
0
0
0
0
0
0
0
0
0
0
0
0
0
0
0
0
0
0
0
0
0
0
0
0
0
0
0
0
0
0
0
0
0
0
0
0
0
0
0
0
0
0
0
0
0
0
0
0
0
0
0
0
0
0
0
0
0
0
0
0
0
0
0
0
0
0
0
0
0
0
0
0
0
0
0
0
0
0
0
0
0
0
0
0
0
0
0
0
0
0
0
0
0
0
0
0
0
0
0
0
0
0
0
0
0
0
0
0
0
0
0
0
0
0
0
0
0
0
0
0
0
0
0
0
0
0
0
0
0
0
0
0
0
0
0
0
0
0
0
0
0
0
0
0
0
0
0
0
0
0
0
0
0
0
0
0
0
0
0
0
0
0
0
0
0
0
0
0
0
0
0
0
0
0
0
0
0
0
0
0
0
0
0
0
0
0
0
0
0
0
0
0
0
0
0
0
0
0
0
0
0
0
0
0
0
0
0
0
0
0
0
0
0
3.61434e-09
2.64744e-09
6.27418e-09
5.93271e-09
6.1105e-09
5.33891e-09
7.41008e-09
6.91375e-09
6.39466e-09
6.36223e-09
5.45131e-09
1.18226e-08
2.47809e-08
3.05473e-08
7.28305e-08
2.34745e-06
0.000300072
0.00022776
0.000300316
6.75234e-06
4.26694e-07
2.51836e-07
4.60901e-07
7.57188e-07
8.82006e-07
5.89538e-07
2.02567e-07
7.10875e-08
3.03959e-08
1.62562e-08
1.07148e-08
7.17939e-09
5.44579e-09
6.72267e-09
5.38435e-09
5.21956e-09
5.01992e-09
4.81687e-09
5.36638e-09
5.66234e-09
6.46332e-09
1.19536e-08
1.81136e-08
5.32084e-08
6.00498e-08
1.36861e-07
4.21699e-07
6.44058e-07
3.98573e-07
1.26054e-07
3.71168e-08
1.68116e-08
1.14454e-08
7.54233e-09
6.00511e-09
3.76945e-09
2.47145e-09
2.14936e-09
2.10573e-09
2.21682e-09
2.89664e-09
2.95814e-09
1.14742e-09
3.97664e-10
3.10963e-13
1.6039e-16
7.42925e-20
4.29069e-23
2.73862e-26
1.55866e-29
9.08615e-33
3.40766e-36
2.55651e-39
1.50449e-42
9.87809e-46
7.65413e-49
5.5905e-52
3.31209e-55
2.47654e-58
1.51793e-61
6.30687e-65
2.4599e-68
7.23747e-72
1.90628e-75
5.83945e-79
1.71206e-82
4.85801e-86
1.49104e-89
4.99335e-93
1.67306e-96
5.58593e-100
1.85552e-103
6.10004e-107
1.95103e-110
6.35893e-114
1.96893e-117
6.37736e-121
1.96987e-124
6.26429e-128
1.90474e-131
5.57254e-135
1.67339e-138
4.74373e-142
1.36743e-145
3.8561e-149
1.06588e-152
3.0293e-156
8.00213e-160
2.12446e-163
5.89e-167
1.41657e-170
3.11703e-174
3.51971e-180
3.5402e-186
3.44423e-192
3.22049e-198
2.92808e-204
2.65027e-210
2.34227e-216
2.20994e-222
2.05662e-228
2.39487e-234
3.23869e-240
4.89892e-246
8.47239e-252
1.55817e-257
3.16375e-263
6.77753e-269
1.60664e-274
3.81138e-280
8.2791e-286
1.50214e-291
2.39966e-297
3.38592e-303
4.40722e-309
5.32053e-315
6.17088e-321
0
0
0
0
0
0
0
0
0
0
0
0
0
0
0
0
0
0
0
0
0
0
0
0
0
0
0
0
0
0
0
0
0
0
0
0
0
0
0
0
0
0
0
0
0
0
0
0
0
0
0
0
0
0
0
0
0
0
0
0
0
0
0
0
0
0
0
0
0
0
0
0
0
0
0
0
0
0
0
0
0
0
0
0
0
0
0
0
0
0
0
0
0
0
0
0
0
0
0
0
0
0
0
0
0
0
0
0
0
0
0
0
0
0
0
0
0
0
0
0
0
0
0
0
0
0
0
0
0
0
0
0
0
0
0
0
0
0
0
0
0
0
0
0
0
0
0
0
0
0
0
0
0
0
0
0
0
0
0
0
0
0
0
0
0
0
0
0
0
0
0
0
0
0
0
0
0
0
0
0
0
0
0
0
0
0
0
0
0
0
0
0
0
0
0
0
0
0
0
0
0
0
0
0
0
0
0
0
0
0
0
0
0
0
0
0
0
0
0
0
0
0
0
0
0
0
0
0
0
0
0
0
0
0
0
0
0
0
0
0
0
0
0
0
0
0
0
0
0
0
0
0
0
0
0
0
0
0
0
0
0
0
0
4.2102e-09
4.29577e-09
4.69236e-09
4.97387e-09
5.0397e-09
4.88436e-09
4.88954e-09
4.70138e-09
4.66077e-09
4.69463e-09
4.57207e-09
4.82907e-09
5.36763e-09
9.50502e-09
1.0672e-08
4.47658e-08
2.97116e-06
1.49779e-05
1.70163e-06
1.1731e-07
3.58734e-08
3.18265e-08
3.66795e-08
4.91335e-08
5.68143e-08
5.66899e-08
3.53845e-08
2.13267e-08
1.6115e-08
1.06473e-08
6.50889e-09
6.67743e-09
6.23696e-09
5.98174e-09
5.85227e-09
5.01021e-09
5.55435e-09
5.36616e-09
5.24122e-09
5.04729e-09
5.01089e-09
5.01079e-09
5.12882e-09
6.00778e-09
6.89208e-09
1.03082e-08
1.68315e-08
1.62182e-08
1.14701e-08
7.24251e-09
5.85277e-09
5.37336e-09
4.78393e-09
4.9863e-09
4.2691e-09
3.98113e-09
3.51671e-09
3.42673e-09
3.16792e-09
3.7827e-09
4.09976e-09
4.10461e-09
1.49805e-09
4.44358e-10
2.37576e-12
2.13046e-16
6.27084e-20
3.58003e-23
2.18385e-26
1.35087e-29
8.04376e-33
3.37288e-36
2.30185e-39
1.18718e-42
7.63228e-46
3.58307e-49
2.26886e-52
9.50651e-56
4.83603e-59
1.77895e-62
8.30571e-66
2.27924e-69
9.39917e-73
3.28965e-76
1.35499e-79
5.17393e-83
1.97374e-86
7.33892e-90
2.69694e-93
9.6655e-97
3.39472e-100
1.1521e-103
3.81507e-107
1.2351e-110
3.8936e-114
1.20204e-117
3.72439e-121
1.08965e-124
3.27481e-128
9.29968e-132
2.65447e-135
7.49548e-139
2.04024e-142
5.65179e-146
1.50107e-149
4.02202e-153
1.05365e-156
2.64593e-160
6.93461e-164
1.74876e-167
4.43261e-171
9.95679e-175
1.29286e-180
1.4938e-186
1.58496e-192
1.52722e-198
1.43158e-204
1.26828e-210
1.14539e-216
1.06916e-222
1.10064e-228
1.29841e-234
1.77323e-240
2.71487e-246
4.68174e-252
8.56173e-258
1.71474e-263
3.61839e-269
7.76085e-275
1.46224e-280
2.41269e-286
3.47775e-292
4.59342e-298
5.55119e-304
6.41081e-310
7.05747e-316
7.65802e-322
0
0
0
0
0
0
0
0
0
0
0
0
0
0
0
0
0
0
0
0
0
0
0
0
0
0
0
0
0
0
0
0
0
0
0
0
0
0
0
0
0
0
0
0
0
0
0
0
0
0
0
0
0
0
0
0
0
0
0
0
0
0
0
0
0
0
0
0
0
0
0
0
0
0
0
0
0
0
0
0
0
0
0
0
0
0
0
0
0
0
0
0
0
0
0
0
0
0
0
0
0
0
0
0
0
0
0
0
0
0
0
0
0
0
0
0
0
0
0
0
0
0
0
0
0
0
0
0
0
0
0
0
0
0
0
0
0
0
0
0
0
0
0
0
0
0
0
0