/*--------------------------------*- C++ -*----------------------------------*\
| =========                 |                                                 |
| \\      /  F ield         | OpenFOAM: The Open Source CFD Toolbox           |
|  \\    /   O peration     | Version:  2.1.1                                 |
|   \\  /    A nd           | Web:      www.OpenFOAM.org                      |
|    \\/     M anipulation  |                                                 |
\*---------------------------------------------------------------------------*/
FoamFile
{
    version     2.0;
    format      ascii;
    class       volScalarField;
    location    "0.001800000";
    object      rho;
}
// * * * * * * * * * * * * * * * * * * * * * * * * * * * * * * * * * * * * * //

dimensions      [1 -3 0 0 0 0 0];

internalField   nonuniform List<scalar> 
12384
(
0.232828
0.230599
0.226641
0.238365
0.611544
1.32623
1.50557
1.57134
1.60222
1.58859
1.54747
1.5005
1.44784
1.42713
1.55422
1.57695
1.64688
1.62662
1.65019
1.58304
1.55517
1.52371
1.51371
1.49792
1.49033
1.46905
1.46225
1.43393
1.46859
1.49841
1.47647
1.51388
1.57812
1.58724
1.57184
1.58985
1.55388
1.57577
1.56788
1.55839
1.5221
1.50836
1.49115
1.48621
1.29648
1.30631
1.32548
1.33033
1.34253
1.34825
1.40125
1.41162
1.45942
1.4836
1.50459
1.5355
1.53248
1.5215
1.52743
1.50071
1.48615
1.46513
1.41977
1.39541
1.37321
1.36162
1.35017
1.30745
1.30461
1.25473
1.22011
1.22912
1.23859
1.23886
1.08725
1.10347
1.11081
1.1185
1.125
1.12966
1.13196
1.13014
1.12608
1.11882
1.1095
1.1001
1.09086
1.08484
1.08081
1.08075
1.07959
1.0793
1.07969
1.07579
1.0694
1.05847
1.05803
1.03368
1.04165
1.02614
1.02574
1.02658
1.0227
1.02468
0.918889
0.917984
0.91703
0.916677
0.915339
0.912972
0.913498
0.9095
0.908988
0.90717
0.902799
0.903925
0.898376
0.899893
0.894631
0.895775
0.891092
0.892077
0.887816
0.888813
0.884969
0.885673
0.883451
0.881565
0.88253
0.87976
0.880949
0.879014
0.879742
0.878663
0.867421
0.867449
0.86744
0.867293
0.867206
0.86713
0.866978
0.866926
0.866665
0.866735
0.866403
0.866513
0.866208
0.86633
0.866056
0.866151
0.865913
0.865972
0.865785
0.865823
0.865685
0.865722
0.865597
0.865625
0.865559
0.865517
0.865526
0.865477
0.865484
0.865205
0.865127
0.865375
0.865392
0.865398
0.865398
0.865409
0.865413
0.865427
0.865429
0.865446
0.865445
0.865463
0.865477
0.865495
0.865502
0.865509
0.865497
0.865484
0.865455
0.865447
0.865434
0.865429
0.865414
0.865415
0.865401
0.865399
0.865389
0.865388
0.865375
0.865127
0.865127
0.865372
0.865383
0.865399
0.865398
0.865415
0.865419
0.865432
0.865432
0.865448
0.865445
0.865463
0.865478
0.865498
0.865506
0.86551
0.865494
0.865483
0.865459
0.865453
0.865442
0.865439
0.865424
0.865423
0.86541
0.865405
0.865394
0.86539
0.865378
0.865127
0.865125
0.865377
0.865382
0.865399
0.865396
0.865414
0.865416
0.865429
0.865429
0.865445
0.865442
0.865461
0.865477
0.865498
0.865506
0.865509
0.865494
0.865483
0.865459
0.865453
0.865442
0.865439
0.865423
0.865423
0.86541
0.865405
0.865396
0.865391
0.865378
0.865128
0.865124
0.865371
0.865385
0.865396
0.865405
0.865409
0.865425
0.865425
0.86544
0.865442
0.865452
0.865457
0.86548
0.86549
0.865506
0.865504
0.865501
0.865479
0.865459
0.865446
0.86544
0.865432
0.865417
0.865417
0.865405
0.865398
0.865389
0.865386
0.86537
0.865127
0.865127
0.865378
0.865383
0.8654
0.865397
0.865415
0.865417
0.86543
0.86543
0.865446
0.865444
0.865462
0.865477
0.865497
0.865505
0.86551
0.865496
0.865484
0.865457
0.865454
0.865442
0.865438
0.865423
0.865422
0.865408
0.865404
0.865393
0.86539
0.865378
0.865128
0.865124
0.865373
0.865387
0.865394
0.865393
0.865409
0.865414
0.865428
0.865432
0.865447
0.865449
0.865465
0.865479
0.8655
0.865509
0.865509
0.865502
0.865482
0.865466
0.865448
0.865449
0.865435
0.865432
0.865419
0.865415
0.865398
0.865398
0.865388
0.865374
0.865128
0.86513
0.865382
0.865389
0.865406
0.865403
0.865421
0.86542
0.865434
0.865435
0.865448
0.865448
0.865464
0.865478
0.865499
0.865504
0.865514
0.865497
0.86549
0.865469
0.865463
0.865448
0.865443
0.865427
0.865426
0.86541
0.865408
0.865396
0.865395
0.865381
0.865129
0.238524
0.241229
0.238895
0.248751
0.582527
1.20318
1.50963
1.60502
1.69219
1.72887
1.69074
1.59427
1.51811
1.4401
1.57673
1.64903
1.59834
1.51849
1.14325
0.928067
0.795808
0.735826
0.758213
0.749391
0.77071
0.883737
0.803463
0.983201
1.16254
1.27681
1.46496
1.56213
1.63134
1.64844
1.74084
1.75851
1.78294
1.73975
1.70862
1.62417
1.55139
1.49938
1.47711
1.48283
1.38635
1.44092
1.47981
1.51219
1.50802
1.4933
1.44115
1.43034
1.43139
1.42477
1.47954
1.52349
1.6043
1.67808
1.71834
1.74643
1.69837
1.66311
1.65012
1.59179
1.5685
1.51276
1.44858
1.40622
1.32816
1.28842
1.24778
1.24003
1.23438
1.24097
1.23558
1.25908
1.2707
1.27882
1.28631
1.29465
1.29708
1.29517
1.288
1.27672
1.26176
1.24444
1.22212
1.20678
1.18714
1.17372
1.16367
1.15273
1.13913
1.12918
1.10828
1.08676
1.08017
1.05655
1.04827
1.04554
1.03193
1.03764
1.03114
1.02696
0.979308
0.981053
0.978817
0.973022
0.968821
0.960776
0.954611
0.950284
0.941435
0.940117
0.930805
0.930678
0.922901
0.92342
0.916663
0.916883
0.910654
0.910469
0.905117
0.904019
0.902379
0.898637
0.899492
0.89525
0.89621
0.893369
0.89304
0.892567
0.89157
0.8844
0.874474
0.882125
0.882274
0.88226
0.882068
0.881983
0.882004
0.881981
0.881925
0.882107
0.882063
0.88239
0.882545
0.882974
0.883032
0.883029
0.882641
0.882275
0.88188
0.881609
0.881424
0.881101
0.88096
0.880662
0.88049
0.880231
0.880063
0.879922
0.879556
0.870937
0.87062
0.879539
0.879796
0.880021
0.880116
0.880297
0.8806
0.880763
0.881062
0.881229
0.881526
0.881685
0.882077
0.882386
0.882663
0.882689
0.882568
0.882095
0.881701
0.881318
0.881093
0.880759
0.880636
0.880375
0.880253
0.88001
0.879928
0.879727
0.879475
0.870628
0.870609
0.879576
0.879905
0.880061
0.880309
0.880436
0.880725
0.880856
0.881125
0.881258
0.881534
0.881692
0.882106
0.882444
0.882736
0.882702
0.882509
0.882072
0.881766
0.881473
0.881318
0.881021
0.880888
0.880607
0.880447
0.880186
0.880032
0.879861
0.879476
0.870843
0.870821
0.879386
0.879798
0.879945
0.880191
0.880323
0.880599
0.880726
0.880995
0.881138
0.881426
0.881622
0.882061
0.882438
0.882731
0.88269
0.882502
0.882081
0.881776
0.881482
0.881323
0.881024
0.880886
0.880601
0.880441
0.880181
0.880026
0.879857
0.87947
0.870847
0.870878
0.879468
0.879852
0.88011
0.880243
0.880506
0.880649
0.880919
0.881036
0.881301
0.881435
0.88171
0.881979
0.88241
0.882618
0.882745
0.882527
0.882152
0.881634
0.881335
0.881142
0.880829
0.880671
0.880401
0.880277
0.880029
0.879942
0.879725
0.879484
0.87062
0.870867
0.879427
0.879836
0.879985
0.880228
0.880357
0.880631
0.880766
0.881032
0.881167
0.881448
0.88163
0.882046
0.88241
0.882717
0.882707
0.882531
0.882108
0.881787
0.881486
0.881322
0.881016
0.880873
0.880587
0.880424
0.880161
0.880007
0.879853
0.879461
0.870841
0.87062
0.879548
0.87985
0.879957
0.880199
0.880335
0.880641
0.880789
0.881084
0.881242
0.881547
0.881719
0.882128
0.882454
0.882719
0.88272
0.882476
0.88212
0.881703
0.881524
0.88123
0.881083
0.880801
0.880661
0.880369
0.880242
0.879995
0.87987
0.879566
0.870618
0.870848
0.879454
0.879893
0.880043
0.880308
0.880429
0.880716
0.880829
0.881095
0.881201
0.881484
0.881639
0.882022
0.882362
0.88269
0.882721
0.882551
0.882143
0.881813
0.881518
0.881357
0.881048
0.880903
0.880608
0.88045
0.880181
0.880013
0.87986
0.879465
0.870846
0.256732
0.280786
0.294963
0.295519
0.693282
1.01029
1.17628
1.06637
1.32947
1.60505
1.77624
1.73242
1.65981
1.53407
1.67386
1.52664
0.93087
0.677949
0.291114
0.259396
0.242967
0.245734
0.250405
0.254475
0.253978
0.252434
0.258178
0.287513
0.299047
0.305297
0.697585
0.965359
1.16658
1.3632
1.57932
1.76458
1.81968
1.85534
1.82382
1.76385
1.66137
1.55748
1.49794
1.47461
1.54181
1.55701
1.54154
1.46739
1.37096
1.28164
1.25219
1.22835
1.2447
1.23734
1.27435
1.27814
1.33507
1.40928
1.52967
1.62162
1.70242
1.70452
1.67403
1.69511
1.66796
1.64886
1.65265
1.6175
1.57811
1.48479
1.40604
1.32605
1.30349
1.2809
1.31589
1.3087
1.29966
1.2986
1.30472
1.31729
1.33178
1.34379
1.35343
1.36033
1.36398
1.36466
1.36372
1.35637
1.35453
1.34896
1.34437
1.34466
1.33883
1.33398
1.32202
1.32092
1.30293
1.30016
1.27151
1.27007
1.24193
1.24241
1.22564
1.22981
1.15522
1.14986
1.14466
1.14322
1.14025
1.1403
1.13587
1.13443
1.13033
1.12902
1.12349
1.12421
1.11705
1.11792
1.11072
1.11249
1.10585
1.10865
1.10314
1.10309
1.10219
1.09836
1.09873
1.09623
1.09528
1.09459
1.09304
1.09313
1.09188
1.10189
1.08881
1.07872
1.07808
1.07731
1.0772
1.07674
1.07621
1.0759
1.07523
1.07492
1.07418
1.07383
1.07283
1.07242
1.07176
1.0718
1.0718
1.07227
1.07243
1.07269
1.0728
1.07293
1.07313
1.07322
1.07347
1.07359
1.07379
1.07393
1.07429
1.08567
1.08557
1.07421
1.07379
1.07354
1.07349
1.07325
1.07297
1.07272
1.07248
1.07222
1.07198
1.07172
1.07133
1.07088
1.07061
1.0705
1.07072
1.0712
1.07175
1.0721
1.07243
1.07272
1.07294
1.07313
1.07334
1.07351
1.07365
1.07387
1.07434
1.08557
1.08555
1.07416
1.07375
1.07347
1.07327
1.07307
1.07284
1.07263
1.07243
1.07221
1.07199
1.07172
1.07129
1.07081
1.07053
1.0705
1.07081
1.07126
1.07172
1.07197
1.07223
1.07246
1.07268
1.07289
1.07314
1.07333
1.07356
1.07376
1.07415
1.08557
1.08557
1.07428
1.07383
1.07357
1.0734
1.07319
1.07299
1.07277
1.07258
1.07234
1.0721
1.07179
1.07133
1.07081
1.07053
1.07051
1.07081
1.07125
1.0717
1.07196
1.07222
1.07246
1.07268
1.07289
1.07315
1.07334
1.07357
1.07376
1.07416
1.08557
1.08557
1.07418
1.07371
1.07345
1.07326
1.07307
1.07284
1.07265
1.07244
1.07225
1.07201
1.07178
1.07137
1.07092
1.07059
1.0705
1.07069
1.07121
1.07178
1.07216
1.07234
1.07265
1.0729
1.0731
1.07331
1.07349
1.07365
1.07386
1.07431
1.08557
1.08557
1.0742
1.07378
1.07352
1.07336
1.07316
1.07295
1.07273
1.07254
1.07231
1.07208
1.07178
1.07136
1.07085
1.07055
1.07049
1.07078
1.07121
1.07169
1.07195
1.07221
1.07246
1.07269
1.07291
1.07317
1.07337
1.07359
1.07377
1.07417
1.08557
1.08556
1.07417
1.07376
1.07362
1.07339
1.07317
1.07292
1.07269
1.07247
1.07221
1.07197
1.07168
1.07128
1.07082
1.07051
1.07052
1.0708
1.07129
1.07171
1.072
1.07224
1.07248
1.07269
1.07291
1.07314
1.07334
1.07355
1.07376
1.07415
1.08556
1.08556
1.07419
1.07372
1.07346
1.07329
1.07309
1.07289
1.07268
1.07251
1.07229
1.07208
1.07179
1.07142
1.07092
1.0706
1.07048
1.07076
1.07118
1.07166
1.07192
1.07219
1.07244
1.07268
1.0729
1.07316
1.07336
1.07359
1.07377
1.07416
1.08557
0.311215
0.339417
0.372446
0.394457
0.462898
0.47014
0.490053
0.44601
0.595571
0.845916
1.30616
1.70581
1.69208
1.66237
1.61584
1.11218
0.257138
0.227336
0.22464
0.220085
0.223696
0.224331
0.223341
0.2201
0.21821
0.214561
0.219613
0.222105
0.226879
0.222151
0.224831
0.236041
0.25046
0.269405
0.780308
1.47253
1.71675
1.77086
1.74145
1.7452
1.73036
1.66334
1.52541
1.4869
1.57643
1.53208
1.40642
1.27009
1.20005
1.20038
1.21288
1.26554
1.26732
1.30594
1.28498
1.28763
1.25076
1.24873
1.26972
1.36203
1.47265
1.56489
1.5888
1.56771
1.61688
1.59071
1.62492
1.61901
1.62188
1.60597
1.5578
1.50506
1.43014
1.39528
1.26609
1.19533
1.16276
1.13937
1.13967
1.16215
1.19841
1.23694
1.26955
1.29361
1.31183
1.32511
1.33198
1.33572
1.32983
1.33532
1.32412
1.32676
1.32291
1.31735
1.31458
1.31428
1.30079
1.30391
1.28905
1.28474
1.27795
1.27453
1.27249
1.26887
1.13459
1.13348
1.13679
1.1365
1.13654
1.13229
1.13298
1.13125
1.12624
1.12909
1.1217
1.12399
1.11787
1.11733
1.11426
1.11136
1.11053
1.1067
1.10701
1.10242
1.10359
1.09934
1.09988
1.09802
1.09564
1.09652
1.09348
1.09488
1.09274
1.09563
1.08105
1.07896
1.07922
1.07928
1.07863
1.07866
1.07853
1.07818
1.07816
1.07777
1.07774
1.07739
1.07736
1.07704
1.07703
1.07677
1.0768
1.0766
1.07664
1.07646
1.07652
1.07637
1.07639
1.07632
1.07629
1.07628
1.07624
1.07627
1.07638
1.07827
1.07821
1.07625
1.07614
1.07612
1.07612
1.07612
1.07609
1.07609
1.07607
1.07607
1.07606
1.07606
1.07603
1.07602
1.076
1.07601
1.07601
1.07604
1.07604
1.07607
1.07607
1.07609
1.07609
1.07611
1.07611
1.07613
1.07612
1.07615
1.07624
1.07821
1.0782
1.07625
1.07613
1.07613
1.0761
1.07611
1.07609
1.07609
1.07607
1.07607
1.07605
1.07606
1.07603
1.07602
1.076
1.076
1.07601
1.07604
1.07604
1.07607
1.07606
1.07608
1.07608
1.0761
1.0761
1.07612
1.07612
1.07614
1.07627
1.07817
1.07817
1.07626
1.07613
1.07613
1.07611
1.07611
1.07609
1.07609
1.07607
1.07608
1.07606
1.07606
1.07603
1.07602
1.076
1.07601
1.07601
1.07604
1.07604
1.07606
1.07606
1.07608
1.07608
1.0761
1.0761
1.07612
1.07612
1.07614
1.07627
1.07817
1.07816
1.07626
1.07614
1.07612
1.07612
1.0761
1.0761
1.07608
1.07608
1.07606
1.07607
1.07605
1.07604
1.07601
1.07601
1.07599
1.07601
1.07602
1.07605
1.07606
1.07607
1.07609
1.07608
1.07611
1.07611
1.07612
1.07612
1.07614
1.07625
1.07821
1.07816
1.07627
1.07613
1.07612
1.0761
1.07611
1.07609
1.07609
1.07607
1.07608
1.07606
1.07606
1.07603
1.07602
1.076
1.076
1.07601
1.07603
1.07604
1.07606
1.07606
1.07608
1.07608
1.0761
1.0761
1.07612
1.07612
1.07614
1.07627
1.07816
1.0782
1.07625
1.07612
1.07613
1.07611
1.07611
1.07609
1.07609
1.07607
1.07607
1.07606
1.07606
1.07603
1.07602
1.076
1.076
1.07602
1.07603
1.07606
1.07606
1.07608
1.07608
1.07609
1.07609
1.07611
1.07611
1.07613
1.07613
1.07625
1.0782
1.07817
1.07627
1.07613
1.07613
1.07611
1.07611
1.07609
1.07609
1.07607
1.07608
1.07606
1.07606
1.07604
1.07603
1.07601
1.07601
1.07601
1.07604
1.07605
1.07607
1.07606
1.07608
1.07608
1.0761
1.0761
1.07612
1.07612
1.07614
1.07627
1.07817
0.348784
0.348167
0.362026
0.383723
0.314142
0.267394
0.289642
0.295754
0.330991
0.339353
0.402786
0.923337
1.52569
1.67448
1.53273
0.803496
0.224453
0.227411
0.219339
0.221144
0.219904
0.217854
0.216785
0.213128
0.208971
0.209921
0.210209
0.214441
0.216238
0.212766
0.21403
0.220795
0.220684
0.235123
0.228263
0.717923
1.45227
1.65162
1.6637
1.65245
1.67297
1.67569
1.60643
1.48214
1.51314
1.37648
1.23673
1.17413
1.201
1.25726
1.32653
1.3112
1.33704
1.35601
1.39284
1.37163
1.33153
1.26086
1.21249
1.20867
1.27109
1.37068
1.46248
1.48948
1.48902
1.54133
1.54451
1.57997
1.58673
1.60395
1.59935
1.57163
1.53822
1.50201
1.18817
1.08531
1.02705
1.01346
0.999788
1.00433
1.03094
1.08932
1.14801
1.1972
1.2306
1.25424
1.2693
1.27762
1.27939
1.28345
1.26969
1.27984
1.26507
1.27286
1.26814
1.27148
1.26169
1.27064
1.25551
1.2519
1.25774
1.24544
1.25531
1.24724
1.09294
1.09515
1.09469
1.09695
1.09754
1.09985
1.09636
1.09904
1.09478
1.09397
1.09388
1.08903
1.08874
1.08639
1.08309
1.08292
1.07867
1.07866
1.0752
1.07508
1.07138
1.07216
1.06827
1.06968
1.06574
1.06743
1.06413
1.06562
1.0637
1.0641
1.05043
1.05109
1.05048
1.05023
1.05042
1.0499
1.04988
1.04981
1.04946
1.04946
1.04908
1.04909
1.04875
1.0488
1.04846
1.04853
1.04825
1.04832
1.04811
1.04816
1.04799
1.04804
1.04789
1.04795
1.04781
1.04788
1.04777
1.04779
1.04783
1.04794
1.04789
1.04769
1.04771
1.04766
1.04767
1.04771
1.04765
1.04771
1.04765
1.04771
1.04765
1.04771
1.04764
1.0477
1.04764
1.04769
1.04764
1.04769
1.04764
1.0477
1.04764
1.0477
1.04765
1.04771
1.04765
1.04771
1.04766
1.04771
1.04768
1.0479
1.04787
1.04769
1.04767
1.04771
1.04765
1.04771
1.04765
1.04771
1.04765
1.04771
1.04765
1.0477
1.04764
1.04769
1.04764
1.04769
1.04764
1.04769
1.04765
1.0477
1.04765
1.0477
1.04765
1.0477
1.04764
1.0477
1.04765
1.04767
1.04771
1.04784
1.04784
1.04771
1.04765
1.0477
1.04765
1.04771
1.04765
1.04771
1.04765
1.0477
1.04765
1.0477
1.04764
1.04769
1.04764
1.04769
1.04764
1.04769
1.04765
1.0477
1.04765
1.0477
1.04765
1.0477
1.04765
1.04769
1.04765
1.04767
1.04771
1.04784
1.04786
1.04772
1.0477
1.04765
1.04771
1.04765
1.04771
1.04765
1.04771
1.04765
1.0477
1.04765
1.04769
1.04764
1.04769
1.04764
1.04769
1.04764
1.04768
1.04766
1.04765
1.0477
1.04765
1.04771
1.04765
1.04771
1.04765
1.04771
1.04768
1.0479
1.04784
1.04771
1.04765
1.0477
1.04765
1.04771
1.04765
1.04771
1.04765
1.0477
1.04765
1.0477
1.04764
1.04769
1.04764
1.04769
1.04764
1.04769
1.04765
1.0477
1.04765
1.0477
1.04765
1.0477
1.04764
1.04769
1.04765
1.04766
1.04771
1.04783
1.0479
1.04768
1.04769
1.0477
1.04765
1.04771
1.04765
1.04771
1.04765
1.04771
1.04765
1.0477
1.04764
1.04769
1.04764
1.04765
1.04768
1.04764
1.0477
1.04765
1.04771
1.04765
1.04771
1.04765
1.04771
1.04765
1.0477
1.04769
1.04769
1.04789
1.04784
1.04772
1.04765
1.04771
1.04765
1.04771
1.04765
1.04771
1.04765
1.04771
1.04765
1.04771
1.04765
1.04769
1.04764
1.04769
1.04764
1.04769
1.04764
1.0477
1.04765
1.0477
1.04765
1.0477
1.04765
1.0477
1.04765
1.04766
1.04772
1.04784
0.323819
0.305418
0.287552
0.294299
0.235698
0.227844
0.231133
0.245746
0.257649
0.277751
0.303886
0.344513
0.956693
1.6205
1.48983
0.563678
0.228598
0.22482
0.224658
0.219942
0.220977
0.215131
0.213823
0.208353
0.207186
0.204984
0.205941
0.208429
0.208719
0.209178
0.21132
0.208833
0.225025
0.23112
0.226535
0.225817
0.821082
1.45434
1.5902
1.59405
1.65272
1.69195
1.6426
1.52354
1.44239
1.29472
1.19048
1.18425
1.21738
1.27417
1.27433
1.29492
1.28318
1.3429
1.36837
1.41823
1.3849
1.32421
1.23012
1.17448
1.16491
1.21321
1.29426
1.38032
1.40389
1.42649
1.4812
1.49576
1.53916
1.55004
1.58287
1.58161
1.56374
1.56365
1.10496
1.00101
0.995388
1.0104
0.98786
0.964247
0.940898
0.955743
1.01081
1.0781
1.13124
1.16674
1.18954
1.20387
1.2141
1.20917
1.21527
1.21265
1.20974
1.21757
1.21514
1.21871
1.22044
1.2242
1.21435
1.21844
1.21663
1.21101
1.21746
1.21682
1.03757
1.03456
1.04229
1.04864
1.05317
1.05559
1.05684
1.05595
1.05659
1.05651
1.05331
1.05531
1.05021
1.05267
1.04638
1.04893
1.04342
1.04539
1.03999
1.04197
1.03777
1.03813
1.03546
1.0357
1.0333
1.03363
1.03202
1.03194
1.03158
1.03297
1.02013
1.01779
1.01839
1.01787
1.01787
1.01773
1.01753
1.0173
1.01738
1.01699
1.01703
1.01665
1.01669
1.01638
1.01637
1.01615
1.01614
1.01596
1.01596
1.01582
1.01581
1.01571
1.01569
1.01562
1.01561
1.01556
1.01552
1.01553
1.01562
1.01743
1.01732
1.01552
1.01542
1.0154
1.01542
1.01542
1.0154
1.01542
1.01539
1.01542
1.01539
1.01542
1.01539
1.01541
1.01539
1.0154
1.01538
1.0154
1.01539
1.01541
1.01538
1.01541
1.01539
1.01542
1.0154
1.01542
1.0154
1.01542
1.01551
1.01732
1.01731
1.01551
1.01541
1.01542
1.01539
1.01542
1.01539
1.01541
1.01539
1.01541
1.01539
1.01541
1.01538
1.0154
1.01538
1.0154
1.01538
1.0154
1.01539
1.01541
1.01539
1.01541
1.01539
1.01541
1.01539
1.01541
1.01539
1.0154
1.01552
1.01732
1.01732
1.01552
1.01539
1.01541
1.01539
1.01542
1.01539
1.01542
1.01539
1.01541
1.01539
1.01541
1.01538
1.0154
1.01538
1.0154
1.01538
1.0154
1.01539
1.01541
1.01539
1.01541
1.01539
1.01541
1.01539
1.01541
1.01539
1.0154
1.01552
1.01732
1.01733
1.01553
1.01541
1.01539
1.01541
1.01539
1.01542
1.01539
1.01542
1.01539
1.01541
1.01539
1.01541
1.01538
1.0154
1.01538
1.0154
1.01538
1.0154
1.0154
1.01539
1.01541
1.01539
1.01542
1.0154
1.01542
1.01539
1.01542
1.01551
1.01731
1.01733
1.01552
1.01539
1.01541
1.01539
1.01542
1.01539
1.01542
1.01539
1.01541
1.01539
1.01541
1.01538
1.0154
1.01538
1.0154
1.01538
1.0154
1.01539
1.01541
1.01539
1.01541
1.01539
1.01541
1.01539
1.01541
1.01539
1.0154
1.01552
1.01732
1.01731
1.01551
1.01541
1.01541
1.0154
1.01542
1.0154
1.01542
1.01539
1.01541
1.01539
1.01541
1.01538
1.0154
1.01538
1.01538
1.01539
1.01538
1.01541
1.01539
1.01542
1.01539
1.01542
1.0154
1.01542
1.01539
1.01541
1.01542
1.01552
1.01731
1.01733
1.01552
1.01539
1.01541
1.01539
1.01542
1.01539
1.01542
1.01539
1.01542
1.01539
1.01541
1.01538
1.01539
1.01537
1.01539
1.01537
1.01539
1.01538
1.0154
1.01538
1.01541
1.01539
1.01541
1.01539
1.01541
1.01539
1.0154
1.01552
1.01732
0.252225
0.243645
0.239909
0.230107
0.221707
0.2156
0.222574
0.226531
0.236685
0.245575
0.267864
0.295606
0.690562
1.52833
1.24616
0.289311
0.234661
0.229408
0.227213
0.231072
0.225222
0.221358
0.212024
0.210189
0.206878
0.20395
0.204626
0.203664
0.205249
0.205572
0.205752
0.209467
0.21176
0.223823
0.219199
0.218767
0.236804
0.620247
1.28735
1.49931
1.55067
1.62693
1.65145
1.53251
1.35259
1.24587
1.1716
1.16541
1.20847
1.24103
1.24931
1.2661
1.26009
1.29785
1.34866
1.37958
1.38279
1.33781
1.25221
1.17786
1.13194
1.13816
1.17684
1.24356
1.30824
1.33402
1.3558
1.41528
1.43203
1.48109
1.49921
1.54213
1.55846
1.53864
1.06609
1.01161
1.04546
1.07585
1.05596
1.00869
0.946598
0.90685
0.913531
0.963331
1.02447
1.07019
1.09937
1.1171
1.13023
1.12667
1.14334
1.13152
1.13987
1.14127
1.14374
1.14702
1.15152
1.14924
1.15106
1.15592
1.148
1.15961
1.16036
1.17457
0.967268
0.959388
0.968193
0.981118
0.989914
0.995208
0.999148
0.999123
0.998897
0.999105
0.998138
0.995548
0.996847
0.991942
0.991452
0.991761
0.986715
0.988622
0.984101
0.984756
0.981461
0.982075
0.978811
0.97993
0.976811
0.977955
0.975433
0.976621
0.975409
0.975104
0.961746
0.963498
0.963002
0.963547
0.962867
0.962979
0.962681
0.962647
0.962249
0.96242
0.961928
0.962081
0.961636
0.961775
0.96137
0.961509
0.9612
0.96128
0.961062
0.961127
0.960943
0.961008
0.960867
0.960914
0.960804
0.960835
0.960768
0.960774
0.960748
0.960224
0.960113
0.960656
0.960666
0.96066
0.960675
0.960677
0.960652
0.960677
0.960655
0.960675
0.960659
0.960676
0.96066
0.960673
0.960661
0.96067
0.960658
0.96067
0.960656
0.960666
0.960648
0.960667
0.960652
0.96067
0.96065
0.960663
0.960648
0.960664
0.960637
0.960113
0.960098
0.960653
0.960662
0.960658
0.960642
0.960666
0.960651
0.960673
0.960652
0.960673
0.960655
0.960671
0.960655
0.960668
0.960655
0.960666
0.960656
0.96067
0.960656
0.960672
0.960654
0.960669
0.96065
0.960666
0.960643
0.960656
0.960642
0.960653
0.960644
0.960122
0.960124
0.960643
0.960642
0.960655
0.960643
0.960667
0.960652
0.960673
0.960654
0.960673
0.960655
0.960671
0.960656
0.960667
0.960654
0.960666
0.960657
0.96067
0.960657
0.960672
0.960654
0.96067
0.960651
0.960666
0.960643
0.960657
0.960643
0.960652
0.960645
0.960122
0.960139
0.96066
0.960655
0.960639
0.96066
0.960649
0.960671
0.960655
0.960672
0.960657
0.960674
0.960657
0.960671
0.960658
0.960668
0.960656
0.960669
0.960653
0.960661
0.960664
0.96066
0.960666
0.96065
0.960669
0.960649
0.960663
0.960644
0.960666
0.960642
0.960105
0.960131
0.960647
0.96064
0.960654
0.960643
0.960668
0.960652
0.960674
0.960655
0.960674
0.960656
0.960671
0.960656
0.960668
0.960656
0.960667
0.960658
0.960671
0.960656
0.960672
0.960653
0.960668
0.960649
0.960665
0.960643
0.960657
0.960647
0.960649
0.960644
0.960122
0.960103
0.960648
0.960658
0.960663
0.960651
0.960667
0.960651
0.960672
0.960651
0.960672
0.960655
0.960674
0.960655
0.960668
0.960659
0.960662
0.960665
0.960656
0.960673
0.960655
0.960674
0.960652
0.960673
0.960651
0.960667
0.960646
0.960654
0.960667
0.960652
0.960102
0.960126
0.960643
0.960638
0.960654
0.960638
0.960666
0.960646
0.960672
0.960648
0.960675
0.960653
0.960674
0.960654
0.960669
0.960655
0.960667
0.960658
0.960673
0.960657
0.960674
0.960656
0.960674
0.960654
0.960672
0.960646
0.960663
0.960652
0.960654
0.960654
0.960132
0.22449
0.222558
0.216993
0.213783
0.20893
0.212571
0.216452
0.220599
0.225167
0.235756
0.264027
0.306602
0.774151
1.53792
0.995234
0.282549
0.235043
0.233044
0.247201
0.252731
0.252891
0.2357
0.221492
0.213043
0.209535
0.2069
0.202982
0.203191
0.202866
0.204459
0.204252
0.20643
0.213045
0.213972
0.223299
0.224938
0.227858
0.225741
0.574616
1.15695
1.42026
1.5348
1.62846
1.60245
1.32201
1.29358
1.28301
1.2699
1.25364
1.25263
1.2604
1.22149
1.24077
1.28796
1.29691
1.27149
1.31602
1.27631
1.25012
1.16269
1.12623
1.10476
1.12536
1.15325
1.19999
1.22941
1.27183
1.27991
1.3483
1.36292
1.42008
1.47359
1.51693
1.56653
1.02763
1.06167
1.08648
1.10631
1.08023
1.03323
0.967465
0.903755
0.872827
0.888155
0.932323
0.978223
1.00982
1.03105
1.04197
1.04941
1.06297
1.05503
1.06707
1.06851
1.07145
1.07571
1.08378
1.08345
1.0941
1.08897
1.10052
1.10468
1.11311
1.13886
0.883752
0.887965
0.893831
0.910794
0.926047
0.933983
0.939219
0.941784
0.942618
0.942548
0.944702
0.93975
0.944446
0.93876
0.940687
0.937999
0.936568
0.936996
0.933238
0.934899
0.930531
0.932608
0.928542
0.93053
0.927144
0.929
0.926456
0.927686
0.927087
0.927356
0.913778
0.913116
0.914752
0.91401
0.914835
0.914278
0.914282
0.914197
0.913965
0.913835
0.913749
0.913568
0.913417
0.913351
0.913104
0.913106
0.912875
0.912932
0.91268
0.912771
0.912586
0.912607
0.912522
0.912489
0.912477
0.912434
0.912457
0.912439
0.91247
0.911959
0.911855
0.912374
0.912352
0.912314
0.912315
0.912288
0.912272
0.912274
0.912267
0.912273
0.912265
0.912271
0.912266
0.912269
0.912266
0.912267
0.912264
0.912266
0.912258
0.912258
0.912254
0.912264
0.912261
0.912272
0.912275
0.912291
0.912308
0.912344
0.912352
0.911857
0.911846
0.912358
0.912349
0.912308
0.912283
0.912279
0.912266
0.912272
0.912265
0.91227
0.912261
0.912264
0.91226
0.912264
0.91226
0.912263
0.912261
0.912265
0.912261
0.912266
0.912262
0.91227
0.912262
0.912269
0.912268
0.912285
0.912303
0.912337
0.912351
0.911866
0.911864
0.912348
0.912334
0.912305
0.912282
0.91228
0.912268
0.912273
0.912266
0.912269
0.912261
0.912264
0.912261
0.912264
0.912261
0.912264
0.912262
0.912266
0.912261
0.912267
0.912263
0.912271
0.912263
0.91227
0.912268
0.912287
0.912305
0.912337
0.912351
0.911866
0.911879
0.912359
0.912338
0.912304
0.912288
0.912275
0.912274
0.912268
0.912273
0.912266
0.912269
0.912262
0.912267
0.912264
0.912265
0.912261
0.912264
0.912258
0.912255
0.912262
0.912262
0.912265
0.912261
0.91227
0.912273
0.912289
0.912305
0.912346
0.912357
0.91185
0.911872
0.912352
0.912332
0.912305
0.912283
0.91228
0.912266
0.912273
0.912266
0.91227
0.912261
0.912265
0.912261
0.912264
0.912262
0.912264
0.912261
0.912265
0.912261
0.912266
0.912261
0.912268
0.912261
0.912268
0.912268
0.912286
0.912308
0.912335
0.912349
0.911866
0.911845
0.912354
0.912337
0.912312
0.912289
0.912279
0.912263
0.912269
0.912262
0.912268
0.912261
0.912266
0.912261
0.912264
0.912263
0.912263
0.912264
0.91226
0.912265
0.91226
0.912268
0.912263
0.912269
0.912264
0.912277
0.912281
0.912301
0.912343
0.912358
0.911846
0.911862
0.912349
0.91233
0.912306
0.91228
0.912277
0.912261
0.912267
0.912259
0.912266
0.91226
0.912263
0.912255
0.912257
0.912252
0.912256
0.912257
0.912262
0.912256
0.912262
0.912257
0.912264
0.912259
0.91227
0.91227
0.912297
0.912331
0.912407
0.912533
0.91204
0.211599
0.208902
0.204754
0.201206
0.205779
0.207507
0.211177
0.209887
0.212059
0.2182
0.249093
0.325279
0.43653
1.13084
0.393423
0.34023
0.270102
0.268836
0.237868
0.244439
0.277183
0.274347
0.261485
0.253806
0.238157
0.223944
0.212965
0.209017
0.20458
0.200509
0.203019
0.202773
0.204262
0.205949
0.207434
0.214507
0.214333
0.224423
0.2236
0.226337
0.217667
0.222815
0.618104
1.19271
1.47759
1.40731
1.08831
1.27821
1.30673
1.3369
1.31677
1.26703
1.21191
1.1761
1.13884
1.13832
1.09923
1.08592
1.09314
1.07781
1.12382
1.13801
1.17787
1.14417
1.10482
1.09127
1.09713
1.11682
1.13074
1.12474
1.18388
1.17695
1.20736
1.26453
1.28752
1.35428
1.37849
1.32788
1.0701
1.16309
1.1394
1.13371
1.10326
1.10814
1.05695
1.00652
0.946641
0.892801
0.854
0.845369
0.867115
0.899794
0.927781
0.948551
0.959876
0.968086
0.97869
0.977615
0.982147
0.985688
0.989542
0.991551
0.995565
1.00021
1.00148
1.00337
1.01607
1.00965
1.0305
1.02443
0.982205
0.951414
0.905302
0.858564
0.844268
0.849059
0.861222
0.867545
0.872633
0.869892
0.876051
0.870163
0.875246
0.869737
0.872053
0.867567
0.870415
0.865204
0.867094
0.863572
0.863313
0.861806
0.860115
0.860395
0.857616
0.858427
0.85607
0.85654
0.854733
0.85548
0.854292
0.853696
0.845812
0.846586
0.841757
0.845201
0.844695
0.844956
0.844343
0.844665
0.844238
0.844068
0.843912
0.843831
0.843494
0.843614
0.843181
0.843304
0.842958
0.843084
0.842763
0.84288
0.84267
0.842687
0.842597
0.842593
0.842511
0.842526
0.842499
0.842477
0.842509
0.842454
0.8423
0.839989
0.837963
0.837935
0.839929
0.842214
0.84238
0.842373
0.842369
0.842346
0.842322
0.842326
0.842316
0.842324
0.842314
0.842316
0.842311
0.842311
0.84231
0.84231
0.842308
0.842308
0.842307
0.842309
0.842309
0.842312
0.842313
0.842321
0.842331
0.842347
0.842358
0.84236
0.842193
0.839901
0.837884
0.837885
0.8399
0.842205
0.842367
0.842359
0.842345
0.842333
0.84232
0.842318
0.842315
0.842319
0.842313
0.842311
0.842308
0.842308
0.842308
0.842307
0.842308
0.84231
0.84231
0.842315
0.842316
0.842317
0.842314
0.84232
0.842328
0.842344
0.842359
0.842357
0.842196
0.839909
0.837883
0.837884
0.839908
0.842192
0.842353
0.842358
0.842344
0.842333
0.84232
0.84232
0.842316
0.842318
0.842314
0.842311
0.84231
0.842308
0.842309
0.842309
0.842309
0.842311
0.842311
0.842315
0.842316
0.842317
0.842315
0.842321
0.842328
0.842345
0.84236
0.842357
0.842196
0.83991
0.837884
0.837884
0.839917
0.842204
0.842355
0.842357
0.842347
0.842333
0.842323
0.842317
0.842319
0.842318
0.842316
0.842311
0.84231
0.842307
0.842308
0.842306
0.842308
0.842303
0.842303
0.842312
0.842315
0.842312
0.842312
0.84232
0.84233
0.842346
0.842357
0.842359
0.842197
0.839897
0.837884
0.837884
0.839914
0.842195
0.842351
0.842358
0.842345
0.842335
0.84232
0.84232
0.842316
0.842319
0.842314
0.842312
0.84231
0.842309
0.842309
0.842308
0.842309
0.84231
0.84231
0.842314
0.842314
0.842315
0.842313
0.842319
0.842327
0.842343
0.842362
0.842354
0.842194
0.839909
0.837883
0.837883
0.839898
0.842202
0.842355
0.842365
0.842347
0.842332
0.842319
0.842317
0.842314
0.842317
0.842313
0.842312
0.84231
0.842307
0.842308
0.842308
0.842307
0.842308
0.842312
0.842313
0.842318
0.842315
0.842318
0.842318
0.842332
0.842342
0.842353
0.842358
0.842197
0.839894
0.837882
0.837882
0.839904
0.842188
0.842348
0.842356
0.842341
0.842331
0.842314
0.842316
0.842316
0.842318
0.842319
0.842317
0.842313
0.842311
0.84231
0.842307
0.842306
0.842306
0.842306
0.842311
0.842312
0.842318
0.842318
0.842329
0.842332
0.842346
0.842363
0.842353
0.84219
0.839913
0.837999
0.839718
0.197757
0.196449
0.192628
0.195293
0.196787
0.204522
0.202782
0.203417
0.202462
0.203601
0.211649
0.260507
0.371397
0.443967
0.376847
0.338638
0.30744
0.258867
0.249044
0.268953
0.28579
0.261757
0.246336
0.236905
0.23452
0.227615
0.216549
0.208302
0.204772
0.200277
0.198811
0.202343
0.203343
0.20461
0.205976
0.207754
0.212644
0.214278
0.219262
0.215942
0.218881
0.213299
0.211538
0.220769
0.562631
1.08515
1.20083
1.22576
1.2114
1.04046
0.820154
0.647145
0.571164
0.545234
0.563465
0.532439
0.498832
0.485871
0.542804
0.64266
0.733106
0.853117
1.04175
1.08952
1.08
1.06826
1.07575
1.09552
1.10639
1.08103
1.10906
1.05771
1.13662
1.1198
1.19054
1.20029
1.22312
1.29626
1.15378
1.16598
1.16105
1.13536
1.12366