/*--------------------------------*- C++ -*----------------------------------*\
| =========                 |                                                 |
| \\      /  F ield         | OpenFOAM: The Open Source CFD Toolbox           |
|  \\    /   O peration     | Version:  2.1.1                                 |
|   \\  /    A nd           | Web:      www.OpenFOAM.org                      |
|    \\/     M anipulation  |                                                 |
\*---------------------------------------------------------------------------*/
FoamFile
{
    version     2.0;
    format      ascii;
    class       volScalarField;
    location    "0.001800000";
    object      rhoEu;
}
// * * * * * * * * * * * * * * * * * * * * * * * * * * * * * * * * * * * * * //

dimensions      [1 -1 -2 0 0 0 0];

internalField   nonuniform List<scalar> 
12384
(
-168505
-166210
-169592
-183575
-140795
-91813
-80767.5
-78413
-74536.2
-74134.1
-74837.3
-76738.7
-81713.1
-82833.7
-80011.7
-81043.6
-76952.7
-78506.3
-75449.5
-79340.8
-82086
-82437.1
-84103.2
-85347.4
-84257.8
-91110.6
-86460.6
-91702.9
-90938.2
-89017.3
-90101.4
-88679.8
-83158.3
-82528.1
-80713.1
-75820.7
-75688.6
-70981.5
-71026.4
-70983.4
-74444.9
-76426.2
-78266
-78067.6
-96144.9
-96139.1
-95876.1
-95806.5
-95245.9
-94776.1
-91950.2
-91544
-89864.3
-89098
-88546.8
-87856.2
-88475.3
-88768.9
-87216.7
-87270.8
-86023.7
-85383.1
-86173.5
-86215.3
-86650.2
-86524.9
-88328.1
-91454.4
-92419.4
-95884.6
-98301.2
-98056.6
-97732.9
-97747.2
-105093
-105006
-104895
-104749
-104534
-104242
-103913
-103591
-103275
-103069
-102946
-103016
-103029
-103048
-102985
-102889
-102799
-102770
-102783
-103006
-103354
-104045
-104383
-105209
-105301
-105832
-106002
-106119
-106277
-106286
-107599
-107594
-107588
-107581
-107570
-107563
-107556
-107548
-107554
-107545
-107554
-107550
-107558
-107558
-107562
-107565
-107566
-107571
-107566
-107573
-107566
-107575
-107570
-107568
-107575
-107565
-107573
-107566
-107570
-107567
-107504
-107502
-107503
-107501
-107499
-107500
-107499
-107498
-107496
-107497
-107493
-107494
-107493
-107493
-107491
-107492
-107491
-107492
-107488
-107489
-107489
-107489
-107488
-107489
-107488
-107488
-107488
-107488
-107489
-107489
-107488
-107487
-107488
-107488
-107487
-107488
-107487
-107488
-107487
-107487
-107486
-107487
-107488
-107488
-107488
-107488
-107488
-107488
-107486
-107487
-107488
-107487
-107487
-107488
-107487
-107487
-107487
-107488
-107487
-107488
-107488
-107487
-107487
-107488
-107486
-107488
-107488
-107488
-107487
-107487
-107486
-107487
-107488
-107488
-107488
-107488
-107488
-107488
-107486
-107487
-107487
-107487
-107487
-107488
-107488
-107487
-107487
-107487
-107488
-107488
-107487
-107488
-107487
-107488
-107486
-107488
-107488
-107488
-107487
-107487
-107486
-107487
-107488
-107488
-107488
-107488
-107488
-107488
-107486
-107487
-107487
-107487
-107487
-107488
-107488
-107486
-107487
-107487
-107488
-107488
-107487
-107487
-107488
-107487
-107486
-107487
-107488
-107487
-107487
-107488
-107487
-107486
-107488
-107488
-107488
-107487
-107488
-107488
-107487
-107487
-107488
-107488
-107487
-107488
-107488
-107486
-107487
-107488
-107487
-107488
-107488
-107488
-107487
-107488
-107486
-107488
-107488
-107488
-107487
-107487
-107486
-107487
-107488
-107488
-107488
-107488
-107488
-107488
-107486
-107487
-107488
-107487
-107487
-107488
-107488
-107486
-107487
-107487
-107488
-107488
-107488
-107487
-107487
-107488
-107486
-107488
-107488
-107487
-107488
-107487
-107486
-107487
-107487
-107488
-107488
-107487
-107488
-107488
-107487
-107486
-107487
-107488
-107487
-107487
-107488
-107486
-107488
-107487
-107487
-107488
-107488
-107488
-107487
-107487
-107486
-107488
-107487
-107488
-107488
-107488
-107487
-107487
-107488
-107488
-107486
-107487
-107486
-107487
-107488
-107488
-107488
-107488
-107487
-107488
-107487
-107486
-107487
-107487
-107487
-107487
-161667
-161215
-162260
-177937
-138921
-98445.3
-86216.2
-82653.5
-77871.9
-75631.5
-75547
-79488.6
-81651.4
-85460.4
-83439.1
-82784.5
-84949.3
-87085.4
-110017
-124385
-128816
-135994
-133596
-135168
-131435
-125455
-129758
-117616
-106932
-101231
-91510.8
-86900
-85005.8
-86027.1
-80740.6
-78071.8
-74363.4
-75383.3
-73679.7
-75545.7
-76616
-78005
-78603.9
-77995
-95214.3
-94912.1
-94502
-93086.6
-91639.9
-89887.2
-88647
-87086.1
-85533.2
-84051.9
-82604.3
-80081.9
-79620
-79261
-80953.9
-81069
-84233.4
-85638.7
-84896.2
-86833.7
-86713.6
-87851.9
-89802
-90326.7
-92917.2
-94520.2
-96879.8
-97267.8
-97665.7
-97433.4
-105188
-105177
-105001
-104896
-104623
-104357
-104007
-103670
-103342
-103101
-102925
-102835
-102957
-102924
-103011
-102956
-102874
-102866
-102946
-103113
-103507
-104123
-104374
-105022
-105375
-105658
-106017
-106066
-106276
-106315
-107595
-107588
-107581
-107568
-107564
-107557
-107552
-107548
-107544
-107547
-107545
-107553
-107550
-107561
-107558
-107567
-107563
-107573
-107565
-107572
-107573
-107567
-107577
-107565
-107575
-107568
-107567
-107572
-107565
-107569
-107502
-107501
-107505
-107500
-107503
-107497
-107502
-107496
-107500
-107494
-107498
-107493
-107495
-107495
-107491
-107495
-107489
-107495
-107487
-107493
-107486
-107493
-107486
-107492
-107485
-107491
-107486
-107486
-107488
-107487
-107488
-107486
-107491
-107485
-107487
-107490
-107485
-107491
-107484
-107491
-107485
-107491
-107485
-107491
-107485
-107490
-107485
-107491
-107485
-107491
-107485
-107491
-107485
-107491
-107484
-107490
-107485
-107491
-107486
-107487
-107488
-107488
-107486
-107490
-107485
-107491
-107484
-107490
-107484
-107491
-107485
-107491
-107485
-107491
-107486
-107491
-107485
-107491
-107485
-107491
-107484
-107491
-107484
-107491
-107484
-107490
-107485
-107486
-107488
-107486
-107486
-107488
-107484
-107491
-107484
-107491
-107484
-107491
-107484
-107491
-107484
-107491
-107485
-107491
-107486
-107491
-107485
-107491
-107485
-107491
-107484
-107491
-107484
-107491
-107484
-107490
-107485
-107486
-107487
-107486
-107487
-107487
-107489
-107485
-107490
-107484
-107491
-107485
-107491
-107484
-107491
-107485
-107491
-107485
-107490
-107485
-107490
-107485
-107490
-107486
-107485
-107490
-107485
-107491
-107484
-107490
-107484
-107491
-107486
-107487
-107486
-107488
-107484
-107491
-107484
-107490
-107484
-107491
-107484
-107491
-107484
-107491
-107485
-107490
-107485
-107491
-107485
-107491
-107485
-107491
-107484
-107491
-107484
-107491
-107484
-107490
-107485
-107485
-107487
-107486
-107488
-107486
-107490
-107489
-107485
-107491
-107485
-107491
-107485
-107491
-107484
-107491
-107485
-107490
-107486
-107486
-107490
-107485
-107491
-107485
-107491
-107484
-107491
-107484
-107490
-107485
-107489
-107489
-107487
-107488
-107486
-107488
-107483
-107490
-107484
-107491
-107484
-107491
-107484
-107492
-107484
-107491
-107484
-107491
-107484
-107490
-107485
-107490
-107484
-107491
-107484
-107491
-107483
-107490
-107484
-107490
-107486
-107486
-107487
-107486
-150889
-144216
-152325
-164826
-119805
-101172
-100776
-105200
-98288.5
-82626.9
-78808.4
-81661.6
-82891.1
-87274.7
-84052.6
-89591.8
-116911
-137778
-182929
-168974
-168551
-170939
-170912
-169420
-168073
-169055
-172931
-174787
-177126
-181807
-143551
-117698
-102216
-92586.8
-84705.1
-78915.6
-77145.9
-75968.8
-78493.7
-80058.8
-81016.6
-81411
-79507.8
-79618.1
-93237.6
-93588.2
-92664.3
-91288.1
-89556.7
-88082.4
-86195.6
-85123.1
-83500.8
-81188.4
-78188.4
-75270.8
-71887.6
-69602.2
-69886.9
-74470.5
-78069.7
-82428.8
-85732.2
-85496
-87498.9
-89486.9
-89721.4
-91565.9
-92317.7
-94281.6
-95449.1
-97235.7
-97226.1
-97580.4
-105479
-105310
-105245
-104984
-104694
-104362
-103976
-103617
-103239
-102925
-102723
-102631
-102648
-102842
-102938
-103048
-103173
-103182
-103384
-103601
-104068
-104262
-104798
-104975
-105587
-105653
-106089
-106112
-106307
-106322
-107570
-107560
-107567
-107566
-107563
-107560
-107564
-107560
-107570
-107567
-107579
-107579
-107585
-107588
-107588
-107597
-107590
-107603
-107592
-107600
-107600
-107593
-107598
-107595
-107594
-107593
-107591
-107592
-107589
-107592
-107528
-107528
-107526
-107525
-107524
-107525
-107521
-107523
-107518
-107521
-107517
-107519
-107515
-107516
-107514
-107514
-107514
-107513
-107514
-107512
-107513
-107510
-107513
-107511
-107513
-107510
-107512
-107512
-107512
-107512
-107511
-107512
-107510
-107512
-107510
-107511
-107511
-107509
-107510
-107510
-107511
-107510
-107511
-107510
-107511
-107510
-107511
-107509
-107511
-107509
-107511
-107509
-107511
-107510
-107512
-107509
-107511
-107510
-107511
-107511
-107512
-107511
-107511
-107510
-107511
-107511
-107511
-107509
-107511
-107510
-107511
-107510
-107511
-107509
-107511
-107510
-107511
-107510
-107512
-107510
-107511
-107509
-107511
-107510
-107512
-107510
-107511
-107511
-107511
-107512
-107511
-107510
-107511
-107510
-107511
-107511
-107511
-107509
-107511
-107510
-107511
-107510
-107511
-107509
-107511
-107510
-107511
-107510
-107512
-107510
-107511
-107509
-107511
-107510
-107512
-107510
-107511
-107511
-107511
-107512
-107511
-107511
-107510
-107511
-107510
-107512
-107509
-107511
-107509
-107512
-107510
-107511
-107510
-107511
-107509
-107511
-107509
-107511
-107509
-107510
-107511
-107509
-107511
-107510
-107512
-107510
-107511
-107510
-107511
-107511
-107512
-107510
-107512
-107510
-107511
-107510
-107511
-107509
-107511
-107510
-107511
-107510
-107511
-107509
-107511
-107510
-107511
-107510
-107512
-107510
-107511
-107509
-107511
-107510
-107512
-107510
-107511
-107511
-107511
-107512
-107511
-107512
-107511
-107510
-107511
-107510
-107511
-107509
-107511
-107510
-107511
-107510
-107511
-107510
-107511
-107511
-107510
-107512
-107510
-107511
-107510
-107511
-107509
-107511
-107511
-107511
-107510
-107511
-107512
-107511
-107511
-107510
-107512
-107510
-107511
-107510
-107511
-107510
-107511
-107509
-107511
-107509
-107511
-107509
-107510
-107509
-107511
-107509
-107511
-107510
-107511
-107510
-107510
-107510
-107512
-107509
-107510
-107511
-107510
-107511
-122299
-111873
-115910
-140065
-98055.1
-96405.4
-116379
-124264
-124579
-113298
-98452.8
-82203.3
-86919.9
-86083
-89205.4
-106381
-177714
-162385
-167251
-164013
-167614
-169793
-170851
-169223
-165380
-163795
-165577
-168899
-171429
-171130
-169362
-170311
-176010
-185899
-132943
-80678.4
-78233.4
-79440.5
-83466.4
-85197
-84612.8
-83017
-84040.8
-81209.3
-94185.7
-93516.5
-92713.3
-91996.7
-91468.4
-90159.1
-90052.4
-87378.9
-85381.1
-80453.8
-77138.2
-71556.2
-68319.9
-65395.6
-62547.7
-62496.5
-67580.2
-75119.8
-81422.8
-86428.6
-85940.8
-89156.8
-89354.4
-91017.7
-91742.3
-92775.1
-94424.4
-95388.5
-96754.1
-97008
-105381
-105551
-105228
-104825
-104455
-104052
-103655
-103269
-102884
-102558
-102273
-102104
-102147
-102235
-102665
-102684
-103152
-103205
-103516
-103771
-104061
-104250
-104732
-104914
-105431
-105683
-105972
-106129
-106257
-106362
-107518
-107497
-107501
-107502
-107506
-107521
-107529
-107540
-107545
-107558
-107556
-107575
-107569
-107586
-107581
-107590
-107592
-107592
-107597
-107591
-107600
-107589
-107598
-107593
-107591
-107595
-107584
-107594
-107584
-107590
-107526
-107523
-107527
-107524
-107524
-107522
-107524
-107519
-107521
-107516
-107519
-107513
-107517
-107514
-107512
-107514
-107511
-107513
-107510
-107512
-107509
-107512
-107509
-107512
-107509
-107511
-107508
-107508
-107510
-107510
-107509
-107507
-107511
-107507
-107508
-107511
-107507
-107511
-107507
-107510
-107507
-107511
-107507
-107510
-107506
-107510
-107507
-107511
-107507
-107510
-107506
-107510
-107507
-107511
-107508
-107511
-107507
-107511
-107508
-107510
-107509
-107509
-107507
-107511
-107506
-107511
-107507
-107511
-107507
-107511
-107507
-107511
-107506
-107510
-107506
-107510
-107506
-107510
-107507
-107510
-107506
-107510
-107507
-107511
-107508
-107510
-107507
-107508
-107509
-107509
-107509
-107509
-107506
-107510
-107507
-107511
-107507
-107511
-107506
-107510
-107506
-107510
-107506
-107510
-107507
-107510
-107506
-107510
-107507
-107510
-107506
-107510
-107507
-107511
-107508
-107510
-107507
-107508
-107509
-107509
-107509
-107509
-107510
-107507
-107511
-107507
-107511
-107507
-107510
-107506
-107511
-107507
-107510
-107506
-107510
-107506
-107510
-107507
-107509
-107507
-107507
-107510
-107507
-107511
-107508
-107511
-107507
-107511
-107508
-107509
-107509
-107509
-107506
-107511
-107507
-107511
-107507
-107511
-107506
-107510
-107506
-107510
-107506
-107510
-107506
-107510
-107506
-107510
-107506
-107510
-107506
-107510
-107507
-107511
-107507
-107510
-107507
-107507
-107509
-107509
-107510
-107508
-107510
-107510
-107507
-107512
-107507
-107511
-107506
-107510
-107506
-107510
-107506
-107510
-107507
-107507
-107510
-107506
-107511
-107506
-107511
-107506
-107511
-107507
-107512
-107507
-107510
-107509
-107508
-107510
-107509
-107509
-107506
-107511
-107507
-107512
-107507
-107511
-107506
-107510
-107506
-107511
-107507
-107511
-107507
-107511
-107507
-107511
-107507
-107511
-107506
-107510
-107507
-107511
-107507
-107511
-107507
-107508
-107509
-107509
-67647.6
-52153
-54299.9
-72202.4
-13037.7
-3164.55
-47384.9
-80032.6
-113961
-133512
-161761
-116158
-90607.7
-89280.4
-85452.8
-122479
-165254
-165661
-161064
-158515
-160888
-162409
-162800
-158868
-153849
-152808
-155322
-160978
-165290
-168107
-169656
-175246
-184365
-189082
-183995
-134516
-79171
-80560
-84499.4
-88984
-89427.4
-87325.9
-84761.3
-84766
-96422
-96374.4
-96192.3
-95832
-94655.8
-93941.9
-90041.1
-89461.4
-83484.9
-76341.2
-67997.9
-64105.6
-63149.8
-62643
-60062.4
-57641.6
-57580.9
-63592.6
-73146.1
-81373.2
-86554.7
-86548.7
-88806.8
-89311.4
-90867.5
-91436.1
-92618.2
-94411.1
-95428
-96023.1
-105169
-105210
-105122
-104329
-103887
-103225
-102899
-102531
-102283
-101992
-101751
-101586
-101598
-101708
-102146
-102409
-103062
-103108
-103683
-103739
-104063
-104195
-104615
-104741
-105253
-105614
-105751
-106131
-106158
-106344
-107469
-107378
-107415
-107430
-107457
-107462
-107487
-107497
-107516
-107524
-107545
-107542
-107566
-107562
-107578
-107579
-107584
-107587
-107589
-107591
-107587
-107593
-107586
-107594
-107583
-107591
-107582
-107587
-107582
-107582
-107522
-107527
-107522
-107522
-107521
-107520
-107518
-107520
-107515
-107517
-107513
-107515
-107512
-107512
-107511
-107510
-107510
-107509
-107510
-107507
-107508
-107507
-107509
-107507
-107508
-107506
-107507
-107507
-107506
-107506
-107505
-107506
-107505
-107506
-107505
-107505
-107507
-107505
-107506
-107504
-107506
-107505
-107507
-107505
-107507
-107505
-107507
-107505
-107507
-107505
-107506
-107504
-107507
-107505
-107506
-107505
-107507
-107505
-107506
-107505
-107505
-107506
-107506
-107505
-107506
-107505
-107507
-107505
-107507
-107504
-107506
-107505
-107507
-107505
-107507
-107505
-107507
-107505
-107507
-107504
-107506
-107504
-107507
-107505
-107506
-107505
-107506
-107506
-107506
-107506
-107506
-107505
-107506
-107504
-107506
-107504
-107507
-107505
-107506
-107504
-107506
-107505
-107507
-107505
-107507
-107505
-107507
-107505
-107507
-107504
-107506
-107504
-107507
-107505
-107506
-107505
-107506
-107506
-107506
-107506
-107506
-107506
-107505
-107506
-107504
-107507
-107505
-107508
-107504
-107506
-107504
-107507
-107505
-107507
-107505
-107507
-107505
-107507
-107505
-107506
-107506
-107505
-107507
-107505
-107506
-107504
-107506
-107504
-107506
-107505
-107506
-107505
-107507
-107505
-107507
-107504
-107507
-107505
-107507
-107504
-107506
-107505
-107507
-107505
-107507
-107505
-107507
-107505
-107507
-107504
-107506
-107504
-107507
-107505
-107506
-107505
-107506
-107506
-107506
-107506
-107505
-107506
-107505
-107505
-107506
-107504
-107507
-107505
-107506
-107504
-107506
-107505
-107506
-107505
-107506
-107506
-107505
-107506
-107505
-107506
-107504
-107506
-107505
-107507
-107504
-107506
-107505
-107505
-107506
-107505
-107506
-107505
-107507
-107505
-107506
-107504
-107507
-107506
-107508
-107505
-107507
-107505
-107507
-107505
-107507
-107505
-107507
-107505
-107507
-107505
-107506
-107504
-107508
-107506
-107507
-107505
-107506
-107506
-107506
-107507
3190.67
17160.5
21356.9
19316.4
57705.6
54178.9
9457.24
-49845.1
-93160.2
-121391
-142089
-151350
-117331
-89753.8
-86699.7
-137516
-161122
-157614
-147682
-147244
-149444
-151767
-150527
-146485
-142850
-142757
-145826
-150722
-157972
-163730
-168458
-172475
-173656
-180656
-188982
-189311
-122741
-77799.7
-84393.1
-88238.9
-87654.4
-86651.6
-86030.8
-84937
-96812.3
-97135.9
-96560.5
-95494.3
-94706.3
-92412.4
-90679.8
-83113.3
-74838.2
-64808.8
-56645.9
-50097.4
-52479.3
-55461.6
-58580.4
-56735.4
-54703.4
-54876.9
-61628.4
-71924
-81407.9
-85596.6
-86088.7
-88148.7
-88741.5
-90768.2
-91066.2
-92784.4
-94187
-94334.5
-104705
-105131
-104617
-103290
-102494
-101597
-101456
-101319
-101253
-101147
-101043
-101021
-101039
-101290
-101585
-102312
-102635
-103142
-103513
-103666
-103938
-104123
-104381
-104619
-105107
-105365
-105680
-106019
-106122
-106235
-107453
-107243
-107287
-107303
-107343
-107378
-107423
-107448
-107480
-107496
-107516
-107532
-107542
-107557
-107560
-107573
-107573
-107585
-107578
-107590
-107582
-107589
-107582
-107589
-107580
-107586
-107579
-107582
-107579
-107579
-107527
-107522
-107524
-107521
-107520
-107519
-107518
-107515
-107516
-107512
-107513
-107510
-107511
-107509
-107509
-107507
-107507
-107506
-107506
-107506
-107505
-107505
-107504
-107505
-107504
-107505
-107504
-107504
-107504
-107504
-107504
-107503
-107504
-107503
-107503
-107503
-107503
-107503
-107502
-107503
-107502
-107503
-107502
-107503
-107502
-107503
-107502
-107503
-107502
-107503
-107502
-107504
-107502
-107504
-107502
-107504
-107503
-107504
-107503
-107503
-107503
-107503
-107503
-107503
-107503
-107503
-107503
-107503
-107502
-107503
-107502
-107503
-107502
-107503
-107502
-107503
-107502
-107503
-107502
-107503
-107502
-107503
-107502
-107504
-107503
-107504
-107503
-107503
-107503
-107503
-107503
-107503
-107502
-107504
-107503
-107504
-107502
-107503
-107503
-107503
-107502
-107503
-107502
-107503
-107502
-107503
-107502
-107503
-107502
-107503
-107502
-107503
-107502
-107504
-107503
-107504
-107503
-107503
-107503
-107503
-107503
-107503
-107503
-107502
-107504
-107502
-107504
-107502
-107503
-107502
-107503
-107502
-107503
-107502
-107503
-107502
-107503
-107502
-107503
-107503
-107502
-107504
-107502
-107504
-107503
-107503
-107503
-107503
-107503
-107504
-107503
-107503
-107502
-107504
-107502
-107504
-107502
-107503
-107502
-107503
-107502
-107503
-107502
-107503
-107502
-107503
-107502
-107503
-107502
-107503
-107502
-107503
-107502
-107504
-107503
-107504
-107503
-107503
-107503
-107503
-107504
-107503
-107503
-107503
-107503
-107504
-107503
-107503
-107502
-107503
-107502
-107503
-107502
-107503
-107503
-107503
-107503
-107502
-107503
-107502
-107503
-107502
-107503
-107503
-107503
-107503
-107503
-107503
-107503
-107504
-107503
-107503
-107502
-107503
-107502
-107503
-107502
-107503
-107503
-107503
-107502
-107504
-107502
-107503
-107502
-107504
-107503
-107503
-107502
-107503
-107502
-107503
-107503
-107504
-107503
-107503
-107502
-107503
-107504
-107503
61400.9
71317.5
77072.2
77163.1
78452.7
50808.2
9877.9
-50433.1
-92357.1
-114553
-128347
-141490
-125530
-90422.2
-96868.5
-174178
-163035
-152007
-139090
-135693
-139346
-143406
-143462
-139306
-136283
-135884
-136469
-140835
-147940
-157528
-165608
-169035
-170045
-172384
-180121
-184514
-177077
-139665
-90850.5
-87876.2
-88227.3
-86962.2
-85358
-82657.5
-99161.7
-98537
-97832.6
-96249.2
-91550.5
-85730.3
-78370.7
-66894
-58966.6
-49806.6
-41278
-40189.8
-41661.9
-47262.5
-52386.3
-55319.7
-54545.7
-52113
-52975
-60322.8
-71298.7
-80678.8
-84723.4
-85229.6
-87345
-88200.7
-89712.6
-90350.7
-91638.8
-90633.1
-104681
-104164
-102767
-100622
-99327.9
-98624.5
-98831.3
-99384.3
-99906.1
-100162
-100283
-100380
-100499
-100864
-101202
-102019
-102195
-103023
-103196
-103562
-103721
-103983
-104157
-104511
-104802
-105087
-105565
-105743
-106034
-105937
-107311
-106953
-107054
-107147
-107231
-107286
-107342
-107389
-107425
-107460
-107482
-107503
-107526
-107527
-107553
-107554
-107564
-107568
-107572
-107575
-107576
-107578
-107575
-107579
-107573
-107577
-107569
-107574
-107570
-107569
-107517
-107521
-107517
-107519
-107514
-107515
-107512
-107512
-107508
-107510
-107506
-107507
-107504
-107505
-107503
-107503
-107501
-107501
-107500
-107500
-107500
-107498
-107499
-107498
-107499
-107497
-107497
-107498
-107497
-107498
-107497
-107497
-107496
-107496
-107497
-107497
-107497
-107497
-107497
-107496
-107498
-107497
-107498
-107497
-107497
-107497
-107497
-107497
-107498
-107497
-107497
-107496
-107498
-107497
-107498
-107496
-107497
-107496
-107497
-107497
-107497
-107497
-107497
-107496
-107497
-107497
-107498
-107496
-107497
-107496
-107498
-107497
-107498
-107497
-107497
-107497
-107497
-107497
-107498
-107497
-107498
-107496
-107498
-107497
-107498
-107496
-107496
-107497
-107497
-107497
-107498
-107497
-107497
-107496
-107497
-107497
-107498
-107497
-107497
-107496
-107498
-107497
-107498
-107497
-107497
-107497
-107497
-107497
-107498
-107497
-107498
-107496
-107498
-107497
-107498
-107496
-107496
-107497
-107497
-107497
-107497
-107497
-107496
-107497
-107496
-107498
-107497
-107498
-107496
-107498
-107497
-107498
-107497
-107497
-107497
-107497
-107497
-107497
-107497
-107497
-107497
-107496
-107498
-107497
-107498
-107497
-107497
-107497
-107497
-107497
-107497
-107497
-107497
-107496
-107498
-107496
-107498
-107497
-107497
-107496
-107498
-107497
-107498
-107497
-107497
-107497
-107498
-107497
-107498
-107497
-107498
-107496
-107498
-107497
-107498
-107496
-107496
-107497
-107497
-107497
-107497
-107497
-107497
-107496
-107497
-107497
-107498
-107496
-107497
-107496
-107498
-107497
-107498
-107497
-107497
-107497
-107496
-107497
-107496
-107498
-107496
-107497
-107496
-107498
-107497
-107497
-107496
-107497
-107497
-107497
-107497
-107497
-107498
-107496
-107498
-107496
-107497
-107496
-107497
-107496
-107497
-107496
-107497
-107496
-107497
-107496
-107497
-107496
-107497
-107496
-107498
-107496
-107498
-107497
-107498
-107497
-107498
-107497
-107498
-107497
86568.1
84194.5
78418.5
74770.9
46122.9
1371.67
-51283.6
-85873.3
-99787.8
-112078
-125239
-141376
-124136
-90694.4
-113493
-166518
-159063
-142741
-131134
-127588
-130576
-135591
-138157
-135906
-133504
-131929
-132460
-133915
-138764
-146897
-156767
-163867
-166873
-168297
-171042
-174976
-182552
-174061
-140686
-102532
-88743.1
-85857.6
-82544.4
-74609.3
-93304.7
-90086.1
-85406.6
-81209.5
-75163.7
-67172.9
-56526.8
-49425.3
-39770.2
-36250.5
-33852.6
-37118.7
-35096
-39983.8
-43566.6
-51292.2
-52722
-51885.8
-48966.3
-51513.4
-59319.9
-72368
-79309.5
-84082.9
-84272.7
-87032.4
-87472.9
-88601.8
-89109.7
-85152
-102773
-99829.9
-97447.1
-95015.6
-94136.8
-94286.6
-95414.1
-96925.7
-98251
-99112.3
-99563.2
-99822.1
-100036
-100428
-100801
-101507
-101816
-102674
-102820
-103300
-103523
-103829
-103976
-104360
-104559
-105039
-105328
-105622
-105840
-105572
-106266
-106300
-106549
-106832
-107010
-107161
-107230
-107325
-107357
-107423
-107439
-107478
-107497
-107515
-107531
-107542
-107551
-107560
-107559
-107570
-107563
-107576
-107564
-107576
-107563
-107575
-107562
-107570
-107562
-107563
-107517
-107516
-107516
-107513
-107514
-107512
-107508
-107509
-107506
-107505
-107503
-107502
-107501
-107501
-107499
-107499
-107497
-107498
-107495
-107496
-107494
-107495
-107494
-107494
-107494
-107494
-107493
-107493
-107493
-107493
-107492
-107492
-107492
-107492
-107493
-107493
-107492
-107493
-107493
-107492
-107492
-107492
-107493
-107493
-107493
-107493
-107493
-107493
-107492
-107492
-107492
-107493
-107493
-107492
-107492
-107493
-107492
-107492
-107492
-107492
-107492
-107492
-107492
-107492
-107492
-107493
-107492
-107493
-107493
-107492
-107492
-107492
-107493
-107493
-107493
-107493
-107493
-107493
-107492
-107492
-107492
-107493
-107493
-107492
-107493
-107493
-107492
-107492
-107492
-107492
-107492
-107492
-107492
-107492
-107492
-107493
-107492
-107493
-107493
-107492
-107492
-107492
-107493
-107493
-107493
-107493
-107493
-107493
-107492
-107492
-107492
-107493
-107493
-107492
-107493
-107493
-107492
-107492
-107492
-107492
-107492
-107492
-107492
-107492
-107493
-107493
-107492
-107492
-107493
-107492
-107492
-107492
-107493
-107493
-107493
-107493
-107493
-107493
-107492
-107492
-107492
-107493
-107493
-107492
-107492
-107493
-107492
-107492
-107492
-107492
-107492
-107492
-107492
-107492
-107493
-107493
-107492
-107493
-107493
-107492
-107492
-107492
-107493
-107493
-107493
-107493
-107493
-107493
-107492
-107492
-107492
-107493
-107493
-107492
-107493
-107493
-107492
-107492
-107492
-107492
-107492
-107492
-107492
-107492
-107492
-107493
-107492
-107493
-107492
-107492
-107492
-107492
-107493
-107493
-107493
-107493
-107493
-107493
-107492
-107492
-107492
-107493
-107493
-107492
-107493
-107493
-107492
-107492
-107492
-107492
-107492
-107492
-107492
-107492
-107492
-107492
-107492
-107493
-107492
-107493
-107493
-107493
-107493
-107493
-107493
-107493
-107493
-107493
-107492
-107492
-107493
-107493
-107492
-107492
-107492
-107492
-107492
-107493
-107493
-107492
77566.3
73577.8
64776.7
48120.9
20761.5
-24298.9
-55949
-58496.7
-71602.3
-89809.4
-114829
-139767
-154699
-111889
-156393
-156418
-181377
-167503
-154450
-138744
-124930
-122471
-122161
-125330
-128404
-130751
-130753
-130226
-130765
-131898
-133148
-138293
-145551
-154214
-161256
-163328
-165410
-169573
-181209
-179718
-169230
-174346
-141798
-99042.8
-76657.1
-63443.2
-77915.2
-83114.1
-78564
-72601.5
-69266.9
-69120
-69287.1
-64332.4
-56881.9
-46254.3
-40619.6
-32362.3
-29881.3
-36138.6
-37111.6
-38161.4
-38824.4
-43990.1
-49407.4
-50193.8
-47499.1
-46165.3
-50167
-62848.6
-70531.5
-80050.9
-83023.4
-83999.9
-85889.7
-85579.6
-84329.9
-68512.9
-75608.2
-82711.2
-87426
-87764.3
-85867.6
-86461.6
-87597.9
-89846.5
-92225.7
-94687.3
-96676.2
-98015.3
-98715.5
-99175.9
-99548.1
-99929.2
-100400
-101000
-101417
-102124
-102555
-102955
-103249
-103509
-103750
-103973
-104271
-104582
-104691
-104990
-104441
-103169
-104043
-105251
-104840
-105184
-105813
-106452
-106740
-107009
-107105
-107246
-107279
-107366
-107388
-107443
-107460
-107493
-107506
-107519
-107536
-107539
-107551
-107552
-107556
-107560
-107556
-107561
-107555
-107556
-107550
-107550
-107538
-107533
-107521
-107528
-107506
-107512
-107510
-107508
-107506
-107505
-107503
-107501
-107500
-107499
-107496
-107496
-107493
-107494
-107491
-107492
-107489
-107490
-107488
-107488
-107488
-107487
-107487
-107486
-107486
-107485
-107485
-107485
-107485
-107485
-107484
-107484
-107484
-107485
-107485
-107484
-107484
-107485
-107485
-107485
-107485
-107485
-107485
-107485
-107485
-107485
-107485
-107485
-107485
-107485
-107485
-107485
-107485
-107485
-107485
-107485
-107485
-107484
-107484
-107484
-107485
-107484
-107484
-107484
-107484
-107484
-107484
-107484
-107484
-107484
-107485
-107485
-107485
-107485
-107485
-107485
-107485
-107485
-107485
-107485
-107485
-107485
-107485
-107485
-107485
-107485
-107485
-107484
-107485
-107484
-107485
-107484
-107485
-107484
-107484
-107484
-107484
-107485
-107484
-107484
-107485
-107484
-107485
-107485
-107485
-107485
-107485
-107485
-107485
-107485
-107485
-107485
-107485
-107485
-107485
-107485
-107485
-107485
-107485
-107484
-107485
-107484
-107485
-107484
-107485
-107484
-107484
-107484
-107484
-107485
-107484
-107484
-107484
-107485
-107484
-107485
-107485
-107485
-107485
-107485
-107485
-107485
-107485
-107485
-107485
-107485
-107485
-107485
-107485
-107485
-107485
-107485
-107484
-107484
-107484
-107484
-107485
-107484
-107484
-107484
-107484
-107485
-107484
-107484
-107485
-107484
-107485
-107485
-107485
-107485
-107485
-107485
-107485
-107485
-107485
-107485
-107485
-107485
-107485
-107485
-107485
-107485
-107485
-107484
-107485
-107484
-107484
-107484
-107485
-107484
-107484
-107484
-107484
-107484
-107484
-107484
-107484
-107484
-107485
-107485
-107485
-107485
-107485
-107485
-107485
-107485
-107485
-107485
-107485
-107485
-107485
-107485
-107485
-107485
-107485
-107485
-107484
-107485
-107484
-107484
-107484
-107484
-107484
-107484
-107484
-107485
-107484
-107485
-107485
-107484
-107485
-107484
-107485
-107485
-107485
-107485
-107485
-107485
-107485
-107485
-107485
-107485
-107485
-107485
-107485
-107485
-107485
-107485
-107485
-107484
-107485
-107485
-107484
-107485
-107485
-107484
59896.2
57095.1
47618.2
40186.2
23813
9315.3
-9636.69
-16962.8
-34929.3
-61209.5
-83896.6
-122462
-143738
-149325
-140955
-140549
-164775
-159394
-147935
-135400
-125628
-119166
-116216
-117038
-119832
-122897
-126427
-129288
-130576
-131391
-131729
-132792
-137436
-144106
-151686
-157368
-160235
-163910
-173846
-180162
-180979
-177625
-166568
-175694
-138919
-87043.8
-73280.2
-71600.4
-72658
-80379.1
-95703.3
-109863
-117624
-118500
-116198
-112041
-108163
-101507
-88321.9
-73671.8
-75352.8
-60578.1
-40168.2
-39852.2
-46216.7
-47742
-46571.5
-42914.7
-43739.1
-54099.6
-61479.3
-76856.3
-77280.6
-82161.5
-81721.5
-83110.8
-81900.1
-70108.8
-63893.6
-68743.4
-68703.7
-69997
-73647.2
-77645
-82595.6
-87054.3
-90667.7
-93415.4
-95423.9
-96818.2
-97712
-98313.9
-98869.4
-99311.4
-99821.5
-100377
-101003
-101582
-102198
-102606
-102897
-103229
-103490
-103722
-104072
-104202
-104476
-104675
-104364
-103585
-103676
-104281
-104674
-105242
-105848
-106450
-106744
-106996
-107063
-107201
-107243
-107336
-107358
-107419
-107434
-107472
-107487
-107505
-107520
-107526
-107541
-107538
-107550
-107547
-107551
-107547
-107555
-107542
-107552
-107537
-107540
-107527
-107519
-107520
-107504
-107513
-107503
-107509
-107500
-107500
-107499
-107495
-107497
-107492
-107494
-107490
-107489
-107489
-107486
-107487
-107485
-107485
-107483
-107484
-107483
-107482
-107481
-107481
-107481
-107481
-107480
-107481
-107480
-107480
-107480
-107480
-107479
-107480
-107480
-107479
-107479
-107480
-107479
-107479
-107479
-107480
-107480
-107480
-107480
-107480
-107480
-107480
-107480
-107480
-107480
-107480
-107480
-107479
-107479
-107479