/*--------------------------------*- C++ -*----------------------------------*\
| =========                 |                                                 |
| \\      /  F ield         | OpenFOAM: The Open Source CFD Toolbox           |
|  \\    /   O peration     | Version:  2.1.1                                 |
|   \\  /    A nd           | Web:      www.OpenFOAM.org                      |
|    \\/     M anipulation  |                                                 |
\*---------------------------------------------------------------------------*/
FoamFile
{
    version     2.0;
    format      ascii;
    class       volScalarField;
    location    "0.003900000";
    object      cSound;
}
// * * * * * * * * * * * * * * * * * * * * * * * * * * * * * * * * * * * * * //

dimensions      [0 1 -1 0 0 0 0];

internalField   nonuniform List<scalar> 
12384
(
1160.84
1180.02
1189.14
1190.34
1191.01
1188.95
1184.68
1172.42
1142.36
1097.93
1056.52
1051.43
1056.89
1058
997.323
1025.04
1062.03
1079.17
1100.72
1109.38
1114.67
1118.33
1117.26
1115.62
1116.33
1113.05
1116.66
1114.4
1115.9
1113.22
1108.48
1098.54
1086.83
1076.64
1075.12
1074.79
1070.84
1063.46
1047.49
1031.62
1017.13
1020.62
1046.83
1070.87
1114.84
1106.18
1098.16
1092.5
1087.27
1079.11
1081.35
1074.48
1076.81
1074.24
1072.34
1071.14
1066.72
1062.29
1058.75
1060.72
1076.45
1105.87
1132.14
1142.31
1144.53
1146.08
1143.89
1143.35
1139.56
1134.68
1125.26
1104.44
1049.65
1004.7
1086.24
1092.79
1092.78
1097.75
1096.86
1098.9
1099.49
1099.64
1098.75
1097.46
1095.52
1093.15
1091.36
1089.98
1089.64
1089.26
1087.13
1085.45
1085.5
1082.33
1092.3
1092.33
1101.17
1103.84
1092.13
1085.24
1074.45
1067.24
1058.02
1055.26
1078.78
1085.49
1087.04
1085.22
1083.15
1079.13
1078.72
1075.3
1075.21
1071.35
1074.06
1074.18
1075.48
1075.3
1074.04
1072.7
1072.33
1069.58
1070.89
1068.65
1072.25
1069.1
1068.44
1061.79
1057.61
1067.66
1070.61
1054.94
1034.95
1024.98
1018.85
1051.16
1108.19
1140.13
1147.85
1145.01
1135.95
1135.05
1130.39
1129.32
1126.51
1124.57
1125.28
1125.17
1125.71
1127.21
1127.81
1127.83
1128.8
1126.65
1128.18
1126.37
1128.9
1129.05
1131.61
1134.24
1136.32
1118.15
1026.51
997.901
1049.46
1040.35
1062.5
1079.29
1057.68
1007.55
1021.2
1072.4
1085.85
1096.1
1101.29
1098.32
1100.19
1093.52
1092.94
1087.15
1085.66
1080.56
1079.7
1077.37
1075.73
1076.14
1076.12
1077.18
1077.14
1075.65
1061.24
1002.87
901.502
891.962
996.021
1009.28
1021.17
1013.09
1026.18
1095.99
1135.04
1150.4
1131.98
1119.67
1117.74
1116.14
1114.79
1113.99
1111.39
1110.84
1108.52
1106.39
1103.84
1099.99
1096.51
1091.96
1089
1087.35
1085.04
1092.7
1096.02
1111.58
1141.85
1144.29
961.407
959.632
959.556
970.791
976.329
996.735
1069.72
1111.61
1121.26
1127.29
1127.22
1126.06
1117.75
1119.62
1112.66
1117.87
1122.34
1121.46
1132.22
1128.77
1141.66
1134.58
1141.89
1128.49
1116.61
1070.75
1015.57
988.492
998.039
1037.15
996.993
1005.53
1028.4
1042.66
1025.96
992.836
966.628
969.142
1012.52
1102.67
1136.65
1131.7
1114.46
1119.48
1113.36
1115.76
1117
1119.37
1122.14
1124.71
1126.85
1128.29
1126.79
1123.02
1117.95
1112.41
1110.23
1112.27
1120.99
1123.15
964.392
983.849
1002.57
1004.8
1005.2
991.014
989.235
983.323
988.551
983.349
987.253
987.252
1005.99
1051.09
1102.04
1107.89
1130.65
1115.51
1146.07
1143.55
1149.24
1148.35
1145.16
1135.38
1119.36
1101.99
1090.35
1089.43
1105.15
1062.98
939.566
980.288
994.665
987.918
996.805
1042.38
1098.86
1134.95
1147.6
1160.73
1160.88
1164.39
1163.23
1170.88
1164.31
1179.99
1174.5
1180.84
1174.98
1168.92
1152.11
1115.83
1056.15
1010.45
995.75
984.108
978.972
980.037
991.196
1016.95
956.792
973.372
989.268
986.114
975.744
971.139
960.557
961.514
955.455
956.289
953.056
963.919
959.978
975.807
976.294
982.781
984.748
986.552
979.733
979.528
975.814
977.446
976.531
975.384
970.21
967.004
965.639
978.703
987.552
1006.65
1230.42
1213.19
1192.91
1177.41
1172.99
1180.64
1204.25
1220.11
1222.95
1195.74
1136.76
1075.5
1047.07
1052.67
1006.36
1046.84
1081.6
1096.86
1103.55
1108.03
1108.57
1107.17
1103.76
1100.13
1097.51
1098.18
1106.45
1110.95
1119.58
1122.27
1124.01
1119.57
1108.06
1094.08
1084.61
1075.97
1074.29
1071.99
1065.98
1050.01
1028.35
1018.84
1039.88
1071.68
1091.3
1084.1
1078.16
1071.96
1068.04
1062.95
1058.27
1057.57
1054.38
1058.29
1060.42
1062.73
1063.69
1061.22
1057.49
1054.42
1060.46
1080.43
1104.45
1126.31
1138.24
1144.87
1150.96
1152
1152.13
1146.47
1133.04
1104.01
1041.79
1001.98
1093.45
1095.07
1092.41
1091.53
1091.36
1089.21
1087.94
1086.5
1084.13
1081.45
1078.9
1076.69
1074.51
1073.14
1072.61
1070.84
1069.46
1067.32
1067.18
1067.59
1077.27
1081.54
1095.28
1100.26
1101.29
1093.8
1087.59
1089.58
1084.5
1071.99
1093.46
1090.49
1083.82
1079.73
1079.9
1081.36
1082.35
1078.05
1078.66
1073.48
1073.99
1073.39
1073.04
1073.56
1074.23
1074.18
1074.17
1072.46
1071.53
1069.07
1067.73
1063.6
1059.86
1055.62
1050.95
1057.06
1071.64
1074.06
1061.93
1034.44
1026.87
1087.29
1130.83
1144.63
1139.08
1131.32
1125.34
1118.72
1113.68
1105.21
1098.8
1091.36
1091.45
1101.23
1112.53
1121.61
1128
1130.86
1131.14
1131.64
1128.9
1131.21
1130.24
1130.28
1130.45
1131.85
1134.95
1130.84
1106.87
1063.29
1078.33
1064.78
1072.98
1080.22
1056.08
1054.23
1094.4
1116.12
1138.47
1134.07
1133.14
1121.7
1107.02
1094.49
1083.6
1071.41
1063.36
1056.04
1053.07
1051.78
1053.99
1057.5
1065.2
1071.37
1076.25
1077.7
1068.61
1025.37
915.582
888.975
1004.03
1029.37
1030.28
1043.64
1099.09
1135.31
1139.09
1135.73
1122.54
1118.95
1119.36
1122.34
1123.28
1122.69
1121.37
1118.77
1116.29
1113.11
1109.47
1105.16
1098.73
1094.17
1088.95
1087.48
1084.22
1087.7
1093.61
1108.92
1139.89
1146.7
960.995
960.583
962.354
973.574
982.353
1033.85
1097.06
1119.36
1124.31
1123.97
1120.45
1115.11
1109.26
1109.79
1104.27
1111.45
1116.89
1121.12
1135.64
1141.94
1161.17
1162.33
1175.01
1174.06
1174.6
1168.09
1141.48
1094.23
995.019
1011.28
996.914
1014.11
1036.52
1031.11
999.05
974.385
966.307
984.143
1067.5
1120.07
1132.74
1131.53
1119.59
1120.98
1120.65
1120.84
1122.85
1124.57
1126.51
1127.9
1128.07
1126.65
1123.38
1118.9
1115.08
1112
1108.89
1108.85
1113.67
1118.62
968.648
990.906
1014.05
1010.63
1001.44
992.213
980.382
971.503
959.512
951.162
957.675
989.803
1043.17
1108.95
1131.81
1145.13
1142.74
1151.97
1161.9
1163.28
1165.12
1160.31
1150.34
1126.27
1091.13
1060.31
1039.09
1042.14
1079.82
1059.47
949.271
989.154
993.766
995.134
1040.23
1120.76
1155.49
1180.11
1196.56
1202.26
1205.68
1201.21
1200.05
1198.49
1199.95
1209.7
1215.89
1228.63
1237.87
1248.34
1253.94
1257.5
1235.25
1222.79
1182
1128.4
1034.87
978.185
945.556
960.324
959.685
982.301
990.48
984.711
982.933
981.991
981.514
989.743
1001.42
1019.58
1045.35
1079.09
1111.85
1140.05
1149.85
1165.67
1163.67
1167.21
1161.25
1153.45
1148.61
1145.77
1139.08
1125.34
1092.29
1012.89
998.183
968.242
972.71
979.744
1201.39
1179.56
1154.05
1134.03
1124.04
1121.64
1129.87
1174.88
1220.27
1233.61
1208.22
1137
1066.05
1044.04
1069.16
1085.01
1095.09
1093.65
1097.26
1093.82
1095.31
1090.1
1087.41
1079.36
1077.58
1075.45
1082.79
1092.11
1110.88
1123.83
1131.5
1135.89
1131.87
1117.71
1097.55
1082.65
1076.75
1078.55
1078.11
1064.74
1037.51
1018.92
1036.92
1072.06
1079.28
1078.94
1077.44
1073.42
1068.67
1064.36
1056.63
1052.96
1048.7
1045.3
1046.59
1050.5
1053.2
1053.91
1051.1
1047.69
1048.84
1057.5
1076.32
1099.15
1118.04
1134.2
1143.05
1153.15
1158.37
1157.29
1147.24
1120.9
1057.18
1005.46
1090.15
1085.21
1075.58
1071.32
1066.68
1066.6
1063.01
1060.61
1059.1
1056.89
1054.61
1052.86
1050.93
1049.36
1047.29
1046.63
1044.72
1042.39
1041.76
1042.86
1053.16
1061.84
1082.22
1093.81
1100.98
1102.25
1093.48
1092.9
1092.49
1084.44
1098.09
1080.75
1078.06
1089.33
1098.29
1099.89
1099.67
1093.58
1091.57
1088.2
1084.19
1080.05
1076.71
1073.67
1071.3
1070.54
1071.18
1070.95
1069.41
1066.89
1060.88
1055.32
1047.51
1041.63
1038.3
1042.81
1063.29
1079.4
1076.87
1045
1037.43
1105.98
1138.7
1142.43
1130.53
1127.55
1119.68
1112.46
1100.38
1085.16
1073.32
1077.67
1094.47
1115.73
1129.92
1135.72
1137.72
1136.45
1135.53
1132.62
1133.58
1132.11
1136.04
1137.42
1134.79
1132.63
1132.44
1135.08
1130.97
1104.71
1101.58
1081.6
1082.12
1077.85
1071.65
1099.63
1138.6
1154.68
1157.52
1151.28
1124.13
1103.38
1082.49
1060.44
1045.33
1017.71
1000.36
988.903
984.336
985.85
995.955
1012.84
1036.44
1062.41
1073.67
1080.07
1072.24
1040.54
925.233
885.727
1018.91
1043.28
1046.64
1085.06
1123.65
1146.02
1134.06
1128.49
1122.4
1126.28
1133.11
1136.54
1136.97
1133.83
1129.59
1124.66
1120.58
1116.92
1114.89
1111.72
1107.61
1105.14
1106.06
1111.36
1115.42
1118.55
1116.6
1122.11
1146.92
1145.79
960.238
963.502
967.939
976.101
997.982
1078.92
1109.99
1120.82
1118.69
1112.33
1103.87
1099.76
1091.49
1088.92
1088.26
1091.03
1096.86
1099.64
1117.52
1126.76
1154.17
1166.21
1184.34
1181.36
1193.65
1196.38
1190.16
1158.61
1094.83
990.009
998.147
1020.44
1030.77
1008.69
977.129
965.805
971.527
1007.39
1101.29
1127.56
1133.92
1134.45
1121.75
1127.88
1124.78
1128.97
1129.14
1129.15
1130.54
1131.3
1130.34
1127.03
1121.16
1114.62
1110.6
1110.71
1106.78
1101.94
1105.73
1112.35
965.347
993.046
1017.69
1020.86
1017.1
1010.19
992.407
969.667
956.608
943.674
943.815
986.582
1080.39
1140.61
1144.78
1153.79
1160.4
1160.98
1170
1170.51
1170.72
1163.27
1148.32
1113.19
1064.89
1041.6
1021.76
1011.37
1051.56
1045.8
957.45
993.404
996.501
1027.99
1119.28
1163.82
1190.49
1200.69
1197.85
1189.78
1175.52
1167.91
1158.77
1163.06
1161.24
1169.58
1177.27
1190.38
1205.44
1225.55
1244.62
1261.73
1274.36
1279.64
1268.77
1255.66
1203.31
1164.45
991.032
923.295
964.247
988.176
994.427
997.218
1009.85
1022.84
1047.63
1080.94
1123.29
1156.15
1175.12
1198.48
1213.79
1231.16
1236.23
1245.07
1242.7
1243.67
1243.6
1242.26
1241.09
1242.48
1238.72
1228.1
1214.31
1176.35
1152.06
1012.97
968.415
958.626
1200.57
1188.49
1173.32
1161.36
1147.46
1126.86
1114.98
1132.74
1185.66
1235.86
1242.73
1192.14
1109.49
1046.86
1090.09
1087.25
1085.36
1087.44
1087.66
1090.5
1089.53
1088.99
1087.17
1085.68
1082.41
1077.88
1076.2
1086.34
1102.73
1122.99
1139.47
1148.26
1148.25
1135.57
1108.42
1086.59
1080.78
1083.97
1087.33
1070.57
1031.49
1008.64
1032.24
1071.44
1084.43
1086.38
1085.32
1082.54
1076.08
1070.15
1063.28
1057.65
1049.4
1044.4
1041.14
1040.13
1042.58
1043.09
1041.65
1040.1
1040.66
1046.6
1062.13
1084.1
1107.05
1122.17
1135.55
1146.64
1157.51
1162.65
1153.8
1120.67
1049.82
1000.06
1077.22
1060.58
1050.16
1048.03
1048.77
1047.45
1048.35
1045.63
1043.7
1042.4
1041.2
1039.04
1038.16
1036.94
1037.45
1036.86
1036
1034.79
1034.26
1031.97
1038.96
1045.51
1066.22
1082.56
1099.8
1102.37
1100.31
1093.64
1094.49
1086.04
1088.31
1073.03
1098.68
1112.37
1110.66
1106.17
1099.06
1093.19
1093.46
1090.05
1089.2
1088.94
1085.36
1080.32
1074.39
1069.46
1066.98
1065.97
1063.32
1061.41
1052.88
1046.69
1037.25
1028.71
1024.45
1030.12
1051.34
1077.83
1079.65
1050.04
1049.57
1122.54
1142.08
1136.4
1131.29
1123.89
1117.2
1105.23
1087.97
1068.73
1066.28
1083.4
1111.09
1126.77
1134.53
1136.92
1135.28
1132.35
1127.78
1128.3
1125.79
1128.42
1131.25
1137.63
1139.88
1135.21
1133.22
1135.27
1134.23
1113.25
1115.48
1093.34
1084.43
1081.95
1096.93
1134.9
1166.24
1172.82
1162.66
1139.68
1115.83
1083.09
1058.49
1036.3
1001.67
980.641
967.082
962.415
961.355
970.399
982.92
1007.16
1033.53
1062.17
1076.54
1083.01
1076.91
1046
925.467
884.822
1029.2
1049.86
1065.83
1116.64
1136.45
1146.56
1131.27
1129.42
1129.85
1139.21
1144.71
1148.45
1146.09
1142.46
1135.02
1124.87
1116.34
1112.97
1112.02
1112.04
1110.68
1112.47
1118.46
1132.66
1147.03
1157.54
1151.61
1145.83
1158.71
1141.6
962.897
964.319
971.901
980.02
1022.52
1095.39
1114.8
1117.55
1108.44
1098.26
1092.03
1085.46
1076.04
1077
1074.75
1074.79
1079.42
1080.29
1094.8
1102.29
1129.02
1154.09
1185.28
1181.15
1192.65
1198.52
1208.38
1196.03
1148.71
1006.75
997.235
1018.2
1019.64
994.208
967.307
960.55
972.24
1017.92
1110.34
1129.51
1134.34
1137.45
1127.63
1130.62
1128.02
1126.17
1127.54
1128.46
1129.93
1130.93
1130.33
1127.27
1120.41
1111.08
1104
1103.12
1103.58
1099.21
1103.23
1102.14
964.876
997.019
1016.63
1030.66
1051.54
1054.5
1031.68
1001.34
974.705
957.177
951.388
990.172
1092.1
1149.96
1153.93
1161.99
1158.07
1163.69
1166.38
1171.12
1172.5
1168.13
1143.02
1090.2
1045.59
1041.61
1038.51
1005.78
1031.68
1030.91
964.979
997.314
1011.09
1077.56
1157.6
1190.41
1205.5
1196.24
1183.1
1166.04
1159.98
1153.67
1154.99
1153.73
1160.04
1157.9
1165.48
1171.12
1186.28
1203.84
1226.37
1245.63
1263.92
1277.78
1281.39
1282.23
1262.08
1235.27
1113.84
931.25
965.797
994.561
1008.7
1029.04
1066.81
1101.98
1147.33
1170.18
1193.89
1216.74
1237.49
1246.32
1254.3
1260.63
1265.88
1269.2
1270.69
1270.12
1269.14
1269.12
1271.8
1270.83
1268.26
1256.8
1244.92
1230.95
1206.78
1139.44
997.158
943.598
1216.78
1201.26
1187.64
1177.38
1162.93
1140.92
1119.27
1121.87
1160.65
1222.88
1256.23
1229.19
1153.18
1055.23
1075.79
1074.93
1079.14
1080.71
1085.94
1087.3
1092.78
1092.58
1096.09
1101.01
1106.04
1102.94
1100.76
1100.52
1114.89
1136.2
1151.8
1161.86
1158.94
1140.22
1109.2
1086.38
1085.58
1093.18
1091.69
1059.34
1006.95
986.332
1016.86
1064.81
1092.51
1094.77
1091.96
1086.28
1079.22
1074.9
1066.26
1061.95
1052.82
1046.55
1039.7
1035.67
1035.07
1035.07
1035.67
1035.7
1039.25
1048.71
1069.26
1098.08
1112.38
1124.24
1131.8
1140.24
1152
1158.33
1154.18
1130.72
1057.44
1003.31
1064.11
1049.13
1044.74
1044.32
1048.33
1051.34
1051.75
1052.12
1048.92
1045.54
1042.59
1039.91
1038.51
1037.2
1035.91
1036.03
1036.2
1036.12
1035.37
1033.28
1036.94
1038.68
1055.51
1073.23
1097.41
1102.7
1102.98
1096.59
1094.1
1089.48
1079.05
1090.14
1117.93
1113.68
1103.32
1094.51
1086.6
1087.52
1084.89
1085.77
1088.15
1088.86
1090.06
1086.42
1079.72
1072.35
1065.58
1062.78
1058.88
1056.3
1049.33
1041.89
1029.74
1018.58
1012.07
1019.31
1042.73
1074.7
1080.92
1052.9
1062.23
1126.7
1138.87
1136.04
1128.03
1124.43
1112.48
1098.73
1079.25
1062.06
1064.15
1085.32
1110.21
1124.78
1132.53
1135.32
1134.93
1133.05
1130.48
1128.64
1126.25
1124.5
1129.29
1135.64
1140.75
1137.95
1131.94
1131.47
1134.51
1115.39
1121.66
1097.06
1086.69
1090.95
1121.16
1160.42
1176.64
1175.11
1159.62
1132.57
1101.46
1079.1
1043.05
1007.89
978.875
964.404
958.848
956.587
959.097
968.553
987.817
1018.69
1052.24
1071.79
1081.3
1086.75
1076.53
1043.83
924.086
883.384
1038.73
1053.25
1075.65
1126.14
1143.61
1146.92
1132.12
1136.05
1140.46
1150.87
1156.89
1159.15
1160.88
1155.16
1148.49
1137.15
1120.81
1110.01
1108.78
1110.69
1112.5
1113.89
1122.57
1138.31
1158.48
1175.32
1177.71
1166.8
1166.81
1132.13
965.809
969.903
973.669
989.87
1053.81
1102.29
1116.31
1110.31
1098.58
1089.07
1082.15
1072.19
1070.91
1069.5
1066.91
1068.62
1075.52
1074.84
1083.38
1086.7
1105.81
1126.71
1168.88
1183.1
1177.61
1175.74
1196.84
1211.08
1174.41
1048.59
994.91
1012.31
1013.01
991.714
967.957
957.685
964.652
1010.36
1109.68
1128.34
1136.63
1139.55
1131.61
1133.2
1127.56
1128.82
1125.64
1123.94
1124.15
1126.81
1127.41
1125.21
1118.65
1109.81
1101.99
1097.43
1100.77
1105.76
1102.4
1099.71
955.847
984.502
1004.68
1043.54
1086.09
1113.65
1100.07
1060.88
1027.64
1001.81
986.429
1003.53
1084.27
1147.11
1160.13
1160.37
1156.63
1156.34
1162.07
1163.93
1161.16
1144.22
1117.22
1066.89
1028.89
1039.95
1038.35
984.108
1017.84
995.993
968.569
1003.17
1031.81
1129.98
1178.63
1203.6
1201.23
1186.7
1169.04
1161.33
1155.86
1162.43
1162.42
1161.1
1169.66
1165.27
1166.71
1167.49
1176.51
1194.89
1220.66
1242.42
1256.81
1264.77
1273.06
1280
1277.45
1264.96
1190.61
967.585
965.299
999.556
1031.86
1077.17
1142.21
1168.28
1194.12
1216.64
1235.44
1246.83
1252.42
1249.9
1250.2
1250.07
1258.44
1265.42
1273.64
1277.73
1276.42
1275.28
1276.63
1278.11
1276.63
1263.02
1238.06
1219.67
1215.18
1185.97
1073.52
946.671
1219.4
1194.83
1180.01
1165.32
1144.11
1122.01
1108.26
1115.33
1148.18
1210.36
1255.23
1247.72
1187.76
1068.54
1067.82
1071.42
1071.41
1073.37
1076.17
1085.62
1090.24
1095.73
1099.96
1112.1
1126.57
1136.51
1136.38
1139.66
1147.68
1158.04
1167.27
1166.45
1152.57
1125.87
1097.08
1088.82
1096.72
1100.59
1072.94
1011.91
962.128
957.031
1002.66
1056
1103.5
1103.84
1096.08
1087.78
1078.4
1076.68
1068.27
1064.14
1053.93
1047.23
1042.07
1037.13
1036.38
1036.49
1036.14
1039.41
1050.21
1082.01
1106.39
1122.02
1125.75
1124.21
1125.42
1132.05
1139.61
1149.28
1151.69
1126.66
1053.12
998.964
1065.46
1050.98
1049.2
1061.39
1072.97
1079.2
1080.05
1075.74
1068.53
1060.18
1053.2
1047.57
1046.02
1041.94
1040.51
1040.4
1040.65
1037.31
1041.01
1036.2
1040.26
1037.79
1053.83
1069.24
1097.24
1102.52
1103.97
1096.21
1091.94
1089.18
1079.62
1113.3
1118.44
1102.07
1088.95
1084.47
1087.32
1088.09
1087.22
1085.42
1085.66
1089.07
1091.51
1090.34
1083.43
1073.73
1065.7
1062.16
1059.77
1056.49
1045.54
1031
1015.65
1004.04
1001.84
1011.28
1038.82
1073.69
1077.24
1046.31
1078.97
1129.27
1139.53
1131.85
1130.46
1122.73
1110.97
1098.86
1079.08
1062.63
1061.96
1076.73
1102.26
1119.73
1129.81
1134.31
1135.77
1135.22
1135.76
1134.77
1132.95
1131.28
1134.6
1136.47
1139.9
1136.15
1133.6
1131.23
1132.75
1114
1123.29
1099.54
1088.43
1105.11
1143.45
1172.06
1178.81
1172.97
1155.15
1129.75
1098.07
1068.45
1036.16
994.617
966.525
956.047
950.604
952.664
952.253
963.728
976.785
1013.53
1053
1076.28
1083.01
1087.78
1073.27
1034.12
908.201
878.403
1048.01
1052.77
1073.79
1127.5
1146.79
1148.06
1137.01
1143.73
1149.23
1159.8
1160.73
1167.91
1167.31
1167.79
1161.89
1150.76
1131.2
1112.35
1103.36
1108.51
1114.02
1114.18
1117.9
1130.86
1147.78
1169.3
1179.42
1175.14
1163.83
1113.18
969.092
971.162
977.18
1002.14
1077.03
1105.87
1113.65
1104.91
1092.76
1083.91
1071.32
1068.78
1066.78
1062.87
1066.18
1068.72
1073.7
1080.6
1079.99
1090.3
1093.06
1103.63
1148.23
1175.75
1176.65
1149.24
1152.4
1196.36
1194.68
1109.25
992.167
1004.19
1009.35
998.484
975.897
961.745
955.691
985.357
1096.41
1123.48
1141.06
1139.84
1136.15
1136.25
1127.03
1127.42
1123.45
1122.94
1123.05
1123.81
1124.45
1124.43
1121.76
1114.87
1106.5
1098.7
1093.69
1092.99
1093.63
1086.14
953.417
968.286
996.533
1041.73
1107.79
1140.86
1142.07
1132.67
1105.05
1076.42
1046.67
1042.19
1081.43
1139.61
1156.94
1159.15
1153.33
1155.35
1153.69
1160.67
1157.75
1149.12
1120.76
1066.81
1014.6
1035.55
1053.63
1002.98
1011.66
1012.17
970.699
1011.57
1058.21
1151.39
1191
1207.07
1193.99
1174.32
1158.69
1153.39
1162.26
1163.76
1169.65
1166.09
1174.74
1174.56
1172.41
1169.6
1172.57
1189.7
1219.55
1244.56
1254.01
1249.37
1249.12
1254.61
1269.84
1269.72
1226.63
1021.04
964.281
1007.92
1062.06
1137.47
1178.38
1204.18
1228.51
1240.99
1247.67
1241.24
1232.27
1218.09
1217.16
1219.55
1229.37
1240.99
1257.42
1271.01
1277.23
1277.6
1277.72
1278.65
1280.33
1271.29
1236.63
1199.43
1194.08
1199.44
1130.53
967.027
1215.37
1178.26
1158.83
1134.64
1111.92
1102.31
1101
1108.46
1139.05
1196.49
1246.75
1254.37
1209.68
1088.97
1068.6
1067.98
1067.3
1062.18
1064.85
1073.67
1087.67
1093.02
1099.9
1111.09
1130.13
1145.65
1154.64
1160.18
1162.17
1164.28
1162.16
1147.03
1125.45
1103.64
1097.84
1102.25
1099.58
1068.82
1011.69
960.188
943.766
966.934
1019.62
1057.59
1114.19
1114.84
1104.12
1093.28
1082.39
1077.11
1068.49
1067.21
1061.12
1057.62
1052.31
1050.16
1044.22
1042.9
1046.3
1061.14
1102.04
1125.61
1121.67
1112.16
1106.32
1103.33
1104.1
1111.49
1122.45
1136.24
1140.08
1119.04
1044.6
1000.88
1068.53
1059.17
1069.95
1087.1
1094.65
1094.54
1092.41
1087.2
1080.08
1072.39
1065.18
1062.76
1059.65
1056.99
1052.44
1046.04
1045.56
1037.11
1045.49
1041.85
1040.44
1045.24
1054.04
1077.43
1098.63
1104.06
1101.86
1092.27
1090.13
1090.69
1088.81
1122.67
1106.33
1086.51
1080.81
1087.85
1095.16
1093.88
1090.45
1085.01
1087.23
1090.08
1094.41
1092.45
1085.13
1076.93
1069.14
1063.96
1054.9
1036.89
1018.37
1005.31
995.842
992.175
995.561
1011.25
1042.08
1075.04
1075.29
1042.24
1083.1
1129
1132.65
1133.3
1131.35
1127.79
1116.34
1102.79
1088.77
1070.95
1064.06
1071.03
1092.45
1111.11
1123.65
1130.27
1132.95
1133.91
1135.17
1135.6
1135.32
1135.14
1135.99
1134.34
1135.92
1132.61
1129.29
1128.95
1129.11
1108.3
1122.43
1097.61
1094.23
1120.69
1158.41
1174.61
1176.37
1170.72
1157.33
1133.59
1106.19
1075.76
1042.42
1005.7
982.019
974.141
973.066
971.863
974.14
970.621
972.973
991.248
1031.97
1064.4
1080.97
1081.97
1066.39
1016.13
900.611
883.645
1054.45
1046.95
1061.55
1119.48
1143.34
1152.01
1144.42
1147.02
1155.11
1163.13
1164.36
1168.36
1169.45
1168.09
1169.44
1159.71
1147.7
1117.5
1098.36
1104.15
1114.69
1112.69
1107.3
1111.92
1125.66
1143.75
1166.47
1169.55
1154.25
1079.86
971.795
974.46
981.058
1018.64
1085.51
1107.68
1112.51
1102.86
1089.85
1075.46
1070.12
1067.66
1061.4
1062.5
1063.16
1066.32
1074.8
1077.94
1085.67
1095.63
1090.32
1104.39
1125.62
1161.6
1185.27
1145.87
1113.64
1154.75
1193.19
1137.07
987.505
994.178
1004.86
1005.41
994.673
973.363
955.607
962.29
1046.54
1107.38
1141.12
1140.12
1142.98
1137.22
1133.56
1130.4
1122.61
1121.98
1120.06
1121.93
1122.08
1122.68
1123.55
1117.27
1112.74
1108.23
1096.86
1084.47
1077.76
1074.04
941.449
956.037
972.716
1013.28
1092.39
1140.42
1158.86
1156.4
1147.87
1133.13
1119.73
1095.64
1103
1131.86
1152.46
1156.36
1156.1
1150.41
1157.13
1157.14
1157.05
1139.52
1119.21
1065.57
1004.9
1015.64
1056.36
1027.01
1026.7
1023.46
971.144
1020.58
1085.48
1163.95
1197.83
1205.86
1185.09
1169.75
1152.7
1157.64
1157.94
1162.05
1164.49
1167.21
1171.68
1181.53
1176.39
1174.33
1172.96
1190.02
1222.09
1247.1
1244.39
1224.67
1207.15
1215.3
1239.01
1260.86
1243.84
1079.8
966.59
1021.96
1103.87
1172.56
1204.47
1230.9
1242.53
1248.51
1236.02
1221.58
1201.97
1192.05
1191.01
1194.66
1202.24
1213.56
1229.98
1251.81
1272.48
1279.11
1278.17
1279.23
1280.81
1279.83
1245.72
1187.29
1172.48
1185.82
1147.62
977.276
1205.95
1155.71
1131.98
1107.93
1102.6
1104.54
1106.83
1111.53
1131.79
1179.21
1229.52
1251.66
1218.72
1102.53
1067.29
1067.37
1066.32
1057.07
1053.31
1060.71
1075.25
1090.63
1097.63
1104.07
1113.18
1125.62
1137.42
1142.63
1145.2
1140.83
1129.8
1116.89
1106.24
1100.09
1095
1078.98
1044.21
1000.56
964.391
952.328
977.598
1035.66
1070.16
1075.65
1126.15
1127.91
1120.95
1112.22
1104.29
1099.91
1096.25
1094.75
1092.34
1082.28
1072.86
1060.87
1056.07
1058.6
1082.38
1120.5
1123.4
1113.3
1105.19
1103.61
1099.25
1102.52
1103.38
1104.92
1113.61
1127.05
1130.81
1102.02
1029.96
998.79
1069.6
1074.54
1090.48
1099.17
1102.53
1102.05
1096.99
1091.16
1084.6
1075.87
1071.81
1069.18
1066.95
1065.58
1063.24
1058.26
1049.05
1039.19
1045.9
1039.69
1044.88
1049.79
1065.88
1089.2
1101.3
1104.05
1094.8
1088.66
1092.61
1093.7
1101.63
1123.58
1093.55
1077.17
1079.64
1089.84
1097.28
1094.59
1090.75
1090.19
1091.39
1096.48
1096.92
1092.93
1083.9
1073.19
1060.82
1039.2
1018.28
1003.36
995.165
990.933
989.298
991.821
1000.25
1023.12
1058.87
1078.16
1063.23
1026.35
1095.99
1130.8
1133.53
1130.97
1138
1136.13
1128.09
1114.19
1101.5
1089.61
1080.58
1079.04
1088.53
1100.86
1113.26
1121.89
1127.32
1129.94
1132.59
1132.39
1131.49
1130.85
1129.6
1127.88
1128.76
1128.17
1128.25
1127.74
1121.26
1093.11
1119.54
1098.03
1102.96
1136.75
1164.59
1172.74
1172.78
1171.11
1161.78
1146.54
1122.59
1093.67
1062.84
1028.25
1000.8
991.677
993.268
997.438
996.576
1000.2
988.817
983.198
995.314
1029.58
1060.63
1069.48
1054.67
993.892
899.33
879.868
1052.65
1042.5
1042.39
1094.49
1136.12
1154.31
1145.1
1151.36
1155.13
1161.73
1165.03
1165.64
1166.09
1168.6
1168.37
1164.55
1159.37
1127.04
1096.17
1098.05
1113.58
1113.07
1099.59
1078.81
1078.56
1101.2
1137.51
1152.69
1140.28
1057.97
973.62
975.542
986.211
1030.65
1090.56
1103.97
1110.66
1103.36
1088.7
1076.97
1070.92
1063.87
1062.23
1062.8
1061.8
1068.08
1074.13
1076.11
1094.69
1093.8
1100.02
1114.29
1113.63
1149.01
1187.72
1159.7
1105.35
1122.91
1174.06
1150.18
982.224
983.466
992.702
1004.17
1013.55
1000.05
975.63
960.598
987.174
1054.25
1122.01
1137.68
1144.06
1141.65
1135.05
1135.73
1129.99
1124.37
1123.21
1121.17
1121.79
1122.35
1123.05
1121.33
1115.25
1114.37
1113.99
1098.39
1084.21
1059.5
932.213
948.131
955.453
978.948
1045.17
1131.91
1157.51
1173.24
1168.26
1159.52
1145.1
1136.64
1129.04
1136.77
1148.19
1157.73
1154.03
1159.46
1155.22
1166.14
1157.42
1152.77
1141.72
1104.25
1022.65
1019.24
1066.78
1064.24
1036.61
1033.53
969.705
1029.71
1116.18
1172.85
1203.93
1202.05
1186.62
1162.53
1152.88
1155.69
1159.78
1160.68
1164.47
1166.59
1172.9
1183.7
1180.28
1175.26
1177.31
1193.31
1229.62
1245.84
1222.04
1183.7
1161.33
1164.24
1199.21
1240.36
1245.87
1126.25
966.75
1035.07
1145.69
1195.19
1227.77
1241.68
1248.45
1242.12
1221.6
1202.63
1183.97
1175.24
1174.78
1179.91
1184.92
1192.06
1202.89
1227.36
1257.99
1274.65
1280.21
1279.05
1279.3
1282.8
1260.82
1191.56
1151.42
1163.45
1130.57
986.205
1195.79
1134.83
1110.15
1100.18
1105.17
1108.23
1110.09
1112.72
1127.07
1162.99
1212.22
1240.42
1225.38
1157.33
1122.92
1094.46
1070.03
1071.35
1070.56
1056.88
1047.89
1048.64
1060.3
1076.43
1088.68
1094.95
1099.81
1104.65
1107.11
1111.68
1112.89
1108.22
1102.67
1090.4
1077.92
1060.57
1038.94
1020.26
999.207
977.761
972.805
1010.62
1064.46
1089.24
1095.9
1099.07
1106.59
1117.51
1136.97
1141.01
1139.34
1137.39
1132.74
1131.17
1125.56
1119.37
1109.3
1098.64
1083.63
1076.17
1078.32
1101.63
1123.54
1124.16
1115.46
1109.75
1102.8
1096.05
1091.82
1094.63
1097.4
1099.08
1106.6
1116.08
1109.39
1064.8
1012.98
1006.57
1055.58
1069.39
1077.66
1090.52
1101.79
1108.49
1109.67
1106.57
1100.95
1093.51
1085.84
1079.73
1073.96
1074.17
1071.07
1070.05
1066.34
1066.15
1054.45
1049.1
1047.91
1044.7
1054.08
1063.89
1082.52
1097.69
1101.97
1095
1087.84
1095
1108.75
1120.19
1119.83
1110.29
1111.49
1099.73
1080.44
1067.86
1073.2
1083.51
1092.01
1095.08
1094.92
1095.84
1096.92
1096.28
1091.77
1080.83
1068.07
1044.83
1024.95
1012.78
1005.87
1002.35
998.821
998.444
1001.59
1009.99
1026.77
1051.53
1070.76
1066.71
1043.38
1024.39
1052.37
1087.23
1097.88
1125.34
1124.44
1136
1150.52
1154.62
1146.6
1135.58
1120.71
1105.94
1096.55
1090.92
1090.17
1095.09
1101.99
1109.23
1115.3
1120.61
1125.41
1128.44
1130.15
1128.06
1127.53
1126.98
1127.04
1127.7
1128.17
1125.66
1111.96
1067.25
1076.34
1106.95
1115.24
1098.12
1113.72
1146.47
1164.89
1166.71
1167.45
1166.17
1163.69
1157.75
1147.63
1125.4
1092.14
1062.26
1037.52
1025.22
1026.97
1033.45
1038.39
1037.37
1031.34
1016.8
995.092
992.743
1018.74
1030.69
1032.06
970.043
901.608
891.966
924.806
970.823
1028.58
1028.75
1026.96
1048.55
1116.16
1142.7
1151.4
1150.64
1150.3
1161.27
1159.07
1166.6
1164.17
1167.94
1166.47
1167.08
1164.15
1136.21
1096.1
1091.91
1115.78
1114.82
1092.07
1052.54
1036.39
1034.5
1074.13
1126.89
1121.6
1057.75
1036.14
1030.97
974.923
975.352
988.146
1042.74
1088.07
1104.36
1108.72
1103.07
1093.35
1081.5
1072.18
1066.27
1064.71
1064.09
1064.15
1070.58
1075.07
1082.4
1099.23
1093.76
1116.78
1112.13
1119.47
1141.07
1179.9
1177.54
1124.55
1112.92
1155.98
1151.29
1107.6
1003.71
974.648
978.961
978.79
988.831
1006.86
1019.94
1018.88
981.696
969.168
998.774
1058.07
1115.81
1128.56
1138.51
1134.88
1131.23
1131.38
1126.97
1120.08
1117.69
1116.91
1121.44
1121.65
1123.78
1115.93
1113.91
1118.68
1123.12
1102.13
1083.16
1012.32
915.28
927.913
924.925
940.077
949.045
986.339
1075.34
1144.67
1169.83
1182.61
1179.99
1172.44
1159.16
1150.41
1146.18
1152.58
1153.48
1162.06
1157.29
1169.05
1169.55
1169.53
1164.5
1145.71
1122.06
1042.39
1004.04
1030.25
1080.78
1063.41
1058.79
1080.45
998.317
966.805
1045.37
1136.83
1182.95
1203.6
1209.15
1181.78
1166.65
1153.24
1153.27
1158.91
1161.48
1163.12
1173.24
1177.15
1189.03
1181.07
1180.45
1181.72
1202.5
1238.05
1237.84
1183.1
1128.64
1077.96
1082.4
1156.75
1213.68
1240.07
1156.51
1081.88
969.333
978.585
1062.87
1168.87
1216.91
1243.11
1249.76
1246.36
1234.69
1211.89
1189.48
1172.54
1170.73
1173.14
1174.61
1178.76
1183.7
1191.29
1203.17
1233.71
1267.97
1278.13
1279.14
1277.97
1280.49
1277.13
1215.76
1148.35
1135.14
1114.75
1125.82
1270.88
1276.86
1186.62
1114.44
1096.17
1097.94
1106.33
1108.61
1115.5
1131.29
1147.7
1170.64
1198.35
1216.65
1205.77
1175.55
1123.18
1067.33
1062.91
1079.85
1080.25
1062.88
1047.06
1042.19
1044.55
1055.24
1069.28
1079.98
1086.6
1089.53
1091.53
1088.87
1080.18
1069.33
1053.29
1044.07
1036.85
1032.36
1027.5
1014.92
999.952
996.526
1020.73
1060.36
1084.4
1093.03
1099.6
1107.79
1120.91
1134.32
1141.86
1146.44
1147.75
1147.09
1141.73
1138.84
1131.29
1123.73
1114.7
1103.27
1098.83
1098.52
1114.67
1127.48
1126.42
1118.94
1116.4
1111.46
1101.1
1095.13
1084.17
1085.25
1087.26
1092.93
1095.56
1091.9
1066.18
1027.64
1004.46
1018.85
1062.84
1067.73
1090.16
1101.73
1110.57
1115.27
1116.29
1112.27
1105.27
1095.67
1088.44
1080.49
1076.61
1074.92
1075.46
1073.92
1073.59
1070.95
1068.56
1064.85
1060.74
1062.84
1074.67
1085.15
1094.63
1100.83
1098.61
1084.31
1080.83
1094.57
1112.99
1124.31
1124.49
1120.51
1116
1097.2
1075.1
1056.61
1058.16
1068.33
1078.37
1084.33
1086.36
1086.85
1083.88
1078.68
1067.32
1049.43
1035.62
1029.41
1027.49
1026.6
1026.44
1026.17
1027.67
1029.59
1034.15
1042.04
1051.58
1058.91
1058.12
1046.98
1032.63
1033.13
1082.3
1095.41
1111.26
1125.33
1128.39
1144.93
1163.41
1173.18
1171.86
1161.9
1147.4
1128.18
1110.46
1099.53
1094.84
1093.56
1096.56
1101.4
1105.83
1110.45
1115
1118.4
1121.1
1122.06
1122.08
1121.43
1121.4
1122.36
1120.04
1114.62
1102.38
1083.51
1105.68
1119.47
1114.23
1102
1123.54
1152.02
1159.47
1159.12
1157.62
1155.54
1154.68
1155.59
1156.95
1153.41
1132.35
1093.55
1063.51
1051.23
1050.8
1054
1056.42
1057.97
1053.52
1048.98
1029.9
1001.66
986.053
978.632
974.32
945.163
895.963
901.648
903.176
927.401
969.672
1006.06
1018.86
1023.37
1063.9
1122.51
1147.37
1148.02
1150.62
1151.53
1157.72
1159.84
1162.76
1164.45
1166.36
1169.01
1164.3
1139.59
1096.6
1086.93
1115.42
1117.67
1096.79
1038.61
1019.37
1006.37
1014.65
1063.98
1097.48
1063.97
1048.07
1028.75
979.364
975.848
992.543
1046.95
1088.2
1099.52
1105.14
1107.26
1097.6
1090.82
1079.23
1074.31
1070.86
1069.96
1071.61
1075.67
1081.84
1095.82
1095.91
1109.75
1118.48
1117.67
1128.63
1136.83
1171.26
1190.95
1140.08
1091
1137.85
1156.67
1141.79
1077.09
1009
1024.82
982.067
970.291
981.05
1008.82
1039.66
1031.72
1010.14
993.633
1005.86
1055.65
1094.61
1116.14
1119.22
1123.04
1116.5
1117.96
1117.27
1115.86
1115.83
1116.93
1122.51
1121.53
1118.9
1112.92
1117.81
1125.37
1132.46
1128.28
1039.81
937.455
915.324