/*--------------------------------*- C++ -*----------------------------------*\
| =========                 |                                                 |
| \\      /  F ield         | OpenFOAM: The Open Source CFD Toolbox           |
|  \\    /   O peration     | Version:  2.1.1                                 |
|   \\  /    A nd           | Web:      www.OpenFOAM.org                      |
|    \\/     M anipulation  |                                                 |
\*---------------------------------------------------------------------------*/
FoamFile
{
    version     2.0;
    format      ascii;
    class       volScalarField;
    location    "0.003900000";
    object      H2O2;
}
// * * * * * * * * * * * * * * * * * * * * * * * * * * * * * * * * * * * * * //

dimensions      [0 0 0 0 0 0 0];

internalField   nonuniform List<scalar> 
12384
(
1.90833e-06
1.36858e-06
1.05599e-06
1.00447e-06
1.02196e-06
1.08805e-06
1.25096e-06
1.58615e-06
2.3853e-06
2.72185e-06
2.16111e-06
1.28148e-06
9.55245e-07
8.34602e-07
4.29488e-07
6.30158e-07
1.03709e-06
1.21677e-06
1.55896e-06
1.68307e-06
1.80107e-06
1.78308e-06
1.72036e-06
1.54611e-06
1.53061e-06
1.29987e-06
1.32938e-06
1.15307e-06
1.19267e-06
1.11599e-06
1.11791e-06
1.15004e-06
1.12931e-06
1.07216e-06
1.17677e-06
1.28125e-06
1.3459e-06
1.40321e-06
1.26078e-06
1.00154e-06
7.82342e-07
8.40031e-07
1.21463e-06
1.15821e-06
1.38777e-06
1.32249e-06
1.21459e-06
1.1316e-06
1.04909e-06
9.09225e-07
9.53478e-07
8.31376e-07
8.81966e-07
8.43919e-07
8.25292e-07
8.08818e-07
7.67965e-07
7.44854e-07
7.1786e-07
7.26762e-07
8.45643e-07
9.84233e-07
8.46701e-07
6.61606e-07
5.3891e-07
5.08577e-07
4.46181e-07
4.38823e-07
4.25928e-07
4.41943e-07
4.37173e-07
5.48337e-07
6.62605e-07
5.24013e-07
2.91975e-07
2.19316e-07
1.76001e-07
1.57497e-07
1.4625e-07
1.49143e-07
1.54204e-07
1.52657e-07
1.61455e-07
1.65869e-07
1.70932e-07
1.76243e-07
1.80478e-07
1.85135e-07
1.92339e-07
2.01838e-07
2.03219e-07
2.08629e-07
2.08056e-07
2.09656e-07
2.09825e-07
2.22114e-07
2.07867e-07
2.28468e-07
4.85753e-07
5.11629e-07
6.19958e-07
7.21197e-07
7.3997e-07
7.63755e-07
6.00142e-07
4.15012e-07
3.41721e-07
2.94088e-07
2.66328e-07
2.17882e-07
1.98881e-07
1.64552e-07
1.4554e-07
1.1708e-07
1.29376e-07
1.23193e-07
1.37309e-07
1.55525e-07
1.79697e-07
2.09752e-07
2.26547e-07
2.64582e-07
2.90421e-07
3.18908e-07
4.32258e-07
5.27055e-07
6.55583e-07
8.20715e-07
9.46765e-07
8.20756e-07
6.37201e-07
8.61506e-07
9.51677e-07
9.57749e-07
9.85506e-07
9.4473e-07
3.39386e-07
5.00108e-08
1.98224e-08
1.86982e-08
2.22017e-08
2.60533e-08
3.14819e-08
4.23505e-08
6.94679e-08
9.75045e-08
1.36187e-07
2.33924e-07
2.54457e-07
2.50655e-07
1.59414e-07
1.40108e-07
1.30067e-07
1.03035e-07
9.7369e-08
7.58727e-08
7.15942e-08
6.15011e-08
5.0304e-08
3.65336e-08
3.76686e-08
1.42296e-07
8.22348e-07
7.51604e-07
4.72942e-07
5.96999e-07
2.87589e-07
8.09917e-08
4.91053e-07
6.602e-07
6.80527e-07
3.20319e-07
7.35049e-08
3.89997e-08
2.49194e-08
2.04467e-08
1.90698e-08
1.90588e-08
2.03896e-08
2.22006e-08
2.50678e-08
2.68378e-08
2.91081e-08
3.03739e-08
3.79616e-08
3.99648e-08
4.27794e-08
4.36821e-08
4.62752e-08
5.49375e-08
1.7573e-07
6.38535e-07
2.82302e-07
2.44897e-07
1.2423e-06
1.18757e-06
1.06365e-06
8.20436e-07
6.74408e-07
4.79706e-07
1.30424e-08
3.01913e-09
3.55363e-09
5.88805e-09
7.94503e-09
9.51539e-09
1.05667e-08
1.04976e-08
1.1303e-08
1.21947e-08
1.3144e-08
1.43604e-08
1.93286e-08
2.35557e-08
2.74137e-08
3.72669e-08
4.47123e-08
4.97949e-08
6.2111e-08
6.93411e-08
6.10747e-08
4.33189e-08
9.97615e-09
3.50711e-08
2.52714e-07
2.29147e-07
2.24175e-07
2.64468e-07
3.00119e-07
4.35591e-07
5.6225e-07
1.32764e-08
4.38149e-09
2.11133e-09
1.36464e-09
1.18928e-09
1.00702e-09
9.04262e-10
7.01821e-10
6.12876e-10
5.87436e-10
5.52527e-10
5.1382e-10
5.52682e-10
5.66399e-10
7.30385e-10
1.19664e-09
4.89831e-09
2.50799e-08
7.15134e-07
5.045e-07
4.06832e-07
4.62166e-07
6.84283e-07
7.27499e-07
7.45736e-07
9.07973e-07
9.49213e-07
7.64984e-07
4.85784e-07
3.18982e-07
4.00974e-07
7.1392e-07
4.21344e-07
3.84751e-08
3.31285e-08
2.29043e-08
2.48213e-08
2.45188e-08
2.54548e-08
2.52789e-08
2.41106e-08
2.54674e-08
3.11734e-08
3.69626e-08
4.20212e-08
4.66262e-08
4.56207e-08
4.37471e-08
4.22799e-08
4.42619e-08
4.70744e-08
4.62517e-08
8.32824e-08
6.70178e-07
7.96082e-07
8.79896e-07
7.55594e-07
7.78739e-07
6.12644e-07
6.06836e-07
5.44033e-07
5.79528e-07
5.12911e-07
5.44134e-07
4.94243e-07
5.82924e-07
8.32239e-07
7.13222e-07
3.90878e-07
4.12603e-07
2.05721e-07
4.31317e-07
4.62371e-07
5.05345e-07
6.31218e-07
7.28464e-07
8.96869e-07
1.03304e-06
1.04427e-06
9.44247e-07
9.50054e-07
1.15439e-06
1.24364e-06
2.92743e-07
4.30593e-07
5.58358e-07
5.42908e-07
5.82115e-07
8.76849e-07
8.67907e-07
2.02802e-07
4.79531e-08
2.67829e-08
2.0361e-08
2.26546e-08
1.60467e-08
1.34528e-08
1.15956e-08
1.80274e-08
1.80402e-08
2.89485e-08
4.09047e-08
7.73419e-08
2.77423e-07
1.2334e-06
1.14663e-06
7.81165e-07
6.70281e-07
5.63902e-07
5.26582e-07
5.39333e-07
5.92727e-07
7.93641e-07
3.2754e-07
4.29488e-07
5.78356e-07
5.81358e-07
5.00484e-07
4.633e-07
3.73653e-07
3.85389e-07
3.41808e-07
3.56248e-07
3.33124e-07
4.06196e-07
3.84398e-07
5.02926e-07
5.13878e-07
5.75658e-07
5.79305e-07
5.8944e-07
5.37605e-07
5.32403e-07
5.05918e-07
5.32514e-07
5.27866e-07
5.10225e-07
4.68977e-07
4.18627e-07
4.21972e-07
4.63109e-07
5.1673e-07
6.48619e-07
2.83661e-07
4.16291e-07
6.4906e-07
9.70523e-07
1.0829e-06
9.87281e-07
5.8174e-07
4.60773e-07
5.75521e-07
1.11212e-06
2.44248e-06
1.94715e-06
1.07285e-06
9.06029e-07
4.87978e-07
8.93633e-07
1.33316e-06
1.57286e-06
1.67511e-06
1.80961e-06
1.8321e-06
1.7972e-06
1.71874e-06
1.6005e-06
1.49008e-06
1.39908e-06
1.4219e-06
1.31418e-06
1.26831e-06
1.18573e-06
1.14492e-06
1.23232e-06
1.23821e-06
1.24947e-06
1.25154e-06
1.22104e-06
1.30307e-06
1.40844e-06
1.45547e-06
1.27716e-06
9.25937e-07
8.15114e-07
1.11985e-06
1.16559e-06
1.21298e-06
1.15122e-06
1.07885e-06
9.80071e-07
9.16485e-07
8.35422e-07
7.74678e-07
7.63748e-07
6.95945e-07
7.20581e-07
7.18374e-07
7.3129e-07
7.38557e-07
7.26985e-07
7.16873e-07
7.0503e-07
7.35588e-07
8.72552e-07
9.53732e-07
8.69177e-07
7.17336e-07
5.97579e-07
4.33571e-07
3.67121e-07
3.41281e-07
3.12954e-07
3.84543e-07
5.86237e-07
6.40138e-07
5.16427e-07
1.20571e-07
8.15811e-08
1.1895e-07
1.43462e-07
1.78377e-07
1.94936e-07
2.17375e-07
2.3834e-07
2.53163e-07
2.65269e-07
2.74297e-07
2.82238e-07
2.91679e-07
3.05583e-07
3.5805e-07
3.84095e-07
4.07755e-07
4.22661e-07
4.28719e-07
4.16758e-07
3.97498e-07
3.53225e-07
2.61691e-07
2.4053e-07
3.2237e-07
5.10788e-07
5.46232e-07
4.96963e-07
5.89951e-07
6.99964e-07
3.37963e-07
2.01034e-07
3.01536e-07
3.27101e-07
3.00982e-07
2.54466e-07
2.23075e-07
1.30015e-07
1.33473e-07
1.08866e-07
1.09014e-07
9.76632e-08
9.23934e-08
8.86871e-08
8.65611e-08
8.57688e-08
1.1699e-07
1.72086e-07
2.60715e-07
3.20653e-07
4.83556e-07
6.14355e-07
7.68012e-07
8.68698e-07
9.53474e-07
9.51135e-07
7.09559e-07
5.99836e-07
8.27961e-07
9.44492e-07
9.80887e-07
6.88173e-07
7.25556e-08
2.14759e-08
2.0011e-08
2.87626e-08
5.64636e-08
8.50028e-08
1.27486e-07
3.18397e-07
5.57926e-07
7.14438e-07
7.97731e-07
7.21706e-07
5.19393e-07
3.99924e-07
1.92217e-07
1.60713e-07
1.26741e-07
1.11062e-07
9.5936e-08
9.81284e-08
8.84194e-08
8.35159e-08
7.26334e-08
4.95058e-08
3.72365e-08
5.88981e-08
2.58462e-07
7.75017e-07
4.21795e-08
2.42651e-07
1.82558e-07
1.41743e-07
6.13879e-07
6.62037e-07
8.28995e-08
1.7119e-08
8.08204e-09
5.78494e-09
5.73072e-09
7.71305e-09
1.09989e-08
1.9151e-08
3.02459e-08
6.81241e-08
1.53669e-07
2.36068e-07
2.88255e-07
3.3259e-07
2.98985e-07
2.57347e-07
1.82747e-07
7.95732e-08
5.82264e-08
4.81191e-08
7.66524e-08
6.05223e-07
3.37125e-07
2.41138e-07
1.30184e-06
1.2944e-06
1.02947e-06
8.67098e-07
3.2334e-07
1.94696e-08
4.505e-09
3.80654e-09
4.6321e-09
6.03485e-09
6.5314e-09
6.93524e-09
7.2159e-09
7.27757e-09
7.51064e-09
7.69029e-09
8.1035e-09
9.92311e-09
1.2031e-08
1.69775e-08
2.65965e-08
5.00492e-08
9.17544e-08
1.38865e-07
2.54752e-07
2.66202e-07
1.50952e-07
7.19146e-08
1.30012e-08
3.04311e-08
2.4542e-07
2.25064e-07
2.37341e-07
2.81164e-07
3.51547e-07
6.30278e-07
5.8261e-08
4.31116e-09
1.36264e-09
8.56282e-10
6.40993e-10
5.77522e-10
5.25307e-10
4.73237e-10
4.03951e-10
3.18952e-10
2.84862e-10
2.39721e-10
1.9785e-10
1.33132e-10
1.17044e-10
9.93673e-11
1.09606e-10
1.1037e-10
2.42002e-10
6.36487e-10
9.67513e-09
6.54867e-07
4.73208e-07
5.34457e-07
7.2221e-07
8.19575e-07
9.34004e-07
8.51213e-07
5.54568e-07
3.79643e-07
3.76865e-07
5.65202e-07
8.62097e-07
1.45246e-07
2.89441e-08
2.87466e-08
2.05812e-08
1.98526e-08
1.88311e-08
1.78348e-08
1.73565e-08
1.65034e-08
1.66726e-08
1.86197e-08
2.37076e-08
3.1876e-08
4.05961e-08
4.74143e-08
5.76281e-08
5.03821e-08
4.75587e-08
5.37602e-08
5.18672e-08
7.0358e-08
7.12019e-07
8.39879e-07
9.53268e-07
8.12978e-07
7.0925e-07
6.19479e-07
5.14913e-07
4.49103e-07
3.65923e-07
3.01968e-07
3.40546e-07
5.31951e-07
8.04058e-07
8.77971e-07
1.08915e-07
9.26003e-08
5.28654e-08
6.18251e-08
9.06033e-08
1.04905e-07
1.7524e-07
2.49905e-07
3.95779e-07
8.68199e-07
1.08322e-06
8.38495e-07
6.6365e-07
7.02875e-07
9.65098e-07
1.14911e-06
3.25285e-07
5.01844e-07
5.79647e-07
5.94952e-07
8.79419e-07
7.61101e-07
4.85006e-08
1.59255e-08
9.59478e-09
7.13221e-09
6.67628e-09
5.97951e-09
6.49815e-09
7.34675e-09
6.24036e-09
8.16817e-09
6.52465e-09
6.46314e-09
4.61076e-09
4.0225e-09
3.05545e-09
3.1112e-09
5.09869e-09
1.39306e-08
6.52167e-08
1.32809e-06
9.9386e-07
5.54384e-07
3.32671e-07
4.06727e-07
3.41404e-07
4.96777e-07
6.09162e-07
5.75595e-07
5.53452e-07
5.47926e-07
5.07459e-07
5.66164e-07
6.31967e-07
7.69916e-07
9.48279e-07
1.20388e-06
1.181e-06
7.86681e-07
5.2255e-07
2.426e-07
2.23252e-07
1.92029e-07
2.32207e-07
4.82713e-07
6.57927e-07
8.37386e-07
1.04758e-06
1.21226e-06
1.37323e-06
7.37662e-07
6.44906e-07
4.13797e-07
4.46041e-07
4.72978e-07
4.34662e-07
9.11979e-07
1.50776e-06
1.8773e-06
1.99291e-06
2.01114e-06
1.99996e-06
1.13879e-06
4.30968e-07
4.05503e-07
8.78084e-07
2.25871e-06
1.4485e-06
9.10386e-07
1.16591e-06
1.39975e-06
1.58376e-06
1.55526e-06
1.65414e-06
1.5489e-06
1.59977e-06
1.50828e-06
1.44625e-06
1.27775e-06
1.23405e-06
1.19498e-06
1.2712e-06
1.29445e-06
1.38522e-06
1.3115e-06
1.16151e-06
1.17582e-06
1.21592e-06
1.33293e-06
1.32229e-06
1.24744e-06
1.26044e-06
1.43355e-06
1.56481e-06
1.47118e-06
1.08233e-06
8.27405e-07
1.05554e-06
1.12194e-06
1.16744e-06
1.12924e-06
1.06833e-06
9.84794e-07
9.24542e-07
8.71461e-07
7.5854e-07
7.4286e-07
6.99087e-07
6.43517e-07
6.38914e-07
6.5783e-07
6.6588e-07
6.81917e-07
6.82743e-07
6.76681e-07
6.84823e-07
7.13705e-07
8.12542e-07
9.25793e-07
9.19488e-07
8.42985e-07
6.52233e-07
4.37967e-07
3.28832e-07
2.8519e-07
2.90058e-07
4.49274e-07
6.82314e-07
5.26196e-07
8.31705e-08
2.65127e-07
4.58931e-07
5.68769e-07
5.9676e-07
6.12898e-07
6.22217e-07
6.28903e-07
6.32551e-07
6.29807e-07
6.24843e-07
6.19161e-07
6.17904e-07
6.20915e-07
6.27715e-07
6.36637e-07
6.37598e-07
6.35638e-07
6.35595e-07
6.31072e-07
6.44273e-07
5.88985e-07
4.66251e-07
2.98201e-07
2.71163e-07
3.9417e-07
5.51257e-07
5.54775e-07
5.20918e-07
7.02556e-07
1.5344e-07
3.41615e-07
4.41907e-07
3.7239e-07
1.95707e-07
1.56432e-07
1.52776e-07
1.39087e-07
1.40026e-07
1.42296e-07
1.34514e-07
1.2489e-07
1.17738e-07
1.08538e-07
9.93113e-08
9.50704e-08
9.62194e-08
1.46412e-07
2.39508e-07
3.44662e-07
5.37081e-07
7.26476e-07
8.40557e-07
9.1905e-07
9.55816e-07
9.67044e-07
8.81871e-07
5.07507e-07
5.90953e-07
9.11687e-07
9.25724e-07
3.14366e-07
2.99459e-08
2.18804e-08
2.89058e-08
5.11182e-08
7.74185e-08
1.16256e-07
3.20386e-07
6.45565e-07
8.30066e-07
8.51409e-07
7.67786e-07
4.15748e-07
1.63618e-07
8.56252e-08
7.07378e-08
6.16703e-08
5.6463e-08
4.51784e-08
4.3797e-08
4.17289e-08
4.70219e-08
5.25311e-08
5.21553e-08
5.5399e-08
3.98598e-08
4.29834e-08
6.78705e-08
3.55281e-07
1.24702e-08
7.83425e-08
8.48346e-08
2.05087e-07
4.27515e-07
7.72617e-08
1.32867e-08
6.48064e-09
4.46739e-09
4.86074e-09
6.4489e-09
1.28519e-08
3.13553e-08
1.27076e-07
3.84011e-07
6.2408e-07
6.30263e-07
6.02011e-07
5.71768e-07
5.6944e-07
6.02159e-07
6.31239e-07
5.77253e-07
2.6674e-07
7.36616e-08
4.00089e-08
5.50269e-08
4.61163e-07
3.85295e-07
2.36508e-07
1.39442e-06
1.32571e-06
1.06012e-06
8.03302e-07
4.13898e-08
6.17168e-09
3.41853e-09
4.84284e-09
5.32975e-09
5.82088e-09
6.15337e-09
6.61342e-09
7.2371e-09
8.62803e-09
9.70653e-09
1.03853e-08
1.02974e-08
9.9223e-09
1.05604e-08
1.25914e-08
2.3322e-08
4.61308e-08
7.30127e-08
8.3052e-08
6.88523e-08
6.18166e-08
6.09464e-08
4.26605e-08
9.09248e-09
2.96013e-08
2.38508e-07
2.39649e-07
2.59269e-07
3.11214e-07
4.4969e-07
3.92802e-07
9.42835e-09
1.42949e-09
7.33321e-10
6.77234e-10
6.95005e-10
7.3231e-10
8.8466e-10
8.72735e-10
7.06374e-10
6.62174e-10
6.05639e-10
5.18438e-10
3.30923e-10
2.36715e-10
1.31246e-10
8.80366e-11
6.78442e-11
9.59054e-11
9.80543e-11
9.37107e-11
2.52451e-10
2.87475e-09
6.76388e-07
4.40017e-07
7.20622e-07
8.43695e-07
8.86991e-07
6.32838e-07
3.88751e-07
3.61822e-07
4.39744e-07
7.38758e-07
4.55567e-07
1.04733e-07
2.52155e-08
3.00184e-08
2.08135e-08
2.4551e-08
2.09414e-08
2.6449e-08
2.65177e-08
2.50425e-08
2.12657e-08
1.81067e-08
1.71889e-08
1.7781e-08
2.53143e-08
3.42035e-08
5.30839e-08
4.73177e-08
5.03562e-08
6.38855e-08
5.83678e-08
6.02787e-08
6.55984e-07
8.24101e-07
9.48121e-07
9.15277e-07
8.2612e-07
7.63525e-07
6.00313e-07
4.26171e-07
3.52664e-07
2.64801e-07
2.66442e-07
5.02987e-07
1.01057e-06
3.546e-07
7.42585e-08
6.97122e-08
7.35558e-08
5.47168e-08
8.26937e-08
8.34619e-08
1.0296e-07
1.33991e-07
2.35403e-07
9.02597e-07
9.00447e-07
6.75763e-07
5.44693e-07
4.85845e-07
7.05341e-07
8.60991e-07
3.54434e-07
5.52472e-07
6.07464e-07
8.23506e-07
8.78707e-07
3.84276e-08
1.20651e-08
9.14417e-09
1.11354e-08
1.97851e-08
3.40741e-08
6.05359e-08
6.67414e-08
6.59105e-08
6.67546e-08
6.49221e-08
5.28957e-08
4.05585e-08
2.28688e-08
1.26741e-08
5.75788e-09
2.99585e-09
1.76055e-09
1.33522e-09
1.74398e-09
3.22405e-09
1.9999e-08
3.33969e-07
6.30098e-07
2.40204e-07
3.70118e-07
5.4476e-07
6.38828e-07
6.75549e-07
7.64117e-07
8.51836e-07
9.99761e-07
1.17566e-06
8.93166e-07
1.46068e-07
3.00119e-08
1.36602e-08
6.76918e-09
4.85513e-09
5.08652e-09
4.43571e-09
4.84664e-09
4.44276e-09
4.63388e-09
4.43766e-09
4.47947e-09
4.61999e-09
5.13583e-09
7.85709e-09
1.68759e-08
6.72666e-08
4.23026e-07
7.02542e-07
4.29493e-07
3.67634e-07
4.64874e-07
6.95554e-07
1.07815e-06
1.45405e-06
1.74336e-06
2.01447e-06
2.06138e-06
1.95871e-06
9.77121e-07
3.04477e-07
3.90751e-07
1.11726e-06
1.94477e-06
9.64007e-07
1.48367e-06
1.48667e-06
1.42499e-06
1.41277e-06
1.36002e-06
1.41335e-06
1.3603e-06
1.37019e-06
1.33275e-06
1.30099e-06
1.24844e-06
1.20301e-06
1.17e-06
1.28354e-06
1.39586e-06
1.35243e-06
1.2213e-06
1.09798e-06
1.0852e-06
1.25418e-06
1.3457e-06
1.24808e-06
1.26804e-06
1.39828e-06
1.62537e-06
1.55218e-06
1.00426e-06
6.92362e-07
1.01213e-06
1.13811e-06
1.18349e-06
1.0885e-06
1.00491e-06
9.65203e-07
8.92203e-07
8.49685e-07
7.9563e-07
7.62949e-07
6.86305e-07
6.50739e-07
6.23565e-07
6.11203e-07
6.19299e-07
6.2948e-07
6.46033e-07
6.58018e-07
6.43784e-07
6.46806e-07
7.28711e-07
8.44376e-07
9.51329e-07
8.92731e-07
7.79666e-07
5.87676e-07
3.39477e-07
2.45014e-07
2.61308e-07
4.13561e-07
6.38791e-07
5.16486e-07
4.25401e-07
6.43906e-07
6.60615e-07
6.61789e-07
6.61887e-07
6.57487e-07
6.60678e-07
6.51218e-07
6.4669e-07
6.42542e-07
6.39088e-07
6.33175e-07
6.31763e-07
6.28904e-07
6.32853e-07
6.3469e-07
6.35692e-07
6.34681e-07
6.36455e-07
6.2861e-07
6.52946e-07
6.52434e-07
6.49705e-07
4.79151e-07
2.94705e-07
3.34745e-07
5.33167e-07
5.7855e-07
5.97052e-07
7.00632e-07
1.73717e-07
5.03668e-07
3.20203e-07
1.47689e-07
1.18885e-07
1.20117e-07
1.3459e-07
1.34957e-07
1.5595e-07
1.48363e-07
1.49988e-07
1.54906e-07
1.45562e-07
1.33403e-07
1.19837e-07
1.12363e-07
1.12305e-07
1.80732e-07
2.71142e-07
4.07312e-07
6.16678e-07
7.99228e-07
8.95333e-07
9.17264e-07
9.12082e-07
9.31158e-07
9.30616e-07
6.10031e-07
4.55038e-07
8.55322e-07
8.46167e-07
8.42378e-08
2.44479e-08
2.1553e-08
4.11533e-08
5.13704e-08
8.57808e-08
2.00946e-07
5.177e-07
8.06702e-07
8.38606e-07
8.06053e-07
4.57642e-07
1.64286e-07
8.35623e-08
6.77699e-08
5.36042e-08
5.01632e-08
4.44399e-08
4.08149e-08
3.36017e-08
3.09159e-08
2.86168e-08
3.49239e-08
4.3985e-08
4.55998e-08
4.2349e-08
4.05814e-08
5.62934e-08
1.51622e-07
4.08513e-09
3.13906e-08
7.48088e-08
2.0488e-07
8.15898e-08
1.56231e-08
7.24944e-09
5.75344e-09
5.16458e-09
5.4171e-09
1.08305e-08
2.66642e-08
1.4772e-07
4.79735e-07
6.45687e-07
5.93468e-07
5.38117e-07
4.96084e-07
4.81999e-07
5.06347e-07
5.55304e-07
6.22783e-07
5.90192e-07
2.65202e-07
6.29215e-08
2.62419e-08
3.03996e-08
3.38533e-07
3.93377e-07
2.37636e-07
1.45613e-06
1.34764e-06
1.0662e-06
3.00362e-07
1.08118e-08
4.84145e-09
3.75086e-09
5.41105e-09
5.35271e-09
5.927e-09
5.77633e-09
6.16718e-09
5.07693e-09
6.35331e-09
7.50183e-09
9.74152e-09
1.44489e-08
1.41214e-08
1.22087e-08
1.32653e-08
2.4093e-08
5.55529e-08
6.17788e-08
3.82907e-08
1.47093e-08
9.31889e-09
1.07513e-08
1.11351e-08
4.79954e-09
3.72821e-08
2.38553e-07
2.43432e-07
2.7752e-07
3.39203e-07
5.81897e-07
5.66322e-08
3.0006e-09
9.91124e-10
7.04416e-10
8.69903e-10
1.06269e-09
1.21512e-09
1.28129e-09
1.3014e-09
1.26402e-09
1.26067e-09
1.16655e-09
1.02785e-09
7.26804e-10
5.65926e-10
2.88186e-10
1.28346e-10
6.9552e-11
1.19587e-10
2.31275e-10
1.42058e-10
1.41863e-10
3.31951e-10
9.70862e-09
5.25078e-07
7.08595e-07
8.23414e-07
7.77944e-07
5.27128e-07
3.57075e-07
3.19867e-07
4.50733e-07
8.13296e-07
3.49386e-07
9.91733e-08
2.07334e-08
3.42762e-08
2.8614e-08
3.9047e-08
5.02802e-08
5.87273e-08
6.28148e-08
5.77985e-08
4.15377e-08
2.80964e-08
1.59906e-08
1.25456e-08
1.28596e-08
2.24437e-08
4.02132e-08
5.60579e-08
5.45122e-08
6.70558e-08
5.69232e-08
6.96982e-08
6.11303e-07
8.32049e-07
8.90703e-07
1.01396e-06
1.1035e-06
1.15457e-06
8.92048e-07
6.22112e-07
4.32401e-07
3.33761e-07
2.96359e-07
5.01557e-07
9.98297e-07
2.18337e-07
8.08508e-08
9.14124e-08
7.16849e-08
9.15111e-08
8.49324e-08
7.54499e-08
6.84446e-08
8.18049e-08
2.70701e-07
9.60521e-07
6.96399e-07
6.17655e-07
5.86077e-07
4.51608e-07
6.05934e-07
6.78347e-07
3.91279e-07
5.91987e-07
7.11768e-07
1.13296e-06
6.60209e-08
1.14429e-08
8.63499e-09
1.227e-08
2.9417e-08
7.093e-08
1.39293e-07
1.33186e-07
1.24872e-07
1.16768e-07
1.36767e-07
1.21137e-07
1.22147e-07
9.38994e-08
5.92502e-08
2.84463e-08
1.36151e-08
5.91045e-09
2.57004e-09
1.45754e-09
1.09235e-09
1.00393e-09
1.66167e-09
6.54851e-09
1.35791e-06
2.71049e-07
3.75629e-07
5.99898e-07
7.54935e-07
9.37488e-07
1.23064e-06
1.30478e-06
4.48873e-07
5.85098e-08
1.1776e-08
3.28541e-09
1.90006e-09
1.29823e-09
1.55769e-09
1.7081e-09
1.86485e-09
1.93597e-09
2.00004e-09
1.8409e-09
1.76973e-09
1.68827e-09
1.63671e-09
1.61284e-09
1.83877e-09
3.00018e-09
5.41544e-09
7.45486e-09
1.97392e-08
6.23308e-07
6.03656e-07
2.99454e-07
3.10275e-07
5.6544e-07
7.66254e-07
1.03529e-06
1.3795e-06
1.80985e-06
2.01768e-06
2.04236e-06
1.53923e-06
3.76023e-07
2.3951e-07
5.13211e-07
1.73952e-06
1.03985e-06
1.36918e-06
1.22283e-06
1.18496e-06
1.13569e-06
1.2214e-06
1.23458e-06
1.35622e-06
1.31766e-06
1.37231e-06
1.37183e-06
1.39817e-06
1.38064e-06
1.40169e-06
1.37974e-06
1.42284e-06
1.3059e-06
1.08514e-06
1.02999e-06
1.03382e-06
1.21227e-06
1.3551e-06
1.23506e-06
1.31106e-06
1.52888e-06
1.68868e-06
1.38748e-06
7.33956e-07
5.22107e-07
8.75951e-07
1.08162e-06
1.13219e-06
1.0104e-06
9.54658e-07
9.11649e-07
8.45711e-07
8.41549e-07
7.71208e-07
7.61441e-07
6.97369e-07
6.61558e-07
6.24966e-07
6.06773e-07
5.99745e-07
6.09551e-07
6.41984e-07
6.3758e-07
6.31585e-07
6.48536e-07
7.47682e-07
8.6754e-07
8.14101e-07
7.57331e-07
6.47367e-07
5.44554e-07
3.61945e-07
2.55269e-07
2.30392e-07
3.51256e-07
6.5643e-07
5.23803e-07
6.26739e-07
6.63155e-07
6.52781e-07
6.4945e-07
6.56564e-07
6.62561e-07
6.53505e-07
6.53262e-07
6.45214e-07
6.39987e-07
6.36537e-07
6.2627e-07
6.21083e-07
6.18156e-07
6.13591e-07
6.13496e-07
6.14377e-07
6.1797e-07
6.1921e-07
6.18915e-07
6.34459e-07
6.43348e-07
6.78964e-07
6.03644e-07
3.26929e-07
3.23467e-07
4.34512e-07
6.12453e-07
6.47212e-07
7.66605e-07
3.71257e-07
4.16244e-07
1.09885e-07
8.68305e-08
1.31032e-07
1.8755e-07
2.30585e-07
2.77805e-07
2.61774e-07
2.50108e-07
2.41397e-07
2.17528e-07
2.07134e-07
1.92279e-07
1.77659e-07
1.78295e-07
2.10791e-07
2.64538e-07
3.49661e-07
5.18923e-07
6.79244e-07
8.77031e-07
9.20653e-07
8.96045e-07
8.34173e-07
8.71924e-07
9.06638e-07
6.42381e-07
4.49563e-07
8.09774e-07
6.93088e-07
5.14312e-08
1.93566e-08
2.57448e-08
4.27696e-08
6.32438e-08
8.94344e-08
2.52245e-07
6.35171e-07
8.1116e-07
8.49173e-07
7.9919e-07
4.23501e-07
1.55222e-07
8.08212e-08
6.45444e-08
5.62227e-08
5.56488e-08
5.46218e-08
4.7886e-08
3.36207e-08
2.6787e-08
2.40798e-08
2.47859e-08
3.45168e-08
4.35919e-08
4.06673e-08
3.86783e-08
4.74915e-08
1.47912e-07
3.03642e-09
2.49643e-08
7.22624e-08
7.99395e-08
2.46005e-08
8.8325e-09
6.34513e-09
5.89857e-09
5.79608e-09
6.00521e-09
1.3355e-08
5.60738e-08
3.81784e-07
6.57455e-07
6.04746e-07
5.33132e-07
4.98103e-07
4.74061e-07
4.77454e-07
5.06559e-07
5.78357e-07
6.32062e-07
4.05971e-07
8.26803e-08
2.93298e-08
1.89964e-08
2.56434e-08
2.99952e-07
3.92041e-07
2.37067e-07
1.49493e-06
1.37304e-06
1.03495e-06
9.52715e-08
7.11004e-09
5.35993e-09
4.01644e-09
5.34825e-09
4.58239e-09
5.073e-09
3.95752e-09
2.4646e-09
1.99537e-09
1.86969e-09
2.83829e-09
5.92033e-09
1.25772e-08
1.90251e-08
1.61314e-08
1.28411e-08
2.25396e-08
6.1681e-08
9.02508e-08
3.35455e-08
9.99555e-09
3.77532e-09
3.26714e-09
3.78774e-09
3.82682e-09
9.44928e-08
2.4335e-07
2.5636e-07
2.90615e-07
4.03668e-07
6.42005e-07
1.85393e-08
1.87924e-09
8.85245e-10
7.35717e-10
1.06918e-09
1.30424e-09
1.4561e-09
1.75805e-09
1.88513e-09
1.90647e-09
1.82322e-09
1.47403e-09
1.39132e-09
1.22873e-09
1.1268e-09
6.60574e-10
3.02775e-10
1.32438e-10
1.29311e-10
7.76297e-10
1.49958e-09
3.99997e-10
2.47645e-10
1.42868e-09
7.71956e-07
6.95388e-07
7.52777e-07
7.1335e-07
5.31394e-07
3.76497e-07
3.05701e-07
4.00804e-07
7.29682e-07
4.38666e-07
1.09546e-07
2.28022e-08
3.95104e-08
3.92345e-08
6.2652e-08
8.23839e-08
1.03395e-07
1.07644e-07
1.041e-07
8.3145e-08
4.25546e-08
1.98492e-08
1.0522e-08
1.05229e-08
1.34972e-08
2.62404e-08
5.769e-08
6.30807e-08
5.36788e-08
6.07974e-08
7.82405e-08
5.00369e-07
6.78715e-07
7.52531e-07
1.06743e-06
1.27948e-06
1.01187e-06
1.14846e-06
1.0079e-06
7.74972e-07
5.78664e-07
4.72968e-07
5.46892e-07
9.94892e-07
1.96212e-07
1.03799e-07
1.39941e-07
1.526e-07
1.59213e-07
1.24867e-07
6.18399e-08
3.38009e-08
3.51511e-08
1.90382e-07
7.18491e-07
6.08836e-07
6.1255e-07
5.84836e-07
3.69711e-07
5.48317e-07
4.48097e-07
4.07283e-07
6.45691e-07
8.75523e-07
6.46071e-07
1.95363e-08
7.70105e-09
9.25877e-09
2.41292e-08
6.87135e-08
1.52562e-07
1.40854e-07
1.33023e-07
8.45167e-08
7.19823e-08
9.3216e-08
7.97969e-08
9.72685e-08
1.02268e-07
8.23039e-08
3.60032e-08
1.47037e-08
6.96367e-09
3.48905e-09
2.16137e-09
1.36132e-09
9.78815e-10
8.86025e-10
1.41618e-09
4.793e-08
4.63961e-07
3.69681e-07
6.40197e-07
9.39189e-07
1.30648e-06
8.5247e-07
1.00063e-07
2.01368e-08
4.38665e-09
1.49505e-09
8.06729e-10
1.11852e-09
1.39732e-09
2.86622e-09
4.76671e-09
4.36536e-09
3.82298e-09
2.32325e-09
1.8354e-09
1.68713e-09
1.6034e-09
1.56996e-09
1.50219e-09
1.59954e-09
2.70774e-09
9.24397e-09
2.05786e-08
1.85402e-08
4.77205e-08
1.17035e-06
3.18132e-07
3.04454e-07
6.42722e-07
9.54352e-07
1.2276e-06
1.48865e-06
1.73347e-06
1.84135e-06
1.96707e-06
1.73906e-06
4.95215e-07
2.15549e-07
3.14267e-07
1.09968e-06
1.11731e-06
1.19784e-06
1.05978e-06
9.37484e-07
9.51642e-07
1.0087e-06
1.16565e-06
1.25609e-06
1.35009e-06
1.33325e-06
1.36927e-06
1.33391e-06
1.29497e-06
1.25415e-06
1.26822e-06
1.16244e-06
1.02106e-06
8.68934e-07
8.47062e-07
1.04471e-06
1.34479e-06
1.31154e-06
1.28094e-06
1.48054e-06
1.68771e-06
1.53183e-06
7.81278e-07
3.58087e-07
3.82112e-07
7.87188e-07
1.14978e-06
1.07846e-06
9.60535e-07
8.98864e-07
8.93668e-07
8.09818e-07
8.23611e-07
7.47459e-07
7.61222e-07
6.776e-07
6.56812e-07
6.32409e-07
6.1148e-07
6.16421e-07
6.44035e-07
6.41164e-07
6.45323e-07
6.68185e-07
8.14354e-07
7.56207e-07
3.90292e-07
2.33822e-07
1.41209e-07
1.49303e-07
2.06853e-07
2.50832e-07
2.4223e-07
2.38122e-07
3.50597e-07
6.32986e-07
5.21045e-07
6.25267e-07
6.58555e-07
6.60909e-07
6.50524e-07
5.74047e-07
4.72051e-07
4.11823e-07
4.51176e-07
5.07755e-07
5.60981e-07
5.8584e-07
5.96643e-07
6.08394e-07
6.04959e-07
6.13027e-07
6.21558e-07
6.17869e-07
6.08854e-07
6.22348e-07
6.14621e-07
6.34818e-07
6.33402e-07
6.87473e-07
6.35801e-07
4.11528e-07
3.39321e-07
4.48891e-07
6.14754e-07
7.46979e-07
7.88645e-07
4.23354e-07
1.59938e-07
7.82706e-08
1.40251e-07
2.89146e-07
3.63031e-07
3.53753e-07
3.37114e-07
3.4887e-07
3.34386e-07
3.04827e-07
2.69722e-07
2.31915e-07
2.02904e-07
1.98041e-07
2.24684e-07
2.67588e-07
3.25352e-07
4.07871e-07
5.80076e-07
7.90222e-07
9.21325e-07
8.62517e-07
7.71421e-07
7.45433e-07
7.67133e-07
8.60562e-07
6.32164e-07
4.04832e-07
7.47245e-07
5.41757e-07
2.88294e-08
1.87031e-08
2.59466e-08
4.65764e-08
5.91421e-08
7.93026e-08
2.39274e-07
6.02343e-07
8.02563e-07
8.57647e-07
8.33065e-07
4.79354e-07
1.77257e-07
1.0714e-07
7.24291e-08
6.3002e-08
6.27512e-08
6.2508e-08
5.15787e-08
3.95297e-08
2.66416e-08
2.56002e-08
2.24309e-08
3.2015e-08
3.85403e-08
4.48233e-08
4.35295e-08
5.45276e-08
1.40018e-07
2.3925e-09
2.08828e-08
6.54268e-08
3.80102e-08
1.22294e-08
7.43932e-09
6.55752e-09
5.54576e-09
4.94039e-09
6.50539e-09
1.75799e-08
8.0032e-08
5.50776e-07
6.67832e-07
5.80076e-07
5.21754e-07
4.83271e-07
4.73475e-07
4.66549e-07
4.96269e-07
5.54897e-07
6.38857e-07
3.0445e-07
5.7647e-08
2.26374e-08
1.62233e-08
2.61679e-08
4.43253e-07
3.43095e-07
2.34999e-07
1.52836e-06
1.3642e-06
1.01329e-06
1.08411e-07
6.94685e-09
4.95397e-09
4.08903e-09
4.82133e-09
3.60337e-09
3.55161e-09
1.87531e-09
1.22057e-09
7.42629e-10
7.21571e-10
1.06232e-09
2.26284e-09
6.36418e-09
2.17831e-08
2.12508e-08
1.32417e-08
1.80742e-08
6.30698e-08
1.65198e-07
1.08662e-07
2.66349e-08
5.93781e-09
3.22949e-09
3.02817e-09
4.91358e-09
5.20784e-07
2.65337e-07
2.6279e-07
3.17459e-07
4.77961e-07
4.19816e-07
1.01738e-08
1.43609e-09
8.92233e-10
9.42112e-10
1.20054e-09
1.43825e-09
1.84037e-09
2.05179e-09
2.19305e-09
2.15038e-09
2.04875e-09
1.88656e-09
1.4749e-09
1.34912e-09
1.21111e-09
1.10746e-09
6.66604e-10
2.77911e-10
1.32569e-10
9.73624e-10
1.02022e-08
1.10356e-08
8.0689e-10
6.3822e-10
5.82223e-07
6.78582e-07
7.0524e-07
6.99748e-07
5.78593e-07
4.20205e-07
3.32023e-07
3.48622e-07
5.63952e-07
7.71045e-07
1.6371e-07
2.81261e-08
3.92042e-08
3.98105e-08
5.87846e-08
7.73411e-08
8.96298e-08
8.78961e-08
9.67741e-08
9.7203e-08
6.1126e-08
2.51893e-08
1.01623e-08
8.90335e-09
1.0888e-08
1.40756e-08
3.08945e-08
8.34535e-08
1.27578e-07
1.42851e-07
2.19917e-07
4.66702e-07
5.1111e-07
6.5977e-07
1.05274e-06
9.79623e-07
2.26343e-07
1.32183e-07
3.46022e-07
8.1349e-07
9.32159e-07
7.96186e-07
7.69189e-07
9.05617e-07
3.67651e-07
1.38253e-07
1.65982e-07
1.65585e-07
1.84552e-07
1.36448e-07
5.2265e-08
2.43483e-08
2.61596e-08
7.42619e-08
7.01593e-07
5.73989e-07
6.00911e-07
6.31486e-07
4.60161e-07
5.29349e-07
5.07333e-07
4.2363e-07
7.02729e-07
1.06188e-06
1.1102e-07
1.07802e-08
6.88181e-09
1.19571e-08
4.20234e-08
1.26921e-07
1.61785e-07
1.83095e-07
1.57662e-07
1.62835e-07
8.3105e-08
9.442e-08
6.65634e-08
7.37458e-08
9.00004e-08
8.25516e-08
3.8555e-08
1.31557e-08
5.53024e-09
3.47948e-09
3.8276e-09
3.53895e-09
2.14828e-09
1.25059e-09
1.03291e-09
6.99529e-09
8.59808e-07
3.57147e-07
6.98688e-07
1.18103e-06
9.74544e-07
7.51593e-08
1.54626e-08
3.12183e-09
1.25941e-09
1.0666e-09
1.40057e-09
3.63136e-09
1.18406e-08
2.93123e-08
4.02729e-08
3.61738e-08
2.01419e-08
8.06978e-09
2.87636e-09
1.59842e-09
1.59609e-09
1.61819e-09
1.45625e-09
1.46431e-09
1.96155e-09
1.04851e-08
8.3489e-08
8.35743e-08
4.98485e-08
1.03436e-06
4.35216e-07
3.26605e-07
9.26341e-07
1.24818e-06
1.50267e-06
1.51952e-06
1.52571e-06
1.59451e-06
1.74196e-06
1.76937e-06
6.77974e-07
2.2126e-07
2.3616e-07
5.83789e-07
1.23585e-06
1.16932e-06
9.52914e-07
8.01653e-07
7.66009e-07
8.44998e-07
9.67063e-07
1.17798e-06
1.24634e-06
1.30881e-06
1.32444e-06
1.28188e-06
1.01844e-06
9.64679e-07
9.59948e-07
7.94189e-07
8.37792e-07
9.89768e-07
1.08011e-06
1.36139e-06
1.35263e-06
1.37909e-06
1.545e-06
1.63974e-06
1.44644e-06
7.68264e-07
3.50491e-07
2.94599e-07
4.50044e-07
9.13135e-07
1.13248e-06
1.06457e-06
9.83802e-07
9.18332e-07
8.89232e-07
8.30056e-07
8.12596e-07
7.34098e-07
7.51942e-07
7.09527e-07
7.08672e-07
6.8e-07
6.93788e-07
6.67794e-07
6.71527e-07
6.93001e-07
7.59148e-07
9.0072e-07
3.51533e-07
9.73244e-08
6.08397e-08
5.24466e-08
4.94921e-08
5.12207e-08
6.36611e-08
1.15857e-07
1.75396e-07
1.99504e-07
3.64379e-07
6.19458e-07
5.2788e-07
5.97249e-07
6.4912e-07
5.77441e-07
2.7431e-07
8.5263e-08
6.78116e-08
6.94666e-08
1.13957e-07
2.0457e-07
2.86432e-07
3.67003e-07
3.91854e-07
3.9952e-07
4.36286e-07
5.12792e-07
5.90329e-07
6.23321e-07
6.20332e-07
6.33132e-07
6.28172e-07
6.28405e-07
6.64903e-07
6.78575e-07
6.06784e-07
3.70639e-07
3.70548e-07
5.4378e-07
7.01515e-07
7.90337e-07
8.59064e-07
3.6751e-07
8.00739e-08
1.2165e-07
3.28774e-07
4.26423e-07
3.75637e-07
3.16975e-07
2.95666e-07
3.20807e-07
3.21774e-07
3.10103e-07
2.50329e-07
2.118e-07
2.00509e-07
2.22368e-07
2.6017e-07
3.37967e-07
4.15805e-07
6.50573e-07
8.70401e-07
8.22366e-07
7.29767e-07
6.51273e-07
6.29249e-07
6.34901e-07
7.23549e-07
8.12716e-07
5.23288e-07
4.83418e-07
7.46278e-07
3.09882e-07
2.39074e-08
1.87391e-08
3.01146e-08
4.12919e-08
4.7717e-08
6.44244e-08
1.02695e-07
3.50025e-07
7.12732e-07
8.19971e-07
8.26492e-07
6.06966e-07
3.12695e-07
1.37875e-07
8.18978e-08
7.32348e-08
6.86296e-08
6.857e-08
6.48727e-08
5.52398e-08
4.2137e-08
3.72412e-08
3.28794e-08
3.91772e-08
4.17547e-08
4.35621e-08
4.4614e-08
5.28626e-08
1.87203e-07
2.58927e-09
2.01844e-08
5.09777e-08
2.07591e-08
8.41067e-09
7.14874e-09
6.64495e-09
4.77214e-09
4.30928e-09
5.55933e-09
1.2742e-08
6.28238e-08
4.81425e-07
6.99142e-07
6.35457e-07
5.99299e-07
5.85476e-07
5.6825e-07
5.68465e-07
5.35135e-07
5.40763e-07
6.04627e-07
5.91257e-07
1.23793e-07
2.60894e-08
2.01085e-08
4.05002e-08
5.65552e-07
3.21317e-07
2.40382e-07
1.50606e-06
1.30402e-06
1.06053e-06
2.39002e-07
7.83504e-09
5.09695e-09
3.94906e-09
3.78491e-09
3.33619e-09
2.99798e-09
1.5793e-09
1.074e-09