/*--------------------------------*- C++ -*----------------------------------*\
| =========                 |                                                 |
| \\      /  F ield         | OpenFOAM: The Open Source CFD Toolbox           |
|  \\    /   O peration     | Version:  2.1.1                                 |
|   \\  /    A nd           | Web:      www.OpenFOAM.org                      |
|    \\/     M anipulation  |                                                 |
\*---------------------------------------------------------------------------*/
FoamFile
{
    version     2.0;
    format      ascii;
    class       volScalarField;
    location    "0.003900000";
    object      mut;
}
// * * * * * * * * * * * * * * * * * * * * * * * * * * * * * * * * * * * * * //

dimensions      [1 -1 -1 0 0 0 0];

internalField   nonuniform List<scalar> 
12384
(
4.88944e-05
0.000268261
0.000287404
0.000276484
0.000233193
0.000180683
0.000124002
0.000105459
0.000100003
9.57726e-05
9.09538e-05
7.41314e-05
6.19249e-05
6.34673e-05
0.00072826
0.00320227
0.0100153
0.0146318
0.0234117
0.0319325
0.0391009
0.0306328
0.0177534
0.00949321
0.00701253
0.00432984
0.00348098
0.00277424
0.00267767
0.0025929
0.00272014
0.00293118
0.00360739
0.00524087
0.0113775
0.0142072
0.0139164
0.0138917
0.0133405
0.00969809
0.00440191
0.00237389
0.00122192
0.00033179
0.00270805
0.00319895
0.00277179
0.00268033
0.0026593
0.00257849
0.00267237
0.00260156
0.00282929
0.00290975
0.00299303
0.00293427
0.00272569
0.00243904
0.00210137
0.00178827
0.00151037
0.0013133
0.00127783
0.00129048
0.00130297
0.00121818
0.00113099
0.000969118
0.000861149
0.000736733
0.000625313
0.000496854
0.000402304
0.000291673
0.00530893
0.00546965
0.00504093
0.00509051
0.0051598
0.00559824
0.00599763
0.00621222
0.00632529
0.00633465
0.00616119
0.00604145
0.0058389
0.00566749
0.0056678
0.00535379
0.00505866
0.00448642
0.00424804
0.00415809
0.0048421
0.00564886
0.00801151
0.0131687
0.00974202
0.00213044
0.000872187
0.000612226
0.000477607
0.000281396
0.00868
0.00614906
0.00473488
0.0040399
0.00370862
0.00343581
0.00333444
0.00311576
0.00287855
0.00265145
0.0027518
0.00292034
0.003219
0.00351522
0.00379131
0.00407151
0.00434167
0.00451527
0.00477144
0.00473362
0.00484849
0.00472809
0.00453873
0.00411311
0.00360982
0.00292773
0.00268292
0.00282008
0.00250166
0.00138743
0.00145028
0.00257817
0.00207127
0.00187445
0.00230775
0.00319167
0.00420762
0.00544141
0.00682921
0.00928525
0.0132832
0.0198702
0.0247141
0.0214341
0.0178264
0.0157268
0.014648
0.0137942
0.0133502
0.0119851
0.011567
0.0100658
0.0101204
0.0106107
0.0120856
0.0141291
0.0143586
0.00660744
0.00161416
0.00112275
0.0016502
0.0039181
0.00676331
0.0122046
0.0175423
0.0205854
0.0211664
0.0207161
0.0198629
0.0202216
0.0202798
0.0190538
0.0195518
0.0186641
0.0190809
0.0118869
0.00599618
0.00387071
0.0030457
0.00257839
0.00235367
0.00218942
0.00208781
0.00197806
0.00183421
0.00166389
0.00140274
0.00112431
0.000785094
0.000419413
0.00145347
0.00275355
0.00570192
0.00097748
0.000431438
0.000282679
0.000168084
0.000182039
0.000315486
0.000611021
0.00112283
0.00186496
0.0028457
0.00464831
0.00559534
0.00692691
0.00779442
0.00892338
0.0108971
0.0156012
0.0283498
0.0208709
0.00957757
0.00554075
0.00348413
0.00241306
0.00168742
0.00109206
0.000517086
0.000131699
6.84896e-06
9.53596e-06
1.32256e-05
3.00112e-05
4.88497e-05
0.000200918
0.000480907
0.000682289
0.00078704
0.000879634
0.00102538
0.0012816
0.00144057
0.00177278
0.00211231
0.00227826
0.0025253
0.002415
0.00259397
0.00243056
0.00257516
0.00224224
0.00220571
0.00199107
0.000758938
6.22949e-05
1.27957e-05
5.15117e-06
3.00538e-06
2.49348e-06
1.21827e-05
9.40591e-06
8.25441e-06
1.01313e-05
1.2515e-05
2.0461e-05
2.95364e-05
5.2987e-05
3.61115e-05
2.04196e-05
3.15742e-05
7.02625e-05
0.000130883
0.000305717
0.000705149
0.00161106
0.0031956
0.00559828
0.00813432
0.0118573
0.0185368
0.0348476
0.0469304
0.0205961
0.0107368
0.00664255
0.00462866
0.00361861
0.00260502
0.00124854
1.9722e-06
2.39137e-06
1.11134e-06
1.48955e-06
2.47708e-06
7.46208e-06
8.53494e-06
1.20539e-05
1.28216e-05
7.70455e-06
5.90112e-06
4.75272e-06
2.88083e-06
2.10804e-06
1.68979e-06
2.37807e-06
8.68061e-06
4.05213e-05
0.000130243
0.000439421
0.00114691
0.0030618
0.00924697
0.0268678
0.0163212
0.00906173
0.00329736
0.00136825
0.000508987
0.000109041
7.07999e-06
4.3711e-06
3.22703e-06
3.86894e-06
5.04965e-06
7.0486e-06
1.16734e-05
2.52486e-05
5.30366e-05
0.000103041
0.00017371
0.000284556
0.000523651
0.000964907
0.00143281
0.00191526
0.00215601
0.00227866
0.00214544
0.00188331
0.00141064
0.00149474
0.000225191
3.21595e-05
1.22486e-05
7.26185e-06
5.7082e-06
5.20958e-06
4.69157e-06
5.03106e-06
8.79818e-06
7.50948e-06
1.07003e-05
1.73027e-05
2.52267e-05
3.02977e-05
3.24528e-05
3.14463e-05
2.86356e-05
2.6273e-05
2.40202e-05
2.54798e-05
2.09163e-05
2.72837e-05
2.173e-05
2.21699e-05
1.55593e-05
1.1865e-05
9.14164e-06
6.33893e-06
4.70925e-06
3.94738e-06
3.37511e-06
3.5262e-06
4.57975e-06
5.24858e-06
1.05077e-05
1.33265e-05
9.43565e-06
6.14779e-06
0.000170081
0.00206212
0.00274074
0.003486
0.00420079
0.00473079
0.00494733
0.0048569
0.00453534
0.00392734
0.00323698
0.00228563
0.00119487
0.000350575
0.00235306
0.00586052
0.00876876
0.0112749
0.0135527
0.0162353
0.0183809
0.0200122
0.0209346
0.0210262
0.0207585
0.0198754
0.019512
0.0178885
0.0168529
0.0151507
0.013842
0.0127366
0.0115351
0.0108574
0.0104932
0.0096567
0.00907661
0.008382
0.00790012
0.00746332
0.00666772
0.00532465
0.00334235
0.000927478
0.00223058
0.011646
0.012837
0.0139155
0.0151957
0.0159853
0.0164829
0.0171263
0.0168548
0.0168226
0.0159925
0.0150225
0.014076
0.0131032
0.0122705
0.0114342
0.0103256
0.00892404
0.0073893
0.00629628
0.00554572
0.00505019
0.00476793
0.00448007
0.00437549
0.00411602
0.00381691
0.00342513
0.00286384
0.00137052
0.00303595
0.00759666
0.00943409
0.0117672
0.014362
0.0166811
0.0189851
0.0210008
0.0226058
0.0238542
0.0248797
0.0257214
0.0263859
0.0269435
0.0274932
0.0275439
0.0272331
0.0264262
0.0256822
0.0244817
0.0247127
0.0226841
0.0216405
0.0173912
0.0131834
0.00888428
0.0063473
0.00453109
0.00372331
0.00103622
0.0113234
0.00797787
0.00929439
0.0110875
0.0134275
0.016096
0.0192937
0.0214069
0.0248077
0.0258713
0.0276934
0.0283556
0.0282929
0.0278152
0.0270354
0.0261283
0.0252484
0.0245793
0.0244495
0.0236326
0.0236871
0.0231047
0.0226809
0.0213386
0.0190386
0.0150051
0.010035
0.00661764
0.00494662
0.00537546
0.0052813
0.00681976
0.00871619
0.0107981
0.0122104
0.0126852
0.012282
0.0114726
0.011073
0.0107711
0.0110332
0.0115224
0.0123009
0.0135153
0.0149171
0.0167848
0.0188017
0.0210283
0.022624
0.024273
0.0246539
0.0254427
0.0249251
0.0243086
0.0233673
0.021649
0.0184962
0.0139559
0.00903709
0.00740084
0.00263916
0.00563134
0.00674563
0.00829177
0.0101964
0.0112087
0.0104939
0.0100291
0.00964701
0.0087408
0.00818578
0.00761696
0.0069315
0.00660973
0.00641532
0.006334
0.00654332
0.00691037
0.00762313
0.00851799
0.00961269
0.0104241
0.0110772
0.0109542
0.0105147
0.00956961
0.008324
0.00680721
0.0054585
0.00116343
0.00556811
0.00681967
0.00864807
0.00939976
0.00799174
0.00970211
0.0123825
0.0187711
0.0241533
0.0282841
0.0305475
0.0322432
0.0326325
0.0320538
0.0300081
0.0273514
0.024256
0.0209194
0.0178212
0.0153003
0.0132714
0.0119477
0.010962
0.0106536
0.010717
0.0117425
0.01214
0.0115448
0.00792627
0.000876302
3.05736e-05
0.000100728
0.000317522
0.00124163
0.00344912
0.00653082
0.00946771
0.0128586
0.0157092
0.0181251
0.0198764
0.0207848
0.0201829
0.0202342
0.0178323
0.0167128
0.0146466
0.0122132
0.0107179
0.00837199
0.00714704
0.00491857
0.00362
0.00207505
0.000975443
0.000365956
0.00011263
3.26887e-05
1.61386e-05
3.64665e-06
4.91182e-05
2.69638e-05
5.91324e-05
0.000135805
0.000305482
0.000647133
0.00117212
0.00219101
0.00343936
0.00693636
0.011716
0.0188096
0.0214784
0.0256107
0.0273814
0.0283664
0.028983
0.028565
0.0276764
0.0264685
0.0252467
0.0241339
0.0230632
0.0212676
0.0185285
0.015876
0.0151786
0.0162287
0.0157699
0.00429514
8.53445e-06
3.96966e-05
0.000102206
0.000244443
0.000512325
0.000949008
0.00156056
0.00231251
0.0031469
0.00407141
0.00475008
0.00525198
0.00497794
0.00511589
0.00481007
0.00542069
0.00516765
0.00535658
0.00610035
0.00800913
0.0124821
0.0191346
0.0258905
0.0309824
0.0345284
0.0336529
0.0283395
0.0234486
0.0173127
0.00211445
2.33377e-05
0.00013035
0.000419439
0.00115413
0.00261038
0.00531369
0.00999885
0.0162069
0.0220634
0.026608
0.0299924
0.0306755
0.0305457
0.0288724
0.0257653
0.0237883
0.019657
0.0163885
0.0124441
0.00870172
0.00508181
0.00229119
0.000603682
0.000115863
3.14686e-05
1.69854e-05
1.1551e-05
8.99544e-06
7.18269e-06
5.57015e-06
3.54397e-05
9.90235e-05
0.000251919
0.000484899
0.00074685
0.00100293
0.00114509
0.00124246
0.00117325
0.00103056
0.000821517
0.000630611
0.000426121
0.000299517
0.00019343
0.000126232
8.0078e-05
5.28288e-05
3.69959e-05
2.79347e-05
2.18645e-05
1.7496e-05
1.45105e-05
1.2018e-05
1.03762e-05
9.42835e-06
8.26015e-06
7.08893e-06
5.96558e-06
4.27267e-06
0.000402257
0.00388027
0.0044029
0.00491162
0.00541256
0.0058886
0.00618869
0.00596406
0.00543811
0.00482959
0.00411454
0.0033228
0.00233066
0.000732661
0.00246073
0.00899491
0.011639
0.0133496
0.0153471
0.0164745
0.0179806
0.0188772
0.0191926
0.0191424
0.0190327
0.0184712
0.0182269
0.0169541
0.0160715
0.0147376
0.0132178
0.0123025
0.0112645
0.0105157
0.0100703
0.00964667
0.00903376
0.00850647
0.00794822
0.00744243
0.00684225
0.00567731
0.00387658
0.000831205
0.00206693
0.016866
0.0162973
0.0160109
0.0161566
0.016407
0.0160147
0.0164312
0.0163202
0.0160479
0.0157152
0.0152183
0.014334
0.013527
0.012661
0.0118199
0.0108825
0.0095429
0.00822926
0.00715908
0.00628713
0.00587512
0.00548622
0.00521789
0.00494314
0.00463079
0.00434194
0.00392657
0.0035714
0.00164957
0.0023541
0.0108381
0.0121011
0.0135589
0.014754
0.0163371
0.0176116
0.0190011
0.0203493
0.0214329
0.022373
0.0232589
0.0240627
0.0248275
0.0252653
0.0257503
0.0255941
0.0250949
0.024539
0.0235579
0.0237494
0.0223399
0.0219739
0.019231
0.0158987
0.0118491
0.00843785
0.00622549
0.00478596
0.00212795
0.0145709
0.00975404
0.0106637
0.0121249
0.0143198
0.0165743
0.0193748
0.0209946
0.0231071
0.0243061
0.0250642
0.0251717
0.0251756
0.024702
0.0240589
0.0233136
0.0227165
0.0221697
0.0219176
0.0216876
0.0214291
0.021532
0.0211842
0.0207626
0.0195648
0.0167011
0.0124417
0.00830373
0.00591526
0.00905511
0.0102988
0.00782436
0.00993212
0.0121312
0.0127495
0.0133068
0.0128176
0.0129199
0.0131233
0.0137358
0.014411
0.0146346
0.0145362
0.0144963
0.0150702
0.0158303
0.0167964
0.0176995
0.0186631
0.0192024
0.0200556
0.0203194
0.0207239
0.0208764
0.0207503
0.0205776
0.0190551
0.0158036
0.0112202
0.00747823
0.00428014
0.0066778
0.007806
0.00934667
0.0107587
0.0108575
0.0106449
0.0101002
0.00966916
0.00954144
0.00874113
0.00832158
0.00822763
0.00753843
0.00767459
0.00754926
0.00761196
0.00772496
0.00794508
0.00825108
0.00873638
0.00911032
0.00941873
0.00952852
0.00935078
0.00897009
0.00825254
0.00721299
0.00666258
0.00128165
0.00728721
0.00921352
0.0108769
0.011246
0.0102273
0.0131066
0.01632
0.0222849
0.0258628
0.0286183
0.030416
0.0310447
0.0315377
0.0305504
0.0294132
0.0270363
0.0246332
0.0221481
0.0200316
0.018167
0.0165304
0.0149955
0.0130904
0.0113007
0.00932068
0.0084904
0.00845893
0.00890203
0.00679423
0.00047386
5.33449e-05
0.000247279
0.000656581
0.00188821
0.00427403
0.00701762
0.0104346
0.0133949
0.0160466
0.0182637
0.0196058
0.0208683
0.0203447
0.020199
0.0191002
0.0184119
0.0173111
0.0152987
0.0147536
0.0122901
0.0113771
0.00845495
0.00681702
0.00453376
0.00286955
0.00124586
0.00041371
0.000107548
3.02626e-05
5.72644e-06
1.80532e-05
3.14076e-05
7.00121e-05
0.000169981
0.000388863
0.00081578
0.00144127
0.00254795
0.00380918
0.00736843
0.0110194
0.0166317
0.0182509
0.0227893
0.023461
0.0260297
0.02618
0.0265243
0.0268453
0.0272964
0.0279409
0.0285538
0.0285244
0.0268288
0.0224113
0.0159717
0.0113473
0.0112853
0.01384
0.00281268
8.43628e-06
4.40592e-05
0.000106757
0.000245481
0.000487299
0.000925489
0.0015962
0.00242587
0.00350441
0.00453467
0.00557514
0.00598467
0.0057667
0.00603311
0.00614855
0.0069642
0.00751421
0.00787957
0.0108026
0.0155597
0.024268
0.0345083
0.042615
0.0472531
0.0488022
0.0420432
0.0306207
0.0252597
0.0231577
0.00222413
2.16866e-05
0.000171057
0.000568677
0.00171716
0.00429256
0.00982097
0.0178631
0.0258639
0.032831
0.0388196
0.0417675
0.0443464
0.0432959
0.0420758
0.0376034
0.0351122
0.0313801
0.0279392
0.0237114
0.0189931
0.0136408
0.00812406
0.0030913
0.000659058
0.000119429
4.49147e-05
2.40571e-05
1.38748e-05
9.39148e-06
6.12874e-06
3.88793e-05
0.000168748
0.000389488
0.000735771
0.00115406
0.00164053
0.00198053
0.00218282
0.00203052
0.00182289
0.00143785
0.00110958
0.000743869
0.000517408
0.000314539
0.000195377
0.000112358
6.85068e-05
4.53634e-05
3.24859e-05
2.50531e-05
2.01611e-05
1.69661e-05
1.40272e-05
1.17802e-05
9.20181e-06
7.6326e-06
7.402e-06
6.97969e-06
3.72778e-06
0.000676431
0.00508621
0.0051598
0.00522806
0.00528458
0.00553157
0.00586725
0.00598744
0.00572256
0.00525581
0.00477212
0.00422639
0.00361773
0.00133143
0.00354136
0.0122971
0.013503
0.0147384
0.0150086
0.0156806
0.0155268
0.0158301
0.0154644
0.0153674
0.0148038
0.0148302
0.0145955
0.0146339
0.0139467
0.013087
0.0122192
0.0114197
0.0105828
0.00996741
0.00957678
0.00931241
0.00888821
0.008228
0.00769118
0.00728818
0.00682408
0.00590097
0.00458406
0.000865428
0.0024404
0.019717
0.0172448
0.015768
0.0146002
0.0141791
0.0138526
0.0140957
0.0139286
0.0143187
0.0143371
0.0140961
0.0137529
0.0131446
0.0124951
0.0117688
0.0108735
0.00982638
0.00881674
0.00781878
0.0072647
0.00684209
0.00667869
0.00635744
0.00596663
0.00569729
0.00527359
0.0049091
0.00483862
0.00161338
0.00262478
0.0139511
0.0142924
0.0143928
0.014535
0.0146831
0.0155013
0.0160923
0.0169378
0.0178604
0.0187852
0.0195128
0.0203428
0.0210336
0.021911
0.0223536
0.022402
0.0222693
0.0221892
0.0213868
0.0223243
0.0212416
0.0219386
0.0197394
0.0177464
0.0135103
0.0103606
0.00783114
0.00621241
0.00450286
0.0208
0.0104652
0.0112665
0.013947
0.0170878
0.0194444
0.0208937
0.0216926
0.0232224
0.0232207
0.0230436
0.0227968
0.0218575
0.0210984
0.0202959
0.0195946
0.019067
0.0187951
0.0185607
0.0188663
0.0186694
0.0191827
0.0193738
0.0196812
0.0194187
0.017682
0.0137983
0.00945067
0.00662117
0.00975019
0.0117293
0.00934813
0.0117551
0.0129055
0.0136936
0.0133971
0.0137266
0.0143017
0.0153855
0.0168509
0.0175028
0.0172858
0.0168918
0.0167499
0.0169425
0.0170896
0.0165917
0.0157249
0.0146129
0.0143349
0.0140481
0.0147144
0.0154143
0.016449
0.017852
0.0189889
0.0191718
0.016993
0.0126993
0.00593494
0.00730633
0.00777574
0.00916945
0.0108515
0.0114663
0.0112126
0.0107723
0.0106458
0.010347
0.010224
0.010284
0.00962465
0.00927241
0.00929586
0.00919244
0.00921919
0.00877651
0.00852848
0.00822494
0.00806533
0.00800678
0.00815551
0.0081786
0.00844158
0.0087284
0.00875008
0.00861443
0.00791969
0.00815924
0.00146915
0.00723011
0.0106788
0.0119677
0.012137
0.0124011
0.0163283
0.0192781
0.0242011
0.0264056
0.0283471
0.0287696
0.0294742
0.0286097
0.0283145
0.0266443
0.0252842
0.0239457
0.0228025
0.0214746
0.0202703
0.0189929
0.0174885
0.0150892
0.0123952
0.00958199
0.00748892
0.0069434
0.00799758
0.007245
0.000316208
0.000117869
0.000646494
0.00147436
0.0032138
0.00571165
0.00843141
0.0114875
0.0141096
0.0161203
0.0175048
0.0186581
0.0191526
0.0183817
0.0185708
0.0179256
0.017292
0.0168575
0.0160417
0.0163218
0.0149043
0.0142041
0.0116407
0.00967146
0.00678099
0.00520662
0.00270443
0.00101125
0.000294864
7.78111e-05
1.24592e-05
1.22489e-05
4.63742e-05
0.000104232
0.000266683
0.00061411
0.00127226
0.00216715
0.00354369
0.00478334
0.00828855
0.0107008
0.015002
0.015723
0.0185548
0.0191657
0.0197698
0.0209712
0.0218934
0.0231701
0.0248732
0.0270104
0.0290441
0.0301318
0.0294692
0.0256116
0.0193738
0.0125297
0.0101708
0.013781
0.00137486
9.94084e-06
6.80742e-05
0.000154166
0.000359229
0.000704342
0.00141671
0.0024955
0.00404372
0.00568363
0.0075959
0.00912704
0.0102581
0.00990877
0.0108941
0.0113472
0.0125406
0.0122346
0.0136745
0.0162436
0.0229145
0.0337396
0.0461777
0.0560548
0.0615818
0.0581161
0.0440542
0.026363
0.0231855
0.0306897
0.00165483
2.59916e-05
0.000283768
0.00106881
0.00348294
0.00898641
0.0174536
0.0268075
0.0330581
0.0390029
0.042125
0.0457313
0.04457
0.0439582
0.0411268
0.0399139
0.0363339
0.0355418
0.0329791
0.0306208
0.0265378
0.021657
0.0154963
0.00848096
0.00254077
0.000456859
0.000133168
6.85917e-05
3.9663e-05
1.70261e-05
7.03444e-06
5.69341e-05
0.00038002
0.000865283
0.00158798
0.00246497
0.00328061
0.00381039
0.00414673
0.00403786
0.00354547
0.00293361
0.00214587
0.00147529
0.00103825
0.000653574
0.000421501
0.000195483
9.6874e-05
6.04556e-05
4.31663e-05
3.36057e-05
2.75675e-05
2.34813e-05
1.97723e-05
1.66443e-05
1.27226e-05
9.94029e-06
7.91856e-06
8.72893e-06
3.89818e-06
0.000963437
0.00586151
0.00561428
0.00536409
0.00507212
0.00500296
0.0051839
0.00545739
0.00552165
0.00532713
0.00504652
0.00484245
0.00456159
0.00202062
0.00553084
0.0144618
0.0147951
0.0146773
0.0145271
0.0138267
0.0134963
0.0126529
0.0119069
0.0112009
0.0105897
0.0105443
0.0107778
0.0109932
0.0110713
0.0109655
0.0104515
0.0100433
0.00950108
0.00903587
0.0089704
0.00874787
0.00831947
0.00779494
0.00728785
0.00710058
0.00702947
0.00642608
0.00552823
0.00115779
0.00330057
0.0205602
0.0169065
0.0140358
0.0118386
0.011035
0.0103764
0.010764
0.0110225
0.0116069
0.0120072
0.0122943
0.0124155
0.0121062
0.0118146
0.0111185
0.0103789
0.00944477
0.00852953
0.00807143
0.00766097
0.00784308
0.00774963
0.00761197
0.00739099
0.00697651
0.00652357
0.00625251
0.0063548
0.00226131
0.00386256
0.0159008
0.0151564
0.0141978
0.0134744
0.0131125
0.0129148
0.0132574
0.0135471
0.0140106
0.0145498
0.0151242
0.0157962
0.0165558
0.0170991
0.0176922
0.0180632
0.0183399
0.0185575
0.0186418
0.0195091
0.0195875
0.0206019
0.0194625
0.0178746
0.0143318
0.0112074
0.00901218
0.00743821
0.0132581
0.0254318
0.01035
0.0125517
0.0169344
0.0202437
0.0215524
0.0206045
0.0206635
0.0202757
0.0201821
0.0202965
0.0193416
0.0184809
0.0173508
0.0164528
0.0159208
0.0155432
0.0153339
0.0151295
0.0153732
0.015424
0.0162121
0.0168335
0.0180621
0.0185921
0.017685
0.014255
0.00991241
0.00727802
0.0101052
0.00974266
0.0112068
0.0128177
0.0140179
0.0137077
0.0138608
0.0144264
0.0158136
0.0178238
0.019577
0.0203519
0.0202051
0.0198322
0.0198808
0.0200419
0.019727
0.018546
0.0163416
0.0134858
0.0108164
0.00918028
0.00930413
0.0108233
0.0128857
0.0150345
0.0174238
0.0181943
0.0170297
0.013491
0.0048706
0.0193783
0.00900615
0.0107348
0.0118595
0.0118254
0.0113712
0.0110512
0.0109937
0.0111356
0.0112524
0.0111718
0.0116075
0.0108079
0.0111878
0.011187
0.0110608
0.0107766
0.0101517
0.00964932
0.00894314
0.0085881
0.00799646
0.00778487
0.00794375
0.00839957
0.00890741
0.00895439
0.00867439
0.0098424
0.00158078
0.00708961
0.011562
0.0122742
0.0129762
0.0140399
0.0182389
0.020551
0.0245931
0.0253787
0.0266401
0.0263764
0.0256323
0.025331
0.0237984
0.0237852
0.023526
0.0230018
0.0229441
0.0223374
0.0214287
0.0204564
0.0189208
0.0167245
0.0138647
0.0107937
0.00820589
0.00728903
0.00852658
0.00890204
0.000290499
0.000226585
0.00150551
0.00279164
0.00477497
0.0069911
0.00967086
0.0124335
0.0143444
0.0156022
0.0162186
0.0163786
0.0155015
0.0152653
0.0148995
0.0142746
0.0142803
0.0149052
0.0148842
0.0157975
0.0157886
0.0161499
0.0139244
0.0123279
0.00899915
0.00731665
0.00474743
0.00203258
0.00067307
0.000195518
4.05485e-05
1.17048e-05
7.81073e-05
0.000169993
0.000444575
0.0010679
0.00214186
0.00362596
0.00521047
0.0062904
0.00944002
0.0110768
0.014235
0.0136991
0.0149745
0.0140051
0.0146274
0.0147236
0.0160011
0.0181322
0.0211562
0.0242375
0.026788
0.0283866
0.0287512
0.0266118
0.0218816
0.0160531
0.0126467
0.0139885
0.00120874
1.17661e-05
0.000102327
0.000225389
0.000549856
0.00116248
0.00216595
0.00392988
0.00603074
0.00849627
0.0107043
0.0133603
0.0149819
0.0159621
0.0162651
0.0172595
0.0177114
0.0170394
0.0166513
0.0193032
0.0259975
0.0370803
0.046662
0.0541319
0.0592482
0.0600197
0.0457203
0.0249268
0.0221838
0.039202
0.000968923
3.89218e-05
0.000530816
0.00197503
0.00606159
0.0143124
0.0237477
0.0314573
0.0370291
0.0398266
0.0417885
0.0397527
0.0399099
0.0370306
0.0348266
0.0357347
0.0339758
0.0348121
0.0347389
0.0338093
0.0310917
0.0265745
0.0210572
0.0146226
0.00653903
0.00160394
0.000415827
0.000178827
0.000107057
4.68651e-05
1.23646e-05
0.000101695
0.000902688
0.00187372
0.00309883
0.00425428
0.00538652
0.00622194
0.00647477
0.00612731
0.00531886
0.0045306
0.00340569
0.00270512
0.00247594
0.00217918
0.00174173
0.00070404
0.00016535
6.93057e-05
4.80498e-05
3.81664e-05
3.28283e-05
2.91889e-05
2.64506e-05
2.40366e-05
1.94214e-05
1.37568e-05
1.04841e-05
1.08348e-05
4.6525e-06
0.00127933
0.00645608
0.0059704
0.0054912
0.00503265
0.00470612
0.00463697
0.00482356
0.00507748
0.00520335
0.0052056
0.00527262
0.00531627
0.00251458
0.00753411
0.0158479
0.0151994
0.0147983
0.0137885
0.0130919
0.0118584
0.0111435
0.00983067
0.00887642
0.00810868
0.0079549
0.00790821
0.00835988
0.00882209
0.00882432
0.00894823
0.00864338
0.00836676
0.00838876
0.00842226
0.00812557
0.00756453
0.00709821
0.00689718
0.00704801
0.00718107
0.00693628
0.00658969
0.0018749
0.0049478
0.020516
0.0161634
0.0126644
0.00956645
0.00836233
0.00782191
0.00835112
0.00880942
0.00960335
0.0104029
0.0109279
0.011383
0.0116381
0.011328
0.0108146
0.00971525
0.00869657
0.00784612
0.00787572
0.00806921
0.00829909
0.00833005
0.00852195
0.0084296
0.00825087
0.00796798
0.00757044
0.00782235
0.0024336
0.00619071
0.0165473
0.0150863
0.0136651
0.0125959
0.0120046
0.0116861
0.0115323
0.0114093
0.0112891
0.0111356
0.0108911
0.0109796
0.0108768
0.0112259
0.0119243
0.0127959
0.013329
0.0145739
0.0149833
0.016766
0.0173098
0.0191916
0.0184878
0.0174246
0.0140311
0.0114092
0.0095438
0.0087667
0.00840552
0.030268
0.0103781
0.0146786
0.0198715
0.0220157
0.0209667
0.0187252
0.0162574
0.0149011
0.0147093
0.0149378
0.0149713
0.0143061
0.0134713
0.0126294
0.012076
0.0117369
0.0115382
0.0115212
0.0116924
0.0120393
0.0132249
0.0147396
0.0163856
0.0175454
0.0167743
0.013699
0.00971383
0.00739825
0.00926363
0.00858134
0.0128869
0.0144652
0.0142124
0.0139757
0.0138419
0.0151142
0.0173224
0.0196902
0.0218227
0.0230813
0.0233282
0.0230609
0.023251
0.0235141
0.0232985
0.0221478
0.019904
0.0169547
0.0131923
0.00980478
0.00827453
0.0095508
0.0113548
0.0139113
0.016314
0.0181
0.0173839
0.014143
0.00338802
0.0262559
0.0105741
0.0121204
0.0126675
0.0120312
0.0115359
0.0113441
0.0113855
0.0116812
0.0122999
0.0125107
0.0127637
0.0129646
0.0131258
0.0126984
0.0124078
0.0119358
0.01156
0.0107757
0.010268
0.00947324
0.00882561
0.00806902
0.00817952
0.00837599
0.00916307
0.00933843
0.00990286
0.0113751
0.00171715
0.00746744
0.0121538
0.0124726
0.0134526
0.0145895
0.018387
0.0206196
0.0235969
0.0233553
0.0238433
0.0218905
0.0208442
0.0191527
0.0191296
0.0190637
0.0201503
0.0213847
0.0224439
0.0223578
0.0219039
0.0211663
0.0200946
0.0182028
0.0155655
0.0125793
0.00955413
0.00821002
0.0093176
0.0106203
0.00037894
0.000483794
0.00316963
0.00484792
0.00664347
0.00833666
0.0107529
0.0128506
0.0142366
0.0148758
0.0147458
0.0133613
0.0124369
0.0115069
0.010519
0.0105797
0.0111041
0.0121158
0.0135083
0.0140315
0.0158971
0.0161152
0.0154217
0.0147403
0.0109694
0.00912307
0.00679518
0.00345985
0.00122369
0.000411445
0.000114059
1.8259e-05
0.00014003
0.000269123
0.000658785
0.00152839
0.0029929
0.00493597
0.00689048
0.00749022
0.0103254
0.0116284
0.0142742
0.0129947
0.01332
0.0110385
0.0106112
0.0102201
0.0114064
0.0137404
0.0169205
0.020478
0.0236257
0.0258905
0.026729
0.0254813
0.0224612
0.018326
0.0144219
0.013916
0.00226246
2.16617e-05
0.000176418
0.000350738
0.000798015
0.00149789
0.00290569
0.00474941
0.00718208
0.00934681
0.011998
0.0145589
0.0177325
0.0190479
0.020106
0.0202096
0.019895
0.0178456
0.0172502
0.0188162
0.0278987
0.0396233
0.0509912
0.0571776
0.0582817
0.0555451
0.048039
0.0290294
0.0289398
0.0451599
0.000600242
7.09196e-05
0.00100234
0.00310904
0.00866764
0.0181112
0.027358
0.0333606
0.0367553
0.0367265
0.0345755
0.0334793
0.0297139
0.0287396
0.0262444
0.0290538
0.0301957
0.0332931
0.0351091
0.0355301
0.0337426
0.0295376
0.0243269
0.019434
0.0121814
0.00468595
0.00135247
0.000493641
0.000268305
0.000135095
2.32159e-05
0.000169443
0.0018738
0.00341654
0.00482103
0.00622142
0.00752205
0.00823916
0.00851063
0.00851054
0.00791787
0.00720208
0.00636427
0.00633176
0.00735642
0.0082088
0.00733932
0.00381708
0.00072374
9.32171e-05
4.67784e-05
3.65648e-05
3.25502e-05
3.06901e-05
3.04362e-05
3.06556e-05
2.73854e-05
1.87997e-05
1.40413e-05
1.49777e-05
5.8717e-06
0.00164499
0.00686349
0.00619399
0.00562762
0.00505874
0.00454897
0.00416616
0.00418032
0.00454738
0.00494841
0.00525269
0.00554521
0.00587395
0.00267589
0.00927312
0.0165375
0.0154844
0.0145178
0.0138035
0.0126787
0.011808
0.0107199
0.00987298
0.0089539
0.00815827
0.00753977
0.00739543
0.00761853
0.00773058
0.0080287
0.00805045
0.00797436
0.00802051
0.00798388
0.00760647
0.00725907
0.00678576
0.00664373
0.00697609
0.00729975
0.00749363
0.00753765
0.00776979
0.00341063
0.00816489
0.019976
0.0161919
0.0131092
0.0103137
0.00900137
0.00814658
0.00846065
0.00890778
0.00979274
0.0106281
0.01174
0.0122958
0.0126547
0.0122623
0.010978
0.00932577
0.00852221
0.0085125
0.00910637
0.0088275
0.00836809
0.0080541
0.00841567
0.0088351
0.0090613
0.0087778
0.00858455
0.00928632
0.00301465
0.00966327
0.0164212
0.0142618
0.012881
0.0124696
0.0122166
0.0121693
0.011824
0.0114104
0.0106744
0.00978963
0.00903098
0.00813348
0.00737293
0.00683482
0.00680156
0.00756222
0.00869056
0.0104487
0.0120403
0.0136988
0.0160808
0.0175525
0.0177369
0.0164333
0.0135648
0.0110895
0.0100329
0.0100181
0.0062079
0.0264886
0.0109479
0.0172955
0.0220609
0.0224883
0.019814
0.0163409
0.0124452
0.00989132
0.00921761
0.0100986
0.0105312
0.0105
0.00996231
0.00940403
0.00901275
0.00870242
0.00849657
0.00857612
0.00928444
0.0103699
0.0118889
0.0136408
0.0154435
0.0162481
0.0154926
0.0123342
0.00900293
0.00775218
0.0105124
0.00721517
0.0147537
0.0150414
0.0148336
0.0135928
0.0140766
0.0158701
0.0184061
0.0208581
0.0233197
0.0250494
0.0259119
0.0258821
0.0261241
0.0264607
0.0265718
0.0260807
0.0246421
0.0225062
0.0195919
0.0162455
0.0135207
0.0128045
0.0132395
0.0149735
0.0164814
0.0174335
0.0166391
0.0137987
0.00261139
0.0128949
0.012272
0.0135218
0.0132081
0.0123413
0.0117268
0.0115467
0.0116242
0.012079
0.0125502
0.0132464
0.0137336
0.0140457
0.0148317
0.0149042
0.0145951
0.0141659
0.0134284
0.0129606
0.0120195
0.0114568
0.0105693
0.00949854
0.00870027
0.00885038
0.00928175
0.00963864
0.0108331
0.0131232
0.00246386
0.00726152
0.0126177
0.012834
0.0133651
0.0142214
0.0176486
0.0197985
0.0214089
0.0210305
0.0206248
0.0179281
0.0159721
0.0137935
0.0127537
0.0143678
0.0166344
0.0196043
0.0210535
0.0218261
0.021557
0.0210445
0.0202164
0.0188992
0.0169517
0.0143079
0.0113229
0.00942166
0.0101199
0.0120507
0.000651402
0.00108067
0.00617455
0.00724351
0.00839291
0.00943094
0.0113721
0.0130019
0.0139477
0.0140977
0.0128853
0.0116417
0.0100338
0.00828819
0.00751658
0.0074518
0.00851571
0.0102506
0.0117393
0.013222
0.015237
0.015197
0.0169024
0.0159827
0.0128079
0.0105061
0.00831262
0.00495021
0.00197679
0.000772625
0.000284756
7.23051e-05
0.000299487
0.000399025
0.000820791
0.0017413
0.0032927
0.00549451
0.00765357
0.00858374
0.0104145
0.012104
0.0142453
0.0137804
0.0131438
0.0108826
0.00949518
0.00824635
0.00867067
0.00987232
0.0125394
0.0162019
0.0197416
0.0222657
0.0233167
0.0232429
0.0208732
0.0174799
0.014759
0.0131102
0.0185252
6.56822e-05
0.000481544
0.000608323
0.00098334
0.0018028
0.00297014
0.00501878
0.00701587
0.00939485
0.0113142
0.0138825
0.0165165
0.0194049
0.0205369
0.0210351
0.0193967
0.0173074
0.0147932
0.0162214
0.0229881
0.0354475
0.0424652
0.0498061
0.0511309
0.0529675
0.0425136
0.030918
0.0309868
0.0488428
0.000769206
0.000193386
0.0023742
0.00463808
0.010972
0.0202161
0.0288028
0.0327132
0.0355654
0.0321111
0.0297037
0.024042
0.0202936
0.0175823
0.0180247
0.0215512
0.0280868
0.031733
0.0357035
0.0361688
0.0352477
0.0310754
0.0263505
0.0228937
0.0181408
0.00991956
0.00387844
0.001444
0.000718921
0.000410173
6.12844e-05
0.000308846
0.00353357
0.00538231
0.00685137
0.00815123
0.00961985
0.0105097
0.0117576
0.0119413
0.0122537
0.0118592
0.011922
0.0132829
0.0160002
0.0186246
0.0182961
0.0122004
0.00345131
0.000320845
5.31145e-05
3.17098e-05
2.79118e-05
2.74923e-05
3.00727e-05
3.34784e-05
3.36234e-05
2.50811e-05
1.87385e-05
2.32887e-05
1.08827e-05
0.0021679
0.00707637
0.00628928
0.00569878
0.00513285
0.00460711
0.00420929
0.00404653
0.00426761
0.00480468
0.0053056
0.00591895
0.0067558
0.00306285
0.0063658
0.0167766
0.0151398
0.0141318
0.0135998
0.0130139
0.0119949
0.0113705
0.010643
0.0100109
0.00931342
0.00887764
0.00863484
0.00840598
0.00852799
0.00847926
0.00831798
0.00823299
0.00781229
0.00747364
0.00708225
0.00679366
0.00690099
0.0070997
0.00747381
0.00780199
0.00825931
0.0090753
0.0110168
0.00546827
0.0146167
0.0195001
0.0174063
0.015419
0.0135424
0.012207
0.0111488
0.011002
0.0112338
0.0119701
0.0132149
0.0143408
0.0152009
0.0148285
0.013525
0.0117708
0.010815
0.0117241
0.0118585
0.0127332
0.0114365
0.0106328
0.00940317
0.00983025
0.0104387
0.0106207
0.0102672
0.0100654
0.0107276
0.00498447
0.0128507
0.0152021
0.0132034
0.0126641
0.0128575
0.0132392
0.0134024
0.0133282
0.0128366
0.0118945
0.0109695
0.00986163
0.00873819
0.00771468
0.00696367
0.00641947
0.00624976
0.00699338
0.00880204
0.0104277
0.0130756
0.0154162
0.0171017
0.0171902
0.0158966
0.0133686
0.0115116
0.011485
0.012314
0.00893875
0.0164519
0.0135419
0.0204181
0.0237834
0.0229382
0.0196196
0.0160511
0.0121073
0.0090291
0.00771823
0.00799415
0.00855372
0.00847416
0.00817884
0.00781043
0.00759216
0.00774403
0.00846644
0.00957218
0.0106815
0.011894
0.0130606
0.0141338
0.0150861
0.0151891
0.0135219
0.0106345
0.00858443
0.00790074
0.0138065
0.00728855
0.0169311
0.0164823
0.0144291
0.0132761
0.0136158
0.0160875
0.0188613
0.0214352
0.0236305
0.0255626
0.026857
0.0274291
0.0278015
0.0281857
0.0285165
0.028684
0.0282895
0.0273251