/*--------------------------------*- C++ -*----------------------------------*\
| =========                 |                                                 |
| \\      /  F ield         | OpenFOAM: The Open Source CFD Toolbox           |
|  \\    /   O peration     | Version:  2.1.1                                 |
|   \\  /    A nd           | Web:      www.OpenFOAM.org                      |
|    \\/     M anipulation  |                                                 |
\*---------------------------------------------------------------------------*/
FoamFile
{
    version     2.0;
    format      ascii;
    class       volScalarField;
    location    "0.003900000";
    object      O;
}
// * * * * * * * * * * * * * * * * * * * * * * * * * * * * * * * * * * * * * //

dimensions      [0 0 0 0 0 0 0];

internalField   nonuniform List<scalar> 
12384
(
0.00224073
0.00151697
0.00119615
0.00110436
0.00113817
0.00127362
0.0015574
0.0018987
0.00285031
0.00281483
0.00159786
0.000479254
0.000243548
0.000232903
4.3217e-05
0.000103189
0.000290609
0.000436131
0.000679582
0.000810587
0.000903935
0.000918812
0.000900286
0.000823404
0.000816439
0.000703296
0.000736476
0.000631689
0.000645189
0.000591879
0.000555249
0.000498944
0.000409859
0.000349894
0.000363237
0.000402379
0.000464547
0.000495475
0.000378815
0.000239524
0.000129443
0.00015645
0.000350234
0.000425502
0.000547521
0.000490591
0.000419496
0.000372746
0.000330731
0.000266688
0.000281448
0.000231926
0.000248357
0.00023399
0.000226619
0.000223328
0.00019913
0.000181484
0.00016645
0.000171974
0.000249124
0.000432513
0.00048853
0.000402448
0.0003144
0.000288539
0.000238649
0.000233759
0.000223556
0.000222079
0.000202013
0.000208697
0.000166194
8.87633e-05
0.000113639
7.79829e-05
5.96298e-05
4.63915e-05
4.2108e-05
4.02094e-05
4.13168e-05
4.01253e-05
4.43884e-05
4.73412e-05
5.12662e-05
5.57541e-05
5.93634e-05
6.2621e-05
6.64035e-05
7.06824e-05
7.32845e-05
7.72298e-05
7.72307e-05
8.10005e-05
7.24885e-05
7.93825e-05
6.61752e-05
7.48574e-05
0.000157859
0.000163812
0.000185238
0.000210444
0.000201319
0.000202254
0.000202074
0.000154334
0.000110146
9.39937e-05
7.87543e-05
6.51995e-05
5.48389e-05
4.67603e-05
3.63429e-05
3.42758e-05
3.53505e-05
3.12703e-05
3.68228e-05
4.84564e-05
5.98792e-05
7.39065e-05
8.12606e-05
9.98638e-05
0.00010877
0.000123516
0.000154409
0.000200892
0.000263447
0.000331289
0.000385358
0.000331924
0.00024258
0.000309017
0.000298572
0.000284267
0.000173308
0.000211818
8.87276e-05
4.94878e-06
2.944e-06
3.28886e-06
5.10884e-06
6.02435e-06
8.71624e-06
1.26118e-05
1.67762e-05
2.91153e-05
4.51983e-05
3.4871e-05
4.87694e-05
3.73117e-05
5.74133e-05
4.96679e-05
4.44613e-05
3.45274e-05
3.16827e-05
2.18469e-05
1.98232e-05
1.67186e-05
1.13504e-05
1.11464e-05
1.08954e-05
5.83634e-05
0.000223298
0.000165388
0.000149133
0.00018134
9.71749e-05
2.74476e-05
0.000153321
0.000143093
0.000169351
0.000109618
2.50114e-05
9.84014e-06
7.39718e-06
6.10427e-06
5.45499e-06
5.91789e-06
6.34734e-06
7.40066e-06
8.48793e-06
9.43673e-06
1.02881e-05
1.08872e-05
1.32338e-05
1.39455e-05
1.5019e-05
1.5103e-05
1.59223e-05
1.94996e-05
6.25119e-05
0.000169799
2.63952e-05
1.9218e-05
0.000258155
0.00025362
0.000256715
0.00016173
0.000142
0.000133495
3.50425e-06
5.57701e-07
4.4716e-07
1.2142e-06
1.84425e-06
2.42493e-06
2.75248e-06
2.54068e-06
2.93021e-06
3.36206e-06
3.81072e-06
4.36601e-06
5.05703e-06
7.72049e-06
9.55863e-06
1.2279e-05
1.60032e-05
1.84084e-05
1.83581e-05
1.98791e-05
1.4123e-05
1.41842e-05
2.51469e-06
9.8161e-06
2.10699e-05
1.68553e-05
1.62879e-05
2.2041e-05
2.8677e-05
6.17772e-05
0.000186704
3.84289e-06
9.67696e-07
4.00537e-07
2.49725e-07
2.0993e-07
1.84216e-07
1.57093e-07
1.22465e-07
1.03e-07
9.67025e-08
9.19653e-08
7.93798e-08
8.96495e-08
8.53053e-08
1.20493e-07
2.01719e-07
1.12806e-06
7.10587e-06
0.00017373
6.04605e-05
3.8978e-05
5.12078e-05
0.000103784
0.000128367
0.000139
0.00019508
0.000231467
0.000134194
5.9079e-05
2.7368e-05
3.96686e-05
0.000157095
0.000168409
1.30205e-05
1.0459e-05
7.7546e-06
8.07665e-06
8.34634e-06
8.49558e-06
8.29643e-06
7.66056e-06
7.74417e-06
1.00798e-05
1.17082e-05
1.36168e-05
1.60763e-05
1.61763e-05
1.12829e-05
1.34458e-05
1.46742e-05
1.53353e-05
1.3987e-05
2.96051e-05
5.03463e-05
7.68376e-05
0.000110119
9.04838e-05
9.38497e-05
5.88824e-05
5.7667e-05
4.64273e-05
5.24162e-05
4.72608e-05
5.40954e-05
5.36999e-05
7.95098e-05
0.000169602
0.000207453
0.000112996
0.00011825
5.59627e-05
8.76529e-05
0.000161156
0.000176916
0.000218569
0.000251761
0.000292365
0.000304472
0.000269145
0.000230777
0.000232471
0.000325207
0.000278843
9.89994e-06
2.28715e-05
4.22439e-05
4.16994e-05
4.85779e-05
0.000112117
0.000174146
4.7584e-05
1.08068e-05
5.79004e-06
3.62981e-06
4.97494e-06
1.96944e-06
2.68336e-06
2.40189e-06
3.98892e-06
3.90491e-06
6.7452e-06
1.01691e-05
2.03443e-05
6.42044e-05
0.000308647
0.00018212
8.32869e-05
6.21601e-05
4.50119e-05
3.93282e-05
4.11672e-05
4.88228e-05
8.78281e-05
1.26235e-05
2.23338e-05
4.44796e-05
4.74537e-05
3.64088e-05
3.13864e-05
2.11695e-05
2.27669e-05
1.85591e-05
2.01506e-05
1.77059e-05
2.55328e-05
2.32917e-05
3.76171e-05
3.85488e-05
4.78387e-05
4.84436e-05
5.02027e-05
4.20725e-05
4.06745e-05
3.67296e-05
3.97419e-05
3.87523e-05
3.66462e-05
3.10127e-05
2.52108e-05
2.55022e-05
3.14952e-05
3.89848e-05
6.27407e-05
0.000287405
0.000333518
0.00056649
0.000853151
0.000980088
0.000854524
0.000579916
0.000486494
0.000655634
0.00125329
0.00260567
0.00120334
0.000279789
0.000230219
5.99038e-05
0.000213924
0.000535576
0.000760444
0.000881465
0.000954025
0.000955704
0.000908347
0.00083761
0.00077119
0.000720238
0.000697726
0.000754347
0.00074509
0.000757176
0.00071683
0.000699658
0.000669725
0.000582154
0.000492909
0.000436418
0.00038619
0.000447341
0.000509584
0.000553529
0.000402234
0.000205193
0.00013737
0.000291181
0.000423718
0.000401302
0.000363549
0.000330312
0.000283448
0.000254115
0.000216795
0.000185689
0.000176057
0.000160658
0.000170185
0.000172315
0.00017999
0.000182522
0.000174813
0.00016579
0.000157707
0.000180969
0.000277596
0.000414168
0.00048552
0.000456409
0.000378325
0.000311864
0.000257052
0.000225976
0.000197593
0.00018673
0.000232466
0.000146167
8.79936e-05
3.69868e-05
3.04173e-05
3.32879e-05
4.20593e-05
5.53277e-05
6.29139e-05
7.17526e-05
8.07785e-05
8.82129e-05
9.50085e-05
0.000100603
0.000105694
0.000111358
0.000118396
0.000126594
0.000136791
0.000145993
0.000153907
0.000157216
0.000155503
0.000138326
0.000124858
8.91236e-05
8.072e-05
0.00011339
0.00016923
0.000176516
0.000158987
0.000196615
0.000218006
0.000108904
8.79835e-05
8.74543e-05
0.000115648
0.000100596
8.26329e-05
7.21783e-05
5.70977e-05
5.9059e-05
4.55329e-05
4.55769e-05
3.85306e-05
3.6743e-05
3.4085e-05
3.35146e-05
3.21429e-05
3.01468e-05
5.40932e-05
9.65264e-05
0.000125466
0.000179882
0.000237135
0.000289524
0.000334541
0.000359368
0.000370233
0.000281403
0.000220713
0.000299849
0.000296961
0.000190764
0.000179407
1.47634e-05
3.26845e-06
3.87575e-06
7.21293e-06
1.06379e-05
2.43691e-05
4.55776e-05
9.78718e-05
0.000176001
0.000249277
0.000260387
0.000250751
0.000204059
0.000132104
8.05648e-05
6.21395e-05
4.56135e-05
3.55433e-05
3.30045e-05
3.38367e-05
2.94646e-05
2.77014e-05
2.26204e-05
9.73549e-06
1.08382e-05
2.1844e-05
7.90042e-05
0.000262666
1.0372e-05
7.50358e-05
4.70795e-05
2.74703e-05
0.000175805
0.000178852
2.7544e-05
3.78036e-06
1.99288e-06
1.36091e-06
1.36683e-06
1.75013e-06
3.12562e-06
5.80121e-06
1.04103e-05
2.60692e-05
5.60544e-05
9.47952e-05
0.000118279
0.000130935
0.000122947
0.000104467
6.88069e-05
3.12328e-05
2.1339e-05
1.66798e-05
2.92731e-05
0.00019878
3.78836e-05
1.89522e-05
0.000284636
0.000317137
0.000247921
0.00018326
0.000110401
4.09552e-06
9.17475e-07
8.14479e-07
1.08873e-06
1.5706e-06
1.66911e-06
1.7446e-06
1.89195e-06
1.90772e-06
1.9989e-06
2.18123e-06
2.34224e-06
2.47552e-06
3.41176e-06
4.07617e-06
8.8748e-06
1.86785e-05
3.22784e-05
5.9988e-05
9.13734e-05
9.27941e-05
6.51668e-05
1.44872e-05
2.76337e-06
7.79792e-06
1.95562e-05
1.62827e-05
1.77485e-05
2.52398e-05
4.00583e-05
0.00014772
2.00348e-05
9.57151e-07
2.47304e-07
1.28618e-07
9.83904e-08
8.82364e-08
8.29626e-08
7.18151e-08
6.36894e-08
4.51316e-08
3.9524e-08
3.25596e-08
2.41554e-08
1.49678e-08
1.18318e-08
9.98724e-09
1.01274e-08
1.05577e-08
2.53587e-08
8.62423e-08
1.84365e-06
0.000167802
4.5829e-05
6.63304e-05
0.000125722
0.000154703
0.000216391
0.000162812
6.93634e-05
3.6097e-05
3.45653e-05
7.95352e-05
0.000303091
5.94566e-05
9.08654e-06
8.89632e-06
6.82143e-06
6.34957e-06
6.01019e-06
5.64877e-06
5.26771e-06
4.42513e-06
5.23424e-06
5.93291e-06
5.82047e-06
1.0004e-05
1.44429e-05
1.79924e-05
1.78469e-05
1.75397e-05
1.73426e-05
1.92282e-05
1.7387e-05
2.47826e-05
5.29207e-05
8.89201e-05
0.000131472
0.000103078
7.9388e-05
6.02276e-05
4.20449e-05
3.18924e-05
2.16027e-05
2.00464e-05
2.44438e-05
5.60464e-05
0.000161621
0.000274282
3.72063e-05
2.04963e-05
1.85158e-05
2.12857e-05
3.01953e-05
3.51693e-05
6.10948e-05
8.76226e-05
0.00012604
0.000260019
0.000245632
0.000157857
0.000102159
0.000104956
0.000225583
0.000238521
1.25635e-05
3.2233e-05
4.54242e-05
4.87327e-05
0.000114782
0.000186074
1.14758e-05
3.4566e-06
1.9935e-06
1.43553e-06
1.34922e-06
1.15345e-06
1.36865e-06
4.95156e-07
1.2721e-06
1.72851e-06
1.30205e-06
1.33906e-06
8.98801e-07
7.60547e-07
5.4402e-07
5.649e-07
8.78059e-07
3.27844e-06
1.82135e-05
0.000384677
0.000141106
4.43285e-05
1.68545e-05
2.42176e-05
1.40929e-05
3.13222e-05
5.01363e-05
4.83646e-05
4.61723e-05
4.58475e-05
4.07539e-05
5.02043e-05
6.28651e-05
9.34316e-05
0.00014648
0.000248234
0.00030637
0.000236027
0.000153206
7.57961e-05
6.69769e-05
5.66586e-05
7.08841e-05
0.000141476
0.000199412
0.000250493
0.000314942
0.000332331
0.000311797
7.86842e-05
6.14925e-05
2.56974e-05
2.9764e-05
3.35068e-05
0.00039139
0.000764834
0.00130412
0.00149853
0.00152436
0.00152347
0.00156739
0.00106877
0.000429151
0.000458443
0.00103204
0.00215212
0.000574824
0.000216885
0.00039324
0.000644368
0.000801712
0.000772776
0.000807888
0.000719827
0.000697599
0.000599302
0.000551126
0.000475697
0.00046343
0.000438505
0.00052272
0.000612657
0.000786479
0.00082027
0.000766205
0.000757115
0.000725958
0.000670032
0.000531091
0.000428336
0.000410865
0.000512726
0.000652874
0.000554315
0.000270812
0.000137848
0.000259281
0.000408847
0.00039147
0.000369243
0.000346032
0.000308786
0.000283612
0.000250897
0.000197331
0.00017828
0.000152182
0.000135113
0.000131569
0.000138111
0.000143825
0.000149096
0.000148674
0.000144018
0.000148725
0.000171182
0.000245905
0.000379915
0.000484723
0.000534717
0.000439802
0.000327785
0.000228052
0.000186484
0.000179743
0.00021955
0.000187009
9.25176e-05
3.17304e-05
9.73844e-05
0.000159772
0.000185981
0.000189942
0.000189927
0.00019278
0.000193933
0.000194835
0.000196037
0.000197175
0.000197683
0.000198554
0.000199068
0.000200344
0.000198204
0.000195718
0.000194043
0.000192629
0.000194779
0.000198546
0.000192755
0.000152334
0.000106363
9.037e-05
0.000149025
0.00018541
0.00018105
0.000169382
0.000231786
5.61222e-05
0.000115291
0.000180304
0.000140759
9.11003e-05
7.01403e-05
6.88681e-05
6.45748e-05
6.44935e-05
6.66117e-05
6.16763e-05
5.47737e-05
5.11395e-05
4.535e-05
3.95397e-05
3.80029e-05
3.77188e-05
4.42298e-05
8.94232e-05
0.000138521
0.000206023
0.000273136
0.000307043
0.000317851
0.000327537
0.000341133
0.000339602
0.00021284
0.000213991
0.00029437
0.000201259
7.58025e-05
6.96806e-06
3.63922e-06
7.5058e-06
1.60271e-05
1.83482e-05
3.96916e-05
9.56477e-05
0.000209881
0.000252828
0.000258146
0.000254116
0.000153371
6.45136e-05
3.52442e-05
2.48667e-05
2.23608e-05
1.94059e-05
1.38514e-05
1.28017e-05
1.39329e-05
1.64587e-05
1.97275e-05
1.91406e-05
1.17067e-05
1.35053e-05
1.46102e-05
2.72123e-05
0.000136348
2.9871e-06
2.36739e-05
2.72803e-05
5.49157e-05
0.000120256
2.42482e-05
2.97516e-06
1.31263e-06
6.68482e-07
8.81236e-07
1.58094e-06
3.67678e-06
1.03517e-05
4.13987e-05
0.000137657
0.000202281
0.000172713
0.000143773
0.000126954
0.000127036
0.000145184
0.000179879
0.00019801
0.000105404
2.84182e-05
1.3217e-05
2.00854e-05
0.000170653
5.02675e-05
1.86481e-05
0.0003371
0.000349471
0.00025058
0.000202488
9.43722e-06
1.20874e-06
7.10253e-07
1.06638e-06
1.33623e-06
1.41413e-06
1.43586e-06
1.76873e-06
1.97983e-06
2.13711e-06
2.54388e-06
2.83172e-06
2.80083e-06
2.6264e-06
2.91405e-06
3.77455e-06
7.60136e-06
1.62466e-05
2.15681e-05
2.84891e-05
2.08427e-05
2.5113e-05
2.46694e-05
1.30002e-05
2.29202e-06
7.32715e-06
1.81421e-05
1.78732e-05
2.17564e-05
2.99308e-05
6.79837e-05
0.00013921
2.49799e-06
2.6657e-07
1.16302e-07
1.05297e-07
1.11021e-07
1.19428e-07
1.56826e-07
1.57955e-07
1.22713e-07
1.13083e-07
1.0102e-07
8.5802e-08
4.55381e-08
3.14414e-08
1.37171e-08
8.47618e-09
5.67582e-09
8.60209e-09
7.60948e-09
7.01579e-09
2.36562e-08
4.93687e-07
0.000167028
4.40977e-05
0.000125295
0.000171276
0.000175262
9.56068e-05
3.79151e-05
3.03479e-05
5.0232e-05
0.000147277
0.00019372
3.63667e-05
7.53165e-06
9.66576e-06
7.17865e-06
8.21884e-06
6.97599e-06
9.35566e-06
9.46753e-06
8.69475e-06
6.30292e-06
5.95496e-06
5.43671e-06
5.55488e-06
7.82168e-06
1.18643e-05
1.80653e-05
1.67787e-05
1.90012e-05
2.49654e-05
2.15925e-05
2.1322e-05
4.53635e-05
8.70472e-05
0.000133281
0.000132124
0.000111621
9.28132e-05
5.64316e-05
2.89586e-05
2.00607e-05
1.5235e-05
1.58663e-05
4.80715e-05
0.000272499
8.89736e-05
1.72789e-05
2.62711e-05
2.72836e-05
1.79751e-05
2.45077e-05
2.36228e-05
3.41675e-05
4.32984e-05
7.50288e-05
0.000240017
0.000162738
0.000100959
7.44462e-05
6.16834e-05
0.000126405
0.000175737
1.52974e-05
3.96076e-05
5.0436e-05
9.74776e-05
0.000215961
8.72353e-06
2.55926e-06
1.97016e-06
2.50274e-06
4.93606e-06
7.65891e-06
9.6337e-06
1.85189e-05
1.51929e-05
1.87031e-05
1.83788e-05
1.49462e-05
1.11888e-05
5.94478e-06
3.01939e-06
1.19049e-06
5.33828e-07
2.87612e-07
1.79657e-07
2.80984e-07
5.87588e-07
4.82157e-06
0.000114513
5.95926e-05
9.11263e-06
1.60825e-05
3.91857e-05
5.7532e-05
6.64379e-05
8.69419e-05
0.000111366
0.000163833
0.000243807
0.000251041
4.32296e-05
7.37956e-06
3.04199e-06
1.33215e-06
8.82848e-07
9.10929e-07
8.33444e-07
9.26006e-07
8.21741e-07
8.71369e-07
8.41224e-07
8.45641e-07
8.62232e-07
1.00529e-06
1.6253e-06
3.93982e-06
1.76265e-05
0.000126834
7.25243e-05
2.79968e-05
2.11898e-05
0.000430989
0.000653415
0.00100364
0.00127232
0.00149233
0.00158252
0.00154849
0.00158054
0.000825298
0.000302283
0.000410662
0.00128783
0.00124296
0.000230481
0.000741944
0.000717991
0.000643917
0.000603799
0.000555612
0.000575193
0.000533875
0.000519292
0.000491621
0.000485927
0.000463164
0.000440221
0.000434131
0.000562226
0.000752396
0.000859866
0.000847636
0.000767245
0.000734742
0.000741362
0.000593942
0.000449965
0.00043335
0.000548325
0.000744845
0.000615029
0.000234955
0.000116479
0.000233345
0.000410623
0.000416496
0.000381139
0.000349932
0.00033076
0.000293591
0.000260797
0.000227746
0.000203793
0.000160961
0.000140124
0.000125038
0.000118988
0.000118986
0.000124221
0.000129809
0.00013209
0.000129021
0.000134759
0.000179143
0.000284198
0.000448891
0.000531299
0.000532525
0.000395765
0.000240278
0.000181278
0.000165903
0.000202778
0.000159475
9.3258e-05
0.00014923
0.00019673
0.000179834
0.000174295
0.000172519
0.0001727
0.000171516
0.000171062
0.000171993
0.000172397
0.000173616
0.00017444
0.00017549
0.000174842
0.000173605
0.000172509
0.000171887
0.000169884
0.000166938
0.000167172
0.000167119
0.000182548
0.00019034
0.000158742
9.86259e-05
0.000122202
0.000182649
0.000193776
0.000198265
0.000231471
7.3022e-05
0.000222077
0.000109298
5.80506e-05
4.59398e-05
4.76877e-05
6.09426e-05
6.36694e-05
7.59048e-05
7.14167e-05
7.32341e-05
7.45895e-05
6.77839e-05
5.98781e-05
5.20894e-05
4.7239e-05
4.75912e-05
5.70179e-05
0.000104818
0.000174751
0.000254536
0.000314479
0.000323068
0.000303855
0.000284822
0.000296454
0.00032551
0.000231732
0.000180679
0.000280249
0.000191205
2.34143e-05
4.71735e-06
4.62946e-06
1.14698e-05
1.66538e-05
2.26941e-05
3.83333e-05
0.000156663
0.000232873
0.000234979
0.00025399
0.000175262
6.5435e-05
3.47205e-05
2.40959e-05
1.59739e-05
1.45904e-05
1.3335e-05
1.67656e-05
1.33858e-05
1.18487e-05
1.06378e-05
1.14072e-05
1.51418e-05
1.62575e-05
1.40034e-05
1.25593e-05
2.02792e-05
6.50632e-05
8.48862e-07
8.97478e-06
2.21729e-05
5.14803e-05
2.5848e-05
3.7988e-06
1.28208e-06
1.31038e-06
7.54901e-07
1.14822e-06
2.55487e-06
8.1745e-06
4.52923e-05
0.000166173
0.000182358
0.000134571
0.000106313
9.06996e-05
8.55021e-05
9.59642e-05
0.000119873
0.000165222
0.000199869
0.000105283
2.35959e-05
8.98352e-06
1.06963e-05
0.000130656
5.55558e-05
1.92473e-05
0.000369708
0.000363804
0.000270659
7.44315e-05
2.55818e-06
9.67e-07
7.6615e-07
1.28214e-06
1.3437e-06
1.51178e-06
1.42404e-06
1.63683e-06
1.23094e-06
1.38457e-06
1.79862e-06
2.66832e-06
3.92842e-06
2.91615e-06
3.58145e-06
4.0775e-06
8.03802e-06
2.0786e-05
2.47166e-05
1.2293e-05
4.84393e-06
2.07918e-06
2.96003e-06
3.05703e-06
1.12908e-06
1.16276e-05
1.78344e-05
1.88427e-05
2.49594e-05
3.67781e-05
0.000123558
1.97754e-05
6.67083e-07
1.64215e-07
1.11866e-07
1.395e-07
1.86795e-07
2.27126e-07
2.56445e-07
2.60939e-07
2.54529e-07
2.55629e-07
2.31278e-07
2.00597e-07
1.21938e-07
9.22286e-08
3.75142e-08
1.36198e-08
5.84579e-09
1.1662e-08
1.53631e-08
1.24545e-08
1.10007e-08
3.02778e-08
1.33013e-06
6.32461e-05
0.000119908
0.000157087
0.00013556
6.62653e-05
2.88935e-05
2.62301e-05
5.29926e-05
0.000169352
0.000138517
2.89098e-05
7.18766e-06
1.09571e-05
1.06043e-05
1.5356e-05
1.97915e-05
2.40145e-05
2.64504e-05
2.29711e-05
1.68257e-05
1.02585e-05
5.25885e-06
3.75734e-06
3.83846e-06
7.25587e-06
1.37946e-05
2.14529e-05
2.12546e-05
2.67085e-05
2.16682e-05
2.69822e-05
4.1586e-05
9.09446e-05
0.000122251
0.000161362
0.000215182
0.000232832
0.000152874
7.88978e-05
3.73918e-05
2.26569e-05
1.77988e-05
5.16937e-05
0.000283473
8.78708e-05
3.32952e-05
3.73589e-05
2.92128e-05
3.82191e-05
3.07837e-05
1.94265e-05
1.21014e-05
2.55958e-05
8.34085e-05
0.00021271
0.000108149
0.000104754
0.000109526
5.91017e-05
9.96323e-05
0.000111976
1.8795e-05
4.64728e-05
7.12247e-05
0.000209006
1.66407e-05
2.39449e-06
1.82012e-06
2.57392e-06
1.53975e-06
1.78674e-05
2.34986e-05
3.38085e-05
2.73489e-05
2.13566e-05
1.87839e-05
1.43367e-05
3.73386e-05
2.81956e-05
1.70415e-05
7.0998e-06
3.22434e-06
1.23796e-06
4.27755e-07
2.22976e-07
1.6137e-07
1.4467e-07
2.61116e-07
1.34307e-06
0.000364453
1.1826e-05
1.70971e-05
4.94887e-05
8.06083e-05
0.0001292
0.000242451
0.000330004
0.000142083
1.62081e-05
2.53964e-06
5.63458e-07
2.97041e-07
1.86326e-07
2.42317e-07
2.57484e-07
3.06505e-07
3.16884e-07
3.32916e-07
2.9511e-07
2.86363e-07
2.68791e-07
2.50286e-07
2.42971e-07
2.91269e-07
5.34727e-07
1.0883e-06
1.59189e-06
4.91173e-06
0.00018752
5.36034e-05
1.4439e-05
0.000286346
0.000445263
0.000744771
0.000944983
0.00114493
0.00145315
0.00151382
0.00156273
0.00135637
0.000360726
0.000235886
0.000550048
0.00150251
0.000283298
0.000594705
0.00045523
0.000407234
0.000385742
0.000437907
0.000466542
0.00053999
0.000525445
0.000543619
0.000603577
0.000694577
0.000691589
0.000698064
0.000710321
0.0008526
0.000926411
0.000802171
0.000701006
0.000676993
0.000714915
0.000594055
0.000444334
0.000485462
0.00069722
0.00083528
0.000508986
0.000120042
6.74047e-05
0.000183992
0.000384822
0.000406051
0.000360134
0.000331015
0.000308987
0.000278574
0.000263837
0.000225256
0.000211277
0.000169758
0.000141078
0.000128664
0.000116902
0.00010965
0.000113037
0.000124777
0.000124127
0.000121986
0.000137967
0.000208741
0.000341635
0.000397968
0.000428205
0.000406797
0.000343387
0.000257951
0.00016504
0.000144969
0.000179353
0.000182227
9.57555e-05
0.000195151
0.000177185
0.000166164
0.000164751
0.000171633
0.000176278
0.00018147
0.000181651
0.000182452
0.00018142
0.000179929
0.00017682
0.000173077
0.000168752
0.000164198
0.000160031
0.000156587
0.000154587
0.000151564
0.000148818
0.000148857
0.000158747
0.00017871
0.000185826
0.000113201
0.000116386
0.00016856
0.000205333
0.000218792
0.00025746
0.000138511
0.000173291
3.22159e-05
4.01126e-05
5.414e-05
9.43965e-05
9.30479e-05
0.00012632
0.000116672
0.000117796
0.000106059
9.21381e-05
7.48984e-05
6.88243e-05
5.96801e-05
5.70605e-05
7.51856e-05
9.95198e-05
0.000150178
0.000221914
0.000302319
0.000364119
0.000338308
0.000281045
0.000233183
0.000238026
0.000292442
0.000244361
0.000176524
0.000262159
0.000173372
1.02294e-05
3.78225e-06
5.9238e-06
1.27129e-05
9.90092e-06
2.69909e-05
6.56935e-05
0.000194686
0.000220064
0.000232269
0.00025957
0.000153283
6.05013e-05
3.29024e-05
2.19787e-05
1.82094e-05
1.91728e-05
2.10578e-05
1.82714e-05
1.36034e-05
9.98833e-06
8.81419e-06
8.76532e-06
1.15536e-05
1.58464e-05
1.40283e-05
1.33372e-05
1.54461e-05
6.16254e-05
5.24874e-07
6.09661e-06
2.0775e-05
2.54363e-05
5.27027e-06
1.89855e-06
1.4726e-06
1.37649e-06
9.80231e-07
1.20295e-06
3.51954e-06
1.55656e-05
0.000126369
0.000186934
0.000135498
9.93633e-05
8.28451e-05
7.49932e-05
7.67507e-05
9.25753e-05
0.000126535
0.000188833
0.000150784
3.26247e-05
1.0288e-05
6.05537e-06
8.96221e-06
0.000125757
5.54475e-05
1.93274e-05
0.000398857
0.000372091
0.000277185
2.52397e-05
1.5005e-06
1.14103e-06
8.32538e-07
1.18985e-06
9.62101e-07
1.18215e-06
8.15526e-07
5.3269e-07
3.87776e-07
3.07824e-07
5.65466e-07
1.29916e-06
3.34139e-06
5.77488e-06
3.84976e-06
3.8768e-06
6.82995e-06
2.44938e-05
2.81106e-05
1.28917e-05
2.5331e-06
9.46673e-07
7.27313e-07
7.12947e-07
7.98672e-07
3.20937e-05
1.80255e-05
2.04342e-05
2.72245e-05
5.24467e-05
0.000192844
5.50692e-06
3.58984e-07
1.43021e-07
1.20025e-07
1.90615e-07
2.4754e-07
2.95514e-07
3.78649e-07
4.1547e-07
4.3749e-07
4.14443e-07
3.02348e-07
2.86571e-07
2.38625e-07
2.14142e-07
1.04814e-07
4.02129e-08
1.29752e-08
1.26649e-08
1.06851e-07
1.90983e-07
4.25965e-08
1.92525e-08
1.69168e-07
0.000129782
0.000112721
0.000141815
0.000123803
6.50044e-05
3.10556e-05
2.38634e-05
4.25157e-05
0.000144495
0.000187306
3.59652e-05
8.15821e-06
1.34393e-05
1.65596e-05
2.56716e-05
3.8012e-05
4.87782e-05
5.24616e-05
5.0392e-05
3.85194e-05
1.77555e-05
6.71836e-06
3.17158e-06
3.16936e-06
4.25626e-06
9.19508e-06
2.23221e-05
2.48394e-05
2.01595e-05
2.34494e-05
3.0672e-05
3.08741e-05
6.28759e-05
8.72682e-05
0.000189674
0.000339811
0.000310432
0.000338062
0.000230814
0.00012664
6.74138e-05
4.57175e-05
6.54257e-05
0.000271258
7.91664e-05
4.46255e-05
4.75443e-05
5.87507e-05
6.25933e-05
3.64185e-05
1.72614e-05
1.0605e-05
8.57591e-06
4.15413e-05
0.000173211
0.000100413
0.000117301
0.000132145
4.50669e-05
9.60472e-05
6.37534e-05
2.03764e-05
5.60563e-05
0.000107339
0.000167254
4.34386e-06
1.56029e-06
2.05289e-06
6.00563e-06
1.38982e-05
2.91254e-05
3.8161e-05
2.78121e-05
2.85926e-05
2.23331e-05
2.54667e-05
2.21083e-05
2.93286e-05
3.04214e-05
2.38464e-05
9.76099e-06
3.56787e-06
1.41542e-06
6.47592e-07
3.52949e-07
2.06612e-07
1.37666e-07
1.2259e-07
2.16251e-07
1.31531e-05
3.32856e-05
1.70195e-05
5.61272e-05
0.000130084
0.000274947
0.000273689
2.98619e-05
4.95442e-06
8.10237e-07
2.20101e-07
1.04057e-07
1.50394e-07
2.15972e-07
5.1711e-07
9.67666e-07
7.8126e-07
7.4837e-07
4.08136e-07
2.95525e-07
2.72975e-07
2.51277e-07
2.4482e-07
2.31643e-07
2.51246e-07
4.56145e-07
2.08367e-06
5.20631e-06
4.54378e-06
1.32471e-05
0.000225605
1.58386e-05
0.000268751
0.00055537
0.000818437
0.000946039
0.00110718
0.00113126
0.00116759
0.00140692
0.00149298
0.000449118
0.000210741
0.000301825
0.00100561
0.000365676
0.000463754
0.000324622
0.000250966
0.000252279
0.00029257
0.000407129
0.000476857
0.000543452
0.000569168
0.000660941
0.00077386
0.00086606
0.000877489
0.000893575
0.00087232
0.000727965
0.000695947
0.000658385
0.000684227
0.000685283
0.000505427
0.000484097
0.00066084
0.000880572
0.000655614
0.000153857
3.08969e-05
3.00725e-05
0.000139766
0.00038316
0.000402484
0.000343273
0.000306127
0.000295621
0.00025381
0.000254675
0.000213031
0.000202011
0.000160307
0.000139926
0.000127647
0.000118599
0.000117617
0.000126294
0.000126345
0.000128164
0.000149147
0.000255104
0.000323506
0.000180035
9.33178e-05
6.57234e-05
7.14984e-05
0.000112438
0.00014991
0.000153331
0.000150124
0.000179087
0.000171001
0.000100245
0.000194675
0.000180771
0.000177195
0.000193891
0.000189024
0.000164875
0.000145523
0.000161326
0.000184948
0.000195309
0.000200235
0.000204996
0.000203479
0.000198507
0.000190313
0.000177046
0.000164366
0.000155551
0.000149028
0.000146069
0.000142436
0.000149152
0.000171335
0.000190011
0.000122784
0.000120785
0.000176952
0.000208491
0.000236887
0.000266709
0.000176394
6.8673e-05
3.23956e-05
6.12508e-05
0.000108839
0.000173655
0.000177099
0.000175954
0.000187326
0.000172659
0.000153561
0.000118856
9.51351e-05
7.00103e-05
6.69043e-05
8.2477e-05
0.000102782
0.000142474
0.000188034
0.000264242
0.000348164
0.000344445
0.000267846
0.00019811
0.000171145
0.000189927
0.000255337
0.000232013
0.000159597
0.000225236
0.000144531
7.79797e-06
3.4827e-06
6.16564e-06
1.48956e-05
1.15816e-05
2.06565e-05
5.5019e-05
0.000177821
0.000217329
0.000237536
0.000266009
0.000187843
7.17944e-05
3.25418e-05
2.86435e-05
2.22395e-05
2.39812e-05
2.47195e-05
1.91481e-05
1.37547e-05
1.01549e-05
9.45787e-06
8.00308e-06
9.98375e-06
1.31705e-05
1.60525e-05
1.45217e-05
2.03113e-05
5.81585e-05
3.12128e-07
4.14539e-06
1.94801e-05
4.44923e-06
2.4872e-06
1.41895e-06
1.57873e-06
1.22711e-06
6.45544e-07
1.27632e-06
3.58314e-06
2.65993e-05
0.000175214
0.000166204
0.000120025
9.603e-05
8.16256e-05
7.66623e-05
7.66182e-05
8.8046e-05
0.000116362
0.000184583
0.00012303
2.11565e-05
7.63547e-06
4.94493e-06
9.35476e-06
0.000171917
4.39504e-05
2.03943e-05
0.000425003
0.000363502
0.00027442
3.02578e-05
1.30986e-06
8.69387e-07
7.82602e-07
8.39146e-07
8.75383e-07
8.65463e-07
3.68654e-07
1.87971e-07
1.17931e-07
1.07463e-07
1.77873e-07
4.40043e-07
1.56276e-06
5.40063e-06
6.7807e-06
4.03089e-06
4.6311e-06
2.40039e-05
7.04774e-05
3.81261e-05
8.7344e-06
1.43587e-06
7.05905e-07
4.35214e-07
8.00602e-07
0.000165174
2.0963e-05
2.15545e-05
3.05451e-05
7.47774e-05
0.000150199
2.84864e-06
2.75198e-07
1.48639e-07
1.62015e-07
2.22615e-07
2.91106e-07
4.00671e-07
4.60715e-07
5.17949e-07
5.02924e-07
4.74624e-07
4.22702e-07
3.00328e-07
2.74639e-07
2.25916e-07
2.02719e-07
1.06526e-07
3.17826e-08
1.29899e-08
1.46531e-07
1.33813e-06
1.73443e-06
5.61516e-08
8.31443e-08
0.000145507
0.000103703
0.000116094
0.000116682
8.20102e-05
4.27352e-05
2.80958e-05
2.72697e-05
7.50969e-05
0.000323691
6.94291e-05
1.06025e-05
1.40559e-05
1.66198e-05
2.65435e-05
3.58881e-05
4.22407e-05
4.077e-05
4.65058e-05
4.70059e-05
2.61703e-05
9.34686e-06
3.00618e-06
2.59973e-06
3.3135e-06
4.48078e-06
1.10578e-05
3.3112e-05
4.67758e-05
5.16689e-05
8.75423e-05
2.71565e-05
3.65541e-05
6.81872e-05
0.000182265
0.000289796
7.46608e-05
2.86355e-05
6.38344e-05
0.000231799
0.000222506
0.000146447
0.000142092
0.000244602
0.000109746
4.61127e-05
6.82229e-05
7.29054e-05
8.01861e-05
4.84698e-05
1.49313e-05
6.59771e-06
3.27944e-06
2.03969e-05
0.000187517
0.000104116
0.000109994
0.000144078
6.61711e-05
9.12333e-05
6.93414e-05
2.22201e-05
6.71735e-05
0.000169884
2.85741e-05
2.22122e-06
1.40194e-06
2.4438e-06
1.17552e-05
3.06192e-05
5.46686e-05
5.36116e-05
4.18749e-05
3.53658e-05
2.77523e-05
2.56629e-05
8.84788e-06
2.18581e-05
2.64491e-05
2.36253e-05
9.87436e-06
3.03741e-06
1.129e-06
6.5387e-07
7.0962e-07
6.24746e-07
3.4353e-07
1.88136e-07
1.43652e-07
1.44313e-06
0.000110619
1.61942e-05
6.94374e-05
0.000214555
0.000304982
2.14885e-05
3.70767e-06
5.45704e-07
1.83762e-07
1.53182e-07
2.10216e-07
6.79124e-07
2.88124e-06
8.67993e-06
1.2842e-05
1.12088e-05
5.56285e-06
1.89065e-06
5.0884e-07
2.56086e-07
2.56183e-07
2.44085e-07
2.0586e-07
2.10969e-07
3.26917e-07
2.45974e-06
2.71911e-05
2.72501e-05
1.49343e-05
0.000304341
2.92205e-05
0.000298839
0.000772578
0.000958588
0.000973514
0.000817078
0.000760253
0.000832716
0.00107726
0.00140331
0.000616405
0.000223701
0.000238961
0.000613537
0.000496842
0.00043699
0.000269208
0.000178797
0.000155956
0.000189673
0.000265919
0.000424459
0.000497443
0.000563522
0.000630743
0.000734034
0.000689296
0.000669082
0.000657845
0.000652393
0.00066879
0.000646064
0.000703642
0.000691921
0.000569264
0.000566778
0.000735463
0.000843039
0.000582742
0.000152324
2.88241e-05
1.8033e-05
4.94378e-05
0.000198469
0.000369366
0.000407281
0.00036726
0.000326633
0.000297823
0.000259729
0.000238917
0.000198177
0.000197481
0.000176508
0.000167279
0.000151196
0.000157996
0.000144165
0.000143443
0.000151964
0.000190936
0.000370733
0.000147457
3.8383e-05
2.11444e-05
1.84051e-05
1.75161e-05
1.84586e-05
2.39629e-05
5.33019e-05
9.83315e-05
0.000116648
0.000180649
0.000160238
0.000103103
0.000192201
0.000194311
0.000190401
0.000103343
3.22562e-05
2.46856e-05
2.55244e-05
3.44557e-05
7.65123e-05
0.000115487
0.000143344
0.000153225
0.000157999
0.000173293
0.000197136
0.00020418
0.00019025
0.000171494
0.000161846
0.000153357
0.000149859
0.000157097
0.000174215
0.000183017
0.000134893
0.000139288
0.000187143
0.000224131
0.000271377
0.000310071
0.000138861
3.35291e-05
4.68703e-05
0.000126324
0.000196876
0.000188416
0.000157911
0.000148859
0.000160259
0.000166917
0.000152951
0.000108199
7.66371e-05
6.82619e-05
7.95679e-05
0.000101293
0.000146972
0.000197261
0.000302282
0.000334001
0.000251923
0.000183192
0.000140887
0.000125078
0.000128814
0.000166047
0.000241961
0.000186069
0.000162497
0.000207074
0.000103669
6.14233e-06
4.10239e-06
8.23886e-06
1.25582e-05
1.53614e-05
1.34116e-05
3.46144e-05
0.000111356
0.000196265
0.000233566
0.000254448
0.000203188
8.89154e-05
4.78938e-05
3.45445e-05
2.93945e-05
2.6379e-05
2.81597e-05
2.61319e-05
2.22096e-05
1.53914e-05
1.37179e-05
1.13622e-05
1.42087e-05
1.49807e-05
1.60075e-05
1.53868e-05
1.9487e-05
5.37944e-05
4.48709e-07
4.40619e-06
1.31031e-05
4.45782e-06
1.90407e-06
1.33793e-06
1.09644e-06
1.03037e-06
9.0253e-07
9.92064e-07
2.97441e-06
1.8245e-05
0.00014739
0.000171769
0.000131987
0.00011349
0.000107073
0.000103594
0.000103314
9.95317e-05
0.000101584
0.000138165
0.000194678
4.21775e-05
8.90521e-06
6.63509e-06
1.53773e-05
0.000202585
3.91019e-05
1.96863e-05
0.000425777
0.000328986
0.00026914
3.25025e-05
1.73746e-06
9.55182e-07
9.49195e-07
9.13202e-07
7.98338e-07
6.78421e-07
2.96307e-07
1.96475e-07
1.44345e-07
9.2805e-08
9.36423e-08
1.71653e-07