/*--------------------------------*- C++ -*----------------------------------*\
| =========                 |                                                 |
| \\      /  F ield         | OpenFOAM: The Open Source CFD Toolbox           |
|  \\    /   O peration     | Version:  2.1.1                                 |
|   \\  /    A nd           | Web:      www.OpenFOAM.org                      |
|    \\/     M anipulation  |                                                 |
\*---------------------------------------------------------------------------*/
FoamFile
{
    version     2.0;
    format      ascii;
    class       volScalarField;
    location    "0.003900000";
    object      p;
}
// * * * * * * * * * * * * * * * * * * * * * * * * * * * * * * * * * * * * * //

dimensions      [1 -1 -2 0 0 0 0];

internalField   nonuniform List<scalar> 
12384
(
828809
831277
833758
832743
839927
837456
847608
843823
855484
853951
864257
868998
878840
883323
826758
806769
856007
837030
907238
921067
948788
938770
914354
852558
848710
771615
794378
743484
765762
744965
750221
770644
799493
811289
862360
899332
910181
930809
941035
950595
957768
959198
958508
962667
912802
902101
872077
850349
818444
763133
784115
728556
747175
724919
718913
722614
715784
718442
718247
721026
718331
712653
706942
702254
683987
688507
671745
676637
668623
673135
670891
662616
660772
665268
628176
650907
643761
677078
673215
692808
700930
703874
700953
694030
682572
668229
656823
648680
645181
644496
630827
621639
621011
599614
657844
648648
694759
697993
720106
727080
731898
747005
740272
746056
802055
793376
782615
765513
750486
714593
707997
674297
669917
636016
656325
647875
654765
654943
651071
647559
647846
637086
654858
641302
680475
686153
715367
725387
744556
751119
759309
776369
784156
796824
1.00742e+06
964741
918398
873785
845737
842429
808275
821962
805106
821957
820039
831718
856614
859360
860479
857875
849444
832450
820321
790827
789887
762510
769539
759558
760511
756124
747934
743066
732081
734127
721136
717987
725635
734377
727143
705513
704299
738490
704045
703465
699010
651257
659193
615222
625910
595957
603929
582640
589828
582344
583938
589664
595309
604591
614786
623424
622605
621866
597853
600516
1.10078e+06
1.0282e+06
967332
875618
737744
794009
724368
758182
746616
749286
759883
762571
764997
763379
760913
760255
758017
754684
752861
742153
733266
715616
704528
698324
681690
723514
720679
764022
778853
792821
588903
603567
597911
618835
623769
636770
653926
664079
671628
673187
659851
655366
592526
604119
546560
564648
575912
556077
602138
577519
643215
617521
690842
677112
731414
768784
825823
841452
865181
872946
880578
877460
875103
873923
842871
848903
775123
798967
723976
747707
680983
703890
590938
633305
596310
617743
629637
644241
666590
691509
714977
730201
729068
707889
671778
636246
626212
644735
673824
701302
1.55125e+06
1.34818e+06
1.22222e+06
1.05168e+06
1.10474e+06
1.04855e+06
1.06773e+06
1.03227e+06
1.03802e+06
985806
989432
908058
878970
857548
821159
745752
903407
754065
988808
1.01195e+06
1.08238e+06
1.13256e+06
1.14864e+06
1.13077e+06
1.07297e+06
1.00048e+06
945220
947383
1.00609e+06
1.0351e+06
1.1779e+06
1.17581e+06
1.15477e+06
1.15466e+06
1.11235e+06
1.12119e+06
1.07238e+06
1.08187e+06
1.0363e+06
1.04515e+06
994524
1.01949e+06
965654
1.00853e+06
954167
1.07186e+06
1.05035e+06
1.13567e+06
1.14568e+06
1.19072e+06
1.2032e+06
1.22429e+06
1.22969e+06
1.23214e+06
1.23815e+06
1.2286e+06
1.22278e+06
1.22423e+06
1.20321e+06
1.21115e+06
1.26385e+06
1.25138e+06
1.2362e+06
1.23717e+06
1.18297e+06
1.16033e+06
1.07424e+06
1.09664e+06
1.03851e+06
1.06442e+06
1.03871e+06
1.10547e+06
1.08891e+06
1.16183e+06
1.18581e+06
1.22484e+06
1.2233e+06
1.2223e+06
1.20376e+06
1.21603e+06
1.20373e+06
1.23609e+06
1.24072e+06
1.22021e+06
1.19784e+06
1.14682e+06
1.15371e+06
1.08538e+06
1.09897e+06
1.08211e+06
828298
831344
831904
832923
837855
838834
846834
844437
856267
853674
865485
867413
874744
879187
815125
810734
837951
857508
870159
914158
924881
924307
901111
863086
825176
784573
788222
750422
760422
748596
764599
791778
798570
823592
871521
872504
898576
905956
923260
935749
942910
948719
957590
955372
898729
882026
861408
823827
804676
773510
747459
747154
717804
726199
715233
711154
715281
713757
717298
717155
714376
714480
698267
696422
686752
675738
675748
664975
670593
665994
661129
665097
656271
651720
630297
652880
650981
663627
679153
678196
684638
686774
681367
671625
660898
650684
640804
635446
637905
633757
630618
619312
615365
604418
649743
638976
701335
694987
727400
724828
744107
742546
749265
736260
789626
782631
773828
756501
737076
712599
702776
654730
671018
636863
648653
650620
650242
651963
651508
647774
643646
641819
654552
650173
674082
684338
709548
723833
738559
751058
761207
770639
786812
791994
988803
944922
900902
869371
838018
826040
816458
801367
810539
807132
822445
824697
823849
834075
829310
824326
812734
802326
778267
769729
740092
750533
737538
737563
741215
744234
745114
738905
735815
729346
725219
735795
744902
756749
762318
778028
753914
742683
758674
704185
696553
679660
637752
631771
621744
601597
599255
585164
583728
580062
584965
584304
600563
600629
611937
616996
620613
613598
602524
588149
1.09845e+06
1.03775e+06
955427
896746
741829
798364
724471
755230
736619
742697
742297
753909
752327
752563
746850
746831
748131
747767
744443
741316
726929
717941
699312
698519
688318
712499
719942
755305
774174
793766
591673
603566
598049
619264
621590
641647
650958
664257
666618
665807
658227
636507
591979
597473
546780
566654
567128
556936
596820
578531
647390
613571
693763
673364
743532
762020
830160
840118
863782
871434
879796
880567
876135
873985
848423
845259
778709
803061
726204
756466
663361
689028
589943
606266
598092
594727
611165
625026
646019
668348
688606
701837
701639
682708
648548
609555
590839
616620
647012
676956
1.51313e+06
1.32707e+06
1.19125e+06
1.08434e+06
1.06663e+06
1.06237e+06
1.0425e+06
1.03905e+06
1.00832e+06
996140
953800
945796
863602
885378
771734
824211
771998
835360
932266
972873
1.05077e+06
1.09305e+06
1.10791e+06
1.08372e+06
1.03148e+06
938479
883626
877248
940857
1.01014e+06
1.19716e+06
1.18029e+06
1.16451e+06
1.15166e+06
1.11222e+06
1.11038e+06
1.06813e+06
1.05694e+06
1.03585e+06
1.00972e+06
1.01389e+06
975633
981253
980357
966861
1.05198e+06
1.05652e+06
1.12948e+06
1.14716e+06
1.18835e+06
1.20185e+06
1.22263e+06
1.22363e+06
1.23386e+06
1.23069e+06
1.2333e+06
1.21418e+06
1.21776e+06
1.1946e+06
1.20025e+06
1.24916e+06
1.24158e+06
1.23471e+06
1.20439e+06
1.16869e+06
1.15231e+06
1.07251e+06
1.08004e+06
1.04924e+06
1.05807e+06
1.04588e+06
1.10082e+06
1.1053e+06
1.14781e+06
1.18868e+06
1.21117e+06
1.21982e+06
1.22312e+06
1.21094e+06
1.20946e+06
1.22177e+06
1.22526e+06
1.22744e+06
1.21743e+06
1.19279e+06
1.14987e+06
1.15067e+06
1.08731e+06
1.10776e+06
1.07659e+06
828348
829113
832594
831775
837490
839818
841487
848030
849428
855225
859563
865359
868511
872438
814003
812380
843929
832077
875167
873477
908109
905275
889952
848597
826414
784980
784494
752260
768130
769075
764792
799913
819785
835988
853111
870571
874877
898275
912492
922774
937045
943695
936896
931316
881909
864180
837366
804615
784147
772521
727430
733170
720710
707195
707560
712292
708330
712020
711506
712505
713692
703853
696141
693715
675007
678687
662260
666263
660870
656348
662934
655977
649900
650913
635436
656724
651712
665465
661274
673659
664138
660756
657870
648854
638131
630317
624313
623276
620446
627140
624823
617513
615838
608564
646858
638865
694113
695301
720627
738737
742640
755963
748876
763048
777009
771250
760591
746718
727562
696981
695358
655513
654381
645432
641431
639712
647333
650463
651294
649527
650733
649518
653892
661351
664901
689832
701812
720319
736724
742293
761350
768255
778502
789632
945381
913987
879693
871027
813960
829292
800061
808543
803793
808158
811244
812058
805412
800460
800365
788243
779647
763277
755188
728202
728640
709765
720213
726371
722443
728493
729451
733885
736183
738667
753538
759167
762567
760125
771117
779113
792266
774723
760628
765028
699435
673106
668958
619156
631410
602776
601266
595019
596332
590802
592995
590276
595908
606259
606172
612380
607324
607821
592280
575033
1.10349e+06
1.04058e+06
959312
901060
744065
800623
724776
754493
726988
731484
740731
733625
738196
729449
738755
735262
738118
738108
741271
736899
726896
718527
704619
705140
690143
715249
716933
746891
763578
781546
593076
605373
602150
619373
625047
636280
650507
653406
660843
660017
640287
632258
585939
573325
553977
560103
569718
550158
603572
572667
645531
614774
695383
676531
762164
762034
822983
846910
860297
873246
877966
880030
879914
871153
851958
850663
783162
802636
724135
754094
653704
681859
566049
612651
564590
592690
587934
599317
618950
641055
659694
671534
671151
655901
626588
592096
578599
580501
607046
641400
1.47195e+06
1.30395e+06
1.17298e+06
1.09265e+06
1.03793e+06
1.04744e+06
1.0425e+06
1.0073e+06
1.00737e+06
964514
953033
924864
894968
875364
772810
810243
828643
795173
905742
937024
1.00965e+06
1.04897e+06
1.06304e+06
1.03044e+06
964874
859880
783130
777243
845695
902119
1.19525e+06
1.19288e+06
1.16424e+06
1.14639e+06
1.11955e+06
1.08379e+06
1.06226e+06
1.02748e+06
1.00812e+06
1.00765e+06
969716
980811
945239
976548
960892
1.02684e+06
1.06144e+06
1.11547e+06
1.14794e+06
1.18489e+06
1.20119e+06
1.21867e+06
1.22581e+06
1.22716e+06
1.22906e+06
1.22047e+06
1.21076e+06
1.20452e+06
1.19292e+06
1.18922e+06
1.22991e+06
1.21895e+06
1.20426e+06
1.19382e+06
1.1459e+06
1.12768e+06
1.06318e+06
1.07412e+06
1.03592e+06
1.06366e+06
1.04298e+06
1.10566e+06
1.11039e+06
1.15516e+06
1.19578e+06
1.22277e+06
1.2329e+06
1.22987e+06
1.2349e+06
1.2248e+06
1.22638e+06
1.23372e+06
1.22959e+06
1.21667e+06
1.20063e+06
1.15271e+06
1.15313e+06
1.09345e+06
1.10381e+06
1.07538e+06
826283
828988
830447
833559
835425
839755
841658
843960
848029
850119
855503
856842
862383
863952
802897
824728
820738
842952
836702
870719
861484
876508
860585
847801
812721
793671
768328
773937
768906
770711
790065
814431
835175
849276
846723
855976
869693
870451
887198
903908
908597
911780
921205
928185
870765
842114
811594
795158
759695
744813
723017
725512
701831
708381
707356
701313
707768
707029
708328
710760
705012
699257
696324
678084
677644
658865
663924
657521
651947
659367
651890
642364
639954
624278
645659
656198
654168
657952
662279
652525
660308
644641
633230
624734
616734
604274
599756
595822
605711
610038
612624
613950
622980
607428
654421
638808
699532
686718
735357
725900
758728
753047
768354
759077
764522
756356
748013
734413
712387
695291
672679
642504
649998
631616
627809
640955
642369
650067
650696
648139
647248
651356
651125
670684
663497
689168
699375
714485
728251
740309
749125
763697
767798
774079
899450
879702
873271
826812
831865
801312
808899
802903
801682
810830
806934
800616
800109
788823
779819
772023
750728
735560
709325
707681
686047
687162
685449
694527
710217
714466
728784
737636
735103
731015
758817
763926
762842
780330
786629
796960
803561
810511
788276
766336
763181
692129
658919
654949
620816
615474
593674
589211
582990
586291
585336
598113
594389
602563
607070
603029
602379
591001
572949
566994
1.11229e+06
1.04768e+06
968457
891033
759193
803574
727163
752373
721037
729748
716603
724463
702476
714728
702891
706220
713418
730538
735395
737371
731154
730474
712121
707424
706333
717058
719092
737704
754940
768647
602027
599255
608506
623340
627441
637306
641511
651425
648433
637583
633104
612349
563991
568216
554650
547834
558396
549174
596125
579540
629052
625883
700469
679173
785696
786401
823258
854539
872582
870592
874110
880820
880587
878793
854678
852755
791243
807142
720336
754413
636664
674770
564779
591385
560202
548089
566077
576671
591153
604674
618175
628970
630369
620535
599260
581666
567570
571595
586954
597705
1.40737e+06
1.29249e+06
1.11472e+06
1.10038e+06
1.01754e+06
1.04173e+06
999714
999508
958392
957816
919804
920951
884367
876088
778069
801480
751048
816305
846708
906035
958594
1.01331e+06
1.0321e+06
989085
878395
760509
682342
704927
753366
838143
1.21212e+06
1.19099e+06
1.16889e+06
1.13735e+06
1.10584e+06
1.05598e+06
1.05428e+06
987505
983870
948101
970196
919788
937789
930202
993188
987502
1.06987e+06
1.09451e+06
1.15162e+06
1.17345e+06
1.20382e+06
1.21063e+06
1.21958e+06
1.22558e+06
1.21546e+06
1.20594e+06
1.19977e+06
1.19172e+06
1.18505e+06
1.17539e+06
1.20911e+06
1.20157e+06
1.18908e+06
1.16501e+06
1.13564e+06
1.10383e+06
1.06417e+06
1.05976e+06
1.04152e+06
1.03169e+06
1.07702e+06
1.07404e+06
1.123e+06
1.16779e+06
1.20438e+06
1.2329e+06
1.24563e+06
1.23814e+06
1.23329e+06
1.22827e+06
1.23798e+06
1.23631e+06
1.23669e+06
1.22194e+06
1.2094e+06
1.16561e+06
1.1594e+06
1.11536e+06
1.12046e+06
1.07173e+06
826947
828945
829371
833733
834239
838139
838811
840544
842735
845943
846388
849934
846992
852752
805682
806437
822756
818000
838936
829350
859162
847226
850375
830324
807525
790039
786067
768620
770441
792928
805570
836366
848289
845806
852164
848318
861281
870440
877380
891915
903619
906980
902952
886032
860932
825944
806101
782412
744648
746281
708380
719580
700216
702796
698180
699622
708170
704805
712916
707411
705749
695170
677194
678377
649622
655586
645568
640998
648359
640420
632524
635365
626241
629082
653058
655200
655271
651348
652293
652437
638129
638704
621220
607630
596761
587344
584152
585476
584233
591753
598937
608080
616588
619155
650196
648810
694856
691837
733647
735734
756987
773258
773756
788616
752529
745515
739505
717218
702379
688670
641508
643533
621768
616923
629847
626824
642199
648963
654565
660622
661653
664342
659349
672028
667946
691631
692396
711466
718588
733509
742181
751048
764421
769866
837196
851457
821721
833785
802232
809774
798800
800824
811439
811336
807140
803460
795226
784474
773544
759357
741018
720226
700669
680499
665296
657378
660369
671294
686798
704351
703269
710793
718806
726532
755673
758207
768788
776794
786708
800711
808245
811365
807802
786541
753432
757583
674618
661059
639272
633631
635439
618015
617494
602782
610920
601104
607390
600290
599061
600425
582690
571590
570219
560628
1.11707e+06
1.0626e+06
962421
890807
779972
810520
727443
757661
712329
724797
710135
693634
701947
674881
696071
707004
703933
722969
733779
734601
733791
726187
721579
712243
708163
720085
728541
732241
748142
757378
609829
620469
614524
624375
630447
633003
639955
636765
630881
624825
614341
571124
566403
558091
535672
535950
561358
549259
582888
585111
636820
620370
707045
699983
780259
820840
821679
864068
867517
884407
874461
880256
884980
882121
871404
843201
814319
806954
740558
752139
638430
672695
563059
590793
534579
557903
538223
541737
553166
571630
581289
585801
586302
585398
584849
577007
573463
588342
585138
601169
1.35795e+06
1.25031e+06
1.07086e+06
1.05938e+06
1.02867e+06
980423
991656
945640
943417
913271
914000
873182
885316
833484
795926
783633
766073
769079
822913
840604
857076
827314
807401
778880
757154
706934
606075
616239
683053
655276
1.2174e+06
1.19883e+06
1.15835e+06
1.1297e+06
1.08446e+06
1.04118e+06
1.00083e+06
977331
946366
950711
892156
925245
898092
895242
989544
982982
1.05198e+06
1.09366e+06
1.13806e+06
1.17127e+06
1.19275e+06
1.20854e+06
1.21417e+06
1.20903e+06
1.2012e+06
1.20142e+06
1.18045e+06
1.17519e+06
1.16458e+06
1.17711e+06
1.17832e+06
1.17237e+06
1.16485e+06
1.1512e+06
1.1229e+06
1.09197e+06
1.06331e+06
1.0544e+06
1.03621e+06
1.02308e+06
1.07753e+06
1.06244e+06
1.13133e+06
1.16832e+06
1.21256e+06
1.24323e+06
1.25088e+06
1.25168e+06
1.23467e+06
1.22957e+06
1.23771e+06
1.23942e+06
1.24228e+06
1.2311e+06
1.21565e+06
1.18674e+06
1.15838e+06
1.12485e+06
1.11689e+06
1.08322e+06
828677
828220
830838
831711
834191
833171
836682
838421
833255
835465
838063
837800
840114
830905
789455
802316
801583
820106
812997
834040
820441
844327
827647
819318
802028
802158
778308
783239
800009
800547
838547
845051
843688
852278
854010
850977
856953
867035
869788
872582
872914
877492
886620
897401
863178
831183
805101
788964
740225
747717
709723
722468
698383
704791
709880
702639
706298
715152
708931
712640
697908
697902
664338
659832
651482
645392
635877
642667
637303
634721
636785
621070
609911
598541
654421
650634
649366
652730
649960
648224
639550
631878
616791
601245
589123
569292
570430
554911
560957
578577
594375
590209
626127
615917
660561
646260
701763
690103
743871
737470
772632
770757
789846
792549
742988
746601
729609
710524
693390
662667
643860
618912
612143
614764
615040
629098
639943
653135
658590
660278
662151
664248
669842
677043
672305
686947
693958
700778
716112
721357
733436
740548
732879
731929
840994
808640
826491
795654
808102
790699
792099
808933
814321
816230
816162
810397
802451
791888
778770
763820
744243
720886
706512
679756
662750
641874
659118
650985
676091
685779
714188
720756
726037
728078
749445
761241
761027
775113
780793
795435
804727
806510
798321
799901
772022
747796
727006
683030
635270
621333
606602
610245
593238
603989
596079
608085
600321
609839
592320
598748
567729
575967
539729
526329
1.12124e+06
1.06121e+06
955949
907780
797503
804385
739085
758412
705708
716535
672695
677027
655427
676359
662441
677222
694654
719851
727104
737442
744112
745530
740443
732273
723101
719370
731518
736586
738649
750600
631963
622590
632628
628507
630865
631990
627451
623507
619344
617138
571620
567569
559723
533655
539867
539028
547341
571944
555456
613563
616562
625720
730011
708838
786721
824767
829633
862406
874796
886342
874517
881032
886065
888259
876304
859094
825809
821695
755098
765623
659187
680773
572302
604993
527855
544199
528017
535215
548174
552153
558841
569224
581236
583557
582010
587676
597314
585610
598399
587825
1.32109e+06
1.15529e+06
1.05271e+06
1.05821e+06
962548
982484
928485
939032
894360
898535
866292
873024
837113
830874
783405
775293
744311
780017
773866
830922
844931
884828
852045
759299
674166
710507
651382
670804
664292
723762
1.22358e+06
1.19321e+06
1.15572e+06
1.10009e+06
1.05619e+06
1.01919e+06
964273
934830
894504
860822
899446
863238
915056
868034
970019
975074
1.04069e+06
1.08605e+06
1.12836e+06
1.16177e+06
1.18427e+06
1.19542e+06
1.20379e+06
1.19682e+06
1.20095e+06
1.17403e+06
1.17548e+06
1.15952e+06
1.16803e+06
1.16685e+06
1.15059e+06
1.16175e+06
1.15442e+06
1.13761e+06
1.10428e+06
1.09798e+06
1.06249e+06
1.03705e+06
1.04374e+06
1.02862e+06
1.05276e+06
1.05626e+06
1.11392e+06
1.15613e+06
1.20658e+06
1.22905e+06
1.25018e+06
1.23873e+06
1.22242e+06
1.222e+06
1.23627e+06
1.23584e+06
1.2415e+06
1.23689e+06
1.22281e+06
1.20907e+06
1.17535e+06
1.17647e+06
1.15628e+06
1.12897e+06
828794
828911
829538
831181
830045
833698
827784
821344
825936
824220
825323
820100
813863
814287
764736
778596
795401
800955
817144
808554
823140
806421
814074
809922
808861
792090
792410
805502
801945
831771
845037
844574
856862
852652
850536
860142
857985
863143
870482
874563
880190
883646
879002
872159
869908
850311
820487
799712
759911
758292
714977
728259
710328
717010
707585
721117
711504
717805
722146
708775
705463
687961
660309
654702
622512
611161
606360
606810
608469
612448
606443
602131
602026
601912
648600
650491
644468
642679
645951
640026
637011
625803
614926
597405
581137
577194
566256
559356
554783
567691
586551
585034
623323
632653
635247
679141
687812
710112
741614
754995
774350
774964
787446
808607
744474
741818
727610
707483
683128
653109
636933
607579
611603
598629
618429
621688
644194
654269
665336
675198
678407
677345
672002
676935
677256
684289
688733
699768
702677
718422
719954
717696
733617
742998
746140
776473
769502
799274
776768
791995
795615
804142
813677
821898
823370
820358
811815
800751
786395
771224
754432
733475
716797
695408
673527
655850
656290
647901
675148
683224
694948
703251
705146
704846
745761
746131
759264
764338
777863
783814
792100
790645
794003
781002
780193
764075
740007
731610
710457
695705
686489
663703
664958
632615
634474
628693
626864
603662
606158
587829
556598
561052
531739
566303
1.1035e+06
1.03439e+06
958274
899766
796821
811107
757965
740875
703935
707590
659112
663194
660676
642447
658625
658207
699995
706711
726567
740679
749867
745375
739801
741230
736153
726897
725312
732421
732066
728579
646125
645243
635943
635931
628137
630800
624116
613774
604981
571250
565441
561635
533059
536915
529363
534233
551911
551622
569759
621054
591356
679141
723710
727762
798691
826909
835746
861278
870103
885845
878954
878106
888856
886224
881996
859868
842053
821512
777357
774407
704946
688119
613870
606211
562110
550458
514192
519362
518788
538693
547813
558452
574160
575467
590385
593975
595375
606977
596740
622869
1.20499e+06
1.07884e+06
1.08096e+06
964903
979674
902774
930249
881385
895715
865579
870846
830431
830159
799191
788507
761165
773662
750968
796763
771382
799291
747476
768129
700639
663541
615518
643099
672575
739117
772557
1.20992e+06
1.17666e+06
1.14093e+06
1.09001e+06
1.0313e+06
999962
918162
931201
850069
877322
830405
861930
884215
894259
916365
1.01199e+06
1.01703e+06
1.0942e+06
1.11357e+06
1.15611e+06
1.1709e+06
1.18089e+06
1.17714e+06
1.18434e+06
1.16384e+06
1.16332e+06
1.14805e+06
1.16366e+06
1.16433e+06
1.16637e+06
1.15937e+06
1.1421e+06
1.13872e+06
1.12842e+06
1.09659e+06
1.10499e+06
1.0452e+06
1.06465e+06
1.01283e+06
1.032e+06
1.01831e+06
1.03756e+06
1.07665e+06
1.11611e+06
1.16249e+06
1.20255e+06
1.21405e+06
1.21095e+06
1.21859e+06
1.21584e+06
1.20787e+06
1.23263e+06
1.2338e+06
1.23862e+06
1.22721e+06
1.22043e+06
1.20258e+06
1.16944e+06
1.16695e+06
1.17084e+06
830639
830859
829531
828501
830265
820918
817261
825743
820395
819346
812589
818290
815695
813507
721980
762977
796347
803169
804368
811748
801541
816514
814445
811594
800016
801444
812763
807584
835413
849612
848761
864429
854426
854901
864163
856497
866036
869390
872886
876810
884135
884101
874429
842407
895085
867224
845332
816306
784539
765894
739287
735192
720612
710673
718419
717075
733511
723116
724831
722881
696203
698097
644415
655753
601462
620471
607460
615323
617595
611744
603542
599881
587526
593317
635212
638836
640414
637757
636704
638556
630175
624192
613972
592478
586220
574953
562396
554016
553266
569050
571729
580926
632457
614622
655075
674883
698912
720940
747687
765865
775526
771143
751773
762217
769408
759911
735385
707227
679771
648846
634194
605834
610608
611756
614699
634769
647221
664239
671903
673407
677252
679370
682406
677934
681389
685508
686030
694258
701779
704081
709707
724338
708890
695214
771390
764534
777886
748375
760618
762816
788914
796104
808441
818103
825201
822453
817443
805111
791886
777356
765253
750230
737404
712209
691546
672943
657864
649189
669471
681983
695887
701994
712099
716168
738786
745399
748519
763165
767365
778841
778036
784514
776082
774892
769508
774085
764660
743453
710243
688171
675246
668597
646835
670270
651742
629010
623311
627861
594046
597487
555691
545185
558291
545813
1.05897e+06
1.01689e+06
944106
869721
815017
812027
736272
747728
707909
671312
674439
638559
641967
649896
650900
656674
699014
705523
731229
747241
748874
757717
762402
746233
740015
730922
723478
718933
726523
725896
663545
651750
649146
629276
635172
609287
609199
602799
578104
563072
560729
534698
530691
534187
521126
546113
546264
539624
606860
592205
623365
729991
704009
779559
816905
824948
843477
850980
860078
864646
875426
883951
891167
892862
880849
859979
840844
830989
778523
795951
732629
724147
671494
633480
580220
581042
551524
530749
537864
537533
555922
567521
573491
587440
597040
603218
610653
598289
621400
566053
1.10272e+06
1.11364e+06
965780
982246
889732
908909
858049
885658
841312
849490
823523
834837
808276
804546
782515
792976
760287
811699
778214
834281
787906
840704
877378
869969
834958
836709
845162
845792
871311
906055
1.17137e+06
1.14709e+06
1.12663e+06
1.06318e+06
1.04541e+06
955256
944100
883187
846270
848874
845395
843271
884227
910114
925793
1.00424e+06
1.03616e+06
1.07659e+06
1.1217e+06
1.13447e+06
1.16552e+06
1.16507e+06
1.17744e+06
1.1629e+06
1.16336e+06
1.12591e+06
1.1517e+06
1.16432e+06
1.17773e+06
1.17176e+06
1.15723e+06
1.15166e+06
1.14398e+06
1.11828e+06
1.11773e+06
1.07201e+06
1.06523e+06
1.0514e+06
1.00983e+06
1.02562e+06
1.00503e+06
996961
1.01002e+06
1.0558e+06
1.09665e+06
1.13259e+06
1.14905e+06
1.18684e+06
1.18723e+06
1.18313e+06
1.20166e+06
1.20896e+06
1.22371e+06
1.23422e+06
1.23242e+06
1.23506e+06
1.2141e+06
1.22776e+06
1.22093e+06
1.20982e+06
831974
829745
830071
829432
821048
817822
819231
803526
795263
794148
800687
779968
770116
749229
755389
767030
749167
786924
796017
806008
806190
803093
806003
797081
794072
794889
802256
817078
809343
834401
850958
851551
871862
858895
866013
872653
861629
871310
872222
878584
880658
886262
888493
888071
887510
880944
915826
948949
902210
889342
860544
840929
804251
788856
762672
746375
730802
741633
730450
740405
732380
743836
730773
726381
707932
684357
652601
640605
598812
599931
581808
582003
580025
583758
587193
582573
585151
597087
592606
625411
628757
635314
634952
635018
630337
628268
626743
620608
609126
598346
579349
582176
564285
558687
551464
579964
562626
603447
616876
618961
671412
680823
702925
736734
753695
771357
778541
771361
749436
745228
687711
634979
707956
722022
715765
698663
675296
652019
633180
612610
602478
613215
623384
641597
658766
670296
683550
689805
689305
689417
686554
689026
683265
686615
690234
693999
697513
704184
709564
696617
698151
708130
678976
680499
678391
710398
708996
737009
753184
761930
761143
783464
796479
804891
813627
816056
811842
803678
791102
780741
771018
758599
748190
730526
718771
686721
679812
677176
676228
688496
693000
702030
701547
702281
702271
683731
723882
732137
746782
749583
766989
764988
770848
763682
761972
758730
765869
768393
770057
773916
759962
731800
713199
709548
717715
694949
698981
683416
653985
624229
627132
564727
583100
560035
566559
612835
764364
746133
904841
933111
885562
841812
834782
762047
750079
739136
686072
693687
642223
658754
634576
654173
651178
670904
699858
712941
735541
754371
771163
768763
761800
763820
740496
722729
722667
707246
677678
665554
625294
668771
669896
656836
641007
632681
610134
610666
593529
572286
567132
552530
540812
529249
529783
531382
522105
549016
537904
561249
613481
580092
706958
694479
752134
821527
824948
834886
849302
854294
849797
850804
825546
791151
846087
865210
881138
883072
874853
855264
837815
826390
786102
799996
748178
761817
693252
686386
619197
581658
582505
565537
540232
544084
550513
581425
578934
600849
599208
611555
607036
631112
601637
687735
785506
711249
1.04372e+06
937371
977089
890253
900610
857578
871564
828680
849399
827942
834851
812161
815683
797618
812317
780922
830598
796991
849973
832028
876162
915881
854184
886005
865962
849921
842662
908792
967440
1.00518e+06
956654
940576
1.06214e+06
1.0979e+06
1.07286e+06
1.08156e+06
999768
1.00558e+06
901679
903106
847247
827436
845963
854740
875635
951433
939969
1.04638e+06
1.03439e+06
1.11468e+06
1.11573e+06
1.14258e+06
1.14877e+06
1.16607e+06
1.1493e+06
1.14456e+06
1.11173e+06
1.12568e+06
1.14833e+06
1.1748e+06
1.17661e+06
1.21276e+06
1.20422e+06
1.14039e+06
1.1793e+06
1.15179e+06
1.14e+06
1.14191e+06
1.13047e+06
1.08255e+06
1.04816e+06
1.04951e+06
1.02922e+06
1.00789e+06
964625
977498
979027
987941
1.03033e+06
1.06046e+06
1.10744e+06
1.12891e+06
1.14473e+06
1.16006e+06
1.17045e+06
1.18463e+06
1.2041e+06
1.22178e+06
1.23356e+06
1.23204e+06
1.24713e+06
1.24309e+06
1.24287e+06
1.28646e+06
1.28722e+06
1.30377e+06
832443
832041
829749
822488
821474
815235
803223
797718
801717
796343
784205
791075
778653
782082
757054
773528
773204
789660
799275
801647
803693
798741
795804
790987
790190
798902
806167
808606
827866
848708
851316
877383
868249
880625
879603
869166
878300
877013
882222
880244
882432
882358
882809
882595
883073
883576
907993
919662
897729
885775
864143
849223
812006
815754
780631
767190
760650
734858
750627
737348
747930
744507
744829
724633
697578
696719
634741
654204
591429
614166
579448
593772
590850
586495
575334
581138
573541
588860
597399
617694
624552
628471
627204
625943
629017
625186
623269
613053
614139
594124
589117
576958
577260
561979
568515
572504
580587
612534
611607
635842
681275
695159
708034
735551
748742
750566
751633
744704
733707
706970
681026
668820
704996
706045
706361
692375
674340
654354
641838
628248
621056
621359
635163
652082
671249
679684
684932
692315
697603
696569
695150
692045
697567
692064
693889
697355
696985
696100
692611
702961
699806
685522
688285
670597
709280
702335
720117
732997
729710
732060
744810
756618
778446
789455
795274
799702
800363
793867
787005
779261
769891
762077
753988
741248
727276
709144
691522
681535
682837
695151
694475
699271
699929
705638
705499
706722
721658
733696
741819
752772
751537
760657
761372
757970
757150
761725
761005
772881
776023
764603
758032
762428
764083
758153
744014
747704
717388
719639
705118
657913
629153
581982
558452
557731
541569
687613
720698
805218
895001
853331
845818
847248
787579
756486
754847
702868
711548
661779
670634
644288
654156
653768
667954
692855
708070
731753
749071
763213
773920
783934
786652
762824
756286
720260
710923
697957
699341
696808
676213
674193
677365
656751
634714
612009
607466
591911
571594
573928
542806
549323
528593
529433
525858
531231
526574
543551
543837
603021
575399
653559
700927
713558
811263
831573
837886
847121
846462
847358
843105
835500
835006
818648
856334
858611
873986
875520
862751
862346
819078
834554
785787
803530
758602
772565
715888
711158
643341
637931
575856
583743
587558
581432
581001
577139
601400
598140
617002
612454
622784
610118
644889
728942
744871
878434
893728
966436
889704
896555
828896
851404
822853
837084
804697
811335
803904
816685
809032
823279
808622
847357
824143
877454
876937
897683
931452
904355
973416
989777
1.01306e+06
993806
984436
981294
1.01292e+06
1.06353e+06
1.02655e+06
1.03319e+06
1.08352e+06
1.09124e+06
1.08242e+06
1.06469e+06
1.04162e+06
1.01604e+06
946057
937780
899623
915567
875529
902988
929430
940733
1.03076e+06
1.02702e+06
1.10015e+06
1.10987e+06
1.15031e+06
1.18401e+06
1.16934e+06
1.15785e+06
1.15266e+06
1.12881e+06
1.11554e+06
1.10918e+06
1.14764e+06