/*--------------------------------*- C++ -*----------------------------------*\
| =========                 |                                                 |
| \\      /  F ield         | OpenFOAM: The Open Source CFD Toolbox           |
|  \\    /   O peration     | Version:  2.1.1                                 |
|   \\  /    A nd           | Web:      www.OpenFOAM.org                      |
|    \\/     M anipulation  |                                                 |
\*---------------------------------------------------------------------------*/
FoamFile
{
    version     2.0;
    format      ascii;
    class       volScalarField;
    location    "0.003900000";
    object      Xi;
}
// * * * * * * * * * * * * * * * * * * * * * * * * * * * * * * * * * * * * * //

dimensions      [0 0 0 0 0 0 0];

internalField   nonuniform List<scalar> 
12384
(
2.18016
4.4144
5.44799
6.13502
6.1995
5.84191
5.15826
4.91938
4.87251
5.09674
5.52593
6.432
7.93712
5.9177
28.2951
42.3309
44.1887
47.1588
44.2483
44.7291
45.7447
46.4533
48.261
48.1026
47.2495
45.9421
41.7019
41.5989
38.8858
38.7739
39.0343
39.8239
40.8183
39.8978
34.9199
30.8535
27.7061
25.4552
25.3143
26.5979
27.394
22.764
14.5263
7.27301
21.3315
35.6717
45.655
54.305
62.3646
74.643
73.1916
84.3959
80.3162
83.4164
83.5447
81.2811
81.9463
80.5566
79.0244
72.8459
55.592
37.6412
27.9335
24.7204
24.3804
23.0896
23.4593
22.5448
23.1185
23.6912
26.3451
29.646
29.5915
21.4747
46.7144
66.3999
79.9972
93.6798
105.322
117.113
127.615
136.413
144.304
150.995
155.532
159.701
161.723
162.499
163.691
160.874
158.683
152.859
148.886
144.431
144.454
138.503
130.056
113.862
86.838
65.4711
52.6972
42.7717
36.305
22.0652
37.5374
48.7404
54.2116
61.0148
68.4033
80.7563
87.7267
101.895
104.88
123.754
119.778
128.058
132.206
139.703
143.721
147.437
150.016
151.904
153.213
150.92
122.543
106.833
86.1943
70.3312
56.5159
47.6941
41.066
34.3895
28.2083
18.9706
27.3978
42.2791
53.8974
61.0004
75.8245
89.2666
98.8214
101.877
103.786
97.018
97.4074
96.908
94.8619
100.19
104.828
110.611
117.144
126.474
132.163
143.008
142.241
148.115
140.99
140.758
131.996
113.888
76.5171
47.8495
36.9247
26.9882
39.5103
55.083
61.9944
66.9424
80.8779
97.527
98.3947
90.4128
84.7032
83.8155
83.2269
80.8893
81.9725
80.9845
81.8695
82.2479
83.535
84.386
86.5471
87.9821
89.5069
89.4143
88.2939
85.0488
79.637
72.6408
64.6323
59.2062
52.3772
32.7204
13.5687
23.0776
29.9886
38.779
46.9157
38.77
29.6896
31.3702
41.8097
51.0072
56.9039
64.6044
72.2123
82.9676
87.1325
91.0205
90.3618
88.8649
86.5459
85.557
83.7585
84.2311
82.494
80.0015
78.5853
63.9821
56.0178
40.0496
27.3617
14.3416
6.53878
9.97241
12.443
16.2991
17.4729
24.7
30.0498
34.9715
42.1614
49.4352
57.2679
67.0362
75.2003
84.7161
91.2665
92.5665
92.998
86.5873
82.0663
71.8441
62.9151
49.0667
36.1949
25.5694
16.3997
12.9527
9.79236
6.46417
4.95033
3.55995
2.91217
3.587
4.00284
4.7965
6.42318
8.76787
11.524
11.1419
9.23496
9.22816
13.287
24.5775
40.6136
57.9036
79.8552
108.73
137.789
163.705
171.262
162.656
153.594
146.253
144.383
148.483
159.612
164.49
146.072
124.443
92.4629
39.6934
3.14178
3.24297
3.526
4.84266
5.61483
9.19971
9.85011
12.3124
13.0165
12.0379
11.0272
11.6318
10.2496
9.44294
9.5223
12.9583
13.3853
34.3996
25.9627
37.7293
44.2036
53.9096
65.5215
81.463
104.234
121.084
106.126
73.5058
32.6785
13.6099
5.02559
5.25162
5.08301
6.15411
7.96583
9.97327
14.9143
18.1995
22.5576
25.8115
33.2893
37.4112
50.2887
56.5771
70.5859
57.0322
58.4042
47.6838
41.948
34.1065
26.837
18.2406
10.4784
6.70226
5.32793
4.77868
4.35877
4.00654
3.56353
2.7362
4.86339
5.08546
4.60282
5.65985
8.05209
10.4649
13.2396
13.2883
14.2333
13.6986
13.8526
12.9392
12.048
11.5953
9.84349
8.9402
7.70333
6.98135
6.64766
6.03316
5.69305
5.26214
4.93236
4.81541
4.75574
4.42432
4.41769
4.02459
3.57912
2.97076
3.32544
6.87299
9.06099
11.207
12.7623
13.1503
12.102
10.8194
9.44034
8.68616
9.01511
10.5045
12.4216
14.4952
37.844
38.4662
37.3195
38.3245
41.0023
43.9338
47.9119
52.3806
57.04
61.2325
64.5706
65.8413
62.1305
59.7525
54.0651
50.57
46.9487
45.4846
47.3962
48.2712
46.8575
44.9655
39.0979
33.7441
30.0627
30.2941
33.0139
32.6491
22.0049
13.4284
33.0091
53.395
64.571
78.5157
91.4793
108.692
124.455
131.631
142.968
134.623
129.466
120.416
112.538
108.698
104.753
101.35
89.1813
65.2848
46.3549
33.6971
27.4409
24.3705
22.4202
21.6592
21.5387
22.9653
27.8383
37.5168
45.0617
38.5958
56.0613
76.2628
93.5522
111.07
129.176
145.172
160.514
174.081
185.342
194.774
202.772
209.577
215.387
220.371
224.578
226.107
225.292
221.932
217.544
210.274
204.852
191.319
174.82
148.027
112.477
78.5224
63.1523
49.0853
40.1274
36.2156
38.6924
42.0251
48.4369
57.2858
68.7184
83.0451
97.4427
123.697
132.216
155.236
158.099
164.741
167.933
170.194
173.464
179.73
186.721
191.238
182.888
180.391
156.958
141.709
122.075
106.2
89.6846
73.2811
57.1856
44.0434
35.4879
36.2946
47.0422
53.4058
70.1773
89.0809
99.2439
99.1828
83.7034
77.8495
72.4978
72.3623
72.3683
74.36
77.7636
78.6683
81.5654
84.0959
89.2923
95.7656
105.423
113.812
126.917
128.339
136.674
140.908
142.533
136.855
105.926
71.0047
56.6154
59.9688
54.2496
59.2104
67.8353
78.2592
97.6471
106.247
96.6083
89.323
76.1186
82.3289
78.8416
75.3823
71.9376
70.1468
69.9657
71.6544
75.0125
79.9119
86.7576
94.4049
101.862
106.45
107.796
104.122
97.9228
89.8714
81.9942
77.0715
74.8561
62.1517
25.5526
33.8464
51.4881
74.2029
87.3079
87.6051
101.47
113.16
127.347
124.698
123.294
122.758
123.539
122.625
118.785
112.021
102.416
92.814
83.7257
76.1861
72.2062
69.4328
70.0936
68.8136
70.9154
69.2109
69.5915
64.7442
55.166
38.4425
11.7725
11.7785
21.0271
41.3729
69.6189
88.9013
94.5644
107.017
121.722
134.778
144.803
151.026
151.59
151.464
142.419
134.894
123.404
109.742
98.7517
84.7001
74.1783
59.379
48.2964
36.0766
24.1043
14.792
8.48697
5.54288
3.71001
4.55099
4.37972
3.30028
4.59147
7.25544
12.8425
20.6621
29.7523
34.7783
41.4126
55.1325
92.2452
129.177
181.432
203.863
215.725
221.607
222.449
210.864
188.437
167.83
151.314
139.517
133.194
129.641
126.345
128.709
140.689
141.335
131.689
90.531
4.97457
3.65257
5.6502
9.59044
14.6185
20.9615
29.342
37.6739
48.5426
57.9373
64.3902
63.32
65.4974
59.7905
70.8928
61.9765
67.3675
58.4196
49.9815
53.1494
59.1597
72.1043
90.3709
118.591
154.282
202.306
219.646
189.349
111.257
58.6325
11.4781
9.08725
13.8633
23.3145
37.1248
56.6708
69.3822
75.2809
81.9078
91.7596
98.3485
107.034
106.605
103.338
95.5134
77.6256
66.2337
52.4351
42.382
32.2798
23.2756
14.7795
8.1516
3.90751
2.76963
2.4589
2.37258
2.26393
2.25683
3.48538
10.756
7.15385
9.50964
12.8946
16.4404
19.2097
22.6571
23.3575
23.303
21.2783
19.1721
15.576
12.7669
9.81244
7.57294
5.54915
4.67653
3.82203
3.4447
3.13192
2.84983
2.61629
2.44084
2.39462
2.31368
2.51339
2.37784
2.47211
2.23193
3.47216
5.56923
11.527
13.829
15.6626
16.9984
18.0619
18.1329
15.2523
11.9656
10.0133
8.99541
10.0913
13.9954
22.1894
27.3515
34.9413
38.5547
43.995
46.5321
51.8962
54.4794
59.9184
63.4445
69.6815
71.4065
73.5992
68.8402
63.8076
53.542
46.5343
41.9682
38.3133
37.8998
40.3515
43.7515
44.688
41.9061
35.1768
29.7036
28.6442
31.6761
34.1323
25.8848
16.4857
41.6533
71.8334
78.0134
86.5282
94.8034
104.648
126.307
133.128
146.32
157.784
154.707
144.282
134.432
123.766
115.313
109.639
101.075
89.914
68.9369
48.7452
36.6045
28.8024
25.5965
23.0724
21.7249
21.4835
24.0554
33.2056
49.4752
46.8777
65.1115
103.928
120.513
133.021
143.241
154.051
164.148
174.394
184.154
192.439
199.837
206.451
212.427
217.666
221.326
224.278
224.303
222.442
219.439
213.695
209.389
199.062
187.564
166.755
141.966
90.3781
74.3419
59.5951
48.8612
42.5571
39.1215
49.3011
55.6075
62.1009
70.1713
82.0855
90.4957
107.384
117.329
127.335
137.317
144.015
144.933
145.109
145.611
147.551
150.038
154.428
153.403
150.135
142.603
126.834
117.775
107.613
96.9187
85.0443
67.6328
52.6199
41.178
47.596
63.3709
66.5573
83.1129
95.1609
99.8357
81.8059
80.506
80.227
86.4912
93.1935
95.9242
96.095
92.3337
83.1134
74.7944
72.8133
73.3388
76.5138
79.8793
88.7184
92.7418
103.651
106.208
111.877
123.321
131.946
122.287
86.611
58.5353
63.6046
58.0801
60.6389
74.0787
89.2401
102.745
99.1069
74.9866
74.0625
80.1877
83.8435
82.6904
80.7281
81.6106
81.5908
85.6438
88.8348
91.459
94.5491
97.6045
100.748
103.765
104.991
104.296
100.326
94.2346
88.4255
83.5763
81.8692
87.6729
76.6957
34.0903
41.0637
61.6762
87.9422
95.7975
92.7915
109.514
111.599
120.953
120.434
122.014
127.685
131.528
134.142
129.766
122.663
112.905
104.524
96.0484
91.1277
88.1527
85.1755
80.401
70.5967
62.8194
53.2595
52.5197
55.0363
53.9169
38.1439
18.1782
19.4189
32.0315
54.3668
79.1964
89.3898
97.9981
111.734
124.984
136.082
143.629
150.182
150.804
150.42
145.998
141.836
135.438
125.993
120.437
108.979
101.345
85.0364
71.26
55.2923
42.0102
27.5025
15.5429
8.06678
5.28349
5.86613
4.9785
3.61447
5.24283
9.06963
15.885
23.4773
31.0713
35.2458
44.3059
58.3435
92.1953
113.964
169.15
168.544
198.25
186.804
187.753
185.253
176.956
171.998
171.968
175.469
180.834
180.005
164.531
142.167
116.911
115.091
128.236
100.389
5.40904
3.94857
5.92954
9.27897
14.2145
19.9856
28.2485
39.4748
49.9274
62.8977
71.723
69.3841
61.1885
56.0913
67.1339
62.6466
62.1132
66.8888
62.9346
72.7378
85.0957
106.98
139.833
194.172
252.451
297.912
265.629
236.962
199.732
90.1504
13.8571
10.0939
16.7284
28.9176
48.6399
62.2568
73.1701
87.4351
103.157
117.075
138.031
149.284
165.836
150.979
143.195
118.183
99.2396
80.4591
65.3533
51.385
39.6831
28.3334
16.5953
7.75952
3.80448
2.67152
2.38018
2.16076
2.27516
4.48509
14.0379
9.03438
11.9101
15.5313
19.3146
22.9735
26.7942
29.0954
29.7308
24.2287
19.9379
14.8973
11.7363
8.98345
6.83178
5.32332
4.20131
3.45132
2.9357
2.6257
2.40396
2.22272
2.11709
2.03135
1.95547
2.04291
2.07257
2.47198
2.38456
3.92601
7.3222
13.2066
14.1466
14.6312
15.3667
16.7835
18.0223
17.5081
14.3346
11.3492
9.73965
9.79572
14.1185
29.1109
29.0283
41.5117
48.0995
52.4655
55.7026
55.3198
57.1645
57.7513
58.6826
59.4478
60.5514
62.3754
63.2901
57.8387
49.9812
42.3434
35.6379
31.8081
30.7766
33.763
40.44
43.9384
41.3434
35.0331
28.5388
27.8271
33.377
38.0771
30.1899
19.565
49.4396
82.912
85.2034
84.8398
89.9963
96.553
106.568
114.34
134.029
144.566
149.676
149.477
144.482
133.519
121.498
112.245
109.238
103.373
85.0907
63.0008
44.5997
36.5857
31.1628
27.8738
25.1738
23.5228
25.0171
39.0499
67.7074
52.9379
84.5249
134.69
144.055
146.627
147.915
149.984
155.583
161.273
168.425
176.073
183.497
190.127
196.575
202.192
207.427
210.216
210.334
209.484
208.17
204.504
205.492
197.701
192.871
175.362
155
104.231
76.0873
70.2962
56.0045
51.8667
47.2758
56.7782
58.7639
64.5067
75.7225
85.2402
94.6277
105.386
106.319
115.101
118.443
117.77
120.979
121.99
123.087
123.369
124.406
123.798
123.415
118.157
116.1
106.295
103.192
101.729
99.0483
91.4138
77.4601
59.6728
47.3032
57.5242
84.3016
78.8464
93.5093
106.79
88.6228
84.5446
83.5409
93.0657
109.215
115.343
117.554
109.94
94.4715
81.746
75.18
72.4265
71.4265
68.9841
69.2532
68.5694
73.8415
77.5986
85.4351
93.0562
103.297
120.952
123.588
95.8518
64.6016
66.7166
63.065
63.7338
85.0626
99.5968
103.085
80.7047
68.2697
68.034
76.7392
89.9815
89.9315
89.1258
92.2937
97.5213
102.186
105.986
105.781
105.522
103.957
101.688
99.6339
97.6072
94.811
92.4664
89.2924
86.5995
85.6321
87.7316
101.716
90.0028
39.8546
44.7802
66.4371
93.2687
103.775
90.0212
108.374
109.001
117.34
118.753
126.958
133.106
146.863
148.607
148.463
141.906
128.864
113.573
104.362
98.7083
96.342
90.8923
84.2897
71.196
57.9963
46.7389
45.6679
54.2269
59.8521
37.6083
29.2353
32.634
49.7702
73.1528
90.0482
92.9055
102.917
115.204
124.956
131.843
137.457
141.234
139.981
140.375
137.937
134.936
131.924
128.227
127.604
121.473
116.807
104.45
90.4175
71.1562
51.5824
37.9131
21.0431
11.5467
6.95785
8.01892
5.67283
4.32892
6.55932
11.6497
20.2875
29.6336
37.2106
41.1388
48.0369
62.1012
91.1269
99.1598
132.084
135.05
149.587
158.52
154.315
149.882
150.991
160.037
178.124
200.515
219.598
219.632
204.63
171.425
126.453
108.492
130.165
77.2447
6.57835
4.73518
7.38663
10.7838
15.81
21.679
32.7133
45.9221
62.6082
77.3249
92.7716
91.2
79.6159
65.828
75.9863
74.7116
84.9329
78.21
81.1965
89.9893
108.422
132.456
185.489
280.167
372.701
347.688
247.812
229.624
268.643
118.944
16.1828
12.7339
22.6153
41.4562
60.3275
72.1982
84.1592
103.742
120.888
144.543
156.028
172.121
166.93
162.634
139.888
136.139
114.142
101.961
83.4412
68.4436
54.0444
41.9233
28.8447
14.9849
6.62187
3.98072
3.16119
2.6166
2.53284
5.23844
18.6535
12.9048
16.9655
21.5378
25.9319
31.1913
33.9823
32.8648
30.0599
27.0268
22.5323
19.0986
14.8034
11.7775
9.00462
7.13223
5.01548
3.78559
3.17294
2.81399
2.55745
2.40024
2.27327
2.16655
2.05952
1.96592
1.90056
2.22956
2.51289
4.47566
8.59006
13.9031
14.0885
14.0664
14.4405
15.4474
16.6562
16.9343
15.102
12.0859
10.4651
10.0994
13.3793
34.6902
40.7983
57.587
63.4001
66.4169
61.3565
58.1118
52.0524
50.9787
47.5868
44.6848
41.2747
41.6747
42.0977
42.9915
39.058
32.935
28.3112
25.655
25.9727
30.8502
38.5223
42.4663
38.2662
30.8301
26.4714
28.911
39.1066
44.5945
36.4701
25.9663
61.8121
93.9224
89.9258
84.2429
83.0376
81.0529
89.8994
95.6424
111.612
126.068
131.194
134.675
136.167
129.797
115.301
111.568
109.291
102.189
80.0955
58.1152
49.258
42.8391
39.4498
36.0153
31.4817
28.8623
29.4184
39.7899
79.7492
67.0435
109.807
153.838
153.191
147.278
141.527
138.316
137.228
139.798
143.242
148.104
153.531
159.09
165.133
171.407
176.567
181.135
184.013
185.529
186.616
187.362
190.196
189.387
188.552
176.194
157.919
106.104
77.6998
71.348
63.835
55.649
59.7402
57.4445
59.1861
74.4189
87.8359
91.8548
99.1431
93.507
96.2417
96.8499
97.3955
98.7337
98.3496
100.607
101.074
98.7473
95.8552
93.6408
92.4139
88.2647
86.8144
83.9446
89.4736
94.5943
99.6967
95.7898
84.2865
66.2541
51.5027
65.8733
111.2
97.2032
106.461
106.466
91.6497
84.9327
91.3062
108.789
127.126
134.384
130.39
117.192
102.276
91.3702
85.8904
82.1286
77.4914
70.9668
63.7415
57.6361
55.5796
60.0739
68.8718
81.5342
93.7208
110.266
126.311
105.52
68.8468
65.0837
69.7376
71.9539
95.199
105.103
93.3811
72.2883
67.2157
68.9754
77.7278
93.2773
95.3436
100.779
106.263
113.936
119.226
121.945
121.76
119.287
115.052
108.717
102.775
94.545
88.7003
85.4344
84.9719
86.8496
88.1539
94.2937
116.435
100.105
44.978
46.4682
68.577
90.5818
92.8669
87.0012
105.59
105.291
113.867
115.461
124.645
140.477
150.978
165.708
166.113
155.744
147.176
127.532
111.656
103.827
99.201
96.5319
86.6945
73.5424
60.6512
50.3429
48.0081
60.85
70.2909
40.6969
42.5839
51.258
70.4491
89.2556
96.1466
97.4701
107.527
116.373
121.822
124.368
125.6
122.918
121.562
120.365
118.141
118.197
120.584
121.333
124.886
124.986
124.707
115.567
105.193
85.6816
61.7113
44.6978
27.8957
14.9348
9.72492
11.6648
6.62508
5.53275
8.24395
14.5967
25.2831
39.1254
47.6447
51.2751
51.9267
65.3212
86.7172
90.1663
106.2
105.913
116.993
111.753
115.678
121.021
129.458
141.221
169.381
205.618
213.457
216.6
207.93
186.568
150.619
124.129
130.264
66.0063
8.01345
6.07567
9.53678
13.4489
18.4458
26.3562
36.8205
53.5899
70.8214
90.0049
106.282
118.582
102.854
85.7651
82.5982
87.56
92.2215
89.8976
89.5303
108.08
145.952
223.815
337.595
397.746
429.361
362.876
246.107
236.986
326.439
135.967
20.1066
17.1405
31.0187
56.4608
68.2384
80.4381
98.29
113.993
133.867
141.959
152.978
138.506
135.858
134.469
114.201
118.855
112.432
108.91
96.9402
80.5235
63.9496
51.3417
39.9893
25.3149
12.2486
6.48473
4.61367
3.76036
3.03444
6.38026
25.8497
19.8216
24.2227
28.7274
32.1322
35.0743
34.7149
35.0519
33.9819
31.775
27.1924
23.7045
19.0946
17.2459
15.2415
13.1389
8.49306
4.52317
3.25302
2.86025
2.63017
2.49968
2.40534
2.33937
2.27329
2.16332
1.99816
2.0162
2.50582
5.05331
9.9218
15.174
15.1751
15.7245
16.9151
17.5964
17.405
16.4815
15.0094
12.397
11.0012
10.7593
12.7722
38.772
52.8779
73.0754
85.0711
83.0231
73.779
59.7991
51.9147
45.7868
41.9686
36.5066
30.7099
27.1698
26.9777
27.0448
25.9618
24.2036
22.4964
22.6224
25.8441
33.0503
39.3132
38.6645
31.4276
25.954
27.1284
37.9474
53.3262
54.3231
43.54
32.0798
74.2487
96.0593
91.5493
81.2732
77.426
69.0743
77.8628
81.8547
100.707
110.416
117.748
123.231
123.892
115.989
113.211
110.032
99.586
73.2894
57.6664
55.4398
56.8307
60.9029
59.3676
51.2187
43.7975
37.2538
35.0285
48.7471
97.4361
74.2214
134.84
160.261
152.705
140.267
129.935
123.949
120.866
120.735
121.45
122.432
122.661
122.376
123.413
124.457
128.006
134.338
141.865
148.041
156.214
160.817
170.819
174.993
179.948
171.275
145.816
97.0164
75.7417
76.6339
68.6154
61.1552
71.0979
53.1333
66.3653
89.1993
98.6357
94.5334
84.5751
77.4336
72.5952
72.5271
75.3461
77.4462
79.6453
81.5653
80.8516
76.643
72.6119
68.2615
64.4429
63.5366
68.0907
74.3459
84.6104
95.9274
101.764
100.665
88.5326
69.6919
60.5653
80.879
124.451
108.436
116.265
115.999
89.5341
88.6168
98.6205
118.835
144.547
147.8
139.406
128.468
116.314
105.41
99.0829
94.1663
88.6263
81.3312
72.3935
64.788
58.0201
58.0308
64.0485
80.9279
92.8153
111.146
113.96
99.1278
68.46
59.4417
78.0199
81.5686
105.509
108.237
85.8754
71.8304
68.0475
72.579
82.4412
92.0057
102.897
109.917
119.858
127.93
131.526
132.983
132.62
130.64
125.751
120.06
111.442
101.141
90.2168
84.7676
84.0363
88.2135
91.4164
104.693
132.87
108.493
51.1623
48.424
70.6589
84.7666
86.4831
85.6439
99.8998
99.8598
108.361
108.21
126.87
130.991
144.434
147.751
148.038
152.987
159.973
145.221
123.272
105.23
98.0175
96.172
90.7382
77.2638
65.0039
55.1667
52.4252
64.512
80.1183
47.2403
57.8891
76.7899
94.3543
104.256
102.123
102.069
109.932
115.731
117.618
116.212
110.166
104.525
99.5197
94.7401
94.8756
98.4696
104.956
112.216
116.805
124.183
124.86
121.457
115.245
97.2002
66.8728
56.8796
37.3581
19.3497
12.1236
18.2676
8.74215
7.34621
10.1686
16.7361
28.3628
43.5056
57.2852
62.23
54.1566
65.9013
77.5982
89.4683
93.5813
89.3767
97.7245
91.7347
94.237
95.8377
101.059
116.843
145.499
186.247
198.884
203.895
198.261
184.6
165.335
140.063
130.747
67.2982
10.7047
8.98987
12.2921
16.1507
23.3678
28.2911
39.3092
53.8555
75.1185
92.8363
114.633
124.305
125.76
102.303
91.0448
89.8453
94.0382
85.6174
96.1409
119.146
169.158
222.824
334.127
388.582
417.903
374.992
266.285
269.02
360.419
113.659
26.3275
23.7398
38.9586
63.537
74.5033
87.6925
107.169
124.203
140.112
142.015
118.559
109.6
96.6724
101.828
92.488
99.7576
104.801
108.708
105.566
89.5709
70.4819
57.4658
48.8198
37.1738
21.7514
11.7989
7.2603
5.61514
4.29376
7.95057
34.2932
28.4253
32.0195
34.6816
34.27
35.5468
37.5117
39.9858
39.418
38.6738
35.029
32.1156
28.9871
29.2962
29.0023
26.5513
18.6365
8.51658
3.63586
2.8075
2.56044
2.47577
2.42487
2.43378
2.44023
2.41316
2.18178
2.00167
2.57323
5.18239
11.2059
17.061
18.0075
20.3192
21.9386
20.9533
18.9265
17.0253
14.9846
12.6104
11.4139
11.3448
12.9808
39.2839
59.4673
85.2321
107.896
110.012
91.2091
73.0945
55.3226
48.2566
42.8738
37.9899
31.0784
25.9182
22.9281
22.0537
21.9385
21.8972
22.8174
26.6853
31.9107
36.1529
34.4205
29.0547
25.8262
27.7433
38.3333
54.0434
60.1002
55.3468
46.1586
40.6457
84.3
87.2353
85.552
82.0611
79.2434
75.8446
84.6827
84.6897
95.0599
99.9968
111.591
110.74
119.254
117.318
110.794
94.2889
60.0961
58.0951
70.6347
91.8153
90.3859
87.4783
85.9415
90.778
69.0613
51.0615
45.9489
62.0714
111.589
82.6433
159.443
158.65
142.687
127.652
119.487
115.716
115.371
115.45
115.323
113.267
108.377
102.703
95.8821
89.984
86.213
86.7406
94.6033
106.509
121.402
134.718
148.726
158.952
169.353
163.357
117.32
84.655
78.3539
80.8237
66.9904
59.8025
75.8973
52.7124
80.3125
104.82
104.366
88.3016
74.5052
66.4799
56.8533
55.4199
57.8737
63.7088
66.0264
66.0245
61.4931
54.8511
48.9729
48.2775
52.5082
60.4471
71.6247
82.963
94.6248
103.304
108.077
103.032
90.4482
73.2132
65.4331
89.6895
133.088
120.837
122.687
113.764
92.1139
85.4851
98.9277
125.472
155.149
161.09
151.433
140.071
129.229
119.591
113.893
109.001
103.356
96.7614
88.8082
82.8082
80.1346
80.5716
83.5936
95.0253
99.8145
110.418
109.404
90.5263
69.3137
58.3035
88.4027
99.2784
113.86
107.291
83.5838
73.7496
72.6417
77.7173
83.1835
93.7435
104.262
114.06
125.279
135.746
141.235
142.265
141.142
138.3
135.106
130.855
126.088
116.502
102.796
90.8612
86.8542
89.7825
95.1641
114.253
148.904
127.886
58.9816
51.9777
69.9759
88.6261
91.7144
81.5845
90.1999
97.3587
99.5179
98.3516
109.11
106.896
102.994
110.247
120.148
133.823
149.061
160.107
137.921
106.597
95.4373
96.4542
97.7232
88.9072
75.1594
61.2873
55.9413
66.5943
86.9704
60.1738
80.6856
106.005
116.745
114.639
106.048
105.035
110.589
114.226
113.824
107.618
99.7592
90.0359
79.7062
74.1594
74.1339
81.2606
92.4628
102.475
111.665
120.455
121.834
126.241
119.55
105.694
69.3417
63.2966
55.5485
25.9718
16.0392
21.7518
15.6214
10.8251
12.2087
17.767
27.2582
42.3939
58.8158
71.7064
60.8927
67.0233
66.7835
84.6756
84.5758
89.5567
83.6883
79.6346
87.2248
84.6907
91.2316
97.7837
119.475
153.618
177.34
184.579
183.511
169.512
153.876
143.229
130.127
105.815
19.5039
16.8249
16.8853
21.6885
26.2674
33.9396
37.4268
50.3582
61.9433
82.8716
103.692
130.261
126.339
115.131
95.3944
89.5387
81.6458
79.9966
78.8263
114.465
166.438
264.044
305.756
358.477
409.493
361.94
274.795
275.884
363.02
100.486
41.1142
37.4859
48.8968
67.1953
78.7076
93.2199
114.768
122.674
138.69
114.8
99.9459
80.2457
68.134
69.7275
77.7765
84.1956
101.041
106.695
109.928
94.5032
74.1875
62.0514
57.002
50.3595
37.2318
21.8359
12.8731
8.94309
6.89955
11.4379
43.0627
39.3651
40.1932
36.5137
36.2122
38.141
43.5704
45.4578
49.1514
47.6442
46.5778
44.8293
44.5045
46.6012
47.8363
45.085
35.2716
18.492
6.05049
2.94778
2.4704
2.33956
2.33345
2.40146
2.50291
2.64497
2.45812
2.22522
2.81593
5.66667
12.6564
19.696
22.3221
25.4406
24.5443
22.4783
20.5644
18.232
16.0272
13.593
12.1424
12.0423
13.98
41.8887
63.0486
91.7636
125.367
131.591
121.462
94.2521
69.5845
52.4221
45.8171
42.4665
39.3901
35.3087
31.3325
29.5733
28.5561
29.773
31.8133
33.0531
33.0456
31.1404
28.8201
29.0787
34.184
44.399
55.9782
60.7653
57.1507
48.9763
49.6505
58.5624
87.1067
75.1086
75.2146
78.0918
80.1857
80.5199
82.1018
82.8437
86.4229
99.4485
106.201
121.467
118.933
118.926
89.2673
67.5784
77.7405
108.635
112.763
118.545
113.511
106.028
97.3317
100.477
99.6595
70.806
62.5703
90.9829
125.507
95.7203
179.555
147.445
127.94
117.752
115.75
117.243
119.479
121.763
122.427
119.916
114.578
106.75
97.9867
90.1562
84.7336
81.27
81.3962
90.1021
98.6423
121.161
126.21
144.543
148.184
130.089
98.3751
87.0054
86.0799
70.6824
63.1005
63.8892
74.1449
58.3088
98.5239
120.464
108.609
88.63
76.5313
71.7267
60.7339
53.9574
56.6441
58.1327
57.6666
52.1372
46.6818
45.1907
49.937
60.4204
74.7592
89.0965
98.9463
105.783
111.931
113.604
112.592
104.126
86.0713
71.9666
83.6532
110.552
145.997
134.001
131.331
122.545
88.1635
83.5505
92.9787
118.485
146.153
168.337
164.066
150.605
138.7
131.652
128.719
126.109
120.742
112.975
104.571
99.9816
97.8549
98.0796
102.396
108.149
106.058
102.477
91.9997
79.4045
70.8801
62.7598
102.499
115.859
120.437
104.048
85.5193
77.7901
78.5934
80.1376
84.9345
90.1211
100.364
112.652
122.19
132.154
137.117
137.691
136.695
135.078
132.99
133.468
131.784
128.132
119.993
108.477
95.3841
95.0559
101.641
125.217
170.341
142.452
71.0123
57.4606
71.2477
101.818
99.7179
80.0728
92.4799
89.6304
92.9953
93.4191
90.3893
83.2053
71.5419
64.4608
88.3865
116.43
137.342
150.989
154.238
108.13
92.3888
92.3569
101.058
99.8893
94.0964
80.0299
66.6669
70.938
97.2557
76.1136
113.366
141.419
136.537
121.229
109.032
105.152
108.934
111.978
110.328
104.693
96.6005
84.539
73.9388
68.1062
68.1145
77.2255
88.7145
99.6933
111.721
116.57
122.333
127.899
120.763
106.466
70.6192
63.1788
61.0463
36.0826
21.1688
27.3058
39.3278
23.5036
16.5189
19.0101
25.403
36.5875
51.8699
70.6062
74.8068
70.9983
65.753
73.165
77.7595
84.9137
90.2365
81.8128
81.7748
84.9545
84.6333
88.4983
95.9967
119.821
153.832
164.686
167.509
155.895
136.669
122.849
123.541
164.326
59.3212
39.7451
32.8218
30.5143
36.4874
40.532
43.2099
47.272
59.9427
69.7643
87.2293
98.4311
113.58
107.189
96.375
82.1287
77.2802
64.4006
69.1445
85.2855
150.424
187.016
223.707
338.775
417.01
392.183
216.292
214.094
257.904
118.746
83.1769
75.3225
65.679
70.3384
77.849
97.9665
107.488
124.604
123.875
101.132
76.8786
57.4153
42.32
49.4032
67.8073
80.5051
98.1542
109.027
109.182
96.4901
74.5954
65.6159
65.7136
70.5189
61.8713
40.2833
21.7013
14.1085
11.2209
17.6385
58.1332
51.935
46.0876
38.5325
38.3366
44.0872
48.9667
53.0739
56.6276
54.8369
54.5745
54.8276
56.387
59.177
63.4157
64.1878
56.2229
33.6289
12.5054
4.23348
2.52342
2.20762
2.16469
2.26219
2.4139
2.68588
2.91293
2.8235
3.72768
9.6016
13.9793
22.1982
25.9409
27.1174
25.7822
24.8202
24.0193
23.1605
20.2875
16.8477
13.9836
13.4504
15.09
27.0505
43.98
51.9929
56.9983
89.8656
129.508
137.415
141.097
128.896
92.0512
66.585
53.2844
48.0003
45.1806
43.3704
42.6906
39.893
38.1474
37.1366
36.0183
36.3983
36.104
38.1692
42.523
47.6213
54.5298
61.4661
66.6112
62.1658
57.5319
64.1564
72.9917
70.538
74.7483
81.3353
66.0084
65.5493
66.3268
67.0843
69.5304
69.7974
72.6664
78.2302
87.9313
97.1689
113.469
116.889
112.682
91.8403
85.0672
102.318
134.701
144.643
152.112
156.925
150.486
138.33
124.399
119.75
120.971
104.39
105.653
134.419
141.552
133.687
186.842
197.709
145.481
126.399
115.152
113.856
116.831
122.105
127.621
132.142
134.575
134.292
129.338
123.296
115.644
109.535
105.52
105.379
103.89
110.138
115.315
130.434
120.545
135.868
129.08
111.724
105.077
98.4736
85.7205
81.4945
83.899
71.5075
77.2236
94.7928
81.1453
101.884
133.574
146.596
126.379
101.39
87.6131
82.9954
77.8781
69.9556
64.5712
60.4777
56.8346
56.1527
60.7925
74.3115
94.1822
110.547
121.313
125.061
128.793
128.491
125.065
119.044
109.508
95.7751
85.3872
88.3265
90.7539
101.923
149.696
165.445
156.846
143.545
134.235
120.932
77.2187
70.7374
82.1011
98.6384
121.526
147.754
163.639
156.03
142.834
138.261
139.495
141.729
140.607
135.321
125.415
116.232
108.24
107.953
105.483
102.263
97.1074
88.2303
79.7156
71.7827
70.877
77.9058
127.333
116.059
113.94
128.561
126.777
108.003
89.0502
85.78
84.2419
84.7521
84.6188
86.3351
89.6154
98.2354
112.602
122.747
130.482
132.024
130.677
130.114
130.501
130.162
130.893
132.599
132.936
125.86
116.195
107.542
114.247
138.852
180.728
191.628
208.444
178.615
87.8829
78.5569
79.8813
106.897
116.602
102.689
87.5715
88.1412
94.3226
86.9033
89.6319
71.0638
62.7779
53.6318
72.3164
109.447
129.313
141.627
155.793
108.46
83.1552
84.7107
103.306
107.17
112.995
109.788
91.7097
89.2864
122.691
127.72
132.167
113.689
162.03
172.022
151.728
124.843
107.899
104.228
106.128
108.304
108.983
105.736
99.8218
92.0581
85.5746
82.4481
83.6726
90.8789
98.653
107.847
116.488
118.362
127.625
125.315
124.369
106.981
75.0192
59.3712
61.3941
46.8338
37.7725
62.7906
65.9879
71.2372
70.5953
50.5715
31.7441
24.9601
27.3127
32.9282
40.9662
60.7995
77.2585
80.3671
78.4269
73.0689
78.8508
78.0769
86.1202
91.5159
86.0918
86.4391
92.6197
92.5735
96.1778
102.65
132.571
146.237
152.033
146.23
126.86
109.338
99.6385
108.642
164.589
173.664
130.26
107.258
66.6132
58.5137
53.3965
58.9651
52.2576
52.9637
56.3905
65.8436
73.4135
84.3428
89.206
93.2145
85.3751
81.1003
66.5052
61.4981
54.0246
70.3725
104.83
135.204
190.589
288.084
377.714
411.007
254.7
159.335
165.068
130.328
110.163
182.426
295.209
133.742
94.4504
71.2546
79.8919
87.1941
106.566
109.409
109.733
90.5583
64.2816
46.9139
42.7736
53.781
73.2376
81.2138
100.326
104.711
107.077
91.3928
72.8267
68.042
82.8655
104.621
87.454
58.9756
35.8538
22.2768
19.4277
53.6913
56.5896
136.145
143.908
65.0633
49.0852
39.7647
40.881
47.2843
54.3565
57.9526
58.8968
57.9188
55.8602
49.9437
51.4434
59.7012
68.822
76.5826
73.2217
53.0879
23.7509
7.92602
3.23177
2.2327
2.02956
2.06379
2.20439
2.48665
3.40491
4.77414
7.36047
11.1436
3.5717
2.31188
15.3184
24.0755
27.6272
27.5167
26.6464
27.1288
26.5629
23.8839
20.931
18.1351
15.9147
14.9673
16.2664
21.8346
30.5837
41.7207
61.3905
95.8239
120.319
129.458
138.843
142.511
132.366
94.7631
71.1571
58.3905
51.9855
49.4417
47.1555
46.5373
47.8902
49.1015
53.2019
54.987
56.9654
58.3942
58.3846
62.0474
67.8856
74.008
73.3151
69.6933
71.3018
79.6361
88.2272
90.5888
80.3995
72.1703
70.9438
68.3209
67.149
66.5748
69.3787
70.3368
76.1343
82.6546
89.0655
102.476
102.922
102.643
93.7656
94.6894
106.571
140.552
155.788
171.135
176.209
186.798
182.542
177.054
160.47
149.509
144.071
143.25
145.817
150.604
144.875
127.382
108.977
111.045
114.086
110.109
110.483
114.225
120.175
127.435
135.388
142.231
148.042
149.944
148.057
142.43
137.052
131.443
129.727
130.245
132.826
138.534
142.49
139.913
125.379
127.306
123.117
117.908
120.753
114.059
97.4622
91.3941
89.1159
93.1172
97.5439
98.0509
90.3661
125.326
169.791
188.725
165.87
134.785
111.269
98.2005
93.434
89.562
87.0683
87.0313
91.6652
105.308
128.274
148.14
155.955
158.481
158.887
157.802
152.147
148.308
140.021
129.447
121.842
107.472
96.1472
93.3713
96.0213
100.654
108.896
142.49
164.6
149.591
137.994
103
67.2719
59.3515
65.0569
77.9928
94.5954
118.862
143.311
151.658
141.988
137.748
139.6
145.213
151.407
152.917
149.783
143.342
134.603
125.658
117.058
109.462
99.9019
87.7211
79.822
73.23
74.3685
85.9976
83.6261
93.8938
125.844
138.152
131.472
108.678
98.8213
93.0624
88.776
85.2838
81.0241
77.9912
78.8741
81.8868
90.7944
107.951
116.324
122.528
124.311
127.044
129.865
132.535
132.865
133.845
136.764
136.511
133.972
127.739
127.521
144.694
176.186
223.813
187.995
162.653
152.007
121.258
96.0994
98.6977
129.471
114.883
102.856
96.773
93.683
94.9001
88.2076
80.8859
72.4264
69.5716
81.0135
107.763
125.962
135.07
148.277
107.816
77.0092
75.8791
95.6029
110.811
122.024
133.319
125.079
107.526
115.93
134.374
105.619
106.349
173.506
192.807
157.113
122.721
105.095
100.525
101.995
106.311
107.728
109.475
107.826
106.677
105.92
107.336
109.926
114.404
118.945
124.745
124.7
129.508
130.03
127.781
122.141
109.263
76.8852
57.0229
54.7069
49.8853
47.7062
65.6429
62.0429
71.6085
68.3082
49.1017
36.462
32.4335
36.2604
38.7636
41.0569
48.5641
62.7976
77.6644
89.0445
84.1301
90.6435
85.1603
92.9734
89.3073
103.741
98.2994
94.2496
93.6968
97.2609
108.653
116.05
132.957
140.448
137.328
122.532
102.511
90.7911
88.8286