/*--------------------------------*- C++ -*----------------------------------*\
| =========                 |                                                 |
| \\      /  F ield         | OpenFOAM: The Open Source CFD Toolbox           |
|  \\    /   O peration     | Version:  2.1.1                                 |
|   \\  /    A nd           | Web:      www.OpenFOAM.org                      |
|    \\/     M anipulation  |                                                 |
\*---------------------------------------------------------------------------*/
FoamFile
{
    version     2.0;
    format      ascii;
    class       volScalarField;
    location    "0.002800000";
    object      O;
}
// * * * * * * * * * * * * * * * * * * * * * * * * * * * * * * * * * * * * * //

dimensions      [0 0 0 0 0 0 0];

internalField   nonuniform List<scalar> 
12384
(
0.00109606
0.00095161
0.000524289
0.000260069
0.000135282
0.000146629
0.000171916
0.000155763
0.000133424
0.000129338
0.00016685
0.000229682
4.02968e-05
2.26622e-06
1.34971e-05
6.04661e-05
3.50882e-05
2.97092e-05
2.72613e-05
2.33668e-05
2.39373e-05
2.98669e-05
4.01021e-05
5.0233e-05
4.21704e-05
2.80049e-05
2.34037e-05
2.77687e-05
2.70099e-05
2.47533e-05
2.43672e-05
2.32087e-05
2.32207e-05
2.31363e-05
2.21329e-05
2.09071e-05
1.89729e-05
1.63305e-05
1.57892e-05
9.14782e-06
1.47168e-05
6.28566e-06
2.06429e-07
5.19277e-09
0.000183914
0.000207904
0.00024392
0.00027711
0.000264899
0.000269559
0.00025394
0.000259216
0.000246426
0.000248114
0.000239594
0.000218107
0.000209257
0.000184856
0.000171959
0.000174575
0.000189811
0.000205572
0.000224826
0.000219285
0.000195128
0.00014794
9.08541e-05
5.10504e-05
3.11903e-05
2.67423e-05
3.35796e-05
2.50099e-05
2.59547e-05
3.50577e-06
0.000189262
0.000246359
0.000253569
0.000151021
0.000110998
8.13357e-05
7.16684e-05
8.38683e-05
8.8106e-05
0.000131792
0.000185435
0.000205292
0.000215463
0.00021262
0.000205427
0.000189885
0.000180846
0.000185021
0.0001988
0.000192667
0.000124708
8.022e-05
0.000102417
7.34186e-05
5.18403e-05
3.23307e-05
3.91534e-05
5.39951e-05
7.60283e-05
1.63824e-05
7.97247e-06
1.3542e-05
9.57536e-05
0.00014052
0.000242511
0.000149304
9.25817e-05
9.87031e-05
0.000104497
0.000103875
0.000100312
8.58386e-05
6.8786e-05
3.30702e-05
3.04254e-05
3.04628e-05
6.71094e-05
0.000107457
0.000155146
0.000188526
4.34899e-05
2.22407e-05
1.67945e-05
2.73937e-06
4.4532e-07
7.16958e-09
2.08142e-12
1.88252e-15
3.99336e-18
2.30612e-20
1.10035e-15
9.80942e-15
2.10466e-14
3.98078e-13
9.42293e-10
4.95581e-07
2.34266e-06
3.38247e-06
3.04183e-06
3.02169e-06
2.58338e-06
1.85376e-06
1.37164e-06
8.88276e-07
6.42453e-07
4.84377e-07
3.45995e-07
2.8017e-07
2.05159e-07
1.2511e-07
4.78625e-08
1.35498e-08
7.76336e-10
1.83396e-11
1.3713e-12
4.57242e-14
2.95913e-16
9.87656e-19
4.82024e-21
1.08804e-23
1.62827e-39
1.3087e-39
1.24032e-41
4.05317e-43
2.55414e-45
1.94566e-47
2.74633e-50
2.41512e-53
1.70988e-56
6.09239e-60
1.59318e-63
3.22932e-67
5.50495e-71
9.14525e-75
1.42331e-78
2.17038e-82
3.39963e-86
5.43765e-90
7.88321e-94
1.27541e-97
1.85575e-101
2.91968e-105
4.33405e-109
6.75602e-113
1.04087e-116
1.63519e-120
2.58839e-124
4.12584e-128
6.69006e-132
1.07807e-135
3.05213e-150
6.16549e-153
1.35424e-156
2.54409e-160
4.51233e-164
7.71981e-168
3.80672e-172
1.17678e-178
3.37514e-184
7.40868e-189
1.35681e-193
1.65612e-198
1.42009e-203
8.94182e-209
4.47659e-214
1.87348e-219
6.83658e-225
2.24903e-230
6.85897e-236
1.9845e-241
5.59645e-247
1.57372e-252
4.54286e-258
1.3859e-263
4.67021e-269
1.8406e-274
9.24727e-280
7.02748e-285
1.18476e-289
1.88662e-294
9.78151e-316
3.39685e-319
1.4822e-323
0
0
0
0
0
0
0
0
0
0
0
0
0
0
0
0
0
0
0
0
0
0
0
0
0
0
0
0
0
0
0
0
0
0
0
0
0
0
0
0
0
0
0
0
0
0
0
0
0
0
0
0
0
0
0
0
0
0
0
0
0
0
0
0
0
0
0
0
0
0
0
0
0
0
0
0
0
0
0
0
0
0
0
0
0
0
0
0
0
0
0
0
0
0
0
0
0
0
0
0
0
0
0
0
0
0
0
0
0
0
0
0
0
0
0
0
0
0
0
0
0
0
0
0
0
0
0
0
0
0
0
0
0
0
0
0
0
0
0
0
0
0
0
0
0
0
0
0.00106963
0.000565874
0.000147874
4.28465e-05
1.46347e-05
9.60616e-06
1.90273e-05
3.33014e-05
3.80265e-05
4.0505e-05
7.19602e-05
6.43951e-05
2.52094e-05
1.07797e-06
6.24205e-05
5.6865e-05
3.90514e-05
2.53509e-05
2.03597e-05
2.83096e-05
9.47665e-05
0.000293471
0.00051258
0.000617538
0.000454661
0.00024638
0.000172326
9.91853e-05
4.72838e-05
5.37893e-05
3.46664e-05
2.45705e-05
2.242e-05
2.15062e-05
2.06234e-05
1.94452e-05
1.63076e-05
1.38678e-05
1.51067e-05
2.12344e-05
6.37974e-05
2.21016e-05
1.35724e-06
2.4856e-08
0.000184475
0.000221915
0.000256649
0.000276144
0.000274522
0.000264827
0.000252295
0.000242774
0.000228273
0.000243459
0.00023088
0.000223679
0.00014154
9.43212e-05
5.75051e-05
3.42443e-05
3.20825e-05
3.45241e-05
3.44424e-05
0.000110144
0.000213922
0.000230454
0.000137523
4.83479e-05
2.35564e-05
2.66378e-05
6.24393e-05
0.000134068
0.000160231
1.69444e-05
0.000172764
0.000217384
0.000265833
0.000205397
0.000149238
0.00011856
0.00010379
8.81878e-05
9.79983e-05
0.000123871
0.000174047
0.000191131
0.000179515
0.000126708
5.17547e-05
3.21381e-05
2.81064e-05
6.19272e-05
0.000150832
0.000184513
0.000145357
9.97888e-05
9.24848e-05
8.47284e-05
6.19882e-05
2.6515e-05
4.08798e-05
6.13819e-05
0.000119002
5.19845e-05
2.01128e-05
8.75987e-05
6.75066e-05
9.35991e-05
0.000149749
0.000199505
0.00020481
0.000183249
0.000183392
0.000178888
0.000162214
0.000116974
6.8872e-05
3.23978e-05
2.54412e-05
2.48063e-05
3.1134e-05
6.84321e-05
0.000107643
0.000147859
0.000160327
0.000134877
0.0001919
4.76902e-05
1.32322e-05
7.86889e-07
3.57412e-10
5.31802e-13
6.38167e-16
2.26174e-18
1.40817e-13
1.08673e-12
5.08079e-12
2.99329e-11
1.09101e-07
8.2436e-06
2.26552e-05
2.03905e-05
1.81139e-05
1.43057e-05
8.66978e-06
8.75492e-06
7.29416e-06
5.78645e-06
3.85504e-06
2.45727e-06
2.53203e-06
1.68051e-06
8.12206e-07
5.0149e-07
2.11627e-07
3.01357e-07
1.31661e-07
3.90569e-09
2.45277e-09
1.90055e-10
2.21556e-13
5.37217e-17
1.56031e-19
9.81222e-22
1.50655e-38
4.59795e-39
4.19426e-40
2.03176e-41
1.58834e-42
9.7948e-45
3.54889e-47
4.54602e-51
1.85691e-54
1.51477e-59
2.39876e-62
1.83885e-66
7.76415e-70
1.04656e-73
2.67548e-77
4.31803e-81
7.11185e-85
1.2824e-88
2.16705e-92
3.49948e-96
5.78636e-100
9.23523e-104
1.51435e-107
2.49528e-111
4.14301e-115
6.93942e-119
1.14934e-122
1.86874e-126
3.04597e-130
4.75539e-134
2.27707e-146
4.19909e-149
6.62711e-153
1.01124e-156
1.57068e-160
2.51606e-164
4.27612e-168
8.6012e-174
4.81228e-178
9.27849e-183
1.59108e-187
1.80896e-192
1.46942e-197
8.74124e-203
4.22007e-208
1.68053e-213
5.91049e-219
1.8701e-224
5.46101e-230
1.51674e-235
4.09517e-241
1.09847e-246
2.99691e-252
8.57534e-258
2.66258e-263
9.47101e-269
4.1642e-274
2.62073e-279
3.22528e-284
3.72116e-289
2.48013e-310
5.08733e-314
1.76386e-318
4.44659e-323
0
0
0
0
0
0
0
0
0
0
0
0
0
0
0
0
0
0
0
0
0
0
0
0
0
0
0
0
0
0
0
0
0
0
0
0
0
0
0
0
0
0
0
0
0
0
0
0
0
0
0
0
0
0
0
0
0
0
0
0
0
0
0
0
0
0
0
0
0
0
0
0
0
0
0
0
0
0
0
0
0
0
0
0
0
0
0
0
0
0
0
0
0
0
0
0
0
0
0
0
0
0
0
0
0
0
0
0
0
0
0
0
0
0
0
0
0
0
0
0
0
0
0
0
0
0
0
0
0
0
0
0
0
0
0
0
0
0
0
0
0
0
0
0
0
0
0.000638573
0.000246892
0.000109484
5.44927e-05
2.81522e-05
6.04337e-06
2.2304e-06
2.1521e-06
3.31261e-06
6.23694e-06
1.2743e-05
2.01634e-05
1.01432e-05
7.27001e-07
2.92074e-05
3.37503e-05
2.06832e-05
1.71967e-05
4.8919e-05
0.000308624
0.00100227
0.00100332
0.000500904
0.000253933
0.000218462
0.000263166
0.000363679
0.000432022
0.000643109
0.000565664
0.000306455
0.00013591
3.73669e-05
2.33133e-05
1.94501e-05
1.7063e-05
1.3132e-05
1.20239e-05
1.30894e-05
2.05609e-05
1.46881e-05
7.25146e-06
6.79424e-07
2.17643e-08
0.000184611
0.000225009
0.000260307
0.000265382
0.000261967
0.000232737
0.000199176
0.000179262
0.000185572
0.000224015
0.000248705
0.00023284
0.000195972
0.000127417
0.000119279
0.000108095
0.00010639
7.46362e-05
4.15876e-05
3.65767e-05
3.22342e-05
5.50566e-05
0.000245442
8.52448e-05
2.28793e-05
2.26723e-05
5.59092e-05
0.000127106
0.00017873
2.84505e-05
0.000166516
0.000195932
0.000248592
0.000267304
0.000247893
0.000177636
0.00014194
0.000121899
0.000116476
0.00013059
0.000153159
0.000170695
0.000152317
6.73612e-05
2.89873e-05
1.12348e-05
9.51915e-06
1.12612e-05
7.42269e-05
0.000190512
0.000112297
5.44506e-05
2.49741e-05
1.21681e-05
1.03933e-05
1.60738e-05
3.07699e-05
5.25787e-05
0.000110186
4.12356e-05
3.86815e-05
5.83739e-05
4.65953e-05
5.78286e-05
9.3818e-05
0.000151714
0.000190404
0.000201435
0.00019973
0.000195639
0.000197462
0.000154895
7.81545e-05
3.18492e-05
2.37949e-05
1.54322e-05
1.87461e-05
2.23417e-05
3.25622e-05
9.6653e-05
8.44314e-05
2.86498e-05
2.81343e-05
3.02169e-05
1.25629e-05
3.78037e-05
1.47009e-06
1.04707e-09
3.08052e-13
4.2635e-16
3.56528e-12
2.69001e-10
1.38536e-09
1.38966e-09
4.05013e-07
2.26262e-05
8.34145e-05
8.45247e-05
3.09926e-05
1.158e-05
9.26798e-06
7.20986e-06
4.99066e-06
3.7261e-06
2.80851e-06
2.70547e-06
1.97622e-06
2.34334e-06
9.52951e-07
9.65098e-07
7.77202e-07
9.47117e-07
1.86657e-07
4.51877e-08
6.07719e-09
2.09202e-09
1.10207e-10
1.68249e-12
7.59934e-17
1.07467e-20
6.47614e-36
2.03651e-33
4.50915e-35
7.68547e-36
1.09806e-37
9.16997e-40
1.62567e-42
2.81888e-45
1.91212e-48
9.61115e-53
8.72272e-59
1.77481e-63
2.65202e-70
1.70106e-72
1.05844e-78
6.8127e-81
2.0938e-86
4.79157e-89
1.22898e-93
3.67044e-97
1.91271e-101
4.83551e-105
4.78816e-109
9.51549e-113
1.12616e-116
1.8182e-120
2.93519e-124
5.20082e-128
7.81082e-132
2.3e-136
5.30574e-148
5.34573e-150
6.29618e-154
7.09896e-158
1.35225e-161
2.1997e-165
4.62969e-169
8.02676e-173
1.43253e-176
2.05858e-181
3.61419e-186
3.70965e-191
3.09505e-196
1.7206e-201
8.91532e-207
3.06509e-212
1.03589e-217
2.88634e-223
8.13275e-229
2.04242e-234
5.33888e-240
1.29797e-245
3.37284e-251
8.7137e-257
2.5059e-262
7.86959e-268
3.0194e-273
1.54386e-278
1.33445e-283
1.79927e-289
1.66388e-310
1.06058e-313
2.94203e-318
5.92879e-323
0
0
0
0
0
0
0
0
0
0
0
0
0
0
0
0
0
0
0
0
0
0
0
0
0
0
0
0
0
0
0
0
0
0
0
0
0
0
0
0
0
0
0
0
0
0
0
0
0
0
0
0
0
0
0
0
0
0
0
0
0
0
0
0
0
0
0
0
0
0
0
0
0
0
0
0
0
0
0
0
0
0
0
0
0
0
0
0
0
0
0
0
0
0
0
0
0
0
0
0
0
0
0
0
0
0
0
0
0
0
0
0
0
0
0
0
0
0
0
0
0
0
0
0
0
0
0
0
0
0
0
0
0
0
0
0
0
0
0
0
0
0
0
0
0
0
0.000229048
0.000346569
0.000739314
0.000890724
0.000633671
0.000120713
2.3764e-05
6.18982e-06
3.16293e-06
2.09744e-06
2.26329e-06
2.99817e-06
2.50834e-06
4.51721e-07
8.77861e-06
1.11026e-05
1.0876e-05
5.16893e-05
0.000570717
0.0011042
0.000357061
7.77068e-05
3.07679e-05
1.7316e-05
1.57865e-05
1.8696e-05
1.6179e-05
3.29181e-05
6.85871e-05
0.000111001
0.000280471
0.000638463
0.000325385
6.16421e-05
2.66174e-05
1.75951e-05
1.13485e-05
7.95409e-06
8.07125e-06
8.42062e-06
2.49942e-06
1.20127e-06
2.65934e-07
3.21509e-08
0.000184334
0.000231579
0.000255047
0.000258628
0.000231867
0.000189144
0.000143206
0.000131637
0.00018065
0.000299232
0.000233427
0.000152238
0.000161502
0.000145913
0.000168737
0.000248757
0.000160994
0.000115278
0.000146506
0.000233294
6.19326e-05
3.17063e-05
6.10935e-05
0.000178231
2.73866e-05
1.29842e-05
2.57043e-05
8.85521e-05
0.000169703
2.65826e-05
0.000154472
0.000179029
0.000214614
0.000254552
0.000262282
0.000239432
0.000194864
0.000157361
0.000149378
0.000140185
0.000147577
0.000161223
0.000140282
0.000105811
4.59197e-05
1.98448e-05
9.15052e-06
8.57399e-06
2.83023e-05
0.00018605
6.61067e-05
2.81894e-05
1.26709e-05
9.12904e-06
1.18141e-05
1.59215e-05
3.19247e-05
5.98911e-05
0.000122735
5.04151e-05
7.91411e-05
6.81145e-05
5.71292e-05
6.24056e-05
0.00010695
0.00016242
0.000192178
0.000195324
0.000184103
0.000166887
0.000175916
0.000190106
9.39738e-05
4.12982e-05
2.36398e-05
1.11028e-05
6.69733e-06
7.69257e-06
1.01099e-05
2.3616e-05
2.84232e-05
1.33537e-05
4.32645e-06
2.75461e-06
3.76791e-06
1.12942e-05
5.636e-05
1.17612e-06
1.08175e-10
1.04624e-13
1.30257e-12
2.28502e-08
2.68492e-07
9.97808e-08
3.18457e-07
1.15778e-05
4.03704e-05
0.00014622
7.50772e-05
4.02293e-05
1.46352e-05
9.04197e-06
7.50692e-06
2.546e-06
3.3035e-06
1.20141e-06
1.92717e-06
8.33993e-07
1.13996e-06
3.07971e-07
2.62429e-07
1.07717e-07
3.72295e-08
4.11157e-08
7.09058e-08
2.70569e-08
5.18947e-10
3.64126e-11
3.53787e-12
5.10681e-17
5.49196e-29
5.66501e-28
1.02224e-30
9.137e-33
1.07869e-34
3.72963e-37
4.59214e-40
2.83027e-43
3.08839e-46
4.59002e-49
2.50461e-51
3.31275e-56
1.49719e-61
9.3809e-67
8.97748e-71
6.84115e-76
1.1931e-79
1.70301e-84
4.05457e-88
1.1487e-92
2.15336e-96
1.18775e-100
2.83845e-104
1.95912e-108
4.91939e-112
3.44388e-116
7.24966e-120
5.57563e-124
9.25946e-128
5.3368e-132
1.36565e-142
2.90672e-145
2.39411e-149
3.52127e-153
4.7042e-157
9.25736e-161
1.46454e-164
2.98204e-168
4.89904e-172
9.99796e-176
1.39602e-180
1.5003e-185
9.78654e-191
5.79375e-196
2.49532e-201
8.56879e-207
2.36335e-212
6.72649e-218
1.66817e-223
4.23075e-229
9.8658e-235
2.36578e-240
5.52428e-246
1.35781e-251
3.48654e-257
9.9267e-263
3.25178e-268
1.37555e-273
8.93467e-279
4.32362e-284
6.47888e-305
5.24466e-309
9.59173e-314
1.40008e-318
1.97626e-323
0
0
0
0
0
0
0
0
0
0
0
0
0
0
0
0
0
0
0
0
0
0
0
0
0
0
0
0
0
0
0
0
0
0
0
0
0
0
0
0
0
0
0
0
0
0
0
0
0
0
0
0
0
0
0
0
0
0
0
0
0
0
0
0
0
0
0
0
0
0
0
0
0
0
0
0
0
0
0
0
0
0
0
0
0
0
0
0
0
0
0
0
0
0
0
0
0
0
0
0
0
0
0
0
0
0
0
0
0
0
0
0
0
0
0
0
0
0
0
0
0
0
0
0
0
0
0
0
0
0
0
0
0
0
0
0
0
0
0
0
0
0
0
0
0
0.000763342
0.00204829
0.00250623
0.00205319
0.00122844
0.00126506
0.000918525
0.000393111
0.000170333
1.59232e-05
6.51671e-07
1.19215e-07
2.51067e-07
4.99186e-07
2.93269e-06
5.84377e-06
7.01095e-05
0.000799126
0.00054214
0.000128879
2.67901e-05
1.14277e-05
9.02948e-06
8.71844e-06
1.03888e-05
1.28697e-05
1.12836e-05
1.2123e-05
8.92413e-06
2.02427e-05
4.96879e-05
0.000139713
0.000470643
0.000418277
0.000108341
3.11152e-05
1.25027e-05
5.68537e-06
3.19797e-06
1.72875e-06
3.00946e-07
1.76068e-07
2.9923e-07
1.06086e-07
0.000184448
0.000227269
0.000247629
0.000245558
0.000195164
0.000145448
0.000112763
0.000134202
0.000237231
0.000217272
7.83597e-05
8.50073e-05
9.5561e-05
0.000112781
0.000146439
0.000176931
6.86864e-05
6.08268e-05
6.64932e-05
0.00012635
0.00024245
5.01211e-05
4.74705e-05
0.000245583
3.5935e-05
8.43271e-06
1.21248e-05
5.97804e-05
0.000123174
2.81317e-05
0.000138018
0.000153889
0.000168674
0.000199305
0.000248834
0.00025717
0.000234389
0.000213566
0.000177911
0.000157129
0.000157346
0.000156742
0.000175066
0.000181483
0.00015887
8.70737e-05
2.38446e-05
9.50426e-06
2.38042e-05
0.0001716
3.48783e-05
1.32873e-05
8.32055e-06
1.14461e-05
1.68651e-05
2.70334e-05
4.00693e-05
8.01671e-05
0.000117824
0.000190451
8.35613e-05
7.96479e-05
6.70972e-05
9.07239e-05
0.000162589
0.000201758
0.00020253
0.000184644
0.000160218
0.000146164
0.000158479
0.000196169
0.000134522
7.27033e-05
3.09975e-05
1.0765e-05
4.25719e-06
2.47277e-06
2.63826e-06
3.87977e-06
6.24465e-06
3.79476e-06
2.54074e-06
1.17319e-06
8.71526e-07
2.05648e-06
3.15326e-05
3.70497e-05
4.28715e-07
1.10798e-11
2.79093e-11
5.28367e-07
1.34296e-05
7.03979e-06
7.75776e-06
3.5104e-05
0.000176565
0.000159785
9.9492e-05
5.47518e-05
1.72374e-05
4.93655e-06
2.99339e-06
2.62216e-06
8.41768e-07
1.16315e-06
3.91429e-07
4.81375e-07
2.43342e-07
2.47798e-07
8.556e-08
3.68797e-08
3.03505e-08
1.46656e-08
6.32156e-09
1.43247e-08
2.19441e-09
3.41404e-10
2.23061e-11
1.01353e-12
1.78248e-24
1.47977e-24
1.68923e-27
1.25203e-29
8.15755e-32
6.70818e-34
8.01263e-37
5.87013e-40
1.15208e-43
3.54518e-47
4.85235e-50
5.03011e-52
2.83013e-55
4.52261e-60
8.78235e-65
7.13156e-69
1.30473e-73
1.34652e-77
3.79022e-82
6.08169e-86
2.53907e-90
4.69661e-94
2.63069e-98
6.31843e-102
4.33898e-106
9.07565e-110
8.23013e-114
1.1853e-117
1.19384e-121
1.59296e-125
4.89297e-136
6.72537e-139
6.65166e-143
6.8172e-147
1.12929e-150
1.84224e-154
3.48601e-158
6.12064e-162
1.18436e-165
2.11731e-169
4.13755e-173
3.71471e-178
2.49322e-183
1.56378e-188
7.64606e-194
1.91953e-199
4.55734e-205
1.07896e-210
2.56811e-216
5.81967e-222
1.29671e-227
2.82907e-233
6.21029e-239
1.37703e-244
3.21328e-250
7.9687e-256
2.26005e-261
7.7728e-267
3.93294e-272
2.67254e-277
7.28631e-298
2.39857e-302
2.75362e-307
2.71743e-312
2.72627e-317
2.81617e-322
0
0
0
0
0
0
0
0
0
0
0
0
0
0
0
0
0
0
0
0
0
0
0
0
0
0
0
0
0
0
0
0
0
0
0
0
0
0
0
0
0
0
0
0
0
0
0
0
0
0
0
0
0
0
0
0
0
0
0
0
0
0
0
0
0
0
0
0
0
0
0
0
0
0
0
0
0
0
0
0
0
0
0
0
0
0
0
0
0
0
0
0
0
0
0
0
0
0
0
0
0
0
0
0
0
0
0
0
0
0
0
0
0
0
0
0
0
0
0
0
0
0
0
0
0
0
0
0
0
0
0
0
0
0
0
0
0
0
0
0
0
0
0
0
0.00261772
0.00241884
0.00106939
0.000221371
3.95729e-05
6.03313e-05
9.80783e-05
0.00029764
0.000681463
0.000248311
1.13994e-06
2.91805e-08
4.45091e-09
1.07647e-06
2.96566e-06
5.31187e-05
0.000884333
0.000395977
9.14954e-05
2.06877e-05
9.70726e-06
1.02685e-05
3.24027e-05
0.000136896
0.000294551
0.000286136
9.51238e-05
2.52018e-05
1.74301e-05
1.2197e-05
2.00523e-05
3.69814e-05
0.000138329
0.000394338
0.000535873
0.000122296
2.15576e-05
3.70731e-06
1.0675e-06
1.89523e-07
4.56535e-08
1.18806e-08
4.18406e-07
7.71096e-07
0.000180767
0.000217044
0.000226076
0.000211817
0.000162066
0.000117624
0.000107268
0.000182309
0.000253586
0.0001048
3.01518e-05
2.77099e-05
6.4418e-05
8.0864e-05
0.000135383
0.000179975
0.000113701
0.000121537
0.000127518
0.000133703
0.000200155
0.000164903
5.37459e-05
0.000224827
3.91004e-05
5.78976e-06
5.90432e-06
2.92055e-05
8.14532e-05
2.83499e-05
0.000128882
0.000143913
0.000145708
0.00018533
0.000237386
0.000262689
0.000251963
0.00025156
0.000205765
0.000186726
0.00017591
0.000201699
0.000204535
0.000205527
0.000195623
0.000150235
6.03563e-05
2.00838e-05
4.81513e-05
0.000116441
1.724e-05
7.98106e-06
1.03721e-05
3.62899e-05
9.10508e-05
7.79404e-05
8.80107e-05
0.000100378
0.000124769
0.000147704
7.37169e-05
8.70418e-05
8.16796e-05
0.00014498
0.00020698
0.000204545
0.000195783
0.000167823
0.000155218
0.000151992
0.000164282
0.000187869
0.000188561
0.000123539
6.69534e-05
2.06211e-05
4.09541e-06
1.52619e-06
8.95373e-07
7.44034e-07
7.45452e-07
6.85902e-07
6.10133e-07
4.91926e-07
2.48516e-07
2.59728e-07
1.39819e-06
3.26429e-05
2.41885e-05
7.45528e-08
5.44451e-09
3.08269e-05
6.38021e-06
4.34779e-06
1.71499e-05
3.08067e-05
6.54939e-05
8.02559e-05
3.60269e-05
1.80988e-05
3.39614e-06
1.14305e-06
4.6087e-07
2.06811e-07
1.57426e-07
4.68733e-08
1.10975e-07
5.15994e-08
1.1932e-07
9.07699e-08
6.18143e-08
3.66538e-08
1.55579e-08
8.35298e-09
4.60303e-09
9.07189e-10
2.44078e-09
1.25898e-09
2.22148e-10
2.27869e-10
8.21526e-21
3.09561e-21
3.70906e-24
1.01798e-26
2.91899e-29
3.98796e-32
3.09537e-34
5.16962e-37
2.91847e-40
5.41343e-44
7.36708e-48
1.80031e-50
7.66311e-53
3.14206e-55
2.54561e-59
1.10495e-63
1.22072e-67
3.68342e-72
4.98862e-76
2.03001e-80
3.54482e-84
1.65131e-88
3.74133e-92
2.19029e-96
5.76828e-100
3.60204e-104
8.00608e-108
5.88697e-112
1.0232e-115
7.20684e-120
3.79278e-130
5.88657e-133
5.28795e-137
7.87602e-141
9.57457e-145
1.84298e-148
2.76789e-152
5.531e-156
9.48588e-160
1.91208e-163
3.36693e-167
6.78898e-171
3.88019e-176
5.20633e-181
2.17705e-186
4.22826e-192
6.35609e-198
1.19589e-203
2.39915e-209
5.03107e-215
1.01195e-220
2.04596e-226
4.09313e-232
8.32864e-238
1.73467e-243
3.80705e-249
9.27392e-255
2.64823e-260
1.00964e-265
4.59528e-271
3.07411e-291
8.12362e-296
6.28902e-301
4.40173e-306
3.16617e-311
2.49252e-316
2.21341e-321
0
0
0
0
0
0
0
0
0
0
0
0
0
0
0
0
0
0
0
0
0
0
0
0
0
0
0
0
0
0
0
0
0
0
0
0
0
0
0
0
0
0
0
0
0
0
0
0
0
0
0
0
0
0
0
0
0
0
0
0
0
0
0
0
0
0
0
0
0
0
0
0
0
0
0
0
0
0
0
0
0
0
0
0
0
0
0
0
0
0
0
0
0
0
0
0
0
0
0
0
0
0
0
0
0
0
0
0
0
0
0
0
0
0
0
0
0
0
0
0
0
0
0
0
0
0
0
0
0
0
0
0
0
0
0
0
0
0
0
0
0
0
0
0.0020858
0.000967235
9.56984e-05
1.21947e-05
5.49805e-06
1.0743e-05
3.82558e-05
0.000105412
0.000214455
0.000654268
1.75512e-05
1.3182e-07
1.74074e-08
1.48217e-07
1.29707e-05
0.000857741
0.000396037
9.99089e-05
2.68536e-05
1.19491e-05
2.28833e-05
0.000300171
7.68099e-05
2.55754e-05
1.5362e-05
1.60894e-05
3.45132e-05
0.000129205
0.000216651
1.99148e-05
1.53773e-05
2.28282e-05
5.35527e-05
0.00019191
0.000577829
0.000443464
3.04499e-05
2.89792e-06
3.18715e-07
3.92113e-08
3.11604e-08
3.16812e-08
3.5592e-07
1.21448e-06
0.000181141
0.000202442
0.000203841
0.000181533
0.000135601
0.000109379
0.000140691
0.000259248
0.000120579
7.55704e-05
4.73452e-05
2.55289e-05
4.66126e-05
5.94846e-05
8.8593e-05
0.000182034
0.000209681
0.000208797
0.000209496
0.000216686
0.000227579
0.00019345
0.000112482
0.000232169
3.22244e-05
4.94225e-06
4.53615e-06
2.20916e-05
6.11426e-05
2.54992e-05
0.000108007
0.000121735
0.000137023
0.000189979
0.000240509
0.000255366
0.000258521
0.000243927
0.000241333
0.000214265
0.000209296
0.000206976
0.000201252
0.000118901
3.55294e-05
3.49653e-05
5.66147e-05
3.22196e-05
0.000164872
5.09979e-05
8.85299e-06
7.27333e-06
3.49998e-05
0.000132635
0.000174957
0.000189184
0.000145044
0.000129567
0.000113971
0.000136984
6.23639e-05
8.43547e-05
0.000106255
0.000195494
0.00019658
0.000204872
0.000193295
0.00017804
0.000182212
0.000180105
0.0001802
0.000190225
0.000201697
0.000180498
0.000115201
3.02374e-05
5.57927e-06
1.37952e-06
4.99666e-07
2.36744e-07
1.85716e-07
1.14709e-07
1.13289e-07
8.37046e-08
7.63172e-08
5.91973e-08
1.51733e-07
1.25313e-06
7.47779e-05
6.13997e-06
4.31455e-08
2.649e-05
0.000220614
0.00022019
1.8234e-05
2.47254e-05
2.1374e-05
2.47178e-05
1.32423e-05
2.88982e-06
6.95948e-07
2.32936e-07
1.03602e-07
7.72977e-08
3.79255e-08
2.44159e-08
1.26197e-08
1.1694e-08
1.08856e-08
1.85135e-08
1.69061e-08
2.06792e-08
8.1188e-09
4.61657e-09
2.91387e-09
1.61911e-09
5.34253e-10
1.60254e-09
3.9656e-10
9.30325e-10
3.19293e-17
7.20566e-18
3.88688e-22
3.50491e-24
3.0054e-28
4.95866e-30
3.62421e-32
4.20081e-34
4.57871e-37
2.75092e-40
4.24617e-44
7.87656e-48
6.9917e-51
2.31524e-53
6.24338e-56
2.06321e-59
2.87935e-63
4.0409e-67
3.61485e-71
5.03714e-75
4.27152e-79
6.29963e-83
6.01339e-87
1.08406e-90
1.20952e-94
2.07842e-98
2.38297e-102
3.51782e-106
3.68714e-110
4.64571e-114
1.8748e-124
1.92444e-127
2.25972e-131
2.79188e-135
4.57064e-139
7.64217e-143
1.48769e-146
2.71101e-150
5.44507e-154
1.00336e-157
2.02478e-161
3.78224e-165
7.53274e-169
3.55748e-173
1.07762e-178
1.56906e-184
1.57915e-190
1.81824e-196
2.79159e-202
4.96785e-208
9.14588e-214
1.68131e-219
3.10844e-225
5.73563e-231
1.0744e-236
2.07795e-242
4.37428e-248
1.04089e-253
3.07142e-259
1.18747e-264
3.29551e-284
5.5167e-289
2.24493e-294
1.0243e-299
5.25486e-305
3.06349e-310
2.11311e-315
1.70551e-320
0
0
0
0
0
0
0
0
0
0
0
0
0
0
0
0
0
0
0
0
0
0
0
0
0
0
0
0
0
0
0
0
0
0
0
0
0
0
0
0
0
0
0
0
0
0
0
0
0
0
0
0
0
0
0
0
0
0
0
0
0
0
0
0
0
0
0
0
0
0
0
0
0
0
0
0
0
0
0
0
0
0
0
0
0
0
0
0
0
0
0
0
0
0
0
0
0
0
0
0
0
0
0
0
0
0
0
0
0
0
0
0
0
0
0
0
0
0
0
0
0
0
0
0
0
0
0
0
0
0
0
0
0
0
0
0
0
0
0
0
0
0
0.000849987
0.000160616
6.72388e-06
2.00356e-06
6.31687e-06
6.88945e-05
0.000356109
0.000605201
0.000707069
0.000638892
2.84708e-05
3.07612e-07
1.71621e-08
1.21294e-07
9.07729e-05
0.000761283
0.000239619
5.23297e-05
1.95483e-05
2.95566e-05
0.000261702
1.74619e-05
6.50786e-06
5.85473e-06
7.40082e-06
9.8978e-06
2.27944e-05
5.16326e-05
0.000207254
0.000183023
2.73923e-05
4.89675e-05
7.9751e-05
0.000173503
0.000561328
0.000497873
3.77846e-05
2.17582e-06
1.80565e-07
2.37946e-08
3.17762e-08
2.00431e-07
9.33469e-07
2.30316e-06
0.000173139
0.000193509
0.000181124
0.000149962
0.000119006
0.000131782
0.000219527
0.000209876
7.83448e-05
5.47251e-05
4.42969e-05
-2.47661e-06
2.00759e-05
3.45951e-05
4.96076e-05
6.8136e-05
0.000115926
0.000213851
0.000218972
0.000159648
0.000158292
0.000153462
0.000214968
0.000129752
1.65209e-05
5.96729e-06
9.75866e-06
3.64611e-05
7.44734e-05
8.87206e-05
8.28208e-05
9.58853e-05
0.000135965
0.000199888
0.000250617
0.000258461
0.000258663
0.000245662
0.000231709
0.000208843
0.000209242
0.00019945
3.24026e-05
4.07313e-06
2.70047e-06
6.77553e-06
2.28425e-05
5.60149e-05
0.000187943
2.67825e-05
7.75485e-06
2.03774e-05
8.77581e-05
0.000241639
0.000245068
0.00025747
0.00023682
0.000157825
0.000122093
0.000104171
0.00013218
9.13543e-05
0.000111626
0.000231481
0.000179029
0.000204894
0.000204325
0.000203525
0.000203904
0.000200099
0.00019633
0.000200109
0.000200146
0.000197602
0.000134603
3.27949e-05
5.60586e-06
1.14324e-06
2.66387e-07
9.57213e-08
4.04698e-08
3.18275e-08
1.70097e-08
2.37164e-08
1.38964e-08
1.3759e-08
2.02395e-08
7.4284e-08
2.78088e-06
2.66185e-05
3.62792e-06
5.70725e-05
0.000181113
0.000207193
0.000109932
1.9434e-05
9.65136e-06
3.61755e-06
2.82072e-06
1.13528e-06
4.63623e-07
3.67534e-07
3.93311e-07
2.33281e-07
1.84817e-07
5.04364e-08
2.87937e-08
5.90951e-09
4.26182e-09
3.16622e-09
4.86703e-09
4.84104e-09
3.73875e-09
2.54235e-09
1.48367e-09
1.5518e-09
1.24704e-09
1.71684e-09
1.33727e-09
1.37124e-09
4.88314e-14
9.41223e-16
1.80159e-19
-3.05999e-21
2.34105e-25
3.97005e-27
3.05835e-29
3.05199e-31
7.16641e-34
3.66959e-37
1.55726e-40
2.19707e-44
6.50306e-48
7.136e-51
8.61127e-54
1.12349e-56
3.07864e-60
9.96481e-64
1.67526e-67
3.73066e-71
5.01032e-75
8.31286e-79
1.43301e-82
2.23286e-86
4.30993e-90
5.84039e-94
1.06574e-97
1.27142e-101
2.08053e-105
2.36414e-109
5.46325e-120
3.69358e-123
6.12202e-127
1.07932e-130
1.91986e-134
3.76888e-138
7.14967e-142
1.46041e-145
2.85034e-149
5.75594e-153
1.14017e-156
2.26596e-160
4.50709e-164
8.83882e-168
9.32646e-172
1.2385e-177
9.63131e-184
7.13766e-190
6.88735e-196
9.06044e-202
1.4244e-207
2.35531e-213
3.99304e-219
6.67023e-225
1.11589e-230
1.92171e-236
3.54051e-242
7.14435e-248
1.67436e-253
4.42505e-259
8.02062e-278
2.95921e-283
1.04038e-288
3.90947e-294
1.62852e-299
7.72597e-305
4.28853e-310
2.87546e-315
2.26282e-320
0
0
0
0
0
0
0
0
0
0
0
0
0
0
0
0
0
0
0
0
0
0
0
0
0
0
0
0
0
0
0
0
0
0
0
0
0
0
0
0
0
0
0
0
0
0
0
0
0
0
0
0
0
0
0
0
0
0
0
0
0
0
0
0
0
0
0
0
0
0
0
0
0
0
0
0
0
0
0
0
0
0
0
0
0
0
0
0
0
0
0
0
0
0
0
0
0
0
0
0
0
0
0
0
0
0
0
0
0
0
0
0
0
0
0
0
0
0
0
0
0
0
0
0
0
0
0
0
0
0
0
0
0
0
0
0
0
0
0
0
0
0.000225498
2.88503e-05
2.00022e-06
3.11924e-06
6.98262e-05
0.000862724
0.00110529
0.00104423
0.000963798
0.000338277
2.87275e-06
1.42392e-07
1.23077e-06
2.65211e-05
0.000110012
0.000228596
0.000716343
0.000465063
0.000131993
4.39709e-05
2.65534e-05
0.000312715
2.32427e-05
7.80955e-06
6.45659e-06
8.79867e-06
1.56664e-05
3.11045e-05
6.22165e-05
0.000121756
0.00023461
0.000455211
0.000317929
0.000223835
0.000288216
0.000518937
0.000502519
0.000149433
1.24666e-05
1.37438e-06
1.88403e-07
4.1731e-08
8.47352e-08
3.47829e-07
2.16322e-07
1.9043e-05
4.06911e-05
3.77185e-05
0.000156853
0.000174842
0.000163248
0.00013525
0.000132667
0.000190864
0.00026193
0.000169453
0.000135719
1.57175e-05
4.29394e-06
3.49779e-06
1.17785e-05
2.0261e-05
3.06689e-05
4.34294e-05
8.99278e-05
0.000213799
0.000149122
5.43361e-05
8.89212e-05
0.000224408
0.00015048
3.61526e-05
1.1337e-05
8.7883e-06
1.72124e-05
3.68031e-05
6.75936e-05
8.49181e-05
6.20757e-05
5.0199e-05
4.91795e-05
7.08795e-05
0.000132712
0.000208612
0.000243101
0.000249688
0.00023701
0.000218766
0.000220738
0.000204829
0.000203546
5.15124e-05
3.12609e-06
1.00221e-06
1.11466e-06
1.86428e-06
1.05315e-05
6.51126e-05
0.000183853
3.91425e-05
2.29166e-05
6.84153e-05
0.000243169
0.000223364
0.000244893
0.000233668
0.000211633
0.000144076
0.000103016
9.0741e-05
8.5078e-05
0.000100301
0.00013572
8.72054e-05
0.00012365
0.000236664
0.000173289
0.000215913
0.000216287
0.000205498
0.000181612
8.33652e-05
7.07184e-05
0.000115008
0.00015387
0.000160809
0.000108112
2.27774e-05
3.65461e-06
6.64043e-07
1.23807e-07
3.65854e-08
1.51979e-08
9.55734e-09
1.01269e-08
5.95774e-09
5.02333e-09
4.96899e-09
5.09499e-09
1.48041e-08
1.09797e-07
0.000176173
9.34637e-05
8.64217e-05
0.00011149
0.000198987
0.000198516
0.000197369
0.000245808
0.000109387
-1.0435e-06
6.07355e-06
2.69663e-06
1.12978e-06
7.03241e-07
1.07859e-06
9.50716e-07
6.15306e-07
1.84868e-07
6.45558e-08
4.4056e-08
2.9431e-08
5.73882e-09
3.79365e-09
1.63328e-09
1.66363e-09
1.47211e-09
1.41373e-09
1.13696e-09
1.25676e-09
1.3362e-09
9.51947e-10
1.14101e-09
3.28622e-08
4.74576e-10
3.4219e-11
2.58905e-12
7.55859e-14
3.34246e-16
3.58794e-18
2.39709e-21
8.31242e-23
1.4831e-26
1.39588e-27
1.03475e-30
9.20988e-34
2.80952e-37
9.29166e-41
2.09969e-44
7.98251e-48
4.46268e-51
3.82311e-54
1.35197e-57
3.37637e-61
9.12505e-65
1.09401e-68
3.31291e-72
4.68849e-76
7.12743e-80
1.08047e-83
2.02755e-87
3.49792e-91
7.50828e-95
2.002e-98
5.87818e-102
1.74439e-105
2.26347e-109
3.66672e-113
3.7199e-117
9.48859e-121
2.33471e-124
8.90129e-128
2.04248e-131
5.44296e-135
1.17229e-138
2.78063e-142
5.87365e-146
1.30092e-149
2.71823e-153
5.7718e-157
1.19017e-160
2.45718e-164
4.98031e-168
5.12306e-172
3.29312e-178
1.94096e-184
1.27479e-190
1.1334e-196
1.35743e-202
1.92238e-208
2.89193e-214
4.41991e-220
6.72539e-226
1.04677e-231
1.66954e-237
2.63918e-243
4.45572e-249
6.40282e-255
8.60964e-261
1.28543e-266
2.02744e-272
3.54614e-278
6.90428e-284
1.63899e-289
4.70686e-295
1.6399e-300
6.918e-306
3.58863e-311
2.2191e-316
1.59583e-321
0
0
0
0
0
0
0
0
0
0
0
0
0
0
0
0
0
0
0
0
0
0
0
0
0
0
0
0
0
0
0
0
0
0
0
0
0
0
0
0
0
0
0
0
0
0
0
0
0
0
0
0
0
0
0
0
0
0
0
0
0
0
0
0
0
0
0
0
0
0
0
0
0
0
0
0
0
0
0
0
0
0
0
0
0
0
0
0
0
0
0
0
0
0
0
0
0
0
0
0
0
0
0
0
0
0
0
0
0
0
0
0
0
0
0
0
0
0
0
0
0
0
0
0
0
0
0
0
0
0
0
0
0
0
0
0
0
0
0
0
0
0
0
0
0
0
0
0
0
0
5.78923e-05
3.5688e-06
9.41671e-07
1.12773e-05
0.000466066
0.00114487
0.00118098
0.00115967
0.00108443
0.000502507
9.23918e-06
2.31758e-07
7.51081e-07
1.9069e-05
0.000146041
0.000572483
0.000909183
0.000305097
7.76669e-05
3.53754e-05
6.07402e-05
0.000126595
2.52637e-05
1.54347e-05
1.24598e-05
1.08324e-05
1.31007e-05
2.48558e-05
3.43203e-05
6.03065e-05
8.58769e-05
0.000124404
0.000143069
0.000149904
0.000119134
5.70843e-05
3.40994e-05
1.67993e-05
6.35415e-06
2.13115e-06
5.6924e-07
1.60766e-07
2.92888e-07
8.80712e-07
6.05395e-06
1.604e-05
2.60928e-05
6.12465e-05
0.000160776
0.000163085
0.000140692
0.000141659
0.000186439
0.000250425
0.00024143
0.00013213
1.67589e-05
4.31276e-06
3.12864e-06
3.49946e-06
1.1964e-05
1.87504e-05
2.51019e-05
4.44038e-05
0.000146027
0.000207851
0.000179332
9.09152e-05
0.000219125
0.000127144
3.64061e-05
1.26917e-05
8.68443e-06
1.05946e-05
1.86514e-05
3.10749e-05
4.17626e-05
4.58719e-05
3.95655e-05
4.00943e-05
5.7662e-05
9.67985e-05
0.000155301
0.000226131
0.000235656
0.000221789
0.000206794
0.000206043
0.000194374
0.000200837
0.000175361
1.08536e-05
1.37243e-06
9.28392e-07
9.43486e-07
1.74287e-06
7.02872e-06
3.39919e-05
0.000199367
0.000139625
0.000144043
0.000207742
0.000171344
0.000250663
0.000198724
0.000174024
0.000151324
0.000120378
9.96198e-05
9.45663e-05