/*--------------------------------*- C++ -*----------------------------------*\
| =========                 |                                                 |
| \\      /  F ield         | OpenFOAM: The Open Source CFD Toolbox           |
|  \\    /   O peration     | Version:  2.1.1                                 |
|   \\  /    A nd           | Web:      www.OpenFOAM.org                      |
|    \\/     M anipulation  |                                                 |
\*---------------------------------------------------------------------------*/
FoamFile
{
    version     2.0;
    format      ascii;
    class       volScalarField;
    location    "0.002800000";
    object      OH;
}
// * * * * * * * * * * * * * * * * * * * * * * * * * * * * * * * * * * * * * //

dimensions      [0 0 0 0 0 0 0];

internalField   nonuniform List<scalar> 
12384
(
0.0094131
0.00831451
0.00540116
0.0033686
0.00222473
0.00240774
0.00269757
0.00250706
0.00220906
0.00215573
0.00261774
0.00339541
0.000602612
3.12555e-05
0.000229326
0.00127829
0.00084271
0.000754927
0.000713275
0.000680133
0.000692147
0.000796379
0.000963423
0.00111216
0.000990637
0.000726368
0.000680822
0.000720087
0.00070374
0.00066743
0.000649045
0.000627004
0.000625751
0.000624368
0.00060429
0.000579828
0.000541607
0.000489019
0.000478263
0.000208143
0.00022687
7.7161e-05
2.92162e-06
8.23122e-08
0.00278895
0.00308546
0.00353337
0.00400448
0.00399685
0.00405164
0.00396194
0.00397575
0.00389026
0.00390974
0.00388737
0.00378154
0.0037872
0.00357423
0.00345893
0.00348216
0.00361794
0.00367037
0.00368994
0.00347148
0.00307529
0.00244568
0.00167306
0.00110151
0.000774807
0.0006986
0.000815354
0.000360676
0.00033373
4.46071e-05
0.00282729
0.00352121
0.00413386
0.00316425
0.0027109
0.00235754
0.00225137
0.00238053
0.00247428
0.00297778
0.00365237
0.00376128
0.00382889
0.00381147
0.00377138
0.00367101
0.00360211
0.00361303
0.00366957
0.00342468
0.00234795
0.00169691
0.00191961
0.00149744
0.00121463
0.000508391
0.000558614
0.000768325
0.00104078
0.000220673
0.000106267
0.00019244
0.00171932
0.0023029
0.00394672
0.0032504
0.00261256
0.00268617
0.00266499
0.00265749
0.00261467
0.00239374
0.00211446
0.00153545
0.00145198
0.00145411
0.00208452
0.00274155
0.00330714
0.00360165
0.000713952
0.000297706
0.000217702
4.07431e-05
7.47743e-06
1.33904e-07
3.39324e-11
2.40342e-14
5.95668e-17
4.05642e-19
1.39698e-14
1.42061e-13
3.39345e-13
5.28346e-12
1.13267e-08
5.85151e-06
2.82983e-05
4.15234e-05
3.99763e-05
4.31124e-05
3.80019e-05
2.82142e-05
2.09668e-05
1.39709e-05
1.04916e-05
7.81083e-06
5.42765e-06
4.06242e-06
2.77632e-06
1.5548e-06
5.80651e-07
1.751e-07
1.06397e-08
2.92337e-10
2.2775e-11
8.46803e-13
5.11573e-15
1.60038e-17
6.37022e-20
1.47864e-22
1.92206e-38
1.66776e-38
1.69424e-40
5.71565e-42
3.93438e-44
2.95123e-46
4.28493e-49
3.55037e-52
2.29561e-55
7.59205e-59
1.93136e-62
3.9527e-66
7.00854e-70
1.20748e-73
1.9668e-77
3.06161e-81
4.94373e-85
7.65901e-89
1.13578e-92
1.8041e-96
2.6565e-100
4.14643e-104
6.18982e-108
9.6129e-112
1.4676e-115
2.30618e-119
3.64532e-123
5.81681e-127
9.4238e-131
1.52577e-134
4.3055e-149
8.6547e-152
1.89818e-155
3.57155e-159
6.32203e-163
1.083e-166
5.33012e-171
1.6495e-177
4.72309e-183
1.03751e-187
1.89758e-192
2.31708e-197
1.98443e-202
1.24965e-207
6.25084e-213
2.61622e-218
9.54585e-224
3.14089e-229
9.57965e-235
2.77227e-240
7.81681e-246
2.19867e-251
6.34566e-257
1.93644e-262
6.52448e-268
2.5718e-273
1.29201e-278
9.81946e-284
1.65591e-288
2.65554e-293
1.37627e-314
4.74506e-318
1.72923e-322
0
0
0
0
0
0
0
0
0
0
0
0
0
0
0
0
0
0
0
0
0
0
0
0
0
0
0
0
0
0
0
0
0
0
0
0
0
0
0
0
0
0
0
0
0
0
0
0
0
0
0
0
0
0
0
0
0
0
0
0
0
0
0
0
0
0
0
0
0
0
0
0
0
0
0
0
0
0
0
0
0
0
0
0
0
0
0
0
0
0
0
0
0
0
0
0
0
0
0
0
0
0
0
0
0
0
0
0
0
0
0
0
0
0
0
0
0
0
0
0
0
0
0
0
0
0
0
0
0
0
0
0
0
0
0
0
0
0
0
0
0
0
0
0
0
0
0
0.00910664
0.00530741
0.00200655
0.000845845
0.000425254
0.000336281
0.00054371
0.000807386
0.000886258
0.000928161
0.001407
0.00128965
0.000334509
1.39963e-05
0.0012731
0.00119372
0.000909975
0.000681262
0.000597505
0.000764183
0.00169312
0.00359989
0.00530434
0.00609863
0.00497773
0.00317532
0.0025794
0.00170174
0.00104864
0.00114247
0.00083047
0.000660105
0.000610667
0.000591761
0.000574636
0.000550954
0.000488771
0.00044037
0.000464663
0.000586275
0.00128075
0.000323935
1.67777e-05
3.7127e-07
0.00279872
0.00325026
0.00373628
0.00401705
0.00403025
0.00393281
0.00376491
0.00364454
0.00351024
0.00367908
0.00376402
0.00384956
0.00331877
0.00250459
0.00191141
0.00156429
0.00149431
0.00156753
0.00192494
0.00279669
0.00380815
0.00357512
0.00227544
0.0010623
0.000634389
0.000697376
0.00126952
0.00228972
0.00259554
0.00021643
0.00268097
0.00322144
0.00408589
0.00380884
0.00315499
0.00280483
0.00262973
0.00244833
0.00257819
0.00290398
0.00349123
0.00368008
0.00359506
0.00297583
0.00211635
0.00149248
0.00137098
0.00199114
0.00326649
0.00322747
0.00261026
0.00196252
0.00176929
0.00157395
0.00127903
0.000752162
0.00101892
0.00136307
0.00222316
0.000692058
0.000293521
0.00163078
0.00135741
0.00170865
0.00249705
0.00338852
0.00364105
0.00355836
0.00355748
0.00351679
0.00336842
0.00289744
0.00212094
0.00151783
0.00129627
0.00127627
0.00147553
0.0021065
0.00274176
0.00324245
0.00335518
0.00312828
0.00362466
0.000816935
0.000196972
1.39184e-05
7.74142e-09
8.67215e-12
8.04588e-15
3.21125e-17
2.18313e-12
1.98921e-11
6.68392e-11
3.69812e-10
1.32167e-06
0.000119386
0.000441955
0.000405551
0.000352463
0.000336113
0.000276971
0.000230119
0.000194643
0.000162784
0.000135348
0.000106787
9.51976e-05
6.87663e-05
4.61916e-05
3.33756e-05
2.28851e-05
1.86517e-05
5.23273e-06
1.49986e-07
4.1642e-08
2.4564e-09
4.06416e-12
1.72918e-15
4.10156e-18
1.59692e-20
9.25763e-37
4.42994e-37
1.92485e-38
8.91942e-40
3.98875e-41
2.55415e-43
7.93074e-46
1.70382e-49
7.63639e-53
1.57689e-57
1.2708e-60
9.48256e-65
2.3629e-68
2.80202e-72
5.12725e-76
7.28695e-80
1.05244e-83
1.72612e-87
2.72744e-91
4.24608e-95
6.78922e-99
1.06999e-102
1.74436e-106
2.88609e-110
4.79944e-114
8.12679e-118
1.35292e-121
2.22715e-125
3.63623e-129
6.09703e-133
2.60889e-145
4.78307e-148
7.5459e-152
1.15257e-155
1.79217e-159
2.87252e-163
4.88761e-167
9.83135e-173
5.50607e-177
1.06129e-181
1.8213e-186
2.06988e-191
1.68214e-196
1.00007e-201
4.83016e-207
1.92269e-212
6.76573e-218
2.14068e-223
6.28577e-229
1.7466e-234
4.7266e-240
1.26863e-245
3.46653e-251
9.92736e-257
3.08581e-262
1.09841e-267
4.83303e-273
3.04209e-278
3.75651e-283
4.6855e-288
3.11091e-309
5.90909e-313
2.03956e-317
5.13828e-322
0
0
0
0
0
0
0
0
0
0
0
0
0
0
0
0
0
0
0
0
0
0
0
0
0
0
0
0
0
0
0
0
0
0
0
0
0
0
0
0
0
0
0
0
0
0
0
0
0
0
0
0
0
0
0
0
0
0
0
0
0
0
0
0
0
0
0
0
0
0
0
0
0
0
0
0
0
0
0
0
0
0
0
0
0
0
0
0
0
0
0
0
0
0
0
0
0
0
0
0
0
0
0
0
0
0
0
0
0
0
0
0
0
0
0
0
0
0
0
0
0
0
0
0
0
0
0
0
0
0
0
0
0
0
0
0
0
0
0
0
0
0
0
0
0
0
0.00573979
0.00280571
0.00154637
0.000948036
0.000606045
0.000222562
0.000119027
0.000119414
0.000162668
0.000250086
0.000411409
0.000564865
0.000161722
8.87073e-06
0.000743007
0.000821088
0.00057997
0.000511843
0.00108687
0.0037572
0.0088215
0.0101744
0.00738995
0.00514033
0.00472797
0.00511861
0.00603319
0.00640722
0.00722025
0.00624172
0.00383968
0.00212997
0.000870755
0.000627636
0.000551496
0.000503705
0.000420602
0.000394051
0.000419511
0.000572674
0.000456859
0.000126469
8.34283e-06
2.92468e-07
0.00280099
0.00328759
0.00377826
0.00388991
0.00382085
0.00343696
0.00304019
0.00277439
0.00287331
0.00335967
0.00401131
0.00424056
0.0039243
0.00330924
0.00317148
0.00299279
0.00281787
0.00247517
0.00200778
0.00156309
0.00146718
0.00213761
0.00385527
0.00159478
0.000633527
0.000617574
0.0011749
0.00215092
0.00281472
0.000372874
0.00261176
0.00295431
0.00362168
0.00408821
0.0040806
0.00349072
0.00307622
0.00286422
0.00279425
0.00298122
0.00325021
0.00354589
0.00327961
0.00231482
0.00140023
0.000863765
0.000774409
0.000867655
0.00220363
0.00331626
0.00214148
0.00124339
0.000716622
0.000431985
0.000388858
0.000529261
0.000833031
0.0012154
0.00208748
0.000569474
0.000690124
0.00130816
0.00111898
0.00129646
0.0018502
0.00267578
0.00327751
0.00353169
0.00352188
0.003424
0.00349534
0.00330116
0.00227628
0.0015012
0.00124636
0.00097985
0.00108478
0.00119797
0.00152107
0.00256566
0.00237081
0.00139847
0.00137563
0.00144954
0.000498977
0.000526368
2.96979e-05
3.28975e-08
5.44267e-12
5.59947e-15
8.69833e-11
4.12472e-09
1.79051e-08
1.82382e-08
5.51683e-06
0.000365589
0.00250473
0.0023982
0.00140497
0.000829582
0.000751941
0.000637613
0.000521988
0.000453318
0.000379884
0.000371097
0.000367729
0.000344059
0.000210489
0.000211001
0.000200944
0.00021046
4.22934e-05
7.27387e-06
1.11695e-06
1.78183e-07
4.42721e-09
2.33921e-11
2.67363e-15
5.27544e-19
1.0776e-33
6.75927e-32
8.63987e-34
9.86839e-35
1.32366e-36
1.22941e-38
2.48131e-41
3.84945e-44
2.31595e-47
1.92899e-51
7.62236e-57
2.53429e-61
8.19447e-68
3.83492e-70
3.79518e-76
1.50586e-78
7.59414e-84
1.0518e-86
3.95477e-91
9.07614e-95
5.6108e-99
1.21227e-102
1.29678e-106
2.4085e-110
3.23929e-114
5.10721e-118
8.1196e-122
1.18e-125
1.69961e-129
7.40658e-134
2.61688e-145
1.58938e-147
1.74806e-151
2.02714e-155
3.72585e-159
6.17286e-163
1.26371e-166
2.22011e-170
3.8726e-174
5.62594e-179
9.686e-184
1.0017e-188
8.20307e-194
4.57394e-199
2.29798e-204
8.09214e-210
2.71874e-215
7.66866e-221
2.15508e-226
5.46349e-232
1.42264e-237
3.48574e-243
9.03291e-249
2.34745e-254
6.74244e-260
2.12558e-265
8.15209e-271
4.17603e-276
3.64099e-281
8.98648e-287
8.32528e-308
2.89301e-311
7.90939e-316
1.63931e-320
0
0
0
0
0
0
0
0
0
0
0
0
0
0
0
0
0
0
0
0
0
0
0
0
0
0
0
0
0
0
0
0
0
0
0
0
0
0
0
0
0
0
0
0
0
0
0
0
0
0
0
0
0
0
0
0
0
0
0
0
0
0
0
0
0
0
0
0
0
0
0
0
0
0
0
0
0
0
0
0
0
0
0
0
0
0
0
0
0
0
0
0
0
0
0
0
0
0
0
0
0
0
0
0
0
0
0
0
0
0
0
0
0
0
0
0
0
0
0
0
0
0
0
0
0
0
0
0
0
0
0
0
0
0
0
0
0
0
0
0
0
0
0
0
0
0
0.0026482
0.00337312
0.0057844
0.00660586
0.00526853
0.0017095
0.000559512
0.000236391
0.000153203
0.000117373
0.000123486
0.000150835
5.73318e-05
5.79929e-06
0.000319394
0.000374819
0.00036957
0.00108191
0.00590138
0.0106362
0.00623169
0.00275529
0.00163491
0.00118208
0.00112063
0.00124236
0.00119966
0.00169367
0.00245822
0.00324264
0.00528094
0.0070798
0.00391346
0.00123562
0.000693653
0.000514552
0.000378021
0.000297178
0.000299867
0.000308338
0.000132255
3.41783e-05
4.3276e-06
3.91092e-07
0.00279884
0.00336852
0.00370821
0.00376314
0.00340564
0.00287613
0.00232808
0.00218652
0.00280691
0.00431151
0.00440659
0.00366967
0.00379324
0.00369547
0.00389949
0.00449687
0.00279813
0.00203029
0.00245135
0.00380269
0.00222408
0.00145197
0.00220041
0.00278971
0.000710956
0.000418569
0.000683996
0.00164547
0.00277913
0.000369352
0.00247752
0.0027625
0.00321556
0.00375118
0.00402087
0.00402019
0.00373447
0.00328388
0.00318358
0.00309601
0.00320904
0.00336738
0.00316189
0.00269604
0.00173404
0.00111883
0.000757436
0.000727293
0.00138759
0.00321784
0.00143693
0.000784985
0.000442629
0.000356938
0.000422227
0.000524994
0.000850925
0.0013327
0.00218553
0.000724727
0.00165961
0.00148517
0.00129006
0.00137508
0.00205075
0.00283825
0.00332086
0.00340108
0.00322375
0.00293966
0.00309017
0.00352621
0.00253383
0.00167678
0.0012414
0.000858306
0.000627598
0.000680418
0.000805809
0.00124002
0.00139384
0.000914738
0.000509057
0.000388809
0.000473327
0.000868929
0.000944907
2.72354e-05
3.09084e-09
1.7932e-12
4.51913e-11
3.30219e-07
3.37799e-06
1.44321e-06
4.97751e-06
0.000178214
0.000824991
0.00313686
0.00232395
0.00161186
0.000939708
0.000749101
0.000654834
0.000395799
0.000418733
0.000253851
0.000311106
0.000195613
0.000231498
0.000118915
0.000106216
6.49827e-05
3.54686e-05
3.83745e-05
5.01146e-05
7.14024e-06
9.81486e-08
2.5434e-09
4.54398e-11
1.89318e-15
1.29503e-27
6.65142e-27
1.28024e-29
1.56341e-31
1.80251e-33
8.12117e-36
1.55994e-38
1.47354e-41
1.74199e-44
2.08193e-47
3.12664e-50
7.06934e-55
7.90927e-60
9.55851e-65
8.45528e-69
1.22155e-73
1.76215e-77
4.32518e-82
7.66276e-86
3.18434e-90
5.41121e-94
3.59214e-98
7.54765e-102
6.42036e-106
1.39202e-109
1.26544e-113
2.3892e-117
2.0974e-121
3.21893e-125
2.50307e-129
4.771e-140
9.08727e-143
7.72281e-147
1.10039e-150
1.55065e-154
2.96899e-158
4.91728e-162
9.76097e-166
1.67214e-169
3.32048e-173
4.8054e-178
5.03363e-183
3.38192e-188
1.95433e-193
8.62393e-199
2.90497e-204
8.18371e-210
2.29964e-215
5.79551e-221
1.4561e-226
3.43092e-232
8.18075e-238
1.92129e-243
4.71094e-249
1.21299e-254
3.44912e-260
1.13179e-265
4.78468e-271
3.1492e-276
1.91134e-281
2.8624e-302
1.84102e-306
3.3218e-311
4.826e-316
6.71435e-321
0
0
0
0
0
0
0
0
0
0
0
0
0
0
0
0
0
0
0
0
0
0
0
0
0
0
0
0
0
0
0
0
0
0
0
0
0
0
0
0
0
0
0
0
0
0
0
0
0
0
0
0
0
0
0
0
0
0
0
0
0
0
0
0
0
0
0
0
0
0
0
0
0
0
0
0
0
0
0
0
0
0
0
0
0
0
0
0
0
0
0
0
0
0
0
0
0
0
0
0
0
0
0
0
0
0
0
0
0
0
0
0
0
0
0
0
0
0
0
0
0
0
0
0
0
0
0
0
0
0
0
0
0
0
0
0
0
0
0
0
0
0
0
0
0
0.00579899
0.0122533
0.0156043
0.0147886
0.0115404
0.0109278
0.00803424
0.0040883
0.00229388
0.000455056
5.34152e-05
1.63806e-05
1.59659e-05
8.08539e-06
0.000154068
0.000239787
0.00131216
0.00777351
0.00769177
0.0036221
0.00153199
0.000942631
0.000827043
0.000812771
0.00088844
0.000986736
0.000960762
0.000997861
0.00107594
0.00124517
0.00206214
0.0035534
0.00666626
0.0048465
0.00184295
0.000769089
0.000405693
0.000233727
0.000158312
0.00010352
3.10072e-05
9.18207e-06
6.53813e-06
1.2979e-06
0.0027978
0.00331985
0.00357861
0.00354593
0.00294657
0.00236552
0.00195826
0.00221811
0.00358588
0.00408615
0.00272836
0.00273345
0.00289281
0.00318988
0.00356166
0.0030381
0.00147437
0.00125506
0.00135863
0.00214808
0.00378386
0.00207969
0.00178476
0.0038189
0.000856089
0.000310527
0.00040984
0.00123419
0.00212015
0.000426412
0.00225639
0.00247218
0.00264497
0.00304092
0.00368242
0.00403454
0.00397478
0.00384975
0.00360509
0.00332305
0.0033175
0.00342389
0.00348995
0.00354184
0.0033432
0.0024063
0.00124435
0.000775492
0.00124515
0.0029812
0.000905291
0.000458076
0.000332568
0.000412038
0.000547109
0.000757216
0.000998301
0.00164408
0.00219088
0.00295833
0.00170968
0.00165683
0.0014542
0.00181277
0.00282609
0.00346375
0.00349136
0.00319872
0.00283445
0.00264004
0.00282028
0.00345516
0.00312116
0.00218148
0.00147197
0.000840407
0.000508861
0.000363963
0.000377936
0.000478761
0.000606041
0.000473645
0.000372771
0.000241912
0.000209441
0.000337176
0.00149185
0.000630348
1.14807e-05
4.33634e-10
1.08117e-09
6.92541e-06
0.000187535
0.000120367
0.000141331
0.000761677
0.00352099
0.00331021
0.00262556
0.00192472
0.00103215
0.000609745
0.00039582
0.0003656
0.000195718
0.000233722
0.000127453
0.000153585
0.000101847
0.00010237
5.53431e-05
3.53477e-05
3.09397e-05
2.12911e-05
1.3101e-05
1.05878e-05
1.35972e-06
6.89658e-08
1.93441e-09
1.43719e-11
2.43765e-23
1.84508e-23
2.12774e-26
1.47583e-28
9.45164e-31
9.75639e-33
1.74333e-35
2.25934e-38
1.02476e-41
6.03932e-45
6.47964e-48
1.56942e-50
3.66777e-54
1.00448e-58
2.89051e-63
2.41835e-67
7.03942e-72
7.00779e-76
2.92729e-80
4.11374e-84
2.30085e-88
3.83294e-92
2.87483e-96
5.85146e-100
5.34414e-104
9.89329e-108
1.05135e-111
1.47652e-115
1.59907e-119
2.12897e-123
4.95391e-134
6.94279e-137
6.88084e-141
7.77814e-145
1.28175e-148
2.13428e-152
4.02445e-156
7.18261e-160
1.38397e-163
2.50937e-167
4.87816e-171
4.43142e-176
2.95909e-181
1.87314e-186
9.11744e-192
2.30505e-197
5.45494e-203
1.29746e-208
3.08387e-214
7.00498e-220
1.56042e-225
3.40908e-231
7.48001e-237
1.66126e-242
3.87311e-248
9.62299e-254
2.72602e-259
9.39397e-265
4.7549e-270
3.24849e-275
8.83786e-296
2.89701e-300
3.31902e-305
3.28221e-310
3.28692e-315
3.42387e-320
0
0
0
0
0
0
0
0
0
0
0
0
0
0
0
0
0
0
0
0
0
0
0
0
0
0
0
0
0
0
0
0
0
0
0
0
0
0
0
0
0
0
0
0
0
0
0
0
0
0
0
0
0
0
0
0
0
0
0
0
0
0
0
0
0
0
0
0
0
0
0
0
0
0
0
0
0
0
0
0
0
0
0
0
0
0
0
0
0
0
0
0
0
0
0
0
0
0
0
0
0
0
0
0
0
0
0
0
0
0
0
0
0
0
0
0
0
0
0
0
0
0
0
0
0
0
0
0
0
0
0
0
0
0
0
0
0
0
0
0
0
0
0
0
0.0148793
0.0164285
0.0112001
0.00483703
0.00207927
0.00227097
0.00322522
0.00556846
0.00784163
0.00317392
7.71724e-05
6.31458e-06
1.85289e-06
2.8871e-05
0.00015024
0.00113506
0.00875835
0.00662388
0.00301193
0.00130577
0.000861362
0.000878542
0.0016306
0.00340872
0.00496079
0.00484365
0.00286756
0.00157884
0.00121805
0.00099816
0.00137732
0.00172391
0.00355573
0.00626482
0.00584212
0.00199126
0.000592958
0.000175611
7.36137e-05
2.287e-05
8.54604e-06
3.41319e-06
2.0076e-05
1.04583e-05
0.00276177
0.00319976
0.00332513
0.00314604
0.00256436
0.00200521
0.00189511
0.00280964
0.00432751
0.00286436
0.00168073
0.00207733
0.00229815
0.00270366
0.00342191
0.00308257
0.00213
0.00210396
0.0021672
0.00224097
0.00311982
0.00349346
0.00213032
0.00389815
0.000930711
0.000237836
0.000241232
0.000744414
0.00155819
0.000468558
0.00214633
0.00232836
0.00237809
0.00284286
0.00354722
0.00402024
0.0040715
0.00408627
0.00376279
0.00364551
0.00354426
0.00370687
0.00365244
0.00364036
0.00365226
0.00326687
0.00197055
0.00112464
0.00177654
0.002186
0.000556873
0.000322234
0.00038513
0.000866461
0.00172324
0.00151686
0.00169677
0.00182344
0.00209586
0.00243245
0.0016028
0.00175966
0.00167252
0.00244586
0.00353323
0.00363296
0.0033578
0.00292234
0.00275457
0.00271828
0.00290329
0.00328699
0.00359663
0.00300078
0.00207956
0.00114211
0.000495693
0.000284837
0.000207814
0.000195328
0.000195749
0.000185778
0.000171364
0.000150531
0.000104259
0.000110073
0.000285892
0.00161267
0.000422569
2.6735e-06
1.33465e-07
0.000431069
0.000605584
0.000514673
0.00102318
0.00144492
0.00224411
0.00241574
0.00189762
0.00106253
0.000442173
0.000230843
0.000138315
8.88761e-05
7.56001e-05
4.65772e-05
6.35712e-05
4.41974e-05
6.6183e-05
5.76694e-05
4.5976e-05
3.50185e-05
2.21879e-05
1.48633e-05
1.09932e-05
4.24002e-06
3.36704e-06
6.6313e-07
3.89347e-08
3.50926e-09
9.88089e-20
3.55095e-20
4.11226e-23
1.18829e-25
5.78428e-28
1.45544e-30
1.20075e-32
2.9254e-35
2.63264e-38
8.74167e-42
3.0731e-45
2.66914e-48
4.27048e-51
3.79722e-54
3.39449e-58
1.83835e-62
2.03621e-66
8.46556e-71
1.13816e-74
6.08509e-79
9.90558e-83
6.01442e-87
1.22283e-90
9.40167e-95
2.14446e-98
1.75326e-102
3.53388e-106
3.10277e-110
5.12614e-114
4.46572e-118
1.4502e-128
2.14189e-131
2.06552e-135
3.02921e-139
4.04098e-143
7.67907e-147
1.24468e-150
2.47354e-154
4.35333e-158
8.70698e-162
1.56748e-165
3.13323e-169
1.82447e-174
2.428e-179
1.03016e-184
1.98748e-190
3.02001e-196
5.65593e-202
1.14277e-207
2.39068e-213
4.82819e-219
9.75439e-225
1.9556e-230
3.98048e-236
8.29671e-242
1.82311e-247
4.4411e-253
1.2706e-258
4.85829e-264
2.32553e-269
1.54679e-289
3.89325e-294
3.00717e-299
2.10545e-304
1.51462e-309
1.19307e-314
1.05938e-319
0
0
0
0
0
0
0
0
0
0
0
0
0
0
0
0
0
0
0
0
0
0
0
0
0
0
0
0
0
0
0
0
0
0
0
0
0
0
0
0
0
0
0
0
0
0
0
0
0
0
0
0
0
0
0
0
0
0
0
0
0
0
0
0
0
0
0
0
0
0
0
0
0
0
0
0
0
0
0
0
0
0
0
0
0
0
0
0
0
0
0
0
0
0
0
0
0
0
0
0
0
0
0
0
0
0
0
0
0
0
0
0
0
0
0
0
0
0
0
0
0
0
0
0
0
0
0
0
0
0
0
0
0
0
0
0
0
0
0
0
0
0
0
0.0157513
0.0106901
0.0033189
0.000939835
0.000640236
0.00088435
0.00175363
0.00312279
0.00478898
0.00726008
0.000496467
1.75481e-05
4.56903e-06
1.00803e-05
0.000433859
0.00848596
0.00661386
0.00316961
0.00152554
0.000957919
0.00135113
0.00499816
0.00150039
0.00069547
0.00049187
0.000513713
0.000835054
0.00226603
0.00405344
0.00142186
0.00122256
0.00134713
0.00226738
0.00437666
0.00732524
0.00496338
0.000757464
0.000147194
3.21822e-05
7.67226e-06
6.58382e-06
6.65486e-06
1.84009e-05
1.7333e-05
0.00276222
0.00303223
0.00306257
0.00277234
0.00223004
0.00190528
0.00230102
0.00389425
0.00308797
0.0023677
0.00177823
0.0015632
0.00192294
0.00227204
0.0027754
0.00376078
0.00375944
0.00337683
0.00326606
0.00333657
0.00357441
0.0036732
0.00281847
0.00376347
0.000794943
0.000212964
0.000201029
0.000607612
0.00129104
0.000460401
0.00188798
0.00205801
0.00224877
0.00289334
0.00360197
0.00396229
0.00402779
0.00391534
0.00396737
0.0038117
0.00375187
0.0036541
0.0036751
0.00290018
0.0016022
0.00158967
0.00189963
0.00150571
0.00339358
0.00119071
0.000348467
0.000301038
0.000843645
0.00228211
0.00286552
0.00300022
0.00239787
0.002161
0.00198226
0.00223148
0.00148794
0.00170477
0.00191378
0.00311916
0.00367971
0.00365168
0.00329032
0.00306418
0.00314012
0.0031335
0.00314126
0.00331662
0.0035496
0.00353236
0.00285541
0.00144341
0.000568351
0.000266936
0.000150192
9.99787e-05
8.56705e-05
6.83414e-05
6.76825e-05
5.56162e-05
5.27763e-05
4.54998e-05
7.84101e-05
0.000259537
0.00230902
0.00012777
7.86136e-07
0.000329831
0.00341109
0.0038671
0.00106622
0.0013058
0.00123622
0.00130139
0.000897673
0.000415002
0.000177381
9.51939e-05
6.08021e-05
5.06634e-05
3.49023e-05
2.63851e-05
1.86919e-05
1.7724e-05
1.70423e-05
2.46827e-05
2.33512e-05
2.48124e-05
1.46021e-05
1.09365e-05
8.22077e-06
6.15121e-06
3.3036e-06
3.43314e-06
2.67206e-07
3.74612e-08
3.65304e-16
8.31078e-17
4.45455e-20
1.45941e-22
3.23731e-26
7.85803e-28
5.55535e-30
6.13309e-32
6.97513e-35
4.39664e-38
1.05784e-41
3.10008e-45
1.70993e-48
1.72606e-51
1.2578e-54
2.74481e-58
3.37768e-62
4.79098e-66
4.5731e-70
6.43646e-74
6.05651e-78
8.85801e-82
9.42315e-86
1.66549e-89
2.0615e-93
3.52397e-97
4.39335e-101
6.56341e-105
7.61742e-109
1.00042e-112
2.7448e-123
2.89039e-126
3.49053e-130
4.53181e-134
7.53178e-138
1.29762e-141
2.5325e-145
4.70808e-149
9.43911e-153
1.76963e-156
3.55793e-160
6.73285e-164
1.33813e-167
6.36785e-172
1.92907e-177
2.82004e-183
2.84135e-189
3.27845e-195
5.03969e-201
8.98039e-207
1.65476e-212
3.04571e-218
5.63289e-224
1.04082e-229
1.94952e-235
3.77634e-241
7.95042e-247
1.89524e-252
5.59805e-258
2.14809e-263
5.9272e-283
1.00158e-287
4.07594e-293
1.86213e-298
9.54876e-304
5.57374e-309
3.84223e-314
3.10451e-319
4.94066e-324
0
0
0
0
0
0
0
0
0
0
0
0
0
0
0
0
0
0
0
0
0
0
0
0
0
0
0
0
0
0
0
0
0
0
0
0
0
0
0
0
0
0
0
0
0
0
0
0
0
0
0
0
0
0
0
0
0
0
0
0
0
0
0
0
0
0
0
0
0
0
0
0
0
0
0
0
0
0
0
0
0
0
0
0
0
0
0
0
0
0
0
0
0
0
0
0
0
0
0
0
0
0
0
0
0
0
0
0
0
0
0
0
0
0
0
0
0
0
0
0
0
0
0
0
0
0
0
0
0
0
0
0
0
0
0
0
0
0
0
0
0
0.0100965
0.00400245
0.000747937
0.000371024
0.000685225
0.00240899
0.00576578
0.00746439
0.007976
0.0064998
0.000703024
3.14524e-05
4.51899e-06
1.08807e-05
0.00161823
0.00906646
0.00506246
0.00221175
0.00128136
0.00154904
0.00379346
0.000538395
0.000272145
0.00025197
0.000299341
0.000362548
0.000612707
0.00108348
0.00306848
0.0038685
0.00192617
0.00198791
0.00260499
0.00413219
0.00733542
0.00544305
0.000875034
0.000120251
2.20434e-05
5.58905e-06
6.66766e-06
2.38734e-05
2.9011e-05
3.563e-05
0.00268156
0.00291199
0.00278148
0.00241085
0.00202977
0.00218193
0.00329724
0.00402514
0.00253315
0.00213691
0.00171934
0.000744044
0.00125319
0.0016878
0.00207402
0.00239848
0.00290222
0.00374055
0.0038316
0.00344944
0.00344362
0.00329836
0.00380831
0.00224946
0.000497239
0.000243099
0.000342388
0.000866412
0.00146267
0.00165027
0.00154333
0.00172217
0.00223134
0.00306222
0.00374226
0.00395028
0.00391363
0.00378115
0.00377597
0.00364519
0.00363047
0.00369292
0.00150309
0.000491526
0.000396219
0.000627483
0.00120842
0.00189156
0.00323365
0.000753705
0.000315663
0.000574926
0.00169285
0.00385299
0.00403339
0.00395754
0.00350028
0.0025304
0.00204971
0.00183788
0.00228243
0.00168755
0.00196853
0.00365928
0.00356833
0.00368087
0.00348983
0.00348199
0.00351452
0.00357083
0.00355855
0.00355344
0.0035768
0.00362899
0.00312877
0.00151991
0.000569087
0.000237813
0.000108077
5.99741e-05
3.73687e-05
3.17001e-05
2.34499e-05
2.67138e-05
2.04172e-05
2.03046e-05
2.49056e-05
5.22393e-05
0.000396413
0.000422679
5.04189e-05
0.00080044
0.00308633
0.0036071
0.00275049
0.00121012
0.000779054
0.000570339
0.0004115
0.000229803
0.000138246
0.000121197
0.000125533
9.83673e-05
8.2939e-05
4.3435e-05
2.9482e-05
1.27261e-05
1.0035e-05
8.32647e-06
1.11528e-05
1.11925e-05
9.48491e-06
7.54311e-06
5.72603e-06
5.90406e-06
5.07499e-06
3.21365e-06
1.0369e-06
9.95077e-08
1.07222e-12
4.0148e-14
1.99806e-17
8.68421e-20
8.4417e-23
1.54394e-24
1.05828e-26
1.11971e-28
2.07854e-31
1.13364e-34
4.66471e-38
1.06396e-41
3.42613e-45
1.73399e-48
1.08776e-51
4.81079e-55
1.00012e-58
2.14825e-62
3.14692e-66
4.89331e-70
6.8058e-74
9.73737e-78
1.71251e-81
2.57032e-85
4.9788e-89
6.86348e-93
1.24184e-96
1.56325e-100
2.563e-104
3.15809e-108
6.53315e-119
4.39788e-122
7.0106e-126
1.23322e-129
2.18221e-133
4.29411e-137
8.22596e-141
1.68128e-144
3.30271e-148
6.67565e-152
1.32652e-155
2.64078e-159
5.25916e-163
1.03333e-166
1.08442e-170
1.44342e-176
1.12242e-182
8.33341e-189
8.0396e-195
1.05914e-200
1.66469e-206
2.7557e-212
4.67105e-218
7.80957e-224
1.30645e-229
2.25175e-235
4.14923e-241
8.38156e-247
1.96494e-252
5.18026e-258
9.35289e-277
3.46218e-282
1.21828e-287
4.57805e-293
1.90742e-298
9.04955e-304
5.02374e-309
3.36842e-314
2.65121e-319
0
0
0
0
0
0
0
0
0
0
0
0
0
0
0
0
0
0
0
0
0
0
0
0
0
0
0
0
0
0
0
0
0
0
0
0
0
0
0
0
0
0
0
0
0
0
0
0
0
0
0
0
0
0
0
0
0
0
0
0
0
0
0
0
0
0
0
0
0
0
0
0
0
0
0
0
0
0
0
0
0
0
0
0
0
0
0
0
0
0
0
0
0
0
0
0
0
0
0
0
0
0
0
0
0
0
0
0
0
0
0
0
0
0
0
0
0
0
0
0
0
0
0
0
0
0
0
0
0
0
0
0
0
0
0
0
0
0
0
0
0
0.00503067
0.00161029
0.000365906
0.000446142
0.00247076
0.00900189
0.00957219
0.00903206
0.00856647
0.0038351
0.000141158
1.85199e-05
8.01533e-05
0.000658282
0.00175145
0.00297984
0.00706535
0.00708426
0.00366916
0.00200794
0.00148424
0.00474816
0.000664665
0.000311275
0.000274976
0.000337323
0.00050126
0.000801008
0.00122378
0.00195276
0.00327894
0.00563799
0.0052118
0.00448568
0.00504907
0.00675017
0.00562544
0.00226897
0.000400863
8.86181e-05
2.27602e-05
8.00589e-06
1.32029e-05
3.40979e-05
2.53017e-05
0.000542549
0.00092981
0.000880465
0.00249979
0.00271063
0.00256805
0.00222463
0.00219314
0.0029518
0.00416068
0.00350184
0.00306041
0.0011229
0.00060288
0.000602632
0.000941562
0.00127792
0.00161152
0.00194013
0.00256151
0.00377437
0.00337695
0.00215251
0.00254973
0.00382321
0.00249091
0.000888413
0.000379988
0.000319288
0.000510791
0.000896228
0.00136637
0.00158824
0.00125778
0.00108366
0.00106734
0.00139407
0.00220072
0.00316822
0.00370434
0.00376206
0.00360227
0.00347522
0.00356736
0.00348893
0.00364348
0.00180586
0.000414634
0.00022723
0.000242562
0.000326137
0.000824327
0.00203979
0.00314232
0.000983336
0.00067101
0.00146887
0.00380211
0.00387856
0.00392474
0.00356228
0.00319687
0.00231881
0.00180971
0.00163825
0.00155109
0.00174841
0.00219626
0.00159873
0.0021018
0.00379511
0.00353877
0.00383728
0.00371152
0.00364981
0.00354486
0.00233882
0.00213625
0.00285759
0.00329782
0.00335911
0.00273467
0.00120536
0.000458469
0.000180374
7.17434e-05
3.4794e-05
2.144e-05
1.581e-05
1.63467e-05
1.29483e-05
1.14179e-05
1.14087e-05
1.16026e-05
2.14853e-05
6.6227e-05
0.00337064
0.00203303
0.00177978
0.00209238
0.00366388
0.00362228
0.00357232
0.00420715
0.00275347
0.000786836
0.00058666
0.000372511
0.000228064
0.000177013
0.000220287
0.000207096
0.000166923
8.35554e-05
5.13522e-05
3.94926e-05
3.00407e-05
1.25273e-05
9.34528e-06
6.03273e-06
6.1136e-06
5.65618e-06
5.64546e-06
5.0887e-06
5.12134e-06
5.3273e-06
4.34506e-06
2.27283e-06
4.76617e-06
5.29154e-08
2.87131e-09
3.71751e-10
1.5753e-11
1.10668e-13
1.82672e-15
1.41236e-18
5.04077e-20
2.2283e-23
7.38823e-25
5.92766e-28
4.32481e-31
1.42268e-34
4.56095e-38
1.11447e-41
3.61926e-45
1.33341e-48
5.77655e-52
1.37713e-55
2.74507e-59
5.28338e-63
7.58874e-67
1.29564e-70
1.7359e-74
2.45778e-78
3.37838e-82
5.30145e-86
8.65547e-90
1.69914e-93
3.91438e-97
9.76427e-101
2.49641e-104
4.23277e-108
8.40175e-112
1.30942e-115
3.28503e-119
8.23903e-123
2.36052e-126
5.38021e-130
1.30896e-133
2.83608e-137
6.42641e-141
1.3622e-144
2.94639e-148
6.15418e-152
1.29076e-155
2.6567e-159
5.4467e-163
1.10172e-166
1.12849e-170
7.24325e-177
4.256e-183
2.7927e-189
2.47701e-195
2.96486e-201
4.19078e-207
6.30223e-213
9.61521e-219
1.46263e-224
2.27214e-230
3.62194e-236
5.94321e-242
9.65726e-248
1.42935e-253
2.00379e-259
2.98975e-265
4.58149e-271
7.72667e-277
1.49962e-282
3.55411e-288
1.02092e-293
3.55413e-299
1.49977e-304
7.77504e-310
4.80875e-315
3.45895e-320
0
0
0
0
0
0
0
0
0
0
0
0
0
0
0
0
0
0
0
0
0
0
0
0
0
0
0
0
0
0
0
0
0
0
0
0
0
0
0
0
0
0
0
0
0
0
0
0
0
0
0
0
0
0
0
0
0
0
0
0
0
0
0
0
0
0
0
0
0
0
0
0
0
0
0
0
0
0
0
0
0
0
0
0
0
0
0
0
0
0
0
0
0
0
0
0
0
0
0
0
0
0
0
0
0
0
0
0
0
0
0
0
0
0
0
0
0
0
0
0
0
0
0
0
0
0
0
0
0
0
0
0
0
0
0
0
0
0
0
0
0
0
0
0
0
0
0
0
0
0
0.00234947
0.000605927
0.000260343
0.000944704
0.0069376
0.0102392
0.0100515
0.0100572
0.0093406
0.00512082
0.000312605
2.56485e-05
5.67286e-05
0.000507951
0.002089
0.00566699
0.00934352
0.00566719
0.00271638
0.00175023
0.00224184
0.00225578
0.000714635
0.000505496
0.000435156
0.000398615
0.000431167
0.000651458
0.000825842
0.00123521
0.00155119
0.00203274
0.00230509
0.00237441
0.00198778
0.00119094
0.000823623
0.000501158
0.000254084
0.000118796
4.86573e-05
2.02114e-05
3.04954e-05
6.46002e-05
0.000245085
0.000484782
0.00068499
0.00124394
0.00255709
0.00257876
0.0023305
0.00230713
0.00286917
0.00378873
0.00404246
0.00303083
0.00101693
0.000520416
0.000464417
0.000591659
0.000943863
0.00122436
0.00144758
0.00191158
0.00326327
0.00336531
0.00356737
0.00257709
0.00383626
0.00222299
0.000865981
0.00041234
0.000316866
0.000362332
0.000539537
0.000774897
0.000968291
0.00102652
0.000914552
0.000936633
0.00119227
0.0017432
0.00251015
0.00338778
0.00359198
0.00343703
0.00322424
0.00330498
0.00330846
0.00343722
0.00349072
0.000840685
0.00026424
0.00021606
0.000218467
0.000305469
0.00064175
0.0015569
0.00362114
0.00251002
0.00257013
0.00366038
0.00353121
0.00384321
0.00305672
0.00269912
0.00242487
0.00203447
0.00175626
0.00168178
0.00163817
0.00167052
0.00158855
0.0013981
0.00207868
0.00377023
0.00369328
0.00366066
0.00370969
0.00360115
0.00131507
0.000462822
0.000490748
0.00104665
0.00164754
0.00179254
0.00124933
0.000640499
0.000262343
0.000109705
4.2684e-05
2.12997e-05
1.31535e-05
1.24471e-05
1.19756e-05
1.19839e-05
1.21406e-05
1.25404e-05
1.38164e-05
1.76374e-05
3.16444e-05
8.00565e-05
0.000331429
0.000732743
0.000677525
0.00065139
0.000577546
0.000808826
0.00128059
0.00197551
0.00161742
0.000882577
0.000542066
0.000384736
0.000297714
0.000285832
0.000262294
0.000159027
8.17464e-05
3.94852e-05
2.90554e-05
2.37977e-05
1.98353e-05
1.12372e-05
6.97285e-06
5.16171e-06
5.01584e-06
5.24548e-06
5.48544e-06
5.23475e-06
5.16306e-06
6.57702e-06
1.60938e-06
8.65634e-06
7.36498e-06
9.45097e-07
9.11816e-07
2.56225e-07
2.22146e-09
2.7157e-11
1.92485e-14
8.19039e-16
6.85643e-19
5.81789e-21
4.35475e-24
1.77321e-27
6.56006e-31
1.70948e-34
4.42271e-38