/*--------------------------------*- C++ -*----------------------------------*\
| =========                 |                                                 |
| \\      /  F ield         | OpenFOAM: The Open Source CFD Toolbox           |
|  \\    /   O peration     | Version:  2.1.1                                 |
|   \\  /    A nd           | Web:      www.OpenFOAM.org                      |
|    \\/     M anipulation  |                                                 |
\*---------------------------------------------------------------------------*/
FoamFile
{
    version     2.0;
    format      ascii;
    class       volScalarField;
    location    "0.002800000";
    object      omegaC_burn;
}
// * * * * * * * * * * * * * * * * * * * * * * * * * * * * * * * * * * * * * //

dimensions      [1 -3 -1 0 0 0 0];

internalField   nonuniform List<scalar> 
12384
(
14731.6
15537.4
15472.4
16074.5
17827.7
18492.3
18863.2
17708.3
16858.7
17175.9
14393.1
13833.6
878.861
79.9657
985.558
16795.3
19870.2
24111
34596.2
44270.6
53808.8
62817.8
61391.7
63424.8
61400.4
59271.5
66247.8
58362.6
50669.6
57730
43243.9
42891.1
35271.3
30307.7
32174.6
30897.7
33621.8
24679.2
24428.4
1857.48
710.998
109.098
9.73973
0.342473
30204.9
59649.6
87735.4
101139
134920
145996
175600
186528
218004
230458
246671
293556
298352
287227
273237
238823
203021
174965
153192
129321
104822
79321.8
65984.8
53369.3
45597
41435.9
31579.5
1386.25
937.676
84.4973
23285.2
61951.2
106841
159544
224332
242684
270353
250366
335672
317913
343039
371766
358602
350831
347552
359117
380561
357678
302000
256197
185979
150977
225520
219552
194436
7324.18
4641.25
5239.16
4290.66
590.867
136.181
761.958
55005
131037
210011
288460
322217
308359
299432
251125
250826
276925
373317
431073
404439
282491
164191
114907
74707.4
61472.1
3287.9
1157.41
984.838
238.185
61.4412
8.9598
0.0538595
1.31923e-05
3.57344e-09
1.15354e-11
7.10495e-07
6.92418e-06
1.09502e-05
0.0010338
0.560807
14.3456
61.6579
66.7307
59.5776
67.2862
67.3276
54.889
46.5747
42.0457
39.1785
35.9335
33.7914
26.8048
22.7691
22.8067
11.9359
11.4064
1.42302
0.0418205
0.00557838
0.000520607
4.29981e-06
1.18391e-08
2.50122e-11
4.53789e-14
3.06058e-30
3.88234e-30
3.26827e-32
1.56257e-33
1.74265e-35
1.39273e-37
2.74386e-40
2.23869e-43
1.0802e-46
2.93493e-50
5.60746e-54
1.09863e-57
1.80861e-61
3.12303e-65
5.36976e-69
7.96189e-73
1.29759e-76
1.95807e-80
2.7891e-84
4.37143e-88
6.17404e-92
9.55384e-96
1.36879e-99
2.112e-103
3.10997e-107
4.82621e-111
7.47642e-115
1.17024e-118
1.88635e-122
3.02434e-126
7.37215e-141
1.44778e-143
3.36308e-147
6.39569e-151
1.14037e-154
1.96799e-158
4.05151e-162
0
0
0
0
0
0
0
0
0
0
0
0
0
0
0
0
0
0
0
0
0
0
0
0
0
0
0
0
0
0
0
0
0
0
0
0
0
0
0
0
0
0
0
0
0
0
0
0
0
0
0
0
0
0
0
0
0
0
0
0
0
0
0
0
0
0
0
0
0
0
0
0
0
0
0
0
0
0
0
0
0
0
0
0
0
0
0
0
0
0
0
0
0
0
0
0
0
0
0
0
0
0
0
0
0
0
0
0
0
0
0
0
0
0
0
0
0
0
0
0
0
0
0
0
0
0
0
0
0
0
0
0
0
0
0
0
0
0
0
0
0
0
0
0
0
0
0
0
0
0
0
0
0
0
0
0
0
0
0
0
0
0
0
0
0
0
0
0
0
0
0
0
0
16020.8
13227.5
11926.2
11740.1
13148.1
17440
19851.8
21790.9
22001.5
21600.2
18943.2
15511.7
704.495
45.9919
19451.3
32816
41942.5
50455.3
52385.3
67656.7
74211.6
81498.4
87245.6
89921.2
87439.7
83495.1
88569.6
85368.9
70247.1
79080.4
54609.9
46069.9
45122.7
42489.7
43101.9
38922.3
28105.9
15296.2
12184.7
37763.9
35501.2
1082.61
67.6088
1.91212
76706.6
92646.7
103451
94879.8
85258.6
68728
52701.4
43540.5
47391.8
51006.5
96006.1
122093
182273
227028
246321
241456
220443
189977
162393
136824
107290
76696
33123.2
6043.59
1680.42
5378.36
45051.5
63796.8
42226.3
874.781
97627.5
78920.8
75712.8
67283.7
49797.3
42992.8
32737.4
29019.4
23695.5
18872.3
10400.8
7505.82
7436.22
12214.1
23548.5
48643
84079.3
115778
144519
126891
115000
137474
181293
195411
166483
80680.7
71882.4
52897.6
35914.5
2384.32
1497.39
64216.7
439.358
901.88
4475.01
13728.4
19181.5
26886.6
30476.2
37750.8
45801.1
60078.6
75206.9
99012.1
149070
221718
242968
227034
200090
135054
83958.1
73708.5
62252.7
5361.44
905.351
137.277
16.1634
0.0252902
2.35904e-06
1.4129e-09
6.57093e-05
0.000975477
0.00252103
0.132447
14.6014
192.998
1571.15
1831.23
1675.27
1930.7
1851.56
1574.43
1326.32
1162.53
1118.13
1047.55
1061.04
1034.42
1038.71
1112.69
1048.92
1253.2
177.605
21.8432
3.41151
0.342065
0.00268147
6.40071e-06
1.14361e-08
1.41313e-11
9.61924e-27
1.25968e-26
7.98414e-29
3.21476e-30
4.70725e-32
4.18947e-34
1.10581e-36
1.05104e-39
7.3519e-43
1.1335e-46
2.05937e-50
1.54296e-54
9.91937e-59
9.0486e-63
7.37333e-67
7.25033e-71
6.86355e-75
8.31686e-79
9.90652e-83
1.34394e-86
1.75136e-90
2.54787e-94
3.67086e-98
5.70753e-102
9.05575e-106
1.4554e-109
2.43798e-113
3.94087e-117
6.53306e-121
1.09065e-124
4.39847e-137
8.64114e-140
1.45131e-143
2.20103e-147
3.37957e-151
5.38916e-155
9.02827e-159
0
0
0
0
0
0
0
0
0
0
0
0
0
0
0
0
0
0
0
0
0
0
0
0
0
0
0
0
0
0
0
0
0
0
0
0
0
0
0
0
0
0
0
0
0
0
0
0
0
0
0
0
0
0
0
0
0
0
0
0
0
0
0
0
0
0
0
0
0
0
0
0
0
0
0
0
0
0
0
0
0
0
0
0
0
0
0
0
0
0
0
0
0
0
0
0
0
0
0
0
0
0
0
0
0
0
0
0
0
0
0
0
0
0
0
0
0
0
0
0
0
0
0
0
0
0
0
0
0
0
0
0
0
0
0
0
0
0
0
0
0
0
0
0
0
0
0
0
0
0
0
0
0
0
0
0
0
0
0
0
0
0
0
0
0
0
0
0
0
0
0
0
0
14693.8
12431.2
11889.8
12313.4
14052.6
15493.4
18944.1
20034.4
21164.6
20176.8
19179.6
17532.7
592.011
43.6736
23802.4
53645.5
45376.7
28410
90467.5
102134
120026
136784
143427
144126
134921
131167
132415
121307
113247
108544
91275.9
84418.2
48854.8
29765.6
26541.3
21476.3
12732.8
4792.8
3410.94
18717.3
30734.4
724.007
41.0945
1.24988
95456.8
57702.6
68253.7
65353.8
46354.6
28713.4
14621.3
8775.22
12722.7
20879.8
115331
267395
385962
414066
439685
463230
392071
91768.9
73644.2
101039
127449
132202
71320.3
6359.5
292.082
518.778
19696.2
77876
59345.8
1119.21
120168
17843.5
18408.6
32543.2
29674.8
28668.5
24647.1
23504.7
17176.4
14308.9
10336.4
8259.89
9945.16
18983.3
37687.3
59119.5
70810.1
88091.4
79324.2
40091.5
19460.8
2386.86
287.603
24.3397
35.8398
1172.39
16682.5
72915.3
43594.5
1705.18
13523.8
13710.2
203.997
241.086
794.087
3091.57
7103.96
12756.1
15987
13763
11837.8
16118.8
21241.4
31534.3
59698.2
116114
162691
178515
178260
150836
185823
176495
101004
73346.9
11160.3
2809.58
354.45
15.4606
0.0199017
1.56533e-06
0.000613951
0.0725958
0.466274
0.78156
57.5858
1431.23
126082
111475
143694
154568
140996
135423
144851
127071
123180
95211.2
89045.4
72701.6
76586.8
66459.8
78812.8
65416.1
4601.3
1401.15
1117.96
77.4473
1.08479
0.00570242
1.01053e-05
6.88257e-09
8.96805e-23
1.67737e-22
4.12456e-25
1.10768e-26
1.3587e-28
1.09632e-30
3.40872e-33
6.45179e-36
6.98237e-39
3.53104e-42
4.18641e-46
4.1566e-50
0
1.23383e-58
0
4.84858e-67
0
2.91873e-75
2.35539e-79
2.70087e-83
2.60487e-87
3.48869e-91
4.59392e-95
6.84329e-99
1.04004e-102
1.49597e-106
2.31108e-110
2.67531e-114
3.62704e-118
3.58255e-122
3.25848e-133
6.53268e-136
6.34101e-140
8.09788e-144
1.32244e-147
2.33699e-151
4.36298e-155
8.07869e-159
1.53728e-162
0
0
0
0
0
0
0
0
0
0
0
0
0
0
0
0
0
0
0
0
0
0
0
0
0
0
0
0
0
0
0
0
0
0
0
0
0
0
0
0
0
0
0
0
0
0
0
0
0
0
0
0
0
0
0
0
0
0
0
0
0
0
0
0
0
0
0
0
0
0
0
0
0
0
0
0
0
0
0
0
0
0
0
0
0
0
0
0
0
0
0
0
0
0
0
0
0
0
0
0
0
0
0
0
0
0
0
0
0
0
0
0
0
0
0
0
0
0
0
0
0
0
0
0
0
0
0
0
0
0
0
0
0
0
0
0
0
0
0
0
0
0
0
0
0
0
0
0
0
0
0
0
0
0
0
0
0
0
0
0
0
0
0
0
0
0
0
0
0
0
0
12705.4
13860.3
17190.6
21180.6
24006.1
23728.9
24053.2
26018.1
25384.1
11287.6
11668.1
20283
465.432
33.4044
40977.1
16370.5
5999.39
105247
134186
153995
165928
162026
157642
153631
150947
150700
143592
144006
149697
138990
138121
124003
109261
64301.1
16424.4
8158.86
2583.84
590.265
399.359
2023.21
301.179
359.289
29.1971
1.43703
119237
26503.2
36883.4
37681
24953
10220.4
3995.14
2439.29
7570.06
113472
338134
356550
389229
413507
459342
435460
2773.37
339.08
733.94
9289.47
50345.9
88296.5
91662.1
11915.8
112.385
24.8082
1558.02
59905.6
72874.5
1276.92
170551
4153.24
6356.28
13101.9
20120
20966.9
19039.2
17967.3
13253.5
12521.1
11070.7
9213.94
12228.5
17906.9
30025.9
45576.8
58403.4
63550.6
58126.7
10650.9
898.733
132.212
4.10589
1.03933
1.89446
15.7049
484.978
20370.3
70376.9
2777.95
130122
20858.1
491.26
396.859
2090.27
8063.51
16191.7
18059.3
12857.3
4862.03
3074.5
4413.44
8454.09
13300.2
28825
63603.3
113336
145438
152154
131097
126669
161185
239901
172150
106606
65020.3
7959.52
370.037
14.9157
0.00264375
0.0337143
1.10617
27.5813
22.0832
42.064
536.01
2688.96
71583.5
28635.1
23889.8
33736.9
47734.4
62500.3
99362.9
112891
133660
129723
130292
114045
111732
90692.5
84997.4
83545
92702.2
68281
1475.47
87.7441
1.12949
0.00706922
8.85642e-06
1.30678e-18
8.05902e-19
1.17316e-21
7.51455e-24
6.28822e-26
6.7282e-28
2.74482e-30
6.93418e-33
1.22455e-35
1.42227e-38
9.4194e-42
1.61621e-45
1.31522e-49
6.18606e-54
4.98048e-58
2.70595e-62
2.32891e-66
1.52873e-70
1.61806e-74
1.37916e-78
1.66511e-82
1.72885e-86
2.58575e-90
3.33818e-94
5.41536e-98
7.10838e-102
1.11765e-105
1.33563e-109
1.83989e-113
2.21002e-117
2.81586e-128
4.20531e-131
4.13726e-135
5.54043e-139
8.67611e-143
1.57892e-146
2.86701e-150
5.46435e-154
1.01503e-157
1.9453e-161
0
0
0
0
0
0
0
0
0
0
0
0
0
0
0
0
0
0
0
0
0
0
0
0
0
0
0
0
0
0
0
0
0
0
0
0
0
0
0
0
0
0
0
0
0
0
0
0
0
0
0
0
0
0
0
0
0
0
0
0
0
0
0
0
0
0
0
0
0
0
0
0
0
0
0
0
0
0
0
0
0
0
0
0
0
0
0
0
0
0
0
0
0
0
0
0
0
0
0
0
0
0
0
0
0
0
0
0
0
0
0
0
0
0
0
0
0
0
0
0
0
0
0
0
0
0
0
0
0
0
0
0
0
0
0
0
0
0
0
0
0
0
0
0
0
0
0
0
0
0
0
0
0
0
0
0
0
0
0
0
0
0
0
0
0
0
0
0
0
0
15695.1
23190.4
31681.4
39105.6
45450.3
48172.9
48538.3
44734.5
45123.9
42599.5
13.277
0.0259494
428.673
80.0278
55876.1
687.976
125525
179416
194594
187716
175555
173671
184510
198110
203784
200486
187110
176597
171992
157932
165127
158830
159004
138071
99771.7
5863.35
628.41
38.8024
5.57262
2.31957
0.00617897
9.77935
55.0802
4.74847
132129
9819.31
16777.3
18233.6
10251.4
3065.11
1302.94
1824.68
23662.1
289886
358556
375960
395383
421488
496350
5730.62
110.636
20.6653
25.0972
254.948
6275.57
40705
58444.6
17747.2
55.787
1.30752
41.795
16261.5
103262
2092.06
185749
1046.05
1268.71
3628.81
8732.25
15354
15379.8
10636.5
10807.9
11046.5
9271.61
9736.91
8521.71
8995.54
10621.8
21081.4
38190.3
51441.1
42316
3059.52
29.3636
1.08057
0.136398
0.123422
0.545101
3.92894
92.0068
3751.28
62826.4
56311.6
94090.5
39371.9
1394.7
3028.64
21394
61382.6
47825.3
20126.6
8078.16
3001.48
1533.39
1924.33
3518.07
5896.33
13436.3
38842.2
78137.5
117239
141881
128903
110328
108917
121699
150920
287860
155205
72453.1
6715.71
224.828
5.56749
0.374664
53.0636
1411.66
1445.75
1696.88
6201.4
40784.8
8431.08
4386.47
5351.93
13775.1
25581.6
46908.2
69892.9
98457.7
119600
128207
127301
132671
134065
111794
135163
108343
107615
97209.3
5543.97
457.989
40.7395
0.766315
0.00404758
4.72433e-15
1.62228e-15
1.51208e-18
4.29537e-21
3.4132e-23
2.64067e-25
2.0083e-27
1.08302e-29
1.70154e-32
1.73514e-35
1.41574e-38
9.63977e-42
2.1006e-45
2.16269e-49
1.42877e-53
1.37885e-57
9.73072e-62
8.71575e-66
7.62682e-70
8.44329e-74
8.62622e-78
1.0738e-81
1.35353e-85
2.0413e-89
2.97328e-93
4.41983e-97
6.36793e-101
8.72147e-105
1.1735e-108
1.55214e-112
1.97296e-123
2.53162e-126
2.99036e-130
3.98087e-134
6.40798e-138
1.14967e-141
2.15718e-145
4.09928e-149
7.85424e-153
1.50027e-156
2.89484e-160
0
0
0
0
0
0
0
0
0
0
0
0
0
0
0
0
0
0
0
0
0
0
0
0
0
0
0
0
0
0
0
0
0
0
0
0
0
0
0
0
0
0
0
0
0
0
0
0
0
0
0
0
0
0
0
0
0
0
0
0
0
0
0
0
0
0
0
0
0
0
0
0
0
0
0
0
0
0
0
0
0
0
0
0
0
0
0
0
0
0
0
0
0
0
0
0
0
0
0
0
0
0
0
0
0
0
0
0
0
0
0
0
0
0
0
0
0
0
0
0
0
0
0
0
0
0
0
0
0
0
0
0
0
0
0
0
0
0
0
0
0
0
0
0
0
0
0
0
0
0
0
0
0
0
0
0
0
0
0
0
0
0
0
0
0
0
0
0
0
23654.2
33266.8
41219.5
48098.2
52852.3
60756.7
68342.3
75376.3
79280.2
78587.1
2.71698
3.614e-08
1.2794e-09
387.152
92047.4
115894
229529
239392
217744
196779
199988
234656
305356
350892
349613
326405
303844
265823
234585
198099
195865
181987
190668
186220
170724
89266.2
510.002
1.40878
0.00542943
3.34734e-06
4.55471e-09
1.0228e-10
36.0693
67.4932
166168
3541.08
6992.53
6955.77
3503.25
802.099
762.873
3513.31
183485
345409
318143
424655
408264
428785
508958
5157.27
421.257
163.618
137.033
218.884
1461.71
16261.9
32115.6
14303.8
24.4461
0.0532672
0.331214
691.682
63326.1
4510.75
196490
260.595
416.909
1569.04
6111.73
11351.3
11846.8
7922.8
8582.67
7460.96
8306.02
6251.64
4796.9
4857.95
8257.64
12574.1
28682.7
42709.7
26641.9
398.812
0.726263
0.0220262
0.0212396
0.440272
7.65702
7.36535
65.2072
302.654
1508.11
148687
125292
73898
2066.7
5914.89
61302.9
88864.8
31743.1
6094.38
3766.64
2529.28
1734.14
1272.05
1754.79
2548.79
6344.74
21449.8
56737.5
91852.5
114797
106642
88416.8
79716
63426.5
87679
142382
292367
173078
107812
5260.9
100.755
22.6874
2656.08
151324
106386
94136
35720.8
3669.33
981.113
726.334
1616.5
3848.75
6786.95
11506.8
23571
44096.3
68353
89803.5
96455.9
104802
110202
122164
119081
135256
117652
120565
89741.5
3185.65
281.264
18.8042
0.28701
1.28818e-11
2.19767e-12
2.97712e-15
1.04424e-17
1.801e-20
5.43596e-22
6.71284e-24
4.33069e-26
8.59054e-29
5.76642e-32
3.15669e-35
1.46647e-38
6.60207e-42
1.31556e-45
1.76469e-49
1.66802e-53
1.99071e-57
1.65763e-61
1.98426e-65
1.96629e-69
2.60431e-73
2.79154e-77
4.22974e-81
5.57511e-85
9.61012e-89
1.31903e-92
2.15739e-96
2.86835e-100
4.31722e-104
5.64149e-108
6.65823e-119
7.76603e-122
1.05044e-125
1.50025e-129
2.39694e-133
4.45443e-137
8.36416e-141
1.64947e-144
3.17531e-148
6.26155e-152
1.21201e-155
2.38276e-159
0
0
0
0
0
0
0
0
0
0
0
0
0
0
0
0
0
0
0
0
0
0
0
0
0
0
0
0
0
0
0
0
0
0
0
0
0
0
0
0
0
0
0
0
0
0
0
0
0
0
0
0
0
0
0
0
0
0
0
0
0
0
0
0
0
0
0
0
0
0
0
0
0
0
0
0
0
0
0
0
0
0
0
0
0
0
0
0
0
0
0
0
0
0
0
0
0
0
0
0
0
0
0
0
0
0
0
0
0
0
0
0
0
0
0
0
0
0
0
0
0
0
0
0
0
0
0
0
0
0
0
0
0
0
0
0
0
0
0
0
0
0
0
0
0
0
0
0
0
0
0
0
0
0
0
0
0
0
0
0
0
0
0
0
0
0
0
0
33232.2
40266.1
44249.5
47059
55237.6
66212.2
81412.4
95674.6
108459
116294
11435.8
2.98165e-06
1.58743e-09
1072.91
154181
265932
286900
261779
231393
232496
308420
402306
51736.8
2040.01
584.749
170.339
2107.17
21712.5
257456
275780
243999
217141
219285
215056
213531
197653
523.264
0.0589698
1.44378e-06
1.89993e-11
5.75909e-12
2.73457e-11
3.12809
73.7979
179523
1390.18
2790.75
2206.1
1105.98
396.627
1282.28
15494.2
252699
324638
108602
338977
426822
421579
487820
438269
12355.1
1086.42
518.152
622.062
1325.67
6113.83
11801.1
3827.11
3.04761
0.0080517
0.0283451
68.7588
15832.7
12548.6
167254
59.6004
169.855
980.26
4685.1
10032.1
8097.01
6506.12
5141.3
6132.13
5019.11
3827.93
5507.65
14628.4
32804.8
39932.2
35737.7
39837.7
10337.7
13.534
0.0104882
0.00194356
0.122301
7.85935
14.635
15.696
8.28025
16.1759
93.9658
142789
158901
15572.6
93.2555
1533.07
20385.1
19417.8
4632.22
2271.54
3552.32
3992.35
2726.97
1609.61
1000.7
1338.56
3124.28
12370.6
37868.7
60746.4
64233.6
54734.9
38192
33289.5
28022.6
34142
61423.4
112850
254577
206716
138189
2642.51
19.5141
536.511
122.947
9.87558
351.119
1281.84
789.606
267.758
261.795
365.673
457.059
540.203
1081.37
2436.68
6465.36
12800.1
24394.6
34633.6
49200.4
64810.4
88100.1
94326.3
86914.9
99295.8
109529
109276
95145.5
2934.35
197.928
7.35887
4.44154e-08
4.13616e-09
4.40819e-12
8.77504e-14
3.08267e-17
3.22736e-18
1.67654e-20
3.57973e-22
4.23773e-25
3.60434e-28
1.4624e-31
5.9197e-35
2.04446e-38
6.27084e-42
8.89479e-46
1.11624e-49
1.19412e-53
1.6551e-57
1.87064e-61
2.52936e-65
3.05051e-69
4.17921e-73
5.50259e-77
8.90496e-81
1.37302e-84
2.29963e-88
3.49004e-92
5.4387e-96
7.96919e-100
1.18892e-103
1.17988e-114
7.69471e-118
1.87615e-121
2.75971e-125
4.73927e-129
8.81674e-133
1.74542e-136
3.45453e-140
6.97903e-144
1.38042e-147
2.77896e-151
5.47184e-155
1.09248e-158
2.16099e-162
0
0
0
0
0
0
0
0
0
0
0
0
0
0
0
0
0
0
0
0
0
0
0
0
0
0
0
0
0
0
0
0
0
0
0
0
0
0
0
0
0
0
0
0
0
0
0
0
0
0
0
0
0
0
0
0
0
0
0
0
0
0
0
0
0
0
0
0
0
0
0
0
0
0
0
0
0
0
0
0
0
0
0
0
0
0
0
0
0
0
0
0
0
0
0
0
0
0
0
0
0
0
0
0
0
0
0
0
0
0
0
0
0
0
0
0
0
0
0
0
0
0
0
0
0
0
0
0
0
0
0
0
0
0
0
0
0
0
0
0
0
0
0
0
0
0
0
0
0
0
0
0
0
0
0
0
0
0
0
0
0
0
0
0
0
0
36704.5
39383.2
41843.1
48421.4
65250.6
90656.3
105671
118856
132352
145765
16043
5.24338e-06
9.05823e-12
180.133
228036
338417
323828
284067
269399
355788
279614
341.709
3.30079
1.52705
3.44652
10.0061
48.2926
2196.84
64072.8
339863
307266
273106
258316
264798
259886
252638
942.774
0.000804827
3.42405e-09
5.26696e-14
1.89247e-13
3.44075e-08
15.4566
524.72
199142
598.831
1119.18
711.408
430.694
572.55
5438.78
145103
138111
100654
118550
394059
401948
396727
431818
516772
199374
2207.53
1391.79
2418.29
2603.58
3185.65
2158.67
92.3859
0.0843938
0.00529515
0.115649
37.6487
715.88
234620
49928
10.8912
66.7439
886.228
3661.56
6627.92
5779.79
4255.68
4822.41
4323.35
3302.76
5390.66
27143.5
60461.1
131623
71412.2
59478
35897.3
2383.18
0.655394
0.00160441
0.00880005
1.47383
41.3861
22.8958
9.6442
5.45732
2.36845
1.11714
2377.02
259782
15.3102
0.184182
49.3841
1653.79
2524.12
1556.98
2582.03
5290.54
8538.82
7350.42
3263.34
1566.62
1134.01
2360.97
8425.11
23513.9
30466.5
25186.2
15604
10050.7
6904.65
7286.62
9629.29
15467.8
34955.1
120862
230862
194355
7457.96
566.867
631.107
57.8758
1.02799
7.65541
64.8261
107.819
78.0108
56.2676
53.2925
53.9334
105.429
180.591
349.166
620.656
1571.39
3021.55
4230.46
6169.6
10964.9
27415.8
44549.3
53880
56588.1
69303.3
92882.3
91647.3
5782.34
494.354
31.2812
0.000186492
5.57718e-06
3.70643e-09
8.5838e-12
3.45022e-14
1.57894e-15
8.83938e-17
1.79409e-18
3.21849e-21
1.79495e-24
8.73453e-28
2.79815e-31
9.23662e-35
2.56065e-38
5.88626e-42
7.35745e-46
1.03927e-49
1.19005e-53
1.59606e-57
1.61386e-61
2.09461e-65
2.40964e-69
3.58299e-73
5.22031e-77
9.23061e-81
1.47515e-84
2.55466e-88
3.96757e-92
6.63474e-96
1.05675e-99
9.80527e-111
2.95429e-114
1.20884e-117
2.17227e-121
4.07475e-125
8.16834e-129
1.65575e-132
3.43269e-136
7.03786e-140
1.44719e-143
2.95016e-147
5.97934e-151
1.20962e-154
2.41785e-158
4.52098e-162
0
0
0
0
0
0
0
0
0
0
0
0
0
0
0
0
0
0
0
0
0
0
0
0
0
0
0
0
0
0
0
0
0
0
0
0
0
0
0
0
0
0
0
0
0
0
0
0
0
0
0
0
0
0
0
0
0
0
0
0
0
0
0
0
0
0
0
0
0
0
0
0
0
0
0
0
0
0
0
0
0
0
0
0
0
0
0
0
0
0
0
0
0
0
0
0
0
0
0
0
0
0
0
0
0
0
0
0
0
0
0
0
0
0
0
0
0
0
0
0
0
0
0
0
0
0
0
0
0
0
0
0
0
0
0
0
0
0
0
0
0
0
0
0
0
0
0
0
0
0
0
0
0
0
0
0
0
0
0
0
0
0
0
0
0
36101.2
37526.1
40410.3
55535.2
87783.6
106069
120598
133568
151521
171949
0.460121
1.46953e-10
3.43306e-06
280.457
245177
302045
364325
409475
356683
315094
357463
387174
303.254
1.19599
0.265573
1.19341
9.36714
286.371
700.494
14332.8
65790.3
309115
381984
367152
350144
332899
281219
26397.8
0.20013
8.93886e-06
3.05783e-10
4.86131e-14
2.8655e-12
1.42021e-08
2.6609e-06
1128.84
92023.5
23531.8
580.634
252.501
407.398
364.732
402.992
2491.85
41453.6
97531.7
67120.2
149349
338465
351347
356906
369599
405229
489842
250529
1990.01
2073.47
3298.56
2232.18
550.275
35.4599
0.363639
0.00912797
0.0158953
0.648416
19.6774
80.6548
145.37
17722.1
11986.2
0.602509
0.608242
26.0624
532.872
2939.77
3730.47
3357.82
3997.72
4099.94
3013.59
4392.82
21194.9
55561.7
187630
249675
71653.1
57440.6
28031.5
1422.19
1.69312
0.052305
1.53018
70.2407
37.0795
6.9599
1.7571
0.762695
0.0590564
0.0177334
0.00875841
0.998171
6.83988
0.0479818
0.00370239
0.0160077
5.70256
148.697
373.062
716.042
2301.27
7421.27
20955.8
19870.1
9069.38
3430.58
2018.98
2860.99
8469.98
15165.5
15483.5
8948.15
4405.47
2440.8
1877.26
1974.14
2556.33
3055.71
8500.6
23699.2
125601
207551
38245.1
325978
294787
6.82992
11.6646
6.18316
0.874519
24.1138
11.3981
7.77367
9.21481
7.07246
4.42475
5.27093
8.18676
17.1873
20.387
43.1131
67.2237
197.577
421.339
618.728
1023.99
2431.01
6115.75
13962.1
31823.9
43459.5
57396.6
76006
101767
4237.31
443.514
22.7411
0.862861
0.37256
0.00954472
4.73968e-06
6.71181e-08
4.96143e-11
3.26857e-10
1.30536e-13
2.2621e-14
1.94746e-17
1.34751e-20
4.49163e-24
1.56289e-27
4.21415e-31
1.14689e-34
2.41949e-38
4.12984e-42
4.61047e-46
7.22987e-50
8.96594e-54
1.19043e-57
1.34699e-61
1.67192e-65
1.9167e-69
2.36748e-73
2.8139e-77
3.82574e-81
5.58687e-85
9.99303e-89
1.94799e-92
4.05297e-96
8.89558e-100
2.09219e-103
5.07201e-107
1.25385e-110
3.03655e-114
7.03714e-118
1.61634e-121
3.59387e-125
7.94897e-129
1.71592e-132
3.70695e-136
7.83697e-140
1.65725e-143
3.44276e-147
7.14827e-151
1.46175e-154
2.97711e-158
4.36153e-162
0
0
0
0
0
0
0
0
0
0
0
0
0
0
0
0
0
0
0
0
0
0
0
0
0
0
0
0
0
0
0
0
0
0
0
0
0
0
0
0
0
0
0
0
0
0
0
0
0
0
0
0
0
0
0
0
0
0
0
0
0
0
0
0
0
0
0
0
0
0
0
0
0
0
0
0
0
0
0
0
0
0
0
0
0
0
0
0
0
0
0
0
0
0
0
0
0
0
0
0
0
0
0
0
0
0
0
0
0
0
0
0
0
0
0
0
0
0
0
0
0
0
0
0
0
0
0
0
0
0
0
0
0
0
0
0
0
0
0
0
0
0
0
0
0
0
0
0
0
0
0
0
0
0
0
0
0
0
0
0
0
0
0
0
0
0
0
0
0
0
0
0
0
0
0
0
34231.8
34411.6
41388.7
69405
106937
129461
153000
178177
188355
203955
37.0996
1.31707e-10
7.92593e-09
1.15047
7404.85
287081
508973
415277
357947
350415
463758
23933.2
34.8874
1.96094
0.3716
0.243777
0.0479988
1.30784
1.30089
130.794
307.01
2651.64
4777.76
4313.43
1184.2
11.8978
1.5417
0.0801527
0.00095508
3.8327e-06
4.92397e-09
3.02125e-12
5.82397e-11
3.39772e-08
0.000537449
0.0257622
1.29485
8.63241
58.6003
133.339
251.104
350.054
1657.22
12146.8
32580.6
68163.4
147036
347686
309634
335949
362819
377208
411825
522852
14918.2
467.125
1395.13
2010.04
458.083
9.35926
0.0730224
0.00312944
0.0036657
0.0459524
1.56268
13.0069
17.2819
2.95505
0.266827
0.049141
0.0443066
1.76145
60.5878
776.853
2188.13
2963.51
2892.64
3665.66
4138.15
3318.59
7521.39
43637
94135.3
237805
232909
97186.2
41591.6
20636.7
3305.21
149
75.2047
356.308
193.544
6.86882
0.303352
0.0416955
0.0105356
0.00252459
0.000342176
7.06111e-05
6.24608e-05
4.81074e-05
9.44194e-05
0.000196133
0.00504821
0.6895
25.7579
136.929
485.119
2018.24
19216.4
34783.5
30314
15969.8
7371.54
4954.23
6946.91
10378.8
12165.9
7912.55
3431.16
1269.92
743.212
655.059
656.473
625.298
945.311
1228.73
2534.39
5265.13
14717.5
5097.35
924.338
59.009
2.46823
0.935606
1.29598
1.51353
0.745155
0.273842
0.553853
0.952551
0.92547
0.51406
0.464352
0.925062
1.93984
5.83458
9.47043
13.8488
20.6336
45.5452
70.9876
126.035
195.591
538.532
1831.1
10661.6
29170.4
31469.5
30724.3
36417.9
23728.6
7061.14
750.749
293.542
39.1276
3.76525
0.299994
0.0125843
2.60307e-05
1.0879e-06
6.84669e-09
1.87812e-10
2.19101e-13
8.76453e-17
3.12649e-20
7.94454e-24
2.15732e-27
4.90185e-31
1.10512e-34
1.68787e-38
2.22597e-42
2.48812e-46
3.75762e-50
4.45804e-54
6.03268e-58
6.60422e-62
8.4553e-66
9.62982e-70
1.20228e-73
1.39847e-77
1.80162e-81
2.25282e-85
3.2102e-89
4.81688e-93
8.70656e-97
1.78524e-100
4.24625e-104
1.06527e-107
2.7982e-111
7.19078e-115
1.85011e-118
4.6085e-122
1.13883e-125
2.7229e-129
6.41804e-133
1.47391e-136
3.32683e-140
7.3589e-144
1.60293e-147
3.42302e-151
7.22784e-155
1.4963e-158
0
0
0
0
0
0
0
0
0
0
0
0
0
0
0
0
0
0
0
0
0
0
0
0
0
0
0
0
0
0
0
0
0
0
0
0
0
0
0
0
0
0
0
0
0
0
0
0
0
0
0
0
0
0
0
0
0
0
0
0
0
0
0
0
0
0
0
0
0
0
0
0
0
0
0
0
0
0
0
0
0
0
0
0
0
0
0
0
0
0
0
0
0
0
0
0
0
0
0
0
0
0
0
0
0
0
0
0
0
0
0
0
0
0
0
0
0
0
0
0
0
0
0
0
0
0
0
0
0
0
0
0
0
0
0
0
0
0
0
0
0
0
0
0
0
0
0
0
0
0
0
0
0
0
0
0
0
0
0
0
0
0
0
0
0
0
0
0
0
0
0
0
0
0
0
0
30632.4
31784.6
44996
83257
128006
166860
207902
232430
236428
230685
35434.7
1.33883e-05
8.78451e-10
3.79094e-06
0.383951
31800.7
445216
397728
354601
389851
480656
5738.48
52.8773
3.85067
0.21555
0.0214997
0.0135267
0.0216721
0.0546347
0.109562
0.147407
0.198753
0.259362
0.263888
0.250981
0.129404
0.088155
0.0243553
0.00551524
0.000616851
1.25053e-05
1.15395e-07
4.42269e-08
4.54545e-07
0.00531204
0.00261997
0.260142
7.29225
33.4535
122.019
226.801
958.18
4243.21
18193
47503.3
261831
309238
333001
390909
465380
440362
439898
501654
407571
129.385
26.3035
247.637
364.988
23.3648
0.139465
0.00317208
0.00332457
0.0286132
0.95019
12.3558
29.9972
15.526
2.90495
4.7053
3.937
2.83395
26.8474
385.695
1332.44
1661.22
1594
1733.2
3250.1
3808.93
3428.91
10689
39973
61887.8
170188
287413
145442
27765.1
15912.6
6040.34
2858.49
2011.62
622.244
19.3349
0.245573
0.016551
0.00508119
0.00162447
0.000187552
4.68285e-05
8.69588e-06
2.73875e-06
2.96837e-06
5.87762e-06
3.54947e-05
0.000990536
0.270463
10.8185
78.0708
297.39
3691.62
21978
17630.3
16660.6
18425.2
14659.9
13528.6
11363.1
10032.7
6170.68
2753.19
764.032
231.411
88.6374
56.5263
45.8528
73.2447
127.105
206.042
334.905
2418.97
209.231
2686.75
34.5276
5.61725
0.986943
0.160303
0.094478
0.11295
0.209719
0.290966
0.263712
0.164441
0.115013
0.0659898
0.0441562
0.121884
0.2784
0.798309
1.46396
2.05169
2187.49
3031.49
957.881
748.115
1239.94
1080.39
4944.25
4534.65
19610.5
27974.5
38072.8
13052.2
7273.05
10839.3
15293.2
2000.34
320.589
297.69
39.5691
4.18296
0.295238
0.594022
0.000234142
9.85953e-06
1.95962e-09
8.32468e-13
1.90647e-16
4.7111e-20
1.01198e-23
2.30471e-27
4.30655e-31
7.84876e-35
8.21109e-39
1.03105e-42
1.11084e-46
1.52439e-50
1.75427e-54
1.99336e-58
2.29374e-62
2.67311e-66
3.04147e-70
3.54048e-74
4.19461e-78
5.02691e-82
6.29117e-86
8.09027e-90
1.09026e-93
1.51629e-97
2.28237e-101
3.70929e-105
6.61403e-109
1.28859e-112
2.69391e-116
5.93208e-120
1.35299e-123
3.12345e-127
7.24072e-131
1.66654e-134
3.82196e-138
8.6252e-142
1.93773e-145
4.27198e-149
9.36202e-153
2.01583e-156
4.30839e-160
0
0
0
0
0
0
0
0
0
0
0
0
0
0
0
0
0
0
0
0
0
0
0
0
0
0
0
0
0
0
0
0
0
0
0
0
0
0
0
0
0
0
0
0
0
0
0
0
0
0
0
0
0
0
0
0
0
0
0
0
0
0
0
0
0
0
0
0
0
0
0
0
0
0
0
0
0
0
0
0
0
0
0
0
0
0
0
0
0
0
0
0
0
0
0
0
0
0
0
0
0
0
0
0
0
0
0
0
0
0
0
0
0
0
0
0
0
0
0
0
0
0
0
0
0
0
0
0
0
0
0
0
0
0
0
0
0
0
0
0
0
0
0
0
0
0
0
0
0
0
0
0
0
0
0
0
0
0
0
0
0
0
0
0
0
0
0
0
0
0
0
0
0
0
0
27519.1
30487.3
47321
92639
146508
197378
239634
280273
284338
263921
242111
480.014
0.000685327
2.51318e-05
0.0341899
652.773
395541
373042
346288
420321
335774
2442.61
60.9596
2.8463
0.162694
0.0489753
0.0752585
0.298177
0.762238
1.17917
1.30672
1.349
1.42693
1.66865
1.9009
2.21297
2.143
1.7917
0.983137
0.302026
0.0287728
0.00151884
9.39851e-05
4.96776e-05
0.0148593
0.0155322
1.58751
13.9828
44.197
175.116
612.117
1746.3
9789.43
59481.5
381768
309775
369201
90306.7
25625.5
52843.4
580153
598567
141373
26.5353
0.311275
0.245031
1.03012
1.09236
0.205094
0.0445003
0.0650075
0.444459
3.96552
16.3847
24.0058
21.2533
17.189
19.6572
52.2473
38.6753
32.1818
352.292
1030.42
1435.57
1348.76
1638.92
1586.03
3161.91
3532.45
2709.91
5097.39
19013.4
46854.7
62106.1
188289
263476
43362.8
13804.2
8201.74
4858.37
1611.97
81.8784
0.932282
0.050702
0.0156825
0.0100912
0.00314575
0.000465139
9.53836e-05
3.54795e-06
3.02235e-06
4.25144e-07
1.44942e-05
4.47641e-05
0.00756478
0.495683
13.2373
65.002
351.86
4076.1
11979.1
6973.61
7799.34
7749.45
7134.03
5175.59
3594.8
2033.27
1207.94
403.12
136.51
28.1698
18.9852
32.7492
35.0674
49.6496
462.213
709.638
2562.2
382.138
6595.25
366.941
2.12111
0.88325
0.257912
0.0320396
0.0191544
0.00950594
0.0105866
0.0186093
0.0247958
0.0335975
0.0176824
0.0134821
0.00499706
0.0431631
0.0895937
0.190701
4.58947
546.712
18907.7
64825.4
54577
41191.6
69118.2
149118
135444
109961
53584.9
45494.8
28109.8
3803.96
2463.07
1489.46
510.855
744.735
579.131
404.618
59.2124
20.4184
202.934
6.57867
3.9417
0.193067
4.24566e-05
6.41022e-09
1.41348e-12
2.47666e-16
5.0246e-20
9.66666e-24
1.90782e-27
2.78629e-31
3.5686e-35
2.98384e-39
3.75723e-43
4.00943e-47
5.01616e-51
4.89555e-55
5.88475e-59
5.86744e-63
6.68587e-67
6.82669e-71
7.80437e-75
8.27697e-79
9.75733e-83
1.10439e-86
1.36152e-90
1.64952e-94
2.16413e-98
2.85884e-102
4.09466e-106
6.00701e-110
9.4318e-114
1.52197e-117
2.59743e-121
4.52195e-125
8.17595e-129
1.49708e-132
2.8179e-136
5.34128e-140
1.02915e-143
1.98995e-147
3.87452e-151
7.53903e-155
1.46965e-158
4.01589e-162
0
0
0
0
0
0
0
0
0
0
0
0
0
0
0
0
0
0
0
0
0
0
0
0
0
0
0
0
0
0
0
0
0
0
0
0
0
0
0
0
0
0
0
0
0
0
0
0
0
0
0
0
0
0
0
0
0
0
0
0
0
0
0
0
0
0
0
0
0
0
0
0
0
0
0
0
0
0
0
0
0
0
0
0
0
0
0
0
0
0
0
0
0
0
0
0
0
0
0
0
0
0
0
0
0
0
0
0
0
0
0
0
0
0
0
0
0
0
0
0
0
0
0
0
0
0
0
0
0
0
0
0
0
0
0
0
0
0
0
0
0
0
0
0
0
0
0
0
0
0
0
0
0
0
0
0
0
0
0
0
0
0
0
0
0
0
0
0
0
0
0
0
0
0
24666
29258.1
48408.1
93110
152603
200288
246452
320204
342242
316538
286593
179691
5649.21
18.2867
94.9693
54173.2
398746
336965
328759
438481
334042
1226.09
34.5061
2.68043
0.515492
0.377326
1.28282
4.38758
8.92447
10.3937
9.47332
8.78827
9.33624
11.4732
15.1822
18.5579
18.8523
16.6722
10.6195
5.40408
1.87256
0.378858
0.0583055
0.0296331
0.217063
0.4063
22.0499
57.0153
148.768
767.902
1741.2
20454.1
105564
398521
331685
411307
45090.3
1136.8
533.862
1869.38
1634.84
107.748
0.829896
0.0280523
0.00983716
0.0120309
0.0214897
0.0460896
0.108218
0.329019
1.07226
2.91738
5.71451
8.89806
12.3203
17.6128
29.2785
59.3486
107.129
149.247
255.54
883.168
1289.03
1443.03
1694.28
1788.68
2560.24
4651.17
3783.14
2068.83
2317.98
5023.69
15098.3
37266.6
50382.6
76995.4
95059.4
15055
8771.57
4985.93
1014.57
23.2992
0.288802
0.0281156
0.0277127
0.0201589
0.00773596
0.00225376
0.000380054
0.000219991
6.86098e-05
9.50698e-05
0.00031737
0.00703435
0.173959
3.50401
22.8634
86.0412
340.82
3924.86
7463.93
21648.6
4989.89
5771.63
1626.22
1146.2
649.372
535.131
263.969
864.411
65.9648
643.059
668.64
667.849
687.639
905.742
489.588
270.074
783.315
24.3656
82.0725
0.995535
0.160572
0.138862
0.0445119
0.0211118
0.00571826
0.00379932
0.00229607
0.00208116
0.00250691
0.00433301
0.106631
0.00159964
0.000524878
223.883
414.958
1753.85
2189.44
29593.1
90785.3
166059
247193
296950
467005
490666
571675
480578
403272
254318
192597
82958.6
17151.3
1219.54
669.978
833.559
847.262
927.874
438.076
483.686
598.189
178.108
111.27
15.2395
0.37934
5.70682e-05
8.14373e-09
1.39121e-12
2.12215e-16
3.91897e-20
6.75523e-24
1.18692e-27
1.20083e-31
1.22288e-35
1.01811e-39
1.23525e-43
1.25579e-47
1.25307e-51
1.34494e-55
1.28899e-59
1.32467e-63
1.25344e-67
1.28392e-71
1.24213e-75
1.30587e-79
1.33041e-83
1.4593e-87
1.56768e-91
1.82378e-95
2.11085e-99
2.6394e-103
3.34624e-107
4.52598e-111
6.25537e-115
9.09726e-119
1.34339e-122
2.05011e-126
3.15865e-130
4.97373e-134
7.86629e-138
1.26258e-141
2.02541e-145
3.28562e-149
5.30972e-153
8.65361e-157
1.40384e-160
0
0
0
0
0
0
0
0
0
0
0
0
0
0
0
0
0
0
0
0
0
0
0
0
0
0
0
0
0
0
0
0
0
0
0
0
0
0
0
0
0
0
0
0
0
0
0
0
0
0
0
0
0
0
0
0
0
0
0
0
0
0
0
0
0
0
0
0
0
0
0
0
0
0
0
0
0
0
0
0
0
0
0
0
0
0
0
0
0
0
0
0
0
0
0
0
0
0
0
0
0
0
0
0
0
0
0
0
0
0
0
0
0
0
0
0
0
0
0
0
0
0
0
0
0
0
0
0
0
0
0
0
0
0
0
0
0
0
0
0
0
0
0
0
0
0
0
0
0
0
0
0
0
0
0
0
0
0
0
0
0
0
0
0
0
0
0
0
0
0
0
0
0
0
22386
27180.5
44723.8
81682.3
136863
188768
247435
351291
402527
305651
256945
240484
71041.9
14211
78422.3
371616
379732
315210
314549
412502
529370
3685.8
103.949
13.3254
4.84517
5.12164