/*--------------------------------*- C++ -*----------------------------------*\
| =========                 |                                                 |
| \\      /  F ield         | OpenFOAM: The Open Source CFD Toolbox           |
|  \\    /   O peration     | Version:  2.1.1                                 |
|   \\  /    A nd           | Web:      www.OpenFOAM.org                      |
|    \\/     M anipulation  |                                                 |
\*---------------------------------------------------------------------------*/
FoamFile
{
    version     2.0;
    format      ascii;
    class       volScalarField;
    location    "0.002800000";
    object      rhoUnburned;
}
// * * * * * * * * * * * * * * * * * * * * * * * * * * * * * * * * * * * * * //

dimensions      [1 -3 0 0 0 0 0];

internalField   nonuniform List<scalar> 
12384
(
1.35127
1.44931
1.79169
2.41037
3.67659
3.83944
3.74766
3.72051
3.6876
3.57778
3.4015
3.4186
2.92156
1.96722
3.32043
4.60729
4.59853
5.0153
4.97605
5.2545
5.24029
4.94625
4.27822
3.94286
4.15315
5.06664
5.25746
4.70534
4.28301
4.51131
3.84035
4.07718
3.69437
3.783
3.71858
3.68658
3.71461
3.6641
3.65974
3.54775
2.72731
2.20579
2.04728
2.04981
2.91142
2.91615
3.10272
2.88219
3.33336
3.16277
3.58002
3.47088
3.82974
3.80245
3.93016
4.51438
4.65006
4.96387
5.12002
5.10206
4.96126
4.75312
4.56379
4.35335
4.33252
4.20857
4.3056
4.17619
4.30798
4.16925
4.33964
3.13779
2.88317
2.4746
2.52038
2.68359
2.43482
2.43379
2.6013
2.44865
2.5721
2.34246
3.09528
3.10153
3.41292
3.88786
3.83876
3.80685
3.6846
3.678
3.93663
4.33347
5.07317
6.71521
7.68671
7.77217
8.42829
8.54023
9.26405
5.52515
5.05075
4.76863
4.77121
4.56538
1.94265
2.30558
3.49655
3.91614
3.82786
4.24374
4.61815
4.66912
4.7674
4.83368
5.25559
5.67063
5.5689
5.41291
5.39811
5.45152
5.48614
5.62474
5.50268
5.55148
4.75476
3.17668
2.98463
3.43513
4.18655
4.91939
3.73542
3.47506
2.51325
2.76161
2.81116
2.88333
2.93822
2.72733
2.18065
2.16734
1.79569
1.69712
1.74238
1.73321
1.7624
1.75098
1.78566
1.88476
1.92666
2.06186
2.1148
2.2445
2.29033
2.56831
2.41764
2.83234
2.74632
3.17002
3.71692
5.76143
7.81127
8.52438
7.9827
7.66538
1.45666
1.62892
1.60732
1.85311
1.86755
2.04608
1.99876
2.12555
1.68156
1.82986
1.47569
1.52672
1.34086
1.33748
1.30594
1.19681
1.22249
1.1554
1.08564
1.11654
1.03543
1.06209
1.00385
1.02126
0.982894
0.989096
0.97592
0.966376
0.96998
0.960641
0.882656
0.88367
0.882182
0.881732
0.88126
0.880011
0.87978
0.878555
0.878175
0.876385
0.876787
0.874677
0.87515
0.873192
0.873935
0.871795
0.872653
0.870907
0.870755
0.870696
0.869532
0.869892
0.868883
0.869125
0.868602
0.868296
0.868441
0.868024
0.868129
0.867461
0.865491
0.865949
0.865989
0.865966
0.865979
0.865974
0.865957
0.865973
0.865944
0.865963
0.865939
0.865965
0.865957
0.865993
0.865969
0.865978
0.865943
0.865904
0.865886
0.865846
0.865845
0.865809
0.865804
0.865783
0.865763
0.865749
0.865735
0.865724
0.865688
0.865193
0.86518
0.865671
0.86571
0.865726
0.865734
0.865751
0.865767
0.865775
0.86579
0.865803
0.865815
0.865829
0.865854
0.865877
0.865892
0.865896
0.865885
0.86586
0.865827
0.865807
0.865798
0.86578
0.865765
0.865753
0.86574
0.865724
0.865717
0.865705
0.865673
0.865176
0.865182
0.865678
0.86571
0.865724
0.865731
0.86575
0.86576
0.865776
0.865783
0.865799
0.86581
0.865828
0.865854
0.865877
0.865895
0.865896
0.865882
0.865859
0.865829
0.865816
0.865801
0.865787
0.865774
0.865761
0.865745
0.86573
0.865723
0.86571
0.865677
0.86518
0.865179
0.865678
0.865711
0.865723
0.865725
0.865745
0.865757
0.86577
0.865785
0.8658
0.865812
0.86583
0.865854
0.865878
0.865894
0.865891
0.865879
0.865855
0.865826
0.865809
0.865801
0.865783
0.865771
0.865756
0.865747
0.86573
0.865723
0.865708
0.865678
0.865177
0.865173
0.865674
0.865702
0.865721
0.865729
0.865747
0.865755
0.865772
0.86578
0.865794
0.865804
0.865822
0.865845
0.86587
0.865883
0.86589
0.865874
0.865854
0.865832
0.865817
0.8658
0.865786
0.865766
0.865758
0.865741
0.865726
0.865715
0.865708
0.86567
0.865174
1.36973
1.54209
1.74514
2.00401
2.5213
3.94947
3.97677
3.91093
3.78741
3.79125
3.54139
3.5338
2.5318
1.97689
4.49868
4.69438
4.64397
5.01182
5.08285
4.63511
3.14339
2.35085
2.07392
2.0071
2.20199
2.56991
2.84242
3.35555
4.07155
3.72109
3.89596
3.94831
3.88356
3.70412
3.79336
3.70821
3.71727
3.70407
3.64113
3.6746
3.51798
2.87494
2.13202
2.0767
2.96662
2.89315
3.05705
3.01074
3.15536
3.37706
3.4888
3.55681
3.96194
3.6811
4.33011
4.32102
4.6142
4.85873
4.92616
4.86788
4.72028
4.48735
4.30073
4.20017
4.0894
4.07564
4.13362
4.22275
4.18628
4.24676
4.19669
4.3196
4.33442
2.67985
3.29289
3.1771
3.15886
2.77349
2.64152
2.71187
2.65538
2.63427
2.91339
3.34083
3.44615
3.64357
3.8812
4.02517
4.16664
4.50246
4.86273
5.19277
5.79937
6.19372
6.07188
7.44483
5.48721
5.00149
5.1077
7.02693
6.40737
6.12632
5.7585
4.02462
3.02479
4.418
3.97477
4.32014
4.744
4.90096
4.96213
5.16254
5.43514
5.52648
5.63738
5.69589
5.70789
5.64059
5.41545
5.42622
5.47199
5.49537
5.52378
5.53953
5.24906
5.46718
5.55512
5.41194
4.18001
4.65751
4.61894
3.52368
2.74203
2.72649
2.71842
2.97137
2.86846
2.6289
2.34318
2.07706
2.28542
2.2905
2.23229
2.33504
2.27038
2.21602
2.15112
2.15352
2.19649
2.21835
2.30469
2.32419
2.34616
2.43825
2.41597
2.61051
2.58777
2.77706
3.61412
5.16623
7.44387
8.60649
8.96046
8.3977
1.76674
1.74908
1.8782
1.86209
1.98765
2.04766
2.1949
2.24606
2.40946
1.98658
2.07479
1.63367
1.66137
1.46838
1.4643
1.34926
1.29144
1.26729
1.16993
1.17618
1.09638
1.10248
1.05098
1.04329
1.02626
1.00003
1.00695
0.982751
0.991407
0.969773
0.90709
0.914032
0.915057
0.913209
0.91018
0.909058
0.905851
0.905177
0.90242
0.901306
0.899617
0.898448
0.897531
0.896315
0.896329
0.894774
0.894193
0.893169
0.891742
0.891674
0.8905
0.890099
0.889641
0.888889
0.888934
0.888086
0.888156
0.887826
0.887149
0.876078
0.874263
0.885472
0.886224
0.886271
0.886501
0.886519
0.886829
0.886805
0.887133
0.887114
0.887458
0.887506
0.887973
0.888199
0.888519
0.888393
0.88829
0.887828
0.887632
0.887278
0.887217
0.886862
0.886823
0.886479
0.886427
0.886117
0.886057
0.885812
0.885125
0.873775
0.873765
0.885132
0.885824
0.88611
0.886142
0.886454
0.886498
0.886822
0.886843
0.88716
0.887197
0.887519
0.887678
0.888126
0.888236
0.888418
0.888153
0.887902
0.887388
0.887145
0.886978
0.886652
0.886602
0.886281
0.886263
0.885964
0.885987
0.885722
0.8852
0.873337
0.873809
0.885083
0.885898
0.885923
0.88622
0.886243
0.886574
0.886604
0.886922
0.886958
0.887281
0.887365
0.88781
0.888053
0.888396
0.888316
0.888236
0.887789
0.887583
0.887233
0.887172
0.88682
0.886779
0.88644
0.886389
0.886081
0.886025
0.885797
0.885112
0.87376
0.873301
0.885207
0.885882
0.885913
0.886213
0.886234
0.886581
0.886627
0.886967
0.887024
0.887371
0.887446
0.887884
0.888094
0.888378
0.888383
0.888112
0.887874
0.887427
0.887347
0.887008
0.886962
0.886634
0.886599
0.886266
0.886253
0.885944
0.885904
0.885218
0.873324
0.873745
0.885086
0.885927
0.885955
0.886284
0.886296
0.886648
0.88665
0.886984
0.886977
0.887318
0.887364
0.887787
0.887998
0.888367
0.888308
0.88823
0.887791
0.887582
0.887242
0.887185
0.886834
0.886797
0.88645
0.886406
0.886086
0.886027
0.885793
0.885103
0.873737
1.51824
1.59734
1.59696
1.64529
1.85539
2.50921
3.6329
4.11046
4.09982
3.92238
3.80067
3.63483
2.58334
2.12519
4.53824
4.72922
4.82007
5.07103
3.64861
2.31129
1.74465
1.48532
1.37116
1.34208
1.37395
1.47322
1.57505
1.7736
1.91652
2.08152
2.29804
2.68847
3.84113
3.71588
3.82373
3.70337
3.75323
3.68751
3.71907
3.61433
3.75648
2.66903
2.21044
2.12373
2.97806
2.90003
2.98572
3.1631
3.08149
3.45055
3.54528
3.57337
4.03069
3.73388
3.91022
3.25573
2.82517
2.75314
2.67854
2.83713
3.39942
4.3726
4.30325
4.02416
3.87822
3.85478
3.91486
4.11968
4.18908
4.36533
4.32785
4.211
4.38217
2.92995
3.35827
3.35388
3.12385
3.14252
2.82879
2.73437
2.71304
3.04247
2.95969
3.32058
3.44403
3.70943
4.15766
4.47361
4.94786
5.09064
5.0646
5.3987
5.59299
5.86081
6.39941
5.45687
6.02607
6.59193
7.14566
6.69872
6.36671
5.75672
5.34521
3.31802
5.43066
5.53393
5.52279
5.15778
5.17685
5.3348
5.49135
5.70467
5.82007
6.0529
6.08269
5.94731
5.87702
5.67457
5.52055
5.24364
5.30779
5.33409
5.52183
5.58802
5.6346
5.50594
5.04756
5.83776
5.98604
4.92529
5.08857
4.15558
3.15935
2.64898
2.75224
2.86736
2.83375
2.65065
2.31237
2.35417
4.3075
2.48349
2.77657
2.9142
3.00298
2.89627
3.01614
2.78524
3.13449
3.02861
3.43855
3.28363
3.80414
3.58807
4.39974
3.89139
3.50367
2.73678
3.47104
4.19982
5.68371
7.06077
8.69891
9.52578
1.78099
1.70604
1.57009
1.66508
1.51854
1.78713
1.74068
2.03657
2.13451
2.47571
2.13111
2.16515
1.68677
1.75654
1.56337
1.58751
1.45067
1.4751
1.36849
1.38791
1.3003
1.31599
1.25395
1.26423
1.2221
1.21869
1.20673
1.18878
1.18942
1.19369
1.10749
1.09772
1.09325
1.0918
1.09078
1.0888
1.08765
1.08558
1.08456
1.08237
1.08151
1.07937
1.07856
1.07641
1.07578
1.07437
1.07407
1.07356
1.07332
1.07286
1.07263
1.07209
1.07218
1.07149
1.07176
1.07124
1.07124
1.07122
1.07146
1.08645
1.084
1.069
1.06816
1.06785
1.06768
1.06744
1.06722
1.06702
1.06676
1.06656
1.06628
1.06602
1.06556
1.0651
1.06483
1.0648
1.06505
1.06542
1.06582
1.06603
1.06626
1.06646
1.06667
1.06684
1.06707
1.06722
1.06743
1.0676
1.0684
1.08359
1.08359
1.06841
1.06755
1.06732
1.06713
1.06697
1.06676
1.06661
1.06641
1.06625
1.06603
1.06583
1.06546
1.06507
1.06477
1.0647
1.06486
1.06533
1.06582
1.06617
1.06633
1.06659
1.06683
1.067
1.06719
1.06734
1.06749
1.06768
1.06854
1.08358
1.08357
1.06844
1.06762
1.06737
1.06723
1.06704
1.06688
1.06667
1.06651
1.06629
1.0661
1.06583
1.06546
1.06499
1.06474
1.06468
1.06494
1.06532
1.06574
1.06597
1.06622
1.06642
1.06664
1.06682
1.06705
1.06722
1.06744
1.0676
1.0684
1.08358
1.08357
1.06842
1.0676
1.06745
1.06727
1.06706
1.06685
1.06663
1.06644
1.06621
1.066
1.06573
1.06538
1.06496
1.0647
1.06471
1.06495
1.06539
1.06575
1.06602
1.06622
1.06645
1.06663
1.06683
1.06703
1.06722
1.06739
1.06761
1.0684
1.08356
1.08356
1.06841
1.06756
1.06731
1.06716
1.06697
1.06681
1.06662
1.06647
1.06627
1.06609
1.06583
1.0655
1.06505
1.06477
1.06466
1.06491
1.06528
1.06571
1.06594
1.06618
1.0664
1.06662
1.06681
1.06704
1.06721
1.06743
1.06758
1.06838
1.08358
1.5474
1.35664
1.17899
1.17392
1.25912
1.62801
2.08407
2.74419
3.36062
4.09268
3.92018
3.81757
2.65531
2.21152
5.00433
5.01128
5.08933
3.65923
2.06632
1.48357
1.25688
1.15944
1.11659
1.09301
1.09737
1.11126
1.12087
1.15131
1.21114
1.27055
1.45939
1.76904
2.20519
3.32697
3.7842
3.78045
3.72397
3.76606
3.71694
3.77658
3.82818
2.70012
2.32903
2.20766
2.99345
2.92075
3.04144
3.05034
3.26041
3.35554
3.68829
3.65725
3.86975
3.27724
2.46738
2.16936
1.96176
1.94054
2.10943
3.15787
4.99972
4.86476
4.60002
4.20965
3.97683
3.73657
3.74307
4.05275
4.37307
4.47872
4.57122
4.43993
4.42991
3.09261
3.45945
3.43424
3.41388
3.2747
3.33845
2.96448
2.91965
3.21097
3.07207
3.34505
3.88362
3.89241
4.49319
5.05877
5.25167
5.27302
5.33051
5.31751
5.50029
5.70813
5.64264
6.20383
5.53746
5.98739
6.02227
6.34984
5.75507
5.48054
4.86645
3.448
7.15313
7.41014
5.76748
5.62978
5.3239
5.44328
5.59428
5.82548
6.16311
6.35441
6.39153
6.19533
5.93675
5.75436
5.50585
5.24099
5.06838
5.20271
5.17653
5.4578
5.66829
5.21379
5.68016
5.34878
6.10471
5.27304
6.77763
5.01485
3.96009
2.93224
2.94329
2.72171
2.73103
2.60472
2.43891
2.25402
3.14246
2.90665
3.10414
3.18363
3.2792
3.3103
3.0627
3.24767
3.08901
3.30938
3.28278
3.58636
3.51739
3.98601
3.96281
4.18962
4.70182
5.59293
9.77448
3.71767
4.19216
5.23689
6.97359
9.16978
1.58467
1.30299
1.32233
1.11821
1.37366
1.21927
1.60019
1.55792
1.89064
2.01016
2.39919
2.10242
2.08089
1.60108
1.69729
1.51673
1.53389
1.42256
1.43343
1.35073
1.35794
1.28665
1.29609
1.24354
1.25313
1.21481
1.22485
1.19945
1.20681
1.19759
1.10047
1.09643
1.09728
1.09747
1.09509
1.09553
1.09308
1.09296
1.09061
1.09035
1.08814
1.08792
1.08597
1.08582
1.08409
1.08411
1.08249
1.08261
1.08117
1.08132
1.08008
1.08026
1.07939
1.07924
1.0788
1.07867
1.07822
1.07839
1.07814
1.08097
1.07827
1.07572
1.07549
1.07549
1.07541
1.07539
1.07533
1.0753
1.07527
1.07519
1.07521
1.07512
1.0751
1.07504
1.07501
1.075
1.075
1.07502
1.07503
1.07504
1.07505
1.07505
1.07506
1.07507
1.07508
1.07508
1.0751
1.07512
1.07533
1.07795
1.07794
1.07532
1.0751
1.07508
1.07506
1.07506
1.07503
1.07504
1.07501
1.07501
1.07499
1.07498
1.07495
1.07493
1.0749
1.0749
1.07491
1.07495
1.07498
1.07501
1.07502
1.07502
1.07505
1.07505
1.07507
1.07506
1.07509
1.0751
1.07531
1.07799
1.07794
1.07531
1.07511
1.07507
1.07507
1.07505
1.07505
1.07503
1.07502
1.075
1.075
1.07497
1.07496
1.07492
1.07491
1.07489
1.07492
1.07494
1.07498
1.07498
1.07501
1.07501
1.07504
1.07504
1.07506
1.07506
1.07509
1.0751
1.07531
1.07794
1.07799
1.07531
1.0751
1.07508
1.07507
1.07505
1.07505
1.07502
1.07502
1.07499
1.07499
1.07497
1.07495
1.07491
1.07491
1.07491
1.07491
1.07495
1.07497
1.07499
1.07499
1.07502
1.07502
1.07504
1.07505
1.07507
1.07507
1.07511
1.0753
1.07799
1.07794
1.0753
1.0751
1.07506
1.07506
1.07504
1.07504
1.07502
1.07502
1.075
1.075
1.07497
1.07496
1.07492
1.07491
1.07489
1.07492
1.07493
1.07497
1.07498
1.075
1.075
1.07503
1.07503
1.07505
1.07505
1.07508
1.07509
1.07531
1.07794
1.23924
1.03629
0.961544
0.945155
1.05953
1.22277
1.4832
1.68751
1.96641
2.93253
4.17207
4.12128
3.2384
2.40937
5.1043
5.21219
3.37649
1.92005
1.36012
1.16073
1.10374
1.09224
1.12761
1.19323
1.22745
1.24124
1.21601
1.20054
1.17503
1.1498
1.16696
1.25097
1.54006
2.08622
2.93135
3.7145
3.80156
3.77563
3.88252
3.80427
3.72904
2.75724
2.47596
2.2626
2.95161
2.94757
3.09837
3.02236
3.35764
3.34774
3.69012
3.66883
3.71226
2.53997
2.20294
2.03119
1.85843
1.81188
2.47621
5.1493
5.13913
4.92527
4.63937
4.39526
4.17584
3.84908
3.83988
4.13186
4.48257
4.7093
4.71569
4.49852
4.68696
3.53782
3.4296
3.4765
3.48461
3.49922
3.3508
3.39794
3.2917
3.0941
3.35852
3.93422
3.79282
4.46679
4.68336
5.27413
5.1332
5.42884
5.2749
5.28287
5.41004
5.6619
5.7804
5.54829
5.75991
5.40111
5.62368
5.14665
5.3801
5.18332
5.09721
3.79527
6.01195
6.56897
5.83759
5.81333
5.07145
5.2306
5.36854
5.7699
6.154
6.47267
6.46638
6.29084
5.93436
5.66559
5.49687
5.19048
4.96932
4.80927
4.96552
5.09062
5.32167
5.41366
5.57414
4.84258
6.23515
6.21323
5.63616
6.63428
4.83908
3.5582
2.70251
2.60818
2.70602
2.75316
2.66936
3.505
3.39531
3.14091
3.40614
3.45529
3.50561
3.3569
3.34903
3.21282
3.38598
3.38603
3.62275
3.48309
3.81992
4.11015
3.81624
4.96908
4.58271
5.21959
5.96409
3.95269
3.35827
4.04224
5.16862
7.59609
1.2827
1.14058
0.916445
1.01163
0.879406
1.29026
1.18236
1.61661
1.55895
1.86668
2.01536
2.36765
2.02881
1.91818
1.49523
1.60633
1.43112
1.44692
1.35543
1.36048
1.29314
1.29506
1.23906
1.24139
1.20492
1.20453
1.18269
1.18228
1.17077
1.17403
1.06853
1.07123
1.07023
1.06785
1.06825
1.066
1.06608
1.0636
1.06364
1.06116
1.06127
1.05895
1.05903
1.05701
1.057
1.05547
1.05537
1.05413
1.05408
1.05309
1.0524
1.05245
1.05147
1.05179
1.05072
1.0513
1.05028
1.05082
1.0502
1.05079
1.04835
1.04804
1.04798
1.04796
1.0479
1.04791
1.04783
1.04785
1.04777
1.0478
1.04768
1.04777
1.04763
1.04772
1.04761
1.04768
1.04759
1.04766
1.04757
1.04765
1.04755
1.04763
1.04754
1.04762
1.04753
1.04761
1.04753
1.0476
1.04763
1.04785
1.04786
1.04763
1.04759
1.04751
1.04759
1.04751
1.0476
1.04752
1.0476
1.04751
1.04759
1.04751
1.04759
1.04751
1.04758
1.04751
1.04758
1.0475
1.04757
1.04754
1.04753
1.04759
1.04751
1.04759
1.04751
1.04759
1.04751
1.0476
1.04755
1.04791
1.04783
1.04761
1.0475
1.04759
1.04751
1.04759
1.04751
1.0476
1.04751
1.04759
1.04751
1.04759
1.04751
1.04758
1.04751
1.04758
1.04751
1.04758
1.04751
1.04759
1.04751
1.04759
1.04751
1.04759
1.04751
1.04759
1.04751
1.04759
1.04761
1.04783
1.04789
1.04757
1.04757
1.04759
1.0475
1.04759
1.0475
1.04759
1.04751
1.04759
1.04751
1.04759
1.04751
1.04758
1.04752
1.04752
1.04757
1.0475
1.04758
1.04751
1.04759
1.04751
1.04759
1.0475
1.04758
1.0475
1.04758
1.04755
1.04758
1.04788
1.04783
1.0476
1.0475
1.04759
1.0475
1.04759
1.0475
1.04759
1.04751
1.0476
1.04751
1.04759
1.04751
1.04758
1.0475
1.04758
1.0475
1.04758
1.04751
1.04759
1.04751
1.04759
1.0475
1.04759
1.0475
1.04758
1.04751
1.04758
1.04761
1.04784
0.944936
0.843355
0.858626
0.955851
1.03414
1.10164
1.18129
1.32567
1.4878
2.28115
4.12202
4.23119
4.25274
2.67388
5.3469
3.4196
1.82228
1.24816
1.12452
1.09205
1.13605
1.32838
1.78375
2.40517
2.74026
2.91683
2.5564
2.171
1.65463
1.37621
1.21829
1.17637
1.23015
1.48851
1.94744
2.87423
3.74695
3.81877
3.86588
3.95517
3.94485
4.21221
3.04238
2.35994
3.07013
2.97472
3.14468
3.06634
3.42629
3.35063
3.79784
3.58867
3.09011
2.37642
2.83101
2.58035
2.08883
1.90088
2.85483
5.14899
5.03813
4.79154
4.52787
4.48004
4.18065
4.05059
3.99789
4.15732
4.60171
4.83911
4.86411
4.74253
4.73484
4.07528
3.45659
3.43793
3.49476
3.55014
3.50014
3.33601
3.4247
3.26291
3.96491
3.81474
4.52605
4.64905
4.90723
4.90945
5.2622
5.13269
5.3144
5.16129
5.40964
5.74179
5.92066
5.58368
5.27219
5.04503
4.53335
5.07283
4.83703
4.10092
3.48733
4.08334
8.60348
5.88579
5.59492
4.78288
4.96111
4.98971
5.28003
5.56381
5.99481
6.28114
6.4038
6.12784
5.87042
5.58774
5.38128
5.19877
4.93884
4.71248
4.73776
4.74749
4.77576
5.31447
5.02614
5.45851
5.42841
6.58666
6.67732
7.71031
6.25852
4.65316
2.52589
2.75309
4.38119
4.65546
4.54955
4.09594
3.60099
3.62434
3.52783
3.55894
3.41364
3.26477
3.07948
3.23882
3.18964
3.50424
3.42237
3.73735
3.6463
4.00002
4.53911
4.61321
5.31154
5.06646
5.80545
5.77934
3.42507
3.28434
4.03786
5.81396
1.11205
0.888217
0.904276
0.660209
0.940759
0.918531
1.34112
1.24867
1.6706
1.62267
1.90828
2.02438
2.30234
1.90009
1.73268
1.41427
1.5029
1.33432
1.37563
1.27396
1.29257
1.22512
1.23288
1.18183
1.18724
1.15425
1.15781
1.13868
1.1421
1.1362
1.03381
1.02893
1.03065
1.03178
1.03132
1.03166
1.03048
1.0302
1.02875
1.02815
1.02684
1.02608
1.02504
1.02411
1.02324
1.02255
1.02162
1.02145
1.0204
1.02041
1.01939
1.01954
1.01847
1.01891
1.01783
1.01832
1.01744
1.01788
1.01745
1.01996
1.01741
1.01534
1.01507
1.01517
1.01505
1.01507
1.01501
1.01502
1.01495
1.01496
1.01491
1.01487
1.01487
1.01482
1.01483
1.01481
1.01478
1.0148
1.01476
1.01478
1.01474
1.01477
1.01473
1.01475
1.01471
1.01474
1.01471
1.01475
1.01492
1.01713
1.01713
1.01492
1.01473
1.01469
1.01472
1.0147
1.01473
1.01471
1.01473
1.01471
1.01473
1.01471
1.01473
1.01471
1.01473
1.0147
1.01472
1.0147
1.01472
1.01472
1.01472
1.01473
1.0147
1.01473
1.0147
1.01472
1.0147
1.01474
1.01486
1.01709
1.01713
1.01488
1.0147
1.01472
1.01469
1.01473
1.0147
1.01473
1.01471
1.01473
1.01471
1.01473
1.0147
1.01472
1.0147
1.01472
1.0147
1.01473
1.0147
1.01473
1.0147
1.01473
1.0147
1.01472
1.0147
1.01472
1.0147
1.01474
1.0149
1.01711
1.01709
1.01488
1.01475
1.01473
1.0147
1.01472
1.0147
1.01472
1.0147
1.01473
1.0147
1.01473
1.0147
1.01472
1.01471
1.01471
1.01472
1.0147
1.01473
1.0147
1.01473
1.0147
1.01472
1.0147
1.01472
1.01469
1.01472
1.01474
1.01488
1.01709
1.01712
1.01488
1.0147
1.01472
1.01469
1.01472
1.0147
1.01473
1.01471
1.01473
1.01471
1.01473
1.0147
1.01472
1.0147
1.01472
1.0147
1.01472
1.0147
1.01472
1.0147
1.01472
1.01469
1.01472
1.01469
1.01472
1.0147
1.01473
1.01491
1.01713
0.837896
0.838004
0.925206
1.02802
1.08818
1.1541
1.24023
1.29558
1.3914
1.737
3.22976
4.14357
4.2949
3.05682
4.15778
1.87484
1.23856
1.11157
1.09304
1.18788
1.6562
3.10582
3.96
4.42874
4.39275
4.73583
4.28451
4.43964
3.39906
2.12102
1.51807
1.2753
1.19133
1.2297
1.44363
2.03429
3.6623
4.05934
4.08807
4.13873
4.13437
4.08963
3.01419
2.34722
3.005
3.04782
3.18145
3.1008
3.52511
3.36019
3.77743
3.58212
2.86432
2.86452
3.73902
3.46387
2.32769
1.89374
2.24041
3.16121
4.69067
4.64864
4.51539
4.3503
4.26264
4.16353
4.11781
4.30703
4.67998
4.88862
4.89497
4.74289
4.77425
4.60121
3.33178
3.4112
3.55664
3.47928
3.54364
3.55024
3.38039
3.87292
3.82206
4.48603
4.71091
4.78297
4.89269
4.80472
4.69013
5.04897
5.00292
5.20409
5.44451
5.90943
5.76477
5.56201
4.92665
4.48992
4.64582
4.24964
3.9436
3.70509
3.97631
3.09756
10.9304
5.00542
4.68533
4.73184
4.71973
4.88805
5.05453
5.37299
5.63521
5.99008
6.06841
5.97428
5.60518
5.36488
5.25954
5.17538
4.92314
4.72559
4.52438
4.57172
4.38531
4.81498
4.76589
5.07946
5.4473
5.32052
6.134
7.52083
8.20181
5.76717
2.19562
2.52163
4.06243
3.69221
3.52222
3.74253
3.74489
3.61466
3.6146
3.35284
3.10807
2.85215
2.96563
2.97875
3.33743
3.27649
3.60585
3.50224
3.92284
3.7795
4.68452
4.77562
4.98315
5.37169
5.52276
5.59012
6.23776
3.60569
3.18198
4.34037
0.939487
0.811762
0.559646
0.713371
0.68074
1.07778
0.945181
1.42829
1.33671
1.71448
1.68011
1.92173
1.99831
2.14397
1.68721
1.55903
1.31833
1.38528
1.24289
1.26287
1.19369
1.20035
1.14585
1.15136
1.10717
1.11349
1.08513
1.09156
1.07887
1.08609
0.971705
0.975383
0.979176
0.976745
0.978873
0.976387
0.977596
0.974967
0.975696
0.973096
0.973523
0.970916
0.971433
0.969407
0.969308
0.968014
0.967798
0.966874
0.966188
0.966169
0.965044
0.965417
0.964303
0.9645
0.963888
0.963849
0.963521
0.963526
0.96341
0.962724
0.960739
0.961238
0.961294
0.961211
0.961217
0.961181
0.961103
0.961139
0.961068
0.961068
0.961027
0.961022
0.960968
0.960996
0.960923
0.960962
0.960905
0.960935
0.960877
0.960913
0.960853
0.960891
0.960833
0.960872
0.960818
0.960854
0.960822
0.960864
0.960855
0.960255
0.96028
0.960864
0.96084
0.9608
0.960836
0.960805
0.960848
0.960815
0.960854
0.96082
0.960859
0.960827
0.96086
0.960833
0.960859
0.960832
0.960855
0.960824
0.960841
0.960857
0.960837
0.960849
0.96081
0.960846
0.960805
0.960839
0.960804
0.960846
0.960797
0.960202
0.960247
0.96082
0.960807
0.960833
0.960803
0.960846
0.960813
0.960855
0.96082
0.960857
0.960823
0.960858
0.960829
0.960858
0.960832
0.960857
0.96083
0.960857
0.960824
0.960853
0.960813
0.960848
0.960807
0.960842
0.960802
0.960837
0.960813
0.960847
0.960838
0.960244
0.960197
0.960818
0.960862
0.960845
0.960807
0.960842
0.960806
0.960849
0.960813
0.960853
0.960817
0.960858
0.960825
0.960857
0.960847
0.960847
0.960856
0.960826
0.960856
0.960818
0.960851
0.96081
0.960847
0.960804
0.960837
0.960796
0.960833
0.960855
0.960831
0.960193
0.960245
0.96082
0.960808
0.960835
0.960798
0.960844
0.960803
0.960855
0.960809
0.960859
0.960819
0.960865
0.960827
0.960862
0.960829
0.960861
0.960834
0.960862
0.960828
0.960861
0.960822
0.960856
0.96081
0.960847
0.960799
0.960843
0.960817
0.960854
0.960855
0.960266
0.754302
0.859462
1.00221
1.06929
1.1818
1.36344
1.50526
1.5395
1.54035
1.80902
2.8714
4.07718
4.15675
3.14229
2.92877
1.39203
1.16668
1.10289
1.17792
1.81534
3.76955
4.76106
5.14024
5.08606
4.8032
4.64649
4.27821
4.00522
3.45704
2.69342
1.77792
1.38723
1.24922
1.30261
1.42349
1.99175
3.24084
3.98514
4.03891
4.05741
4.08886
3.98092
2.70946
2.37617
3.21561
3.10226
3.34438
3.21146
3.57758
3.47929
3.63652
3.10059
3.29197
3.91541
3.89728
2.95324
2.07397
1.70049
1.69347
2.08152
3.60694
4.64699
4.37665
4.28649
4.21759
4.1998
4.25939
4.49503
4.76725
4.87756
4.81925
4.66399
4.57514
4.55118
3.19052
3.51519
3.42963
3.63332
3.4717
3.54107
3.6938
4.03443
4.3325
4.77896
4.82203
4.87519
4.62766
4.41971
4.03465
4.51811
4.97678
5.05356
5.52166
5.71606
5.80641
5.07038
4.78634
3.97123
3.53027
3.55655
3.631
3.68464
3.0669
3.28479
4.64881
4.71724
4.39044
4.35092
4.41991
4.70453
5.0229
5.09644
5.37343
5.53014
5.75659
5.64017
5.51212
5.32548
5.13919
4.93505
4.83611
4.64112
4.50185
4.27316
4.38586
4.17279
4.66534
4.63231
4.9646
5.07503
5.48077
5.85194
6.49319
5.48545
2.59172
3.29976
4.85712
5.08505
4.68846
4.23457
3.86528
3.67849
3.37844
3.24562
2.87578
2.85548
2.76269
3.20892
3.19087
3.69444
3.65199
3.84764
3.68992
3.98531
4.43812
4.82155
5.20872
5.10801
5.41884
5.41558
5.19748
3.4513
3.14612
3.42323
0.745114
0.626594
0.598429
0.560207
0.877558
0.784733
1.11038
1.06318
1.4557
1.40923
1.72721
1.72549
1.92244
1.92709
1.89177
1.42375
1.39065
1.22898
1.27718
1.13704
1.17562
1.10469
1.11649
1.06912
1.07345
1.042
1.04567
1.03034
1.03568
1.03605
0.915906
0.911524
0.919024
0.92176
0.92425
0.924758
0.924851
0.924617
0.923712
0.923465
0.922414
0.921327
0.92108
0.919292
0.919829
0.917839
0.918524
0.916856
0.917308
0.916038
0.916268
0.91532
0.915503
0.914669
0.914944
0.914263
0.914588
0.914133
0.914452
0.913489
0.911141
0.912065
0.911966
0.912093
0.911963
0.912008
0.911915
0.911876
0.911872
0.911826
0.911784
0.911782
0.911745
0.911715
0.911725
0.911679
0.911695
0.911657
0.911666
0.911636
0.911648
0.911626
0.911633
0.911615
0.911626
0.911637
0.91165
0.911694
0.911684
0.910996
0.911012
0.911688
0.911671
0.91163
0.91162
0.911606
0.911602
0.911599
0.911606
0.911599
0.911603
0.911598
0.911605
0.911602
0.911608
0.9116
0.911606
0.911589
0.911596
0.911606
0.911602
0.911599
0.911592
0.911597
0.911603
0.911621
0.911636
0.911675
0.91165
0.910939
0.910989
0.911653
0.911659
0.911637
0.911615
0.911614
0.911597
0.911607
0.9116
0.911603
0.911595
0.9116
0.911598
0.911605
0.911601
0.911605
0.911599
0.911602
0.911595
0.911597
0.911591
0.911598
0.911591
0.911596
0.911598
0.911621
0.911638
0.911678
0.911668
0.910985
0.910943
0.911659
0.91169
0.91165
0.911618
0.911612
0.911594
0.911601
0.911595
0.911599
0.911593
0.911601
0.911597
0.911605
0.91161
0.911607
0.911605
0.911597
0.911601
0.911593
0.911598
0.911593
0.911599
0.91159
0.911605
0.911608
0.911636
0.911686
0.911668
0.910944
0.910982
0.911652
0.911661
0.91164
0.911615
0.911608
0.911594
0.911602
0.911597
0.911601
0.911601
0.911603
0.9116
0.911604
0.911597
0.911602
0.911599
0.911603
0.911596
0.911599
0.911595
0.911598
0.911589
0.911599
0.911597
0.911629
0.911661
0.911749
0.911847
0.911166
0.775812
0.889011
1.009
1.11317
1.29498
1.43663
1.43174
1.42803
1.47999
1.93973
3.35796
4.38214
4.25865
2.99756
2.46097
2.18378
1.92833
1.28664
1.18094
1.14967
1.59159
3.6934
5.0475
5.57948
5.54435
5.16214
4.5203
4.02984
3.5811
3.21529
2.88322
2.47796
2.09601
1.76614
1.72186
1.78977
2.1123
2.68121
3.9994
4.39055
4.5034
4.62191
4.5342
4.28762
4.4113
4.16348
3.58994
3.71137
3.37169
3.38559
3.25567
3.48871
3.4921
3.62252
3.37533
3.41113
3.65351
3.92189
2.70615
1.84938
1.60693
1.48486
1.46241
1.78006
3.53489
4.57343
4.39474
4.2456
4.19215
4.31546
4.48713
4.69349
4.80798
4.8446
4.72764
4.54642
4.3158
4.00626
3.69281
3.76854
3.66847
3.57419
3.66522
3.6716
3.80285
3.61939
3.7882
4.4804
4.7261
4.90799
4.99325
4.65446
4.36228
3.51427
3.43378
4.44085
4.68417
5.08418
5.35668
5.71354
5.38177
5.01225
4.20121
3.87534
3.83085
3.81716
3.55364
3.12621
3.24556
2.73288
2.18157
2.01392
2.52529
3.07556
3.99711
4.166
4.28049
4.42624
4.66915
4.88035
5.03689
5.20592
5.26323
5.43148
5.26952
5.27219
5.06976
4.93246
4.60723
4.55666
4.30997
4.23174
4.06711
4.24033
4.12795
4.60411
4.48623
4.87146
4.8279
5.45931
5.58533
7.24569
12.1398
7.7662
5.04371
5.08746
5.32795
5.66911
4.33144
4.32297
4.39053
3.81869
3.37662
2.97697
2.80524
2.5256
3.01823
2.86288
3.53748
3.51012
4.02921
3.94002
4.2522
4.02975
4.65169
4.65119
5.07164
5.00285
5.12265
5.39139
5.36022
5.66665
3.01003
2.80854
0.969522
0.821744
0.801169
0.793692
0.780739
0.80554
0.772362
1.00522
0.935132
1.26973
1.2156
1.53679
1.50335
1.74176
1.77337
1.91688
1.75945
1.59677
1.17759
1.26254
1.12525
1.14407
1.04444
1.06057
1.01346
1.01996
0.976073
0.983781
0.95196
0.961961
0.94241
0.950362
0.911207
0.89849
0.860347
0.859474
0.85847
0.860108
0.859451
0.858879
0.857723
0.855595
0.856617
0.853278
0.854728
0.851235
0.852654
0.849973
0.850574
0.84886
0.84902
0.847871
0.847829
0.846999
0.846898
0.846212
0.846208
0.845575
0.84571
0.845144
0.845381
0.844886
0.844919
0.841892
0.83867
0.838156
0.840403
0.842943
0.843403
0.843174
0.843263
0.843111
0.843125
0.84308
0.843006
0.84305
0.842951
0.842994
0.842914
0.842931
0.8429
0.842881
0.842874
0.842857
0.842856
0.842843
0.84284
0.842837
0.842825
0.842839
0.842832
0.842862
0.842865
0.842873
0.842612
0.839677
0.836929
0.836928
0.839689
0.842622
0.842848
0.842843
0.842841
0.842815
0.842816
0.842798
0.84281
0.842797
0.842806
0.842793
0.8428
0.842792
0.842798
0.842791
0.842797
0.842787
0.84279
0.842812
0.842806
0.842802
0.842794
0.84281
0.842814
0.842843
0.842847
0.842848
0.842577
0.83964
0.836921
0.836922
0.839669
0.842582
0.842835
0.842854
0.842833
0.842831
0.842805
0.842814
0.842798
0.84281
0.842795
0.842803
0.842792
0.842799
0.842793
0.842798
0.842791
0.842798
0.842791
0.842803
0.842791
0.842804
0.842791
0.84281
0.842811
0.84284
0.842852
0.842856
0.842597
0.839669
0.836922
0.836923
0.839645
0.842593
0.842868
0.842864
0.842834
0.842829
0.842802
0.842808
0.842795
0.842805
0.842792
0.842801
0.842791
0.842798
0.842802
0.8428
0.842798
0.842791
0.842801
0.842794
0.842808
0.842795
0.842808
0.842799
0.842824
0.842826
0.842851
0.842862
0.842599
0.839645
0.836927
0.836923
0.839664
0.842583
0.842837
0.842861
0.842831
0.84283
0.842799
0.842815
0.842801
0.842818
0.842803
0.842817
0.842804
0.842809
0.842799
0.842803
0.842796
0.842802
0.842797
0.842811
0.842801
0.84282
0.842804
0.842832
0.842825
0.842859
0.842872
0.84288
0.842611
0.839694
0.837105
0.839265
0.82092
0.947251
1.04391
1.17489
1.34815
1.38318
1.37186
1.36667
1.40272
1.76689
3.02809
4.41973
3.99514
2.88757
2.27515
1.96391
1.61722
1.33707
1.19512
1.3302
2.49005
4.79458
5.66038
5.78407
5.71602
5.36615
5.2181
4.59505
4.35313
3.72785
3.5502
3.33436
3.30351
3.43583
3.59577
4.3252
4.28123
4.37765
4.48959
4.5245
4.58887
4.58673
4.58564
4.4729
4.31023
4.04471
3.81616
3.59113
3.5763
3.4773
3.70567
3.61905
3.78156
3.62877
3.64731
3.8556
3.57066
2.09803
1.62548
1.58897
1.51861
1.40723
1.40004
1.86074
4.76416
4.65439
4.51217
4.25516
4.36855
4.56733
4.74179
4.83414
4.871
4.83258
4.78379
4.5925
4.47001
4.28654
4.08321
3.92435
3.66553
3.9309
3.84785
3.7379
3.81336
4.04742
4.46928
4.61109
5.08164
5.16886
4.91691
4.63457
4.0137
3.30736
3.32745
4.15441
4.67295
4.90976
5.28794
5.32665
5.18062
4.70731
4.12574
3.91302
3.7188
3.33371
3.21111
3.24852
2.7781
2.45045
2.53044
2.39174
3.08981
3.51586
4.10358
3.84886
4.32284
4.38465
4.70798
4.6473
4.77396
4.58996
4.84503
5.0386
5.24969
4.974
4.99585
4.66035
4.53968
4.32635
4.25207
4.06039
4.08241
4.083
4.25776
4.14925
4.61987
4.55592
4.92668
4.71762
5.4302
4.25359
5.31453
5.24433
3.86335
3.956
4.39964
5.14191
5.52526
5.63868
5.02207
4.57027
3.74124
3.09253
2.81817
2.74077
2.76293
3.20602
3.38969
3.70849
3.80283
4.18287
4.03658
4.56797
4.48985
4.91727
4.97958
4.94427
4.76846
4.94901
5.21373
5.05151
4.95509
3.66224
2.11312
1.73878
1.51676
1.34319
1.20225
1.04697
1.14665
0.981249