/*--------------------------------*- C++ -*----------------------------------*\
| =========                 |                                                 |
| \\      /  F ield         | OpenFOAM: The Open Source CFD Toolbox           |
|  \\    /   O peration     | Version:  2.1.1                                 |
|   \\  /    A nd           | Web:      www.OpenFOAM.org                      |
|    \\/     M anipulation  |                                                 |
\*---------------------------------------------------------------------------*/
FoamFile
{
    version     2.0;
    format      ascii;
    class       volScalarField;
    location    "0.001100000";
    object      H;
}
// * * * * * * * * * * * * * * * * * * * * * * * * * * * * * * * * * * * * * //

dimensions      [0 0 0 0 0 0 0];

internalField   nonuniform List<scalar> 
12384
(
1.1934e-06
7.33081e-07
2.0762e-07
1.42709e-08
1.04926e-09
1.09402e-10
4.03542e-12
2.77271e-13
7.38853e-15
1.17289e-16
1.28363e-18
1.25949e-20
1.04435e-22
9.28915e-25
6.43396e-25
8.86193e-24
3.11507e-23
3.72834e-23
1.22329e-23
1.00471e-24
3.59743e-27
5.21131e-30
4.23819e-33
3.54696e-36
2.98955e-39
2.5265e-42
2.1886e-45
1.85706e-48
1.52362e-51
1.22762e-54
9.47669e-58
6.96406e-61
5.00313e-64
3.46855e-67
2.34059e-70
1.63374e-73
1.15353e-76
8.67712e-80
6.57816e-83
5.10242e-86
4.01129e-89
3.51178e-92
4.43063e-95
9.96223e-98
1.30485e-104
1.04763e-105
6.58501e-108
3.97312e-110
1.91795e-112
7.76279e-115
2.78333e-117
8.97212e-120
2.71504e-122
7.94734e-125
2.32865e-127
7.13598e-130
2.27711e-132
7.59074e-135
2.58655e-137
8.68941e-140
2.87758e-142
9.51609e-145
3.10675e-147
1.01739e-149
3.30929e-152
1.08796e-154
3.59554e-157
1.2124e-159
4.17766e-162
1.49089e-164
5.53997e-167
2.09317e-169
6.15013e-174
3.078e-178
1.14316e-187
4.94933e-190
1.00495e-192
3.46908e-195
1.0166e-197
2.60818e-200
6.09509e-203
1.35358e-205
2.89303e-208
6.02485e-211
1.21484e-213
2.42499e-216
4.84293e-219
9.64113e-222
1.87347e-224
3.49713e-227
6.18042e-230
1.04361e-232
1.68041e-235
2.60719e-238
3.91019e-241
5.51572e-244
7.74178e-247
1.06094e-249
1.36808e-252
1.64318e-255
1.821e-258
1.73647e-261
1.24868e-264
2.04825e-268
5.43928e-290
7.71143e-288
2.69042e-290
5.06419e-293
7.21392e-296
8.24674e-299
8.22308e-302
7.37748e-305
5.99919e-308
4.55136e-311
3.29495e-314
2.4197e-317
1.7979e-320
1.4822e-323
0
0
0
0
0
0
0
0
0
0
0
0
0
0
0
0
0
0
0
0
0
0
0
0
0
0
0
0
0
0
0
0
0
0
0
0
0
0
0
0
0
0
0
0
0
0
0
0
0
0
0
0
0
0
0
0
0
0
0
0
0
0
0
0
0
0
0
0
0
0
0
0
0
0
0
0
0
0
0
0
0
0
0
0
0
0
0
0
0
0
0
0
0
0
0
0
0
0
0
0
0
0
0
0
0
0
0
0
0
0
0
0
0
0
0
0
0
0
0
0
0
0
0
0
0
0
0
0
0
0
0
0
0
0
0
0
0
0
0
0
0
0
0
0
0
0
0
0
0
0
0
0
0
0
0
0
0
0
0
0
0
0
0
0
0
0
0
0
0
0
0
0
0
0
0
0
0
0
0
0
0
0
0
0
0
0
0
0
0
0
0
0
0
0
0
0
0
0
0
0
0
0
0
0
0
0
0
0
0
0
0
0
0
0
0
0
0
0
0
0
0
0
0
0
0
0
0
0
0
0
0
0
0
0
0
0
0
0
0
0
0
0
0
0
0
0
0
0
0
0
0
0
0
0
0
0
5.21622e-09
2.81301e-08
1.7779e-08
1.32629e-09
2.91482e-10
1.398e-11
4.29645e-13
7.33258e-14
3.56916e-15
3.07559e-16
1.48502e-17
2.04672e-19
2.02282e-21
1.44733e-23
4.96176e-26
1.2865e-25
5.27923e-25
9.75917e-25
3.66953e-25
3.91731e-26
2.00832e-28
3.19839e-31
1.23193e-34
7.30932e-38
6.22318e-41
8.55191e-44
1.46507e-46
2.01634e-49
3.44563e-52
5.01316e-55
8.61136e-58
1.40354e-60
2.004e-63
2.94244e-66
3.25792e-69
2.99607e-71
3.69645e-74
3.8083e-77
3.38932e-80
2.86444e-83
2.18445e-86
1.623e-89
1.23881e-92
1.3492e-95
1.07058e-103
7.34374e-105
6.43722e-107
5.07864e-109
3.38898e-111
1.74775e-113
8.78239e-116
3.55563e-118
1.39622e-120
4.6583e-123
1.55796e-125
5.31455e-128
1.90848e-130
7.23278e-133
2.70162e-135
1.03059e-137
3.5928e-140
1.28404e-142
4.34883e-145
1.45449e-147
4.8344e-150
1.57665e-152
5.41068e-155
1.78554e-157
6.14107e-160
2.1138e-162
7.32551e-165
2.65719e-167
9.2752e-170
4.67551e-174
1.52805e-183
4.39965e-186
1.1986e-189
2.57683e-192
8.01017e-195
2.17766e-197
5.38853e-200
1.26277e-202
2.79366e-205
6.04623e-208
1.23652e-210
2.51721e-213
4.90266e-216
9.45077e-219
1.74314e-221
3.09453e-224
5.17946e-227
8.41799e-230
1.32441e-232
2.07378e-235
3.15776e-238
4.73838e-241
6.9701e-244
1.02727e-246
1.44431e-249
1.92777e-252
2.38391e-255
2.63765e-258
2.37071e-261
1.00553e-264
6.75926e-286
2.64261e-284
9.18311e-287
1.70092e-289
2.35994e-292
2.64205e-295
2.5751e-298
2.27293e-301
1.82697e-304
1.37542e-307
9.79433e-311
6.92572e-314
4.98055e-317
3.55184e-320
2.47033e-323
0
0
0
0
0
0
0
0
0
0
0
0
0
0
0
0
0
0
0
0
0
0
0
0
0
0
0
0
0
0
0
0
0
0
0
0
0
0
0
0
0
0
0
0
0
0
0
0
0
0
0
0
0
0
0
0
0
0
0
0
0
0
0
0
0
0
0
0
0
0
0
0
0
0
0
0
0
0
0
0
0
0
0
0
0
0
0
0
0
0
0
0
0
0
0
0
0
0
0
0
0
0
0
0
0
0
0
0
0
0
0
0
0
0
0
0
0
0
0
0
0
0
0
0
0
0
0
0
0
0
0
0
0
0
0
0
0
0
0
0
0
0
0
0
0
0
0
0
0
0
0
0
0
0
0
0
0
0
0
0
0
0
0
0
0
0
0
0
0
0
0
0
0
0
0
0
0
0
0
0
0
0
0
0
0
0
0
0
0
0
0
0
0
0
0
0
0
0
0
0
0
0
0
0
0
0
0
0
0
0
0
0
0
0
0
0
0
0
0
0
0
0
0
0
0
0
0
0
0
0
0
0
0
0
0
0
0
0
0
0
0
0
0
0
0
0
0
0
0
0
0
0
0
0
0
4.46509e-12
2.39894e-11
1.84104e-12
1.29239e-13
6.69166e-14
4.47539e-14
4.56694e-15
3.43865e-16
4.14446e-18
1.36118e-19
2.93738e-21
5.73704e-22
1.7049e-23
4.74043e-25
1.50581e-27
2.35448e-24
8.64308e-23
3.78307e-22
2.15138e-22
9.77668e-24
1.67824e-26
5.33826e-30
7.28941e-35
2.063e-38
5.17238e-42
1.42643e-45
5.63746e-49
2.35028e-52
1.13276e-55
4.89037e-59
3.66383e-62
2.03436e-65
1.75113e-68
1.45772e-71
1.71286e-74
6.67054e-76
1.25288e-78
3.838e-81
5.67247e-84
2.01891e-86
6.05399e-89
9.9213e-92
9.93408e-95
5.21709e-98
1.38976e-108
1.61965e-109
1.42752e-111
1.02895e-113
4.18168e-116
1.59884e-118
4.68323e-121
1.49055e-123
3.65707e-126
9.89574e-129
2.30455e-131
6.08144e-134
1.80818e-136
6.76469e-139
2.2494e-141
7.99637e-144
2.38511e-146
8.49765e-149
2.44257e-151
8.7262e-154
2.54103e-156
8.79156e-159
2.63854e-161
8.93104e-164
2.83273e-166
9.6888e-169
3.25486e-171
1.17056e-173
4.14603e-176
7.24012e-179
2.19672e-188
3.06276e-190
4.37904e-194
9.14175e-198
1.30405e-200
3.44869e-203
8.88463e-206
2.11413e-208
4.86851e-211
1.06641e-213
2.25969e-216
4.55361e-219
9.21584e-222
1.77393e-224
3.24537e-227
5.31485e-230
7.98451e-233
1.13851e-235
1.61201e-238
2.31232e-241
3.3448e-244
4.85531e-247
6.97835e-250
9.72047e-253
1.29904e-255
1.67903e-258
2.05217e-261
2.33989e-264
2.19174e-267
1.52542e-271
3.55979e-291
1.54354e-289
5.12067e-292
9.20287e-295
1.20537e-297
1.27661e-300
1.20488e-303
1.0198e-306
7.98313e-310
5.81187e-313
4.02343e-316
2.70032e-319
2.02567e-322
0
0
0
0
0
0
0
0
0
0
0
0
0
0
0
0
0
0
0
0
0
0
0
0
0
0
0
0
0
0
0
0
0
0
0
0
0
0
0
0
0
0
0
0
0
0
0
0
0
0
0
0
0
0
0
0
0
0
0
0
0
0
0
0
0
0
0
0
0
0
0
0
0
0
0
0
0
0
0
0
0
0
0
0
0
0
0
0
0
0
0
0
0
0
0
0
0
0
0
0
0
0
0
0
0
0
0
0
0
0
0
0
0
0
0
0
0
0
0
0
0
0
0
0
0
0
0
0
0
0
0
0
0
0
0
0
0
0
0
0
0
0
0
0
0
0
0
0
0
0
0
0
0
0
0
0
0
0
0
0
0
0
0
0
0
0
0
0
0
0
0
0
0
0
0
0
0
0
0
0
0
0
0
0
0
0
0
0
0
0
0
0
0
0
0
0
0
0
0
0
0
0
0
0
0
0
0
0
0
0
0
0
0
0
0
0
0
0
0
0
0
0
0
0
0
0
0
0
0
0
0
0
0
0
0
0
0
0
0
0
0
0
0
0
0
0
0
0
0
0
0
0
0
0
0
0
0
4.45723e-10
3.29039e-09
4.03637e-10
2.8629e-11
1.11221e-12
3.67461e-12
9.84857e-12
3.06662e-12
6.16265e-14
7.89172e-17
1.44772e-19
1.06289e-22
1.22102e-24
1.77199e-26
2.45775e-21
1.68889e-16
1.49977e-14
1.68235e-13
1.28582e-13
1.03464e-14
3.78304e-17
6.12468e-21
4.81316e-25
3.87464e-29
4.18724e-33
6.01604e-37
7.64116e-41
2.02606e-44
3.3391e-48
1.29003e-51
3.51642e-55
1.09941e-58
6.17249e-62
2.80064e-65
1.81227e-68
5.35047e-72
5.65084e-75
1.72986e-78
1.24635e-81
5.59031e-85
2.98996e-88
1.18871e-91
6.76127e-95
8.34005e-99
8.2291e-103
8.59809e-104
6.48194e-106
3.08046e-108
1.01613e-110
1.61762e-113
4.4454e-116
1.06044e-118
2.4271e-121
5.03027e-124
1.0144e-126
2.06355e-129
4.83371e-132
1.4864e-134
4.39596e-137
1.2941e-139
4.08913e-142
1.13757e-144
3.70134e-147
1.01782e-149
3.18346e-152
9.60183e-155
2.58578e-157
8.80183e-160
2.01937e-162
6.44496e-165
2.00167e-167
6.38186e-170
2.07354e-172
6.18822e-175
5.38198e-183
4.58615e-185
5.89616e-189
6.50315e-193
5.56461e-197
3.56417e-200
7.03588e-203
1.54536e-205
3.06664e-208
6.25946e-211
1.17998e-213
2.29337e-216
4.06909e-219
7.61337e-222
1.27969e-224
2.29357e-227
3.67952e-230
6.23862e-233
9.81256e-236
1.58008e-238
2.46498e-241
3.78814e-244
5.7985e-247
8.56351e-250
1.24698e-252
1.77365e-255
2.43471e-258
3.11358e-261
3.20443e-264
1.02828e-267
2.16914e-286
5.58202e-286
1.73067e-288
2.81837e-291
3.46741e-294
3.49695e-297
3.05281e-300
2.46182e-303
1.78629e-306
1.24667e-309
8.02688e-313
5.06523e-316
2.99458e-319
1.72923e-322
0
0
0
0
0
0
0
0
0
0
0
0
0
0
0
0
0
0
0
0
0
0
0
0
0
0
0
0
0
0
0
0
0
0
0
0
0
0
0
0
0
0
0
0
0
0
0
0
0
0
0
0
0
0
0
0
0
0
0
0
0
0
0
0
0
0
0
0
0
0
0
0
0
0
0
0
0
0
0
0
0
0
0
0
0
0
0
0
0
0
0
0
0
0
0
0
0
0
0
0
0
0
0
0
0
0
0
0
0
0
0
0
0
0
0
0
0
0
0
0
0
0
0
0
0
0
0
0
0
0
0
0
0
0
0
0
0
0
0
0
0
0
0
0
0
0
0
0
0
0
0
0
0
0
0
0
0
0
0
0
0
0
0
0
0
0
0
0
0
0
0
0
0
0
0
0
0
0
0
0
0
0
0
0
0
0
0
0
0
0
0
0
0
0
0
0
0
0
0
0
0
0
0
0
0
0
0
0
0
0
0
0
0
0
0
0
0
0
0
0
0
0
0
0
0
0
0
0
0
0
0
0
0
0
0
0
0
0
0
0
0
0
0
0
0
0
0
0
0
0
0
0
0
0
0
0
5.45901e-05
7.47913e-05
5.37162e-05
1.61294e-06
5.82972e-08
7.83349e-09
9.24677e-09
1.81104e-09
1.03207e-09
3.13468e-11
3.58577e-14
6.99566e-17
3.23103e-21
1.01079e-24
7.98519e-16
1.50525e-11
2.84622e-10
1.39202e-09
8.97715e-10
1.1123e-10
3.45302e-12
6.6997e-15
2.06834e-18
1.67036e-22
1.45354e-26
1.83908e-30
2.92085e-34
6.20478e-38
1.39084e-41
3.78738e-45
1.22498e-48
4.42742e-52
1.79588e-55
9.73663e-59
4.35318e-62
1.91558e-65
1.06889e-68
4.55404e-72
1.52391e-75
4.88793e-79
1.6114e-82
4.18312e-86
5.80565e-90
1.13444e-93
1.03665e-96
1.72748e-97
1.12042e-99
5.24385e-102
1.23396e-104
3.43198e-107
6.05237e-110
1.2563e-112
2.6534e-115
6.01397e-118
1.06323e-120
2.15531e-123
3.86505e-126
1.02343e-128
2.77059e-131
9.35184e-134
3.00523e-136
9.95717e-139
3.17385e-141
1.03834e-143
3.15705e-146
1.0401e-148
3.03449e-151
9.95653e-154
2.85657e-156
9.05832e-159
2.59758e-161
8.0184e-164
2.37385e-166
7.44582e-169
9.90306e-176
8.96414e-178
9.62009e-182
9.09711e-186
5.77709e-190
3.11901e-194
7.49535e-198
1.21681e-200
2.40622e-203
4.55032e-206
8.61453e-209
1.55845e-211
2.82772e-214
4.89161e-217
8.45187e-220
1.39426e-222
2.29971e-225
3.66508e-228
5.85028e-231
9.07589e-234
1.40384e-236
2.1139e-239
3.17696e-242
4.69054e-245
6.84183e-248
9.75859e-251
1.35817e-253
1.78865e-256
2.02694e-259
9.2519e-263
8.35672e-280
2.92007e-280
7.2892e-283
1.05833e-285
1.15431e-288
1.05856e-291
8.61265e-295
6.32824e-298
4.35961e-301
2.79951e-304
1.72888e-307
1.01234e-310
5.77631e-314
3.16294e-317
1.69119e-320
9.88131e-324
0
0
0
0
0
0
0
0
0
0
0
0
0
0
0
0
0
0
0
0
0
0
0
0
0
0
0
0
0
0
0
0
0
0
0
0
0
0
0
0
0
0
0
0
0
0
0
0
0
0
0
0
0
0
0
0
0
0
0
0
0
0
0
0
0
0
0
0
0
0
0
0
0
0
0
0
0
0
0
0
0
0
0
0
0
0
0
0
0
0
0
0
0
0
0
0
0
0
0
0
0
0
0
0
0
0
0
0
0
0
0
0
0
0
0
0
0
0
0
0
0
0
0
0
0
0
0
0
0
0
0
0
0
0
0
0
0
0
0
0
0
0
0
0
0
0
0
0
0
0
0
0
0
0
0
0
0
0
0
0
0
0
0
0
0
0
0
0
0
0
0
0
0
0
0
0
0
0
0
0
0
0
0
0
0
0
0
0
0
0
0
0
0
0
0
0
0
0
0
0
0
0
0
0
0
0
0
0
0
0
0
0
0
0
0
0
0
0
0
0
0
0
0
0
0
0
0
0
0
0
0
0
0
0
0
0
0
0
0
0
0
0
0
0
0
0
0
0
0
0
0
0
0
0
0.000156728
0.000164813
0.000163548
0.000112723
3.73519e-05
5.55949e-06
1.95562e-06
8.2574e-07
2.01616e-07
1.8336e-08
3.09509e-09
1.02977e-11
6.83139e-16
1.18585e-20
8.07252e-12
6.88562e-09
1.09956e-07
5.55676e-07
4.89966e-07
6.96956e-08
2.14026e-09
5.08593e-12
9.63698e-15
1.22881e-17
4.16598e-21
6.42969e-25
1.25459e-28
3.29921e-32
9.07142e-36
2.80855e-39
9.50916e-43
3.91351e-46
1.65187e-49
7.6629e-53
3.60282e-56
1.72178e-59
8.25477e-63
3.70173e-66
1.25357e-69
4.85476e-73
1.06596e-76
2.8032e-80
3.30554e-84
4.73155e-88
3.00218e-91
7.08557e-92
5.27179e-94
2.00586e-96
5.23242e-99
1.00881e-101
2.27287e-104
4.09626e-107
8.92656e-110
1.63621e-112
2.97023e-115
5.70444e-118
1.06895e-120
2.70933e-123
6.63081e-126
2.07718e-128
5.61365e-131
1.92441e-133
5.8511e-136
2.01077e-138
5.93389e-141
1.95997e-143
5.72718e-146
1.78934e-148
5.19506e-151
1.54837e-153
4.38131e-156
1.29674e-158
3.6084e-161
9.09603e-164
1.75636e-170
2.16529e-172
5.4036e-175
4.50216e-179
2.50714e-183
1.10626e-187
5.16596e-192
4.5116e-196
5.08329e-199
9.04815e-202
1.58173e-204
2.76407e-207
4.72127e-210
8.00192e-213
1.31002e-215
2.13718e-218
3.36232e-221
5.29313e-224
8.07157e-227
1.22405e-229
1.81826e-232
2.67498e-235
3.88478e-238
5.59178e-241
7.9066e-244
1.1017e-246
1.50925e-249
2.0145e-252
2.49877e-255
1.13212e-258
5.67676e-274
4.00647e-275
8.26108e-278
1.03072e-280
1.00023e-283
8.28711e-287
6.14627e-290
4.18915e-293
2.67159e-296
1.61412e-299
9.32385e-303
5.18183e-306
2.78864e-309
1.458e-312
7.41427e-316
3.69551e-319
1.77864e-322
0
0
0
0
0
0
0
0
0
0
0
0
0
0
0
0
0
0
0
0
0
0
0
0
0
0
0
0
0
0
0
0
0
0
0
0
0
0
0
0
0
0
0
0
0
0
0
0
0
0
0
0
0
0
0
0
0
0
0
0
0
0
0
0
0
0
0
0
0
0
0
0
0
0
0
0
0
0
0
0
0
0
0
0
0
0
0
0
0
0
0
0
0
0
0
0
0
0
0
0
0
0
0
0
0
0
0
0
0
0
0
0
0
0
0
0
0
0
0
0
0
0
0
0
0
0
0
0
0
0
0
0
0
0
0
0
0
0
0
0
0
0
0
0
0
0
0
0
0
0
0
0
0
0
0
0
0
0
0
0
0
0
0
0
0
0
0
0
0
0
0
0
0
0
0
0
0
0
0
0
0
0
0
0
0
0
0
0
0
0
0
0
0
0
0
0
0
0
0
0
0
0
0
0
0
0
0
0
0
0
0
0
0
0
0
0
0
0
0
0
0
0
0
0
0
0
0
0
0
0
0
0
0
0
0
0
0
0
0
0
0
0
0
0
0
0
0
0
0
0
0
0
0
0.000159141
0.00015586
0.000158205
0.000155707
0.00011946
7.0346e-05
2.40319e-05
1.28329e-05
7.30735e-06
4.23457e-06
1.04202e-06
5.01668e-08
5.42881e-11
5.09527e-16
9.82201e-09
2.43443e-07
4.92531e-07
5.66583e-07
1.12813e-06
2.83701e-06
1.19801e-06
2.63596e-09
3.85967e-12
6.22979e-15
9.22808e-18
8.23863e-21
4.37274e-24
1.83241e-27
7.7006e-31
3.65069e-34
1.6382e-37
8.36494e-41
4.20594e-44
2.67436e-47
1.47977e-50
1.01259e-53
5.32791e-57
3.03274e-60
1.25143e-63
4.35663e-67
1.3078e-70
2.57433e-74
2.74248e-78
1.47705e-82
1.32906e-86
1.46626e-87
1.48292e-89
9.8766e-92
2.96265e-94
7.74829e-97
1.71308e-99
4.10841e-102
9.47993e-105
2.20288e-107
4.57393e-110
9.77228e-113
1.86018e-115
4.16436e-118
1.11439e-120
3.59108e-123
1.09512e-125
3.77658e-128
1.21089e-130
4.14661e-133
1.32023e-135
4.36917e-138
1.35605e-140
4.25917e-143
1.27522e-145
3.83742e-148
1.09551e-150
3.10445e-153
8.27625e-156
2.29316e-158
4.27511e-165
4.14221e-167
1.24698e-169
4.39157e-172
2.24552e-176
9.08376e-181
5.76708e-185
1.51514e-189
5.61317e-194
3.74593e-197
6.12501e-200
9.98986e-203
1.64215e-205
2.62325e-208
4.17432e-211
6.50705e-214
1.0094e-216
1.53566e-219
2.28871e-222
3.37325e-225
4.88477e-228
7.03726e-231
9.94133e-234
1.39995e-236
1.95134e-239
2.71777e-242
3.73089e-245
5.01866e-248
6.52301e-251
3.92274e-254
1.25049e-267
1.32473e-269
2.11842e-272
2.22678e-275
1.88723e-278
1.39767e-281
9.41317e-285
5.89031e-288
3.48341e-291
1.96229e-294
1.06389e-297
5.56823e-301
2.8342e-304
1.40546e-307
6.81197e-311
3.23901e-314
1.51086e-317
6.93668e-321
4.94066e-324
0
0
0
0
0
0
0
0
0
0
0
0
0
0
0
0
0
0
0
0
0
0
0
0
0
0
0
0
0
0
0
0
0
0
0
0
0
0
0
0
0
0
0
0
0
0
0
0
0
0
0
0
0
0
0
0
0
0
0
0
0
0
0
0
0
0
0
0
0
0
0
0
0
0
0
0
0
0
0
0
0
0
0
0
0
0
0
0
0
0
0
0
0
0
0
0
0
0
0
0
0
0
0
0
0
0
0
0
0
0
0
0
0
0
0
0
0
0
0
0
0
0
0
0
0
0
0
0
0
0
0
0
0
0
0
0
0
0
0
0
0
0
0
0
0
0
0
0
0
0
0
0
0
0
0
0
0
0
0
0
0
0
0
0
0
0
0
0
0
0
0
0
0
0
0
0
0
0
0
0
0
0
0
0
0
0
0
0
0
0
0
0
0
0
0
0
0
0
0
0
0
0
0
0
0
0
0
0
0
0
0
0
0
0
0
0
0
0
0
0
0
0
0
0
0
0
0
0
0
0
0
0
0
0
0
0
0
0
0
0
0
0
0
0
0
0
0
0
0
0
0
0.000151788
0.000155396
0.000172599
0.000178525
0.000162954
0.000135134
9.78595e-05
5.24097e-05
3.23238e-05
3.48715e-05
8.98193e-06
3.01434e-07
2.50969e-09
1.08785e-12
1.73453e-07
2.87711e-07
5.41974e-07
2.57847e-06
6.12078e-06
7.25708e-06
1.06246e-05
1.11036e-06
1.30827e-09
1.63362e-12
2.45213e-15
3.45459e-18
3.83084e-21
3.64116e-24
3.25796e-27
2.84597e-30
2.18566e-33
1.63488e-36
1.16913e-39
8.14148e-43
5.7129e-46
4.01125e-49
2.63037e-52
1.6147e-55
8.82374e-59
3.94639e-62
1.40797e-65
2.7486e-69
2.96104e-73
1.29193e-77
3.99797e-83
8.94712e-85
5.03435e-87
6.44113e-89
6.47548e-91
3.71895e-93
1.35955e-95
3.96485e-98
1.09896e-100
2.74395e-103
6.78112e-106
1.45992e-108
2.9563e-111
5.64271e-114
1.50597e-116
4.76018e-119
1.52644e-121
5.10146e-124
1.63599e-126
5.4546e-129
1.72999e-131
5.65329e-134
1.7587e-136
5.64167e-139
1.71908e-141
5.13943e-144
1.47551e-146
4.21295e-149
1.13149e-151
3.07257e-154
6.99891e-161
5.23666e-163
1.64942e-165
5.89257e-168
2.18623e-170
8.18928e-175
1.05447e-178
2.20283e-183
3.36225e-188
6.8974e-193
2.74718e-196
4.02839e-199
6.11698e-202
9.1852e-205
1.37108e-207
2.01462e-210
2.93817e-213
4.23721e-216
6.04163e-219
8.63814e-222
1.21987e-224
1.71978e-227
2.35917e-230
3.19809e-233
4.26994e-236
5.74873e-239
7.78071e-242
1.06629e-244
1.44256e-247
1.00163e-250
2.36335e-262
4.71228e-265
5.56024e-268
4.79419e-271
3.49619e-274
2.29232e-277
1.39256e-280
7.9742e-284
4.35378e-287
2.28521e-290
1.1598e-293
5.71895e-297
2.74952e-300
1.29348e-303
5.96294e-307
2.70349e-310
1.20609e-313
5.30386e-317
2.30185e-320
9.88131e-324
0
0
0
0
0
0
0
0
0
0
0
0
0
0
0
0
0
0
0
0
0
0
0
0
0
0
0
0
0
0
0
0
0
0
0
0
0
0
0
0
0
0
0
0
0
0
0
0
0
0
0
0
0
0
0
0
0
0
0
0
0
0
0
0
0
0
0
0
0
0
0
0
0
0
0
0
0
0
0
0
0
0
0
0
0
0
0
0
0
0
0
0
0
0
0
0
0
0
0
0
0
0
0
0
0
0
0
0
0
0
0
0
0
0
0
0
0
0
0
0
0
0
0
0
0
0
0
0
0
0
0
0
0
0
0
0
0
0
0
0
0
0
0
0
0
0
0
0
0
0
0
0
0
0
0
0
0
0
0
0
0
0
0
0
0
0
0
0
0
0
0
0
0
0
0
0
0
0
0
0
0
0
0
0
0
0
0
0
0
0
0
0
0
0
0
0
0
0
0
0
0
0
0
0
0
0
0
0
0
0
0
0
0
0
0
0
0
0
0
0
0
0
0
0
0
0
0
0
0
0
0
0
0
0
0
0
0
0
0
0
0
0
0
0
0
0
0
0
0
0
0.000180371
0.000211524
0.000218671
0.00018707
0.000164086
0.000168472
0.000155522
0.000108425
8.42177e-05
8.12859e-05
3.5615e-05
7.44926e-06
3.58711e-06
1.21177e-09
1.82968e-09
6.71031e-09
2.74283e-08
5.37739e-07
4.88916e-06
2.12535e-05
5.40204e-05
0.000106187
5.00466e-05
5.10277e-06
1.99465e-08
2.34175e-11
3.94745e-14
8.25861e-17
1.54612e-19
2.38446e-22
3.38152e-25
4.59621e-28
6.21938e-31
8.42066e-34
1.10467e-36
1.4156e-39
1.72824e-42
1.96542e-45
2.03294e-48
1.95736e-51
1.63463e-54
1.12558e-57
5.73105e-61
1.88825e-64
3.41145e-68
1.98069e-72
2.31206e-75
7.51963e-78
3.96011e-80
8.03648e-83
2.17285e-85
1.50016e-87
1.10626e-89
6.58499e-92
3.37103e-94
1.6129e-96
7.29405e-99
3.19272e-101
1.33774e-103
5.33923e-106
2.11702e-108
8.09678e-111
3.04666e-113
1.11475e-115
4.06569e-118
1.43053e-120
5.09489e-123
1.75331e-125
6.11663e-128
2.05816e-130
7.00278e-133
2.26798e-135
7.35622e-138
2.29518e-140
7.08408e-143
2.16056e-145
6.40177e-148
1.87779e-150
7.25072e-153
2.82928e-155
2.35775e-157
1.21671e-159
5.37266e-162
2.22817e-164
9.08678e-167
3.53505e-169
1.23382e-172
1.93086e-177
2.29617e-182
2.21347e-187
3.83131e-192
1.41783e-195
1.72878e-198
2.13355e-201
2.75689e-204
3.56496e-207
4.6939e-210
6.13712e-213
8.22993e-216
1.08885e-218
1.46926e-221
1.94488e-224
2.59926e-227
3.4494e-230
4.64261e-233
6.31418e-236
8.6089e-239
1.168e-241
1.5581e-244
1.95558e-247
1.17668e-250
1.97448e-254
9.83006e-258
8.21424e-261
6.53247e-264
4.54556e-267
2.82049e-270
1.62713e-273
8.89011e-277
4.64952e-280
2.34434e-283
1.14568e-286
5.44904e-290
2.53068e-293
1.15075e-296
5.13562e-300
2.25374e-303
9.74334e-307
4.15553e-310
1.75058e-313
7.29167e-317
3.00491e-320
9.88131e-324
0
0
0
0
0
0
0
0
0
0
0
0
0
0
0
0
0
0
0
0
0
0
0
0
0
0
0
0
0
0
0
0
0
0
0
0
0
0
0
0
0
0
0
0
0
0
0
0
0
0
0
0
0
0
0
0
0
0
0
0
0
0
0
0
0
0
0
0
0
0
0
0
0
0
0
0
0
0
0
0
0
0
0
0
0
0
0
0
0
0
0
0
0
0
0
0
0
0
0
0
0
0
0
0
0
0
0
0
0
0
0
0
0
0
0
0
0
0
0
0
0
0
0
0
0
0
0
0
0
0
0
0
0
0
0
0
0
0
0
0
0
0
0
0
0
0
0
0
0
0
0
0
0
0
0
0
0
0
0
0
0
0
0
0
0
0
0
0
0
0
0
0
0
0
0
0
0
0
0
0
0
0
0
0
0
0
0
0
0
0
0
0
0
0
0
0
0
0
0
0
0
0
0
0
0
0
0
0
0
0
0
0
0
0
0
0
0
0
0
0
0
0
0
0
0
0
0
0
0
0
0
0
0
0
0
0
0
0
0
0
0
0
0
0
0
0
0
0
0
0
0
0
0
0
0
0
0
0
0
0
0
0
0
0
0
0
0
0.000195358
0.000177539
0.000128847
0.000104742
0.000104078
0.000132442
0.000174232
0.000173606
0.000119137
0.000116142
9.49712e-05
8.53158e-05
0.000114865
2.33688e-06
9.33548e-07
2.14426e-06
1.03815e-05
3.21642e-05
8.71076e-05
0.000113954
0.000122601
0.000116623
5.18094e-05
6.03683e-06
1.87337e-07
1.93977e-10
1.90796e-13
2.50989e-16
4.14696e-19
6.66294e-22
1.01267e-24
1.49186e-27
2.12049e-30
3.02229e-33
4.35094e-36
6.26382e-39
8.94358e-42
1.25177e-44
1.73094e-47
2.2281e-50
2.84124e-53
3.38706e-56
3.80586e-59
4.04419e-62
3.64114e-65
2.01852e-68
1.56256e-71
2.20123e-74
3.1145e-77
3.23505e-80
3.05027e-83
3.50747e-86
5.60619e-89
1.44593e-91
5.85195e-94
2.84164e-96
1.41844e-98
6.97566e-101
3.35917e-103
1.57296e-105
7.24414e-108
3.2481e-110
1.43781e-112
6.19878e-115
2.65185e-117
1.11229e-119
4.63382e-122
1.89604e-124
7.7032e-127
3.08645e-129
1.22148e-131
4.78544e-134
1.83861e-136
6.99727e-139
2.63044e-141
9.9015e-144
3.7167e-146
1.41143e-148
5.35979e-151
2.09572e-153
8.14528e-156
3.29394e-158
1.35058e-160
5.65416e-163
2.40706e-165
1.04498e-167
3.61527e-170
4.52045e-175
4.59074e-180
4.09068e-185
4.21114e-190
7.1085e-194
8.50313e-197
1.10407e-199
1.44989e-202
1.91076e-205
2.50336e-208
3.22777e-211
4.08656e-214
5.09624e-217
6.28767e-220
7.71278e-223
9.51493e-226
1.19141e-228
1.50556e-231
1.914e-234
2.44084e-237
3.13258e-240
4.04391e-243
5.15971e-246
5.91503e-249
5.88407e-252
5.28085e-255
4.09436e-258
2.69262e-261
1.59298e-264
8.79534e-268
4.60923e-271
2.31586e-274
1.1234e-277
5.289e-281
2.42648e-284
1.0883e-287
4.78394e-291
2.06543e-294
8.77409e-298
3.67341e-301
1.51779e-304
6.19713e-308
2.50318e-311
1.00116e-314
3.96784e-318
1.55631e-321
0
0
0
0
0
0
0
0
0
0
0
0
0
0
0
0
0
0
0
0
0
0
0
0
0
0
0
0
0
0
0
0
0
0
0
0
0
0
0
0
0
0
0
0
0
0
0
0
0
0
0
0
0
0
0
0
0
0
0
0
0
0
0
0
0
0
0
0
0
0
0
0
0
0
0
0
0
0
0
0
0
0
0
0
0
0
0
0
0
0
0
0
0
0
0
0
0
0
0
0
0
0
0
0
0
0
0
0
0
0
0
0
0
0
0
0
0
0
0
0
0
0
0
0
0
0
0
0
0
0
0
0
0
0
0
0
0
0
0
0
0
0
0
0
0
0
0
0
0
0
0
0
0
0
0
0
0
0
0
0
0
0
0
0
0
0
0
0
0
0
0
0
0
0
0
0
0
0
0
0
0
0
0
0
0
0
0
0
0
0
0
0
0
0
0
0
0
0
0
0
0
0
0
0
0
0
0
0
0
0
0
0
0
0
0
0
0
0
0
0
0
0
0
0
0
0
0
0
0
0
0
0
0
0
0
0
0
0
0
0
0
0
0
0
0
0
0
0
0
0
0
0
0
0
0
0
0
0
0
0
0
0
0
0
0
0
0
6.48239e-05
6.4618e-05
5.24431e-05
4.81057e-05
5.30657e-05
6.90545e-05
0.000102385
0.000144757
0.000165011
0.000143058
0.000125647
0.000126121
0.000123657
0.000125094
0.000124229
0.000116041
0.00010991
0.000108189
0.000112095
0.000112897
0.000109467
9.38376e-05
6.26997e-05
6.68092e-06
3.22411e-07
3.99022e-10
3.64564e-13
3.64002e-16
4.19591e-19
5.42365e-22
7.02617e-25
9.35827e-28
1.26151e-30
1.74258e-33
2.45725e-36
3.62803e-39
5.45168e-42
8.06425e-45
1.20826e-47
1.74579e-50
2.5872e-53
3.61938e-56
4.96651e-59
6.89279e-62
8.79462e-65
1.19479e-67
1.40702e-70
1.53889e-73
1.46506e-76
1.22723e-79
1.02798e-82
9.91991e-86
1.08111e-88
1.32645e-91
2.17457e-94
5.70572e-97
2.148e-99
9.35964e-102
4.18517e-104
1.88363e-106
8.41438e-109
3.76752e-111
1.63751e-113
7.16909e-116
3.11604e-118
1.33843e-120
5.70903e-123
2.40913e-125
1.00362e-127
4.16436e-130
1.68993e-132
6.86273e-135
2.71118e-137
1.07243e-139
4.14122e-142
1.61839e-144
6.2692e-147
2.49837e-149
9.29128e-152
3.56201e-154
1.32722e-156
5.19496e-159
2.07969e-161
8.54419e-164
3.605e-166
1.55248e-168
1.02427e-171
2.02719e-177
1.61748e-182
3.20234e-187
8.46337e-192
2.2914e-195
2.80092e-198
3.68366e-201
4.88757e-204
6.50011e-207
8.62291e-210
1.14081e-212
1.50047e-215
1.96428e-218
2.55221e-221
3.27203e-224
4.12277e-227
5.12956e-230
6.34403e-233
7.79867e-236
9.52726e-239
1.16553e-241
1.43326e-244
1.76467e-247
2.12323e-250
2.47679e-253
2.74603e-256
2.59961e-259
1.97817e-262
1.29207e-265
7.67504e-269
4.25956e-272
2.24267e-275
1.13135e-278
5.5075e-282
2.60086e-285
1.19646e-288
5.38018e-292
2.37194e-295
1.02792e-298
4.38925e-302
1.85033e-305
7.71282e-309
3.18275e-312
1.3011e-315
5.27104e-319
2.12448e-322
0
0
0
0
0
0
0
0
0
0
0
0
0
0
0
0
0
0
0
0
0
0
0
0
0
0
0
0
0
0
0
0
0
0
0
0
0
0
0
0
0
0
0
0
0
0
0
0
0
0
0
0
0
0
0
0
0
0
0
0
0
0
0
0
0
0
0
0
0
0
0
0
0
0
0
0
0
0
0
0
0
0
0
0
0
0
0
0
0
0
0
0
0
0
0
0
0
0
0
0
0
0
0
0
0
0
0
0
0
0
0
0
0
0
0
0
0
0
0
0
0
0
0
0
0
0
0
0
0
0
0
0
0
0
0
0
0
0
0
0
0
0
0
0
0
0
0
0
0
0
0
0
0
0
0
0
0
0
0
0
0
0
0
0
0
0
0
0
0
0
0
0
0
0
0
0
0
0
0
0
0
0
0
0
0
0
0
0
0
0
0
0
0
0
0
0
0
0
0
0
0
0
0
0
0
0
0
0
0
0
0
0
0
0
0
0
0
0
0
0
0
0
0
0
0
0
0
0
0
0
0
0
0
0
0
0
0
0
0
0
0
0
0
0
0
0
0
0
0
0
0
0
0
0
0
0
0
0
0
0
0
0
0
0
0
0
0
1.71571e-05
1.9452e-05
2.236e-05
2.37134e-05
2.31714e-05
2.97386e-05
3.85347e-05
5.8487e-05
7.74951e-05
9.09972e-05
0.000106766
0.000110858
0.000109875
0.00010175
9.27067e-05
8.44003e-05
8.20358e-05
8.5449e-05
8.7232e-05
8.46743e-05
7.61492e-05
7.66144e-05
5.26506e-05
6.21657e-06
3.15861e-07
4.29343e-10
4.38257e-13
4.01002e-16
3.82031e-19
4.01891e-22
4.19869e-25
4.69082e-28
5.36822e-31
6.51269e-34
8.12473e-37
1.07197e-39
1.43385e-42
1.96512e-45
2.69887e-48
3.67053e-51
5.1813e-54
6.81382e-57
9.16933e-60
1.19962e-62
1.54468e-65
2.04277e-68
2.44416e-71
2.69583e-74
2.54867e-77
2.19926e-80
1.86311e-83
1.66404e-86
1.61495e-89
1.62759e-92
1.7592e-95
2.26234e-98
4.48135e-101
1.36991e-103
5.24806e-106
2.21048e-108
9.44555e-111
4.06966e-113
1.72768e-115
7.55055e-118
3.18863e-120
1.35552e-122
5.7071e-125
2.38599e-127
9.8277e-130
4.03144e-132
1.61939e-134
6.47755e-137
2.53451e-139
9.84762e-142
3.78207e-144
1.4502e-146
5.53181e-149
2.15471e-151
8.16401e-154
3.19053e-156
1.22452e-158
4.91473e-161
2.01336e-163
8.47773e-166
3.66151e-168
1.21395e-170
1.48423e-175
1.44788e-180
1.25251e-185
1.20798e-190
8.90956e-195
1.01536e-197
1.39089e-200
1.93037e-203
2.68456e-206
3.73995e-209
5.17686e-212
7.15718e-215
9.76337e-218
1.32248e-220
1.7654e-223
2.33083e-226
3.02852e-229
3.90415e-232
4.99807e-235
6.36158e-238
8.06252e-241
1.0226e-243
1.29927e-246
1.64566e-249
2.04693e-252
2.51092e-255
2.97344e-258
3.06216e-261
2.53641e-264
1.74629e-267
1.07845e-270
6.18217e-274
3.35109e-277
1.7374e-280
8.68267e-284
4.20579e-287
1.98282e-290
9.12797e-294
4.11369e-297
1.81878e-300
7.90328e-304
3.38031e-307
1.42488e-310
5.92555e-314
2.43313e-317
9.87143e-321
4.94066e-324
0
0
0
0
0
0
0
0
0
0
0
0
0
0
0
0
0
0
0
0
0
0
0
0
0
0
0
0
0
0
0
0
0
0
0
0
0
0
0
0
0
0
0
0
0
0
0
0
0
0
0
0
0
0
0
0
0
0
0
0
0
0
0
0
0
0
0
0
0
0
0
0
0
0
0
0
0
0
0
0
0
0
0
0
0
0
0
0
0
0
0
0
0
0
0
0
0
0
0
0
0
0
0
0
0
0
0
0
0
0
0
0
0
0
0
0
0
0
0
0
0
0
0
0
0
0
0
0
0
0
0
0
0
0
0
0
0
0
0
0
0
0
0
0
0
0
0
0
0
0
0
0
0
0
0
0
0
0
0
0
0
0
0
0
0
0
0
0
0
0
0
0
0
0
0
0
0
0
0
0
0
0
0
0
0
0
0
0
0
0
0
0
0
0
0
0
0
0
0
0
0
0
0
0
0
0
0
0
0
0
0
0
0
0
0
0
0
0
0
0
0
0
0
0
0
0
0
0
0
0
0
0
0
0
0
0
0
0
0
0
0
0
0
0
0
0
0
0
0
0
0
0
0
0
0
0
0
0
0
0
0
0
0
0
0
0
0
1.38077e-05
1.46714e-05
1.60609e-05
1.69942e-05
1.77844e-05
1.82197e-05
2.11511e-05
2.53464e-05
3.43454e-05
4.49426e-05
5.87473e-05
7.33157e-05
7.46867e-05
7.57601e-05
6.17981e-05
5.91871e-05
6.08138e-05
5.99669e-05
6.40827e-05
6.23135e-05
6.02786e-05
5.25719e-05
2.18968e-05
2.58679e-06
1.00722e-07
9.70076e-11
8.38501e-14
7.15868e-17
6.61576e-20
6.42702e-23
6.5672e-26
6.58489e-29
6.7824e-32
7.26795e-35
8.37415e-38
1.0246e-40
1.28629e-43
1.66756e-46
2.11211e-49
2.73785e-52
3.37615e-55
4.21872e-58
5.17865e-61
6.24198e-64
7.23862e-67
8.28748e-70
8.98784e-73
9.44079e-76
9.02115e-79
8.33362e-82
7.47784e-85
6.82957e-88
6.33029e-91
5.88865e-94
5.51607e-97
5.32518e-100
6.18183e-103
1.11186e-105
3.3796e-108
1.29736e-110
5.37919e-113
2.25592e-115
9.51641e-118
3.96328e-120
1.65662e-122
6.92322e-125
2.84287e-127
1.17019e-129
4.70781e-132
1.89616e-134
7.4731e-137
2.92693e-139
1.1292e-141
4.31658e-144
1.64444e-146
6.2783e-149
2.393e-151
9.28887e-154
3.5872e-156
1.42043e-158
5.65455e-161
2.31281e-163
9.7409e-166
4.17699e-168
1.61739e-170
3.38201e-175
4.9829e-180
5.85951e-185
6.31603e-190
1.76715e-194
1.49145e-197
2.11878e-200
3.04267e-203
4.42355e-206
6.41685e-209
9.30437e-212
1.33672e-214
1.91429e-217
2.71042e-220
3.81007e-223
5.2994e-226
7.28956e-229
9.84315e-232
1.31041e-234
1.72692e-237
2.26831e-240
2.97259e-243
3.89614e-246
5.08132e-249
6.53714e-252
8.29061e-255
1.05389e-257
1.30773e-260
1.45844e-263
1.34658e-266
1.01139e-269
6.54656e-273
3.8739e-276
2.15182e-279
1.13868e-282
5.79406e-286
2.85337e-289
1.36621e-292
6.38214e-296
2.91655e-299
1.30663e-302
5.74891e-306
2.48759e-309
1.05992e-312
4.45189e-316
1.84484e-319
7.41098e-323
0
0
0
0
0
0
0
0
0
0
0
0
0
0
0
0
0
0
0
0
0
0
0
0
0
0
0
0
0
0
0
0
0
0
0
0
0
0
0
0
0
0
0
0
0
0
0
0
0
0
0
0
0
0
0
0
0
0
0
0
0
0
0
0
0
0
0
0
0
0
0
0
0
0
0
0
0
0
0
0
0
0
0
0
0
0
0
0
0
0
0
0
0
0
0
0
0
0
0
0
0
0
0
0
0
0
0
0
0
0
0
0
0
0
0
0
0
0
0
0
0
0
0
0
0
0
0
0
0
0
0
0
0
0
0
0
0
0
0
0
0
0
0
0
0
0
0
0
0
0
0
0
0
0
0
0
0
0
0
0
0
0
0
0
0
0
0
0
0
0
0
0
0
0
0
0
0
0
0
0
0
0
0
0
0
0
0
0
0
0
0
0
0
0
0
0
0
0
0
0
0
0
0
0
0
0
0
0
0
0
0
0
0
0
0
0
0
0
0
0
0
0
0
0
0
0
0
0
0
0
0
0
0
0
0
0
0
0
0
0
0
0
0
0
0
0
0
0
0
0
0
0
0
0
0
0
0
0
0
0
0
0
0
0
0
0
0
0
1.45972e-05
1.47633e-05
1.5818e-05
1.61489e-05
1.62213e-05
1.60931e-05
1.5656e-05
1.55101e-05
1.63241e-05
1.77653e-05
2.22876e-05
2.63566e-05
2.93666e-05
2.98976e-05
3.11258e-05
3.58658e-05
3.8795e-05
4.09483e-05
3.83187e-05
3.75785e-05
3.67917e-05
3.22635e-05
5.29136e-06
5.95185e-07
1.09615e-09
1.62338e-12
1.88983e-15
1.79964e-18
1.60953e-21
1.30594e-24
1.13569e-27
1.01354e-30
9.73313e-34
9.83367e-37
1.05502e-39
1.18823e-42
1.38156e-45
1.6371e-48
1.92847e-51
2.2785e-54
2.60736e-57
2.95889e-60
3.35889e-63
3.67451e-66
4.02314e-69
4.25779e-72
4.39254e-75
4.5604e-78
4.44783e-81
4.39465e-84
4.16762e-87
3.95826e-90
3.68554e-93
3.42854e-96
3.1773e-99
3.1261e-102
3.80997e-105
7.62491e-108
2.42731e-110
9.34114e-113
3.80076e-115
1.5517e-117
6.40202e-120
2.61463e-122
1.06852e-124
4.32896e-127
1.73953e-129
6.96024e-132
2.73995e-134
1.07684e-136
4.14568e-139
1.59452e-141
6.01094e-144
2.28758e-146
8.59613e-149
3.29026e-151
1.25541e-153
4.90781e-156
1.93283e-158
7.79238e-161
3.19879e-163
1.34096e-165
5.78668e-168
2.35691e-170
6.20827e-175
1.23271e-179
1.91242e-184
2.50789e-189
4.42555e-194
1.99693e-197
2.93064e-200
4.38646e-203
6.61736e-206
1.00675e-208
1.53363e-211
2.33604e-214
3.52443e-217
5.2882e-220
7.82775e-223
1.14436e-225
1.64914e-228
2.35194e-231
3.31774e-234
4.61416e-237
6.33041e-240
8.60801e-243
1.16563e-245
1.57583e-248
2.12067e-251
2.82181e-254
3.69141e-257
4.8086e-260
6.09618e-263
7.03795e-266
6.90548e-269
5.51235e-272
3.68946e-275
2.23145e-278
1.26064e-281
6.76815e-285
3.48961e-288
1.73987e-291
8.42983e-295
3.9833e-298
1.84073e-301
8.33688e-305
3.70737e-308
1.62107e-311
6.97829e-315
2.96055e-318
1.2401e-321
0
0
0
0
0
0
0
0
0
0
0
0
0
0
0
0
0
0
0
0
0
0
0
0
0
0
0
0
0
0
0
0
0
0
0
0
0
0
0
0
0
0
0
0
0
0
0
0
0
0
0
0
0
0
0
0
0
0
0
0
0
0
0
0
0
0
0
0
0
0
0
0
0
0
0
0
0
0
0
0
0
0
0
0
0
0
0
0
0
0
0
0
0
0
0
0
0
0
0
0
0
0
0
0
0
0
0
0
0
0
0
0
0
0
0
0
0
0
0
0
0
0
0
0
0
0
0
0
0
0
0
0
0
0
0
0
0
0
0
0
0
0
0
0
0
0
0
0
0
0
0
0
0
0
0
0
0
0
0
0
0
0
0
0
0
0
0
0
0
0
0
0
0
0
0
0
0
0
0
0
0
0
0
0
0
0
0
0
0
0
0
0
0
0
0
0
0
0
0
0
0
0
0
0
0
0
0
0
0
0
0
0
0
0
0
0
0
0
0
0
0
0
0
0
0
0
0
0
0
0
0
0
0