/*--------------------------------*- C++ -*----------------------------------*\
| =========                 |                                                 |
| \\      /  F ield         | OpenFOAM: The Open Source CFD Toolbox           |
|  \\    /   O peration     | Version:  2.1.1                                 |
|   \\  /    A nd           | Web:      www.OpenFOAM.org                      |
|    \\/     M anipulation  |                                                 |
\*---------------------------------------------------------------------------*/
FoamFile
{
    version     2.0;
    format      ascii;
    class       volScalarField;
    location    "0.001100000";
    object      O2;
}
// * * * * * * * * * * * * * * * * * * * * * * * * * * * * * * * * * * * * * //

dimensions      [0 0 0 0 0 0 0];

internalField   nonuniform List<scalar> 
12384
(
0.218825
0.222831
0.225704
0.226494
0.226467
0.226533
0.22656
0.226465
0.22628
0.226218
0.226187
0.226168
0.226155
0.226207
0.22662
0.226879
0.226967
0.226984
0.226984
0.226941
0.226878
0.226796
0.22671
0.226616
0.22652
0.226428
0.22634
0.226273
0.226229
0.226196
0.22618
0.226178
0.22617
0.226185
0.22617
0.22618
0.226173
0.226176
0.226176
0.226174
0.226175
0.226173
0.226174
0.226175
0.226193
0.226198
0.226192
0.226188
0.22618
0.226179
0.226176
0.226179
0.226176
0.226179
0.226176
0.226179
0.226176
0.226179
0.226177
0.226179
0.226177
0.226178
0.226178
0.226178
0.226178
0.226178
0.226178
0.226178
0.226178
0.226178
0.226178
0.226178
0.226178
0.226176
0.226176
0.226178
0.226178
0.226178
0.226178
0.226179
0.226179
0.226179
0.226179
0.226179
0.226179
0.226179
0.22618
0.22618
0.22618
0.22618
0.22618
0.22618
0.22618
0.22618
0.22618
0.22618
0.22618
0.22618
0.22618
0.226179
0.226179
0.226179
0.226179
0.226176
0.226176
0.226179
0.226179
0.226179
0.226179
0.22618
0.22618
0.22618
0.22618
0.22618
0.22618
0.22618
0.226181
0.226181
0.226181
0.226181
0.226181
0.226181
0.22618
0.22618
0.22618
0.22618
0.22618
0.22618
0.22618
0.226179
0.226179
0.226179
0.226179
0.226176
0.226176
0.226179
0.226179
0.226179
0.226179
0.22618
0.22618
0.22618
0.22618
0.22618
0.22618
0.22618
0.226181
0.226181
0.226181
0.226181
0.226181
0.226181
0.22618
0.22618
0.22618
0.22618
0.22618
0.22618
0.22618
0.226179
0.226179
0.226179
0.226179
0.226176
0.226176
0.226179
0.226179
0.226179
0.226179
0.22618
0.22618
0.22618
0.22618
0.22618
0.22618
0.22618
0.226181
0.226181
0.226181
0.226181
0.226181
0.226181
0.22618
0.22618
0.22618
0.22618
0.22618
0.22618
0.22618
0.226179
0.226179
0.226179
0.226179
0.226176
0.226176
0.226179
0.226179
0.226179
0.226179
0.22618
0.22618
0.22618
0.22618
0.22618
0.22618
0.22618
0.226181
0.226181
0.226181
0.226181
0.226181
0.226181
0.22618
0.22618
0.22618
0.22618
0.22618
0.22618
0.22618
0.226179
0.226179
0.226179
0.226179
0.226176
0.226176
0.226179
0.226179
0.226179
0.226179
0.22618
0.22618
0.22618
0.22618
0.22618
0.22618
0.22618
0.226181
0.226181
0.226181
0.226181
0.226181
0.226181
0.22618
0.22618
0.22618
0.22618
0.22618
0.22618
0.22618
0.226179
0.226179
0.226179
0.226179
0.226176
0.226176
0.226179
0.226179
0.226179
0.226179
0.22618
0.22618
0.22618
0.22618
0.22618
0.22618
0.22618
0.226181
0.226181
0.226181
0.226181
0.226181
0.226181
0.22618
0.22618
0.22618
0.22618
0.22618
0.22618
0.22618
0.226179
0.226179
0.226179
0.226179
0.226176
0.226176
0.226179
0.226179
0.226179
0.226179
0.22618
0.22618
0.22618
0.22618
0.22618
0.22618
0.22618
0.226181
0.226181
0.226181
0.226181
0.226181
0.226181
0.22618
0.22618
0.22618
0.22618
0.22618
0.22618
0.22618
0.226179
0.226179
0.226179
0.226179
0.226176
0.226176
0.226179
0.226179
0.226179
0.226179
0.22618
0.22618
0.22618
0.22618
0.22618
0.22618
0.22618
0.226181
0.226181
0.226181
0.226181
0.226181
0.226181
0.22618
0.22618
0.22618
0.22618
0.22618
0.22618
0.22618
0.226179
0.226179
0.226179
0.226179
0.226176
0.226176
0.226179
0.226179
0.226179
0.22618
0.22618
0.22618
0.22618
0.22618
0.22618
0.22618
0.22618
0.226181
0.226181
0.226181
0.226181
0.226181
0.226181
0.22618
0.22618
0.22618
0.22618
0.22618
0.22618
0.22618
0.226179
0.226179
0.226179
0.226179
0.226176
0.201504
0.209794
0.222434
0.227939
0.228517
0.228939
0.229118
0.228822
0.228582
0.227896
0.227209
0.226885
0.226683
0.226566
0.229532
0.230008
0.230051
0.230023
0.230028
0.230014
0.22999
0.229902
0.229799
0.229628
0.22947
0.22927
0.228993
0.228768
0.228451
0.228188
0.227874
0.227566
0.227291
0.226997
0.226828
0.226646
0.226562
0.226451
0.226402
0.226334
0.226313
0.226289
0.226287
0.226248
0.228108
0.228161
0.228076
0.22799
0.227859
0.227733
0.227566
0.227429
0.227279
0.227165
0.227047
0.226955
0.226865
0.226787
0.226729
0.226664
0.226625
0.226576
0.22654
0.226521
0.226482
0.226479
0.22644
0.226438
0.226409
0.226398
0.226392
0.226379
0.226383
0.226266
0.22639
0.226503
0.226501
0.226496
0.226486
0.226478
0.226476
0.22647
0.226473
0.226468
0.226474
0.226469
0.226481
0.226484
0.226497
0.22649
0.226489
0.226475
0.226475
0.226467
0.226468
0.22646
0.22646
0.226453
0.226451
0.226444
0.226442
0.226438
0.22643
0.226274
0.226271
0.226432
0.226436
0.226443
0.226445
0.226449
0.226457
0.226461
0.226469
0.226472
0.226479
0.226482
0.226494
0.226506
0.22651
0.226512
0.226503
0.226493
0.226482
0.22648
0.226473
0.22647
0.226462
0.226458
0.22645
0.226446
0.226443
0.226436
0.226432
0.226271
0.226271
0.226431
0.226435
0.226443
0.226445
0.226452
0.226455
0.226463
0.226466
0.226474
0.226477
0.226485
0.226494
0.226504
0.226513
0.22651
0.226504
0.226491
0.226485
0.226477
0.226476
0.226468
0.226466
0.226457
0.226454
0.226446
0.226443
0.226438
0.226431
0.226273
0.226271
0.226432
0.226436
0.226443
0.226446
0.22645
0.226459
0.226462
0.226471
0.226473
0.22648
0.226483
0.226493
0.226501
0.226511
0.226511
0.226508
0.226494
0.226485
0.226476
0.226472
0.226463
0.226461
0.226453
0.22645
0.226443
0.226441
0.226435
0.226431
0.226271
0.226271
0.226432
0.226438
0.226442
0.226449
0.226452
0.226461
0.226463
0.226471
0.226473
0.22648
0.226482
0.226494
0.226503
0.226512
0.226511
0.226505
0.226492
0.226485
0.226478
0.226476
0.226468
0.226466
0.226457
0.226454
0.226446
0.226443
0.226439
0.226431
0.226273
0.226272
0.226429
0.226438
0.226441
0.226448
0.226451
0.226459
0.226462
0.22647
0.226472
0.226479
0.226481
0.226493
0.226503
0.226512
0.226511
0.226505
0.226492
0.226486
0.226478
0.226476
0.226468
0.226466
0.226457
0.226454
0.226446
0.226443
0.226438
0.226431
0.226273
0.226273
0.226431
0.226437
0.226444
0.226447
0.226455
0.226458
0.226466
0.226468
0.226476
0.226477
0.226484
0.22649
0.226503
0.226508
0.226513
0.226506
0.226496
0.226482
0.226476
0.226472
0.226465
0.226462
0.226454
0.226451
0.226443
0.226442
0.226434
0.226431
0.226271
0.226273
0.22643
0.226438
0.226442
0.226449
0.226452
0.22646
0.226463
0.22647
0.226472
0.226479
0.226481
0.226493
0.226502
0.226512
0.226511
0.226506
0.226493
0.226486
0.226478
0.226476
0.226468
0.226465
0.226457
0.226453
0.226446
0.226442
0.226438
0.226431
0.226273
0.226271
0.226432
0.226437
0.226442
0.226447
0.226451
0.226459
0.226463
0.226471
0.226473
0.226481
0.226483
0.226495
0.226503
0.226512
0.226512
0.226504
0.226494
0.226483
0.22648
0.226473
0.226471
0.226463
0.22646
0.226451
0.226448
0.226442
0.226438
0.226432
0.226271
0.226273
0.22643
0.226439
0.226442
0.22645
0.226453
0.226462
0.226464
0.226472
0.226473
0.22648
0.226481
0.226492
0.2265
0.226511
0.226511
0.226507
0.226494
0.226486
0.226478
0.226477
0.226469
0.226466
0.226458
0.226454
0.226447
0.226442
0.226438
0.22643
0.226273
0.199467
0.201058
0.216109
0.224037
0.228786
0.23012
0.230643
0.230655
0.23073
0.230596
0.23048
0.22999
0.229498
0.22903
0.230932
0.230628
0.230425
0.230311
0.230293
0.230412
0.230572
0.230728
0.230825
0.230905
0.230948
0.230992
0.231024
0.231052
0.231058
0.23109
0.23107
0.231088
0.231069
0.231053
0.230987
0.230909
0.230816
0.230681
0.230566
0.230354
0.230137
0.229964
0.229813
0.229697
0.231106
0.231075
0.231065
0.231054
0.231064
0.231058
0.231063
0.23105
0.231056
0.231044
0.231044
0.23104
0.231035
0.231034
0.23103
0.231023
0.231032
0.231021
0.231033
0.23102
0.231028
0.231019
0.231022
0.231017
0.231014
0.231008
0.231001
0.230991
0.230986
0.231073
0.231134
0.23103
0.231021
0.23102
0.231014
0.231012
0.231006
0.231002
0.230996
0.230992
0.230987
0.230984
0.230975
0.230968
0.230959
0.230959
0.230964
0.23097
0.230973
0.230974
0.230976
0.230977
0.23098
0.230982
0.230986
0.230988
0.23099
0.230993
0.230998
0.231131
0.231132
0.230998
0.230993
0.230989
0.230987
0.230985
0.23098
0.230976
0.230972
0.230969
0.230965
0.230962
0.230954
0.230944
0.230942
0.23094
0.230946
0.230955
0.230962
0.230965
0.230968
0.230971
0.230975
0.230979
0.230984
0.230987
0.230989
0.230993
0.230998
0.231132
0.231132
0.230999
0.230993
0.230989
0.230987
0.230983
0.23098
0.230976
0.230973
0.230969
0.230966
0.230961
0.230953
0.230945
0.23094
0.23094
0.230946
0.230955
0.230961
0.230965
0.230967
0.230971
0.230974
0.230978
0.230982
0.230986
0.230989
0.230992
0.230998
0.231132
0.231132
0.230998
0.230993
0.230989
0.230987
0.230984
0.230979
0.230975
0.230971
0.230968
0.230965
0.230961
0.230955
0.230947
0.230941
0.23094
0.230944
0.230953
0.230961
0.230966
0.23097
0.230975
0.230978
0.230981
0.230985
0.230988
0.230991
0.230994
0.231
0.231132
0.231131
0.230998
0.230993
0.230989
0.230985
0.230982
0.230978
0.230974
0.230971
0.230968
0.230965
0.230962
0.230954
0.230946
0.23094
0.23094
0.230945
0.230954
0.230961
0.230965
0.230967
0.230971
0.230974
0.230978
0.230982
0.230986
0.230989
0.230992
0.230998
0.231132
0.231132
0.230999
0.230993
0.230989
0.230986
0.230983
0.230979
0.230975
0.230972
0.230969
0.230966
0.230962
0.230955
0.230946
0.23094
0.23094
0.230946
0.230954
0.230961
0.230965
0.230967
0.230971
0.230974
0.230978
0.230982
0.230986
0.230989
0.230992
0.230998
0.231132
0.231132
0.230998
0.230993
0.230988
0.230986
0.230982
0.230978
0.230974
0.230971
0.230968
0.230966
0.230962
0.230956
0.230948
0.230942
0.230939
0.230943
0.230952
0.230962
0.230967
0.230969
0.230973
0.230977
0.230981
0.230984
0.230988
0.23099
0.230994
0.230999
0.231132
0.231131
0.230998
0.230993
0.230989
0.230986
0.230982
0.230978
0.230975
0.230971
0.230969
0.230966
0.230962
0.230955
0.230947
0.23094
0.230939
0.230945
0.230954
0.230961
0.230965
0.230967
0.230971
0.230975
0.230979
0.230983
0.230986
0.230989
0.230992
0.230998
0.231132
0.231132
0.230997
0.230993
0.23099
0.230986
0.230983
0.230978
0.230975
0.230971
0.230968
0.230965
0.230961
0.230954
0.230946
0.230939
0.23094
0.230945
0.230954
0.230961
0.230965
0.230968
0.230971
0.230975
0.230978
0.230983
0.230986
0.230989
0.230992
0.230997
0.231131
0.231131
0.230998
0.230992
0.230988
0.230985
0.230981
0.230977
0.230974
0.230971
0.230968
0.230965
0.230962
0.230956
0.230948
0.230941
0.230939
0.230944
0.230953
0.23096
0.230964
0.230967
0.230971
0.230974
0.230978
0.230982
0.230986
0.230989
0.230992
0.230997
0.231132
0.136006
0.118161
0.130462
0.141743
0.201913
0.215234
0.221553
0.228574
0.230338
0.230677
0.230799
0.231011
0.230796
0.230552
0.230133
0.228795
0.227935
0.227317
0.227143
0.227355
0.228009
0.22872
0.229336
0.229743
0.230022
0.230207
0.230375
0.230479
0.230591
0.230655
0.230729
0.230785
0.230826
0.230882
0.230897
0.230947
0.230931
0.230963
0.230954
0.230969
0.230961
0.23097
0.230941
0.230981
0.230655
0.23061
0.230644
0.23069
0.230719
0.230757
0.230786
0.230819
0.230841
0.230864
0.23088
0.230894
0.230905
0.230915
0.230921
0.23093
0.230932
0.23094
0.230939
0.230946
0.230946
0.230948
0.230953
0.230951
0.230956
0.230956
0.230957
0.230959
0.23096
0.230981
0.230959
0.230944
0.230945
0.230945
0.230948
0.230948
0.23095
0.23095
0.230952
0.230952
0.230953
0.230952
0.230953
0.230952
0.230953
0.230952
0.230953
0.230952
0.230953
0.230952
0.230952
0.230952
0.230952
0.230952
0.230952
0.230951
0.230951
0.230952
0.230952
0.230976
0.230976
0.230952
0.230951
0.230951
0.230951
0.230951
0.230951
0.230951
0.230951
0.230951
0.230951
0.230951
0.230951
0.230951
0.230951
0.230951
0.230951
0.230951
0.230951
0.230951
0.230951
0.230951
0.230951
0.230951
0.230951
0.230951
0.230951
0.230951
0.230952
0.230976
0.230976
0.230952
0.230951
0.230951
0.230951
0.230951
0.230951
0.230951
0.230951
0.230951
0.230951
0.230951
0.230951
0.230951
0.230951
0.230951
0.230951
0.230951
0.230951
0.230951
0.230951
0.230951
0.230951
0.230951
0.230951
0.230951
0.230951
0.230952
0.230953
0.230976
0.230976
0.230952
0.230951
0.230951
0.230951
0.230951
0.230951
0.230951
0.230951
0.230951
0.230951
0.230951
0.230951
0.230951
0.230951
0.230951
0.230951
0.230951
0.230951
0.230951
0.230951
0.230951
0.230951
0.230951
0.230951
0.230951
0.230951
0.230951
0.230952
0.230976
0.230976
0.230952
0.230951
0.230951
0.230951
0.230951
0.230951
0.230951
0.230951
0.230951
0.230951
0.230951
0.230951
0.230951
0.230951
0.230951
0.230951
0.230951
0.230951
0.230951
0.230951
0.230951
0.230951
0.230951
0.230951
0.230951
0.230951
0.230952
0.230953
0.230976
0.230976
0.230952
0.230952
0.230951
0.230951
0.230951
0.230951
0.230951
0.230951
0.230951
0.230951
0.230951
0.230951
0.230951
0.230951
0.230951
0.230951
0.230951
0.230951
0.230951
0.230951
0.230951
0.230951
0.230951
0.230951
0.230951
0.230951
0.230952
0.230953
0.230976
0.230976
0.230952
0.230951
0.230951
0.230951
0.230951
0.230951
0.230951
0.230951
0.230951
0.230951
0.230951
0.230951
0.230951
0.230951
0.230951
0.230951
0.230951
0.230951
0.230951
0.230951
0.230951
0.230951
0.230951
0.230951
0.230951
0.230951
0.230951
0.230952
0.230976
0.230976
0.230952
0.230952
0.230951
0.230951
0.230951
0.230951
0.230951
0.230951
0.230951
0.230951
0.230951
0.230951
0.230951
0.230951
0.230951
0.230951
0.230951
0.230951
0.230951
0.230951
0.230951
0.230951
0.230951
0.230951
0.230951
0.230951
0.230952
0.230952
0.230976
0.230976
0.230952
0.230951
0.230951
0.230951
0.230951
0.230951
0.230951
0.230951
0.230951
0.230951
0.230951
0.230951
0.230951
0.230951
0.230951
0.230951
0.230951
0.230951
0.230951
0.230951
0.230951
0.230951
0.230951
0.230951
0.230951
0.230951
0.230951
0.230952
0.230976
0.230976
0.230952
0.230952
0.230951
0.230951
0.230951
0.230951
0.230951
0.230951
0.230951
0.230951
0.230951
0.230951
0.230951
0.230951
0.230951
0.230951
0.230951
0.230951
0.230951
0.230951
0.230951
0.230951
0.230951
0.230951
0.230951
0.230951
0.230951
0.230953
0.230976
0.0299391
0.0222053
0.0254072
0.0646195
0.0968217
0.111898
0.110135
0.185441
0.216175
0.228644
0.230147
0.230484
0.230782
0.230904
0.228947
0.226645
0.225806
0.225231
0.224754
0.224381
0.224448
0.225422
0.226814
0.227915
0.228624
0.229048
0.229347
0.229557
0.229732
0.229869
0.229993
0.230086
0.230171
0.230234
0.230299
0.230357
0.230413
0.230479
0.23053
0.230606
0.230666
0.230712
0.230774
0.230808
0.229807
0.229653
0.229751
0.229848
0.229955
0.230024
0.230104
0.230149
0.230206
0.230231
0.230271
0.230286
0.230313
0.230323
0.230342
0.230349
0.23036
0.230368
0.230374
0.230378
0.230387
0.230385
0.230397
0.230392
0.230405
0.230402
0.230414
0.230416
0.230424
0.230427
0.230383
0.230384
0.230387
0.230391
0.230392
0.230397
0.230397
0.230401
0.230401
0.230404
0.230403
0.230406
0.230404
0.230407
0.230405
0.230407
0.230406
0.230408
0.230407
0.230408
0.230407
0.230408
0.230407
0.230408
0.230408
0.230408
0.230408
0.230407
0.230408
0.230409
0.23041
0.230408
0.230408
0.230408
0.230408
0.230408
0.230408
0.230408
0.230408
0.230409
0.230408
0.230408
0.230408
0.230408
0.230408
0.230408
0.230408
0.230408
0.230409
0.230408
0.230409
0.230408
0.230408
0.230408
0.230408
0.230408
0.230408
0.230408
0.230408
0.23041
0.23041
0.230408
0.230408
0.230408
0.230408
0.230408
0.230408
0.230408
0.230409
0.230408
0.230408
0.230408
0.230408
0.230408
0.230408
0.230408
0.230408
0.230408
0.230408
0.230409
0.230408
0.230408
0.230407
0.230408
0.230407
0.230408
0.230408
0.230408
0.230408
0.230409
0.23041
0.230408
0.230408
0.230408
0.230408
0.230408
0.230408
0.230408
0.230408
0.230409
0.230408
0.230409
0.230408
0.230408
0.230408
0.230408
0.230407
0.230408
0.230407
0.230408
0.230407
0.230408
0.230408
0.230408
0.230408
0.230408
0.230408
0.230408
0.230408
0.23041
0.23041
0.230408
0.230408
0.230408
0.230408
0.230408
0.230408
0.230409
0.230408
0.230409
0.230408
0.230408
0.230407
0.230408
0.230407
0.230408
0.230407
0.230408
0.230408
0.230409
0.230408
0.230408
0.230407
0.230408
0.230407
0.230408
0.230408
0.230407
0.230408
0.230409
0.230409
0.230408
0.230407
0.230408
0.230407
0.230408
0.230407
0.230408
0.230408
0.230409
0.230407
0.230408
0.230407
0.230408
0.230407
0.230408
0.230407
0.230408
0.230408
0.230409
0.230408
0.230408
0.230407
0.230408
0.230407
0.230408
0.230408
0.230407
0.230408
0.230409
0.230409
0.230408
0.230408
0.230408
0.230408
0.230407
0.230408
0.230407
0.230409
0.230408
0.230409
0.230408
0.230408
0.230407
0.230408
0.230407
0.230408
0.230407
0.230408
0.230408
0.230408
0.230408
0.230408
0.230408
0.230408
0.230408
0.230408
0.230408
0.230408
0.23041
0.230409
0.230408
0.230407
0.230408
0.230407
0.230408
0.230407
0.230408
0.230408
0.230409
0.230407
0.230408
0.230407
0.230408
0.230407
0.230408
0.230407
0.230408
0.230408
0.230408
0.230408
0.230408
0.230407
0.230408
0.230407
0.230408
0.230408
0.230408
0.230408
0.230409
0.23041
0.230408
0.230408
0.230408
0.230408
0.230408
0.230408
0.230408
0.230408
0.230409
0.230407
0.230408
0.230407
0.230408
0.230407
0.230408
0.230408
0.230407
0.230408
0.230407
0.230409
0.230408
0.230409
0.230408
0.230408
0.230408
0.230408
0.230408
0.230408
0.23041
0.230409
0.230408
0.230407
0.230408
0.230407
0.230408
0.230407
0.230409
0.230407
0.230409
0.230407
0.230409
0.230407
0.230408
0.230407
0.230408
0.230407
0.230408
0.230407
0.230408
0.230407
0.230408
0.230407
0.230408
0.230407
0.230408
0.230408
0.230408
0.230408
0.230409
0.00881337
0.00812041
0.00837554
0.0129935
0.0268198
0.045476
0.0595996
0.0703748
0.084742
0.194382
0.222343
0.229499
0.230269
0.230706
0.227834
0.22588
0.225705
0.224726
0.224632
0.224222
0.223085
0.222565
0.223391
0.225054
0.226485
0.227365
0.227904
0.228262
0.228548
0.228774
0.228955
0.229121
0.229259
0.229386
0.229505
0.229615
0.229704
0.22981
0.229905
0.230008
0.230109
0.230224
0.230339
0.230442
0.228523
0.228119
0.228284
0.228572
0.228796
0.228993
0.229128
0.229249
0.229336
0.229412
0.22947
0.229519
0.229562
0.229589
0.229628
0.229641
0.229672
0.229679
0.229706
0.229707
0.229731
0.229731
0.22975
0.229754
0.229768
0.229775
0.229789
0.229796
0.229811
0.22984
0.229724
0.229716
0.229727
0.229737
0.229747
0.229753
0.229761
0.229764
0.22977
0.229771
0.229775
0.229776
0.229778
0.229778
0.22978
0.22978
0.229782
0.229781
0.229782
0.229782
0.229783
0.229783
0.229783
0.229783
0.229783
0.229783
0.229783
0.229783
0.229784
0.229811
0.229811
0.229784
0.229783
0.229783
0.229783
0.229783
0.229783
0.229783
0.229783
0.229783
0.229783
0.229783
0.229783
0.229783
0.229783
0.229783
0.229783
0.229783
0.229783
0.229783
0.229783
0.229783
0.229783
0.229783
0.229783
0.229783
0.229783
0.229783
0.229784
0.229811
0.229811
0.229784
0.229783
0.229783
0.229783
0.229783
0.229783
0.229783
0.229783
0.229783
0.229783
0.229783
0.229783
0.229783
0.229783
0.229783
0.229783
0.229783
0.229783
0.229783
0.229783
0.229783
0.229783
0.229783
0.229783
0.229783
0.229783
0.229783
0.229784
0.229811
0.229811
0.229784
0.229783
0.229783
0.229783
0.229783
0.229783
0.229783
0.229783
0.229783
0.229783
0.229783
0.229783
0.229783
0.229783
0.229783
0.229783
0.229783
0.229783
0.229783
0.229783
0.229783
0.229783
0.229783
0.229783
0.229783
0.229783
0.229783
0.229784
0.229811
0.229811
0.229784
0.229783
0.229783
0.229783
0.229783
0.229783
0.229783
0.229783
0.229783
0.229783
0.229783
0.229783
0.229783
0.229783
0.229783
0.229783
0.229783
0.229783
0.229783
0.229783
0.229783
0.229783
0.229783
0.229783
0.229783
0.229783
0.229783
0.229784
0.229811
0.229811
0.229784
0.229783
0.229783
0.229783
0.229783
0.229783
0.229783
0.229783
0.229783
0.229783
0.229783
0.229783
0.229783
0.229783
0.229783
0.229783
0.229783
0.229783
0.229783
0.229783
0.229783
0.229783
0.229783
0.229783
0.229783
0.229783
0.229783
0.229784
0.229811
0.229811
0.229784
0.229783
0.229783
0.229783
0.229783
0.229783
0.229783
0.229783
0.229783
0.229783
0.229783
0.229783
0.229783
0.229783
0.229783
0.229783
0.229783
0.229783
0.229783
0.229783
0.229783
0.229783
0.229783
0.229783
0.229783
0.229783
0.229783
0.229784
0.229811
0.229811
0.229784
0.229783
0.229783
0.229783
0.229783
0.229783
0.229783
0.229783
0.229783
0.229783
0.229783
0.229783
0.229783
0.229783
0.229783
0.229783
0.229783
0.229783
0.229783
0.229783
0.229783
0.229783
0.229783
0.229783
0.229783
0.229783
0.229783
0.229784
0.229811
0.229811
0.229784
0.229783
0.229783
0.229783
0.229783
0.229783
0.229783
0.229783
0.229783
0.229783
0.229783
0.229783
0.229783
0.229783
0.229782
0.229783
0.229783
0.229783
0.229783
0.229783
0.229783
0.229783
0.229783
0.229783
0.229783
0.229783
0.229783
0.229784
0.229811
0.229811
0.229784
0.229783
0.229783
0.229783
0.229783
0.229783
0.229783
0.229783
0.229783
0.229783
0.229783
0.229783
0.229782
0.229782
0.229782
0.229782
0.229782
0.229783
0.229783
0.229783
0.229783
0.229783
0.229783
0.229783
0.229783
0.229783
0.229783
0.229784
0.229811
0.0083437
0.00883006
0.00872874
0.00804623
0.00911685
0.0135334
0.0217885
0.0320271
0.0409046
0.0487032
0.0670312
0.210144
0.229097
0.23027
0.2268
0.225043
0.215521
0.203001
0.204155
0.216047
0.222693
0.222262
0.221324
0.222133
0.22388
0.225295
0.226124
0.226632
0.226998
0.227264
0.22753
0.227728
0.227922
0.228064
0.228229
0.228338
0.228487
0.228614
0.228784
0.228952
0.229139
0.229359
0.229609
0.229889
0.226828
0.226176
0.226253
0.226663
0.227156
0.227489
0.227745
0.227905
0.228043
0.228135
0.228215
0.22827
0.228327
0.228355
0.228401
0.228415
0.228451
0.228458
0.228487
0.228491
0.228514
0.228518
0.228536
0.228543
0.228558
0.228568
0.228587
0.228608
0.228639
0.228661
0.228462
0.228491
0.228511
0.228527
0.228538
0.228549
0.228554
0.228562
0.228564
0.22857
0.22857
0.228575
0.228575
0.228578
0.228578
0.228581
0.228581
0.228582
0.228583
0.228583
0.228584
0.228584
0.228585
0.228585
0.228586
0.228585
0.228586
0.228586
0.228585
0.228576
0.228576
0.228586
0.228586
0.228586
0.228586
0.228586
0.228586
0.228586
0.228586
0.228586
0.228586
0.228586
0.228586
0.228586
0.228586
0.228586
0.228586
0.228586
0.228586
0.228586
0.228586
0.228586
0.228586
0.228586
0.228586
0.228586
0.228586
0.228586
0.228586
0.228576
0.228576
0.228586
0.228586
0.228586
0.228586
0.228586
0.228586
0.228586
0.228586
0.228586
0.228586
0.228586
0.228586
0.228586
0.228586
0.228586
0.228586
0.228586
0.228586
0.228586
0.228586
0.228586
0.228586
0.228586
0.228586
0.228586
0.228586
0.228586
0.228586
0.228576
0.228576
0.228586
0.228586
0.228586
0.228586
0.228586
0.228586
0.228586
0.228586
0.228586
0.228586
0.228586
0.228586
0.228586
0.228586
0.228586
0.228586
0.228586
0.228586
0.228586
0.228586
0.228586
0.228586
0.228586
0.228586
0.228586
0.228586
0.228586
0.228586
0.228576
0.228576
0.228586
0.228586
0.228586
0.228586
0.228586
0.228586
0.228586
0.228586
0.228586
0.228586
0.228586
0.228586
0.228586
0.228586
0.228586
0.228586
0.228586
0.228586
0.228586
0.228586
0.228586
0.228586
0.228586
0.228586
0.228586
0.228586
0.228586
0.228586
0.228576
0.228576
0.228586
0.228586
0.228586
0.228586
0.228586
0.228586
0.228586
0.228586
0.228586
0.228586
0.228586
0.228586
0.228586
0.228586
0.228586
0.228586
0.228586
0.228586
0.228586
0.228586
0.228586
0.228586
0.228586
0.228586
0.228586
0.228586
0.228586
0.228586
0.228576
0.228576
0.228586
0.228586
0.228586
0.228586
0.228586
0.228586
0.228586
0.228586
0.228586
0.228586
0.228586
0.228586
0.228586
0.228586
0.228586
0.228586
0.228586
0.228586
0.228586
0.228586
0.228586
0.228586
0.228586
0.228586
0.228586
0.228586
0.228586
0.228586
0.228576
0.228576
0.228586
0.228586
0.228586
0.228586
0.228586
0.228586
0.228586
0.228586
0.228586
0.228586
0.228586
0.228586
0.228586
0.228586
0.228586
0.228586
0.228586
0.228586
0.228586
0.228586
0.228586
0.228586
0.228586
0.228586
0.228586
0.228586
0.228586
0.228586
0.228576
0.228576
0.228586
0.228586
0.228586
0.228586
0.228586
0.228586
0.228586
0.228586
0.228586
0.228586
0.228586
0.228586
0.228586
0.228586
0.228586
0.228586
0.228586
0.228586
0.228586
0.228586
0.228586
0.228586
0.228586
0.228586
0.228586
0.228586
0.228586
0.228586
0.228576
0.228576
0.228586
0.228586
0.228586
0.228586
0.228586
0.228586
0.228586
0.228586
0.228586
0.228586
0.228586
0.228586
0.228586
0.228586
0.228586
0.228586
0.228586
0.228586
0.228586
0.228586
0.228586
0.228586
0.228586
0.228586
0.228586
0.228586
0.228586
0.228586
0.228576
0.00905313
0.00872309
0.00639156
0.00402335
0.00187016
0.00291611
0.00548149
0.00919495
0.0165972
0.0155482
0.0370327
0.19864
0.22622
0.229797
0.222479
0.200814
0.154763
0.0555536
0.0439922
0.139773
0.204198
0.221425
0.220865
0.220332
0.221374
0.222957
0.224055
0.224735
0.225166
0.225517
0.225833
0.226098
0.226347
0.226585
0.226793
0.226999
0.227199
0.227385
0.227585
0.227819
0.228077
0.228429
0.228874
0.229349
0.225798
0.224885
0.224288
0.224531
0.225175
0.225756
0.226109
0.226383
0.226554
0.226718
0.226821
0.226928
0.227
0.227062
0.227123
0.227157
0.227209
0.22723
0.227273
0.227288
0.227323
0.227336
0.227363
0.227381
0.227405
0.227428
0.22746
0.227492
0.227542
0.227585
0.227188
0.227242
0.227297
0.227337
0.227362
0.227383
0.227397
0.227407
0.227417
0.227422
0.227428
0.227432
0.227435
0.227438
0.227439
0.227442
0.227443
0.227444
0.227445
0.227445
0.227447
0.227446
0.227448
0.227447
0.227448
0.227448
0.227449
0.227449
0.22745
0.227441
0.227441
0.22745
0.227449
0.227449
0.227448
0.227448
0.227448
0.227448
0.227448
0.227448
0.227448
0.227448
0.227448
0.227448
0.227448
0.227448
0.227448
0.227448
0.227448
0.227448
0.227448
0.227448
0.227448
0.227448
0.227448
0.227448
0.227449
0.227449
0.22745
0.227441
0.227442
0.22745
0.227449
0.227449
0.227448
0.227448
0.227448
0.227448
0.227448
0.227448
0.227447
0.227448
0.227448
0.227448
0.227448
0.227448
0.227448
0.227448
0.227448
0.227448
0.227448
0.227448
0.227448
0.227448
0.227448
0.227448
0.227449
0.227449
0.22745
0.227442
0.227441
0.22745
0.227449
0.227449
0.227448
0.227448
0.227448
0.227448
0.227448
0.227448
0.227448
0.227448
0.227448
0.227448
0.227448
0.227448
0.227448
0.227448
0.227448
0.227447
0.227447
0.227448
0.227448
0.227448
0.227448
0.227448
0.227449
0.227449
0.22745
0.227442
0.227441
0.22745
0.22745
0.227449
0.227448
0.227448
0.227448
0.227448
0.227448
0.227448
0.227448
0.227448
0.227448
0.227448
0.227448
0.227448
0.227448
0.227448
0.227448
0.227448
0.227448
0.227448
0.227448
0.227448
0.227448
0.227448
0.227449
0.227449
0.22745
0.227442
0.227441
0.22745
0.227449
0.227448
0.227448
0.227448
0.227448
0.227448
0.227448
0.227448
0.227448
0.227448
0.227448
0.227448
0.227448
0.227448
0.227448
0.227448
0.227448
0.227448
0.227448
0.227448
0.227448
0.227448
0.227448
0.227448
0.227449
0.227449
0.22745
0.227442
0.227442
0.22745
0.227449
0.227449
0.227448
0.227448
0.227448
0.227448
0.227448
0.227448
0.227448
0.227448
0.227448
0.227448
0.227448
0.227448
0.227448
0.227448
0.227447
0.227448
0.227448
0.227448
0.227448
0.227448
0.227448
0.227448
0.227449
0.22745
0.22745
0.227441
0.227442
0.22745
0.227449
0.227448
0.227448
0.227448
0.227448
0.227448
0.227448
0.227448
0.227448
0.227448
0.227448
0.227448
0.227448
0.227448
0.227448
0.227448
0.227448
0.227448
0.227448
0.227448
0.227448
0.227448
0.227448
0.227448
0.227449
0.227449
0.22745
0.227442
0.227441
0.22745
0.227449
0.227449
0.227448
0.227448
0.227448
0.227448
0.227448
0.227448
0.227448
0.227448
0.227448
0.227448
0.227448
0.227448
0.227448
0.227448
0.227448
0.227448
0.227448
0.227448
0.227448
0.227448
0.227448
0.227448
0.227448
0.227449
0.22745
0.227441
0.227441
0.22745
0.227449
0.227448
0.227448
0.227448
0.227448
0.227448
0.227448
0.227448
0.227448
0.227447
0.227448
0.227447
0.227447
0.227447
0.227448
0.227448
0.227448
0.227447
0.227448
0.227448
0.227448
0.227448
0.227448
0.227448
0.227449
0.227451
0.227453
0.227445
0.00548039
0.00209473
0.000437262
0.000122574
0.000101959
0.000242809
0.00113566
0.00237893
0.00348803
0.00371221
0.0151279
0.0403863
0.051314
0.208316
0.220603
0.219866
0.204186
0.0744532
0.0461853
0.0232417
0.00868398
0.00126535
0.130103
0.212519
0.220771
0.219515
0.219523
0.220706
0.221845
0.222598
0.223068
0.223448
0.223769
0.224053
0.224331
0.224563
0.224788
0.224994
0.225212
0.22544
0.225717
0.226018
0.226414
0.226876
0.227458
0.228251
0.227919
0.227199
0.225981
0.224316
0.222948
0.222638
0.223173
0.223778
0.224187
0.224428
0.224616
0.224761
0.224878
0.224976
0.225047
0.225117
0.225163
0.225212
0.225246
0.225282
0.225308
0.225338
0.225356
0.225384
0.225397
0.225423
0.225439
0.225471
0.225502
0.22556
0.225623
0.225696
0.225455
0.225414
0.225239
0.225295
0.225354
0.225391
0.225414
0.225434
0.225444
0.225458
0.225462
0.225473
0.225474
0.225482
0.225482
0.225488
0.225488
0.225493
0.225492
0.225496
0.225496
0.225498
0.225499
0.2255
0.225501
0.225502
0.225503
0.225503
0.225504
0.225505
0.225503
0.225454
0.225413
0.225413
0.225454
0.225503
0.225505
0.225506
0.225505
0.225505
0.225505
0.225504
0.225505
0.225505
0.225505
0.225504
0.225505
0.225504
0.225505
0.225505
0.225504
0.225505
0.225504
0.225505
0.225505
0.225505
0.225505
0.225505
0.225505
0.225505
0.225506
0.225505
0.225503
0.225454
0.225413
0.225413
0.225454
0.225503
0.225505
0.225506
0.225505
0.225505
0.225505
0.225505
0.225505
0.225505
0.225504
0.225505
0.225504
0.225504
0.225505
0.225504
0.225505
0.225504
0.225505
0.225505
0.225505
0.225505
0.225505
0.225505
0.225505
0.225505
0.225506
0.225506
0.225503
0.225454
0.225413
0.225413
0.225454
0.225503
0.225505
0.225506
0.225505
0.225505
0.225505
0.225505
0.225505
0.225505
0.225505
0.225504
0.225505
0.225504
0.225505
0.225504
0.225505
0.225504
0.225504
0.225504
0.225505
0.225504
0.225505
0.225505
0.225505
0.225505
0.225506
0.225505
0.225503
0.225454
0.225413
0.225413
0.225454
0.225503
0.225506
0.225505
0.225505
0.225505
0.225505
0.225505
0.225505
0.225505
0.225505
0.225504
0.225505
0.225504
0.225505
0.225504
0.225505
0.225504
0.225505
0.225505
0.225505
0.225505
0.225505
0.225505
0.225505
0.225505
0.225506
0.225505
0.225503
0.225454
0.225413
0.225413
0.225454
0.225503
0.225505
0.225505
0.225505
0.225505
0.225505
0.225505
0.225505
0.225505
0.225505
0.225504
0.225505
0.225504
0.225505
0.225504
0.225505
0.225504
0.225505
0.225505
0.225505
0.225505
0.225505
0.225505
0.225505
0.225505
0.225506
0.225506