/*--------------------------------*- C++ -*----------------------------------*\
| =========                 |                                                 |
| \\      /  F ield         | OpenFOAM: The Open Source CFD Toolbox           |
|  \\    /   O peration     | Version:  2.1.1                                 |
|   \\  /    A nd           | Web:      www.OpenFOAM.org                      |
|    \\/     M anipulation  |                                                 |
\*---------------------------------------------------------------------------*/
FoamFile
{
    version     2.0;
    format      ascii;
    class       volScalarField;
    location    "0.001100000";
    object      rho;
}
// * * * * * * * * * * * * * * * * * * * * * * * * * * * * * * * * * * * * * //

dimensions      [1 -3 0 0 0 0 0];

internalField   nonuniform List<scalar> 
12384
(
0.818959
0.921073
1.01184
1.04753
1.05008
1.05637
1.0618
1.06757
1.05524
1.06642
1.05993
1.07993
1.08344
1.10176
1.07685
1.10128
1.10304
1.10725
1.11618
1.11493
1.11278
1.11101
1.11093
1.11599
1.11706
1.11782
1.11474
1.11135
1.10181
1.10245
1.08947
1.06795
1.06504
1.05084
1.01972
1.03095
1.0096
1.01359
1.01006
1.01204
1.01502
1.02031
1.02077
1.02494
0.932977
0.932997
0.932764
0.932299
0.930636
0.930471
0.927968
0.928456
0.925494
0.926462
0.923081
0.924004
0.918449
0.92031
0.91167
0.915078
0.907519
0.906988
0.904265
0.904454
0.900494
0.902101
0.898324
0.899418
0.897554
0.896248
0.896908
0.895433
0.895664
0.895408
0.870865
0.870379
0.870531
0.869796
0.870042
0.869376
0.869104
0.869112
0.868424
0.868557
0.867881
0.868024
0.86754
0.867338
0.867369
0.866873
0.867062
0.866465
0.86669
0.866061
0.866195
0.865851
0.865768
0.86551
0.865606
0.865335
0.865443
0.865268
0.865333
0.865158
0.865105
0.8652
0.865212
0.865211
0.865214
0.865217
0.865218
0.865226
0.865222
0.865235
0.865228
0.865242
0.86525
0.865265
0.865266
0.865266
0.865263
0.865248
0.865241
0.865228
0.865235
0.865222
0.865226
0.865218
0.865216
0.865213
0.865211
0.865212
0.8652
0.865104
0.865105
0.865203
0.865212
0.865208
0.865215
0.865215
0.865223
0.865219
0.865231
0.86523
0.865236
0.865237
0.865253
0.865263
0.865264
0.865269
0.865257
0.865252
0.865237
0.865236
0.865229
0.865231
0.865219
0.865222
0.865212
0.865214
0.865215
0.865207
0.865209
0.865104
0.865105
0.8652
0.865213
0.865212
0.865211
0.865217
0.865216
0.865225
0.865222
0.865235
0.865228
0.86524
0.865248
0.86526
0.865264
0.86527
0.86526
0.865254
0.865236
0.865235
0.865227
0.865228
0.865216
0.865222
0.86521
0.865214
0.865207
0.865212
0.865204
0.865104
0.865104
0.8652
0.865206
0.865214
0.865206
0.86522
0.865218
0.865228
0.865223
0.865235
0.865228
0.865241
0.865248
0.865262
0.865266
0.86527
0.865258
0.865253
0.865237
0.865236
0.865229
0.865231
0.865219
0.865223
0.865215
0.865214
0.865212
0.865207
0.865208
0.865104
0.865102
0.865207
0.865204
0.865217
0.865207
0.865222
0.865218
0.865228
0.865222
0.865235
0.865228
0.86524
0.865248
0.865262
0.865266
0.86527
0.865258
0.865253
0.865237
0.865236
0.865229
0.86523
0.865218
0.865222
0.865214
0.865214
0.865214
0.865207
0.865208
0.865104
0.865102
0.865202
0.86521
0.86521
0.865215
0.865213
0.865225
0.86522
0.865232
0.86523
0.865237
0.865236
0.865252
0.865256
0.865268
0.865264
0.865264
0.865249
0.865239
0.865229
0.865229
0.86523
0.865218
0.865223
0.865214
0.865212
0.865207
0.86521
0.865199
0.865104
0.865105
0.865206
0.865205
0.865217
0.865207
0.865222
0.865218
0.865228
0.865223
0.865235
0.865228
0.865241
0.865248
0.865262
0.865266
0.865271
0.86526
0.865253
0.865234
0.865237
0.865229
0.865231
0.865219
0.865222
0.865213
0.865213
0.865211
0.865207
0.865208
0.865104
0.865105
0.865202
0.865211
0.865215
0.865207
0.865219
0.865217
0.865227
0.865225
0.865236
0.865231
0.865242
0.865247
0.865263
0.865268
0.865268
0.865264
0.86525
0.865242
0.865229
0.865235
0.865225
0.865227
0.865217
0.865219
0.865208
0.865213
0.86521
0.865201
0.865104
0.865111
0.865213
0.865211
0.865224
0.865214
0.865229
0.86522
0.865232
0.865226
0.865236
0.865228
0.865239
0.865243
0.865257
0.865255
0.865264
0.865249
0.865248
0.865233
0.865234
0.865223
0.865225
0.865212
0.865218
0.865206
0.86521
0.865207
0.865204
0.865203
0.865098
0.571261
0.670526
0.921651
1.11193
1.14354
1.16984
1.18984
1.17339
1.17354
1.14242
1.11933
1.11447
1.1219
1.11848
1.25172
1.27715
1.28858
1.29039
1.29252
1.29613
1.29536
1.2896
1.28136
1.27278
1.26791
1.26063
1.24754
1.23422
1.21661
1.19012
1.16419
1.14737
1.10268
1.09104
1.05778
1.04471
1.03654
1.02069
1.02342
1.01629
1.0189
1.02127
1.02551
1.02347
1.01469
1.01787
1.01312
1.00682
1.00185
0.993604
0.986588
0.977886
0.971814
0.964703
0.957628
0.953508
0.946957
0.941266
0.935201
0.932411
0.924528
0.924326
0.91686
0.918121
0.912482
0.911775
0.909913
0.907406
0.906867
0.905068
0.903705
0.903689
0.902661
0.89827
0.878137
0.882403
0.882141
0.882258
0.880959
0.880883
0.87998
0.879656
0.879433
0.878809
0.878947
0.878279
0.878753
0.878307
0.878936
0.878164
0.878176
0.877287
0.87717
0.876577
0.876564
0.875954
0.875966
0.875359
0.87537
0.874954
0.874821
0.874601
0.874354
0.868618
0.868486
0.874292
0.874463
0.874665
0.874804
0.874922
0.875189
0.875368
0.875612
0.875765
0.87598
0.876142
0.876548
0.87699
0.877144
0.877194
0.876889
0.876499
0.876145
0.876007
0.875798
0.875651
0.875408
0.875228
0.874955
0.874806
0.874686
0.874481
0.874296
0.868486
0.868489
0.874265
0.874454
0.874661
0.874785
0.875012
0.87517
0.875415
0.875554
0.875808
0.875944
0.876203
0.876568
0.876939
0.877212
0.877154
0.876903
0.876473
0.876209
0.875977
0.875872
0.87563
0.875491
0.875242
0.875057
0.874835
0.874683
0.874513
0.874257
0.868549
0.868486
0.874295
0.874485
0.874695
0.874805
0.874976
0.875244
0.875422
0.87567
0.87582
0.876032
0.87616
0.876507
0.876836
0.877136
0.877186
0.877028
0.876561
0.876196
0.875907
0.875719
0.875448
0.875315
0.875085
0.874931
0.874715
0.874601
0.874427
0.874239
0.868497
0.868483
0.8743
0.874514
0.87469
0.8749
0.875049
0.875313
0.875463
0.875693
0.875814
0.876013
0.87615
0.876525
0.876891
0.877204
0.877185
0.876946
0.876499
0.876215
0.875978
0.875874
0.875634
0.875497
0.875248
0.875066
0.874843
0.874688
0.874518
0.874258
0.868549
0.868524
0.874199
0.874476
0.874643
0.874856
0.875011
0.875261
0.875409
0.875638
0.875764
0.875968
0.87611
0.876495
0.876891
0.877204
0.877178
0.876942
0.87651
0.876223
0.875982
0.875876
0.875637
0.875495
0.875243
0.87506
0.87484
0.874683
0.874511
0.874253
0.868552
0.868557
0.874248
0.874495
0.874711
0.874864
0.875093
0.875264
0.875505
0.87563
0.875851
0.875946
0.876167
0.876414
0.876843
0.877099
0.877227
0.877001
0.876594
0.876117
0.87588
0.875744
0.875518
0.875357
0.875119
0.87496
0.874738
0.874621
0.874421
0.874256
0.868483
0.868561
0.874233
0.874508
0.874679
0.874891
0.87504
0.875288
0.875441
0.875666
0.875784
0.87598
0.876113
0.876476
0.876857
0.877186
0.877194
0.876972
0.876536
0.876231
0.875984
0.87587
0.875625
0.875483
0.875233
0.875048
0.874827
0.874672
0.874509
0.874252
0.868549
0.868489
0.874311
0.874509
0.874648
0.87484
0.875002
0.875269
0.875439
0.875688
0.875828
0.87604
0.876183
0.876553
0.876902
0.877208
0.877205
0.876922
0.876542
0.876161
0.876017
0.875812
0.875678
0.875438
0.875278
0.875017
0.874872
0.874676
0.87453
0.874316
0.868494
0.868555
0.874251
0.874535
0.87471
0.874945
0.875091
0.875347
0.875488
0.875713
0.875817
0.876009
0.876115
0.876442
0.876788
0.877141
0.877203
0.876989
0.876559
0.87624
0.876005
0.875889
0.875647
0.875502
0.875247
0.875065
0.874842
0.874667
0.874507
0.874248
0.868548
0.578847
0.579027
0.788085
0.983136
1.16863
1.24426
1.27383
1.29418
1.29472
1.30731
1.29559
1.29753
1.2695
1.26399
1.36052
1.34319
1.32342
1.31419
1.31887
1.33182
1.34649
1.35786
1.35915
1.35539
1.35444
1.35888
1.36524
1.37548
1.36842
1.36527
1.35595
1.35028
1.32695
1.31233
1.30249
1.27394
1.26566
1.25061
1.23408
1.22352
1.21026
1.19932
1.19265
1.19282
1.17252
1.17005
1.16971
1.16956
1.16697
1.16713
1.16406
1.16355
1.15933
1.15946
1.15396
1.15335
1.15094
1.14507
1.14406
1.1415
1.13447
1.13593
1.13006
1.12885
1.12748
1.12331
1.12473
1.12153
1.11978
1.12027
1.11715
1.11679
1.11602
1.12073
1.09491
1.0893
1.0882
1.08724
1.08723
1.08598
1.08567
1.08472
1.08378
1.08358
1.08249
1.08215
1.08149
1.08038
1.08009
1.07945
1.07982
1.07957
1.07985
1.07932
1.07956
1.07901
1.0794
1.07895
1.07933
1.07919
1.07926
1.07944
1.07963
1.08713
1.08703
1.07957
1.0793
1.0791
1.07893
1.07883
1.07856
1.07833
1.07812
1.07792
1.07776
1.07754
1.07711
1.07655
1.07643
1.07634
1.07667
1.07717
1.07754
1.07773
1.07789
1.07808
1.07829
1.07852
1.07878
1.07895
1.07907
1.07927
1.07956
1.08703
1.08703
1.07963
1.0793
1.07909
1.07894
1.07875
1.07854
1.07833
1.07814
1.07793
1.07775
1.07753
1.07705
1.07663
1.07633
1.07635
1.0767
1.07716
1.07752
1.07772
1.07787
1.07807
1.07825
1.07847
1.07871
1.0789
1.07907
1.07926
1.07954
1.08703
1.08703
1.07956
1.07927
1.07905
1.07896
1.07876
1.0785
1.07827
1.07806
1.07787
1.07771
1.07753
1.07718
1.07674
1.07643
1.07632
1.07655
1.07704
1.0775
1.07777
1.078
1.07825
1.07844
1.07863
1.07884
1.07901
1.07915
1.07933
1.07966
1.08703
1.08702
1.07954
1.07928
1.07904
1.07885
1.07867
1.07843
1.07823
1.07805
1.07788
1.07774
1.07754
1.07714
1.07666
1.07634
1.07632
1.07665
1.07713
1.07752
1.07772
1.07787
1.07806
1.07825
1.07846
1.0787
1.07889
1.07907
1.07925
1.07954
1.08703
1.08703
1.07962
1.07931
1.07907
1.07891
1.07871
1.0785
1.07829
1.07812
1.07794
1.07778
1.07758
1.07717
1.07666
1.07634
1.07633
1.07665
1.07712
1.07751
1.07771
1.07787
1.07806
1.07825
1.07846
1.07871
1.07889
1.07907
1.07926
1.07954
1.08703
1.08703
1.07957
1.07926
1.07904
1.07886
1.07867
1.07844
1.07825
1.07807
1.0779
1.07776
1.07757
1.07723
1.07677
1.07642
1.07631
1.07652
1.07703
1.07756
1.07784
1.07797
1.07818
1.07838
1.07859
1.0788
1.07899
1.07914
1.07933
1.07964
1.08703
1.08703
1.07956
1.07927
1.07904
1.07888
1.07868
1.07847
1.07826
1.07809
1.07792
1.07777
1.07758
1.0772
1.07671
1.07636
1.07631
1.07662
1.07709
1.0775
1.07771
1.07787
1.07807
1.07826
1.07848
1.07872
1.07891
1.07909
1.07926
1.07954
1.08703
1.08703
1.07953
1.07926
1.07912
1.07892
1.07873
1.07847
1.07826
1.07805
1.07787
1.0777
1.0775
1.07712
1.07667
1.07632
1.07632
1.07664
1.07713
1.07752
1.07773
1.07788
1.07807
1.07826
1.07847
1.07871
1.07889
1.07906
1.07924
1.07953
1.08702
1.08703
1.07957
1.07926
1.07902
1.07884
1.07864
1.07843
1.07822
1.07805
1.07788
1.07774
1.07757
1.07724
1.07678
1.0764
1.07628
1.07658
1.07705
1.07748
1.07767
1.07784
1.07803
1.07823
1.07845
1.07869
1.07889
1.07909
1.07926
1.07953
1.08702
0.292567
0.258676
0.280349
0.305232
0.596004
0.778618
0.921829
1.16881
1.27886
1.29799
1.33056
1.35094
1.36374
1.36007
1.32308
1.22826
1.1849
1.15403
1.14224
1.15904
1.19628
1.23904
1.27075
1.28765
1.29306
1.30104
1.31514
1.31534
1.32293
1.32665
1.32764
1.32004
1.32484
1.30306
1.30785
1.28379
1.28463
1.26682
1.26782
1.25401
1.2584
1.25276
1.25785
1.26084
1.1477
1.14767
1.14732
1.14711
1.15031
1.14816
1.1502
1.14782
1.14897
1.14526
1.14671
1.14169
1.14282
1.13912
1.13699
1.13561
1.13152
1.12908
1.12778
1.12216
1.12466
1.11909
1.11932
1.11864
1.11563
1.11674
1.11467
1.11421
1.11408
1.1144
1.08598
1.08381
1.08459
1.08413
1.0834
1.08363
1.08234
1.08254
1.08172
1.08105
1.08119
1.08017
1.08048
1.07957
1.07962
1.07933
1.07889
1.07896
1.0784
1.07843
1.07819
1.07772
1.07785
1.07739
1.07743
1.07723
1.07712
1.07709
1.07714
1.07841
1.07834
1.07701
1.07697
1.07694
1.07695
1.07695
1.07693
1.07694
1.07692
1.07693
1.07691
1.07692
1.0769
1.07691
1.0769
1.0769
1.07691
1.0769
1.07693
1.07691
1.07693
1.07692
1.07694
1.07693
1.07695
1.07695
1.07694
1.07697
1.07701
1.07834
1.07834
1.077
1.07697
1.07694
1.07696
1.07693
1.07694
1.07692
1.07694
1.07691
1.07693
1.07691
1.07692
1.07691
1.07689
1.07691
1.0769
1.07692
1.07691
1.07693
1.07691
1.07693
1.07692
1.07694
1.07693
1.07695
1.07694
1.07695
1.07703
1.07832
1.07833
1.07701
1.07696
1.07694
1.07694
1.07695
1.07693
1.07694
1.07692
1.07693
1.07691
1.07693
1.07691
1.07691
1.07689
1.07691
1.0769
1.07692
1.07691
1.07693
1.07691
1.07694
1.07692
1.07695
1.07693
1.07696
1.07694
1.07697
1.077
1.07834
1.07833
1.07701
1.07695
1.07696
1.07693
1.07695
1.07692
1.07694
1.07692
1.07693
1.07691
1.07693
1.0769
1.07692
1.07689
1.07691
1.0769
1.07692
1.07691
1.07693
1.07691
1.07693
1.07692
1.07694
1.07693
1.07695
1.07694
1.07695
1.07703
1.07832
1.07832
1.07702
1.07694
1.07696
1.07693
1.07695
1.07692
1.07694
1.07692
1.07693
1.07691
1.07693
1.0769
1.07691
1.07689
1.07691
1.0769
1.07692
1.07691
1.07693
1.07691
1.07693
1.07692
1.07694
1.07693
1.07695
1.07694
1.07695
1.07703
1.07832
1.07832
1.07701
1.07696
1.07694
1.07695
1.07693
1.07694
1.07692
1.07694
1.07691
1.07693
1.07691
1.07692
1.0769
1.07691
1.07689
1.07691
1.0769
1.07692
1.07691
1.07691
1.07693
1.07692
1.07694
1.07693
1.07695
1.07694
1.07697
1.077
1.07834
1.07832
1.07702
1.07694
1.07696
1.07693
1.07695
1.07692
1.07694
1.07691
1.07693
1.07691
1.07693
1.0769
1.07692
1.07689
1.07691
1.0769
1.07692
1.07691
1.07693
1.07691
1.07693
1.07692
1.07694
1.07693
1.07695
1.07694
1.07695
1.07703
1.07832
1.07834
1.07701
1.07696
1.07695
1.07694
1.07695
1.07693
1.07694
1.07692
1.07693
1.07691
1.07693
1.0769
1.07691
1.07689
1.0769
1.07691
1.0769
1.07693
1.07691
1.07693
1.07692
1.07694
1.07693
1.07695
1.07694
1.07696
1.07696
1.07701
1.07834
1.07833
1.07703
1.07695
1.07696
1.07694
1.07696
1.07693
1.07694
1.07692
1.07693
1.07691
1.07692
1.0769
1.07692
1.07689
1.07691
1.07689
1.07691
1.0769
1.07692
1.0769
1.07692
1.07691
1.07693
1.07692
1.07694
1.07693
1.07694
1.07702
1.07832
0.177347
0.172699
0.174559
0.198576
0.228265
0.246627
0.243805
0.455076
0.785027
1.18162
1.2731
1.30951
1.33739
1.37761
1.23927
1.11408
1.08469
1.05726
1.04661
1.02965
1.03021
1.06993
1.13343
1.18396
1.20829
1.22302
1.22325
1.2376
1.25679
1.26653
1.27158
1.2784
1.28261
1.27297
1.27212
1.25901
1.2532
1.24608
1.23672
1.2369
1.2326
1.23829
1.23737
1.24441
1.10344
1.09499
1.10016
1.1061
1.10629
1.11111
1.11023
1.11288
1.11028
1.11241
1.10853
1.11
1.10639
1.10814
1.10361
1.10222
1.10245
1.09504
1.09823
1.09094
1.09176
1.08964
1.08611
1.08764
1.08531
1.08374
1.08501
1.0827
1.08361
1.08367
1.05446
1.05577
1.05454
1.05521
1.05424
1.05377
1.05388
1.05266
1.05281
1.05194
1.05133
1.0514
1.05051
1.0507
1.04986
1.05017
1.04943
1.04963
1.04917
1.049
1.04901
1.04856
1.0486
1.04831
1.04823
1.04806
1.04803
1.04787
1.04794
1.04793
1.04787
1.04777
1.04779
1.04774
1.04777
1.04777
1.04774
1.04777
1.04773
1.04777
1.04773
1.04776
1.04773
1.04775
1.04774
1.04773
1.04776
1.04773
1.04777
1.04773
1.04777
1.04773
1.04777
1.04774
1.04777
1.04776
1.04774
1.04777
1.04776
1.04787
1.04787
1.04776
1.04778
1.04774
1.04777
1.04774
1.04777
1.04774
1.04777
1.04773
1.04776
1.04773
1.04775
1.04775
1.04773
1.04776
1.04773
1.04776
1.04773
1.04777
1.04773
1.04777
1.04773
1.04777
1.04774
1.04776
1.04774
1.04774
1.04777
1.04784
1.04787
1.04776
1.04777
1.04774
1.04775
1.04777
1.04774
1.04777
1.04773
1.04777
1.04773
1.04777
1.04773
1.04776
1.04773
1.04776
1.04773
1.04776
1.04773
1.04776
1.04773
1.04776
1.04773
1.04777
1.04774
1.04777
1.04774
1.04777
1.04776
1.04787
1.04786
1.04776
1.04776
1.04777
1.04774
1.04777
1.04774
1.04777
1.04773
1.04777
1.04773
1.04776
1.04772
1.04776
1.04772
1.04775
1.04772
1.04776
1.04773
1.04776
1.04773
1.04777
1.04773
1.04777
1.04773
1.04776
1.04774
1.04774
1.04777
1.04784
1.04784
1.04778
1.04774
1.04777
1.04774
1.04777
1.04774
1.04777
1.04773
1.04777
1.04773
1.04776
1.04772
1.04776
1.04772
1.04775
1.04772
1.04776
1.04773
1.04776
1.04773
1.04777
1.04773
1.04777
1.04773
1.04776
1.04774
1.04774
1.04777
1.04784
1.04784
1.04777
1.04776
1.04774
1.04777
1.04774
1.04777
1.04774
1.04777
1.04773
1.04777
1.04773
1.04776
1.04773
1.04776
1.04773
1.04775
1.04772
1.04775
1.04773
1.04773
1.04776
1.04773
1.04777
1.04774
1.04777
1.04774
1.04778
1.04776
1.04786
1.04784
1.04778
1.04774
1.04777
1.04774
1.04777
1.04774
1.04777
1.04773
1.04777
1.04773
1.04776
1.04772
1.04776
1.04772
1.04775
1.04772
1.04776
1.04773
1.04776
1.04773
1.04776
1.04773
1.04777
1.04773
1.04776
1.04775
1.04774
1.04777
1.04784
1.04787
1.04776
1.04776
1.04776
1.04775
1.04777
1.04774
1.04777
1.04773
1.04777
1.04773
1.04777
1.04772
1.04775
1.04773
1.04773
1.04775
1.04772
1.04776
1.04773
1.04777
1.04773
1.04777
1.04774
1.04777
1.04774
1.04776
1.04776
1.04776
1.04787
1.04785
1.04778
1.04774
1.04778
1.04774
1.04777
1.04774
1.04778
1.04774
1.04777
1.04773
1.04777
1.04772
1.04775
1.04772
1.04775
1.04771
1.04775
1.04772
1.04776
1.04772
1.04776
1.04773
1.04776
1.04773
1.04776
1.04774
1.04774
1.04778
1.04784
0.163252
0.164126
0.164528
0.16705
0.173268
0.1808
0.189776
0.198848
0.217009
0.524206
0.951974
1.23913
1.29424
1.32233
1.16028
1.05819
1.06486
1.0783
1.05487
1.01618
0.977235
0.955834
0.984069
1.04665
1.09954
1.13233
1.14468
1.16537
1.17568
1.18937
1.21018
1.21976
1.22658
1.23181
1.22546
1.2144
1.22378
1.20289
1.20397
1.20862
1.19162
1.2062
1.20653
1.20872
1.0357
1.02167
1.03005
1.03974
1.05317
1.05611
1.0641
1.06394
1.0671
1.06763
1.06847
1.06682
1.06934
1.06649
1.06911
1.06392
1.06728
1.06086
1.06057
1.05966
1.05448
1.05703
1.05216
1.05248
1.05238
1.05003
1.0513
1.04996
1.04974
1.05071
1.02314
1.02195
1.02283
1.02183
1.0227
1.02178
1.02136
1.02156
1.02033
1.02061
1.01977
1.01909
1.01929
1.0184
1.01861
1.01803
1.01776
1.01787
1.01741
1.01748
1.01714
1.01716
1.01675
1.01688
1.01646
1.0166
1.01627
1.01636
1.01624
1.01764
1.01747
1.01615
1.01608
1.01607
1.01608
1.01608
1.01607
1.01607
1.01606
1.01606
1.01605
1.01606
1.01605
1.01605
1.01606
1.01604
1.01605
1.01605
1.01606
1.01605
1.01607
1.01606
1.01607
1.01606
1.01607
1.01607
1.01606
1.01608
1.01614
1.01746
1.01746
1.01614
1.01608
1.01606
1.01608
1.01607
1.01608
1.01606
1.01607
1.01605
1.01606
1.01605
1.01606
1.01605
1.01604
1.01605
1.01605
1.01606
1.01605
1.01607
1.01605
1.01607
1.01605
1.01607
1.01606
1.01607
1.01606
1.01607
1.01613
1.01747
1.01745
1.01614
1.01607
1.01606
1.01607
1.01607
1.01606
1.01607
1.01606
1.01607
1.01606
1.01607
1.01605
1.01606
1.01605
1.01606
1.01605
1.01606
1.01605
1.01606
1.01605
1.01607
1.01606
1.01607
1.01606
1.01608
1.01607
1.01608
1.01614
1.01747
1.01745
1.01614
1.01607
1.01608
1.01607
1.01608
1.01606
1.01607
1.01606
1.01607
1.01605
1.01606
1.01604
1.01605
1.01604
1.01605
1.01604
1.01606
1.01605
1.01607
1.01605
1.01607
1.01605
1.01607
1.01606
1.01607
1.01606
1.01606
1.01613
1.01747
1.01746
1.01614
1.01606
1.01607
1.01606
1.01608
1.01606
1.01607
1.01606
1.01607
1.01605
1.01606
1.01604
1.01605
1.01604
1.01605
1.01604
1.01606
1.01605
1.01607
1.01605
1.01607
1.01605
1.01607
1.01606
1.01607
1.01606
1.01606
1.01613
1.01747
1.01747
1.01613
1.01607
1.01606
1.01607
1.01606
1.01608
1.01606
1.01607
1.01605
1.01607
1.01605
1.01606
1.01605
1.01605
1.01604
1.01605
1.01604
1.01605
1.01605
1.01605
1.01606
1.01606
1.01607
1.01607
1.01608
1.01607
1.01608
1.01614
1.01746
1.01747
1.01613
1.01606
1.01607
1.01606
1.01608
1.01606
1.01607
1.01606
1.01607
1.01605
1.01606
1.01604
1.01605
1.01604
1.01605
1.01604
1.01606
1.01605
1.01607
1.01605
1.01607
1.01605
1.01607
1.01606
1.01607
1.01606
1.01606
1.01613
1.01747
1.01746
1.01614
1.01607
1.01607
1.01607
1.01608
1.01606
1.01607
1.01606
1.01607
1.01605
1.01606
1.01604
1.01605
1.01604
1.01604
1.01605
1.01604
1.01606
1.01605
1.01607
1.01606
1.01607
1.01606
1.01607
1.01607
1.01607
1.01607
1.01614
1.01746
1.01747
1.01614
1.01607
1.01607
1.01606
1.01608
1.01606
1.01607
1.01606
1.01607
1.01605
1.01606
1.01603
1.01604
1.01603
1.01604
1.01603
1.01604
1.01603
1.01605
1.01604
1.01606
1.01605
1.01606
1.01606
1.01607
1.01606
1.01607
1.01614
1.01747
0.163543
0.16354
0.163856
0.163008
0.161732
0.162485
0.165468
0.174033
0.179576
0.189233
0.205402
0.710044
1.20814
1.29416
1.07613
1.09866
0.857103
0.6566
0.690045
0.851992
0.967774
0.941096
0.914508
0.932042
0.988386
1.02983
1.06276
1.06825
1.08727
1.10912
1.12745
1.14293
1.15386
1.15839
1.15848
1.15241
1.14579
1.15197
1.13571
1.15166
1.14045
1.15424
1.15682
1.17067
0.962738
0.940304
0.943825
0.962891
0.977415
0.992841
0.996693
1.00513
1.00466
1.00774
1.00934
1.008
1.0089
1.00923
1.00734
1.00801
1.00468
1.00581
1.00039
1.00193
0.997445
0.996117
0.995951
0.992365
0.993988
0.992246
0.991338
0.99303
0.992029
0.99409
0.965561
0.965805
0.966276
0.967231
0.966147
0.966797
0.965771
0.965231
0.96534
0.964134
0.964361
0.963431
0.963012
0.963028
0.962354
0.962484
0.961928
0.96207
0.961621
0.961773
0.961341
0.961528
0.96109
0.961192
0.960914
0.960905
0.96074
0.960671
0.960653
0.960141
0.960001
0.960456
0.960468
0.960452
0.960461
0.960456
0.960458
0.960456
0.960453
0.960453
0.960451
0.960453
0.960451
0.960449
0.960455
0.960451
0.960451
0.960451
0.960455
0.96045
0.960455
0.960449
0.960459
0.96045
0.960457
0.960454
0.960446
0.96045
0.960449
0.960006
0.96001
0.960444
0.96045
0.960446
0.960452
0.960453
0.960455
0.960453
0.960454
0.960449
0.960452
0.960453
0.960451
0.96045
0.960453
0.960453
0.960453
0.960454
0.960452
0.960454
0.96045
0.960453
0.960452
0.960455
0.960449
0.960449
0.960443
0.960446
0.960439
0.960016
0.960005
0.960448
0.960448
0.960445
0.960455
0.960457
0.96045
0.960459
0.96045
0.960455
0.960451
0.960456
0.960453
0.960454
0.960453
0.960452
0.960452
0.960452
0.960452
0.960449
0.960446
0.960451
0.960452
0.960455
0.960451
0.96045
0.960448
0.960453
0.960442
0.960012
0.960005
0.960449
0.960453
0.960448
0.960448
0.960455
0.960453
0.960457
0.960449
0.960454
0.96045
0.960453
0.96045
0.960451
0.960451
0.96045
0.960451
0.960452
0.960451
0.960453
0.96045
0.960452
0.960452
0.960455
0.960449
0.960448
0.960442
0.960446
0.960439
0.960017
0.960013
0.960441
0.960443
0.960444
0.960447
0.960453
0.960453
0.960456
0.96045
0.960454
0.96045
0.960452
0.96045
0.96045
0.960448
0.960449
0.960452
0.960453
0.960452
0.960454
0.960451
0.960453
0.960453
0.960455
0.960449
0.960449
0.960442
0.960446
0.960439
0.960017
0.960016
0.960439
0.960446
0.960443
0.960449
0.960452
0.960456
0.960454
0.960453
0.960452
0.960454
0.960452
0.960453
0.960452
0.960451
0.960451
0.960453
0.960449
0.960452
0.960452
0.960452
0.96045
0.960451
0.960455
0.960452
0.960451
0.960446
0.960454
0.960447
0.960006
0.960018
0.960443
0.960443
0.960444
0.960447
0.960454
0.960453
0.960457
0.96045
0.960454
0.960451
0.960453
0.96045
0.960452
0.960451
0.96045
0.960453
0.960454
0.960451
0.960453
0.960449
0.960451
0.960451
0.960454
0.960449
0.960448
0.960442
0.960446
0.960438
0.960016
0.960002
0.960448
0.960446
0.960452
0.96045
0.960457
0.960452
0.960458
0.960449
0.960454
0.96045
0.960454
0.960449
0.960451
0.960449
0.96045
0.960449
0.960449
0.960453
0.960449
0.960453
0.960448
0.960456
0.960452
0.960455
0.960451
0.960447
0.960447
0.960449
0.960005
0.960021
0.960445
0.960445
0.960447
0.960446
0.960456
0.960451
0.960457
0.960448
0.960455
0.960447
0.960452
0.960447
0.960448
0.960448
0.960447
0.960449
0.960454
0.960449
0.960452
0.960451
0.960455
0.960457
0.960461
0.960456
0.960458
0.960453
0.960456
0.960451
0.960026
0.162669
0.162882
0.160275
0.156797
0.153041
0.153067
0.157615
0.159535
0.166923
0.167253
0.182624
0.57045
1.09274
1.25509
1.01098
0.653417
0.362193
0.195179
0.173026
0.313076
0.655662
0.899253
0.897733
0.877621
0.900848
0.939956
0.979656
0.988681
1.00776
1.02579
1.04499
1.06285
1.07569
1.08352
1.08555
1.09424
1.07914
1.09431
1.08204
1.08692
1.09961
1.09992
1.12475
1.13356
0.90585
0.88672
0.871907
0.882065
0.907236
0.921822
0.935846
0.938714
0.946381
0.946237
0.952361
0.950551
0.953143
0.953053
0.953794
0.952278
0.953618
0.950009
0.951946
0.946539
0.949561
0.943481
0.946916
0.942005
0.943679
0.943366
0.941763
0.944257
0.943994
0.94569
0.910774
0.91587
0.916226
0.917028
0.918472
0.917518
0.918438
0.917211
0.917191
0.917111
0.915882
0.916507
0.915189
0.915344
0.915057
0.91455
0.914728
0.914287
0.914247
0.914122
0.913944
0.913916
0.913677
0.913695
0.913451
0.913488
0.913288
0.913337
0.913217
0.912892
0.912719
0.913054
0.913013
0.912983
0.912951
0.912943
0.912927
0.912927
0.912919
0.912921
0.912915
0.912917
0.912917
0.912915
0.912923
0.912915
0.912918
0.912917
0.912918
0.912917
0.912921
0.912921
0.912925
0.912927
0.912936
0.912953
0.912967
0.913003
0.913036
0.912685
0.912692
0.913037
0.913003
0.912968
0.912949
0.912935
0.912929
0.912925
0.912923
0.912917
0.912915
0.912915
0.912917
0.912913
0.912919
0.912918
0.912918
0.912919
0.912918
0.912919
0.91292
0.912925
0.912924
0.912928
0.912936
0.912947
0.91297
0.913002
0.913031
0.912694
0.912684
0.913036
0.913002
0.912966
0.912956
0.912937
0.912928
0.912926
0.912922
0.912923
0.912919
0.91292
0.91292
0.91292
0.912921
0.912918
0.912918
0.912918
0.912914
0.912913
0.912913
0.91292
0.91292
0.912928
0.912936
0.912949
0.912971
0.913006
0.913036
0.912695
0.912687
0.913036
0.913009
0.912969
0.912948
0.912937
0.912926
0.912927
0.912922
0.912922
0.912916
0.912916
0.912915
0.912916
0.912916
0.912915
0.912916
0.912917
0.912916
0.912918
0.912919
0.912924
0.912923
0.912926
0.912935
0.912945
0.912967
0.913001
0.913032
0.912693
0.91269
0.913031
0.913002
0.912966
0.912947
0.912938
0.912928
0.912928
0.912923
0.912922
0.912916
0.912915
0.912916
0.912916
0.912916
0.912916
0.912917
0.912918
0.912917
0.912918
0.91292
0.912925
0.912924
0.912928
0.912935
0.912946
0.912968
0.913001
0.913032
0.912693
0.912697
0.91303
0.913004
0.912969
0.912948
0.912938
0.912931
0.912926
0.912927
0.912923
0.91292
0.912918
0.912919
0.912919
0.912918
0.912918
0.912917
0.912916
0.91291
0.912916
0.912915
0.91292
0.912921
0.912928
0.912935
0.912949
0.912969
0.913008
0.91304
0.912691
0.912696
0.913033
0.913001
0.912966
0.912948
0.912939
0.912927
0.912928
0.912924
0.912923
0.912917
0.912917
0.912916
0.912916
0.912917
0.912915
0.912916
0.912917
0.912916
0.912917
0.912918
0.912923
0.912922
0.912925
0.912934
0.912944
0.912969
0.913001
0.91303
0.912693
0.912684
0.913035
0.912999
0.912971
0.912953
0.912936
0.912926
0.912926
0.91292
0.912921
0.912917
0.912917
0.912915
0.912916
0.912916
0.912917
0.912916
0.912915
0.912915
0.912915
0.912919
0.912919
0.912923
0.912925
0.912933
0.912947
0.912963
0.913
0.913038
0.912685
0.912693
0.913037
0.913004
0.91297
0.912948
0.912938
0.912926
0.912926
0.912918
0.91292
0.912915
0.912912
0.912909
0.912907
0.912905
0.912906
0.912911
0.912914
0.912911
0.912912
0.912912
0.912919
0.91292
0.912931
0.912942
0.912962
0.912996
0.913055
0.91314
0.91282
0.158932
0.155681
0.150656
0.147252
0.145252
0.149062
0.152316
0.156549
0.159659
0.162298
0.170045
0.186228
0.19358
0.683739
0.900261
0.957438
0.671304
0.217982
0.18553
0.18278
0.166475
0.165677
0.303594
0.715017
0.881419
0.857911
0.846994
0.870551
0.903921
0.909149
0.93171
0.942188
0.95954
0.974414
0.987369
0.996688
0.998312
1.00599
1.00021
0.998964
1.00996
1.00049
1.02277
1.02183
1.02822
1.055
0.990321
0.984087
0.927259
0.87592
0.836482
0.828888
0.841469
0.860492
0.864439
0.875305
0.871235
0.879582
0.87659
0.880622
0.881372
0.87885
0.881915
0.878238
0.880537
0.876448
0.878273
0.873164
0.875545
0.869808
0.872878
0.867846
0.869495
0.868131
0.867411
0.867758
0.869239
0.869824
0.857139
0.854581
0.847202
0.84592
0.848492
0.847336
0.847256
0.847546
0.846411
0.846944
0.845574
0.845757
0.844823
0.844789
0.84391
0.844155
0.843372
0.843331
0.843198
0.84289
0.843011
0.842682
0.842823
0.84252
0.842622
0.842382
0.842376
0.842259
0.842226
0.842102
0.842034
0.840267
0.838859
0.83881
0.840158
0.841792
0.841877
0.841858
0.841851
0.841825
0.841821
0.841809
0.841813
0.841808
0.84181
0.841802
0.841806
0.841799
0.841805
0.841804
0.8418
0.841805
0.841803
0.841809
0.841808
0.841811
0.841809
0.841816
0.841822
0.84184
0.841852
0.84185
0.84177
0.840129
0.838727
0.838727
0.84013
0.84177
0.841851
0.84185
0.841838
0.841826
0.841813
0.841812
0.841807
0.84181
0.841802
0.841806
0.8418
0.8418
0.841804
0.841802
0.841804
0.841802
0.841807
0.841806
0.841813
0.841809
0.841813
0.841812
0.841827
0.841835
0.841852
0.841851
0.841767
0.840133
0.838727
0.838726
0.840128
0.841769
0.84185
0.841851
0.841843
0.841822
0.841817
0.84181
0.841812
0.84181
0.841811
0.841804
0.841807
0.841802
0.841806
0.841801
0.841804
0.8418
0.841804
0.841802
0.841808
0.841805
0.841811
0.841813
0.841827
0.841837
0.84185
0.841852
0.841768
0.840132
0.838727
0.838727
0.840131
0.84177
0.841856
0.841848
0.841842
0.841824
0.841818
0.841808
0.841812
0.841809
0.84181
0.841803
0.841805
0.841802
0.841805
0.841801
0.841805
0.841802
0.841807
0.841806
0.841813
0.841808
0.841813
0.841813
0.841827
0.841834
0.841852
0.841851
0.841767
0.840132
0.838727
0.838727
0.84013
0.841766
0.841852
0.841849
0.841841
0.841825
0.841816
0.841811
0.841812
0.841809
0.84181
0.841803
0.841806
0.8418
0.841805
0.841801
0.841805
0.841803
0.841807
0.841806
0.841814
0.841809
0.841814
0.841813
0.841828
0.841835
0.841853
0.841851
0.841767
0.840132
0.838727
0.838727
0.840134
0.841766
0.84185
0.841851
0.841838
0.841831
0.841814
0.841815
0.841809
0.841815
0.841806
0.841808
0.841802
0.841804
0.841801
0.841803
0.841802
0.841801
0.8418
0.841804
0.841809
0.841805
0.84181
0.841814
0.841825
0.841839
0.841851
0.841851
0.84177
0.840129
0.838726
0.838727
0.840134
0.841767
0.84185
0.84185
0.841842
0.841827
0.841817
0.841811
0.841812
0.84181
0.84181
0.841804
0.841806
0.841802
0.841805
0.841801
0.841805
0.841802
0.841807
0.841805
0.841812
0.841807
0.841812
0.841812
0.841826
0.841833
0.841851
0.84185
0.841765
0.840132
0.838726
0.838726
0.840128
0.841771
0.841849
0.841853
0.84184
0.841824
0.841816
0.841809
0.841812
0.841809
0.841811
0.841804
0.841807
0.841801
0.841805
0.841804
0.8418
0.841805
0.841803
0.841809
0.841808
0.841811
0.841808
0.841816
0.841822
0.841839
0.841846
0.841847
0.841767
0.840125
0.838727
0.838728
0.840132
0.841764
0.84185
0.84185
0.841841
0.841826
0.841815
0.84181
0.841815
0.84181
0.841816
0.841808
0.84181
0.841804
0.841807
0.841801
0.841802
0.8418
0.841803
0.841803
0.841809
0.841809
0.841818
0.84182
0.841833
0.841838
0.841853
0.841853
0.841778
0.840152
0.838805
0.840056
0.146214
0.145155
0.14229
0.139864
0.141293
0.1427
0.149309
0.152358
0.156197
0.157601
0.161656
0.162559
0.158845
0.198948
0.21183
0.199197
0.190747
0.175776
0.167076
0.162731
0.167445
0.175927
0.244036
0.612493
0.836394
0.841517
0.817647
0.821626
0.837875
0.844271
0.860237
0.872054
0.883657
0.8989
0.912415
0.921119
0.928863
0.931107
0.939872
0.925893
0.943078
0.928954
0.943496
0.945893
0.94433
0.979011
0.943596
0.927104
0.88025
0.83234
0.794951
0.784274
0.7939
0.802778
0.809956
0.814289
0.811505