/*--------------------------------*- C++ -*----------------------------------*\
| =========                 |                                                 |
| \\      /  F ield         | OpenFOAM: The Open Source CFD Toolbox           |
|  \\    /   O peration     | Version:  2.1.1                                 |
|   \\  /    A nd           | Web:      www.OpenFOAM.org                      |
|    \\/     M anipulation  |                                                 |
\*---------------------------------------------------------------------------*/
FoamFile
{
    version     2.0;
    format      ascii;
    class       volScalarField;
    location    "0.007800000";
    object      H;
}
// * * * * * * * * * * * * * * * * * * * * * * * * * * * * * * * * * * * * * //

dimensions      [0 0 0 0 0 0 0];

internalField   nonuniform List<scalar> 
12384
(
0.000127392
0.000113392
9.73912e-05
8.9413e-05
8.2612e-05
8.09465e-05
8.25527e-05
8.27097e-05
9.13086e-05
0.000103015
0.000118666
0.000135729
0.000157444
0.000182894
2.22169e-05
2.47348e-05
3.09533e-05
4.56134e-05
5.57755e-05
6.03366e-05
6.14297e-05
6.14057e-05
6.09078e-05
5.94984e-05
5.77675e-05
5.5128e-05
5.18165e-05
4.78894e-05
4.3466e-05
4.29856e-05
4.05492e-05
3.82609e-05
3.73359e-05
3.63446e-05
3.6464e-05
3.63474e-05
3.6654e-05
3.72952e-05
3.82482e-05
3.94574e-05
3.99189e-05
3.76397e-05
2.46725e-05
1.32114e-05
7.94633e-05
8.52658e-05
7.92502e-05
7.44316e-05
7.15119e-05
6.90556e-05
6.70192e-05
6.80257e-05
6.6561e-05
6.54129e-05
6.42077e-05
6.26625e-05
6.11282e-05
6.07724e-05
6.03621e-05
6.07998e-05
6.12355e-05
6.18703e-05
6.27062e-05
6.42519e-05
6.5172e-05
6.36331e-05
6.47092e-05
6.58848e-05
6.68693e-05
6.81904e-05
6.98777e-05
7.43381e-05
7.06647e-05
6.90628e-05
8.47444e-05
8.21404e-05
7.97759e-05
7.92574e-05
7.86212e-05
7.79849e-05
7.73965e-05
7.67997e-05
7.61045e-05
7.556e-05
7.50861e-05
7.47126e-05
7.46182e-05
7.43202e-05
7.47217e-05
7.41128e-05
7.45363e-05
7.33376e-05
7.38854e-05
7.30122e-05
7.32733e-05
7.32229e-05
7.37927e-05
7.44853e-05
7.55038e-05
7.70549e-05
7.82916e-05
7.84393e-05
7.71478e-05
7.56862e-05
9.47727e-05
9.39832e-05
9.43932e-05
9.4894e-05
9.47911e-05
9.40408e-05
9.34123e-05
9.28259e-05
9.24354e-05
9.2756e-05
9.64241e-05
9.13905e-05
9.57805e-05
9.10887e-05
9.21063e-05
9.23875e-05
9.30501e-05
9.4216e-05
9.57826e-05
9.70325e-05
9.7367e-05
9.34868e-05
8.71672e-05
8.70651e-05
8.74714e-05
8.70537e-05
8.66508e-05
8.67306e-05
8.68606e-05
8.67318e-05
9.43823e-05
9.62286e-05
9.73094e-05
9.76397e-05
9.65956e-05
9.64306e-05
9.55252e-05
9.45882e-05
9.39472e-05
9.35141e-05
9.32343e-05
9.2885e-05
9.30701e-05
9.28519e-05
9.34364e-05
9.29306e-05
9.37117e-05
9.25689e-05
9.33359e-05
9.19307e-05
9.23847e-05
9.20988e-05
9.24914e-05
9.32607e-05
9.36405e-05
9.42304e-05
9.3833e-05
9.38559e-05
9.69557e-05
9.82696e-05
6.89702e-05
7.51847e-05
7.92663e-05
8.01374e-05
8.00685e-05
7.98473e-05
7.9199e-05
7.86191e-05
7.74163e-05
7.60816e-05
7.48438e-05
7.37737e-05
7.27133e-05
7.18914e-05
7.10312e-05
7.01684e-05
6.98243e-05
6.95069e-05
6.93894e-05
6.93673e-05
7.03606e-05
7.13272e-05
7.20037e-05
7.34841e-05
7.43376e-05
7.26344e-05
4.2875e-05
2.29422e-05
2.7328e-05
3.03107e-05
9.20625e-05
9.74077e-05
9.91669e-05
9.98249e-05
9.96302e-05
9.92384e-05
9.89486e-05
9.83688e-05
9.75421e-05
9.70324e-05
9.67343e-05
9.41184e-05
9.49478e-05
9.36044e-05
9.36346e-05
9.54831e-05
9.66848e-05
9.82975e-05
0.000100491
0.000102372
9.81123e-05
9.29637e-05
9.31169e-05
9.27449e-05
9.31188e-05
9.26566e-05
9.29105e-05
9.2323e-05
9.21518e-05
9.15171e-05
9.03474e-05
9.17122e-05
9.28616e-05
9.40258e-05
9.43432e-05
9.39599e-05
9.31198e-05
9.16834e-05
9.0577e-05
8.80332e-05
8.78287e-05
8.61982e-05
8.58611e-05
8.66039e-05
8.71266e-05
8.89902e-05
9.03796e-05
9.09523e-05
9.4191e-05
8.75949e-05
8.67982e-05
8.68851e-05
8.65448e-05
8.69352e-05
8.72939e-05
8.80459e-05
8.85427e-05
8.79939e-05
8.30545e-05
7.71537e-05
8.20486e-05
8.16837e-05
8.32141e-05
8.60299e-05
8.87911e-05
9.05313e-05
9.07578e-05
9.00457e-05
8.84275e-05
8.6128e-05
8.39766e-05
8.24119e-05
8.02749e-05
7.84778e-05
7.89912e-05
7.82323e-05
7.85743e-05
7.86885e-05
7.78248e-05
7.69867e-05
7.55605e-05
7.51708e-05
7.5341e-05
7.47266e-05
7.44341e-05
7.44793e-05
7.38849e-05
7.42058e-05
7.39655e-05
7.36844e-05
7.88864e-05
7.80651e-05
7.80102e-05
7.88508e-05
7.93692e-05
7.93293e-05
7.89566e-05
7.80794e-05
7.8601e-05
7.74575e-05
7.66336e-05
7.69744e-05
7.75859e-05
8.0119e-05
8.05188e-05
7.86083e-05
6.84075e-05
6.54949e-05
6.38966e-05
6.55799e-05
6.41112e-05
6.64459e-05
6.48876e-05
6.70895e-05
6.71029e-05
6.84455e-05
6.89962e-05
7.00553e-05
6.98875e-05
7.26281e-05
5.82381e-05
5.74978e-05
5.85655e-05
6.53597e-05
6.47596e-05
6.31921e-05
6.21754e-05
6.20421e-05
6.19243e-05
6.21055e-05
6.1321e-05
6.15842e-05
6.14051e-05
6.18139e-05
6.18972e-05
6.20749e-05
6.2281e-05
6.23249e-05
6.2275e-05
6.19842e-05
6.17467e-05
6.12755e-05
6.0916e-05
6.02537e-05
6.02693e-05
5.93808e-05
5.98365e-05
5.95113e-05
6.02491e-05
5.9943e-05
5.82652e-05
5.83297e-05
5.94741e-05
5.92525e-05
5.96204e-05
5.93569e-05
5.8926e-05
5.50524e-05
5.38512e-05
5.37374e-05
5.36805e-05
5.16023e-05
5.22031e-05
5.25482e-05
5.3372e-05
5.39269e-05
5.47214e-05
5.69953e-05
5.76232e-05
5.80457e-05
5.84703e-05
5.61783e-05
5.54854e-05
5.44345e-05
5.32695e-05
5.40089e-05
5.41662e-05
5.20578e-05
5.44559e-05
5.9359e-05
9.57176e-05
7.63916e-05
5.57373e-05
5.28903e-05
5.30947e-05
5.21428e-05
5.68186e-05
6.04097e-05
6.51978e-05
7.14812e-05
8.05455e-05
0.00010695
0.000140644
0.000178787
2.2436e-05
2.55926e-05
3.57739e-05
5.34015e-05
6.91844e-05
7.15503e-05
7.262e-05
7.26296e-05
7.14778e-05
6.92928e-05
6.35842e-05
6.10737e-05
5.38557e-05
4.49159e-05
3.97235e-05
3.54244e-05
3.28349e-05
3.14957e-05
3.06632e-05
3.03742e-05
2.97129e-05
2.97621e-05
3.03418e-05
3.08876e-05
3.24247e-05
3.49309e-05
3.75084e-05
3.85263e-05
3.44821e-05
2.27033e-05
8.04608e-05
8.43283e-05
7.68658e-05
7.07135e-05
6.96583e-05
6.62295e-05
6.36736e-05
6.18038e-05
6.00949e-05
5.86541e-05
5.65612e-05
5.44614e-05
5.30658e-05
5.39775e-05
5.56226e-05
5.86021e-05
5.98281e-05
6.14986e-05
6.23991e-05
6.28952e-05
6.38985e-05
6.47053e-05
6.56801e-05
6.42025e-05
6.60454e-05
6.6601e-05
6.83716e-05
7.16856e-05
7.45787e-05
7.58924e-05
8.45801e-05
8.16896e-05
8.03009e-05
8.06082e-05
8.04374e-05
7.99856e-05
7.90114e-05
7.73851e-05
7.52352e-05
7.31932e-05
7.1589e-05
7.14581e-05
7.26632e-05
7.36817e-05
7.42396e-05
7.37834e-05
7.2767e-05
7.29034e-05
7.22924e-05
7.16985e-05
7.19165e-05
7.20934e-05
7.24591e-05
7.31101e-05
7.39875e-05
7.53395e-05
7.71486e-05
7.81825e-05
7.81787e-05
7.76774e-05
9.4736e-05
9.43065e-05
9.45895e-05
9.4575e-05
9.28739e-05
9.47941e-05
9.43145e-05
9.38596e-05
9.3702e-05
9.31924e-05
9.3214e-05
9.2374e-05
9.20672e-05
9.21175e-05
9.20153e-05
9.35842e-05
9.52573e-05
9.74379e-05
9.94918e-05
9.58061e-05
9.71093e-05
9.65662e-05
9.12309e-05
8.727e-05
8.70695e-05
8.71009e-05
8.32373e-05
8.48548e-05
9.00299e-05
8.78999e-05
9.4848e-05
9.70798e-05
9.77038e-05
9.70665e-05
9.58849e-05
9.38979e-05
9.23851e-05
9.14516e-05
9.07636e-05
9.04292e-05
9.00775e-05
9.04388e-05
9.13429e-05
9.34404e-05
9.52992e-05
9.70388e-05
9.73125e-05
9.79262e-05
9.84077e-05
9.79469e-05
9.82305e-05
9.7749e-05
9.62962e-05
9.55601e-05
9.47137e-05
9.44356e-05
9.41617e-05
9.38486e-05
9.49373e-05
9.77963e-05
6.9874e-05
7.78862e-05
7.99534e-05
7.9617e-05
7.91834e-05
7.89965e-05
7.92464e-05
7.68495e-05
7.36405e-05
7.07277e-05
6.85659e-05
6.73855e-05
6.69129e-05
6.6673e-05
6.64528e-05
6.6193e-05
6.5987e-05
6.58735e-05
6.57786e-05
6.61367e-05
6.64398e-05
6.77645e-05
6.93296e-05
7.01264e-05
7.21822e-05
7.2729e-05
6.76633e-05
4.10609e-05
2.66075e-05
3.09138e-05
9.07535e-05
9.68695e-05
9.92749e-05
9.94242e-05
9.84245e-05
9.7937e-05
9.73498e-05
9.64571e-05
9.65722e-05
9.51699e-05
9.3696e-05
9.25714e-05
9.2235e-05
9.11899e-05
9.16567e-05
9.25402e-05
9.40198e-05
9.56075e-05
9.68838e-05
9.97601e-05
0.000100423
9.66074e-05
9.28458e-05
9.22088e-05
9.46732e-05
9.47575e-05
9.29076e-05
9.32217e-05
9.33763e-05
9.27053e-05
8.94065e-05
9.07348e-05
9.40816e-05
9.54236e-05
9.44205e-05
9.23807e-05
8.98613e-05
8.71525e-05
8.48473e-05
8.24274e-05
8.12519e-05
8.01911e-05
7.99229e-05
8.07524e-05
8.25131e-05
8.42467e-05
8.58724e-05
8.78005e-05
9.05622e-05
9.16374e-05
8.70408e-05
8.52577e-05
8.50149e-05
8.52454e-05
8.51026e-05
8.57008e-05
8.70056e-05
8.98989e-05
8.90845e-05
8.03698e-05
8.18337e-05
8.14862e-05
8.29816e-05
8.87519e-05
9.29979e-05
9.31392e-05
9.0681e-05
8.69509e-05
8.28973e-05
7.95032e-05
7.62212e-05
7.44823e-05
7.21387e-05
7.20094e-05
7.127e-05
7.20269e-05
7.37188e-05
7.53784e-05
7.64971e-05
7.65437e-05
7.84415e-05
7.62979e-05
7.50388e-05
7.48083e-05
7.44372e-05
7.39211e-05
7.34718e-05
7.39084e-05
7.44448e-05
7.41495e-05
7.80523e-05
7.8465e-05
7.64974e-05
7.81596e-05
7.83498e-05
7.72386e-05
7.69241e-05
7.44004e-05
7.20991e-05
7.02393e-05
6.93623e-05
6.93531e-05
7.08768e-05
7.29508e-05
7.56358e-05
7.88592e-05
7.66335e-05
7.3378e-05
6.78632e-05
6.75578e-05
6.5353e-05
6.38957e-05
6.29362e-05
6.45638e-05
6.5764e-05
6.56885e-05
6.70235e-05
6.86551e-05
7.03971e-05
7.26184e-05
6.25292e-05
6.31474e-05
6.55199e-05
6.59394e-05
6.43665e-05
6.35222e-05
6.29767e-05
6.31374e-05
6.28817e-05
6.29258e-05
6.25374e-05
6.24874e-05
6.24334e-05
6.30404e-05
6.28535e-05
6.25024e-05
6.20244e-05
6.16832e-05
6.13987e-05
6.10323e-05
6.07863e-05
6.04654e-05
6.05046e-05
5.99964e-05
6.00683e-05
5.94313e-05
5.95343e-05
5.95581e-05
6.00901e-05
6.01714e-05
5.75554e-05
5.81292e-05
5.93783e-05
5.84708e-05
5.92971e-05
5.82552e-05
5.74552e-05
5.4065e-05
5.36535e-05
5.5077e-05
5.43632e-05
5.61438e-05
5.7786e-05
5.92176e-05
6.0229e-05
6.06211e-05
6.10222e-05
5.83838e-05
6.05872e-05
6.07741e-05
6.08143e-05
6.21745e-05
6.02935e-05
5.81499e-05
5.79822e-05
5.54784e-05
5.25183e-05
5.23462e-05
5.67511e-05
6.05845e-05
6.48063e-05
4.81787e-05
4.40503e-05
4.80324e-05
5.36932e-05
6.28396e-05
7.14711e-05
7.33987e-05
7.80087e-05
7.64967e-05
7.71714e-05
8.68721e-05
0.00011942
0.000176689
2.24367e-05
2.60735e-05
3.9555e-05
6.35862e-05
7.84103e-05
8.46521e-05
8.66247e-05
8.70027e-05
8.52095e-05
7.89849e-05
6.93594e-05
6.43427e-05
5.38692e-05
4.05141e-05
3.63659e-05
3.36168e-05
3.31945e-05
3.35699e-05
3.44314e-05
3.44671e-05
3.45124e-05
3.38278e-05
3.27018e-05
3.1503e-05
3.08497e-05
3.16207e-05
3.39217e-05
3.69216e-05
3.72932e-05
2.94215e-05
8.08908e-05
8.35993e-05
7.58451e-05
7.08298e-05
7.19008e-05
7.01535e-05
6.73928e-05
6.3686e-05
5.99903e-05
5.71609e-05
5.33252e-05
5.10049e-05
5.36554e-05
5.89215e-05
6.38329e-05
6.65649e-05
6.46179e-05
6.52444e-05
6.51433e-05
6.55394e-05
6.57704e-05
6.51012e-05
6.50612e-05
6.53463e-05
6.55526e-05
6.65654e-05
6.70787e-05
6.88518e-05
7.27979e-05
7.63913e-05
8.37646e-05
8.14893e-05
8.15636e-05
8.27973e-05
8.29585e-05
8.22824e-05
8.1383e-05
7.94713e-05
7.6198e-05
7.201e-05
6.9838e-05
7.02451e-05
7.25312e-05
7.35869e-05
7.25733e-05
7.08359e-05
6.9993e-05
6.83762e-05
6.74697e-05
6.76659e-05
6.82509e-05
6.89483e-05
7.00488e-05
7.11167e-05
7.22001e-05
7.36081e-05
7.51687e-05
7.68423e-05
7.81439e-05
7.76592e-05
9.47293e-05
9.37052e-05
9.3633e-05
9.20802e-05
9.25506e-05
9.24072e-05
9.3575e-05
9.44665e-05
9.55885e-05
9.45573e-05
9.40033e-05
9.1815e-05
9.21031e-05
9.01278e-05
8.98238e-05
9.0237e-05
9.18108e-05
9.36267e-05
9.57286e-05
9.78551e-05
0.000100125
9.68466e-05
9.45938e-05
8.91934e-05
8.68582e-05
8.35347e-05
7.90555e-05
7.90728e-05
8.53298e-05
8.66357e-05
9.46408e-05
9.6378e-05
9.82385e-05
9.74051e-05
9.6626e-05
9.50597e-05
9.39426e-05
9.23329e-05
9.11457e-05
9.09261e-05
9.09799e-05
9.07851e-05
9.4289e-05
9.77871e-05
0.000100254
0.000102144
0.000103491
0.000104054
0.000105827
0.000106078
0.000106114
0.000105067
0.000104211
0.000100658
9.76316e-05
9.64265e-05
9.49406e-05
9.40884e-05
9.43457e-05
9.65585e-05
7.06024e-05
8.04991e-05
8.00475e-05
7.90587e-05
7.84962e-05
7.86474e-05
7.90959e-05
7.59079e-05
7.15521e-05
6.7473e-05
6.56724e-05
6.89054e-05
6.89701e-05
6.99226e-05
6.68771e-05
6.76263e-05
6.82204e-05
6.87838e-05
6.90544e-05
6.92334e-05
6.90508e-05
6.88192e-05
6.89369e-05
6.93135e-05
6.99264e-05
7.16063e-05
7.02744e-05
6.07471e-05
3.891e-05
2.94428e-05
8.98241e-05
9.67801e-05
9.95181e-05
9.83068e-05
9.77458e-05
9.73136e-05
9.65283e-05
9.65937e-05
9.55553e-05
9.42034e-05
9.33353e-05
9.2643e-05
9.15264e-05
9.21719e-05
9.15501e-05
9.21575e-05
9.28198e-05
9.3933e-05
9.4975e-05
9.70445e-05
9.85581e-05
9.79591e-05
9.44924e-05
9.39888e-05
9.20454e-05
9.18714e-05
9.33681e-05
9.47825e-05
9.36603e-05
9.33477e-05
8.91141e-05
9.31565e-05
9.6167e-05
9.46935e-05
9.1551e-05
8.82905e-05
8.50759e-05
8.23189e-05
8.39588e-05
7.86442e-05
7.49325e-05
7.18706e-05
7.21811e-05
7.42004e-05
7.77059e-05
8.30319e-05
8.17421e-05
8.42792e-05
8.61997e-05
9.16874e-05
8.95571e-05
8.39573e-05
8.39645e-05
8.48307e-05
8.54455e-05
8.57056e-05
8.54408e-05
8.65122e-05
9.03722e-05
8.36428e-05
8.15194e-05
8.105e-05
8.56324e-05
9.35322e-05
9.48945e-05
9.07953e-05
8.47862e-05
7.95635e-05
7.49004e-05
7.17576e-05
7.22226e-05
6.75062e-05
6.57976e-05
6.54832e-05
6.70271e-05
6.62993e-05
6.78918e-05
7.0645e-05
7.28025e-05
7.42197e-05
7.54189e-05
7.78167e-05
7.53702e-05
7.52005e-05
7.49562e-05
7.40097e-05
7.32344e-05
7.30191e-05
7.42333e-05
7.43009e-05
7.72465e-05
7.57124e-05
7.72254e-05
7.77077e-05
7.5999e-05
7.55289e-05
7.18157e-05
6.81723e-05
6.5682e-05
6.37493e-05
6.26253e-05
6.29038e-05
6.37118e-05
6.61645e-05
6.8862e-05
7.33271e-05
7.691e-05
7.76394e-05
7.41054e-05
7.35951e-05
6.9205e-05
6.58705e-05
6.27294e-05
6.50265e-05
6.49246e-05
6.67489e-05
6.79346e-05
6.88016e-05
7.02451e-05
7.24751e-05
6.54435e-05
6.64861e-05
6.63278e-05
6.58861e-05
6.46435e-05
6.53253e-05
6.53272e-05
6.6784e-05
6.73614e-05
6.75154e-05
6.80375e-05
6.8787e-05
6.87565e-05
6.77861e-05
6.71082e-05
6.54251e-05
6.33684e-05
6.23919e-05
6.1197e-05
6.04788e-05
6.02455e-05
6.01691e-05
6.09144e-05
6.07282e-05
6.23141e-05
6.09843e-05
6.00128e-05
5.94559e-05
5.98911e-05
6.0068e-05
5.66641e-05
5.79958e-05
5.83921e-05
5.91944e-05
5.84373e-05
5.88898e-05
5.42909e-05
5.43359e-05
5.49118e-05
5.47211e-05
5.80602e-05
6.10868e-05
6.151e-05
6.26031e-05
6.34467e-05
6.34689e-05
6.48354e-05
6.38438e-05
6.40183e-05
6.08424e-05
6.21682e-05
6.32074e-05
6.28874e-05
6.13557e-05
6.00884e-05
6.05911e-05
5.63756e-05
5.54508e-05
5.78354e-05
5.81245e-05
4.06152e-05
3.97376e-05
4.79585e-05
5.83268e-05
6.64619e-05
7.66952e-05
8.28938e-05
8.88871e-05
9.96435e-05
0.000104561
9.55085e-05
8.88102e-05
0.000108418
0.00016722
2.24528e-05
2.57843e-05
3.97715e-05
6.75933e-05
8.68727e-05
9.53448e-05
9.73084e-05
9.40306e-05
8.72738e-05
7.59793e-05
6.8846e-05
6.20269e-05
5.0024e-05
3.8927e-05
3.48509e-05
3.53078e-05
3.73788e-05
3.96155e-05
4.05179e-05
4.12957e-05
4.1359e-05
4.06648e-05
3.8965e-05
3.62835e-05
3.34278e-05
3.15166e-05
3.18762e-05
3.44169e-05
3.67777e-05
3.20325e-05
8.0903e-05
8.35435e-05
7.71763e-05
7.52452e-05
7.70007e-05
7.76592e-05
7.26068e-05
6.67313e-05
5.88228e-05
5.24654e-05
5.21874e-05
5.23802e-05
6.1094e-05
6.48374e-05
6.70016e-05
6.64193e-05
6.51123e-05
6.63469e-05
6.57932e-05
6.59625e-05
6.66199e-05
6.5223e-05
6.60742e-05
6.65254e-05
6.65379e-05
6.69601e-05
6.63757e-05
6.73562e-05
7.05316e-05
7.55798e-05
8.32448e-05
8.16833e-05
8.28487e-05
8.41918e-05
8.27802e-05
8.18255e-05
8.12587e-05
8.11319e-05
7.76547e-05
7.17566e-05
6.89726e-05
7.05884e-05
7.26089e-05
7.10756e-05
6.78998e-05
6.52482e-05
6.20441e-05
5.93539e-05
5.86138e-05
5.87579e-05
6.03178e-05
6.28445e-05
6.52512e-05
6.77077e-05
7.01279e-05
7.17226e-05
7.32663e-05
7.54094e-05
7.7124e-05
7.7778e-05
9.48373e-05
9.33935e-05
9.26115e-05
9.13284e-05
9.16868e-05
9.43348e-05
9.66539e-05
9.62486e-05
9.48154e-05
9.22267e-05
8.9999e-05
8.79532e-05
8.54817e-05
8.54605e-05
8.51931e-05
8.63329e-05
8.79545e-05
9.05615e-05
9.31447e-05
9.47265e-05
9.71225e-05
9.99168e-05
9.60692e-05
9.27231e-05
8.82015e-05
8.70358e-05
8.23157e-05
7.92186e-05
8.78863e-05
8.72221e-05
9.42385e-05
9.65671e-05
9.92828e-05
9.98156e-05
9.91851e-05
9.82124e-05
9.73547e-05
9.45898e-05
9.10991e-05
9.09533e-05
9.07316e-05
9.25353e-05
9.73011e-05
0.000100633
0.000102488
0.000103944
0.000105519
0.000109566
0.000111374
0.000112429
0.000112577
0.000111826
0.000111536
0.000108387
0.000104027
9.91478e-05
9.67406e-05
9.47134e-05
9.40521e-05
9.58979e-05
7.10673e-05
7.98421e-05
7.92848e-05
7.9075e-05
7.89209e-05
7.91416e-05
7.99743e-05
7.68186e-05
7.1477e-05
6.66776e-05
6.90983e-05
6.83583e-05
6.92085e-05
6.67741e-05
6.82009e-05
6.90945e-05
7.0914e-05
7.25765e-05
7.399e-05
7.39623e-05
7.36254e-05
7.19054e-05
7.07259e-05
6.95201e-05
6.95994e-05
7.05352e-05
7.12365e-05
6.78908e-05
4.85195e-05
3.2622e-05
8.81054e-05
9.66396e-05
9.87212e-05
9.80219e-05
9.78626e-05
9.70334e-05
9.6795e-05
9.55968e-05
9.44969e-05
9.38274e-05
9.31653e-05
9.28248e-05
9.21793e-05
9.16182e-05
9.30511e-05
9.28997e-05
9.32546e-05
9.3418e-05
9.38064e-05
9.4634e-05
9.69586e-05
9.77002e-05
9.662e-05
9.25861e-05
9.19988e-05
9.0859e-05
9.24458e-05
9.37601e-05
9.52441e-05
9.37615e-05
9.25054e-05
9.7267e-05
9.59494e-05
9.20708e-05
8.82867e-05
8.48199e-05
8.17275e-05
7.90484e-05
7.26087e-05
6.57975e-05
6.14175e-05
6.00384e-05
5.94029e-05
6.03272e-05
6.45598e-05
7.0184e-05
7.78785e-05
8.03924e-05
8.33736e-05
8.70081e-05
9.17723e-05
8.55461e-05
8.27632e-05
8.45059e-05
8.62723e-05
8.72314e-05
8.62728e-05
8.58655e-05
8.91803e-05
8.7151e-05
8.07471e-05
8.12225e-05
9.14354e-05
9.48413e-05
9.34388e-05
8.49732e-05
7.82878e-05
7.30483e-05
7.16241e-05
6.52235e-05
5.90368e-05
5.4652e-05
5.32754e-05
5.31958e-05
5.50816e-05
5.70457e-05
6.27048e-05
6.88767e-05
6.85271e-05
7.13068e-05
7.29067e-05
7.47155e-05
7.70762e-05
7.50483e-05
7.53235e-05
7.47957e-05
7.32625e-05
7.29764e-05
7.3952e-05
7.49046e-05
7.60036e-05
7.54876e-05
7.83633e-05
7.71432e-05
7.44153e-05
7.12385e-05
6.73872e-05
6.36684e-05
6.29916e-05
5.61211e-05
5.1657e-05
5.05374e-05
5.3843e-05
5.97632e-05
6.31682e-05
6.77105e-05
7.2174e-05
7.80203e-05
7.76315e-05
7.87102e-05
7.377e-05
6.67396e-05
6.36962e-05
6.54595e-05
6.64605e-05
6.92078e-05
6.98373e-05
6.96144e-05
6.95297e-05
7.27884e-05
6.64141e-05
6.79586e-05
6.65483e-05
6.64717e-05
6.67551e-05
6.71561e-05
6.92431e-05
7.1447e-05
7.37803e-05
7.54594e-05
7.80995e-05
7.8325e-05
7.75948e-05
7.7349e-05
7.47526e-05
7.18519e-05
6.78592e-05
6.4698e-05
6.23017e-05
6.04458e-05
5.98628e-05
6.01095e-05
6.11482e-05
6.23135e-05
6.08451e-05
6.01111e-05
6.18473e-05
5.96698e-05
5.97786e-05
6.00316e-05
5.49081e-05
5.85057e-05
6.05199e-05
5.88926e-05
5.72682e-05
5.61258e-05
5.4505e-05
5.5689e-05
5.59018e-05
6.05853e-05
6.31553e-05
6.69199e-05
6.93697e-05
7.12658e-05
7.2272e-05
7.19216e-05
7.01993e-05
6.7784e-05
6.48964e-05
6.44178e-05
6.17546e-05
6.25158e-05
6.31497e-05
6.04035e-05
5.76461e-05
6.02937e-05
5.98432e-05
5.88075e-05
5.95179e-05
5.78551e-05
3.56561e-05
4.653e-05
5.99292e-05
7.25406e-05
8.51538e-05
8.97381e-05
8.67539e-05
8.37057e-05
8.89349e-05
0.000103772
0.000109422
9.8595e-05
0.00010501
0.000159889
2.24087e-05
2.47069e-05
3.51786e-05
6.11042e-05
8.42904e-05
9.67963e-05
9.47426e-05
8.52593e-05
6.40371e-05
5.5979e-05
5.43196e-05
5.56859e-05
4.38274e-05
3.59284e-05
3.60677e-05
3.90084e-05
4.23826e-05
4.3643e-05
4.52816e-05
4.65452e-05
4.64589e-05
4.59524e-05
4.45149e-05
4.16925e-05
3.73236e-05
3.34563e-05
3.17153e-05
3.30993e-05
3.59828e-05
3.30257e-05
8.08719e-05
8.44826e-05
8.05797e-05
8.25219e-05
8.84499e-05
8.89421e-05
7.7549e-05
6.59221e-05
5.36721e-05
4.99817e-05
4.8385e-05
6.13005e-05
6.69716e-05
6.83689e-05
6.54566e-05
6.38451e-05
5.99413e-05
5.78682e-05
5.70117e-05
5.7258e-05
5.87862e-05
6.16856e-05
6.46683e-05
6.40421e-05
6.58445e-05
6.66764e-05
6.63927e-05
6.66884e-05
6.88337e-05
7.46278e-05
8.27796e-05
8.1443e-05
8.33565e-05
8.37171e-05
8.14103e-05
7.99761e-05
8.05474e-05
8.03453e-05
7.87927e-05
7.09803e-05
6.87347e-05
7.18962e-05
7.07896e-05
6.69245e-05
6.29529e-05
5.80879e-05
5.6471e-05
5.39767e-05
5.29845e-05
5.23016e-05
5.39756e-05
5.45521e-05
5.85354e-05
6.29872e-05
6.64965e-05
6.9181e-05
7.17699e-05
7.36821e-05
7.58735e-05
7.77972e-05
9.50575e-05
9.23125e-05
9.36965e-05
9.10763e-05
9.47916e-05
9.75819e-05
9.69992e-05
9.44501e-05
9.16999e-05
8.71768e-05
8.47579e-05
8.11401e-05
8.01211e-05
7.88533e-05
8.04466e-05
8.18309e-05
8.35789e-05
8.58693e-05
8.87638e-05
9.13793e-05
9.43829e-05
9.74084e-05
0.000100228
9.39206e-05
8.98273e-05
9.01326e-05
8.89831e-05
8.21086e-05
8.61097e-05
8.91595e-05
9.34881e-05
9.72266e-05
0.000100222
0.000102041
0.000102686
0.000103014
0.00010037
9.49079e-05
9.10115e-05
9.01907e-05
9.13016e-05
9.41733e-05
9.9098e-05
0.000100314
0.000102157
0.000103852
0.000108071
0.000111592
0.000116023
0.000117986
0.000119561
0.00012018
0.000117882
0.000113576
0.000109363
0.000104112
9.8615e-05
9.59032e-05
9.39655e-05
9.53357e-05
7.1196e-05
8.03751e-05
8.01767e-05
7.90454e-05
7.98472e-05
8.04397e-05
8.03827e-05
7.85977e-05
7.27102e-05
6.72865e-05
6.47688e-05
6.82354e-05
6.94696e-05
6.70185e-05
6.88977e-05
7.10655e-05
7.42955e-05
7.70742e-05
7.86542e-05
7.98067e-05
7.86474e-05
7.69505e-05
7.41967e-05
7.24258e-05
7.00579e-05
6.98551e-05
7.09373e-05
6.91555e-05
5.67707e-05
3.57382e-05
8.75562e-05
9.77045e-05
9.79518e-05
9.89823e-05
9.8188e-05
9.72634e-05
9.56067e-05
9.48462e-05
9.37531e-05
9.3343e-05
9.37617e-05
9.19669e-05
9.15301e-05
9.12031e-05
9.11117e-05
9.11987e-05
9.20031e-05
9.30764e-05
9.31047e-05
9.35829e-05
9.50261e-05
9.71665e-05
9.74722e-05
9.43751e-05
9.11935e-05
9.17362e-05
9.21529e-05
9.35749e-05
9.46431e-05
9.39489e-05
9.6682e-05
9.62322e-05
9.36677e-05
8.96259e-05
8.62456e-05
8.31194e-05
8.06724e-05
7.09964e-05
6.36211e-05
5.558e-05
5.21239e-05
5.08318e-05
4.96328e-05
4.89058e-05
5.26745e-05
5.93626e-05
6.75175e-05
7.6801e-05
8.03796e-05
8.43719e-05
9.11357e-05
8.73996e-05
8.36565e-05
8.46924e-05
8.64695e-05
8.8235e-05
8.76924e-05
8.60986e-05
8.81564e-05
8.79741e-05
8.06066e-05
8.64794e-05
9.71774e-05
9.50317e-05
8.80879e-05
7.96262e-05
7.34717e-05
7.15577e-05
6.32576e-05
5.54556e-05
4.86038e-05
4.55056e-05
4.34421e-05
4.3425e-05
4.35976e-05
4.72296e-05
5.25853e-05
5.96211e-05
6.71781e-05
6.7768e-05
7.09105e-05
7.26638e-05
7.62934e-05
7.53945e-05
7.57491e-05
7.54688e-05
7.42227e-05
7.29196e-05
7.41718e-05
7.49663e-05
7.60629e-05
7.82908e-05
7.85212e-05
7.54537e-05
7.2991e-05
6.7861e-05
6.2969e-05
5.94067e-05
4.95208e-05
4.24319e-05
3.81551e-05
3.71862e-05
3.82727e-05
4.40531e-05
5.34844e-05
6.63047e-05
6.71176e-05
7.4316e-05
7.77126e-05
8.14413e-05
7.58172e-05
6.74936e-05
6.36536e-05
6.50632e-05
6.78735e-05
6.92409e-05
7.02132e-05
7.02299e-05
7.09368e-05
7.27814e-05
6.73551e-05
6.86577e-05
6.70607e-05
6.69751e-05
6.8759e-05
7.15417e-05
7.45187e-05
7.72953e-05
8.20682e-05
8.39917e-05
8.69094e-05
8.80458e-05
8.74558e-05
8.61187e-05
8.31122e-05
7.91722e-05
7.40664e-05
6.87867e-05
6.40542e-05
6.10125e-05
5.97191e-05
5.96605e-05
6.1207e-05
6.1811e-05
6.03881e-05
5.93155e-05
6.11753e-05
5.98896e-05
5.9974e-05
6.01326e-05
5.49424e-05
5.88886e-05
5.90378e-05
5.73832e-05
5.66035e-05
5.40294e-05
5.58648e-05
5.57947e-05
6.11114e-05
6.50268e-05
7.03856e-05
7.51501e-05
7.82619e-05
7.89082e-05
8.02333e-05
7.82479e-05
7.74619e-05
7.29287e-05
7.05837e-05
6.66351e-05
6.46016e-05
6.13669e-05
6.51325e-05
6.20157e-05
5.67123e-05
5.5471e-05
6.15366e-05
5.99598e-05
5.93687e-05
5.61999e-05
4.68545e-05
5.84564e-05
7.45308e-05
9.14932e-05
0.000109545
0.000116271
0.000105328
8.4751e-05
8.14497e-05
9.03097e-05
0.000114541
0.000108862
0.00010713
0.000156122
2.23984e-05
2.36632e-05
2.86026e-05
5.0511e-05
7.36907e-05
8.61572e-05
8.03671e-05
6.17267e-05
4.04387e-05
3.52532e-05
4.6276e-05
4.9666e-05
4.13944e-05
3.50437e-05
3.85142e-05
4.28598e-05
4.45254e-05
4.73192e-05
5.175e-05
5.38572e-05
5.34424e-05
5.07408e-05
4.82957e-05
4.55029e-05
4.12266e-05
3.61137e-05
3.23768e-05
3.23298e-05
3.52321e-05
3.31567e-05
8.0413e-05
8.58955e-05
8.47931e-05
8.99626e-05
9.69751e-05
9.51982e-05
7.57283e-05
5.90216e-05
4.8684e-05
4.70245e-05
5.59842e-05
6.83508e-05
6.95813e-05
6.79627e-05
6.02876e-05
5.54192e-05
5.31116e-05
5.14351e-05
5.08799e-05
5.13087e-05
5.23501e-05
5.51744e-05
5.87605e-05
6.37637e-05
6.75644e-05
6.61546e-05
6.65663e-05
6.61913e-05
6.78092e-05
7.38417e-05
8.2892e-05
8.19732e-05
8.40175e-05
8.3335e-05
7.98813e-05
7.85026e-05
7.89472e-05
8.06657e-05
7.89156e-05
7.03458e-05
6.85398e-05
7.13947e-05
6.81847e-05
6.40924e-05
5.87257e-05
5.58043e-05
5.17168e-05
4.88465e-05
4.61462e-05
4.57462e-05
4.66852e-05
5.00496e-05
5.4863e-05
5.77617e-05
6.25266e-05
6.67485e-05
6.95939e-05
7.2152e-05
7.51845e-05
7.73515e-05
9.53477e-05
9.28432e-05
8.86717e-05
9.4078e-05
9.79003e-05
9.76804e-05
9.54937e-05
9.21454e-05
8.81288e-05
8.28049e-05
8.07743e-05
7.87402e-05
7.87014e-05
7.85699e-05
7.68714e-05
7.78388e-05
8.01603e-05
8.33885e-05
8.58453e-05
8.89999e-05
9.17117e-05
9.51982e-05
9.86057e-05
9.49604e-05
9.18843e-05
8.80085e-05
9.23189e-05
8.83165e-05
8.85073e-05
9.12786e-05
9.3152e-05
9.67499e-05
0.000100071
0.000103077
0.000104331
0.000104682
0.000100057
9.43281e-05
9.10885e-05
9.00768e-05
9.12147e-05
9.67384e-05
9.85618e-05
9.84545e-05
9.90604e-05
0.000104437
0.000109244
0.000116342
0.000120128
0.00012516
0.000126642
0.0001257
0.000124628
0.000120945
0.000114095
0.000106897
0.000101242
9.706e-05
9.40188e-05
9.48383e-05
7.11305e-05
7.96451e-05
8.12607e-05
8.13522e-05
8.12841e-05
8.08659e-05
8.1201e-05
8.13719e-05
7.57166e-05
6.92343e-05
6.51516e-05
6.83443e-05
6.55004e-05
6.68124e-05
6.9245e-05
7.28114e-05
7.67317e-05
8.04398e-05
8.35094e-05
8.47052e-05
8.46112e-05
8.1664e-05
7.72332e-05
7.51633e-05
7.09698e-05
6.98217e-05
7.04013e-05
6.9651e-05
6.07911e-05
3.7442e-05
8.81184e-05
9.82678e-05
9.81286e-05
9.95346e-05
9.80318e-05
9.66335e-05
9.47217e-05
9.41824e-05
9.28216e-05
9.43023e-05
9.2791e-05
9.12207e-05
9.04807e-05
9.00848e-05
9.0804e-05
9.14703e-05
9.1493e-05
9.37031e-05
9.28932e-05
9.25663e-05
9.32381e-05
9.55164e-05
9.69447e-05
9.55552e-05
9.29578e-05
9.17508e-05
9.13488e-05
9.4002e-05
9.49571e-05
9.4562e-05
9.63494e-05
9.67883e-05
9.19456e-05
8.87708e-05
8.56253e-05
8.15326e-05
7.57093e-05
6.47486e-05
5.69025e-05
4.94483e-05
4.69919e-05
4.37058e-05
4.29248e-05
4.29297e-05
4.63026e-05
4.96445e-05
5.94393e-05
6.94062e-05
7.90405e-05
8.14338e-05
8.78904e-05
8.94518e-05
8.51022e-05
8.43385e-05
8.68974e-05
8.92254e-05
8.87198e-05
8.88225e-05
8.79338e-05
8.88306e-05
8.16099e-05
9.54313e-05
0.000102009
9.39971e-05
8.30592e-05
7.5887e-05
7.1614e-05
6.6221e-05
5.66219e-05
4.73592e-05
4.19689e-05
4.14565e-05
3.84693e-05
3.74024e-05
3.89039e-05
3.94234e-05
4.40959e-05
5.12331e-05
6.07105e-05
6.90429e-05
6.84933e-05
7.13089e-05
7.48489e-05
7.67913e-05
7.5827e-05
7.57869e-05
7.46916e-05
7.38603e-05
7.41109e-05
7.50236e-05
7.77751e-05
8.10181e-05
7.79342e-05
7.2332e-05
6.99333e-05
6.52613e-05
6.29595e-05
4.93843e-05
3.85363e-05
3.15412e-05
2.6775e-05
2.58426e-05
2.82662e-05
3.45e-05
4.05662e-05
5.52245e-05
6.41048e-05
7.09291e-05
7.53042e-05
7.95109e-05
7.63124e-05
6.77642e-05
6.39899e-05
6.58546e-05
6.85425e-05
6.92288e-05
7.05559e-05
7.16052e-05
7.21053e-05
7.26122e-05
6.79144e-05
6.92777e-05
6.80875e-05
6.89837e-05
7.21754e-05
7.53909e-05
8.01334e-05
8.37561e-05
8.90433e-05
9.22193e-05
9.57282e-05
9.6389e-05
9.66954e-05
9.38765e-05
9.03927e-05
8.63642e-05
8.04836e-05
7.37033e-05
6.78599e-05
6.26108e-05
5.98242e-05
5.95374e-05
6.07656e-05
6.21196e-05
6.05319e-05
5.98699e-05
6.1344e-05
6.01449e-05
5.99782e-05
6.01006e-05
5.71499e-05
5.94615e-05
5.86602e-05
5.66742e-05
5.45596e-05
5.5233e-05
5.71121e-05
5.89862e-05
6.37609e-05
7.08722e-05
7.76011e-05
8.16652e-05
8.90441e-05
9.33593e-05
9.37214e-05
9.02272e-05
8.41882e-05
8.02089e-05
7.36344e-05
7.00908e-05
6.5353e-05
6.38927e-05
6.10005e-05
6.49655e-05
5.83205e-05
5.05267e-05
5.67547e-05
5.83137e-05
5.64373e-05
5.44673e-05
5.58015e-05
6.86826e-05
9.51917e-05
0.000135146
0.000158762
0.00016306
0.000147633
0.000111211
8.53604e-05
8.41553e-05
0.000114387
0.000112452
0.000112168
0.000156589
2.23564e-05
2.30189e-05
2.53251e-05
3.4373e-05
5.04537e-05
5.96653e-05
5.37137e-05
3.42925e-05
2.45914e-05
2.61145e-05
4.03131e-05
4.55735e-05
3.83308e-05
3.61188e-05
4.15903e-05
4.37278e-05
4.62926e-05
5.364e-05
6.08753e-05
6.45273e-05
6.3849e-05
5.82762e-05
5.19677e-05
4.78441e-05
4.31221e-05
3.75753e-05
3.26267e-05
3.19592e-05
3.50531e-05
3.31359e-05
8.01209e-05
8.72967e-05
8.85947e-05
9.4651e-05
9.95406e-05
9.01605e-05
6.82286e-05
4.70676e-05
4.31605e-05
4.59401e-05
6.50516e-05
7.21751e-05
6.60389e-05
6.04267e-05
5.48698e-05
5.1415e-05
5.07161e-05
5.06712e-05
5.10189e-05
5.09377e-05
5.06314e-05
5.21915e-05
5.47742e-05
6.0097e-05
6.49754e-05
6.51986e-05
6.62707e-05
6.57201e-05
6.694e-05
7.3698e-05
8.21997e-05
8.21264e-05
8.45372e-05
8.34849e-05
7.94633e-05
7.74135e-05
7.79856e-05
8.05411e-05
7.87945e-05
6.96249e-05
6.92595e-05
7.04915e-05
6.72172e-05
6.24527e-05
5.6792e-05
5.37024e-05
4.89503e-05
4.47444e-05
4.3356e-05
4.31641e-05
4.38165e-05
4.59139e-05
4.97487e-05
5.54956e-05
5.9062e-05
6.38073e-05
6.76649e-05
7.11637e-05
7.41692e-05
7.70173e-05
9.52282e-05
9.4764e-05
8.95954e-05
9.7103e-05
9.82982e-05
9.69565e-05
9.42671e-05
9.02787e-05
8.56576e-05
8.09064e-05
7.9808e-05
7.7264e-05
7.81538e-05
7.78832e-05
7.91214e-05
7.81676e-05
7.73415e-05
7.96067e-05
8.29672e-05
8.70133e-05
9.03992e-05
9.33949e-05
9.69806e-05
9.97383e-05
9.25373e-05
9.0223e-05
9.4068e-05
8.78811e-05
9.13926e-05
9.40673e-05
9.16825e-05
9.44205e-05
9.81768e-05
0.000102836
0.000103675
0.000103121
9.81316e-05
9.30201e-05
9.02938e-05
8.94645e-05
9.15148e-05
9.7216e-05
9.73537e-05
9.60327e-05
9.77815e-05
0.000103366
0.000110751
0.000116662
0.000123305
0.000127727
0.000130452
0.000130391
0.000127433
0.000124334
0.000118315
0.000110077
0.000103251
9.80254e-05
9.44648e-05
9.45976e-05
7.0227e-05
7.9679e-05
8.25569e-05
8.26974e-05
8.32609e-05
8.24756e-05
8.25975e-05
8.29698e-05
7.98741e-05
7.21932e-05
6.64298e-05
6.87722e-05
6.51377e-05
6.64972e-05
6.94433e-05
7.33659e-05
7.77487e-05
8.30371e-05
8.66419e-05
8.85944e-05
8.7792e-05
8.54529e-05
7.94332e-05
7.63137e-05
7.2319e-05
7.00422e-05
7.00958e-05
6.94196e-05
6.13595e-05
3.74228e-05
8.91126e-05
9.84916e-05
9.98491e-05
0.000100063
9.72589e-05
9.57719e-05
9.38996e-05
9.31999e-05
9.31011e-05
9.40678e-05
9.12672e-05