/*--------------------------------*- C++ -*----------------------------------*\
| =========                 |                                                 |
| \\      /  F ield         | OpenFOAM: The Open Source CFD Toolbox           |
|  \\    /   O peration     | Version:  2.1.1                                 |
|   \\  /    A nd           | Web:      www.OpenFOAM.org                      |
|    \\/     M anipulation  |                                                 |
\*---------------------------------------------------------------------------*/
FoamFile
{
    version     2.0;
    format      ascii;
    class       volScalarField;
    location    "0.007800000";
    object      H2;
}
// * * * * * * * * * * * * * * * * * * * * * * * * * * * * * * * * * * * * * //

dimensions      [0 0 0 0 0 0 0];

internalField   nonuniform List<scalar> 
12384
(
0.00143969
0.00128735
0.00110999
0.000998674
0.000932148
0.000920776
0.000941105
0.000975037
0.001078
0.00121732
0.00139919
0.00164923
0.00191251
0.00227332
0.00032313
0.000351119
0.000447773
0.000641647
0.000813614
0.000893136
0.000919286
0.00092483
0.000921883
0.000904115
0.000878577
0.00083841
0.00078677
0.000724891
0.000654155
0.000618737
0.000584153
0.000552699
0.00053822
0.000524963
0.000526277
0.000524359
0.000527221
0.000534552
0.000546687
0.000563112
0.000574956
0.000558053
0.00037961
0.000211331
0.00232779
0.00263208
0.00226859
0.00197417
0.00177494
0.00160814
0.00145442
0.0013615
0.00131856
0.00128406
0.00125262
0.00121324
0.00118067
0.00117563
0.00117998
0.00119967
0.00122345
0.00125253
0.00128428
0.00132462
0.00136085
0.00138089
0.00143652
0.00148273
0.00152872
0.00155583
0.00163091
0.00187409
0.0017225
0.00163616
0.00275088
0.00260873
0.00249877
0.00247584
0.00244845
0.00241149
0.00237304
0.00232912
0.00228231
0.00224626
0.00222047
0.00220681
0.00220427
0.00221208
0.00223454
0.00224825
0.00227221
0.00229553
0.00231638
0.00232733
0.00234045
0.00235473
0.00238512
0.00242754
0.00248748
0.00257117
0.00263956
0.00264681
0.0026065
0.00258858
0.00393391
0.00403787
0.00412045
0.00415747
0.00410567
0.00395797
0.00381664
0.0037071
0.0036333
0.00361298
0.00351696
0.00358756
0.00350816
0.00359176
0.0036262
0.00363746
0.00367078
0.00371395
0.00376664
0.00378932
0.00378939
0.00379091
0.00379947
0.00393645
0.00392223
0.00381443
0.00372087
0.00373294
0.00379861
0.00382038
0.00737703
0.00749151
0.00790976
0.00802707
0.00803624
0.0080418
0.00805155
0.00803537
0.00802479
0.0080031
0.00798119
0.0079505
0.00790718
0.00785643
0.00781102
0.00776159
0.00771532
0.00768504
0.00765557
0.00766022
0.00763736
0.00762374
0.00765036
0.00764498
0.00766121
0.00763555
0.00752544
0.00727088
0.00694029
0.00676809
0.0044125
0.00527371
0.00604713
0.00626646
0.00626623
0.00619622
0.00606028
0.00585805
0.0056087
0.00533308
0.00507398
0.00485716
0.00467374
0.00454113
0.00444495
0.00438704
0.00436303
0.00436442
0.00440908
0.00445919
0.00449465
0.00455944
0.00462161
0.00467984
0.00463046
0.00430187
0.00155134
0.000560022
0.00070523
0.000802102
0.00754902
0.00887963
0.00930628
0.00939059
0.00916809
0.00892923
0.00875654
0.00864681
0.00858834
0.00856462
0.00856731
0.00858454
0.00861283
0.00862826
0.00865233
0.0086782
0.00874744
0.00884437
0.00899604
0.00920268
0.00826772
0.00685532
0.00681795
0.00681971
0.00682534
0.00684106
0.00691065
0.00699075
0.00702566
0.00693169
0.00510079
0.00511724
0.00522087
0.00536404
0.00541252
0.00538221
0.0053208
0.005244
0.00513489
0.00506466
0.00492659
0.0049387
0.00483652
0.00477072
0.00473491
0.00471195
0.00465582
0.00454893
0.00586255
0.0091953
0.00942089
0.00930535
0.00918889
0.00905439
0.00892229
0.00888002
0.0090038
0.00939355
0.010239
0.0114369
0.00512071
0.00504876
0.005244
0.00554863
0.00581131
0.0059355
0.00596121
0.00591355
0.00581538
0.00570111
0.0056079
0.00553383
0.00547503
0.00542654
0.00537284
0.00532105
0.0052807
0.00520993
0.00497973
0.00524468
0.00771346
0.00808726
0.00810243
0.00809287
0.00808751
0.00814637
0.00824649
0.00835828
0.00852889
0.00870966
0.00614174
0.00648452
0.00666916
0.00672595
0.00671893
0.00667659
0.00657834
0.00648199
0.00636266
0.00628322
0.00624175
0.0062196
0.00623063
0.00626484
0.00613754
0.00660508
0.00916554
0.0100947
0.00993269
0.00979161
0.00966129
0.00957261
0.00953811
0.00955694
0.00958499
0.00961451
0.00963653
0.00965975
0.00970346
0.010024
0.00785247
0.00770465
0.00784516
0.00840151
0.00823599
0.00815652
0.00827115
0.00837189
0.00848936
0.00855754
0.00865116
0.00871936
0.00877635
0.00883637
0.00888552
0.00892772
0.00895552
0.00896256
0.00895196
0.00889215
0.00879646
0.00869262
0.00860842
0.00857421
0.0086173
0.00865959
0.00863076
0.0085426
0.00832342
0.00814747
0.0116274
0.0111832
0.0105643
0.0101655
0.0101774
0.0105087
0.0122489
0.0201483
0.0245673
0.0246666
0.0244262
0.0240949
0.0237266
0.0233333
0.0228738
0.0224263
0.0219319
0.0215025
0.0211384
0.0209452
0.0209221
0.0214818
0.0222311
0.023081
0.0238298
0.0242009
0.0242605
0.0240963
0.0232297
0.020593
0.00108369
0.00085819
0.000643281
0.00060234
0.000607799
0.00061829
0.000671567
0.000714454
0.000768133
0.000841189
0.000974945
0.00128558
0.0017288
0.00222329
0.000325515
0.000362203
0.000511132
0.000769636
0.00100774
0.00110674
0.00115756
0.00116952
0.00115212
0.00110418
0.00100727
0.000937167
0.000824215
0.000679318
0.0005771
0.000516114
0.000479799
0.000461195
0.000449195
0.000443605
0.000434449
0.000432881
0.000438472
0.000447212
0.00046644
0.000499295
0.000536461
0.000560109
0.000516086
0.000351624
0.00237961
0.00257966
0.00211685
0.00170235
0.001397
0.00126487
0.00117977
0.00111921
0.0010725
0.00103321
0.000987209
0.000950007
0.000940361
0.000978753
0.0010492
0.00113566
0.00119189
0.00124113
0.00127461
0.00129591
0.00132136
0.00134499
0.00137069
0.00141374
0.00147396
0.00151399
0.00155829
0.00170996
0.00188785
0.00198536
0.00273437
0.00259666
0.00254021
0.00255675
0.00254842
0.0025099
0.00243781
0.00232112
0.00216933
0.00202224
0.00191473
0.00189449
0.00198775
0.00208588
0.00215424
0.0021889
0.00220646
0.00222571
0.00222826
0.00224173
0.00225815
0.00227859
0.00230663
0.00234503
0.00239672
0.00247463
0.00256615
0.00262652
0.00263334
0.00260292
0.00391579
0.00399006
0.00406667
0.00406688
0.00376482
0.00342901
0.00328565
0.00322435
0.00318851
0.00316147
0.00315022
0.00313061
0.00311877
0.0031222
0.00313455
0.00319454
0.00327901
0.00338155
0.00348491
0.00364054
0.00370905
0.00376526
0.00375332
0.00386664
0.00378615
0.00330092
0.00306472
0.00316028
0.00346993
0.00380868
0.00737595
0.00763513
0.00803679
0.00816818
0.00821128
0.00821281
0.00817403
0.00811671
0.00805936
0.00801884
0.00797175
0.0078872
0.00775461
0.00761425
0.00747166
0.00737751
0.00729757
0.00727121
0.00726863
0.00727765
0.00729611
0.00732979
0.00738289
0.00744279
0.00750696
0.00757043
0.00756463
0.00742038
0.0071759
0.00690875
0.00453805
0.00578552
0.00679424
0.00701881
0.00684497
0.00650628
0.00609815
0.0056084
0.00501542
0.00443615
0.00404001
0.00377627
0.00364278
0.00359234
0.0035913
0.00360797
0.0036423
0.00368543
0.00373401
0.00379463
0.00386071
0.0039807
0.00413946
0.00434042
0.00449676
0.00441707
0.00322783
0.00141089
0.000685595
0.000819999
0.00733368
0.00885304
0.00940083
0.00912316
0.00853284
0.00826308
0.00817078
0.0081597
0.00819892
0.00826928
0.00835994
0.00841825
0.00849676
0.00852092
0.00854844
0.00856199
0.0085881
0.00865743
0.00877821
0.00904278
0.00885545
0.00768521
0.00666952
0.00643716
0.00633487
0.00635151
0.00651248
0.00674061
0.00710105
0.00727892
0.00511427
0.00517079
0.00554431
0.00571233
0.00561416
0.00535743
0.00505628
0.00474111
0.00448108
0.00421941
0.00405685
0.00398146
0.00397117
0.0040052
0.00413839
0.00430012
0.00443896
0.00442448
0.00485945
0.00712625
0.00937111
0.00958369
0.00936922
0.00894333
0.00845375
0.00810351
0.00799098
0.00825232
0.00912914
0.0109679
0.00514862
0.00501839
0.00525264
0.00590446
0.00621109
0.0061758
0.00594289
0.00555516
0.00517037
0.00484933
0.00460201
0.00444975
0.00436464
0.00437839
0.00446611
0.00461374
0.00480103
0.00496058
0.00495114
0.00491839
0.00590239
0.00731767
0.0080533
0.00792699
0.00771145
0.00775131
0.00801034
0.00824284
0.00845584
0.00869847
0.00606167
0.00636898
0.00677859
0.00691336
0.00684185
0.00660793
0.00624617
0.00589034
0.00556081
0.00530701
0.00517158
0.00518018
0.00538502
0.00569186
0.00589301
0.00607439
0.00702162
0.00854946
0.00965947
0.00973667
0.00956474
0.00947098
0.00947055
0.00952027
0.00962443
0.00970527
0.0097429
0.00974191
0.00974718
0.0100559
0.00814119
0.00821237
0.00838547
0.00832022
0.00820089
0.00825853
0.00838615
0.00848447
0.00856313
0.00860563
0.00862015
0.00861308
0.00860343
0.0086102
0.00863175
0.00866421
0.00870949
0.00874313
0.00871077
0.00856866
0.00830046
0.00796735
0.00766529
0.00745767
0.00750345
0.00775313
0.0081645
0.0084006
0.00834358
0.00816971
0.0145252
0.0119718
0.00989648
0.00928402
0.00971261
0.0117898
0.0180624
0.0235919
0.0246404
0.0243184
0.0238225
0.0232911
0.0227771
0.0223343
0.0219217
0.0214732
0.0208769
0.020125
0.0192176
0.0182937
0.0177327
0.0176612
0.0183625
0.0197649
0.0211878
0.0228502
0.0238352
0.0239374
0.0230112
0.0203768
0.00073585
0.000549168
0.000511024
0.000557543
0.000638872
0.000751232
0.000852509
0.000897209
0.000939421
0.000920512
0.000931854
0.00105517
0.0014689
0.00215053
0.000324952
0.000367983
0.00055692
0.000905787
0.00117828
0.0013085
0.00135015
0.00134618
0.00129817
0.0011934
0.00105896
0.000965666
0.000819633
0.00060829
0.000530159
0.000492463
0.000486626
0.00049148
0.000501358
0.000501617
0.000500459
0.000489972
0.000473107
0.0004565
0.000444694
0.000452832
0.000483512
0.000530335
0.000548492
0.000446381
0.00241381
0.00255132
0.00204109
0.00163722
0.00141983
0.00134904
0.00127344
0.00117573
0.001074
0.000995226
0.000911975
0.000890313
0.000986502
0.0011475
0.001296
0.00138152
0.00143753
0.00146645
0.00147866
0.0014947
0.00149376
0.00147889
0.00146414
0.00146432
0.00147755
0.0015022
0.00151558
0.00157723
0.0017744
0.00199567
0.00271619
0.00261482
0.00262954
0.00269694
0.00270851
0.00267474
0.00260719
0.00247273
0.00223228
0.00194589
0.00177988
0.00180595
0.00197961
0.00211338
0.00213372
0.00211954
0.00208098
0.00204539
0.00203443
0.00205567
0.00209141
0.00213984
0.00219207
0.00224659
0.00230257
0.0023714
0.00245809
0.00254796
0.00260661
0.00259968
0.0038945
0.00390218
0.00392968
0.00369933
0.00331077
0.00315986
0.00314511
0.00314095
0.00309776
0.0030445
0.00299554
0.00295473
0.00290189
0.00288723
0.00288185
0.00291492
0.0029938
0.00310679
0.00324108
0.00337681
0.00349964
0.00367246
0.0037234
0.0037788
0.00374251
0.00310342
0.00282609
0.00282522
0.00320535
0.00359994
0.00738837
0.00775669
0.00819249
0.00835712
0.0084086
0.00837614
0.00825767
0.00809465
0.00795233
0.00790624
0.00785004
0.00769946
0.00748673
0.00728711
0.00714871
0.00708752
0.00710142
0.00714797
0.00723016
0.0072694
0.00730635
0.00730147
0.00729838
0.00730887
0.00734991
0.00743444
0.00750975
0.00747463
0.00730418
0.00701608
0.00469141
0.00635274
0.00746305
0.00742702
0.00695408
0.00651353
0.00605861
0.0054607
0.00467016
0.00392844
0.00358055
0.00339723
0.00338669
0.00344246
0.00358552
0.00369328
0.00380398
0.0038978
0.00395621
0.00398624
0.00397986
0.00394445
0.00394909
0.00405536
0.00424407
0.00439175
0.00406381
0.0027646
0.00109435
0.000775045
0.00693689
0.00872647
0.00945247
0.00850155
0.00819841
0.00812046
0.00812603
0.00822264
0.00836968
0.00855513
0.00870714
0.00885452
0.00893647
0.00898869
0.00899951
0.00893955
0.00882565
0.00872605
0.00869246
0.00884201
0.00899642
0.00845473
0.00721216
0.00635898
0.00606841
0.00607581
0.00617594
0.00630397
0.00668484
0.00729716
0.0051668
0.00559212
0.00595053
0.00577731
0.00533365
0.00483015
0.00436136
0.00388474
0.00345185
0.00314407
0.00293896
0.00283815
0.00278912
0.00290507
0.00311738
0.00342089
0.00386571
0.00413483
0.0043086
0.00549735
0.00823491
0.00980972
0.00976646
0.00910656
0.00824322
0.0076549
0.00735552
0.00750927
0.00821458
0.0102153
0.00519272
0.00502158
0.00558478
0.00629214
0.00635085
0.00595122
0.00528863
0.00465861
0.00412467
0.00368954
0.00332909
0.00316806
0.00308846
0.00311412
0.00323461
0.00351136
0.00388343
0.00430322
0.00464257
0.00473651
0.00496858
0.00591975
0.00740425
0.00796228
0.00750173
0.00734947
0.00771513
0.00815485
0.00843443
0.00868763
0.00602833
0.00647565
0.0069179
0.00701584
0.00677033
0.00626556
0.00565761
0.00502368
0.00444994
0.00400229
0.00372461
0.00370153
0.00390045
0.00439532
0.0050086
0.00549228
0.00595797
0.00695867
0.00796343
0.00861365
0.00903032
0.00937193
0.0094836
0.00969499
0.00994342
0.0100986
0.0100639
0.00989828
0.00980682
0.010141
0.00839022
0.00851205
0.00841215
0.00824216
0.00824373
0.00836234
0.00847128
0.00852813
0.00854803
0.00854411
0.00855292
0.0085583
0.00855555
0.00851291
0.00845666
0.00839692
0.00835996
0.00837187
0.0083887
0.00831333
0.00804433
0.00758968
0.0070926
0.00658304
0.00630388
0.00647904
0.00723311
0.00799865
0.00828151
0.00818893
0.0158451
0.0112265
0.00911851
0.0098678
0.011676
0.0165769
0.0226385
0.0246176
0.0243738
0.0238243
0.0233642
0.0230379
0.022877
0.0228046
0.0227227
0.0225331
0.0222798
0.0218114
0.0209921
0.0195628
0.0179235
0.0168136
0.0168715
0.017975
0.0187532
0.0203979
0.0226944
0.0233926
0.0220031
0.0197933
0.000471419
0.000465193
0.00055764
0.000702839
0.000837483
0.000986765
0.00107828
0.00115083
0.00125643
0.00128164
0.00115935
0.00108155
0.00131435
0.00205402
0.000324673
0.000363863
0.000558119
0.000948377
0.0012768
0.00142066
0.00143099
0.00134948
0.00118678
0.00104619
0.000974997
0.00090809
0.000753739
0.000566022
0.000510329
0.00051654
0.000541516
0.000565792
0.000573363
0.000579947
0.000581371
0.00057508
0.000555125
0.000520287
0.000479705
0.000450121
0.000453132
0.00049076
0.000535167
0.000483469
0.00244829
0.0025899
0.00211602
0.00187016
0.00186846
0.00189864
0.00163979
0.00129347
0.00107355
0.000915618
0.000873016
0.000973028
0.00122406
0.00141613
0.00154362
0.00151324
0.00143832
0.00137801
0.00136058
0.00136642
0.00138377
0.00143392
0.0014733
0.00150988
0.00151783
0.00152035
0.00150327
0.00151552
0.00165241
0.00194275
0.00271362
0.00265065
0.0027189
0.00279057
0.00277624
0.00272895
0.00269651
0.00260424
0.00234788
0.00193832
0.00174241
0.00186317
0.0020627
0.00207343
0.00197494
0.00183743
0.00169096
0.00159053
0.00155027
0.00157219
0.00166401
0.00180466
0.00195113
0.00207904
0.00218656
0.0022697
0.00235482
0.00245454
0.00254615
0.00258329
0.00387961
0.00381953
0.00381274
0.00325753
0.00311617
0.00315155
0.00314206
0.00308876
0.00298184
0.00283949
0.00270315
0.00259413
0.00249541
0.00247789
0.00248382
0.00254771
0.00265926
0.00280682
0.00296895
0.0031604
0.00332649
0.00347675
0.00365129
0.00372625
0.00374676
0.00330557
0.00300403
0.00282557
0.00338627
0.00388952
0.00739602
0.00783759
0.00834194
0.00858103
0.00869044
0.00868385
0.00849697
0.0081246
0.00783236
0.00778492
0.00771848
0.00751975
0.00725454
0.00705192
0.00697472
0.00701867
0.00714813
0.00729662
0.00745427
0.00753919
0.00759915
0.00757779
0.00750298
0.00740517
0.00734136
0.00734424
0.00741297
0.00745663
0.00735143
0.00708954
0.00482119
0.00686262
0.00804494
0.00788157
0.00729793
0.00674309
0.00621351
0.00560609
0.00470507
0.00384668
0.00343517
0.00336757
0.00340618
0.00357306
0.00373883
0.00393383
0.00413914
0.00431787
0.00443289
0.00446581
0.00440727
0.00427277
0.00411094
0.00401965
0.00407579
0.00426558
0.00427195
0.00359028
0.00194255
0.000882262
0.00675287
0.00896469
0.0089342
0.00839523
0.00829376
0.00817803
0.0081953
0.00836744
0.00861704
0.00887683
0.00911173
0.00928113
0.00941116
0.00946218
0.00947218
0.00940266
0.00923177
0.00901242
0.00881603
0.00876774
0.00894381
0.00883118
0.00798177
0.00685553
0.00616766
0.00601914
0.00615719
0.00617184
0.00627988
0.00704356
0.00550886
0.00620099
0.00603414
0.00545138
0.00487491
0.00430101
0.00371689
0.00312439
0.00269274
0.00232819
0.00205554
0.00194901
0.0019182
0.00199115
0.00224714
0.00261829
0.00309447
0.0036251
0.00394482
0.0046055
0.00685486
0.00938934
0.0100262
0.00935462
0.00810922
0.00730298
0.0068992
0.00687948
0.00757316
0.00954924
0.00516893
0.00516234
0.00615418
0.0065923
0.00616634
0.00535228
0.00453777
0.00384623
0.00323675
0.00281886
0.00249663
0.00226144
0.00217582
0.00219434
0.00233095
0.0025764
0.00293558
0.00339169
0.00402148
0.00441535
0.00456643
0.00504019
0.00642947
0.00773677
0.00758581
0.0072353
0.00760184
0.00811671
0.00847394
0.00869799
0.00606683
0.00664867
0.00717263
0.00707072
0.00658377
0.00585119
0.00500631
0.00411212
0.00326247
0.0027167
0.00241072
0.0023085
0.00249243
0.00294646
0.00367388
0.00456558
0.00525683
0.00598916
0.00671769
0.00728761
0.00805356
0.00899401
0.00944139
0.00986982
0.0102316
0.0103317
0.0101499
0.00991799
0.00987024
0.0102926
0.00850274
0.00853377
0.00832146
0.00824505
0.00833591
0.00846996
0.00857053
0.00865177
0.00874064
0.00884589
0.00894897
0.00901368
0.009009
0.00894756
0.0088206
0.00865465
0.00846915
0.00832931
0.00829758
0.00832043
0.00821135
0.00772224
0.00699356
0.00617079
0.00555523
0.00555093
0.00637349
0.00754461
0.00816487
0.00818679
0.0161902
0.0109869
0.0102691
0.0126505
0.0155954
0.020924
0.0243568
0.0245271
0.02392
0.0233404
0.0228921
0.0225316
0.0222228
0.0219958
0.021914
0.0220591
0.0223197
0.0225145
0.022437
0.0217049
0.0201253
0.0177465
0.0165173
0.0178744
0.0190581
0.0183953
0.0197615
0.021109
0.019933
0.019277
0.000421898
0.000541282
0.000728021
0.000933616
0.00112599
0.0012025
0.00117946
0.00114419
0.00119569
0.00137065
0.00137169
0.00120419
0.00127925
0.00197372
0.000324089
0.000350358
0.000495983
0.000847039
0.00119386
0.00137674
0.00132697
0.0011285
0.000849784
0.00073161
0.000755088
0.000809027
0.000659567
0.000525738
0.000527473
0.000562114
0.000593877
0.000597857
0.0006067
0.000615128
0.000616833
0.000617929
0.000610803
0.000584196
0.000529697
0.000476285
0.000449153
0.00046872
0.00051947
0.000495922
0.00245724
0.00266023
0.00232768
0.00232938
0.00262078
0.00268483
0.00201859
0.0012944
0.00096347
0.000837753
0.000880637
0.00123655
0.00153558
0.00158801
0.00143202
0.00128954
0.00118756
0.00112881
0.00110528
0.00111201
0.00115455
0.00123021
0.001311
0.0013855
0.00148273
0.00152788
0.00151121
0.0014912
0.00157354
0.00189058
0.00271745
0.00270571
0.00281307
0.00283839
0.00272214
0.00265814
0.00267672
0.00265491
0.00244175
0.00191951
0.00174138
0.00200068
0.00206578
0.00192561
0.00170979
0.00147053
0.00128077
0.00120919
0.00117747
0.00117588
0.00122667
0.00133973
0.00156906
0.00181006
0.00200256
0.00214167
0.00225404
0.00236092
0.00247751
0.00256106
0.00387478
0.00376127
0.00341614
0.00309781
0.00317211
0.00318316
0.00311895
0.00295822
0.00277116
0.00253862
0.00237361
0.00221569
0.00212767
0.00206258
0.0020864
0.00216415
0.00230192
0.00249093
0.00269704
0.00293366
0.00314605
0.00333744
0.00349167
0.00366605
0.00372629
0.00346637
0.00328251
0.00296893
0.00380106
0.00439181
0.00738371
0.00786101
0.00845054
0.00878874
0.00900431
0.00907508
0.00878017
0.00815058
0.00775983
0.00771034
0.0076181
0.00736067
0.00704977
0.0068813
0.00689609
0.00705439
0.00728464
0.0075255
0.0077254
0.00787224
0.00794455
0.00793158
0.00782594
0.00764879
0.00746826
0.00735712
0.00735038
0.0074056
0.00736434
0.00711814
0.00491022
0.00724985
0.00863185
0.00858309
0.00793235
0.00709799
0.0064199
0.00586895
0.00497217
0.00398413
0.00350859
0.0033688
0.00343233
0.00363317
0.00385479
0.00414603
0.00446312
0.00473845
0.00492388
0.00498413
0.00491064
0.00471508
0.00443892
0.00418553
0.00406558
0.00416349
0.00426456
0.00391301
0.00250072
0.000987025
0.00682286
0.00958487
0.00861016
0.00871208
0.00845433
0.00820062
0.0082468
0.00852508
0.00886405
0.00918546
0.00945573
0.00968547
0.00982489
0.00992029
0.00990944
0.00982733
0.00964632
0.00936689
0.00906553
0.00883742
0.00887803
0.00895674
0.00850479
0.00752531
0.00663644
0.00618418
0.00623429
0.00618737
0.00613392
0.00675582
0.00661044
0.00649384
0.00574627
0.00511673
0.00459444
0.0039389
0.00320588
0.00259384
0.00211695
0.00168088
0.00141731
0.00122922
0.00119716
0.00125583
0.00149105
0.0018985
0.00243406
0.0030426
0.00357088
0.0041007
0.00576297
0.00847467
0.00992664
0.00956628
0.00811092
0.00705695
0.0066522
0.00648416
0.00706707
0.00901087
0.00510753
0.00570604
0.00675597
0.00661545
0.00575331
0.0047917
0.00397372
0.00323257
0.00266875
0.00217311
0.0017859
0.00154486
0.00142659
0.00145008
0.00156123
0.00183089
0.0022276
0.00270894
0.00328319
0.00395175
0.00428454
0.00458728
0.00566486
0.00732735
0.00761389
0.00731245
0.00768871
0.00819667
0.0085402
0.0087275
0.00634606
0.00719358
0.0074739
0.00702754
0.00630862
0.00541292
0.00426272
0.00309102
0.00221397
0.00158462
0.00121092
0.0011354
0.00124973
0.00171074
0.00244488
0.0034156
0.00447092
0.00535105
0.00596297
0.0063976
0.00734435
0.00867954
0.0094166
0.010049
0.0104365
0.0104349
0.0102156
0.0100514
0.0101045
0.0105067
0.0085371
0.00849855
0.00828829
0.00829435
0.00844818
0.00860524
0.00873922
0.00887898
0.00904156
0.00918318
0.00928692
0.00934002
0.00934779
0.00931794
0.00921983
0.0090522
0.00879933
0.00851635
0.00831337
0.00830033
0.00835395
0.00796598
0.0070582
0.00598732
0.00525303
0.00520628
0.00597268
0.0072855
0.0080767
0.00817135
0.01632
0.0116836
0.0128041
0.0164135
0.0194193
0.0231995
0.0245536
0.0241696
0.0233888
0.0226701
0.021931
0.0211371
0.0203855
0.0198855
0.0198165
0.0201538
0.0208527
0.0216199
0.0222198
0.0224267
0.021956
0.0200847
0.0166619
0.0165516
0.0204292
0.0200779
0.0178498
0.018262
0.0182677
0.019407
0.000539014
0.000705258
0.000962002
0.00124194
0.00150623
0.00158204
0.00145302
0.00119267
0.00112732
0.00125332
0.00148806
0.00132935
0.00130559
0.00193923
0.000324011
0.000336737
0.000411412
0.000677454
0.000993063
0.00114565
0.00106174
0.000782896
0.000532751
0.000474254
0.000625173
0.000726551
0.00060113
0.000514403
0.000557718
0.000598656
0.000596656
0.000609802
0.000645448
0.000666851
0.000664724
0.000645511
0.000633611
0.000619009
0.000575092
0.00050864
0.000456259
0.000456483
0.000508895
0.00049821
0.00243601
0.00275724
0.00260271
0.00281829
0.00320215
0.00311
0.00195366
0.00112338
0.000820746
0.000797507
0.00110392
0.00161192
0.00165004
0.00138818
0.00119164
0.00106107
0.00099217
0.00095651
0.000945259
0.00095249
0.000978718
0.00104903
0.00114804
0.00127762
0.00138406
0.00148888
0.0015118
0.00147484
0.00152935
0.00185837
0.00272946
0.00274719
0.00286441
0.00282669
0.00264976
0.00258067
0.00262405
0.00268472
0.00249139
0.00188529
0.00176119
0.00206508
0.00199728
0.00177092
0.00150878
0.00125884
0.00114229
0.00105893
0.000997438
0.000991871
0.00102153
0.00111413
0.00125057
0.0015083
0.00178617
0.00199203
0.00214289
0.00227382
0.00241805
0.00253388
0.00387867
0.00371239
0.00310865
0.00315608
0.00321342
0.00317567
0.00302995
0.00280923
0.00256991
0.00228968
0.00212727
0.00199058
0.00192912
0.00191389
0.00188623
0.0019236
0.00202666
0.0022095
0.00244568
0.00270402
0.00297405
0.00320534
0.00339571
0.00359708
0.00369463
0.00359735
0.0034218
0.00323247
0.00434876
0.00501704
0.00736535
0.0077913
0.00846534
0.00891281
0.00915102
0.00919459
0.0088274
0.00808278
0.00769139
0.00764789
0.00752394
0.00720803
0.00687754
0.00675289
0.00685045
0.00711147
0.00741988
0.00772791
0.00796037
0.00812854
0.00824031
0.00823045
0.00813267
0.00791894
0.00765203
0.00742975
0.00733628
0.00736148
0.00734797
0.00712477
0.00491065
0.00748502
0.00916956
0.00947836
0.00885196
0.00765245
0.00668443
0.00619205
0.00543255
0.00431963
0.00360363
0.00338877
0.00351352
0.00366841
0.00393444
0.00431007
0.00472775
0.00507972
0.00533251
0.00544491
0.00536094
0.0051088
0.00475654
0.00439215
0.0041477
0.00412733
0.00421596
0.0039964
0.00278121
0.00104547
0.00706592
0.00968208
0.00887922
0.00914072
0.00854991
0.00819209
0.00830918
0.00868895
0.00907159
0.00942008
0.00972771
0.00996172
0.0101443
0.0102167
0.0102314
0.0101575
0.00998098
0.00970135
0.00933168
0.00898248
0.00886436
0.00896913
0.00878584
0.00810686
0.00725028
0.00665067
0.0064629
0.00625187
0.00612679
0.00655204
0.00705055
0.0063322
0.00549624
0.0050218
0.0044811
0.00366412
0.0028794
0.00220984
0.00170324
0.00126664
0.00109375
0.0010037
0.00096823
0.000981501
0.00108572
0.00132034
0.00189236
0.00257042
0.00318036
0.00374035
0.0050279
0.0074854
0.00941658
0.00941392
0.00797866
0.00683328
0.00649897
0.00628763
0.00667799
0.00859137
0.00525039
0.00655871
0.00706596
0.00648135
0.0053638
0.00442941
0.00363161
0.0028733
0.00223634
0.00168459
0.00129685
0.0011104
0.00104131
0.00102565
0.00107581
0.00125288
0.00163381
0.00215446
0.00277072
0.00340261
0.00398386
0.004316
0.00522364
0.00695688
0.00752168
0.00738921
0.00798548
0.00851381
0.00869704
0.00877574
0.00715182
0.00787702
0.00757022
0.00685402
0.00610851
0.00495287
0.00341553
0.0021961
0.00125144
0.000843031
0.000672683
0.000635669
0.000723281
0.000937284
0.0014438
0.00252977
0.0036822
0.00480961
0.00549416
0.00588401
0.00697961
0.00856605
0.00940976
0.0100997
0.0105307
0.0106826
0.0107013
0.0107007
0.0107619
0.0108698
0.008547
0.00848424
0.00829637
0.00836733
0.0085707
0.00875584
0.00892768
0.00908777
0.00921432
0.00927993
0.0092777
0.00925185
0.00925285
0.00929635
0.00933076
0.00928934
0.00911076
0.00880713
0.00846266
0.0082897
0.00841341
0.00826983
0.00730499
0.00609989
0.00540316
0.00530106
0.00602515
0.00728048
0.00802454
0.0081597
0.0166583
0.0128485
0.0153075
0.0197265
0.0221172
0.0241911
0.0244941
0.0237428
0.0227846
0.0217646
0.0205858
0.0192842
0.0181079
0.0174106
0.0172608
0.0179177
0.0190677
0.0204144
0.0214673
0.0220319
0.0222998
0.022066
0.0192304
0.0146275
0.0184439
0.0230827
0.0205975
0.018567
0.0193497
0.0215361
0.000656779
0.000869389
0.00128627
0.00178791
0.00201648
0.00202872
0.00187399
0.00149662
0.00116754
0.00118068
0.00150574
0.0014065
0.00136464
0.00194867
0.000323916
0.000328653
0.000359531
0.000479468
0.000664783
0.000763724
0.000688008
0.000456706
0.000335411
0.000355803
0.000553314
0.000671239
0.000561606
0.000528861
0.000589747
0.000590701
0.000593641
0.000657247
0.000728001
0.000766482
0.000759339
0.000708
0.00065839
0.000635437
0.000594195
0.000527198
0.000460314
0.000452547
0.000505378
0.000498815
0.00243445
0.00285395
0.00289159
0.00320525
0.00348344
0.00286021
0.00152672
0.000838775
0.000728426
0.00083342
0.00145475
0.00178075
0.00143647
0.00118856
0.00103558
0.00095259
0.000930267
0.000928856
0.000933409
0.000931446
0.000928973
0.000960604
0.00103681
0.0011733
0.00131154
0.00142402
0.00149173
0.00145286
0.00149385
0.00185915
0.00275664
0.00277606
0.00291155
0.0028438
0.00264475
0.00256162
0.00257946
0.00271758
0.00253338
0.00184354
0.00182158
0.00208759
0.00194488
0.00171154
0.00144245
0.00119578
0.00106269
0.000954584
0.000914267
0.000906112
0.000924833
0.00098822
0.00110429
0.00126987
0.00157013
0.00183627
0.00203634
0.00220221
0.00236763
0.00251386
0.00387916
0.00344748
0.00300574
0.00319791
0.00323494
0.00314444
0.00296267
0.00271602
0.00245387
0.00216729
0.00202655
0.00190052
0.00187826
0.00185989
0.00186449
0.00185442
0.00187899
0.00201142
0.00225108
0.00253482
0.00281569
0.0030895
0.00330693
0.00348094
0.00365642
0.00363188
0.0034653
0.00361062
0.00505855
0.00576444
0.00733269
0.00764743
0.00831616
0.00885351
0.00911966
0.00909674
0.00858701
0.00790131
0.00762406
0.00758789
0.00743427
0.00708432
0.00674017
0.00664561
0.0068049
0.00713631
0.00750139
0.00781716
0.00809291
0.00830574
0.00841347
0.00843544
0.00834903
0.00813083
0.0078148
0.00751012
0.00734372
0.0073323
0.00732131
0.00710953
0.00483458
0.00741866
0.0095344
0.0102821
0.00987489
0.00845142
0.00707766
0.0064998
0.00596437
0.00483684
0.00380753
0.00341953
0.0035217
0.003681
0.00396485
0.00439569
0.00486097
0.00526082
0.00555629
0.0056992
0.00561546
0.00534831
0.00496107
0.00454606
0.00423544
0.0041253
0.00417082
0.00397405
0.00282412
0.00104566
0.0075225
0.00943321
0.00957037
0.00956338
0.00860999
0.00818747
0.00836643
0.00879865
0.0091996
0.00956309
0.00987548
0.0101424
0.0103328
0.0104508
0.0104618
0.0103938
0.0102158
0.00993507
0.00955296
0.00913988
0.00889901
0.00895237
0.00891312
0.00848891
0.00779737
0.00713652
0.00672012
0.00636096
0.00624458
0.00652722
0.00704026
0.00617671
0.00549453
0.00506501
0.00446235
0.00348194
0.00270102
0.00201713
0.00149807
0.00111787
0.000972581
0.000848039
0.000812624
0.000828998
0.000921659
0.00108715
0.00149509
0.00221311
0.00289892
0.00343459
0.00454757
0.00661608
0.00857662
0.00880786
0.00754261
0.00656255
0.00639211
0.00626668
0.00650882
0.0082831
0.00583207
0.00712957
0.00717619
0.00636151
0.00519323
0.00427558
0.00338545
0.00263758
0.00196549
0.00138603
0.00109509
0.000991081
0.000935315
0.000935321
0.000968204
0.00105005
0.00127376
0.0017534
0.00238935
0.00306871
0.00370925
0.00412518
0.00498303
0.00675058
0.00738682
0.00746541
0.00831628
0.0088432
0.00889243
0.0088531
0.00830162
0.00828688
0.00737107
0.0067467
0.00599394
0.00447952
0.00275705
0.00148415
0.000803082
0.00052422
0.000439737
0.000436482
0.00047416
0.000601432
0.000929549
0.00183823
0.00302556
0.00434762
0.0051502
0.00558118
0.00692756
0.00860093
0.00927355
0.00964704
0.00974157
0.00965251
0.00952859
0.00959308
0.0099788
0.0105685
0.00854608
0.00851155
0.00832482
0.00843225
0.00867096
0.00888842
0.00907271
0.00919763
0.00922366
0.00913775
0.00900307
0.00889133
0.00889482
0.00902008
0.00919567
0.00929245
0.00925575
0.00904655
0.0086759
0.0083133
0.00839559
0.00854816
0.00775826
0.00647124
0.00580615
0.00581158
0.00650068
0.00743736
0.0080255
0.0081508
0.0172416
0.0141751
0.016767
0.0220431
0.0235886
0.0245504
0.0243183
0.0233326
0.0221762
0.0208338
0.019267
0.0175336
0.0159804
0.0149413
0.0148193
0.0156576
0.0172969
0.0192327
0.0208885
0.0216726
0.0217835
0.0223749
0.0220289
0.0152195
0.0132277
0.0217972
0.0246817
0.0229395
0.0230625
0.0245809
0.000749462
0.00112717
0.00182225
0.00219233
0.00216739
0.00206554
0.00200258
0.00172528
0.00124516
0.0012071
0.00152549
0.00145944
0.00143017
0.0020049
0.000320605
0.000328033
0.00032479
0.000361669
0.000423222
0.000453154
0.000391993
0.000279951
0.000246071
0.000298598
0.000535031
0.000627312
0.000546376
0.000559669
0.000594515
0.000569828
0.000616571
0.000722812
0.000802369
0.000840283
0.000827316
0.000750458
0.000672991
0.000643101
0.000602665
0.000525575
0.000458158
0.000455277
0.00050853
0.00049743
0.00229268
0.00292058
0.00308947
0.00339865
0.00340621