/*--------------------------------*- C++ -*----------------------------------*\
| =========                 |                                                 |
| \\      /  F ield         | OpenFOAM: The Open Source CFD Toolbox           |
|  \\    /   O peration     | Version:  2.1.1                                 |
|   \\  /    A nd           | Web:      www.OpenFOAM.org                      |
|    \\/     M anipulation  |                                                 |
\*---------------------------------------------------------------------------*/
FoamFile
{
    version     2.0;
    format      ascii;
    class       volScalarField;
    location    "0.007800000";
    object      O;
}
// * * * * * * * * * * * * * * * * * * * * * * * * * * * * * * * * * * * * * //

dimensions      [0 0 0 0 0 0 0];

internalField   nonuniform List<scalar> 
12384
(
0.0010083
0.000997181
0.000978444
0.000955735
0.000932911
0.000913406
0.00090947
0.000903711
0.000905356
0.000908892
0.000913993
0.00091912
0.000926433
0.000931761
0.000454231
0.00048385
0.000501925
0.000554416
0.000553567
0.000536507
0.000521748
0.000517434
0.000510461
0.000504732
0.000503251
0.000502792
0.000504078
0.000506547
0.000510878
0.000517601
0.000514832
0.000513703
0.000515024
0.000511113
0.000509889
0.000510366
0.00051422
0.000519116
0.000523478
0.000526589
0.00051467
0.000485187
0.000430926
0.000351406
0.000163532
0.000135602
0.000175644
0.000208467
0.00023316
0.000251449
0.000274326
0.000293463
0.000303902
0.000305371
0.000311816
0.000319377
0.000321891
0.000325395
0.000316136
0.000307938
0.000296638
0.000284313
0.000281122
0.00027473
0.000262081
0.000266482
0.000261517
0.000259442
0.000254788
0.000257964
0.000251935
0.000224999
0.000235186
0.000244632
0.000122515
0.000134413
0.000141102
0.000142285
0.000143565
0.000146933
0.000150973
0.000156147
0.000161244
0.000165096
0.000167247
0.00016748
0.000167351
0.000163463
0.000161516
0.000154061
0.000151951
0.000150147
0.000149886
0.000141374
0.000140623
0.000137366
0.000135308
0.000131679
0.000126842
0.000120995
0.00011599
0.000115602
0.000114566
0.00012327
7.75563e-05
7.17835e-05
6.96027e-05
6.93612e-05
7.11072e-05
7.50024e-05
7.89172e-05
8.16778e-05
8.35312e-05
8.63241e-05
6.78314e-05
8.39514e-05
6.49045e-05
8.30802e-05
8.42242e-05
8.44756e-05
8.32876e-05
8.43824e-05
8.60477e-05
8.80932e-05
8.88571e-05
8.20069e-05
7.00904e-05
6.58224e-05
6.70734e-05
6.93927e-05
7.1329e-05
7.11429e-05
6.94667e-05
6.85558e-05
2.06395e-05
2.12538e-05
1.71984e-05
1.65942e-05
1.57095e-05
1.79156e-05
1.72015e-05
1.66216e-05
1.62319e-05
1.60503e-05
1.59898e-05
1.59202e-05
1.63323e-05
1.64755e-05
1.71866e-05
1.70861e-05
1.79488e-05
1.72432e-05
1.79997e-05
1.68844e-05
1.73779e-05
1.72388e-05
1.73837e-05
1.79924e-05
1.81719e-05
1.87662e-05
1.91736e-05
2.0798e-05
2.51368e-05
2.61837e-05
3.22811e-05
2.27337e-05
1.44009e-05
1.15321e-05
1.1406e-05
1.24281e-05
1.40032e-05
1.70581e-05
1.99527e-05
2.31576e-05
2.62084e-05
2.86978e-05
3.05235e-05
3.17298e-05
3.21246e-05
3.17374e-05
3.44425e-05
3.38727e-05
3.28611e-05
3.19388e-05
3.2979e-05
3.3465e-05
3.01967e-05
3.16459e-05
3.41186e-05
3.77315e-05
0.000112091
0.000184287
0.000170014
0.000160758
1.79156e-05
1.02047e-05
8.44473e-06
8.34337e-06
9.82232e-06
1.12708e-05
1.23106e-05
1.26444e-05
1.2398e-05
1.4998e-05
1.47502e-05
1.264e-05
1.30898e-05
1.19773e-05
1.18497e-05
1.3096e-05
1.35578e-05
1.10687e-05
1.1695e-05
1.16559e-05
1.51721e-05
2.286e-05
2.31934e-05
2.28856e-05
2.31252e-05
2.26668e-05
2.24167e-05
2.14589e-05
2.11203e-05
2.12353e-05
3.83221e-05
4.06443e-05
3.99689e-05
3.81465e-05
3.73804e-05
3.74692e-05
3.75308e-05
3.67391e-05
3.76602e-05
4.01589e-05
4.34167e-05
3.97696e-05
4.18071e-05
4.5058e-05
4.22536e-05
4.68851e-05
5.14381e-05
5.57992e-05
2.35959e-05
7.37156e-06
5.59585e-06
6.27664e-06
6.66288e-06
7.66403e-06
8.62664e-06
9.37293e-06
9.03856e-06
6.55775e-06
7.43585e-06
4.85287e-06
3.33703e-05
2.89399e-05
2.68399e-05
2.44149e-05
2.29774e-05
2.31506e-05
2.29259e-05
2.27549e-05
2.20925e-05
2.04635e-05
2.55315e-05
2.4267e-05
2.1545e-05
2.50764e-05
2.7094e-05
2.67642e-05
2.81673e-05
2.4567e-05
3.28309e-05
2.61321e-05
1.08411e-05
1.05492e-05
1.05944e-05
1.02837e-05
1.01399e-05
9.97011e-06
9.30114e-06
9.10211e-06
8.39232e-06
7.63303e-06
1.18107e-05
1.72422e-05
1.64819e-05
1.67579e-05
1.70974e-05
1.72489e-05
1.74221e-05
1.72819e-05
6.9292e-06
6.48631e-06
1.29138e-05
6.90884e-06
7.72161e-06
1.14857e-05
1.46592e-05
1.71229e-05
3.43572e-06
4.75301e-06
4.5292e-06
5.00907e-06
4.7913e-06
5.36358e-06
2.65465e-06
5.5174e-06
5.34412e-06
5.63267e-06
5.7421e-06
5.96939e-06
5.64787e-06
5.99301e-06
6.40575e-06
6.39689e-06
5.65374e-06
6.20101e-06
6.35901e-06
5.81245e-06
4.96392e-06
4.6169e-06
5.55417e-06
5.48017e-06
4.87767e-06
4.83957e-06
4.61746e-06
4.66743e-06
4.58912e-06
4.57354e-06
4.60511e-06
4.6106e-06
4.61332e-06
4.62129e-06
4.7383e-06
4.76307e-06
4.79384e-06
4.55929e-06
4.46229e-06
3.93436e-06
4.21975e-06
4.274e-06
5.13809e-06
5.42174e-06
2.22763e-06
2.55886e-06
3.54894e-06
3.74215e-06
3.80747e-06
3.56294e-06
1.93057e-06
3.50035e-07
4.32997e-07
4.51871e-07
4.54192e-07
2.93142e-07
3.36306e-07
3.69882e-07
4.26858e-07
4.72114e-07
5.29698e-07
7.06527e-07
7.44714e-07
7.6841e-07
7.85179e-07
6.14099e-07
5.48535e-07
4.63916e-07
3.78724e-07
4.46403e-07
4.49088e-07
1.6903e-07
3.30853e-07
7.88463e-07
0.000989518
0.000936689
0.000865046
0.000837835
0.000827823
0.000812808
0.000821513
0.000823377
0.000834399
0.000842496
0.000852571
0.000874153
0.000898941
0.000925798
0.000453513
0.000489908
0.000521713
0.000566336
0.000556676
0.000527739
0.00049858
0.000488257
0.000486901
0.000495632
0.000495875
0.000491477
0.000497224
0.000503513
0.000508107
0.000499424
0.000493203
0.000489563
0.000488317
0.000491233
0.000489354
0.000494772
0.000502127
0.000503329
0.000511168
0.000520417
0.000521987
0.000505682
0.000469346
0.000423476
0.000158855
0.000140867
0.000193289
0.000240495
0.000290969
0.000331922
0.000355634
0.000376045
0.000387895
0.000397834
0.000403548
0.000402259
0.000389548
0.000371897
0.000342033
0.000323317
0.000299452
0.000287343
0.000283589
0.00027551
0.000271903
0.000266707
0.000262493
0.000263086
0.000262756
0.000256454
0.000258733
0.000245905
0.000223396
0.000216638
0.000124889
0.000133759
0.000135909
0.000134506
0.000135004
0.000140061
0.000148589
0.000162062
0.00017933
0.00019637
0.000201204
0.00020494
0.000199957
0.000186097
0.000175351
0.000164492
0.000164063
0.00016115
0.000156264
0.000149245
0.000147498
0.000144653
0.000141606
0.000138521
0.00013436
0.000128271
0.000122688
0.000117851
0.00011645
0.000119064
7.81519e-05
7.72156e-05
7.52745e-05
7.5238e-05
8.16847e-05
7.41993e-05
7.5482e-05
8.53836e-05
9.19209e-05
9.39442e-05
9.64764e-05
9.45133e-05
9.48012e-05
9.44553e-05
9.09959e-05
8.94524e-05
8.33245e-05
7.69928e-05
6.95566e-05
9.08987e-05
9.13241e-05
8.7943e-05
7.83519e-05
6.83011e-05
7.02582e-05
6.9571e-05
8.68248e-05
8.02216e-05
5.83649e-05
7.1288e-05
2.09847e-05
2.09598e-05
1.65666e-05
1.50961e-05
1.64327e-05
1.49825e-05
1.41278e-05
1.38153e-05
1.36811e-05
1.37017e-05
1.37371e-05
1.45381e-05
1.60193e-05
1.84292e-05
2.0651e-05
2.24888e-05
2.15775e-05
2.22154e-05
2.25849e-05
2.2125e-05
2.37367e-05
2.31858e-05
2.17946e-05
2.09102e-05
1.99118e-05
1.93201e-05
1.91642e-05
1.98506e-05
2.21847e-05
2.59479e-05
3.1574e-05
1.7222e-05
1.71356e-05
1.60466e-05
1.64808e-05
1.77115e-05
1.33335e-05
1.89443e-05
2.52238e-05
3.47256e-05
3.81026e-05
4.07724e-05
4.23181e-05
4.27857e-05
4.24112e-05
4.16509e-05
4.06656e-05
3.96875e-05
3.86615e-05
3.81698e-05
3.75216e-05
3.76414e-05
3.75024e-05
3.25524e-05
3.30618e-05
3.56063e-05
3.89321e-05
0.000118252
0.00017017
0.000159821
1.83159e-05
9.96361e-06
7.82485e-06
9.97766e-06
1.35278e-05
1.51255e-05
1.53348e-05
1.46966e-05
1.70062e-05
1.54862e-05
1.37967e-05
1.2557e-05
1.18031e-05
1.08634e-05
1.10449e-05
1.16312e-05
1.25968e-05
1.33548e-05
1.04481e-05
1.07805e-05
1.26717e-05
2.02644e-05
2.39324e-05
2.49116e-05
1.07564e-05
1.04152e-05
2.4917e-05
2.3691e-05
2.15256e-05
1.99009e-05
3.59937e-05
3.70495e-05
3.28971e-05
3.07119e-05
3.15494e-05
3.49248e-05
3.86085e-05
4.22497e-05
4.9264e-05
5.12318e-05
5.31485e-05
5.30073e-05
5.27093e-05
5.34818e-05
5.35457e-05
5.27802e-05
4.85342e-05
5.29869e-05
4.58139e-05
2.00736e-05
6.03571e-06
9.01376e-06
7.55998e-06
9.67806e-06
9.6862e-06
1.19933e-05
1.349e-05
1.40241e-05
8.72224e-06
6.27596e-06
3.23209e-05
3.46467e-05
2.61492e-05
2.04202e-05
1.13282e-05
1.26854e-05
2.32059e-05
2.59985e-05
2.80402e-05
3.46777e-05
3.41657e-05
3.77792e-05
3.52966e-05
3.47893e-05
3.46985e-05
3.00508e-05
2.92919e-05
2.90054e-05
3.11302e-05
3.18513e-05
1.55641e-05
1.28278e-05
1.05884e-05
1.08881e-05
1.14083e-05
1.09961e-05
9.87833e-06
9.32993e-06
8.89717e-06
7.92535e-06
1.19423e-05
6.52823e-06
1.51588e-05
1.55961e-05
1.60053e-05
1.62926e-05
6.37279e-06
1.54461e-05
1.73709e-05
1.86909e-05
1.9585e-05
1.9402e-05
1.83818e-05
1.6482e-05
1.10986e-05
1.31848e-05
1.43135e-05
8.22299e-06
5.3542e-06
5.25776e-06
5.11378e-06
2.35748e-06
1.89151e-06
2.59746e-06
5.20692e-06
4.93522e-06
5.211e-06
5.58556e-06
5.9759e-06
5.95572e-06
6.74855e-06
5.67062e-06
6.33517e-06
6.71714e-06
6.27124e-06
5.68585e-06
5.02812e-06
4.82368e-06
4.45129e-06
4.34761e-06
4.09922e-06
4.09154e-06
4.09622e-06
5.75283e-06
5.6276e-06
5.39813e-06
5.07671e-06
4.8449e-06
4.7936e-06
4.96524e-06
5.49203e-06
6.1373e-06
6.87291e-06
7.12328e-06
7.0447e-06
6.1401e-06
5.19818e-06
4.63971e-06
5.01611e-06
5.47368e-06
1.53301e-06
1.95514e-06
3.92405e-06
2.08041e-06
4.01942e-06
2.11661e-06
9.49296e-07
4.17559e-07
4.26713e-07
4.86105e-07
4.1877e-07
5.17699e-07
6.09837e-07
6.90525e-07
7.52608e-07
7.91408e-07
8.38185e-07
3.19323e-07
8.69199e-07
1.00478e-06
1.08176e-06
1.30227e-06
9.62651e-07
6.26701e-07
7.01433e-07
5.16837e-07
2.05229e-07
1.90978e-07
5.62041e-07
8.8458e-07
0.000906342
0.000825767
0.00078696
0.00079188
0.000803079
0.000806533
0.000815149
0.000826666
0.00085308
0.000852589
0.000848043
0.000846919
0.000884589
0.000915856
0.000455488
0.000494798
0.000544538
0.000587621
0.000567379
0.000537737
0.000528645
0.000535706
0.000554347
0.00055982
0.000542251
0.000517507
0.000501993
0.000506127
0.000499712
0.000491094
0.000489871
0.000491722
0.000498958
0.000499597
0.000503916
0.000504348
0.000504166
0.000502722
0.000507936
0.000515412
0.000522695
0.000516139
0.000489402
0.000450583
0.000154063
0.000142058
0.00020333
0.000257485
0.000296209
0.00032479
0.000336084
0.000358989
0.000385201
0.000405979
0.00041564
0.000398933
0.000361303
0.000319241
0.000280771
0.000267606
0.000260448
0.00025836
0.000254733
0.00025394
0.000255909
0.000254425
0.000257634
0.000259774
0.000258238
0.000260017
0.000259688
0.000257636
0.000238233
0.00021022
0.000122879
0.000128336
0.000125661
0.000119949
0.000118593
0.000120987
0.00012909
0.000144316
0.000172656
0.000197055
0.000219585
0.000216496
0.000200752
0.000179479
0.000167736
0.000167891
0.000169711
0.000165294
0.000161001
0.000158094
0.000155054
0.000150214
0.000147542
0.000144162
0.000140609
0.000136781
0.000130406
0.000124186
0.000121631
0.000119564
7.89384e-05
7.88471e-05
7.77859e-05
8.21485e-05
8.20893e-05
8.88972e-05
0.00010045
0.000107682
0.00010277
0.000107349
0.000114572
0.000128323
0.000122156
0.000130617
0.000129624
0.000125504
0.000119949
0.000108735
9.49756e-05
8.10572e-05
7.09321e-05
9.2055e-05
8.49594e-05
7.30207e-05
7.11076e-05
8.16551e-05
0.000102311
0.000102603
7.51103e-05
7.48622e-05
2.0736e-05
1.7568e-05
1.58185e-05
1.3948e-05
1.57138e-05
1.47828e-05
1.47171e-05
1.45741e-05
1.46239e-05
1.67144e-05
1.70628e-05
1.59511e-05
1.98423e-05
2.36175e-05
2.50125e-05
2.68914e-05
2.6266e-05
2.62493e-05
2.70308e-05
2.68501e-05
2.6572e-05
2.57344e-05
2.68491e-05
2.39847e-05
2.13532e-05
2.16016e-05
2.00605e-05
1.96738e-05
2.0941e-05
2.43726e-05
3.00865e-05
1.04369e-05
1.45371e-05
1.41046e-05
1.56435e-05
1.74751e-05
1.38565e-05
2.02444e-05
3.19706e-05
3.82291e-05
4.13529e-05
2.38767e-05
2.57217e-05
2.42155e-05
4.31554e-05
4.24478e-05
4.14225e-05
4.06602e-05
4.00313e-05
3.9812e-05
3.96303e-05
3.99116e-05
4.00942e-05
3.89131e-05
3.41347e-05
3.415e-05
3.83893e-05
5.75763e-05
0.000126933
0.00016283
2.12772e-05
1.38663e-05
7.62282e-06
1.36514e-05
1.54354e-05
1.56658e-05
1.4999e-05
1.68732e-05
1.51552e-05
1.29369e-05
1.13053e-05
9.82025e-06
8.44308e-06
8.58953e-06
8.04926e-06
8.90825e-06
1.0152e-05
1.1651e-05
1.26619e-05
1.3251e-05
1.01435e-05
1.36459e-05
2.16865e-05
8.63646e-06
2.22428e-05
2.16785e-05
1.27286e-05
1.18162e-05
2.43605e-05
2.02503e-05
3.38148e-05
2.95553e-05
2.51679e-05
2.72604e-05
3.39174e-05
4.20788e-05
4.92826e-05
5.98556e-05
4.49489e-05
6.18274e-05
7.19879e-05
8.60404e-05
7.90703e-05
7.28404e-05
6.00329e-05
4.39226e-05
5.91969e-05
5.72073e-05
5.30697e-05
2.92041e-05
1.38846e-05
8.3089e-06
8.68094e-06
8.66009e-06
1.10563e-05
1.44256e-05
1.58748e-05
1.57698e-05
1.45488e-05
7.64048e-06
3.0713e-05
3.37397e-05
2.26519e-05
9.98708e-06
1.10537e-05
2.31648e-05
2.87073e-05
3.92514e-05
4.2774e-05
4.8314e-05
3.3e-05
4.57156e-05
4.55233e-05
3.99459e-05
3.34492e-05
4.31368e-05
3.92756e-05
3.65306e-05
3.08597e-05
3.14268e-05
2.88859e-05
1.412e-05
1.19303e-05
1.09837e-05
1.23943e-05
1.23923e-05
1.07529e-05
9.1501e-06
8.85548e-06
8.03814e-06
1.11939e-05
1.6336e-05
1.50285e-05
1.49128e-05
1.49011e-05
1.0786e-05
1.52727e-05
2.02778e-05
2.8908e-05
3.26371e-05
3.50538e-05
3.58429e-05
3.40616e-05
3.04318e-05
2.1624e-05
2.05954e-05
1.205e-05
1.52076e-05
9.15982e-06
6.39371e-06
4.41338e-06
3.61639e-06
1.74477e-06
4.99875e-06
4.54602e-06
4.83326e-06
5.13715e-06
5.48099e-06
5.88664e-06
5.82658e-06
6.29989e-06
4.89373e-06
5.13813e-06
6.91676e-06
6.28041e-06
6.27928e-06
5.93164e-06
6.48951e-06
6.68596e-06
5.21743e-06
5.44201e-06
5.83027e-06
5.82441e-06
5.45106e-06
6.81146e-06
6.16794e-06
5.27185e-06
6.0527e-06
5.47246e-06
5.32394e-06
5.85912e-06
6.90531e-06
8.43342e-06
9.55111e-06
2.81286e-06
1.01986e-05
7.65579e-06
5.55554e-06
5.07303e-06
5.37733e-06
1.12258e-06
2.45558e-06
2.4369e-06
3.90638e-06
2.2306e-06
1.26517e-06
4.72757e-07
4.43163e-07
4.61712e-07
2.97493e-07
4.7668e-07
6.3326e-07
5.25945e-07
5.85149e-07
6.35008e-07
6.51229e-07
8.52051e-07
8.3763e-07
9.55899e-07
6.01719e-07
1.15064e-06
1.45784e-06
1.43063e-06
1.2154e-06
8.95693e-07
8.82788e-07
5.60973e-07
4.89206e-07
6.54911e-07
6.22099e-07
0.000780955
0.000766416
0.000788592
0.000787999
0.00077188
0.000742716
0.000727713
0.000738567
0.000782055
0.000836163
0.000853421
0.000843879
0.00086083
0.000894802
0.000457277
0.000494074
0.000546578
0.000608853
0.000598987
0.000584201
0.000602568
0.000633258
0.000653743
0.000637
0.000595319
0.000552067
0.000512303
0.000505982
0.000492743
0.00049429
0.000508793
0.00052574
0.000539046
0.000550404
0.000549234
0.000540065
0.000528328
0.000517701
0.000514581
0.00051819
0.00052352
0.000522734
0.000502462
0.000457199
0.000160089
0.000148518
0.000195722
0.000232689
0.000246175
0.000243617
0.000270073
0.000317395
0.000370104
0.000400294
0.000397195
0.000353053
0.000294185
0.000267188
0.000253437
0.000256147
0.00026386
0.000266832
0.000271276
0.000269547
0.000266682
0.000265727
0.00026292
0.000257805
0.000256104
0.000258718
0.000257461
0.000261767
0.000251562
0.000217276
0.000119626
0.000121939
0.000115566
0.00010974
0.000120602
0.000123349
0.000125832
0.000127876
0.000158146
0.000196932
0.000221837
0.000205733
0.000183369
0.000169962
0.000176201
0.000185073
0.000191766
0.000196015
0.000198361
0.000192198
0.000188949
0.000180297
0.000169661
0.000153682
0.000149275
0.000143869
0.000137701
0.000132873
0.000126584
0.000123742
7.9747e-05
8.09564e-05
7.94839e-05
8.41403e-05
9.31345e-05
0.000104529
0.000100417
0.00010967
0.00012383
0.000137621
0.000152758
0.000162889
0.000167416
0.000171372
0.000167957
0.000161604
0.000147728
0.000132844
0.000114412
0.000105143
8.66127e-05
7.43387e-05
9.10378e-05
8.24581e-05
7.3723e-05
6.82381e-05
9.17332e-05
0.000103538
5.9081e-05
6.7477e-05
2.03772e-05
1.71021e-05
1.55215e-05
1.41864e-05
1.28867e-05
1.2154e-05
1.56496e-05
1.60201e-05
1.53184e-05
1.73815e-05
1.75787e-05
1.83415e-05
2.34547e-05
2.60145e-05
2.79852e-05
2.73435e-05
2.7472e-05
2.96138e-05
2.97111e-05
2.76463e-05
2.71306e-05
2.66497e-05
2.93943e-05
2.76382e-05
2.63759e-05
2.25652e-05
2.19504e-05
2.02216e-05
2.04174e-05
2.34226e-05
2.85757e-05
1.67895e-05
1.0144e-05
1.23098e-05
1.45305e-05
1.68454e-05
1.22606e-05
1.89167e-05
3.12374e-05
3.83318e-05
1.99258e-05
2.43802e-05
2.4562e-05
4.32088e-05
4.25983e-05
3.87351e-05
3.77064e-05
3.69459e-05
3.70857e-05
3.63187e-05
3.69535e-05
3.66687e-05
3.79662e-05
3.77714e-05
3.90197e-05
3.478e-05
3.59017e-05
4.47775e-05
9.86391e-05
0.000150781
2.10959e-05
1.22437e-05
1.07849e-05
1.41913e-05
1.48051e-05
1.50015e-05
1.7191e-05
1.51997e-05
1.27723e-05
1.05882e-05
8.55886e-06
7.20095e-06
5.85234e-06
5.10588e-06
6.13536e-06
6.47383e-06
7.85058e-06
9.3969e-06
1.09771e-05
1.19196e-05
1.25215e-05
1.06505e-05
1.83528e-05
2.25319e-05
1.95522e-05
2.11767e-05
2.06817e-05
1.36201e-05
1.34636e-05
2.21554e-05
3.06758e-05
2.00045e-05
2.22374e-05
3.1501e-05
4.07575e-05
5.055e-05
6.31211e-05
6.81036e-05
9.8885e-05
0.000115327
0.000132557
0.000141635
0.000142597
0.000136274
0.000120922
9.50812e-05
6.52404e-05
6.28032e-05
6.03558e-05
4.59035e-05
2.28409e-05
4.9046e-06
8.04251e-06
7.29983e-06
1.23315e-05
1.73606e-05
1.89072e-05
1.87434e-05
1.72203e-05
9.61549e-06
2.97945e-05
3.0801e-05
1.90369e-05
2.59615e-05
1.34851e-05
2.73705e-05
3.96447e-05
4.5716e-05
4.27849e-05
6.25112e-05
8.26957e-05
8.64107e-05
8.9197e-05
8.61308e-05
7.96882e-05
7.24173e-05
4.63547e-05
2.39408e-05
3.79288e-05
3.27855e-05
3.25353e-05
2.62283e-05
1.67826e-05
1.04379e-05
1.23094e-05
1.3202e-05
1.11447e-05
9.26702e-06
8.58001e-06
8.3381e-06
1.49372e-05
1.50646e-05
1.46593e-05
1.43672e-05
1.52677e-05
1.09421e-05
2.31942e-05
3.08734e-05
2.42478e-05
4.92034e-05
7.09535e-05
7.57563e-05
6.29328e-05
4.34376e-05
3.66429e-05
2.74703e-05
2.27364e-05
1.3501e-05
1.61144e-05
1.45917e-05
1.01254e-05
3.29812e-06
2.34668e-06
4.95955e-06
4.63794e-06
5.18059e-06
5.48404e-06
5.63997e-06
5.37708e-06
5.74287e-06
4.89975e-06
5.61001e-06
5.56503e-06
7.19709e-06
7.06244e-06
5.33638e-06
6.08928e-06
6.96238e-06
6.07026e-06
6.57367e-06
7.7038e-06
7.54526e-06
4.79965e-06
7.26768e-06
6.27765e-06
7.14313e-06
5.6547e-06
6.00754e-06
6.18328e-06
5.28615e-06
5.27732e-06
6.5563e-06
8.77004e-06
4.51061e-06
1.0369e-05
9.36173e-06
1.20101e-06
6.74405e-06
5.30105e-06
5.36504e-06
4.83567e-07
2.73088e-06
3.9133e-06
1.62812e-06
9.31537e-07
6.91742e-07
4.51475e-07
4.77306e-07
3.43633e-07
5.90937e-07
6.0517e-07
8.19629e-07
9.63796e-07
1.07615e-06
1.13373e-06
1.10711e-06
1.00271e-06
8.69224e-07
7.32784e-07
8.71161e-07
5.81595e-07
1.19704e-06
1.48415e-06
1.16533e-06
6.82696e-07
9.55629e-07
7.46187e-07
7.38404e-07
7.01029e-07
6.70047e-07
0.000746702
0.000785718
0.00077547
0.000739773
0.000699377
0.000681509
0.000653942
0.000651333
0.000674951
0.000755012
0.000842946
0.000842288
0.000849254
0.000890991
0.000457012
0.000485033
0.000536775
0.000622692
0.000644913
0.000646421
0.00066749
0.000697771
0.000688232
0.000654516
0.000615606
0.000558445
0.000511043
0.00049463
0.000495464
0.00051799
0.00055041
0.000580247
0.000611561
0.000632403
0.000625571
0.000609043
0.000582385
0.000549869
0.000531456
0.00052359
0.000527312
0.000529082
0.000511227
0.000463934
0.000157915
0.000140086
0.000171663
0.000185486
0.000161485
0.000150259
0.000213068
0.000304903
0.00037918
0.000401984
0.00036543
0.000287971
0.000255192
0.000253252
0.000267882
0.000285647
0.000304223
0.000317524
0.000322464
0.000321065
0.000311825
0.0002981
0.000281752
0.000269
0.000258439
0.000253544
0.00025559
0.000262806
0.00025842
0.000223094
0.000115371
0.000125343
0.000117277
0.000114693
0.000121716
0.000124413
0.000124759
0.000127673
0.000146044
0.000202467
0.000220298
0.000191582
0.000169541
0.000179214
0.000194506
0.000208042
0.000210933
0.00022271
0.000229624
0.00022876
0.000220113
0.000209352
0.00019428
0.000174361
0.000160525
0.000151599
0.000147421
0.000139475
0.000131546
0.00012842
8.04355e-05
7.84532e-05
6.90201e-05
9.27041e-05
0.00010339
9.77252e-05
0.000108234
0.000126607
0.000149689
0.000170068
0.000190478
0.000200191
0.000213085
0.000218743
0.000216392
0.00020748
0.000198289
0.000171336
0.000144988
0.000129827
0.00010575
8.62952e-05
7.33538e-05
8.55182e-05
7.61227e-05
5.97036e-05
6.23669e-05
9.68269e-05
6.78066e-05
5.66154e-05
1.98874e-05
1.95806e-05
1.5444e-05
1.43729e-05
1.32759e-05
1.30147e-05
1.31367e-05
1.60546e-05
1.57031e-05
1.7244e-05
1.85013e-05
2.04963e-05
2.48199e-05
2.69636e-05
2.83025e-05
2.83833e-05
2.84457e-05
2.92344e-05
2.90111e-05
2.92232e-05
2.68878e-05
2.76688e-05
2.9625e-05
2.75021e-05
2.78755e-05
2.63245e-05
2.21114e-05
2.13902e-05
2.02542e-05
2.28195e-05
2.72257e-05
1.5562e-05
7.97349e-06
7.48333e-06
1.25391e-05
1.61893e-05
1.88328e-05
1.67261e-05
2.44419e-05
3.69235e-05
4.10868e-05
2.33982e-05
2.26501e-05
4.25278e-05
4.16648e-05
3.78547e-05
3.70274e-05
3.62583e-05
3.08215e-05
3.15902e-05
3.11063e-05
3.64717e-05
3.73172e-05
3.9464e-05
3.98805e-05
3.55867e-05
3.55178e-05
3.94558e-05
6.79783e-05
0.000139151
2.0333e-05
1.22558e-05
1.25423e-05
1.26047e-05
1.38641e-05
1.74812e-05
1.59649e-05
1.36237e-05
1.06211e-05
8.21577e-06
6.77968e-06
1.04264e-05
1.00397e-05
9.75768e-06
1.01188e-05
9.92562e-06
1.05106e-05
6.83149e-06
8.82089e-06
1.06753e-05
1.14986e-05
1.257e-05
1.56499e-05
1.95872e-05
2.2883e-05
1.85978e-05
1.80828e-05
1.27691e-05
1.65454e-05
2.41073e-05
2.70311e-05
2.74463e-05
2.60491e-05
3.63522e-05
4.482e-05
6.00865e-05
6.51505e-05
0.000104952
0.000137152
0.000157507
0.000179617
0.000182024
0.000184689
0.000185499
0.000170555
0.000145773
0.000108778
6.68384e-05
6.41827e-05
5.82311e-05
2.81793e-05
1.10981e-05
8.40102e-06
9.112e-06
1.24513e-05
1.93664e-05
2.12047e-05
2.10418e-05
1.92741e-05
8.61605e-06
3.09281e-05
2.10651e-05
2.65952e-05
2.59049e-05
2.29332e-05
3.62975e-05
4.35741e-05
4.29601e-05
7.18098e-05
9.37868e-05
0.000112253
0.000125132
0.000127917
0.000127517
0.000114627
0.000103812
8.7957e-05
5.73895e-05
2.77848e-05
3.78859e-05
3.72819e-05
3.17008e-05
1.65441e-05
1.22493e-05
1.24479e-05
1.33109e-05
1.138e-05
8.96455e-06
8.48532e-06
8.26879e-06
1.01825e-05
1.45203e-05
1.35365e-05
1.43149e-05
5.86441e-06
1.7791e-05
2.74948e-05
4.07214e-05
8.03188e-05
0.000108762
0.000125216
0.000127896
0.000121465
9.89548e-05
6.65976e-05
2.60325e-05
2.80483e-05
1.97768e-05
1.34073e-05
1.14325e-05
1.26758e-05
4.74581e-06
2.38415e-06
4.4761e-06
4.7754e-06
4.6971e-06
5.16799e-06
5.3477e-06
5.47067e-06
5.51267e-06
5.28799e-06
6.10687e-06
5.95213e-06
5.87119e-06
6.28501e-06
7.21205e-06
6.53485e-06
5.26111e-06
7.48564e-06
5.18871e-06
6.59235e-06
7.05512e-06
6.59944e-06
5.87971e-06
4.41565e-06
5.59435e-06
5.96947e-06
5.9817e-06
5.72776e-06
5.58223e-06
4.86553e-06
5.75764e-06
8.64146e-06
6.14844e-06
1.36239e-05
1.26679e-05
5.42731e-06
7.46447e-06
5.60528e-06
5.45029e-06
4.48469e-07
2.31001e-06
7.60818e-07
7.03573e-07
7.47346e-07
4.32792e-07
4.80598e-07
3.22613e-07
6.10863e-07
7.13618e-07
1.03553e-06
1.33188e-06
1.4859e-06
1.04491e-06
1.20502e-06
9.04872e-07
1.40301e-06
1.08305e-06
1.03082e-06
8.20318e-07
8.63146e-07
5.55647e-07
1.59481e-06
1.40719e-06
7.37616e-07
3.94563e-07
1.23773e-06
9.47689e-07
9.05443e-07
5.33976e-07
0.00080636
0.00078608
0.000736551
0.000705559
0.000699197
0.000717933
0.000692932
0.000647995
0.000628703
0.000677056
0.000791101
0.000845147
0.000849055
0.000877098
0.000456748
0.000478125
0.000508677
0.000619117
0.000668712
0.000694738
0.000700853
0.000706122
0.000630216
0.000595233
0.000602767
0.000547096
0.000510707
0.000489984
0.000510861
0.000555254
0.00061219
0.000669348
0.000723706
0.000738055
0.000730541
0.000692225
0.000645158
0.000591669
0.000555593
0.000539219
0.000533419
0.000531275
0.000508221
0.000463298
0.00015918
0.000129306
0.000138844
0.000126839
8.93702e-05
9.76895e-05
0.000215574
0.000335014
0.000394752
0.00038763
0.000308752
0.000247678
0.000247777
0.000272703
0.000306302
0.000332015
0.000349418
0.000351316
0.000351517
0.000352449
0.000348209
0.000337375
0.0003163
0.000293351
0.000269933
0.00025927
0.000256725
0.000263123
0.000261709
0.000225178
0.000113576
0.000120734
0.000111591
0.000114315
0.00012542
0.000129572
0.000123953
0.000123959
0.000136136
0.000205259
0.00021423
0.000174004
0.000173723
0.000190281
0.000204894
0.000215974
0.000234807
0.000249014
0.000255077
0.000252819
0.000247198
0.00023607
0.000217512
0.000200273
0.000181558
0.000164508
0.000154348
0.00014617
0.000138686
0.000130728
8.09588e-05
8.33702e-05
9.52676e-05
0.000101725
9.30838e-05
0.00010013
0.000117736
0.000144147
0.000169976
0.000195467
0.000218145
0.000227267
0.000242191
0.000244946
0.000238883
0.00023697
0.000229008
0.000207965
0.000181743
0.000145143
0.00012351
9.88259e-05
8.23526e-05
9.05088e-05
8.16479e-05
7.6482e-05
5.79676e-05
6.77079e-05
5.65382e-05
4.24638e-05
1.9759e-05
1.96787e-05
1.51947e-05
1.42441e-05
9.57765e-06
9.50968e-06
1.24923e-05
1.60406e-05
1.79347e-05
1.74935e-05
1.89126e-05
2.33216e-05
2.5606e-05
2.64465e-05
2.61406e-05
2.84114e-05
2.81972e-05
2.93032e-05
3.02931e-05
3.01922e-05
3.02839e-05
2.94487e-05
2.9606e-05
2.85601e-05
2.79679e-05
2.6118e-05
2.42342e-05
2.24837e-05
2.03758e-05
2.23978e-05
2.71106e-05
1.29577e-05
6.14432e-06
4.77118e-06
7.62797e-06
1.29261e-05
1.76333e-05
1.50522e-05
2.04366e-05
3.42678e-05
4.00409e-05
2.13538e-05
4.21575e-05
4.15452e-05
4.08058e-05
3.75756e-05
3.58871e-05
3.0547e-05
3.03586e-05
2.99393e-05
3.1763e-05
3.21288e-05
3.61149e-05
4.00379e-05
3.76882e-05
3.62098e-05
3.5535e-05
3.86514e-05
5.56083e-05
0.000132145
1.93796e-05
1.22385e-05
1.06693e-05
9.85826e-06
1.30182e-05
1.70633e-05
1.49001e-05
1.20686e-05
8.56233e-06
7.41944e-06
1.06262e-05
9.70143e-06
9.14092e-06
8.89925e-06
9.10631e-06
9.45239e-06
9.75812e-06
1.09747e-05
6.92299e-06
8.95093e-06
1.02332e-05
1.12612e-05
1.34668e-05
1.6747e-05
2.02796e-05
2.39877e-05
2.47358e-05
1.17415e-05
1.73885e-05
2.58431e-05
2.40117e-05
1.51248e-05
2.98999e-05
3.73809e-05
5.09056e-05
6.40923e-05
8.77826e-05
0.000128713
0.000162828
0.000187347
0.000211417
0.000220059
0.000231058
0.000222681
0.000206309
0.000179355
0.00014739
9.80529e-05
5.82807e-05
6.18026e-05
4.09434e-05
1.78435e-05
7.37571e-06
3.95217e-06
1.34509e-05
2.12517e-05
2.27235e-05
1.01437e-05
2.1236e-05
1.14719e-05
2.94246e-05
2.65366e-05
2.70582e-05
2.60061e-05
2.94829e-05
3.75998e-05
4.9217e-05
6.10138e-05
9.21375e-05
0.000118053
0.000136122
0.000145613
0.000149373
0.000142137
0.000136724
0.000126862
0.000108673
8.85528e-05
5.60034e-05
2.35345e-05
3.85364e-05
3.73871e-05
2.28416e-05
1.45484e-05
1.1748e-05
1.3221e-05
1.06301e-05
8.41639e-06
7.92169e-06
6.30827e-06
1.43884e-05
1.19338e-05
1.28169e-05
1.321e-05
1.05137e-05
2.06788e-05
2.54163e-05
8.15462e-05
0.000122943
0.000156065
0.000179419
0.000186023
0.000173612
0.000147944
0.000113382
6.70384e-05
3.7961e-05
2.85661e-05
1.85632e-05
1.82876e-05
1.43964e-05
5.27926e-06
2.56065e-06
4.60531e-06
4.8431e-06
4.43669e-06
4.74838e-06
5.01462e-06
5.07872e-06
5.09493e-06
5.55844e-06
6.48807e-06
6.47656e-06
6.69485e-06
7.69415e-06
6.98258e-06
6.86356e-06
5.58939e-06
5.26686e-06
7.05839e-06
9.62844e-06
1.02285e-05
1.04663e-05
8.13166e-06
5.41745e-06
6.22782e-06
6.14414e-06
5.72982e-06
7.16225e-06
6.32775e-06
4.76271e-06
4.97146e-06
7.84135e-06
5.13798e-06
1.18742e-05
1.22409e-05
4.97678e-06
7.59607e-06
5.73001e-06
5.46352e-06
1.15526e-06
1.59651e-06
1.1714e-06
7.18159e-07
5.0735e-07
4.71527e-07
5.11676e-07
4.91555e-07
6.40026e-07
1.07094e-06
1.49468e-06
1.49494e-06
2.58937e-06
3.23122e-06
3.30802e-06
2.76394e-06
1.81898e-06
1.59462e-06
1.13617e-06
1.02033e-06
7.65353e-07
8.25279e-07
6.63828e-07
2.11507e-06
9.69785e-07
3.01777e-07
7.32134e-07
7.92615e-07
5.58543e-07
6.11332e-07
0.000827349
0.000760727
0.000718811
0.000763877
0.000834721
0.000873227
0.000836289
0.000732893
0.000650723
0.000655396
0.00076855
0.000848865
0.00085438
0.000873027
0.000454916
0.000472746
0.000485324
0.000549677
0.000641294
0.000694907
0.000686274
0.000611644
0.000524556
0.000528962
0.000575616
0.000533541
0.000495281
0.000494006
0.000537576
0.000599959
0.000675193
0.000754412
0.000803385
0.000818468
0.000815817
0.000773837
0.00069958
0.000626263
0.000574481
0.000545202
0.000535809
0.000531608
0.000511458
0.000461127
0.000157381
0.000118507
0.000119737
9.56452e-05
7.08173e-05
0.000118583
0.000265484
0.000378229
0.000392409
0.000362762
0.000259928
0.000236611
0.000271379
0.000310666
0.000342964
0.000353969
0.000360281
0.00036064
0.000362347
0.000362629
0.000359961
0.000359396
0.000340561
0.000317164
0.00028589
0.00026819
0.00025946
0.000265035
0.000263992
0.000223889
0.000120423
0.000115963
0.000105732
0.000111901
0.000123424
0.000125593
0.0001261
0.000116385
0.00014107
0.000209053
0.000211147
0.000171876
0.000177445
0.000190517
0.000204421
0.000227761
0.000248027
0.000262509
0.000266152
0.000268839
0.000265779
0.000253718
0.000238088
0.000214176
0.000194842
0.000174973
0.00016212
0.000153622
0.000141633
0.000132403
8.06717e-05
7.02717e-05
0.00010191
9.08566e-05
9.09865e-05
0.000102003
0.00012428
0.000151936
0.000178594
0.000209754
0.000226511
0.000238281
0.000250462
0.000252787
0.00026108
0.000256399
0.00024419
0.000228499
0.000205556
0.000169701
0.000129635
0.000110788
8.97674e-05
7.21367e-05
8.27034e-05
8.0144e-05
6.15886e-05
7.5764e-05
4.14732e-05
2.61057e-05
1.88532e-05
1.88471e-05
1.47738e-05
1.44952e-05
9.27379e-06
1.28974e-05
1.27505e-05
1.6232e-05
1.77481e-05
1.73733e-05
1.80848e-05
2.44032e-05
2.56716e-05
2.62823e-05
2.54765e-05
2.73235e-05
2.87481e-05
2.8576e-05
2.87477e-05
3.05056e-05
2.79207e-05
2.75449e-05
2.96986e-05
2.92996e-05
3.01331e-05
2.80671e-05
2.57241e-05
2.33522e-05
2.08665e-05
2.2305e-05
2.69547e-05
1.32793e-05
5.2618e-06
7.71347e-06
8.35514e-06
1.02206e-05
1.66705e-05
1.95952e-05
1.69979e-05
3.00818e-05
3.85797e-05
1.99069e-05
4.14032e-05
4.07926e-05
4.05936e-05
3.67897e-05
3.06482e-05
3.11876e-05
2.44155e-05
2.44995e-05
2.51291e-05
2.76431e-05
3.13835e-05
3.539e-05
3.82599e-05
3.66142e-05
3.58947e-05
3.86953e-05
5.34172e-05
0.000131755
1.75423e-05
6.88022e-06
1.29948e-05
1.30755e-05
1.19263e-05
1.64337e-05
1.39109e-05
1.06077e-05
7.94608e-06
1.13336e-05
1.02191e-05
9.87932e-06
9.04127e-06