/*--------------------------------*- C++ -*----------------------------------*\
| =========                 |                                                 |
| \\      /  F ield         | OpenFOAM: The Open Source CFD Toolbox           |
|  \\    /   O peration     | Version:  2.1.1                                 |
|   \\  /    A nd           | Web:      www.OpenFOAM.org                      |
|    \\/     M anipulation  |                                                 |
\*---------------------------------------------------------------------------*/
FoamFile
{
    version     2.0;
    format      ascii;
    class       volScalarField;
    location    "0.007800000";
    object      rho;
}
// * * * * * * * * * * * * * * * * * * * * * * * * * * * * * * * * * * * * * //

dimensions      [1 -3 0 0 0 0 0];

internalField   nonuniform List<scalar> 
12384
(
0.83114
0.83586
0.841875
0.846522
0.84996
0.847861
0.847016
0.840837
0.837264
0.829633
0.823366
0.813572
0.807692
0.799944
0.906549
0.900959
0.887555
0.871156
0.861463
0.857401
0.8566
0.855789
0.856672
0.857331
0.859515
0.861634
0.864406
0.867253
0.870735
0.873394
0.876741
0.875767
0.877844
0.875919
0.877428
0.876462
0.876582
0.876468
0.876106
0.874768
0.873777
0.874994
0.896304
0.932689
0.846584
0.843296
0.844977
0.846045
0.845721
0.845497
0.844878
0.846162
0.845927
0.846665
0.846839
0.847788
0.848013
0.848687
0.846366
0.846731
0.844525
0.842543
0.841554
0.842753
0.839969
0.843369
0.844314
0.843704
0.845415
0.846246
0.845018
0.845538
0.848085
0.848523
0.856342
0.854959
0.855606
0.854733
0.852858
0.851889
0.850884
0.850442
0.850073
0.84938
0.848766
0.847402
0.847048
0.844693
0.844768
0.840525
0.840814
0.834572
0.836817
0.831333
0.833198
0.832005
0.832758
0.832565
0.832482
0.832449
0.832078
0.833552
0.8338
0.833917
0.837289
0.836733
0.836491
0.835995
0.835591
0.835661
0.835827
0.834893
0.834141
0.830277
0.828705
0.822855
0.823926
0.821136
0.824084
0.824438
0.828849
0.83042
0.832138
0.833505
0.833864
0.834743
0.836198
0.835699
0.835759
0.836262
0.836888
0.837028
0.83652
0.836223
0.844819
0.840945
0.83427
0.832714
0.833471
0.834321
0.835825
0.836936
0.838427
0.838822
0.839549
0.839193
0.839632
0.838408
0.838426
0.835077
0.835327
0.830251
0.831178
0.825987
0.827508
0.825895
0.82754
0.828451
0.828534
0.829044
0.83127
0.834014
0.834546
0.833753
0.857521
0.848869
0.844409
0.842483
0.841857
0.842867
0.842994
0.845931
0.848094
0.851165
0.854659
0.857428
0.859032
0.859301
0.858071
0.855646
0.851903
0.849934
0.846546
0.844889
0.84732
0.849788
0.851725
0.854118
0.855281
0.858417
0.889605
0.919434
0.914275
0.909639
0.847262
0.833043
0.829338
0.828451
0.82886
0.829721
0.830127
0.829195
0.827455
0.823385
0.822093
0.81426
0.816279
0.813037
0.813371
0.818292
0.819986
0.823133
0.823885
0.823283
0.831472
0.841941
0.840501
0.83733
0.836514
0.833646
0.832971
0.830518
0.830994
0.82982
0.819084
0.818718
0.819301
0.819556
0.819986
0.819364
0.818581
0.814953
0.814092
0.805661
0.808888
0.802075
0.804098
0.808032
0.810372
0.814307
0.815204
0.815811
0.812469
0.806097
0.803534
0.802997
0.801587
0.802377
0.802657
0.80314
0.802665
0.802316
0.803017
0.803416
0.834512
0.833333
0.831964
0.831378
0.831166
0.831316
0.831213
0.830415
0.828127
0.823582
0.818851
0.815298
0.808508
0.803562
0.806821
0.804297
0.805111
0.804754
0.804598
0.804589
0.797928
0.794283
0.793774
0.790888
0.789634
0.789193
0.787038
0.788436
0.787684
0.78755
0.801649
0.800601
0.800545
0.802272
0.803784
0.804756
0.805125
0.803953
0.801932
0.799544
0.797971
0.799383
0.798122
0.801673
0.799646
0.804855
0.797052
0.804789
0.800252
0.813724
0.810158
0.821865
0.819486
0.825723
0.829227
0.833525
0.834913
0.837797
0.839657
0.839897
0.851773
0.853459
0.847965
0.836143
0.832586
0.833384
0.829787
0.83037
0.82529
0.826407
0.822213
0.823106
0.822161
0.823443
0.823705
0.824402
0.825102
0.825482
0.82542
0.824885
0.824183
0.822496
0.821203
0.81835
0.818125
0.813843
0.815591
0.814104
0.815154
0.815761
0.813135
0.815921
0.819169
0.820463
0.822096
0.821068
0.814681
0.780812
0.76365
0.764137
0.76592
0.766966
0.769035
0.770729
0.773395
0.776029
0.779034
0.782395
0.785275
0.787011
0.787309
0.784892
0.781517
0.778783
0.775195
0.774719
0.774232
0.775426
0.77794
0.787921
0.843267
0.855634
0.868073
0.872256
0.871349
0.86649
0.864011
0.85838
0.85546
0.848086
0.839403
0.825728
0.811945
0.801101
0.906506
0.899239
0.882053
0.863118
0.851688
0.846531
0.844192
0.843878
0.843633
0.845778
0.848548
0.854167
0.860439
0.868341
0.876194
0.88204
0.883601
0.883454
0.882893
0.883828
0.881733
0.882834
0.883515
0.882603
0.88151
0.879658
0.876722
0.874587
0.879694
0.899931
0.846476
0.843749
0.845413
0.845798
0.845212
0.845835
0.845979
0.846789
0.84722
0.848473
0.84928
0.85045
0.851166
0.850831
0.848438
0.847753
0.843055
0.843313
0.841812
0.840476
0.842384
0.842568
0.843999
0.844691
0.847358
0.846408
0.84681
0.846831
0.846058
0.847259
0.856006
0.854895
0.854965
0.853474
0.851066
0.851038
0.850444
0.849972
0.848826
0.847568
0.845564
0.844588
0.842941
0.842263
0.842191
0.839025
0.836727
0.836674
0.834314
0.830273
0.830766
0.831054
0.831154
0.832215
0.833068
0.832954
0.833293
0.832943
0.833043
0.835141
0.837092
0.836998
0.836514
0.834791
0.834359
0.835072
0.836618
0.837066
0.836824
0.833046
0.832315
0.82769
0.826113
0.827349
0.824728
0.828021
0.82903
0.831321
0.832972
0.834551
0.83494
0.834597
0.835206
0.835547
0.836641
0.839509
0.842191
0.841327
0.838193
0.836751
0.844326
0.838154
0.831848
0.830495
0.831562
0.834085
0.836111
0.83807
0.839784
0.841156
0.841134
0.841496
0.840667
0.840648
0.838314
0.836602
0.833906
0.831159
0.828951
0.826629
0.82513
0.826241
0.825984
0.827626
0.829033
0.829377
0.830329
0.832563
0.834318
0.834486
0.856717
0.845982
0.840486
0.83894
0.839537
0.84083
0.843026
0.846043
0.850926
0.856588
0.860941
0.864051
0.865209
0.864506
0.862289
0.859021
0.855177
0.851816
0.849478
0.847911
0.847477
0.849576
0.853271
0.853728
0.856443
0.857863
0.867648
0.891694
0.914574
0.909001
0.849141
0.832761
0.828128
0.828239
0.830227
0.830981
0.830487
0.828893
0.826559
0.821552
0.81749
0.813144
0.811223
0.809381
0.810365
0.812492
0.81688
0.820106
0.82297
0.823344
0.82574
0.835335
0.842398
0.840926
0.83793
0.83472
0.831192
0.827784
0.82707
0.826884
0.819633
0.819074
0.818395
0.818807
0.81896
0.818863
0.818315
0.815243
0.812858
0.808826
0.808098
0.806952
0.805203
0.807002
0.810609
0.812591
0.815387
0.816903
0.81557
0.810055
0.805013
0.804309
0.803802
0.804637
0.805597
0.80573
0.805096
0.802591
0.801489
0.802989
0.833788
0.833202
0.831566
0.828495
0.82701
0.827774
0.829211
0.829673
0.828394
0.825375
0.820919
0.816999
0.810404
0.809896
0.803507
0.804287
0.805675
0.806104
0.806285
0.805639
0.801941
0.798239
0.794327
0.793336
0.791316
0.78833
0.7849
0.784656
0.786301
0.787899
0.800783
0.798904
0.798949
0.799543
0.801657
0.803264
0.803446
0.803828
0.802317
0.800111
0.799181
0.798088
0.800564
0.802063
0.801089
0.806796
0.801658
0.806551
0.800332
0.811462
0.810963
0.819862
0.820489
0.827194
0.8289
0.832213
0.834752
0.837389
0.83889
0.839191
0.845569
0.843146
0.837958
0.834867
0.833845
0.833104
0.828522
0.8275
0.82359
0.822547
0.820039
0.819573
0.820264
0.820853
0.822926
0.824585
0.82534
0.825963
0.826049
0.825774
0.825394
0.824555
0.823824
0.820994
0.820567
0.816906
0.815765
0.814884
0.814735
0.815904
0.800098
0.811943
0.821692
0.824318
0.823239
0.815462
0.788628
0.766218
0.762875
0.764665
0.765448
0.766748
0.767511
0.769256
0.771261
0.774205
0.778514
0.78356
0.789504
0.79481
0.797844
0.797949
0.794848
0.788119
0.783672
0.777413
0.775252
0.774693
0.778154
0.788229
0.863154
0.878989
0.882512
0.877055
0.868859
0.859565
0.854265
0.846172
0.845717
0.84255
0.842684
0.834884
0.819369
0.803405
0.905816
0.897925
0.877747
0.856191
0.843822
0.83951
0.83767
0.836308
0.83759
0.840274
0.844603
0.850812
0.858939
0.870415
0.880612
0.882454
0.881301
0.879009
0.877895
0.874898
0.875618
0.875838
0.876999
0.880425
0.882174
0.881791
0.880076
0.876661
0.87553
0.88783
0.845401
0.843151
0.844939
0.844298
0.842786
0.84241
0.843613
0.845998
0.847752
0.849816
0.851686
0.853273
0.852252
0.849762
0.844476
0.841941
0.838405
0.838253
0.836338
0.836722
0.838686
0.838432
0.841216
0.844689
0.845196
0.846585
0.84815
0.847139
0.846461
0.84647
0.853674
0.852922
0.852631
0.85054
0.849619
0.848793
0.849089
0.848583
0.848779
0.846628
0.84482
0.842147
0.842716
0.843705
0.843252
0.840724
0.843338
0.837847
0.835095
0.834243
0.833516
0.831052
0.831815
0.832041
0.832696
0.834063
0.834174
0.83393
0.835022
0.834561
0.836935
0.837022
0.836529
0.834282
0.835798
0.838714
0.840732
0.840075
0.83931
0.834276
0.833718
0.828851
0.829316
0.824853
0.826048
0.826653
0.830351
0.832126
0.833357
0.833695
0.833349
0.834045
0.833752
0.834434
0.836057
0.84061
0.843765
0.84442
0.841273
0.839007
0.842368
0.834591
0.82791
0.826262
0.828149
0.830138
0.832118
0.835054
0.839002
0.840332
0.841351
0.840356
0.840287
0.837954
0.836713
0.832753
0.831182
0.824461
0.822866
0.818649
0.818684
0.818732
0.822096
0.8229
0.826158
0.828274
0.829268
0.83102
0.833258
0.83462
0.85476
0.841772
0.8367
0.837158
0.838569
0.840352
0.843051
0.846355
0.85226
0.859466
0.863439
0.864377
0.864754
0.862651
0.859935
0.855687
0.850419
0.846656
0.842872
0.843138
0.843665
0.846247
0.85061
0.852842
0.85496
0.856884
0.860016
0.872729
0.897026
0.911175
0.852212
0.83363
0.826742
0.82964
0.830403
0.830156
0.829029
0.826426
0.82257
0.816328
0.812251
0.807139
0.802893
0.803098
0.801875
0.805119
0.80897
0.814525
0.818567
0.820777
0.821358
0.8268
0.836849
0.841696
0.842905
0.838397
0.833231
0.826264
0.824661
0.824435
0.818982
0.817728
0.817665
0.817943
0.818896
0.819386
0.818994
0.814797
0.814267
0.808958
0.8086
0.804486
0.806293
0.80827
0.808442
0.811268
0.814002
0.815848
0.815631
0.811898
0.80661
0.80429
0.804993
0.805512
0.807024
0.807707
0.807746
0.805826
0.802071
0.802248
0.832865
0.832054
0.829656
0.825059
0.824262
0.82698
0.830255
0.831597
0.830289
0.827482
0.824193
0.816973
0.81401
0.808482
0.807147
0.80741
0.805045
0.806236
0.806286
0.805187
0.804252
0.800761
0.796408
0.796208
0.79516
0.790447
0.785937
0.781645
0.782918
0.786129
0.799784
0.799205
0.798592
0.79754
0.798997
0.801855
0.80366
0.802955
0.801474
0.800391
0.798913
0.800639
0.798383
0.80089
0.802
0.806074
0.802861
0.809125
0.802919
0.812515
0.809967
0.820922
0.819617
0.826403
0.827152
0.830135
0.832779
0.835674
0.837362
0.837119
0.841125
0.837095
0.835496
0.835449
0.832691
0.831997
0.825146
0.824633
0.818936
0.817568
0.813877
0.814139
0.814419
0.815447
0.817514
0.820964
0.824066
0.825806
0.826497
0.826072
0.825794
0.824833
0.825034
0.822034
0.823288
0.819105
0.81848
0.81504
0.814428
0.815192
0.79507
0.815331
0.824866
0.822378
0.814368
0.793648
0.768476
0.760556
0.761376
0.761734
0.761833
0.761005
0.760441
0.75907
0.760913
0.762616
0.766423
0.77154
0.778253
0.786514
0.795425
0.801001
0.799846
0.794968
0.791704
0.785639
0.777325
0.775673
0.779777
0.788996
0.886927
0.887347
0.878402
0.865517
0.855161
0.848072
0.844916
0.839203
0.835264
0.830676
0.834619
0.834727
0.825707
0.805163
0.905845
0.898489
0.877667
0.853969
0.840377
0.836035
0.834239
0.836239
0.841582
0.847621
0.849768
0.852779
0.861125
0.87661
0.880783
0.878241
0.874309
0.871658
0.866123
0.865255
0.863785
0.864109
0.867051
0.870525
0.876642
0.881049
0.881153
0.878238
0.875147
0.882262
0.844729
0.842734
0.843731
0.842276
0.839338
0.839082
0.84093
0.845871
0.849802
0.853738
0.856487
0.854834
0.848894
0.84435
0.839743
0.837958
0.83632
0.834573
0.834793
0.834394
0.834786
0.8372
0.839731
0.841608
0.843273
0.846782
0.847571
0.84764
0.847277
0.846404
0.851302
0.850734
0.849532
0.847326
0.845281
0.845207
0.84504
0.847131
0.847014
0.846094
0.842275
0.841945
0.84418
0.845111
0.84466
0.84662
0.844074
0.837739
0.837518
0.838162
0.835384
0.83619
0.83404
0.833135
0.834828
0.835034
0.834783
0.836413
0.836292
0.835824
0.836781
0.837643
0.835343
0.835752
0.839351
0.841938
0.841741
0.839644
0.838604
0.834109
0.832443
0.829828
0.823884
0.826372
0.823753
0.825978
0.826215
0.82942
0.832694
0.833886
0.833762
0.832864
0.833308
0.833388
0.83421
0.837655
0.840561
0.843243
0.838648
0.836865
0.840843
0.831908
0.824267
0.821791
0.820855
0.820178
0.823277
0.831685
0.836791
0.840276
0.839232
0.839085
0.837002
0.836894
0.833095
0.831125
0.823517
0.821362
0.814192
0.811328
0.807364
0.807104
0.811029
0.816889
0.820698
0.824437
0.827135
0.829219
0.8318
0.83403
0.85266
0.83875
0.833114
0.834531
0.837382
0.838753
0.84058
0.845052
0.851709
0.858632
0.861666
0.863361
0.862297
0.860353
0.855902
0.850028
0.844061
0.838866
0.837422
0.833799
0.83669
0.838187
0.845312
0.850225
0.852359
0.855946
0.858085
0.863724
0.884838
0.90654
0.853772
0.832117
0.827286
0.828902
0.828473
0.828232
0.826591
0.822691
0.816891
0.810649
0.804256
0.799521
0.794643
0.792776
0.796472
0.798041
0.802126
0.806704
0.812749
0.816657
0.818478
0.820813
0.829009
0.83821
0.841782
0.841336
0.836666
0.826972
0.82183
0.822757
0.81793
0.816677
0.817248
0.818483
0.819442
0.819303
0.817464
0.815103
0.817546
0.809569
0.807961
0.810793
0.808941
0.80856
0.8111
0.810417
0.811966
0.813807
0.815203
0.812973
0.80772
0.804122
0.804311
0.804911
0.806807
0.8082
0.808379
0.807824
0.803599
0.80202
0.831442
0.829951
0.822825
0.821105
0.823574
0.828048
0.831175
0.831506
0.829876
0.829112
0.82389
0.816643
0.815479
0.812758
0.813123
0.80806
0.807
0.804229
0.804861
0.80672
0.805506
0.803013
0.800006
0.797855
0.796676
0.792399
0.785044
0.781653
0.781135
0.786325
0.79867
0.796436
0.794974
0.796918
0.798273
0.799489
0.800882
0.800012
0.798154
0.796955
0.796283
0.795379
0.800207
0.800747
0.800624
0.807191
0.803433
0.810751
0.805119
0.815561
0.811487
0.820527
0.820749
0.825038
0.824701
0.828459
0.831128
0.833786
0.835675
0.835515
0.839289
0.835814
0.836111
0.835183
0.832007
0.827261
0.822195
0.816449
0.813569
0.806041
0.805637
0.801205
0.802729
0.804947
0.80815
0.812176
0.817731
0.822454
0.824703
0.825065
0.824196
0.823776
0.823764
0.822201
0.823276
0.821361
0.818593
0.816127
0.814412
0.814981
0.793006
0.816948
0.819751
0.809467
0.796464
0.774455
0.759843
0.758267
0.758663
0.75844
0.75721
0.755344
0.75323
0.753801
0.755128
0.757097
0.758838
0.761788
0.766125
0.773463
0.78356
0.795001
0.80098
0.796099
0.790167
0.791709
0.787588
0.782395
0.787121
0.790513
0.891962
0.880095
0.864395
0.852042
0.843556
0.839821
0.840242
0.841644
0.838074
0.82948
0.826598
0.831064
0.827551
0.808304
0.904497
0.899437
0.882002
0.85797
0.841795
0.836731
0.83739
0.845369
0.857333
0.864397
0.860435
0.856842
0.866504
0.879105
0.877575
0.872197
0.868859
0.861365
0.859355
0.857633
0.856211
0.856958
0.859188
0.863248
0.86819
0.874866
0.879677
0.879902
0.875985
0.880716
0.84405
0.841712
0.842412
0.839582
0.836681
0.83621
0.840365
0.846713
0.855099
0.859185
0.858092
0.850223
0.844131
0.841321
0.837135
0.838925
0.837605
0.838682
0.838504
0.838515
0.837378
0.838834
0.838804
0.839648
0.842137
0.845224
0.846432
0.847729
0.847197
0.846268
0.848461
0.847726
0.845621
0.841873
0.840491
0.840261
0.842975
0.842859
0.845328
0.84296
0.84121
0.842656
0.844775
0.845462
0.848854
0.844927
0.84047
0.841095
0.842754
0.837339
0.836916
0.834721
0.835486
0.837157
0.836174
0.835628
0.838017
0.837701
0.836948
0.839132
0.836667
0.837697
0.834205
0.838822
0.842169
0.84222
0.841138
0.838335
0.838451
0.830902
0.831047
0.821887
0.82321
0.819341
0.82619
0.82683
0.827925
0.825996
0.827919
0.831341
0.83361
0.833405
0.832464
0.832306
0.833058
0.83416
0.83504
0.84022
0.836976
0.83484
0.839385
0.830062
0.821134
0.815175
0.811047
0.810432
0.817394
0.827598
0.836567
0.838446
0.838606
0.836009
0.836912
0.834101
0.833404
0.825384
0.821115
0.809948
0.805986
0.797341
0.798033
0.799993
0.800435
0.8041
0.812807
0.820095
0.82513
0.827791
0.830141
0.832866
0.851034
0.836252
0.82945
0.829579
0.832256
0.836729
0.838685
0.841907
0.849408
0.856787
0.860947
0.861582
0.860227
0.857582
0.851625
0.845422
0.838063
0.831671
0.82566
0.826501
0.825708
0.830033
0.836511
0.847953
0.849286
0.853886
0.857284
0.860843
0.876591
0.902018
0.852807
0.826576
0.827137
0.826477
0.826485
0.825777
0.823312
0.818847
0.811129
0.803338
0.798662
0.788902
0.78618
0.783063
0.780924
0.785147
0.790214
0.798221
0.805297
0.812394
0.815626
0.817491
0.822747
0.831343
0.838008
0.840995
0.837345
0.827971
0.82053
0.82099
0.81598
0.816859
0.817398
0.818241
0.818771
0.817833
0.818112
0.815748
0.816728
0.806286
0.811595
0.802623
0.803066
0.806068
0.807599
0.811432
0.8118
0.810708
0.81366
0.813949
0.808891
0.804366
0.804289
0.804543
0.806692
0.808306
0.808501
0.808314
0.805144
0.801813
0.831073
0.826345
0.818073
0.817076
0.822896
0.828869
0.830175
0.829439
0.831062
0.826917
0.819537
0.821268
0.817302
0.813263
0.804718
0.807069
0.808997
0.808587
0.804421
0.804036
0.806004
0.805428
0.801375
0.797949
0.797694
0.794151
0.785826
0.779593
0.780786
0.784433
0.796731
0.793562
0.791379
0.793925
0.796794
0.796988
0.794973
0.794925
0.79563
0.795931
0.79465
0.794017
0.791157
0.796356
0.799597
0.806819
0.801797
0.812798
0.806592
0.816178
0.813743
0.820177
0.818925
0.823942
0.823252
0.826142
0.829106
0.831564
0.832611
0.832519
0.838486
0.836029
0.836134
0.834027
0.82925
0.822707
0.817375
0.808665
0.804962
0.796433
0.794155
0.792039
0.790937
0.793365
0.798321
0.803155
0.808924
0.815715
0.821397
0.823243
0.823098
0.821479
0.823489
0.821159
0.824125
0.820915
0.820068
0.816298
0.815192
0.815433
0.792056
0.812502
0.807558
0.791902
0.779233
0.763223
0.756461
0.756392
0.756503
0.754557
0.752059
0.750404
0.751815
0.75245
0.754178
0.753731
0.755522
0.757014
0.760737
0.765123
0.770857
0.782305
0.7994
0.800301
0.785744
0.785363
0.792325
0.79065
0.790911
0.78816
0.880325
0.865668
0.850647
0.837414
0.82876
0.826349
0.828928
0.837619
0.84065
0.835292
0.824991
0.827344
0.827225
0.808601
0.905015
0.901553
0.889711
0.868339
0.851327
0.844453
0.847986
0.862524
0.880008
0.884319
0.870358
0.861131
0.871294
0.879241
0.873132
0.869039
0.861374
0.858266
0.855515
0.849838
0.849968
0.850235
0.852937
0.856728
0.863986
0.8713
0.877057
0.878022
0.875509
0.878537
0.843702
0.840421
0.840013
0.837488
0.834161
0.834724
0.841399
0.852839
0.86137
0.86355
0.854621
0.8454
0.840914
0.842233
0.839722
0.840659
0.841878
0.838459
0.836921
0.838642
0.838373
0.841068
0.838643
0.841645
0.841892
0.843472
0.845709
0.846973
0.846905
0.845405
0.848007
0.846234
0.842599
0.839108
0.837848
0.839381
0.839186
0.842522
0.842533
0.842144
0.839497
0.84188
0.844559
0.848239
0.845745
0.8405
0.844034
0.842005
0.836156
0.834652
0.833869
0.836864
0.837415
0.837742
0.836944
0.839469
0.839055
0.838924
0.84004
0.839558
0.836704
0.837302
0.836725
0.841739
0.842507
0.841187
0.840222
0.838026
0.836504
0.827714
0.829027
0.823569
0.823609
0.822545
0.814927
0.818081
0.824952
0.829347
0.830041
0.82936
0.831637
0.833025
0.8331
0.832834
0.832242
0.833518
0.833341
0.836456
0.83435
0.831422
0.839921
0.831593
0.819268
0.811008
0.807797
0.807653
0.812668
0.826835
0.835585
0.837586
0.83491
0.835812
0.833861
0.835119
0.829386
0.823989
0.814108
0.807602
0.796056
0.793387
0.787727
0.785904
0.791862
0.800114
0.805874
0.813087
0.821397
0.825608
0.828622
0.831474
0.85101
0.833878
0.82503
0.824342
0.827025
0.832356
0.837309
0.838765
0.844626
0.854047
0.859042
0.859585
0.859481
0.854753
0.848575
0.842705
0.831842
0.825149
0.820801
0.817453
0.821946
0.825354
0.828233
0.843959
0.847362
0.852241
0.856173
0.860122
0.872622
0.899189
0.849295
0.822432
0.823573
0.822151
0.824217
0.824677
0.820744
0.814655
0.804612
0.800936
0.790389
0.783915
0.779795
0.780035
0.781016
0.783831
0.784456
0.793817
0.798698
0.805869
0.81112
0.814416
0.818025
0.824576
0.832255
0.835897
0.836458
0.828329
0.818921
0.819741
0.816533
0.816518
0.817385
0.817356
0.817547
0.816922
0.81912
0.813818
0.814823
0.807541
0.811186
0.808119
0.810753
0.807145
0.807325
0.804551
0.812742
0.810677
0.81045
0.811944
0.809795
0.805945
0.803135
0.804747
0.806368
0.809128
0.807842
0.808098
0.806394
0.80239
0.825306
0.815538
0.812687
0.818244
0.822667
0.826393
0.827678
0.829779
0.829527
0.820494
0.82063
0.820966
0.811857
0.804246
0.80589
0.803131
0.802633
0.805266
0.809722
0.805309
0.805859
0.806153
0.804062
0.801835
0.799345
0.792945
0.783215
0.77929
0.779005
0.785293
0.794258
0.789593
0.79105
0.792298
0.793429
0.794774
0.793947
0.797284
0.795286
0.797335
0.799414
0.800121
0.800814
0.801669
0.793264
0.807619
0.802349
0.81217
0.808338
0.81792
0.813831
0.821426
0.817885
0.822239
0.822713
0.824703
0.82625
0.82869
0.829798
0.830131
0.838728
0.835945
0.83601
0.832085
0.826467
0.818077
0.812875
0.800898
0.798376
0.788279
0.787366
0.783581
0.785314
0.785413
0.789388
0.796019
0.802466
0.809259
0.816571
0.821714
0.82155
0.820624
0.821566
0.821212
0.822385
0.821368
0.818846
0.816891
0.81488
0.815418
0.790758
0.806583
0.795079
0.776814
0.767041
0.757779
0.754439
0.753977
0.752641
0.750583
0.749446
0.750962
0.752118
0.752102
0.75082
0.751517
0.752001
0.755109
0.757158
0.76153
0.76567
0.772219
0.785365
0.806987
0.793171
0.776378
0.7839
0.790663
0.788551
0.781918
0.867735
0.854589
0.835729
0.821101
0.812635
0.812266
0.814063
0.826508
0.838571
0.837296
0.826105
0.824769
0.825693
0.810047
0.90356
0.901844
0.897127
0.882638
0.86891
0.862966
0.868997
0.886338
0.904193
0.900473
0.876268
0.863804
0.874723
0.876795
0.870997
0.864186
0.858091
0.854376
0.84453
0.839964
0.840722
0.845241
0.848054
0.852049
0.856871
0.866579
0.874928
0.878582
0.874898
0.878736
0.84236
0.839245
0.838921
0.835956
0.833841
0.836513
0.846316
0.860297
0.868868
0.862279
0.848703
0.843119
0.842547
0.842785
0.844707
0.840691
0.839859
0.838654
0.839469
0.840029
0.837893
0.843006
0.839509
0.842876
0.841336
0.842843
0.844551
0.846399
0.846201
0.844672
0.8455
0.843693
0.839002
0.836111
0.834663
0.834508
0.838072
0.838254
0.842679
0.840676
0.838225
0.841734
0.846943
0.844264
0.841994
0.84187
0.844474
0.835329
0.838131
0.837652
0.838726
0.838482
0.837478
0.837016
0.84119
0.840471
0.840269
0.841955
0.840515
0.840057
0.836549
0.835978
0.839825
0.842358
0.841486
0.840091
0.839739
0.835529
0.83375
0.824899
0.829012
0.814253
0.815969
0.809725
0.816885
0.815027
0.815549
0.820371
0.82687
0.82957
0.830797
0.832893
0.8329
0.832395
0.832268
0.832799
0.832711
0.834999
0.831078
0.828596
0.837018
0.830439
0.819742
0.812205
0.806946
0.806593
0.816839
0.829328
0.835387
0.83503
0.8347
0.832642
0.835432
0.832829
0.830284
0.818967
0.81161
0.798336
0.791557
0.782306
0.780352
0.779185
0.780209
0.789478
0.800794
0.808768
0.818561
0.824022
0.82849
0.83066
0.850934
0.833391
0.822682
0.818105
0.819719
0.827521
0.833955
0.837447
0.840135
0.848808
0.857374
0.85877
0.857748
0.853292
0.847874
0.839819
0.828791
0.824203
0.817696
0.81679
0.8174
0.824933
0.824835
0.840107
0.846197
0.851452
0.855855
0.860149
0.871958
0.898977
0.841718
0.821415
0.820294
0.818555
0.820976
0.822065
0.817905
0.810127
0.803189
0.796099
0.781864
0.779178
0.773982
0.768403
0.7673
0.775332
0.77603
0.787091
0.792289
0.803414
0.807625
0.812785
0.816429
0.821551
0.826662
0.831845
0.833906
0.824371
0.817134
0.817805
0.816352
0.81673
0.816066
0.815519
0.81717
0.815132
0.816051
0.81424
0.815133
0.804958
0.811613
0.802867
0.804248
0.805776
0.812867
0.805613
0.807651
0.813342
0.80777
0.810762
0.810472
0.806117
0.804256
0.804637
0.808267
0.808624
0.807422
0.80734
0.806638
0.803542
0.821248
0.807793
0.806982
0.815595
0.82356
0.824481
0.825436
0.829341
0.823545
0.817708
0.823975
0.814878
0.805797
0.80986
0.810243
0.810264
0.806931
0.803681
0.807437
0.809243
0.806446
0.807797
0.805571
0.801131
0.799944
0.794235
0.78285
0.778647
0.780769
0.784044
0.785635
0.785619
0.790511
0.791816
0.792294
0.792071
0.790152
0.794794
0.790135
0.795564
0.792921
0.796316
0.794181
0.80489
0.795926
0.804378
0.799897
0.812693
0.807446
0.819599
0.813425
0.819199
0.818964
0.821025
0.823617
0.826435
0.828254
0.829898
0.831174
0.830197
0.839406
0.835861
0.835354
0.830854
0.824074
0.814918
0.808544
0.796234
0.79397
0.782851
0.783745
0.780118
0.780511
0.782789
0.78528
0.789336
0.797006
0.804022
0.811437
0.818415
0.821225
0.819105
0.820786
0.82075
0.822457
0.819695
0.819256
0.816588
0.815986
0.816061
0.787745
0.800691
0.788669
0.765853
0.759419
0.754771
0.753906
0.752674
0.749826
0.749816
0.750982
0.751001
0.749344
0.74776
0.749759
0.751451
0.751449
0.753538
0.754833
0.758261
0.765083
0.767
0.771989
0.801997
0.811637
0.778853
0.768328
0.773766
0.773247
0.769
0.862804
0.843196
0.82029
0.80811
0.807836
0.808646
0.809361
0.818531
0.833565
0.836485
0.826046
0.822662
0.821297
0.805715
0.905559
0.903513
0.903656
0.898376
0.890884
0.888157
0.896161
0.911062
0.919208
0.90804
0.877462
0.866612
0.875767
0.874376
0.868174
0.862325
0.857401
0.848514
0.837559
0.836702
0.835846
0.837839
0.844251
0.850463
0.857011
0.865181
0.874873
0.876811
0.87507
0.87762
0.843687
0.838934
0.837258
0.835101
0.834066
0.841864
0.855917
0.872309
0.871064
0.857411
0.846507
0.843567
0.844046
0.84578
0.842441
0.844057
0.837291
0.838748
0.836546
0.839474
0.837304
0.843176
0.840145
0.843748
0.841698
0.843048
0.844767
0.846367
0.846149
0.843994
0.845494
0.842772
0.838301
0.832963
0.831809
0.834346
0.835468
0.838254
0.842024
0.838641
0.836623
0.843525
0.843125
0.841724
0.841667
0.840654
0.840395
0.835127
0.839077
0.8358
0.83972
0.837586
0.836686
0.843824
0.840685
0.841517
0.843366
0.842046
0.842042
0.842376
0.837739
0.838168
0.842382
0.842106
0.840647
0.839134
0.838213
0.833019
0.832264
0.823246
0.822655
0.810782
0.815607
0.811724
0.810179
0.81433
0.821273
0.819847
0.823168
0.827969
0.831813
0.832987
0.833337
0.833222
0.832864
0.832938
0.832964
0.833432
0.828651
0.826055
0.838153
0.834434
0.825343
0.814601
0.809376
0.813542
0.822888
0.831128
0.834543
0.83532
0.831357
0.833594
0.833755
0.835129
0.828485
0.819243
0.809418
0.797144
0.790915
0.781428
0.776593
0.777585
0.777912
0.785674
0.799859
0.80602
0.816827
0.823934
0.82753
0.830829
0.851722
0.835774
0.822662
0.815373
0.814449
0.821936
0.829983
0.834966
0.837476
0.844081
0.853728
0.857675
0.856802
0.853986
0.846961
0.841036
0.83014
0.822598
0.81601
0.814958
0.817433
0.822606
0.825269
0.840965
0.846264
0.851345
0.856601
0.861168
0.874055
0.901193
0.834624
0.820023
0.815641
0.816802
0.820123
0.82074
0.814375
0.808907
0.800592
0.792894
0.778451
0.780823
0.767665
0.770485
0.768453
0.773656
0.775287
0.784876
0.788722
0.79975
0.806152
0.811192
0.813433
0.81658
0.821298
0.82694
0.827443
0.819725
0.815365
0.816125
0.817512
0.815976
0.814375
0.814761
0.814996
0.812623
0.81649
0.814596
0.809229
0.805103
0.812749
0.803816
0.804968
0.802038
0.807234
0.809799
0.802762
0.813812
0.807252
0.811433
0.80977
0.808083
0.805042
0.807313
0.808673
0.809446
0.807547
0.80728
0.807833
0.804218
0.810589
0.802378
0.804349
0.812338
0.820308
0.82244
0.824692
0.826011
0.81881
0.820284
0.820973
0.810801
0.807178
0.809856
0.805857
0.804146
0.810896
0.805274
0.807485
0.810361
0.808543
0.809505
0.808018
0.805821
0.801023
0.790302
0.779799
0.778162
0.78035
0.784906
0.780858
0.785581
0.79066
0.790983
0.78862
0.791725
0.78819
0.79607
0.788012
0.801772
0.798234
0.796363
0.794265
0.807928
0.795415
0.806973
0.799416
0.813584
0.807272
0.815996
0.815182
0.814769
0.818586
0.821558
0.822584
0.826623
0.828569
0.830267
0.831541
0.832526
0.841761
0.836262
0.83539
0.830723
0.823983
0.813384
0.806924
0.793356
0.79192
0.780275
0.78215
0.776323
0.777159
0.779358
0.781961
0.788788
0.793664
0.800882
0.808776
0.816134
0.820523
0.818943
0.818593
0.820561
0.820662
0.819471
0.817775
0.816016
0.815408
0.815097
0.786338
0.791016
0.789391
0.763786
0.756777
0.753737
0.752668
0.751715
0.750435
0.749244
0.748241
0.747345
0.747806
0.752161
0.750789
0.754924
0.749236
0.753322
0.752585
0.756261
0.763655
0.767374
0.768188
0.785845
0.821942
0.804769
0.773648
0.7709
0.774247
0.777915
0.857932
0.831636
0.809159
0.806964
0.81205
0.814268
0.813113
0.816717
0.830479
0.833566
0.824738
0.822695
0.818511
0.815577
0.845244
0.876539
0.901175
0.901173
0.903649
0.904356
0.904835
0.907054
0.916176
0.923914
0.925002
0.908903
0.876215
0.869144
0.876549
0.872585
0.867475
0.862779
0.8577
0.843065
0.837342
0.835429
0.833672
0.839861
0.843667
0.849989
0.855745
0.867379
0.873293
0.875616
0.87453
0.878152
0.873559
0.847803
0.841759
0.837377
0.8354
0.834705
0.838168
0.84864
0.871052
0.879412
0.870496
0.854035
0.846597
0.844592
0.846333
0.846182
0.844562
0.841338
0.8413
0.838244
0.839404
0.840525
0.83718
0.842872
0.840497
0.843692
0.841958
0.84308
0.844224
0.84583
0.843612
0.841112
0.839441
0.84264
0.846833
0.842888
0.837801
0.832509
0.83176
0.832904
0.835739
0.836437
0.840599
0.837387
0.837613
0.841597
0.842423
0.842028
0.84161
0.837706
0.842406
0.834397
0.839013
0.836367
0.83887
0.835445
0.841713
0.841568
0.842296
0.843661
0.842967
0.84358
0.842958
0.841742
0.835689
0.829828
0.836836
0.839084
0.839432
0.83895
0.838286
0.837642
0.835885
0.830333
0.83088
0.820725
0.82186
0.810479
0.81428
0.807285
0.809079
0.808977
0.819715
0.819888
0.821331
0.828291
0.830341
0.832851
0.833759
0.833496
0.832853
0.832477
0.832578
0.831896
0.82676
0.825761
0.826096
0.825842
0.831182
0.832742
0.827984
0.821987
0.81967
0.821535
0.8272
0.83278
0.834707
0.832415
0.831642
0.83183
0.835474
0.834186
0.829648
0.822232
0.809665
0.799966
0.790275
0.78103
0.777334
0.77763
0.777478
0.785578
0.799623
0.80611
0.816002
0.823219
0.827587
0.83219
0.842625
0.850731
0.854588
0.838082
0.825174
0.816407
0.813386
0.817668
0.826073
0.832385
0.835811
0.839416
0.85058
0.858575
0.858622
0.854598
0.850565
0.843381
0.836685
0.828483
0.821152
0.818204
0.818816
0.824624
0.83446
0.843967
0.847511
0.8517
0.858499
0.863173
0.878232
0.893761
0.824428
0.816146
0.825812
0.813257
0.808192
0.81161
0.817594
0.817781
0.814909
0.808361
0.801009
0.790276
0.779518
0.779528
0.768851
0.76756
0.767908
0.77055
0.772944
0.784833
0.786735
0.798992
0.805293
0.810667
0.812791
0.816455
0.820324
0.827127
0.819831
0.812576
0.812236
0.81273
0.812881
0.810942
0.814339
0.812798
0.811828
0.811502
0.810476
0.812365
0.816092
0.811129
0.806724
0.808107
0.810486
0.803001
0.806248
0.804967
0.805731
0.810325
0.801679
0.812258
0.807008
0.811161
0.810355
0.809315
0.807756
0.808915
0.810404
0.808315
0.805645
0.805842
0.806621
0.806369
0.803231
0.802845
0.802024
0.797184
0.801367
0.810751
0.817915
0.821794
0.823169
0.823509
0.820936
0.817386
0.820316
0.813334
0.805726