/*--------------------------------*- C++ -*----------------------------------*\
| =========                 |                                                 |
| \\      /  F ield         | OpenFOAM: The Open Source CFD Toolbox           |
|  \\    /   O peration     | Version:  2.1.1                                 |
|   \\  /    A nd           | Web:      www.OpenFOAM.org                      |
|    \\/     M anipulation  |                                                 |
\*---------------------------------------------------------------------------*/
FoamFile
{
    version     2.0;
    format      ascii;
    class       volVectorField;
    location    "0.007800000";
    object      U;
}
// * * * * * * * * * * * * * * * * * * * * * * * * * * * * * * * * * * * * * //

dimensions      [0 1 -1 0 0 0 0];

internalField   nonuniform List<vector> 
12384
(
(-0.565975 0.747563 0)
(0.86298 -0.872211 0)
(3.77745 -1.38757 0)
(6.93213 -2.17923 0)
(10.7802 -1.56447 0)
(13.9094 -2.49427 0)
(16.34 -0.572259 0)
(17.7684 -1.70522 0)
(17.3297 0.963368 0)
(15.38 -0.47676 0)
(12.6501 1.40549 0)
(9.23107 0.273874 0)
(5.54074 1.32479 0)
(2.34958 0.468175 0)
(-3.61913 5.52517 0)
(-12.4893 7.15984 0)
(-24.212 8.25769 0)
(-37.6941 8.82347 0)
(-50.7634 7.89088 0)
(-61.2828 6.01687 0)
(-67.3551 3.65991 0)
(-69.3612 1.53821 0)
(-66.9252 -0.761309 0)
(-60.2413 -3.53269 0)
(-49.4594 -5.57351 0)
(-35.7537 -6.81828 0)
(-19.7535 -8.17543 0)
(-1.52284 -9.65735 0)
(18.8532 -10.2318 0)
(40.0409 -11.1109 0)
(60.7436 -9.76878 0)
(78.6938 -9.02263 0)
(92.5195 -5.89019 0)
(102.125 -4.01916 0)
(104.743 -0.558681 0)
(102.334 2.87669 0)
(92.778 5.91417 0)
(77.8654 8.59332 0)
(59.3147 10.3394 0)
(38.6913 10.2539 0)
(19.8538 8.57467 0)
(5.52937 5.7625 0)
(-2.10933 1.15032 0)
(-3.96854 -3.48933 0)
(-7.28432 7.94413 0)
(-24.2375 10.2277 0)
(-44.488 10.8796 0)
(-62.8527 9.11318 0)
(-76.6844 5.03726 0)
(-82.1662 1.25714 0)
(-81.2259 -0.706694 0)
(-74.7485 -5.52059 0)
(-62.8083 -7.64693 0)
(-47.6805 -8.47866 0)
(-30.3942 -9.69022 0)
(-11.491 -10.2972 0)
(9.10744 -11.3674 0)
(31.092 -11.8902 0)
(53.9507 -11.4369 0)
(74.7574 -10.8303 0)
(92.8963 -8.63743 0)
(106.977 -5.72573 0)
(115.364 -3.10993 0)
(117.195 -0.658053 0)
(112.891 4.19411 0)
(102.827 6.08268 0)
(87.3953 9.62451 0)
(66.0081 10.5384 0)
(44.668 10.9105 0)
(24.3893 9.42326 0)
(6.95119 6.77947 0)
(-3.82685 2.83458 0)
(-7.41309 -1.40089 0)
(-4.57583 -7.57806 0)
(-7.61773 8.07596 0)
(-26.4971 12.3749 0)
(-50.7959 13.2489 0)
(-72.8198 11.1389 0)
(-87.8668 7.32737 0)
(-93.513 0.823392 0)
(-88.8377 -2.98028 0)
(-76.0786 -8.05363 0)
(-57.5255 -9.95016 0)
(-35.4044 -11.5837 0)
(-12.2719 -11.1608 0)
(10.9568 -11.6696 0)
(34.7613 -11.7139 0)
(59.4637 -12.8513 0)
(85.2271 -12.6099 0)
(109.696 -12.7758 0)
(131.651 -9.27377 0)
(148.844 -7.75342 0)
(156.944 -2.18566 0)
(159.712 0.0828084 0)
(150.405 7.05015 0)
(134.94 8.86186 0)
(110.635 12.7584 0)
(83.081 13.2806 0)
(54.8536 12.4829 0)
(29.625 10.15 0)
(9.37745 6.93621 0)
(-3.22024 2.83593 0)
(-7.56625 -1.60532 0)
(-5.93871 -6.41951 0)
(-6.24858 6.52616 0)
(-15.3267 4.74256 0)
(-19.4234 1.1873 0)
(-16.1682 -2.48916 0)
(-3.86451 -8.64929 0)
(18.8396 -13.6919 0)
(49.7287 -17.2417 0)
(86.2028 -19.2307 0)
(125.019 -18.9096 0)
(160.56 -17.8099 0)
(192.762 -13.1703 0)
(217.864 -12.4966 0)
(232.35 -3.91516 0)
(241.373 -2.27064 0)
(235.044 5.98465 0)
(218.609 10.9311 0)
(190.273 18.1095 0)
(152.117 22.4364 0)
(106.944 23.9925 0)
(63.3891 21.3847 0)
(25.5829 17.1032 0)
(-2.54166 12.1747 0)
(-21.101 7.62203 0)
(-31.5194 3.4814 0)
(-34.9501 0.0305632 0)
(-34.3973 -1.81359 0)
(-29.8033 -3.99892 0)
(-20.551 -5.47222 0)
(-10.493 -4.56082 0)
(-2.91097 -2.73978 0)
(-4.31425 5.92875 0)
(-16.8446 9.89615 0)
(-35.626 12.3542 0)
(-56.4365 12.5142 0)
(-74.3956 9.72113 0)
(-85.8785 5.32179 0)
(-89.3732 0.769974 0)
(-86.1144 -3.37818 0)
(-75.5725 -7.50676 0)
(-59.514 -9.90509 0)
(-40.0005 -11.5308 0)
(-17.7428 -13.0754 0)
(6.76016 -14.1394 0)
(33.6806 -16.2982 0)
(62.5005 -15.5565 0)
(91.3423 -17.3013 0)
(118.544 -13.3609 0)
(142.189 -13.4801 0)
(159.75 -7.7165 0)
(171.622 -5.91921 0)
(172.135 1.85325 0)
(164.444 6.30469 0)
(146.17 12.4426 0)
(118.674 15.4571 0)
(85.2511 17.8391 0)
(51.7593 16.124 0)
(23.1996 12.8012 0)
(3.60317 7.77208 0)
(-5.1118 0.220208 0)
(-6.4266 -5.39416 0)
(-12.251 10.5068 0)
(-37.7203 11.4754 0)
(-62.1813 9.93424 0)
(-80.5101 6.65945 0)
(-91.5071 2.11159 0)
(-94.1722 -0.193246 0)
(-90.6319 -3.69882 0)
(-81.2228 -6.54115 0)
(-65.6381 -9.18205 0)
(-44.7698 -11.8107 0)
(-18.0904 -14.5268 0)
(13.4764 -16.9274 0)
(49.0034 -18.8351 0)
(86.9685 -19.1958 0)
(124.764 -18.4814 0)
(160.476 -16.404 0)
(190.666 -13.2814 0)
(214.167 -8.8717 0)
(228.659 -5.06286 0)
(231.3 2.80317 0)
(224.073 7.36073 0)
(203.064 14.9773 0)
(169.232 20.2228 0)
(126.485 24.9078 0)
(79.4929 24.2408 0)
(37.0753 19.8533 0)
(5.48252 12.7525 0)
(-10.3275 3.59749 0)
(-13.5213 -1.36767 0)
(-7.60468 -12.1814 0)
(-9.26157 9.01537 0)
(-21.7012 5.8355 0)
(-27.4756 1.02988 0)
(-24.6409 -2.60201 0)
(-12.0073 -9.06232 0)
(11.2177 -14.301 0)
(42.8765 -18.1755 0)
(80.9734 -20.6212 0)
(122.465 -20.8411 0)
(161.385 -19.7967 0)
(197.113 -15.9378 0)
(225.372 -13.2298 0)
(240.79 -6.07068 0)
(252.589 -1.31915 0)
(245.001 4.43095 0)
(223.085 13.0907 0)
(191.699 20.2118 0)
(145.584 26.8547 0)
(93.2767 27.4976 0)
(43.1831 23.5339 0)
(3.36383 17.4299 0)
(-22.9915 11.1837 0)
(-36.548 5.31788 0)
(-41.7062 0.767347 0)
(-38.7219 -0.860823 0)
(-31.8707 -3.86512 0)
(-22.3545 -3.44076 0)
(-12.1971 -3.89854 0)
(-4.60661 -1.15067 0)
(-0.175524 0.285128 0)
(-8.90109 8.58859 0)
(-10.4227 2.55025 0)
(-3.72775 -4.01927 0)
(15.0701 -10.9218 0)
(44.2646 -16.0732 0)
(81.4643 -19.5106 0)
(123.292 -20.0997 0)
(164.043 -20.6995 0)
(202.07 -16.3427 0)
(233.805 -15.7821 0)
(254.301 -7.61845 0)
(270.249 -7.12497 0)
(264.091 0.809569 0)
(247.82 12.1037 0)
(219.087 17.9559 0)
(174.136 25.6702 0)
(121.749 27.1429 0)
(70.0923 23.9639 0)
(27.1956 18.3532 0)
(-2.83728 11.9231 0)
(-21.7471 7.07432 0)
(-31.6015 4.41318 0)
(-35.2347 2.03732 0)
(-35.2511 -0.0126998 0)
(-30.0983 -2.74776 0)
(-20.2352 -4.07403 0)
(-10.1365 -3.16849 0)
(-2.96395 -1.12317 0)
(0.0701192 1.15909 0)
(0.507329 1.98854 0)
(-10.9719 9.92157 0)
(-25.8784 5.27609 0)
(-31.8447 0.327639 0)
(-26.4507 -6.13198 0)
(-10.0707 -11.6194 0)
(16.4118 -16.516 0)
(51.0566 -20.4478 0)
(91.7348 -21.8871 0)
(133.982 -21.1797 0)
(174.595 -18.4011 0)
(208.683 -14.3068 0)
(233.002 -8.3023 0)
(248.96 -2.10463 0)
(249.197 4.25842 0)
(233.785 12.0561 0)
(205.094 20.1916 0)
(161.941 24.7426 0)
(111.804 25.9088 0)
(63.9801 22.9181 0)
(23.0906 18.0098 0)
(-6.10898 12.1717 0)
(-23.3776 5.24088 0)
(-29.3218 -0.467358 0)
(-26.8058 -2.10342 0)
(-20.5525 -4.60236 0)
(-10.7508 -4.8137 0)
(-1.33879 -2.83936 0)
(3.30651 -0.639963 0)
(4.68844 1.51546 0)
(2.70825 2.81041 0)
(-19.8829 17.675 0)
(-45.456 9.59778 0)
(-55.1264 0.18574 0)
(-44.5637 -11.2099 0)
(-15.7876 -19.0682 0)
(25.2367 -23.6984 0)
(71.7371 -25.1185 0)
(118.899 -22.4964 0)
(159.843 -17.6173 0)
(190.011 -9.97214 0)
(204.579 -1.291 0)
(202.663 10.1864 0)
(177.764 17.8638 0)
(137.926 25.5289 0)
(89.1316 24.1999 0)
(46.7817 21.4194 0)
(12.7277 13.8002 0)
(-7.06786 7.39775 0)
(-14.8946 -2.05733 0)
(-10.0361 -5.62215 0)
(3.76651 -10.8095 0)
(22.4744 -11.2009 0)
(41.4678 -9.42914 0)
(52.0048 -6.5964 0)
(60.5861 -2.35993 0)
(59.7777 -0.701829 0)
(55.6627 2.61012 0)
(45.3825 6.03829 0)
(29.9419 8.37243 0)
(11.5336 9.87567 0)
(6.09254 -6.62291 0)
(8.01002 -2.31064 0)
(4.25332 0.97018 0)
(-6.63462 5.34191 0)
(-25.0917 7.57626 0)
(-46.6976 10.186 0)
(-72.2625 10.6992 0)
(-96.4504 10.7963 0)
(-118.808 8.00536 0)
(-136.083 6.85689 0)
(-146.685 2.26647 0)
(-151.972 0.584626 0)
(-149.724 -3.60204 0)
(-141.442 -5.76711 0)
(-128.047 -8.40876 0)
(-110.956 -9.93119 0)
(-90.528 -10.8254 0)
(-68.8483 -11.2642 0)
(-47.0646 -11.3804 0)
(-24.8523 -11.326 0)
(-2.60106 -11.0297 0)
(19.6065 -11.2416 0)
(41.3129 -9.50507 0)
(57.6689 -6.22898 0)
(65.2809 1.10871 0)
(64.0388 2.2227 0)
(55.0089 7.8114 0)
(39.7819 9.75524 0)
(21.2377 10.1825 0)
(6.26978 7.07484 0)
(7.08388 -5.41796 0)
(20.8769 -5.61537 0)
(33.0817 -3.64204 0)
(40.2602 -0.768483 0)
(42.8433 1.67292 0)
(40.6118 4.35611 0)
(32.2733 7.01904 0)
(18.9802 9.81282 0)
(-0.183554 12.3624 0)
(-23.7796 13.823 0)
(-49.0363 13.7996 0)
(-73.0798 12.1335 0)
(-91.5242 8.61288 0)
(-102.036 3.32121 0)
(-102.777 -1.27093 0)
(-94.559 -6.03326 0)
(-79.3089 -9.28322 0)
(-57.8315 -12.2782 0)
(-32.6341 -13.8266 0)
(-6.3577 -14.1232 0)
(18.519 -13.1126 0)
(40.263 -11.3476 0)
(56.7726 -8.47315 0)
(66.5404 -5.48566 0)
(69.7961 -2.1864 0)
(68.1112 -0.526934 0)
(61.1121 2.9484 0)
(48.3211 5.32143 0)
(30.9625 7.27968 0)
(11.1117 8.30179 0)
(0.446718 0.609482 0)
(3.24919 -3.47471 0)
(7.41583 -4.83248 0)
(11.5122 -6.76319 0)
(16.3377 -5.16872 0)
(19.75 -7.07537 0)
(22.3156 -2.08205 0)
(23.4161 -3.78874 0)
(22.2755 2.18292 0)
(20.5892 -0.357366 0)
(17.2256 4.14076 0)
(13.0225 1.75564 0)
(7.70526 4.11549 0)
(2.9289 1.90185 0)
(-5.38338 18.4319 0)
(-16.7548 22.2839 0)
(-29.1427 24.3692 0)
(-40.9902 24.3318 0)
(-51.052 21.0861 0)
(-57.9636 15.6414 0)
(-61.3616 8.79612 0)
(-60.716 2.90803 0)
(-56.4318 -3.88798 0)
(-48.3373 -10.6991 0)
(-36.7523 -16.8746 0)
(-22.5114 -20.3176 0)
(-6.03195 -25.0472 0)
(12.9766 -28.4934 0)
(33.9752 -31.3307 0)
(55.4433 -32.151 0)
(76.08 -29.5244 0)
(94.2724 -24.6576 0)
(107.396 -17.8784 0)
(115.437 -10.6648 0)
(119.496 -1.10915 0)
(116.518 7.27878 0)
(109.556 16.0377 0)
(97.9591 23.344 0)
(82.1689 28.9755 0)
(64.1319 30.1175 0)
(45.0211 26.9495 0)
(27.1898 19.9766 0)
(12.8156 10.5206 0)
(2.84556 0.0638529 0)
(-10.03 26.2383 0)
(-29.4897 31.0133 0)
(-48.0978 29.6732 0)
(-61.5995 22.7243 0)
(-69.1916 11.0778 0)
(-69.669 0.582498 0)
(-64.4739 -6.74385 0)
(-54.4011 -17.4352 0)
(-41.2473 -22.5968 0)
(-26.1627 -25.5784 0)
(-9.06139 -28.6247 0)
(10.1502 -31.4233 0)
(31.2388 -34.2191 0)
(54.5841 -36.0342 0)
(77.3988 -34.7974 0)
(98.6594 -32.0592 0)
(118.315 -25.2683 0)
(130.957 -17.8342 0)
(140.22 -9.35807 0)
(143.049 -1.13906 0)
(140.34 10.765 0)
(132.506 17.2525 0)
(119.315 25.9027 0)
(102.429 29.6829 0)
(82.7875 32.4094 0)
(60.4515 29.5642 0)
(38.6417 23.8341 0)
(20.2639 15.4565 0)
(6.10206 4.83091 0)
(-0.568101 -7.53297 0)
(-12.9782 29.5989 0)
(-39.0143 39.4796 0)
(-63.8763 38.3577 0)
(-81.1617 29.214 0)
(-89.3397 15.2436 0)
(-89.1146 1.60344 0)
(-82.7457 -11.1021 0)
(-69.9714 -21.9954 0)
(-52.0906 -28.7326 0)
(-31.3248 -32.5581 0)
(-8.77733 -33.56 0)
(15.177 -34.9996 0)
(41.4494 -36.7438 0)
(69.3044 -39.7324 0)
(98.7023 -40.3831 0)
(127.328 -37.7647 0)
(153.021 -29.6906 0)
(171.072 -23.8777 0)
(183.056 -8.03523 0)
(188.563 1.69647 0)
(181.84 16.3706 0)
(169.463 25.8369 0)
(151.218 34.696 0)
(126.53 38.6676 0)
(99.0573 37.9793 0)
(70.5269 32.6069 0)
(44.9275 24.5285 0)
(23.9106 13.9854 0)
(8.44891 1.96086 0)
(0.470271 -9.49739 0)
(-4.85662 17.3742 0)
(-9.71263 10.0582 0)
(-8.06434 -1.61256 0)
(2.03933 -13.1292 0)
(20.758 -28.6069 0)
(47.7186 -42.2733 0)
(81.0715 -52.15 0)
(117.833 -56.524 0)
(156.18 -55.8757 0)
(191.005 -50.7556 0)
(221.439 -40.1208 0)
(247.674 -31.349 0)
(261.992 -14.7015 0)
(269.016 -3.21337 0)
(268.28 13.483 0)
(256.488 29.3449 0)
(237.802 45.7562 0)
(210.247 58.9992 0)
(175.215 67.1827 0)
(133.462 65.9069 0)
(89.9779 56.3207 0)
(49.4461 43.7033 0)
(16.7948 30.1338 0)
(-6.66256 17.165 0)
(-21.4239 7.47441 0)
(-28.1853 -0.481652 0)
(-27.6607 -8.91209 0)
(-21.2521 -14.487 0)
(-11.9569 -13.6764 0)
(-3.62934 -9.5478 0)
(-7.55752 20.9404 0)
(-24.0135 30.8285 0)
(-42.1828 35.3047 0)
(-57.6268 32.5497 0)
(-67.7398 23.4759 0)
(-71.3328 10.987 0)
(-69.3357 -1.70573 0)
(-61.658 -10.6004 0)
(-49.3703 -22.1216 0)
(-33.4946 -27.2485 0)
(-15.4044 -33.2732 0)
(5.07735 -36.2187 0)
(27.9677 -42.0659 0)
(53.4329 -45.4027 0)
(81.7232 -46.9042 0)
(109.567 -46.4936 0)
(137.079 -41.5647 0)
(160.837 -35.4567 0)
(179.137 -24.0714 0)
(190.97 -13.5849 0)
(195.883 1.9988 0)
(191.598 14.4498 0)
(178.4 30.8404 0)
(159.091 42.3537 0)
(133.461 49.6125 0)
(101.97 48.8505 0)
(69.9343 41.6147 0)
(41.7016 28.904 0)
(19.4802 13.8592 0)
(4.13869 0.210445 0)
(-14.5465 33.2518 0)
(-40.2528 33.6479 0)
(-62.1079 27.2065 0)
(-76.8926 16.9585 0)
(-83.6518 5.24957 0)
(-83.6146 -2.86806 0)
(-78.746 -11.7107 0)
(-68.8907 -18.7754 0)
(-54.1072 -26.1843 0)
(-34.8187 -34.0215 0)
(-10.1683 -42.009 0)
(19.8588 -49.2382 0)
(53.9677 -54.27 0)
(90.3276 -55.9546 0)
(126.935 -53.6663 0)
(161.506 -47.7409 0)
(190.979 -38.2655 0)
(213.82 -25.925 0)
(230.204 -11.1321 0)
(235.782 4.59204 0)
(230.671 20.2918 0)
(217.562 37.3279 0)
(195.812 52.4437 0)
(165.968 65.3272 0)
(129.247 68.0694 0)
(89.2051 60.9006 0)
(51.5948 43.7262 0)
(23.0513 20.8515 0)
(6.20706 6.07138 0)
(-0.724065 -11.4929 0)
(-6.74752 24.173 0)
(-14.6866 14.3693 0)
(-16.063 0.675026 0)
(-8.54178 -11.1837 0)
(7.78871 -28.0705 0)
(32.6972 -42.3575 0)
(65.1482 -53.5238 0)
(102.835 -59.9449 0)
(143.064 -61.3124 0)
(180.825 -56.9125 0)
(215.943 -46.4095 0)
(244.118 -36.6561 0)
(259.989 -18.103 0)
(266.791 -3.1518 0)
(263.735 15.3195 0)
(251.927 34.0178 0)
(227.645 53.5879 0)
(194.733 70.2967 0)
(152.849 77.8345 0)
(104.609 72.6178 0)
(56.5368 58.3273 0)
(17.2258 40.8409 0)
(-10.0014 23.1712 0)
(-26.4561 9.64313 0)
(-32.5929 3.09142 0)
(-31.6928 -6.65814 0)
(-25.086 -9.35186 0)
(-16.5121 -10.716 0)
(-7.9282 -4.67943 0)
(-1.88718 -0.524272 0)
(0.765719 15.2436 0)
(8.21109 0.625174 0)
(22.0636 -16.6002 0)
(45.0547 -33.528 0)
(76.4627 -47.5055 0)
(113.869 -56.301 0)
(154.652 -59.5136 0)
(193.21 -58.2735 0)
(230.596 -48.452 0)
(261.535 -41.3874 0)
(280.835 -23.896 0)
(294.02 -9.36337 0)
(294.841 8.42566 0)
(284.248 28.2334 0)
(261.595 47.5687 0)
(232.413 65.3769 0)
(192.548 75.1882 0)
(144.535 73.369 0)
(94.4814 61.3811 0)
(49.5016 44.9862 0)
(14.1292 29.8027 0)
(-10.2777 19.2417 0)
(-24.8265 10.1679 0)
(-30.4577 2.7392 0)
(-27.8974 -6.96326 0)
(-19.7161 -11.4054 0)
(-9.92515 -9.28916 0)
(-2.58198 -3.52231 0)
(0.642589 2.80078 0)
(0.89876 6.21979 0)
(-5.28474 21.9326 0)
(-10.0912 9.34492 0)
(-7.95821 -4.80383 0)
(2.80821 -20.3036 0)
(23.0539 -35.6975 0)
(52.2013 -49.5515 0)
(88.5534 -59.5513 0)
(129.361 -63.7825 0)
(171.112 -61.3829 0)
(210.287 -52.5708 0)
(243.064 -40.3065 0)
(268.064 -23.8709 0)
(283.245 -6.7412 0)
(286.327 12.0105 0)
(280.006 33.5963 0)
(260.432 52.004 0)
(230.258 67.2477 0)
(190.719 74.4268 0)
(142.627 71.1913 0)
(93.5962 60.7519 0)
(50.8567 44.0554 0)
(18.3595 24.4823 0)
(-2.2105 9.58377 0)
(-12.9022 0.544072 0)
(-14.1383 -8.9877 0)
(-8.98698 -11.1571 0)
(-2.53705 -7.88797 0)
(1.29731 -1.6666 0)
(2.55839 4.10256 0)
(2.23596 8.63661 0)
(-12.1437 42.3937 0)
(-21.3835 17.1501 0)
(-16.0273 -9.45638 0)
(4.63685 -36.0614 0)
(38.3221 -57.2012 0)
(80.3029 -68.3838 0)
(125.655 -69.9341 0)
(169.75 -63.546 0)
(208.898 -49.9414 0)
(239.653 -30.4972 0)
(259.081 -7.50078 0)
(264.03 20.2315 0)
(255.481 46.5459 0)
(234.73 68.9791 0)
(193.159 72.4857 0)
(146.834 68.8617 0)
(97.0409 52.3267 0)
(56.9566 34.9924 0)
(28.0621 12.7718 0)
(14.4012 -4.37903 0)
(16.6359 -21.2644 0)
(23.238 -26.4216 0)
(35.215 -22.4728 0)
(40.8497 -16.2023 0)
(47.0558 -6.92084 0)
(46.5904 -1.2216 0)
(43.2876 6.98368 0)
(35.916 15.405 0)
(24.3897 22.0705 0)
(9.64619 28.0614 0)
(-0.888644 -10.9829 0)
(-6.87763 -0.891389 0)
(-18.4956 8.9068 0)
(-35.1506 17.8548 0)
(-57.0344 24.6991 0)
(-79.9813 29.8992 0)
(-104.374 30.4752 0)
(-125.301 29.6553 0)
(-143.691 22.8781 0)
(-158.331 17.7987 0)
(-166.456 7.72907 0)
(-170.802 -0.872763 0)
(-168.033 -10.4554 0)
(-158.609 -17.5772 0)
(-143.864 -25.0163 0)
(-125.107 -30.4463 0)
(-103.741 -32.9771 0)
(-80.9998 -33.7512 0)
(-58.3649 -33.7744 0)
(-36.376 -32.8154 0)
(-14.7439 -32.5157 0)
(6.49918 -32.1878 0)
(27.6244 -28.6515 0)
(44.6316 -19.0807 0)
(56.6122 -3.28489 0)
(60.6719 5.9511 0)
(54.8203 19.9803 0)
(43.1448 28.0583 0)
(26.044 30.4577 0)
(8.41796 23.363 0)
(4.69184 -12.8528 0)
(14.0464 -12.6021 0)
(22.2078 -7.68291 0)
(26.0882 0.872839 0)
(24.1945 8.76175 0)
(16.3458 16.4064 0)
(2.05529 24.8351 0)
(-18.8864 33.6248 0)
(-44.6593 39.9965 0)
(-72.2283 42.8075 0)
(-98.1673 41.2639 0)
(-119.053 34.2244 0)
(-133.217 22.8415 0)
(-139.536 9.1689 0)
(-137.586 -5.27895 0)
(-128.184 -17.0199 0)
(-112.024 -27.6507 0)
(-90.3216 -35.856 0)
(-65.0152 -40.7356 0)
(-38.7635 -41.5463 0)
(-13.6062 -38.5556 0)
(7.88739 -33.3782 0)
(24.6833 -25.6734 0)
(36.0949 -17.1041 0)
(42.253 -8.82659 0)
(43.8185 -3.1948 0)
(41.5238 4.77843 0)
(34.1849 12.502 0)
(22.1434 18.3036 0)
(8.18465 21.5111 0)
(1.71624 -1.11648 0)
(5.77899 -7.05223 0)
(10.7468 -9.59421 0)
(15.4541 -11.8482 0)
(20.3991 -9.68376 0)
(23.5873 -11.2384 0)
(26.1371 -4.04152 0)
(26.5362 -5.13457 0)
(25.2352 3.21549 0)
(22.7368 0.264226 0)
(18.6605 7.33255 0)
(13.911 4.3924 0)
(8.10994 8.00631 0)
(3.24391 4.58261 0)
(-5.2379 32.9285 0)
(-15.7776 37.4007 0)
(-26.1617 39.1613 0)
(-35.446 37.6408 0)
(-42.7201 31.6241 0)
(-47.7484 22.7539 0)
(-49.6207 12.2665 0)
(-48.2381 2.78492 0)
(-43.3624 -8.15572 0)
(-35.134 -18.9872 0)
(-24.0639 -28.3001 0)
(-10.1803 -34.411 0)
(6.27144 -42.0029 0)
(24.8974 -47.7635 0)
(45.1245 -52.9515 0)
(66.0254 -52.8272 0)
(85.6351 -48.6284 0)
(101.959 -40.1971 0)
(114.042 -29.9706 0)
(121.981 -15.1735 0)
(122.731 -2.20084 0)
(119.893 11.6683 0)
(113.295 25.3065 0)
(102.775 35.7661 0)
(89.1064 44.2604 0)
(72.9139 48.2681 0)
(55.2304 46.0152 0)
(37.102 37.9744 0)
(19.9717 25.2548 0)
(5.97919 10.0267 0)
(-9.35093 46.5466 0)
(-26.5033 50.0334 0)
(-40.9395 44.6649 0)
(-50.3943 31.2002 0)
(-54.1299 13.6857 0)
(-51.9987 -3.27977 0)
(-45.341 -15.8123 0)
(-34.7512 -29.9786 0)
(-22.3141 -36.902 0)
(-8.5345 -41.862 0)
(7.41066 -46.8464 0)
(25.9067 -52.9088 0)
(46.7504 -57.6357 0)
(69.6666 -60.502 0)
(92.76 -58.8493 0)
(114.066 -52.0772 0)
(132.141 -42.4738 0)
(143.913 -28.9487 0)
(152.532 -14.0278 0)
(153.951 -0.776628 0)
(150.674 16.5554 0)
(142.687 25.4089 0)
(131.037 40.255 0)
(117.268 46.6431 0)
(99.3901 52.2883 0)
(79.6953 50.891 0)
(59.2304 45.2484 0)
(38.3162 33.8291 0)
(19.7889 18.8532 0)
(5.65806 -0.854985 0)
(-13.936 58.4876 0)
(-39.6302 67.0643 0)
(-61.1798 60.0873 0)
(-75.0075 42.2018 0)
(-80.7705 19.255 0)
(-80.1944 -0.875608 0)
(-72.4195 -20.0066 0)
(-59.5905 -36.1905 0)
(-43.1621 -46.7873 0)
(-23.522 -53.2141 0)
(-1.83781 -56.183 0)
(22.4398 -59.1375 0)
(49.475 -65.2286 0)
(79.6025 -70.1671 0)
(112.338 -71.6846 0)
(143.246 -65.1738 0)
(169.064 -55.2387 0)
(190.186 -39.7575 0)
(202.734 -16.3792 0)
(206.866 2.146 0)
(202.315 22.781 0)
(190.093 40.2066 0)
(170.643 54.024 0)
(148.44 62.0645 0)
(122.292 63.2191 0)
(95.1272 58.178 0)
(67.0712 46.9402 0)
(41.3169 31.0594 0)
(21.5195 13.8977 0)
(6.42729 -4.9383 0)
(-5.56436 25.2174 0)
(-4.81993 10.4891 0)
(0.804975 -9.03744 0)
(14.798 -29.1398 0)
(36.3775 -52.6157 0)
(64.3179 -72.9971 0)
(97.0375 -87.3737 0)
(131.307 -92.6992 0)
(166.656 -91.2094 0)
(198.145 -81.992 0)
(225.669 -66.6001 0)
(248.024 -50.5607 0)
(262.218 -28.3967 0)
(269.919 -3.64359 0)
(266.603 20.0171 0)
(259.814 43.4175 0)
(245.356 65.6699 0)
(225.729 85.7747 0)
(199.6 101.089 0)
(167.111 106.932 0)
(129.09 100.803 0)
(88.8493 84.5565 0)
(51.3394 63.17 0)
(20.2148 41.0484 0)
(-2.02394 22.0455 0)
(-14.9827 5.25145 0)
(-19.2452 -10.9448 0)
(-16.4866 -21.5563 0)
(-9.97462 -21.8274 0)
(-3.14127 -16.2713 0)
(-7.00748 39.4987 0)
(-20.8829 50.294 0)
(-33.8612 53.4896 0)
(-43.4776 45.9669 0)
(-48.6273 29.9774 0)
(-49.1988 11.5709 0)
(-44.3071 -6.28139 0)
(-36.0498 -20.1391 0)
(-25.0295 -36.0927 0)
(-11.9383 -43.655 0)
(3.05839 -52.1605 0)
(19.8256 -57.5734 0)
(39.3973 -66.9908 0)
(61.8109 -71.9979 0)
(86.2235 -76.9637 0)
(111.278 -75.8017 0)
(136.319 -70.5184 0)
(159.8 -59.2375 0)
(179.333 -42.7928 0)
(191.832 -24.7726 0)
(195.018 -1.11743 0)
(193.796 20.6991 0)
(185.835 43.01 0)
(169.597 62.1675 0)
(148.006 75.946 0)
(122.782 79.9518 0)
(92.9994 73.6936 0)
(62.2476 58.1234 0)
(33.6806 37.8641 0)
(10.2455 16.363 0)
(-13.166 56.8742 0)
(-35.8595 53.9264 0)
(-54.3865 41.4589 0)
(-66.5454 24.2126 0)
(-72.9147 6.63374 0)
(-72.9089 -6.45982 0)
(-67.8631 -20.1486 0)
(-59.9102 -30.2282 0)
(-47.9244 -41.5706 0)
(-31.3594 -54.3304 0)
(-9.87196 -67.702 0)
(16.6639 -79.8044 0)
(47.5884 -88.2637 0)
(81.1035 -90.9263 0)
(114.821 -87.5098 0)
(146.867 -78.0758 0)
(174.658 -62.7438 0)
(196.926 -42.9158 0)
(210.683 -20.6615 0)
(217.562 4.29355 0)
(217.164 27.1547 0)
(206.263 52.8987 0)
(191.649 75.3785 0)
(170.374 95.2894 0)
(142.754 103.7 0)
(111.19 99.4346 0)
(76.8356 80.069 0)
(44.4018 48.9086 0)
(20.2177 22.4524 0)
(4.97934 -5.03029 0)
(-4.22923 34.9163 0)
(-8.45363 19.1469 0)
(-7.43908 -2.63736 0)
(1.72042 -23.5046 0)
(19.1083 -48.9713 0)
(44.041 -71.4261 0)
(75.4969 -89.1623 0)
(110.877 -98.6421 0)
(148.373 -100.039 0)
(183.501 -93.1172 0)
(214.351 -76.1273 0)
(239.208 -59.6883 0)
(255.667 -32.7205 0)
(263.957 -7.71287 0)
(260.036 19.4459 0)
(247.326 47.737 0)
(230.64 76.737 0)
(206.245 102.22 0)
(175.04 118.934 0)
(136.373 121.027 0)
(92.9324 106.418 0)
(50.6342 80.7872 0)
(15.8377 51.8654 0)
(-8.10369 27.9624 0)
(-20.5971 11.1056 0)
(-24.1806 -5.28846 0)
(-20.6653 -14.3723 0)
(-14.6514 -16.3094 0)
(-7.22144 -8.92028 0)
(-1.54275 -2.32295 0)
(3.73815 14.3168 0)
(14.9077 -7.98184 0)
(33.8338 -33.8282 0)
(59.4167 -58.5468 0)
(90.6573 -79.3747 0)
(125.634 -92.0695 0)
(162.899 -96.8011 0)
(197.933 -92.4388 0)
(230.568 -79.9811 0)
(256.686 -65.8022 0)
(275.893 -40.3668 0)
(290.342 -16.182 0)
(289.199 10.7181 0)
(281.257 38.8847 0)
(268.21 67.4434 0)
(245.676 93.7611 0)
(216.476 113.251 0)
(178.783 119.341 0)
(134.254 110.663 0)
(87.6198 89.6848 0)
(45.8312 65.4645 0)
(13.1438 43.8396 0)
(-8.44097 25.4884 0)
(-18.9265 8.41736 0)
(-19.7393 -9.36364 0)
(-13.8942 -17.8975 0)
(-6.04871 -14.9162 0)
(0.215977 -5.62498 0)
(2.42025 4.89849 0)
(1.5657 10.9888 0)
(-1.0466 26.2706 0)
(0.340787 7.74015 0)
(7.6517 -14.7121 0)
(22.2316 -38.8527 0)
(44.0071 -62.3454 0)
(73.5343 -83.6228 0)
(109.14 -99.0165 0)
(147.903 -104.788 0)
(186.891 -99.8922 0)
(222.407 -85.8619 0)
(252.295 -66.1004 0)
(275.638 -38.4142 0)
(288.695 -11.5626 0)
(291.411 19.2287 0)
(285.548 45.1769 0)
(270.847 73.7386 0)
(250.615 98.9349 0)
(221.064 114.847 0)
(184.108 118.466 0)
(140.287 108.166 0)
(95.6572 85.6338 0)
(57.0032 56.8108 0)
(27.2459 30.4489 0)
(7.72587 10.3626 0)
(-0.016995 -6.66549 0)
(-0.874748 -14.2002 0)
(1.71416 -10.1598 0)
(4.23764 -2.2988 0)
(3.60237 5.63407 0)
(1.7946 13.2817 0)
(-2.31369 52.0118 0)
(1.21391 12.7289 0)
(15.006 -28.436 0)
(40.189 -66.8657 0)
(73.9077 -96.0136 0)
(113.292 -112.216 0)
(154.169 -114.264 0)
(193.454 -103.014 0)
(228.132 -81.4632 0)
(255.664 -51.6811 0)
(274.051 -17.0692 0)
(284.208 21.349 0)
(282.19 59.4804 0)
(266.354 94.8163 0)
(240.849 115.944 0)
(205.797 118.695 0)
(156.033 103.234 0)
(111.661 75.9483 0)
(72.4999 42.2683 0)
(46.2662 8.46439 0)
(35.242 -20.6203 0)
(32.3201 -33.5226 0)
(34.5434 -29.6375 0)
(32.0262 -21.3213 0)
(33.4552 -10.1091 0)
(30.438 -1.16102 0)
(26.8174 10.2768 0)
(21.7111 21.2109 0)
(14.839 30.8716 0)
(6.09607 41.1569 0)
(-4.73912 -8.59655 0)
(-15.7466 6.34181 0)
(-31.6892 20.9215 0)
(-50.5544 34.0615 0)
(-73.2318 42.5778 0)
(-95.2524 49.4535 0)
(-117.842 47.248 0)
(-137.123 46.1936 0)
(-154.898 34.685 0)
(-167.888 26.9072 0)
(-177.018 11.3501 0)
(-180.523 -2.47961 0)
(-177.474 -17.9076 0)
(-169.602 -30.9533 0)
(-155.124 -42.125 0)
(-135.571 -51.6341 0)
(-113.604 -56.2804 0)
(-90.8419 -56.9185 0)
(-68.4268 -56.1169 0)
(-47.6129 -53.6737 0)
(-27.6645 -52.9432 0)
(-8.64081 -52.4819 0)
(10.6284 -47.1455 0)
(25.9095 -33.9063 0)
(38.8882 -12.0741 0)
(45.8316 6.4297 0)
(43.4088 28.1658 0)
(35.7242 42.9325 0)
(22.2329 48.6429 0)
(7.47383 41.1038 0)
(2.13986 -16.4278 0)
(6.24092 -15.7626 0)
(9.68665 -8.37314 0)
(9.92078 5.65938 0)
(3.90882 19.491 0)
(-8.81043 34.1448 0)
(-27.7806 48.7002 0)
(-51.6486 62.0473 0)
(-77.3261 70.4935 0)
(-102.008 72.1417 0)
(-123.391 65.2277 0)
(-140.215 51.9465 0)
(-150.588 33.6137 0)
(-155.353 12.8311 0)
(-154.148 -8.65711 0)
(-145.577 -28.5621 0)
(-130.17 -45.9539 0)
(-109.088 -59.4694 0)
(-84.5398 -67.2877 0)
(-58.3237 -68.8682 0)
(-33.6393 -64.855 0)
(-12.9039 -55.4677 0)
(3.48408 -42.9933 0)
(14.1494 -30.1257 0)
(20.6061 -17.9696 0)
(23.5929 -7.999 0)
(22.459 2.83233 0)
(18.8586 14.5117 0)
(12.1986 22.675 0)
(4.15982 28.1044 0)
(2.54627 -4.55875 0)
(7.9653 -11.693 0)
(13.7555 -15.0617 0)
(19.3802 -17.0077 0)
(24.3466 -14.5418 0)
(27.4999 -14.4825 0)
(29.7202 -5.72822 0)
(29.2347 -5.39418 0)
(27.4943 3.93537 0)
(24.2841 2.73586 0)
(19.6085 10.0437 0)
(14.0138 7.80228 0)
(8.21803 11.2196 0)
(2.81828 7.06953 0)
(-4.40262 46.4231 0)
(-13.1284 50.8634 0)
(-21.4049 51.6167 0)
(-28.3972 48.1663 0)
(-33.6904 39.7601 0)
(-36.4743 27.9437 0)
(-36.7956 14.749 0)
(-34.7212 1.42871 0)
(-30.4069 -12.7349 0)
(-23.0526 -26.8777 0)
(-12.8083 -39.0491 0)
(0.0013672 -47.7884 0)
(15.1075 -58.3123 0)
(32.4085 -66.5675 0)
(51.5536 -72.8229 0)
(70.7233 -71.9004 0)
(87.8172 -66.4104 0)
(101.699 -54.5146 0)
(112.67 -37.5323 0)
(118.021 -19.6834 0)
(119.58 -0.961326 0)
(116.299 16.5006 0)
(107.928 33.5025 0)
(97.664 48.1521 0)
(85.5922 58.7298 0)
(71.6289 64.1239 0)
(55.7405 63.4616 0)
(38.7649 55.5562 0)
(21.929 41.4429 0)
(6.95013 23.4338 0)
(-7.81807 63.6606 0)
(-21.2011 64.8399 0)
(-32.1046 54.8749 0)
(-37.8848 36.2776 0)
(-39.2403 13.2899 0)
(-36.1011 -8.55704 0)
(-28.9555 -24.8508 0)
(-19.7965 -41.1319 0)
(-9.34132 -49.5288 0)
(2.56103 -56.1578 0)
(16.2429 -64.2681 0)
(33.5557 -73.078 0)
(54.1704 -81.1638 0)
(76.5712 -83.8946 0)
(98.5711 -81.4554 0)
(117.862 -71.0854 0)
(134.334 -57.2458 0)
(144.696 -37.875 0)
(150.421 -19.0432 0)
(151.691 0.485947 0)
(147.404 20.9567 0)
(140.03 35.0555 0)
(130.193 53.5794 0)
(116.228 61.2304 0)
(101.378 69.5507 0)
(85.145 70.5876 0)
(66.4049 65.9884 0)
(46.3214 54.2704 0)
(26.6217 37.6762 0)
(8.60929 14.0947 0)
(-12.8377 85.857 0)
(-35.1489 91.6861 0)
(-52.9946 78.196 0)
(-63.64 52.8183 0)
(-68.3389 23.1283 0)
(-65.9549 -3.63038 0)
(-58.8681 -28.4155 0)
(-47.702 -49.0407 0)
(-33.102 -63.1963 0)
(-16.1314 -72.2156 0)
(3.65753 -77.4445 0)
(26.2118 -84.4291 0)
(53.2795 -95.1926 0)
(84.5556 -101.581 0)
(117.562 -103.87 0)
(146.688 -95.838 0)
(173.475 -80.0401 0)
(196.636 -54.9348 0)
(208.76 -28.0427 0)
(212.913 1.08007 0)
(208.58 29.2779 0)
(196.574 53.7757 0)
(179.539 72.509 0)
(156.168 83.4824 0)
(132.531 87.5503 0)
(106.508 82.7816 0)
(79.5917 70.2867 0)
(54.5914 53.0292 0)
(30.1259 31.7801 0)
(9.05888 6.8775 0)
(-2.81849 30.358 0)
(-2.21391 7.66074 0)
(5.10863 -19.3293 0)
(20.0535 -47.182 0)
(41.2989 -77.0033 0)
(67.2827 -102.318 0)
(96.8741 -119.884 0)
(127.08 -125.079 0)
(157.793 -123.434 0)
(185.183 -108.241 0)
(206.387 -90.3872 0)
(226.38 -64.5743 0)
(238.793 -35.8105 0)
(247.211 -5.46972 0)
(250.085 21.8008 0)
(241.65 53.1821 0)
(231.253 81.9399 0)
(216.502 108.06 0)
(197.813 127.268 0)
(173.711 138.852 0)
(143.425 137.873 0)
(109.155 123.661 0)
(73.7964 99.0624 0)
(41.6418 70.2673 0)
(15.7986 41.9239 0)
(-1.08687 15.807 0)
(-8.72382 -8.92406 0)
(-9.29492 -25.2137 0)
(-5.93533 -27.5653 0)
(-2.03014 -21.6911 0)
(-4.73284 54.0706 0)
(-13.1236 64.3559 0)
(-20.3424 65.4214 0)
(-25.4707 53.7267 0)
(-27.2786 33.3591 0)
(-25.1221 11.1147 0)
(-21.0479 -11.4006 0)
(-14.304 -29.2262 0)
(-5.56363 -46.9074 0)
(4.14395 -56.7685 0)
(14.3557 -67.1487 0)
(26.6647 -74.8833 0)
(41.5293 -87.4474 0)
(59.8586 -95.8164 0)
(79.8048 -103.692 0)
(102.007 -101.74 0)
(124.42 -96.6085 0)
(143.118 -80.7638 0)
(161.083 -61.0519 0)
(172.937 -34.7643 0)
(183.303 -4.92253 0)
(182.392 25.1188 0)
(174.356 54.3567 0)
(162.622 78.7496 0)
(145.339 96.7824 0)
(122.595 105.784 0)
(96.7218 102.972 0)
(68.5031 88.321 0)
(39.5754 66.4092 0)
(12.7168 40.3363 0)
(-10.6996 76.8511 0)
(-29.5227 70.8293 0)
(-45.6088 53.5692 0)
(-56.6721 30.7611 0)
(-62.0887 7.78024 0)
(-63.0558 -9.26898 0)
(-59.9215 -26.2807 0)
(-53.2398 -39.689 0)
(-44.0862 -54.4591 0)
(-31.0598 -71.0348 0)
(-13.1501 -89.5392 0)
(9.35465 -106.56 0)
(35.7638 -118.263 0)
(64.7441 -122.372 0)
(94.3814 -118.037 0)
(122.743 -105.374 0)
(147.452 -85.2992 0)
(166.17 -59.3069 0)
(181.138 -30.3407 0)
(188.514 1.11334 0)
(187.875 33.2375 0)
(182.548 64.8441 0)
(170.737 92.4525 0)
(154.875 116.842 0)
(133.714 130.761 0)
(110.436 130.757 0)
(82.7013 112.909 0)
(52.7417 79.2105 0)
(26.8657 44.5196 0)
(7.94716 9.31113 0)
(-3.74745 41.9822 0)
(-4.84938 20.8555 0)
(-2.16093 -7.9802 0)
(7.76993 -36.7876 0)
(24.7071 -69.4381 0)
(48.0555 -98.5983 0)
(76.9162 -122.095 0)
(109.1 -133.947 0)
(141.363 -135.403 0)
(172.192 -124.097 0)
(197.37 -103.335 0)
(217.601 -77.0085 0)
(232.375 -44.6444 0)
(236.598 -8.97237 0)
(239 25.0562 0)
(231.92 61.3306 0)
(216.284 95.2806 0)
(196.768 126.579 0)
(172.668 149.448 0)
(143.29 158.83 0)
(108.151 149.117 0)
(70.7768 122.303 0)
(36.3341 85.6221 0)
(9.46213 51.2836 0)
(-6.95767 23.1741 0)
(-13.7853 -1.02726 0)
(-13.7222 -16.732 0)
(-9.78768 -18.8977 0)
(-5.54807 -11.8815 0)
(-1.9644 -3.42849 0)
(6.12595 9.18011 0)
(20.4562 -19.9874 0)
(39.5363 -52.2031 0)
(63.4411 -83.0248 0)
(91.1591 -108.521 0)
(121.736 -123.896 0)
(154.806 -128.98 0)
(184.676 -122.453 0)
(211.804 -107.292 0)
(238.176 -83.1012 0)
(251.193 -54.1868 0)
(260.485 -21.8872 0)
(268.711 12.5339 0)
(263.375 46.7532 0)
(249.735 81.5025 0)
(233.922 114.846 0)
(211.841 141.95 0)
(184.055 155.768 0)
(148.586 153.022 0)
(107.819 133.649 0)
(67.3083 104.676 0)
(33.4616 74.0696 0)
(9.0685 44.7104 0)
(-4.31734 17.6446 0)
(-8.18244 -9.13997 0)
(-5.57836 -22.0006 0)
(-0.153682 -19.2503 0)
(4.02342 -6.44609 0)
(4.64565 8.19282 0)
(2.17374 16.7756 0)
(0.952028 23.9046 0)
(6.35207 1.03619 0)
(16.297 -26.6074 0)
(32.8006 -57.8497 0)
(55.0434 -88.9757 0)
(82.2576 -116.446 0)
(114.594 -135.646 0)
(149.733 -141.834 0)
(183.767 -134.68 0)
(213.666 -116.06 0)
(240.71 -87.1297 0)
(260.615 -52.3952 0)
(272.165 -15.1364 0)
(275.467 18.9352 0)
(270.608 54.4822 0)
(261.767 89.9586 0)
(243.849 120.623 0)
(221.567 144.958 0)
(193.681 156.392 0)
(159.999 149.162 0)
(120.795 127.219 0)
(81.8461 93.3757 0)
(48.721 58.7048 0)
(25.0247 27.9467 0)
(10.4201 0.537872 0)
(5.20748 -13.0344 0)
(3.84008 -10.6234 0)
(2.91523 -0.489743 0)
(1.90494 7.87791 0)
(0.626403 17.4434 0)
(2.66877 47.426 0)