/*--------------------------------*- C++ -*----------------------------------*\
| =========                 |                                                 |
| \\      /  F ield         | OpenFOAM: The Open Source CFD Toolbox           |
|  \\    /   O peration     | Version:  2.1.1                                 |
|   \\  /    A nd           | Web:      www.OpenFOAM.org                      |
|    \\/     M anipulation  |                                                 |
\*---------------------------------------------------------------------------*/
FoamFile
{
    version     2.0;
    format      ascii;
    class       volScalarField;
    location    "0.005900000";
    object      fH;
}
// * * * * * * * * * * * * * * * * * * * * * * * * * * * * * * * * * * * * * //

dimensions      [0 0 0 0 0 0 0];

internalField   nonuniform List<scalar> 
12384
(
0.0289629
0.0284003
0.0280601
0.0280783
0.0282579
0.028483
0.0286317
0.0287118
0.0286883
0.0286494
0.0286074
0.0287752
0.0305675
0.0311192
0.0231789
0.0242952
0.0249743
0.0251234
0.0251515
0.0251601
0.0251608
0.0251348
0.0250696
0.0249626
0.0248525
0.0247601
0.0246816
0.0246405
0.0246168
0.0246117
0.0246094
0.0246207
0.0246337
0.0246611
0.0246729
0.0247264
0.0247525
0.0248135
0.0248599
0.0249038
0.0248001
0.0240926
0.0232324
0.0229008
0.0280484
0.0261915
0.0261469
0.0266018
0.0269453
0.0272264
0.0274633
0.0276471
0.0278089
0.0279505
0.0280563
0.0281323
0.0281744
0.0281896
0.0281778
0.0281584
0.028097
0.0280852
0.0279885
0.0279725
0.0278551
0.0278114
0.0277537
0.0277002
0.0276101
0.0274819
0.0276127
0.0276963
0.0278535
0.0286358
0.0307714
0.0302553
0.0299689
0.02997
0.0300253
0.030093
0.0301474
0.0301997
0.0301621
0.030198
0.0301819
0.0301758
0.0301753
0.0301669
0.0302968
0.0300946
0.0301832
0.0300892
0.0300617
0.0300874
0.0299929
0.030012
0.0299533
0.0298926
0.0295343
0.0289716
0.0292309
0.0297166
0.0299499
0.0299562
0.0332258
0.0328221
0.0326085
0.0325354
0.0325345
0.0324847
0.0325178
0.0323729
0.0323801
0.0321677
0.032159
0.031997
0.0319256
0.0318096
0.0316104
0.0316456
0.0314912
0.0315283
0.0313801
0.0312197
0.0310702
0.0305264
0.0290102
0.028927
0.0295287
0.029821
0.0301296
0.0301876
0.0300697
0.0299307
0.035352
0.0373802
0.0375949
0.0372452
0.0367863
0.0363866
0.0359707
0.0356454
0.0353802
0.0352053
0.035079
0.0350552
0.0349257
0.0350604
0.0349111
0.0350385
0.0349028
0.0350425
0.0349133
0.0350294
0.0349836
0.0349701
0.0350154
0.03514
0.0352807
0.0355164
0.0359206
0.0355542
0.0336917
0.0334416
0.0312464
0.0309852
0.0299592
0.029786
0.0304842
0.0315472
0.0321734
0.0324931
0.0326392
0.0325782
0.0325225
0.0323769
0.0323247
0.0321627
0.0321452
0.0319942
0.0320581
0.0319645
0.0321464
0.0320297
0.0322267
0.0322039
0.032166
0.0319238
0.0293802
0.0264044
0.0264786
0.0267556
0.0269157
0.0270603
0.0300552
0.0314861
0.0343149
0.0357817
0.0364071
0.0365024
0.0365172
0.0364917
0.0364251
0.0364323
0.0364171
0.0364487
0.0364605
0.0365145
0.0365539
0.036604
0.0367086
0.0367938
0.036885
0.0370115
0.0371055
0.0370966
0.0360738
0.0339977
0.0335703
0.033495
0.0334638
0.0334861
0.0334903
0.0334716
0.0321008
0.0326692
0.0335037
0.0339287
0.0341529
0.0342235
0.034312
0.0342246
0.0342089
0.0340949
0.0340834
0.0340912
0.0340431
0.0340539
0.034007
0.0340039
0.0339975
0.033973
0.0339576
0.0338255
0.0348364
0.0424617
0.0441088
0.0436334
0.04282
0.0421271
0.0417548
0.0422768
0.0432458
0.0439484
0.0301581
0.0326409
0.0342882
0.0352056
0.0355008
0.035524
0.0354099
0.0352038
0.0349935
0.0348036
0.0346425
0.0345189
0.0344239
0.0343832
0.0343322
0.0342666
0.0342072
0.0343196
0.0342651
0.0343382
0.0342682
0.0341348
0.0352372
0.0366316
0.0368455
0.0369781
0.0370952
0.0371679
0.0372038
0.0372117
0.0361942
0.0370847
0.037082
0.0369081
0.0368033
0.0367203
0.0366309
0.0365185
0.036412
0.0363348
0.0362401
0.036235
0.036103
0.0361518
0.0359883
0.0360441
0.0360821
0.0361156
0.0361781
0.036364
0.0365892
0.0372145
0.0385303
0.0388135
0.0388207
0.0387636
0.0387499
0.0387451
0.0386146
0.0384591
0.0334752
0.0333699
0.0343052
0.0356952
0.0376421
0.0395366
0.0391908
0.0382389
0.0374502
0.0367493
0.0361275
0.0356542
0.0352812
0.034997
0.0348469
0.0347967
0.0348034
0.0348904
0.0351007
0.0353678
0.0356838
0.0360333
0.0363918
0.0367783
0.0371901
0.0376362
0.038205
0.0390761
0.039319
0.0326836
0.0232525
0.0234239
0.0218151
0.019766
0.0182043
0.0186184
0.0308152
0.0514816
0.055363
0.0564239
0.0569176
0.0572128
0.0573783
0.0575087
0.0576424
0.0577378
0.0578365
0.0578949
0.0578995
0.0578307
0.0577996
0.0578917
0.0580497
0.0580139
0.0577191
0.0572108
0.0565198
0.0545367
0.0470807
0.0266397
0.0258602
0.0262096
0.0273766
0.0286346
0.0293712
0.0297496
0.02997
0.0300661
0.0301105
0.0298493
0.0293807
0.0289745
0.0299412
0.0310746
0.023303
0.0246048
0.0252636
0.0253859
0.0253885
0.0253302
0.0252414
0.0250366
0.0247485
0.0244592
0.0242631
0.0241816
0.0241645
0.0241905
0.024239
0.024292
0.0243399
0.0243679
0.0243681
0.0243536
0.0243663
0.0243752
0.0244368
0.0245325
0.0246603
0.0247936
0.024842
0.0245273
0.0238062
0.0229635
0.0278499
0.0261888
0.026514
0.0272292
0.0276379
0.0278978
0.028152
0.0284479
0.0287295
0.0289565
0.029139
0.0292458
0.029282
0.02925
0.029158
0.0290137
0.0288473
0.0286619
0.0284872
0.0283279
0.0282046
0.0281038
0.0280123
0.0279043
0.0277673
0.027586
0.0275591
0.0276386
0.0281712
0.0293482
0.0307322
0.0301482
0.029934
0.0300459
0.0302147
0.0302995
0.030338
0.0303594
0.0303678
0.0303212
0.0302982
0.0301714
0.0301839
0.0300578
0.0299603
0.0298284
0.029786
0.029791
0.029789
0.0298128
0.0298161
0.0299139
0.0299423
0.0299402
0.0297606
0.0292519
0.0294422
0.0304159
0.0308021
0.0306386
0.0322192
0.0325254
0.033117
0.0335402
0.0337756
0.0338479
0.0337903
0.0336681
0.0334662
0.033298
0.0330485
0.0328212
0.0325632
0.0323478
0.0320316
0.0318799
0.0316946
0.031544
0.0313824
0.0312388
0.0310968
0.0309346
0.029621
0.0290992
0.0303391
0.0311111
0.0314048
0.031356
0.030997
0.0305896
0.0356795
0.0374069
0.0372281
0.036379
0.0356401
0.0352098
0.0348214
0.0345633
0.034421
0.03446
0.0346248
0.0346608
0.034793
0.0347022
0.0348372
0.034663
0.0347844
0.0346075
0.0347084
0.0345725
0.0346078
0.0345983
0.0346024
0.0346758
0.0348477
0.0351352
0.0356164
0.0358873
0.0352783
0.0350098
0.0312845
0.0306693
0.0300951
0.0318098
0.0332989
0.0337962
0.0335294
0.0329498
0.0322566
0.0316499
0.0311465
0.0308547
0.0306594
0.0305771
0.0305316
0.0305273
0.0305693
0.0306069
0.0307197
0.0308975
0.0311805
0.0315109
0.0317964
0.0319275
0.0310464
0.028318
0.0262742
0.0258003
0.0260221
0.026369
0.0336984
0.0371046
0.0383149
0.0377078
0.0367136
0.0361445
0.035846
0.0357841
0.0357505
0.0358719
0.0358629
0.0359902
0.0360278
0.0360372
0.0360816
0.0361274
0.0361698
0.0363004
0.0364861
0.0367225
0.0369442
0.037085
0.0368227
0.035142
0.033508
0.0333459
0.033426
0.0336407
0.0337312
0.0335739
0.0334161
0.0347989
0.0351885
0.0348924
0.0343629
0.0338388
0.0333725
0.0330322
0.0327755
0.0325989
0.0325083
0.0324682
0.0325089
0.0326352
0.0327963
0.0330369
0.0333179
0.0335811
0.0337886
0.0338116
0.034038
0.037733
0.0431834
0.0410997
0.0385504
0.037471
0.0374848
0.0378595
0.0388748
0.040577
0.0305048
0.0338144
0.0354789
0.036011
0.0357726
0.0352535
0.0346202
0.0340192
0.0335027
0.0330749
0.0327469
0.0325037
0.0323469
0.0322176
0.0321684
0.0322518
0.0323678
0.0326804
0.0330414
0.033472
0.0338484
0.0339838
0.0343903
0.0357797
0.0369198
0.0372473
0.037362
0.037355
0.0373799
0.0374557
0.0361768
0.0372407
0.0370622
0.0369468
0.0368081
0.0365428
0.0361986
0.0357991
0.0354096
0.0350621
0.034792
0.0345792
0.0343451
0.0342509
0.0342487
0.0343002
0.0346433
0.0350058
0.0353878
0.0358009
0.0362413
0.0367128
0.0377035
0.0389004
0.0396254
0.0398448
0.040108
0.0402347
0.0399847
0.0395464
0.0364286
0.0364268
0.0364587
0.0375805
0.0388508
0.0388852
0.0374703
0.0358939
0.0345995
0.03364
0.0332052
0.0330278
0.0330987
0.0331633
0.0332339
0.0331494
0.0331688
0.0332536
0.0336029
0.0342098
0.0349193
0.0355407
0.035927
0.0361811
0.0364109
0.0368131
0.0374948
0.0385416
0.0392717
0.0349204
0.0409339
0.0409682
0.0352954
0.0260871
0.0209718
0.0277679
0.0453943
0.0543958
0.0558686
0.05631
0.0563168
0.0561336
0.0559644
0.0558967
0.0560153
0.0561856
0.0564213
0.0565295
0.0563682
0.0556836
0.0545154
0.0530397
0.0534238
0.0554402
0.0572509
0.0575566
0.0567593
0.0538142
0.0462389
0.0264787
0.0258744
0.0273024
0.0289664
0.0297236
0.029724
0.0296396
0.0296219
0.0297585
0.0300506
0.0303428
0.0302971
0.0296319
0.0297391
0.0308898
0.0235057
0.0249774
0.0256093
0.0256599
0.0256277
0.0255587
0.0253486
0.0248254
0.0243377
0.0240966
0.0240722
0.024181
0.024376
0.024596
0.0247959
0.0249607
0.0250924
0.02517
0.0251729
0.0250827
0.0249349
0.0247282
0.0245445
0.0244546
0.0244985
0.0246468
0.0247896
0.0247308
0.0242259
0.0232201
0.0276576
0.0262658
0.0269747
0.0276965
0.027913
0.0280978
0.0284457
0.0288135
0.0291114
0.0293499
0.0295364
0.0296534
0.029684
0.0296173
0.0294564
0.0292193
0.0289478
0.0286714
0.0284241
0.0282487
0.028162
0.0281435
0.0281302
0.0280661
0.027932
0.0277408
0.0275952
0.0275692
0.0281197
0.0294108
0.0306865
0.0300838
0.0299928
0.0302223
0.030342
0.030373
0.0304037
0.0304045
0.0303855
0.0302837
0.0301315
0.0299716
0.0297726
0.0295743
0.0293468
0.0291355
0.0291131
0.0290136
0.0290613
0.0291844
0.0293658
0.0296227
0.0297934
0.0298978
0.0298715
0.0295579
0.0294433
0.0301562
0.0310113
0.0308115
0.0332527
0.0343609
0.0349425
0.0350413
0.0348331
0.0345445
0.0342206
0.0339848
0.0337297
0.0335566
0.0333195
0.0330649
0.0328212
0.032474
0.032294
0.0319289
0.0318005
0.0315791
0.0314121
0.0312331
0.0310649
0.0309834
0.0303054
0.0292156
0.0305639
0.0315431
0.0318201
0.0317831
0.0313742
0.0307776
0.0359991
0.0373018
0.0365672
0.03554
0.0350107
0.0347307
0.0344814
0.0344393
0.034758
0.0350831
0.0352782
0.0353766
0.0353053
0.0353293
0.035209
0.0352755
0.0351706
0.0352129
0.0351284
0.0350972
0.0349853
0.0348474
0.0347103
0.0346081
0.0346299
0.0347996
0.0352212
0.0357516
0.0359952
0.035729
0.0311393
0.0305425
0.032176
0.0340894
0.0341647
0.0332544
0.031916
0.0308282
0.0301228
0.0299174
0.0298776
0.0300655
0.0302416
0.0304669
0.0306326
0.0307584
0.0307459
0.0306941
0.0305521
0.0305201
0.0305123
0.0307758
0.0311558
0.0315916
0.0316239
0.030295
0.0279588
0.0267067
0.0260957
0.026119
0.0364329
0.0386434
0.0372017
0.0357309
0.0353162
0.0353826
0.0356208
0.0359806
0.0362204
0.0364713
0.0366058
0.0366905
0.0366248
0.0366288
0.0365311
0.0364414
0.0363242
0.0362224
0.0362292
0.0363939
0.0366632
0.0369454
0.0370539
0.0363479
0.0343644
0.0332971
0.0334082
0.0338903
0.0341642
0.0338474
0.0358457
0.035593
0.0346131
0.0334611
0.0325404
0.0319421
0.0315056
0.0312567
0.031038
0.0309008
0.0307464
0.0307028
0.0307526
0.0308882
0.0311512
0.0315359
0.032068
0.0326758
0.0332414
0.0336172
0.0337031
0.0349936
0.0402635
0.0407416
0.0373263
0.0367941
0.0372061
0.0372987
0.0371048
0.0381067
0.0312706
0.0350699
0.0361538
0.0358386
0.0351603
0.0343068
0.0334919
0.0328088
0.0322235
0.0317704
0.0314215
0.0311569
0.0309848
0.0308691
0.0308146
0.030786
0.0308655
0.0311175
0.0315668
0.0321679
0.0328783
0.0334915
0.0338753
0.034734
0.0362454
0.0372443
0.0373297
0.0371201
0.0370062
0.0373243
0.0365867
0.0372291
0.0372137
0.0371445
0.0367541
0.0361395
0.0354769
0.0348185
0.0342
0.0336119
0.0331026
0.0326773
0.0323176
0.0320374
0.0319404
0.0321516
0.0325591
0.0331976
0.0339352
0.0347371
0.0355424
0.0362315
0.0370239
0.0382537
0.0398982
0.0408236
0.0412525
0.0412816
0.0410446
0.0407172
0.0371552
0.0374327
0.0380149
0.0386444
0.0383418
0.0369637
0.0351872
0.0339483
0.033535
0.0336865
0.0342592
0.0349437
0.0354551
0.0357172
0.0356961
0.0354455
0.0350758
0.034608
0.0344046
0.034853
0.0356962
0.0361746
0.0361645
0.035831
0.0355577
0.0357216
0.0364992
0.0378322
0.0391599
0.0362748
0.0452366
0.0452963
0.0390995
0.0274111
0.0284765
0.0428799
0.0531055
0.0553296
0.0556532
0.0553134
0.0546214
0.0540261
0.0536344
0.0535605
0.0537609
0.0542023
0.0547812
0.0553837
0.0556582
0.0550414
0.0527119
0.0482498
0.0452245
0.0455796
0.0502264
0.0527695
0.0528275
0.0496623
0.0430202
0.0255914
0.0262915
0.0278784
0.028739
0.0283381
0.0280471
0.0280084
0.0280301
0.0281854
0.0285533
0.029452
0.0302363
0.0300348
0.0298152
0.0307481
0.0237291
0.0253525
0.0259705
0.0260365
0.0261025
0.0259313
0.0253131
0.024468
0.0240379
0.0240548
0.024327
0.0247185
0.0250909
0.0253783
0.0255706
0.025698
0.025822
0.0259631
0.0260732
0.026066
0.0258737
0.025541
0.0251032
0.0247294
0.0245268
0.0245568
0.0247009
0.0247647
0.0244548
0.0234236
0.027531
0.0264109
0.0273923
0.0279448
0.027991
0.0281413
0.0284629
0.0287706
0.0290583
0.0293935
0.029725
0.0299628
0.0300128
0.029883
0.0295931
0.0292039
0.0287991
0.0284672
0.0282436
0.0281371
0.0281361
0.0281696
0.0281922
0.0281752
0.0280772
0.0278859
0.0276746
0.0275515
0.0279974
0.0293405
0.0306528
0.0300688
0.0300835
0.0303122
0.0303557
0.0303917
0.030422
0.0304141
0.0303539
0.0301991
0.0298735
0.0296207
0.0291912
0.028922
0.0287015
0.0285577
0.0284703
0.0284153
0.0284629
0.0285365
0.0288055
0.0291623
0.0295351
0.0298006
0.0298931
0.029742
0.0295747
0.029996
0.030968
0.0308724
0.0353729
0.0355508
0.0351465
0.0343219
0.0334847
0.0328381
0.0323981
0.032143
0.0319967
0.0319357
0.0318879
0.0318275
0.0317828
0.0315942
0.0315924
0.0313759
0.0313806
0.0313269
0.0312997
0.0311948
0.0310319
0.0309382
0.0306272
0.0294745
0.0301855
0.031397
0.0318301
0.0318635
0.031581
0.031
0.0362175
0.0370584
0.0358891
0.0350388
0.0347694
0.034566
0.0345711
0.0350241
0.0355362
0.0357126
0.0356224
0.0354334
0.0353012
0.0352506
0.035267
0.0353206
0.0354089
0.0354596
0.0355187
0.0355099
0.0354317
0.0352845
0.0350728
0.0348207
0.0346492
0.0346486
0.0349465
0.0355087
0.0360328
0.0359902
0.0310456
0.0314841
0.0345631
0.0345397
0.0331839
0.0313891
0.0300189
0.0294713
0.0295015
0.0298544
0.0303834
0.0309734
0.0315092
0.0319605
0.0322888
0.0324739
0.0324984
0.032332
0.0319756
0.031537
0.0310595
0.0308387
0.0308137
0.0311829
0.0315465
0.0311623
0.029554
0.0281417
0.0270853
0.0262144
0.0383261
0.0374223
0.035514
0.0351336
0.0353753
0.0358548
0.0364003
0.0368454
0.0372188
0.0375196
0.037758
0.0379017
0.0379294
0.0378481
0.037633
0.0373409
0.0370023
0.0366655
0.0363817
0.0362751
0.0364274
0.0367261
0.0370415
0.03692
0.035591
0.0338001
0.0334083
0.034075
0.0345904
0.0342319
0.0360807
0.0345983
0.0330656
0.0320413
0.0314476
0.0310879
0.0308535
0.0306153
0.0304009
0.0301326
0.0299537
0.0298112
0.0297993
0.0298709
0.030031
0.0303382
0.0308517
0.0315788
0.0324067
0.0331429
0.0334872
0.0339443
0.0371969
0.0402817
0.0379798
0.0372002
0.0383419
0.0380554
0.0369634
0.0372038
0.0325743
0.0357772
0.0359694
0.0353698
0.0345509
0.0335953
0.0327154
0.0319786
0.0313778
0.0308888
0.0305029
0.0302203
0.0300309
0.0299126
0.0298585
0.0298743
0.029954
0.0301329
0.0304535
0.0309937
0.031778
0.0327087
0.0333917
0.03404
0.0353962
0.0369846
0.0373269
0.0369411
0.036488
0.0370526
0.0372617
0.0373233
0.0375198
0.0371598
0.036341
0.0354891
0.0346947
0.0339023
0.0330738
0.0322527
0.0314488
0.0308037
0.030245
0.0299442
0.0299048
0.029973
0.0304575
0.0312331
0.0322114
0.0333545
0.0345776
0.0356509
0.0365205
0.0375509
0.0394297
0.0411968
0.0416335
0.041471
0.0411255
0.040882
0.0376174
0.0382884
0.038716
0.0382487
0.0369293
0.0352079
0.0341749
0.0339912
0.0346281
0.0357457
0.0368061
0.0374148
0.0376734
0.0377583
0.0377354
0.0375833
0.0371768
0.0362564
0.0350634
0.0348462
0.0360308
0.0364013
0.0359159
0.0347106
0.0335508
0.0334846
0.0347683
0.0368544
0.0389238
0.0369677
0.0452407
0.0451946
0.0357138
0.0314736
0.0401782
0.0512337
0.0549253
0.0551263
0.0545932
0.0535434
0.0524076
0.0515354
0.0510226
0.0508804
0.0511775
0.0518386
0.0528013
0.0539237
0.0550431
0.0557047
0.0548267
0.049864
0.0425244
0.0393115
0.0407327
0.0435098
0.0458134
0.0444124
0.0388877
0.02383
0.0263327
0.0274213
0.0271302
0.0269043
0.0271647
0.0273632
0.0274118
0.0274565
0.0275595
0.0282783
0.0296385
0.030121
0.029874
0.0306693
0.0239496
0.0257138
0.0264054
0.0265909
0.0266713
0.0261371
0.0250143
0.0241294
0.0239663
0.024279
0.0247545
0.0252282
0.0256044
0.0258483
0.0259298
0.0259008
0.025935
0.0261666
0.0264383
0.0265727
0.0265091
0.0262053
0.0256923
0.025132
0.0247091
0.02456
0.0246324
0.0247443
0.0245747
0.0235557
0.0274655
0.0265898
0.0277463
0.0281107
0.0279873
0.0280346
0.0282371
0.0284835
0.0288861
0.0295056
0.0300985
0.0304733
0.030479
0.0301464
0.0295866
0.0289695
0.0284743
0.0281837
0.0280589
0.0280457
0.0281072
0.0281851
0.0282521
0.0282722
0.0281929
0.0280106
0.0277582
0.0275539
0.0279263
0.0293115
0.0306309
0.0300872
0.03016
0.0303287
0.0303408
0.0303879
0.0304107
0.0303948
0.030312
0.0300923
0.0296682
0.029299
0.0288133
0.0286452
0.0283729
0.0282552
0.0281282
0.0280141
0.0280618
0.0281177
0.0283592
0.0287737
0.0292773
0.02968
0.0298681
0.0298189
0.0296889
0.029998
0.0308852
0.0308627
0.0358047
0.0350398
0.0336353
0.0322796
0.0313119
0.0307324
0.0304447
0.0302619
0.0302912
0.0302672
0.0303558
0.0304108
0.0305068
0.0305417
0.0306002
0.0305761
0.0306884
0.0307772
0.0309388
0.0310074
0.0309307
0.0308452
0.0307026
0.0298032
0.0297485
0.0307401
0.0314686
0.0316935
0.0316774
0.0313184
0.0363699
0.0366929
0.0353449
0.0347875
0.0346525
0.0346507
0.0351381
0.0357653
0.0359416
0.0356468
0.0352631
0.0350829
0.0350984
0.0352206
0.0353846
0.0355962
0.0357719
0.0359045
0.0359978
0.0359981
0.0359117
0.0357566
0.0355161
0.0351687
0.0348503
0.0346742
0.0348202
0.0353233
0.0359954
0.0361212
0.0312604
0.0332667
0.0351472
0.0338067
0.0316588
0.0298738
0.0291327
0.0291964
0.0297359
0.0304727
0.0312125
0.0318804
0.0324854
0.0329875
0.0333809
0.0336225
0.0336673
0.033573
0.0333323
0.0328732
0.0321654
0.0314557
0.0309944
0.0309868
0.0313343
0.0313692
0.0304892
0.0294044
0.0281764
0.0264933
0.0388554
0.0359564
0.0351324
0.035292
0.0357722
0.0363911
0.036977
0.0374044
0.0378493
0.0382302
0.0385767
0.0388595
0.0390354
0.0389981
0.0387961
0.0384068
0.0378883
0.037329
0.0368187
0.0364442
0.0363567
0.0365512
0.0368909
0.037058
0.0363778
0.0347391
0.033945
0.0344328
0.0350142
0.0347305
0.0348126
0.0333307
0.0321718
0.031545
0.0311937
0.030933
0.0306313
0.0302624
0.029841
0.0294827
0.0291271
0.0289701
0.0288855
0.0289781
0.0291633
0.0294594
0.0299157
0.0306224
0.0315471
0.032536
0.0332219
0.0335282
0.0351495
0.0388327
0.0389798
0.0380877
0.0387801
0.0382073
0.0370382
0.0369295
0.0340379
0.0362141
0.0356477
0.0350295
0.0341265
0.0330659
0.0321285
0.0313485
0.0306971
0.0301484
0.0297101
0.0293984
0.0292007
0.0290963
0.0290847
0.0290907
0.0292373
0.0293877
0.0296899
0.0301317
0.0308482
0.0318907
0.0328554
0.0335672
0.0346956
0.0363934
0.0372351
0.0368053
0.0361406
0.0368773
0.0374556
0.0377323
0.037658
0.0368342
0.0358088
0.0349496
0.0341168
0.033136
0.0320635
0.0309366
0.0298567
0.0290034
0.0283668
0.0280446
0.027926
0.0282153
0.0286242
0.0293836
0.0304772
0.0318804
0.0334806
0.034976
0.0360932
0.0370369
0.0387483
0.0410837
0.0416356
0.0412149
0.0408217
0.040593
0.0380056
0.0386849
0.0385867
0.0373037
0.0356569
0.0345419
0.0343676
0.0351153
0.0364168
0.037478
0.0380391
0.0382567
0.0383321
0.0383795
0.038429
0.0384516
0.0382729
0.0376067
0.0359644
0.0346757
0.0362372
0.0367245
0.0358109
0.0338858
0.0315945
0.0309571
0.0327186
0.0357994
0.0386906
0.0373097
0.0431497
0.0437467
0.0363986
0.0393795
0.0484732
0.0540598
0.0548699
0.0542777
0.0530594
0.0514938
0.0499589
0.0487565
0.0479267
0.0477467
0.0481024
0.0490763
0.0503513
0.0518641
0.0534132
0.0549858
0.0559176
0.0542368
0.0462628
0.0386626
0.0380196
0.0391904
0.0413942
0.0404687
0.0345726
0.0223806
0.0259807
0.0263379
0.025925
0.0264053
0.0270706
0.0271933
0.0270401
0.0269629
0.0270195
0.0276105
0.0291656
0.0300671
0.029931
0.030631
0.0241469
0.0260885
0.0269241
0.027247
0.0271698
0.0261492
0.0246981
0.0239834
0.0240105
0.0244459
0.0249355
0.0253977
0.0258236
0.0261186
0.0261564
0.0259665
0.0257779
0.0260199
0.0264851
0.0267475
0.0267315
0.0265082
0.0260405
0.0254365
0.0249038
0.0246244
0.0246223
0.0247344
0.0246005
0.0236022
0.0274222
0.0268
0.0280943
0.028296
0.0279478
0.027837
0.0279056
0.0281449
0.0287809
0.0297876
0.0306333
0.0309983
0.0307658
0.0300771
0.0292221
0.0285066
0.0281193
0.0279877
0.0279629
0.0279958
0.0280941
0.0282372
0.028356
0.0283793
0.0282836
0.0280925
0.0278236
0.027573
0.0279139
0.029295
0.030628
0.0301176
0.0302047
0.0302979
0.0302864
0.0303289
0.0303617
0.0303496
0.0302699
0.0300175
0.0295357
0.0291049
0.0286166
0.02843
0.0281209
0.0281003
0.0279116
0.0278356
0.0278332
0.027899
0.0281106
0.0285279
0.0291114
0.0295963
0.0298294
0.0298471
0.0297634
0.0301063
0.0308918
0.0309559
0.0353963
0.0336139
0.031826
0.0306267
0.02998
0.0296723
0.0295738
0.029526
0.0295925
0.0296019
0.0296719
0.029734
0.029802
0.02989
0.0299163
0.0299963
0.0300708
0.030264
0.0305055
0.0307325
0.0307375
0.0306903
0.0306621
0.0300775
0.02963
0.0301565
0.0310278
0.031457
0.0318583
0.0317738
0.0364499
0.0362346
0.0349717
0.034673
0.0347001
0.0350917
0.0358171
0.0361527
0.0357484
0.0352439
0.0349944
0.0350404
0.0351987
0.0354804
0.0358141
0.0360325
0.0363417
0.0364377
0.0365667
0.036557
0.0364437
0.0362468
0.0359478
0.0355459
0.035111
0.0347924
0.0348084
0.0352548
0.0359978
0.0361894
0.0317499
0.0345537
0.0350315
0.0327452
0.0303899
0.0291222
0.028949
0.0293932
0.0301823
0.0308944
0.0315713
0.032297
0.0330593
0.0337334
0.0342554
0.0345593
0.0346084
0.0344214
0.0341239
0.033727
0.0331061
0.0322817
0.0314944
0.0310994
0.0311807
0.0313364
0.0309106
0.0301835
0.028812
0.0266921
0.0382851
0.0354415
0.0352226
0.0355468
0.0360717
0.0367054
0.0373221
0.0377615
0.0383308
0.0387849
0.0392724
0.0396571
0.0398809
0.0399671
0.0398314
0.0393938
0.0387251
0.0379821
0.0372966
0.0367431
0.0364338
0.0364601
0.0367482
0.0370805
0.0367934
0.0356741
0.0348925
0.0351232
0.0356109
0.0353096
0.0339492
0.0327827
0.0318867
0.031461
0.0311953
0.0308627
0.0303736
0.0297426
0.0291303
0.0286386
0.0283284
0.0280857
0.0280655
0.0281418
0.0283891
0.0287392
0.0292293
0.0299028
0.0308445
0.0319352
0.0329081
0.0333264
0.0341286
0.0370927
0.0388483
0.0387967
0.038794
0.0377016
0.0367146
0.0367343
0.0352072
0.0361246
0.0354821
0.0348299
0.0338174
0.0326908
0.0317159
0.0309048
0.030199
0.0295992
0.029137
0.0288497
0.0287077
0.028659
0.0286481
0.0286927
0.0287785
0.0289294
0.0291679
0.0295248
0.0301725
0.0312191
0.0323659
0.033197
0.0342389
0.0358759
0.0369469
0.0363846
0.0361539
0.0369454
0.0374933
0.0381121
0.0375473
0.0364166
0.0354408
0.0346394
0.0336948
0.0324314
0.0311236
0.0295991
0.0283866
0.0275427
0.0269418
0.0266645
0.0266902
0.0268005
0.027283
0.0280058
0.0290589
0.0305977
0.0324682
0.034297
0.035682
0.0366382
0.0381106
0.0406695
0.0415129
0.0408901
0.0404832
0.0401961
0.0382347
0.0388475
0.0382481
0.0365282
0.0350742
0.0346148
0.0351661
0.0364531
0.0375457
0.0380848
0.0381733
0.0380835
0.0380554
0.0381498
0.0383537
0.0385946
0.0387501
0.0385188
0.0371665
0.0346792
0.0360126
0.03713
0.0360411
0.0339071
0.0306751
0.0296788
0.0313219
0.0350969
0.0385929
0.0374514
0.040267
0.0433817
0.0400959
0.0459559
0.0522099
0.0543313
0.0542865
0.0531942
0.0514284
0.0494197
0.0473555
0.0456319
0.0444715
0.0441101
0.0447075
0.0460594
0.0479194
0.049789
0.0516824
0.0534979
0.0552916
0.0561454
0.0521486
0.0409853
0.0374589
0.0388827
0.0396994
0.0380501
0.0306913
0.0209529
0.0254695
0.025198
0.0252815
0.0265882
0.0273088
0.0271098
0.0268196
0.0267327
0.0268313
0.0274773
0.0290478
0.030049
0.0299573
0.0306372
0.0243502
0.0265287
0.0275039
0.0278413
0.0274979
0.0261758
0.0245648
0.0239306
0.0240009
0.0243607
0.0247609
0.0252489
0.0258612
0.0263659
0.0265323
0.0262471
0.0257947
0.0257575
0.0262219
0.0266804
0.0267155
0.0265072
0.0261058
0.0255552
0.0250411
0.0247117
0.0246668
0.0247449
0.024617
0.023578
0.0274782
0.0270104
0.0284558
0.0285204
0.0279559
0.027694
0.0276332
0.0278422
0.02873
0.0301134
0.0310251
0.0312151
0.0305798
0.0295791
0.0286485
0.0281146
0.0279522
0.0279076
0.0278868
0.0279633
0.0281617
0.0283799
0.0284864
0.0284697
0.028334
0.0281157
0.0278443
0.0275544
0.0279242
0.0293594
0.030633
0.0301491
0.030213
0.030216
0.0301684
0.0302058
0.0302678
0.03029
0.0302622
0.0300404
0.0295326
0.0290677
0.0285592
0.0283653
0.0281122
0.0280277
0.0278536
0.0277805
0.0277655
0.0278246
0.028065
0.028509
0.0291195
0.0296038
0.029805
0.0298374
0.0298296
0.0303671
0.0315818
0.0316823
0.0345897
0.0322734
0.030708
0.0298757
0.0295019
0.0293749
0.0293875
0.0294394
0.0295427
0.0295841
0.0296662
0.0297014
0.029714
0.0297659
0.0297089
0.0298059
0.0297792
0.0299527
0.030165
0.0304247
0.0304826
0.0304774
0.0305822
0.0302565
0.0297368
0.0300797
0.0309013
0.0314723
0.0323555
0.0324327
0.0364266
0.0357511
0.0347585
0.0346615
0.0349873
0.0356671
0.0362646
0.0361203
0.0354812
0.0350513
0.0349612
0.0351232
0.0354696
0.0358095
0.0361896
0.0363713
0.0366163
0.0367188
0.036826
0.0368496
0.0368064
0.0366156
0.0362812
0.0358627
0.0353317
0.0349174
0.0348649
0.035318
0.0360995
0.036201
0.0324334
0.0352091
0.0346543
0.0318611
0.0297123
0.0289906
0.0290616
0.0297428
0.0304337
0.0309875
0.0316764
0.0325436
0.0335262
0.0343787
0.0349956
0.0353124
0.0353349
0.0350723
0.0346534
0.0341889
0.0336877
0.0329216
0.0320012
0.0313231
0.0311537
0.0312665
0.0310318
0.0306135
0.0293483
0.0268601
0.037393
0.0354626
0.0354762
0.0357407
0.0362202
0.0369033
0.0375109
0.0379795
0.0385844
0.039024
0.0395416
0.0398835
0.0402217
0.0404506
0.0404036
0.0399843
0.0392829
0.0384435
0.0376177
0.0369818
0.0365615
0.0364572
0.0366706
0.0370445
0.0369763
0.0362756
0.0357873
0.0358208
0.0362299
0.0359417
0.0338535
0.0326041
0.0318144
0.0315096
0.0312583
0.0308144
0.0301004
0.029296
0.0285349
0.0281044
0.0277807
0.0276148
0.0274904
0.0275801
0.0278028
0.0282114
0.0287362
0.029425
0.0303545
0.0314921
0.0326364
0.0332234
0.0336664
0.0357454
0.0382187
0.0389863
0.0380276
0.0367028
0.0362189
0.0365205
0.0357784
0.0359054
0.0354654
0.0347214
0.0336582
0.0324879
0.0314977
0.0306606
0.0299124
0.0292632
0.0288207
0.0286086
0.0285488
0.0285491
0.0285545
0.0285631
0.0285948
0.0286941
0.0288584
0.0291401
0.0297247
0.0307719
0.0319833
0.0329461
0.0339629
0.0354713
0.0365252
0.0359824
0.0366259
0.0375014
0.037757
0.0382344
0.0373098
0.0361632
0.0352683
0.0344825
0.0333875
0.0318104
0.0303541
0.0284981
0.0274784
0.0265543
0.0259975
0.025799
0.0257146
0.0259784
0.0263562
0.0270286
0.028077
0.0296228
0.0316332
0.0337005
0.035333
0.0364063
0.0376836
0.0401501
0.0413052
0.040613
0.0400905
0.0397958
0.0383261
0.0389685
0.0379917
0.0361156
0.0349851
0.0350351
0.0360633
0.0372968
0.0379747
0.0380174
0.0376302
0.0372845
0.0372346
0.0374672
0.0378641
0.0382914
0.038701
0.0389082
0.0383246
0.0351323
0.0353732
0.0374247
0.0365724
0.0346094
0.0309931
0.029759
0.0311844
0.0351973
0.038744
0.0374627
0.0360624
0.0432081
0.0426811
0.0494043
0.0533709
0.0542107
0.0536446
0.0521722
0.0500154
0.0475603
0.0450524
0.0428339
0.0411004
0.0405862
0.0412442
0.0431875
0.0455821
0.0481007
0.0502655
0.0522019
0.0541458
0.0561364
0.056201
0.0455402
0.0366602
0.0377303
0.038302
0.0350712
0.0268822
0.0196405
0.0249032
0.0243552
0.0252221
0.0270574
0.0275993
0.0272892
0.0270953
0.0270867
0.0273515
0.0281037
0.0293632
0.0300529
0.0300733
0.0306211
0.0244004
0.0267476
0.027991
0.0283601
0.0278684
0.0264798
0.0246824
0.0239062
0.0238787
0.0240647
0.0243143
0.0247969
0.0256135
0.0264835
0.0269925
0.0268458
0.0261351
0.0255957
0.0258531
0.0264253
0.0265302
0.0263305
0.0259936
0.0255391
0.0250973
0.0248065
0.0247409
0.0247781
0.0245368
0.0235317
0.0275074
0.0271728
0.0288347
0.0290384
0.0282045
0.0276934
0.0274892
0.0276074
0.0286153
0.0302926
0.0311683
0.0311761
0.0301149
0.0290009
0.0282518
0.0279533
0.0278792
0.0278381
0.0278527
0.0279912
0.0282567
0.0284522
0.0285191
0.0284757
0.0283019
0.0280777
0.0277885
0.02756
0.0279794
0.0293804
0.0306417
0.0301876
0.0301926
0.0301027
0.0300194
0.0300544
0.0301487
0.0302337
0.0302713
0.0301388
0.0296874
0.0291291
0.0286227
0.0284127
0.0281931
0.0281115
0.0279288
0.0278201
0.027823
0.0279371
0.0282158
0.0287271
0.0292798
0.0296668
0.0297722
0.0297799
0.0300073
0.0315623
0.0338164
0.0338759
0.0334949
0.0315358
0.0302888
0.0296396
0.0293778
0.0293606
0.0294325
0.0295702
0.029683
0.0297959
0.0298533
0.0298848
0.0298711
0.0298478
0.0297948
0.0297713
0.0297244
0.0297882
0.0299648
0.0301639
0.0302619
0.0302849
0.0304996
0.0303778
0.0300111
0.0304413
0.0310663
0.0320786
0.0333807
0.0333577
0.0363662
0.0354508
0.0346564
0.0347815
0.0353476
0.0361028
0.0364881
0.0360679
0.0354148
0.0350515
0.0350453
0.035262
0.0356928
0.0360466
0.0363211
0.036505
0.0366744
0.0367871
0.0368734
0.0368953
0.0369116
0.0368011
0.0364479
0.0359801
0.035398
0.0350026
0.0350027
0.0355518
0.0362305
0.0362485
0.0328745
0.0355673
0.0341871
0.0315165
0.0296784
0.0291253
0.0294361
0.0301094
0.0305541
0.0309855
0.0316528
0.0325771
0.0336443
0.0345882
0.0351837
0.0353986
0.0354161
0.0350997
0.0347533
0.0343352
0.0339495
0.0332372
0.032297
0.0315057
0.0311738
0.0312109
0.0310597
0.0308425
0.0293676
0.0275109
0.0369738
0.0358499
0.0358997
0.0358624
0.0362605
0.0369466
0.0375578
0.0380358
0.0385842
0.0389781
0.0393977
0.0396495
0.0400354
0.0405282
0.0405463
0.0401152
0.0393771
0.0385145
0.0376762
0.0370471
0.0366254
0.0364907
0.0366712
0.0370251
0.0370687
0.036661
0.0363363
0.0364212
0.0369122
0.0365378
0.0339064
0.0325921
0.0318853
0.0316299
0.0313834
0.0308484
0.0300223
0.0290977
0.0283131
0.0278652
0.0275558
0.0273871
0.0272617
0.0272899
0.0274851
0.0279082
0.0284522
0.0291692
0.0300944
0.0312629
0.0324901
0.0331902
0.033483
0.0349332
0.0375863
0.0387001
0.0366767
0.0359454
0.0360275
0.0362854
0.0360074
0.0357919
0.0354962
0.0347816
0.0336796
0.0324623
0.03146
0.0306063
0.0297992
0.0291154
0.0286936
0.028539
0.0285393
0.0285774
0.0286032
0.0285998
0.0285806
0.028628
0.028713
0.028994
0.0294748
0.0305751
0.0317769
0.0328126
0.0338198
0.0351378
0.036022
0.0363704
0.0379606
0.0382442
0.0381291
0.0382189
0.0372685
0.0360848
0.035237
0.0344674
0.0332292
0.0314856
0.0299079
0.0279632
0.0270412
0.0259348
0.0255532
0.0253059
0.0253262
0.0254897
0.025871
0.0265094
0.0274953
0.029059
0.0311554
0.0333401
0.0350908
0.0361789
0.0373383
0.0396965
0.041025
0.0403232
0.0397319
0.0395633
0.0384005
0.0390524
0.0380585
0.0360871
0.0351426
0.0354945
0.036678
0.0376866
0.0379929
0.0375959
0.036895
0.0364129
0.0363859