/*--------------------------------*- C++ -*----------------------------------*\
| =========                 |                                                 |
| \\      /  F ield         | OpenFOAM: The Open Source CFD Toolbox           |
|  \\    /   O peration     | Version:  2.1.1                                 |
|   \\  /    A nd           | Web:      www.OpenFOAM.org                      |
|    \\/     M anipulation  |                                                 |
\*---------------------------------------------------------------------------*/
FoamFile
{
    version     2.0;
    format      ascii;
    class       volScalarField;
    location    "0.005900000";
    object      omega;
}
// * * * * * * * * * * * * * * * * * * * * * * * * * * * * * * * * * * * * * //

dimensions      [0 0 -1 0 0 0 0];

internalField   nonuniform List<scalar> 
12384
(
13129.4
22709.4
26972.2
30343.3
33223.4
35460.1
36464.3
36020.7
34256
31401.1
27695
22651.4
16017.3
8824.62
24918.9
33278.1
38780.3
41985.6
44072
45321.2
46024.9
47045.1
48845.4
52226
57676.6
63990.1
71333.6
78189.1
84738.3
89558.1
92763.3
92679.4
90008.4
85977.7
82916.4
80290.1
77782
74647
70110.6
63462.7
52697.5
36216.6
20158.1
15739.8
39454.5
46272.7
52273.6
56682
60130.2
62539.4
63846.6
63996.7
64382.7
66479.5
71081.1
77481.6
85275
93876.4
102622
111083
118606
123331
126405
120615
113300
106607
101506
96186.8
89065.8
78700.4
62893.5
41300.6
25546.6
27279.9
43609.4
54188.5
60923.4
64104.4
65326.7
66407.3
69707.9
77896.8
87886.6
100301
112372
125663
136366
146203
151582
152312
148926
144773
140551
135888
131045
124620
115582
102854
86323.7
69553.1
57130.5
46578.5
42372.2
47055.4
42661.9
52480
65449.9
79447.6
93088.7
105502
116544
125579
133082
138174
141224
142667
143397
144620
144285
143718
141050
136923
130450
121621
109632
94209.4
77108.7
64996.6
53806
43070.3
37335.2
38979.5
41014.6
38282.1
28635.5
38391.3
45598.9
50457.9
53927.2
56260.4
57272.2
57333.9
57487.7
59126
63540.8
69775.1
78003.3
86832.6
96255.4
105143
113001
119185
123075
124250
123168
120366
116020
110606
104564
97111.9
86783.8
70844
51568.4
42820.7
24558.9
29033.5
33750.7
36869.1
40026.2
46158.6
55743.8
67163.8
79217.4
90722.5
102157
111873
120958
127253
130500
131612
127232
125020
121819
118332
112526
104142
92000.9
76406.7
60911.1
53299.4
50452.2
46463.8
41622.4
39210.2
27959.6
27948.8
35711.4
49231.3
66178.9
84172.4
101730
118015
132676
142781
151852
153268
153666
147368
142243
137907
134340
130381
125544
119196
110632
99296
83388
63507.6
51111.9
46505.2
44091.4
42472.2
42604.6
42993.7
36572.6
51610
65723.9
82193.6
99301.1
116233
132031
144190
155352
159841
162967
157824
153423
149966
145892
140924
134586
126845
117144
104996
89218
67537
52808.8
46067.2
42135.4
39204.6
37741
35829.2
32819.4
29811.5
36470.9
45061.8
58508.4
73670.2
90385.1
107418
124637
141583
157672
171844
183609
191561
195116
194668
187507
180765
174132
166247
156715
143788
126306
102719
74396.2
58143.5
54173.8
52651.6
52137.3
52313.7
52430.5
52647.9
37495.5
51224.3
70134.3
88677.5
107274
125794
145172
163987
181694
196568
207698
214687
214637
209274
202066
193773
185631
176607
165302
150003
127860
97192.3
68724.7
59575.5
56228.5
55590.1
57247.9
59323.9
59936.8
57015.6
25492.2
30324.1
40733
48392.9
53248.5
56229.7
58218
59818.7
60995.4
61778.9
61839.5
61793.1
61037.6
60326.6
59912.4
61079.9
64404.9
69669.1
76588.7
84111.6
91797.6
98209.3
101115
98263.5
92462.5
87609.3
82113.7
73440.5
56523.8
28383.5
7701.72
11238.7
11112.2
10447.1
11787
23836.8
54154.6
78472
91396.9
99993
106249
111222
115045
119953
120446
118522
110845
100944
88383
74903.9
61695.9
51152.4
42396.9
33713.7
24655.2
16282.1
9404.93
4718.76
2335.23
1503.71
21338.4
84781.1
104869
124732
145435
165037
181378
191396
193178
184799
168230
142655
111365
23427.9
26419.7
108165
135853
152530
161239
162900
162788
172678
198355
239233
291198
350354
414016
480043
545886
608830
665579
712526
744734
754754
742418
708587
656981
587919
505854
413451
313613
214730
131762
28450.6
45627.2
179643
210146
226213
231758
227681
221476
221863
234810
264208
308347
362391
425611
495336
568238
640925
710517
774576
830069
874734
902573
898584
866541
806012
716868
593462
432881
261634
142223
41864.6
50731.1
179615
198848
204143
206019
233772
290431
369873
457868
559506
670948
791754
914355
1.03316e+06
1.1375e+06
1.21967e+06
1.26679e+06
1.27051e+06
1.23113e+06
1.1524e+06
1.04569e+06
908841
751934
579858
415182
270352
175595
146453
146441
61354
43625.2
235819
353042
460081
566682
672826
775617
871607
956959
1.02911e+06
1.0854e+06
1.12242e+06
1.1344e+06
1.12625e+06
1.0937e+06
1.0466e+06
977104
896258
800997
691934
567342
431860
300359
216315
207066
218571
216741
206780
188927
49462.8
40262.8
140379
165213
180439
186831
184827
179458
180409
194851
225371
272938
331320
398717
471547
546442
619586
686822
743605
783862
804336
801434
778633
736802
679058
608785
527340
433192
325842
213130
58910.2
29392
84444.1
98850.8
115818
157113
224308
302761
383750
467017
552174
638092
722799
803791
877750
939980
985365
1.00428e+06
999244
962795
910797
833998
742931
633415
506349
367358
234453
149646
127046
117937
50189.4
39774.4
103123
166301
258572
365294
478625
595582
714951
832237
943314
1.04166e+06
1.12214e+06
1.17631e+06
1.20123e+06
1.19115e+06
1.15003e+06
1.08422e+06
995610
890315
771837
642657
506387
374290
259532
180941
156464
153470
151980
148008
49329.6
52724.4
203650
311557
432502
559728
689200
817041
938871
1.04915e+06
1.14241e+06
1.21143e+06
1.254e+06
1.26026e+06
1.22833e+06
1.16668e+06
1.07945e+06
971024
846021
706746
557826
413782
293283
198712
162555
169154
173933
166306
153915
130651
39940.2
43489.9
137835
181346
252363
341920
443021
550409
662632
778142
893827
1.00492e+06
1.10581e+06
1.19022e+06
1.25339e+06
1.28838e+06
1.28239e+06
1.24359e+06
1.16952e+06
1.07201e+06
949777
806445
637941
453503
269005
163085
163880
168932
167225
156507
56262.7
43267
160027
229578
313627
418444
542810
681000
826364
974982
1.12079e+06
1.25754e+06
1.37661e+06
1.46933e+06
1.52349e+06
1.52925e+06
1.48223e+06
1.39514e+06
1.27585e+06
1.1311e+06
962550
768865
562789
366559
203361
183738
200912
208264
206517
192341
62489.4
38179.4
97088.3
130098
163513
199016
236916
274866
309590
336138
353078
355961
346055
322634
293474
264472
244335
241618
260238
298081
346682
402366
461142
517707
565960
592861
577233
530438
452500
335411
64739.7
15823.5
72049.7
79613.1
86895.8
126894
210252
310924
415977
519390
610524
681470
731105
754555
750793
715500
660983
591335
512144
426819
340676
257954
190673
146839
127731
117125
102820
85595.9
68520.6
49540.7
1930.79
27493.7
107109
128521
148303
165280
178246
187800
194016
196789
194529
186112
169893
145939
29967.1
29827.2
135525
153702
159639
160929
163278
175096
203510
245521
291972
336378
378485
420356
463895
509298
555948
601556
643614
678444
701657
707137
695431
667690
625226
567973
494647
403702
299162
195896
39118.1
49538.1
214224
225506
226666
225097
225502
235108
256584
289409
329684
370638
409304
449341
492705
540300
591413
644331
696861
745337
787856
819965
836694
836546
821817
786886
714143
584507
405667
232168
52467.4
55180.4
205533
205356
208197
236030
305321
387297
468462
537726
604827
673121
747130
826582
909063
988556
1.0588e+06
1.11185e+06
1.13738e+06
1.12789e+06
1.09512e+06
1.04038e+06
964152
859984
721674
560659
397069
255883
168083
160122
67728.3
49519.3
348793
468031
554501
630736
704124
777275
849228
917431
977908
1.02695e+06
1.0613e+06
1.07959e+06
1.08164e+06
1.06576e+06
1.03475e+06
990772
936335
871946
796895
700922
579524
439759
309423
228858
195105
189643
213203
230727
55577.4
47458
169263
182596
185645
184282
183076
189083
209732
245012
288955
337632
386619
437662
491467
547728
605173
661017
711564
752784
779200
788163
779292
755773
720111
674572
616390
538446
433551
302548
73159.5
33681.6
98363.1
111946
143790
210070
286800
356772
419612
480753
543721
610031
679639
750006
817453
876679
923135
953103
961144
948533
917699
873835
817860
745080
647782
521543
375120
237985
156182
131641
54506.6
47201.2
137523
233253
347993
464636
572014
670392
761810
847727
929429
1.00314e+06
1.06757e+06
1.11679e+06
1.14778e+06
1.15396e+06
1.13654e+06
1.0974e+06
1.0409e+06
970461
886756
785559
663409
526460
391248
276573
192648
146413
143748
166337
52448.3
64787.2
294212
438381
568661
683728
786507
880740
968958
1.04919e+06
1.11976e+06
1.17512e+06
1.2131e+06
1.22686e+06
1.2145e+06
1.17956e+06
1.12418e+06
1.05114e+06
962014
853717
722432
574115
428455
302740
204695
159687
151069
158636
168432
154975
43740.3
48960.5
161932
222763
323061
437646
550023
651936
744420
830370
912757
992385
1.06696e+06
1.13216e+06
1.18343e+06
1.21783e+06
1.22972e+06
1.21573e+06
1.18178e+06
1.12947e+06
1.05954e+06
965274
832161
658057
456983
267237
163052
149321
166744
176271
58641.1
49981.2
201620
287438
401319
538418
682787
819932
943728
1.0575e+06
1.16353e+06
1.26297e+06
1.3509e+06
1.42315e+06
1.47138e+06
1.48658e+06
1.46645e+06
1.41774e+06
1.34605e+06
1.25488e+06
1.13976e+06
987169
794168
579105
368239
215206
186712
197267
218098
227271
65727.3
45412.2
133738
175797
221902
270031
316329
356986
389855
412922
426027
428704
420934
403802
379816
352607
328746
317771
325978
351538
382278
411538
437889
463491
492705
522211
539609
541450
514039
431956
78342.5
23070.5
89825.7
88015.4
135317
224704
339535
457858
567602
662681
734082
781818
809461
819369
811716
787115
748138
697674
634299
557103
464392
359404
255195
166174
104722
77243.4
72366.7
72749
70127.2
60946
1856.36
31463.3
128083
151910
171029
182293
185437
184197
183344
185150
188457
189822
185970
173966
35124.3
34200.8
162288
166720
161232
158688
167722
193931
236357
285185
327753
358530
381713
401981
422377
444248
468385
495101
524420
555144
584669
604383
613203
609821
594744
566019
519973
451263
357931
251508
46474.4
53455.6
242853
232479
220375
216637
225610
250704
290255
339932
390541
431441
458212
477386
495054
516041
541929
572183
605000
638372
671635
702413
726543
744814
760462
768223
745562
661515
504742
316609
60514.4
59767.4
230422
214232
222761
279177
376543
471710
552307
609144
650681
681681
707968
735988
767649
806442
848805
890482
922134
936652
940221
929631
908742
863199
776340
644730
486557
331604
212352
174224
69660.4
59848
455284
560855
617521
657219
692842
732291
776639
824494
871907
914664
948329
970345
977475
971209
954383
928057
897241
861817
821568
764519
677816
556897
418063
291308
204258
178309
220276
263150
58596.1
53582.5
193680
193112
185829
181497
185839
205987
244919
295453
345546
388685
424073
456233
489506
525238
564244
604384
643512
679561
707020
722598
724804
715633
697911
675184
642661
589913
501602
370686
82550.5
37911
111501
127608
179453
261283
335028
390821
434840
475438
518395
567095
621901
680402
739299
793795
840401
874747
889510
887034
870006
844328
813392
773035
711867
615356
481416
327694
203653
146592
56681.1
51524.5
174891
297758
430249
552023
647081
719758
773954
818480
860845
902931
944637
981408
1.01168e+06
1.02826e+06
1.02938e+06
1.01584e+06
989081
952056
904747
840999
751678
634993
503271
375622
264692
179907
154094
180711
53770.6
74221.8
396765
557547
676253
762679
826687
878101
924980
970197
1.01392e+06
1.05302e+06
1.08485e+06
1.10321e+06
1.10489e+06
1.09142e+06
1.06436e+06
1.0252e+06
974243
906147
811910
687029
543637
403711
282798
190159
142165
151411
180491
172352
45687.7
52995.5
180221
264454
388831
519037
636370
728567
797455
848822
891395
931760
973159
1.01409e+06
1.05169e+06
1.08277e+06
1.10104e+06
1.10398e+06
1.09713e+06
1.07954e+06
1.05418e+06
1.01154e+06
930758
794599
606784
398896
226723
143267
164458
188867
59371.7
57571.4
233476
341948
484262
646442
799607
923082
1.01318e+06
1.08024e+06
1.13427e+06
1.18572e+06
1.23552e+06
1.28293e+06
1.32022e+06
1.34134e+06
1.34146e+06
1.32333e+06
1.291e+06
1.2485e+06
1.18924e+06
1.09559e+06
948336
750559
529295
327715
197860
175318
214547
253525
66820.4
53575.5
169184
220065
275045
329406
378152
418953
451611
476482
493914
503404
503636
494511
477130
452959
423980
401083
395125
408437
425021
431166
421068
401689
396366
419269
458960
504314
531880
500105
85428.8
28832.8
105446
122810
209016
320776
448449
567314
662962
733804
777009
799985
810762
813329
807457
794877
777555
753653
715086
655157
566566
451209
324113
208017
119818
71187.6
61738.1
65850.6
69292.3
65608.1
1813.64
33767.6
146352
172392
190031
194650
187068
173662
163823
164447
175264
189393
199994
201464
39178.4
38895.4
191074
179967
162644
157864
175536
213703
263672
313198
349362
369235
380021
386420
390167
391426
390675
390273
393957
406836
431755
464243
494727
519093
534041
535850
519191
476971
402093
302859
51756.9
57601.3
273805
241437
215445
209231
225526
263118
317646
382691
443830
486342
504150
505047
499835
497114
499544
504633
508728
511968
522280
547184
583357
626382
674694
721059
742347
701063
573459
390621
66087.3
65113.8
261611
230667
245854
324572
435943
542056
626628
679748
706642
711786
698702
675620
647449
625405
617574
634255
671240
714031
756843
792916
821953
827681
786524
685563
538883
379302
246922
187198
70148.2
74991.4
545767
627382
653254
658509
659233
665364
680959
705261
736292
769832
801108
826393
842375
848814
847265
839297
829952
820273
811339
792124
743921
649589
514000
366813
244082
192009
233656
281574
60372.9
59342.5
219802
204350
188129
182988
194850
228666
282708
342789
393232
427312
448597
464425
479660
496781
514821
533015
551391
573127
595581
616662
633639
644478
649674
650640
643464
616471
547753
423360
87922.2
42275.7
125301
147702
218214
305860
373193
417097
447586
474028
503037
536795
573831
610923
646204
681097
716690
751459
777342
791257
793892
789322
780510
766397
735498
667880
552608
398342
250954
164918
58341.7
54275.6
211474
355674
503488
627863
708051
753094
766294
764068
759412
760931
771733
792434
820020
847333
870228
886004
892981
890520
878165
850185
795572
705832
587989
458357
332627
228383
181908
187744
54513.9
82787
494713
653229
749732
801817
824043
830690
833694
839022
850194
868814
891789
915299
934152
947093
952677
949773
937170
909341
855001
762057
633608
490171
356750
244430
165667
160046
192344
181498
47035
57593.1
198076
304661
446437
587481
708209
789632
833979
849532
849383
845308
844938
853730
872676
898628
924925
947441
969046
985963
1.00188e+06
1.00501e+06
974116
880798
717303
510213
315091
178906
170822
197799
59712.2
68522.6
261769
393305
558843
738349
890674
991487
1.04029e+06
1.05333e+06
1.04977e+06
1.0456e+06
1.05214e+06
1.071e+06
1.09843e+06
1.12849e+06
1.15053e+06
1.16768e+06
1.1792e+06
1.18392e+06
1.17768e+06
1.14111e+06
1.04627e+06
881273
666369
449796
265840
163575
201520
271052
67358.9
61918.9
199689
258821
320524
378684
428809
470221
503383
529216
547748
559179
564773
565704
562033
549571
522722
487904
462550
459368
462958
453124
413787
346130
293417
306003
374464
466024
545872
561116
88028.3
33178.8
124763
171968
271988
397575
530397
639459
714041
755963
768304
764004
752478
741938
735091
736604
747176
756972
751632
718313
644961
529132
386281
249186
143951
80301.3
62936.4
64971.5
68977
66816
1858.76
35082.2
160603
187764
203780
202533
185461
161009
142335
142817
162195
189267
213446
227511
43226.5
43715
221331
193691
164405
158059
183385
228966
281843
330290
362200
377790
385960
389880
388569
379495
361427
335802
307273
286830
288578
321429
368688
418742
462059
493245
504866
488371
434627
347922
54815.3
61779.6
306250
253142
212475
202367
223523
269850
336247
414668
486216
531451
543841
529554
504867
483607
468774
453618
428642
390362
358932
369212
424895
502226
587168
669577
727189
720903
620439
453424
69738.7
71525.9
298738
253382
270687
360580
480381
594801
688925
746000
767921
759823
722955
664167
587039
502244
423501
384777
419175
498461
587449
669939
740148
784728
775698
697455
559516
397298
259172
193176
69734.1
94559.2
615184
671846
675212
654731
627802
605125
592210
588828
595136
609166
628122
650886
672759
693556
712500
729821
746957
764971
785246
799090
784436
714184
583541
425490
286712
223148
253166
283107
61911.2
65225.2
249081
217987
193730
189214
209039
254792
320031
385836
433991
460296
471579
477353
480352
482890
479114
469277
454723
443878
445566
467344
507241
550220
588707
618351
637352
633901
581235
460811
87991.8
46860.1
143014
174823
257362
344322
407669
445725
470005
489903
510505
531408
548563
556188
553824
547947
549891
571690
608589
649523
684989
712308
730854
741631
735408
691811
594407
443604
282498
179691
59219.5
57207.8
246442
406213
567566
693837
761160
782553
759229
715514
665305
620982
588776
578706
594455
632036
680452
730211
773948
807582
828139
831397
807218
743443
642046
515333
381111
266198
209684
192837
55423.1
92498.3
574701
722850
797348
818945
804375
771969
734400
699577
672358
659569
665200
690245
727791
770625
812235
848452
874208
884287
866309
804596
694599
553530
412554
289689
200474
184043
203608
183769
48582.7
64348.5
219210
341098
493090
644721
769908
842104
865199
848965
809170
759254
710163
673632
661943
678862
716411
765135
819857
874722
929482
973118
986258
931569
793107
590469
381948
222868
187675
201201
60148.3
81687.4
287121
438292
621103
811898
958259
1.03318e+06
1.04039e+06
1.00189e+06
945742
887672
844639
823012
832097
870451
922823
980576
1.03794e+06
1.09033e+06
1.13264e+06
1.14646e+06
1.10105e+06
973091
774193
554215
352026
188128
186130
279936
68999.9
69221.2
224655
290711
357365
417759
468188
508304
537275
555103
563419
566784
572732
585445
604772
617813
607486
568757
523465
498498
487930
468783
414964
318923
226386
224953
317555
446220
564634
612190
85267.4
36593.6
143021
205341
314624
450024
581975
678471
730981
743923
723331
685280
643083
612351
605588
627364
671060
718318
750331
748666
698622
591129
439830
284304
164085
90354.3
65836.9
65312.7
67989.1
65273.5
1999.19
35658.7
169796
197348
211713
205819
182342
152165
130178
132283
157281
192329
226273
249942
46820.2
49118.1
252076
207357
165718
156670
186907
235781
289292
337295
368537
386099
399176
409334
412800
404852
383152
346733
298240
248239
214591
222515
270196
333974
397569
451878
486824
490636
457012
385685
56434.5
65866.3
338662
266562
210923
194473
216860
268939
344108
433342
514662
565444
575907
551066
510847
476498
452211
427258
387187
323041
254337
242375
311060
413701
525005
632004
711354
726041
647326
501776
70482.1
79481.7
340061
278721
289302
379657
503747
628175
732689
799244
825298
815710
769853
698094
599572
482433
354378
245686
255699
366951
489358
601757
696929
760007
764054
693141
554130
387005
248524
190416
70618.5
117829
665049
705831
700269
665675
620795
577124
537857
503610
476399
457078
446894
451407
470246
507451
555124
608943
659847
709189
757227
796795
805547
750983
621459
455098
312257
251263
270237
276123
62588.9
71747.5
281610
233819
203241
200119
226629
282421
355988
424643
471289
494080
501801
504077
502382
495649
474850
438056
386673
329351
284055
293595
374519
465745
542915
601071
641800
654150
605556
477408
83258.4
52076.4
164411
205178
296318
380758
441560
479357
504080
523422
540581
553264
555633
538183
497022
439552
380343
351978
398345
482128
562421
628197
676533
710550
723675
697064
612848
464720
298245
192094
59308.6
62817.1
286871
455357
622649
751545
811761
818031
770033
698995
614538
527911
445389
384728
366108
412615
493177
580058
660663
726751
774824
801754
799677
756389
667806
541768
399757
279865
220145
191262
57557.5
106138
633946
770491
830603
831468
790934
731236
663527
593247
522884
462799
427673
445599
507596
590062
672366
747547
807257
848713
859820
822731
728590
590975
444502
312936
220090
200497
208727
182529
52110.9
72831.1
249910
378974
533807
691944
822148
889701
899402
861014
792178
704420
606559
510743
442476
434902
493292
581411
677011
772582
862649
940171
985930
959833
839690
639498
421651
252067
203208
204151
63202.3
93248.5
311682
478465
672276
869524
1.00861e+06
1.06072e+06
1.03453e+06
958263
862969
758570
658835
574728
547955
596426
687558
794386
899676
995490
1.07664e+06
1.13079e+06
1.12457e+06
1.02939e+06
849415
632557
423846
232737
180448
280104
73553.7
75036.5
243039
314875
386063
448043
497172
531612
548081
545382
528776
512394
515079
546655
598771
647383
664935
633286
571516
521308
493759
469088
416481
325896
232082
216562
306373
448425
583975
645297
77489.9
38747.3
150649
218932
333763
475700
607070
694347
729141
716601
665105
589253
508112
449258
443193
494312
576989
661543
727559
756259
731281
637129
482723
313327
179471
98948.7
68193.2
65591.3
66756.6
63128.8
2851.27
35612
171947
200642
214302
205828
181227
153671
136456
140143
163106
198057
237268
267069
52174.2
53956.9
284807
222230
165404
150174
182489
232080
284983
333569
366971
390220
411996
432381
445376
444806
428384
394874
346952
292577
243020
218189
237505
290748
357463
422459
471190
487194
467597
411760
55798.3
69742.7
369863
281565
208335
181750
202608
258039
339265
436475
527456
586928
599908
569712
519787
478234
451727
428130
392352
337321
277073
253865
300870
393132
503499
612270
694973
714660
650644
530614
69372.2
88859.5
383344
298704
291327
377631
503689
636103
752610
832276
869175
867051
826668
761416
669092
560712
443326
347260
323693
398337
505339
614152
705912
761851
757799
677366
529415
356605
230321
211035
84286.1
147654
697514
743624
741059
704101
653333
598992
542265
482594
425188
371251
324506
293990
292917
335493
415232
511042
596117
672261
740433
794917
812929
761939
626622
452408
313871
262458
274063
259313
62491.9
79112.5
316104
245113
205456
205041
241072
306446
386878
458560
506359
530265
540558
545294
546578
538627
512865
464431
395771
314416
245828
246970
342494
453860
549047
620495
666767
675501
615023
471006
78757.2
59066.7
193768
239752
333024
415393
475924
516705
545235
567695
585301
596549
594874
568165
509965
423396
317392
221320
249290
364598
476177
568311
637322
686671
710359
691636
613088
462744
296070
198315
59080.9
76993.3
340529
506028
674110
801457
859293
859799
804433
725253
627692
521423
406562
295450
210381
249210
364657
482879
588583
673927
737943
777550
786028
753408
669235
539401
391172
271009
211196
193369
66861.3
125028
669630
799833
856677
849515
796904
725004
643211
554982
457433
355534
256510
236305
333723
457458
573052
676066
758554
819104
847835
825834
741158
604686
453027
314246
218236
198376
211737
195663
64913.9
85921.3
300358
420500
571173
731581
864194
931586
938619
892741
811553
705028
578002
437044
302004
241921
322336
449766
579935
707042
822849
923771
987379
976277
862851
658245
431750
259284
207670
214566
74143.3
105523
360663
522927
713629
910964
1.04567e+06
1.08462e+06
1.04085e+06
946286
833113
702012
560102
404499
301738
358776
499867
651170
793411
920936
1.02809e+06
1.10763e+06
1.126e+06
1.05642e+06
894310
684138
473829
272402
187373
274138
81775.6
78771.3
253066
330365
407028
472443
520421
546508
544074
511210
457540
414304
416455
474689
563594
647941
695414
676565
602822
525771
479101
449708
406648
341071
276807
261932
328269
457853
589832
645836
69401.4
39666.8
147560
215195
331387
478788
613709
698860
724526
696799
624057
516324
391621
287883
289700
386634
507131
619242
708250
757239
749799
667334
513802
335650
189762
104471
69682.9
65999.7
67134.8
63626.3
7149.36
35029.8
167849
198324
212375
203598
183490
166162
160685
169454
192537
230750
278229
310942
257759
76353.5
77389.2
282783
310807
238241
169056
143313
172424
219492
270409
319126
355320
384663
415110
445824
469417
478316
469736
443086
402337
354516
308301
274285
266120
292539
343380
403386
453958
475765
465638
421845
269350
67697.8
82095.2
328153
393042
296345
210567
172756
186901
239941
321643
422782
522653
594161
615695
586387
532970
489313
465643
452032
434987
408108
377652
361295
378055
433876
514437
599892
665138
679416
627219
536078
331216
81932.7
112112
390945
419296
317899
287453
357136
477655
613814
740747
836182
890602
903142
878937
831410
763822
685850
606187
545507
521536
551579
616438
693153
757583
786849
758352
659879
508563
374669
371258
457470
438152
131287
149474
630855
751886
800095
802129
770121
724842
673080
615503
550045
482610
414077
352208
303344
291319
322636
398413
497102
590128
672916
745260
798404
809099
747839
601013
421639
294913
255554
263635
245026
200853
84855.8
110069
380007
355103
271463
227240
225571
261171
327543
410395
485248
537778
567544
584707
596964
607476
608645
592624
554919
499305
438733
395314
398917
455911
537414
615894
675156
705332
690309
603620
446245
226443
77653.5
88476.9
304412
287657
313725
377350
447867
505918
549930
583656
611437
633430
649205
652666
632996
584373
509150
418881
341522
324182
384297
472563
558275
626762
676564
698636
677781
595382
441301
284696
216386
204342
96364.9
103867
385588
439785
562169
714645
839066
900544
903633
855693
785336
697656
601835
496383
392892
310943
309165
386692
487399
584604
665674
727623
765925
773797
741083
654020
517472
363276
257924
275682
324840
301494
104403
118322
508433
682185
812580
875418
872536
823235
754610
676509
593029
499765
401372
302841
263090
330348
439419
551166
655594
741798
805653
838063
820118
737048
600200
445025
300119
202384
208713
269785
310839
295060
112274
123934
445018
432977
485935
605966
757382
891749
966198
980172
940040
864213
762664
640294
505500
376716
298889
334313
442247
571060
702589
824918
930366
991170
979049
861365
651333
419684
243881
220352
278005
288411
107097
111481
409840
454390
576369
746079
933649
1.06504e+06
1.10658e+06
1.06461e+06
975160
866455
739827
600613
443840
322427
337894
460165
605624
750370
882575
997407
1.08479e+06
1.11218e+06
1.0564e+06
906312
705370
500029
301435
202568
275142
328915
71433.4
70625.5
207320
266451
342812
424838
494718
543495
564066
547202
486135
391190
319476
332073
422141
538277
643819
710353
702698
619229
513504
445956
411985
382702
346313
312707
308464
355629
459117
573107
622154
335847
47917.6
42778
137199
153902
205651
318023
467640
607693
698363
726261
698599
624021
509077
369674
239116
251617
370700
501379
617579
709235
762878
760410
683913
532588
349383
195034
107908
74808.5
74461.5
79315.2
78478.9
55255.6
8169.52
3025.83
33668.5
157402
190607
206976
201017
187308
177622
175526
180457
195914
228071
277109
324827
338801
309978
305418
349457
307730
238339
167563
134818
157470
199072
246145
293953
332365
365908
402399
441376
474887
494696
496199
478266
445115
403963
363301
331099
313638
319665
348426
390791
430853
450122
441435
401577
326239
242278
278722
418927
399778
301148
209321
163394
169004
214377
290828
391925
498624
584567
620920
600697
551079
508836
489270
487094
489424
488112
481427
474262
475609
496465
535687
580801
613118
609522
560785
497720
435323
337301
380207
496564
453375
335966
273749
318204
427183
560629
693522
805119
881376
916562
916570
893511
856987
815048
773774
740717
724513
732479
761326
798461
823554
817186
762617
657935
536317
472187
504235
563932
596891
592000
614735
718314
814382
866237
875166
855327
825315
789675
747940
697607
644125
588029
536262
495111
479705
489032
529106
588035
655268
719143
774767
807735
794825
711001
552818
377417
260208
226392
235315
246251
294024
363946
430023
485043
380391
295070
249547
243652
274071
336956
420045
499270
559614
598898
625909
649202
673678
693607
701244
691798
667456
638694
616413
616175
639723
679027
719687
744730
739587
686968
573811
419044
291319
296015
357401
387210
331497
341032
393277
459504
518852
568097
609533
645358
675344
699613
714827
713188
690122
646263
590713
537611
505557
512998
550466
600819
646874
680177
688506
655736
565475
420329
305010
285000
321434
356908
382341
397536
439207
565995
716882
847283
923617
941098
913825
865557
804097
738170
667602
603136
551736
531040
549884
596265
652836
705852
747462
770578
766435
723745
631492
499879
370067
312801
343677
382543
385496
372888
386250
517924
672316
807770
884765
896887
863353
810636
750623
688951
624015
560482
503334
474014
487721
540254
611987
689025
757888
809162
831640
806654
721683
587488
435949
297604
223375
263807
355871
434487
483679
502884
500853
472817
419872
483706
598597
748345
891553
985273
1.01899e+06
998385
944584
867833
774901
675002
582913
521056
515995
569701
658786
764249
867657
954915
996206
967261
838235
627659
405134
252271
242633
298838
352940
375895
385502
390300
450355
577827
736509
921707
1.06517e+06
1.1253e+06
1.1035e+06
1.0374e+06
952495
856582
756574
653975
574913
547008
589655
676614
781157
886983
985251
1.06068e+06
1.08405e+06
1.03028e+06
888396
698364
503179
323636
241121
282339
339725
267716
243869
255915
294793
364106
446557
519824
571546
592307
573776
507507
403035
331380
353270
445824
557813
656873
721176
717126
624487
490459
400488
361018
342896
329924
321196
327570
361497
434861
520771
564768
439635
184409
154462
162191
168389
210537
310291
452694
596899
699550
741422
727676
670859
580184
478878
403816
410259
483390
578825
669145
741167
781612
769641
688047
536276
351977
193779
107003
74911.4
74510.6
79685.8
78518.1
65435.6
35915.5
2468.69
32125.8
143533
178755
199158
199513
193488
189313
187484
186662
191597
210139
247551
293558
319884
288614
287657
327060
282707
226425
160662
125838
139874
172580
213658
259326
298927
333857
372212
416093
457907
489800
504787
498948
475794
441510
405190
373585
351657
345265
354335
375681
399133
411857
402688
367611
318208
255088
297425
429264
389063
294336
201994
154039
153214
185769
249112
343723
453742
554329
611460
610714
573811
536569
518681
520134
530982
542673
549457
548907
542731
537784
537623
538811
530852
503332
456726
429124
451159
419831
454695
546376
482079
350670
256460
264843
353075
479128
612400
736297
834655
896581
925241
930944
925926
915865
904018
892213
882788
878645
881796
882715
870101
832282
762068
668115
584751
549065
553735
564242
566703
572464
629684
739481
846345
914521
941146
942292
935540
925889
912526
891679
864559
832435
797373
764546
742325
729148
732686
747841
774399
801222
821381
817165
767580
656106
493021
336466
241348
221351
258405
331979
417224
480748
515700
500909
380366
301988
257812
247707
270940
327500
409407
495010
566248
618234
657160
692443
731444
771476
804943
826353
834518
834110
826200
818240
815408
816086
813032
793948
746264
659510
534807
405084
336348
358183
398415
388929
321504
326804
376705
442976