/*--------------------------------*- C++ -*----------------------------------*\
| =========                 |                                                 |
| \\      /  F ield         | OpenFOAM: The Open Source CFD Toolbox           |
|  \\    /   O peration     | Version:  2.1.1                                 |
|   \\  /    A nd           | Web:      www.OpenFOAM.org                      |
|    \\/     M anipulation  |                                                 |
\*---------------------------------------------------------------------------*/
FoamFile
{
    version     2.0;
    format      ascii;
    class       volScalarField;
    location    "0.005900000";
    object      p;
}
// * * * * * * * * * * * * * * * * * * * * * * * * * * * * * * * * * * * * * //

dimensions      [1 -1 -2 0 0 0 0];

internalField   nonuniform List<scalar> 
12384
(
911773
911275
910406
910141
909256
907284
907598
903521
904555
899803
901359
897664
899247
897435
841734
840655
842497
840324
844175
843710
844448
851141
849592
856244
858661
859632
865007
866391
866360
868776
867485
870545
868222
875920
871040
884685
887169
893887
899517
904761
905969
908250
908512
910514
848548
847005
848956
847418
851401
849950
854702
854943
858046
859421
860775
861104
860207
858632
855763
855214
849767
848866
841613
843295
835470
838891
838196
842412
846915
848865
848153
849344
849741
848790
897412
896735
895945
897498
897054
899047
899237
899550
894579
893780
871147
878406
837784
853856
809607
831051
801109
821444
810484
840763
831972
864047
858742
878543
876755
887406
891415
897920
901249
903296
826622
826927
823529
816831
812964
800359
788441
775403
779370
758204
768969
756098
775279
761483
795157
780713
818013
809065
835481
833533
845964
846448
856196
852805
864632
861131
872685
874169
878167
878125
845688
844548
844862
843640
843959
843310
843148
841963
841975
838687
839003
831414
832970
819007
822649
803161
809507
787291
796368
781261
787265
792291
790364
796672
802739
803031
805122
807234
807636
807710
830929
830657
831866
832778
834392
835365
835770
835269
832463
828309
829233
820102
814768
816753
808163
810787
814146
807652
825202
820030
840127
836576
846175
852026
855356
857081
858215
859945
863006
861952
881679
882494
883847
885047
883209
880232
872156
870118
850411
855362
828527
838735
817002
824938
818700
824882
827705
838314
841494
845830
847691
847103
844952
841301
836982
830285
828357
826050
825863
823075
855560
856854
857319
856381
852916
848529
843426
830896
828464
823756
817302
815716
820769
825165
826188
832814
839968
842693
847006
849031
850383
851657
851955
852803
851763
854207
854103
855401
855564
856867
867582
868343
869646
872493
874815
876869
875951
871689
863908
850630
837875
826608
812097
796389
804391
803487
794973
828843
821793
838527
853309
852282
857446
863014
862411
864295
868001
868984
870171
869434
911635
910891
912065
912204
913458
913565
910948
904570
897394
881230
870185
855940
856623
843555
850402
856555
859980
868989
876820
883309
885817
885773
883505
881681
880502
876911
878436
880715
882409
881451
841308
848164
843061
853247
852166
856116
864261
864253
867369
868280
868801
870165
868643
872977
877564
875517
884166
886199
886376
890807
891518
891191
893523
892467
894573
898909
902209
906272
908660
911000
913481
912611
909777
906541
900871
898956
895266
894457
893216
892032
892415
892841
893362
897785
901634
905915
908996
908573
905592
900825
900018
887940
883734
884418
872498
878382
869572
874156
870781
872724
911686
911227
910628
909743
909007
906969
905921
903395
903180
899324
899906
897782
897619
897390
840995
841234
840210
842032
841422
841525
848001
845860
850316
855363
855024
860478
862146
865072
866689
866378
868316
866954
868654
873812
872888
876569
887953
892309
896666
903194
907100
908519
909956
911195
847709
848243
848385
848227
850956
850152
854151
854966
857500
858879
859885
859743
858578
856837
855088
852361
848061
846732
842530
837867
836113
833122
837158
838768
842875
845790
850231
851542
850160
853428
896873
895814
895029
896632
896436
898138
898675
898109
892984
890293
871780
873834
837984
846543
811789
822613
803372
810567
812651
826625
831385
856236
856592
875720
880728
885334
889314
894187
897228
898582
824575
823793
820768
814247
805743
795992
788895
778169
763738
764476
759094
757431
769421
763693
788893
781918
813925
805641
836809
831262
849683
847214
857212
853976
863095
862259
870364
872171
875958
877063
844346
844493
843905
843864
843598
843285
842791
842584
841079
839190
836751
832144
829886
819299
819854
804200
803314
789716
793211
781118
785199
785182
790020
799157
799066
802646
807119
807533
807446
808489
830123
830390
831800
832370
833724
834245
834600
832929
831512
828211
824080
822163
813776
814649
808513
806875
809917
808705
821074
818053
834088
834199
846138
852293
855913
857592
861184
860073
859233
858961
881901
882367
883718
883297
880881
879833
867151
862150
852280
841012
832514
828332
818628
815307
818095
819278
822239
830757
838579
843685
846907
847937
845626
841766
837197
831181
828869
826848
827139
824386
853203
855023
854470
852099
848918
843190
837124
825875
823394
817043
817048
818323
812576
817192
823802
827345
832527
839473
845910
850096
852038
852815
853568
853353
853577
853312
855457
856375
856990
857108
866889
866860
867604
870410
872644
873200
871732
867044
857761
844398
832563
821820
808996
796713
797524
802807
797377
817290
819715
838161
851967
852582
861252
860919
862468
866007
865673
868509
868667
869162
908778
908721
909482
910051
910622
909385
905829
898161
884480
874322
864250
850992
838915
846496
839084
840387
852405
858793
868334
876321
882720
884021
882849
880475
878841
876749
877156
879110
879857
878397
841213
848227
843028
853736
850933
860534
859798
865433
865315
867325
867114
866675
871750
869461
875847
878331
881085
883651
888596
888224
890584
890677
889394
892297
893952
894287
898406
905588
908864
912128
911241
910578
907841
904625
900637
896904
895210
895434
892094
892154
889427
888512
890393
892916
897728
902223
904390
904981
902461
901621
892875
894922
880715
885894
873159
878156
870795
873052
871598
872059
911238
911321
910286
909830
908336
906350
905200
903157
901618
897744
900139
895045
895772
895684
840392
839444
840599
839607
842524
840878
844104
849558
847588
853930
856595
857710
862676
863239
866038
866697
865954
868002
865893
869718
874944
872989
883671
890456
894606
899835
905165
907794
909207
910879
850604
847781
850313
848692
851421
851166
853503
855087
857047
858271
858810
858363
856944
855133
853077
849759
846588
846486
839035
835154
834453
832233
829596
833092
838726
844740
848450
849512
853714
854715
895934
895236
894327
897063
896206
898065
898329
897652
890530
889250
869560
869351
832760
847367
804604
822074
799121
811612
802780
823602
826177
845748
854014
870243
873086
883989
884443
889291
891813
891176
822216
821235
815863
810454
802623
786728
787927
772126
757581
763239
757264
750585
769012
758530
788923
776065
812059
803166
832074
828643
847321
845037
857151
854147
862282
860859
868070
871090
873478
874910
848292
846990
847013
846201
844984
844190
844017
842098
841826
838131
836708
831915
826605
819260
818165
800409
802849
790061
786965
780397
785507
783186
788479
794834
797519
803234
805516
806557
807904
808708
830202
829840
831430
832085
832926
833543
832915
831691
829990
827231
820740
819788
811433
810675
804589
805625
803630
808577
813213
814768
830643
830955
842611
850716
853542
859920
861126
865314
866505
867698
882470
882662
883059
881699
879013
874821
862025
860640
838906
844058
822975
819863
813779
813426
807613
815743
819344
822515
831734
838749
842338
843999
843866
841174
837280
832551
830199
826295
824362
822842
851323
852172
850748
848937
843391
837806
828315
820748
816810
811961
804853
806175
812549
807804
811880
820538
826379
835873
839880
847972
849638
852902
853430
854259
853540
855616
855980
857429
858187
859507
864982
865646
866912
867596
869093
869249
866334
859501
849510
839659
824893
811300
805561
796612
789306
791425
793785
811386
815089
834630
838936
854292
858000
860055
862887
865324
866020
867119
868657
866904
908014
906377
907455
906471
905966
903775
897611
885790
879956
860633
848229
833361
840191
823623
826363
833475
833603
846470
855487
865305
871371
875910
877636
877209
875959
874116
873719
875032
876371
876491
841686
847943
844519
852919
851412
859623
859861
862592
865480
864642
866413
865289
869789
870267
874157
876339
882904
882009
885856
888908
887970
889334
888388
886727
889384
893377
895905
901154
906122
909816
909793
908728
905858
903947
900505
895247
896076
892381
889838
885837
884821
884617
883612
888841
892595
896904
899677
901111
901519
897729
895434
892699
882419
886637
874305
879496
873377
875333
873783
875441
911338
910595
910218
909385
907116
906308
903129
902133
898044
898895
894021
895232
894539
895279
838506
838592
838316
838854
839908
843316
840805
846680
850855
848716
857562
855915
861896
862055
864374
865922
866056
865153
867752
864979
872634
873563
879570
884462
893929
896955
902502
906033
908217
909234
848010
851075
848679
851673
850517
852259
853887
854537
856695
857252
857340
856581
855181
852683
850668
846936
846343
843354
834884
833491
832044
826492
829494
828662
836656
840676
844090
852671
855547
854426
894661
893926
894606
896418
896867
897048
897243
893843
890665
883127
869738
861801
835969
837518
805609
813406
798469
796462
807154
808314
822551
840020
844760
862266
871113
873458
882232
881757
885706
887813
818942
815734
810667
805501
794604
782516
779836
760648
760863
750629
749585
749890
761054
756842
785076
773843
808751
798636
830877
824589
845226
843968
854490
854875
859591
860918
865828
868440
871792
874197
846167
846167
845757
845064
846059
845329
843840
843324
839873
839833
833113
833399
821444
825241
805507
807740
795679
789646
778770
783770
780741
783876
789781
788775
797222
802528
803701
806554
807823
808653
828861
829898
830227
831412
831523
831543
830938
830357
827247
824099
818439
817318
808311
806801
801476
798486
798683
798151
814366
808334
827890
825894
843750
844849
855755
858270
865076
865826
867256
866170
883331
882968
882059
880171
874794
869566
857244
854534
832466
836974
810231
815084
810199
799320
805716
802223
813830
818431
822262
831482
837545
840375
841518
840400
837588
835260
832417
830544
830849
830936
849400
849200
846950
843308
837163
828565
821441
813412
806066
798498
802773
797458
798100
807170
804340
806920
817722
829201
835597
844241
848131
852327
853206
854421
854980
856188
858017
859447
860938
861760
862666
862380
864297
865065
864847
863871
858272
849575
841614
828250
812954
804854
795527
785916
783541
786465
785265
804178
810104
824099
835196
850908
853418
859337
862512
863937
864616
865914
864949
865281
900530
901219
902579
903904
901901
894852
885543
878610
861398
844194
835618
835709
817403
819714
815266
809750
823864
826907
839868
851898
861646
867551
870684
871700
870652
872183
872180
873402
873901
873258
845020
845167
848887
848637
854867
855769
860341
861854
861919
864513
863571
866181
865048
870633
872340
873865
879560
883393
882596
885250
888051
885600
887170
886067
883772
888747
893699
896809
901879
907059
907535
906121
904478
903348
896706
898021
891217
891823
883604
883669
878108
874795
877248
881001
884818
888434
893277
895466
895134
897605
894118
891813
887027
884611
880480
878942
873787
875487
872757
871903
910395
910622
910034
908257
906274
905968
900847
899324
897922
894668
892915
892922
891545
888772
837887
837686
838288
837948
837482
841056
842857
841789
849776
848912
852832
856143
860396
861042
864581
864560
865843
864328
867145
865826
866809
873730
878540
880876
889196
896459
899266
903836
906279
908019
856026
850696
854872
850559
853849
852259
854812
854651
855613
856592
856071
854801
852963
851030
847892
845848
846015
838966
831485
834236
823717
825234
824077
828069
831983
833826
847573
852684
853528
859018
893746
894344
894210
896109
895836
896423
894468
892985
887268
878795
868265
857016
834543
836462
798703
814090
788486
797133
801068
801617
815584
829641
839090
852863
862505
871003
871466
878269
876070
877369
814859
810220
806735
796857
785668
780541
770789
751841
757732
744203
748361
742935
760491
750774
778323
773811
801734
796569
827575
821519
845174
841147
854119
852888
859883
858324
865165
866916
869700
872629
851897
851520
850680
850093
847878
847202
846647
843647
841097
838638
835051
828599
823679
820823
802473
807029
791123
786075
776945
780797
778539
779350
788115
786174
798261
799535
802558
805827
807415
808158
826849
827042
829159
829524
830138
830377
830240
827848
823993
821008
816796
811051
804330
800127
793829
792738
794721
794324
804276
808022
820683
826069
839888
842494
857090
860039
865423
869551
871902
873510
883493
883054
880990
877959
871354
866462
850304
848907
827032
822785
807112
811466
792423
799429
790908
797372
800080
812670
816034
822730
832330
836730
839189
839841
839092
836766
834620
831623
829973
828887
846104
845964
843018
838208
828746
822144
815162
804616
795459
795798
784891
789530
783196
787580
800402
806103
806463
822041
830642
840318
846126
851588
852793
855211
855982
857582
859437
861487
862813
863857
860819
859849
860193
860735
859126
853931
847846
841379
828650
813325
804820
796129
782908
775216
776552
779195
781253
794572
792459
824281
827290
842927
848903
858328
858503
861861
863482
864890
865457
864864
901691
900844
900951
895789
890976
883504
877792
860485
844417
833697
823657
796491
785940
782254
785354
801665
801262
814846
819698
831572
843081
854278
861154
863736
867788
867748
865042
863241
864842
863870
845075
846326
846582
851979
853333
856687
857844
860601
860812
859604
861278
859810
865166
865592
868882
874248
875795
880400
883453
882184
884379
885872
882379
884520
884666
884265
889540
894278
897724
902738
906056
905305
904731
900833
898206
896845
890365
890584
879644
879658
870264
870313
871654
874249
875269
882663
885487
887920
894512
893312
893746
892830
890535
886072
882003
885294
880264
879018
880167
879327
910609
909631
909090
907865
906033
904322
898671
900860
892872
892201
891197
888398
885613
889034
836832
837921
837688
838026
838198
837268
843113
841308
845302
847685
853548
852400
858962
860992
862133
865022
864963
865174
866881
865338
868011
870531
879772
880875
885923
894775
898830
901618
903110
904456
853692
858371
852194
856774
852635
855455
853917
856004
855186
855524
855188
853346
851866
849281
846649
845909
843634
835591
830826
830306
816951
816599
817781
819596
824467
837089
847776
848675
856924
861589
894023
892783
893893
894748
895256
893975
893987
889457
885353
877392
866812
854173
841574
826420
802061
804291
790988
789297
791269
794738
812883
816100
834007
843702
854012
861414
867110
865640
869899
866755
812622
806967
802128
792085
779704
776496
761058
749791
752623
737280
739164
739771
754727
747924
775919
766832
800226
791824
825110
818433
841888
840052
853163
853011
858033
859457
863584
867106
870041
872551
851096
850338
850623
850240
850682
849355
847273
846446
841527
839447
833703
830378
819457
820879
801702
806202
781839
790356
771685
775540
775508
774730
786654
785826
794965
797736
802204
804869
806370
806922
824985
826304
826452
827873
827381
827669
826680
824570
821163
820664
810550
810314
800728
793466
792740
785434
782315
791666
800504
797147
823094
819712
841062
838850
859561
858504
867833
871241
874250
874962
883838
882818
880376
876415
868232
863727
845247
845176
815198
823119
801204
793418
789476
784577
789753
786974
787063
804159
813157
813443
827721
833691
836728
839202
838679
837477
835736
835710
835136
834853
846293
842277
840165
832856
822815
813921
812440
792631
790543
777952
783186
773527
785087
778188
780719
795098
805564
811460
829924
833039
846880
848567
854459
854244
858061
857913
860981
862265
863160
864921
858036
858404
857765
856256
853495
847960
840766
829412
814257
803610
794362
778035
769486
771185
765530
770492
765592
786665
786357
817262
813189
837614
844074
852846
857019
860347
862561
862348
861950
861357
893287
894281
893150
892288
888161
877202
864477
843132
839066
811978
797876
783636
793061
792314
788106
772177
788346
793038
809547
821833
834594
846916
852184
856941
859375
858834
858492
863174
865158
866368
846544
845029
850783
849088
855645
855045
858349
856545
858137
855379
853615
855769
855870
859467
862481
872191
874525
878997
881104
883303
882756
883577
883131
882305
881542
883725
886059
891760
896010
899087
905578
905449
903130
901197
899493
894668
890592
885585
879340
870275
865236
864088
860570
857163
865930
868079
872999
881901
886133
890166
893975
891218
892396
892786
885621
882063
884102
878221
877038
877347
910213
910341
908868
907357
905661
900686
900125
896496
890654
893198
887404
884689
887255
886189
838881
837532
837465
836337
837737
836475
838970
841363
844694
844216
850824
853106
855696
858753
863387
863335
865891
866656
865682
870153
869492
870630
878783
883787
885793
896146
896182
902582
902135
903890
866142
858218
863173
855535
858944
854533
857365
855056
857221
855543
855283
852861
851125
848666
845959
846742
838872
836711
827402
826761
814436
818435
816119
814463
831274
838708
841128
853242
860947
858939
890726
891815
892810
893421
892358
893755
891137
888547
884797
878773
867387
853717
848053
819850
805735
805965
789848
789328
794562
788478
808080
809584
824879
838095
846086
853914
859033
861193
858378
864356
810330
804480
797038
789656
778277
766224
762967
746419
743693
733047
741103
731128
752586
742791
772936
763559
797719
788411
821254
815925
840585
837571
852975
852837
856063
860336
863279
865862
868343
871476
856102
855220
854359
853438
852649
851774
850091
847085
844200
840497
834946
831495
819574
821113
800759
805248
779318
788601
767913
775531
776083
773194
783287
785924
793481
796046
801822
804031
805286
804868
819238
820577
822469
822905
826043
827062
824308
822441
821449
814479
809591
808568
792523
794916
781542
781440
779710
784061
796539
792915
818192
817723
836672
839958
858303
860350
868621
873352
875627
877060
883274
882125
879399
874863
866337
859990
841241
839217
812920
817938
787042
798423
782408
785687
778292
788027
786732
788257
812544
809768
819107
831920
834838
837710
839684
839336
839100
837567
836784
838369
843767
840577
837528
829323
818635
810828
807534
787778
784336
782667
774030
775152
766890
781165
776809
786788
802189
807148
823935
831501
843637
848934
853725
856188
857894
860113
859451
862020
862584
863548
856355
855112
854604
849823
846636
840402
829063
817770
806787
789967
780901
773972
770580
762481
759953
765587
759152
784814
774797
809081
805730
835515
833714
850219
853177
859703
860352
861918
862793
861803
893800
893890
891582
885795
880907
864136
860356
829642
827869
790178
800472
775795
768524
751077
747781
767565
762323
780270
791455
807547
820980
832439
843656
854252
855483
856395
859468
854958
851522
852481
847438
846530
850663
851186
853897
856571
856138
857308
852493
851528
850168
848416
851732
855034
859427
869015
872270
880359
880740
880407
884878
883100
881577
879793
881859
883726
887069
888853
895486
899032
905986
904889
904268
901759
899198
896842
889820
881687
880542
862805
866903
854460
851409
857006
856051
862956
869463
875652
885379
888663
891544
895576
892570
891517
893745
888782
886476
888228
885242
884510
909848
909398
908788
907002
902772
902305
897837
892620
893181
887952
883670
886154
881155
877385
842030
837779
839032
838087
837212
836912
839186
838000
843567
845650
845869
853795
852450
860286
860481
864950
866451
866407
871415
870474
871427
880299
878297
887377
890300
894939
900981
903044
904962
904969
867270
870546
859873
864986
857480
860730
856577
858688
856023
857645
854392
854405
850387
849283
846640
845943
836900
837409
825187
825911
814511
815620
812545
817444
836148
832796
846692
858286
856725
864592
892446
891244
891469
891451
892407
890696
890550
886739
888328
882828
868679
859693
847023
828908
815426
807426
789214
798198
790335
790036
800950
805866
819413
826266
840659
844716
848004
846693
841642
836076
821364
807902
798784
788700
777419
761431
765377
740987
742741
732609
738238
729861
750638
737818
772125
760162
793910
787682
818588
812703
841054
836480
852913
852557
856429
861004
862727
865211
868485
872965
856550
856307
856216
856559
855187
854810
851871
850514
844838
844311
834191
835955
821281
820585
801086
804612
777845
788453
766988
776486
775319
772708
780739
788034
791633
796240
800032
802866
802899
801442
817415
819185
820676
823365
822071
819830
820668
821680
815119
813821
810188
799221
793522
791953
778333
777786
779360
777426
795996
788860
817664
813370
834243
841801
856101
862353
868539
872980
874636
875988
888052
885513
879843
873182
863423
855798
838509
839594
808037
810822
787784
794147
773010
777334
774636
777019
789237
783417
799673
815227
813930
826681
834125
836787
838776
840719
840195
839393
838596
839865
845699
840107
836343
825979
817762
808977
805864
784927
787245
772746
775532
764488
765243
772011
773432
785891
798544
805675
821914
828842
843446
847832
854963
855964
859153
858974
859749
857767
858238
861994
859295
858050
853683
848421
841716
831390
821877
811241
796348
777472
779396
767364
752596
749045
751538
755020
757233
776399
771527
802232
800386
827951
832752
848274
851353
857495
860004
859483
858367
852837
897306
895672
889884
883523
874945
861033
851491
825354
819029
787483
789704
750685
756006
745763
758055
744394
759907
773336
782791
795592
815488
825821
839215
843716
845367
850556
846945
850620
856360
852071
848567
848000
851623
851975
854790
855921
856489
852984
852489
846730
846370
847568
847547
853336
852551
865440
875282
878818
881746
887766
884397
886228
885213
887276
884201
885157
885949
889143
893999
898005
907936
906534
905864
904562
900374
898680
890652
881628
879672
862176
862743
846424
849812
846203
851773
858983
859923
873976
882771
884875
894051
895902
899074
894163
892399
893494
887926
885116
886001
885117
911008
909509
908638
904912
905082
899871
896045
896459
889402
884901
885931
877485
870964
871175
863350
843366
848089
843304
837510
838593
835552
835804
839172
835638
843509
840446
848594
848516
851983
857671
863482
863640
866217
871876
871092
872209
881335
878098
888076
890631
896990
900922
903781
898408
895284
898430
880372
886122
882841
871569
875022
864273
866636
859911
862029
857945
860127
856995
858472
854914
853427
849260
847371
845880
836611
838393
825477
827687
816484
819413
821256
830132
829421
841282
854764
856133
865140
871910
872847
875764
885383
886328
888631
890098
889069
890310
892003
891942
886112
883478
880279
865167
854070
846644
815122
825632
794142
796749
797451
789483
804402
802933
816340
824494
831697
843708
845159
847223
842464
839932
833935
845089
815297
808972
799733
788919
776415
763408
764798
741549
743143
732840
738561
727857
751167
736658
772614
757256
793410
786595
816681
812995
837134
836617
851195
853141
858393
859545
860234
861238
859830
861888
861103
854776
861532
859712
858594
858065
857599
856224
854299
852319
848096
845865
839738
836547
823982
824751
802342
806149
779927
786963
770780
774045
776591
772705
781912
788422
790047
794588
798751
799988
800825
798739
794765
788808
802569
806157
807803
810885
813854
818938
820477
814778
814811
813462
804562
799322
795229
782606
780607
776226
776086
785630
784830
795472
814630
816752
830549
844760
853996
862165
868653
873727
874112
876489
873218
868021
875185
873053
870767
865988
859150
852448
838219
834861
805548
813803
784937
791756
771526
779563
772033
771591
783495
790720
788486
809630
817843
822069
832107
836791
839652
841755
842498
841758
841695
843585
842055
851381
841009
838886
834858
827311
819861
809347
805376
788687
786854
776104
774916
766666
768914
775492
770841
789551
793634
808278
820989
829696
840916
849923
854377
857583
859092
859562
857298
857942
855207
856196
848201
833985
845417
845103
842715
839298
833588
825634
817477
806442
791442
774443
774343
761478
752787
752517
750243
756062
751180
775530
767157
798242
797000
820683
831565
848485
850567
859379
862340
863734
864624
862919
867830
865044
875824
879290
878993
875578
869903
858382
849420
821442
819160
776159
786229
748852
760676
740285
737749
751810
745124
775762
775309
793092
804796
824668
832784
842134
848561
847500
849777
846951
844690
847379
854945
849414
849543
848626
852873
852419
855912
855836
857106
853692
852061
846637
844944
841093
850896
846098
857525
866152
875117
877982
888981
886230
889180
888006
890340
886167
888381
888430
891502
895511
899247
902659
896423
900843
902336
903106
904086
903488
901049
898752
892525
883870
877874
862233
859794
847384
847713
846825
854100
850636
861567
874784
878321
888189
894018
897757
900241
901158
896297
895410
896922
893023
890486
892487
892378
893010
910182
909574
906989
906882
902235
898752
898797
892687
888660
889021
881305
878267
877893
869807
862028
855777
846527
845212
838467
836721
835035
834513
836712
836757
840583
839336
848168
847207
849924
860162
862322
862753
871559
870614
873445
882387
879996
889775
891414
896781
899602
904937
906406
908732
909309
913808
892985
897433
885824
885155
873657
875015
865328
867038
861007
863479
859459
861841
858088
858310
852768
853051
846112
846889
837430
838646
829114
830110
825072
826233
827967
825909
843981
844617
857902
859410
870272
869944
872565
882426
888971
887243
887155
889153
889752
892371
893093
894907
898233
893155
887841
876264
866666
852950
839983
820089
822138
803143
794088
800047
799579
809094
811078
820549
825517
827014
830772
824728
822215
821325
824844
825669
815138
806957
799747
789008
778936
766718
764719
744535
746539
732969
736934
730888
750242
738721
772589
757916
797030
786926
814228
815309
837041
837367
851212
855340
858765
860711
861537
861047
859974
861586
859668
856789
861302
861037
858454
859431
858653
857705
856078
854173
851572
849280
842641
841377
827884
826467
804730
810004
784110
790560
771894
779338
775251
775283
786564
786978
790178
794772
797513
798006
797553
796136
792428
787961
803015
801235
807609
809846
811702
813240
810858
813921
813882
807391
806157
800400
791333
783530
785902
782369
776749
789294
790088
793269
820013
819446
831038
845264
855918
860580
868253
870703
872378
871227
868048
865218
870763
868604
866635
862541
856859
851093
836726
834846
808182
815027
786096
793487
771636
780051
773139
773465
775761
793272
794204
800602
814842
826208
827795
835380
838980
840410
840408
840164
839474
838507
840454
843486
839368
837101
833339
828329
821875
809926
809619
795666
786184
783036
776054
774676
766143
774231
772310
794886
793398
811969
821842
834230
842257
850254
855568
857007
858272
857337
855927
855000
853229
852503
841522
841275
843307
839340
838128
834633
830046
822677
816204
800553
793071
777082
768784
762845
762497
756434
754710
760855
754407
777699
767415
794917
805748
818078
829336
850386
850378
855427
860930
861917
863391
864821
868172
868948
877094
876673
876115
873974
869067
858732
848741
821483
820914
777837
785407
747626
760268
733542
742770
753597
741431
773938
776442
790447
806764
822208
833665
838194
838351
838653
840151
843250
843127
843340
853559
849875
850272
852628
852415
855603
855451
857858
854523
855142
849783
851279
842008
848998
845056
852611
862725
871986
874713
889260
888441
893401
894762
898012
894187
896158
894138
894692
895615
899373
898943
900250
895626
900492
904580
904484
905850
905259
903152
899331
894837
887954
876821
866958
864663
852370
852897
848409
852596
854806
866353
873323
880912
889155
894964
901360
900483
902083
902752
898577
895620
896037
893479
892764
894427
895922
911403
908562
908703
903900
902469
899795
895538
890284
891503
883720
881380
881334
872460
870130
863808
852085
849159
847972
839609
836559
835690
835588
835583
834898
840647
836876
847510
843045
855183
855746
859294
868403
869576
871554
881947
879952
890207
892268
899652
904948
912159
914139
917481
918852
918228
915667
906006
896026
895597
883049
884048
872573
874353
865916
868043
863049
865148
861661
862698
858136
856873
852511
848241
846401
838868
839914
831319
832375
829913
829469
829561
840111
846282
850646
859849
868402
868947
872759
875869
881719
890426
889816
890488
888836
892150
894041
895396
898517
896452
898558
894688
891658
875385
869401
849160
844601
818631
825360
812207
802013
810663
807088
815301
814849
820639
822395
822030
827475
824719
825325
822230
818362
810743
806794
799712
789526
784343
770851
766555
753261
749725
739330
740726
733723
751272
746029
768758
765148
799680
786503
818041
818246
833810
839888
852031
853847
857355
859625
860436
860530
860183
861210
859314
857489
860806
860749
858808
860198
859015
859381
858051
856934
854436
851963
848204
844139
832425
830963
809391
811869
790073
792294
782278
777897
782202
780594
787283
788116
791484
793837
795077
795829
794483
792020
788838
792871
790856
792951
794747
797322
804211
805643
809770
812340
807446
807202
806031
796472
796166
787676
786705
781650
784647
793326
789678
810065
808976
831941
828658
848941
851425
860880
864068
866999
866317
867475
866386
862387
863418
860464
860400
858567
854753
848106
838157
835091
813420
816817
791546
796420
778031
777327
777818
780021
780033
785504
801867
804752
810129
822734
831179
831841
835969
836481
836356
835851
837429
837370
836322
840143
835638
835948
834428
830654
825153
816101
809644
805821
803045
788468
793267
778039
782507
783449
786060
800188
801151
818276
826556
837554
846615
851798
855045
855729
853775
854331
854041
851369
845992
845577
843178
834575
837737
835120
833598
831506
826985
822562
813935
803222
794963
783686
778030
759968
755610
760723
755207
759698
758368
776383
780300
792974
816050
824249
828664
848896
852718
852396
860733
860484
862470
866250
868201
869013
874419
873547
875180
873544
869470
860429
852173
825359
825197
784956
791004
751191
761322
741023
743094
754608
745231
778925
777600
793567
811267
823891
833017
837601
840971
842354
840668
838841
841630
842371
851404
848923
852190
851468
855185
855163
858465
857634
860477
855817
858600
849336
855856
847577
859041
855828
872339
870224
885016
889083
896929
898416
900412
898263
901892
899154
900414
902914
904041
904243
906039
904911
896122
902452
904466
905012