/*--------------------------------*- C++ -*----------------------------------*\
| =========                 |                                                 |
| \\      /  F ield         | OpenFOAM: The Open Source CFD Toolbox           |
|  \\    /   O peration     | Version:  2.1.1                                 |
|   \\  /    A nd           | Web:      www.OpenFOAM.org                      |
|    \\/     M anipulation  |                                                 |
\*---------------------------------------------------------------------------*/
FoamFile
{
    version     2.0;
    format      ascii;
    class       volScalarField;
    location    "0.005900000";
    object      rhoEu;
}
// * * * * * * * * * * * * * * * * * * * * * * * * * * * * * * * * * * * * * //

dimensions      [1 -1 -2 0 0 0 0];

internalField   nonuniform List<scalar> 
12384
(
476055
459489
448221
445682
446973
447351
451277
448354
449923
442675
442633
440765
493218
536673
52803.4
39430.2
60322.6
74418.2
85884.9
92196.8
102204
118037
125559
138346
146140
151651
161384
167317
172119
179521
182466
189030
188517
196746
190466
199942
199532
200454
204393
209929
196831
148091
123229
133487
33924.2
55193.8
69776.1
80431.3
94291.1
100263
106986
106100
104552
102252
101025
100291
99914.2
100163
100181
103158
101656
104818
102217
106835
102361
104366
101763
102414
103823
104415
89851.7
64053.9
65221.2
66176.3
73649.3
70629.2
48739.2
39933.8
35581.1
36157.9
37882.5
42479
44319.8
55792
45513.6
65866.9
44916.9
68175.1
44432.5
62336.9
45159.5
51781.9
36768.2
47778.8
29855.3
37393.8
23700.1
34770.7
30780.9
17283.3
18322.8
24851.4
28825.4
30656.4
-54169.9
-41465.1
-32157.8
-27356.5
-21200.4
-22123.7
-22697.2
-25188.3
-17274.2
-27113.3
-18580.3
-25926.2
-13105.5
-24470.7
-5728.41
-16658.2
1520.35
-3857.94
7866.09
16433.4
22529.7
27764.6
25019.6
25528.4
28860.3
26301.2
34405.4
34268.2
36163.1
35518.8
-6778.06
-952.422
-16452.1
-21837.3
-20147
-15054.2
-7477.56
-914.074
4160.94
3630
5281.37
1877.68
3845.38
-2327.14
1917.94
-7351.46
-1698.71
-13111.9
-7925.74
-15989.6
-15248.7
-12643.8
-16382.8
-13397.8
-9027.27
-6531.96
-6946.66
-19716.4
-18705.6
-17216.8
-94066.8
-109868
-136192
-136777
-122350
-104278
-90116.6
-82851.9
-79072.8
-79807.4
-75611.3
-79940.1
-80240.5
-77323.1
-79803
-77323.1
-75307.9
-79770.4
-72633.3
-79420.2
-70463.1
-75472.8
-71736.1
-65963.3
-85098.1
-92643
-79911.6
-77151
-74322.5
-73916.9
-33382.9
-26288.2
-11794.2
3202.77
12556.2
18353.2
19465.4
27553.7
18624.8
31747.8
16963
29692
16008.1
21637.5
14944
13645.1
9865.77
9045.42
2779.45
-1154.09
-7474.93
-15125.7
-12343.6
3316.17
1937.99
-11319.8
-17481.9
-21303.4
-22022
-23678.6
-31684.5
-17332.1
-3131.17
5610.61
10718.9
14650
19648.9
18358.7
23890.2
24810.1
23783
23313.2
26481.7
26654.2
21122.7
19440.4
17302.5
11710.3
9398.89
1645
-23114.3
-45383.8
-47693.4
-43523
-39339.6
-34675
-33694.1
-36187.8
-40854.9
-43539.8
-13247.1
-33530.6
-37075.1
-25338.3
-14478.4
-10402.5
-10358.7
-12349.9
-15134.6
-19877.9
-23176.1
-24741.5
-29730.3
-37232.1
-32634.1
-37553.5
-49762
-36574
-50126.9
-47018.5
-37628.1
-36999.1
-43039.8
-52782.1
-52106.6
-47661.7
-42938.3
-41719.9
-42066.4
-44129.6
-56990.8
-39612.2
-33271.7
-29792.8
-27524.9
-25720.7
-23461.7
-20344
-14010.4
-12233.2
-6362.9
-4683.3
2209.51
-1787.76
-2323.35
-7173.49
-13935.8
-19883.9
-27483.4
-31050
-33273.8
-39007.7
-49928.2
-56232.8
-58868.3
-63033.9
-61768.6
-61130
-59678.8
-60972.2
-180014
-175499
-172901
-155073
-134706
-113549
-107543
-110872
-111875
-113526
-116302
-116988
-121873
-120507
-120519
-122764
-118360
-116252
-115279
-109600
-105502
-101037
-93946.7
-89945.9
-84825.7
-79968.5
-77921.4
-71693.8
-64540.8
-122408
-135451
-135771
-125073
-116872
-122062
-152064
-161657
2428.42
21683.7
27284.5
32356.4
36806.1
39140.2
44025.9
45886.7
46977.5
46360.9
42437.1
37553.6
32135.2
31635.5
24754
23275.6
24671.8
14454.5
17831.2
7850.87
4496.15
-47732.3
-156379
401086
406453
423547
442967
453449
457927
463213
471611
481622
474277
462342
446298
472050
528894
51190.9
46482.1
71770.6
88965.5
100091
114786
137948
150667
160898
168180
170283
179975
187689
198135
208013
215743
225223
228619
232104
235175
229096
224291
228080
222647
218945
220348
214592
182691
141411
130130
33935.6
59739.8
77541.5
95041.2
107170
108325
107083
96133.4
86874.5
79104.9
73000.9
69399
68017.6
69078
71959
75564.6
78981.3
84204
87201.6
88101
90647.7
90609.7
95322.7
97143
99589.8
102454
100826
81839.1
63377.6
64681.9
72761.6
60908.9
35870.3
31134.2
33098.1
38558.7
42398.3
47655.1
51071.5
58417.4
55071.7
65318
52168.9
62637.6
51082.8
57086.7
50863.7
50085.4
44662.2
46924.8
40714.8
44119.3
35158.5
39161.2
41150.4
29510.7
18851.9
25631.2
35593.9
34957.8
-14254.9
-5756.27
-1882.6
-1762.99
-3892.53
-5679.42
-7225.83
-9676.73
-18144.8
-13019.9
-18049.3
-18968.8
-13780.9
-15817
-9168.7
-9428.2
910.53
-535.348
13659.2
16708.1
26602.3
31538.7
28623.6
24622.6
24183.2
21039.7
23887.4
23505.5
28552.9
32187.9
-5718.77
-4437.84
-19479.9
-20880.9
-12389.2
-882.366
7217.48
7677.53
540.037
-8842.9
-14462.7
-18158.9
-18021.2
-22013.7
-17954.3
-25514
-22822.4
-29467.1
-25918.8
-32727.9
-30309.2
-30625.5
-26664.1
-18600.2
-15504.7
-8872.03
-2175.52
-10282.3
-20890.9
-19330.9
-99048.7
-119860
-128247
-97586.5
-73490.4
-65822.4
-68500.1
-77934.6
-86179.2
-95287.1
-98417.1
-99959.2
-102133
-98957.4
-99079.3
-98464.5
-94320.8
-94666
-90126.5
-90126.9
-84562.7
-80885.1
-76038.9
-66254
-70377.7
-87493.4
-88988.3
-90827.5
-89440.2
-83800.4
-7989.43
4545.49
20999.3
29120.4
32098.9
34261.3
30133.2
30719
31975
28021.4
30455.7
30074.3
25501.1
23551.5
22231.3
20199.7
15450.6
14191.6
13343.7
9227.43
2905.18
-6537.85
-13346.9
-5335.79
-2944.86
-24062.2
-33091.5
-34921.9
-32798.2
-32092.7
-2753.07
14609
19730.4
19030.9
17997.4
16123.7
16549.8
13337.8
17251.6
17397.4
19254.5
23490.3
18713
20305.2
22638.7
19746.6
17974.2
17219.8
16106.6
12412.5
-2723.08
-30122.5
-42446.5
-28496.9
-17385.1
-15201
-15874.3
-18013.3
-22173.6
-27361.4
-17792.7
-39538.1
-30659.5
-3223.53
1065.52
-5180.71
-15116.1
-23402.4
-30200.5
-36275.4
-39216.2
-41670.3
-46832.7
-52134.2
-52873.4
-51277.5
-56748.5
-53135.8
-51529.3
-48808.6
-38687.8
-39659.4
-32233.8
-44292.2
-49058
-36772.8
-30699.8
-27629.4
-28778.2
-32125.1
-59779
-37728.8
-27356.6
-22580.3
-21676
-22151.6
-21139.6
-18924.3
-18540.1
-12325.5
-7045.94
-6610.88
-6488.03
-1259.74
-5879.11
-9328.46
-10103.5
-14360.9
-19423
-24631.9
-27169.1
-31809
-40154
-53568
-61428.4
-64088.9
-61959.7
-60886.2
-60926.3
-64152.3
-164472
-156236
-153562
-133469
-122280
-111525
-118574
-121172
-126936
-128586
-130520
-131381
-127927
-130312
-129140
-130411
-131080
-129908
-123998
-119520
-110969
-102942
-96351.7
-88746.3
-84539.5
-82862.7
-79723
-72288.8
-64445.3
-100103
-67352.9
-64221.4
-91783.6
-132599
-146293
-168493
-41393.7
25100.5
31764.1
40764
45724.2
51103.5
55728
58578
60334.2
60366.7
55820.2
48804.6
37097.2
25851.9
8687.16
7126.25
-272.287
15989.3
14095.2
20180.6
10460.3
1832.05
-49527.2
-152203
398773
423885
447423
448301
428125
406407
398990
416236
450513
484307
494335
464906
464845
516099
49786.3
55598.2
85977.6
100691
123377
145989
164650
170762
165497
170324
177005
186061
202456
215806
233647
250175
264891
279525
283706
285999
282409
263115
255670
245324
234995
230932
227842
208594
164166
132570
38658.2
62075.5
84782.3
100155
108575
106118
96163.6
82617.6
70543.3
60648.9
49848.6
42484.6
40022.3
42858.4
49391.1
56241.2
65389.3
75817.3
78819.4
81269.2
85134.4
84191.5
83338.7
87701
94321.9
101538
103276
92436.3
73829.9
63176
69989.4
51275.7
30804.5
33655.9
39072.8
43658
47952.4
54228.7
57459.7
62712.4
56606.7
60839.3
43410.4
55006
34635.5
43950.1
35184.6
40541.4
31033.5
40701.7
37544.4
41016.7
37156
39569.5
37910.2
39813.1
26584.8
26048.1
40622.2
35423.8
-242.958
3398.47
3989.04
3873.85
1516.8
-6852.16
-3565.3
-11687.9
-20551
-14060.2
-19285.7
-25363.1
-16682.5
-22180.7
-9925.6
-16009.7
-309.222
-1635.5
11985.7
15229.4
26083.4
31860
34618
26805.7
22509
14744.9
15560.6
16413
21703.2
29399.9
-1623.59
-5992.01
-16689.6
-12402.3
-1131.62
4472.95
1785.03
-13780.2
-24970.8
-30166
-28069.9
-24380.6
-23696.4
-20206.3
-17518
-22413.5
-18552.3
-22730.1
-25803.7
-29284.3
-28047
-32764.9
-31682.3
-28081.3
-23483.1
-12692.6
-3120.69
-4194.24
-15162.3
-21750.4
-107695
-123432
-90369
-64156.3
-64470.6
-78230.6
-97035
-111602
-115756
-115699
-113580
-107041
-102659
-94969.2
-90752.8
-85955.1
-89171.8
-86393.4
-89766.3
-92059.4
-87680.3
-86799.5
-81429.4
-70575.2
-68289.8
-72759.9
-86529.4
-85131.1
-87267.1
-84924.3
2270.95
18756.7
31622.4
33437.9
31876.1
29657.3
23926.9
27360.2
18876.1
26184.5
18202.2
17704.1
18143.8
17210.1
13173.1
15425.7
14488.3
11550.7
13108.6
13121.7
9096.23
1164.78
-9124.11
-12342.1
-7283.27
-23344.5
-35666.4
-39169.3
-38445.3
-33648.1
20074.2
20982.1
15049.3
8928.6
4086.68
1450.45
-866.5
-519.102
3070.95
3329.92
2921.14
3701.87
11968.9
6443.08
6565.09
10829.3
13311.4
17296.9
16236.9
17175.8
9331.06
-11083.1
-35311.4
-25512.5
-12819.7
-11624.7
-16902.4
-20318
-20698
-20715.8
-26597.5
-41779.2
-568.868
7709.3
-4885.81
-21838.7
-33039.8
-38905.6
-43437.2
-45777.2
-50328.4
-53742.8
-54716.1
-58619.5
-65587.4
-65649.8
-71972.9
-63371.7
-63861.6
-55266.7
-51673.4
-41824.7
-34015
-36229.2
-43145.9
-36455.1
-26957.3
-23464.8
-22001.5
-26720.2
-53041.4
-29687
-17784.7
-17918.1
-21845.7
-24094.7
-24371.3
-24987.2
-18907.9
-21497.3
-19119.3
-18912.8
-8521.36
-17114.8
-18108.3
-18887.3
-20507.2
-18840.3
-20684.9
-23866.9
-27516.8
-30569.8
-35795.2
-47253.6
-60361.5
-63059.1
-58763.4
-57108.8
-57957.4
-62254.7
-157277
-143536
-136233
-121023
-121677
-120037
-125644
-125311
-121163
-115183
-103557
-95134.1
-88479.7
-88614.7
-94794.1
-103195
-111830
-121562
-120862
-113866
-105734
-94120.5
-86818.4
-84175.2
-80994.9
-79115.1
-78756.8
-74616.9
-65542.1
-87430.8
-39949.2
-41595.9
-70448.9
-149843
-156824
-59928.5
21098.3
37554.5
44980.7
52328.1
59512.5
64281.4
66093.3
70417.1
71847.2
71702.5
68748.6
62435.6
51926.4
31765.1
6039.51
-18149.5
-37251.1
-25031.1
-18512.6
790.313
-5728.99
-16630.6
-69886
-148633
406325
430257
421345
374406
332524
317077
312092
325894
365585
443309
492000
485000
468305
509410
48416.4
65275.8
96450.1
118388
149867
176144
172629
166867
163951
164200
179784
185730
198800
208761
226922
251530
278830
303207
324224
328097
331491
314138
292113
268295
254100
242068
237817
225241
184068
137326
37846.1
66287.8
83793.9
102024
108170
107280
97181.4
83569
69234.8
49266.2
28012.7
16224
13865.1
18965.9
30137.4
42152.3
58988.3
70673
72654.7
77016.7
77153.4
73666
76668.9
78631.7
89419.4
96021.7
99972.8
101622
83423.7
62796.7
67064.5
45504.3
31727
38182.3
42970.7
45451.2
52008.4
57592.3
64349.1
61323.8
56815.9
50174.9
35494.1
37701.8
23834.3
29338.9
23399.6
20425.8
25236.5
24321.9
28139.9
36899.8
31123.9
36095.3
37940.6
35854
34438.6
27985.4
41698.3
38017
2156.67
7167.43
8122.32
7864.93
3338.06
-1169.81
996.221
-10451.4
-8432.42
-14700.5
-16562.8
-20111.5
-17130.4
-21055.9
-9866.08
-15604
-1898.18
-2246.57
12440.1
14698.5
26408.2
32808.2
38548.3
31792.5
23214.9
15075.6
13577.6
13839.2
18745
28950.7
-2172.87
-8465.53
-14598.9
-6720.33
1275.97
-3311.22
-19864.1
-31241.3
-32603.8
-24535
-19830.1
-10179.8
-12731.9
-1380.59
-10748.8
194.191
-3022.8
-1345.81
-6311.89
-3871.66
-10113.8
-15411.9
-19550.7
-27905.5
-23755
-16206.2
-6012.99
187.989
-8573.92
-21065
-113509
-105927
-60020.2
-61579.4
-83018.2
-108605
-124336
-126226
-121359
-111399
-98364.4
-83842.6
-75513.1
-64458.3
-60247.4
-57957.6
-54547
-62741.1
-58317.4
-74692.7
-75546.9
-83157.8
-78108.7
-74798.1
-66284.2
-65668.6
-75116.4
-80988.1
-84607.6
-88214.7
9818.8
31154.3
34276.5
31706.5
27524.1
25530.9
22383.1
23540.2
15815.3
21072.2
6640.35
11998.8
9135.16
3517.56
5532.91
2186.03
8246.09
9118.51
8453.53
11749.9
11686.9
6842.8
-2510.44
-10729.1
-10087.3
-17672.4
-31095
-34581.1
-34366.8
-26717.5
20717.1
12556
3596.56
-2661.25
-5746.16
-7599.85
-7141.59
-6350.84
-7424.78
-7279.3
-2696.64
-2408.51
-3840.05
4841.4
-74.5843
-1560.28
4078.36
11194.3
14641.6
18349.3
15461.6
3531.92
-23133.2
-27348.3
-13254
-11419.8
-17994.2
-21432.6
-22013.6
-20726
-38585.6
-29301.8
15235.3
469.669
-23017.5
-35436.7
-40757.2
-43938.4
-45407.5
-49536.2
-55600.1
-56810.1
-61010.9
-67214.6
-70055.3
-71647.8
-79584.4
-68840.2
-70417.3
-65634.4
-59529.1
-46902.8
-40607.7
-33955.2
-37485.7
-39684
-31724.4
-26214.2
-23081.4
-26802.3
-41641.2
-22782.7
-14355.8
-18952.3
-26498.6
-30133.3
-30132.8
-25818.8
-29598.9
-32402
-31210
-24466.5
-34268.6
-31086.2
-32946.6
-35934.5
-34292
-35129.2
-31091.6
-28435.9
-28179.4
-29794
-34270.9
-43194.2
-57750.8
-60930.8
-54742.3
-52641.4
-53366.5
-59714.9
-146855
-133001
-124090
-123016
-123468
-126071
-122048
-112388
-95012.7
-70661.8
-53222.5
-40247.8
-36894.5
-36553.3
-45691.7
-61105.2
-79928.6
-100109
-115162
-113645
-100300
-89204.5
-81019.2
-80450.9
-82799.9
-80672.2
-78338.7
-75948.8
-66267.7
-80346.7
-39254.7
-45039.1
-99935.6
-136667
-78517.5
11075.3
39877.6
49516.1
55650.2
65457.9
66842.7
68207.2
71561.6
74649.8
75066.8
75194.3
75067.7
71759.6
63605.1
53975.6
26427
-10219.7
-49001.4
-57439.6
-53795.5
-40499.6
-36380.5
-45110.3
-92728.7
-141507
404749
409619
360917
312130
299305
304211
305615
312594
339360
404105
481347
493900
470504
498952
49285.4
74879.3
109807
139235
173835
187736
172885
154636
158969
161581
165238
164181
164624
169347
187933
218273
260039
299352
333622
346855
348208
346427
325201
292351
269127
255155
246269
237076
199281
143160
45926.3
64233.3
86021
99449.3
112445
111920
106828
92916.9
69676.1
35751.7
7879.95
-1519.78
274.466
8307.95
23283.1
42968.6
64268.2
70618.6
69114.7
71354.8
61185.2
61160.6
62553.1
70802.3
80227.6
86841.7
102997
104382
86520
68248.2
64632.3
43568.1
33767.2
41929.5
43928.1
47752.4
55509.5
63466.6
68230.9
60832.1
56095.6
40498.9
30960.5
31857.6
14432.4
23588.7
11394.8
11923.7
14497.7
14556.4
17568.9
27616.7
26260.5
30001.1
30819.3
34701.5
30399
31959
39038.3
32120.9
8301.16
11539.3
12795.5
10994
9935.49
15522.5
15013.4
6890.4
14103.9
6662.06
7447.76
1309.14
5667.7
-3818.05
1470.49
-2998.31
3248.79
1325.87
14845.2
15289.5
29414.5
33516.9
42769.7
35063.3
27232.7
16680.6
15597.6
13280.6
18146.4
28562.5
2900.92
-4768.72
-6894.78
248.19
-3251
-17150.8
-30580
-32017.8
-22605
-13076.1
-9205.2
-7606.15
-5565.59
2378.86
-1766.72
17623.6
15957.2
22231.9
20719.7
23266.7
16704.6
7864.07
236.434
-15010.2
-15955.9
-16286
-6784.21
2888.37
-3803.56
-20559.9
-111597
-81402
-54915.8
-77538.4
-108547
-128445
-133912
-127446
-112211
-95618.9
-79141.9
-69242.1
-58377.1
-51405.3
-47057.9
-42411
-41539.9
-41751.8
-38857.7
-47768.1
-54274
-68050.9
-71388.6
-74541.7
-64699.8
-61909.6
-65427.7
-70546.6
-74582.4
-84750.7
18093.1
37019.2
33538.8
29798.5
26507.2
25463.2
20941.5
21745.4
12933.4
6884.53
-515.872
-1140.42
-12317.1
-8642.39
-12219
-8246.95
-6567.42
2789.85
3936.15
7402.4
11528.8
9531.21
2819.27
-6252.17
-10114.7
-15793.7
-24865.8
-32193
-33536.2
-24533.2
10319.2
3352.86
-3849.72
-8692.99
-11401.7
-10890
-9194.6
-11658.1
-13755.1
-11575.3
-15635.9
-12742.3
-14390.4
-14328.4
-4287.86
-2813.93
-5202.49
4456.6
10286.2
17400
17997.1
12242.7
-10782.6
-25660.4
-17694
-12472.9
-17786
-15830.6
-16252.7
-20172.4
-44624.9
3515.85
13873.4
-14908.4
-34360.5
-41000.5
-42182.4
-42816
-47749.4
-55110.2
-57911.3
-62616.1
-71542.1
-77092.2
-79371.3
-78814
-84012.1
-74878.4
-85599.2
-64431.4
-65351.9
-55898
-46814.6
-34749.3
-36730
-39148.3
-36720.3
-29578.7
-21868.4
-23758.9
-28255.8
-9842.32
-13318.8
-27968.5
-34781.9
-34937
-30727.1
-34429.7
-39359.2
-39584.1
-43216.7
-56029.3
-56208.3
-55262.9
-52197.3
-47622.6
-48279.4
-45791.2
-44413.1
-40141
-36234
-34641.3
-36849
-43428.6
-53476.5
-61616.5
-58558.4
-56981.6
-54761.3
-61706.2
-140435
-125190
-123010
-122572
-125245
-121033
-107712
-82560.2
-53799.2
-30103.1
-11890.1
-4131.4
1822.95
-2524.98
-10085.4
-22315.8
-46142.4
-73928.7
-101414
-114337
-99420.2
-83267.5
-81057.5
-80318.7
-84375.1
-85734.6
-82390.2
-76345.3
-66199.1
-76953.3
-45026.8
-51372.2
-94000.9
-79016.4
-11464.1
37699.8
49572.6
60002.6
64081.4
71317.1
68891.4
72268.8
74785.5
75836.8
74649.3
77308.2
75612.5
72146.5
72947.1
64145.6
50457.1
19552.9
-33742.9
-62021.4
-65140
-53770.8
-53807.5
-66150.1
-115605
-130131
397475
373468
315711
294801
309665
333948
342586
352459
362780
412153
481210
492194
465817
497495
50036.9
84517.3
122993
160267
192210
189417
166015
149276
149821
149287
145541
132841
130706
132567
145767
182423
231776
286137
328275
346831
352777
349340
343304
309497
280244
264394
255571
245340
207496
146615
44157.1
67912.2
78530.6
102040
113905
121311
117462
104871
68819.6
22960.7
-1362.47
-5053.7
961.966
13200.2
33342.3
59134.4
73923.4
70998.6
65055.7
61258.2
46591.7
44900.4
47519.9
55865.1
67346.3
88506.2
103785
102048
92551
71564.5
64079.7
41705.8
36552.1
43553.3
45179.4
49768.9
60032.2
66290.3
71856.3
63315.9
54442.2
34107.5
36828.9
19481.8
13771.4
13249.8
8696.68
4761.92
2792.06
4212.64
13499.6
14418
20860.8
21844.3
22666.6
25096.9
27632.4
26963.9
36875.2
26133.7
15128
14736.2
16879.4
22405.5
25932.8
35434.1
30860
29681.8
36929.4
28016.6
30074.2
29639.9
35101.2
25596.4
29449.1
17742.4
22164.6
12907
22154.1
18730
31157.6
36071.5
45913.1
39557.1
29535.2
21023
17874.2
15819.5
21962
29691.5
2773.83
-4137.32
-2899.87
-809.811
-11564.6
-27758
-30902.2
-21966.8
-13863.4
-10118.4
-9189.69
-6381.77
-3500.81
13032
18137.4
41905.2
38153.4
55216.4
46878.5
48245.5
43466.2
31126.2
22732.2
4271.54
-7011.02
-11050.5
-3462.16
5950.17
-1321.14
-21876.3
-106514
-64413.8
-61678.8
-95706.4
-126183
-137245
-136479
-121930
-103498
-86291.8
-77747.5
-63188.7
-55374
-48740.5
-40078.6
-39475.2
-37579
-35000.7
-28099.6
-41129
-31012.1
-53353.2
-58134.3
-71451
-61246.7
-62084.7
-59812.4
-62230.7
-71562.1
-86216.6
26297.5
38402.7
33616.4
30158.4
26414.7
26391.5
20773.6
19343.5
2710.24
1361.46
-14583.4
-24734.9
-27681.8
-30715.1
-26561.1
-25035.8
-22860.7
-7946.44
353.126
556.782
9897.3
10579.9
6049.57
-1795.87
-8812.4
-13945.1
-21181.7
-26273
-24508.8
-13653.7
5071.94
-2722.4
-7527.12
-11961.1
-13254.6
-13160.6
-8611.13
-18389.8
-18453.7
-23248.8
-19550.6
-23919.9
-17278
-21130.7
-20381.1
-12083.5
-6891.11
-3955.62
9500.42
12388.2
20820.4
15346.4
-970.44
-22923.5
-20266.1
-16980.8
-17032.1
-150.06
2528.61
-14453.4
-41277.5
26820.5
2008.78
-25976
-38925.5
-40457.7
-41664.7
-44617
-51794.5
-57247.8
-63230.4
-74777.5
-81124.7
-81857
-88987
-89453.8
-95129.9
-84381.6
-88327.2
-69053.9
-75301.8
-60299.3
-51466.4
-39796
-35402.2
-39329.5
-40834.4
-33688.3
-25263.3
-25378.4
-23204.3
-8276.19
-22940.4
-35059
-36644.7
-36228.9
-35308.9
-42022.1
-42345.5
-55671.3
-62762.2
-62630.3
-51336.1
-48751.6
-53391.1
-62505.9
-60458.5
-62084.9
-57407
-49593.3
-41799.4
-36526.5
-38494.6
-43863.1
-54219
-64559.2
-62041.5
-55697.7
-51751.5
-57906
-135575
-122617
-119032
-124787
-120194
-109514
-82312.5
-51168.4
-20625.2
-449.126
11118.1
18814.8
19048.7
16943.2
10073.4
3078.86
-16648.7
-43860.7
-83518.8
-110426
-100136
-82227.2
-79383.2
-83719.3
-91234.4
-90455
-87890.7
-77705.5
-64751.3
-75141.4
-65511.7
-51044.9
-67070.1
-27858
23270
47167.7
56589.1
65430.5
71881.3
71250.4
72173.3
76130.2
73822.3
71242.8
75807.2
73998.6
71880.4
74689.9
70561.7
67792.3
63617.3
43590.4
-1646.75
-56193.6
-69203.8
-58510.9
-58518.4
-88252.7
-140834
-120365
386481
342117
293454
301423
349555
376064
389317
393571
403477
445423
488727
490106
471835
495314
55428.9
93419.7
136408
174416
204432
192545
157729
145665
142171
135274
131798
124088
116190
112097
118456
145772
200080
264927
312392
340821
345743
343953
340449
316922
287152
274029
261927
255354
213761
149956
54481.3
63797.9
80750.6
95496.2
118668
124476
128517
112212
69709.2
16971.1
-739.988
-75.4606
12079.4
28874.7
53672.6
76091.2
75653.8
70619.6
58185.8
54390.8
41535.7
43243.2
43698.4
47383.4
72381.5
89584.3
97978.9
107043
97618.8
70231.8
60944.3
41654.6
39158.8
45211.6
45967.8
53301.4
61863.6
69845.8
76105.5
69380.7
55909.7
33187.6
42033.6
10249.8
18275.1
8321.53
5378.02
-1177.72
2852.03
-3378.68
8702.45
7466.72
11823.8
15562
13994.3
17065.3
21015.8
29299.3
27309
24583.1
17374.5
18421.1
25994.4
36116.2
40871.9
41871.6
45728.3
41060.1
42026.8
40341.7
49313.4
43388.8
58809
48494.8
57971.1
43081.8
45235.3
29033.9
31375.6
25007.4
35201.4
37626.9
48749.8
42180.9
30365.9
24546.9
18696
17250.4
24209.5
31614.4
7731.11
1768.67
2428.64
-4005.97
-20534.9
-28333.5
-24400.5
-15779.7
-11467.9
-11516.8
-9536.93
-4030.99
7711.47
30573.5
40914.6
61948.2
57242.6
71271.6
60373.5
65716.1
62761.3
50110.6
39238.3
21006.3
4078.12
-4009.75
2776.83
11262.7
-2593.68
-26025.4
-98647.5
-60294.4
-73060.6
-112296
-134205
-138849
-136532
-117651
-100195
-89863.5
-76786.4
-62089.3
-55686.5
-40676.8
-37627.1
-30724
-32204.5
-31316.2
-23723.8
-36587.5
-21827.3
-41584
-47988.6
-64712.6
-59106.8
-60521.2
-57532
-56958.7
-63766.3
-86344.1
31872.4
39309.7
35337.4
30914.6
26906.4
26008.2
19980.8
14833.5
-193.815
-10111
-29433.8
-29147.7
-38399.8
-38075.7
-41189.6
-31650.1
-28783.6
-23453.9
-3183.32
-2653.29
3159.7
10499.4
6928.88
358.278
-6895.91
-13539.5
-19432.1
-26038.1
-17285.2
-3565.31
2036.32
-5618.13
-11132.5
-13199.3
-13991.9
-13111.8
-9506.69
-22616.6
-20622
-23331.1
-29837.8
-32235.2
-35998.7
-25586.5
-24395.6
-20933.6
-8103.16
-8587.84
5089.07
10341.7
19629.5
17363.6
3776.24
-18015.9
-23080.4
-21745.3
-5887.82
28041.6
28068.1
-2251.46
-29914.4
29823.2
-8217.17
-32165.7
-40205.7
-41146.7
-43988.4
-46665.2
-51604.9
-63449.7
-70740.8
-77378.9
-83663.6
-92493.6
-98976.1
-96352.1
-102988
-88005
-93382.9
-77428
-77327.5
-62070.9
-58455
-42634.1
-36442
-37720.5
-40426.8
-31226.2
-18891.1
-18469
-12221.9
-7756.03
-28245.2
-40702.8
-41294
-40946.9
-35101.2
-49296.1
-52328.4
-68328.8
-61034.4
-67881.9
-72992.9
-81187.9
-80084.2
-69675.2
-72183.8
-67165.3
-65140.8
-59184.7
-50342.6
-43987.3
-44094.1
-45597
-55223.5
-64330.6
-62059.4
-62087.3
-60117.9
-65965
-133120
-118726
-117265
-121282
-113723
-91604
-59011.1
-23813.3
211.965
16951
26289.3
29656
32341
29879.9
24201.6
18474.2
1013.84
-18292.5
-60766.4
-104343
-101855
-81108.2
-79012.2
-85764.1
-93608
-94173.4
-88591.4
-78688.6
-63208.4
-73036
-90803.1
-50038.4
-45543.1
677.096
37329.4
53505.4
60446.3
68852.2
76989.3
70894.1
78850.2
73942.4
73726.7
79393.8
76349.3
77012.1
77317.6
75254.8
75669.4
70727.4
65485
59726.7
29930.5
-40219.3
-81257.3
-68208.8
-68162.9
-99209.1
-138419
-107839
375934
319615
288810
330727
386671
411203
416365
422646
445699
468558
487642
489751
468070
482265
57223.7
95781.8
141338
180313
213124
202397
158387
138805
136702
134711
129404
129179
114473
106712
98328.3
113254
158613
228316
294188
324605
328788
339617
325245
313359
291031
276997
273019
260853
217173
153334
54754.5
67845.1
68698.3
90119.5
106878
126093
128031
120628
70930.9
20795.8
3920.33
10711.4
26464.7
47677.8
70294.8
82251.9
75037.1
71781.4
57594.8
56310.6
45042.2
44859.1
42729.7
53352.7
78485.6
85311.7
103704
112313
91999
75184.6
61900.5
43014.3
41251.2
46981.3
49889.1
54086.3
63996.5
70991.6
81811.8
77351.8
61387.7
39045
38179.6
14640.8
21526.8
5114.52
761.337
4073.88
-2622.26
-4638.9
3389.97
1365.95
6669.38
3458.21
7074.83
8757.24
15084.7
21365.5
20538.6
14943.9
24509.6
26308.6
36893.5
44913
47031.5
43751.8
52373.9
41484.9
44673.1
46621.3
55594.3
54831.2
74178.8
62843.3
81474
63613.9
64513.2
45963.8
41782
30680.1
41410.6
40208.1
51645.5
42895.3
31485.2
25650.7
18191.5
20847.2
28422.7
34677.7
8998.47
4844.95
4751.35
-6560.22
-22803.1
-24689.3
-19293.4
-13135
-13054.6
-11051.2
-9883.3
4522.62
21075.9
43466
55632.6
70547.5
64536.8
76926.8
64965.4
73598.1
70462.4
61044
47707.3
32317
11133.6
5158.65
9535.25
12031.5
-9414.37
-29295.4
-92355.5
-57605.8
-83183
-116501
-137464
-143275
-134955
-114975
-104429
-89848.7
-77937.4
-67138.2
-54429.6
-37580.7
-36766.7
-30367.2
-25612.7
-32568.4
-19407.4
-35360
-15614.3
-37794.5
-41051.5
-58653.1
-58438.3
-58825.7
-57291.3
-55023.6
-67017.6
-88775.3
41526.4
44430.7
38931.8
31708.9
26248.2
24766.5
19564.7
16129.6
-4654.95
-17707.3
-28238.5
-34511.6
-45487.9
-44699.8
-46468.8
-41916.8
-29569.8
-27883
-14197.8
426.443
-563.694
7126.44
7673.55
1373.16
-6590.01
-12535.2
-20716.6
-18939.7
-2247.49
10384.7
2809.24
-7231.68
-12203.2
-14913.9
-13322.8
-12335.1
-9766.14
-24991.3
-18764.2
-34505.2
-33256.2
-45183.3
-44508.7
-38342.1
-29607.1
-23316.4
-10542.1
-11098.4
3562.31
7925.01
19623.3
16639.8
5894.75
-16847.3
-24454.7
-19411.2
35334.2
57600.9
45003.2
22172
-16856.2
28574.9
-12064.6
-29414.2
-39653.2
-43087.8
-43236.1
-45616.4
-54885.5
-70403.2
-69977.6
-83823.9
-97906
-103743
-105640
-106383
-104401
-95027.1
-92735.2
-81864.9
-77337.4
-68354.1
-59312.8
-43317.3
-36575.9
-38360.3
-40624.9
-24711
-12745.3
-20021.8
-360.252
-7535.13
-29566.4
-42751
-43917.9
-40054.4
-39138.4
-51316.6
-61936.9
-67178.3
-73703.9
-84616.4
-87852.2
-91101.6
-81845.7
-87436.1
-78789.7
-73292.9
-70625.1
-71277.2
-56077.8
-51627.9
-47453.1
-51376.6
-59305
-65956.8
-70701.2
-64653.3
-56207.1
-64519.2
-128436
-116602
-113528
-116855
-105369
-77295.5
-40523.8
-9051.76
14562.2
26044.3
35862
41919.8
42495.7
42217.8
31595.2
27112
14341.2
-4402.84
-38832.5
-87988
-107310
-82893.2
-78109.7
-80829.1
-92177.8
-94740.7
-90119
-76797
-63563.7
-73810.5
-121938
-78581.7
-38212.6
12318.7
43233.6
56262.9
63450.7
72052.3
78572.2
75780.2
78355.3
74919.4
80229.8
79109.5
81725.8
82499.1
75816.3
79371.6
78999.4
71401.5
70136.4
63888
51086.6
-8995.4
-92781.2
-95844.2
-101146
-135021
-124170
-104049
367049
304368
296052
367426
425775
432876
432310
445044
460155
476355
488651
475140
452450
389878
190869
80405.5
71178.3
112854
145460
187293
226099
217095
165551
135927
135469
131859
138155
134420
124130
108896
93649.6
87509.7
113756
182664
255231
304139
322400
316309
317608
305035
294308
286302
280478
257497
206168
156112
95067.5
90665
68695.1
66178.7
70020.6
74949.7
93425.9
105570
120898
117855
80129.7
26365.4
12804.3
20261.4
40493.7
59191.3
77162
83532.6
77191.6
76819.9
64214.8
63633.2
53183.4
54740.5
59068.7
70374.5
77682.3
94880.8
112597
107356
97064.1
84572.5
88155.1
71916.2
52789
39508
42556.9
50257.8
52360.4
57267.7
66655.9
75438.1
80173.9
82343.6
77134.4
47885.5
42715.2
27360.2
15261.5
16197
644.173
-2244.26
1177.83
-7296.12
2759.54
-4569.2
1414.95
137.352
4249.98
17396.9
22014.8
31781
36152.9
37119
31726.2
40086.6
22347.6
31366.9
41912.5
48134.6
47857.4
46511.2
52956.4
41699.8
47150.5
49974
62176.5
65078.3
88945.5
77624.9
102234
76084.3
84030.6
54238.9
51502.9
36111.9
45274.5
43922.9
52393.3
42501.9
32252.7
22316.1
15252
23385.4
25644.4
28280.2
25061.7
21655.8
14970.4
10031.1
3409.94
-13613.2
-21881
-21047.5
-16130.9
-13110.8
-13004.7
-11229
-5062.22
8733.33
28796.6
52794.5
61289.2
74778.8
69489.4
76984.2
70459.9
72444.7
72449.3
60941.1
49233.4
34031.5
16452.9
14785.9
16978
6899.86
-20188.5
-52509
-93421.4
-95278.3
-78505.8
-67431
-94276
-118553
-137571
-140766
-129971
-117265
-103435
-92203
-85176.2
-70555.3
-57208.5
-46638.7
-36144
-31603.7
-31048.3
-25958.9
-27747.3
-27628.5
-15710.2
-33715.1
-41214.7
-55325.6
-59218.9
-59532.8
-56642.9
-54630.6
-68033.4
-6662.48
40661.9
35760.8
44127.6
43033.4
37786
29520.3
24416.9
23740.3
20193.2
15255.9
-4986.75
-11058.2
-28303.9
-33138.7
-43005
-40895.5
-44374.7
-42955.3
-31635.3
-21357.2
-21860.8
-4284.55
2006.57
3741.76
6179.62
1335.11
-7044.4
-14365.2
-10666.6
10185
9626.9
8759.05
5501.43
12008.6
-707.563
-8745.13
-13762.6
-14454
-11375.2
-11635.9
-9668.68
-21919.8
-20711.4
-33266.9
-34749.3
-44235
-41300
-35860.9
-31937.2
-20941.4
-14306.9
-9508.29
2937.74
8483.73
17157.9
17032.2
3216.6
-18007.4
-24440
25772.5
81087.3
68728.5
53441.8
40898.3
22981.8
2093.19
6792.88
6821.7
-12833.3
-27492.7
-40405.1
-42957.1
-41520.7
-44725.6
-54605.3
-70030.6
-72588.2
-87493.5
-96436.2
-99067.1
-102663
-103378
-105892
-92382.9
-93781.6
-82663.3
-79004.9
-72513.3
-57348.2
-40349.8
-35312.6
-35053.5
-29103.2
-3740.11
5147.94
-1479.52
-3883.43
-9560.04
-4778.12
-9781.26
-31852.9
-45844.7
-45667.5
-40482.3
-39885.7
-53419.6
-64328.9
-74749.1
-77851
-83242.5
-86909
-93521.7
-97947.6
-86405.2
-90555.1
-74215.8
-76892.1
-75050.9
-65626.9
-55710
-54052.8
-55831.9
-59100.9
-68237.6
-68720.3
-67784
-65568.2
-68987.9
-77846.3
-88662.9
-106678
-113928
-109944
-111710
-98765.6
-68740.4
-29550.5
340.693
22329.9
31852.5
41185.1
43590.7
50926.2
44038.8
42720.6
34880.7
19458
1502.89
-19559.1
-73736.4
-108541
-88178.8
-75367
-78553.4
-82569.7
-87482.3
-82349.7
-69358.5
-59881.3
-71941.7
-120548
-130761
-126312
-117884
-59139.8
1470.93
42993.6
56240.6
64567.8
74784.4
78103.9
78117.3
79075.2
78592.3
82115.1
84207.3
88205.6
79981
81231.8
84553.4
78182.7
76895.3
71843.6
66639.1
57626.2
21753.1
-83472.4
-123666
-124914
-120223
-109619
-144992
79991
117029
361415
301580
306465
403287
451155
446792
438306
430648
442179
470533
475419
472284
462481
355787
188531
93964.6
82103
122561
141810
183241
241185
246019
185782
143274
132962
131614
140529
141361
134872
123455
95262.8
76738.2
85047.9
124085
201263
280164
305247
314990
307153
301261
292884
290394
279781
255883
200852
161883
110187
90536.3
72184.6
72067.1
62604.5
66694.1
64746.1
77160.6
91147.7
107501
86968
39757.3
18778.5
27323
44102.7
63581.2
73957.2
83313.2
79615.8
81196.2
73477.5
74003.6
69042.4
71181.8
73408.2
76059
94418.8
100383
111845
107537
99625.2
84255.4
85823.7
90436.9
61121.4
41864.3
43043.5
54290.5
59114.1
61182.1
66970.8
75774.8
88743.4
90036.8
87044.6
64352
50096
32223.2
27338.8
9813.42
16571.6
1012.1
-5901.46
-3100.18
-5424.74
-2850.07
-4696.28
955.417
7409.59
9495.52
17193.9
16932.4
19297
21693.8
24683.9
26789.4
27518.2
31984
42516.3
48168.5
49574.8
48835
51760.5
44518.2
50771.8
52474.9
66610.1
74328.2
92931.1
85960.2
106079
78615.4
90406.5
56596.7
55041
41866.9
51780
47887.3
53560.2
41583.9
28164.3
14599.2
21073.6
28404.5
25845.1
25822.7
23925.6
18290.8
15686.7
9965.83
-2665.7
-15551.2
-18168.8
-17320
-14266.4
-13143.9
-11835
-9803.71
-3475.68
12029.4
30075.5
50725.8
60360.5
76796.7
71468.2
77993
69891.6
72653.7
65692.7
55307.8
48469.7
34086.7
25253.5
23958.3
15431.8
-7286.4
-41285.2
-73491.7
-87049
-76664.9
-57568.6
-61919.6
-77082.7
-100803
-126523
-136601
-131195
-114510
-103887
-98513.1
-88475.3
-76272.2
-69477.4
-53899.4