/*--------------------------------*- C++ -*----------------------------------*\
| =========                 |                                                 |
| \\      /  F ield         | OpenFOAM: The Open Source CFD Toolbox           |
|  \\    /   O peration     | Version:  2.1.1                                 |
|   \\  /    A nd           | Web:      www.OpenFOAM.org                      |
|    \\/     M anipulation  |                                                 |
\*---------------------------------------------------------------------------*/
FoamFile
{
    version     2.0;
    format      ascii;
    class       volScalarField;
    location    "0.005900000";
    object      Tu;
}
// * * * * * * * * * * * * * * * * * * * * * * * * * * * * * * * * * * * * * //

dimensions      [0 0 0 1 0 0 0];

internalField   nonuniform List<scalar> 
12384
(
939.37
920.781
908.409
905.763
907.654
909.149
913.202
911.98
913.121
907.76
907.359
907.928
966.347
1007.19
475.708
460.938
484.592
500.529
512.997
520.226
531.806
549.615
558.82
572.273
579.967
584.706
592.367
595.969
598.089
602.118
602.154
605.578
603.266
609.817
604.821
615.385
618.151
623.382
630.793
638.996
625.836
570.805
540.477
549.544
456.046
479.32
495.487
508.051
523.826
531.244
539.037
538.82
537.445
535.061
533.243
531.187
528.665
526.105
522.966
522.624
517.649
517.704
511.856
514.454
508.372
511.805
512.421
519.214
527.767
534.545
520.755
491.076
492.565
494.109
498.05
494.566
469.97
460.092
455.502
456.133
456.975
458.864
455.158
458.588
436.812
445.652
407.328
422.118
379.264
397.784
370.166
385.652
376.949
405.601
402.818
431.702
431.851
452.48
450.828
435.456
436.008
442.739
447.331
449.688
352.762
367.29
375.943
377.046
377.775
368.879
358.879
347.924
351.366
331.493
342.329
331.761
351.008
340.162
372.246
365.382
397.809
399.471
420.324
434.109
442.032
447.271
442.142
441.641
444.279
441.142
449.765
451.278
455.129
455.368
408.965
415.481
398.082
391.982
393.84
399.556
408.133
415.53
420.9
419.302
419.171
412.515
411.023
399.743
400.255
384.746
388.128
370.812
376.916
366.501
371.692
378.169
379.624
389.667
399.932
406.722
407.994
393.568
394.502
396.171
310.923
292.975
270
270
277.541
297.265
312.107
318.103
318.911
313.698
314.363
303.197
297.745
297.063
289.069
291.732
293.88
290.009
304.999
302.616
322.168
322.902
333.243
342.277
322.137
317.771
331.168
334.044
337.545
338.135
381.083
388.539
403.93
419.161
427.288
429.714
425.596
426.622
408.342
414.847
389.422
399.282
378.484
385.367
379.823
385.352
389.463
399.699
403.023
407.274
405.591
399.43
402.785
419.643
417.477
401.901
394.752
390.744
390.746
389.281
380.036
396.489
412.052
419.765
420.956
418.698
415.847
405.017
403.514
398.441
391.439
389.998
394.461
398.659
399.933
407.139
414.915
418.132
422.348
417.008
389.953
367.225
365.004
369.139
373.167
378.114
379.305
377.112
372.542
369.997
401.386
378.25
374.358
387.846
400.198
404.019
401.439
393.823
382.536
366.578
351.19
338.867
322.922
307.957
314.748
311.349
305.029
335.729
332.8
350.789
369.705
373.661
367.369
356.339
356.392
361.533
367.357
369.331
369.633
367.645
355.325
373.817
380.63
384.365
386.214
385.675
382.284
375.841
368.989
355.196
345.151
332.718
331.842
319.209
325.027
329.121
333.616
344.854
355.191
367.045
374.266
372.242
361.62
354.696
351.61
346.672
348.124
349.1
350.897
349.437
270
270
270
270
270
288.436
295.607
290.388
288.017
284.633
280.283
279.069
273.463
276.396
278.243
276.568
283.755
286.993
288.27
294.534
297.702
300.339
305.597
307.778
313.084
320.247
326.113
336.711
346.667
282.012
279.195
278.046
291.929
304.561
303.57
274.435
270
419.151
438.472
442.811
445.635
447.753
448.526
453.208
456.206
459.109
460.467
458.183
454.22
448.836
447.68
439.839
437.791
438.882
428.76
432.837
423.341
420.669
364.872
270
850.405
857.55
879.934
904.255
917
922.637
928.577
938.809
949.76
943.864
930.747
914.024
943.98
1000.36
473.8
468.877
497.998
517.529
530.529
547.759
573.945
588.93
599.113
605.322
606.439
614.628
620.952
629.606
637.469
643.155
649.9
651.017
651.93
652.174
646.229
641.347
644.789
641.606
640.912
645.06
641.477
607.76
561.366
547.71
455.702
484.104
504.825
525.755
540.013
541.851
540.089
527.369
516.463
507.241
499.515
494.052
490.561
489.393
490.108
491.378
492.448
495.518
496.168
495.13
496.374
496.709
503.352
508.125
515.269
523.979
527.56
509.578
490.264
492.191
496.737
483.518
455.691
450.506
452.636
457.847
460.146
462.033
460.208
459.545
446.7
445.528
418.148
418.743
392.472
396.33
381.638
387.675
387.987
398.699
405.47
423.227
427.619
446.034
457.498
448.376
437.344
444.437
454.814
453.839
399.434
407.114
407.777
402.544
393.225
383.498
374.124
363.384
346.282
347.752
339.101
338.812
346.862
348.106
363.845
369.15
390.774
395.096
418.302
427.766
443.277
451.333
447.422
441.94
440.134
436.036
439.144
439.619
446.188
451.209
410.077
411.473
394.57
392.988
402.472
415.41
424.513
424.794
415.959
403.945
395.275
387.958
384.298
375.3
375.606
362.028
361.365
349.759
353.46
344.176
350.284
353.256
362.837
377.422
386.209
398.89
410.284
403.342
392.062
394.003
305.156
281.407
271.036
305.073
332.417
340.136
335.211
321.747
308.805
293.759
285.519
278.855
270.11
270.322
270
270
270
270
280.106
283.743
297.547
306.889
319.805
336.231
335.919
320.207
322.714
321.553
322.602
328.069
408.058
421.27
438.049
445.289
445.724
443.237
432.325
424.935
417.966
405.062
399.455
394.579
383.999
382.693
383.814
385.473
387.676
394.398
402.023
406.313
407.591
403.699
399.797
409.861
412.482
388.059
377.422
375.453
378.289
379.33
413.235
431.872
435.071
429.928
422.225
412.185
403.044
389.701
385.322
379.316
377.481
379.834
375.572
380.885
388.648
393.023
399.515
408.213
416.6
421.013
409.404
381.761
370.497
385.07
396.676
398.887
398.265
396.191
391.951
386.668
396.191
371.775
381.855
412.231
415.712
405.98
390.155
373.983
357.305
339.492
324.611
311.758
296.194
282.906
282.882
287.211
286.626
303.771
315.666
332.895
355.576
364.574
378.141
366.597
361.188
374.368
380.871
384.544
383.643
380.366
352.092
375.868
386.82
390.814
388.872
382.757
374.995
365.219
350.272
340.498
331.24
317.43
307.504
311.931
305.101
307.32
318.852
326.884
337.07
348.07
362.151
370.2
368.617
357.054
349.139
346.014
348.277
349.524
349.458
345.995
270
270
270
270
277.196
289.677
279.657
274.99
270
270
270
270
270
270
270
270
270
270
277.27
281.882
290.623
297.751
302.818
309.544
313.215
315.409
320.87
332.332
344.352
306.869
345.269
348.423
316.703
273.636
272.237
270
371.7
440.338
444.447
450.164
452.239
455.539
459.404
462.859
466.12
468.336
466.217
461.639
451.603
441.61
424.708
423.213
415.395
432.014
429.975
436.373
426.603
418.032
362.707
270
848.047
879.616
909.44
911.446
889.747
866.271
858.058
877.626
916.018
955.623
965.811
936.236
936.677
988.549
471.976
479.309
514.734
532.191
558.685
585.694
606.377
610.685
603.368
606.299
612.471
622.019
638.553
652.797
670.804
687.615
702.488
716.018
719.2
718.155
710.603
689.115
677.746
665.396
655.719
653.11
652.351
633.944
586.145
551.109
460.264
486.439
513.331
532.397
542.251
539.443
527.266
510.927
496.291
483.929
470.442
460.828
456.725
458.565
464.52
470.799
479.536
489.523
491.076
492.248
495.455
493.684
492.812
498.558
506.935
517.283
524.285
518.048
500.612
490.229
493.046
472.434
450.109
453.287
458.71
462.01
464.119
466.693
465.468
464.437
451.333
446.485
418.357
423.053
389.873
397.878
382.221
392.036
384.699
402.567
406.312
419.471
424.859
437.854
447.734
456.73
445.472
445.267
460.395
453.861
414.23
413.892
409.688
404.656
396.328
380.485
379.627
363.676
346.998
352.254
342.839
336.326
348.973
344.192
366.351
363.326
389.147
392.306
413.037
420.592
436.861
447.957
452.818
444.845
439.364
430.701
431.216
431.717
437.69
447.141
414.501
409.566
397.651
402.51
415.139
421.424
418.134
400.114
386.497
378.781
379.1
380.11
377.943
378.118
377.799
367.419
368.975
360.827
355.64
350.637
354.617
351.23
356.387
364.426
373.727
390.218
405.366
407.972
397.927
391.303
295.167
276.558
313.425
343.317
342.038
324.866
300.953
281.783
274.025
270.639
270
272.719
272.766
278.093
278.654
283.167
278.183
282.608
281.086
281.741
291.147
295.18
306.764
323.736
332.371
332.527
321.812
326.416
325.324
327.877
418.971
436
448.616
447.974
442.114
433.858
422.132
418.359
402.999
405.635
390.369
386.566
383.454
381.365
377.072
383.699
386.756
389.036
396.353
402.245
404.715
403.484
398.704
399.349
406.783
389.212
375.272
371.171
371.758
377.199
438.701
436.112
424.29
411.014
398.332
388.248
377.439
370.613
368.771
363.872
359.817
360.204
369.424
365.336
369.388
378.647
387.521
399.112
405.917
416.14
415.841
398.759
375.946
388.021
401.87
403.25
397.286
393.5
393.26
393.577
386.047
369.405
415.263
422.844
405.332
381.511
363.072
349.675
336.849
325.913
311.634
299.355
292.458
282.994
272.811
274.89
273.38
290.19
297.63
316.909
329.904
351.76
369.586
373.275
368.166
375.759
385.797
389.019
390.438
385.538
359.264
384.336
396.327
393.105
383.131
372.233
360.944
348.021
341.5
325.216
314.689
304.335
310.204
295.136
297.855
300.694
303.223
315.324
323.368
332.207
343.175
356.432
364.599
360.351
349.561
347.35
352.112
353.617
352.187
347.891
270
270
270
278.522
276.533
276.975
270
270
270
274.585
287.634
297.21
306.253
307.451
302.726
295.311
287.891
277.897
279.321
287.202
295.522
307.276
313.897
315.679
318.376
320.415
321.154
327.086
339.813
318.674
374.603
372.956
340.987
270
270
350.74
434.101
447.871
451.666
456.275
461.718
465.9
467.984
472.966
475.669
477.094
475.969
471.411
462.831
444.793
420.028
396.088
375.537
389.297
396.51
417.17
410.237
398.631
339.85
270
857.47
888.581
880.862
829.072
783.137
765.886
761.206
776.649
822.342
908.973
966.216
958.069
940.718
981.703
470.061
490.452
527.741
554.166
591.705
621.391
616.007
605.252
599.252
599.786
615.683
623.714
637.51
649.154
668.804
695.739
725.941
753.204
774.896
778.968
777.16
754.592
725.181
695.067
676.325
663.618
660.462
649.433
606.276
555.77
458.443
490.456
512.558
534.6
542.275
540.86
528.403
511.503
493.368
468.568
442.728
428.333
425.125
430.709
443.108
456.532
475.042
487.506
488.705
492.588
491.561
487.115
490.203
491.794
502.507
509.579
516.966
523.873
509.19
489.271
488.926
465.545
451.035
458.206
462.343
462.453
466.298
467.809
470.702
462.885
453.033
440.116
419.177
415.864
393.919
400.691
389.916
389.675
397.853
399.225
409.216
421.059
419.582
431.024
442.598
449.224
453.034
447.483
461.805
456.707
413.637
413.186
409.693
406.042
397.772
389.598
388.727
371.46
370.723
359.661
356.013
352.923
357.313
355.489
373.899
369.965
391.341
393.408
413.312
417.54
432.961
444.191
453.755
449.047
440.341
432.448
430.306
428.869
433.593
445.738
413.575
406.549
399.833
408.821
417.843
412.628
393.622
380.094
376.931
384.068
387.733
396.183
391.587
401.604
388.183
397.651
391.815
391.246
383.519
386.746
379.79
375.265
373.057
365.272
372.761
383.828
399.16
410.374
404.08
391.876
288.082
295.658
348.345
345.928
319.857
288.521
270
270
270
276.705
288.681
302.842
308.527
319.162
321.25
321.269
324.735
315.891
321.655
304.408
306.041
298.215
307.153
313.506
329.243
335.861
331.319
328.396
326.644
324.074
426.879
449.02
450.408
443.36
433.578
425.525
418.306
414.823
402.978
406.687
386.204
392.409
386.494
378.43
381.38
377.243
386.456
389.313
391.127
397.552
401.303
401.948
398.893
396.189
401.046
394.885
380.822
377.067
376.969
385.453
437.936
421.767
404.336
390.387
380.885
374.471
370.541
367.74
362.918
360.541
364.731
363.547
362.557
372.333
367.749
368.345
377.418
389.261
398.183
409.524
414.954
409.435
385.487
384.651
401.342
403.813
396.378
392.382
391.778
393.469
372.421
383.231
432.256
412.08
380.198
359.836
347.5
338.19
331.562
321.865
309.835
303.997
295.494
284.979
280.743
280.966
273.61
290.512
293.594
303.738
315.821
337.517
354.578
371.119
372.983
372.346
380.918
385.751
388.412
384.559
371.192
391.388
398.508
388.389
371.67
356.946
345.2
340.269
326.042
314.633
309.662
312.644
296.613
298.572
292.095
290.044
298.64
299.792
309.539
318.66
328.898
342.183
354.43
358.112
349.647
349.188
356.727
358.497
356.512
349.792
270
270
274.669
274.63
272.534
270
270
277.741
295.781
323.046
342.085
356.935
360.999
362.715
354.39
338.928
320.504
299.963
283.307
285.034
299.984
311.639
320.526
320.876
317.632
319.706
321.586
323.451
335.188
322.772
375.116
369.289
307.765
270
330.03
423.433
448.78
454.994
458.093
466.791
468.432
470.624
474.996
478.891
479.994
480.499
480.358
477.684
471.03
463.109
438.309
402.707
361.882
352.442
357.066
372.337
377.003
367.35
313.024
270
856.306
864.844
811.511
757.946
744.73
750.463
753.755
761.82
791.726
865.656
954.348
968.807
944.231
973.778
470.357
501.539
544.232
580.334
621.744
635.618
614.449
590.834
593.015
596.791
600.93
600.156
599.989
605.623
625.794
660.464
707.847
754.102
792.618
808.209
807.867
799.438
769.405
727.564
695.551
677.047
667.623
659.479
620.351
560.142
466.286
487.714
514.535
531.975
547.103
546.612
539.638
521.831
492.447
450.603
416.886
405.593
408.08
418.23
436.203
459.542
484.193
491.423
489.551
491.207
479.401
478.656
478.948
486.498
494.98
500.275
517.58
523.491
510.249
493.791
485.143
462.7
453.175
462.272
462.922
463.604
467.913
470.992
472.272
461.123
452.864
433.432
422.785
422.167
400.995
412.83
397.258
401.098
402.648
404.412
409.346
418.993
418.159
424.265
432.332
445.782
447.789
451.808
459.309
451.18
415.673
413.137
411.743
408.449
407.049
414.143
412.195
401.628
409.265
398.365
398.584
391.355
397.249
386.795
396.016
392.363
402.522
401.577
417.645
418.368
433.921
440.91
454.511
450.41
444.215
434.891
433.263
428.132
432.612
445.101
418.785
410.431
408.423
416.616
412.806
397.161
381.478
378.47
387.185
396.214
399.906
399.601
401.875
408.129
402.7
422.102
420.129
425.767
423.132
426.535
417.997
407.875
400.316
382.184
382.716
382.934
396.447
411.144
407.882
391.832
289.475
323.659
354.103
327.015
289.262
270
270
270
278.327
295.808
312.725
322.307
332.733
339.417
342.579
348.085
348.471
347.153
350.18
340.495
332.183
316.863
312.942
311.181
326.671
335.836
338.922
338.061
336.273
327.874
435.578
455.167
448.042
438.414
428.968
423.015
415.974
415.015
406.166
399.242
390.737
390.496
376.068
380.154
373.834
378.413
378.843
388.825
389.27
393.014
398.649
399.833
398.748
395.909
397.619
395.342
387.632
380.047
378.18
388.092
423.652
405.855
389.438
378.061
371.197
370.902
371.883
368.535
365.991
368.262
362.224
366.163
363.354
363.64
373.99
374.969
371.674
383.398
391.546
403.687
411.597
413.307
395.139
384.232
395.934
402.662
396.561
398.475
398.18
394.061
365.63
420.108
429.539
391.527
362.157
346.852
339.312
334.695
327.081
316.908
313.269
307.505
295.282
287.6
285.162
286.502
280.233
293.392
281.83
308.61
307.834
322.93
340.805
364.711
370.924
372.361
375.72
381.986
389.393
387.562
385.754
405.066
397.667
374.277
355.96
344.193
338.287
328.396
316.415
316.094
310.12
290.837
288.844
289.491
294.493
299.129
293.807
297.687
298.286
304.823
314.076
326.818
340.204
349.14
349.968
346.759
352.073
353.205
353.542
345.684
270
273.43
274.957
274.159
270
270
282.31
309.54
340.822
366.65
387.29
396.051
402.865
398.42
390.558
378.038
353.72
325.344
296.069
281.353
298.725
317.046
320.066
322.02
317.495
315.079
316.988
321.283
331.51
322.217
368.69
362.354
314.39
330.117
401.05
447.223
454.719
461.987
464.848
472.988
472.706
478.559
483.184
485.641
484.484
485.595
482.086
477.068
477.075
470.222
459.653
431.191
378.46
346.731
343.755
357.117
357.47
343.643
286.293
281.134
847.113
822.783
758.92
737.515
756.054
783.9
795.535
805.061
819.164
874.615
954.839
969.307
941.776
971.851
470.392
512.579
560.769
606.378
643.941
638.254
605.298
584.025
583.198
582.912
578.018
564.305
560.69
562.87
577.622
619.314
676.038
740.146
790.126
812.773
817.726
810.307
794.612
751.104
711.06
687.786
675.988
666.101
626.51
561.558
463.444
490.695
506.125
534.396
549.319
557.463
552.367
535.186
490.122
433.67
403.736
399.219
407.527
423.635
448.853
479.921
497.927
495.048
488.841
484.518
467.778
465.553
466.876
473.853
483.649
502.242
517.268
518.992
513.845
495.493
483.133
459.824
456.054
464.063
464.029
464.879
470.751
471.237
473.254
461.404
450.592
429.035
433.862
417.503
413.809
416.814
411.912
409.183
405.76
406.302
413.917
411.072
415.282
416.394
422.662
434.529
444.541
446.343
456.987
445.425
418.672
412.957
414.678
422.35
428.26
442.398
437.747
438.158
447.128
436.212
438.841
439.321
444.909
434.586
438.663
425.299
429.941
419.13
428.43
423.214
434.875
441.069
454.68
453.176
446.132
439.801
435.869
430.694
436.894
446.975
417.963
410.624
412.635
415.359
403.571
385.397
380.71
388.895
396.274
399.045
400.028
401.674
405.505
422.341
429.483
455.339
452.867
472.653
463.139
464.948
457.84
442.4
431.067
407.388
394.352
388.883
399.012
412.813
409.236
389.606
294.287
343.187
346.098
305.357
270
270
270
270
287.683
306.758
314.52
331.422
339.373
348.009
358.654
358.628
361.175
364.145
369.437
353.279
362.18
335.085
328.384
313.156
327.794
332.165
342.638
345.945
338.941
326.227
444.432
456.391
446.677
436.365
426.009
422.495
415.941
415.185
400.22
400.531
384.86
374.314
370.651
367.392
371.041
369.636
369.339
383.53
389.858
387.092
396.805
398.424
398.247
396.634
395.804
395.595
391.151
386.752
388.718
400.895
414.581
394.439
380.617
370.823
367.666
369.372
377.111
366.954
369.192
364.921
370.921
366.029
374.974
368.157
366.336
373.946
376.871
377.354
392.137
396.101
410.861
412.395
402.58
384.911
392.28
397.346
397.012
415.559
419.146
400.256
369.349
446.546
414.715
376.244
352.434
341.348
333.781
328.138
319.958
315.895
311.917
299.92
294.363
295.903
287.853
287.227
277.297
293.89
283.483
308.74
296.1
315.775
329.812
354.228
369.532
371.27
371.155
377.131
385.343
385.73
391.034
406.297
385.299
363.003
348.168
337.142
328.55
320.246
318.252
307.854
299.59
302.124
319.914
324.223
315.026
298.814
299.49
289.99
291.326
297.144
305.653
317.128
328.352
340.967
344.264
340.875
347.456
354.573
356.377
349.137
270
276.097
279.395
270
272.156
281.218
310.106
343.691
377.51
400.438
414.003
423.554
423.692
420.267
411.151
402.906
381.956
354.496
312.946
283.595
295.725
316.946
321.727
318.799
310.887
311.206
310.567
318.286
330.362
320.797
346.446
362.66
344.423
385.368
435.226
454.13
459.585
465.728
473.517
475.239
481.134
489.16
490.337
489.364
493.074
488.294
481.968
480.257
473.609
471.212
469.624
453.585
411.523
353.861
339.192
351.485
352.1
318.456
270
294.621
833.57
784.812
732.743
745.696
800.946
832.378
846.787
852.6
865.561
911.176
965.201
969.154
947.171
970.975
475.435
523.049
577.411
624.374
658.818
641.994
596.068
579.5
574.369
566.986
561.894
552.862
543.399
538.326
545.366
576.839
638.871
714.721
772.29
805.428
811.371
807.02
795.091
761.05
720.801
698.075
682.895
674.359
630.209
561.567
474.317
485.7
507.618
527.152
554.243
561.382
564.616
543.587
490.071
425.139
402.376
402.868
419.074
441.407
472.778
500.09
501.067
495.753
483.001
479.724
466.066
467.559
466.135
466.944
490.417
503.841
511.336
522.196
516.907
492.679
478.419
458.825
458.726
466.037
464.983
468.352
471.646
472.99
474.966
464.712
451.402
427.939
442.762
411.916
427.219
420.259
419.286
412.58
414.911
404.651
412.66
406.813
405.751
410.278
413.412
426.364
438.049
449.486
447.001
444.233
418.463
415.545
424.597
438.681
447.161
452.772
459.466
458.247
460.559
460.963
472.525
466.745
483.887
471.991
480.6
462.884
461.562
442.034
440.654
431.318
438.859
441.306
455.747
454.778
446.941
443.657
436.319
431.954
439.915
450.245
422.575
416.76
418.366
411.79
393.73
384.613
387.487
395.121
398.337
397.134
399.058
404.754
418.413
444.124
458.464
483.144
481.724
498.827
487.79
493.867
488.169
470.49
454.19
429.479
407.642
396.692
404.898
417.589
406.847
384.507
301.908
347.407
332.389
284.899
270
270
270
271.618
290.261
301.152
314.617
332.932
340.035
361.001
365.923
376.582
375.518
375.199
381.243
362.617
375.874
350.094
340.197
320.24
328.23
331.858
343.047
350.754
346.774
325.931
450.698
457.219
447.546
435.317
424.227
420.683
414.497
411.582
400.056
391.669
373.603
376.563
366.967
367.792
361.842
370.763
369.515
370.309
390.261
385.731
389.956
397.997
397.376
396.511
395.965
395.092
392.839
386.951
396.942
412.496
408.807
388.685
373.818
367.33
366.007
369.978
378.94
366.12
373.51
373.571
368.607
367.24
362.059
374.33
371.117
372.384
381.499
376.656
388.975
394.085
407.589
412.273
405.75
389.206
388.77
391.883
408.82
447.359
448.174
413.559
382.097
450.004
402.1
366.794
346.761
334.927
325.34
320.517
317.063
307.155
304.58
302.012
300.015
291.899
285.224
288.659
277.078
297.168
281.183
302.828
292.779
313.382
317.521
347.651
365.664
372.326
371.414
379.699
392.417
393.984
403.128
406.414
378.017
354.01
339.376
327.536
327.843
312.375
311.146
300.317
313.548
312.08
309.104
297.632
298.697
308.912
296.357
296.397
288.935
289.51
295.104
305.318
317.384
333.321
338.274
338.596
346.799
346.882
345.798
338.277
270
280.685
280.801
272.999
278.099
300.879
335.617
374.455
401.652
422.222
435.689
441.309
444.364
438.919
428.725
418.229
397.944
379.099
335.602
288.461
292.571
317.101
321.224
316.205
308.89
307.858
310.159
316.262
330.683
321.71
318.031
363.713
367.933
415.05
448.45
459.026
462.599
468.975
480.343
477.284
492.688
493.037
498.056
506.055
501.413
497.564
491.659
482.798
478.811
471.832
468.84
467.86
442.411
371.495
326.19
340.832
341.265
306.001
270
311.246
819.763
757.441
727.544
779.002
843.9
870.932
878.349
887.677
912.94
941.95
967.207
968.169
945.72
961.215
476.496
525.607
583.627
631.571
670.139
654.439
597.214
572.35
568.082
565.637
558.823
557.309
540.248
530.863
521.324
538.577
590.516
671.27
747.756
786.089
791.421
798.21
779.579
757.035
725.502
702.693
694.038
678.57
629.785
560.9
474.728
489.055
494.034
520.031
540.94
562.506
564.256
552.846
491.384
428.667
406.063
413.689
434.459
462.485
491.42
506.338
499.421
495.984
481.587
481.848
470.433
469.975
465.603
474.256
496.82
500.151
516.798
526.866
510.029
497.177
478.288
459.181
460.823
468.386
469.883
470.017
474.018
473.527
479.078
471.638
454.739
433.402
437.898
417.848
432.467
419.378
416.715
420.843
410.197
403.728
405.425
398.053
398.755
395.62
406.749
418.551
432.558
441.276
439.861
433.812
429.528
425.036
436.658
447.521
453.625
454.261
467.679
460.486
466.829
473.1
485.604
486.396
508.681
495.288
512.962
491.444
486.233
463.467
452.318
437.834
444.521
443.526
458.006
455.62
448.771
444.941
435.045
435.781
445.525
454.469
422.96
419.63
420.711
409.045
391.358
388.524
392.894
397.607
395.924
397.104
397.716
413.902
432.855
458.97
475.992
495.093
493.328
509.075
497.645
506.811
500.924
486.181
465.154
442.913
414.477
405.876
410.999
417.772
399.101
380.969
307.521
350.025
320.373
279.739
270
270
270
272.7
282.945
298.719
311.278
324.762
340.015
364.398
367.689
378.848
385.78
376.224
389.09
365.653
384.354
354.843
347.658
326.577
327.855
332.781
342.684
352.43
342.907
322.138
460.826
462.795
450.945
434.682
421.317
417.393
411.815
412.392
394.51
383.74
376.681
372.314
361.062
362.775
359.015
361.121
371.97
367.305
378.592
391.315
386.017
394.534
397.942
396.8
395.731
396.074
391.254
394.678
413.714
428.193
409.719
386.762
371.714
363.775
365.429
370.277
379.238
365.065
379.073
363.828
369.935
357.122
358.606
364.685
371.318
374.423
383.096
377.214
389.191
392.149
407.426
410.632
407.539
390.297
387.439
394.607
455.77
482.235
467.959
440.949
396.49
448.451
397.322
368.089
343.601
327.293
320.307
315.665
307.94
294.086
303.423
293.49
281.511
278.721
279.522
279.178
279.093
290.193
284.295
297.242
291.602
304.303
314.142
344.375
364.144
371.172
371.059
386.883
399.488
392.273
415.902
406.625
375.927
349.693
333.535
325.421
322.019
311.184
302.293
306.678
303.678
297.535
298.513
296.801
309.463
295.072
300.591
297.776
289.486
279.967
292.059
298.359
310.591
321.76
329.963
334.805
335.604
343.757
350.282
338.515
270.232
283.232
285.074
277.451
287.211
316.284
356.395
391.215
419.8
436.351
452.038
462.175
462.559
458.083
439.834
428.393
411.316
391.767
358.063
307.573
285.994
315.184
322.278
322.483
311.042
307.305
308.684
318.729
330.446
321.572
281.824
331.887
375.967
427.117
454.235
461.392
465.13
472.564
482.843
484.136
494.875
497.643
509.875
511.107
511.935
507.335
492.221
488.602
481.692
471.143
471.306
470.222
462.581
404.517
312.847
309.383
303.424
270
287.18
315.911
807.39
738.714
736.66
821.533
886.71
897.067
898.473
912.582
933.336
954.676
967.798
956.475
932.21
860.258
633.492
508.399
492.076
545.435
588.768
639.68
686.005
672.77
606.509
569.82
566.759
562.75
567.588
563.137
549.932
532.588
514.555
508.363
538.602
617.07
701.118
759.741
778.704
772.173
766.969
747.317
727.847
712.71
701.937
676.56
619.038
563.643
516.792
516.261
489.364
486.408
494.122
502.358
524.326
538.84
555.161
549.949
502.117
435.015
415.615
423.369
449.546
474.631
497.887
505.927
499.49
498.833
485.781
486.342
475.992
477.804
481.505
491.186
495.523
510.031
526.378
521.938
514.691
506.301
516.84
497.09
468.337
454.926
461.983
472.28
473.512
474.627
478.4
479.811
477.66
476.235
469.47
442.49
439.839
431.16
422.221
429.053
413.091
408.562
410.066
394.765
399.974
386.05
389.235
390.537
402.734
427.265
436.711
446.494
448.186
446.878
441.11
455.225
426.819
430.019
439.888
447.59
450.73
452.823
464.453
456.419
466.986
474.796
492.082
497.663
525.474
512.413
536.018
504.987
506.817
470.947
460.797
441.872
446.605
446.968
459.1
456.387
450.791
441.337
431.059
438.43
442.473
446.824
443.698
440.432
428.378
424.82
418.715
401.104
392.21
392.266
396.167
397.29
395.356
395.942
401.812
417.23
439.82
467.603
480.109
497.829
496.518
506.929
501.894
502.743
500.593
483.214
463.697
441.52
417.447
414.261
418.186
411.91
387.279
353.576
305.476
300.425
317.512
334.719
303.872
274.141
270
270
270
270
281.388
292.746
299.541
316.415
333.223
348.64
364.583
373.275
375.312
381.623
376.319
372.926
382.737
358.244
345.98
329.587
326.565
332.008
343.863
352.802
341.308
408.307
459.099
451.386
459.145
458.196
447.373
430.076
416.902
413.37
409.52
409.071
390.391
388.559
372.834
370.974
360.778
364.334
358.651
356.867
367.114
374.534
367.654
385.592
389.826
391.096
396.778
397.77
396.041
394.657
402.607
427.201
426.34
425.005
421.309
429.253
406.151
386.042
369.985
363.004
365.91
369.428
377.764
367.843
376.265
365.123
368.281
358.623
362.903
368.479
369.621
377.713
380.074
379.977
389.727
393.986
405.337
411.796
405.057
389.568
387.995
445.65
509.918
495.086
477.092
461.715
440.92
413.249
416.454
418.5
392.491
367.107
339.245
323.192
316.497
310.598
301.681
287.705
293.014
283.039
278.094
280.897
279.124
280.196
273.513
290.538
280.297
291.926
288.083
295.497
315.721
346.895
365.011
374.414
383.287
410.055
417.95
408.3
404.618
397.647
404.07
399.688
369.901
343.688
329.086
322.976
319.654
306.767
300.117
293.484
299.381
298.296
300.171
293.934
287.271
300.173
285.933
301.094
285.567
278.693
283.735
296.293
304.26
317.666
329.712
330.644
337.176
339.982
339.6
332.54
328.59
316.324
295.624
286.473
289.451
283.364
294.262
325.495
368.297
402.482
429.253
445.578
461.584
468.422
476.352
463.694
455.216
438.132
416.945
396.906
379.366
324.285
286.229
310.771
326.701
325.075
322.091
315.924
318.622
328.409
335.711
324.605
281.128
271.657
277.052
285.543
353.219
416.369
454.706
461.884
465.905
475.235
481.404
486.227
494.108
500.796
510.962
515.407
517.569
503.266
496.803
492.438
479.532
475.068
471.38
471.489
468.267
435.985
324.19
276.589
276.544
288.209
304.443
270
496.128
530.812
799.52
734.599
749.578
860.93
916.165
913.42
903.189
897.711
913.572
946.014
955.502
952.798
939.506
822.325
631.424
521.925
505.426
557.404
584.236
635.162
704.316
708.937
633.027
579.366
564.918
562.86
570.306
570.499
561.491
547.996
515.715
495.307
505.024
550.713
637.748
726.186
757.429
764.884
753.594
741.683
727.158
718.396
703.198
674.181
613.889
571.512
531.224
514.124
491.61
491.297
485.4
491.649
491.055
505.285
521.166
537.76
511.212
451.431
422.707
430.935
452.608
478.004
492.336
503.434
499.389
500.383
491.689
492.154
487.527
490.144
492.226
493.666
511.592
515.713
526.654
523.765
517.364
505.615
514.358
518.571
479.906
458.388
462.662
477.072
481.662
480.422
481.413
483.584
489.507
485.753
480.997
458.962
446.314
432.603
430.917
414.606
423.562
404.526
392.307
391.04
383.082
382.492
379.431
389.821
404.953
413.87
426.202
425.185
425.211
426.599
431.877
434.869
427.722
426.67
435.276
441.791
445.684
447.154
454.529
449.843
461.82
467.652
487.293
498.019
520.801
512.463
531.827
499.446
506.267
466.803
458.87
443.74
450.802
450.523
461.7
456.888
447.26
432.844
438.373
446.006
444.608
444.988
442.223
434.469
427.618
424.111
411.609
398.691
395.997
396.231
398.247
397.205
396.364
396.768
402.374
419.035
438.532
461.859
473.985
493.778
491.043
499.212
491.843
493.305
483.858
467.488
455.358
435.391
422.807
421.946
415.622
395.707
361.973
326.516
309.524
318.28
340.168
339.315
323.442
295.007
270
270
270
270
278.46
282.011
292.171
304.747
313.394
332.434
352.869
366.356
367.63
374.968
375.938
364.554
379.808
352.676
338.259
326.57
326.854
331.831
343.952
347.935
374.615
450.518
458.712
458.693
467.671
464.424
450.841
431.029
415.006
409.729
404.519
407.359
391.212
390.738
372.508
372.592
359.462
362.914
358.627
358.222
358.784
374.207
372.314
375.922
386.717
394.985
393.567
395.605
394.716
399.368
420.91
430.637
424.691
420.439
419.807
421.038
407.929
388.368
369.814
363.131
364.129
366.145
378.108
372.491
371.424
371.644
368.331
366.295
362.386
367.962
367.4
381.797
376.925
383.297
390.285
398.444
406.427
409.851
400.049
385.524
411.568
500.787
523.945
508.846
491.619
473.535
451.08
445.913
447.241
431.354
403.628
375.082
341.777
322.639
314.811
304.65
300.941
286.583
280.139
277.668
280.929
278.058
276.38
281.492
274.686
287.494
275.988
282.8
292.779
294.161
318.399
352.606
366.774
372.877
391.382
414.29
424.116
422.376
424.656
427.558
435.891
422.56
379.468
344.799
328.789
322.996
318.977
303.728
300.713
283.879
292.427
285.362
293.068
280.024
284.875
295.626
274.951
293.78
280.644
275.816
283.363
292.799
303.058
312.941
320.363
323.996
328.109
334.468
336.645
329.669
328.432
316.382
309.285
299.353
293.368
291.4
296.785
326.364
366.309