/*--------------------------------*- C++ -*----------------------------------*\
| =========                 |                                                 |
| \\      /  F ield         | OpenFOAM: The Open Source CFD Toolbox           |
|  \\    /   O peration     | Version:  2.1.1                                 |
|   \\  /    A nd           | Web:      www.OpenFOAM.org                      |
|    \\/     M anipulation  |                                                 |
\*---------------------------------------------------------------------------*/
FoamFile
{
    version     2.0;
    format      ascii;
    class       volScalarField;
    location    "0.001200000";
    object      fH;
}
// * * * * * * * * * * * * * * * * * * * * * * * * * * * * * * * * * * * * * //

dimensions      [0 0 0 0 0 0 0];

internalField   nonuniform List<scalar> 
12384
(
0.0257451
0.0262877
0.026839
0.0269366
0.0273885
0.0271579
0.0269668
0.0275243
0.0283562
0.0289086
0.028949
0.0291491
0.0291736
0.0288904
0.0263611
0.0245318
0.0232022
0.0226077
0.0223257
0.0223007
0.0222621
0.022661
0.0232991
0.0242368
0.0252526
0.0260963
0.026826
0.0275964
0.0281194
0.0285829
0.0288387
0.0290027
0.029021
0.0290888
0.0290854
0.0290852
0.0290882
0.029094
0.0290804
0.0290908
0.0290856
0.0290931
0.0290887
0.029085
0.028675
0.0285453
0.0286179
0.0286947
0.0287891
0.0288683
0.0289459
0.0290267
0.0290357
0.0291004
0.0290397
0.0291044
0.0290441
0.0290934
0.0290539
0.0290841
0.0290598
0.0290799
0.0290627
0.0290787
0.0290631
0.0290788
0.0290648
0.0290765
0.0290686
0.0290733
0.0290717
0.0290721
0.0290725
0.0290781
0.0290777
0.0290698
0.0290689
0.0290682
0.0290686
0.0290676
0.0290681
0.0290662
0.0290674
0.0290645
0.029066
0.0290635
0.0290639
0.0290614
0.0290604
0.0290604
0.0290602
0.0290616
0.0290614
0.0290621
0.0290619
0.0290627
0.0290626
0.0290634
0.0290633
0.0290639
0.0290634
0.0290641
0.0290641
0.029078
0.029078
0.029064
0.0290632
0.0290625
0.0290621
0.0290617
0.0290609
0.0290601
0.0290595
0.0290586
0.029058
0.0290569
0.0290554
0.0290538
0.0290535
0.0290533
0.0290542
0.0290556
0.029057
0.029058
0.0290585
0.0290594
0.02906
0.0290608
0.0290615
0.0290621
0.0290623
0.0290629
0.0290638
0.029078
0.029078
0.0290638
0.0290631
0.0290624
0.0290619
0.0290613
0.0290607
0.02906
0.0290593
0.0290586
0.0290579
0.0290571
0.0290554
0.0290542
0.0290533
0.0290534
0.0290544
0.0290557
0.029057
0.0290578
0.0290586
0.0290592
0.0290599
0.0290606
0.0290612
0.0290618
0.0290622
0.0290628
0.0290635
0.029078
0.029078
0.0290637
0.0290628
0.0290621
0.0290621
0.0290615
0.0290609
0.0290601
0.0290594
0.0290586
0.029058
0.0290571
0.0290557
0.0290546
0.0290535
0.0290533
0.029054
0.0290555
0.0290572
0.0290582
0.029059
0.0290598
0.0290604
0.029061
0.0290616
0.0290621
0.0290625
0.029063
0.0290636
0.029078
0.029078
0.0290638
0.0290631
0.0290625
0.0290619
0.0290612
0.0290605
0.0290598
0.0290592
0.0290585
0.0290579
0.029057
0.0290556
0.0290543
0.0290532
0.0290532
0.0290543
0.0290556
0.029057
0.0290578
0.0290586
0.0290592
0.0290599
0.0290606
0.0290612
0.0290618
0.0290622
0.0290628
0.0290636
0.029078
0.029078
0.0290638
0.0290632
0.0290623
0.0290618
0.0290612
0.0290606
0.0290599
0.0290594
0.0290586
0.029058
0.0290572
0.0290557
0.0290543
0.0290532
0.0290533
0.0290543
0.0290556
0.029057
0.0290578
0.0290586
0.0290592
0.0290599
0.0290606
0.0290612
0.0290618
0.0290622
0.0290628
0.0290636
0.029078
0.029078
0.0290639
0.0290632
0.0290624
0.0290618
0.0290611
0.0290604
0.0290598
0.0290591
0.0290585
0.0290578
0.0290571
0.0290558
0.0290546
0.0290535
0.0290532
0.029054
0.0290556
0.0290572
0.0290581
0.0290587
0.0290594
0.0290601
0.0290608
0.0290613
0.029062
0.0290625
0.0290633
0.029064
0.029078
0.029078
0.0290638
0.029063
0.0290622
0.0290618
0.0290611
0.0290605
0.0290598
0.0290592
0.0290585
0.0290579
0.0290571
0.0290557
0.0290544
0.0290533
0.0290532
0.0290541
0.0290555
0.029057
0.0290578
0.0290586
0.0290592
0.0290599
0.0290607
0.0290614
0.0290618
0.0290623
0.0290628
0.0290635
0.029078
0.029078
0.0290636
0.0290628
0.0290625
0.0290621
0.0290616
0.0290608
0.02906
0.0290593
0.0290585
0.0290579
0.0290569
0.0290555
0.0290543
0.0290532
0.0290532
0.0290542
0.0290555
0.0290569
0.0290579
0.0290586
0.0290593
0.0290599
0.0290607
0.0290613
0.0290618
0.0290623
0.0290629
0.0290637
0.029078
0.029078
0.0290637
0.029063
0.0290621
0.0290616
0.0290609
0.0290604
0.0290597
0.0290593
0.0290586
0.0290581
0.0290572
0.029056
0.0290546
0.0290534
0.0290532
0.0290541
0.0290555
0.0290569
0.0290577
0.0290585
0.0290592
0.02906
0.0290606
0.0290614
0.0290618
0.0290623
0.0290628
0.0290635
0.029078
0.014418
0.0168003
0.0174451
0.0166881
0.0176737
0.0165459
0.0154104
0.0169523
0.0179377
0.0212285
0.0243615
0.0258702
0.0268261
0.027574
0.0137622
0.0117644
0.0119699
0.0123505
0.0125979
0.0125428
0.0122922
0.0120051
0.0118246
0.0117853
0.012169
0.0127211
0.0138015
0.0148149
0.0162735
0.0177238
0.0190604
0.0205894
0.0218824
0.0231398
0.0243317
0.0253613
0.0262694
0.0271315
0.0277893
0.028264
0.0285438
0.0286648
0.0287153
0.0288414
0.0182092
0.0176167
0.0179115
0.0183515
0.0188788
0.0194065
0.0202838
0.0209159
0.0219734
0.0225577
0.0235379
0.0240598
0.0247981
0.0252643
0.0257221
0.0261211
0.026457
0.0267549
0.0270799
0.0272636
0.0275689
0.0276441
0.0278843
0.0279653
0.0280466
0.0281642
0.0281607
0.0282477
0.0282181
0.0286928
0.0271758
0.0268003
0.0268387
0.0269598
0.02708
0.0272113
0.0273041
0.0274004
0.0274683
0.0275317
0.0275719
0.0276252
0.027617
0.0276386
0.0275966
0.0276519
0.0276647
0.0277416
0.0277445
0.0277893
0.0277803
0.027822
0.0278214
0.0278562
0.0278633
0.027891
0.027897
0.0279074
0.0279308
0.0286113
0.0286317
0.0278921
0.0278771
0.0278466
0.0278361
0.0278203
0.0277834
0.0277678
0.0277311
0.0277196
0.0276854
0.0276694
0.0276091
0.0275584
0.0275377
0.0275303
0.0275707
0.0276144
0.0276685
0.0276815
0.0277149
0.0277257
0.0277625
0.0277778
0.0278152
0.0278324
0.0278419
0.027872
0.0278888
0.0286355
0.0286347
0.0278929
0.027876
0.0278443
0.027837
0.0278024
0.0277911
0.0277545
0.027745
0.0277072
0.0276967
0.027657
0.0276106
0.0275637
0.0275279
0.0275401
0.0275632
0.0276226
0.0276534
0.0276912
0.027698
0.0277343
0.0277436
0.0277809
0.0277957
0.0278286
0.0278437
0.0278618
0.027897
0.0286212
0.0286353
0.027889
0.0278713
0.0278405
0.0278315
0.0278129
0.0277749
0.0277604
0.027723
0.0277122
0.0276783
0.0276665
0.0276127
0.0275766
0.0275368
0.0275365
0.0275491
0.0276144
0.027658
0.0277021
0.0277186
0.0277582
0.0277671
0.0278017
0.0278124
0.0278454
0.0278515
0.0278787
0.0278957
0.0286335
0.0286355
0.0278886
0.0278639
0.0278464
0.0278151
0.0278039
0.0277647
0.027754
0.0277188
0.0277116
0.0276796
0.0276672
0.0276102
0.0275701
0.0275287
0.0275364
0.0275581
0.0276193
0.0276528
0.0276912
0.0276977
0.0277338
0.0277429
0.0277803
0.0277946
0.0278278
0.0278429
0.0278613
0.027897
0.0286212
0.0286243
0.0279042
0.0278659
0.0278536
0.0278205
0.0278099
0.0277724
0.0277623
0.0277275
0.0277194
0.0276867
0.027674
0.0276154
0.0275702
0.0275288
0.0275373
0.0275586
0.0276177
0.0276514
0.0276906
0.0276975
0.0277338
0.0277433
0.0277809
0.0277955
0.0278283
0.0278436
0.0278618
0.0278973
0.0286208
0.0286203
0.0278967
0.0278679
0.0278377
0.0278259
0.0277909
0.0277779
0.0277417
0.027734
0.0277
0.0276952
0.0276592
0.0276306
0.02757
0.0275465
0.0275263
0.0275578
0.0276039
0.0276722
0.0276989
0.0277148
0.0277494
0.0277621
0.0277978
0.0278091
0.0278429
0.0278492
0.02788
0.0278942
0.0286354
0.0286198
0.0279
0.0278619
0.0278492
0.0278164
0.0278062
0.0277688
0.0277585
0.0277238
0.0277166
0.0276849
0.0276733
0.0276174
0.0275741
0.0275308
0.0275354
0.0275551
0.0276143
0.0276503
0.0276901
0.027698
0.0277348
0.0277446
0.0277819
0.0277968
0.0278295
0.0278451
0.0278621
0.0278971
0.0286212
0.0286352
0.0278873
0.0278681
0.0278489
0.0278233
0.0278101
0.0277711
0.027758
0.0277207
0.0277108
0.0276769
0.0276631
0.0276073
0.0275688
0.0275292
0.0275298
0.027566
0.0276085
0.0276657
0.0276794
0.0277122
0.0277214
0.0277576
0.0277693
0.0278079
0.027819
0.0278472
0.0278654
0.0278874
0.0286348
0.0286215
0.0278983
0.0278585
0.0278457
0.0278095
0.0278003
0.0277611
0.0277529
0.0277168
0.027713
0.0276803
0.0276734
0.0276215
0.0275821
0.0275352
0.0275341
0.0275528
0.0276103
0.0276475
0.0276865
0.0276947
0.0277317
0.0277412
0.02778
0.0277942
0.0278277
0.027846
0.0278622
0.0278977
0.0286207
0.009415
0.0112741
0.0102672
0.00918397
0.00912563
0.00943553
0.00969146
0.00983266
0.009715
0.0101555
0.0107155
0.0131108
0.0157464
0.0176747
0.00909355
0.0115019
0.014434
0.0173443
0.0188227
0.0193851
0.0191905
0.0171877
0.0143701
0.0120102
0.0103266
0.00944076
0.00890855
0.00850731
0.00841067
0.00804844
0.00823129
0.00798328
0.00813914
0.00816095
0.00833872
0.00864642
0.00902297
0.0095908
0.0103682
0.0117146
0.0135874
0.0149931
0.0162711
0.0169916
0.00806484
0.008237
0.00827062
0.00828116
0.00820285
0.00822469
0.00814188
0.00819275
0.00813932
0.00818484
0.0081684
0.00820729
0.00818927
0.00824649
0.00820625
0.0082899
0.0082093
0.00830063
0.0082183
0.00829148
0.00825775
0.00829718
0.00835803
0.00836168
0.00852796
0.00857659
0.00871843
0.00882917
0.00890185
0.00861319
0.00779636
0.00822153
0.00827312
0.0082978
0.00830346
0.00833162
0.00833414
0.00838074
0.00837101
0.00842608
0.0084125
0.00845672
0.00846734
0.00851888
0.00854294
0.00855404
0.00852601
0.00850972
0.00848821
0.00848886
0.00848066
0.00847275
0.00846666
0.00845245
0.00844675
0.00843111
0.008432
0.00841978
0.00841157
0.00782081
0.00782184
0.00843492
0.0084565
0.00847289
0.00848498
0.00849475
0.00851643
0.00853347
0.00855139
0.00856637
0.00858197
0.00860151
0.00864085
0.00868622
0.00869616
0.0087032
0.00867755
0.0086359
0.0086018
0.0085844
0.00856976
0.00855506
0.00853766
0.00852086
0.00849925
0.00848641
0.00847852
0.00846204
0.00844029
0.00782181
0.00782145
0.00843461
0.00845983
0.00847666
0.00848734
0.00850308
0.00851793
0.00853518
0.00854923
0.00856746
0.00858139
0.00860223
0.00864521
0.00868033
0.00870365
0.0087011
0.00867557
0.00863654
0.00860441
0.00858507
0.00857309
0.00855608
0.00854239
0.00852493
0.00850758
0.00849131
0.0084778
0.00846428
0.00844132
0.00782179
0.0078218
0.00844038
0.00846262
0.00848055
0.00848482
0.00850149
0.00852258
0.00853906
0.00855678
0.00857163
0.00858644
0.00860269
0.0086361
0.00867176
0.00869639
0.00870365
0.00868727
0.00864405
0.00860326
0.00857904
0.00856081
0.00853994
0.00852647
0.00851047
0.00849602
0.00848127
0.00847177
0.00845668
0.00843168
0.00782145
0.00782235
0.00844157
0.00846148
0.00848018
0.00849617
0.00850987
0.00852917
0.00854348
0.00855883
0.00857144
0.00858489
0.00860227
0.00863873
0.00867756
0.00870349
0.00870389
0.00867965
0.00863925
0.00860458
0.00858487
0.00857301
0.00855634
0.00854262
0.00852517
0.00850802
0.00849213
0.00847822
0.00846456
0.00844113
0.00782176
0.00782184
0.00843401
0.00846018
0.00847687
0.00849093
0.00850519
0.00852254
0.00853711
0.00855222
0.00856592
0.00857989
0.0085975
0.00863529
0.00867791
0.00870353
0.00870324
0.00867934
0.00864038
0.00860576
0.00858542
0.0085732
0.00855636
0.00854247
0.00852475
0.00850741
0.00849153
0.00847774
0.00846415
0.00844114
0.00782177
0.00782151
0.00843973
0.0084632
0.00848146
0.00849437
0.00851061
0.00852697
0.00854322
0.00855611
0.00857087
0.00858182
0.00859975
0.00863029
0.00867011
0.00869594
0.00870566
0.00868841
0.00864625
0.00859814
0.00857494
0.00856436
0.00854542
0.00853061
0.00851359
0.00849877
0.00848324
0.00847298
0.00845679
0.00843334
0.00782153
0.00782197
0.00843906
0.00846343
0.00847983
0.00849352
0.00850757
0.00852482
0.00853982
0.00855467
0.00856759
0.0085809
0.00859766
0.00863329
0.00867453
0.00870182
0.00870474
0.00868214
0.00864311
0.00860681
0.00858594
0.00857311
0.00855574
0.00854176
0.00852414
0.00850683
0.00849047
0.00847656
0.00846393
0.00844116
0.00782177
0.0078219
0.00844244
0.00846341
0.00847429
0.00848979
0.00850478
0.00852488
0.00854082
0.00855815
0.00857245
0.00858703
0.00860534
0.00864025
0.00867764
0.00870489
0.00870424
0.00867957
0.00863969
0.00860332
0.00858515
0.00857115
0.00855734
0.00854082
0.00852574
0.00850657
0.00849305
0.0084783
0.00846483
0.00844209
0.00782203
0.00782208
0.00844001
0.00846542
0.00848266
0.00849802
0.00851218
0.00852948
0.00854414
0.00855884
0.00857071
0.00858335
0.00859796
0.00862896
0.00866864
0.00869795
0.00870649
0.00868442
0.00864595
0.00860872
0.00858895
0.00857522
0.00855841
0.00854396
0.00852577
0.00850862
0.00849154
0.00847624
0.00846396
0.00844195
0.00782178
0.0144044
0.016928
0.0158208
0.0130121
0.0107551
0.0110156
0.01169
0.0117754
0.01104
0.00985562
0.0093042
0.00838187
0.00953476
0.0109931
0.012716
0.021428
0.0268939
0.0295042
0.0315043
0.0329714
0.0338647
0.0334167
0.0309346
0.0258079
0.020114
0.0161442
0.0137091
0.0123999
0.0113798
0.0107596
0.0101868
0.00978672
0.00943268
0.00925761
0.00901358
0.00884967
0.00872271
0.00862982
0.00857982
0.00852978
0.00854493
0.00869632
0.00897777
0.00906402
0.0105972
0.0112966
0.0111074
0.0107614
0.0104809
0.0101898
0.00994571
0.00969878
0.00950236
0.00930673
0.00921464
0.00901356
0.00902442
0.00883752
0.00888667
0.00873196
0.00879084
0.00867124
0.00871322
0.00863362
0.00865077
0.00860643
0.0085971
0.00857516
0.0085641
0.00855091
0.00855373
0.00854121
0.0085335
0.0084429
0.00868661
0.00871726
0.00870754
0.00868304
0.00866868
0.00864722
0.00863918
0.00862038
0.00861816
0.00860076
0.00860462
0.00858966
0.00859439
0.00858437
0.00858762
0.0085822
0.00858344
0.00858073
0.00858298
0.00857898
0.00858356
0.00857871
0.00858414
0.00857967
0.00858437
0.00858144
0.00858474
0.00858257
0.00858055
0.00847744
0.00847483
0.0085839
0.00858997
0.00858934
0.00859057
0.00859059
0.00858985
0.00859155
0.00859012
0.00859204
0.00859055
0.00859249
0.00859123
0.00859337
0.00859281
0.00859229
0.00859337
0.00859113
0.00859244
0.0085905
0.00859198
0.00859007
0.00859151
0.0085897
0.00859077
0.00859031
0.00858919
0.00859022
0.00858385
0.00847408
0.00847428
0.00858418
0.00859012
0.00858902
0.00859083
0.00858944
0.00859124
0.00858984
0.00859173
0.00859038
0.00859234
0.00859096
0.00859245
0.00859316
0.00859225
0.00859386
0.00859172
0.00859284
0.00859076
0.00859222
0.00859029
0.00859174
0.00858994
0.00859125
0.00858958
0.00859056
0.00858952
0.00858862
0.00858369
0.00847527
0.00847407
0.00858385
0.00859018
0.00858926
0.0085899
0.00859082
0.00858965
0.00859149
0.00859005
0.00859199
0.0085905
0.00859245
0.00859112
0.00859327
0.00859204
0.00859382
0.00859194
0.00859295
0.00859089
0.00859224
0.00859042
0.00859166
0.00858987
0.00859112
0.00858939
0.00859074
0.00858896
0.00858997
0.00858433
0.00847422
0.00847416
0.00858429
0.00858912
0.00859025
0.00858933
0.00859108
0.00858968
0.00859155
0.00859006
0.00859202
0.00859054
0.0085925
0.00859119
0.00859339
0.00859224
0.00859387
0.0085918
0.00859285
0.00859079
0.00859224
0.00859032
0.00859175
0.00858995
0.00859126
0.00858959
0.00859061
0.00858943
0.00858863
0.00858367
0.0084753
0.00847509
0.00858413
0.00858846
0.00859044
0.00858934
0.00859104
0.00858972
0.00859152
0.00859011
0.00859197
0.00859055
0.00859245
0.0085912
0.00859338
0.00859226
0.00859385
0.00859178
0.00859285
0.0085908
0.00859223
0.00859032
0.00859175
0.00858995
0.00859125
0.00858959
0.00859058
0.00858948
0.00858866
0.00858361
0.00847534
0.00847552
0.00858376
0.00858963
0.008589
0.00859083
0.00858953
0.00859127
0.00858988
0.00859173
0.00859028
0.00859221
0.00859075
0.00859278
0.00859164
0.00859371
0.00859226
0.00859347
0.00859133
0.00859231
0.00859092
0.00859047
0.00859165
0.00858989
0.00859115
0.00858938
0.00859074
0.00858891
0.00859004
0.00858425
0.00847422
0.00847549
0.00858382
0.00858846
0.00859051
0.00858939
0.00859109
0.00858977
0.00859154
0.00859013
0.00859199
0.00859055
0.00859245
0.00859117
0.00859333
0.00859222
0.00859387
0.00859183
0.00859287
0.00859081
0.00859223
0.00859034
0.00859175
0.00858995
0.00859124
0.00858959
0.00859053
0.00858957
0.00858862
0.00858371
0.00847526
0.00847418
0.00858389
0.00859015
0.00858983
0.00858938
0.00859102
0.00858966
0.00859151
0.00859006
0.00859198
0.00859051
0.00859243
0.00859117
0.00859331
0.00859235
0.0085924
0.00859331
0.00859118
0.00859241
0.00859052
0.00859199
0.00859007
0.00859155
0.00858969
0.00859112
0.00858938
0.00859022
0.00859
0.00858402
0.00847426
0.00847537
0.00858398
0.00858847
0.0085905
0.00858926
0.00859112
0.00858966
0.00859159
0.00859
0.00859206
0.0085904
0.0085925
0.00859104
0.00859332
0.00859209
0.00859391
0.00859194
0.00859299
0.00859095
0.00859246
0.00859056
0.00859206
0.00859017
0.00859156
0.00858981
0.00859072
0.00858984
0.00858879
0.00858362
0.00847533
0.026352
0.0274422
0.0266054
0.0221363
0.0183108
0.0169408
0.0161886
0.0143333
0.0150539
0.0137554
0.0120513
0.010699
0.00929089
0.00867286
0.0175838
0.0283675
0.031019
0.0315424
0.0319916
0.0333797
0.0365344
0.0399681
0.0418606
0.040063
0.0346305
0.0269335
0.0212505
0.0180316
0.0161308
0.0148454
0.0139766
0.0131513
0.0126489
0.0121643
0.0118589
0.0114502
0.0111451
0.010821
0.0104675
0.0100641
0.00960531
0.00930905
0.00909086
0.00894798
0.0148164
0.0171661
0.0167769
0.015884
0.014942
0.01422
0.0135431
0.0130892
0.0126233
0.0123482
0.0120492
0.0118587
0.0116933
0.0115427
0.0114555
0.011343
0.0112939
0.0112181
0.0111657
0.011134
0.0110668
0.0110613
0.0109843
0.0109798
0.0108939
0.010864
0.0107727
0.0107298
0.0106502
0.010615
0.0112258
0.0112208
0.0111743
0.0111412
0.0111048
0.0110729
0.0110443
0.0110222
0.0110002
0.0109894
0.0109692
0.0109672
0.0109495
0.0109515
0.0109363
0.0109409
0.0109264
0.0109336
0.0109203
0.0109276
0.0109178
0.0109233
0.0109172
0.0109202
0.0109173
0.010918
0.0109165
0.0109184
0.010914
0.0109099
0.010904
0.0109136
0.0109116
0.0109151
0.0109127
0.0109124
0.0109151
0.0109117
0.0109154
0.0109112
0.0109154
0.0109113
0.0109155
0.0109127
0.0109137
0.0109156
0.0109117
0.0109155
0.010911
0.0109154
0.010911
0.0109154
0.0109114
0.0109151
0.010912
0.0109127
0.0109152
0.0109119
0.0109137
0.0109033
0.0109037
0.0109136
0.0109115
0.0109154
0.0109113
0.0109154
0.0109112
0.0109155
0.0109111
0.0109155
0.0109114
0.0109154
0.0109126
0.0109126
0.0109156
0.0109117
0.0109156
0.0109115
0.0109154
0.0109111
0.0109155
0.0109112
0.0109158
0.0109118
0.0109158
0.0109129
0.0109147
0.0109156
0.0109121
0.0109067
0.0109034
0.0109137
0.0109121
0.0109153
0.0109136
0.0109121
0.0109152
0.0109113
0.0109154
0.0109109
0.0109154
0.0109109
0.0109155
0.0109115
0.0109156
0.0109118
0.0109157
0.0109118
0.0109156
0.0109118
0.0109158
0.0109117
0.0109156
0.0109114
0.0109154
0.0109115
0.0109153
0.0109118
0.0109138
0.0109036
0.010904
0.0109132
0.0109138
0.0109121
0.0109153
0.0109113
0.0109155
0.0109111
0.0109154
0.0109108
0.0109155
0.0109112
0.0109157
0.0109119
0.0109159
0.0109121
0.0109158
0.0109116
0.0109156
0.0109112
0.0109156
0.0109113
0.0109158
0.0109119
0.0109159
0.0109127
0.0109152
0.0109156
0.0109122
0.0109068
0.0109063
0.0109119
0.0109158
0.0109121
0.010916
0.0109117
0.0109157
0.0109114
0.0109156
0.0109111
0.0109157
0.0109115
0.0109158
0.010912
0.0109159
0.0109121
0.0109158
0.0109116
0.0109156
0.0109112
0.0109155
0.0109113
0.0109158
0.0109119
0.0109159
0.0109128
0.0109151
0.0109157
0.0109121
0.0109068
0.010906
0.0109126
0.0109135
0.0109155
0.0109118
0.0109156
0.0109114
0.0109157
0.010911
0.0109155
0.0109111
0.0109155
0.0109115
0.0109157
0.0109119
0.0109157
0.0109121
0.0109157
0.0109127
0.0109145
0.010915
0.0109119
0.0109157
0.0109114
0.0109154
0.0109114
0.0109154
0.0109113
0.0109137
0.0109036
0.0109067
0.0109119
0.010916
0.0109121
0.010916
0.0109116
0.0109158
0.0109113
0.0109156
0.010911
0.0109156
0.0109114
0.0109158
0.010912
0.0109159
0.0109121
0.0109159
0.0109117
0.0109156
0.0109113
0.0109156
0.0109114
0.0109158
0.0109119
0.0109158
0.0109129
0.0109146
0.0109156
0.0109121
0.0109067
0.0109033
0.0109135
0.0109127
0.0109137
0.0109146
0.0109116
0.0109155
0.0109113
0.0109155
0.010911
0.0109156
0.0109113
0.0109158
0.0109121
0.0109157
0.0109154
0.0109124
0.0109159
0.0109114
0.0109156
0.0109109
0.0109154
0.0109111
0.0109154
0.0109112
0.0109149
0.0109127
0.0109127
0.0109132
0.0109031
0.0109066
0.0109118
0.0109161
0.0109119
0.0109161
0.0109114
0.010916
0.0109111
0.0109158
0.0109107
0.0109157
0.0109109
0.010916
0.0109118
0.0109161
0.0109123
0.0109162
0.0109121
0.010916
0.0109114
0.0109158
0.0109114
0.010916
0.010912
0.0109159
0.0109128
0.0109145
0.0109155
0.0109118
0.0109066
0.0290141
0.0290906
0.0289881
0.0280989
0.0260555
0.0241018
0.0220859
0.0210098
0.0179874
0.0168847
0.016096
0.01412
0.01144
0.00933165
0.0214426
0.0289123
0.0271613
0.0244266
0.0237251
0.0247678
0.0276678
0.0328169
0.0409109
0.0465873
0.0456316
0.0404868
0.0327002
0.0264727
0.0228496
0.020745
0.0192363
0.0180988
0.0170259
0.0163253
0.0156897
0.0149423
0.0145066
0.0138756
0.0132754
0.012651
0.0119335
0.0112338
0.0104961
0.00981641
0.0209332
0.0255614
0.0258297
0.0243183
0.0221633
0.0202387
0.0188839
0.0178088
0.0171114
0.0164103
0.0160287
0.0155508
0.0153083
0.0149811
0.0148389
0.0145561
0.0145406
0.0142587
0.0142967
0.0140532
0.014075
0.0138792
0.0138716
0.0137085
0.0136728
0.0135262
0.0134744
0.0133356
0.0132398
0.013056
0.0144411
0.0144128
0.0143068
0.0141712
0.0140804
0.0139853
0.0139252
0.0138572
0.0138223
0.0137676
0.0137526
0.0137082
0.0137061
0.0136685
0.0136736
0.0136421
0.0136502
0.013626
0.0136329
0.0136162
0.0136227
0.0136102
0.0136163
0.0136076
0.0136122
0.0136063
0.0136098
0.0136065
0.0136023
0.0134835
0.0134825
0.013599
0.0136055
0.0136059
0.0136057
0.0136053
0.0136065
0.0136059
0.0136062
0.0136059
0.0136062
0.013606
0.0136066
0.0136072
0.0136057
0.0136071
0.0136064
0.0136067
0.0136058
0.0136062
0.0136056
0.0136059
0.0136056
0.0136061
0.0136054
0.0136056
0.0136065
0.0136061
0.0135999
0.0134782
0.0134774
0.0135995
0.0136056
0.0136064
0.0136058
0.0136058
0.0136055
0.0136059
0.0136056
0.0136062
0.013606
0.0136065
0.0136063
0.0136068
0.013607
0.0136064
0.0136068
0.0136062
0.0136062
0.0136057
0.0136061
0.0136056
0.0136061
0.0136059
0.0136064
0.0136064
0.013607
0.0136067
0.0136006
0.0134768
0.0134783
0.0136
0.0136063
0.0136066
0.0136057
0.0136055
0.013606
0.0136056
0.0136059
0.0136056
0.0136061
0.0136056
0.0136065
0.0136062
0.0136066
0.0136063
0.0136068
0.0136063
0.0136065
0.0136064
0.0136068
0.0136059
0.0136061
0.0136057
0.0136059
0.0136058
0.0136063
0.0136057
0.0135999
0.0134771
0.0134783
0.0136001
0.0136059
0.0136057
0.0136062
0.0136056
0.0136059
0.0136054
0.0136059
0.0136056
0.0136062
0.013606
0.0136069
0.0136067
0.0136072
0.0136068
0.0136071
0.0136063
0.0136064
0.0136058
0.0136062
0.0136056
0.0136061
0.0136059
0.0136064
0.0136064
0.0136071
0.0136068
0.0136007
0.0134769
0.0134774
0.0136003
0.0136067
0.0136065
0.0136066
0.0136058
0.013606
0.0136056
0.013606
0.0136057
0.0136064
0.0136061
0.0136069
0.0136067
0.0136072
0.0136067
0.013607
0.0136063
0.0136064
0.0136058
0.0136062
0.0136056
0.0136061
0.0136059
0.0136064
0.0136064
0.0136072
0.0136069
0.0136006
0.0134768
0.0134768
0.0136005
0.0136065
0.0136066
0.0136061
0.0136062
0.0136056
0.0136059
0.0136054
0.013606
0.0136057
0.0136063
0.0136062
0.0136068
0.0136065
0.013607
0.0136066
0.0136071
0.0136065
0.0136066
0.0136063
0.013606
0.0136062
0.0136056
0.0136058
0.0136058
0.0136064
0.0136054
0.0135995
0.0134781
0.0134766
0.0136005
0.013607
0.0136066
0.0136067
0.0136058
0.0136061
0.0136056
0.013606
0.0136056
0.0136063
0.0136061
0.0136069
0.0136067
0.0136071
0.0136067
0.013607
0.0136064
0.0136064
0.0136059
0.0136062
0.0136058
0.0136062
0.013606
0.0136064
0.0136063
0.013607
0.0136067
0.0136006
0.0134768
0.0134781
0.0136
0.0136065
0.0136061
0.0136057
0.0136056
0.013606
0.0136056
0.013606
0.0136057
0.0136064
0.013606
0.0136069
0.0136068
0.0136071
0.0136072
0.013607
0.013607
0.013606
0.0136064
0.0136056
0.0136059
0.0136055
0.0136059
0.0136056
0.013606
0.0136062
0.0136064
0.0135998
0.013478
0.0134766
0.0136004
0.0136069
0.0136065
0.0136066
0.0136058
0.0136061
0.0136056
0.013606
0.0136057
0.0136063
0.0136062
0.0136071
0.0136071
0.0136079
0.0136075
0.0136079
0.0136072
0.0136072
0.0136066
0.0136067
0.0136063
0.0136066
0.0136064
0.0136067
0.0136059
0.0136069
0.0136065
0.0136
0.0134765
0.0289404
0.0288678
0.0290848
0.0294458
0.0291697
0.0279338
0.0263156
0.0246253
0.0244482
0.0221884
0.0201889
0.0186542
0.0146176
0.0111772
0.0251587
0.0241943
0.021548
0.020077
0.0214611
0.0227469
0.0249662
0.0286517
0.0345846
0.0444717
0.0506295
0.0487358
0.0442464
0.0371345
0.0314642
0.028121
0.0261533
0.0246328
0.0233326
0.0222637
0.0213891
0.020577
0.019842
0.0191003
0.018291
0.0172271
0.0160987
0.014815
0.0133086
0.0116057
0.0274948
0.0320055
0.0347861
0.0348734
0.0321117
0.0287236
0.0261024
0.0244084
0.0232103
0.0223657
0.0216801
0.0212115
0.0207288
0.0204854
0.0201264
0.0200025
0.0197406
0.0196503
0.0194788
0.0193787
0.0192638
0.0191534
0.0190631
0.0189364
0.0188381
0.0186638
0.018501
0.018271
0.0179745
0.0177213
0.0200615
0.0198975
0.0196331
0.0194546
0.0193044
0.0192006
0.0191054
0.0190515
0.0189815
0.0189589
0.0188988
0.0188963
0.0188437
0.0188535
0.0188045
0.0188235
0.0187782
0.0188007
0.0187621
0.0187838
0.018753
0.0187704
0.018748
0.0187599
0.0187456
0.0187516
0.0187445
0.0187447
0.0187426
0.0187814
0.0187821
0.0187349
0.0187321
0.0187326
0.0187312
0.0187304
0.018731
0.01873
0.018731
0.0187296
0.0187308
0.0187292
0.0187303
0.0187297
0.0187292
0.0187302
0.0187292
0.0187303
0.0187289
0.0187306
0.0187292
0.0187306
0.0187294
0.0187308
0.0187303
0.0187304
0.018732
0.018731
0.018732
0.0187769
0.0187767
0.0187326
0.018731
0.0187323
0.0187304
0.0187314
0.0187296
0.018731
0.0187293
0.0187309
0.0187294
0.0187301
0.0187295
0.0187299
0.0187298
0.0187291
0.01873
0.018729
0.0187303
0.0187291
0.0187308
0.0187292
0.018731
0.0187299
0.0187315
0.0187311
0.0187319
0.0187322
0.0187325
0.0187761
0.018777
0.018732
0.0187311
0.018732
0.0187304
0.0187303
0.0187309
0.0187294
0.0187306
0.0187291
0.0187305
0.0187288
0.0187302
0.018729
0.0187299
0.0187293
0.0187302
0.0187293
0.0187305
0.0187296
0.0187312
0.0187296
0.0187311
0.0187297
0.0187315
0.0187306
0.0187321
0.0187309
0.0187328
0.0187765
0.0187771
0.0187317
0.018731
0.0187312
0.0187317
0.0187299
0.0187311
0.0187292
0.0187308
0.0187291
0.0187307
0.0187291
0.0187304
0.0187293
0.0187302
0.0187295
0.0187302
0.0187292
0.0187304
0.0187291
0.0187308
0.0187292
0.018731
0.0187299
0.0187316
0.0187312
0.0187321
0.0187322
0.0187325
0.0187762
0.0187764
0.0187326
0.0187327
0.0187314
0.0187321
0.01873
0.0187312
0.0187293
0.0187308
0.0187292
0.0187307
0.0187291
0.0187304
0.0187293
0.0187302
0.0187294
0.0187301
0.0187291
0.0187304
0.0187291
0.0187308
0.0187292
0.018731
0.0187299
0.0187315
0.0187311
0.0187321
0.0187323
0.0187325
0.0187762
0.018776
0.0187327
0.0187318
0.0187323
0.0187307
0.0187315
0.0187296
0.0187309
0.0187291
0.0187307
0.018729
0.0187304
0.0187291
0.0187301
0.0187294
0.0187302
0.0187295
0.0187303
0.0187301
0.0187298
0.0187305
0.0187298
0.0187312
0.0187297
0.0187314
0.0187305
0.0187323
0.0187307
0.0187322
0.0187769
0.0187759
0.0187322
0.0187327
0.0187314
0.0187322
0.01873
0.0187312
0.0187292
0.0187308
0.0187291
0.0187307
0.0187291
0.0187304
0.0187293
0.0187302
0.0187295
0.0187302
0.0187292
0.0187304
0.0187291
0.0187309
0.0187293
0.018731
0.01873
0.0187315
0.0187311
0.0187319
0.0187322
0.0187325
0.0187761
0.018777
0.0187319
0.0187316
0.0187311
0.0187311
0.0187301
0.0187312
0.0187293
0.0187308
0.0187293
0.0187308
0.018729
0.0187306
0.0187294
0.0187301
0.0187298
0.0187295
0.0187304
0.018729
0.0187307
0.0187291
0.0187308
0.0187292
0.018731
0.01873
0.0187313
0.0187314
0.0187315
0.0187316
0.0187769
0.018776
0.0187323
0.0187328
0.0187313
0.0187325
0.0187299
0.0187316
0.0187291
0.0187311
0.0187288
0.0187308
0.0187287
0.0187305
0.018729
0.0187303
0.0187292
0.0187299
0.0187287
0.0187301
0.0187287
0.0187305
0.0187287
0.0187306
0.0187291
0.018731
0.0187303
0.0187311
0.0187313
0.0187317
0.0187757
0.0289863
0.0295068
0.031221
0.0322547
0.0327792
0.0312171
0.0292512
0.0280156
0.0272432
0.0265019
0.0244193
0.0207525
0.0162698
0.0132198
0.0235346
0.0202698
0.0172833
0.0214918
0.0234543
0.0246464
0.0264079
0.0293889
0.0362866
0.0445228
0.052027
0.0539682
0.0521755
0.0476882
0.0416845
0.0371065
0.0343547
0.0324772
0.0308085
0.0293855
0.0279657
0.0270019
0.025627
0.0247346
0.0235022
0.0221931
0.0207596
0.0187126
0.0160558
0.0132321
0.0279946
0.0317688
0.0379095
0.0425358
0.0421773
0.0383121
0.0345451
0.0319812
0.0304287
0.0291989
0.028324
0.0275648
0.0269459
0.026491
0.0260237
0.025753
0.0253848
0.0252022
0.0249316
0.0247576
0.0245558
0.0243643
0.0242008
0.0239794
0.0238085
0.0235676
0.0233092
0.0229773
0.0225202
0.0221194
0.0263327
0.0259633
0.0254135
0.0249885
0.0246716
0.0244554
0.0242893
0.024171
0.0240661
0.0239964
0.0239219
0.0238827
0.0238255
0.0238051
0.0237591
0.0237488
0.0237155
0.0237104
0.023685
0.0236856
0.0236648
0.0236678
0.0236526
0.0236557
0.023644
0.0236458
0.0236339
0.0236335
0.0236189
0.0236556
0.0236696
0.0236214
0.0236247
0.023627
0.023629
0.0236305
0.0236319
0.0236329
0.0236334
0.0236335
0.0236334
0.0236334
0.023633
0.0236335
0.0236322
0.0236332
0.0236329
0.023633
0.023633
0.023633
0.0236329
0.0236328
0.0236325
0.0236329
0.0236316
0.0236304
0.0236289
0.0236253
0.0236221
0.0236627
0.0236619
0.023622
0.0236253
0.0236288
0.0236308
0.0236317
0.0236327
0.0236326
0.023633
0.0236331
0.0236334
0.0236328
0.0236333
0.0236332
0.0236328
0.0236328
0.0236328
0.023633
0.0236328
0.023633
0.0236328
0.0236327
0.0236326
0.0236327
0.0236321
0.0236308
0.0236288
0.0236254
0.0236226
0.0236615
0.0236627
0.023622
0.0236253
0.0236289
0.02363
0.0236315
0.0236328
0.0236325
0.0236327
0.0236327
0.0236328
0.0236327
0.0236327
0.0236328
0.0236326
0.0236329
0.0236328
0.0236331
0.0236332
0.0236338
0.0236336
0.0236333
0.023633
0.0236327
0.0236317
0.0236309
0.0236284
0.0236249
0.023622
0.0236616
0.0236627
0.0236222
0.0236245
0.0236287
0.0236308
0.0236319
0.0236324
0.0236326
0.0236326
0.0236329
0.023633
0.0236333
0.0236331
0.0236332
0.023633
0.0236332
0.023633
0.0236331
0.0236329
0.0236331
0.0236329
0.0236328
0.0236327
0.0236328
0.0236321
0.023631
0.0236292
0.0236255
0.0236226
0.0236616
0.0236621
0.0236227
0.0236254
0.0236293
0.0236308
0.023632
0.0236325
0.0236327
0.0236326
0.0236329
0.0236331
0.0236333
0.0236331
0.0236332
0.023633
0.0236331
0.023633
0.0236331
0.0236329
0.0236331
0.0236328
0.0236328
0.0236326
0.0236328
0.0236322
0.0236309
0.0236291
0.0236255
0.0236226
0.0236616
0.0236611
0.0236229
0.0236253
0.0236287