/*--------------------------------*- C++ -*----------------------------------*\
| =========                 |                                                 |
| \\      /  F ield         | OpenFOAM: The Open Source CFD Toolbox           |
|  \\    /   O peration     | Version:  2.1.1                                 |
|   \\  /    A nd           | Web:      www.OpenFOAM.org                      |
|    \\/     M anipulation  |                                                 |
\*---------------------------------------------------------------------------*/
FoamFile
{
    version     2.0;
    format      ascii;
    class       volScalarField;
    location    "0.001200000";
    object      H;
}
// * * * * * * * * * * * * * * * * * * * * * * * * * * * * * * * * * * * * * //

dimensions      [0 0 0 0 0 0 0];

internalField   nonuniform List<scalar> 
12384
(
1.47111e-06
1.02788e-06
3.32213e-07
2.48552e-08
1.94306e-09
2.53233e-10
1.92798e-11
9.85837e-13
4.40584e-14
8.54302e-16
1.22493e-17
1.53056e-19
1.46956e-21
1.28088e-23
4.28854e-23
3.28051e-21
1.57365e-19
1.52412e-18
3.31736e-18
2.65712e-18
1.02307e-18
1.54627e-19
2.70603e-21
1.12301e-23
1.17999e-26
1.2321e-29
1.14825e-32
1.14599e-35
1.04299e-38
9.57019e-42
8.03086e-45
6.60986e-48
5.13956e-51
3.97466e-54
3.03414e-57
2.31807e-60
1.76769e-63
1.34942e-66
1.01944e-69
7.67061e-73
5.67428e-76
4.16111e-79
3.00432e-82
2.13826e-85
2.54414e-97
1.02064e-98
1.96944e-101
2.79453e-104
3.38228e-107
3.93516e-110
5.14648e-113
9.57284e-116
2.5104e-118
7.88389e-121
2.42476e-123
7.45033e-126
2.12472e-128
5.96375e-131
1.59475e-133
4.34898e-136
1.20824e-138
3.57975e-141
1.11726e-143
3.60002e-146
1.16967e-148
3.76986e-151
1.20224e-153
3.7633e-156
1.16854e-158
3.56227e-161
1.08881e-163
3.38029e-166
1.01072e-168
2.96054e-173
3.10961e-184
1.71192e-186
1.93147e-190
3.02551e-194
1.56861e-197
3.4563e-200
8.13301e-203
1.82869e-205
3.94571e-208
8.32478e-211
1.69615e-213
3.42522e-216
6.88991e-219
1.37776e-221
2.69108e-224
5.03897e-227
8.99845e-230
1.53578e-232
2.52875e-235
4.03646e-238
6.32479e-241
9.55028e-244
1.45667e-246
2.23903e-249
3.41327e-252
5.15897e-255
8.00392e-258
1.32855e-260
2.41947e-263
1.66996e-266
1.91878e-286
2.47779e-284
1.30402e-286
3.40958e-289
6.45659e-292
9.84428e-295
1.27567e-297
1.43926e-300
1.45355e-303
1.34398e-306
1.173e-309
1.0342e-312
9.41851e-316
7.67487e-319
5.78057e-322
0
0
0
0
0
0
0
0
0
0
0
0
0
0
0
0
0
0
0
0
0
0
0
0
0
0
0
0
0
0
0
0
0
0
0
0
0
0
0
0
0
0
0
0
0
0
0
0
0
0
0
0
0
0
0
0
0
0
0
0
0
0
0
0
0
0
0
0
0
0
0
0
0
0
0
0
0
0
0
0
0
0
0
0
0
0
0
0
0
0
0
0
0
0
0
0
0
0
0
0
0
0
0
0
0
0
0
0
0
0
0
0
0
0
0
0
0
0
0
0
0
0
0
0
0
0
0
0
0
0
0
0
0
0
0
0
0
0
0
0
0
0
0
0
0
0
0
0
0
0
0
0
0
0
0
0
0
0
0
0
0
0
0
0
0
0
0
0
0
0
0
0
0
0
0
0
0
0
0
0
0
0
0
0
0
0
0
0
0
0
0
0
0
0
0
0
0
0
0
0
0
0
0
0
0
0
0
0
0
0
0
0
0
0
0
0
0
0
0
0
0
0
0
0
0
0
0
0
0
0
0
0
0
0
0
0
0
0
0
0
0
0
0
0
0
0
0
0
0
0
0
0
0
0
0
1.67888e-09
1.3016e-08
1.1107e-08
1.59814e-09
2.69226e-10
2.11814e-11
1.1605e-12
1.49358e-13
1.54715e-14
2.32071e-15
1.45815e-16
4.61371e-18
4.65406e-20
3.62597e-22
9.04487e-25
1.86726e-23
3.61154e-21
1.05429e-19
4.30303e-19
3.5205e-19
9.48448e-20
1.03566e-20
1.52005e-22
4.26152e-25
1.04879e-28
6.23671e-32
1.00681e-34
1.56704e-37
3.16889e-40
6.22141e-43
6.89766e-46
8.98736e-49
1.04948e-51
1.19402e-54
1.32256e-57
1.36309e-60
1.40325e-63
1.53707e-66
1.98187e-69
5.37471e-72
5.95738e-75
5.55388e-78
4.86231e-81
4.26063e-84
1.18419e-96
3.32215e-98
7.37248e-101
1.3426e-103
2.11646e-106
3.11374e-109
5.77654e-112
1.15343e-114
3.86284e-117
1.27018e-119
6.21468e-122
2.28334e-124
9.10528e-127
2.93993e-129
9.35876e-132
2.8291e-134
9.02386e-137
3.13387e-139
1.16139e-141
4.13227e-144
1.52103e-146
5.07558e-149
1.77181e-151
5.65871e-154
1.76737e-156
5.44913e-159
1.59957e-161
4.90419e-164
1.42773e-166
4.79131e-169
7.23973e-180
4.34374e-182
6.59962e-186
9.76748e-190
1.02838e-193
2.80718e-197
5.65155e-200
1.35136e-202
3.08973e-205
6.7953e-208
1.43292e-210
2.95489e-213
5.8988e-216
1.15404e-218
2.13228e-221
3.84995e-224
6.52562e-227
1.0874e-229
1.73118e-232
2.72365e-235
4.23646e-238
6.596e-241
1.01528e-243
1.586e-246
2.4498e-249
3.79175e-252
5.96675e-255
9.96868e-258
1.83727e-260
1.94286e-263
1.39525e-282
5.2487e-281
3.06082e-283
8.64057e-286
1.73011e-288
2.71238e-291
3.51974e-294
3.97241e-297
4.03228e-300
3.70391e-303
3.17143e-306
2.66493e-309
2.24388e-312
1.81177e-315
1.35952e-318
9.58487e-322
0
0
0
0
0
0
0
0
0
0
0
0
0
0
0
0
0
0
0
0
0
0
0
0
0
0
0
0
0
0
0
0
0
0
0
0
0
0
0
0
0
0
0
0
0
0
0
0
0
0
0
0
0
0
0
0
0
0
0
0
0
0
0
0
0
0
0
0
0
0
0
0
0
0
0
0
0
0
0
0
0
0
0
0
0
0
0
0
0
0
0
0
0
0
0
0
0
0
0
0
0
0
0
0
0
0
0
0
0
0
0
0
0
0
0
0
0
0
0
0
0
0
0
0
0
0
0
0
0
0
0
0
0
0
0
0
0
0
0
0
0
0
0
0
0
0
0
0
0
0
0
0
0
0
0
0
0
0
0
0
0
0
0
0
0
0
0
0
0
0
0
0
0
0
0
0
0
0
0
0
0
0
0
0
0
0
0
0
0
0
0
0
0
0
0
0
0
0
0
0
0
0
0
0
0
0
0
0
0
0
0
0
0
0
0
0
0
0
0
0
0
0
0
0
0
0
0
0
0
0
0
0
0
0
0
0
0
0
0
0
0
0
0
0
0
0
0
0
0
0
0
0
0
0
3.00252e-12
3.29641e-11
2.76457e-12
1.80764e-13
9.36399e-14
5.16396e-14
5.02385e-14
1.40521e-15
7.28856e-17
1.36869e-18
4.76954e-20
3.89828e-20
3.65314e-21
5.867e-23
2.02883e-25
1.43937e-20
1.29787e-16
4.26479e-14
3.58509e-13
5.03907e-13
2.51343e-13
1.02308e-14
2.23651e-17
3.46476e-21
6.47514e-27
5.38962e-31
9.71182e-35
8.62906e-39
2.97604e-42
6.7632e-46
1.98277e-50
3.94385e-54
2.75629e-57
1.45037e-60
1.02873e-63
1.35924e-66
1.9095e-69
8.5255e-71
3.38723e-73
2.34328e-74
1.89079e-76
4.09268e-79
6.57546e-82
4.46904e-85
7.23455e-100
4.2061e-101
7.99242e-104
9.66246e-107
8.31584e-110
8.05438e-113
6.20984e-116
6.66801e-119
6.74881e-122
1.14074e-124
2.37458e-127
6.12499e-130
1.56952e-132
4.06787e-135
9.25503e-138
2.43193e-140
5.92661e-143
2.06763e-145
6.11213e-148
2.2899e-150
7.28663e-153
2.52453e-155
8.61222e-158
2.61718e-160
9.30277e-163
3.92577e-165
2.05507e-167
9.0169e-170
2.93085e-172
2.73862e-175
2.85101e-184
9.83865e-186
1.57548e-189
2.07654e-193
1.83644e-197
1.16993e-201
1.51848e-205
2.54818e-208
5.50351e-211
1.27729e-213
2.56894e-216
5.45788e-219
1.06852e-221
2.13037e-224
3.88532e-227
6.59642e-230
1.00687e-232
1.49647e-235
2.16632e-238
3.2278e-241
4.81882e-244
7.28158e-247
1.11045e-249
1.66059e-252
2.50636e-255
3.7584e-258
5.92775e-261
9.67638e-264
1.71314e-266
3.38334e-270
4.43913e-288
2.00109e-286
1.22565e-288
3.74566e-291
7.74758e-294
1.22558e-296
1.61419e-299
1.80975e-302
1.80091e-305
1.73921e-308
1.62331e-311
1.45522e-314
1.40172e-317
1.29643e-320
9.88131e-324
0
0
0
0
0
0
0
0
0
0
0
0
0
0
0
0
0
0
0
0
0
0
0
0
0
0
0
0
0
0
0
0
0
0
0
0
0
0
0
0
0
0
0
0
0
0
0
0
0
0
0
0
0
0
0
0
0
0
0
0
0
0
0
0
0
0
0
0
0
0
0
0
0
0
0
0
0
0
0
0
0
0
0
0
0
0
0
0
0
0
0
0
0
0
0
0
0
0
0
0
0
0
0
0
0
0
0
0
0
0
0
0
0
0
0
0
0
0
0
0
0
0
0
0
0
0
0
0
0
0
0
0
0
0
0
0
0
0
0
0
0
0
0
0
0
0
0
0
0
0
0
0
0
0
0
0
0
0
0
0
0
0
0
0
0
0
0
0
0
0
0
0
0
0
0
0
0
0
0
0
0
0
0
0
0
0
0
0
0
0
0
0
0
0
0
0
0
0
0
0
0
0
0
0
0
0
0
0
0
0
0
0
0
0
0
0
0
0
0
0
0
0
0
0
0
0
0
0
0
0
0
0
0
0
0
0
0
0
0
0
0
0
0
0
0
0
0
0
0
0
0
0
0
0
0
3.33739e-08
2.30241e-07
3.80221e-08
6.6393e-10
9.51105e-12
7.06725e-12
1.70875e-11
1.29042e-11
4.87417e-13
5.79249e-16
1.37617e-18
2.61161e-21
1.30219e-22
3.08096e-24
1.90715e-19
2.38715e-13
3.48499e-10
1.20191e-08
3.75003e-08
4.30534e-08
2.72358e-08
9.63802e-09
6.43144e-10
1.06492e-12
1.00091e-16
3.05114e-21
1.357e-25
8.91951e-30
6.62169e-34
9.14586e-38
4.18874e-43
9.13612e-47
1.30657e-50
5.5216e-54
2.15075e-57
7.91705e-61
3.019e-64
1.02355e-67
3.97044e-71
1.70549e-73
6.15033e-77
5.03509e-80
2.73082e-83
5.54496e-87
4.65812e-93
5.57159e-94
6.41778e-97
5.2534e-100
3.19323e-103
1.28629e-106
8.74262e-110
5.22882e-113
2.88566e-116
1.58055e-119
2.1476e-122
3.09759e-125
7.9923e-128
1.26975e-130
3.62124e-133
5.23273e-136
1.69584e-138
3.14316e-141
1.25859e-143
2.9207e-146
1.10651e-148
2.88875e-151
9.09504e-154
2.40521e-156
6.58584e-159
1.47949e-161
3.43941e-164
1.05652e-166
2.78652e-169
6.5307e-172
2.72535e-178
4.47927e-180
5.59883e-184
5.66218e-188
4.32103e-192
2.20891e-196
9.19699e-201
5.57638e-205
4.87434e-208
8.60189e-211
1.74026e-213
2.95979e-216
5.71983e-219
9.53144e-222
1.73584e-224
2.85557e-227
4.88143e-230
7.88942e-233
1.31105e-235
2.04095e-238
3.37178e-241
5.09922e-244
8.34113e-247
1.24159e-249
1.98775e-252
3.00766e-255
4.89582e-258
7.91351e-261
1.34528e-263
9.33159e-267
1.26498e-283
3.31306e-283
2.07192e-285
6.52082e-288
1.41023e-290
2.23803e-293
2.83642e-296
3.11659e-299
2.95672e-302
2.60139e-305
2.05764e-308
1.55778e-311
1.08699e-314
7.39063e-318
4.71833e-321
4.94066e-324
0
0
0
0
0
0
0
0
0
0
0
0
0
0
0
0
0
0
0
0
0
0
0
0
0
0
0
0
0
0
0
0
0
0
0
0
0
0
0
0
0
0
0
0
0
0
0
0
0
0
0
0
0
0
0
0
0
0
0
0
0
0
0
0
0
0
0
0
0
0
0
0
0
0
0
0
0
0
0
0
0
0
0
0
0
0
0
0
0
0
0
0
0
0
0
0
0
0
0
0
0
0
0
0
0
0
0
0
0
0
0
0
0
0
0
0
0
0
0
0
0
0
0
0
0
0
0
0
0
0
0
0
0
0
0
0
0
0
0
0
0
0
0
0
0
0
0
0
0
0
0
0
0
0
0
0
0
0
0
0
0
0
0
0
0
0
0
0
0
0
0
0
0
0
0
0
0
0
0
0
0
0
0
0
0
0
0
0
0
0
0
0
0
0
0
0
0
0
0
0
0
0
0
0
0
0
0
0
0
0
0
0
0
0
0
0
0
0
0
0
0
0
0
0
0
0
0
0
0
0
0
0
0
0
0
0
0
0
0
0
0
0
0
0
0
0
0
0
0
0
0
0
0
0
9.65928e-05
0.000125574
8.76929e-05
7.52657e-06
2.43033e-07
7.25133e-08
3.52494e-08
4.69294e-09
2.12288e-09
1.09503e-10
1.93056e-13
7.40888e-16
7.17118e-20
1.90024e-23
1.57435e-14
1.21064e-09
1.10075e-07
2.46665e-06
4.94846e-06
5.63085e-06
4.14312e-06
1.90334e-06
2.81669e-07
3.89932e-09
1.41051e-11
6.57811e-15
4.06984e-19
2.65779e-23
2.12732e-27
2.69479e-31
4.32253e-35
7.06468e-39
1.9183e-42
3.76292e-46
1.56771e-49
4.343e-53
1.13867e-56
3.81837e-60
8.64533e-64
1.39786e-67
2.05674e-71
2.35554e-75
4.23297e-79
5.4448e-83
1.74185e-86
5.25706e-87
8.20005e-90
4.55289e-93
1.82358e-96
8.97108e-100
3.89302e-103
1.65878e-106
1.02578e-109
6.90696e-113
4.13189e-116
4.95675e-119
8.14035e-122
1.47968e-124
3.16736e-127
5.56222e-130
1.26029e-132
2.37797e-135
7.4373e-138
2.30198e-140
7.41823e-143
2.40476e-145
7.43999e-148
2.32994e-150
6.48286e-153
1.91088e-155
4.07321e-158
1.13424e-160
2.59464e-163
6.28138e-166
2.3311e-172
4.08414e-174
8.01236e-177
7.83973e-181
5.791e-185
3.04584e-189
1.23414e-193
5.62769e-198
1.91355e-202
6.06495e-206
1.04192e-208
1.92679e-211
3.36869e-214
6.00288e-217
1.00559e-219
1.71754e-222
2.76221e-225
4.57366e-228
7.16737e-231
1.15512e-233
1.77556e-236
2.77739e-239
4.21856e-242
6.50514e-245
9.88029e-248
1.51552e-250
2.34043e-253
3.71699e-256
6.06876e-259
5.74343e-262
2.23313e-277
6.11342e-278
3.27853e-280
1.027e-282
2.30974e-285
3.8945e-288
5.08697e-291
5.45065e-294
5.13652e-297
4.31066e-300
3.3597e-303
2.41551e-306
1.65539e-309
1.06893e-312
6.64069e-316
3.97535e-319
2.2727e-322
0
0
0
0
0
0
0
0
0
0
0
0
0
0
0
0
0
0
0
0
0
0
0
0
0
0
0
0
0
0
0
0
0
0
0
0
0
0
0
0
0
0
0
0
0
0
0
0
0
0
0
0
0
0
0
0
0
0
0
0
0
0
0
0
0
0
0
0
0
0
0
0
0
0
0
0
0
0
0
0
0
0
0
0
0
0
0
0
0
0
0
0
0
0
0
0
0
0
0
0
0
0
0
0
0
0
0
0
0
0
0
0
0
0
0
0
0
0
0
0
0
0
0
0
0
0
0
0
0
0
0
0
0
0
0
0
0
0
0
0
0
0
0
0
0
0
0
0
0
0
0
0
0
0
0
0
0
0
0
0
0
0
0
0
0
0
0
0
0
0
0
0
0
0
0
0
0
0
0
0
0
0
0
0
0
0
0
0
0
0
0
0
0
0
0
0
0
0
0
0
0
0
0
0
0
0
0
0
0
0
0
0
0
0
0
0
0
0
0
0
0
0
0
0
0
0
0
0
0
0
0
0
0
0
0
0
0
0
0
0
0
0
0
0
0
0
0
0
0
0
0
0
0
0.000177764
0.000180196
0.000179236
0.000139026
6.06239e-05
1.33298e-05
3.46546e-06
1.8029e-06
1.86456e-07
2.87766e-08
2.86089e-09
4.78647e-11
5.5766e-15
7.67254e-20
4.14071e-11
1.41476e-07
2.13249e-06
3.12603e-06
3.2813e-06
5.90996e-06
1.53327e-05
2.53437e-05
7.87803e-06
1.03526e-06
4.69111e-09
1.45531e-11
2.30169e-14
5.79945e-18
8.06664e-22
1.46574e-25
2.82942e-29
6.53815e-33
1.40694e-36
4.37209e-40
1.37683e-43
3.40413e-47
1.31215e-50
3.06549e-54
7.08003e-58
1.35284e-61
1.57024e-65
1.30703e-69
1.10894e-73
4.70126e-78
1.17563e-80
2.72631e-81
6.35805e-84
5.1737e-87
2.28213e-90
8.23393e-94
3.69353e-97
1.68335e-100
8.97061e-104
5.3814e-107
3.56028e-110
2.83309e-113
3.1244e-116
3.70935e-119
7.57331e-122
1.39666e-124
3.44368e-127
6.4849e-130
2.16254e-132
4.37131e-135
1.52425e-137
4.25724e-140
1.42356e-142
3.88538e-145
1.19826e-147
2.89992e-150
7.69112e-153
1.79921e-155
4.00666e-158
7.31451e-161
7.96364e-167
1.20201e-168
2.44833e-171
5.84871e-174
3.64836e-178
1.7627e-182
6.91536e-187
4.16526e-191
1.19844e-195
2.31015e-200
2.44395e-204
3.50698e-207
6.09074e-210
9.83853e-213
1.66178e-215
2.59645e-218
4.24472e-221
6.4767e-224
1.02347e-226
1.53129e-229
2.35084e-232
3.45796e-235
5.20734e-238
7.60767e-241
1.13004e-243
1.6473e-246
2.45983e-249
3.71431e-252
5.90047e-255
4.90311e-258
6.24586e-272
3.13754e-273
1.4215e-275
4.04516e-278
8.90755e-281
1.57765e-283
2.2198e-286
2.48304e-289
2.3246e-292
1.92369e-295
1.45275e-298
1.01894e-301
6.73516e-305
4.23075e-308
2.53832e-311
1.47132e-314
8.22784e-318
4.47129e-321
0
0
0
0
0
0
0
0
0
0
0
0
0
0
0
0
0
0
0
0
0
0
0
0
0
0
0
0
0
0
0
0
0
0
0
0
0
0
0
0
0
0
0
0
0
0
0
0
0
0
0
0
0
0
0
0
0
0
0
0
0
0
0
0
0
0
0
0
0
0
0
0
0
0
0
0
0
0
0
0
0
0
0
0
0
0
0
0
0
0
0
0
0
0
0
0
0
0
0
0
0
0
0
0
0
0
0
0
0
0
0
0
0
0
0
0
0
0
0
0
0
0
0
0
0
0
0
0
0
0
0
0
0
0
0
0
0
0
0
0
0
0
0
0
0
0
0
0
0
0
0
0
0
0
0
0
0
0
0
0
0
0
0
0
0
0
0
0
0
0
0
0
0
0
0
0
0
0
0
0
0
0
0
0
0
0
0
0
0
0
0
0
0
0
0
0
0
0
0
0
0
0
0
0
0
0
0
0
0
0
0
0
0
0
0
0
0
0
0
0
0
0
0
0
0
0
0
0
0
0
0
0
0
0
0
0
0
0
0
0
0
0
0
0
0
0
0
0
0
0
0
0
0.000173135
0.000171767
0.00017723
0.00017592
0.000140941
8.33835e-05
2.74546e-05
1.32159e-05
1.21789e-05
3.68512e-06
1.01514e-06
8.12842e-08
1.77321e-10
2.03751e-15
2.26056e-08
6.12508e-07
9.43146e-07
9.50628e-07
2.28612e-06
4.78263e-06
1.53464e-05
6.08097e-05
6.55089e-05
9.54404e-06
8.78677e-07
2.88272e-09
7.15208e-12
1.35637e-14
1.26814e-17
5.48831e-21
2.03994e-24
7.21918e-28
2.4781e-31
9.13478e-35
3.51846e-38
1.43891e-41
5.744e-45
2.02749e-48
5.78339e-52
1.15305e-55
1.6994e-59
1.7314e-63
7.77427e-68
1.15939e-72
4.72004e-76
1.78738e-77
3.67941e-80
6.12279e-83
8.89472e-86
7.82464e-89
4.39851e-92
2.67419e-95
1.74796e-98
1.24592e-101
9.26226e-105
7.84257e-108
6.89781e-111
8.12042e-114
1.12797e-116
2.38599e-119
4.87846e-122
1.27419e-124
3.34084e-127
1.01999e-129
3.00475e-132
9.59786e-135
3.02864e-137
9.15758e-140
2.73655e-142
7.35298e-145
1.95365e-147
4.2441e-150
9.48642e-153
2.06131e-155
1.68311e-161
1.98945e-163
4.42355e-166
1.20863e-168
3.69662e-171
1.67562e-175
6.46724e-180
6.47444e-184
1.88842e-188
3.2947e-193
4.3107e-198
1.76871e-202
1.99357e-205
3.2752e-208
4.97421e-211
8.05218e-214
1.20109e-216
1.90032e-219
2.76248e-222
4.22591e-225
6.04798e-228
9.02288e-231
1.2787e-233
1.86597e-236
2.65405e-239
3.868e-242
5.6119e-245
8.32556e-248
1.30272e-250
1.34198e-253
4.81825e-266
4.1013e-268
1.34784e-270
3.26291e-273
6.52279e-276
1.12454e-278
1.67727e-281
2.06642e-284
2.03818e-287
1.68725e-290
1.25334e-293
8.5636e-297
5.50023e-300
3.34772e-303
1.95008e-306
1.09502e-309
5.94015e-313
3.13492e-316
1.60873e-319
7.90505e-323
0
0
0
0
0
0
0
0
0
0
0
0
0
0
0
0
0
0
0
0
0
0
0
0
0
0
0
0
0
0
0
0
0
0
0
0
0
0
0
0
0
0
0
0
0
0
0
0
0
0
0
0
0
0
0
0
0
0
0
0
0
0
0
0
0
0
0
0
0
0
0
0
0
0
0
0
0
0
0
0
0
0
0
0
0
0
0
0
0
0
0
0
0
0
0
0
0
0
0
0
0
0
0
0
0
0
0
0
0
0
0
0
0
0
0
0
0
0
0
0
0
0
0
0
0
0
0
0
0
0
0
0
0
0
0
0
0
0
0
0
0
0
0
0
0
0
0
0
0
0
0
0
0
0
0
0
0
0
0
0
0
0
0
0
0
0
0
0
0
0
0
0
0
0
0
0
0
0
0
0
0
0
0
0
0
0
0
0
0
0
0
0
0
0
0
0
0
0
0
0
0
0
0
0
0
0
0
0
0
0
0
0
0
0
0
0
0
0
0
0
0
0
0
0
0
0
0
0
0
0
0
0
0
0
0
0
0
0
0
0
0
0
0
0
0
0
0
0
0
0
0.00017183
0.000184387
0.000217358
0.000212938
0.000188111
0.000158795
0.000104553
5.17777e-05
4.00369e-05
2.94003e-05
1.19822e-05
3.76974e-07
1.42276e-09
1.59581e-12
2.43081e-07
3.43278e-07
1.02089e-07
2.31022e-06
7.32307e-06
1.3258e-05
2.81453e-05
7.75499e-05
0.000118669
4.43385e-05
4.16479e-06
1.70401e-07
2.73641e-10
4.53248e-13
8.34358e-16
1.30211e-18
1.69998e-21
1.85216e-24
1.68164e-27
1.25436e-30
7.58043e-34
4.5646e-37
1.95243e-40
9.21203e-44
3.14936e-47
8.84982e-51
1.91371e-54
2.04599e-58
6.43467e-63
5.74259e-68
6.48745e-73
1.69444e-74
2.2679e-77
2.84844e-80
5.30906e-83
1.224e-85
2.12551e-88
2.8224e-91
3.02872e-94
3.01133e-97
2.83995e-100
2.53166e-103
2.34814e-106
2.28474e-109
2.49622e-112
3.7424e-115
6.81585e-118
1.66588e-120
4.48927e-123
1.40449e-125
4.37653e-128
1.37497e-130
4.24027e-133
1.23978e-135
3.60752e-138
1.0256e-140
2.82816e-143
6.77208e-146
1.48137e-148
3.22756e-151
2.98666e-157
2.96259e-159
6.38803e-162
1.84516e-164
5.71978e-167
1.84284e-169
6.65641e-174
1.14755e-177
3.31815e-182
5.2697e-187
6.35879e-192
6.293e-197
1.34552e-201
1.16348e-204
1.69217e-207
2.48455e-210
3.59052e-213
5.19465e-216
7.41369e-219
1.06704e-221
1.51858e-224
2.16807e-227
3.02664e-230
4.19803e-233
5.75841e-236
8.02195e-239
1.13538e-241
1.67295e-244
2.5998e-247
2.86266e-250
2.85578e-261
7.55011e-264
1.438e-266
2.78016e-269
4.88309e-272
7.82796e-275
1.14555e-277
1.47915e-280
1.57545e-283
1.36231e-286
1.01231e-289
6.81417e-293
4.26664e-296
2.52693e-299
1.42879e-302
7.7841e-306
4.10131e-309
2.1e-312
1.04815e-315
5.11318e-319
2.42092e-322
0
0
0
0
0
0
0
0
0
0
0
0
0
0
0
0
0
0
0
0
0
0
0
0
0
0
0
0
0
0
0
0
0
0
0
0
0
0
0
0
0
0
0
0
0
0
0
0
0
0
0
0
0
0
0
0
0
0
0
0
0
0
0
0
0
0
0
0
0
0
0
0
0
0
0
0
0
0
0
0
0
0
0
0
0
0
0
0
0
0
0
0
0
0
0
0
0
0
0
0
0
0
0
0
0
0
0
0
0
0
0
0
0
0
0
0
0
0
0
0
0
0
0
0
0
0
0
0
0
0
0
0
0
0
0
0
0
0
0
0
0
0
0
0
0
0
0
0
0
0
0
0
0
0
0
0
0
0
0
0
0
0
0
0
0
0
0
0
0
0
0
0
0
0
0
0
0
0
0
0
0
0
0
0
0
0
0
0
0
0
0
0
0
0
0
0
0
0
0
0
0
0
0
0
0
0
0
0
0
0
0
0
0
0
0
0
0
0
0
0
0
0
0
0
0
0
0
0
0
0
0
0
0
0
0
0
0
0
0
0
0
0
0
0
0
0
0
0
0
0.000240453
0.000249552
0.000219951
0.000188683
0.000184095
0.000192424
0.00014917
9.34752e-05
7.32667e-05
3.67778e-05
1.91881e-05
1.31739e-05
1.66829e-06
4.16239e-10
6.73173e-10
4.04674e-09
1.17531e-08
7.77358e-09
2.44638e-06
2.4563e-05
4.74249e-05
6.44544e-05
9.23592e-05
0.0001199
0.000121928
8.17665e-05
1.10973e-05
9.65674e-07
2.68807e-09
5.22913e-12
1.07626e-14
1.96207e-17
3.15073e-20
4.83188e-23
7.0978e-26
9.92067e-29
1.26363e-31
1.48777e-34
1.57283e-37
1.52173e-40
1.30744e-43
8.69884e-47
4.10484e-50
1.01037e-53
1.14588e-57
1.46186e-62
7.21324e-66
1.5611e-68
1.09796e-70
1.39367e-72
3.57813e-75
4.67236e-78
1.48509e-80
4.91498e-83
1.11388e-85
1.98736e-88
2.98048e-91
4.0534e-94
5.14853e-97
6.24146e-100
7.39508e-103
8.4931e-106
9.61341e-109
1.15019e-111
1.70283e-114
3.60973e-117
1.07427e-119
3.57536e-122
1.25801e-124
4.2984e-127
1.47275e-129
4.82938e-132
1.55954e-134
4.93687e-137
1.49443e-139
4.23872e-142
1.11709e-144
2.72034e-147
1.21704e-149
5.40975e-152
5.15962e-154
2.97443e-156
1.2197e-158
4.69745e-161
1.70008e-163
6.09389e-166
2.17837e-168
7.66992e-172
2.1718e-176
3.1974e-181
3.72439e-186
3.25313e-191
2.68759e-196
6.68521e-201
5.4958e-204
6.95207e-207
8.25535e-210
1.07465e-212
1.29477e-215
1.72816e-218
2.13416e-221
2.89077e-224
3.65229e-227
4.99941e-230
6.53325e-233
9.17894e-236
1.24873e-238
1.78918e-241
2.50713e-244
3.62309e-247
3.3731e-250
1.76958e-253
1.0004e-256
8.03013e-260
8.85864e-263
1.19457e-265
1.62589e-268
2.23848e-271
3.0014e-274
3.8327e-277
4.38286e-280
4.21317e-283
3.30664e-286
2.22942e-289
1.37221e-292
7.92668e-296
4.36224e-299
2.30857e-302
1.18212e-305
5.88333e-309
2.8556e-312
1.35536e-315
6.30433e-319
2.86558e-322
0
0
0
0
0
0
0
0
0
0
0
0
0
0
0
0
0
0
0
0
0
0
0
0
0
0
0
0
0
0
0
0
0
0
0
0
0
0
0
0
0
0
0
0
0
0
0
0
0
0
0
0
0
0
0
0
0
0
0
0
0
0
0
0
0
0
0
0
0
0
0
0
0
0
0
0
0
0
0
0
0
0
0
0
0
0
0
0
0
0
0
0
0
0
0
0
0
0
0
0
0
0
0
0
0
0
0
0
0
0
0
0
0
0
0
0
0
0
0
0
0
0
0
0
0
0
0
0
0
0
0
0
0
0
0
0
0
0
0
0
0
0
0
0
0
0
0
0
0
0
0
0
0
0
0
0
0
0
0
0
0
0
0
0
0
0
0
0
0
0
0
0
0
0
0
0
0
0
0
0
0
0
0
0
0
0
0
0
0
0
0
0
0
0
0
0
0
0
0
0
0
0
0
0
0
0
0
0
0
0
0
0
0
0
0
0
0
0
0
0
0
0
0
0
0
0
0
0
0
0
0
0
0
0
0
0
0
0
0
0
0
0
0
0
0
0
0
0
0
0
0
0
0
0
0
0
0
0
0
0
0
0
0
0
0
0
0.0001525
0.000145142
0.000110879
0.000104762
0.000115648
0.000165493
0.00019416
0.00017526
0.000117293
0.000111262
9.48347e-05
0.000111871
0.00010532
3.93696e-07
1.20152e-06
1.00588e-06
3.40035e-06
4.63076e-06
6.65964e-05
0.000118359
0.000125747
0.000126482
0.000124362
0.000118077
9.52867e-05
7.13279e-05
1.76012e-05
2.14034e-06
5.36378e-08
6.08546e-11
6.71318e-14
1.04882e-16
1.74034e-19
2.78921e-22
4.26113e-25
6.21528e-28
8.65063e-31
1.1718e-33
1.45953e-36
1.76719e-39
1.95589e-42
2.08632e-45
2.08054e-48
1.90403e-51
1.48301e-54
3.86629e-58
1.31104e-61
1.54469e-64
4.8558e-67
1.22045e-69
1.48975e-72
1.46595e-75
1.62764e-78
2.28062e-81
3.39412e-84
4.88277e-87
6.62196e-90
8.74122e-93
1.13415e-95
1.44129e-98
1.80785e-101
2.21458e-104
2.68475e-107
3.21304e-110
3.89971e-113
5.25684e-116
9.38247e-119
2.528e-121
9.18705e-124
3.66518e-126
1.51146e-128
6.15267e-131
2.50044e-133
9.95818e-136
3.93955e-138
1.53246e-140
5.90196e-143
2.24305e-145
8.37121e-148
3.1687e-150
1.14321e-152
4.29295e-155
1.62585e-157
6.12022e-160
2.30585e-162
8.73283e-165
3.3619e-167
1.21519e-169
2.08233e-174
2.7298e-179
2.86962e-184
2.52584e-189
1.96055e-194
2.67493e-199
1.6632e-202
2.20592e-205
2.87538e-208
3.7695e-211
4.77907e-214
6.06975e-217
7.53557e-220
9.41788e-223
1.17254e-225
1.49407e-228
1.91684e-231
2.49914e-234
3.28196e-237
4.38744e-240
5.97437e-243
8.22463e-246
1.06831e-248
1.28036e-251
1.46922e-254
1.75717e-257
2.21916e-260
2.82436e-263
3.55584e-266
4.36807e-269
5.17279e-272
5.87061e-275
6.27091e-278
5.96936e-281
4.72724e-284
3.1429e-287
1.888e-290
1.06086e-293
5.67478e-297
2.91925e-300
1.45376e-303
7.04054e-307
3.32718e-310
1.53838e-313
6.97416e-317
3.1057e-320
1.4822e-323
0
0
0
0
0
0
0
0
0
0
0
0
0
0
0
0
0
0
0
0
0
0
0
0
0
0
0
0
0
0
0
0
0
0
0
0
0
0
0
0
0
0
0
0
0
0
0
0
0
0
0
0
0
0
0
0
0
0
0
0
0
0
0
0
0
0
0
0
0
0
0
0
0
0
0
0
0
0
0
0
0
0
0
0
0
0
0
0
0
0
0
0
0
0
0
0
0
0
0
0
0
0
0
0
0
0
0
0
0
0
0
0
0
0
0
0
0
0
0
0
0
0
0
0
0
0
0
0
0
0
0
0
0
0
0
0
0
0
0
0
0
0
0
0
0
0
0
0
0
0
0
0
0
0
0
0
0
0
0
0
0
0
0
0
0
0
0
0
0
0
0
0
0
0
0
0
0
0
0
0
0
0
0
0
0
0
0
0
0
0
0
0
0
0
0
0
0
0
0
0
0
0
0
0
0
0
0
0
0
0
0
0
0
0
0
0
0
0
0
0
0
0
0
0
0
0
0
0
0
0
0
0
0
0
0
0
0
0
0
0
0
0
0
0
0
0
0
0
0
0
0
0
0
0
0
0
0
0
0
0
0
0
0
0
0
4.13474e-05
4.74978e-05
4.70765e-05
5.05121e-05
5.87407e-05
6.842e-05
0.000100392
0.0001333
0.000166505
0.000141278
0.000122531
0.000122299
0.00011379
0.00011746
0.000115379
0.000112642
0.000102455
0.000114238
0.000101221
0.000101748
0.000107282
0.000107496
0.000101725
8.62873e-05
7.21014e-05
5.17684e-05
2.64067e-05
3.26638e-06
2.52487e-07
3.88679e-10
4.30407e-13
4.69809e-16
5.4032e-19
6.54657e-22
8.48248e-25
1.12202e-27
1.41607e-30
1.86957e-33
2.24981e-36
2.72119e-39
3.21741e-42
3.69254e-45
4.26184e-48
4.85707e-51
5.39401e-54
6.33342e-57
6.97973e-60
7.52803e-63
7.83667e-66
7.25563e-69
5.9885e-72
4.81762e-75
4.42964e-78
4.8538e-81
6.1599e-84
7.65392e-87
9.63823e-90
1.19598e-92
1.50893e-95
1.86428e-98
2.31718e-101
2.83174e-104
3.44136e-107
4.14553e-110
4.91584e-113
5.92569e-116
7.2434e-119
1.00728e-121
1.95295e-124
5.65963e-127
2.14584e-129
8.77434e-132
3.70926e-134
1.56486e-136
6.70683e-139
2.82959e-141
1.20022e-143
5.14941e-146
1.91514e-148
7.12342e-151
2.4723e-153
8.85905e-156
3.24961e-158
1.19281e-160
4.3898e-163
1.63221e-165
6.15578e-168
1.8569e-170
2.3531e-175
2.10557e-180
1.45365e-185
8.53582e-191
4.94581e-196
7.64579e-201
5.57051e-204
7.44471e-207
9.85368e-210
1.32139e-212
1.73906e-215
2.31186e-218
3.01895e-221
3.94068e-224
5.02882e-227
6.38819e-230
8.04536e-233
1.01417e-235
1.27506e-238
1.61597e-241
2.0746e-244
2.70293e-247
3.50653e-250
4.53864e-253
5.98273e-256
8.09346e-259
1.08752e-261
1.41772e-264
1.79223e-267
2.19713e-270
2.6117e-273
3.00162e-276
3.30743e-279
3.43473e-282
3.19712e-285
2.49407e-288
1.64104e-291
9.78597e-295
5.47441e-298
2.92201e-301
1.50247e-304
7.48739e-308
3.63135e-311
1.7195e-314
7.96971e-318
3.6215e-321
0
0
0
0
0
0
0
0
0
0
0
0
0
0
0
0
0
0
0
0
0
0
0
0
0
0
0
0
0
0
0
0
0
0
0
0
0
0
0
0
0
0
0
0
0
0
0
0
0
0
0
0
0
0
0
0
0
0
0
0
0
0
0
0
0
0
0
0
0
0
0
0
0
0
0
0
0
0
0
0
0
0
0
0
0
0
0
0
0
0
0
0
0
0
0
0
0
0
0
0
0
0
0
0
0
0
0
0
0
0
0
0
0
0
0
0
0
0
0
0
0
0
0
0
0
0
0
0
0
0
0
0
0
0
0
0
0
0
0
0
0
0
0
0
0
0
0
0
0
0
0
0
0
0
0
0
0
0
0
0
0
0
0
0
0
0
0
0
0
0
0
0
0
0
0
0
0
0
0
0
0
0
0
0
0
0
0
0
0
0
0
0
0
0
0
0
0
0
0
0
0
0
0
0
0
0
0
0
0
0
0
0
0
0
0
0
0
0
0
0
0
0
0
0
0
0
0
0
0
0
0
0
0
0
0
0
0
0
0
0
0
0
0
0
0
0
0
0
0
0
0
0
0
0
0
0
0
0
0
0
0
0
0
0
0
0
1.50371e-05
1.61604e-05
1.74467e-05
2.00188e-05
2.15405e-05
2.60359e-05
3.34965e-05
4.62764e-05
6.47716e-05
8.03588e-05
9.37509e-05
9.74291e-05
8.80272e-05
8.18116e-05
7.89588e-05
7.58414e-05
7.2932e-05
8.01802e-05
7.76228e-05
7.83038e-05
7.84432e-05
7.90106e-05
7.49626e-05
6.60226e-05
5.2046e-05
4.5975e-05
3.04558e-05
4.07354e-06
3.66629e-07
6.57945e-10
8.09685e-13
9.3624e-16
9.89558e-19
1.07695e-21
1.19756e-24
1.41395e-27
1.65734e-30
1.9191e-33
2.21417e-36
2.37681e-39
2.71013e-42
2.83224e-45
3.06024e-48
3.19834e-51
3.39335e-54
3.63119e-57
3.86439e-60
3.9016e-63
3.57398e-66
3.04359e-69
2.43327e-72
1.93433e-75
1.60272e-78
1.5423e-81
1.5442e-84
1.6816e-87
1.78515e-90
1.95886e-93
2.15359e-96
2.38549e-99
2.70594e-102
3.00671e-105
3.41741e-108
3.83388e-111
4.34562e-114
4.76814e-117
5.3636e-120
5.96867e-123
7.38389e-126
1.13733e-128
2.78838e-131
9.5124e-134
3.75938e-136
1.54222e-138
6.35279e-141
2.62503e-143
1.15436e-145
5.07926e-148
1.89132e-150
6.84117e-153
2.37416e-155
8.35635e-158
3.01803e-160
1.09115e-162
3.99807e-165
1.49129e-167
5.31639e-170
1.14322e-174
1.69126e-179
1.89902e-184
1.74869e-189
1.41864e-194
1.24021e-199
2.33422e-203
3.08963e-206
4.36421e-209
5.99743e-212
8.41569e-215
1.14591e-217
1.5787e-220
2.11403e-223
2.84591e-226
3.73067e-229
4.91397e-232
6.37958e-235
8.33398e-238
1.08098e-240
1.41839e-243
1.87014e-246
2.49807e-249
3.32665e-252
4.48871e-255
6.20366e-258
8.61986e-261
1.16465e-263
1.52592e-266
1.95018e-269
2.42912e-272
2.94925e-275
3.47553e-278
3.94857e-281
4.26389e-284
4.23162e-287
3.6251e-290
2.59721e-293
1.62239e-296
9.36463e-300
5.12251e-303
2.69016e-306
1.36668e-309
6.74946e-313
3.25172e-316
1.53234e-319
6.91692e-323
0
0
0
0
0
0
0
0
0
0
0
0
0
0
0
0
0
0
0
0
0
0
0
0
0
0
0
0
0
0
0
0
0
0
0
0
0
0
0
0
0
0
0
0
0
0
0
0
0
0
0
0
0
0
0
0
0
0
0
0
0
0
0
0
0
0
0
0
0
0
0
0
0
0
0
0
0
0
0
0
0
0
0
0
0
0
0
0
0
0
0
0
0
0
0
0
0
0
0
0
0
0
0
0
0
0
0
0
0
0
0
0
0
0
0
0
0
0
0
0
0
0
0
0
0
0
0
0
0
0
0
0
0
0
0
0
0
0
0
0
0
0
0
0
0
0
0
0
0
0
0
0
0
0
0
0
0
0
0
0
0
0
0
0
0
0
0
0
0
0
0
0
0
0
0
0
0
0
0
0
0
0
0
0
0
0
0
0
0
0
0
0
0
0
0
0
0
0
0
0
0
0
0
0
0
0
0
0
0
0
0
0
0
0
0
0
0
0
0
0
0
0
0
0
0
0
0
0
0
0
0
0
0
0
0
0
0
0
0
0
0
0
0
0
0
0
0
0
0
0
0
0
0
0
0
0
0
0
0
0
0
0
0
0
0
0
1.37117e-05
1.44219e-05
1.56279e-05
1.63407e-05
1.68747e-05
1.70339e-05
1.83694e-05
2.09056e-05
2.63545e-05
3.48869e-05
4.50451e-05
4.66138e-05
4.16652e-05
4.27483e-05
4.63193e-05
4.75115e-05
5.14106e-05
5.48848e-05
5.62874e-05
5.38084e-05
5.73068e-05
5.62477e-05
5.40977e-05
4.767e-05
3.95311e-05
3.22223e-05
1.42239e-05
1.94384e-06
1.2933e-07
1.52568e-10
1.44218e-13
1.29411e-16
1.27893e-19
1.36834e-22
1.54843e-25
1.64984e-28
1.77798e-31
1.77056e-34
1.89893e-37
1.84667e-40
1.99208e-43
1.96231e-46
2.071e-49
2.11824e-52
2.13387e-55
2.10647e-58
2.02761e-61
1.83038e-64
1.57978e-67
1.3096e-70
1.07574e-73
8.43031e-77
7.1435e-80
6.28565e-83
5.73303e-86
5.44194e-89
5.2736e-92
5.09325e-95
5.13995e-98
5.18391e-101
5.39137e-104
5.56929e-107
5.87083e-110
6.06736e-113
6.38458e-116
6.49828e-119
6.7725e-122
6.83879e-125
7.37148e-128
9.00082e-131
1.67957e-133
4.90888e-136
1.86798e-138
7.4293e-141
2.98148e-143
1.20233e-145
4.78939e-148
1.94548e-150
7.40317e-153
2.79356e-155
1.00972e-157
3.6512e-160
1.32976e-162
4.83913e-165
1.78881e-167
6.53899e-170
1.94624e-174
4.04787e-179
6.1902e-184
7.52714e-189
7.6726e-194
7.28886e-199
4.23909e-203
5.33488e-206
7.61298e-209
1.1178e-211
1.59078e-214
2.30833e-217
3.25694e-220
4.64092e-223
6.47509e-226
9.03561e-229
1.2335e-231
1.67163e-234
2.23924e-237
3.00439e-240
4.02668e-243
5.43728e-246
7.35526e-249
9.96683e-252
1.34914e-254
1.86663e-257
2.64772e-260
3.74197e-263
5.13183e-266
6.83736e-269
8.86437e-272
1.11938e-274
1.37955e-277
1.65745e-280
1.93587e-283
2.17692e-286
2.30423e-289
2.19651e-292
1.75853e-295
1.1762e-298
7.06328e-302
3.96756e-305
2.12546e-308
1.09751e-311
5.49764e-315
2.68298e-318
1.27963e-321
0
0
0
0
0
0
0
0
0
0
0
0
0
0
0
0
0
0
0
0
0
0
0
0
0
0
0
0
0
0
0
0
0
0
0
0
0
0
0
0
0
0
0
0
0
0
0
0
0
0
0
0
0
0
0
0
0
0
0
0
0
0
0
0
0
0
0
0
0
0
0
0
0
0
0
0
0
0
0
0
0
0
0
0
0
0
0
0
0
0
0
0
0
0
0
0
0
0
0
0
0
0
0
0
0
0
0
0
0
0
0
0
0
0
0
0
0
0
0
0
0
0
0
0
0
0
0
0
0
0
0
0
0
0
0
0
0
0
0
0
0
0
0
0
0
0
0
0
0
0
0
0
0
0
0
0
0
0
0
0
0
0
0
0
0
0
0
0
0
0
0
0
0
0
0
0
0
0
0
0
0
0
0
0
0
0
0
0
0
0
0
0
0
0
0
0
0
0
0
0
0
0
0
0
0
0
0
0
0
0
0
0
0
0
0
0
0
0
0
0
0
0
0
0
0
0
0
0
0
0
0
0
0
0
0
0
0
0
0
0
0
0
0
0
0
0
0
0
0
0
0
0
0
0
0
0
0
0
0
0
0
0
0
0
0
0
0
1.49113e-05
1.55973e-05
1.55105e-05
1.58532e-05
1.58319e-05
1.5548e-05
1.51527e-05
1.43723e-05
1.38823e-05
1.36099e-05
1.3685e-05
1.66804e-05
1.82029e-05
2.16176e-05
2.49586e-05
2.85887e-05
3.21582e-05
3.69574e-05
3.46635e-05
3.39923e-05
3.30279e-05
3.12506e-05
3.04774e-05
2.91396e-05
2.6084e-05
2.34855e-05
6.53047e-06
1.00921e-06
1.4471e-08
8.94109e-12
8.22318e-15
8.98762e-18
9.47899e-21
9.44303e-24
8.98613e-27
8.46292e-30
7.80476e-33
7.18914e-36
6.61162e-39
5.68008e-42
5.07747e-45
4.17006e-48
3.51518e-51
2.93224e-54
2.39844e-57
2.02464e-60
1.68425e-63
1.43183e-66
1.19917e-69
1.02294e-72
8.6343e-76
7.35096e-79
6.26287e-82
5.48128e-85
4.76204e-88
4.26297e-91
3.89578e-94
3.59148e-97
3.45678e-100
3.31676e-103
3.29166e-106
3.25233e-109
3.27628e-112
3.26431e-115
3.2902e-118
3.24315e-121
3.24495e-124
3.21071e-127
3.409e-130
4.43501e-133
9.13443e-136
2.88466e-138
1.08653e-140
4.27234e-143
1.68192e-145
6.58087e-148
2.5524e-150
9.90989e-153
3.75782e-155
1.42138e-157
5.21752e-160
1.9271e-162
7.03221e-165
2.61364e-167
9.59769e-170
3.03928e-174
7.5291e-179
1.43609e-183
2.15961e-188
2.70235e-193
2.98271e-198
8.48041e-203
8.14408e-206
1.24348e-208
1.8643e-211
2.86051e-214
4.27448e-217
6.47166e-220
9.54774e-223
1.4117e-225
2.04105e-228
2.94921e-231
4.19527e-234
5.927e-237
8.2633e-240
1.146e-242
1.58819e-245
2.20706e-248
3.07749e-251
4.29217e-254
5.97852e-257
8.46807e-260
1.21936e-262
1.73844e-265
2.41249e-268
3.26506e-271
4.30936e-274
5.56249e-277
7.01572e-280
8.63352e-283
1.03159e-285
1.18703e-288
1.29321e-291
1.29169e-294
1.10279e-297
7.83024e-301
4.85479e-304
2.78359e-307
1.51394e-310
7.91454e-314
4.00751e-317
1.97527e-320
9.88131e-324
0
0
0
0
0
0
0
0
0
0
0
0
0
0
0
0
0
0
0
0
0
0
0
0
0
0
0
0
0
0
0
0
0
0
0
0
0
0
0
0
0
0
0
0
0
0
0
0
0
0
0
0
0
0
0
0
0
0
0
0
0
0
0
0
0
0
0
0
0
0
0
0
0
0
0
0
0
0
0
0
0
0
0
0
0
0
0
0
0
0
0
0
0
0
0
0
0
0
0
0
0
0
0
0
0
0
0
0
0
0
0
0
0
0
0
0
0
0
0
0
0
0
0
0
0
0
0
0
0
0
0
0
0
0
0
0
0
0
0
0
0
0
0
0
0
0
0
0
0
0
0
0
0
0
0
0
0
0
0
0
0
0
0
0
0
0
0
0
0