/*--------------------------------*- C++ -*----------------------------------*\
| =========                 |                                                 |
| \\      /  F ield         | OpenFOAM: The Open Source CFD Toolbox           |
|  \\    /   O peration     | Version:  2.1.1                                 |
|   \\  /    A nd           | Web:      www.OpenFOAM.org                      |
|    \\/     M anipulation  |                                                 |
\*---------------------------------------------------------------------------*/
FoamFile
{
    version     2.0;
    format      ascii;
    class       volScalarField;
    location    "0.001200000";
    object      H2O;
}
// * * * * * * * * * * * * * * * * * * * * * * * * * * * * * * * * * * * * * //

dimensions      [0 0 0 0 0 0 0];

internalField   nonuniform List<scalar> 
12384
(
0.0144239
0.00745361
0.00184857
0.000130579
8.78153e-06
1.2304e-06
9.9973e-08
4.27538e-09
1.50703e-10
2.52945e-12
3.58987e-14
4.33861e-16
4.14496e-18
3.80167e-20
2.70049e-19
4.14545e-17
3.559e-15
4.49333e-14
1.1152e-13
9.04612e-14
3.55291e-14
4.45645e-15
5.80884e-17
1.64761e-19
1.18412e-22
8.49503e-26
6.30245e-29
4.88183e-32
3.83984e-35
3.08491e-38
2.4211e-41
1.9163e-44
1.48341e-47
1.14214e-50
8.7274e-54
6.67428e-57
5.09069e-60
3.88537e-63
2.94502e-66
2.2111e-69
1.63614e-72
1.19766e-75
8.65459e-79
6.15843e-82
8.02796e-94
3.32719e-95
6.3032e-98
8.77514e-101
1.03807e-103
1.18541e-106
1.52262e-109
2.78112e-112
7.278e-115
2.24167e-117
7.02353e-120
2.11643e-122
6.14875e-125
1.69749e-127
4.60532e-130
1.23999e-132
3.48476e-135
1.02796e-137
3.2205e-140
1.03408e-142
3.37142e-145
1.08292e-147
3.46407e-150
1.08166e-152
3.3644e-155
1.02467e-157
3.1329e-160
9.50857e-163
2.90783e-165
8.31586e-170
8.67562e-181
4.78442e-183
5.39902e-187
8.45708e-191
4.38443e-194
9.66068e-197
2.27309e-199
5.1119e-202
1.10256e-204
2.3277e-207
4.73962e-210
9.57751e-213
1.92568e-215
3.85338e-218
7.52601e-221
1.40905e-223
2.51647e-226
4.29235e-229
7.06853e-232
1.12785e-234
1.76746e-237
2.66797e-240
4.06942e-243
6.25397e-246
9.53317e-249
1.4407e-251
2.23539e-254
3.70968e-257
6.75615e-260
4.64812e-263
5.33941e-283
6.91714e-281
3.64103e-283
9.52151e-286
1.80322e-288
2.7496e-291
3.56373e-294
4.02145e-297
4.06194e-300
3.75648e-303
3.27905e-306
2.89174e-309
2.63448e-312
2.14754e-315
1.61262e-318
8.15208e-322
0
0
0
0
0
0
0
0
0
0
0
0
0
0
0
0
0
0
0
0
0
0
0
0
0
0
0
0
0
0
0
0
0
0
0
0
0
0
0
0
0
0
0
0
0
0
0
0
0
0
0
0
0
0
0
0
0
0
0
0
0
0
0
0
0
0
0
0
0
0
0
0
0
0
0
0
0
0
0
0
0
0
0
0
0
0
0
0
0
0
0
0
0
0
0
0
0
0
0
0
0
0
0
0
0
0
0
0
0
0
0
0
0
0
0
0
0
0
0
0
0
0
0
0
0
0
0
0
0
0
0
0
0
0
0
0
0
0
0
0
0
0
0
0
0
0
0
0
0
0
0
0
0
0
0
0
0
0
0
0
0
0
0
0
0
0
0
0
0
0
0
0
0
0
0
0
0
0
0
0
0
0
0
0
0
0
0
0
0
0
0
0
0
0
0
0
0
0
0
0
0
0
0
0
0
0
0
0
0
0
0
0
0
0
0
0
0
0
0
0
0
0
0
0
0
0
0
0
0
0
0
0
0
0
0
0
0
0
0
0
0
0
0
0
0
0
0
0
0
0
0
0
0
0
0.0419816
0.030078
0.0111967
0.00230433
0.000167314
3.2736e-05
5.09356e-06
1.72245e-07
8.10766e-09
1.44972e-10
2.01267e-12
3.48817e-14
2.53329e-16
1.55115e-18
1.98219e-17
5.4102e-15
8.34219e-13
1.4444e-11
3.88014e-11
3.42441e-11
1.4777e-11
2.30107e-12
4.06104e-14
1.19366e-16
2.03694e-20
4.84851e-24
2.15921e-27
1.13013e-30
6.40529e-34
3.71284e-37
1.62558e-40
8.25519e-44
4.64872e-47
2.83378e-50
1.85186e-53
1.27795e-56
9.25153e-60
7.53281e-63
8.11378e-66
1.89219e-68
1.93964e-71
1.75052e-74
1.51291e-77
1.28469e-80
6.08714e-91
2.42595e-92
4.4386e-95
5.7251e-98
6.15681e-101
6.38418e-104
6.94346e-107
9.07019e-110
1.69889e-112
4.28047e-115
1.28048e-117
3.73886e-120
1.08344e-122
2.91119e-125
7.63754e-128
2.01131e-130
5.70818e-133
1.76473e-135
5.84741e-138
1.96517e-140
6.62742e-143
2.16794e-145
6.97458e-148
2.17237e-150
6.6175e-153
1.97146e-155
5.79203e-158
1.71097e-160
5.02625e-163
1.47821e-165
3.43046e-176
2.35065e-178
3.51961e-182
4.98306e-186
5.02995e-190
1.31445e-193
2.56874e-196
5.96314e-199
1.3357e-201
2.88383e-204
6.00983e-207
1.22081e-209
2.44226e-212
4.74837e-215
8.87757e-218
1.57787e-220
2.66523e-223
4.3483e-226
6.91704e-229
1.08674e-231
1.69542e-234
2.60221e-237
4.00546e-240
6.18444e-243
9.52862e-246
1.46126e-248
2.29488e-251
3.8207e-254
6.98787e-257
6.06e-260
4.32759e-279
2.02109e-277
1.18449e-279
3.3782e-282
6.78797e-285
1.06993e-287
1.40608e-290
1.59546e-293
1.61599e-296
1.48902e-299
1.28688e-302
1.0861e-305
9.2995e-309
7.61719e-312
5.74991e-315
4.05551e-318
2.31717e-321
0
0
0
0
0
0
0
0
0
0
0
0
0
0
0
0
0
0
0
0
0
0
0
0
0
0
0
0
0
0
0
0
0
0
0
0
0
0
0
0
0
0
0
0
0
0
0
0
0
0
0
0
0
0
0
0
0
0
0
0
0
0
0
0
0
0
0
0
0
0
0
0
0
0
0
0
0
0
0
0
0
0
0
0
0
0
0
0
0
0
0
0
0
0
0
0
0
0
0
0
0
0
0
0
0
0
0
0
0
0
0
0
0
0
0
0
0
0
0
0
0
0
0
0
0
0
0
0
0
0
0
0
0
0
0
0
0
0
0
0
0
0
0
0
0
0
0
0
0
0
0
0
0
0
0
0
0
0
0
0
0
0
0
0
0
0
0
0
0
0
0
0
0
0
0
0
0
0
0
0
0
0
0
0
0
0
0
0
0
0
0
0
0
0
0
0
0
0
0
0
0
0
0
0
0
0
0
0
0
0
0
0
0
0
0
0
0
0
0
0
0
0
0
0
0
0
0
0
0
0
0
0
0
0
0
0
0
0
0
0
0
0
0
0
0
0
0
0
0
0
0
0
0
0.0438413
0.0466643
0.0253175
0.0135194
0.00486007
0.00184957
0.00065282
1.3862e-05
8.94945e-07
9.03666e-09
9.26711e-11
2.66207e-12
1.20269e-14
3.69688e-17
7.01642e-15
6.35623e-12
1.50227e-09
3.46414e-08
9.60709e-08
9.75034e-08
5.10737e-08
1.01136e-08
2.59595e-10
7.6966e-13
2.54884e-17
1.46237e-20
6.40665e-24
2.52169e-27
9.60951e-31
3.72737e-34
8.05926e-39
2.58324e-42
1.31096e-45
6.69851e-49
3.68968e-52
1.93499e-55
1.0798e-58
1.38935e-60
1.3907e-63
9.02926e-66
5.837e-69
2.99412e-72
1.35531e-75
5.04273e-79
6.55214e-88
2.86683e-89
5.20426e-92
6.20634e-95
5.9601e-98
5.59345e-101
4.90601e-104
4.86127e-107
5.35965e-110
8.43485e-113
1.80074e-115
4.39399e-118
1.15569e-120
2.76858e-123
6.66955e-126
1.56483e-128
4.26336e-131
1.31407e-133
4.34794e-136
1.47524e-138
4.9082e-141
1.61763e-143
5.11019e-146
1.55058e-148
4.61387e-151
1.2962e-153
3.61906e-156
1.05157e-158
2.90698e-161
6.89081e-164
5.87791e-172
6.27041e-174
9.30947e-178
1.18632e-181
1.04114e-185
6.39499e-190
8.27433e-194
1.31116e-196
2.8667e-199
6.23786e-202
1.27508e-204
2.57859e-207
4.99346e-210
9.44447e-213
1.68208e-215
2.82685e-218
4.4346e-221
6.70076e-224
9.9191e-227
1.47689e-229
2.22466e-232
3.38923e-235
5.20396e-238
7.90154e-241
1.2003e-243
1.83137e-246
2.88575e-249
4.7765e-252
8.53613e-255
6.28196e-258
8.22052e-276
9.71646e-275
5.8117e-277
1.74513e-279
3.56397e-282
5.58095e-285
7.19012e-288
7.92578e-291
7.75077e-294
6.85559e-297
5.63435e-300
4.39599e-303
3.36218e-306
2.51737e-309
1.77589e-312
1.17812e-315
7.41098e-319
3.35965e-322
0
0
0
0
0
0
0
0
0
0
0
0
0
0
0
0
0
0
0
0
0
0
0
0
0
0
0
0
0
0
0
0
0
0
0
0
0
0
0
0
0
0
0
0
0
0
0
0
0
0
0
0
0
0
0
0
0
0
0
0
0
0
0
0
0
0
0
0
0
0
0
0
0
0
0
0
0
0
0
0
0
0
0
0
0
0
0
0
0
0
0
0
0
0
0
0
0
0
0
0
0
0
0
0
0
0
0
0
0
0
0
0
0
0
0
0
0
0
0
0
0
0
0
0
0
0
0
0
0
0
0
0
0
0
0
0
0
0
0
0
0
0
0
0
0
0
0
0
0
0
0
0
0
0
0
0
0
0
0
0
0
0
0
0
0
0
0
0
0
0
0
0
0
0
0
0
0
0
0
0
0
0
0
0
0
0
0
0
0
0
0
0
0
0
0
0
0
0
0
0
0
0
0
0
0
0
0
0
0
0
0
0
0
0
0
0
0
0
0
0
0
0
0
0
0
0
0
0
0
0
0
0
0
0
0
0
0
0
0
0
0
0
0
0
0
0
0
0
0
0
0
0
0.128524
0.150769
0.141144
0.116284
0.0518998
0.0283245
0.0182441
0.00675561
0.00064517
5.56666e-06
5.55259e-08
8.9548e-10
2.66833e-12
4.25312e-15
1.49191e-11
1.35076e-08
1.85284e-06
3.18529e-05
7.28988e-05
7.73419e-05
4.70793e-05
1.69837e-05
1.35368e-06
8.19174e-09
1.11887e-11
7.34476e-15
3.18621e-18
1.23162e-21
4.28388e-25
1.60252e-28
2.61654e-33
9.6519e-37
4.61741e-40
2.31621e-43
1.24131e-46
6.17929e-50
3.262e-53
1.56215e-56
7.7472e-60
4.95317e-62
1.7602e-65
5.85328e-69
1.66123e-72
2.96142e-76
1.49545e-83
5.96936e-85
1.09728e-87
1.30535e-90
1.3021e-93
1.19925e-96
1.06976e-99
9.59074e-103
9.05653e-106
9.8605e-109
1.47836e-111
2.78199e-114
7.05649e-117
1.58626e-119
4.07406e-122
8.64236e-125
2.37339e-127
6.40397e-130
2.20508e-132
6.97993e-135
2.44392e-137
7.92435e-140
2.60209e-142
7.94795e-145
2.31708e-147
6.2578e-150
1.66686e-152
4.51349e-155
1.19831e-157
3.08368e-160
5.15556e-167
7.55234e-169
9.77934e-173
1.08862e-176
8.85221e-181
4.99974e-185
2.17397e-189
1.45868e-193
1.29626e-196
2.54776e-199
5.03338e-202
9.49868e-205
1.77469e-207
3.19176e-210
5.66938e-213
9.7476e-216
1.65288e-218
2.72801e-221
4.4722e-224
7.16899e-227
1.14736e-229
1.79984e-232
2.82919e-235
4.35915e-238
6.73514e-241
1.04298e-243
1.6556e-246
2.72219e-249
4.69829e-252
4.32442e-255
5.88127e-272
1.13312e-271
6.77658e-274
2.14233e-276
4.59261e-279
7.28776e-282
9.2852e-285
1.008e-287
9.66039e-291
8.38441e-294
6.70247e-297
5.00478e-300
3.52375e-303
2.35989e-306
1.5119e-309
9.31689e-313
5.54713e-316
3.19932e-319
8.89318e-323
0
0
0
0
0
0
0
0
0
0
0
0
0
0
0
0
0
0
0
0
0
0
0
0
0
0
0
0
0
0
0
0
0
0
0
0
0
0
0
0
0
0
0
0
0
0
0
0
0
0
0
0
0
0
0
0
0
0
0
0
0
0
0
0
0
0
0
0
0
0
0
0
0
0
0
0
0
0
0
0
0
0
0
0
0
0
0
0
0
0
0
0
0
0
0
0
0
0
0
0
0
0
0
0
0
0
0
0
0
0
0
0
0
0
0
0
0
0
0
0
0
0
0
0
0
0
0
0
0
0
0
0
0
0
0
0
0
0
0
0
0
0
0
0
0
0
0
0
0
0
0
0
0
0
0
0
0
0
0
0
0
0
0
0
0
0
0
0
0
0
0
0
0
0
0
0
0
0
0
0
0
0
0
0
0
0
0
0
0
0
0
0
0
0
0
0
0
0
0
0
0
0
0
0
0
0
0
0
0
0
0
0
0
0
0
0
0
0
0
0
0
0
0
0
0
0
0
0
0
0
0
0
0
0
0
0
0
0
0
0
0
0
0
0
0
0
0
0
0
0
0
0.221343
0.22753
0.224232
0.194919
0.163093
0.151093
0.144439
0.128002
0.0303059
0.00372369
5.39412e-05
1.47948e-06
2.92806e-09
2.49136e-12
1.04192e-08
4.13024e-06
0.000228599
0.004946
0.0102756
0.0111621
0.00761491
0.00357917
0.000540609
7.06202e-06
2.37679e-08
3.46222e-11
2.39226e-14
1.19886e-17
5.14586e-21
2.15521e-24
9.41249e-28
4.10817e-31
1.94102e-34
9.53246e-38
5.17705e-41
2.57318e-44
1.35062e-47
6.36346e-51
2.71799e-54
1.01104e-57
3.24838e-61
9.36633e-65
2.17133e-68
3.48118e-72
1.75977e-79
6.25915e-81
1.22683e-83
1.58894e-86
1.68655e-89
1.67454e-92
1.57176e-95
1.48041e-98
1.38582e-101
1.3736e-104
1.54344e-107
2.20338e-110
4.35036e-113
9.81274e-116
2.43772e-118
5.48798e-121
1.40959e-123
3.76023e-126
1.22692e-128
3.90851e-131
1.33799e-133
4.36905e-136
1.45707e-138
4.59732e-141
1.40381e-143
3.83232e-146
1.02949e-148
2.74606e-151
7.1628e-154
1.85322e-156
3.29724e-163
5.79703e-165
1.18382e-167
1.19331e-171
9.11588e-176
4.94681e-180
2.06211e-184
9.62663e-189
3.34962e-193
1.07496e-196
1.88889e-199
3.50083e-202
6.25005e-205
1.11093e-207
1.89597e-210
3.21963e-213
5.27251e-216
8.65241e-219
1.37889e-221
2.20206e-224
3.42708e-227
5.32471e-230
8.15078e-233
1.25218e-235
1.90903e-238
2.92589e-241
4.52708e-244
7.17357e-247
1.17746e-249
1.1199e-252
4.38953e-268
1.18763e-268
6.38445e-271
1.99165e-273
4.49216e-276
7.57675e-279
9.86571e-282
1.06137e-284
9.95838e-288
8.39911e-291
6.51339e-294
4.70625e-297
3.2089e-300
2.07914e-303
1.29012e-306
7.70495e-310
4.44551e-313
2.49017e-316
1.35488e-319
0
0
0
0
0
0
0
0
0
0
0
0
0
0
0
0
0
0
0
0
0
0
0
0
0
0
0
0
0
0
0
0
0
0
0
0
0
0
0
0
0
0
0
0
0
0
0
0
0
0
0
0
0
0
0
0
0
0
0
0
0
0
0
0
0
0
0
0
0
0
0
0
0
0
0
0
0
0
0
0
0
0
0
0
0
0
0
0
0
0
0
0
0
0
0
0
0
0
0
0
0
0
0
0
0
0
0
0
0
0
0
0
0
0
0
0
0
0
0
0
0
0
0
0
0
0
0
0
0
0
0
0
0
0
0
0
0
0
0
0
0
0
0
0
0
0
0
0
0
0
0
0
0
0
0
0
0
0
0
0
0
0
0
0
0
0
0
0
0
0
0
0
0
0
0
0
0
0
0
0
0
0
0
0
0
0
0
0
0
0
0
0
0
0
0
0
0
0
0
0
0
0
0
0
0
0
0
0
0
0
0
0
0
0
0
0
0
0
0
0
0
0
0
0
0
0
0
0
0
0
0
0
0
0
0
0
0
0
0
0
0
0
0
0
0
0
0
0
0
0
0
0.234654
0.234925
0.234396
0.231279
0.222376
0.211358
0.195484
0.186426
0.160274
0.061866
0.0120091
0.000968218
3.39149e-06
3.00138e-09
2.3294e-06
0.000418871
0.01215
0.0565066
0.082726
0.0921189
0.0797379
0.0545789
0.0181205
0.00250291
1.04787e-05
2.68187e-08
4.22067e-11
3.70697e-14
2.24941e-17
1.19068e-20
6.04153e-24
3.08684e-27
1.54366e-30
8.40515e-34
4.69171e-37
2.59195e-40
1.45576e-43
7.38742e-47
3.41667e-50
1.3929e-53
4.85962e-57
1.43948e-60
3.21859e-64
4.76369e-68
9.15582e-76
2.36488e-77
4.97792e-80
7.44926e-83
9.1038e-86
1.00986e-88
1.07205e-91
1.08115e-94
1.10093e-97
1.08457e-100
1.13912e-103
1.27921e-106
1.80567e-109
3.3605e-112
7.58957e-115
1.77391e-117
4.45546e-120
1.17051e-122
3.71583e-125
1.16639e-127
4.01302e-130
1.28902e-132
4.34168e-135
1.36058e-137
4.34456e-140
1.22595e-142
3.45652e-145
9.15097e-148
2.41785e-150
6.07528e-153
1.09521e-159
1.71525e-161
4.05051e-164
1.222e-166
8.70272e-171
4.50209e-175
1.85111e-179
1.17869e-183
3.4976e-188
7.08188e-193
7.60469e-197
1.13908e-199
1.98363e-202
3.33002e-205
5.59637e-208
9.04399e-211
1.46586e-213
2.29706e-216
3.60321e-219
5.49237e-222
8.3737e-225
1.24916e-227
1.86862e-230
2.75737e-233
4.07437e-236
5.98055e-239
8.89432e-242
1.3483e-244
2.15192e-247
2.06871e-250
2.64046e-264
1.14942e-265
5.16919e-268
1.4704e-270
3.23868e-273
5.73865e-276
8.06346e-279
9.02683e-282
8.44753e-285
6.99273e-288
5.27919e-291
3.70361e-294
2.44637e-297
1.53582e-300
9.22964e-304
5.34153e-307
2.98932e-310
1.6241e-313
8.59057e-317
4.40509e-320
0
0
0
0
0
0
0
0
0
0
0
0
0
0
0
0
0
0
0
0
0
0
0
0
0
0
0
0
0
0
0
0
0
0
0
0
0
0
0
0
0
0
0
0
0
0
0
0
0
0
0
0
0
0
0
0
0
0
0
0
0
0
0
0
0
0
0
0
0
0
0
0
0
0
0
0
0
0
0
0
0
0
0
0
0
0
0
0
0
0
0
0
0
0
0
0
0
0
0
0
0
0
0
0
0
0
0
0
0
0
0
0
0
0
0
0
0
0
0
0
0
0
0
0
0
0
0
0
0
0
0
0
0
0
0
0
0
0
0
0
0
0
0
0
0
0
0
0
0
0
0
0
0
0
0
0
0
0
0
0
0
0
0
0
0
0
0
0
0
0
0
0
0
0
0
0
0
0
0
0
0
0
0
0
0
0
0
0
0
0
0
0
0
0
0
0
0
0
0
0
0
0
0
0
0
0
0
0
0
0
0
0
0
0
0
0
0
0
0
0
0
0
0
0
0
0
0
0
0
0
0
0
0
0
0
0
0
0
0
0
0
0
0
0
0
0
0
0
0
0
0.234504
0.234097
0.235111
0.237044
0.238374
0.235194
0.228703
0.216066
0.214677
0.196339
0.179428
0.0399791
0.00183104
2.33652e-06
0.00022831
0.0112401
0.0760385
0.178458
0.190248
0.201023
0.218716
0.242772
0.134653
0.0264322
0.00261122
7.47102e-06
1.54168e-08
2.32692e-11
2.48904e-14
2.02198e-17
1.3973e-20
8.83116e-24
5.32149e-27
3.27656e-30
2.03837e-33
1.33014e-36
8.05126e-40
4.71185e-43
2.46394e-46
1.11222e-49
4.41244e-53
1.4533e-56
3.51349e-60
5.24475e-64
2.09578e-72
3.31715e-74
6.12485e-77
1.02011e-79
1.64576e-82
2.43942e-85
3.13953e-88
3.70418e-91
4.15086e-94
4.54025e-97
4.85651e-100
5.31608e-103
6.07016e-106
8.45369e-109
1.46787e-111
3.30827e-114
7.91025e-117
2.19089e-119
6.54477e-122
2.16875e-124
7.23499e-127
2.4351e-129
8.06425e-132
2.6112e-134
8.28769e-137
2.49443e-139
7.17295e-142
1.96655e-144
5.15916e-147
1.32917e-149
2.13742e-156
2.78556e-158
7.45653e-161
2.37042e-163
8.06747e-166
3.85379e-170
1.56537e-174
1.61562e-178
4.9107e-183
8.68602e-188
1.18029e-192
4.85018e-197
5.65987e-200
9.23629e-203
1.45055e-205
2.31727e-208
3.56795e-211
5.55568e-214
8.30167e-217
1.2503e-219
1.82947e-222
2.69534e-225
3.8824e-228
5.61663e-231
8.07264e-234
1.17126e-236
1.70821e-239
2.53392e-242
3.97085e-245
3.97928e-248
1.42828e-260
1.25741e-262
4.1407e-265
1.00205e-267
2.00529e-270
3.45924e-273
5.15701e-276
6.35821e-279
6.26687e-282
5.19319e-285
3.8542e-288
2.63656e-291
1.69207e-294
1.03035e-297
6.00388e-301
3.36896e-304
1.82885e-307
9.64386e-311
4.95381e-314
2.48602e-317
1.18279e-320
0
0
0
0
0
0
0
0
0
0
0
0
0
0
0
0
0
0
0
0
0
0
0
0
0
0
0
0
0
0
0
0
0
0
0
0
0
0
0
0
0
0
0
0
0
0
0
0
0
0
0
0
0
0
0
0
0
0
0
0
0
0
0
0
0
0
0
0
0
0
0
0
0
0
0
0
0
0
0
0
0
0
0
0
0
0
0
0
0
0
0
0
0
0
0
0
0
0
0
0
0
0
0
0
0
0
0
0
0
0
0
0
0
0
0
0
0
0
0
0
0
0
0
0
0
0
0
0
0
0
0
0
0
0
0
0
0
0
0
0
0
0
0
0
0
0
0
0
0
0
0
0
0
0
0
0
0
0
0
0
0
0
0
0
0
0
0
0
0
0
0
0
0
0
0
0
0
0
0
0
0
0
0
0
0
0
0
0
0
0
0
0
0
0
0
0
0
0
0
0
0
0
0
0
0
0
0
0
0
0
0
0
0
0
0
0
0
0
0
0
0
0
0
0
0
0
0
0
0
0
0
0
0
0
0
0
0
0
0
0
0
0
0
0
0
0
0
0
0
0.234941
0.236753
0.242736
0.245968
0.247824
0.246039
0.241898
0.239347
0.234769
0.230029
0.214456
0.0459071
0.00330258
8.27514e-05
0.00525343
0.0586763
0.15411
0.190511
0.20676
0.216247
0.229407
0.245003
0.251299
0.113921
0.0165949
0.000588788
8.59573e-07
1.14984e-09
1.60778e-12
2.22462e-15
2.89833e-18
3.4183e-21
3.61477e-24
3.41108e-27
2.92524e-30
2.33588e-33
1.62679e-36
1.08418e-39
6.31194e-43
3.31791e-46
1.56606e-49
6.04697e-53
1.70597e-56
2.96629e-60
2.45381e-69
3.21449e-71
3.85274e-74
5.59187e-77
1.02854e-79
2.10514e-82
3.58861e-85
5.24993e-88
6.89021e-91
8.40448e-94
9.81635e-97
1.10351e-99
1.23488e-102
1.42416e-105
1.83054e-108
3.01864e-111
6.38839e-114
1.6995e-116
5.10832e-119
1.69958e-121
5.72724e-124
1.95046e-126
6.49275e-129
2.12746e-131
6.75142e-134
2.1002e-136
6.20677e-139
1.78106e-141
4.79996e-144
1.27016e-146
1.90261e-153
2.13722e-155
5.78728e-158
1.95808e-160
6.85075e-163
2.42395e-165
9.47863e-170
1.73776e-173
5.32489e-178
8.81061e-183
1.07474e-187
1.07894e-192
2.35615e-197
2.05326e-200
3.03911e-203
4.48025e-206
6.55931e-209
9.50896e-212
1.37086e-214
1.97252e-217
2.83076e-220
4.03652e-223
5.6698e-226
7.8541e-229
1.08248e-231
1.50685e-234
2.14309e-237
3.15835e-240
4.93781e-243
5.35552e-246
5.31206e-257
1.43238e-259
2.72442e-262
5.26219e-265
9.23506e-268
1.47951e-270
2.16388e-273
2.79289e-276
2.97413e-279
2.5716e-282
1.91103e-285
1.28635e-288
8.05582e-292
4.7701e-295
2.69854e-298
1.46956e-301
7.74375e-305
3.96501e-308
1.97901e-311
9.65406e-315
4.61261e-318
1.82804e-321
0
0
0
0
0
0
0
0
0
0
0
0
0
0
0
0
0
0
0
0
0
0
0
0
0
0
0
0
0
0
0
0
0
0
0
0
0
0
0
0
0
0
0
0
0
0
0
0
0
0
0
0
0
0
0
0
0
0
0
0
0
0
0
0
0
0
0
0
0
0
0
0
0
0
0
0
0
0
0
0
0
0
0
0
0
0
0
0
0
0
0
0
0
0
0
0
0
0
0
0
0
0
0
0
0
0
0
0
0
0
0
0
0
0
0
0
0
0
0
0
0
0
0
0
0
0
0
0
0
0
0
0
0
0
0
0
0
0
0
0
0
0
0
0
0
0
0
0
0
0
0
0
0
0
0
0
0
0
0
0
0
0
0
0
0
0
0
0
0
0
0
0
0
0
0
0
0
0
0
0
0
0
0
0
0
0
0
0
0
0
0
0
0
0
0
0
0
0
0
0
0
0
0
0
0
0
0
0
0
0
0
0
0
0
0
0
0
0
0
0
0
0
0
0
0
0
0
0
0
0
0
0
0
0
0
0
0
0
0
0
0
0
0
0
0
0
0
0
0.246338
0.248657
0.249873
0.250189
0.250334
0.249729
0.248256
0.247521
0.244854
0.233448
0.22261
0.216231
0.185591
0.0213119
0.0163297
0.0136087
0.0148747
0.131818
0.191356
0.226687
0.238286
0.242593
0.247248
0.250534
0.250986
0.249405
0.046438
0.00450137
1.15693e-05
2.11957e-08
3.32137e-11
4.72997e-14
6.5614e-17
9.17921e-20
1.284e-22
1.71503e-25
2.14968e-28
2.50858e-31
2.67839e-34
2.71568e-37
2.49948e-40
2.12125e-43
1.58728e-46
9.82564e-50
4.61769e-53
1.22582e-56
4.78464e-60
2.64822e-63
2.41421e-66
3.54162e-69
6.2009e-72
1.09586e-74
4.02407e-77
1.17859e-79
2.25457e-82
3.64047e-85
5.20524e-88
6.89958e-91
8.70017e-94
1.04917e-96
1.23721e-99
1.41587e-102
1.62818e-105
1.97253e-108
2.95134e-111
6.3163e-114
1.8948e-116
6.35497e-119
2.25116e-121
7.7458e-124
2.67117e-126
8.82394e-129
2.87314e-131
9.16513e-134
2.84898e-136
8.6052e-139
2.51125e-141
7.02361e-144
2.32676e-146
9.8224e-149
8.72182e-151
4.97349e-153
2.08915e-155
8.1734e-158
2.9961e-160
1.08122e-162
3.89232e-165
1.37523e-168
3.91341e-173
5.77035e-178
6.74705e-183
5.89602e-188
4.88615e-193
1.2152e-197
1.00161e-200
1.26639e-203
1.507e-206
1.96056e-209
2.36613e-212
3.15635e-215
3.90269e-218
5.28419e-221
6.68162e-224
9.14408e-227
1.19569e-229
1.67984e-232
2.28654e-235
3.27629e-238
4.59107e-241
6.5759e-244
6.07315e-247
3.18544e-250
1.81413e-253
1.47015e-256
1.62305e-259
2.1889e-262
2.97932e-265
4.10174e-268
5.49976e-271
7.02293e-274
8.03098e-277
7.71997e-280
6.0589e-283
4.08504e-286
2.51437e-289
1.45244e-292
7.99335e-296
4.23013e-299
2.16606e-302
1.07803e-305
5.2325e-309
2.48353e-312
1.15521e-315
5.26936e-319
0
0
0
0
0
0
0
0
0
0
0
0
0
0
0
0
0
0
0
0
0
0
0
0
0
0
0
0
0
0
0
0
0
0
0
0
0
0
0
0
0
0
0
0
0
0
0
0
0
0
0
0
0
0
0
0
0
0
0
0
0
0
0
0
0
0
0
0
0
0
0
0
0
0
0
0
0
0
0
0
0
0
0
0
0
0
0
0
0
0
0
0
0
0
0
0
0
0
0
0
0
0
0
0
0
0
0
0
0
0
0
0
0
0
0
0
0
0
0
0
0
0
0
0
0
0
0
0
0
0
0
0
0
0
0
0
0
0
0
0
0
0
0
0
0
0
0
0
0
0
0
0
0
0
0
0
0
0
0
0
0
0
0
0
0
0
0
0
0
0
0
0
0
0
0
0
0
0
0
0
0
0
0
0
0
0
0
0
0
0
0
0
0
0
0
0
0
0
0
0
0
0
0
0
0
0
0
0
0
0
0
0
0
0
0
0
0
0
0
0
0
0
0
0
0
0
0
0
0
0
0
0
0
0
0
0
0
0
0
0
0
0
0
0
0
0
0
0
0
0
0
0
0
0
0
0
0
0
0
0
0
0
0
0
0
0
0.249081
0.248898
0.248318
0.248293
0.248714
0.249882
0.250249
0.249884
0.250572
0.250012
0.247839
0.250141
0.249209
0.168097
0.181866
0.179365
0.195268
0.200376
0.243298
0.250669
0.251215
0.251198
0.251196
0.251014
0.250143
0.24881
0.088179
0.0133416
0.000303674
3.3796e-07
3.50349e-10
4.24466e-13
5.81232e-16
8.15636e-19
1.12511e-21
1.5131e-24
1.94258e-27
2.47408e-30
2.87915e-33
3.30528e-36
3.50287e-39
3.58087e-42
3.5116e-45
3.26589e-48
2.85425e-51
1.95962e-54
1.32331e-57
1.10276e-60
1.34112e-63
2.04728e-66
3.14455e-69
4.55247e-72
6.10859e-75
7.98652e-78
1.01914e-80
1.29924e-83
1.62625e-86
2.0265e-89
2.50691e-92
3.06009e-95
3.72055e-98
4.44245e-101
5.27589e-104
6.20282e-107
7.41836e-110
9.8722e-113
1.74374e-115
4.65902e-118
1.6818e-120
6.66207e-123
2.72879e-125
1.10351e-127
4.4524e-130
1.7601e-132
6.90509e-135
2.66017e-137
1.0132e-139
3.79132e-142
1.45467e-144
5.61714e-147
2.12264e-149
8.06806e-152
3.00214e-154
1.12088e-156
4.1767e-159
1.57522e-161
6.02188e-164
2.16831e-166
3.70071e-171
4.83639e-176
5.07047e-181
4.45299e-186
3.45026e-191
4.69911e-196
2.91794e-199
3.86598e-202
5.03225e-205
6.59474e-208
8.34978e-211
1.06046e-213
1.31497e-216
1.64387e-219
2.0443e-222
2.60592e-225
3.33997e-228
4.35603e-231
5.71578e-234
7.64378e-237
1.04024e-239
1.43243e-242
1.87224e-245
2.24479e-248
2.55906e-251
3.06038e-254
3.86378e-257
4.91733e-260
6.19039e-263
7.60501e-266
9.00576e-269
1.02211e-271
1.09178e-274
1.03934e-277
8.23058e-281
5.47214e-284
3.28718e-287
1.84708e-290
9.88021e-294
5.08266e-297
2.53113e-300
1.22581e-303
5.79289e-307
2.67842e-310
1.21425e-313
5.40708e-317
2.32804e-320
0
0
0
0
0
0
0
0
0
0
0
0
0
0
0
0
0
0
0
0
0
0
0
0
0
0
0
0
0
0
0
0
0
0
0
0
0
0
0
0
0
0
0
0
0
0
0
0
0
0
0
0
0
0
0
0
0
0
0
0
0
0
0
0
0
0
0
0
0
0
0
0
0
0
0
0
0
0
0
0
0
0
0
0
0
0
0
0
0
0
0
0
0
0
0
0
0
0
0
0
0
0
0
0
0
0
0
0
0
0
0
0
0
0
0
0
0
0
0
0
0
0
0
0
0
0
0
0
0
0
0
0
0
0
0
0
0
0
0
0
0
0
0
0
0
0
0
0
0
0
0
0
0
0
0
0
0
0
0
0
0
0
0
0
0
0
0
0
0
0
0
0
0
0
0
0
0
0
0
0
0
0
0
0
0
0
0
0
0
0
0
0
0
0
0
0
0
0
0
0
0
0
0
0
0
0
0
0
0
0
0
0
0
0
0
0
0
0
0
0
0
0
0
0
0
0
0
0
0
0
0
0
0
0
0
0
0
0
0
0
0
0
0
0
0
0
0
0
0
0
0
0
0
0
0
0
0
0
0
0
0
0
0
0
0
0.245228
0.245384
0.245354
0.245508
0.246174
0.247447
0.249129
0.250115
0.250491
0.251046
0.251239
0.25124
0.250991
0.251103
0.251014
0.250908
0.250491
0.250986
0.250496
0.250516
0.250694
0.250648
0.250401
0.249761
0.248929
0.247806
0.160393
0.0272282
0.00184118
2.77543e-06
3.1566e-09
3.1334e-12
3.06243e-15
3.28957e-18
3.81353e-21
4.61337e-24
5.46222e-27
6.61088e-30
7.42127e-33
8.42776e-36
9.1762e-39
9.75117e-42
1.03864e-44
1.07537e-47
1.11645e-50
1.17348e-53
1.23103e-56
1.34015e-59
1.52397e-62
1.73122e-65
1.97256e-68
2.15799e-71
2.38128e-74
2.60833e-77
2.98326e-80
3.40108e-83
4.01295e-86
4.69659e-89
5.62534e-92
6.6799e-95
8.01319e-98
9.5399e-101
1.13218e-103
1.34038e-106
1.56288e-109
1.84652e-112
2.22201e-115
3.06208e-118
5.85455e-121
1.68461e-123
6.30659e-126
2.56015e-128
1.07498e-130
4.49001e-133
1.89148e-135
7.87947e-138
3.28694e-140
1.37033e-142
5.36483e-145
2.0466e-147
7.52303e-150
2.73023e-152
9.88614e-155
3.5937e-157
1.30974e-159
4.83503e-162
1.80869e-164
5.42137e-167
6.83178e-172
6.08175e-177
4.18482e-182
2.4461e-187
1.41508e-192
2.17883e-197
1.58656e-200
2.11301e-203
2.79663e-206
3.73934e-209
4.92215e-212
6.52857e-215
8.52604e-218
1.11117e-220
1.41782e-223
1.79928e-226
2.26556e-229
2.85416e-232
3.58725e-235
4.54455e-238
5.83224e-241
7.59609e-244
9.85121e-247
1.27504e-249
1.6808e-252
2.27311e-255
3.05323e-258
3.97921e-261
5.02897e-264
6.1639e-267
7.32516e-270
8.41789e-273
9.27447e-276
9.63104e-279
8.96468e-282
6.99327e-285
4.60139e-288
2.74397e-291
1.53501e-294
8.19318e-298
4.21285e-301
2.09939e-304
1.01819e-307
4.82129e-311
2.23465e-314
1.01592e-317
4.28849e-321
0
0
0
0
0
0
0
0
0
0
0
0
0
0
0
0
0
0
0
0
0
0
0
0
0
0
0
0
0
0
0
0
0
0
0
0
0
0
0
0
0
0
0
0
0
0
0
0
0
0
0
0
0
0
0
0
0
0
0
0
0
0
0
0
0
0
0
0
0
0
0
0
0
0
0
0
0
0
0
0
0
0
0
0
0
0
0
0
0
0
0
0
0
0
0
0
0
0
0
0
0
0
0
0
0
0
0
0
0
0
0
0
0
0
0
0
0
0
0
0
0
0
0
0
0
0
0
0
0
0
0
0
0
0
0
0
0
0
0
0
0
0
0
0
0
0
0
0
0
0
0
0
0
0
0
0
0
0
0
0
0
0
0
0
0
0
0
0
0
0
0
0
0
0
0
0
0
0
0
0
0
0
0
0
0
0
0
0
0
0
0
0
0
0
0
0
0
0
0
0
0
0
0
0
0
0
0
0
0
0
0
0
0
0
0
0
0
0
0
0
0
0
0
0
0
0
0
0
0
0
0
0
0
0
0
0
0
0
0
0
0
0
0
0
0
0
0
0
0
0
0
0
0
0
0
0
0
0
0
0
0
0
0
0
0
0.242983
0.243285
0.2436
0.243987
0.24436
0.245152
0.246064
0.24732
0.248659
0.249541
0.250159
0.250333
0.249879
0.249593
0.24943
0.249253
0.249085
0.249495
0.249372
0.24943
0.249403
0.249395
0.249153
0.248606
0.247776
0.247081
0.245922
0.0404248
0.00323838
5.99436e-06
7.73835e-09
8.36331e-12
8.17218e-15
8.13118e-18
8.39379e-21
9.25147e-24
1.00832e-26
1.09443e-29
1.18344e-32
1.21317e-35
1.27885e-38
1.26124e-41
1.27237e-44
1.25876e-47
1.25686e-50
1.26784e-53
1.2991e-56
1.33566e-59
1.34855e-62
1.34256e-65
1.31746e-68
1.26592e-71
1.20256e-74
1.17798e-77
1.1412e-80
1.15754e-83
1.16596e-86
1.22039e-89
1.28592e-92
1.37626e-95
1.50853e-98
1.64039e-101
1.81632e-104
1.98062e-107
2.18677e-110
2.37632e-113
2.61719e-116
2.8956e-119
3.51793e-122
5.39591e-125
1.30103e-127
4.4215e-130
1.73456e-132
7.07653e-135
2.87158e-137
1.18239e-139
5.15335e-142
2.2501e-144
8.56559e-147
3.14521e-149
1.13303e-151
4.03741e-154
1.45011e-156
5.22297e-159
1.90073e-161
7.04914e-164
2.49357e-166
5.32901e-171
7.84089e-176
8.75471e-181
8.03855e-186
6.48765e-191
5.66512e-196
1.06149e-199
1.40493e-202
1.97643e-205
2.71816e-208
3.79936e-211
5.18011e-214
7.11271e-217
9.53688e-220
1.28057e-222
1.68022e-225
2.20952e-228
2.86989e-231
3.74566e-234
4.85909e-237
6.37262e-240
8.40174e-243
1.12189e-245
1.49347e-248
2.01513e-251
2.78536e-254
3.87029e-257
5.22795e-260
6.84914e-263
8.75121e-266
1.09e-268
1.32315e-271
1.55926e-274
1.77137e-277
1.91287e-280
1.89844e-283
1.62637e-286
1.16523e-289
7.27892e-293
4.20147e-296
2.29823e-299
1.20694e-302
6.13144e-306
3.02805e-309
1.45884e-312
6.87449e-316
3.16686e-319
0
0
0
0
0
0
0
0
0
0
0
0
0
0
0
0
0
0
0
0
0
0
0
0
0
0
0
0
0
0
0
0
0
0
0
0
0
0
0
0
0
0
0
0
0
0
0
0
0
0
0
0
0
0
0
0
0
0
0
0
0
0
0
0
0
0
0
0
0
0
0
0
0
0
0
0
0
0
0
0
0
0
0
0
0
0
0
0
0
0
0
0
0
0
0
0
0
0
0
0
0
0
0
0
0
0
0
0
0
0
0
0
0
0
0
0
0
0
0
0
0
0
0
0
0
0
0
0
0
0
0
0
0
0
0
0
0
0
0
0
0
0
0
0
0
0
0
0
0
0
0
0
0
0
0
0
0
0
0
0
0
0
0
0
0
0
0
0
0
0
0
0
0
0
0
0
0
0
0
0
0
0
0
0
0
0
0
0
0
0
0
0
0
0
0
0
0
0
0
0
0
0
0
0
0
0
0
0
0
0
0
0
0
0
0
0
0
0
0
0
0
0
0
0
0
0
0
0
0
0
0
0
0
0
0
0
0
0
0
0
0
0
0
0
0
0
0
0
0
0
0
0
0
0
0
0
0
0
0
0
0
0
0
0
0
0
0.242666
0.242862
0.243136
0.243362
0.243495
0.243555
0.243838
0.244282
0.245199
0.246208
0.247153
0.247295
0.246849
0.246951
0.247283
0.247385
0.247669
0.247936
0.248031
0.247869
0.248111
0.248004
0.247844
0.247363
0.246612
0.245902
0.132289
0.0225337
0.00129652
1.55717e-06
1.48741e-09
1.32189e-12
1.28422e-15
1.35455e-18
1.49636e-21
1.58095e-24
1.64864e-27
1.6225e-30
1.66027e-33
1.58339e-36
1.62521e-39
1.55881e-42
1.57358e-45
1.5409e-48
1.51078e-51
1.47797e-54
1.41106e-57
1.2978e-60
1.17547e-63
1.05225e-66
9.27171e-70
8.16377e-73
7.15393e-76
6.37183e-79
5.77798e-82
5.32361e-85
5.04932e-88
4.8322e-91
4.77207e-94
4.76128e-97
4.86148e-100
4.98151e-103
5.16913e-106
5.3204e-109
5.51881e-112
5.616e-115
5.77449e-118
5.84263e-121
6.22238e-124
7.6061e-127
1.405e-129
4.13834e-132
1.54791e-134
6.17825e-137
2.46134e-139
9.88351e-142
3.93006e-144
1.5878e-146
6.14238e-149
2.32525e-151
8.56491e-154
3.10252e-156
1.13192e-158
4.10948e-161
1.51839e-163
5.52332e-166
1.64245e-170
3.3945e-175
5.19085e-180
6.2755e-185
6.40203e-190
6.04824e-195
3.52344e-199
4.41213e-202
6.30749e-205
9.22343e-208
1.3147e-210
1.90139e-213
2.68633e-216
3.81816e-219
5.33168e-222
7.42792e-225
1.01431e-227
1.37318e-230
1.83943e-233
2.46632e-236
3.30513e-239
4.46047e-242
6.03254e-245
8.17421e-248
1.10591e-250
1.52955e-253
2.16998e-256
3.06455e-259
4.20251e-262
5.59761e-265
7.25577e-268
9.16036e-271
1.12873e-273
1.35591e-276
1.5834e-279
1.78044e-282
1.88433e-285
1.79622e-288
1.438e-291
9.61812e-295
5.77555e-298
3.24425e-301
1.73802e-304
8.9746e-308
4.49565e-311
2.19402e-314
1.04629e-317
4.43671e-321
0
0
0
0
0
0
0
0
0
0
0
0
0
0
0
0
0
0
0
0
0
0
0
0
0
0
0
0
0
0
0
0
0
0
0
0
0
0
0
0
0
0
0
0
0
0
0
0
0
0
0
0
0
0
0
0
0
0
0
0
0
0
0
0
0
0
0
0
0
0
0
0
0
0
0
0
0
0
0
0
0
0
0
0
0
0
0
0
0
0
0
0
0
0
0
0
0
0
0
0
0
0
0
0
0
0
0
0
0
0
0
0
0
0
0
0
0
0
0
0
0
0
0
0
0
0
0
0
0
0
0
0
0
0
0
0
0
0
0
0
0
0
0
0
0
0
0
0
0
0
0
0
0
0
0
0
0
0
0
0
0
0
0
0
0
0
0
0
0
0
0
0
0
0
0
0
0
0
0
0
0
0
0
0
0
0
0
0
0
0
0
0
0
0
0
0
0
0
0
0
0
0
0
0
0
0
0
0
0
0
0
0
0
0
0
0
0
0
0
0
0
0
0
0
0
0
0
0
0
0
0
0
0
0
0
0
0
0
0
0
0
0
0
0
0
0
0
0
0
0
0
0
0
0
0
0
0
0
0
0
0
0
0
0
0
0
0.242975
0.243111
0.243212
0.243222
0.243234
0.243186
0.24309
0.242913
0.242774
0.242697
0.242682
0.243418
0.243787
0.244348
0.24493
0.245431
0.245856
0.246424
0.246179
0.246114
0.246013
0.245788
0.245665
0.245462
0.245089
0.244642
0.0855744
0.0120046
0.000151676
9.63046e-08
8.68358e-11
9.44199e-14
9.9425e-17
9.86055e-20
9.37147e-23
8.83694e-26
8.15118e-29
7.51593e-32
6.84601e-35
5.97789e-38
5.23709e-41
4.36367e-44
3.64222e-47
3.0207e-50
2.48524e-53
2.08387e-56
1.7448e-59
1.48815e-62
1.26207e-65
1.08298e-68
9.18635e-72
7.92133e-75
6.75021e-78
5.8982e-81
5.15065e-84
4.61451e-87
4.20842e-90
3.89754e-93
3.72657e-96
3.58657e-99
3.5446e-102
3.50503e-105
3.52457e-108
3.51157e-111
3.53388e-114
3.49146e-117
3.48448e-120
3.45912e-123
3.66555e-126
4.77689e-129
9.83199e-132
3.1064e-134
1.16989e-136
4.59053e-139
1.80744e-141
7.06472e-144
2.74292e-146
1.06354e-148
4.04619e-151
1.52805e-153
5.63855e-156
2.07662e-158
7.60824e-161
2.8193e-163
1.03809e-165
3.27882e-170
8.13728e-175
1.54847e-179
2.33207e-184
2.91232e-189
3.21857e-194
9.13561e-199
8.78231e-202
1.3393e-204
2.00932e-207
3.08027e-210
4.60543e-213
6.96762e-216
1.02836e-218
1.51979e-221
2.19783e-224
3.17472e-227
4.51668e-230
6.37966e-233
8.8936e-236
1.2335e-238
1.70891e-241
2.37498e-244
3.31084e-247
4.61803e-250
6.43085e-253
9.10811e-256
1.31151e-258
1.86947e-261
2.59419e-264
3.51074e-267
4.63333e-270
5.98033e-273
7.54209e-276
9.28082e-279
1.10885e-281
1.27587e-284
1.38993e-287
1.38823e-290
1.18522e-293
8.41557e-297
5.21769e-300
2.99166e-303
1.62712e-306
8.50616e-310
4.30708e-313
2.12276e-316
1.0154e-319
0
0
0
0
0
0
0
0
0
0
0
0
0
0
0
0
0
0
0
0
0
0
0
0
0
0
0
0
0
0
0
0
0
0
0
0
0
0
0
0
0
0
0
0
0
0
0
0
0
0
0
0
0
0
0
0
0
0
0
0
0
0
0
0
0
0
0
0
0
0
0
0
0
0
0
0
0
0
0
0
0
0
0
0
0
0
0
0
0
0
0
0
0
0
0
0
0
0
0
0
0
0
0
0
0
0
0
0
0
0
0
0
0
0
0
0
0
0
0
0
0
0
0
0
0
0
0
0
0
0
0
0
0
0
0
0
0
0
0
0
0
0
0
0
0
0
0
0
0
0
0
0
0
0
0
0
0
0
0
0
0
0
0
0
0
0
0
0
0
0
0
0
0
0
0
0
0
0
0
0
0
0
0
0
0
0
0
0
0
0
0
0
0
0
0
0
0
0
0
0
0
0
0
0
0
0
0
0
0
0
0
0
0
0
0
0
0
0
0
0
0
0
0
0
0
0
0
0
0
0
0
0
0
0
0
0
0
0
0
0
0
0
0
0
0
0
0
0
0
0
0
0
0
0
0
0
0
0
0
0
0
0
0
0
0
0
0
0.243247
0.243341
0.243356
0.243358
0.243354
0.243374
0.243409
0.24345
0.243539
0.130126
0.136108
0.243921
0.244055
0.243863
0.244023
0.243941
0.243835
0.244266
0.244398
0.244337
0.244381
0.244152
0.1546
0.0544725
0.0298938
0.0201856
0.00791568
0.000739943
9.01492e-07
8.47807e-10
7.43448e-13
6.83451e-16
6.78477e-19
6.96108e-22
6.88945e-25
6.62855e-28
6.01586e-31
5.36007e-34