/*--------------------------------*- C++ -*----------------------------------*\
| =========                 |                                                 |
| \\      /  F ield         | OpenFOAM: The Open Source CFD Toolbox           |
|  \\    /   O peration     | Version:  2.1.1                                 |
|   \\  /    A nd           | Web:      www.OpenFOAM.org                      |
|    \\/     M anipulation  |                                                 |
\*---------------------------------------------------------------------------*/
FoamFile
{
    version     2.0;
    format      ascii;
    class       volScalarField;
    location    "0.006800000";
    object      mut;
}
// * * * * * * * * * * * * * * * * * * * * * * * * * * * * * * * * * * * * * //

dimensions      [1 -1 -1 0 0 0 0];

internalField   nonuniform List<scalar> 
12384
(
0.00327906
0.00481261
0.00561867
0.00436014
0.00335911
0.00287331
0.00260544
0.00241646
0.00228969
0.00228976
0.00234472
0.00243389
0.00236036
0.00178798
0.00672074
0.00542281
0.00437827
0.0036402
0.00305498
0.00262776
0.00237973
0.00230916
0.00243855
0.00279819
0.00351695
0.00508128
0.00951226
0.0144206
0.0107222
0.00721043
0.00588534
0.00524133
0.00485435
0.00450674
0.00416527
0.0037618
0.00364265
0.00369222
0.00393641
0.00441598
0.00518333
0.00586878
0.00515927
0.00505817
0.00805332
0.00521264
0.00385577
0.00311947
0.0027318
0.00259872
0.0026231
0.00290882
0.00356525
0.00514294
0.00941192
0.0159186
0.0104556
0.0073087
0.00600898
0.00542244
0.00504494
0.00477031
0.00444247
0.00401321
0.0036335
0.00349708
0.00360931
0.00392768
0.00454446
0.00562047
0.00736436
0.00963882
0.00900522
0.00665927
0.00988102
0.00644062
0.00423535
0.00319867
0.00275156
0.00260227
0.00263492
0.00281399
0.00313711
0.00365727
0.00446541
0.00593851
0.00916914
0.0184393
0.027681
0.0186069
0.0127818
0.0102899
0.00900333
0.00813334
0.00727818
0.00635959
0.0056064
0.00549132
0.00566268
0.00609778
0.00632325
0.00565833
0.00831796
0.00992419
0.00760491
0.0093312
0.011631
0.0190663
0.0267979
0.0271042
0.0160308
0.0120367
0.0100957
0.00901892
0.00825686
0.00780112
0.00717257
0.00671154
0.00606278
0.00573241
0.00561309
0.00561518
0.00596418
0.00636616
0.00679173
0.00689949
0.00788389
0.00757782
0.00520351
0.00552507
0.00703648
0.010039
0.00974497
0.00882674
0.00476263
0.00334169
0.00268395
0.00224522
0.00190476
0.00172997
0.00170662
0.00198755
0.00255236
0.00384098
0.00666332
0.0149802
0.02326
0.0157339
0.0110495
0.00907079
0.00796171
0.00708953
0.00626771
0.00518552
0.00422167
0.00360366
0.00337334
0.00338157
0.0036307
0.00415749
0.00511781
0.00708507
0.010139
0.00977816
0.0030377
0.00175206
0.00141035
0.00149628
0.00214791
0.0039644
0.00942176
0.0197559
0.0131059
0.00959883
0.00817814
0.00741035
0.00698233
0.00649407
0.00601438
0.00534623
0.00447204
0.00394059
0.00380534
0.00389129
0.00427845
0.00500435
0.00637024
0.00891266
0.00932993
0.00444276
0.00324654
0.00303174
0.00387598
0.00858249
0.00368802
0.00381656
0.0115541
0.016888
0.0120539
0.00928072
0.00808223
0.00744114
0.00699995
0.00658349
0.00611175
0.00552951
0.00480538
0.004366
0.00423333
0.00437005
0.00473714
0.00542167
0.00654567
0.00832162
0.0110549
0.0158847
0.0124835
0.00740836
0.0053576
0.00556272
0.00745612
0.00981573
0.00960593
0.00936918
0.00808014
0.0135204
0.0113915
0.00909473
0.00800346
0.00742825
0.00704829
0.00676634
0.00628886
0.00585418
0.00560466
0.00581181
0.00658924
0.00806337
0.0114015
0.0197129
0.0251459
0.012377
0.00636218
0.00357532
0.00223441
0.00166199
0.00162831
0.00207039
0.00299213
0.00518949
0.00877503
0.00797326
0.00729175
0.00670945
0.00830521
0.00594784
0.0032074
0.00268216
0.00313987
0.00368901
0.00416353
0.00439358
0.00472276
0.00476876
0.0048639
0.00507062
0.0054627
0.00612143
0.00726518
0.00928334
0.0131459
0.02144
0.0257987
0.0221289
0.00986748
0.00440059
0.00244444
0.00207537
0.00246303
0.00346243
0.00598519
0.00948287
0.00920831
0.00924578
0.00755581
0.00566461
0.00447116
0.00436057
0.0043502
0.00437545
0.0043144
0.00434222
0.00460289
0.00540001
0.00708294
0.0102512
0.0173944
0.0296442
0.0283816
0.0181485
0.0117414
0.00818439
0.00561653
0.00373207
0.00256888
0.00217538
0.00262471
0.00394767
0.00743703
0.0115331
0.00732449
0.00550498
0.00597048
0.00848378
0.00623625
0.00638194
0.00788094
0.00404617
0.00275254
0.00234353
0.00225389
0.00237947
0.00272744
0.00340871
0.00440129
0.00517988
0.0059521
0.00700405
0.00910598
0.0146139
0.0168197
0.00722408
0.00425141
0.00312872
0.00267292
0.00245902
0.00237256
0.00252439
0.0028684
0.00353081
0.00461849
0.00646136
0.00945586
0.00968794
0.00108756
0.000790861
0.000455813
0.000290581
0.000269831
0.00071478
0.00480837
0.010151
0.00682704
0.00492117
0.00397028
0.00352384
0.00340492
0.00355615
0.00394757
0.00427022
0.00446438
0.0047556
0.00519375
0.00635703
0.00899036
0.0103061
0.00391471
0.00204839
0.00139727
0.00104028
0.000730673
0.000456237
0.000228901
7.54033e-05
0.00485677
0.00136495
0.00154317
0.00185136
0.00218426
0.00247791
0.00273072
0.00289944
0.0029878
0.00295296
0.00278689
0.00249377
0.00208334
0.00250735
0.00353493
0.00251695
0.00265735
0.00277557
0.00289738
0.00300837
0.00308935
0.00310584
0.00305305
0.0029689
0.00287493
0.00295393
0.00338294
0.00416219
0.00518729
0.00634299
0.00758127
0.00881403
0.0099313
0.0108201
0.0113862
0.0116161
0.0115634
0.0112519
0.0106814
0.00980062
0.00858119
0.00699543
0.00512672
0.00662261
0.00415656
0.00393642
0.00454721
0.00489164
0.00494192
0.00480409
0.00451862
0.00420947
0.00399165
0.00396596
0.00420585
0.00483072
0.00579284
0.00706839
0.00854055
0.0101201
0.0116596
0.0130151
0.0140989
0.0147472
0.0149432
0.0148717
0.0143983
0.0136372
0.0125531
0.0111351
0.00935995
0.00727895
0.00504447
0.0122957
0.00525747
0.00504024
0.00616923
0.0071249
0.00783727
0.00827247
0.00841191
0.008269
0.00788802
0.00733739
0.00674038
0.00633734
0.00627668
0.00675981
0.00788944
0.00944129
0.0113311
0.0134316
0.0155832
0.0175819
0.0191814
0.0202116
0.0207031
0.0207149
0.020026
0.0186629
0.0161851
0.012631
0.00849137
0.0132744
0.00331978
0.00331596
0.00406241
0.00547127
0.00695025
0.00853585
0.010297
0.0122508
0.0143256
0.0164962
0.018405
0.0204437
0.0216308
0.0229536
0.0232193
0.0234402
0.0231017
0.0223337
0.0211894
0.0193012
0.0167201
0.0131674
0.00930174
0.0050863
0.002875
0.0027664
0.00277352
0.00276677
0.0029495
0.0101945
0.00312798
0.00254586
0.00276133
0.0028929
0.00304611
0.00324843
0.00353285
0.00379769
0.0040781
0.00455922
0.00526403
0.00631358
0.00767944
0.00932476
0.0112008
0.0131917
0.0151692
0.0169799
0.0184641
0.0195726
0.0202288
0.0204039
0.0201203
0.0193574
0.0179464
0.0155797
0.0121954
0.00819137
0.00438171
0.0115392
0.00205212
0.00197692
0.00225556
0.00284026
0.00364335
0.00459644
0.00568813
0.00693903
0.00830593
0.00981201
0.0115257
0.0132299
0.015076
0.0164638
0.0180847
0.0189823
0.019579
0.0198606
0.0196145
0.0190497
0.0180102
0.0164972
0.0143366
0.0114805
0.00826841
0.0051476
0.00271394
0.00200857
0.00256314
0.00718982
0.0033609
0.00307244
0.00471491
0.00661529
0.00865515
0.0108788
0.0132811
0.0157712
0.0182142
0.0204887
0.0224484
0.0238772
0.0247362
0.0249458
0.0247267
0.0239253
0.0225419
0.0204622
0.0175059
0.0137676
0.00984462
0.00640434
0.00413792
0.00355767
0.0035061
0.00334536
0.00313428
0.00291572
0.00283778
0.0101631
0.0107933
0.0063928
0.00876094
0.0111405
0.0134896
0.0157276
0.0178015
0.0195731
0.0208289
0.021617
0.0216689
0.0214517
0.0208212
0.0194388
0.017607
0.0148508
0.0115781
0.00816906
0.00567848
0.00463658
0.00452062
0.00453527
0.00441894
0.00411564
0.00372042
0.00327351
0.00276722
0.00226272
0.00204003
0.00394051
0.00762557
0.00216912
0.00326408
0.00625893
0.00933929
0.0119514
0.0144867
0.0165879
0.0184548
0.0195894
0.0205673
0.0207082
0.0204017
0.0196578
0.0184298
0.016689
0.0144389
0.0119096
0.0094682
0.00730468
0.00582661
0.00515927
0.00495352
0.00470825
0.00424219
0.00371414
0.00318731
0.00271728
0.00254692
0.00961994
0.00513523
0.00665249
0.00961838
0.0120623
0.0142357
0.0161473
0.0176314
0.0187035
0.0191332
0.0190872
0.0187011
0.0174479
0.0156587
0.0133199
0.0108445
0.00859768
0.00698448
0.00624218
0.00609822
0.00607757
0.00599338
0.00572604
0.00528201
0.00474708
0.00420427
0.00369808
0.00312828
0.00261377
0.0024638
0.00473161
0.00763347
0.00196354
0.00404739
0.00670747
0.0091143
0.0110465
0.0123225
0.0130301
0.0132577
0.0131314
0.0125763
0.0116506
0.0103875
0.00900525
0.00762599
0.00639675
0.00538199
0.00475399
0.00469925
0.00506952
0.00567327
0.00639127
0.00690937
0.0072851
0.00734321
0.0071786
0.00668922
0.00589812
0.00485132
0.008011
0.00156381
0.00227218
0.00198726
0.00190328
0.00190757
0.00248747
0.00447349
0.00653376
0.00854862
0.0103893
0.0116795
0.0123892
0.0126521
0.0124604
0.0121074
0.0111809
0.0101052
0.00872525
0.00740185
0.00612407
0.00491733
0.00393424
0.00315117
0.00262367
0.00227576
0.00207793
0.00182453
0.0013656
0.000766321
6.02106e-05
0.00603427
0.00172246
0.00195183
0.00227277
0.00254852
0.0027509
0.00291451
0.00302415
0.00308224
0.00305972
0.00292249
0.00266983
0.00234292
0.00213925
0.00241793
0.0024215
0.00250775
0.0026542
0.00284409
0.00301654
0.00314723
0.00319199
0.00316115
0.00312217
0.00319891
0.00359806
0.00442962
0.00545944
0.00654448
0.00759907
0.00860298
0.00952633
0.0103501
0.0110123
0.011447
0.0116046
0.0114793
0.0111343
0.010592
0.00989036
0.00894655
0.00769248
0.00610722
0.00537293
0.00286725
0.00379927
0.00406166
0.00409957
0.00395662
0.00380602
0.00373266
0.00386291
0.00416421
0.00465254
0.0053316
0.00629819
0.00747271
0.00876654
0.0100463
0.0112601
0.0123801
0.013317
0.0141267
0.0145716
0.0148061
0.0145852
0.0141251
0.0134089
0.0125531
0.0114596
0.0100542
0.00828884
0.00624086
0.00969327
0.00344311
0.00532114
0.00616924
0.00683467
0.00728972
0.00755007
0.00763709
0.00757599
0.00736807
0.00720874
0.00716309
0.00731653
0.0077506
0.00864652
0.00998836
0.0115271
0.013066
0.0145188
0.0159117
0.0171796
0.0182303
0.0190489
0.0193019
0.0193561
0.01895
0.0182701
0.0167838
0.0142306
0.0106702
0.0101293
0.00329868
0.003532
0.00475059
0.00655119
0.00837059
0.010163
0.0118799
0.0135385
0.015095
0.0166687
0.0179875
0.0195098
0.0203946
0.0213908
0.021707
0.0219007
0.0217626
0.0212116
0.0205147
0.0195571
0.0179444
0.0155063
0.0122018
0.00830738
0.00433871
0.00260545
0.00265947
0.00292377
0.00334424
0.0110388
0.00253437
0.00233425
0.00240018
0.00253953
0.00282945
0.00322886
0.00365172
0.00407987
0.00461792
0.00536862
0.00639532
0.00766165
0.00905129
0.0104632
0.0119159
0.0133505
0.0147444
0.0160332
0.0171287
0.0179885
0.0185556
0.0187621
0.018661
0.0182823
0.0175464
0.0161811
0.0137582
0.0103405
0.00648051
0.00742361
0.00168777
0.00198756
0.00241688
0.00323946
0.00432824
0.00563815
0.00701748
0.00841764
0.00976637
0.0109975
0.0122358
0.0133266
0.0145437
0.0154604
0.0166973
0.0172161
0.0180416
0.0182103
0.0182485
0.0179371
0.0174501
0.0166196
0.0153293
0.0132628
0.0105486
0.00748964
0.00453469
0.00233363
0.00217336
0.00629893
0.00339496
0.00418233
0.00607778
0.00827256
0.0105422
0.0127286
0.0147465
0.0165838
0.0183031
0.0199019
0.021285
0.0222912
0.0230768
0.02347
0.0232778
0.0227808
0.0218616
0.0205718
0.0186084
0.015791
0.0123061
0.00874116
0.00565261
0.00357765
0.00271403
0.00263303
0.002993
0.00310383
0.0029183
0.0105783
0.00801874
0.00933314
0.0116927
0.013796
0.0155336
0.0169608
0.0182101
0.0192458
0.0202623
0.0207697
0.0211904
0.0207206
0.0202799
0.0196272
0.0181938
0.0162541
0.0135618
0.0102374
0.00716119
0.00504679
0.00417644
0.00375793
0.00365199
0.00375619
0.00384391
0.00370658
0.00327378
0.00265284
0.00219186
0.00277066
0.00420834
0.00285958
0.00562262
0.009391
0.0123599
0.0145655
0.0166365
0.0179275
0.0192728
0.0203295
0.0208653
0.020837
0.0205484
0.0198603
0.0188837
0.0175474
0.0157869
0.0135768
0.0111255
0.00871961
0.00657593
0.00516828
0.0043177
0.00382268
0.00356129
0.00354494
0.00340905
0.00303939
0.0026952
0.00658777
0.00247714
0.0110272
0.0135692
0.0153894
0.016884
0.0181767
0.0193023
0.0200092
0.020595
0.0204806
0.0200623
0.0192187
0.017829
0.0158095
0.0133526
0.0107111
0.00833834
0.00664555
0.00577082
0.00541404
0.00521881
0.00510599
0.00506906
0.00506042
0.00494693
0.0045766
0.00381806
0.00293172
0.00245386
0.00377903
0.00869029
0.00329336
0.00581507
0.00831998
0.0103081
0.0116796
0.0124983
0.012966
0.0131925
0.013112
0.0127404
0.0121249
0.0113283
0.0103982
0.00938168
0.00824671
0.00712838
0.00618929
0.00563169
0.00544875
0.00550758
0.0057871
0.00610222
0.00645594
0.00661398
0.0065892
0.00634106
0.00581931
0.00502431
0.00551147
0.00170971
0.00245177
0.00179586
0.00169255
0.00244679
0.00424629
0.00634505
0.00823649
0.0100177
0.0113635
0.0121455
0.0125537
0.0126979
0.0125905
0.012266
0.0116279
0.0109312
0.010033
0.00904463
0.00784689
0.00645369
0.00501293
0.0037329
0.00270519
0.0017964
0.00108783
0.000809707
0.000606655
0.000357321
2.08065e-05
0.00685006
0.00212783
0.00234894
0.00260196
0.00275048
0.00282658
0.00288665
0.00293498
0.00300327
0.00306796
0.00307067
0.00296677
0.00277941
0.00192122
0.00207485
0.00270712
0.00264044
0.00271483
0.00287562
0.00302652
0.00311143
0.00312345
0.00310852
0.00319488
0.00356737
0.00438474
0.0055019
0.00668915
0.00776476
0.00864093
0.00931535
0.00982038
0.0102129
0.0105314
0.0107431
0.0108883
0.0108616
0.010741
0.0103988
0.009992
0.00939066
0.0085129
0.00722591
0.00451122
0.00241987
0.00406957
0.00394652
0.00361832
0.00323338
0.00305503
0.00322404
0.00374342
0.00447263
0.00537777
0.00643608
0.00768383
0.00905704
0.0103435
0.0113713
0.0120693
0.0125908
0.0129273
0.0133007
0.013534
0.0136449
0.0136464
0.0134185
0.0129859
0.0123801
0.011666
0.0106887
0.00930382
0.00748971
0.00704753
0.00280667
0.00600789
0.00639734
0.00664457
0.00674236
0.00673853
0.0066877
0.00665358
0.00673054
0.00700633
0.00755429
0.00830403
0.00919174
0.0104292
0.0119535
0.0134856
0.0146768
0.0154256
0.0158432
0.0161443
0.0164524
0.0167509
0.0171695
0.0172978
0.0174998
0.017568
0.0170652
0.0154783
0.0125082
0.007966
0.00510464
0.00412393
0.00546482
0.00751999
0.00960137
0.0115632
0.0132664
0.0146323
0.0156202
0.0164883
0.0171679
0.0179995
0.0184116
0.0190723
0.0194819
0.0196451
0.0195911
0.0195881
0.0194191
0.0192267
0.0186241
0.0171765
0.0144994
0.010866
0.0067531
0.00328892
0.00251443
0.00296541
0.00362262
0.00849789
0.00242232
0.00257323
0.00246751
0.0025304
0.00283633
0.0032787
0.00372314
0.00424186
0.00501037
0.00608888
0.00742103
0.00893423
0.0104253
0.0117164
0.0127598
0.0135736
0.0142022
0.014742
0.0152447
0.0156943
0.0160804
0.0164141
0.0166288
0.0168067
0.0168062
0.0163446
0.0148785
0.0121158
0.00839058
0.00531601
0.00156056
0.00236445
0.00278003
0.00366789
0.00498665
0.00657202
0.00822351
0.00983288
0.011231
0.0122041
0.0129592
0.0132955
0.0137226
0.0140226
0.0145521
0.014887
0.0153699
0.0157958
0.0159993
0.0162518
0.0163571
0.016248
0.0157695
0.0144872
0.0122927
0.00945756
0.00643
0.00370773
0.00224949
0.00603833
0.00371842
0.00503558
0.00717524
0.00968912
0.0121943
0.0143104
0.0158753
0.0169549
0.017753
0.0183757
0.0190247
0.0197136
0.0202615
0.0205573
0.0207917
0.0208168
0.0205524
0.0201333
0.0191387
0.0173381
0.0145388
0.0111572
0.007843
0.00504008
0.00313152
0.00261847
0.00321792
0.0033724
0.00298546
0.0107996
0.00625465
0.0120288
0.0140521
0.0155547
0.0164553
0.0169699
0.0174025
0.0178013
0.0180336
0.018447
0.01879
0.0190376
0.0187375
0.0186464
0.018312
0.0171073
0.0152667
0.0124888
0.00930202
0.00647771
0.00470643
0.00370957
0.00344211
0.00386872
0.00433253
0.00433671
0.00380839
0.0030471
0.00238378
0.0020673
0.0027008
0.00450074
0.00829551
0.0119309
0.0143661
0.0158667
0.0170131
0.017504
0.0182734
0.0186785
0.0189242
0.0191523
0.0191973
0.0190045
0.0185154
0.0178098
0.0167835
0.0152339
0.0131399
0.01072
0.00830246
0.00613163
0.00457493
0.00366476
0.00359217
0.00390533
0.00386488
0.00339545
0.00287535
0.00423506
0.00236149
0.0147613
0.0164806
0.0173824
0.0178759
0.0182347
0.0188128
0.019382
0.0197621
0.0201793
0.0202737
0.0198735
0.0192632
0.0178533
0.0159406
0.013453
0.0108505
0.00851919
0.00674887
0.00565385
0.00505149
0.00485075
0.00509011
0.00555178
0.00580851
0.00551667
0.00457373
0.00334139
0.00259446
0.00368998
0.00497164
0.00465174
0.0072754
0.00959679
0.0111714
0.011997
0.0123367
0.0124436
0.0124174
0.0123764
0.0122027
0.012041
0.0117954
0.0114104
0.0107481
0.00983216
0.00868059
0.00755
0.00666274
0.00603632
0.00547565
0.00514614
0.00506846
0.00532073
0.00563702
0.00594899
0.00610554
0.00598519
0.00559347
0.00446857
0.00187227
0.00246008
0.00180757
0.00234371
0.00388802
0.00603012
0.00804206
0.00988822
0.0112944
0.0120206
0.0122666
0.0122277
0.0121319
0.011982
0.0117509
0.0115147
0.011373
0.0110098
0.0105206
0.00942677
0.00794655
0.00608099
0.00437628
0.00294931
0.00176588
0.00075918
0.00036975
0.000285662
0.000207702
9.03605e-06
0.00746477
0.00244204
0.00262069
0.00277446
0.00283379
0.00282921
0.00277412
0.00273385
0.00277493
0.00292471
0.00313505
0.00328173
0.00328391
0.00182714
0.00200063
0.00310925
0.00285975
0.00277376
0.00284395
0.00292686
0.00295959
0.00294433
0.00297728
0.00327718
0.00400894
0.00516811
0.0064635
0.00770347
0.00872994
0.00936947
0.00962829
0.00963377
0.00949299
0.00937948
0.00938467
0.0094824
0.00961307
0.0098234
0.00990365
0.00991752
0.00975012
0.00932169
0.00840456
0.00398511
0.00233339
0.00446926
0.00405156
0.00336706
0.00270283
0.0024852
0.00286123
0.00370389
0.00477906
0.00604403
0.00738178
0.00886357
0.010377
0.0116379
0.0123171
0.0124311
0.0122472
0.0119082
0.0117054
0.0116283
0.0117424
0.0119153
0.0120625
0.0120941
0.0119796
0.0116463
0.0111342
0.0101989
0.0087405
0.00580539
0.00254619
0.00681787
0.00672461
0.00649072
0.00616131
0.00583736
0.00559675
0.0056
0.00597673
0.00673366
0.00779764
0.00909953
0.0104395
0.0118815
0.0135029
0.0150725
0.0159849
0.0161015
0.0156096
0.0148592
0.0141352
0.0137585
0.0140402
0.0148496
0.0157177
0.0165911
0.0170663
0.0164099
0.0141133
0.00673371
0.00748077
0.00455478
0.00603309
0.00831231
0.0105999
0.0127567
0.0144818
0.0156096
0.0159927
0.0161839
0.0159179
0.0159686
0.01572
0.0161146
0.016178
0.0165316
0.0169763
0.0174078
0.0178065
0.018341
0.018613
0.0180688
0.0161383
0.0127652
0.0087094
0.00471093
0.00255467
0.00290827
0.00378333
0.00682123
0.00255543
0.00290754
0.00265014
0.00260122
0.00285562
0.00324189
0.0036966
0.00427332
0.00522395
0.00655747
0.00820646
0.00990895
0.0115143
0.0127733
0.0135291
0.0137799
0.0136945
0.0134138
0.0131213
0.0129344
0.0130843
0.0135564
0.0142435
0.0149934
0.015769
0.0161715
0.0155754
0.0135117
0.0100869
0.00436522
0.00156817
0.00283422
0.00313857
0.00403512
0.00549845
0.00730056
0.0092672
0.0110651
0.01259
0.0133609
0.0137556
0.0133294
0.012941
0.0123361
0.0121924
0.0120236
0.0122132
0.0127633
0.0134887
0.0140979
0.0148458
0.0153295
0.0156629
0.0149946
0.0134533
0.0108744
0.0079383
0.00499904
0.0027891
0.0065299
0.00437506
0.00561359
0.00801268
0.0108624
0.0136169
0.0156327
0.0167881
0.017015
0.0167572
0.016278
0.0160694
0.016057
0.0162535
0.0168572
0.0173743
0.0180757
0.01853
0.0190258
0.0189087
0.0180914
0.016004
0.0129711
0.00960312
0.00653197
0.00417626
0.00327152
0.00365288
0.00359291
0.00302402
0.00720606
0.00572227
0.0141179
0.0156308
0.0164576
0.0165682
0.0161297
0.0155798
0.0151643
0.0151232
0.0150816
0.0153346
0.0160048
0.0166538
0.0170184
0.017519
0.0174505
0.0163693
0.0141541
0.0111707
0.0080077
0.00565424
0.00421024
0.0038665
0.00447176
0.00499224
0.0049007
0.00418033
0.00327795
0.002557
0.0016895
0.00205066
0.00636478
0.0104989
0.0136178
0.0153027
0.0160067
0.0161827
0.0158114
0.0157477
0.0153419
0.0156369
0.0159217
0.0162754
0.0166902
0.0171036
0.01724
0.0170211
0.0162548
0.0147292
0.0125073
0.00990282
0.00736772
0.00521049
0.0040725
0.0040863
0.00443396
0.00428021
0.0036302
0.00300905
0.00318338
0.00311074
0.0176253
0.0182859
0.0180943
0.0175523
0.0169852
0.0168169
0.0171282
0.0176837
0.018156
0.0189244
0.0192401
0.0194973
0.0188918
0.017761
0.0158155
0.0133515
0.0107722
0.008335
0.00648096
0.00530513
0.00483985
0.00517509
0.00597154
0.00653833
0.00636225
0.00534197
0.00387325
0.00288934
0.004255
0.00377238
0.00576221
0.00840142
0.0105071
0.0116584
0.0119548
0.0117028
0.0112904
0.010996
0.010853
0.0110129
0.0113631
0.0117224
0.0118415
0.0116422
0.0109529
0.00982338
0.00859201
0.00759892
0.00668435
0.00565109
0.00469724
0.0040136
0.00393424
0.00445694
0.00521566
0.00585354
0.00622125
0.00622663
0.00395502
0.00216343
0.00252171
0.00228366
0.00327238
0.0051405
0.00737167
0.00942244
0.0111294
0.0120773
0.0122499
0.011885
0.0113758
0.010854
0.0105228
0.0106219
0.0108064
0.0113928
0.0116041
0.0116408
0.0107842
0.00925696
0.00707639
0.00497659
0.00322188
0.00189929
0.000753937
0.0002685
0.000199235
0.000180243
6.72307e-06
0.00786359
0.00267308
0.00279224
0.00290148
0.00291109
0.00280654
0.0026245
0.00246408
0.00245644
0.00271377
0.00317438
0.00359029
0.00381876
0.00179112
0.00207033
0.00354077
0.00311674
0.00283417
0.0027776
0.00277598
0.00275371
0.00272157
0.00285735
0.00341273
0.00447402
0.0058237
0.00719642
0.0084626
0.00938711
0.00976662
0.00960832
0.00911201
0.00846421
0.00788224
0.00753764
0.00759753
0.00799063
0.00860413
0.00920838
0.0097413
0.0100493
0.0100987
0.00959158
0.00360777
0.00250196
0.00478925
0.00425918
0.00333769
0.00241239
0.00209279
0.00257939
0.00365898
0.00502605
0.00653327
0.00809597
0.00971369
0.0113525
0.0125361
0.012884
0.0124368
0.0115089
0.0104345
0.00963927
0.00914922
0.00924406
0.00971753
0.010321
0.0109023
0.011321
0.0115042
0.0114289
0.0109453
0.00992787
0.00510378
0.00239369
0.00754925
0.00709386
0.0064156
0.00565336
0.0049668
0.00452163
0.00453057
0.00516504
0.00634556
0.0079114
0.0096256
0.0113098
0.0128803
0.0145398
0.016126
0.0168509
0.016461
0.0150489
0.0131745
0.0112995
0.0101599
0.0105921
0.0120117
0.0139188
0.0156449
0.0170164
0.0171896
0.0154516
0.00574802
0.009243
0.00476104
0.00642371
0.00889055
0.0113855
0.0137318
0.0155385
0.0163924
0.0163681
0.0157984
0.0145952
0.0135854
0.0127676
0.0124772
0.0124261
0.0131323
0.0139231
0.0150065
0.0159961
0.0172526
0.018109
0.0184725
0.0171052
0.0141568
0.0101129
0.00602649
0.00302219
0.00283011
0.00384107
0.00637656
0.00301457
0.00328334
0.00291474
0.002743
0.00289057
0.00318412
0.00358127
0.00423343
0.00528572
0.00677371
0.00861791
0.010576
0.0122892
0.0135836
0.0141989
0.014024
0.0131899
0.0120161
0.0107876
0.00986441
0.00967385
0.0104079
0.0116944
0.0130851
0.0146567
0.0158397
0.0160289
0.0145697
0.0115274
0.00377781
0.0016839
0.00335118
0.00343879
0.00427647
0.00578609
0.00779037
0.00999959
0.0120334
0.0136502
0.0144023
0.014552
0.0135534
0.0124314
0.0109263
0.00989021
0.00900596
0.0089471
0.00959285
0.0106156
0.0118937
0.013131
0.0142888
0.0151235
0.0151333
0.0140269
0.0118701
0.00899046
0.00599966
0.00339489
0.00762345
0.00527125
0.00598516
0.00867584
0.0118124
0.0147455
0.0167326
0.0174659
0.0169053
0.0157177
0.0142236
0.0130003
0.0120825
0.0118906
0.0124729
0.0135987
0.0150372
0.0162254
0.0175775
0.0181607
0.0181961
0.0167165
0.0140611
0.0107182
0.00746172
0.00490577
0.0038318
0.00390831
0.00364174
0.0029768
0.00462305
0.0058138
0.0153754
0.0164978
0.0167864
0.0161473
0.0148946
0.0135478
0.0122495
0.0114353
0.0111985
0.0116861
0.0126148
0.0140082
0.0152785
0.0164694
0.0172272
0.0171024
0.0153307
0.0124579
0.00915764
0.00639863
0.00470312
0.00431367
0.00496322
0.0054557
0.00518131
0.00426235
0.00326359
0.00261738
0.00154582
0.00194889
0.00809697
0.0121019
0.0146943
0.0158006
0.0157355
0.0150794
0.0137565
0.0127413
0.0117701
0.011478
0.0115962
0.0124808
0.013694
0.0149755
0.0161032
0.0168204
0.0168617
0.0158863
0.0138568
0.0111246
0.00822349
0.0057265
0.00446408
0.00447092
0.0047448
0.00447561
0.00370179
0.00305572
0.0029095
0.00469447
0.0194285
0.0191253
0.0180206
0.0165709
0.0153096
0.0143105
0.0137868
0.0142272
0.0151646
0.0163715
0.0175859
0.0187326
0.0190705
0.0187752
0.017585
0.0154891
0.0129082
0.0100854
0.00759496
0.00583303
0.00496569
0.00520309
0.00621569
0.00707214
0.0070817
0.00612526
0.00456663
0.00344414
0.00611465
0.00326734
0.00665011
0.00918954
0.011069
0.0118323
0.0116011
0.0107917
0.0097924
0.00891788
0.00864049
0.00916049
0.0101661
0.0111379
0.0118343
0.0119826
0.0115266
0.010456
0.00924284
0.00819035
0.00720647
0.00605263
0.00473647
0.00341734
0.00272536
0.00339865
0.00461005
0.00573114
0.00646857
0.00673197
0.00363373
0.00278575
0.0026501
0.00274447
0.00395071
0.00598865
0.00831605
0.0104077
0.0119257
0.0124302
0.0120053
0.0110761
0.00992018
0.00896329
0.0084824
0.0088086
0.00973295
0.01091
0.0119194
0.012394
0.0118303
0.0103325
0.00790863
0.00548769
0.00347379
0.00204635
0.000891752
0.000303407
0.000211237
0.000215895
8.08979e-06
0.00793296
0.00277584
0.00288687
0.00299642
0.00296661
0.00277279
0.00244899
0.00213456
0.00208931
0.00250999
0.00322434
0.00392568
0.00432517
0.0018078
0.00228449
0.00394546
0.00342934
0.00293053
0.0026824
0.002578
0.00250712
0.00249419
0.00276299
0.00355499
0.00483193
0.00626381
0.00764957
0.00892512
0.00976275
0.00988574
0.00942578
0.00850898
0.00737107
0.00627985
0.00551916
0.0054838
0.00626335
0.00739413
0.00850002
0.00956842
0.0103233
0.0108063
0.0106629
0.00323979
0.00298674
0.00505728
0.00453754
0.00359658
0.0024932
0.00195209
0.00242556
0.00362878
0.00515739
0.00681594
0.00848249
0.0102005
0.0119225
0.0130461
0.0131284
0.0122358
0.010669
0.00887012
0.00734846
0.0064093
0.00651319
0.00749233
0.00866972
0.00972567
0.010618
0.0112843
0.0116986
0.0116702
0.0110191
0.00458408
0.00224233
0.008075
0.00746832
0.00651045
0.0053707
0.00433786
0.00367697
0.00365072
0.00448096
0.0059755
0.00790106
0.00991982
0.0117427
0.0133093
0.0149834
0.0166245
0.0173077
0.0165695
0.0145115
0.0117302
0.00849369
0.00654863
0.00749764
0.00983308
0.0125637
0.0150525
0.0171383
0.0178744
0.0164514
0.00460754
0.00969569
0.00489047
0.00676387
0.00932277
0.0119652
0.014483
0.016336
0.0170784
0.0167872
0.015554
0.0134656
0.0115918
0.00971919
0.00848415
0.0083168
0.00937842
0.0109573
0.0125192
0.0143518
0.0160474
0.0176424
0.0184835
0.0177651
0.0150333
0.0110427
0.00687619
0.00362939
0.00285653
0.00387746
0.00702851
0.00398456
0.00360659
0.00320242
0.00295082
0.00297566
0.0031511
0.00347824
0.00410874
0.00524825
0.00681635
0.00871881
0.0107486
0.0126332
0.0138962
0.0143751
0.014043
0.0128898
0.0110816
0.00888928
0.00692587
0.00644822
0.00759803
0.00951318
0.0115335
0.0137055
0.0154803
0.0162801
0.0153484
0.0127438
0.00336763
0.00198857
0.00384307
0.00363975
0.00431787
0.00583761
0.0079616
0.0103709
0.0125756
0.0143607
0.0151666
0.0152489
0.0140075
0.0123744
0.0101888
0.00811201
0.00628548
0.00586028
0.00675828
0.00827849
0.00996225
0.0117236
0.0132378
0.0145655
0.0149168
0.0143314
0.0124001
0.00974727
0.00666993
0.00397685
0.0083807
0.00649671
0.00625394
0.00907513
0.012453
0.0155888
0.0175067
0.0179416
0.016839
0.0150928
0.012531
0.0102298
0.00834165
0.00739972
0.00826282
0.0100717
0.0121258
0.0140756
0.0160421
0.0172671
0.0178698
0.0169018
0.0145234
0.0111901
0.00775729
0.0050938
0.00388055
0.00381767
0.00359897
0.00312233
0.00423913
0.00653689
0.0158521
0.016988
0.0168495
0.0158272
0.0139245
0.011924
0.00984746
0.00813446
0.00714059
0.00783785
0.00952291
0.0116918
0.0135506
0.015626
0.0169433
0.0173283
0.0161265
0.0132694
0.0097818
0.00684685
0.00496185
0.0044674
0.00520082
0.00588578
0.00563574
0.00458271
0.00339214
0.00279716
0.00177675
0.00275493
0.00974167
0.0134742
0.0157191
0.0164899
0.0158284
0.0145162
0.0124242
0.0107565
0.00886281
0.00774823
0.00759399
0.0088974
0.0109388
0.0131031
0.015059
0.016449
0.0171244
0.0166836
0.0148203
0.0119196
0.00865564
0.00590812
0.00456078
0.00478631
0.00532869
0.00516364
0.00432762
0.00353796
0.00347605
0.00720036
0.0202616
0.0193298
0.0176583
0.0155772
0.0135669
0.0117407
0.0105655
0.0103212
0.0115072
0.0134502
0.0153124
0.0174706
0.018636
0.0191917
0.018709
0.0171679
0.0146863
0.0117165
0.00877667
0.0065047
0.0051797
0.00514738
0.00623952
0.00735863
0.00763031
0.00684987
0.0053101
0.00414723
0.0133606
0.00296765
0.00733953
0.00974992
0.0114358
0.011888
0.0112002
0.00987937
0.00824173
0.00673593
0.00597226
0.00693439
0.00866336
0.0103286
0.011485
0.0119103
0.0116026
0.010614
0.0093456
0.00834907
0.00750776
0.00649918
0.00530976
0.00397272
0.00301996
0.00341539
0.00461581
0.00579914
0.00663866
0.00706151
0.0035421
0.00427428
0.00272475
0.00302762
0.00429277
0.00643108
0.00888355
0.011054
0.0123586
0.0124728
0.0116249
0.0101527
0.00840255
0.00675601
0.00606734
0.00688048
0.00860239
0.0103719
0.0120042
0.0128437
0.0125647
0.0110827
0.00853816
0.00587565
0.00365383
0.00217721
0.00110664
0.00043939
0.000319283
0.000350802
1.83118e-05
0.00595067
0.00280827
0.0029757
0.00309601
0.00299786
0.00266833
0.00220666
0.00180635
0.00177653
0.00237023
0.00334269
0.00423374
0.00473437
0.00186106
0.00269796
0.00428519
0.0037576
0.00309652
0.00261282
0.00237907
0.0022718
0.00229648
0.00269833
0.00364611
0.00502406
0.00645219
0.00782293
0.00909827
0.00986516
0.00984715
0.00921606
0.00802558
0.00649834
0.00487267
0.00358048
0.00344489
0.00477183
0.00641308
0.00797382
0.00946651
0.0106003
0.0113881
0.0115608
0.00274327
0.00403519
0.00513783
0.0047515
0.00399042
0.00291542
0.00214917
0.00243084
0.00359399
0.00514203
0.00682135
0.00851905
0.0102488
0.0120987
0.0131802
0.0131817
0.0119421
0.0100828
0.00769878
0.005523
0.00394242
0.00421798
0.00571791
0.00732855
0.00884896
0.0101361
0.0111566
0.0118507
0.0121843
0.0119023
0.00410493
0.00243808
0.00838271
0.0077876
0.00679066
0.00554901
0.00429503
0.00344411
0.00338622
0.00431655
0.0059283
0.00790461
0.00991559
0.0116391
0.0131219
0.0147967
0.0165257
0.017267
0.0164754
0.0141829
0.0108558
0.00690147
0.0044665
0.0057327
0.00859226
0.0119283
0.0150338
0.0174802
0.018461
0.0170441
0.00359694
0.00888598
0.00512773
0.00705249
0.00961126
0.0122766
0.0148635
0.016797
0.0176778
0.0171612
0.015587
0.0131041
0.0106133
0.00766376
0.00540955
0.00471089
0.00640311
0.00852597
0.010748
0.0129831
0.0153339
0.0171755
0.0185284
0.0180458
0.0155402
0.0114796
0.00738848
0.00412205
0.00304374
0.00398874
0.00870803
0.00647672
0.0038827
0.00348484
0.00321841
0.00311652
0.00317915
0.00340067
0.00397141
0.00509295
0.00670696
0.00863564
0.0106161
0.0125634
0.013968
0.0144385
0.0139427
0.0125648
0.0105437
0.00795796
0.00536378
0.00445848
0.00571752
0.00799246
0.0104396