/*--------------------------------*- C++ -*----------------------------------*\
| =========                 |                                                 |
| \\      /  F ield         | OpenFOAM: The Open Source CFD Toolbox           |
|  \\    /   O peration     | Version:  2.1.1                                 |
|   \\  /    A nd           | Web:      www.OpenFOAM.org                      |
|    \\/     M anipulation  |                                                 |
\*---------------------------------------------------------------------------*/
FoamFile
{
    version     2.0;
    format      ascii;
    class       volScalarField;
    location    "0.006800000";
    object      O2;
}
// * * * * * * * * * * * * * * * * * * * * * * * * * * * * * * * * * * * * * //

dimensions      [0 0 0 0 0 0 0];

internalField   nonuniform List<scalar> 
12384
(
0.0131175
0.0146469
0.0150995
0.0150166
0.0146816
0.0141078
0.013111
0.0123453
0.0115008
0.0107865
0.0102816
0.010088
0.00991016
0.00783571
0.0304531
0.0273828
0.0286136
0.0302604
0.0315192
0.0318375
0.0315157
0.0303676
0.028708
0.0271195
0.0258195
0.0248364
0.0238122
0.0225675
0.0212081
0.0198498
0.0186279
0.017502
0.0167363
0.0160297
0.0153468
0.0148476
0.0145324
0.0144659
0.0149553
0.0162413
0.019434
0.0251051
0.0338274
0.0423835
0.0109877
0.00530341
0.00365918
0.00338634
0.00314883
0.00287722
0.00254962
0.00220634
0.00186811
0.00160033
0.00138583
0.00128926
0.0012773
0.00132953
0.00143201
0.00152283
0.00164074
0.00164178
0.00170614
0.00154875
0.00151012
0.00146555
0.00135762
0.0012004
0.00107152
0.0010363
0.00122017
0.00230185
0.00546047
0.00655045
0.00211766
0.0021096
0.00207663
0.00182544
0.0016167
0.00132711
0.00109243
0.000913942
0.000767941
0.000668664
0.000484968
0.000478887
0.000492914
0.000546024
0.000640867
0.000768488
0.000894025
0.00104483
0.00117152
0.00125922
0.00131515
0.00143455
0.0014796
0.00152323
0.00155063
0.00154252
0.00181671
0.00226359
0.00198015
0.00169895
0.000448834
0.000539404
0.000573808
0.000634972
0.000645604
0.000635861
0.000616073
0.00062316
0.0005838
0.00058353
0.000531896
0.000536705
0.000504221
0.000527016
0.00027712
0.000183482
0.000351646
0.000365083
0.000406437
0.000619907
0.000759617
0.000992862
0.00136319
0.00120203
0.000863614
0.000652296
0.000503477
0.000426717
0.000626303
0.0010085
3.40309e-05
5.1697e-05
6.90188e-05
6.99125e-05
5.91602e-05
6.24732e-05
5.96599e-05
6.90225e-05
6.52328e-05
7.37414e-05
7.69312e-05
8.42831e-05
8.16551e-05
8.73288e-05
9.1971e-05
9.57317e-05
9.72562e-05
9.72332e-05
9.719e-05
9.60882e-05
9.7406e-05
9.57904e-05
9.79467e-05
9.08118e-05
9.16996e-05
8.83736e-05
8.51647e-05
0.000112538
-2.09546e-06
0.000117253
0.000919976
0.000807006
0.000119588
0.000221054
0.000152773
8.65118e-05
0.000101597
0.00011954
0.000176125
0.000184189
0.000187459
0.000205827
0.000203059
0.000193646
0.000200814
0.000173057
0.000172967
0.000178255
0.000167285
0.000159159
0.00016089
0.000156724
0.00015551
0.000197752
0.00508559
0.0159458
0.0165499
0.0156791
0.0148544
0.014799
0.000336047
1.3438e-05
7.78523e-05
5.70494e-05
5.34409e-05
5.12756e-05
4.80831e-05
4.39407e-05
5.50407e-05
4.82573e-05
4.17852e-05
4.54822e-05
4.11002e-05
4.59269e-05
4.6978e-05
5.54013e-05
4.77445e-05
5.79433e-05
5.1963e-05
6.13266e-05
9.42905e-05
8.40718e-05
6.68734e-05
-1.19463e-05
0.000116373
0.000111487
0.000109349
0.000107335
0.000113702
0.000120958
0.000210149
0.000146824
0.000164439
0.000176104
0.000184151
0.000189746
0.000192549
0.000194788
0.000208389
0.000243156
0.000228693
0.000231955
0.000220709
0.000233017
0.000211089
0.000222845
9.78277e-05
1.619e-05
1.48499e-05
1.50813e-05
1.78173e-05
2.04697e-05
2.41561e-05
2.77019e-05
2.77155e-05
2.8607e-05
2.65269e-05
2.28583e-05
1.11191e-05
1.11387e-06
0.000101936
7.59858e-05
7.2255e-05
7.51134e-05
7.79824e-05
8.25315e-05
1.35577e-05
4.03901e-05
4.02207e-05
6.29807e-05
0.000104247
0.000116581
0.000134746
0.000112782
0.000134748
0.0001529
0.000159225
0.000146917
1.83679e-05
3.38219e-05
1.85172e-05
2.04034e-05
2.12321e-05
2.03966e-05
2.11628e-05
2.06796e-05
2.63279e-05
1.58104e-05
2.05642e-05
1.72757e-05
1.53268e-05
1.21614e-05
1.58975e-05
1.23244e-05
1.31765e-05
1.83208e-05
1.79667e-05
1.69156e-05
1.25857e-05
1.3396e-05
1.06324e-05
1.50796e-05
9.39259e-06
1.36731e-05
1.74704e-05
1.74555e-05
1.01641e-05
5.48229e-06
5.14628e-06
5.95149e-06
7.05106e-06
7.82011e-06
8.47703e-06
8.70597e-06
8.61311e-06
8.43416e-06
8.00227e-06
7.1874e-06
5.84789e-06
6.72707e-06
2.1955e-05
2.91651e-05
3.22598e-05
2.38064e-05
1.50447e-05
7.08048e-06
6.50536e-06
6.25917e-06
6.18472e-06
5.2418e-06
4.60062e-06
2.83362e-06
1.83255e-06
1.79169e-07
7.50924e-06
5.58973e-06
4.84542e-06
1.69249e-06
8.55727e-06
5.97855e-06
5.96477e-06
9.44471e-06
1.00751e-05
1.17723e-05
1.36858e-05
1.69977e-05
2.22037e-05
2.72334e-05
2.85823e-05
2.47444e-05
4.8599e-06
3.24016e-06
2.14044e-06
2.17397e-06
5.21369e-06
1.795e-05
0.00193846
1.30991e-05
6.78941e-07
6.6911e-07
6.52911e-07
6.31819e-07
6.293e-07
4.97336e-07
5.21862e-07
5.3464e-07
6.08067e-07
6.26595e-07
6.93457e-07
7.35533e-07
7.81628e-07
8.48125e-07
8.95033e-07
1.55339e-06
1.6303e-06
2.4727e-06
1.94932e-06
2.00262e-07
2.62969e-07
2.44711e-07
0.019699
0.0201947
0.0207547
0.0215842
0.0214421
0.0203903
0.0187835
0.0171094
0.0147953
0.0120606
0.0100728
0.00901173
0.00933879
0.00793992
0.0302356
0.0274824
0.0299608
0.0321151
0.0325058
0.0309652
0.0286268
0.0268139
0.0263435
0.0270031
0.0267076
0.0252808
0.0231272
0.0206793
0.0187886
0.0175743
0.017116
0.0169324
0.016775
0.0163469
0.015543
0.0142523
0.0127676
0.0115347
0.0108652
0.0116363
0.0143975
0.0202026
0.0292994
0.0384895
0.0105009
0.00517874
0.00388485
0.00380801
0.00346614
0.00282938
0.00208467
0.00156359
0.00125758
0.00108366
0.00102564
0.00119945
0.0015007
0.00215939
0.0028287
0.00338914
0.00380174
0.00410673
0.00418695
0.00412577
0.00384028
0.00343019
0.00291903
0.00228033
0.00163462
0.00126391
0.00114506
0.0016097
0.00322993
0.00600427
0.00215594
0.00208079
0.00186801
0.00142216
0.00107795
0.000728717
0.000551486
0.000482529
0.000356004
0.000389854
0.000361114
0.000355013
0.000338585
0.000351336
0.000570999
0.000917275
0.00133134
0.00174203
0.00210099
0.00237359
0.00255366
0.00271684
0.00267631
0.00259469
0.00241026
0.00206334
0.00193327
0.00209155
0.00218089
0.00197891
0.000420122
0.000487293
0.000575351
0.00062732
0.000607493
0.000597869
0.000559154
0.000521381
0.000520891
0.00050673
0.000495837
0.000510466
0.00048062
0.000494717
0.000475657
0.000184681
0.000289201
0.000260091
0.000421221
0.000460289
0.000749019
0.000855576
0.00114716
0.00125054
0.000472042
0.000473759
0.000440348
0.000391098
0.000362509
0.000389073
3.46177e-05
5.41149e-05
6.78761e-05
5.89404e-05
5.07702e-05
5.48783e-05
6.62689e-05
6.70528e-05
7.45769e-05
7.09744e-05
7.40021e-05
7.84742e-05
8.41064e-05
8.4028e-05
9.14793e-05
9.79003e-05
0.000102935
9.78821e-05
9.9678e-05
0.000100763
0.000101597
0.000102135
0.000103046
0.000104259
0.000103368
9.66107e-05
8.85318e-05
9.58769e-05
0.000116924
0.00011657
0.000854642
0.000254236
0.000185199
1.05552e-05
7.09071e-05
8.47813e-05
0.000172345
0.00026169
0.000298272
1.8967e-05
0.000316929
0.00032271
0.000254327
0.000312974
0.000221192
0.000248934
0.000160291
5.43692e-05
0.000238535
0.000217223
0.000196935
0.000176563
0.000158954
0.000164635
0.00067851
0.00608942
0.0155743
0.0133588
0.00917078
0.0092691
5.19979e-05
4.69888e-05
4.65539e-05
4.65791e-05
4.57858e-05
4.37965e-05
4.09405e-05
3.56268e-05
4.44852e-05
3.75269e-05
3.323e-05
2.93265e-05
2.68526e-05
2.68759e-05
3.27934e-05
3.87305e-05
4.72205e-05
4.18759e-05
5.38254e-05
5.12567e-05
7.30228e-05
0.000117877
6.66537e-05
-4.70507e-05
0.000111214
0.000112351
0.000106985
9.63979e-05
8.77633e-05
7.70882e-05
0.000150355
0.00016426
0.000187463
0.000216782
0.000248315
0.000307677
0.000326875
0.000347705
0.00035507
0.000372477
0.00036512
0.000348139
0.000355048
0.000335921
0.000298078
0.000289408
0.000218294
0.000108061
1.98369e-05
1.8637e-05
2.38841e-05
2.5186e-05
2.93694e-05
3.135e-05
1.89736e-05
2.81453e-05
4.35993e-05
3.80992e-05
1.28368e-05
2.17039e-05
0.000173177
-3.63462e-05
8.78466e-05
-3.97733e-05
1.94796e-05
9.52138e-05
0.000163641
0.000170398
0.000203293
0.000211608
0.000207152
0.000223401
0.000219522
0.000193806
0.000193675
0.000195987
0.000166189
0.000165942
0.000112451
5.20821e-05
2.14814e-05
2.23391e-05
2.46987e-05
2.41769e-05
3.31056e-05
3.53478e-05
3.2857e-05
1.91448e-05
1.68306e-05
1.39388e-05
1.0952e-05
1.68547e-05
2.68278e-05
3.29136e-05
3.78734e-05
3.81283e-05
3.70721e-05
3.6987e-05
3.31187e-05
2.79344e-05
2.77763e-05
1.94968e-05
2.07616e-05
1.50785e-05
1.82659e-05
1.80814e-05
1.3305e-05
5.86218e-06
5.14488e-06
6.52876e-06
8.04673e-06
1.01057e-05
1.04574e-05
1.03074e-05
9.88859e-06
9.71768e-06
9.61456e-06
9.89932e-06
7.16392e-06
5.02981e-06
1.30775e-05
2.45621e-05
2.65869e-05
1.99775e-05
8.77431e-06
1.04091e-05
3.08827e-06
5.31998e-06
5.62766e-06
5.6839e-06
1.25301e-05
9.79409e-06
6.03088e-06
1.0792e-05
7.91528e-06
6.79299e-06
1.20503e-05
1.2054e-05
1.21448e-05
1.69368e-05
1.75163e-05
1.66404e-05
1.50973e-05
1.32547e-05
1.30037e-05
1.42815e-05
1.81488e-05
2.4113e-05
2.79245e-05
2.52518e-05
5.67649e-06
5.50433e-06
3.07743e-06
1.9271e-06
2.18439e-06
2.75194e-05
9.42908e-05
1.91894e-06
6.62865e-07
6.39148e-07
5.02038e-07
4.91563e-07
2.88866e-07
2.2917e-07
3.23476e-07
2.38235e-07
3.52524e-07
2.63594e-07
3.2138e-07
3.2147e-07
3.5134e-07
3.85952e-07
4.13934e-07
4.84521e-07
2.19343e-06
2.91615e-06
1.914e-06
6.59847e-07
1.74611e-07
2.57749e-07
0.0219174
0.023545
0.0268687
0.0272321
0.0253778
0.02247
0.020102
0.0188043
0.017953
0.0159929
0.012077
0.00916409
0.00873722
0.00795435
0.030165
0.0276793
0.0310997
0.032967
0.0319251
0.0300288
0.0294098
0.0307155
0.032643
0.0320243
0.0273801
0.0224724
0.0188308
0.0168673
0.0168238
0.0180984
0.0204322
0.0223594
0.023631
0.0241675
0.0238512
0.0225835
0.0200699
0.0164372
0.0129878
0.0105964
0.0111646
0.0150697
0.0243292
0.0352924
0.00997981
0.00548666
0.00464276
0.00468443
0.00360885
0.00232215
0.0011738
0.000741787
0.000742406
0.000937352
0.00111702
0.00153603
0.00248666
0.00359998
0.0048841
0.00661677
0.00749926
0.00807899
0.00830106
0.00836781
0.00821838
0.00752731
0.00604634
0.00404863
0.00304668
0.00198606
0.00135191
0.00130748
0.00226008
0.0044949
0.00216957
0.00199681
0.00159075
0.00117378
0.000826146
0.000742551
0.000921384
0.00106836
0.00136109
0.00134284
0.00131214
0.00118113
0.000944474
0.000627883
0.000738204
0.00120352
0.00185079
0.00245586
0.00294516
0.00331858
0.00353529
0.00365561
0.00370763
0.00363388
0.00337325
0.00284485
0.00233045
0.00216766
0.00222181
0.00208313
0.000362511
0.000433143
0.00060507
0.000607482
0.000573585
0.000513415
0.000480937
0.00047742
0.000532502
0.00057415
0.000204999
0.000498249
0.000681914
0.000765478
0.00059531
0.0005715
0.000478946
0.00040398
0.000440207
0.000582911
0.000624381
0.000875902
0.00102103
0.00126444
0.000812335
0.000228226
0.000513663
0.000424987
0.000328928
0.000265535
3.34219e-05
5.30398e-05
6.20034e-05
5.7324e-05
4.73999e-05
5.83226e-05
6.66511e-05
6.82571e-05
6.60169e-05
6.32074e-05
6.73073e-05
6.55214e-05
7.4304e-05
8.40405e-05
8.7674e-05
9.84599e-05
9.84336e-05
0.000104704
0.000109366
0.000101469
0.000102299
0.000100647
0.000102287
0.000102992
0.000112092
0.000107019
9.49701e-05
8.88868e-05
0.000101751
0.000113726
0.000571725
0.000245565
1.97658e-05
5.86733e-05
-2.87967e-05
0.000161026
0.000230358
0.000311258
0.000276401
0.000557532
0.000567988
0.000454252
0.000282491
0.000216915
9.11197e-05
-0.000140816
0.000250086
0.000235402
0.000238238
0.000236024
0.000230851
0.000208241
0.000179296
0.000158466
0.000203059
0.00120276
0.00778456
0.0135455
0.00687361
0.00551732
3.71185e-05
4.27128e-05
4.52534e-05
4.34545e-05
4.20462e-05
4.07395e-05
3.67399e-05
2.9e-05
3.76775e-05
3.01001e-05
2.36146e-05
1.32324e-05
1.26499e-05
1.70278e-05
2.01635e-05
2.73721e-05
3.42837e-05
2.7406e-05
3.97844e-05
5.39574e-05
5.51457e-05
8.84182e-05
2.10071e-05
2.1298e-05
4.33494e-05
6.00513e-05
0.000122579
0.000108871
9.94302e-05
6.73228e-05
0.000160141
0.000180881
0.000217905
0.000273477
0.00035724
0.000400953
0.000215055
0.000486969
0.000715388
0.000826645
0.000764612
0.000689238
0.000322661
0.000449649
0.000402671
0.000331884
0.000270453
0.000145378
3.71676e-05
2.07512e-05
2.39842e-05
2.36723e-05
2.59757e-05
3.2457e-05
3.13551e-05
4.93515e-05
5.35524e-05
6.42738e-05
4.27301e-05
1.05782e-05
0.000250563
9.79843e-05
6.76268e-05
0.000145476
0.000174428
0.00022639
0.000265308
0.000297401
5.70768e-05
0.000215164
0.000262817
0.000347407
0.000104713
-7.62318e-05
0.000268565
0.000253902
0.000218469
0.000209646
0.000159664
-7.71812e-06
2.99523e-05
2.06681e-05
2.05541e-05
3.08392e-05
3.63264e-05
3.65604e-05
3.00924e-05
2.54976e-05
1.38682e-05
1.48224e-05
2.11617e-05
3.55514e-05
4.02798e-05
7.09034e-05
9.68558e-05
0.000115288
0.000138124
0.000136139
0.000106681
7.94476e-05
4.38607e-05
3.93538e-05
2.90992e-05
2.55197e-05
1.86394e-05
2.07003e-05
1.11187e-05
8.18422e-06
4.91858e-06
5.63246e-06
7.54234e-06
1.02326e-05
1.04454e-05
-1.46063e-06
4.06695e-06
9.68698e-06
9.55917e-06
9.3031e-06
9.39682e-06
5.18644e-06
1.21471e-05
2.24436e-05
1.90736e-05
1.62105e-05
2.88426e-06
8.05236e-06
1.39972e-05
8.39885e-06
1.14355e-05
9.57314e-06
6.03555e-06
1.11364e-05
1.41732e-05
8.09378e-06
1.20116e-05
1.54609e-05
1.60963e-05
2.34745e-05
2.65109e-05
2.80562e-05
3.00893e-05
3.08746e-05
3.07525e-05
2.64939e-05
2.13244e-05
1.75881e-05
1.7824e-05
2.16388e-05
2.66026e-05
2.53457e-05
8.57151e-06
9.30871e-06
1.21507e-05
2.87624e-06
5.7175e-06
7.36871e-05
8.01258e-06
6.09554e-07
4.9675e-07
5.34924e-07
3.92622e-07
4.63814e-07
5.25124e-07
5.28962e-07
3.06358e-07
2.07384e-07
1.78136e-07
4.90082e-07
4.73692e-07
2.46328e-07
2.58408e-07
2.90272e-07
2.99738e-07
7.15086e-07
2.07869e-06
2.48902e-06
9.79419e-07
3.08982e-07
1.45328e-07
3.60026e-07
0.0251591
0.0308611
0.0315801
0.0268038
0.0201197
0.0154687
0.0132671
0.013223
0.0147662
0.0158706
0.0145146
0.0104349
0.00848323
0.00788514
0.0300863
0.0277949
0.0317332
0.0334028
0.0325373
0.0322341
0.0341621
0.0364981
0.0355484
0.0276343
0.0191946
0.0148133
0.0135603
0.0144231
0.0172366
0.0217402
0.0252802
0.0275672
0.0285458
0.0287307
0.0285866
0.0280526
0.0265693
0.0236129
0.0185925
0.0131082
0.0104539
0.0123148
0.0203364
0.032911
0.0100767
0.00597352
0.00575511
0.0059925
0.00375525
0.00177321
0.0003252
0.000542227
0.000198016
0.000761176
0.00122488
0.00189448
0.00329287
0.00511633
0.00722162
0.00826143
0.00867089
0.0089289
0.009018
0.00909348
0.00910239
0.00908283
0.00874823
0.00735402
0.00469595
0.00309058
0.00183003
0.00132178
0.00180579
0.00379699
0.00217008
0.0018985
0.00136752
0.00101092
0.000854178
0.00111197
0.00157309
0.00190018
0.00202502
0.00206092
0.00208979
0.00192985
0.0016226
0.000994781
0.000879423
0.00142798
0.00224109
0.00299933
0.00348065
0.00410734
0.0049476
0.00549595
0.00556587
0.00529767
0.00460533
0.00361273
0.00287571
0.00234952
0.0022288
0.00216079
0.000331558
0.000513481
0.000630687
0.000596194
0.000509533
0.000456123
0.000461447
0.000534855
0.000244363
0.000943933
0.0015334
0.00194843
0.00222109
0.00227315
0.00212954
0.00177618
0.00140283
0.00104996
0.000870626
0.000751752
0.000657655
0.000818825
0.000915173
0.00116262
0.000942163
0.00063337
0.00105507
0.000587264
0.000480876
0.000334289
3.46736e-05
5.32945e-05
6.57189e-05
5.17837e-05
4.51163e-05
5.8445e-05
5.93556e-05
5.55992e-05
5.36552e-05
5.46919e-05
5.6286e-05
5.46909e-05
6.70325e-05
7.94997e-05
8.46676e-05
9.92804e-05
0.000100244
9.76674e-05
0.00010711
9.98954e-05
0.000102377
0.000101802
9.96655e-05
0.000113079
0.00011031
0.000104202
0.000102632
8.98322e-05
9.35953e-05
0.000109216
0.000338776
0.00018616
6.54222e-05
5.69509e-05
-4.88718e-06
0.000102984
0.000179553
0.000299409
0.000274342
0.000512558
0.000494172
0.00029122
1.65346e-05
0.000252921
0.000237895
0.00020279
0.000194143
0.00019231
0.000211043
0.000226272
0.000233585
0.000227773
0.000202411
0.000171684
0.000160456
-4.04087e-05
0.00219824
0.0106902
0.00720309
0.00351319
4.37075e-05
4.39258e-05
3.71237e-05
3.46598e-05
3.62651e-05
3.66848e-05
3.06103e-05
3.90268e-05
2.96196e-05
1.74864e-05
7.33944e-06
3.50013e-06
3.02876e-05
2.9553e-05
5.18717e-06
1.34187e-05
2.15363e-05
1.52788e-05
2.74225e-05
4.25271e-05
5.8589e-05
6.5963e-05
0.000113813
3.403e-05
9.78714e-05
9.70593e-05
0.000122468
0.000114876
0.000104591
7.78065e-05
0.00016911
0.000203029
0.000269175
0.000372903
0.00025826
0.00089096
0.00143608
0.00182686
0.00203021
0.00212556
0.00213401
0.00190077
0.00154963
0.00101551
0.000294468
0.000428632
0.000351685
0.000252787
8.99791e-05
2.46276e-05
2.25243e-05
2.40967e-05
2.67101e-05
-4.81007e-06
5.19052e-05
6.84288e-05
8.26966e-05
7.91563e-05
7.87145e-05
4.95838e-05
0.000288217
0.000170204
0.000191074
0.000214537
0.000283903
5.89815e-05
0.000562416
0.00102273
0.00136685
0.00148447
0.001571
0.0015107
0.00135936
0.00098221
0.000574779
0.000121002
0.000273236
0.000229514
0.000213812
0.000139935
4.98241e-05
2.10377e-05
1.82292e-05
2.39335e-05
3.53093e-05
3.2027e-05
1.44836e-05
2.00064e-05
8.9368e-06
1.29214e-05
-4.49442e-06
5.1719e-05
7.97559e-05
0.000122504
0.000184642
0.000399766
0.000736787
0.000780499
0.000587442
-2.85482e-05
0.000156454
0.0001049
2.37182e-05
3.48847e-05
3.07918e-05
2.26333e-05
2.10729e-05
1.25148e-05
5.37625e-06
4.76891e-06
6.88505e-06
1.04002e-05
1.07353e-05
6.17792e-06
3.22112e-06
9.18538e-06
9.09509e-06
8.94498e-06
9.37318e-06
5.30683e-06
1.2423e-05
2.08067e-05
1.9635e-05
1.11092e-05
8.23268e-06
6.96108e-06
5.36928e-06
1.3326e-05
1.42223e-05
1.38956e-05
8.2326e-06
1.29187e-05
1.42508e-05
1.49902e-05
1.44176e-05
1.6733e-05
2.15127e-05
2.637e-05
2.87294e-05
3.00313e-05
1.05581e-05
4.47464e-05
6.4151e-05
4.78218e-05
3.32565e-05
2.51812e-05
2.0282e-05
2.11812e-05
2.52205e-05
2.49603e-05
6.97352e-06
1.07074e-05
3.17864e-05
2.87843e-05
2.73288e-05
2.18757e-05
1.34873e-06
6.04768e-07
5.22278e-07
4.25999e-07
6.18388e-07
6.25817e-07
8.89781e-07
1.06789e-06
1.0189e-06
8.58275e-07
6.08886e-07
2.61995e-07
4.81587e-07
4.42258e-07
1.98508e-07
1.93269e-07
2.54674e-07
3.03959e-07
1.91285e-06
2.52068e-06
6.94417e-07
4.22487e-08
1.49647e-07
6.95646e-07
0.0326215
0.0346846
0.0293897
0.0191211
0.0126291
0.0104565
0.00981183
0.0100629
0.0113603
0.0138609
0.0149625
0.0117441
0.00862832
0.0077635
0.0301413
0.0274824
0.0320527
0.0342244
0.0345054
0.0358611
0.0383649
0.0388449
0.0310227
0.0191987
0.0126805
0.0111997
0.0118811
0.0150466
0.0211971
0.0264387
0.0292655
0.0296401
0.028822
0.0278815
0.0275683
0.0277527
0.0280693
0.0270637
0.0236629
0.0169745
0.0114077
0.0109837
0.0172321
0.0311347
0.010963
0.00658721
0.00664522
0.00750433
0.0043388
0.00186304
0.000572412
0.000500113
0.000535561
0.000793174
0.00141653
0.00223271
0.00392727
0.00683757
0.00792575
0.00833173
0.0085207
0.00865921
0.00877886
0.00881025
0.00885904
0.00900282
0.0091271
0.00879361
0.00714997
0.00402299
0.00253203
0.00153298
0.00164067
0.00343237
0.00216348
0.00183642
0.00125585
0.00095131
0.000982201
0.00142616
0.00186544
0.00202903
0.00207306
0.00209048
0.0021496
0.00222783
0.00203996
0.00135798
0.000968542
0.00164608
0.00264894
0.0033398
0.00413665
0.00533806
0.00626759
0.00674305
0.0069937
0.00674375
0.00606668
0.00467037
0.00337361
0.00257433
0.00235274
0.00226537
0.000373416
0.000594828
0.000266156
0.000566967
0.000464197
0.000428757
0.000489561
0.000647023
0.00121887
0.00205623
0.00275594
0.00319496
0.00339918
0.00347493
0.00334149
0.00308607
0.00264614
0.00214904
0.00149519
0.00104323
0.000831747
0.000853899
0.00102019
0.00112465
0.00110352
0.000857842
0.00159322
0.00161191
0.00101077
0.000508121
3.18452e-05
5.68226e-05
6.10773e-05
4.53736e-05
4.8207e-05
5.09947e-05
5.2957e-05
5.4736e-05
4.40758e-05
3.54087e-05
3.97391e-05
4.34336e-05
5.65979e-05
7.25996e-05
8.81634e-05
9.54558e-05
0.000100537
0.000103065
0.000100852
9.00556e-05
9.7388e-05
9.70576e-05
9.65413e-05
0.000109108
0.000105726
0.000111462
0.000108147
9.23389e-05
9.84182e-05
0.000104001
8.80993e-05
8.02541e-05
4.83826e-05
5.40065e-05
6.79113e-05
7.13699e-05
0.000117876
0.00027907
0.000235667
0.00045515
0.000447628
0.000129314
0.00027105
0.000223371
0.000185799
0.000140369
0.000114763
0.00012378
0.000140408
0.000180344
0.000204234
0.000223834
0.000220671
0.000185587
0.000166725
0.000201302
0.00110413
0.006396
0.00669314
0.00251984
4.87213e-05
2.89245e-05
1.73246e-05
1.97732e-05
3.10834e-05
3.1976e-05
4.29437e-05
3.11416e-05
1.82577e-05
1.34861e-06
2.80166e-05
2.61593e-05
2.49932e-05
2.68209e-05
2.69958e-05
3.02948e-05
3.23956e-05
3.56872e-06
1.59932e-05
3.38033e-05
4.85482e-05
6.75887e-05
8.12588e-05
-2.55222e-05
7.74915e-05
5.39933e-05
0.000120325
0.000120135
0.0001183
8.90675e-05
0.000177991
0.000237423
0.0003617
0.000302173
0.00114063
0.00191606
0.00257284
0.00305354
0.00339038
0.00346717
0.00329275
0.00303917
0.00257604
0.00194983
0.00129056
0.000301182
0.000399111
0.000335226
3.65449e-05
2.75954e-05
2.42061e-05
2.38943e-05
2.76053e-05
2.95347e-05
7.57616e-05
9.47525e-05
8.37275e-05
8.95136e-05
8.83707e-05
5.62232e-05
0.000239405
0.000219956
0.000226996
0.000305129
0.000301964
0.00104425
0.00161452
0.00213252
0.00246452
0.00252612
0.00264577
0.00257281
0.00233581
0.00200648
0.00157743
0.00089993
0.0002925
0.000274299
0.000227189
0.000189921
1.26882e-05
3.04453e-05
2.13982e-05
3.4339e-05
3.32188e-05
1.48088e-05
6.26211e-06
1.03057e-06
3.01368e-06
8.39691e-06
4.89428e-05
6.33092e-05
0.00012913
8.79252e-05
0.00104699
0.00176288
0.00217243
0.00231217
0.00215308
0.00172766
0.000916078
-2.53879e-05
0.000124362
4.28051e-05
3.93519e-05
3.35472e-05
2.56315e-05
7.21315e-06
7.53305e-06
4.83742e-06
6.39305e-06
9.50256e-06
1.11497e-05
-5.49221e-07
3.18543e-06
8.85917e-06
8.56957e-06
8.3586e-06
8.67037e-06
5.34994e-06
1.24445e-05
1.94524e-05
1.55694e-05
4.84163e-06
4.09834e-06
6.54455e-06
5.89764e-06
1.45922e-05
7.30583e-06
4.28923e-06
1.2764e-05
1.31167e-05
1.27581e-05
1.04294e-05
1.02956e-05
1.74426e-05
2.12574e-05
2.59015e-05
2.65844e-05
2.76896e-05
9.97116e-06
6.85938e-05
0.000119288
0.000119288
7.14992e-05
3.26718e-05
2.41416e-05
2.1691e-05
2.4332e-05
2.42558e-05
3.23141e-06
8.07431e-06
2.53983e-05
3.03658e-05
1.86151e-05
1.84567e-06
6.98233e-07
4.63419e-07
5.95873e-07
6.96148e-07
9.1326e-07
1.42323e-06
1.72896e-06
2.12554e-06
1.72098e-06
1.24654e-06
1.16513e-06
6.88143e-07
5.61015e-07
4.0979e-07
4.16959e-07
1.24197e-07
1.93603e-07
1.70701e-07
1.3584e-06
3.65172e-06
7.97016e-07
1.90692e-07
2.0563e-07
3.30353e-06
0.0373723
0.0342472
0.0221363
0.0127034
0.0101651
0.00981546
0.00979595
0.00988471
0.0107535
0.012751
0.0148618
0.0123771
0.00885175
0.00770043
0.0303296
0.0268261
0.0317263
0.0351585
0.0367815
0.0388893
0.0402465
0.0371185
0.024581
0.0139242
0.0104364
0.0101676
0.0119037
0.017175
0.0252031
0.0294849
0.0297741
0.0279351
0.0258783
0.0245384
0.0241643
0.0247431
0.0260357
0.0272405
0.0260686
0.0204913
0.0132179
0.0106418
0.0157673
0.029979
0.01177
0.00728007
0.00710109
0.00878266
0.00720867
0.00313916
0.00072348
0.000524194
0.000569257
0.001105
0.00175648
0.00256991
0.00466401
0.00753896
0.00776534
0.00799485
0.0083606
0.00865002
0.00873598
0.00865507
0.00864707
0.00870309
0.00893869
0.00906926
0.00832207
0.00559821
0.00310283
0.00174469
0.0015647
0.00324227
0.00216046
0.00183064
0.0012275
0.000922155
0.00101633
0.0014746
0.00179396
0.00179534
0.00167266
0.00166068
0.00189363
0.00216124
0.0022031
0.00163437
0.00097999
0.00189767
0.0028671
0.00353952
0.00480732
0.00629461
0.00730831
0.00783664
0.00786136
0.00758906
0.00697797
0.0056187
0.0036381
0.00281307
0.00239506
0.00226206
0.000432714
0.000272468
0.000336185
0.000547679
0.000446117
0.00041427
0.000539417
0.000783934
0.00194357
0.002938
0.00355049
0.00374777
0.00393619
0.00392883
0.00382849
0.00371363
0.00348432
0.00300082
0.00232494
0.00162243
0.00108959
0.000973329
0.00101388
0.00111418
0.00116368
0.000983944
0.00168282
0.00193421
0.00151272
0.000425106
3.39536e-05
5.68067e-05
6.09033e-05
4.36584e-05
4.45847e-05
5.24253e-05
5.23805e-05
4.26363e-05
3.86825e-05
2.75988e-05
1.69651e-05
3.95131e-05
4.73032e-05
6.67994e-05
8.84767e-05
9.42165e-05
9.52921e-05
9.7973e-05
9.89087e-05
9.76847e-05
8.49177e-05
8.61163e-05
8.59956e-05
9.69312e-05
0.000113519
0.000104234
0.000101698
9.34039e-05
9.53435e-05
9.97266e-05
-0.000192634
1.79954e-05
3.78321e-05
3.24697e-05
3.05549e-05
4.90648e-05
2.98682e-05
0.000243516
0.000251311
0.00039608
0.000394524
0.000139447
0.000253519
0.000172847
0.000128229
0.000104917
4.70303e-05
4.83268e-05
9.14297e-05
0.000121265
0.00017902
0.000198811
0.000222112
0.000201157
0.000172341
0.0001818
0.000513102
0.0031583
0.00530179
0.00220514
3.98466e-05
3.47121e-05
3.07573e-05
3.63908e-05
2.65326e-05
4.64516e-05
3.75564e-05
2.09389e-05
6.52944e-06
2.8009e-05
2.51963e-05
2.3081e-05
2.25584e-05
2.22575e-05
2.40479e-05
2.63456e-05
2.88327e-05
3.27306e-05
2.46034e-05
2.74766e-05
4.15837e-05
5.92109e-05
6.61028e-05
0.000110049
1.30417e-05
-2.13838e-05
0.000119014
1.85902e-05
-3.58106e-05
0.000101037
0.00019198
0.000320378
0.00041342
0.0009265
0.00185882
0.00282576
0.00387408
0.00553119
0.00648832
0.00661163
0.00615255
0.00492928
0.00347095
0.00277439
0.00198606
0.00104088
0.000476428
0.000362298
0.000201222
7.64134e-05
7.38688e-06
2.60241e-05
-3.43787e-06
7.56826e-05
9.66417e-05
0.000100586
9.90131e-05
9.46105e-05
8.67847e-05
6.79161e-05
0.000196848
0.000222269
0.000290388
-1.03131e-06
0.000999565
0.00186362
0.00249027
0.00290845
0.00385843
0.00427414
0.00450229
0.00414038
0.00355484
0.00265091
0.00220728
0.00162341
0.00085244
0.000178418
0.000266988
0.000213483
9.70327e-05
4.55361e-05
3.18829e-05
4.22527e-05
2.1023e-05
1.68331e-05
1.48985e-05
-1.13264e-06
1.63168e-05
6.25321e-06
4.89845e-05
7.81265e-05
0.000177559
0.0010766
0.00218226
0.0049387
0.00742043
0.00827993
0.00779119
0.00588088
0.00237714
0.00138757
0.00019976
0.000127623
4.6701e-05
4.02994e-05
3.50825e-05
1.93716e-05
1.09241e-05
5.55766e-06
6.22664e-06
9.67104e-06
1.16267e-05
1.72751e-06
5.06314e-06
5.72427e-07
8.36318e-06
7.85522e-06
7.11628e-06
6.18932e-06
1.24566e-05
1.41102e-05
1.54525e-05
6.4561e-06
9.77105e-06
1.58882e-05
2.05198e-05
2.17761e-05
3.01094e-05
3.21801e-05
1.686e-05
1.20221e-05
5.44879e-06
4.69405e-06
1.29459e-05
1.20182e-05
2.03901e-05
2.45829e-05
2.38935e-05
2.36816e-05
3.05902e-05
5.65634e-05
0.000128487
0.000153334
0.000107333
2.82802e-05
2.67106e-05
2.22895e-05
2.36253e-05
2.33278e-05
2.20444e-06
1.96978e-06
1.02405e-05
5.88644e-06
5.17898e-06
1.1986e-06
5.29961e-07
5.06455e-07
5.69358e-07
8.27212e-07
9.58006e-07
2.90246e-06
4.25045e-06
3.52779e-06
2.4711e-06
3.53015e-06
1.36169e-06
1.1072e-06
5.62482e-07
4.56706e-07
4.25567e-07
3.79919e-07
3.97524e-07
4.07884e-07
8.77638e-07
2.09049e-06
1.77213e-06
3.45683e-07
5.88337e-07
3.88969e-05
0.0382342
0.0297617
0.015852
0.010884
0.0108793
0.0113083
0.0110293
0.0105958
0.0112329
0.0129749
0.0150675
0.0131331
0.0090181
0.00756176
0.0307725
0.026107
0.0308902
0.035809
0.0384751
0.0402185
0.040223
0.0329973
0.0193245
0.0114105
0.00952869
0.00981842
0.0123547
0.0197984
0.0281048
0.0302352
0.0283995
0.0255207
0.0232785
0.0218291
0.0213568
0.0220791
0.0238656
0.0260144
0.0264713
0.0224424
0.0147288
0.0107224
0.0151264
0.0293985
0.01266
0.00842503
0.00742652
0.00890821
0.00952783
0.00621758
0.00254903
0.000968458
0.000866334
0.00166986
0.0021601
0.00287341
0.0055886
0.00749975
0.00730018
0.00782704
0.00849809
0.00880984
0.00865505
0.00843887
0.00834009
0.00843769
0.00870785
0.00899839
0.00865174
0.00649039
0.00349837
0.00187249
0.0015841
0.00316624
0.00216552
0.00189323
0.00128711
0.000770591
0.000855118
0.00118762
0.00140905
0.00119979
0.000873513
0.000895049
0.00143193
0.00200764
0.00222155
0.00181039
0.000946384
0.00200767
0.0030081
0.00362333
0.00521591
0.00690212
0.00780428
0.00823551
0.00826105
0.00802858
0.00741476
0.00604873
0.00373309
0.00289126
0.00243051
0.00223687
0.000545159
0.00060294
0.000508096
0.000552643
0.00042356
0.000407398
0.00057007
0.00125071
0.00254579
0.00337968
0.00380078
0.00396959
0.0039784
0.0038801
0.0038513
0.00383055
0.00378564
0.00348062
0.00288407
0.00211453
0.0014407
0.00113722
0.00112048
0.00112901
0.00118662
0.000974549
0.00167596
0.00183503
0.00143859
0.000202326
4.23191e-05
5.17593e-05
5.78556e-05
3.96175e-05
3.69393e-05
4.32819e-05
4.56886e-05
3.6747e-05
2.6424e-05
7.9541e-06
9.6303e-06
1.58158e-05
4.09454e-05
6.65354e-05
7.87142e-05
8.77517e-05
9.53765e-05
8.53369e-05
8.69186e-05
8.16251e-05
9.58579e-05
9.81954e-05
0.000100286
8.46857e-05
0.00010306
0.000107255
0.000104892
9.46377e-05
9.22775e-05
9.71342e-05
0.000274493
6.91323e-05
1.24981e-05
1.4035e-05
2.73328e-05
9.48363e-06
5.77919e-05
0.000183392
-0.000127975
0.000327686
0.000361151
7.80677e-05
0.00023869
0.00016033
0.000108564
4.42763e-05
4.23554e-05
3.55305e-05
3.55278e-05
9.73654e-05
0.000133891
0.000181356
0.000217288
0.000202619
0.000185652
0.000185137
0.000288927
0.00213745
0.0032552
0.00195642
1.64759e-05
2.42373e-05
1.86225e-05
3.15965e-05
2.52583e-05
4.34859e-05
3.06618e-05
1.2176e-05
3.14842e-05
2.64289e-05
2.25477e-05
1.89553e-05
1.72128e-05
1.90712e-05
1.98958e-05
2.20761e-05
2.58533e-05
3.02005e-05
1.84714e-05
2.29432e-05
3.82632e-05
5.49889e-05
5.84631e-05
8.70969e-05
0.000109483
0.000114931
1.33917e-05
0.000108264
3.19346e-05
0.000110502
0.000210912
0.000352891
0.000290164
0.00134163
0.00241736
0.00364563
0.00609513
0.00781877
0.00852324
0.00873675
0.008259
0.00706026
0.00517764
0.00336355
0.00252443
0.00150328
0.000397654
0.000407047
0.000258408
0.000107697
4.135e-05
3.13643e-05
5.6374e-05
0.000102936
1.60648e-06
2.15714e-05
0.000111006
9.77464e-05
7.58596e-05
7.40069e-05
0.000174014
0.000229006
0.000313393
0.000375737
0.00148959
0.00240132
0.00291653
0.00436641
0.00481915
0.0050621
0.00512714
0.00503211
0.00480104
0.0040788
0.00270839
0.00211766
0.00137669
0.000526207
0.000284278
0.000228275
0.000145803
5.67285e-05
4.76419e-05
3.20982e-05
8.92909e-06
2.17888e-05
1.94392e-05
1.35961e-05
1.6414e-05
1.74369e-05
4.48298e-05
0.000121793
0.000399951
0.00185758
0.00515138
0.00986495
0.0131287
0.0145469
0.0142578
0.0122189
0.00744418
0.00312726
0.00130437
-1.56813e-05
0.000107797
-9.19126e-06
3.93904e-05
2.59906e-05
1.33974e-05
7.38069e-06
6.37124e-06