/*--------------------------------*- C++ -*----------------------------------*\
| =========                 |                                                 |
| \\      /  F ield         | OpenFOAM: The Open Source CFD Toolbox           |
|  \\    /   O peration     | Version:  2.1.1                                 |
|   \\  /    A nd           | Web:      www.OpenFOAM.org                      |
|    \\/     M anipulation  |                                                 |
\*---------------------------------------------------------------------------*/
FoamFile
{
    version     2.0;
    format      ascii;
    class       volScalarField;
    location    "0.006800000";
    object      omega;
}
// * * * * * * * * * * * * * * * * * * * * * * * * * * * * * * * * * * * * * //

dimensions      [0 0 -1 0 0 0 0];

internalField   nonuniform List<scalar> 
12384
(
13099.7
18993.8
22066.1
24633.2
27031.9
28965.2
30233.6
30552.3
29950.8
28746
26676.6
23446
18315.8
11461.3
23657
29162.8
32214.4
33756.4
34504.4
34959.8
35529.3
36531.6
38098.4
40047.2
42097.9
44410.3
47616.2
52260.7
57956.2
64288.5
70686.3
76361.1
80666.1
82631.9
82374.7
79329.2
76792.6
73866.3
70214.8
65275.5
58061.9
46394.6
28255.2
16554.6
33493.8
38730.3
42566.1
44612.8
45732.1
46331.1
46888.8
47821.1
48848.1
50770
54044.9
59771.5
66744.7
74813.2
83166
91527.4
98141.4
103105
104090
102094
97453.5
93907.3
91092.9
88029.6
84233.8
78794.4
70179.9
55869.1
34203.2
25353.9
37478.5
43206.5
47101.3
50703.2
54818.9
59191.3
63475.5
67735
71969.3
75937.3
79177.5
82587.1
87195.9
94224.9
104097
114855
126286
137385
146794
152936
153351
147116
138480
130971
122669
110438
89881.8
59374.8
37233.9
37524.9
46181.3
62611.5
74703.3
85934.3
97364
109459
121409
133467
145041
155390
163985
169580
171745
169209
163436
156723
149369
141348
131184
117507
97955.8
71824.5
47957.4
38296.7
35209.6
35115.6
36636.3
37195.9
35982.1
32481.9
26432.4
32343.4
36080
38000.6
38782.7
39601.7
41297.8
45270.5
50587.1
57854.6
66194.4
76099.9
86707.2
97723.3
108849
119175
127814
133343
134797
128594
118640
109385
102326
95602.3
87959.6
78053.1
64939.3
49344.7
37505.9
36205.5
21470.1
24304.5
27027.6
30796.7
37826.8
47916
59915.7
73213
86877.5
99957.8
112456
123482
132385
138320
139324
136278
125538
117026
110827
105198
99530.4
91944.3
81570.7
66921.6
46848.8
36765.2
34141.2
32083.5
31574.5
33510.2
23945.3
26629.7
41681.9
61262.3
79803.5
97386.1
113718
128347
140317
148809
152649
150486
143065
135451
129912
124925
119462
112435
102781
89984.6
73516.4
56725.6
44579.1
38011.9
35886.4
35659.9
35808
35226.2
34541
33771
31148.2
52088.6
75817
95796.7
112620
126266
136224
142355
141871
138536
132393
128893
124966
120320
113782
105155
94041.6
80641.3
66918.6
53971.3
44040.6
38468.4
36929
37680.6
37148.9
35222.9
32442.8
29442
26942.3
25570.7
31058.1
36175.5
40850
50194.1
67601.7
86120.6
103078
116594
127374
133520
136211
137151
136526
134828
131874
127507
121131
112598
100709
86911.8
70426.7
54337.3
43579.3
40505.7
41027.5
40927.9
39613.9
38023.4
37073.8
37251.8
31089.3
40977.6
59296.5
78998.8
95735.3
108300
114669
118303
119621
122699
125124
125702
123666
119689
114130
107338
98962.6
90000.6
79333.4
67339.4
56160.3
49624.3
49093
49419.4
48501.7
46627.5
44439.5
42564.1
41277.1
39677.8
23889.5
24261
29876.7
36687.2
44637.5
52688
60353.8
67919.5
76138.2
85751.2
94934.3
97283.7
94902.2
89327.8
82122
74496.3
66821.9
61302.6
58865
58474.7
59401.8
60510.2
60488.8
61479.7
62628.9
62947.9
61710.1
58349.1
51672.1
39289.4
12662
15858.6
14589.5
12329.7
11489.4
16307.6
31716.6
52434.4
69110.6
78627.5
85532.5
90993.2
95801.7
100510
105101
105000
100068
92566.4
82647.1
72176.5
60301.8
49697.3
40785.7
34548.8
30012.7
25808.6
20773.3
14946.2
8970.94
3982.37
18773.2
58882.9
74384.6
89929.2
105460
119854
132171
140831
143467
139258
128027
110871
88462.8
21358.5
24593.9
90060.7
103888
113552
120955
127417
133378
137618
139069
136921
134409
138300
156598
191385
236742
288573
343762
398820
449898
492432
521883
532744
523782
497756
457416
404123
339723
265402
180961
35961.5
36888.3
141046
174073
198291
212987
217468
210216
198635
191097
191207
202774
231044
275090
332376
398559
469961
541119
606932
660679
696812
709755
694758
660404
608544
543924
468536
383976
293350
201334
46660.9
43933
184554
238645
287763
329064
360075
378287
382016
368817
346284
323479
307155
305080
328175
380873
451934
536548
629962
726238
817636
894256
945897
958534
922826
854180
754499
624377
462731
276847
52037.7
39172.4
144404
194202
258458
325282
396899
477064
565607
661069
760936
860191
952647
1.03143e+06
1.08938e+06
1.11681e+06
1.10972e+06
1.07046e+06
1.00582e+06
915501
804404
669856
511914
336219
175997
129925
133257
133484
129660
116712
37994.3
29203.8
92979.5
108128
121037
132969
148253
164552
182956
200116
223964
257320
305232
366259
438413
520149
607873
697169
782178
856007
912501
944463
936655
894416
822325
722862
595387
442253
282463
152782
42610.2
22757.8
68285
88884.5
121894
162628
209136
260818
319272
382774
452947
530559
612942
696608
777302
849288
905886
941663
943560
916659
862083
788358
693872
580687
446203
299625
169649
95389.6
82364.5
86594.4
38044.3
30089.6
115305
205591
297753
393712
495814
604928
719139
834380
944371
1.04127e+06
1.11636e+06
1.16088e+06
1.16037e+06
1.1213e+06
1.04871e+06
947819
823094
678005
519125
363465
231851
153950
141059
149365
145709
137874
128146
111881
36823.4
41630.7
249092
389267
511872
627144
736559
838289
926268
993818
1.03258e+06
1.03045e+06
996690
929345
839772
728135
596474
451795
321553
230625
193994
189056
197384
197225
186486
170445
151642
129667
106199
84215.3
30158.7
30829.4
82520
133105
248250
385731
518643
642740
754001
850198
924664
970316
979021
954030
900468
823654
728670
620311
507440
403329
310236
247114
221688
219262
215027
198805
177862
156126
134183
110916
38861.4
32358.4
202454
376486
528838
661208
775211
867194
930479
952487
936654
886396
810573
711638
598056
483571
383847
312714
276989
270556
276101
283205
277576
259534
235918
211214
186974
160850
135319
112895
40663.9
29563.9
74051.9
137770
247478
365087
468776
550435
609286
643341
646318
618245
570018
508744
442496
377470
318797
271118
241967
239853
256747
285092
317245
345694
357338
351197
329841
295683
250652
197360
51334.8
20368.6
84220.3
90203.4
91057.8
89616.7
106323
177837
280667
387267
484606
564529
623387
658994
666454
641804
592842
529260
458604
387283
319782
257555
204357
160474
127199
109637
101085
89396.8
73017.1
54585.1
4794.03
23125.2
73711.7
93010.4
109044
122351
133001
141355
147035
150098
149540
143819
132030
114013
26198.2
25989.3
105297
112597
119913
128473
137070
143782
147011
146770
146866
152800
171985
209066
255171
303272
348961
391518
430782
466408
496682
518314
528972
527075
513730
489057
453359
404392
339211
254744
48972.9
38854.5
166130
182523
187960
186105
182136
181150
188779
204745
228142
260295
303291
355111
412121
469056
523337
573936
619698
658659
686628
700139
695522
675289
641727
596927
540889
470602
384038
283602
61585.1
47850.8
231878
275772
311990
338633
355600
363370
363092
357040
351746
352160
361063
381856
423951
485048
553061
619824
682690
742331
798871
849028
888019
907347
900972
874544
825623
742702
610328
425098
73699.4
44273.6
167287
233541
315447
396839
476477
553711
628408
701229
773665
845201
913050
973898
1.02215e+06
1.05237e+06
1.06159e+06
1.04913e+06
1.0185e+06
972534
909785
821209
693764
524806
330127
175452
127143
130556
140283
137048
41402.9
32035.6
107470
114283
122163
135839
156216
178988
202814
230022
267456
314690
371408
432449
494539
557255
620011
682776
743975
799669
846413
879135
890456
878767
848111
796491
713644
587284
423154
253928
52956.3
25029.7
82961.5
105862
146569
199127
260678
324698
388908
449728
507457
564343
620838
678077
735076
789427
836249
872690
890559
888485
869053
834858
783490
708102
598003
456002
301446
170784
96198.6
89231.4
39668.1
35084.3
174180
278964
383093
487103
586614
679821
766833
849382
927626
998879
1.05902e+06
1.10137e+06
1.11759e+06
1.10557e+06
1.06981e+06
1.01235e+06
933028
826245
688114
527886
368888
238347
158007
124242
120041
134060
140142
127432
38434.5
57563.2
377415
535362
647990
735100
806291
868917
923651
968955
1.00116e+06
1.01335e+06
1.00103e+06
968250
916863
843710
741862
608928
461487
330364
240845
197115
176709
169673
171775
174156
169754
153201
126719
98831
32486.9
33206.4
110468
223362
383891
531744
652564
751487
833085
901603
956485
992263
1.00369e+06
992703
961022
911242
843617
757247
653024
539659
428745
326273
257612
215665
189843
175257
172415
167735
154149
130687
40310.6
40017.3
397582
597889
726955
821541
898658
964060
1.01324e+06
1.03905e+06
1.03888e+06
1.01403e+06
964938
889765
787956
665686
538464
426274
345165
299194
277834
265343
257046
252609
250320
244895
228950
196746
156658
127670
42927.8
33703.6
128313
238695
369159
481777
563320
615554
646254
659469
655034
633984
601542
561217
515736
465730
412558
359572
315362
289428
281679
284595
295868
312749
328988
336600
333598
317595
287112
243224
57430.7
25166.7
99646.4
84753.4
86026.4
119868
194448
301166
418212
521870
600372
651666
679926
689831
682997
659187
624170
581802
533140
477333
412257
340306
265349
196724
135874
88727.9
66751.3
61819.5
61181.6
59512.7
3436.18
25838.1
88188.8
109612
124537
134437
140357
143738
146037
148223
150071
150297
146744
136935
30033.8
28275.3
121014
120110
123013
130385
138081
143012
144548
146015
154044
174570
213242
264165
316043
361502
396766
422964
442770
458850
472943
485357
494032
495484
491006
480444
462872
434318
387808
315361
58190.1
40753.6
185585
183486
170548
156161
150363
159602
185525
221331
264118
312719
368478
428573
485039
530235
562314
585478
604330
622429
638806
649674
650521
641140
622718
596623
561700
513007
443401
350943
72109.1
51562.9
271214
294398
310533
319792
323832
325007
326742
332772
348411
374601
409654
452342
510473
578964
645661
695391
725116
740442
750879
764484
783659
802556
813645
818679
812982
780141
692684
533107
89378.1
58135.4
192817
267713
361213
453869
540809
616416
677394
725081
764969
801328
837865
874385
908289
934310
949155
952398
946854
934904
915512
876161
794875
655622
464416
270167
144766
122786
143170
152307
43631.8
35033.7
121965
120410
123918
138473
161526
186765
214768
253191
305872
368784
436054
499478
554088
598284
632737
661491
688619
716808
746222
774059
793525
801455
800277
787438
749735
664793
522510
345491
63212.6
27385.7
99957.3
124042
169662
233046
307983
383468
454199
515654
562427
597073
622155
644417
668958
697483
728660
760035
784202
797890
802344
799106
784787
750027
676773
559682
410315
259113
143868
98093.1
39670.6
39262.3
223536
337663
454286
567584
664259
738732
791982
832093
867723
903834
940424
973250
995425
1.00248e+06
995903
975744
940235
879944
782904
646660
488437
338374
220151
143749
121338
144342
153185
136337
39272.8
74586.1
499415
653660
740197
788447
814570
832535
850427
871193
893057
908400
911528
905683
890473
860329
803367
707147
574742
431889
310897
229528
181457
164541
177889
193127
195157
176866
145067
111006
33793
35760.2
164956
332959
506554
637383
726421
785614
826544
858174
886122
910393
924114
927015
917976
897818
864982
814909
741483
644293
532349
418822
313958
238377
192678
183264
192454
190022
173317
145729
41448.9
55303.7
597713
776246
855135
895199
924137
954877
987109
1.01542e+06
1.02919e+06
1.02848e+06
1.01013e+06
969636
900336
800866
678784
553090
441987
356029
299089
265229
250183
255745
273208
285133
274585
234351
178186
136106
44707.7
39675.8
190873
322305
452068
545765
598944
623145
632371
633701
627655
615934
604407
590774
569842
537208
491410
435885
382538
341959
311456
286530
269542
265305
275759
290715
304876
311046
303294
279144
61854.5
28167.6
111256
88783.7
116280
186436
288660
409275
523720
606711
653836
671875
672411
664542
651783
635668
622433
609934
590999
556509
497494
416998
322194
232658
152987
89130.6
56952.2
51527.7
57285.6
62766.7
2543.03
27479.4
101480
123382
136402
142629
143102
140212
137749
138683
144105
152461
159827
160645
33340.6
30754.2
139065
129271
125312
128947
133953
136574
137660
143373
162295
199172
252986
310787
363706
403407
426987
436360
435673
430130
425594
426371
432059
439309
447344
454123
457285
451618
427550
372962
64961.6
42148.7
204693
188637
159365
132701
124829
143448
184692
236776
295278
356649
423011
490168
544349
574885
581257
572042
558771
551002
553407
562819
572559
579382
580583
575398
562401
537088
489322
413274
80134.5
54662.6
310155
311017
304878
294789
284401
278114
281915
300972
337962
389291
448498
510317
579651
653590
719957
755546
754510
723362
679412
645658
639997
661443
696278
737365
775019
789641
747634
620362
98917.4
72779.4
212908
295222
398317
500714
595552
671267
719743
741716
745619
741085
738363
744109
759505
780894
803071
823361
842453
861946
880260
884179
847504
743448
568348
364390
194278
122065
141385
162809
45473.2
37871.1
137573
129305
127849
140984
163198
188373
220123
268902
335568
412404
489615
556417
607013
636911
645602
638436
623830
613465
616881
636970
666393
697362
727100
750981
754125
709693
596152
427066
71451.9
29841.7
120098
142467
190225
261150
347015
433878
511860
576267
615835
631126
625172
608428
592215
585049
593563
616102
647153
678795
707951
733292
750970
750632
711956
623446
489860
335925
198118
117372
39413.4
44529
261519
384349
514292
637097
730610
785693
802291
794451
778716
769661
774843
794643
822731
850465
875056
893087
899747
883870
829120
724092
579047
423291
286885
187416
150496
165241
164535
139553
40128.3
91312.8
604189
736939
790360
797752
778426
751167
729263
721424
729442
748367
772600
798276
820335
832161
820598
766241
660155
519650
381585
276027
208985
186898
206039
222826
220023
193799
155964
119928
34850.2
38663.9
236889
435479
598404
698108
746863
760579
756787
747849
744409
750814
765265
786093
807370
825044
833798
826040
791386
721238
618922
499351
378403
275407
218061
213212
224674
214370
187400
155440
42591.6
80803.7
762890
894416
913442
895772
873382
864511
874818
902205
932869
960909
979742
980263
952903
891270
794389
674634
551392
435129
343430
282798
254272
262189
293560
320547
316527
272085
203421
143434
46399.4
45783.4
249139
387339
508429
580594
605707
601087
584637
567884
557252
558403
573938
591994
598362
584455
547786
492154
433832
385961
343313
295817
248323
213873
209024
230377
265421
297929
315679
312377
64662.5
30158.9
121839
113123
162514
252027
370204
496884
599486
656409
669837
653432
624464
596280
577318
572848
587308
611014
627349
619071
571551
485730
373671
264879
170235
96152.1
57301.3
51079
58454.2
64450.3
2238.24
28312.5
112510
134200
145166
147109
141532
131753
123340
122947
133908
153042
172945
184764
36011.5
33123.6
157989
140214
127393
125402
127094
127782
129488
140906
171298
221734
284025
344614
396163
429940
443016
437299
416903
388490
362092
347551
349999
366531
391745
419656
445749
463690
462802
427842
69312
43368.9
218927
198988
158282
119349
106966
131369
183449
247841
316954
387831
462101
534629
586045
602019
582995
539978
491017
452632
437759
446517
470675
499431
525285
544028
554302
552349
527820
471929
85857.4
56046.3
345505
328400
301462
271504
244974
229689
234263
265424
321836
394959
473619
550002
623975
702074
769641
795584
770235
697345
596559
505773
471215
501403
570455
654266
736054
793581
790665
692031
101388
83366.8
226782
315904
427229
538363
641462
718754
757058
756388
725912
678735
630061
595702
585015
600201
633219
675695
723156
774621
826886
867902
869752
798686
643245
440297
251570
139045
138657
169846
47510.6
40715.4
151951
140686
134369
143941
162770
186060
220330
276298
353462
441078
526496
597018
646363
666947
656522
618170
561008
502060
468472
477233
520773
581269
646167
706254
745753
736814
651099
497693
76678.5
32305.4
141989
158635
204863
279909
374317
471454
557122
624970
662443
665418
635200
583387
523025
469324
443569
453551
492597
545431
603182
656680
703273
730500
720330
657737
542499
393948
245219
140855
39501.3
53200.6
288899
420083
563390
694695
785142
822737
806251
752959
684628
622197
585144
584242
618235
671389
730768
788311
834801
858197
840275
764578
635819
480695
332765
220752
175765
178694
168368
137471
41124.5
107969
683003
787740
812030
784483
726885
658250
595592
552538
539518
562096
609271
669695
731560
785099
815440
798900
718357
584417
436075
314003
235444
211245
230147
244241
234146
198088
155639
122836
35890
42980.4
313046
520761
664645
733771
746134
718338
671275
620560
579739
559238
566726
602925
658440
719263
773552
809726
814431
773245
683717
560201
424531
304611
240593
236073
243280
226042
191828
158140
44009
116948
885049
958895
923342
855018
786504
735911
714427
729640
772261
830137
890571
936403
956456
939502
878583
778151
654203
521053
400502
311878
264208
266112
305437
345629
351173
308656
233621
157575
49002.1
50999
299465
435773
545463
597230
595653
560650
511741
467919
446940
463517
513022
567281
601491
605481
578304
523600
462598
413001
367000
311746
247277
184167
148218
172957
233514
291320
328562
338708
65184.3
32051.1
131795
139926
201362
303984
433505
560327
647690
678781
660000
608936
546773
492802
465773
478197
527990
591147
643789
662507
629229
541840
416666
291772
184861
103620
60025.3
53096.9
60345.4
64179.6
2248.07
28543.4
120894
141934
150333
147854
136836
120889
106408
104677
123046
154575
186859
207859
37884.8
35305.1
174912
153456
130499
120661
118395
117707
121094
138812
178725
237767
303150
364363
413893
443348
448659
431384
393822
342873
291160
255851
254301
286474
334832
386615
435295
474815
494468
477016
70531.9
44696.8
222505
210793
168181
120219
99241.3
123559
180573
251758
327040
403378
482987
560037
609791
614604
574826
502489
419400
346637
310007
320381
363792
418074
469554
512069
544382
564026
561001
524847
88744.7
54903.5
370971
347044
305450
258052
215275
190007
193907
234881
305893
393597
483833
565542
640307
720528
791535
814063
774612
672908
525241
373988
307305
357809
468457
594097
713896
804614
828529
746630
94345.5
88749.4
236046
331168
447016
565650
676313
757173
789270
772843
715755
632364
537248
452042
400467
404604
455952
528733
608977
692032
774063
844835
876793
831873
693270
493532
298576
165550
141148
175678
50870.5
43614.3
162279
153677
144110
148741
162551
182382
216448
275582
358650
452815
544042
617623
667471
683724
662951
604959
515065
407465
328664
323601
384214
475885
574364
665490
734286
752216
689890
556366
79593.9
34923.9
163793
170686
211064
286730
387031
491937
584525
657115
696357
695688
653225
579354
483911
380521
305425
298132
349524
425874
510174
587287
656482
702902
714013
671357
573550
432590
280346
164631
40400.3
66003.7
308004
445281
597841
735938
825480
851374
811498
724569
613281
498094
406052
369002
409917
495293
591452
686474
766306
820242
830106
777528
662508
508093
351347
231201
179181
175216
163897
134417
45162.3
125765
735499
816998
823226
771271
686215
585443
485754
400529
353024
374519
449328
549119
649437
739806
803846
815606
753866
624843
469470
336603
248848
220322
240103
259856
249802
206793
156112
122189
38662.4
53972.8
397118
598777
724379
771431
757719
698827
618367
531723
450723
391229
374798
416729
507229
615032
714039
789277
826679
809275
729133
599208
447991
315334
248284
248750
262683
250054
210833
162644
47692.4
159969
962074
983366
910431
806842
700959
608265
546379
534030
578223
662599
765426
859225
927196
954876
932564
857383
741060
600121
459354
346970
277061
265856
307470
358833
376449
342082
267091
181991
55306.9
54443
339317
468732
567347
603213
580119
518083
435656
357229
315381
347186
436253
526775
585075
603215
583873
529489
466073
418446
378173
329563
269160
204540
158254
174160
234804
296309
338701
349389
64203
34482.7
139012
159195
226881
338365
475233
599919
673530
683394
637613
555013
456945
370188
332475
374683
467092
566585
648778
689039
668675
582029
448209
310882
195347
110584
64299.5
56220.9
62348.4
63613.6
2777.43
28359.7
126771
146679
152149
145687
129952
109831
92076.9
90679.4
116925
159947
201602
227185
38820.5
37448.5
186117
168568
137209
116546
109380
107648
113398
136331
182341
244568
309646
369870
417951
445570
447308
423933
375111
306769
231300
169265
160966
216655
290979
364281
430946
487068
522111
516889
67171.5
46215.3
217917
220243
184904
135386
105406
121576
175487
247425
324058
401705
484249
566043
616968
616756
564813
474879
368120
263805
196445
209099
277204
355296
427309
487854
537366
574377
589095
568600
87965.8
55194.7
376663
362967
318786
264068
211021
177482
179651
224106
297999
386803
476831
556678
627815
707614
783974
811053
770051
659598
495395
315366
224340
287224
423285
574613
717976
826662
859668
771331
81291.9
90337.4
248418
344157
460514
580664
695482
781424
814056
791957
722109
619170
494055
364901
262373
239470
312454
415462
525149
633507
737511
828356
878710
849931
721395
523632
329398
189665
150359
184243
56286
46670.8
168400
165770
155528
155635
163683
178964
210228
268297
351755
448040
541570
616924
667732
683927
660771
598431
499495
371723
260742
235547
301100
409451
527405
637375
723527
757044
711858
600289
77754.3
38427.2
183784
179430
208835
281267
383642
492619
589991
668128
713511
716359
673724
596471
492097
366808
250898
217695
268332
357347
452973
542783
622670
679551
700184
669626
584012
450637
299737
184917
43402.3
78882
321701
461330
616625
755876
847330
870947
821880
720601
588981
442447
300050
197554
242996
365944
493218
613601
714697
787039
812095
772743
665013
508351
343293
213100
159257
181680
197484
181277
62549.4
146630
762107
834299
835657
772614
676796
561101
440463
322389
225863
218975
326347
467116
598046
712977
797004
823389
771201
644132
485765
346420
251070
223784
257053
302403
316110
290081
235977
173348
49245.3
88944.7
498799
679071
789245
825303
798478
723917
627493
521761
415109
321482
267396
291487
407087
556555
688005
787643
842403
837172
758103
621141
461378
325647
269951
300917
353279
370692
339880
260156
66708.3
203870
990161
982630
896308
778384
651928
526390
421250
361246
388716
492025
634434
773384
883386
949661
961430
911101
806574
664296
512384
383114
291828
262461
299781
360447
391276
370504
301120
210877
62829.4
56433.8
367605
486644
575750
602973
568889
490873
386592
279899
211933
253102
373390
486519
557997
584039
567929
512197
445515
401280
373606
344754
308585
269182
240904
237889
267558
308610
340647
341402
62546.5
39158.6
142696
166884
238966
355446
496298
619063
682805
680452
618501
514271
386107
260147
204793
299920
430817
553470
651819
704088
690713
604751
465359
319783
199850
115605
69554.4
60834.3
65735.8
65693.3
5925.95
27795.1
128695
147655
151124
142332
124368
103513
87621.1
90052.3
121348
169731
214780
238430
168176
49212
48611.9
146223
197041
184390
151194
119961
104699
100872
108012
133796
180811
241304
303052
360971
408385
437406
441048
418188
367931
295326
211165
135643
122657
191594
277341
359882
435135
499427
541128
538245
307944
55235.8
52110.7
148964
215394
225526
202959
160003
124440
127694
171453
236776
308777
382850
466226
552265
608978
611454
558516
468350
359730
247311
157776
161303
241588
327782
406880
475701
535155
583145
608478
595358
375036
70401.8
64855.1
235268
374472
371398
336829
290452
242774
209713
207493
243740
305938
381315
458624
527116
588203
664793
748601
786753
756443
660417
517193
366819
283192
322849
446531
597294
742966
850475
877294
771986
337930
72754.8
77999.1
251588
277868
357205
465838
581265
696009
786744
826935
810870
746001
647269
522928
389883
272434
221063
277972
381115
498250
615457
728448
825555
878594
853954
726810
531457
343344
208651
169933
198105
210090
56777.8
56078.2
160484
192079
189364
177287
170279
170776
179912
205314
257336
335239
427916
518935
593634
646106
668693
650653
594714
507494
398278
296869
254350
297238
393701
509928
622283
711113
748229
713117
618145
355318
64711.8
57903.1
179765
209112
192832
205731
267158
365166
473265
571887
654495
709635
723068
690577
626535
538734
435664
337835
284821
299203
364702
446319
528416
603802
658890
680741
654647
576508
449199
309074
222401
187932
73564.2
79741.1
260379
339434
466704
616518
753431
848248
877681
835062
741877
618605
478722
338799
229064
237482
344498
467671
589275
693160
768182
795083
758260
651396
492214
323807
215846
248813
333426
393638
406910
337700
100889
123177
604207
765504
844946
852413
794203
704980
596099
481257
365542
268514
241573
326887
462712
595370
712722
797408
823471
772817
647712
491932
353239
259125
237790
291638
379382
450100
489974
499228
467748
360968
104152
124819
510179
620886
762900
860103
892732
864098
792504
700814
598044
495441
402283
345396
356140
449984
586703
714567
812844
864597
858218
776398
637737
481045
361848
337926
401242
485951
540267
551961
516678
406625
111193
136737
864831
974926
974108
899828
789077
664724
531824
406733
304697
292045
385005
544524
711748
846394
936024
970890
939958
848027
708362
554597
416001
306920
255764
279542
344890
390988
388336
331331
246113
171392
49923.2
52392.5
227335
380510
488492
571324
596544
563449
485332
382378
279741
216633
252059
358122
461575
529290
554937
537138
478086
406250
364540
352027
348286
341191
327725
312255
300735
303493
317110
329877
322261
205420
47039.7
43367.7
152143
157341
167470
238942
357300
498788
620563
681030
676046
612246
504352
370216
236254
197381
307739
440154
560941
657453
710622
696508
608146
465074
315971
196613
117066
74431.4
68594.6
74052
74154.6
49929.9
8340.75
3385.98
27089.6
127041
145687
148823
139361
121172
101668
89420.3
96645.1
129774
176426
218045
238467
209475
128643
124935
170828
200907
196867
168957
133248
108805
100014
106576
131852
175286
229153
284040
338647
386319
419065
429304
414723
375274
315854
248108
193059
182114
226696
296370
371235
442676
504361
542553
533989
389840
144278
123913
163465
205037
224034
216129
185467
151162
142272
170486
222595
283497
349223
430882
521196
586405
600002
560070
486045
397688
309857
243314
230009
274933
340843
409184
474169
533954
584656
612641
599266
460823
180992
158988
275034
354722
364701
349475
325086
298902
279463
276378
295718
333423
382162
434718
482258
527964
600037
689740
743846
737989
674350
572333
467962
407261
426553
518080
645418
773731
866578
879318
760917
441900
195722
206284
242478
259519
347331
450966
557473
670219
769456
826086
828357
783762
708443
609765
505879
412676
362182
378231
445574
540149
643845
746190
830924
871351
838226
709348
519522
340434
216220
177488
194566
212526
184444
182598
196675
214204
218465
209718
197562
189423
189741
205516
246471
313062
395719
479431
550411
605365
636352
630520
591369
528042
451584
380020
340975
357186
422794
515039
610271
686575
718456
686171
595195
434011
205091
176842
227314
217920
191464
192220
242672
332048
434709
529996
614383
680318
711136
699746
659170
601113
534163
469735
423921
411620
437859
487479
545017
601085
641519
653965
624559
549161
429696
310646
251001
240875
212824
216578
249473
317913
445716
589714
722881
825151
870513
849261
780995
686475
580871
480628
407982
391504
440325
523632
617652
702598
762858
779738
738104
632153
480758
330394
246789
259605
306290
343758
360772
360655
364122
427821
615934
761799
853905
875802
836255
766526
680929
591936
507157
442732
420443
458824
543946
644158
739186
805051
817654
760804
639016
492222
360150
266476
235278
277787
366397
451804
514533
552764
567592
562244
543497
519324
538249
659040
808224
915388
960244
944300
889612
816745
733748
656295
587926
548309
552020
606860
695994
788531
861223
893661
872243
783160
645325
494621
373784
315310
322142
374031
429263
461258
469120
466680
483267
580730
853923
961645
986705
933515
842433
736666
623137
515318
425449
394672
441583
557068
700107
827841
919780
962730
943442
862322
730909
581399
440921
320455
246976
247631
308851
370752
389216
349297
270407
194409
148135
155645
280223
376669
472626
550759
579321
556402
494884
415146
343019
307801
330756
394003
461211
507587
522185
498317
434015
355870
314213
314846
333316
349696
354070
346494
331545
316163
304523
294889
279335
228700
174962
175144
180746
170961
181272
246451
357884
491880
608553
670069
671340
619598
529487
422987
336473
329430
400081
497944
593527
670270
710073
686533
591293
445666
297542
184374
114486
76962.1
72291.5
76919.6
75639.5
61555
28130.8
2635.74
26144.9
119992
140217
145835
138428
123256
107229
98973.1
108090
138218
178107
211500
224710
202605
124212
117070
162734
194616
200097
180868
148693
120688
107567
112170
134367
169836
211899
254951
304006
352827
391845
413868
415547
396472
361038
319148
284765
273298
293743
337496
392740
449303
498260
524444
505345
383834
138793
116714
150446
188518
214746
220283
204165
178029
163546
175429
209003
252648
304523
381524
474885
551776
585103
569230
521075
460772
402784
358494
338540
349874
383939
429682
480461
531873
577334
601801
582253
458468
175870
152355
248035
310023
335145
345151
349702
351745
353242
356309
361686
372647
389801
410568
429467
453259
518001
613486
687559
714607
692009
635982
573967
534702
542150
601947
695463
793728
860143
853340
725364
452120
192270
180449
200664
233509
320837
412894
507347
616753
726817
807030
839791
829682
790273
730172
664466
602155
561167
552896
581520
637622
708941
781601
837706
851772
798955
664008
481569
315104
208601
179961
192140
204931
187172
186846
203125
226238
241020
240958
230919
218841
211276
215302
240855
290687
357111
427349
490875
547673
589098
601603
585503
549643
504205
460435
432575
434007
469590
529799
596785
650027
668383
635379
549967
427645
214704
176517
221735
208904
184421
182405
220921
292897
381410
468805
551772
625998
676995
693252
682342
656874
623952
589355
559415
540893
539308
554964
580473
606771
623216
616932
578169
501273
393786
301771
263035
257354
223318
205305
217582
283367
400247
532917
663143
775998
845326
857437
825868
770635
707017
646086
599612
578781
590985
630138
683357
734490
767038
763358
710469
605607
468273
339159
261157
242777
249213
257637
263950
275551
312500
412644
582096
735941
847522
894320
884574
845335
792641
737597
686548
645842
624808
633196
670686
725828
781385
814235
803111
734921
616897
481367
358004
265262
218533
227189
282106
347376
399834
433814
448366
444946
429613
426960
485562
633071
801168