/*--------------------------------*- C++ -*----------------------------------*\
| =========                 |                                                 |
| \\      /  F ield         | OpenFOAM: The Open Source CFD Toolbox           |
|  \\    /   O peration     | Version:  2.1.1                                 |
|   \\  /    A nd           | Web:      www.OpenFOAM.org                      |
|    \\/     M anipulation  |                                                 |
\*---------------------------------------------------------------------------*/
FoamFile
{
    version     2.0;
    format      ascii;
    class       volScalarField;
    location    "0.003050000";
    object      alphat;
}
// * * * * * * * * * * * * * * * * * * * * * * * * * * * * * * * * * * * * * //

dimensions      [1 -1 -1 0 0 0 0];

internalField   nonuniform List<scalar> 
12384
(
2.43861e-06
1.75921e-06
2.59615e-06
2.97774e-06
4.36602e-06
3.79607e-06
3.94198e-06
2.73805e-06
3.56673e-06
4.05008e-06
3.93144e-06
3.50089e-06
2.74537e-06
3.44272e-07
7.13941e-06
3.1209e-05
3.74685e-05
4.51693e-05
5.42641e-05
6.02994e-05
7.43596e-05
9.01704e-05
9.79204e-05
0.000111003
8.51977e-05
8.58932e-05
7.4566e-05
7.79847e-05
7.3626e-05
7.17289e-05
5.44018e-05
5.05419e-05
3.94212e-05
2.68531e-05
2.87831e-05
3.2811e-05
2.63046e-05
3.75227e-05
2.44369e-05
2.07552e-05
6.34474e-06
4.76177e-06
4.41874e-05
1.59478e-05
0.000625589
0.00285803
0.007198
0.0108199
0.003881
0.00225481
0.00191411
0.00240944
0.00257475
0.0028621
0.00286582
0.0028767
0.00302081
0.00343879
0.00595882
0.00913325
0.00503345
0.00214055
0.00106213
0.000656444
0.00035949
0.000246684
0.000191547
0.000117897
8.84281e-05
4.43296e-05
3.09769e-05
1.71766e-05
8.86622e-06
3.04249e-06
0.000676539
0.00130693
0.00155152
0.00191949
0.00251318
0.00314897
0.00416786
0.00598334
0.00940605
0.0157421
0.0161528
0.0158934
0.0085669
0.00535282
0.00386403
0.0030297
0.00250585
0.00223103
0.00165247
0.00113937
0.000666203
0.00038038
0.000235439
0.000163004
0.000150927
0.000170277
0.000190305
0.000145017
8.06814e-05
1.08786e-05
0.000755778
0.00183632
0.000907155
0.000713462
0.000658778
0.00071102
0.000559913
0.000593441
0.000558368
0.000679808
0.000918545
0.00143377
0.00248631
0.0043056
0.00839183
0.0181229
0.0103453
0.0048842
0.00248476
0.00127944
0.000685036
0.000835026
0.000670733
0.00031805
7.63257e-05
0.000102258
9.47524e-05
4.27009e-05
2.83366e-05
9.60303e-06
4.53055e-06
1.78756e-05
2.80751e-05
9.92525e-05
0.000123869
0.000442788
0.000711052
0.00162818
0.000930831
0.000555173
0.000481481
0.000349008
0.000241094
0.000171187
0.000185768
0.000318183
7.54422e-05
1.99874e-05
5.94255e-06
5.28461e-06
2.19342e-05
2.28476e-05
3.2023e-05
4.26597e-05
6.37195e-05
5.55189e-05
4.54421e-05
3.16929e-05
2.07261e-05
6.64041e-06
1.82197e-06
2.40996e-06
3.23145e-05
0.00055369
0.00649959
0.00124814
0.00135736
0.000760479
0.000639312
0.000227853
0.000156823
2.89027e-05
1.82295e-05
3.69507e-06
1.83702e-06
1.18784e-06
9.10791e-07
8.66954e-07
2.57578e-07
5.15545e-07
2.26338e-06
3.48089e-06
5.76051e-06
5.55753e-06
1.02819e-05
3.11513e-06
3.10908e-06
1.93235e-06
2.32443e-06
3.27848e-06
1.75171e-06
1.57641e-06
1.98309e-06
3.14114e-06
5.93757e-06
2.19069e-06
9.00644e-07
8.65991e-07
1.2897e-06
2.72961e-06
3.96411e-06
2.11352e-06
1.54684e-06
1.05972e-06
9.74203e-07
6.99195e-07
6.69552e-07
6.28555e-07
1.24707e-06
1.92891e-06
4.54403e-07
3.72776e-07
3.38826e-07
2.3471e-07
1.34852e-07
1.24721e-07
1.30677e-07
1.12587e-07
7.04496e-08
1.0823e-07
9.0095e-05
6.31496e-05
4.55259e-05
3.70539e-05
3.18684e-05
2.90975e-05
2.78005e-05
2.73974e-05
2.75576e-05
2.85742e-05
2.98131e-05
3.14088e-05
3.32997e-05
3.5614e-05
3.84806e-05
4.19608e-05
4.58138e-05
5.0671e-05
5.58821e-05
6.38235e-05
7.29673e-05
8.31023e-05
9.66636e-05
0.000113643
0.000136311
0.000136269
0.000136282
0.000136252
0.000136247
0.000136125
0.000136047
0.00013616
0.000136172
0.000136179
0.000136182
0.000136186
0.000136187
0.00013619
0.000136189
0.000136193
0.000136192
0.000136194
0.000136198
0.0001362
0.000136204
0.000136202
0.000136202
0.000136196
0.00013619
0.000136188
0.000136185
0.000136181
0.000136181
0.000136178
0.000136178
0.000136173
0.000136171
0.000136169
0.00013616
0.000136021
0.000136037
0.000136156
0.000136165
0.000136169
0.000136172
0.000136175
0.000136179
0.00013618
0.000136184
0.000136185
0.000136188
0.00013619
0.000136194
0.000136199
0.000136201
0.000136203
0.000136199
0.000136196
0.000136191
0.000136187
0.000136187
0.000136183
0.000136182
0.000136178
0.000136177
0.000136172
0.00013617
0.000136165
0.000136154
0.000136036
0.000136022
0.000136159
0.000136165
0.00013617
0.000136174
0.000136178
0.000136182
0.000136182
0.000136187
0.000136187
0.00013619
0.000136192
0.000136197
0.000136201
0.000136205
0.000136205
0.0001362
0.000136196
0.000136191
0.000136189
0.000136186
0.000136186
0.000136183
0.000136181
0.000136178
0.000136175
0.00013617
0.000136166
0.00013616
0.000136021
0.000136038
0.000136158
0.000136168
0.000136172
0.000136177
0.000136177
0.000136184
0.000136182
0.000136189
0.000136185
0.000136192
0.00013619
0.000136197
0.000136199
0.000136201
0.000136202
0.000136197
0.000136195
0.000136191
0.000136188
0.000136187
0.000136183
0.000136183
0.000136178
0.000136177
0.000136171
0.00013617
0.000136165
0.000136153
0.000136035
3.13872e-06
5.90857e-05
9.35658e-05
0.000143147
0.000195147
0.000249653
0.000306056
0.000322143
0.000347677
0.000304643
0.000209542
0.000121708
5.00784e-05
1.79328e-06
5.28029e-05
0.000497244
0.000903012
0.00141203
0.00192111
0.00239502
0.00318753
0.00461557
0.00663125
0.00796851
0.00850575
0.00843738
0.00796743
0.00692249
0.00591762
0.00505763
0.00469542
0.00414216
0.00345738
0.00275693
0.00234659
0.00233027
0.00239297
0.00229714
0.00191767
0.00103494
0.000560069
0.000264718
0.000108336
0.000203022
0.00137203
0.00518787
0.00673381
0.00787951
0.00802571
0.00787189
0.00712169
0.00708393
0.00689716
0.0067974
0.00663731
0.00656034
0.00618085
0.00598037
0.00555477
0.00532171
0.00504844
0.00495719
0.00468372
0.00442868
0.00407434
0.00371181
0.00332995
0.00285677
0.00238457
0.00197205
0.00146729
0.000823331
0.000393996
1.79738e-05
0.00196427
0.00419733
0.00470917
0.00535406
0.00581203
0.00614103
0.00609202
0.00589261
0.00556112
0.00518815
0.00460741
0.00442361
0.0042911
0.00487182
0.00584985
0.00716476
0.00874168
0.0104961
0.0119634
0.0121992
0.0114798
0.00987278
0.00771032
0.00555289
0.00389772
0.00261951
0.00155418
0.000766202
0.000363665
4.65123e-05
0.00333453
0.0141674
0.0195015
0.0240209
0.0201561
0.0225967
0.0214499
0.0217636
0.021164
0.0206611
0.0188182
0.0175793
0.0152393
0.014172
0.012423
0.0114944
0.0104781
0.00925849
0.00717361
0.00517089
0.00358614
0.00318575
0.00267859
0.00216598
0.0015468
0.000585504
0.000361551
0.000198278
7.37928e-05
1.35419e-05
3.43275e-05
0.000390935
0.00078717
0.00165311
0.00267988
0.00351165
0.00439651
0.00515672
0.00608679
0.00714872
0.00842744
0.00930651
0.00881889
0.00740779
0.00618781
0.00538971
0.0042163
0.00279651
0.00201757
0.000922135
0.000297012
0.000207536
0.000237922
0.000250354
0.000267736
0.000282003
0.000281955
0.000153674
6.83147e-05
3.14983e-05
0.000303348
0.000600537
0.0027089
0.00629316
0.00853866
0.00833558
0.00651306
0.00506071
0.00308492
0.00153551
0.000745777
0.000280877
0.00012308
5.51857e-05
3.47361e-05
2.67341e-05
3.26975e-05
4.94826e-05
8.14993e-05
0.000120879
5.61874e-05
3.07669e-05
2.97652e-05
2.81349e-05
2.58687e-05
1.95301e-05
1.6546e-05
9.33592e-06
5.80849e-06
1.54187e-06
7.71317e-07
3.91252e-06
4.82662e-06
5.6807e-06
5.78126e-06
4.07729e-06
2.67897e-06
1.49543e-06
1.36962e-06
1.22853e-06
1.28162e-06
1.63363e-06
1.6107e-06
1.71407e-06
1.58243e-06
1.63434e-06
1.41358e-06
1.64579e-06
1.81237e-06
1.68416e-06
1.92879e-06
1.98385e-06
2.14911e-06
2.15288e-06
1.91476e-06
1.66128e-06
1.52943e-06
1.24847e-06
9.50401e-07
1.16813e-07
3.5599e-05
3.44738e-05
3.13203e-05
2.97514e-05
2.85517e-05
2.78659e-05
2.75083e-05
2.73697e-05
2.7925e-05
2.89647e-05
3.05892e-05
3.26831e-05
3.49876e-05
3.73863e-05
4.08314e-05
4.50465e-05
4.94341e-05
5.46848e-05
6.15992e-05
7.02236e-05
7.97727e-05
9.13186e-05
0.00010634
0.000126273
0.000152716
0.000190603
0.000250625
0.000366356
0.000523534
0.000137762
0.000137693
0.00052337
0.000545186
0.000545359
0.00054512
0.000545256
0.000545054
0.000545187
0.00054495
0.000545053
0.000544816
0.000544866
0.00054456
0.000544643
0.000544406
0.000544538
0.000544507
0.000544779
0.000544769
0.000544917
0.000544991
0.000544977
0.000545191
0.000545064
0.00054525
0.000545109
0.00054534
0.000545074
0.00052435
0.0001376
0.000137693
0.000523543
0.000545222
0.000545158
0.000545272
0.000545071
0.00054523
0.000545009
0.000545124
0.00054487
0.000544975
0.000544719
0.00054472
0.000544496
0.000544526
0.000544387
0.000544626
0.000544581
0.000544881
0.00054484
0.000545082
0.000544987
0.000545212
0.000545072
0.000545263
0.000545075
0.00054523
0.000545036
0.000523087
0.000137674
0.000137591
0.000523941
0.000545012
0.000545169
0.000545308
0.000545162
0.000545292
0.00054508
0.000545179
0.000544926
0.000545016
0.000544721
0.000544731
0.000544495
0.000544481
0.000544484
0.000544488
0.000544713
0.00054471
0.000544992
0.000544902
0.000545143
0.000545036
0.000545237
0.0005451
0.000545253
0.000545126
0.000545087
0.000524054
0.000137596
0.000137684
0.000523556
0.000545189
0.000545123
0.000545254
0.000545069
0.000545282
0.000545081
0.000545251
0.000544997
0.000545111
0.000544813
0.000544804
0.000544514
0.000544559
0.000544392
0.000544609
0.000544569
0.000544836
0.000544805
0.000545083
0.000544999
0.000545243
0.000545105
0.0005453
0.0005451
0.000545232
0.000544999
0.000523058
0.00013767
4.94928e-06
0.000103535
0.000156892
0.000260894
0.000357519
0.000510584
0.000606071
0.000736309
0.000754207
0.000694607
0.000487738
0.000301247
0.000113692
4.70919e-06
0.000202401
0.00169296
0.00275671
0.00390338
0.00506054
0.00608821
0.00731154
0.00938633
0.010971
0.012252
0.0129271
0.0123797
0.011166
0.00974932
0.00786056
0.00666789
0.00574387
0.00539091
0.00480667
0.00389579
0.00331994
0.00290723
0.00286053
0.00249212
0.00221205
0.00139507
0.000844178
0.000402933
0.00016227
0.000238494
0.00126401
0.00611239
0.00720321
0.00808325
0.00820716
0.00810206
0.00733832
0.00743121
0.0071612
0.00719877
0.00717886
0.00694142
0.00681228
0.00650319
0.00610439
0.00588204
0.00585481
0.00584997
0.00581689
0.00550731
0.00501229
0.00456512
0.00425299
0.00391321
0.0034743
0.00273594
0.00196191
0.00125322
0.000804786
2.61293e-05
0.00221285
0.00457692
0.00486418
0.00537787
0.00567929
0.00583864
0.00583009
0.00558972
0.00532451
0.00488945
0.00477266
0.00446508
0.00485789
0.00529361
0.00639523
0.007858
0.00937565
0.0110353
0.011969
0.0121398
0.0112899
0.00964135
0.00772244
0.00590613
0.0047862
0.00391139
0.00275885
0.00159591
0.000819598
7.45532e-05
0.00331572
0.0147926
0.0177392
0.0199235
0.0161864
0.0190138
0.0173579
0.0190029
0.0181781
0.0186874
0.0174122
0.0171027
0.0157492
0.0155192
0.0149378
0.0151885
0.0155405
0.0150689
0.0134491
0.0107111
0.0083154
0.00707218
0.00617888
0.00522134
0.00401884
0.00238588
0.00146918
0.000617261
0.000130785
7.7398e-06
4.6422e-05
0.000520532
0.00096382
0.00206598
0.00337243
0.00476573
0.0056727
0.00665121
0.00800545
0.00968907
0.0117158
0.0130726
0.0133065
0.0126709
0.0122309
0.0110396
0.00893957
0.00591447
0.00414984
0.00254569
0.00140195
0.000828183
0.00046701
0.000457656
0.000476138
0.000381335
0.000357124
0.000226934
7.31438e-05
2.83092e-05
0.000253586
0.00202626
0.00667678
0.0151192
0.0190745
0.0184567
0.0151808
0.0117798
0.00755369
0.00368257
0.00157561
0.000710126
0.000320898
0.000178946
8.98394e-05
6.45555e-05
6.29803e-05
9.40387e-05
0.000218199
0.0022241
0.00751139
0.00719364
3.25948e-05
3.81443e-05
3.31349e-05
2.49832e-05
2.20448e-05
1.23078e-05
7.94482e-06
1.76755e-06
1.07732e-06
9.87973e-06
1.57948e-05
2.10688e-05
2.15576e-05
1.54413e-05
7.28557e-06
3.61747e-06
2.19915e-06
1.92372e-06
1.87228e-06
2.24606e-06
2.34622e-06
2.62548e-06
2.48393e-06
2.57963e-06
2.09404e-06
2.14266e-06
1.87987e-06
1.84611e-06
1.78961e-06
1.95828e-06
1.87088e-06
1.92393e-06
1.68999e-06
1.60214e-06
1.30316e-06
1.27315e-06
1.58419e-06
2.32232e-07
2.6344e-05
2.71943e-05
2.7959e-05
2.90381e-05
3.03802e-05
3.16677e-05
3.33029e-05
3.52497e-05
3.69833e-05
3.90996e-05
4.18346e-05
4.48106e-05
4.81979e-05
5.26291e-05
5.77721e-05
6.33853e-05
6.9766e-05
7.71928e-05
8.59142e-05
9.61551e-05
0.000108859
0.000124853
0.000144605
0.000168984
0.00020088
0.000246805
0.000313692
0.000418697
0.000613899
0.000176696
0.000176603
0.000656997
0.000677337
0.000677447
0.000677143
0.000677186
0.000676862
0.000676894
0.000676563
0.000676584
0.000676224
0.000676196
0.000675733
0.000675588
0.000675178
0.000675281
0.000675282
0.00067582
0.000676076
0.000676411
0.000676583
0.000676698
0.000677051
0.000677029
0.000677346
0.000677285
0.000677564
0.000677336
0.000657238
0.000176646
0.00017659
0.000657119
0.000677528
0.000677347
0.000677418
0.000677092
0.000677128
0.00067679
0.000676817
0.000676456
0.000676447
0.00067604
0.000675896
0.000675376
0.000675305
0.0006751
0.000675474
0.000675617
0.000676117
0.000676161
0.000676548
0.000676555
0.000676908
0.00067689
0.000677241
0.000677212
0.000677488
0.00067734
0.000657045
0.000176593
0.000176641
0.000656953
0.00067728
0.0006774
0.000677385
0.000677077
0.000677083
0.00067674
0.000676749
0.000676384
0.000676373
0.000675969
0.000675848
0.000675355
0.000675216
0.000675222
0.000675349
0.00067585
0.000675977
0.000676381
0.000676391
0.000676749
0.000676733
0.000677067
0.000677046
0.000677352
0.000677327
0.000677313
0.00065685
0.000176638
0.000176589
0.000657094
0.000677492
0.00067731
0.000677377
0.000677057
0.000677104
0.000676765
0.000676807
0.000676458
0.000676455
0.000676053
0.000675939
0.000675424
0.000675336
0.000675081
0.000675432
0.000675573
0.000676076
0.000676125
0.00067651
0.000676528
0.000676892
0.000676882
0.000677233
0.000677211
0.000677479
0.00067734
0.000657044
0.000176591
7.07707e-06
0.000159671
0.000268861
0.000464064
0.000666487
0.000927793
0.0011334
0.00142544
0.00172074
0.00170858
0.0013291
0.000814404
0.000298004
1.45138e-05
0.000923476
0.00431576
0.00621742
0.00731911
0.00805906
0.00879235
0.00976384
0.0109485
0.0126963
0.0142272
0.0145669
0.0140632
0.0132888
0.011389
0.0099203
0.00826378
0.00722879
0.00683135
0.00643825
0.00583585
0.00491214
0.00430388
0.00386173
0.00319923
0.00276967
0.00170854
0.000965304
0.000426315
0.000238918
0.000389675
0.00134477
0.00731005
0.00785002
0.00840289
0.00861143
0.00845266
0.00798811
0.00786394
0.00770731
0.00770756
0.00760387
0.00750639
0.00719487
0.00687312
0.00656003
0.006312
0.00606217
0.00609447
0.00618973
0.00604168
0.00557728
0.0051624
0.00492859
0.00494005
0.00458115
0.00382563
0.00282974
0.002132
0.00146321
7.97484e-05
0.00231887
0.00538589
0.00543023
0.00565924
0.00586535
0.00589743
0.00576787
0.00543067
0.00503337
0.00503733
0.00475334
0.00518007
0.00558124
0.00669774
0.00773142
0.0089031
0.0101655
0.0111944
0.0115984
0.0115657
0.0111444
0.010256
0.00880097
0.0072395
0.00631073
0.00549515
0.00442265
0.00316982
0.00214903
0.000181625
0.00313025
0.0135794
0.0152409
0.0156625
0.0157678
0.0158321
0.0159354
0.0168991
0.0167971
0.017116
0.0167291
0.0163979
0.0164779
0.0167377
0.0185146
0.0201859
0.0209689
0.0208981
0.0192864
0.0165194
0.0137362
0.0119494
0.0105675
0.0095491
0.00839663
0.00624864
0.00403243
0.00220099
0.000453508
3.54463e-06
3.18405e-05
0.000946623
0.00178339
0.00326155
0.00491489
0.00620408
0.00743413
0.00860348
0.0107691
0.01346
0.0163169
0.0181495
0.0191604
0.0199976
0.0202714
0.0191489
0.0150624
0.0112268
0.00699789
0.00452436
0.00313725
0.00232379
0.00202933
0.00145461
0.00110986
0.000599056
0.000474513
0.000248553
0.000174152
6.3029e-05
9.05422e-05
0.00213412
0.00814859
0.0210465
0.0288089
0.0245894
0.0242169
0.0196714
0.0140232
0.00788344
0.00408763
0.00207535
0.00124321
0.00076498
0.000404324
0.000182211
0.000162451
0.000192792
0.000346312
0.00157067
0.0052027
0.00889963
0.000487375
7.41033e-05
3.88853e-05
7.00661e-05
7.94991e-05
2.95078e-05
1.37719e-05
3.77579e-06
4.20944e-06
2.67071e-05
4.21295e-05
5.59775e-05
6.08913e-05
4.04958e-05
2.25861e-05
7.49354e-06
4.33131e-06
2.74089e-06
2.41592e-06
2.57725e-06
2.97179e-06
3.241e-06
3.63186e-06
3.44723e-06
3.4476e-06
2.94631e-06
2.93966e-06
2.60833e-06
2.55961e-06
2.21774e-06
1.96407e-06
1.65351e-06
1.46996e-06
1.11224e-06
9.72358e-07
9.4005e-07
1.15644e-06
2.5037e-07
1.82757e-05
1.90552e-05
2.04073e-05
2.19305e-05
2.36029e-05
2.55747e-05
2.76295e-05
2.97881e-05
3.24507e-05
3.53149e-05
3.84455e-05
4.19359e-05
4.5683e-05
4.97451e-05
5.44906e-05
5.99332e-05
6.64681e-05
7.4199e-05
8.29701e-05
9.34214e-05
0.000105528
0.000120347
0.000138603
0.000161847
0.000192145
0.000234197
0.000298067
0.000409758
0.000655284
0.000175612
0.00017552
0.000656927
0.000682167
0.000682517
0.000682443
0.000682454
0.000682402
0.0006824
0.00068236
0.000682357
0.000682317
0.000682314
0.000682264
0.000682256
0.000682215
0.000682224
0.000682218
0.000682272
0.000682268
0.000682381
0.000682407
0.00068233
0.000682372
0.000682363
0.000682403
0.000682393
0.000682433
0.000682131
0.000656857
0.000175484
0.000175513
0.000656877
0.000682176
0.000682398
0.000682404
0.000682368
0.000682371
0.00068234
0.000682343
0.000682309
0.000682309
0.000682273
0.000682262
0.000682217
0.000682216
0.000682194
0.000682232
0.00068224
0.000682292
0.000682294
0.000682335
0.000682335
0.000682374
0.000682376
0.00068242
0.000682406
0.000682483
0.000682185
0.000656891
0.000175509
0.000175484
0.000656904
0.000682163
0.000682399
0.000682453
0.000682397
0.000682394
0.000682349
0.000682354
0.000682312
0.000682312
0.000682271
0.000682263
0.000682212
0.00068228
0.00068228
0.000682208
0.000682261
0.000682267
0.000682308
0.00068231
0.000682349
0.000682347
0.00068239
0.000682392
0.000682443
0.000682417
0.000682211
0.000656903
0.000175484
0.000175514
0.00065685
0.000682172
0.000682396
0.000682402
0.000682372
0.000682371
0.000682344
0.000682346
0.000682318
0.000682315
0.000682279
0.000682271
0.00068222
0.000682217
0.000682195
0.000682227
0.000682236
0.000682286
0.000682291
0.000682332
0.000682333
0.000682373
0.000682373
0.000682422
0.000682408
0.000682482
0.000682189
0.000656908
0.00017551
1.08162e-05
0.000241637
0.000442411
0.000769801
0.00110663
0.00148171
0.00175749
0.0022366
0.00261148
0.00304745
0.00313435
0.00228568
0.000989509
8.54111e-05
0.0021431
0.00799833
0.0099702
0.0106432
0.0106117
0.0106572
0.0108732
0.0116272
0.0121746
0.0123781
0.0127641
0.0132991
0.0124647
0.0110369
0.00947427
0.0084036
0.00772732
0.00708848
0.00699878
0.00679422
0.00646358
0.00570043
0.00507831
0.00434322
0.00363844
0.00248849
0.00153104
0.000723768
0.000322835
0.000568119
0.00130073
0.00829732
0.00847507
0.00882132
0.00897569
0.00897069
0.00872635
0.00860946
0.00822753
0.00824541
0.00814541
0.00787342
0.00764265
0.00724576
0.00688393
0.0066499
0.00654378
0.00624107
0.00627572
0.00621646
0.00578315
0.00533585
0.00516638
0.00546825
0.0055427
0.00509095
0.00440044
0.00378628
0.00309113
0.000328573
0.00337181
0.00631449
0.00628966
0.00611995
0.00620313
0.0060982
0.00575529
0.00526979
0.00525814
0.00521428
0.00590354
0.00662842
0.00754627
0.00817936
0.00924591
0.0107276
0.0118188
0.0122314
0.0115083
0.0108581
0.0106692
0.0104445
0.00982123
0.00870919
0.00815314
0.00778684
0.00703872
0.00580427
0.00515307
0.00067068
0.00329838
0.0124056
0.0135544
0.0155512
0.0143753
0.0158262
0.0155362
0.0162741
0.016087
0.0163537
0.0158955
0.0163119
0.0168351
0.0185474
0.021102
0.0237306
0.0252539
0.0251459
0.0232802
0.0201852
0.0172736
0.0154933
0.0147529
0.0142786
0.013677
0.0119854
0.00935559
0.00657231
0.0021569
6.66007e-06
0.000384645
0.00407124
0.00628388
0.0064474
0.00691481
0.00766355
0.00878469
0.0111367
0.0143448
0.0181069
0.0213206
0.022968
0.0243455
0.0268229
0.0266278
0.0254915
0.02035
0.0183097
0.0135159
0.00966709
0.00587286
0.00396065
0.00332098
0.00317943
0.00248867
0.00143446
0.000886366
0.00054323
0.000187989
0.00020255
6.93101e-05
0.00402876
0.011258
0.0252266
0.0346762
0.0312596
0.0283266
0.0273255
0.0235311
0.0172188
0.0110423
0.00759719
0.00565694
0.00421617
0.00259844
0.00104549
0.000433807
0.000370807
0.000377815
0.000582836
0.00199033
0.00294477
0.00125952
0.000690421
0.00168462
0.000750093
0.00180652
0.00024642
2.30418e-05
4.33751e-06
3.9469e-06
7.61812e-05
8.6498e-05
0.00012331
0.000128501
9.66768e-05
5.34724e-05
2.34203e-05
8.90242e-06
6.22349e-06
4.01195e-06
3.8302e-06
3.48876e-06
4.04401e-06
4.27538e-06
4.92844e-06
4.91337e-06
5.03609e-06
4.3018e-06
3.93822e-06
3.33604e-06
2.77657e-06
2.21551e-06
1.75109e-06
1.28245e-06
1.12985e-06
1.0171e-06
9.61515e-07
8.95666e-07
3.53176e-07
1.50062e-05
1.37659e-05
1.49151e-05
1.63759e-05
1.79333e-05
1.9624e-05
2.16971e-05
2.39624e-05
2.64224e-05
2.91113e-05
3.19825e-05
3.52303e-05
3.91506e-05
4.35611e-05
4.83843e-05
5.38996e-05
6.01355e-05
6.72004e-05
7.54346e-05
8.49111e-05
9.62743e-05
0.000109939
0.000126685
0.00014801
0.000176125
0.000215252
0.000273971
0.000375719
0.000600185
0.00017007
0.000169992
0.000640081
0.000665069
0.000665174
0.00066536
0.000665162
0.00066535
0.000665151
0.000665341
0.000665137
0.00066532
0.000665131
0.000665303
0.000665121
0.000665289
0.000665113
0.000665283
0.000665106
0.000665281
0.000665171
0.000665142
0.000665306
0.000665118
0.00066531
0.000665127
0.000665319
0.000665135
0.000665049
0.000639662
0.000170009
0.000169967
0.000640022
0.000664825
0.000665304
0.000665117
0.000665308
0.000665119
0.00066531
0.00066512
0.000665305
0.000665117
0.000665292
0.000665107
0.000665279
0.000665104
0.000665276
0.000665104
0.000665283
0.000665111
0.000665297
0.000665115
0.000665301
0.000665118
0.000665302
0.000665116
0.000665302
0.000665142
0.000664976
0.000640037
0.00016997
0.000170004
0.000639799
0.000665001
0.000665302
0.000665124
0.000665308
0.000665119
0.000665301
0.000665116
0.000665301
0.000665113
0.000665291
0.0006651
0.000665279
0.000665108
0.00066511
0.000665274
0.0006651
0.000665288
0.000665108
0.000665298
0.000665117
0.000665302
0.000665117
0.000665302
0.000665117
0.000665301
0.000664943
0.000639842
0.000170002
0.000169971
0.000640005
0.000664825
0.000665308
0.000665118
0.00066531
0.000665121
0.000665314
0.000665121
0.000665311
0.00066512
0.000665297
0.00066511
0.000665282
0.000665097
0.000665273
0.0006651
0.000665276
0.00066511
0.000665298
0.000665116
0.000665304
0.000665121
0.000665305
0.000665121
0.000665305
0.000665148
0.000664978
0.000640061
0.000169971
1.76927e-05
0.000354214
0.000693019
0.00116192
0.0016611
0.0019342
0.00241934
0.0028793
0.003462
0.00404757
0.00486161
0.00519554
0.00402113
0.000596495
0.00661104
0.0112972
0.0125953
0.0124129
0.0113667
0.0107749
0.0106714
0.010605
0.0103391
0.0102351
0.00990781
0.00986113
0.0105137
0.00960883
0.00832478
0.00785545
0.00723832
0.00703806
0.00683154
0.00728468
0.00727759
0.00693427
0.00645122
0.00567512
0.00481555
0.00356554
0.0024495
0.00196307
0.000640776
0.000352658
0.00142833
0.00939108
0.00931376
0.00926046
0.00932695
0.00931455
0.00922506
0.00897253
0.00895103
0.00866342
0.00853489
0.00831829
0.00791318
0.00759522
0.00732564
0.00721441
0.00690212
0.00665696
0.00649312
0.00626227
0.0058044
0.00531444
0.00521823
0.00568969
0.00611474
0.00626075
0.00619059
0.00614347
0.00572607
0.00333123
0.00670248
0.00725053
0.00682611
0.00697485
0.00666941
0.00635237
0.00576008
0.0056325
0.00564323
0.00666379
0.00776704
0.00896315
0.00952766
0.0105314
0.0120095
0.0140606
0.0154683
0.0143486
0.0119856
0.0104641
0.0102366
0.0105809
0.0106686
0.0101325
0.00962774
0.00984006
0.00919616
0.00841036
0.00815947
0.00199566
0.00376269
0.0129033
0.0151035
0.0153416
0.0166297
0.0163544
0.0169248
0.0160083
0.0161537
0.0157517
0.0160065
0.0163365
0.0177762
0.0194858
0.0234504
0.0264461
0.0277769
0.0273593
0.0246407
0.0211858
0.0182174
0.0168543
0.0171943
0.0178564
0.0184405
0.0178921
0.0161719
0.0139296
0.00779733
3.15223e-05
0.00336523
0.0128048
0.0123225
0.00973954
0.00901774
0.00936624
0.0119839
0.0150323
0.0194033
0.023289
0.0257551
0.0276171
0.0293305
0.0312578
0.0304924
0.0281495
0.0239823
0.0226197
0.0193225
0.016528
0.0107483
0.00694156
0.00414626
0.0037403
0.00341233
0.00340727
0.0023696
0.001507
0.000731799
0.00063815
9.85993e-05
0.0122947
0.0226633
0.0324665
0.0359186
0.0277245
0.0323195
0.0309749
0.030703
0.0287913
0.0257435
0.0200195
0.0164923
0.0130114
0.00919336
0.0051607
0.00192268
0.000758361
0.000495833
0.000496834
0.0011612
0.00169686
0.00116158
0.00176016
0.00509952
0.00378949
0.00397352
0.00114516
0.000174204
2.9693e-05
9.46718e-07
0.000109658
0.000191688
0.000268385
0.000253995
0.000196765
0.000118661
5.42299e-05
2.98207e-05
1.53671e-05
1.02001e-05
7.0158e-06
6.09263e-06
5.13722e-06
5.50106e-06
5.56901e-06
6.37261e-06
6.13555e-06
6.22581e-06
5.1234e-06
4.57932e-06
3.684e-06
2.73156e-06
1.86288e-06
1.39717e-06
1.28327e-06
1.27571e-06
1.3124e-06
1.13424e-06
4.19139e-07
4.71562e-06
1.0285e-05
1.12152e-05
1.24382e-05
1.39289e-05
1.58544e-05
1.76259e-05
1.9708e-05
2.19893e-05
2.47751e-05
2.79145e-05
3.09324e-05
3.4316e-05
3.81971e-05
4.25978e-05
4.74779e-05
5.30077e-05
5.93351e-05
6.68055e-05
7.59293e-05
8.66712e-05
9.95404e-05
0.00011462
0.000133562
0.000158231
0.000190876
0.000240514
0.00032545
0.000511578
0.000164406
0.000164325
0.000620303
0.00064417
0.000644339
0.00064443
0.000644327
0.000644426
0.000644321
0.000644419
0.00064431
0.000644409
0.000644298
0.0006444
0.000644291
0.000644391
0.000644282
0.000644382
0.000644275
0.000644364
0.000644338
0.000644315
0.000644387
0.000644286
0.000644392
0.00064429
0.000644396
0.000644293
0.000644149
0.000620153
0.000164306
0.00016431
0.000620195
0.000644021
0.000644388
0.000644277
0.000644391
0.000644283
0.000644392
0.000644286
0.000644391
0.000644285
0.000644382
0.000644273
0.000644375
0.00064427
0.000644373
0.000644273
0.000644378
0.000644277
0.000644383
0.00064428
0.000644382
0.000644272
0.000644382
0.000644275
0.000644377
0.000644305
0.00064412
0.000620225
0.000164308
0.000164304
0.000620177
0.000644147
0.000644388
0.000644293
0.000644387
0.000644281
0.000644383
0.00064428
0.000644384
0.000644277
0.000644381
0.000644267
0.000644365
0.000644305
0.000644301
0.000644361
0.000644265
0.000644377
0.000644272
0.000644382
0.000644277
0.00064438
0.000644277
0.000644377
0.000644278
0.000644377
0.000644112
0.000620194
0.000164303
0.000164312
0.000620195
0.000644025
0.000644391
0.000644275
0.000644389
0.00064428
0.000644392
0.000644283
0.000644393
0.000644282
0.000644385
0.00064427
0.00064437
0.000644261
0.000644366
0.000644262
0.000644369
0.000644272
0.000644384
0.000644283
0.000644389
0.000644282
0.000644385
0.000644281
0.000644387
0.000644312
0.000644127
0.00062025
0.000164309
3.03041e-05
0.000508573
0.00100311
0.00171164
0.00211636
0.00261463
0.00302228
0.00363627
0.0042295
0.00509065
0.00664119
0.00876461
0.0105551
0.00542555
0.020051
0.0137468
0.0141104
0.0129
0.0113793
0.0105393
0.0102625
0.0100036
0.00956303
0.00893542
0.0082695
0.00811913
0.00808342
0.00849233
0.00788664
0.00722706
0.00709622
0.0068273
0.00688303
0.00716458
0.00770728
0.00794739
0.0075247
0.00717714
0.00643766
0.00514505
0.00420141
0.00330535
0.00283156
0.000265501
0.00168636
0.0106034
0.00989249
0.00961796
0.00972368
0.00978272
0.00968859
0.00950651
0.00940924
0.00906903
0.00889927
0.00856154
0.00829922
0.00802344
0.00796891
0.00782804
0.00762229
0.0073436
0.00702569
0.00648358
0.00594344
0.00553499
0.00566216
0.00601638
0.00630926
0.00681732
0.00775251
0.00830723
0.00881175
0.00247105
0.0210495
0.00930605
0.00831703
0.00749963
0.00751424
0.00681375
0.00623344
0.00611681
0.00721907
0.00859339
0.010263
0.0111478
0.0118334
0.0129881
0.015853
0.0186011
0.0195145
0.0168276
0.0123511
0.00998627
0.0100805
0.0108952
0.0114017
0.0115562
0.0115592
0.0112252
0.0110367
0.0106133
0.0104503
0.00457077
0.00601134
0.0158532
0.0163386
0.0176475
0.0178552
0.0186537
0.0170339
0.0166491
0.0163993
0.0161372
0.0158442
0.0167942
0.0179655
0.0200201
0.0230992
0.0267661
0.0274979
0.0262103
0.0236484
0.0205463
0.0193578
0.0195215
0.0202345
0.021389
0.022491
0.0228931
0.0235037
0.0235842
0.0202616
0.000218229
0.013797
0.0179335
0.0144338
0.012129
0.0110741
0.0120866
0.0143472
0.0186418
0.022919
0.0265987
0.0287962
0.0303286
0.0328573
0.034749
0.0335791
0.0295424
0.0279842
0.0259467
0.0219448
0.0209948
0.0154484
0.0130309
0.00715279
0.00457598
0.00370663
0.00486478
0.00462348
0.00333564
0.00209584
0.000933196
0.000169285
0.0200688
0.0311756
0.037512
0.0293218
0.0309951
0.030655
0.0338201
0.0379293
0.0403808
0.0406885
0.0368713
0.0333639
0.0305714
0.0257499
0.0169107
0.00856719
0.00273375
0.000895252
0.000634645
0.00121191
0.00091516
0.000646469
0.00112413
0.00256932
0.00144037
0.00103393
0.000118287
3.03186e-05
9.03173e-06
5.31938e-06
0.000111559
0.000322989
0.000547384
0.000510573
0.000398622
0.0002315
0.00017267
8.07312e-05
4.7273e-05
2.48761e-05
1.6684e-05
1.14657e-05
9.1509e-06
7.52903e-06
7.10477e-06
6.7918e-06
7.08736e-06
6.65851e-06
6.31989e-06
5.06735e-06
4.14239e-06
3.48561e-06
2.74982e-06
2.03331e-06
1.75938e-06
1.78016e-06
1.94734e-06
1.72606e-06
5.36111e-07
4.34952e-07
9.17845e-07
8.02306e-06
9.53334e-06
1.07619e-05
1.25554e-05
1.5079e-05
1.67473e-05
1.87074e-05
2.08758e-05
2.33192e-05
2.60885e-05
2.91608e-05
3.27399e-05
3.67271e-05
4.12491e-05
4.63835e-05
5.23308e-05
5.92034e-05
6.71942e-05
7.65267e-05
8.76376e-05
0.000101313
0.000117878
0.000133742
0.000158218
0.000196453
0.000259662
0.000391567
0.00015383
0.000153765
0.000586856
0.00061013
0.000610308
0.000610363
0.000610304
0.000610357
0.000610297
0.000610351
0.00061029
0.000610341
0.000610287
0.000610329
0.000610289
0.000610326
0.000610283
0.00061032
0.000610271
0.000610302
0.000610323
0.000610297
0.000610317
0.000610261
0.000610316
0.00061026
0.000610311
0.000610264
0.000610062
0.00058682
0.000153732
0.000153738
0.000586825
0.000610002
0.00061031
0.000610257
0.000610318
0.000610266
0.000610323
0.000610271
0.000610323
0.000610269
0.000610318
0.00061027
0.000610314
0.000610274
0.000610312
0.000610272
0.000610314
0.000610266
0.000610316
0.000610262
0.000610311
0.000610255
0.000610306
0.00061025
0.000610305
0.000610277
0.000610063
0.000586875
0.000153738
0.000153729
0.000586866
0.000610093
0.000610323
0.00061026
0.000610308