/*--------------------------------*- C++ -*----------------------------------*\
| =========                 |                                                 |
| \\      /  F ield         | OpenFOAM: The Open Source CFD Toolbox           |
|  \\    /   O peration     | Version:  2.1.1                                 |
|   \\  /    A nd           | Web:      www.OpenFOAM.org                      |
|    \\/     M anipulation  |                                                 |
\*---------------------------------------------------------------------------*/
FoamFile
{
    version     2.0;
    format      ascii;
    class       volScalarField;
    location    "0.003050000";
    object      HO2;
}
// * * * * * * * * * * * * * * * * * * * * * * * * * * * * * * * * * * * * * //

dimensions      [0 0 0 0 0 0 0];

internalField   nonuniform List<scalar> 
12384
(
2.47561e-05
2.3102e-05
1.77693e-05
1.18374e-05
7.3405e-06
3.85292e-06
3.70333e-06
3.74182e-06
4.1096e-06
4.70144e-06
5.23285e-06
4.88857e-06
3.34547e-06
3.89971e-06
4.04948e-06
3.77888e-06
3.29466e-06
3.18183e-06
3.0921e-06
2.93372e-06
3.60671e-06
5.0933e-06
6.29951e-06
7.34872e-06
7.98647e-06
8.67762e-06
9.24944e-06
9.77586e-06
8.92811e-06
7.95455e-06
5.26716e-06
4.10724e-06
3.34097e-06
2.70222e-06
2.33364e-06
2.34972e-06
2.53208e-06
3.53103e-06
4.46899e-06
4.90387e-06
3.8314e-06
2.91628e-06
5.40705e-07
1.04362e-07
5.9685e-06
7.30314e-06
8.06364e-06
7.51703e-06
6.27113e-06
5.48097e-06
4.42105e-06
4.14456e-06
3.36163e-06
2.5464e-06
2.14833e-06
1.52375e-06
1.34226e-06
1.29664e-06
1.25247e-06
1.2783e-06
1.33718e-06
1.42054e-06
1.51711e-06
2.40446e-06
4.05087e-06
5.20083e-06
4.92187e-06
4.09002e-06
3.49323e-06
3.48434e-06
4.21198e-06
5.252e-06
4.97658e-06
4.37274e-06
3.85973e-06
1.1202e-06
8.33754e-07
1.18286e-06
1.47642e-06
2.03538e-06
1.4769e-06
1.27552e-06
1.07248e-06
8.37711e-07
6.43188e-07
4.70418e-07
2.46113e-07
2.17951e-07
1.97519e-07
1.76436e-07
1.62556e-07
1.51142e-07
1.6145e-07
1.80423e-07
2.16015e-07
5.24874e-07
1.04571e-06
2.70844e-06
5.75621e-06
4.69278e-06
3.57156e-06
4.80561e-06
5.68879e-06
4.76703e-06
1.37946e-05
4.17439e-06
1.5026e-06
1.47735e-06
1.11156e-06
1.04845e-06
8.9068e-07
9.81189e-07
9.80525e-07
1.09012e-06
9.827e-07
1.21815e-06
1.08138e-06
1.30408e-06
1.36686e-06
1.51877e-06
2.08605e-06
2.75645e-06
3.77117e-06
5.04644e-06
5.55725e-06
4.31979e-06
2.9925e-06
2.71445e-06
2.57208e-06
1.02827e-06
1.19193e-06
1.17828e-06
7.24597e-07
3.23038e-07
4.53662e-06
4.42638e-06
4.98286e-06
5.00618e-06
5.41422e-06
5.30535e-06
4.14932e-06
2.99025e-06
2.64118e-06
1.62975e-06
1.1636e-06
8.25969e-07
8.14048e-07
9.39705e-07
1.27473e-06
2.06458e-06
4.71799e-06
4.37854e-06
2.47487e-06
1.52417e-06
5.01944e-07
5.33918e-07
5.57108e-07
5.58867e-07
4.80628e-07
4.6517e-07
8.43896e-07
2.17296e-06
1.74737e-06
1.71208e-07
6.36377e-06
1.23971e-05
1.73169e-05
4.19877e-06
7.30685e-07
4.88989e-07
1.68025e-07
1.64503e-07
5.62232e-07
3.47248e-07
5.31828e-07
7.77345e-07
1.04105e-06
1.14551e-06
1.21612e-06
1.27861e-06
3.96775e-06
5.20446e-06
4.62622e-06
2.52361e-06
7.33116e-08
3.792e-08
7.36694e-10
1.59152e-11
5.11731e-12
7.56682e-12
1.85566e-12
3.59586e-14
1.97667e-15
3.91956e-17
6.25906e-08
2.66274e-07
6.81352e-07
1.08938e-06
1.09937e-06
9.4363e-07
7.93768e-07
7.14251e-07
7.08059e-07
6.51097e-07
6.89568e-07
6.22025e-07
7.18133e-07
6.52113e-07
7.72175e-07
6.32404e-07
7.60438e-07
7.16952e-07
9.59924e-07
1.46608e-06
4.85654e-06
4.52254e-06
4.27323e-06
4.04681e-06
3.80993e-06
3.91147e-06
8.33019e-06
2.20421e-05
2.43378e-05
5.19459e-05
1.61461e-56
1.22124e-58
1.14268e-62
8.05671e-67
4.94778e-71
2.78339e-75
1.51058e-79
8.37572e-84
5.04789e-88
3.45214e-92
2.63355e-96
2.15761e-100
1.82733e-104
1.57887e-108
1.37873e-112
1.21909e-116
1.08919e-120
9.88685e-125
9.13064e-129
8.64441e-133
8.43575e-137
8.52815e-141
9.00598e-145
9.98193e-149
1.17277e-152
1.47554e-156
2.07467e-160
3.61118e-164
9.74543e-168
1.04992e-171
4.27544e-188
9.06185e-190
1.45912e-193
1.34054e-197
8.64201e-202
4.36473e-206
1.83277e-210
6.67311e-215
2.17045e-219
6.44156e-224
1.76457e-228
4.50618e-233
1.0803e-237
2.45223e-242
5.30347e-247
1.10164e-251
2.21008e-256
4.31161e-261
8.21322e-266
1.53487e-270
2.81977e-275
5.09888e-280
9.09483e-285
1.59993e-289
2.77979e-294
4.76827e-299
8.08733e-304
1.3552e-308
2.13892e-313
1.21931e-318
0
0
0
0
0
0
0
0
0
0
0
0
0
0
0
0
0
0
0
0
0
0
0
0
0
0
0
0
0
0
0
0
0
0
0
0
0
0
0
0
0
0
0
0
0
0
0
0
0
0
0
0
0
0
0
0
0
0
0
0
0
0
0
0
0
0
0
0
0
0
0
0
0
0
0
0
0
0
0
0
0
0
0
0
0
0
0
0
0
0
2.65534e-05
2.45161e-05
2.02024e-05
1.60904e-05
1.02704e-05
6.66592e-06
4.02973e-06
2.16666e-06
2.2023e-06
3.09933e-06
4.62717e-06
5.2359e-06
3.89134e-06
2.63011e-06
2.93011e-06
2.9592e-06
3.50876e-06
5.7485e-06
9.38386e-06
1.0021e-05
7.51816e-06
5.33379e-06
4.60541e-06
3.81689e-06
3.91905e-06
4.32644e-06
5.44523e-06
6.27209e-06
8.52799e-06
1.309e-05
1.06702e-05
5.53939e-06
3.78674e-06
3.07971e-06
2.24996e-06
2.17224e-06
2.51322e-06
3.9077e-06
5.01595e-06
3.83041e-06
3.57426e-06
2.0187e-06
2.31743e-06
3.39577e-07
5.94274e-06
7.66048e-06
8.70783e-06
8.85518e-06
8.09433e-06
7.42759e-06
5.87608e-06
4.64823e-06
2.98361e-06
2.02016e-06
1.29767e-06
8.91309e-07
6.27628e-07
7.60647e-07
1.03827e-06
1.22736e-06
2.23108e-06
2.84119e-06
2.80949e-06
2.35598e-06
2.52468e-06
4.60816e-06
5.15134e-06
4.00576e-06
3.47243e-06
3.69285e-06
4.85278e-06
5.4931e-06
4.95801e-06
4.38659e-06
4.10986e-06
1.15301e-06
8.75665e-07
1.17743e-06
1.43182e-06
1.47256e-06
1.364e-06
1.21003e-06
1.05237e-06
8.41832e-07
5.86332e-07
2.49635e-07
2.06862e-07
1.92019e-07
2.07467e-07
2.46214e-07
6.38569e-07
8.33134e-07
1.06214e-06
1.13878e-06
1.11267e-06
1.16311e-06
1.55612e-06
4.24477e-06
5.75103e-06
4.25906e-06
3.7158e-06
4.82482e-06
5.6103e-06
4.57033e-06
1.4245e-05
6.60583e-06
5.34827e-06
4.81238e-06
1.93984e-06
1.16254e-06
7.35583e-07
5.34727e-07
3.78927e-07
2.13924e-07
1.92608e-07
1.83883e-07
2.09728e-07
4.08209e-07
1.06827e-06
2.01428e-06
4.04134e-06
5.19985e-06
5.53928e-06
5.21916e-06
4.32885e-06
3.38015e-06
2.79105e-06
2.67919e-06
2.81843e-06
3.49751e-06
5.36723e-06
5.25542e-06
4.11982e-06
8.12434e-07
4.43138e-06
4.30857e-06
4.65458e-06
5.21189e-06
4.77978e-06
2.3438e-06
1.357e-06
1.35174e-06
1.50031e-06
1.41901e-06
1.05626e-06
7.73151e-07
7.64351e-07
9.72555e-07
2.40182e-06
5.06873e-06
4.08555e-06
2.76784e-06
2.46411e-06
3.10001e-06
3.92212e-06
3.10792e-06
2.87997e-06
2.3528e-06
2.26862e-06
2.40379e-06
2.13871e-06
2.94348e-06
4.73655e-06
1.10397e-06
2.15393e-05
2.12265e-05
1.03018e-05
1.92079e-06
1.5239e-07
4.90933e-09
1.39246e-09
1.94774e-09
1.51904e-09
2.53675e-09
3.78738e-09
1.10167e-08
2.63164e-08
1.86704e-07
5.47443e-07
1.66814e-06
2.57704e-06
5.1659e-06
4.5376e-06
3.06119e-06
3.02652e-06
1.66773e-06
6.41208e-08
1.03755e-09
4.75379e-10
9.99002e-10
2.78503e-10
1.1187e-11
1.06781e-13
2.42524e-15
2.98756e-07
2.83753e-06
3.72534e-06
1.27913e-06
1.02394e-06
1.2067e-06
1.28327e-06
3.81279e-06
5.26996e-06
5.42215e-06
4.45785e-06
4.376e-06
5.17268e-06
5.14392e-06
5.1248e-06
5.32126e-06
4.91217e-06
5.55236e-06
4.55877e-06
6.00015e-06
5.31441e-06
4.48663e-06
4.06351e-06
3.93271e-06
3.37291e-06
7.30463e-06
1.05243e-05
1.16161e-05
1.55587e-05
6.60971e-05
3.43153e-52
4.25437e-54
3.26309e-58
1.93674e-62
1.01939e-66
4.97562e-71
2.34284e-75
1.12021e-79
6.04387e-84
3.90973e-88
3.02976e-92
2.52499e-96
2.21512e-100
1.94996e-104
1.75859e-108
1.58496e-112
1.46094e-116
1.35639e-120
1.29822e-124
1.26722e-128
1.28805e-132
1.34642e-136
1.47893e-140
1.67635e-144
2.03531e-148
2.64733e-152
3.92506e-156
7.2203e-160
2.04272e-163
1.27364e-167
1.50298e-182
1.85106e-184
2.95222e-188
2.75022e-192
1.77948e-196
9.02279e-201
3.74575e-205
1.34955e-209
4.33974e-214
1.28403e-218
3.51473e-223
9.02901e-228
2.17721e-232
4.986e-237
1.08332e-241
2.25915e-246
4.52384e-251
8.79749e-256
1.66389e-260
3.09165e-265
5.64801e-270
1.01442e-274
1.80277e-279
3.15329e-284
5.46831e-289
9.26111e-294
1.57061e-298
2.61898e-303
4.16609e-308
2.44971e-313
0
0
0
0
0
0
0
0
0
0
0
0
0
0
0
0
0
0
0
0
0
0
0
0
0
0
0
0
0
0
0
0
0
0
0
0
0
0
0
0
0
0
0
0
0
0
0
0
0
0
0
0
0
0
0
0
0
0
0
0
0
0
0
0
0
0
0
0
0
0
0
0
0
0
0
0
0
0
0
0
0
0
0
0
0
0
0
0
0
0
2.95539e-05
2.96336e-05
2.12348e-05
1.55828e-05
1.40933e-05
1.582e-05
1.00725e-05
5.31804e-06
2.50308e-06
1.61303e-06
2.86316e-06
4.75097e-06
5.13276e-06
4.91911e-06
2.0086e-06
4.47528e-06
1.05194e-05
5.29994e-06
2.65133e-06
1.49924e-06
9.45184e-07
8.56072e-07
7.53891e-07
7.2018e-07
7.27218e-07
6.04439e-07
5.13264e-07
4.8596e-07
5.77715e-07
1.49432e-06
8.48328e-06
9.45832e-06
5.82387e-06
3.8884e-06
2.53427e-06
2.05935e-06
2.41827e-06
3.5327e-06
4.63883e-06
4.61854e-06
4.24398e-06
3.47606e-06
3.51193e-06
8.77448e-07
5.91434e-06
7.86362e-06
8.99884e-06
9.0399e-06
8.71058e-06
8.89811e-06
7.39837e-06
5.3751e-06
2.81321e-06
1.38813e-06
1.03821e-06
7.91573e-07
7.60784e-07
7.99183e-07
6.87845e-07
1.56045e-06
2.71138e-06
4.50016e-06
5.12773e-06
4.81062e-06
3.0504e-06
3.88484e-06
5.45338e-06
4.28164e-06
3.59835e-06
3.97285e-06
5.17915e-06
5.47921e-06
5.12033e-06
4.57086e-06
4.31509e-06
1.29091e-06
9.86034e-07
1.19933e-06
1.38226e-06
1.47779e-06
1.51399e-06
1.49638e-06
1.27882e-06
8.43568e-07
2.48296e-07
2.22691e-07
7.25432e-07
1.40062e-06
3.74489e-06
4.89223e-06
5.30166e-06
5.49878e-06
5.58658e-06
5.55344e-06
5.64803e-06
5.67799e-06
5.64868e-06
5.66133e-06
5.06522e-06
3.73666e-06
3.68722e-06
5.07214e-06
5.50132e-06
4.65513e-06
1.24118e-05
6.46797e-06
6.436e-06
6.21344e-06
3.77271e-06
2.45424e-06
8.38412e-07
2.19719e-07
1.56201e-07
1.06143e-07
8.65e-08
9.57765e-08
1.68121e-07
7.57354e-07
2.69874e-06
5.08682e-06
5.53007e-06
4.88327e-06
3.88612e-06
3.02113e-06
2.57638e-06
2.32728e-06
2.29312e-06
2.44957e-06
2.79183e-06
3.56388e-06
4.96066e-06
5.48206e-06
5.02992e-06
1.01448e-06
4.48582e-06
4.11474e-06
4.78445e-06
5.36896e-06
1.47939e-06
4.79702e-07
2.31143e-07
7.51276e-07
1.11444e-06
1.17228e-06
8.48772e-07
6.32642e-07
7.99456e-07
1.44797e-06
4.51573e-06
5.41154e-06
3.94895e-06
3.60629e-06
3.87015e-06
4.08799e-06
3.98619e-06
3.46805e-06
2.79586e-06
2.27959e-06
1.9663e-06
1.95829e-06
3.04117e-06
3.48609e-06
3.72344e-06
5.96027e-07
2.38049e-05
1.75689e-05
4.12428e-06
4.81002e-07
8.83864e-09
1.41765e-10
3.92849e-11
3.12422e-11
3.35072e-11
2.84215e-11
5.27023e-11
9.04263e-11
4.52524e-10
3.45749e-09
4.11432e-08
1.93107e-07
2.61905e-06
4.78974e-06
4.80716e-06
4.69813e-06
5.58603e-06
4.57459e-06
2.45522e-06
2.71479e-07
1.32659e-07
1.52266e-07
2.73787e-07
1.27375e-08
5.74604e-11
1.95198e-12
2.43469e-07
2.52452e-06
5.55068e-06
1.63418e-07
4.72289e-08
1.33274e-08
1.32355e-08
4.81905e-09
2.48744e-08
5.127e-08
1.48203e-08
1.02975e-06
1.35192e-06
4.17978e-06
5.29479e-06
5.85931e-06
5.54383e-06
6.30819e-06
4.49768e-06
6.92815e-06
7.14304e-06
7.46223e-06
8.00341e-06
8.1601e-06
8.36196e-06
1.32138e-05
1.24782e-05
7.33263e-06
4.75031e-06
1.07492e-05
1.46429e-50
5.71257e-52
3.66855e-56
1.68229e-60
7.62902e-65
3.12144e-69
1.35506e-73
6.09495e-78
3.58599e-82
2.5459e-86
2.2999e-90
1.97489e-94
1.89333e-98
1.71141e-102
1.64089e-106
1.46696e-110
1.36992e-114
1.23401e-118
1.17902e-122
1.13888e-126
1.16797e-130
1.21441e-134
1.34163e-138
1.52439e-142
1.84461e-146
2.33962e-150
3.48778e-154
6.42706e-158
1.76498e-161
1.26017e-166
1.06961e-179
8.99878e-182
1.39865e-185
1.26585e-189
8.23917e-194
3.98175e-198
1.57732e-202
5.34663e-207
1.62451e-211
4.55708e-216
1.20114e-220
2.99051e-225
7.12793e-230
1.61635e-234
3.46985e-239
7.0312e-244
1.35037e-248
2.4581e-253
4.34207e-258
7.59142e-263
1.32348e-267
2.25192e-272
3.79858e-277
6.35845e-282
1.05279e-286
1.6813e-291
2.75363e-296
4.4539e-301
6.68551e-306
1.7107e-311
0
0
0
0
0
0
0
0
0
0
0
0
0
0
0
0
0
0
0
0
0
0
0
0
0
0
0
0
0
0
0
0
0
0
0
0
0
0
0
0
0
0
0
0
0
0
0
0
0
0
0
0
0
0
0
0
0
0
0
0
0
0
0
0
0
0
0
0
0
0
0
0
0
0
0
0
0
0
0
0
0
0
0
0
0
0
0
0
0
0
2.93007e-05
1.11735e-05
1.86715e-06
5.46005e-07
3.4855e-07
7.10856e-07
2.32145e-06
1.03304e-05
9.25413e-06
3.89267e-06
1.64039e-06
3.34726e-06
5.30398e-06
5.07521e-06
1.79124e-06
1.0042e-05
5.0908e-06
1.92201e-06
1.2384e-06
1.37986e-06
2.42386e-06
5.07679e-06
7.70005e-06
8.34487e-06
8.11581e-06
5.57981e-06
1.34426e-06
3.31946e-07
2.27977e-07
2.79677e-07
8.80528e-07
8.73109e-06
9.73976e-06
5.97984e-06
2.99936e-06
1.9742e-06
2.18391e-06
2.74925e-06
3.81758e-06
4.77216e-06
5.04682e-06
4.74315e-06
4.84575e-06
7.31291e-07
5.88137e-06
7.67549e-06
8.52809e-06
8.23858e-06
8.30798e-06
8.7155e-06
8.47923e-06
6.66142e-06
3.2283e-06
1.3732e-06
7.04635e-07
5.01434e-07
4.16131e-07
3.49818e-07
3.39031e-07
4.46431e-07
1.08623e-06
3.21609e-06
5.3013e-06
5.34044e-06
4.47707e-06
3.53458e-06
5.285e-06
4.52392e-06
3.50174e-06
4.011e-06
5.02937e-06
5.54861e-06
5.39549e-06
4.97447e-06
4.62949e-06
1.97792e-06
1.18089e-06
1.25403e-06
1.40105e-06
2.08852e-06
2.22966e-06
1.26136e-06
2.60926e-07
1.24316e-07
1.2616e-07
9.58147e-07
3.99495e-06
5.26787e-06
5.32677e-06
5.3819e-06
5.46095e-06
5.44707e-06
5.3912e-06
5.14336e-06
4.6733e-06
4.55339e-06
4.79431e-06
4.91369e-06
4.05438e-06
3.29668e-06
3.87056e-06
5.40179e-06
5.1583e-06
4.61032e-06
1.00482e-05
5.71417e-06
6.13728e-06
6.05207e-06
5.48681e-06
3.71132e-06
1.13463e-06
1.98319e-07
9.94285e-08
4.50717e-08
3.89169e-08
4.85917e-08
1.66734e-07
1.43762e-06
5.34277e-06
5.3242e-06
4.19638e-06
3.07429e-06
2.21527e-06
1.71737e-06
1.544e-06
1.56571e-06
1.6667e-06
1.94314e-06
2.26375e-06
2.39196e-06
3.48335e-06
5.11689e-06
5.17733e-06
4.48659e-06
4.40202e-06
4.00579e-06
4.72638e-06
4.52765e-06
5.13181e-07
6.31806e-08
1.17694e-07
2.05771e-07
7.39107e-07
8.66895e-07
5.97274e-07
4.56167e-07
1.01418e-06
3.1747e-06
5.49347e-06
5.2434e-06
4.55865e-06
4.85002e-06
4.90163e-06
4.96426e-06
4.10232e-06
3.11789e-06
2.57083e-06
1.95536e-06
2.06635e-06
2.39053e-06
2.32364e-06
1.56036e-06
1.30618e-06
7.56771e-08
2.04319e-05
1.81597e-05
3.43429e-06
3.92224e-07
2.93006e-09
6.77637e-11
1.39532e-11
6.11256e-12
5.99307e-12
7.65328e-12
8.79636e-12
2.31299e-11
5.17164e-11
9.40634e-11
7.44477e-10
2.84805e-08
1.87371e-07
4.56428e-06
5.73091e-06
4.61332e-06
5.42155e-06
5.60727e-06
4.84566e-06
4.05738e-06
3.77165e-06
6.41802e-06
6.59391e-06
1.25169e-06
3.29497e-07
8.62507e-09
4.37741e-07
2.88336e-06
9.39031e-07
4.70438e-09
2.09781e-10
1.54607e-10
3.10285e-11
3.45181e-11
3.19624e-11
8.61108e-11
7.79731e-11
2.76349e-09
6.57029e-10
2.56498e-08
1.41281e-08
1.30568e-07
3.61489e-08
5.31288e-07
1.09889e-08
3.37629e-08
5.40885e-08
8.10658e-08
7.42728e-08
6.09569e-08
4.64313e-08
2.22794e-08
2.58928e-07
1.10677e-05
1.21622e-05
8.96872e-06
4.14145e-45
6.77891e-47
3.7928e-51
1.83347e-55
7.79993e-60
3.36123e-64
1.36593e-68
5.95367e-73
2.94235e-77
1.89831e-81
1.46121e-85
1.23983e-89
1.07198e-93
9.51567e-98
8.43229e-102
7.62416e-106
6.92754e-110
6.45713e-114
6.10528e-118
5.95545e-122
5.93911e-126
6.12143e-130
6.50597e-134
7.16971e-138
8.21408e-142
1.0014e-145
1.34149e-149
2.1292e-153
4.68969e-157
1.17382e-161
3.64261e-174
3.60329e-177
5.27901e-181
4.50426e-185
2.70368e-189
1.21729e-193
4.45053e-198
1.36553e-202
3.74939e-207
9.48838e-212
2.29193e-216
5.26285e-221
1.16425e-225
2.45249e-230
4.97557e-235
9.63964e-240
1.80855e-244
3.26665e-249
5.77397e-254
9.94856e-259
1.68926e-263
2.83505e-268
4.6745e-273
7.67791e-278
1.24237e-282
2.00691e-287
3.19556e-292
5.07444e-297
7.59125e-302
4.61718e-307
0
0
0
0
0
0
0
0
0
0
0
0
0
0
0
0
0
0
0
0
0
0
0
0
0
0
0
0
0
0
0
0
0
0
0
0
0
0
0
0
0
0
0
0
0
0
0
0
0
0
0
0
0
0
0
0
0
0
0
0
0
0
0
0
0
0
0
0
0
0
0
0
0
0
0
0
0
0
0
0
0
0
0
0
0
0
0
0
0
0
6.90903e-06
1.03482e-06
1.44493e-07
8.95992e-08
1.05295e-07
1.91552e-07
2.88659e-07
1.03827e-06
5.82166e-06
1.18999e-05
4.09577e-06
2.70991e-06
5.17176e-06
5.47828e-06
4.59462e-06
7.93715e-06
6.34286e-06
7.36017e-06
7.62029e-06
6.72057e-06
5.14101e-06
4.2258e-06
3.74065e-06
3.72781e-06
3.76412e-06
4.76565e-06
6.25228e-06
5.92474e-06
2.95348e-07
1.60914e-07
2.99063e-07
1.54553e-06
1.11755e-05
8.56872e-06
3.81283e-06
1.89976e-06
1.90468e-06
1.96629e-06
1.96135e-06
1.80326e-06
2.54222e-06
3.62946e-06
4.70514e-06
5.98655e-07
5.84446e-06
6.85587e-06
7.51085e-06
7.80931e-06
8.1866e-06
8.60422e-06
8.33552e-06
6.46823e-06
2.88268e-06
1.1082e-06
4.6149e-07
2.99429e-07
2.07515e-07
1.7993e-07
1.55137e-07
1.83247e-07
3.44842e-07
1.48847e-06
5.20235e-06
5.29696e-06
5.00372e-06
3.43368e-06
5.12815e-06
4.46761e-06
3.00653e-06
3.36133e-06
4.4211e-06
5.32463e-06
5.54012e-06
5.1578e-06
4.87131e-06
2.62971e-06
1.43716e-06
1.34254e-06
1.47697e-06
2.23705e-06
1.36259e-06
1.98096e-07
4.87942e-08
5.82723e-08
1.20575e-06
5.00608e-06
5.35537e-06
5.32091e-06
5.33736e-06
5.42668e-06
5.45523e-06
5.5151e-06
5.54125e-06
5.55604e-06
5.16014e-06
4.25988e-06
3.8153e-06
3.7911e-06
3.34115e-06
3.02039e-06
4.08245e-06
5.58555e-06
5.05633e-06
4.96148e-06
6.99105e-06
5.62083e-06
6.05784e-06
6.20549e-06
5.58674e-06
4.6629e-06
1.52639e-06
2.0733e-07
5.23457e-08
2.9884e-08
1.70865e-08
3.22548e-08
1.45557e-07
2.5093e-06
5.58202e-06
4.1357e-06
2.88726e-06
2.10616e-06
1.65965e-06
1.50559e-06
1.5625e-06
1.70001e-06
1.77636e-06
1.81358e-06
1.95397e-06
1.90326e-06
2.34831e-06
3.87688e-06
5.15193e-06
4.97124e-06
4.38971e-06
3.93697e-06
5.11271e-06
2.74519e-06
6.26126e-08
3.39282e-08
4.28456e-08
1.35898e-07
3.47025e-07
5.20995e-07
2.23853e-07
4.65314e-07
1.35023e-06
4.24872e-06
5.39101e-06
5.40863e-06
4.86789e-06
4.78596e-06
4.79512e-06
5.23744e-06
4.78416e-06
4.17437e-06
3.13422e-06
2.28158e-06
1.56586e-06
8.42402e-07
5.13289e-07
5.71838e-07
1.39387e-06
4.35208e-07
1.31052e-05
2.31226e-05
1.52543e-05
5.10155e-06
1.69984e-08
1.84418e-10
1.62632e-11
5.24321e-12
3.64133e-12
4.85244e-12
6.95515e-12
1.0097e-11
2.59131e-11
4.78926e-11
1.70243e-10
6.28165e-10
2.08973e-08
5.17463e-07
5.74547e-06
5.40829e-06
5.09363e-06
4.7037e-06
2.96409e-06
1.10593e-06
2.02089e-07
3.89742e-07
1.35781e-06
1.63091e-06
5.54226e-06
8.7743e-07
1.39848e-06
4.70332e-06
3.15031e-08
1.21195e-10
1.20696e-11
1.34234e-11
9.08076e-12
6.59884e-12
7.40698e-12
5.89266e-12
5.26137e-12
7.92926e-12
2.59652e-11
6.75399e-11
5.216e-10
1.22708e-09
4.11838e-09
1.44604e-09
3.10407e-09
8.64483e-10
8.71817e-10
9.2725e-10
9.39032e-10
1.03887e-09
1.05717e-09
2.8051e-09
5.25467e-09
2.79124e-08
9.11466e-06
3.33122e-05
5.82219e-39
8.23053e-41
4.77075e-45
2.17682e-49
9.80144e-54
4.05943e-58
1.73189e-62
7.09188e-67
3.32006e-71
1.82669e-75
1.33073e-79
1.04864e-83
9.12548e-88
7.69893e-92
6.89971e-96
5.95499e-100
5.44851e-104
4.84824e-108
4.57844e-112
4.24981e-116
4.17659e-120
4.07317e-124
4.19198e-128
4.31266e-132
4.66152e-136
5.15347e-140
6.17984e-144
8.15014e-148
1.35981e-151
7.0271e-156
3.09472e-168
1.49801e-171
2.15957e-175
1.71873e-179
9.81536e-184
4.22498e-188
1.43786e-192
4.08474e-197
1.00693e-201
2.31229e-206
5.03436e-211
1.07241e-215
2.20129e-220
4.41281e-225
8.48059e-230
1.58694e-234
2.85084e-239
5.01014e-244
8.51113e-249
1.42113e-253
2.32847e-258
3.74233e-263
5.9927e-268
9.41952e-273
1.48294e-277
2.29771e-282
3.57132e-287
5.46431e-292
8.14823e-297
6.43635e-302
1.82804e-322
0
0
0
0
0
0
0
0
0
0
0
0
0
0
0
0
0
0
0
0
0
0
0
0
0
0
0
0
0
0
0
0
0
0
0
0
0
0
0
0
0
0
0
0
0
0
0
0
0
0
0
0
0
0
0
0
0
0
0
0
0
0
0
0
0
0
0
0
0
0
0
0
0
0
0
0
0
0
0
0
0
0
0
0
0
0
0
0
0
8.9082e-07
1.39306e-07
6.08447e-08
9.78453e-08
4.10354e-07
6.14659e-07
9.60674e-07
1.32269e-06
2.37797e-06
7.1449e-06
1.03516e-05
2.7467e-06
4.28159e-06
5.11058e-06
9.98301e-06
7.28364e-06
6.70968e-06
5.05311e-06
4.04322e-06
3.41442e-06
3.2331e-06
3.23169e-06
3.33298e-06
3.9325e-06
4.00779e-06
3.30147e-06
3.87608e-06
5.78071e-06
2.33709e-06
1.67774e-07
1.37306e-07
5.18507e-07
5.46628e-06
1.12082e-05
4.39795e-06
1.69637e-06
1.46715e-06
9.9165e-07
6.89058e-07
5.74895e-07
8.9482e-07
1.43528e-06
4.36246e-06
5.05747e-07
5.85339e-06
5.70956e-06
6.67946e-06
7.90983e-06
8.28672e-06
7.66539e-06
6.09355e-06
3.2833e-06
1.38315e-06
5.12791e-07
2.72236e-07
1.55578e-07
1.04505e-07
9.67225e-08
1.09835e-07
1.80833e-07
4.23542e-07
2.89718e-06
5.32439e-06
5.37621e-06
4.78151e-06
3.33713e-06
5.40737e-06
3.75736e-06
2.26728e-06
2.52033e-06
3.31808e-06
4.55259e-06
5.4081e-06
5.43136e-06
5.00325e-06
3.61541e-06
2.23052e-06
1.51631e-06
2.16426e-06
1.53333e-06
2.32527e-07
3.49624e-08
3.43162e-08
9.41949e-07
4.95526e-06
5.42004e-06
5.27071e-06
5.10008e-06
5.02047e-06
5.23372e-06
5.46231e-06
5.48191e-06
5.48769e-06
5.39482e-06
5.35409e-06
4.72071e-06
3.52988e-06
3.10677e-06
2.66742e-06
2.82311e-06
4.16593e-06
5.63924e-06
5.35102e-06
5.53936e-06
5.42203e-06
5.79909e-06
6.34053e-06
6.05613e-06
5.92252e-06
5.08363e-06
2.24498e-06
2.04488e-07
4.32687e-08
1.54623e-08
1.17131e-08
1.48086e-08
7.72309e-08
2.23623e-06
5.50667e-06
3.71722e-06
2.72311e-06
2.26941e-06
2.23342e-06
2.66931e-06
3.28351e-06
3.59169e-06
3.38016e-06
2.77154e-06
2.15168e-06
1.75258e-06
1.67505e-06
2.73169e-06
4.46894e-06
4.05151e-06
4.37368e-06
3.86866e-06
5.3052e-06
6.95142e-07
1.84166e-08
1.12171e-08
1.59411e-08
5.47411e-08
1.79461e-07
1.88377e-07
1.91117e-07
4.43419e-07
1.43582e-06
3.5605e-06
3.79679e-06
3.7019e-06
2.7398e-06
2.51337e-06
2.74716e-06
3.02698e-06
3.75069e-06
3.81424e-06
4.73265e-06
5.36487e-06
5.7e-06
5.06557e-06
3.64087e-06
1.3479e-06
5.41991e-07
2.39931e-07
4.62019e-06
1.40284e-05
1.39561e-05
1.07829e-05
1.22437e-06
1.40925e-09
3.86912e-11
6.34035e-12
4.0936e-12
2.59932e-12
4.3445e-12
8.17472e-12
1.91067e-11
3.10555e-11
1.35594e-10
1.01437e-09
5.19788e-09
4.46916e-08
8.80073e-07
5.65305e-06
5.27646e-06
5.83341e-06
5.70077e-06
4.37028e-06
1.81562e-07
1.43294e-08
3.33926e-08
1.37388e-06
6.31768e-06
1.54114e-06
4.47036e-06
5.92491e-06
4.15308e-08
6.2447e-11
2.47397e-11
4.38532e-11
3.19023e-11
1.82225e-11
1.50923e-11
2.3257e-11
4.05815e-12
4.48629e-12
2.70069e-12
6.28346e-12
1.41793e-11
5.54688e-11
1.67776e-10
2.04188e-10
3.22333e-10
1.64071e-10
1.17138e-10
6.38083e-11
6.32594e-11
6.49125e-11
1.30606e-10
3.23033e-10
5.82313e-10
2.60843e-09
9.03161e-08
3.4712e-05
2.44463e-33
4.45481e-35
2.54875e-39
1.24446e-43
5.39724e-48
2.34489e-52
9.73034e-57
4.11396e-61
1.7779e-65
9.0374e-70
5.78392e-74
4.43023e-78
3.66804e-82
3.1236e-86
2.70457e-90
2.35922e-94
2.08813e-98
1.86658e-102
1.70322e-106
1.57591e-110
1.49411e-114
1.4378e-118
1.421e-122
1.42094e-126
1.4556e-130
1.52585e-134
1.67673e-138
1.95403e-142
2.57905e-146
1.73441e-150
9.54445e-163
2.8311e-166
4.15078e-170
5.00082e-174
2.79141e-178
1.14175e-182
3.68831e-187
9.66927e-192
2.16898e-196
4.43902e-201
8.66619e-206
1.66055e-210
3.1392e-215
5.84969e-220
1.0658e-224
1.89509e-229
3.2745e-234
5.51595e-239
9.04979e-244
1.4528e-248
2.29127e-253
3.55712e-258
5.46216e-263
8.29711e-268
1.25321e-272
1.87974e-277
2.81007e-282
4.17342e-287
5.99277e-292
4.4011e-297
2.31206e-316
1.09608e-319
4.94066e-324
0
0
0
0
0
0
0
0
0
0
0
0
0
0
0
0
0
0
0
0
0
0
0
0
0
0
0
0
0
0
0
0
0
0
0
0
0
0
0
0
0
0
0
0
0
0
0
0
0
0
0
0
0
0
0
0
0
0
0
0
0
0
0
0
0
0
0
0
0
0
0
0
0
0
0
0
0
0
0
0
0
0
0
0
0
0
0
1.4573e-07
4.24144e-08
4.6361e-08
1.90629e-07
7.3756e-07
2.76434e-06
6.30873e-06
8.33243e-06
7.14555e-06
7.48848e-06
1.27078e-05
4.82567e-06
3.52302e-06
4.58852e-06
8.04085e-06
7.05375e-06
5.00964e-06
4.17824e-06
3.81838e-06
3.95542e-06
4.02883e-06
4.49786e-06
4.82609e-06
5.77069e-06
6.27121e-06
5.76122e-06
4.03878e-06
5.26354e-06
6.68456e-06
1.77647e-07
1.30715e-07
2.48662e-07
1.76341e-06
1.13664e-05
4.98098e-06
1.72806e-06
9.65348e-07
4.26687e-07
2.88513e-07
2.86633e-07
5.02668e-07
7.07456e-07
9.05514e-07
3.54312e-07
5.61454e-06
5.4933e-06
6.60721e-06
6.64708e-06
5.50638e-06
3.69265e-06
2.12807e-06
7.54873e-07
3.34712e-07
1.76756e-07
1.13766e-07
9.4595e-08
9.1515e-08
9.58981e-08
1.66817e-07
2.92766e-07
1.9048e-06
4.51382e-06
5.24042e-06
5.05975e-06
4.06052e-06
4.8393e-06
4.60296e-06
2.49163e-06
1.96037e-06
2.17391e-06
3.04324e-06
3.92655e-06
4.95303e-06
5.46204e-06
5.27603e-06
4.25529e-06
2.78444e-06
2.32933e-06
2.28681e-06
7.51677e-07
4.20757e-08
1.92658e-08
1.91435e-07
3.97962e-06
5.27325e-06
5.22671e-06
4.98e-06
4.59709e-06
4.7033e-06
5.25156e-06
5.46158e-06
5.46301e-06
5.17145e-06
5.10683e-06
5.21876e-06
4.8952e-06
3.69782e-06
2.74345e-06
2.48522e-06
2.75238e-06
4.00484e-06
5.40527e-06
5.64404e-06
5.61014e-06
5.29549e-06
6.26354e-06
6.01424e-06
6.12685e-06
5.83576e-06
5.18317e-06
1.83924e-06
1.73344e-07
3.44676e-08
1.15835e-08
5.46899e-09
7.3606e-09
2.93755e-08
7.55102e-07
5.65971e-06
4.66588e-06
3.83599e-06
3.97356e-06
4.88469e-06
5.45022e-06
5.47493e-06
5.22889e-06
4.61778e-06
3.79315e-06
2.69159e-06
1.86879e-06
1.51176e-06
2.04847e-06
3.47167e-06
3.35382e-06
4.28114e-06
4.46347e-06
4.43013e-06
5.39425e-08
5.77202e-09
4.18003e-09
1.15539e-08
4.30178e-08
1.20572e-07
1.39768e-07
1.42616e-07
2.00948e-07
7.18371e-07
9.55208e-07
9.21981e-07
6.63894e-07
2.10906e-07
1.52668e-07
6.61334e-08
3.82189e-08
1.85496e-08
1.28681e-08
6.01379e-09
9.58197e-09
4.83586e-09
1.18112e-08
2.28813e-08
4.88501e-07
3.23612e-06
1.99465e-07
3.74117e-06
6.55359e-06
7.57726e-06
6.22146e-06
4.96672e-06
7.61121e-09
1.05319e-10
8.17724e-12
4.19849e-12
2.58175e-12
2.77361e-12
5.48889e-12
7.04014e-12
9.51428e-12
2.26108e-11
8.38354e-11
6.41647e-10
1.07533e-08
1.01359e-07
2.13479e-06
5.79694e-06
5.84285e-06
5.90377e-06
5.00138e-06
1.82193e-07
9.33476e-10
2.99744e-09
1.28123e-06
6.14454e-06
1.59963e-06
5.56822e-08
2.04861e-07
2.72633e-08
1.72953e-10
2.83081e-11
6.11693e-11
5.72274e-10
4.38185e-10
4.9105e-10
6.02289e-11
2.27396e-11
4.19892e-12
2.59642e-12
2.28029e-12
2.49702e-12
4.88111e-12
1.14895e-11
2.00296e-11
3.36033e-11
3.27419e-11
1.93824e-11
1.65031e-11
1.75652e-11
1.69623e-11
2.12594e-11
2.86184e-11
5.29082e-11
5.3276e-10
8.93394e-09
3.97992e-07
6.75937e-28
1.22296e-29
7.49563e-34
3.67117e-38
1.71246e-42
7.29747e-47
3.18234e-51
1.32267e-55
5.81211e-60
2.69961e-64
1.59904e-68
1.13092e-72
9.2408e-77
7.65185e-81
6.65346e-85
5.70162e-89
5.06292e-93
4.45117e-97
4.05021e-101
3.68243e-105
3.46154e-109
3.26725e-113
3.17913e-117
3.10009e-121
3.0966e-125
3.13323e-129
3.27409e-133
3.52613e-137
4.03846e-141
3.79544e-145
2.46792e-157
4.23245e-161
5.59459e-165
6.78402e-169
7.68619e-173
3.03283e-177
9.31118e-182
2.27364e-186
4.65066e-191
8.53698e-196
1.47882e-200
2.51799e-205
4.27751e-210
7.28954e-215
1.23515e-219
2.07012e-224
3.40369e-229
5.48792e-234
8.65131e-239
1.33677e-243
2.03026e-248
3.03551e-253
4.48766e-258
6.56124e-263
9.54157e-268
1.37827e-272
1.98648e-277
2.84936e-282
3.98944e-287
3.23841e-292
3.745e-310
4.4978e-314
1.48933e-318
3.45846e-323
0
0
0
0
0
0
0
0
0
0
0
0
0
0
0
0
0
0
0
0
0
0
0
0
0
0
0
0
0
0
0
0
0
0
0
0
0
0
0
0
0
0
0
0
0
0
0
0
0
0
0
0
0
0
0
0
0
0
0
0
0
0
0
0
0
0
0
0
0
0
0
0
0
0
0
0
0
0
0
0
0
0
0
0
0
0
3.63965e-08
2.39534e-08
4.46057e-08
1.41576e-07
4.32834e-07
3.28992e-06
1.24018e-05
1.4033e-05
1.34739e-05
1.48673e-05
1.31818e-05
8.15978e-06
3.03379e-06
4.24534e-06
7.91935e-06
6.22003e-06
4.71733e-06
4.80583e-06
5.16453e-06
5.34301e-06
5.43043e-06
5.21806e-06
5.21992e-06
5.88665e-06
7.40741e-06
7.67032e-06
6.65182e-06
6.51445e-06
5.63662e-06
1.75841e-07
9.26768e-08
2.16558e-07
1.38667e-06
9.98679e-06
6.15461e-06
1.38658e-06
5.04296e-07
2.50945e-07
1.84124e-07
2.7456e-07
6.43659e-07
2.15283e-06
7.92208e-07
1.42419e-06
5.08593e-06
5.69618e-06
5.42576e-06
4.55215e-06
3.19269e-06
1.77851e-06
5.55127e-07
2.25893e-07
1.23409e-07
8.05225e-08
8.72342e-08
1.08717e-07
1.67142e-07
4.22797e-07
1.24274e-06
2.41181e-06
3.60163e-06
4.28564e-06
4.6505e-06
4.92157e-06
5.3237e-06
4.08892e-06
2.42944e-06
2.10734e-06
2.59411e-06
3.16926e-06
3.43531e-06
3.85534e-06
4.33251e-06
5.4364e-06
5.31709e-06
4.57021e-06
3.22928e-06
2.41234e-06
1.20673e-06
7.72626e-08
1.7082e-08
5.06448e-08
1.35679e-06
4.93374e-06
5.22884e-06
5.00591e-06
4.15697e-06
3.73017e-06
4.43522e-06
5.44699e-06
5.45504e-06
5.27524e-06
5.12417e-06
4.96962e-06
4.94309e-06
4.60923e-06
3.6536e-06
2.71863e-06
2.25781e-06
2.70003e-06
3.76704e-06
4.93104e-06
5.35796e-06
5.32161e-06
5.38611e-06
5.5355e-06
4.51782e-06
5.7184e-06
5.73422e-06
4.42763e-06
1.32756e-06
1.39146e-07
2.54562e-08
7.14206e-09
3.34732e-09
3.24466e-09
8.37432e-09
5.16076e-08
1.30661e-06
5.1943e-06
5.68734e-06
5.37328e-06
5.20123e-06
5.64264e-06
5.3525e-06
4.78646e-06
4.29115e-06
3.80228e-06
2.92066e-06
2.02674e-06
1.48801e-06
1.59693e-06
2.73072e-06
3.07238e-06
4.51572e-06
5.16797e-06
6.80965e-07
9.3796e-09
1.55689e-09
1.79246e-09
5.21178e-09
2.70789e-08
4.60951e-08
5.04502e-08
4.64796e-08
4.80795e-08
9.68776e-08
7.85928e-08
5.36531e-08
2.09158e-08
1.28821e-08
4.83974e-09
2.25444e-09
1.81058e-09
1.21148e-09
1.68842e-09
1.21456e-09
1.55719e-09
1.52863e-09
2.62286e-09
2.95817e-09
2.5388e-09
5.13193e-08
5.69331e-07
3.8587e-06
1.0967e-05
8.63686e-06
5.73858e-06
6.48402e-06
4.10935e-08
4.95673e-10
2.18827e-11
4.7141e-12
5.03844e-12
2.71246e-12
4.96267e-12
6.19435e-12
7.99468e-12
1.48413e-11
2.42411e-11
7.85344e-11
5.35646e-10
7.6179e-09
1.86051e-07
5.85163e-06
6.1093e-06
5.00331e-06
4.58134e-06
1.51893e-06
4.79499e-10
1.12798e-09
1.2067e-08
1.71808e-06
6.7084e-07
8.57478e-09
3.93119e-09
4.5018e-09
1.0833e-09
1.35031e-10
2.18021e-10
1.53317e-10
1.71711e-10
7.89952e-10
7.25482e-10
2.16175e-10
2.65588e-11
6.2825e-12
6.18069e-12
1.22283e-11
1.0475e-11
8.45856e-12
7.86768e-12
1.25626e-11
1.049e-11
1.91788e-11
1.36096e-11
1.91802e-11
1.60664e-11
1.42293e-11
8.29467e-12
1.1676e-11
1.72912e-10
1.85112e-09
9.57408e-09
2.8201e-23
7.70984e-25
3.19194e-29
1.65937e-33
7.9485e-38
3.58001e-42
1.55654e-46
6.68102e-51
2.9027e-55
1.35369e-59
7.55026e-64
5.22482e-68
4.12129e-72
3.4138e-76
2.91051e-80
2.50811e-84
2.20044e-88
1.94342e-92
1.74915e-96
1.59167e-100
1.47991e-104
1.39371e-108
1.3393e-112
1.29746e-116
1.27735e-120
1.27349e-124
1.29484e-128
1.33847e-132
1.41792e-136
1.42907e-140
1.12666e-152
1.46347e-156
1.73559e-160
2.00597e-164
2.30131e-168
2.61158e-172
7.78772e-177
1.75557e-181
3.26958e-186
5.39361e-191
8.31616e-196
1.24974e-200
1.88203e-205
2.87435e-210
4.44654e-215
6.91116e-220
1.0695e-224
1.63684e-229
2.4678e-234
3.66047e-239
5.34504e-244
7.69467e-249
1.09448e-253
1.54191e-258
2.15688e-263
3.00211e-268
4.16519e-273
5.76592e-278
7.8268e-283
6.66219e-288
2.00421e-304
6.52935e-309
1.52269e-313
2.99708e-318
5.43472e-323
0
0
0
0
0
0
0
0
0
0
0
0
0
0
0
0
0
0
0
0
0
0
0
0
0
0
0
0
0
0
0
0
0
0
0
0
0
0
0
0
0
0
0
0
0
0
0
0
0
0
0
0
0
0
0
0
0
0
0
0
0
0
0
0
0
0
0
0
0
0
0
0
0
0
0
0
0
0
0
0
0
0
0
0
0
1.8342e-08
2.01602e-08
5.44956e-08
1.56291e-07
3.3339e-07
3.07754e-06
1.23096e-05
7.36674e-06
8.09194e-06
1.18168e-05
1.54758e-05
8.25417e-06
3.28714e-06