/*--------------------------------*- C++ -*----------------------------------*\
| =========                 |                                                 |
| \\      /  F ield         | OpenFOAM: The Open Source CFD Toolbox           |
|  \\    /   O peration     | Version:  2.1.1                                 |
|   \\  /    A nd           | Web:      www.OpenFOAM.org                      |
|    \\/     M anipulation  |                                                 |
\*---------------------------------------------------------------------------*/
FoamFile
{
    version     2.0;
    format      ascii;
    class       volScalarField;
    location    "0.003400000";
    object      H2O2;
}
// * * * * * * * * * * * * * * * * * * * * * * * * * * * * * * * * * * * * * //

dimensions      [0 0 0 0 0 0 0];

internalField   nonuniform List<scalar> 
12384
(
1.73256e-06
1.8502e-06
1.74079e-06
1.87885e-06
1.66795e-06
1.71759e-06
1.35566e-06
1.20698e-06
9.14276e-07
6.78186e-07
5.20694e-07
6.90926e-07
6.06934e-07
6.15987e-07
2.91304e-07
2.84118e-07
2.84323e-07
2.98302e-07
3.47715e-07
3.71326e-07
4.20481e-07
4.31533e-07
4.86208e-07
4.55417e-07
5.07134e-07
5.72764e-07
5.31268e-07
6.99553e-07
7.05423e-07
7.04671e-07
7.06921e-07
7.06386e-07
7.76637e-07
8.39833e-07
8.8165e-07
8.00514e-07
6.39295e-07
4.8831e-07
3.41814e-07
2.8964e-07
3.7599e-07
6.16464e-07
6.41932e-07
4.35802e-07
6.47152e-07
7.46795e-07
8.21038e-07
8.78235e-07
8.62164e-07
9.25762e-07
9.34467e-07
1.02812e-06
1.05481e-06
1.08573e-06
1.01861e-06
9.17222e-07
7.94857e-07
6.76209e-07
5.8364e-07
5.33659e-07
4.77312e-07
4.55051e-07
4.5038e-07
4.41173e-07
4.76281e-07
4.97842e-07
4.96015e-07
4.7463e-07
5.38065e-07
6.50183e-07
5.14888e-07
3.77573e-07
3.86623e-07
5.86253e-07
3.20444e-07
2.94106e-07
2.9179e-07
2.65747e-07
2.29755e-07
2.28344e-07
2.68118e-07
3.90071e-07
5.17844e-07
6.15917e-07
6.5802e-07
6.72443e-07
6.66511e-07
6.56174e-07
6.3598e-07
6.109e-07
6.00181e-07
5.86893e-07
5.68852e-07
5.27243e-07
4.49249e-07
4.06942e-07
3.78322e-07
3.51086e-07
2.8739e-07
2.07363e-07
1.10616e-07
2.23152e-07
6.08297e-07
6.06093e-07
4.53732e-07
2.62987e-07
2.16827e-07
1.74046e-07
8.32641e-08
7.69471e-08
7.26494e-08
7.45915e-08
7.8823e-08
8.38844e-08
1.3394e-07
1.39047e-07
1.54902e-07
1.68413e-07
1.85392e-07
2.04464e-07
2.54751e-07
3.0838e-07
4.47249e-07
5.4144e-07
5.60183e-07
5.74773e-07
5.45886e-07
5.34336e-07
5.54242e-07
5.99967e-07
4.02968e-07
4.673e-07
6.01974e-07
5.81153e-07
8.67319e-07
8.73009e-07
7.10129e-07
7.24753e-07
5.12824e-07
5.34223e-07
6.44365e-07
7.2076e-07
7.44679e-07
7.46565e-07
7.14781e-07
6.75106e-07
6.49559e-07
6.32918e-07
6.24931e-07
6.23166e-07
6.36985e-07
6.3168e-07
6.64923e-07
7.14342e-07
7.54725e-07
6.96702e-07
7.4349e-07
5.54372e-07
3.41379e-07
2.85578e-07
3.34317e-07
4.30778e-07
5.42719e-07
6.19317e-07
6.51285e-07
7.01565e-07
7.71989e-07
3.36541e-07
5.35519e-08
1.28064e-08
3.7542e-09
1.89403e-09
1.27665e-09
1.5122e-09
4.79336e-09
8.10522e-08
5.9695e-07
3.25397e-07
2.63394e-07
2.49869e-07
2.48369e-07
2.61564e-07
2.38193e-07
2.38444e-07
2.17921e-07
2.14199e-07
1.86097e-07
1.89011e-07
2.0243e-07
2.61206e-07
2.76726e-07
3.25697e-07
3.5063e-07
3.34887e-07
4.93786e-07
4.78662e-07
4.97582e-07
5.45396e-07
6.23748e-07
6.37064e-07
6.69726e-07
6.54292e-07
6.66416e-07
6.79699e-07
6.90732e-07
7.16057e-07
6.61613e-07
3.83621e-07
2.20298e-07
2.15648e-07
2.1348e-07
2.14413e-07
2.09413e-07
1.98552e-07
1.91265e-07
1.89631e-07
1.97435e-07
2.09415e-07
2.22846e-07
2.81277e-07
3.39694e-07
3.8125e-07
4.36324e-07
4.71929e-07
2.68992e-07
2.27851e-07
2.04725e-07
1.79334e-07
1.71617e-07
1.64305e-07
1.74088e-07
1.72539e-07
1.83964e-07
2.1907e-07
2.63982e-07
2.94675e-07
3.48504e-07
4.02111e-07
4.44205e-07
4.6734e-07
4.62958e-07
4.93884e-07
5.03473e-07
4.9629e-07
5.22871e-07
8.56958e-07
7.85047e-07
1.38301e-06
1.3157e-06
1.67185e-06
1.90164e-06
2.06361e-06
2.86079e-06
2.71544e-06
1.9143e-06
1.66095e-06
1.03364e-06
9.6162e-07
8.56487e-07
8.08497e-07
7.58815e-07
7.77529e-07
8.68716e-07
9.1725e-07
4.76355e-07
6.6369e-07
6.33733e-07
6.71688e-07
6.78212e-07
6.99253e-07
7.1268e-07
7.1635e-07
7.08483e-07
6.71682e-07
6.47423e-07
6.19042e-07
6.22251e-07
6.23341e-07
6.63217e-07
6.62474e-07
6.68438e-07
5.48113e-07
5.59941e-07
4.69503e-07
1.64912e-07
1.95345e-07
1.92869e-07
1.9671e-07
1.94499e-07
1.90769e-07
1.92031e-07
2.13352e-07
2.04563e-07
2.1427e-07
2.23234e-07
2.32354e-07
2.44706e-07
2.60029e-07
2.90491e-07
3.07476e-07
3.28073e-07
3.77153e-07
4.24304e-07
4.99082e-07
7.74866e-07
9.96018e-07
1.3441e-06
1.47774e-06
1.60887e-06
1.67348e-06
1.75966e-06
1.79819e-06
1.85307e-06
1.9188e-06
2.74893e-07
2.31014e-07
2.25411e-07
1.85749e-07
1.83952e-07
1.81614e-07
1.83676e-07
1.80543e-07
1.98787e-07
2.13947e-07
2.34278e-07
2.5978e-07
2.8293e-07
2.97559e-07
3.48343e-07
3.89763e-07
4.08938e-07
4.3663e-07
5.6278e-07
5.78478e-07
5.8296e-07
6.23263e-07
6.96924e-07
6.85945e-07
6.83586e-07
6.85908e-07
6.97468e-07
6.78388e-07
6.6603e-07
6.71698e-07
1.80521e-06
3.68596e-07
4.53539e-07
3.57802e-07
8.35129e-07
6.95186e-07
1.12775e-06
1.04674e-06
1.56939e-06
1.50754e-06
1.99514e-06
1.98275e-06
2.39019e-06
2.30528e-06
2.4395e-06
6.77414e-07
1.00862e-07
1.3313e-08
4.16557e-10
2.96829e-12
5.86542e-14
2.05332e-16
8.4537e-20
2.90088e-22
2.34752e-26
1.39732e-30
7.05771e-35
3.15114e-39
1.27804e-43
4.66536e-48
1.99676e-06
1.80577e-06
1.71864e-06
1.04234e-06
1.32407e-06
1.13143e-06
1.85333e-06
1.84972e-06
1.76963e-06
1.16091e-06
6.80988e-07
5.24934e-07
6.84221e-07
6.38417e-07
2.34586e-07
2.48577e-07
3.62789e-07
4.54195e-07
4.94775e-07
5.09731e-07
5.34308e-07
5.49712e-07
5.72023e-07
5.70315e-07
5.71143e-07
5.91082e-07
6.19773e-07
7.10002e-07
7.70369e-07
8.63827e-07
8.99711e-07
9.28926e-07
9.55829e-07
1.04779e-06
1.11875e-06
1.05068e-06
8.50974e-07
5.89221e-07
3.77508e-07
2.89876e-07
3.80046e-07
6.18692e-07
6.20765e-07
4.33156e-07
6.64686e-07
8.33413e-07
8.00533e-07
7.01432e-07
6.77759e-07
7.07665e-07
7.70307e-07
8.3305e-07
9.54232e-07
1.05232e-06
1.15718e-06
1.14489e-06
1.00056e-06
7.91303e-07
6.45077e-07
4.63514e-07
3.98913e-07
3.65264e-07
3.46992e-07
3.4462e-07
3.67536e-07
5.2713e-07
6.0832e-07
6.30711e-07
5.99682e-07
6.56792e-07
4.75513e-07
4.00323e-07
4.23229e-07
6.01123e-07
3.18423e-07
2.88459e-07
2.65308e-07
2.28291e-07
2.69334e-07
5.84658e-07
6.89708e-07
6.38394e-07
6.07747e-07
5.94024e-07
5.91169e-07
5.8418e-07
5.80553e-07
5.58818e-07
5.51161e-07
5.22287e-07
5.43662e-07
5.40253e-07
5.83236e-07
5.9613e-07
5.61087e-07
5.05709e-07
4.54804e-07
4.31649e-07
3.97783e-07
3.01776e-07
1.83422e-07
1.76501e-07
5.93291e-07
5.82809e-07
5.05533e-07
2.77579e-07
1.94776e-07
7.64746e-08
6.58737e-08
7.76994e-08
1.73887e-07
2.78491e-07
4.46439e-07
5.80991e-07
6.03784e-07
6.10782e-07
6.03998e-07
5.75586e-07
5.52469e-07
4.9504e-07
4.93419e-07
5.31831e-07
5.86844e-07
6.18513e-07
6.28485e-07
6.25806e-07
6.2328e-07
5.82499e-07
6.16826e-07
5.95593e-07
4.1256e-07
4.44412e-07
6.08591e-07
5.93276e-07
8.92134e-07
8.87282e-07
7.3321e-07
6.79896e-07
6.90521e-07
6.39539e-07
4.54506e-07
1.69812e-07
9.50016e-08
8.14368e-08
8.68941e-08
9.18981e-08
9.31026e-08
9.29844e-08
1.64722e-07
2.30483e-07
2.81929e-07
3.30029e-07
4.47411e-07
4.9034e-07
4.57775e-07
4.69468e-07
5.58993e-07
7.06149e-07
5.10729e-07
3.4728e-07
3.11405e-07
4.20342e-07
5.571e-07
6.21802e-07
7.81367e-07
4.69302e-07
5.83481e-08
1.32015e-08
3.00033e-09
1.2968e-09
7.31015e-10
6.54699e-10
1.26461e-09
5.71584e-09
6.00091e-08
6.42693e-07
4.61541e-07
3.73793e-07
3.56739e-07
4.02095e-07
4.20242e-07
4.58123e-07
4.75852e-07
5.05387e-07
5.24358e-07
4.91618e-07
4.5938e-07
3.77207e-07
3.03894e-07
2.64849e-07
2.8983e-07
3.40788e-07
4.01117e-07
3.22012e-07
4.22618e-07
5.05345e-07
6.87381e-07
6.08402e-07
2.95532e-07
1.77158e-07
7.89418e-08
8.04741e-08
1.5436e-07
3.08187e-07
6.27993e-07
7.27533e-07
6.03612e-07
3.0235e-07
2.35803e-07
2.43028e-07
2.48745e-07
2.33193e-07
2.198e-07
1.80727e-07
1.64876e-07
1.55945e-07
1.76565e-07
2.02951e-07
2.43413e-07
2.94683e-07
3.10948e-07
3.37735e-07
3.81501e-07
4.19073e-07
2.39732e-07
1.86159e-07
1.70246e-07
1.60343e-07
1.37091e-07
1.5208e-07
1.3616e-07
1.53252e-07
1.60706e-07
1.74533e-07
2.09846e-07
2.30991e-07
2.46458e-07
2.76483e-07
2.91913e-07
2.68679e-07
2.47152e-07
2.16527e-07
2.18501e-07
1.46837e-07
3.12813e-07
3.05791e-07
5.51634e-07
4.84218e-07
6.07488e-07
6.98367e-07
5.72135e-07
1.61221e-06
2.06751e-06
2.81694e-06
1.61594e-06
1.2532e-06
9.29674e-07
6.47438e-07
7.25601e-07
6.06396e-07
5.10319e-07
4.59511e-07
3.88014e-07
3.8327e-07
1.2717e-07
1.99095e-07
1.55721e-07
2.01451e-07
2.20715e-07
2.62761e-07
2.92802e-07
3.10986e-07
2.83832e-07
2.66685e-07
2.16323e-07
1.6597e-07
1.41311e-07
1.06396e-07
1.399e-07
2.08022e-07
4.22051e-07
5.83743e-07
6.60894e-07
6.03e-07
1.56315e-07
1.82131e-07
1.75516e-07
1.79746e-07
1.73553e-07
1.645e-07
1.63602e-07
1.61199e-07
1.66915e-07
1.74192e-07
1.72625e-07
1.72617e-07
1.70178e-07
1.66102e-07
1.66121e-07
1.72112e-07
1.82742e-07
1.92637e-07
1.95849e-07
2.43935e-07
3.70399e-07
7.27182e-07
8.74799e-07
8.39607e-07
7.74813e-07
6.72046e-07
8.41123e-07
9.60067e-07
1.05337e-06
1.26714e-06
1.57753e-07
1.63187e-07
1.46247e-07
1.44089e-07
1.61232e-07
1.67976e-07
1.64811e-07
1.70514e-07
1.40167e-07
1.68576e-07
1.4559e-07
1.67579e-07
1.8165e-07
2.01553e-07
1.88423e-07
1.91116e-07
1.8195e-07
2.11449e-07
3.17848e-07
5.55249e-07
4.66536e-07
4.26014e-07
3.86955e-07
3.80756e-07
3.34452e-07
3.42923e-07
3.45263e-07
4.23257e-07
4.25906e-07
5.01515e-07
2.01738e-07
1.95958e-07
1.3123e-07
2.67362e-07
2.71516e-07
3.08358e-07
3.1786e-07
3.05027e-07
3.17993e-07
2.81046e-07
2.28866e-07
1.50355e-07
1.02596e-07
5.14935e-08
3.93573e-08
4.77541e-08
1.217e-07
7.89883e-08
5.28121e-08
2.77779e-08
2.574e-09
2.75902e-12
9.58933e-15
7.45218e-18
5.39275e-22
3.19e-26
1.61485e-30
7.24636e-35
2.84517e-39
8.17029e-44
6.35369e-07
2.73955e-07
1.66229e-07
1.14331e-07
1.01551e-07
1.22984e-07
1.84004e-07
3.03143e-07
6.66489e-07
1.50853e-06
1.4049e-06
6.4785e-07
5.82636e-07
6.80767e-07
2.46167e-07
3.60436e-07
4.56522e-07
5.45236e-07
5.80917e-07
5.95548e-07
5.99767e-07
5.87533e-07
5.86742e-07
5.85243e-07
5.81413e-07
5.94842e-07
5.81254e-07
5.91178e-07
7.26072e-07
7.94137e-07
9.18084e-07
1.03196e-06
1.06834e-06
1.1219e-06
1.2485e-06
1.27435e-06
1.05479e-06
6.78765e-07
3.81705e-07
2.77532e-07
3.96411e-07
6.39179e-07
6.14216e-07
4.46643e-07
6.64295e-07
8.1789e-07
6.5619e-07
5.92743e-07
6.08207e-07
6.39083e-07
6.75578e-07
7.4213e-07
7.8501e-07
8.90861e-07
9.80589e-07
1.08851e-06
1.15118e-06
1.09729e-06
8.38111e-07
6.23145e-07
4.15504e-07
2.83121e-07
2.45616e-07
2.23005e-07
2.3986e-07
3.40199e-07
5.56567e-07
7.12408e-07
6.99262e-07
6.40845e-07
4.46451e-07
4.22298e-07
5.00056e-07
6.20146e-07
3.16485e-07
2.70268e-07
2.37732e-07
3.12188e-07
6.79386e-07
6.04148e-07
5.57592e-07
5.98412e-07
6.52546e-07
6.73894e-07
6.7851e-07
6.72393e-07
6.64785e-07
6.35457e-07
6.22697e-07
5.59911e-07
5.58017e-07
5.02709e-07
5.39684e-07
5.81181e-07
6.03151e-07
5.9761e-07
5.43719e-07
5.31949e-07
5.11355e-07
4.57111e-07
2.6837e-07
2.05683e-07
5.65044e-07
6.33198e-07
5.54056e-07
2.71623e-07
8.48159e-08
6.85246e-08
1.34435e-07
3.27633e-07
6.31416e-07
6.84616e-07
6.5071e-07
5.84836e-07
5.66792e-07
5.76808e-07
5.8604e-07
6.24814e-07
6.36909e-07
6.37419e-07
6.26986e-07
6.33229e-07
6.32768e-07
6.10653e-07
5.80042e-07
5.78572e-07
6.18199e-07
6.41705e-07
6.40531e-07
5.09055e-07
3.958e-07
4.8894e-07
6.17127e-07
5.95903e-07
9.29429e-07
8.26986e-07
7.13755e-07
7.43241e-07
5.60491e-07
2.20581e-07
6.72839e-08
4.25504e-08
4.74417e-08
5.09377e-08
5.74885e-08
6.1149e-08
6.1445e-08
6.02548e-08
5.80674e-08
7.16956e-08
8.27599e-08
1.54533e-07
2.97855e-07
5.06552e-07
5.44317e-07
4.19799e-07
3.07635e-07
4.14345e-07
6.97218e-07
4.73118e-07
3.421e-07
4.05962e-07
5.45461e-07
5.96661e-07
2.7349e-08
8.92038e-09
2.79938e-09
1.012e-09
4.20369e-10
2.59206e-10
2.80023e-10
7.03075e-10
4.97077e-09
1.45038e-07
6.57775e-07
5.09197e-07
5.02601e-07
5.49682e-07
6.24442e-07
6.37736e-07
6.20541e-07
4.8819e-07
3.20965e-07
2.31854e-07
1.64021e-07
1.55281e-07
2.36706e-07
6.74813e-07
7.3206e-07
4.08151e-07
2.95782e-07
3.31367e-07
3.58617e-07
2.49745e-07
4.06551e-07
6.64954e-07
4.41557e-07
8.19067e-08
5.4298e-08
5.43262e-08
4.8211e-08
4.61714e-08
4.70352e-08
7.19636e-08
3.22121e-07
7.20049e-07
5.49667e-07
2.94487e-07
2.9644e-07
3.57309e-07
3.68657e-07
3.11346e-07
2.41723e-07
2.18916e-07
1.80929e-07
1.67188e-07
1.91675e-07
2.08925e-07
2.24066e-07
2.18836e-07
2.28418e-07
2.42884e-07
2.63933e-07
2.77139e-07
3.13216e-07
2.77335e-07
2.91449e-07
2.26145e-07
2.17534e-07
1.78952e-07
1.65678e-07
1.54794e-07
1.63653e-07
1.89938e-07
2.23578e-07
2.60793e-07
3.14429e-07
3.15646e-07
3.31204e-07
3.35913e-07
3.69089e-07
3.73467e-07
3.06205e-07
5.18155e-07
3.46718e-07
9.0467e-07
5.92508e-07
8.04347e-07
7.93862e-07
4.12044e-07
4.28831e-07
6.26476e-07
9.60006e-07
2.11924e-06
1.12357e-06
1.06874e-06
7.89789e-07
7.589e-07
5.87628e-07
5.786e-07
4.40079e-07
3.80416e-07
4.35016e-07
4.97027e-07
4.12224e-07
3.49675e-07
3.05914e-07
2.70651e-07
2.1389e-07
1.5866e-07
1.19522e-07
1.08017e-07
9.86141e-08
8.55269e-08
8.19957e-08
7.2879e-08
6.26651e-08
4.73076e-08
4.53985e-08
4.38663e-08
8.29312e-08
2.25392e-07
4.69832e-07
6.36833e-07
1.12378e-07
1.49645e-07
1.52824e-07
1.74098e-07
2.24905e-07
2.49327e-07
2.8111e-07
3.07008e-07
3.6537e-07
4.04351e-07
4.1382e-07
4.16273e-07
4.37058e-07
4.59672e-07
4.36135e-07
3.71307e-07
2.8296e-07
2.07969e-07
1.57125e-07
1.81292e-07
1.28213e-07
3.0328e-07
3.51261e-07
3.84078e-07
3.52576e-07
3.32084e-07
3.02177e-07
3.24711e-07
3.579e-07
4.1258e-07
1.33641e-07
1.85197e-07
3.1455e-07
4.04844e-07
5.0535e-07
6.52198e-07
6.03056e-07
6.35434e-07
5.83548e-07
4.99791e-07
4.06171e-07
3.59728e-07
3.16213e-07
2.36103e-07
1.98943e-07
2.05662e-07
1.69739e-07
1.38847e-07
2.2039e-07
4.38457e-07
5.15882e-07
3.69272e-07
1.88568e-07
1.4002e-07
1.13557e-07
1.17351e-07
9.99295e-08
1.06899e-07
1.52008e-07
1.83972e-07
5.76443e-07
1.15874e-06
1.22546e-06
1.43863e-06
1.3979e-06
1.1662e-06
8.63922e-07
6.30312e-07
4.12131e-07
2.39146e-07
1.46878e-07
8.30032e-08
5.0722e-08
3.35857e-08
2.26722e-08
1.71684e-08
1.78922e-08
1.80495e-08
1.28467e-08
1.03397e-08
7.43713e-09
1.28304e-09
7.34113e-12
1.11202e-15
4.30588e-20
2.05475e-24
1.01355e-28
4.93074e-33
1.53172e-37
4.04436e-43
4.51609e-08
3.94318e-08
2.87384e-08
3.61013e-08
3.3857e-08
4.42786e-08
5.28131e-08
8.73373e-08
1.44921e-07
3.40524e-07
1.13867e-06
1.24537e-06
5.15382e-07
6.12945e-07
3.67453e-07
5.21948e-07
6.00731e-07
5.98976e-07
5.94878e-07
5.92192e-07
5.85603e-07
5.86422e-07
5.8441e-07
5.91211e-07
5.95996e-07
5.8587e-07
6.0744e-07
5.5975e-07
6.08972e-07
7.0293e-07
8.46308e-07
1.01147e-06
1.04855e-06
1.00158e-06
1.09705e-06
1.33552e-06
1.20577e-06
7.08802e-07
3.65407e-07
2.34757e-07
3.61076e-07
6.1603e-07
6.16098e-07
5.18222e-07
7.08003e-07
7.71735e-07
6.04628e-07
5.80003e-07
6.03332e-07
6.41965e-07
6.57048e-07
6.10294e-07
6.09006e-07
7.05392e-07
8.56335e-07
9.26107e-07
1.01012e-06
1.06694e-06
9.6559e-07
7.00167e-07
4.0903e-07
2.46583e-07
1.70527e-07
1.54766e-07
1.61125e-07
2.19187e-07
3.90755e-07
7.63572e-07
7.23865e-07
6.02412e-07
4.45981e-07
4.44026e-07
5.74922e-07
6.07245e-07
3.08216e-07
2.45961e-07
2.88875e-07
6.6948e-07
5.54086e-07
5.82512e-07
6.65668e-07
4.50285e-07
3.09293e-07
3.78916e-07
4.44557e-07
5.60783e-07
6.04286e-07
6.26865e-07
6.38416e-07
5.90475e-07
5.82777e-07
5.34184e-07
5.35093e-07
5.47118e-07
5.91312e-07
6.07592e-07
6.15076e-07
5.71305e-07
5.80224e-07
5.49033e-07
3.85159e-07
2.21501e-07
5.69799e-07
6.11704e-07
5.82337e-07
2.34586e-07
7.87472e-08
1.50515e-07
4.80311e-07
6.80705e-07
6.12788e-07
5.14762e-07
4.44711e-07
4.26527e-07
4.09228e-07
3.93551e-07
4.18961e-07
4.78858e-07
5.55914e-07
6.07983e-07
6.2103e-07
6.16078e-07
5.94669e-07
5.5211e-07
4.95493e-07
5.05969e-07
5.51619e-07
5.92226e-07
5.31174e-07
4.2979e-07
4.31877e-07
5.49179e-07
6.27271e-07
6.07103e-07
9.15039e-07
6.70163e-07
7.40294e-07
6.65305e-07
1.91338e-07
4.55615e-08
2.94317e-08
2.70564e-08
3.19184e-08
3.8957e-08
4.54106e-08
4.94242e-08
4.70707e-08
3.90147e-08
3.54365e-08
3.41047e-08
3.02378e-08
3.65949e-08
5.24308e-08
1.68718e-07
3.8377e-07
3.27095e-07
1.66129e-07
8.13049e-08
2.96972e-07
6.52135e-07
3.91974e-07
3.83075e-07
5.11431e-07
5.2908e-07
3.91652e-09
1.54154e-09
6.94053e-10
3.215e-10
1.96205e-10
1.4705e-10
3.28595e-10
2.87515e-09
7.09727e-08
6.62528e-07
5.43621e-07
5.95876e-07
6.60715e-07
5.54857e-07
2.65606e-07
8.38824e-08
5.97621e-08
2.58992e-08
1.88649e-08
1.03441e-08
8.82947e-09
6.57775e-09
9.3298e-09
1.36718e-08
7.49366e-08
8.63935e-07
4.42426e-07
3.04291e-07
3.14331e-07
2.24706e-07
4.80222e-07
6.45796e-07
1.41852e-07
7.25693e-08
1.21077e-07
2.28454e-07
2.41213e-07
1.23294e-07
5.5733e-08
5.45475e-08
2.36724e-07
7.24654e-07
5.07509e-07
3.27202e-07
4.21435e-07
5.62717e-07
5.68941e-07
4.85595e-07
4.41357e-07
4.65848e-07
5.59587e-07
6.8294e-07
4.12842e-07
1.95113e-07
1.57783e-07
2.49487e-07
6.55232e-07
6.16323e-07
2.87194e-07
2.1639e-07
2.86253e-07
2.71147e-07
1.96175e-07
1.99974e-07
1.46744e-07
1.49098e-07
1.18937e-07
1.28924e-07
1.0092e-07
1.50976e-07
1.36354e-07
2.01719e-07
2.23461e-07
3.29801e-07
4.54131e-07
6.60309e-07
3.84978e-07
7.12808e-08
1.70913e-08
4.94486e-09
7.60775e-09
3.02941e-09
6.17247e-09
6.59399e-09
3.39035e-08
1.25713e-06
1.11783e-06
5.62338e-07
6.3261e-07
1.18964e-06
1.01841e-06
9.5163e-07
1.22529e-06
1.07427e-06
8.01973e-07
6.48981e-07
7.79749e-07
1.12371e-06
1.47998e-06
2.22196e-07
2.06485e-08
1.6661e-08
1.02065e-08
2.21833e-08
4.02287e-08
1.67767e-07
6.0729e-07
6.63254e-07
3.91703e-07
1.99788e-07
1.15913e-07
7.50728e-08
4.92906e-08
4.34581e-08
3.37607e-08
2.76295e-08
2.88357e-08
5.92231e-08
1.92632e-07
3.51639e-07
1.2239e-07
1.49204e-07
1.83171e-07
2.84373e-07
4.71978e-07
6.80164e-07
7.50246e-07
4.60071e-07
2.41524e-07
6.9496e-08
4.0798e-08
2.52975e-08
1.74023e-08
1.29277e-08
2.00707e-08
6.24852e-08
5.95994e-07
8.01369e-07
5.24276e-07
3.59322e-07
3.08529e-07
3.33949e-07
3.67189e-07
4.01006e-07
3.4603e-07
2.85333e-07
2.49599e-07
1.90202e-07
1.78936e-07
1.87752e-07
1.50459e-07
3.74245e-07
7.16654e-07
1.75212e-07
3.05685e-08
2.2033e-08
9.84305e-09
2.15154e-08
1.37179e-08
2.47469e-08
1.73983e-07
5.21465e-07
6.94163e-07
5.60726e-07
4.18255e-07
2.82217e-07
2.21521e-07
2.21413e-07
2.40751e-07
4.18732e-07
5.76791e-07
4.83304e-07
2.62018e-07
1.403e-07
8.49379e-08
7.32129e-08
8.23043e-08
6.96119e-08
7.84507e-08
9.45718e-08
6.39349e-07
3.09007e-07
1.05381e-07
5.38999e-08
6.10626e-08
2.47758e-07
4.16814e-07
6.18073e-07
6.01803e-07
5.34833e-07
4.60426e-07
3.58341e-07
2.66298e-07
2.14856e-07
1.52246e-07
1.09808e-07
7.76298e-08
5.1086e-08
4.13615e-08
4.25973e-08
4.57745e-08
4.82613e-08
7.63884e-09
3.42817e-10
2.42377e-15
8.40153e-20
2.70366e-24
1.62178e-28
5.71023e-33
4.11888e-38
1.4079e-08
2.55261e-08
4.55696e-08
6.49639e-08
7.58967e-08
6.06265e-08
6.52557e-08
8.02357e-08
1.20734e-07
2.02569e-07
4.15251e-07
1.36628e-06
9.30544e-07
5.27332e-07
5.72855e-07
6.05676e-07
5.95033e-07
6.01038e-07
6.13998e-07
6.69925e-07
6.73786e-07
6.12133e-07
6.009e-07
5.73746e-07
5.82152e-07
5.8112e-07
5.89644e-07
5.82211e-07
5.29444e-07
6.05983e-07
8.08623e-07
9.82227e-07
9.6246e-07
8.78507e-07
9.26222e-07
1.21674e-06
1.26085e-06
7.0262e-07
3.04576e-07
1.70719e-07
2.32114e-07
4.67478e-07
6.82233e-07
5.97115e-07
6.98925e-07
7.64268e-07
6.11725e-07
5.95898e-07
6.19752e-07
6.62514e-07
6.06238e-07
4.01912e-07
3.84e-07
4.46931e-07
5.84129e-07
7.82312e-07
8.43289e-07
8.54158e-07
6.5825e-07
3.93158e-07
2.39949e-07
1.80743e-07
1.42955e-07
1.45239e-07
1.53191e-07
2.18099e-07
4.84743e-07
8.32164e-07
7.22092e-07
5.75228e-07
4.45087e-07
4.41922e-07
5.9851e-07
6.0501e-07
2.92588e-07
2.68908e-07
6.65763e-07
5.52783e-07
6.14784e-07
3.70754e-07
8.10908e-08
8.03776e-08
1.5536e-07
2.44006e-07
3.66176e-07
4.976e-07
5.81825e-07
6.2665e-07
6.34546e-07
5.96425e-07
5.94733e-07
5.48436e-07
5.31937e-07
5.54848e-07
5.68302e-07
6.2358e-07
6.18978e-07
6.37337e-07
6.37231e-07
6.39777e-07
4.49118e-07
3.21529e-07
6.98598e-07
6.72346e-07
5.89866e-07
2.11289e-07
1.43826e-07
4.46903e-07
7.05472e-07
5.73065e-07
4.59437e-07
3.80161e-07
3.78686e-07
3.60037e-07
3.45307e-07
3.32164e-07
3.32092e-07
3.74337e-07
4.66604e-07
5.46088e-07
5.78386e-07
5.79185e-07
5.5725e-07
4.90641e-07
4.32631e-07
4.32843e-07
4.71902e-07
4.44148e-07
4.09111e-07
4.17569e-07
4.85035e-07
5.6292e-07
5.99479e-07
6.34045e-07
8.85499e-07
7.58695e-07
7.53671e-07
2.84735e-07
4.44844e-08
2.34473e-08
1.90335e-08
2.09582e-08
3.01204e-08
3.83929e-08
4.7686e-08
4.7952e-08
4.06723e-08
3.1501e-08
2.71561e-08
2.13911e-08
2.09241e-08
1.92312e-08
2.37286e-08
3.4521e-08
6.4511e-08
7.96362e-08
5.28712e-08
2.79123e-08
5.37756e-08
4.94877e-07
5.6569e-07
3.79711e-07
4.45204e-07
4.37647e-07
1.82811e-09
1.07585e-09
6.00005e-10
2.73779e-10
1.48389e-10
2.24738e-10
1.28969e-09
2.89559e-08
6.75218e-07
6.09214e-07
6.51567e-07
6.46624e-07
3.21143e-07
1.58262e-07
5.67861e-08
2.74803e-08
1.37171e-08
1.10833e-08
6.34763e-09
5.58004e-09
4.32914e-09
4.12663e-09
3.93416e-09
4.68177e-09
1.0121e-08
1.12663e-07
7.36193e-07
3.27937e-07
2.57043e-07
1.76518e-07
6.61315e-07
2.61664e-07
1.44842e-07
4.72007e-07
6.65375e-07
6.60189e-07
6.48065e-07
4.25026e-07
8.30951e-08
6.67554e-08
2.67594e-07
7.20596e-07
4.8892e-07
4.09871e-07
6.54245e-07
7.35496e-07
7.30157e-07
7.27298e-07
4.22679e-07
4.25714e-08
8.541e-09
3.20125e-09
2.26738e-09
1.86689e-09
1.83684e-09
2.14853e-09
3.01734e-09
1.02787e-08
2.00074e-07
3.91954e-07
3.87053e-07
4.92578e-07
6.09659e-07
4.92252e-07
4.54991e-07
3.10343e-07
2.9368e-07
2.32553e-07
3.124e-07
2.94812e-07
5.2006e-07
6.47106e-07
4.6674e-07
1.33041e-07
1.21083e-08
4.6125e-09
1.20454e-09
7.07438e-10
3.18368e-10
3.07592e-10
2.52911e-10
2.72424e-10
2.53556e-10
2.89342e-10
2.47204e-10
1.98538e-09
3.52178e-08
1.62145e-06
6.91906e-07
9.23701e-07
6.46584e-07
1.17777e-06
1.65078e-06
1.61689e-06
1.18759e-06
1.25426e-06
8.43007e-07
6.56462e-08
3.69145e-08
3.38754e-08
1.1949e-08
1.70707e-08
8.92589e-09
5.41231e-09
3.11095e-09
2.35306e-09
2.01025e-09
2.4197e-09
5.86158e-09
2.8018e-08
5.95828e-07
4.39809e-07
1.60631e-07
8.51602e-08
4.7114e-08
3.43114e-08
3.11511e-08
3.50232e-08
7.47781e-08
1.53892e-07
1.36595e-07
2.1368e-07
3.22951e-07
6.43633e-07
4.91688e-07
4.8533e-08
1.05551e-08
4.71776e-09
2.65778e-09
2.11618e-09
1.52545e-09
1.48337e-09
2.0444e-09
1.64281e-09
1.41746e-09
1.43899e-09
2.06323e-09
5.1674e-09
3.39757e-08
4.64707e-07
9.07662e-07
7.65222e-07
7.15719e-07
6.39379e-07
6.42673e-07
4.87653e-07
3.62637e-07
2.36265e-07
1.69171e-07
1.33941e-07
1.87495e-07
6.5595e-07
2.716e-08
5.73729e-09
3.6842e-09
2.27713e-09
2.74762e-09
1.86627e-09
1.92202e-09
1.29367e-09
1.9675e-09
3.08474e-09
1.1914e-08
7.33849e-08
6.66389e-07
6.83773e-07
5.07768e-07
4.72445e-07
3.74917e-07
4.98917e-07
7.00206e-07
8.76235e-07
6.02406e-07
3.25261e-07
1.52799e-07
1.10221e-07
9.80122e-08
1.08798e-07
7.67675e-08
9.22497e-08
5.90799e-07
6.611e-08
2.44502e-08
1.05552e-08
1.23971e-08
2.04873e-08
7.39023e-08
2.24685e-07
4.42446e-07
5.1755e-07
5.85989e-07
6.08769e-07
5.60074e-07
5.1828e-07
4.51156e-07
3.94e-07
3.34582e-07
2.78209e-07
2.02064e-07
1.66194e-07
1.40244e-07
1.33861e-07
1.28433e-07
1.10722e-07
6.72278e-09
5.7157e-13
1.14631e-18
5.81811e-23
2.01873e-27
2.63491e-32
2.58184e-08
1.03869e-07
3.94746e-07
4.07191e-07
3.94666e-07
1.91283e-07
2.03243e-07
1.79415e-07
2.95413e-07
3.93082e-07
4.61661e-07
8.59362e-07
1.46365e-06
5.00268e-07
6.0958e-07
6.01536e-07
6.00525e-07
6.51642e-07
7.05793e-07
7.20885e-07
7.34731e-07
7.57274e-07
6.54407e-07
5.86591e-07
5.63284e-07
5.78488e-07
5.78613e-07
5.40286e-07
5.42594e-07
5.35912e-07
7.09277e-07
9.80554e-07
8.87942e-07
7.61926e-07
8.54612e-07
1.13738e-06
1.10427e-06
5.1147e-07
1.93575e-07
8.81638e-08
1.03647e-07
2.26924e-07
6.01021e-07
6.63898e-07
7.35239e-07
7.17788e-07
6.31396e-07
6.07646e-07
6.31123e-07
6.62479e-07
4.52092e-07
2.93048e-07
2.28255e-07
2.40289e-07
3.63792e-07
4.03118e-07
4.13315e-07
3.04693e-07
2.60652e-07
1.95449e-07
1.74617e-07
1.58696e-07
1.60546e-07
1.86491e-07
2.80934e-07
4.96331e-07
7.66764e-07
8.17692e-07
6.99453e-07
5.66593e-07
4.11807e-07
4.01629e-07
5.78565e-07
6.05097e-07
2.90226e-07
5.71805e-07
5.82622e-07
6.14141e-07
2.07855e-07
4.25363e-08
4.51375e-08
6.76979e-08
1.26516e-07
1.97845e-07
2.51621e-07
4.25601e-07
5.67654e-07
6.34553e-07
6.31791e-07
6.09561e-07
6.06048e-07
5.63871e-07
5.69406e-07
5.54441e-07
6.09403e-07
6.15596e-07
6.66893e-07
6.64706e-07
6.92328e-07
6.6015e-07
4.9415e-07
6.04225e-07
6.59948e-07
6.88893e-07
5.47735e-07
1.72153e-07
2.5878e-07
7.00338e-07
6.30152e-07
4.583e-07
3.91314e-07
3.6081e-07
3.69709e-07
3.73558e-07
3.60508e-07
3.37034e-07
3.37217e-07
3.67815e-07
4.40648e-07
5.21053e-07
5.58769e-07
5.58414e-07
5.015e-07
4.15538e-07
3.6365e-07
3.57356e-07
3.51157e-07
3.45363e-07
3.66842e-07
4.24326e-07
4.95921e-07
5.40171e-07
5.78013e-07
6.0415e-07
9.19649e-07
6.11208e-07
6.67944e-07
1.07277e-07
2.64889e-08
1.72671e-08
1.58663e-08
1.94683e-08
2.70173e-08
3.80971e-08
4.87853e-08
5.53151e-08
4.10572e-08
3.03399e-08
2.21981e-08
1.5921e-08
1.31421e-08
1.00002e-08
1.15156e-08
1.28089e-08
1.62402e-08
2.09245e-08
1.95822e-08
1.76185e-08
1.85821e-08
4.33236e-08
6.29671e-07
4.46193e-07
3.63313e-07
3.38137e-07
1.41854e-09
9.52598e-10
4.86249e-10
2.31572e-10
1.9106e-10
6.40419e-10
1.13577e-08
4.39015e-07
6.71833e-07
6.76494e-07
6.20439e-07
3.07985e-07
1.52843e-07
5.95695e-08
2.87432e-08
1.88256e-08
1.26079e-08
9.60681e-09
7.73265e-09
5.73332e-09
4.97767e-09
4.06896e-09
3.18135e-09
4.41789e-09
6.24649e-09
3.04872e-08
8.65624e-07
3.34036e-07
1.73094e-07
1.27295e-07
4.42133e-07
1.99191e-07
6.88244e-07
5.43302e-07
4.68855e-07
4.91345e-07
5.97097e-07
6.44518e-07
2.69265e-07
1.78875e-07
4.51638e-07
6.90733e-07
4.70471e-07
5.89788e-07
6.32719e-07
1.84085e-07
5.1246e-08
1.31349e-08
3.16941e-09
1.25827e-09
8.85906e-10
7.17101e-10
7.07343e-10
7.00824e-10
7.11625e-10
8.535e-10
9.40347e-10
1.28529e-09
3.88397e-09
3.18945e-08
4.01529e-07
5.24203e-07
4.272e-07
4.32806e-07
2.16546e-07
2.36692e-07
1.77042e-07
2.56524e-07
2.23613e-07
3.59683e-07
5.31777e-07
4.73685e-07
2.42207e-08
2.35738e-09
6.90939e-10
4.69884e-10
4.11189e-10
4.92545e-10
6.09906e-10
6.44782e-10
7.08983e-10
5.54607e-10
6.50247e-10
2.37272e-10
1.47906e-10
2.45505e-10
4.38907e-10
1.88276e-08
1.73349e-06
8.20781e-07
6.51999e-07
1.43366e-06
3.62849e-07
2.47556e-07
9.1285e-07
2.26328e-07
3.54481e-08
2.78621e-08
1.09331e-07
3.84808e-07
8.95068e-07
6.98401e-07
6.33526e-07
5.92151e-07
2.16999e-07
4.39851e-08
1.01846e-08
2.6143e-09
9.87473e-10
6.90299e-10
1.34448e-09
8.85727e-09
4.82405e-07
4.43058e-07
1.48542e-07
5.82027e-08
4.33586e-08
2.92053e-08
3.86093e-08
7.20107e-08
1.78701e-07
3.70377e-07
6.90824e-07
2.43485e-07
2.05612e-08
4.45022e-09
2.57538e-09
2.04175e-09
1.94501e-09
3.11574e-09
9.8974e-09
2.89383e-08
5.99356e-08
2.97826e-08
1.23167e-08
3.09215e-09
1.48244e-09
7.85919e-10
1.1252e-09
2.49646e-09
1.30365e-08
1.12241e-07
1.02758e-06
1.24107e-06
1.35823e-06
1.06079e-06
8.34873e-07
5.072e-07
2.2617e-07
1.28993e-07
2.80429e-07
3.19884e-07
5.47973e-09
2.89387e-09
3.09067e-09
5.57059e-09
1.32021e-08
4.75699e-09
6.33501e-09
1.49071e-09
9.44767e-10
5.73995e-10
7.0101e-10
2.28202e-09
9.51228e-09
7.07856e-08
6.60727e-07
7.85801e-07
8.07068e-07
7.87951e-07
9.24936e-07
1.25333e-06
1.41437e-06
9.74297e-07
4.58429e-07
2.39448e-07
1.83901e-07
1.42972e-07
1.04187e-07
1.09598e-07
5.03543e-07
4.14318e-08
1.22955e-08
4.96372e-09
3.08377e-09
5.28526e-09
1.05219e-08
2.62591e-08
5.63074e-08
1.5305e-07
2.19149e-07
3.66721e-07
4.89259e-07
5.88065e-07
6.41244e-07
6.5319e-07
6.48478e-07
6.23059e-07
5.61985e-07
5.25741e-07
4.38711e-07
4.13867e-07
3.56565e-07
3.26223e-07
3.11742e-07
4.00599e-08
3.31083e-13
3.35775e-17
5.75023e-22
8.24662e-27
6.32328e-08
6.29117e-07
1.42891e-06
1.44479e-06
1.20373e-06
7.6522e-07
9.68483e-07
8.8187e-07
1.3343e-06
1.32283e-06
1.11142e-06
9.95836e-07
1.40393e-06
6.07374e-07
5.95873e-07
6.22181e-07
6.40274e-07
6.29153e-07
5.23446e-07
3.84677e-07
5.264e-07
8.00302e-07
8.22822e-07
6.34322e-07
5.62304e-07
5.58551e-07
5.43239e-07
4.97524e-07
4.72396e-07
5.25293e-07
6.56748e-07
9.2995e-07
8.26585e-07
6.62366e-07
7.90766e-07
1.24914e-06
6.32095e-07
2.09107e-07
8.69901e-08
6.70629e-08
6.71546e-08
1.13792e-07
3.97489e-07
6.96647e-07
7.22339e-07
6.89021e-07
6.32637e-07
6.01813e-07
6.24595e-07
7.44699e-07
5.8034e-07
3.40745e-07
2.37903e-07
2.15059e-07
2.24648e-07
2.19766e-07
2.29997e-07
2.51696e-07
2.65879e-07
2.6412e-07
2.64273e-07
2.88522e-07
4.67473e-07
7.04241e-07
8.43289e-07
8.57443e-07
7.90585e-07
7.07654e-07
6.22754e-07
4.99942e-07
3.51274e-07
3.409e-07
5.17666e-07
6.15683e-07
3.5851e-07
6.41829e-07
5.89234e-07
2.78188e-07
2.94278e-08
2.70709e-08
4.57438e-08
6.0136e-08
5.50957e-08
4.89262e-08
6.7828e-08
2.35769e-07
4.97188e-07
6.38214e-07
6.42357e-07
6.16016e-07
6.11922e-07
6.02659e-07
5.7362e-07
6.14731e-07
6.2037e-07
6.64606e-07
6.75982e-07
7.09751e-07
7.01403e-07
6.94657e-07
6.88338e-07
6.93817e-07
6.29315e-07
7.07409e-07
4.56127e-07
1.66168e-07
4.32756e-07
7.20666e-07
6.16682e-07
5.02563e-07
4.46715e-07
4.13369e-07
4.05488e-07
4.04352e-07
4.13049e-07
4.12003e-07
4.20021e-07
4.56095e-07
5.08808e-07
5.48833e-07
5.50592e-07
4.92192e-07
4.00137e-07
3.29037e-07
2.96955e-07
3.09631e-07
3.25866e-07
4.01867e-07
4.96967e-07
5.84001e-07
6.03916e-07
6.29809e-07
6.02238e-07
5.84613e-07
8.62622e-07
6.40403e-07
5.37623e-07
8.11653e-08
2.09797e-08
1.09092e-08
1.31888e-08
1.71138e-08
2.452e-08
4.07273e-08
5.72928e-08
6.2725e-08
5.46007e-08
3.15041e-08
1.72271e-08
1.14339e-08
9.65156e-09
1.09084e-08
1.03904e-08
1.00371e-08
8.30476e-09
8.38046e-09
1.16968e-08
1.28213e-08
1.50127e-08
2.22841e-08
1.74769e-07
5.63572e-07
2.99732e-07
2.42363e-07
1.25079e-09
5.04076e-10
2.79208e-10
2.31173e-10
5.22949e-10
4.79095e-09
1.2779e-07
6.75846e-07
6.88723e-07
6.09235e-07
3.12686e-07
1.82073e-07
6.63646e-08
3.87378e-08
2.2209e-08
1.41524e-08
1.19846e-08
1.0852e-08
9.28492e-09
8.03702e-09
5.77594e-09
4.80883e-09
4.01413e-09
4.78815e-09
1.18297e-08
8.14943e-08
6.08706e-07
1.89304e-07
1.67361e-07
1.75008e-07
1.90084e-07
4.35354e-07
5.88361e-07
4.38849e-07
4.08956e-07
4.39808e-07
5.32877e-07
6.43616e-07
5.64503e-07
4.11604e-07
6.85746e-07
6.00542e-07
5.24809e-07
7.15668e-07