/*--------------------------------*- C++ -*----------------------------------*\
| =========                 |                                                 |
| \\      /  F ield         | OpenFOAM: The Open Source CFD Toolbox           |
|  \\    /   O peration     | Version:  2.1.1                                 |
|   \\  /    A nd           | Web:      www.OpenFOAM.org                      |
|    \\/     M anipulation  |                                                 |
\*---------------------------------------------------------------------------*/
FoamFile
{
    version     2.0;
    format      ascii;
    class       volScalarField;
    location    "0.003400000";
    object      N2;
}
// * * * * * * * * * * * * * * * * * * * * * * * * * * * * * * * * * * * * * //

dimensions      [0 0 0 0 0 0 0];

internalField   nonuniform List<scalar> 
12384
(
0.749651
0.749905
0.750466
0.750289
0.751697
0.751334
0.752786
0.752867
0.75287
0.752253
0.750723
0.747668
0.746099
0.746179
0.751908
0.751987
0.751869
0.751532
0.751077
0.750616
0.750297
0.749976
0.749838
0.749678
0.749694
0.749607
0.749618
0.749563
0.7495
0.749548
0.749659
0.749922
0.750032
0.750357
0.750874
0.751625
0.752375
0.752958
0.753221
0.752843
0.751694
0.749225
0.746398
0.74507
0.747545
0.747217
0.747551
0.747848
0.747946
0.747945
0.747858
0.74767
0.747274
0.746842
0.746137
0.745448
0.744788
0.744229
0.743836
0.743555
0.743476
0.743519
0.743589
0.743799
0.744097
0.744413
0.744713
0.744895
0.745757
0.74753
0.750014
0.7514
0.751184
0.748703
0.744656
0.744393
0.744367
0.744107
0.74374
0.743725
0.744143
0.744848
0.745605
0.746228
0.746693
0.747035
0.747268
0.747418
0.747417
0.747293
0.74711
0.747012
0.746665
0.74611
0.745556
0.74528
0.745109
0.744929
0.744555
0.743724
0.742734
0.743897
0.747965
0.748264
0.74522
0.74412
0.743626
0.743108
0.742468
0.742172
0.741976
0.742068
0.742271
0.742522
0.742743
0.742852
0.743082
0.743207
0.743424
0.743676
0.744167
0.744744
0.745452
0.746041
0.746279
0.746408
0.746096
0.745926
0.746161
0.748531
0.751079
0.750308
0.74769
0.746857
0.749676
0.748499
0.746377
0.746117
0.745338
0.745388
0.746009
0.746639
0.747081
0.746974
0.746531
0.746158
0.74597
0.745901
0.74594
0.745915
0.74609
0.745945
0.746027
0.745925
0.746349
0.746317
0.747669
0.750061
0.752233
0.752683
0.752213
0.751096
0.749906
0.748999
0.749667
0.749111
0.74753
0.7447
0.74109
0.73753
0.733038
0.730403
0.728998
0.730013
0.733959
0.742434
0.748817
0.751974
0.752738
0.752908
0.752951
0.752812
0.753155
0.753101
0.7536
0.753623
0.754036
0.754114
0.754038
0.753694
0.753512
0.753011
0.752337
0.752291
0.75113
0.751031
0.750796
0.749892
0.749122
0.748296
0.747675
0.747382
0.747464
0.747522
0.747773
0.747856
0.749096
0.751971
0.753729
0.753787
0.753825
0.753812
0.753856
0.753888
0.753862
0.753842
0.753739
0.753564
0.753342
0.753065
0.752758
0.752445
0.752103
0.751937
0.752461
0.753017
0.753323
0.753696
0.753828
0.753834
0.753775
0.753559
0.753313
0.752868
0.752506
0.751878
0.751515
0.750919
0.750477
0.750337
0.750423
0.749981
0.749666
0.749883
0.749989
0.750714
0.750927
0.751328
0.751011
0.750697
0.750319
0.748498
0.747231
0.746792
0.750912
0.751737
0.752426
0.752319
0.751551
0.750683
0.749925
0.74996
0.750047
0.74828
0.750397
0.748755
0.748284
0.747804
0.747395
0.747421
0.747562
0.747869
0.748237
0.748764
0.749145
0.74951
0.749226
0.749233
0.748524
0.746954
0.747003
0.74581
0.745916
0.745476
0.754178
0.753921
0.753925
0.754081
0.754129
0.754133
0.754039
0.753875
0.753887
0.753791
0.753638
0.753476
0.753305
0.753126
0.752959
0.752723
0.752487
0.752092
0.751679
0.751141
0.750551
0.750165
0.749766
0.749275
0.749016
0.748542
0.748107
0.747897
0.747761
0.747489
0.753718
0.754063
0.754097
0.754345
0.754347
0.754368
0.754296
0.754357
0.754093
0.754161
0.75394
0.753768
0.753582
0.753471
0.753161
0.753075
0.752713
0.752379
0.751356
0.750871
0.750345
0.75
0.749296
0.749264
0.749383
0.749089
0.748898
0.749264
0.749402
0.749483
0.753991
0.754131
0.753937
0.754063
0.754074
0.754069
0.753942
0.753941
0.753677
0.75365
0.753307
0.753288
0.752952
0.752786
0.752298
0.751663
0.750424
0.748911
0.746677
0.745032
0.74482
0.744829
0.744827
0.744826
0.744824
0.744823
0.744822
0.744821
0.744816
0.744757
0.749262
0.745936
0.744988
0.741193
0.742093
0.742282
0.74537
0.74683
0.750086
0.751731
0.75221
0.750194
0.747281
0.746421
0.752503
0.752264
0.751304
0.750188
0.749413
0.748875
0.748548
0.748464
0.748462
0.74856
0.748699
0.748874
0.749096
0.749205
0.749184
0.748956
0.748756
0.748681
0.748732
0.748821
0.749308
0.750361
0.751526
0.752569
0.753171
0.752924
0.751647
0.749114
0.746188
0.745076
0.747593
0.747642
0.748386
0.748819
0.748736
0.748495
0.74826
0.748196
0.748246
0.748083
0.747501
0.746588
0.745418
0.744242
0.743196
0.742359
0.741824
0.741615
0.74155
0.74164
0.742225
0.743294
0.74445
0.745223
0.745971
0.747847
0.750277
0.751218
0.750737
0.748293
0.744653
0.744341
0.744111
0.743733
0.74416
0.745897
0.747671
0.748727
0.749216
0.74941
0.749426
0.749453
0.749433
0.749489
0.749523
0.749497
0.749284
0.749016
0.748308
0.747422
0.746463
0.745855
0.745542
0.745406
0.745194
0.744712
0.743499
0.743442
0.746744
0.748329
0.745335
0.74415
0.743299
0.742163
0.741671
0.742221
0.743125
0.744227
0.745192
0.745807
0.74624
0.74643
0.74635
0.746256
0.745958
0.745692
0.745685
0.745898
0.746496
0.747012
0.747636
0.747471
0.747133
0.746436
0.746734
0.74877
0.750987
0.750551
0.748058
0.746728
0.749642
0.747036
0.746118
0.745946
0.746279
0.745891
0.744981
0.742958
0.74124
0.740564
0.740711
0.741166
0.74173
0.742345
0.742979
0.743674
0.744222
0.744695
0.745005
0.745148
0.744973
0.745087
0.745713
0.747825
0.750446
0.75205
0.752306
0.751234
0.749676
0.748919
0.746803
0.744921
0.741263
0.73765
0.732535
0.729079
0.727093
0.726379
0.728944
0.734762
0.741442
0.747867
0.750533
0.751424
0.751603
0.751214
0.750996
0.750623
0.750527
0.750372
0.75041
0.750629
0.751229
0.752206
0.753158
0.753652
0.753408
0.752864
0.752137
0.752387
0.751588
0.750769
0.748657
0.746049
0.74446
0.743264
0.742325
0.742392
0.74304
0.744584
0.746241
0.747583
0.749698
0.752769
0.753497
0.753361
0.753269
0.753512
0.753677
0.754003
0.754216
0.754326
0.754359
0.754257
0.754112
0.753879
0.753676
0.753413
0.752981
0.752458
0.75235
0.753121
0.753484
0.753736
0.753916
0.753908
0.75392
0.753844
0.753607
0.753311
0.752895
0.752575
0.752275
0.752202
0.752214
0.752497
0.752831
0.753208
0.753337
0.754259
0.753874
0.754442
0.754706
0.755214
0.755247
0.755356
0.75518
0.752896
0.75112
0.749599
0.75152
0.752927
0.753942
0.754205
0.753863
0.75349
0.753792
0.754304
0.754644
0.754748
0.754745
0.754623
0.754271
0.753776
0.753476
0.753088
0.752855
0.752846
0.753124
0.753533
0.754045
0.754701
0.755108
0.75549
0.754694
0.753596
0.751189
0.749279
0.747136
0.746334
0.754425
0.754076
0.754245
0.754358
0.754472
0.754604
0.754543
0.754536
0.754384
0.754258
0.75427
0.754295
0.754377
0.754446
0.754474
0.754394
0.754207
0.753993
0.75426
0.753829
0.753457
0.7529
0.752903
0.753342
0.753679
0.754234
0.753341
0.752867
0.75225
0.750949
0.754922
0.754823
0.75476
0.754788
0.754687
0.75445
0.754525
0.754439
0.754767
0.754525
0.754741
0.754934
0.755054
0.754895
0.755051
0.754849
0.754877
0.754537
0.754137
0.753263
0.752609
0.751724
0.75214
0.752207
0.752529
0.752305
0.75228
0.751552
0.751528
0.751204
0.756674
0.755069
0.755566
0.755459
0.755543
0.755834
0.755914
0.756286
0.756353
0.756846
0.757012
0.757636
0.757935
0.758441
0.758458
0.758334
0.757823
0.756325
0.754836
0.752763
0.749862
0.747171
0.746936
0.746909
0.74691
0.746884
0.74688
0.746858
0.746785
0.745678
0.737347
0.73174
0.727491
0.725513
0.724187
0.72683
0.728522
0.733695
0.738207
0.745245
0.749985
0.751635
0.749618
0.747885
0.752767
0.751339
0.749653
0.748486
0.747999
0.74782
0.747808
0.747878
0.747958
0.748099
0.748253
0.748447
0.748831
0.749241
0.749411
0.749222
0.748652
0.747892
0.747267
0.746957
0.74736
0.748737
0.750561
0.752228
0.753204
0.752955
0.751412
0.748758
0.746179
0.745166
0.747707
0.748123
0.748954
0.749135
0.748914
0.748395
0.74763
0.747069
0.747189
0.747709
0.748047
0.747874
0.747175
0.746021
0.744547
0.742982
0.74151
0.740198
0.739249
0.738778
0.739131
0.74083
0.743308
0.745322
0.746543
0.748366
0.75055
0.750905
0.749839
0.74768
0.74465
0.744181
0.743842
0.744615
0.747319
0.74923
0.749706
0.749298
0.748535
0.747912
0.747522
0.747484
0.747641
0.74795
0.748317
0.748829
0.749063
0.749254
0.749133
0.74848
0.74767
0.746774
0.746222
0.745981
0.745839
0.745514
0.744343
0.743655
0.746239
0.74832
0.74551
0.744001
0.742529
0.741789
0.742722
0.744759
0.746379
0.747674
0.748649
0.749282
0.749517
0.749378
0.749027
0.74845
0.747846
0.74734
0.747164
0.747401
0.747762
0.748462
0.748958
0.749028
0.748277
0.747597
0.747808
0.749987
0.751229
0.750151
0.747818
0.746772
0.749078
0.746367
0.74592
0.746498
0.745617
0.74345
0.740732
0.738877
0.738553
0.738839
0.739289
0.739625
0.739772
0.739849
0.740135
0.74083
0.741839
0.742938
0.744384
0.745413
0.745593
0.744937
0.744483
0.74497
0.747662
0.750616
0.752061
0.751361
0.749794
0.749144
0.739625
0.736034
0.732131
0.727841
0.724149
0.722142
0.722584
0.726835
0.734102
0.742955
0.748065
0.750099
0.750123
0.749514
0.748458
0.747438
0.746559
0.745579
0.744712
0.743801
0.743016
0.742853
0.74369
0.745845
0.749099
0.752284
0.753365
0.752996
0.752327
0.753245
0.751792
0.74896
0.745028
0.742426
0.741164
0.741164
0.740899
0.740797
0.740823
0.741978
0.744655
0.747244
0.750391
0.752851
0.752824
0.752235
0.75209
0.752593
0.753348
0.753522
0.753954
0.754127
0.753864
0.753638
0.753446
0.75371
0.754028
0.754406
0.754503
0.754192
0.752133
0.752503
0.752332
0.753125
0.753279
0.753839
0.753987
0.754157
0.754018
0.753636
0.753176
0.752732
0.75218
0.752218
0.752052
0.752053
0.751591
0.751598
0.752225
0.750983
0.751906
0.750073
0.752584
0.752261
0.754214
0.756236
0.756876
0.756616
0.755126
0.75222
0.752552
0.753574
0.754045
0.754392
0.75465
0.754907
0.755408
0.755696
0.755016
0.754108
0.751815
0.752227
0.752376
0.752844
0.753584
0.754706
0.755638
0.756241
0.756515
0.75676
0.756797
0.756998
0.757108
0.757392
0.757408
0.75722
0.755713
0.753297
0.750552
0.74851
0.755086
0.754688
0.754592
0.754404
0.753813
0.753378
0.753081
0.752695
0.752083
0.751616
0.75153
0.751609
0.751757
0.751987
0.752314
0.753169
0.754384
0.755309
0.755812
0.756046
0.756284
0.756141
0.75626
0.7564
0.75667
0.756843
0.756946
0.756399
0.755893
0.755412
0.754979
0.754088
0.752712
0.751788
0.750681
0.749383
0.74972
0.749524
0.750015
0.750794
0.752084
0.75302
0.753609
0.754427
0.75476
0.755123
0.755441
0.755571
0.755798
0.755696
0.755398
0.755082
0.75507
0.755278
0.75567
0.755944
0.755912
0.755735
0.754959
0.755177
0.753333
0.74993
0.749717
0.749409
0.749956
0.750919
0.752017
0.752849
0.753567
0.754273
0.755061
0.755844
0.756606
0.757255
0.757894
0.758386
0.759023
0.759682
0.759955
0.759986
0.75987
0.759747
0.759767
0.759672
0.759703
0.759706
0.75972
0.759729
0.759789
0.760788
0.718848
0.718534
0.718737
0.719651
0.720106
0.720967
0.722236
0.725313
0.728669
0.735032
0.743013
0.750052
0.751169
0.749085
0.751299
0.749383
0.747869
0.747431
0.747483
0.747695
0.747955
0.748132
0.748179
0.748225
0.748174
0.748229
0.748502
0.74912
0.749618
0.749707
0.749058
0.747691
0.746359
0.745545
0.745649
0.747162
0.749646
0.751958
0.753229
0.753225
0.751852
0.74906
0.746232
0.745603
0.747873
0.74848
0.749231
0.749287
0.748944
0.748277
0.746991
0.745781
0.745376
0.745881
0.746829
0.747477
0.74747
0.746927
0.745755
0.743943
0.741757
0.739525
0.73777
0.736901
0.737113
0.73868
0.742202
0.745383
0.746965
0.748922
0.750634
0.750522
0.748901
0.74712
0.744592
0.743947
0.744397
0.747892
0.749705
0.749431
0.747077
0.745275
0.744618
0.744845
0.745223
0.745835
0.746358
0.746881
0.747469
0.748148
0.748665
0.749063
0.749214
0.748962
0.748415
0.747656
0.74696
0.746507
0.746416
0.74612
0.745038
0.743858
0.746304
0.74833
0.745608
0.743613
0.742233
0.742851
0.745316
0.747505
0.749085
0.750178
0.750797
0.751018
0.751209
0.751298
0.751029
0.750346
0.749443
0.74863
0.74824
0.748287
0.748736
0.749389
0.750082
0.749946
0.749469
0.748866
0.749698
0.750866
0.750808
0.74944
0.74789
0.747144
0.749028
0.745657
0.746165
0.745888
0.743153
0.739451
0.737044
0.736647
0.737118
0.73768
0.73799
0.737551
0.736331
0.735126
0.734525
0.734933
0.7358
0.737621
0.740659
0.743106
0.744797
0.744719
0.743107
0.7424
0.744466
0.748645
0.751409
0.751524
0.750234
0.749971
0.733156
0.730112
0.726731
0.723462
0.720794
0.720068
0.723619
0.732307
0.741932
0.748114
0.749769
0.749112
0.74761
0.745891
0.744244
0.742549
0.741432
0.739471
0.738437
0.736601
0.736036
0.735475
0.736201
0.737807
0.74199
0.747958
0.752095
0.75326
0.752988
0.753773
0.750977
0.74612
0.742778
0.741994
0.742697
0.743809
0.743962
0.742733
0.741232
0.741161
0.743774
0.747317
0.750583
0.752398
0.751438
0.750195
0.750116
0.750911
0.751316
0.750918
0.749717
0.747144
0.744949
0.743338
0.742956
0.743878
0.746255
0.749517
0.752925
0.755019
0.752278
0.752509
0.7535
0.75346
0.754251
0.7542
0.754648
0.754554
0.754756
0.754175
0.754444
0.753492
0.753178
0.752013
0.750658
0.7475
0.744887
0.741966
0.738185
0.73405
0.735583
0.732552
0.735088
0.735414
0.739835
0.74886
0.753064
0.756726
0.756889
0.755149
0.753336
0.753526
0.752293
0.752176
0.753584
0.754254
0.753638
0.75159
0.747874
0.742124
0.73682
0.738082
0.736558
0.738902
0.740473
0.743044
0.745874
0.748752
0.751649
0.754007
0.75589
0.756771
0.757483
0.757684
0.758018
0.758173
0.757902
0.756293
0.753835
0.751917
0.754916
0.754517
0.754086
0.753017
0.751265
0.748963
0.747254
0.745078
0.743728
0.741813
0.740474
0.739335
0.738177
0.73754
0.738257
0.741198
0.745468
0.749553
0.752099
0.753786
0.754691
0.755515
0.756134
0.756697
0.757093
0.757477
0.75757
0.757647
0.757494
0.757247
0.754623
0.751948
0.747327
0.743129
0.740125
0.738874
0.736411
0.738807
0.737863
0.739278
0.743066
0.745513
0.748415
0.750325
0.752334
0.753281
0.754226
0.75498
0.755378
0.755875
0.756323
0.756642
0.756737
0.756838
0.757016
0.757376
0.757181
0.757073
0.756982
0.757041
0.749529
0.743459
0.741183
0.740682
0.741448
0.744027
0.745211
0.747238
0.748276
0.749343
0.750395
0.751446
0.752647
0.753284
0.754282
0.755049
0.755777
0.75662
0.757356
0.758095
0.758745
0.759294
0.75962
0.760007
0.760293
0.760324
0.760323
0.760323
0.76034
0.760519
0.716547
0.721142
0.726457
0.727651
0.728058
0.725537
0.725268
0.726134
0.728532
0.731412
0.736169
0.745009
0.750526
0.750034
0.749242
0.747784
0.747145
0.747225
0.747574
0.747783
0.747895
0.748404
0.748593
0.748659
0.748547
0.748371
0.748473
0.74905
0.749843
0.750067
0.749428
0.747822
0.745893
0.74466
0.744465
0.745922
0.749106
0.751898
0.753635
0.754093
0.753261
0.750703
0.747224
0.74604
0.747905
0.748588
0.749202
0.749173
0.748828
0.747802
0.745874
0.744166
0.743601
0.744067
0.745078
0.746023
0.746346
0.745844
0.744512
0.742566
0.740341
0.738289
0.73695
0.736803
0.73739
0.739473
0.742995
0.745957
0.747421
0.749128
0.750736
0.75052
0.748557
0.74684
0.744468
0.744214
0.747274
0.749668
0.748864
0.744833
0.742416
0.74238
0.743034
0.743939
0.744783
0.745565
0.746138
0.746792
0.747196
0.747961
0.748399
0.748922
0.749158
0.749041
0.748723
0.748088
0.747463
0.747098
0.746885
0.746635
0.745248
0.74468
0.747585
0.748435
0.745713
0.743361
0.742696
0.745022
0.747689
0.74961
0.750784
0.751443
0.751497
0.751611
0.751796
0.751973
0.751927
0.751429
0.750499
0.749541
0.749014
0.748983
0.749325
0.750152
0.750782
0.750795
0.750423
0.750683
0.751122
0.750998
0.750206
0.749238
0.748574
0.748
0.748337
0.745864
0.746342
0.744
0.739375
0.736115
0.735138
0.735583
0.73664
0.737474
0.737517
0.736392
0.73418
0.732082
0.731051
0.731071
0.731754
0.733601
0.736172
0.739548
0.741622
0.742328
0.741076
0.73981
0.741127
0.745502
0.749643
0.751607
0.750971
0.751093
0.730258
0.728121
0.725849
0.722446
0.720131
0.721407
0.729047
0.739917
0.746848
0.749123
0.748564
0.746711
0.744771
0.743106
0.741285
0.739714
0.737876
0.736892
0.735295
0.734621
0.733523
0.733346
0.733165
0.733807
0.736469
0.742698
0.74966
0.753092
0.753686
0.754308
0.748938
0.743968
0.742856
0.745336
0.747546
0.747941
0.747302
0.745187
0.742502
0.741732
0.744079
0.747521
0.750803
0.75152
0.749162
0.747194
0.747071
0.74685
0.74483
0.740592
0.735928
0.732933
0.731115
0.730336
0.730273
0.730875
0.732564
0.736566
0.743354
0.751631
0.751426
0.750408
0.749025
0.750433
0.750839
0.752429
0.752473
0.753325
0.752632
0.752476
0.75018
0.748507
0.745314
0.742782
0.73727
0.733788
0.728686
0.726868
0.723405
0.723162
0.721998
0.722401
0.721999
0.722746
0.721861
0.728937
0.73745
0.750323
0.75652
0.756135
0.754086
0.752575
0.748382
0.747994
0.750664
0.749996
0.745132
0.737904
0.733568
0.735566
0.732176
0.738169
0.735416
0.734475
0.732746
0.731274
0.730607
0.731406
0.734861
0.739763
0.745831
0.751143
0.754322
0.756141
0.757284
0.757939
0.758072
0.7577
0.755964
0.7544
0.75465
0.753599
0.752293
0.749553
0.745191
0.740818
0.736665
0.733857
0.73187
0.730818
0.730051
0.729558
0.729309
0.728745
0.728006
0.727468
0.728604
0.732478
0.739573
0.744471
0.749079
0.751431
0.753296
0.754584
0.755413
0.756179
0.756489
0.757165
0.757621
0.757861
0.753876
0.748053
0.739662
0.73476
0.73298
0.731154
0.732066
0.730351
0.730456
0.729077
0.730547
0.732709
0.737181
0.741997
0.746412
0.749456
0.751319
0.752742
0.753328
0.754322
0.754972
0.755716
0.756489
0.756732
0.756938
0.757099
0.757124
0.757114
0.757492
0.757643
0.747805
0.741741
0.73933
0.73676
0.7375
0.738677
0.742237
0.743735
0.745691
0.746136
0.747339
0.747976
0.74895
0.749775
0.75055
0.751369
0.752062
0.752799
0.753759
0.754502
0.755287
0.756129
0.756996
0.757764
0.758158
0.758618
0.758665
0.758664
0.758667
0.758685
0.723505
0.73274
0.739687
0.739191
0.738351
0.733731
0.733387
0.732535
0.735402
0.736626
0.737519
0.741198
0.747976
0.750325
0.748146
0.747243
0.746909
0.746916
0.746685
0.746349
0.746524
0.747209
0.748293
0.748827
0.748825
0.748664
0.748663
0.749376
0.750095
0.750437
0.749812
0.74798
0.745629
0.743949
0.743749
0.745702
0.749604
0.752781
0.754618
0.755566
0.755335
0.753362
0.749336
0.746696
0.748024
0.748536
0.748929
0.749092
0.748698
0.74728
0.744708
0.742742
0.74223
0.742649
0.74326
0.743663
0.743355
0.742392
0.741131
0.739831
0.73881
0.738245
0.73839
0.739425
0.741328
0.743517
0.745503
0.746763
0.74762
0.749289
0.751054
0.751039
0.748881
0.746832
0.744438
0.746011
0.749302
0.748709
0.743637
0.740636
0.740753
0.741799
0.742757
0.743487
0.744028
0.745138
0.745992
0.746836
0.74716
0.747711
0.74815
0.748736
0.748907
0.748955
0.748595
0.748168
0.74773
0.747327
0.747282
0.746581
0.745348
0.745808
0.74881
0.748241
0.745482
0.742992
0.743878
0.74674
0.749122
0.750749
0.751432
0.751676
0.751545
0.751449
0.751554
0.751847
0.751863
0.751489
0.750685
0.749796
0.749291
0.749342
0.750013
0.750992
0.751541
0.751618
0.751711
0.751783
0.751512
0.750888
0.750083
0.749515
0.749127
0.748654
0.74782
0.745475
0.745743
0.741551
0.736385
0.734117
0.7339
0.734856
0.736105
0.73719
0.737579
0.736633
0.734354
0.732371
0.731416
0.731421
0.731605
0.731969
0.732347
0.733083
0.734538
0.736
0.736323
0.735603
0.736794
0.740632
0.746303
0.751093
0.751928
0.752229
0.729598
0.727603
0.724776
0.721552
0.720689
0.726236
0.73699
0.745143
0.748137
0.748
0.746331
0.744591
0.742996
0.741406
0.739894
0.73843
0.737462
0.736328
0.735628
0.734748
0.734091
0.733286
0.732878
0.733579
0.735165
0.740056
0.747978
0.75296
0.754438
0.75486
0.744986
0.743398
0.746854
0.749827
0.750573
0.750324
0.749027
0.74695
0.744206
0.743236
0.745141
0.748399
0.750951
0.749768
0.745826
0.74308
0.740945
0.737626
0.732861
0.72891
0.727319
0.726965
0.726869
0.726805
0.726906
0.727168
0.727539
0.72902
0.733139
0.74033
0.751352
0.750038
0.751078
0.751132
0.753494
0.753511
0.75512
0.754296
0.754569
0.752498
0.750224
0.745281
0.739219
0.731294
0.726717
0.724625
0.72407
0.724836
0.725946
0.726271
0.72687
0.725394
0.726302
0.721649
0.720075
0.718316
0.721034
0.733694
0.751039
0.756628
0.75432
0.750055
0.742344
0.741576
0.745105
0.742405
0.736379
0.734165
0.7386
0.742327
0.745698
0.745821
0.745495
0.745695
0.743372
0.740678
0.73653
0.731713
0.727747
0.726704
0.72928
0.736042
0.745366
0.751065
0.754655
0.756853
0.757543
0.75813
0.757486
0.756058
0.753924
0.751617
0.748447
0.743801
0.738644
0.733628
0.731166
0.730676
0.730489
0.732774
0.736449
0.739911
0.7412
0.73942
0.737339
0.732714
0.728052
0.724766
0.725671
0.728545
0.735661
0.741293
0.74649
0.749766
0.751349
0.753065
0.753895
0.755147
0.756991
0.757951
0.752792
0.744773
0.734549
0.732359
0.732745
0.734643
0.737723
0.733946
0.735314
0.729928
0.727571
0.725614
0.726805
0.731142
0.736272
0.741884
0.745868
0.748365
0.750119
0.751145
0.752407
0.753135
0.754048
0.755074
0.755659
0.755879
0.75617
0.756392
0.757013
0.757485
0.74688
0.740599
0.737461
0.734184
0.732802
0.734447
0.73671
0.739593
0.74133
0.743254
0.743874
0.745074
0.745686
0.746584
0.747236
0.747824
0.748478
0.749042
0.749853
0.750504
0.751396
0.752002
0.753144
0.753941
0.755162
0.75575
0.756472
0.756524
0.756524
0.756684
0.730082
0.742122
0.747114
0.74635
0.744756
0.742141
0.742735
0.742458
0.745143
0.745692
0.744707
0.743191
0.746236
0.749964
0.747396
0.746829
0.746305
0.745369
0.743746
0.742552
0.743295
0.745788
0.747938
0.748941
0.74912
0.748963
0.749205
0.749935
0.750663
0.750874
0.750184
0.747986
0.744919
0.743213
0.743716
0.747451
0.751915
0.754475
0.755704
0.756192
0.756203
0.755121
0.75143
0.747658
0.748111
0.748551
0.748883
0.749152
0.748884
0.747355
0.74488
0.743009
0.742331
0.741715
0.741657
0.7415
0.741637
0.741757
0.741707
0.74167
0.741649
0.742279
0.74361
0.745281
0.746632
0.747564
0.747908
0.748151
0.748709
0.75002
0.751658
0.751769
0.749704
0.747185
0.744837
0.748169
0.749084
0.744353
0.740005
0.739659
0.740783
0.741447
0.741211
0.740918
0.741793
0.743876
0.74558
0.74698
0.747368
0.747582
0.747967
0.748507
0.748809
0.748687
0.748408
0.7481
0.747793
0.747709
0.747328
0.746685
0.746618
0.748445
0.749264
0.747778
0.745034
0.742924
0.744899
0.74727
0.749218
0.750334
0.750828
0.751133
0.751232
0.75113
0.751047
0.751015
0.750937
0.750542
0.750001
0.749529
0.749544
0.750127
0.751212
0.751977
0.752281
0.752234
0.752027
0.751192
0.750072
0.748886
0.748439
0.74833
0.748773
0.748971
0.747077
0.745569
0.74527
0.739767
0.734243
0.732455
0.732609
0.733321
0.734977
0.73673
0.738041
0.737921
0.736284
0.734882
0.73473
0.735603
0.736341
0.736807
0.736627
0.736492
0.735851
0.735318
0.73484
0.734546
0.73489
0.737278
0.743125
0.749885
0.752599
0.753213
0.728888
0.724949
0.722569
0.721547
0.725127
0.733944
0.742704
0.747098
0.74759
0.746193
0.744625
0.743273
0.74172
0.740437
0.738927
0.73804
0.737219
0.736797
0.736199
0.735732
0.734782
0.733935
0.733234
0.733911
0.73711
0.742315
0.750228
0.753972
0.754127
0.754029
0.743325
0.745071
0.749459
0.751019
0.751219
0.750868
0.749783
0.747998
0.745806
0.745022
0.746806
0.749588
0.750403
0.746678
0.741181
0.737072
0.732796
0.728306
0.726762
0.725603
0.727031
0.726982
0.726996
0.727092
0.727237
0.727102
0.726663
0.726761
0.729001
0.733733
0.750011
0.745769
0.742653
0.743886
0.74626
0.74854
0.748837
0.749603
0.747632
0.745069
0.74025
0.735177
0.729488
0.726641
0.726118
0.727352
0.729248
0.73066
0.73137
0.731025
0.730607
0.730064
0.729828
0.729271
0.726609
0.722892
0.717691
0.719874
0.739317
0.755585
0.754194
0.747142
0.73638
0.734275
0.737286
0.735614
0.732596
0.735969
0.743277
0.745927
0.746144
0.744532
0.745165
0.745909
0.746576
0.74676
0.745448
0.743055
0.737607
0.731314
0.725328
0.722489
0.728561
0.738453
0.747271
0.753621
0.755659
0.757473
0.7579
0.757025
0.753546
0.749152
0.742574
0.738224
0.734368
0.73145
0.729924
0.730541
0.734121
0.739141
0.743876
0.745522
0.7448
0.745359
0.745116
0.743357
0.738018
0.729735
0.72337
0.722302
0.723426
0.72829
0.734919
0.740689
0.745002
0.748201
0.74991
0.75194
0.754807
0.757567
0.751745
0.745086
0.734817
0.732463
0.735349
0.741605
0.741469
0.741901
0.743284
0.73832
0.73462
0.728426
0.723839
0.724203
0.726592
0.731723
0.736839
0.741031
0.744386
0.746038
0.747492
0.748847
0.749799
0.751138
0.752331
0.753103
0.754118
0.75473
0.755752
0.756897
0.745793
0.738733
0.73531
0.731396
0.730348
0.73067
0.732671
0.734664
0.736847
0.73829
0.739985
0.740849
0.742358
0.742916
0.744004
0.744329
0.745371
0.745589
0.746448
0.74689
0.747754
0.748306
0.748975
0.749824
0.750626
0.751534
0.752187
0.75269
0.752732
0.752672
0.73342
0.74734
0.750392
0.749774
0.74897
0.748393
0.748908
0.748797
0.749217
0.748765
0.748389
0.746475
0.746437
0.749791
0.746811
0.746216
0.745365
0.742794
0.739671
0.738736
0.741656
0.745746
0.748538
0.749528
0.749721
0.749892
0.750263
0.751025
0.751565
0.751282
0.749847
0.746494
0.743516
0.743138
0.746945
0.751928
0.754409
0.754875
0.75467
0.754583
0.755304
0.755108
0.75218
0.748495
0.748667
0.748915
0.749243
0.749684
0.749523
0.748478
0.74753
0.746934
0.746847
0.746869
0.747156
0.746985
0.746963
0.746691
0.746432
0.746468
0.746718
0.747542
0.748581
0.749078
0.749039
0.748981
0.749169
0.749525
0.750079
0.750904
0.752056
0.752165
0.75028
0.747619
0.745474
0.748473
0.746655
0.740503
0.738967
0.739814
0.740534
0.739305
0.737551
0.73711
0.739215
0.742593
0.745417
0.747072
0.74767
0.747649
0.747751
0.748295
0.748452
0.748464
0.748353
0.74822
0.748191
0.747948
0.747799
0.748034
0.749115
0.749667
0.74878
0.747442
0.744898
0.743014
0.744667
0.745867
0.746563
0.747196
0.748092
0.749015
0.75002
0.750507
0.750659
0.75051
0.750231
0.749999
0.750011
0.750273
0.750884
0.751691
0.752208
0.752101
0.751341
0.750086
0.74745
0.744631
0.74232
0.741512
0.742124
0.744111
0.746776
0.748246
0.746602
0.745685
0.744616
0.738087
0.732979
0.731522
0.731408
0.731862
0.733411
0.735703
0.738112
0.739033
0.737957
0.736722
0.736486
0.736864
0.737078
0.737477
0.737793
0.737928
0.737932
0.737497
0.736815
0.736322
0.736313
0.737316
0.74189
0.748706
0.752671
0.753979
0.727675
0.723471
0.722472
0.725863
0.733212
0.740673
0.746146
0.747066
0.746074
0.744585
0.74301
0.741565
0.739585
0.738209
0.736997
0.736496
0.736006
0.736048
0.736015
0.735863
0.735333
0.734308
0.733511
0.734438
0.738403
0.746918
0.752465
0.753884
0.751373
0.749723
0.744068
0.747852
0.750519
0.751163
0.751355
0.751
0.750167
0.74881
0.74732
0.747069
0.748782
0.750209
0.748097
0.741759
0.735638
0.731434
0.728012
0.726882
0.726879
0.727401
0.727579
0.72699
0.726788
0.727028
0.727235
0.72655
0.72499
0.725422
0.727789
0.733395
0.74909
0.74373
0.743935
0.742352
0.745819
0.746681
0.749508
0.748209
0.745815
0.739504
0.732846
0.727945
0.727109
0.727524
0.729401
0.731554
0.732984
0.732579
0.731855
0.730643
0.729954
0.729396
0.7294
0.730013
0.729868
0.72818
0.723269
0.716667
0.724418
0.752402
0.754197
0.745503
0.733295
0.729333
0.731124
0.731849
0.732374
0.738349
0.744697
0.743905
0.742459
0.740547
0.740531
0.740797
0.741435
0.743381
0.745118
0.744906
0.743684
0.73994
0.735854
0.72616
0.719668
0.72218
0.730494
0.744576
0.751577
0.75578
0.757637
0.757467
0.752469
0.747944
0.73894
0.733373
0.732374
0.731221
0.73049
0.732232
0.737605
0.74361
0.74541
0.745225
0.744101
0.744397
0.74547
0.746215
0.742067
0.737409
0.727827
0.722062
0.720046
0.719726
0.722825
0.728345
0.73475
0.741074
0.744696
0.747525
0.752195
0.756987
0.75163
0.747597
0.739804
0.734919
0.735432
0.739963
0.743209
0.74477
0.744908
0.745497
0.741613
0.735482
0.726266
0.722443
0.722141
0.724371
0.727457
0.732841
0.736094
0.739693
0.741174
0.743089
0.744364
0.74607
0.747165
0.748534
0.750515
0.752087
0.753904
0.755663
0.740809
0.739264
0.732687
0.729716
0.727224
0.727251
0.728567
0.730328
0.731549
0.733464
0.734422
0.736145
0.736744
0.738501
0.738924
0.740515
0.740585
0.742189
0.74198
0.743648
0.743266
0.74483
0.744549
0.74585
0.74614
0.747044
0.747757
0.748636
0.748768
0.748762
0.735036
0.749817
0.751954
0.751063
0.749878
0.749907
0.750158
0.749854
0.748808
0.747664
0.748001
0.74813
0.747522
0.749366
0.750059
0.7489
0.746709
0.745671
0.744741
0.741227
0.737147
0.737237
0.74156
0.746325
0.74902
0.75044
0.750969
0.751326
0.751849
0.752023
0.751858
0.750226
0.746933
0.744075
0.743698
0.747614
0.752065
0.753727
0.753114
0.751426
0.750861
0.752176
0.753669
0.753438
0.751198
0.749624
0.750121
0.749839
0.749313
0.749345
0.749861
0.750479
0.750505
0.750257
0.749982
0.749744
0.749619
0.749601
0.749604
0.749529
0.749485
0.749363
0.749217
0.74937
0.749828
0.749919
0.749029
0.747204
0.745984
0.745428
0.745993
0.746945
0.748676
0.750435
0.751762
0.751853
0.749844
0.747251
0.74602
0.746106
0.747142
0.747185
0.741718
0.738818
0.739034
0.739903
0.738825
0.736288
0.733956
0.734005
0.737219
0.741942
0.745597
0.747228
0.747747
0.747784
0.747694
0.747882
0.748103
0.74845
0.748662
0.748831
0.748978
0.749182
0.749549
0.749861
0.749969
0.749388
0.748348
0.747734
0.747464
0.745198
0.743914
0.742724
0.742972
0.742087
0.741324
0.741143
0.741862
0.743781
0.745819
0.747965
0.749333
0.750228
0.75073
0.750969
0.751078
0.751143
0.751106
0.750761
0.749621
0.747688
0.743791
0.740467
0.737458
0.736658
0.736079
0.736061
0.736673
0.73955
0.743988
0.745501
0.743995
0.745364
0.746227
0.745985
0.744204
0.7371
0.732203
0.730831
0.730708
0.73093
0.732042
0.734541
0.737712
0.739632
0.739001
0.736898
0.73557
0.735385
0.735972
0.737185
0.739094
0.739833
0.739518
0.73895
0.737981
0.737197
0.737294
0.738342
0.742046
0.748086
0.752333
0.753006
0.738078
0.728263
0.726377
0.724464
0.727315
0.733606
0.740034
0.74516
0.746342
0.746038
0.744475
0.742695
0.740527
0.738363
0.736299
0.735293
0.734959
0.73457
0.735007
0.734962
0.735442
0.735489
0.735305
0.734278
0.733308
0.73354
0.738581
0.747076
0.753254
0.753702
0.750211
0.744097
0.742561
0.744332
0.746158
0.749636
0.750808
0.75094
0.751286
0.751298
0.750572
0.749737
0.748991
0.74923
0.749937
0.749134
0.743865
0.735823
0.730742
0.72789
0.727061
0.727228
0.72773
0.727719
0.727296
0.726677
0.726421
0.726885
0.727387
0.72579
0.721964
0.723272
0.725795
0.732154
0.743329
0.748047
0.748544
0.745109
0.734883
0.736761
0.736301
0.740287
0.742488
0.741353
0.735971
0.732925
0.728593
0.727669
0.728547
0.730121
0.732001
0.734052
0.733677
0.732679
0.731807
0.73009
0.72938
0.727327
0.727762
0.727687
0.728216
0.728784
0.727534
0.721889
0.716835
0.73711
0.754335
0.756531
0.754508
0.747179
0.733668
0.727685
0.727786
0.730035
0.732713
0.738728
0.743508
0.743388
0.742763
0.741597
0.740604
0.739965
0.739344