/*--------------------------------*- C++ -*----------------------------------*\
| =========                 |                                                 |
| \\      /  F ield         | OpenFOAM: The Open Source CFD Toolbox           |
|  \\    /   O peration     | Version:  2.1.1                                 |
|   \\  /    A nd           | Web:      www.OpenFOAM.org                      |
|    \\/     M anipulation  |                                                 |
\*---------------------------------------------------------------------------*/
FoamFile
{
    version     2.0;
    format      ascii;
    class       volScalarField;
    location    "0.003400000";
    object      O2;
}
// * * * * * * * * * * * * * * * * * * * * * * * * * * * * * * * * * * * * * //

dimensions      [0 0 0 0 0 0 0];

internalField   nonuniform List<scalar> 
12384
(
0.0459691
0.0484236
0.0537496
0.0520518
0.0661745
0.0625022
0.0780931
0.0793234
0.0800305
0.0739887
0.0580559
0.0257104
0.0110091
0.0117049
0.0708458
0.0716949
0.0704254
0.0667887
0.0618965
0.0569318
0.0535191
0.050072
0.048593
0.0468885
0.0470522
0.0460658
0.0462373
0.045484
0.0448177
0.0453276
0.0464826
0.0492735
0.0503491
0.053676
0.0590434
0.0670916
0.0753182
0.0818084
0.084842
0.0809101
0.0685845
0.0420647
0.0136018
0.00416905
0.0245107
0.0214799
0.0247505
0.0276737
0.0286746
0.0286767
0.02784
0.0260797
0.0226564
0.0189938
0.0138325
0.00964556
0.00619679
0.00493242
0.00386159
0.00313034
0.00274795
0.00263894
0.00269443
0.00283413
0.00334435
0.00374857
0.00392442
0.00389588
0.00813304
0.0243592
0.0504986
0.0654034
0.0630751
0.0364771
0.00236104
0.00206725
0.00203505
0.00174579
0.0013286
0.0013107
0.00179823
0.00292919
0.00724974
0.012132
0.0161759
0.0194659
0.0217672
0.0232541
0.0232438
0.0220239
0.0202222
0.0192595
0.0160266
0.0111951
0.00716396
0.00557867
0.00459908
0.00356466
0.00246951
0.00151074
0.000381875
0.00172018
0.028763
0.0318882
0.00504978
0.00179919
0.00121541
0.000549061
0.000180327
0.000156135
0.000141828
0.000149861
0.000168749
0.000195043
0.000176033
0.00035385
0.000680659
0.000810298
0.00109905
0.00144027
0.00197775
0.00266095
0.00652176
0.0105684
0.0126408
0.0137606
0.0110481
0.00956848
0.0116096
0.0346834
0.0619436
0.0536541
0.0259473
0.0177299
0.0469105
0.0343578
0.0133391
0.0110361
0.00559075
0.00583471
0.0101775
0.0156329
0.0199042
0.0188424
0.0146921
0.0114539
0.0098327
0.0092381
0.00958866
0.00937518
0.0108938
0.0096305
0.0103153
0.00961515
0.013198
0.0128246
0.0257096
0.0510248
0.0743866
0.0792162
0.0741677
0.0621494
0.0493436
0.0396522
0.0468143
0.0408774
0.0243267
0.00229607
7.30326e-05
8.36039e-06
1.02454e-06
4.33304e-07
2.56358e-07
3.39818e-07
1.94331e-06
0.000206447
0.0377001
0.0715828
0.0798017
0.081624
0.0820822
0.0805975
0.0842883
0.0837019
0.0891289
0.089376
0.0938438
0.0946902
0.0938771
0.0901671
0.0881907
0.0827625
0.0755186
0.075008
0.0625341
0.0614667
0.0589308
0.0491973
0.0409689
0.0322321
0.0257891
0.0228923
0.0237053
0.0242722
0.0267615
0.027641
0.0407041
0.0715715
0.0905283
0.0911546
0.091572
0.0914303
0.0919095
0.0922487
0.0919708
0.0917514
0.0906281
0.0887303
0.0863248
0.0832736
0.0799264
0.0765396
0.0728249
0.0710049
0.0768183
0.0827877
0.08611
0.0901594
0.0915905
0.0916472
0.0910084
0.0886556
0.0859772
0.0811689
0.0772972
0.0705235
0.0666392
0.0602224
0.0554634
0.0539588
0.054893
0.0501387
0.0467482
0.0490832
0.0502359
0.0576616
0.0599717
0.0637416
0.0604298
0.0568681
0.0527684
0.0341845
0.0232864
0.0196147
0.0592372
0.0680211
0.0758101
0.0747536
0.0666784
0.0574964
0.0494685
0.0498318
0.0506909
0.0320546
0.0546145
0.0370541
0.0321033
0.0270831
0.0230149
0.0232644
0.0246569
0.0277758
0.0316216
0.0371596
0.0412206
0.0451124
0.0420803
0.0421512
0.0346158
0.0186622
0.0191508
0.00853548
0.00944761
0.00660039
0.0953638
0.0926135
0.0926636
0.0943319
0.0948474
0.0948928
0.0938853
0.0921161
0.0922459
0.0912033
0.0895417
0.0877854
0.0859256
0.0839794
0.0821901
0.0796493
0.0771184
0.072878
0.0684396
0.0626548
0.0561785
0.0518884
0.0474015
0.0421823
0.0394392
0.0345685
0.030287
0.0282221
0.026921
0.0245083
0.0904303
0.0941539
0.0945111
0.0971691
0.0971874
0.097412
0.0966446
0.097294
0.0944704
0.0952016
0.0928365
0.09097
0.0889499
0.0877508
0.0843724
0.0834274
0.0795613
0.0759766
0.0650066
0.0597802
0.0540944
0.0503989
0.0428477
0.0425055
0.0437783
0.0406357
0.0386006
0.042503
0.043974
0.0448411
0.0926613
0.0947871
0.0926701
0.0940789
0.0939394
0.0939782
0.0923505
0.0924007
0.0892665
0.089012
0.0850735
0.0848922
0.0810887
0.0793602
0.0740956
0.155224
0.212561
0.224103
0.226555
0.22626
0.226199
0.226201
0.226201
0.226201
0.2262
0.2262
0.226199
0.226199
0.226198
0.22618
0.042898
0.0193869
0.0155704
0.00477309
0.00741459
0.00595526
0.0169158
0.0231851
0.0501111
0.0675684
0.0735423
0.05245
0.0218885
0.0138061
0.0772378
0.0746757
0.0643638
0.0523523
0.0440619
0.0383685
0.0348961
0.0340351
0.0339571
0.034982
0.0364381
0.0382752
0.0406181
0.0416888
0.0414335
0.0389803
0.0368899
0.0360768
0.0365987
0.0375136
0.0424823
0.0534216
0.0659627
0.0774809
0.0842477
0.0817678
0.0680787
0.0408829
0.01178
0.00421727
0.0249793
0.025604
0.033122
0.0376501
0.0367958
0.0342688
0.0318295
0.0311753
0.0317178
0.0301626
0.0248895
0.0175235
0.0102401
0.00583153
0.00330566
0.00191786
0.00149285
0.00124472
0.00116541
0.00114606
0.00140022
0.00263324
0.0045865
0.00650451
0.0100155
0.0275321
0.0533164
0.0634524
0.0582592
0.0321995
0.00237526
0.00201311
0.00175763
0.00132688
0.00182163
0.00925887
0.0257409
0.0367538
0.0419704
0.0440327
0.0442047
0.0444885
0.0442808
0.0448663
0.0452308
0.0449396
0.0426723
0.0398139
0.0323461
0.023308
0.0142583
0.00897181
0.00706023
0.00628195
0.00506604
0.0026587
0.0012732
0.00122128
0.0166956
0.0325673
0.00559673
0.00171948
0.000746602
0.00016052
0.000122028
0.000165559
0.000586031
0.00187226
0.00489934
0.00847196
0.012248
0.0139114
0.013219
0.0124211
0.00982483
0.00786552
0.00782627
0.0093257
0.0145244
0.0192534
0.0254112
0.0237774
0.0204438
0.0139997
0.0165773
0.0371947
0.0609543
0.0562676
0.0297388
0.0165565
0.0465202
0.0192727
0.0110394
0.00958655
0.0125038
0.00914715
0.00355015
0.000275972
0.000127264
-2.95474e-06
5.84151e-05
0.000115282
0.000150155
0.000187941
0.00036947
0.00118407
0.00182821
0.00234902
0.00372222
0.00447873
0.00348982
0.004163
0.0077894
0.0273117
0.0551588
0.0724162
0.0751612
0.0636287
0.0468799
0.0387968
0.0171418
0.00313055
6.57415e-05
7.73033e-06
8.29106e-07
2.53059e-07
1.06819e-07
9.72775e-08
2.49404e-07
2.54435e-06
0.000122562
0.0277379
0.0560783
0.0656633
0.0675951
0.0634021
0.061061
0.0570483
0.0560232
0.0543566
0.0547736
0.0571311
0.063589
0.0741102
0.0843543
0.0897149
0.087061
0.0811819
0.0733709
0.0760359
0.0674543
0.0586398
0.0360113
0.0105643
0.00219259
0.000843968
0.000193108
0.000196629
0.000597057
0.00233027
0.0122372
0.0248584
0.0471364
0.0801478
0.0880162
0.0865318
0.0855335
0.0881748
0.0899603
0.0934869
0.0957767
0.0969533
0.0972676
0.0961496
0.0945545
0.0920225
0.0898042
0.0869239
0.082239
0.07661
0.0755919
0.0838895
0.087833
0.0905756
0.0925179
0.0924442
0.092558
0.0917506
0.0891722
0.0859523
0.0814522
0.0780157
0.0747839
0.0740223
0.0741579
0.0772003
0.0807867
0.0848555
0.086269
0.0962261
0.0919537
0.0980174
0.100611
0.106055
0.106278
0.107361
0.105624
0.0802698
0.0611373
0.0450356
0.0658426
0.0809895
0.0921415
0.0952391
0.0915118
0.0875994
0.0909492
0.0964669
0.100154
0.10126
0.101429
0.100087
0.096365
0.091037
0.0877781
0.0835638
0.0810499
0.0809377
0.0839153
0.0883466
0.0939022
0.100941
0.10526
0.109328
0.100902
0.0890784
0.0631424
0.0426316
0.0204628
0.0130773
0.09801
0.094276
0.0960864
0.0973061
0.0985218
0.0999383
0.0992821
0.0992068
0.0975777
0.0962257
0.0963602
0.0966254
0.0975065
0.0982433
0.098541
0.0976865
0.0956879
0.0933844
0.0962472
0.0916047
0.0874963
0.0811995
0.0810989
0.0858194
0.0895269
0.0955593
0.0857927
0.0806226
0.0739974
0.0599675
0.103322
0.102279
0.1016
0.101899
0.100829
0.0982845
0.0990871
0.0981692
0.101669
0.0990961
0.101402
0.10342
0.104693
0.102996
0.104652
0.102535
0.102831
0.0992048
0.0948722
0.0852829
0.0783729
0.0689285
0.0734014
0.0741182
0.0775764
0.0751637
0.0748985
0.0670699
0.0668165
0.0633049
0.121936
0.104845
0.11014
0.10891
0.109794
0.112879
0.113748
0.117733
0.118428
0.123697
0.125489
0.132211
0.135419
0.140808
0.140995
0.139673
0.134217
0.1919
0.208231
0.218165
0.226359
0.226911
0.226842
0.226833
0.226834
0.226826
0.226824
0.226818
0.226796
0.22646
0.00198274
0.000463277
0.000195981
0.000111481
8.95255e-05
0.000126496
0.000222782
0.000503485
0.00175043
0.0135257
0.049241
0.0674956
0.0462537
0.0279401
0.0801044
0.0647365
0.0466133
0.0342561
0.0291177
0.0272431
0.0271191
0.0278473
0.0286867
0.0301571
0.0317685
0.0338031
0.0378521
0.0421842
0.0438492
0.0417934
0.0357926
0.02829
0.0227099
0.0202617
0.0240358
0.0367374
0.0554778
0.073727
0.084601
0.0821206
0.0655521
0.0370883
0.0117088
0.0047349
0.0261024
0.0304349
0.0391215
0.0410958
0.0387364
0.0332674
0.0253423
0.0199821
0.0212032
0.0262547
0.0297487
0.0281524
0.022146
0.0137086
0.00659388
0.00289204
0.0014571
0.00073381
0.000554311
0.000415601
0.000518361
0.000882335
0.00278587
0.00759114
0.0150904
0.0329629
0.0562557
0.0600829
0.0486145
0.0258457
0.00238712
0.00185602
0.00146435
0.00235576
0.0222696
0.042115
0.0471971
0.0428406
0.0347358
0.0282208
0.02427
0.0238968
0.0254529
0.0286063
0.0324447
0.0378137
0.0403194
0.0423747
0.0410607
0.0341439
0.0257468
0.0169489
0.0121593
0.0100513
0.00882853
0.00687505
0.00221186
0.00138413
0.0122833
0.0324829
0.00653323
0.00146755
0.000180546
0.000129487
0.000126161
0.00250722
0.0134424
0.0257679
0.0359222
0.0426625
0.0451675
0.0436906
0.0399387
0.0338373
0.0275183
0.022482
0.0207509
0.0230904
0.0266405
0.0339641
0.0392033
0.0399446
0.0320263
0.0250251
0.027124
0.0502115
0.0635692
0.0519635
0.0272238
0.016934
0.0405045
0.0129778
0.00932403
0.0143655
0.00718523
0.000812794
4.09995e-05
2.79557e-05
2.86033e-05
3.68587e-05
5.38541e-05
6.49288e-05
6.8415e-05
7.41116e-05
7.60773e-05
8.49995e-05
0.00016888
0.00038301
0.00201274
0.00608313
0.00708748
0.00338798
0.00212478
0.00361552
0.0256489
0.0569786
0.0725286
0.0649997
0.0481397
0.0411948
2.23607e-05
2.66123e-06
6.7363e-07
1.29797e-07
3.71e-08
2.32778e-08
2.61532e-08
1.06764e-07
1.90712e-06
0.000511175
0.0298139
0.0514149
0.051674
0.0451376
0.033926
0.0234491
0.0150373
0.00718265
0.00247232
0.0014359
0.000453033
0.000199071
0.00115692
0.00870123
0.0407535
0.0749633
0.0865958
0.0826063
0.0754064
0.0852726
0.0696505
0.0392526
0.00388905
0.000185787
9.5153e-05
9.46513e-05
8.19014e-05
7.07872e-05
6.7008e-05
0.000156614
0.00234299
0.0215108
0.0545789
0.0810275
0.0807322
0.0744086
0.0728486
0.0782502
0.0863957
0.0882793
0.0929634
0.0948203
0.0919926
0.0895382
0.0874573
0.0902972
0.093685
0.0976975
0.0987026
0.0953602
0.0732915
0.0772705
0.0754342
0.0839616
0.0856303
0.0917095
0.0933154
0.0951294
0.0936499
0.0895057
0.0845121
0.0797294
0.0737972
0.074214
0.0724312
0.0724385
0.0674632
0.0675513
0.0742808
0.0608889
0.0708557
0.0509074
0.0778416
0.0742356
0.0951224
0.11705
0.123855
0.120912
0.10472
0.0727293
0.0771743
0.0881049
0.0933782
0.0971285
0.100047
0.102768
0.108178
0.111311
0.104055
0.0943342
0.0698581
0.0743269
0.0759159
0.0809421
0.0889513
0.101011
0.110895
0.117373
0.120286
0.122899
0.123294
0.125443
0.126621
0.129672
0.129843
0.127826
0.111731
0.0858304
0.0562856
0.0344731
0.105045
0.10084
0.0998107
0.0977978
0.0914421
0.0867272
0.0834997
0.0793533
0.0727761
0.0677492
0.0668324
0.0676703
0.0692281
0.0716573
0.0751412
0.0843022
0.0974583
0.107331
0.112729
0.115228
0.11781
0.116163
0.117409
0.118871
0.121767
0.123626
0.124743
0.118905
0.113464
0.108282
0.103921
0.0944044
0.0795376
0.0696054
0.0576936
0.0437651
0.0473635
0.0452701
0.0505362
0.0589098
0.0727594
0.0827688
0.0891348
0.0979724
0.101535
0.105381
0.10877
0.110166
0.112559
0.111296
0.108093
0.104848
0.104841
0.107071
0.111254
0.114195
0.113872
0.111961
0.103696
0.10596
0.0859384
0.049201
0.0469247
0.0435676
0.0493235
0.0596683
0.0716104
0.0806951
0.0885716
0.0963183
0.104757
0.113134
0.121292
0.128206
0.135035
0.140249
0.147029
0.154108
0.185614
0.196841
0.207339
0.223253
0.230562
0.230709
0.230719
0.23072
0.230724
0.230727
0.230745
0.231048
3.01787e-05
2.37815e-05
1.59935e-05
2.10264e-05
1.98766e-05
2.50737e-05
3.53457e-05
7.44246e-05
0.000161368
0.000659725
0.00614162
0.050039
0.0627951
0.0405705
0.0643095
0.0437292
0.027753
0.0233962
0.0239048
0.026005
0.0286523
0.0305105
0.0309948
0.0314858
0.0309536
0.0315182
0.0343798
0.040923
0.046156
0.0469836
0.0400496
0.0263082
0.0156194
0.0108798
0.0119825
0.0227852
0.0458764
0.0707975
0.0848878
0.0850502
0.0702783
0.0402997
0.0121681
0.00723284
0.0278246
0.0340943
0.0421151
0.0427124
0.0390572
0.0320367
0.0190728
0.00886669
0.00707907
0.0101424
0.0180137
0.0241766
0.0242914
0.0197382
0.0113423
0.00472589
0.00146874
0.00055535
0.000296651
0.000234888
0.000252812
0.000408815
0.00147468
0.00816865
0.0189275
0.0388232
0.0571558
0.0559558
0.0385891
0.0203207
0.00234602
0.00160283
0.00212731
0.0280088
0.0471871
0.0442594
0.0198837
0.005405
0.00239035
0.00294886
0.00510033
0.00873813
0.0132915
0.0179546
0.0237548
0.0306798
0.036089
0.0403077
0.0419281
0.0392364
0.0334722
0.0256088
0.0187389
0.014634
0.0138239
0.0112543
0.00413461
0.00165501
0.0128493
0.0325882
0.00705657
0.00101623
0.00015123
0.000240154
0.00555985
0.0241005
0.0405677
0.0522682
0.0589155
0.0612993
0.063354
0.0643089
0.0614172
0.0540611
0.0443734
0.0357181
0.0316436
0.032137
0.0368303
0.0438036
0.0512309
0.0497693
0.0446502
0.0382177
0.0471023
0.0596646
0.0590363
0.0443439
0.0279808
0.0205557
0.039975
0.00706732
0.0111845
0.00908952
0.000474918
4.13994e-05
2.1052e-05
1.45081e-05
2.20367e-05
3.0334e-05
3.89623e-05
4.43257e-05
3.36538e-05
2.93903e-05
2.53593e-05
2.56385e-05
1.63913e-05
3.47318e-05
4.08123e-05
0.000596688
0.00263107
0.00242765
0.000623321
0.000184639
0.00219222
0.0358855
0.0655114
0.0667558
0.0528726
0.0500404
8.25293e-07
2.94628e-07
8.9414e-08
3.04196e-08
1.20018e-08
1.05303e-08
3.33204e-08
8.5533e-07
0.000152686
0.0303313
0.0478756
0.0408498
0.0251491
0.00923847
0.00203171
0.000208488
0.000122217
2.71096e-05
1.42115e-05
5.4707e-06
3.93632e-06
2.6242e-06
3.6284e-06
7.51476e-06
0.000104369
0.0286481
0.0729339
0.0854631
0.082513
0.09101
0.0608844
0.0111492
0.000173117
0.000152597
0.000204446
0.00148508
0.00168076
0.000258904
0.000101219
8.89398e-05
0.00133249
0.0222355
0.0566395
0.0761647
0.0658361
0.0524765
0.0516178
0.0601748
0.0645248
0.0602415
0.0473225
0.0205408
0.00348612
0.000825731
0.000390315
0.00142519
0.0123319
0.0451886
0.0818078
0.104225
0.0748514
0.077339
0.0880282
0.0875936
0.0961379
0.0955926
0.100385
0.0993913
0.101535
0.0953286
0.0982126
0.0879478
0.0845306
0.0720053
0.0574233
0.0240596
0.00318985
0.000163855
1.2001e-05
1.50004e-06
2.7813e-06
6.46116e-07
1.89458e-06
1.71492e-06
2.36503e-05
0.0379189
0.0825099
0.122148
0.123841
0.104792
0.0856226
0.0876633
0.0741814
0.0731051
0.0884251
0.0957493
0.0890196
0.0668088
0.0278745
0.000424454
7.60007e-06
6.24323e-06
5.64216e-06
1.73671e-05
2.53545e-05
0.000475748
0.00902885
0.0370221
0.0681002
0.0935056
0.113593
0.123027
0.130637
0.132788
0.136339
0.137975
0.135105
0.117965
0.0916696
0.0709744
0.103244
0.099002
0.0943872
0.0828136
0.0639876
0.0392903
0.0216086
0.00413833
0.00118925
0.000122135
1.45042e-05
2.00685e-05
5.85219e-06
7.16028e-06
5.92248e-06
6.28193e-05
0.00639481
0.0454533
0.0727742
0.0909964
0.100722
0.109418
0.116021
0.122007
0.126258
0.130424
0.131436
0.132306
0.130672
0.128033
0.100139
0.0713252
0.0223404
0.000580749
3.15513e-05
1.63811e-05
4.85586e-06
1.66264e-05
9.04547e-06
2.20215e-05
0.00046174
0.00666187
0.0334791
0.0538364
0.0753625
0.0856144
0.0958178
0.103843
0.108029
0.113195
0.117879
0.121367
0.122554
0.12371
0.125623
0.129481
0.127383
0.126253
0.125283
0.125895
0.0453079
0.00105879
0.000115282
2.33985e-05
0.000104668
0.00175154
0.00511226
0.0214816
0.0320126
0.0432985
0.0545882
0.0659029
0.0788178
0.0856847
0.0964762
0.104653
0.112418
0.121439
0.129285
0.137148
0.144053
0.149923
0.207342
0.226197
0.230898
0.230907
0.230907
0.230907
0.230912
0.230967
5.91614e-06
1.2658e-05
3.39945e-05
4.85714e-05
6.36412e-05
4.63418e-05
4.83034e-05
6.8461e-05
0.000123613
0.000277451
0.000848407
0.0116907
0.055305
0.0507235
0.0421669
0.0268705
0.0205653
0.0213537
0.0247966
0.0268793
0.028061
0.0333424
0.0353266
0.0360183
0.0348464
0.0330109
0.0340722
0.040179
0.0486353
0.0509214
0.0439361
0.0275616
0.0121707
0.0071336
0.00726867
0.0141104
0.0404192
0.0701754
0.0893617
0.0944499
0.0854367
0.0579129
0.0213281
0.0105036
0.0281553
0.0352128
0.0417935
0.0415073
0.0378286
0.0270688
0.00945813
0.00294354
0.00233556
0.00314922
0.00573993
0.0116347
0.0143348
0.0109006
0.00512155
0.00157489
0.000588431
0.00027693
0.0002201
0.000214616
0.000248519
0.000462304
0.00192345
0.0114064
0.0233412
0.0410177
0.0582612
0.0559316
0.034956
0.0175579
0.00223793
0.00193689
0.0218283
0.0467888
0.0382079
0.00290207
0.000196579
0.000192681
0.000574813
0.00160494
0.00259965
0.00706159
0.01138
0.0170719
0.0210655
0.0287201
0.0332995
0.0388072
0.0413261
0.0400854
0.0366879
0.0300528
0.0237006
0.0200898
0.017995
0.0156865
0.00523745
0.00240083
0.0248919
0.0336896
0.00768907
0.000715676
-1.82738e-05
0.00383328
0.0259126
0.0461693
0.058788
0.0658769
0.0664578
0.0676831
0.0696711
0.0715753
0.0710745
0.0657194
0.0557071
0.0454245
0.0397984
0.039471
0.0431183
0.0519812
0.0587514
0.0588896
0.0548947
0.0576859
0.0624208
0.0610823
0.0525627
0.0421884
0.0351402
0.0291319
0.0326513
0.00851453
0.012788
0.00133834
3.91703e-05
1.29552e-05
1.02721e-05
5.78566e-06
1.93708e-05
2.99132e-05
4.00181e-05
2.81376e-05
2.66508e-05
1.95906e-05
1.33247e-05
1.01999e-05
1.14587e-05
9.76033e-06
1.6689e-05
3.80178e-05
0.00012443
0.000181028
7.91338e-05
2.85592e-05
8.67863e-05
0.00667971
0.0465211
0.0676424
0.060804
0.0621147
3.1429e-07
1.62834e-07
7.53606e-08
2.34694e-08
1.03621e-08
1.78671e-08
2.46305e-07
3.2223e-05
0.0176173
0.0409715
0.0350374
0.0163494
0.00259428
0.000698493
0.000106846
3.12978e-05
9.53625e-06
6.81128e-06
2.73724e-06
2.15629e-06
1.21015e-06
1.06359e-06
7.6013e-07
1.13898e-06
3.36125e-06
0.000280084
0.0467569
0.0836355
0.0900757
0.0967661
0.0390174
0.00149512
0.000306794
0.00571579
0.0245153
0.0285154
0.0221098
0.0049347
0.000200476
0.000135264
0.00166802
0.0242509
0.0590004
0.0667212
0.0414066
0.02102
0.0198042
0.0176215
0.00271141
3.89726e-05
3.62469e-06
9.57977e-07
5.28758e-07
3.45232e-07
3.09363e-07
4.31746e-07
8.19796e-07
4.99851e-06
0.000810168
0.0679084
0.0656995
0.0547371
0.0399276
0.0550048
0.0593746
0.0764726
0.0769559
0.0861192
0.0786232
0.0769883
0.0522897
0.0344445
0.00559628
0.000266106
7.6792e-06
1.64251e-06
2.30051e-07
1.00909e-07
3.32754e-08
2.71328e-08
1.92147e-08
1.7849e-08
1.49059e-08
1.63967e-08
1.40837e-08
2.34428e-07
1.65493e-05
0.0530693
0.119828
0.115561
0.0939968
0.0772557
0.0329846
0.0291193
0.0569298
0.0498208
0.00571607
4.51905e-05
1.54398e-05
1.64265e-05
3.58964e-06
1.03139e-05
3.71655e-06
2.03969e-06
8.61361e-07
5.29159e-07
3.73862e-07
5.72088e-07
2.27114e-06
2.84661e-05
0.00866213
0.0626605
0.0969137
0.116317
0.12851
0.135506
0.136917
0.132966
0.11443
0.097742
0.100422
0.0891093
0.075034
0.0455842
0.00474374
3.51643e-05
5.1099e-06
1.40987e-06
6.84956e-07
4.44316e-07
3.06966e-07
2.68896e-07
4.04932e-07
2.55445e-07
2.15118e-07
1.03529e-07
3.41265e-07
1.31707e-06
2.5035e-05
0.00256818
0.0403754
0.065389
0.085369
0.0992884
0.108073
0.116418
0.119818
0.1271
0.132045
0.134621
0.0921126
0.0296926
3.00903e-05
2.28897e-06
1.0272e-06
6.34236e-07
8.29213e-07
4.31036e-07
4.37717e-07
2.74401e-07
4.67773e-07
9.18429e-07
6.83637e-06
0.000138267
0.0136972
0.0445052
0.064479
0.0796578
0.0860211
0.0966108
0.103324
0.11109
0.119609
0.122429
0.124757
0.126483
0.126754
0.126645
0.130722
0.132314
0.0270901
0.000127749
3.05189e-05
8.0835e-06
1.31528e-05
9.73772e-06
0.000246762
0.00126336
0.00813329
0.0114349
0.0224899
0.0288737
0.0391149
0.0479284
0.0562568
0.0650766
0.0725376
0.0804601
0.0908523
0.0988324
0.107159
0.116153
0.125389
0.133609
0.213969
0.230381
0.230403
0.230403
0.230404
0.23041
1.48501e-05
0.000123255
0.00117599
0.00108394
0.000881678
0.00026489
0.000268926
0.000251645
0.000562445
0.000850659
0.00117359
0.00354802
0.0300427
0.0538501
0.0306592
0.021536
0.0182819
0.018468
0.0165925
0.0141139
0.0155148
0.0214791
0.0321755
0.0377898
0.0377756
0.0360745
0.0360596
0.0436563
0.0512962
0.0549298
0.0480635
0.0291248
0.0105709
0.00548993
0.00571049
0.0126612
0.0454783
0.0798673
0.100021
0.110152
0.107689
0.086534
0.0432445
0.016199
0.0293927
0.0346922
0.0388881
0.0406413
0.0364349
0.0218884
0.00368435
0.000818244
0.000767732
0.00085102
0.00185341
0.00250124
0.00218649
0.00110789
0.000663993
0.000421057
0.000306707
0.000206212
0.000212332
0.000373355
0.000759574
0.00277287
0.00866566
0.0173038
0.0252593
0.0427355
0.0616809
0.0615117
0.0383755
0.0174758
0.00219797
0.0102754
0.0428781
0.0365473
0.00132488
6.15089e-05
6.92671e-05
0.000150634
0.000276681
0.00110848
0.00171623
0.00462557
0.0101141
0.0175027
0.0207116
0.0261517
0.0306964
0.0368267
0.0386575
0.0391636
0.0353551
0.030888
0.0263255
0.0223513
0.0218947
0.0151886
0.0057179
0.00845285
0.0376486
0.0316574
0.00638038
0.00032514
0.00133488
0.0165405
0.040969
0.0584108
0.0657674
0.0683803
0.0669745
0.0659338
0.0670667
0.0702153
0.070389
0.0663724
0.0577132
0.0481591
0.0427485
0.0432959
0.0504839
0.0610196
0.0669289
0.0677496
0.0687563
0.0695271
0.0666188
0.0598981
0.0512425
0.0451444
0.0410084
0.0359747
0.0271966
0.00602397
0.00760994
0.000124159
1.4549e-05
8.53862e-06
7.19709e-06
1.08594e-05
1.137e-05
2.91321e-05
4.16205e-05
4.10275e-05
2.67227e-05
1.76875e-05
1.14545e-05
7.62098e-06
6.03471e-06
4.55525e-06
5.392e-06
5.5126e-06
9.76685e-06
1.23126e-05
1.19309e-05
6.75639e-06
1.26796e-05
4.42752e-05
0.0127818
0.0621218
0.071105
0.0743435
2.84522e-07
1.4579e-07
5.44426e-08
1.88855e-08
1.27335e-08
8.78367e-08
6.90313e-06
0.00461383
0.0305705
0.0291415
0.0130345
0.00234619
0.000519564
0.000113181
3.28911e-05
1.39972e-05
8.39255e-06
4.78421e-06
2.83975e-06
2.17207e-06
1.67514e-06
8.87859e-07
8.68427e-07
9.74616e-07
2.11651e-06
2.43879e-05
0.0288519
0.0822175
0.0981564
0.102651
0.00362458
0.000910184
0.0176697
0.0484952
0.0565113
0.0538343
0.0399395
0.018631
0.00191669
0.00076915
0.00455945
0.0333173
0.0605937
0.0478859
0.0085826
0.000394321
4.53632e-05
7.70904e-06
8.91428e-07
2.33419e-07
1.29015e-07
1.07242e-07
1.02337e-07
9.89066e-08
9.98091e-08
9.44253e-08
1.18144e-07
2.28913e-07
9.54401e-07
3.52728e-05
0.064897
0.0507604
0.0619461
0.0625301
0.087969
0.088133
0.105347
0.0965186
0.0994686
0.0771572
0.0527698
0.00536461
2.33591e-05
5.91025e-07
1.01376e-07
5.38147e-08
4.2207e-08
5.59196e-08
8.07809e-08
8.3874e-08
9.04187e-08
4.49786e-08
6.7964e-08
1.2762e-08
6.25157e-09
1.06863e-08
2.20762e-08
4.08252e-06
0.0605603
0.120881
0.0964966
0.0503309
0.000738516
0.000448141
0.00589519
0.00043711
1.9057e-05
1.24634e-05
0.000105153
0.000910255
0.00912803
0.00913787
0.00717472
0.00798262
0.000868005
1.50426e-05
4.88024e-06
5.71524e-07
1.44728e-07
9.57527e-08
2.59644e-07
3.78663e-06
0.00586876
0.0618096
0.100473
0.123917
0.131285
0.137518
0.130669
0.115447
0.092643
0.067755
0.0338157
0.00132268
1.20385e-05
1.27638e-06
4.42299e-07
4.26699e-07
3.85824e-07
9.58681e-07
5.56757e-06
3.18451e-05
7.61727e-05
2.69251e-05
7.547e-06
8.77325e-07
1.8148e-07
5.73972e-08
1.17267e-07
3.19332e-07
-2.68092e-07
0.000103032
0.0148418
0.0473771
0.0640372
0.0825851
0.0917522
0.105378
0.125271
0.135578
0.0803827
0.00260956
2.28773e-06
9.38281e-07
1.04735e-06
2.55048e-06
1.05021e-05
2.15869e-06
3.13407e-06
3.47173e-07
1.47633e-07
7.91196e-08
9.72582e-08
5.28813e-07
3.89745e-06
0.000132333
0.00900085
0.0329341
0.0514386
0.0623718
0.0756663
0.0831192
0.0928331
0.104162
0.110843
0.113395
0.116549
0.118945
0.125567
0.130616
0.0183308
3.75906e-05
1.29723e-05
3.10489e-06
1.48255e-06
3.00293e-06
5.93878e-06
3.36009e-05
0.000138654
0.00105619
0.00171016
0.00442217
0.00784445
0.0152898
0.0214513
0.0272938
0.0341402
0.0401083
0.0487875
0.055784
0.0653922
0.0718673
0.084057
0.0926745
0.105714
0.199451
0.229736
0.229753
0.229753
0.229802
5.9782e-05
0.00290064
0.0232962
0.0181819
0.00990057
0.00353263
0.00461546
0.00444354
0.012035
0.014018
0.00922309
0.00582759
0.0174225
0.0498331
0.0230489
0.0175682
0.0133891
0.00777327
0.00368899
0.00166877
0.0029946
0.0106698
0.0285608
0.0389332
0.0409237
0.0392523
0.0418261
0.0496383
0.0574164
0.0595821
0.0520653
0.0291554
0.00733133
0.00383235
0.00540299
0.0249121
0.070443
0.0984649
0.111626
0.116883
0.117004
0.105417
0.0657466
0.0256104
0.0303036
0.0348779
0.0384177
0.0412857
0.0384268
0.0227139
0.00482538
0.0014267
0.000823325
0.000657278
0.000705819
0.000642189
0.00070181
0.000779472
0.000851248
0.000837617
0.000778734
0.00100795
0.00270617
0.00727674
0.0163352
0.0248501
0.028213
0.0307146
0.0365532
0.0505565
0.0681823
0.0693728
0.0471572
0.0209589
0.00296326
0.0309064
0.0405486
0.00213901
3.548e-05
3.11329e-05
7.20466e-05
0.000122708
0.000103263
7.75918e-05
0.000144772
0.00155415
0.00716065
0.0189312
0.0227576
0.0248804
0.0287873
0.034435
0.0376063
0.0363197
0.0334004
0.0301815
0.0269686
0.0261063
0.0223525
0.0160615
0.0154815
0.0337993
0.0424905
0.0268184
0.00388011
0.000242256
0.00311097
0.0217751
0.0419894
0.05394
0.0592586
0.0625346
0.0635995
0.0624959
0.0616103
0.0612596
0.0604264
0.0561766
0.0503592
0.0452965
0.0454597
0.0517093
0.0633857
0.0716134
0.0748918
0.0743846
0.0721578
0.0631655
0.0511189
0.0384337
0.0337251
0.0325881
0.0372268
0.0393402
0.0196801
0.00656203
0.00493018
8.72152e-05
1.01571e-05
4.91302e-06
5.95243e-06
6.07343e-06
1.40529e-05
2.46295e-05
5.02652e-05
5.88292e-05
3.32451e-05
2.14193e-05
9.70871e-06
2.93989e-06
4.69672e-06
5.87944e-06
5.8496e-06
5.38738e-06
3.79862e-06
3.97231e-06
6.19066e-06
7.05067e-06
8.50907e-06
1.62393e-05
0.000578415
0.0491285
0.0783158
0.0849248
2.51573e-07
6.15615e-08
2.68769e-08
1.98503e-08
6.5087e-08
1.7601e-06
0.00015379
0.0200888
0.0249366
0.0118292
0.00237084
0.000814432
0.000137106
3.6125e-05
2.00666e-05
1.00689e-05
7.37981e-06
6.24332e-06
4.13578e-06
2.79771e-06
2.16297e-06
1.45269e-06
7.99308e-07
1.35033e-06
5.24539e-06
0.000138238
0.0528456
0.0931576
0.0948135
0.0937667
0.000845673
0.00417754
0.0445609
0.0613138
0.0634669
0.0596862
0.0480165
0.0291083
0.00847838
0.00395104
0.0172027
0.0459447
0.0546931
0.0159841
6.1983e-05
5.55505e-06
8.1471e-07
1.6469e-07
9.93725e-08
7.28625e-08
1.13067e-07
1.11604e-07
1.10703e-07
1.09285e-07
1.15258e-07
1.06546e-07
9.58974e-08
9.81551e-08
2.36966e-07
1.50724e-06
0.0504829
0.00818098
0.000202972
0.00146811
0.0123862
0.0347935
0.0379373
0.0461104
0.0253322
0.00405423
3.2639e-05
2.55044e-06
2.71173e-07
9.74916e-08
8.55121e-08
1.29445e-07
2.60302e-07
4.66051e-07
5.74838e-07
4.29671e-07
3.85783e-07
1.97883e-07
1.893e-07
1.65964e-07
5.66508e-08
6.85427e-08
1.80923e-08
4.61713e-08
8.04427e-05
0.109593
0.0951751
0.0210299
3.07333e-05
1.49698e-05
3.09867e-05
1.1819e-05
3.57508e-06
4.60508e-06
0.00159056
0.0117973
0.0134883
0.00418146
0.00627795
0.010605
0.0156539
0.0169129
0.00640264
0.000428273
7.60152e-06
5.47658e-07
9.4504e-08
2.50901e-08
2.01336e-07
1.33225e-05
0.021785
0.0893558
0.111138
0.130528
0.13508
0.125748
0.0885275
0.0412798
0.00019916
8.34147e-06
1.90375e-06
5.33241e-07
3.0107e-07
3.97607e-07
2.03911e-06
2.46411e-05
0.00158272
0.0068854
0.00279116
0.00591894
0.00448442
0.000814495
9.41773e-06
5.3232e-07
7.17372e-08
6.26368e-08
1.01415e-07
5.5611e-07
4.53872e-06
0.000138612
0.00566852
0.0312437
0.0487119
0.0705758
0.101799
0.13147
0.0691305
0.00433209
2.65961e-06
9.87307e-07
3.28791e-06
0.000109412
0.000145427
0.000182091
0.0010544
1.62894e-05
2.37236e-06
2.14348e-07
3.42126e-08
3.85285e-08
9.87563e-08
5.33309e-07
5.44306e-06
3.71711e-05
0.0020686
0.0111678
0.0240973
0.0376769
0.0472614
0.0611098
0.0743251
0.0831251
0.0945509
0.101137
0.112073
0.124331
0.00910666
2.22149e-05
5.40879e-06
8.16222e-07
1.73825e-07
6.49949e-07
1.386e-06
2.85551e-06
8.39009e-06
1.74809e-05
3.86966e-05
8.63729e-05
0.000208282
0.000491123
0.00176917
0.00204739
0.00595689
0.00711378
0.0140405
0.0180227
0.0265542
0.0323465
0.039417
0.048364
0.0569972
0.0665105
0.192809
0.228548
0.228602
0.228583
0.000134067
0.0247291
0.0533956
0.0470795
0.0391878
0.0338502
0.038698
0.0375917
0.0415329
0.0369578
0.0331786
0.016952
0.0180588
0.0479099
0.0172791
0.0124235
0.00770332
0.00195415
0.000722691
0.00056135
0.00142643
0.0110267
0.0346569
0.0450427
0.0472468
0.0491253
0.0531286
0.0612789
0.0670694
0.063971
0.0483815
0.0160723
0.00413379
0.00388937
0.0205495
0.0706313
0.0977718
0.102807
0.100635
0.0997104
0.107359
0.105284
0.0738119
0.0343158
0.0361061
0.0387563
0.0422559
0.0469716
0.0452421
0.0341099
0.0244377
0.0187639
0.0178537
0.0180653
0.0207851
0.0191814
0.0189648
0.0164817
0.0145442
0.0148774
0.0169236
0.024607
0.0351427
0.0404637
0.0400776
0.0394559
0.0414561
0.0452522
0.0512
0.0600687
0.0724635
0.0736375
0.0533513
0.0252449
0.00657868
0.0340782
0.0158889
5.45699e-05
2.34858e-05
3.40229e-05
5.54364e-05
2.67337e-05
9.10025e-06
7.56653e-06
2.45725e-05
0.00020541
0.00620035
0.019832
0.0257359
0.0255391
0.0265469
0.032213
0.0338632
0.0339877
0.0328281
0.0314358
0.0311342
0.0285955
0.0270382
0.0295005
0.0409018
0.0467891
0.0373199
0.0234817
0.00309477
0.00036912
0.00226842
0.00897009
0.0150363
0.021057
0.0300951
0.0398103
0.050559
0.0558012
0.057426
0.0558216
0.0528349
0.0503383
0.0504719
0.0532822
0.0598532
0.0685377
0.0741057
0.0729495
0.064777
0.0512743
0.023567
0.00251944
0.000202298
0.000142009
0.000180559
0.00187483
0.0169302
0.0317157
0.0151188
0.00725692
0.00236379
-7.79889e-06
3.07388e-06
3.59281e-06
4.88342e-06
6.64911e-06
9.59716e-06
5.00429e-06
3.25561e-07
5.79676e-05
3.92107e-05
1.43321e-05
4.08312e-06
5.77582e-06
6.36097e-06
7.84238e-06
8.63824e-06
9.6089e-06
9.54306e-06
8.67111e-06
6.72822e-06
5.1619e-06
5.08869e-06
7.1368e-06
0.000142083
0.0365381
0.0790911
0.093232
1.6073e-07
3.50037e-08
2.82146e-08
8.516e-08
1.33176e-06
5.8137e-05
0.0114465
0.0197746
0.0108114
0.00233037
0.000513669
0.000124541
2.84295e-05
1.13737e-05
7.11932e-06
5.50167e-06
4.18068e-06
3.93065e-06