/*--------------------------------*- C++ -*----------------------------------*\
| =========                 |                                                 |
| \\      /  F ield         | OpenFOAM: The Open Source CFD Toolbox           |
|  \\    /   O peration     | Version:  2.1.1                                 |
|   \\  /    A nd           | Web:      www.OpenFOAM.org                      |
|    \\/     M anipulation  |                                                 |
\*---------------------------------------------------------------------------*/
FoamFile
{
    version     2.0;
    format      ascii;
    class       volScalarField;
    location    "0.003400000";
    object      OH;
}
// * * * * * * * * * * * * * * * * * * * * * * * * * * * * * * * * * * * * * //

dimensions      [0 0 0 0 0 0 0];

internalField   nonuniform List<scalar> 
12384
(
0.011671
0.0121504
0.0110198
0.0116313
0.00958037
0.00940884
0.00657674
0.00541913
0.0035508
0.0022976
0.00165454
0.00305009
0.00348704
0.00347661
0.00102757
0.00099763
0.00106216
0.00122191
0.00141437
0.00166809
0.00179013
0.00200244
0.0019541
0.00216773
0.00201688
0.002255
0.00205899
0.00278542
0.00280132
0.00278585
0.00280389
0.00275227
0.00309684
0.00338659
0.00360342
0.00306998
0.00220484
0.00142586
0.000883847
0.00066816
0.00100389
0.0021917
0.00344575
0.00309095
0.00317415
0.00410061
0.00439794
0.00453794
0.00440587
0.00473161
0.00488346
0.00550306
0.00601449
0.00660617
0.00690574
0.00698697
0.00666192
0.00623372
0.00564868
0.00529962
0.00485294
0.00460272
0.00450016
0.00432445
0.00447016
0.00451918
0.00438451
0.00371482
0.00350255
0.00317528
0.00180712
0.0011557
0.00126374
0.00257894
0.00282413
0.00264747
0.00262759
0.00245375
0.00220161
0.00219068
0.00248738
0.00299082
0.00340549
0.00348093
0.00344032
0.00334023
0.00325495
0.00321089
0.00324562
0.00333876
0.00343162
0.00349408
0.00360888
0.00364082
0.00353479
0.00337312
0.00327837
0.0031721
0.00292777
0.00234591
0.00166309
0.00247454
0.00301507
0.00283499
0.00319237
0.00249264
0.00213605
0.00172012
0.00137402
0.00128188
0.00122776
0.00125845
0.00133084
0.00143214
0.00150179
0.00161845
0.00182704
0.0019033
0.00208494
0.00230046
0.00262178
0.00303945
0.00343778
0.0036076
0.0035922
0.00357536
0.00360383
0.00361134
0.00359341
0.00268029
0.00130242
0.00168455
0.00319135
0.00356721
0.00180903
0.0023056
0.00331314
0.00326266
0.00315457
0.00314846
0.00340751
0.00331537
0.00319938
0.00324018
0.00331754
0.00336142
0.00339423
0.00342012
0.00343879
0.00344006
0.00342861
0.00342634
0.00336967
0.00355191
0.00346005
0.00333369
0.00296085
0.00172643
0.000794048
0.000668685
0.000810725
0.00125978
0.00183876
0.00233674
0.00184753
0.00214648
0.00296976
0.00276538
0.000966474
0.000449973
0.00018646
0.000123256
9.73955e-05
0.000114989
0.000239813
0.00147932
0.00248849
0.000929694
0.000669782
0.000620988
0.000606934
0.00064464
0.000533215
0.000548088
0.000425646
0.000422403
0.000330162
0.000312158
0.000317561
0.000360963
0.000396322
0.000509357
0.000732322
0.00076436
0.00116732
0.00123914
0.00134632
0.00184384
0.00224924
0.00276737
0.00308284
0.00322908
0.00317481
0.00312875
0.00300631
0.00291589
0.00221284
0.00086922
0.00038766
0.000375438
0.000366515
0.00036938
0.000361234
0.000361589
0.000374831
0.000381842
0.000404212
0.000443012
0.00049366
0.000647671
0.000854522
0.00103188
0.00122957
0.00139795
0.000765221
0.000602413
0.000514338
0.000431405
0.000401044
0.000413691
0.000413952
0.000495138
0.000561934
0.000687507
0.000753767
0.00103772
0.00111517
0.00139101
0.00160895
0.00166683
0.0016182
0.00185469
0.00203917
0.00191285
0.00181222
0.0025753
0.00235826
0.00367984
0.00365073
0.00466386
0.00536865
0.00676269
0.00946514
0.00931855
0.00420074
0.00375708
0.00228349
0.0021159
0.00197721
0.00198103
0.00214458
0.00217625
0.00227954
0.0030085
0.00161734
0.00243541
0.00278003
0.0030166
0.00318338
0.0031373
0.0030568
0.00290753
0.00269383
0.00241776
0.00220071
0.00199985
0.00218267
0.00217678
0.00258739
0.00339046
0.00336009
0.00357493
0.00356133
0.00340384
0.0003172
0.000346446
0.000347322
0.000313228
0.000305186
0.00030707
0.000325033
0.000352626
0.000356636
0.000375337
0.000410585
0.000448137
0.000485649
0.0005229
0.000563683
0.000633474
0.000699533
0.000820579
0.000959455
0.00115505
0.00175781
0.002437
0.00357159
0.00417456
0.00475713
0.00516139
0.00570323
0.00595262
0.00619178
0.00660224
0.000348372
0.000288075
0.000284872
0.000268075
0.000269051
0.000266555
0.000279429
0.000269553
0.00030911
0.000278957
0.00030754
0.000344158
0.000376652
0.000395495
0.000488058
0.000541888
0.000603729
0.000679362
0.000982119
0.00119972
0.00151205
0.00167521
0.00203124
0.00206767
0.00199233
0.00218322
0.00229283
0.00207835
0.0020047
0.00194324
0.00184503
0.000462381
0.000589901
0.000441227
0.00100527
0.000797714
0.00139151
0.00127007
0.00194558
0.00186545
0.00244492
0.00239829
0.00293117
0.00288572
0.00314245
0.00164813
0.000384548
9.39645e-05
5.82964e-06
7.7244e-08
1.67659e-09
5.83142e-12
2.4024e-15
8.24444e-18
6.67325e-22
3.97301e-26
2.00717e-30
8.96357e-35
3.63869e-39
1.34416e-43
0.0144865
0.0161099
0.016802
0.0128896
0.0156089
0.0129649
0.016506
0.0138753
0.0101497
0.00515494
0.00228599
0.00168117
0.00321984
0.00345445
0.000822305
0.000903592
0.00122571
0.00177671
0.00227055
0.00264692
0.00281319
0.00283094
0.00276573
0.00270818
0.00262143
0.00262395
0.00267046
0.00307952
0.00335083
0.00394758
0.00423097
0.00436678
0.0046218
0.00516496
0.00540846
0.00464943
0.00335417
0.00192786
0.00102268
0.000665314
0.00102109
0.00226159
0.00346824
0.00310405
0.00312495
0.00433821
0.00377172
0.00301436
0.0028603
0.00306018
0.00350128
0.00393391
0.00464256
0.00546119
0.00661694
0.00753543
0.00783347
0.00732063
0.00659882
0.00587143
0.00529519
0.00493563
0.0047415
0.00467337
0.00483989
0.0052686
0.00544002
0.00470681
0.00361997
0.00301305
0.0016937
0.00122869
0.00146651
0.00282433
0.00283564
0.00261563
0.00246222
0.00220176
0.00250224
0.00351235
0.0030509
0.0024892
0.00220967
0.0021014
0.00209475
0.00208696
0.00210484
0.00209896
0.00208711
0.00214532
0.0022556
0.00243691
0.00284312
0.00331064
0.00360634
0.00366007
0.00350688
0.00343248
0.00331142
0.00304385
0.00220544
0.00217626
0.00356885
0.00283079
0.0031707
0.00242519
0.0018362
0.00129963
0.00115338
0.00131887
0.00174548
0.00252854
0.00318386
0.00351162
0.00350521
0.00350818
0.00351432
0.00356067
0.00357928
0.00354998
0.00354717
0.00361373
0.00355984
0.00344063
0.00316854
0.00324079
0.00338321
0.00356298
0.00352281
0.0025216
0.00134167
0.00154337
0.00295734
0.00356751
0.00188603
0.00296989
0.00324656
0.00333397
0.00334233
0.00340661
0.0029545
0.00153773
0.00140923
0.0012219
0.0013006
0.00137573
0.00140634
0.00144291
0.00160605
0.00210242
0.00249542
0.00280733
0.00299638
0.00302619
0.00293819
0.0030199
0.00340484
0.0029504
0.00154209
0.000871436
0.000781273
0.00119656
0.00196339
0.00238612
0.00325153
0.00285759
0.000934388
0.000431677
0.000168162
9.67725e-05
6.63256e-05
6.24571e-05
9.59483e-05
0.000274677
0.00115928
0.00302256
0.00153319
0.00113008
0.001066
0.0012292
0.00132736
0.00148777
0.00151944
0.00159541
0.00154712
0.00144482
0.00115342
0.000768266
0.000466434
0.000369009
0.000414414
0.000546256
0.000774588
0.000741771
0.00100301
0.00135216
0.00246847
0.00347988
0.00273165
0.00191841
0.00142763
0.00144065
0.00177053
0.00281416
0.00345894
0.00302323
0.00188941
0.000621468
0.000439315
0.00047146
0.00049236
0.000437419
0.000402688
0.000340791
0.000309486
0.000293975
0.00035041
0.000425677
0.000542575
0.000660436
0.00073369
0.000843819
0.000973769
0.00117132
0.000881026
0.000624138
0.000524422
0.000453311
0.000418604
0.000407153
0.000418927
0.000427151
0.000496808
0.000576969
0.000691514
0.000796519
0.000902743
0.000892934
0.000855533
0.000752622
0.000651808
0.000536739
0.00049873
0.000314288
0.000684916
0.000645246
0.00110931
0.000916252
0.00117258
0.00130976
0.00106335
0.00357855
0.00516372
0.00752786
0.00342473
0.00258741
0.00187027
0.00121256
0.00139856
0.00119412
0.00095809
0.000828221
0.00066589
0.000655509
0.000224365
0.000344645
0.000305169
0.000390334
0.000458059
0.000543389
0.000632055
0.000673709
0.000621503
0.00054239
0.00042386
0.000277133
0.000234466
0.00015621
0.00023172
0.000435224
0.00121933
0.00220227
0.00331854
0.00351484
0.000273894
0.000324967
0.000295877
0.000269909
0.000251659
0.000231741
0.000244703
0.000247875
0.000274227
0.000294237
0.000292864
0.000287898
0.000273169
0.000262344
0.00025675
0.000268376
0.000298049
0.000333979
0.000311572
0.000390705
0.000614542
0.00138783
0.00170807
0.00163043
0.00142502
0.00120221
0.00165015
0.00192633
0.002174
0.00301651
0.000176857
0.000186281
0.000209991
0.000207461
0.000217434
0.000260198
0.000247471
0.000260498
0.000212962
0.000244542
0.000212993
0.000239474
0.000224369
0.000257504
0.000235151
0.000240739
0.000223684
0.00027268
0.000441132
0.00089744
0.000782747
0.000936928
0.000788122
0.000764208
0.000678074
0.000751548
0.000758299
0.00101864
0.00102662
0.00120874
0.000231666
0.000239469
0.000137586
0.000333289
0.00035131
0.000410564
0.000419162
0.000412993
0.00043492
0.000368734
0.00029771
0.000175726
0.000110035
4.97472e-05
3.6194e-05
4.47369e-05
0.000125762
0.000155214
0.000143973
0.000129918
2.68599e-05
5.28964e-08
1.92123e-10
1.49929e-13
1.08394e-17
6.43501e-22
3.25942e-26
1.46697e-30
5.81777e-35
2.00609e-39
0.0109332
0.00654309
0.00486229
0.00371092
0.00345059
0.00384289
0.00496615
0.00631659
0.00991896
0.0128138
0.00716431
0.00221764
0.00198007
0.00295238
0.000675763
0.00120946
0.00218418
0.00282777
0.00303618
0.00312381
0.00312463
0.00310062
0.00305256
0.00296854
0.00287982
0.00273982
0.00252353
0.00245653
0.00300534
0.00349272
0.00438058
0.005556
0.00632431
0.00705729
0.00764689
0.00685619
0.00472901
0.00230521
0.00103513
0.000626511
0.00111112
0.00246745
0.00348002
0.00315753
0.00308131
0.00395707
0.00271547
0.00228459
0.00240879
0.00270351
0.00312856
0.00387223
0.00414136
0.00447789
0.00496881
0.00589648
0.00699506
0.00781777
0.00758353
0.00655839
0.0055165
0.00466732
0.00423333
0.0039441
0.00413492
0.0047325
0.00550172
0.00536213
0.00388832
0.00271868
0.00154162
0.00137477
0.00193526
0.0031647
0.00284547
0.00252485
0.00228701
0.00282795
0.00321226
0.00220575
0.00194437
0.00216892
0.00259669
0.00294643
0.00313086
0.00315672
0.00310516
0.00298267
0.00277689
0.00253308
0.00238094
0.00237351
0.00236069
0.00274074
0.00319766
0.0035631
0.00361887
0.00362063
0.0036479
0.00347291
0.00276918
0.00226109
0.00357942
0.00275857
0.00321721
0.00225876
0.00137389
0.00118133
0.00146735
0.00291735
0.00346424
0.00305843
0.00252986
0.00219884
0.00206924
0.00214652
0.00236541
0.00269191
0.00304431
0.00327474
0.00336419
0.00325665
0.00310218
0.00270615
0.00241919
0.00237545
0.00280834
0.00316208
0.00306191
0.00183119
0.00122797
0.00175512
0.00309189
0.00356621
0.00214427
0.00308204
0.00326683
0.00326007
0.00330654
0.00185816
0.00109185
0.00091652
0.000976189
0.00103032
0.00114455
0.00121829
0.00124091
0.00125479
0.00124758
0.00122923
0.00138692
0.00162443
0.00260694
0.00324521
0.00332481
0.00300121
0.00267455
0.00304841
0.00304195
0.00147398
0.000872096
0.00114341
0.00190511
0.00227302
0.000638075
0.000290101
0.000150729
7.09439e-05
3.9231e-05
3.03472e-05
3.24067e-05
6.61729e-05
0.000237678
0.00172034
0.00287761
0.00176121
0.00175456
0.00209493
0.00268727
0.00323413
0.00350062
0.00345666
0.00289954
0.00227289
0.00166365
0.00149834
0.00207832
0.00333497
0.00211164
0.000686914
0.000421585
0.000510646
0.000728599
0.000498235
0.000926685
0.00229785
0.00303485
0.00139661
0.00105396
0.00105195
0.00100519
0.0009623
0.000946714
0.001287
0.00281032
0.00317464
0.00152625
0.000599167
0.000607299
0.000776441
0.000830721
0.000677058
0.000476052
0.000446669
0.000350457
0.000325721
0.000373928
0.000422641
0.000463509
0.000441393
0.000484674
0.00051184
0.000570182
0.000643061
0.000869978
0.000742111
0.000790823
0.000551692
0.000515967
0.000391849
0.000355041
0.000329013
0.000350255
0.000439352
0.000539679
0.000674669
0.000847259
0.000828306
0.000887631
0.00088239
0.00105867
0.00105035
0.00083536
0.00140898
0.000938209
0.00246566
0.00143266
0.00185601
0.00168189
0.000693591
0.000691731
0.00105221
0.00179201
0.00471163
0.00222199
0.00210569
0.00154984
0.00142424
0.00104781
0.00104636
0.000731008
0.000618869
0.000741612
0.00092768
0.00102266
0.000787895
0.000760961
0.000624463
0.000433585
0.000264296
0.000191064
0.000149223
0.000143184
0.00011565
0.000109293
8.94455e-05
8.12393e-05
5.54348e-05
5.19917e-05
5.08013e-05
0.000121346
0.00050425
0.00151305
0.00263618
0.000186621
0.000225734
0.000242696
0.000264833
0.000360302
0.000461166
0.0005283
0.000643906
0.000837236
0.00100962
0.00103859
0.00103298
0.00106739
0.00107987
0.00105375
0.00083466
0.00052785
0.000341164
0.000244384
0.000264141
0.000191517
0.000429878
0.000485726
0.000556621
0.000489645
0.000451346
0.000397597
0.000463549
0.000522388
0.000624202
0.000187743
0.000320313
0.000630592
0.000930382
0.00140031
0.00203688
0.00187695
0.00196727
0.0017177
0.00134484
0.000903193
0.000705757
0.000616696
0.000405683
0.000347578
0.000325501
0.000237477
0.000209289
0.000295523
0.000639198
0.000711308
0.000532281
0.000276403
0.0001911
0.000154504
0.000153218
0.000125787
0.000140288
0.000228174
0.000293663
0.00113743
0.00321827
0.00340587
0.00415449
0.00387985
0.00296412
0.00198356
0.00131562
0.000863904
0.000454949
0.000248824
0.000118149
6.28569e-05
3.57181e-05
2.09589e-05
1.38213e-05
1.38483e-05
1.32326e-05
1.20842e-05
1.04125e-05
8.22976e-06
1.98608e-06
1.32888e-08
2.20434e-12
8.38082e-17
3.98653e-21
1.94806e-25
9.41192e-30
2.78308e-34
5.03986e-40
0.00208785
0.00184879
0.00145512
0.00169116
0.00161445
0.00186525
0.00211933
0.00295222
0.00409313
0.00679549
0.0115761
0.00600859
0.00160264
0.0022889
0.00122308
0.00222057
0.00308595
0.00330215
0.00328803
0.00320557
0.00305632
0.00294599
0.00292064
0.0028814
0.00290532
0.00288768
0.002722
0.00234124
0.00237865
0.0028452
0.00386719
0.00560945
0.00711968
0.00785652
0.00858539
0.00861696
0.00596917
0.00253184
0.000980241
0.000516487
0.000947667
0.00230133
0.00348094
0.00340204
0.00325141
0.00350071
0.00228947
0.00220249
0.00239577
0.00277134
0.00340583
0.00419425
0.00449517
0.00468605
0.00489893
0.00496487
0.0056049
0.00653516
0.00722374
0.00662014
0.00534987
0.00418905
0.00352234
0.00327237
0.0033577
0.00384898
0.00503025
0.00567118
0.00379938
0.00241151
0.00149635
0.00155969
0.00246427
0.00341554
0.00282487
0.00237404
0.00269311
0.00296564
0.0019494
0.00210343
0.00333442
0.00325552
0.00285413
0.00301715
0.00321944
0.00355276
0.00351448
0.00348026
0.00322031
0.00292985
0.00262411
0.00241486
0.0023135
0.00246302
0.00276465
0.00319584
0.00346778
0.00359054
0.00356559
0.00359985
0.00319096
0.00243158
0.00357591
0.00278531
0.00324078
0.00198429
0.00126122
0.00153063
0.0032174
0.00313416
0.00228929
0.00170464
0.00140826
0.00130796
0.00122339
0.00119293
0.00131071
0.00164626
0.00213345
0.00260728
0.00282647
0.00280509
0.0025454
0.00217395
0.00178929
0.00186076
0.00212234
0.0024631
0.00198344
0.00138739
0.00141695
0.00214466
0.00303192
0.00340604
0.00214992
0.00305086
0.00316482
0.00335691
0.00165404
0.000974047
0.000800619
0.000728686
0.000836885
0.000973683
0.00110649
0.00119894
0.00115603
0.0011353
0.00106686
0.0010507
0.000877389
0.00102322
0.00102302
0.00175738
0.00295697
0.00286358
0.00177787
0.00139243
0.00273011
0.00252983
0.00111749
0.00107403
0.00167381
0.00181567
0.000174829
0.000105849
5.9754e-05
3.5547e-05
2.24191e-05
2.11996e-05
3.75139e-05
0.000170963
0.00127201
0.00283995
0.00192276
0.00229543
0.00312466
0.00356897
0.00264883
0.00148561
0.00115807
0.00069781
0.000545732
0.000369282
0.000326593
0.000279193
0.00031742
0.000425165
0.00107731
0.00260839
0.000752679
0.000442042
0.000530365
0.000371583
0.00126697
0.00341432
0.0014927
0.00127063
0.00153272
0.00230948
0.00243144
0.00156786
0.00107716
0.00102909
0.00219801
0.0031368
0.00145146
0.000732545
0.00107287
0.00163162
0.00167352
0.00129687
0.00112664
0.00131632
0.00193456
0.00327786
0.00303116
0.00188985
0.00162649
0.00224976
0.00340793
0.00199893
0.000616203
0.000441151
0.000815379
0.000745616
0.000472145
0.000480146
0.00031601
0.000324507
0.000262098
0.000268084
0.000255996
0.000328079
0.000284733
0.000469575
0.000539298
0.000907163
0.00147331
0.0031705
0.00304249
0.00131623
0.000520194
0.00021397
0.00029452
0.000147878
0.000236759
0.000230406
0.000669801
0.00375398
0.00240043
0.000940124
0.00100127
0.00214845
0.00193522
0.00192113
0.00286403
0.0024431
0.0016136
0.00123828
0.00157172
0.00276456
0.00525755
0.00242207
0.000526545
0.000449795
0.000374284
0.000581459
0.000785452
0.00167578
0.00346694
0.002438
0.00100798
0.000385228
0.000178559
9.94729e-05
5.78102e-05
4.72057e-05
3.57521e-05
2.69965e-05
2.88708e-05
7.69733e-05
0.000381437
0.000928021
0.000203737
0.000260511
0.000322119
0.00054839
0.00111856
0.00227433
0.00311931
0.00303558
0.00209604
0.00115147
0.000741935
0.00061179
0.0004443
0.0004156
0.000477886
0.000971232
0.00332666
0.00241745
0.00124919
0.000720183
0.000544523
0.000533452
0.000559177
0.000591775
0.000491341
0.000376011
0.000317437
0.000227613
0.000215387
0.000234803
0.000238276
0.000889478
0.00314604
0.00174068
0.000748101
0.000569474
0.000352097
0.00057297
0.000468856
0.000636315
0.00166064
0.00330533
0.00260672
0.0016488
0.00102184
0.000606889
0.000424286
0.000393997
0.000392467
0.000671893
0.000901647
0.000695518
0.00034262
0.000164694
0.000107675
8.48617e-05
0.000101817
8.25365e-05
8.13189e-05
0.000127007
0.00202874
0.00246009
0.00144297
0.00089588
0.00108744
0.00247383
0.00327908
0.00334905
0.00283426
0.00222922
0.0016391
0.00113609
0.000700262
0.000516808
0.000305634
0.000193375
0.000118297
6.18942e-05
4.53328e-05
4.46595e-05
4.59156e-05
3.90786e-05
9.22357e-06
5.13599e-07
3.74309e-12
1.28106e-16
4.12082e-21
2.47133e-25
8.60062e-30
5.58693e-35
0.000879532
0.00124142
0.00181838
0.00221922
0.00249708
0.00222165
0.00234003
0.00274784
0.00355272
0.00496486
0.00743772
0.0118444
0.00396747
0.00177827
0.00255278
0.00313017
0.00342615
0.00338328
0.00321861
0.00342242
0.00339932
0.00288434
0.00271506
0.00264209
0.00269801
0.00280733
0.00273198
0.00242795
0.00201248
0.00231228
0.00348713
0.00541526
0.00708196
0.00796641
0.0085571
0.00919649
0.00655934
0.00250675
0.000741602
0.000330075
0.000508756
0.00143295
0.00324644
0.00350081
0.00320206
0.00328213
0.00235284
0.00225478
0.00244878
0.00303148
0.00394323
0.00386167
0.00389572
0.00425396
0.00465704
0.00515504
0.00535224
0.00593696
0.00594773
0.00506808
0.00406053
0.00336494
0.00307754
0.00310477
0.00322521
0.00375874
0.00499065
0.00551323
0.00351977
0.00231383
0.00144112
0.00156335
0.00266653
0.00353381
0.0027652
0.00258121
0.00325369
0.00197416
0.00243228
0.00302677
0.00144005
0.00142501
0.00175446
0.00237723
0.00298865
0.003418
0.00353856
0.0035172
0.00333831
0.00303577
0.00276954
0.0024877
0.00235509
0.00239981
0.00259093
0.00291595
0.00325556
0.003374
0.00346098
0.00347031
0.00323155
0.00285029
0.00307098
0.00262778
0.00332476
0.00180029
0.00136043
0.00301494
0.00301701
0.00199862
0.00139771
0.00111435
0.00109126
0.00105882
0.000989923
0.000922924
0.000944242
0.00112713
0.00156635
0.00208221
0.00238474
0.00240385
0.00220912
0.00175193
0.00143058
0.0014233
0.00160674
0.00147149
0.00127102
0.00132937
0.00172533
0.00225866
0.00265423
0.00295398
0.00238181
0.00314576
0.00316761
0.00215889
0.000956961
0.000678025
0.000631811
0.000606743
0.000800504
0.000969643
0.00114606
0.00114217
0.00114547
0.00105496
0.000934412
0.000796882
0.000785702
0.000687632
0.000737931
0.000864344
0.00116381
0.00137915
0.000991176
0.000728498
0.00102103
0.0033635
0.00197329
0.00103995
0.00131157
0.0012536
0.000109989
7.78359e-05
5.41434e-05
3.05895e-05
2.10174e-05
2.65091e-05
9.53781e-05
0.000757853
0.00341211
0.00226933
0.00258049
0.00346376
0.00298253
0.00183618
0.00109886
0.000747845
0.000482876
0.00040702
0.000285813
0.000252095
0.000197181
0.000188676
0.000171031
0.000192981
0.000309193
0.00128058
0.00172954
0.000483012
0.000365041
0.000282399
0.00231744
0.00228651
0.00158116
0.00325925
0.00314301
0.00295013
0.00327208
0.00323401
0.00145426
0.00120545
0.00239907
0.00306018
0.0013528
0.00104744
0.00217972
0.00316875
0.00322819
0.00332349
0.00288862
0.000838099
0.000317909
0.000182643
0.00013418
0.000113457
0.00010945
0.000123308
0.000167144
0.000355843
0.00187478
0.00101585
0.00111466
0.00158962
0.00233319
0.0015745
0.001373
0.000776516
0.000737361
0.000530845
0.000776251
0.000735204
0.00169666
0.00262212
0.00325139
0.00156402
0.00043104
0.000222321
9.18551e-05
6.40417e-05
3.74027e-05
3.32716e-05
2.76212e-05
2.68774e-05
2.47888e-05
2.60384e-05
2.36553e-05
0.00010016
0.00071115
0.00419282
0.00118391
0.00153663
0.00114448
0.00263121
0.00543684
0.00554327
0.00314406
0.00351279
0.0045844
0.00124156
0.000877173
0.000840093
0.000410827
0.000499469
0.000345813
0.00024533
0.00017184
0.0001343
0.000116761
0.000139124
0.000258741
0.000712527
0.0034852
0.00122332
0.000291283
0.000117328
5.60925e-05
3.66511e-05
3.17964e-05
3.47331e-05
0.000102481
0.000280695
0.000243132
0.000429698
0.000774707
0.00193645
0.00306513
0.000819112
0.000358817
0.000208754
0.000151861
0.000124674
0.000108325
0.000102123
0.000128649
0.000105755
9.38265e-05
8.81258e-05
0.000122157
0.00023144
0.000734343
0.00330273
0.00308002
0.00207524
0.00152476
0.00118507
0.00109049
0.00075576
0.00054487
0.000315959
0.000201512
0.000154263
0.000374336
0.00288752
0.000733294
0.000259799
0.000186627
0.000145896
0.000167951
0.00012298
0.000123771
0.000101116
0.000127147
0.000178151
0.000407111
0.00121312
0.00340005
0.00216471
0.00132343
0.00108122
0.000833864
0.000933574
0.00130024
0.00151746
0.000949254
0.000470607
0.000185874
0.000153681
0.000131841
0.000151493
8.65044e-05
0.000109465
0.00314007
0.001305
0.000784414
0.000466533
0.000558252
0.0006226
0.00161856
0.0024231
0.00375243
0.00366166
0.00336176
0.00300785
0.00245247
0.0019519
0.00153612
0.00115333
0.000879582
0.000633626
0.000394574
0.00028378
0.000220024
0.000190162
0.00015895
0.000119718
1.5284e-05
1.63813e-09
3.30326e-15
1.67388e-19
5.80414e-24
7.53673e-29
0.00125023
0.00296244
0.00639299
0.00646928
0.00650168
0.00437198
0.00461815
0.00447739
0.00609939
0.00709196
0.00796053
0.0106273
0.00920528
0.0016313
0.00305876
0.00337488
0.00352711
0.00389086
0.00447883
0.00493644
0.00490966
0.00442591
0.00323705
0.00259725
0.00253073
0.00263153
0.00263222
0.00219952
0.00201348
0.00193466
0.00295595
0.00529237
0.00699959
0.00751573
0.00840306
0.00909019
0.00533933
0.001583
0.000383632
0.000132137
0.000157705
0.00048487
0.00214034
0.00342934
0.00330197
0.00302951
0.00246893
0.00229191
0.00252977
0.00325678
0.00412475
0.00346709
0.00332853
0.00343406
0.00384737
0.00406667
0.00426186
0.00412206
0.00377377
0.00345643
0.00321038
0.00301561
0.00301695
0.00332044
0.00390037
0.00484218
0.0055686
0.00470695
0.0033125
0.00221975
0.00130557
0.00132595
0.00247239
0.00353707
0.00274008
0.00354683
0.00218861
0.00253575
0.00221874
0.000927745
0.000956922
0.00126597
0.00157709
0.00208019
0.00244628
0.00318411
0.00355316
0.00348593
0.00335765
0.00317
0.00290502
0.00258853
0.00246773
0.00245731
0.00262642
0.00287915
0.00306542
0.00323381
0.00320582
0.00342658
0.00321349
0.00346713
0.0024039
0.00272173
0.00320629
0.00156915
0.00217984
0.00336321
0.00224031
0.00141822
0.00110732
0.00102844
0.00107875
0.00111885
0.00108447
0.000975507
0.000967949
0.00110626
0.00147415
0.00193499
0.00222984
0.00219652
0.00182499
0.00133491
0.00108702
0.00105881
0.0010226
0.000995972
0.00109683
0.00138182
0.00178807
0.00210776
0.00231052
0.00259809
0.00263084
0.00295316
0.00314546
0.00144871
0.000731231
0.000586846
0.000551473
0.000647863
0.000723105
0.000960986
0.00116497
0.00127084
0.00114448
0.00100557
0.000804943
0.000630961
0.000544197
0.000451782
0.000497944
0.00050886
0.00060722
0.000669805
0.000633842
0.000584012
0.000602513
0.000858702
0.00346108
0.00124335
0.000910264
0.000799272
0.000103486
7.4058e-05
4.59167e-05
2.72343e-05
2.28599e-05
5.892e-05
0.000409437
0.00315433
0.00281166
0.00288841
0.00348116
0.00282519
0.00171905
0.00112226
0.000766266
0.000543132
0.000451041
0.000350228
0.000296095
0.00025299
0.000224164
0.00017845
0.000172686
0.000183448
0.000249674
0.000660095
0.0025963
0.000520311
0.000258847
0.000208349
0.00299199
0.00194377
0.00338782
0.00188723
0.00150269
0.00164355
0.00234995
0.00342225
0.00256711
0.00186585
0.00311948
0.00262148
0.00129304
0.00186351
0.00341407
0.0016056
0.000857923
0.000431119
0.000175229
9.26741e-05
7.04741e-05
6.64148e-05
6.45663e-05
6.32746e-05
6.36574e-05
6.33431e-05
6.8392e-05
9.1822e-05
0.000182355
0.000792632
0.00115376
0.0017801
0.00127426
0.00123805
0.000456633
0.000498618
0.000328023
0.000529272
0.000436412
0.000879401
0.00165392
0.00320043
0.000653249
0.00014117
6.41352e-05
4.56084e-05
4.10643e-05
4.64894e-05
5.61823e-05
5.74844e-05
6.0194e-05
4.27629e-05
5.16635e-05
2.23733e-05
1.66316e-05
2.29437e-05
3.34838e-05
0.000447021
0.00421965
0.00137624
0.00114869
0.00399219
0.0033925
0.00263832
0.00493824
0.00244043
0.000816209
0.000732388
0.00178761
0.00381955
0.00514457
0.00412198
0.00399865
0.00372981
0.00199564
0.000801497
0.000352536
0.000144415
7.39274e-05
6.20656e-05
9.82323e-05
0.000322296
0.00326171
0.00126287
0.000251467
7.15142e-05
4.84505e-05
2.88784e-05
4.07585e-05
9.52027e-05
0.000358097
0.00104494
0.00259208
0.00218525
0.00051744
0.00020102
0.000138057
0.000122653
0.000118031
0.000182646
0.000372386
0.000753223
0.00107169
0.000730724
0.000427107
0.000173595
9.35462e-05
5.88032e-05
7.77168e-05
0.000131615
0.000352209
0.00140322
0.00459478
0.00364955
0.00344223
0.00225312
0.00161737
0.000865326
0.000294373
0.00014773
0.00063415
0.00299409
0.000259767
0.000180186
0.000192465
0.000275057
0.000510855
0.000252364
0.00030893
0.000116436
7.44144e-05
5.54015e-05
6.26697e-05
0.000134199
0.000324968
0.0011912
0.00338088
0.00288009
0.00241842
0.0020739
0.00214203
0.00277606
0.002853
0.0018024
0.000758953
0.000347806
0.000267253
0.000218576
0.00014365
0.00014621
0.0038401
0.00110351
0.000555095
0.000307068
0.000220054
0.000302225
0.000425501
0.000805081
0.00122567
0.00208475
0.0024713
0.00327465
0.0035587
0.00356502
0.00331095
0.00303255
0.00263789
0.00230336
0.00184653
0.00148675
0.00108556
0.000952704
0.000776737
0.000658459
0.000491863
0.000121495
1.65416e-09
1.69884e-13
2.90152e-18
3.99903e-23
0.00221485
0.00790728
0.0102725
0.0109539
0.0109866
0.009093
0.0102258
0.010257
0.0114986
0.0108252
0.010286
0.0103896
0.0108867
0.00229117
0.00332181
0.00377824
0.00436817
0.00524171
0.00549705
0.00523347
0.00569651
0.00619017
0.00444076
0.002906
0.00239805
0.00244611
0.00230846
0.00187909
0.00166566
0.00185332
0.00263056
0.0050901
0.00719981
0.00719099
0.00804356
0.00787393
0.00225147
0.000449081
0.0001314
8.54933e-05
8.43974e-05
0.000180878
0.00110174
0.00304452
0.00316694
0.00278103
0.00239444
0.00226023
0.00240509
0.00366589
0.00473706
0.00378664
0.00343726
0.00321717
0.00333387
0.00329069
0.00338937
0.00359006
0.00375049
0.00373109
0.00368441
0.00391253
0.00450369
0.0052416
0.00491058
0.00428452
0.00370502
0.00319402
0.00252338
0.00182276
0.00104682
0.00100719
0.00199741
0.00337477
0.0030619
0.0028379
0.00232329
0.00271069
0.000797465
0.000746196
0.000967584
0.00115978
0.0010857
0.000987586
0.00124257
0.00235
0.00343446
0.00342052
0.00325493
0.00321171
0.00300809
0.00269076
0.00252679
0.00256163
0.00272436
0.00284556
0.00301674
0.00300172
0.00317143
0.00336935
0.0033757
0.00258846
0.00214749
0.00297742
0.00300311
0.00151801
0.00293059
0.00316265
0.00219605
0.00162316
0.00138848
0.00126031
0.00121523
0.00127271
0.00130772
0.00132678
0.00135991
0.00153449
0.00182293
0.00208629
0.00207376
0.00176573
0.00123229
0.000924583
0.000803952
0.000827371
0.000904815
0.0012415
0.00179391
0.00246122
0.0027305
0.00275759
0.00251036
0.00240437
0.00298096
0.00300515
0.0029144
0.00143696
0.000667238
0.000468968
0.000529765
0.000574634
0.000756104
0.000965446
0.00128353
0.00140408
0.00124817
0.000950221
0.000604414
0.0003871
0.000347695
0.000380533
0.000380071
0.000367134
0.000323055
0.000358258
0.000464822
0.000502987
0.000558848
0.000684022
0.00173949
0.00182474
0.000685766
0.000513354
9.63564e-05
4.86174e-05
3.28768e-05
2.78665e-05
5.00025e-05
0.000229142
0.00149215
0.00330864
0.0030859
0.0034907
0.00283778
0.00189386
0.00121303
0.000829245
0.000614629
0.000497764
0.000422581
0.00039097
0.000331948
0.000294665
0.000252454
0.000211234
0.000173301
0.000205275
0.000361727
0.00120778
0.00155178
0.000340674
0.000325721
0.000339739
0.00190796
0.00309322
0.00207666
0.00129297
0.00121796
0.0013747
0.00192824
0.0029407
0.00354312
0.00310698
0.00341141
0.00197421
0.00155122
0.00332852
0.000920681
0.000370672
0.00016669
7.83239e-05
6.34234e-05
5.31002e-05
6.85857e-05
6.80241e-05
6.77008e-05
6.723e-05
6.76254e-05
6.623e-05
6.20975e-05
6.29763e-05
9.34502e-05
0.000214451
0.00177653
0.00349576
0.00146179
0.00228145
0.00343943
0.00252546
0.00235416
0.00190241
0.0029474
0.00300485
0.000760662
0.000274953
0.000100703
6.26707e-05
5.80064e-05
7.05816e-05
9.83475e-05
0.00012701
0.000139411
0.000123149
0.000118083
8.92966e-05
8.67403e-05
7.98269e-05
4.8379e-05
6.13267e-05
3.33087e-05
5.26899e-05
0.00146361
0.00171632
0.00110208
0.0055924
0.00106677
0.000822897
0.00102078
0.000671403
0.00041054
0.000675581
0.00397796
0.00629978
0.00643158
0.00491682
0.00480442
0.00495958
0.00446662
0.0038909
0.003406
0.00163679
0.000428083
0.000141347
6.27825e-05
3.16713e-05
8.59352e-05
0.000534638
0.00321617
0.000425706
0.000138809
4.99486e-05
3.34631e-05
4.72405e-05
0.000454788
0.00225352
0.0014478
0.000474719
0.00023743
0.000146738
0.000107049
0.000119363
0.000245364
0.00066963
0.00237221
0.00345
0.00307308
0.00333027
0.00315471
0.00194937
0.000479174
0.000149912
5.94846e-05
6.35633e-05
7.60612e-05
0.000181193
0.00040378
0.00165533
0.0052418
0.00590921
0.00455442
0.00257254
0.000853582
0.000198359
0.000993021
0.00315752
0.000281382
0.000185672
0.000317886
0.00125951
0.00125052
0.00139042
0.00207743
0.000572222
0.000264684
8.85035e-05
3.81847e-05
3.97829e-05
6.54597e-05
0.000140672
0.000396316
0.00106922
0.00276759
0.00437192
0.00463778
0.00526954
0.0065159
0.0059282
0.00356057
0.00191501
0.000691587
0.000532215