/*--------------------------------*- C++ -*----------------------------------*\
| =========                 |                                                 |
| \\      /  F ield         | OpenFOAM: The Open Source CFD Toolbox           |
|  \\    /   O peration     | Version:  2.1.1                                 |
|   \\  /    A nd           | Web:      www.OpenFOAM.org                      |
|    \\/     M anipulation  |                                                 |
\*---------------------------------------------------------------------------*/
FoamFile
{
    version     2.0;
    format      ascii;
    class       volScalarField;
    location    "0.003400000";
    object      rhoEu;
}
// * * * * * * * * * * * * * * * * * * * * * * * * * * * * * * * * * * * * * //

dimensions      [1 -1 -2 0 0 0 0];

internalField   nonuniform List<scalar> 
12384
(
429654
488508
461866
512903
509986
504094
471845
416643
288026
117757
-81990.2
-326123
-457308
-483351
-332550
-319565
-285330
-245323
-206426
-180327
-160860
-155130
-128281
-136222
-114643
-69711.9
-90356.4
-29224.7
-25554.9
-22750.8
-14820.7
-1575.35
38298.4
84638.2
136310
146839
119345
64989.4
-19566.3
-110124
-221229
-290492
-362135
-487150
-142868
-35000
-3856.71
15996.8
11106.1
34920.4
40632.2
76801.4
96775.2
118790
129620
141629
135774
141498
126276
122802
101612
86610.3
79582
60101
56319.3
46357.2
24457.7
-32092.1
-127346
-238902
-266272
-286859
-293164
-351258
-231132
-244746
-269819
-259893
-241016
-223903
-227017
-235549
-243929
-244618
-242285
-238673
-235045
-227551
-223907
-227181
-225156
-237472
-252389
-271790
-292670
-302938
-315897
-324945
-332654
-340454
-354813
-371146
-353018
-329808
-394811
-401829
-414363
-404916
-400908
-386651
-380240
-368516
-364213
-368543
-361739
-373613
-385184
-390998
-409068
-422822
-423042
-421619
-408835
-400166
-393231
-400274
-415158
-437430
-435027
-412853
-365429
-403939
-497924
-544562
-173057
-297382
-375307
-357023
-439252
-467886
-439719
-334243
-222806
-136940
-115230
-129278
-152991
-170972
-182015
-175546
-164101
-145829
-125967
-84325.4
-95703.7
-126636
-200342
-301240
-385054
-436306
-451750
-453679
-420593
-430999
-533661
-526984
-488096
-448808
-397062
-341661
-330785
-341954
-352128
-391373
-502297
-571770
-558391
-503592
-482530
-479759
-487869
-495628
-495017
-507278
-497613
-506850
-509593
-511492
-534858
-570180
-628980
-662807
-431467
-301882
-675159
-636952
-569373
-550067
-504092
-483291
-452100
-440831
-415747
-386701
-350191
-312148
-362402
-479813
-466993
-375523
-297419
-217997
-154318
-119543
-110589
-98107.9
-85699.4
-78100.1
-80472.2
-66497.6
-51525.3
-48431.7
-40287.8
-27418.9
-207639
-196731
-195610
-179718
-166189
-162488
-162639
-177888
-183941
-203542
-198485
-215959
-210908
-211456
-212899
-202058
-201844
-201433
-216187
-197655
-133605
122371
145535
438848
359063
465800
564926
491245
900964
853183
714316
692455
385007
331505
172053
73781.4
22335.8
25953.8
57573
-14462.6
-81002.2
-48020
-122686
-96209.1
-111345
-107301
-112871
-115906
-124893
-136873
-145224
-156362
-192608
-182430
-225694
-241493
-252252
-271451
-276619
-292937
-613833
-506152
-403369
-309811
-279010
-298309
-303995
-330851
-330391
-326580
-322079
-318563
-319140
-315988
-322163
-331185
-331306
-334337
-281409
-251487
-52002
56252
222138
259160
303632
295159
322163
329965
341831
380725
-425509
-339930
-339534
-389950
-392267
-389561
-389281
-389886
-366711
-347152
-318548
-311342
-241669
-204684
-160412
-117276
-107397
-139363
-185903
-209224
-191668
-150182
-166740
-185662
-190275
-238505
-238983
-217638
-202258
-163892
1.47838e+06
-30797.6
25931.4
-104929
452387
277494
779269
693988
1.18099e+06
1.14317e+06
1.49298e+06
1.55642e+06
1.89321e+06
1.91605e+06
1.96688e+06
1.73432e+06
1.08669e+06
445419
37412.9
-96269.4
-107532
-107488
-107486
-107488
-107487
-107486
-107487
-107487
-107487
-107487
531657
523815
544274
533020
593612
511824
578349
477235
447823
304988
115211
-157508
-378415
-491614
-319555
-246232
-162461
-127626
-115876
-116773
-118378
-113750
-100246
-98221
-99558.5
-74211.3
-62818.9
-23593
79.788
35466.9
45931.6
54918.6
73485.6
114604
159325
175535
162497
101005
10565.4
-102522
-212921
-292861
-347425
-468053
-104198
-5729.35
-12080.8
-49950.3
-67901.9
-61562.6
-35624.3
-5872.97
48003.2
93066.1
140253
168162
187257
197021
205552
206510
199521
192708
187219
183441
170226
150829
105782
27160.6
-79443
-205588
-280401
-273999
-299171
-358026
-237473
-241649
-227498
-184378
-191971
-229742
-258948
-271332
-268696
-261742
-251813
-242229
-231144
-230420
-210574
-219166
-206421
-216772
-231927
-251993
-272451
-289636
-299252
-306727
-313731
-330919
-350451
-371805
-361360
-346078
-355253
-367007
-364410
-361874
-345662
-329021
-303732
-293161
-287207
-276581
-290503
-296918
-314200
-333710
-353355
-374276
-390402
-392637
-387423
-376819
-373065
-375022
-396047
-416012
-417785
-394377
-366852
-361388
-442903
-495520
-158149
-199942
-308534
-351070
-363893
-242212
-90732.4
36788.7
95221.8
80126.4
36726.3
-12717.6
-56584.1
-91855
-119479
-136897
-150109
-146748
-144578
-123207
-115771
-126672
-168419
-241151
-334527
-413332
-441644
-433718
-409732
-425667
-417193
-413514
-392699
-358009
-343900
-325751
-316488
-342703
-384615
-475820
-545601
-544194
-500375
-466580
-465862
-466334
-469104
-468212
-457725
-458803
-431639
-424215
-413446
-423441
-456946
-540276
-610865
-644439
-417887
-426590
-511758
-482939
-465795
-456012
-453090
-442737
-428314
-412841
-402464
-386886
-349604
-315393
-386888
-504185
-476138
-414810
-327825
-247074
-156378
-104383
-52204.2
-34660
-6673.25
2054.33
15083.2
21104.3
6984.8
-47.4098
-14151.7
-23015.2
-240728
-219694
-228581
-204822
-197024
-188604
-189191
-192175
-202083
-208012
-216933
-214956
-211343
-205438
-187546
-176952
-155603
-144884
-103024
-144815
24150.1
106138
353480
373264
489659
596731
438650
774766
749379
932452
627510
616068
602059
390289
385471
213622
183260
202140
184776
196786
-15491
86984.9
-50817.1
-12271.9
-48445
-55972.6
-64660.5
-69994.5
-75079.6
-76415.3
-82030
-95358.1
-91892.1
-116955
-149757
-189670
-239894
-276558
-279220
-297113
-582104
-496693
-379195
-275499
-213104
-179816
-206936
-191955
-191843
-164415
-156513
-151126
-142322
-151304
-148171
-147235
-159394
-188685
-154360
-136054
-63288.3
177378
302347
347296
340729
356145
333871
330097
289168
251610
-419822
-317442
-299640
-299757
-276452
-290064
-229452
-266263
-213995
-213043
-180763
-123390
-98515.5
-71940.7
-57063.3
-47134.5
-13723.8
-18136.3
3043.39
90352.1
-49908
-167974
-161992
-182291
-180558
-213053
-229861
-214417
-200709
-133203
340744
29798.5
-548.735
241207
323142
422091
496653
540133
582214
562381
492392
370204
265034
169333
142359
245073
653479
878023
681306
343384
737.582
-106249
-107498
-107487
-107485
-107493
-107485
-107491
-107488
-107486
550776
556112
570744
571351
574360
564021
593789
532854
544176
425592
296263
59076.9
-216365
-447817
-211936
-137824
-116575
-118500
-115482
-108865
-106978
-117812
-119992
-115131
-123074
-94740.1
-85193.9
-74085.1
-14993.4
18415.7
52785.9
94379.2
121229
152506
197830
210242
194712
120127
14059.4
-110668
-234442
-305084
-347677
-424527
-97388.7
-11024.4
-70158.9
-124936
-129859
-121587
-92640.1
-50794.4
-29052.2
12842.5
61341.6
110525
150939
180647
199609
214962
227864
240510
252540
258524
259060
235515
167832
67594.7
-53693.3
-184872
-278848
-281622
-307102
-380792
-243285
-223752
-185692
-196377
-258178
-288229
-292191
-282105
-267365
-254575
-248075
-244965
-245240
-244838
-227736
-219634
-198928
-206689
-218425
-237444
-264126
-283016
-297123
-295122
-302718
-318491
-341593
-352848
-350589
-308962
-343316
-338173
-329142
-318003
-297483
-265559
-246003
-238480
-240521
-258469
-256742
-261301
-266736
-281353
-305643
-338333
-363399
-373275
-369837
-362844
-355985
-364631
-379749
-395269
-387684
-378092
-355172
-348912
-380981
-430327
-158077
-156736
-294253
-280659
-171279
41783.7
150153
168938
158761
116938
79114.8
45574.3
22350.5
4770.37
-13333.8
-43371.3
-70688.2
-108806
-147349
-165991
-160688
-159694
-138203
-181488
-269214
-375380
-413673
-412312
-398917
-427320
-329769
-331321
-325855
-319023
-326214
-317186
-320957
-370811
-462443
-531316
-523278
-483136
-467259
-467925
-474459
-469826
-474750
-455105
-447484
-414160
-391358
-339508
-330626
-307757
-300566
-396353
-538118
-595785
-510257
-608052
-422722
-419831
-425908
-433594
-441055
-429931
-429925
-416934
-396491
-385349
-347246
-316923
-417938
-534730
-555197
-506814
-441556
-329452
-217461
-139903
-110195
-106263
-98399
-93928
-83302.4
-70908.5
-36024.7
-763.524
21771.4
8401.51
-190588
-183994
-180761
-162843
-138759
-126895
-121530
-124604
-119699
-131938
-130127
-144990
-144961
-144602
-148359
-139490
-168558
-149473
-177364
-82553.4
-135559
43667.7
136709
195122
453749
460077
628651
878794
840264
951938
470743
618559
479497
487627
355052
408632
336939
332937
277801
212069
35685.7
-6689.29
-64788.9
-63379.8
-54694.7
-36793
-19502.7
-4842.57
1496.45
-12735.6
-24819.1
-33286.1
-45947.4
-67081.3
-77240.5
-103502
-165049
-227704
-278880
-296566
-517658
-467617
-362774
-228913
-150898
-114390
-106177
-91773.1
-93381.9
-79928.8
-62737.2
-61073.6
-49933.7
-34785.4
-25402.3
-10551.5
3607.34
10923.4
-8622.97
63266.7
18415.8
279429
388690
497689
499338
494669
454059
376196
310317
279654
-365642
-299504
-207113
-204407
-206594
-169103
-184209
-163363
-157244
-141578
-118441
-76325.1
-35790.2
-24200.8
11759.6
44085.4
44434.1
50298.4
175149
467423
431663
191582
-39635.5
-102031
-106933
-76081.6
-125664
-128889
-128993
-45589.4
220867
229321
228777
287274
341759
273367
218233
139877
71308.5
-8813.67
-30986.5
-59633
-58601.5
-38844
-21841
-8917.62
113871
337476
620292
684637
637704
251222
-64112
-107516
-107497
-107508
-107509
-107509
-107510
-107511
529093
528707
464897
502731
485667
513485
517712
531259
536584
514873
428246
235497
-52568.8
-386603
-91125.5
-96628.4
-97822.6
-103181
-107229
-112232
-115356
-112511
-114553
-109116
-105262
-121593
-88078.2
-95897.4
-57047.3
-6811.77
42558.7
91353.6
151475
194678
228056
243622
212396
122115
6520.81
-124264
-245306
-319912
-342423
-404108
-79874.4
-28363.4
-94933
-139323
-146495
-131235
-86352.9
-40231.1
-4005.1
-7493.75
12888.7
39706
80415
119183
150718
180311
214143
243182
266169
280568
284323
269045
195570
87466.3
-52915.6
-176162
-276848
-301665
-319661
-412849
-245392
-198514
-196440
-280457
-304431
-303568
-286030
-268544
-262485
-264340
-275804
-288519
-299756
-304682
-281481
-263882
-224715
-215218
-218668
-238161
-257205
-285348
-284224
-290306
-283520
-301445
-333566
-364614
-350965
-316983
-338090
-332928
-283175
-263171
-217141
-226339
-227532
-257972
-273834
-282998
-285627
-290523
-281352
-277840
-284390
-306582
-333101
-349337
-355071
-351073
-349867
-348593
-358572
-357871
-367563
-359961
-345172
-338679
-344052
-369565
-165335
-165513
-215619
-148902
76175.2
189001
236779
220229
190810
166789
149055
145947
155919
163852
151491
123954
68520.3
27854.4
-71297.8
-140724
-174899
-158205
-137903
-117102
-200451
-318722
-370403
-386468
-384631
-419881
-339357
-355390
-351641
-358083
-324379
-328915
-340739
-438615
-508977
-509375
-475292
-464154
-473055
-490190
-487817
-492059
-471007
-462088
-427438
-404942
-373140
-317572
-275191
-215084
-195609
-198981
-326203
-490400
-560715
-618191
-413089
-396737
-418974
-434620
-449807
-439384
-437000
-425351
-410400
-384454
-344060
-319762
-426865
-579867
-642400
-616554
-537395
-420804
-329606
-304460
-287746
-306485
-315544
-314130
-314376
-309917
-288629
-228308
-112834
19493.8
-227811
-224590
-224767
-206287
-172525
-164439
-158995
-150789
-159476
-149665
-160083
-143657
-143626
-162234
-190692
-263389
-311302
-344678
-352730
-320657
-327303
-231027
-190386
-130897
-85429
101561
475427
804926
965597
1.04546e+06
529313
486977
467612
324678
346452
331540
339585
282963
211494
125531
59740
-27351.7
-60276.9
-88143.7
-122529
-159032
-173391
-163673
-130084
-103496
-50042.5
-50304.5
-49243.9
-52661.1
-54868.4
-73759.2
-96406.1
-164862
-226645
-265846
-430880
-377580
-273803
-169020
-124604
-86419.3
-74737.8
-77614.8
-64367
-48780.5
-45256.3
-37688
-40226.8
-52839.2
-59269.8
-77177.9
-90678.8
-56538.9
-29191.6
10607.8
61576.2
213852
377551
580006
603676
573442
507772
382332
318956
283766
-329956
-256305
-216856
-200278
-141420
-150346
-144479
-170761
-171982
-167626
-172118
-169314
-130998
-75041.1
-22255
-37934.9
-10981.6
87054.1
153415
454290
796303
726173
349167
117677
15446.6
17412.4
23728.2
-35277.7
-41744.9
50906.3
-52299.9
119.157
2549.87
-71494.5
-163402
-229975
-266974
-253712
-259155
-233857
-219427
-196492
-171795
-149023
-125455
-90538.1
-79666.2
-13384.9
54092.2
215647
417508
630069
490301
60553.8
-105211
-107494
-107505
-107510
-107509
-107510
408275
407433
369230
407786
424037
456357
479582
495459
501308
518350
503680
379072
134573
-283460
-60840.9
-88352.2
-97753.8
-84405.5
-65266.4
-45705
-43289
-63049.8
-75254.2
-105776
-111114
-121027
-110833
-84159.3
-74180.3
-31565
37855.2
87929.6
145468
221744
256770
254216
214921
116039
-13149.3
-140886
-256807
-324217
-339409
-381931
-82152.8
-39935.7
-83850.3
-127359
-135440
-118959
-53302.2
7820.43
36483.4
37310.3
13233.9
24115.4
40135
73736.3
116959
164209
205424
240488
262796
275006
267673
235128
158383
64373.6
-60940.2
-185356
-266417
-310009
-322670
-424416
-244981
-209987
-273488
-313356
-311405
-284166
-250950
-249741
-266600
-284068
-311845
-324143
-345188
-352219
-341887
-304801
-260115
-230857
-235999
-238251
-266369
-267881
-282942
-270019
-267576
-289202
-322659
-316727
-289854
-256135
-366782
-325432
-240053
-183477
-198003
-243414
-266249
-296291
-294282
-309400
-314376
-311563
-309358
-296959
-292317
-304456
-323348
-340212
-345470
-346556
-335074
-334642
-337286
-355941
-364501
-364251
-354113
-345798
-342803
-327598
-214812
-123983
-161712
43281.2
178369
255545
260511
228569
215317
201753
205331
216816
248098
260259
249177
203058
173751
95047.2
26015.6
-58902.6
-118139
-125020
-94871.1
-69445.8
-120319
-243803
-313972
-359725
-367723
-390059
-397301
-429141
-425601
-382484
-344413
-338912
-397081
-476999
-497216
-479760
-476367
-499141
-529642
-537593
-546324
-524965
-509083
-486212
-464077
-428165
-404492
-369238
-310802
-221730
-150030
-121229
-154041
-336429
-504777
-553603
-387729
-405737
-441579
-446512
-439422
-422333
-423608
-427324
-415235
-389271
-336889
-320945
-449374
-636518
-706203
-653485
-558695
-474374
-436136
-379590
-343812
-316805
-279121
-265710
-264566
-280096
-305285
-326055
-328247
-191349
-188241
-238266
-266915
-218937
-164681
-111842
-118258
-103756
-90016.5
-112216
-165726
-228954
-297011
-332789
-376189
-404994
-427119
-419828
-431749
-376852
-362434
-295660
-283864
-173423
-203272
-94053.7
60562.1
397829
929514
1.05461e+06
318174
458007
284740
257845
211426
198520
109858
199773
320892
227636
181435
21183.3
68597.6
-31189.5
-19598.3
-60773.2
-86715.2
-123376
-160299
-201774
-237340
-179731
-135266
-97705.7
-82163.3
-62700.8
-68802
-96525.8
-171306
-220463
-403839
-311742
-242740
-152468
-127478
-65892.8
-23766.9
6590
16209.8
18412.7
6424.91
12343.2
29073.1
-1010.75
-31224.4
-30681.1
-34713.5
-38721.3
-77010.8
-25644.5
-2731.96
79489.2
243785
377397
548031
549387
448884
381685
311521
266980
-320039
-277628
-204049
-123625
-141116
-158489
-153078
-143182
-146942
-178408
-162915
-158151
-127240
-138245
-121271
-56514.3
-27304.2
65468.8
77462.5
255278
564511
949791
845580
460387
178970
120687
88066.6
119514
57430.3
135928
-262615
-252662
-235566
-259682
-247457
-273521
-270964
-283718
-277797
-278105
-267189
-256370
-239095
-218263
-192416
-165203
-129686
-80965.8
-65041.6
1021.62
65774.6
191724
367464
489941
222171
-99846.9
-107489
-107505
-107507
-107507
352339
339461
312618
351904
383680
423939
449110
460803
461160
466648
476378
452808
286983
-154117
-71743.5
-75878.8
-63686.3
-35264.8
-1595.57
25453
19907.6
-2026.28
-47557.6
-78562.4
-107718
-115665
-111036
-105167
-59834.7
-39411.4
19106.4
89587.5
147277
223838
276210
248623
166792
73966.2
-45536.9
-152906
-231643
-300480
-330351
-364784
-68153.6
-59903.5
-85648.8
-127643
-150741
-91478.3
-2492.55
56051.3
64486.2
54310.2
51080.5
42964.9
71911.4
113729
150769
182052
206183
219876
218431
199877
166801
121149
78571
11729.8
-68671.4
-175583
-264749
-310499
-322698
-422669
-237612
-257076
-315768
-322528
-288495
-235345
-235741
-261846
-288217
-307108
-324912
-339939
-366653
-374549
-375067
-344198
-287620
-252700
-231059
-253709
-247609
-262274
-242467
-228151
-230453
-279130
-293379
-273388
-234754
-232516
-373870
-297773
-176259
-169583
-224100
-275032
-281724
-299523
-291270
-297843
-299787
-305507
-309477
-295693
-298842
-304338
-325325
-334105
-343015
-332396
-327786
-331115
-354824
-372866
-382127
-377801
-369130
-360386
-334124
-320669
-187583
-146362
-61740.6
136527
253075
276212
253779
249548
237915
232558
232669
258460
271937
281070
242896
191799
152740
104303
99473.8
67567.6
41830.5
18022
4749.59
26285.4
-9658.72
-104139
-218558
-313718
-334445
-347335
-455989
-481557
-442069
-390108
-348316
-371659
-434329
-477841
-472554
-483939
-519962
-561028
-574333
-564101
-543169
-522844
-485486
-458278
-422734
-403844
-387081
-369750
-347695
-267680
-157167
-85301
-91242.9
-237697
-416494
-464085
-364721
-448834
-452815
-448402
-438807
-428478
-416009
-419280
-409424
-381529
-326674
-331020
-502009
-687359
-709311
-612239
-515467
-432503
-365354
-318383
-252646
-185853
-126472
-99560.7
-102633
-119652
-164018
-244254
-322757
-373559
-196674
-257008
-277234
-265383
-159094
-108973
-26759.6
-13724.6
-15778.8
-67956.8
-170360
-293550
-369417
-405962
-427753
-430968
-434593
-434001
-433519
-437084
-401541
-353017
-324770
-207553
-174367
-57666.3
-59420.1
144686
527714
1.10379e+06
355493
276356
228124
167291
148295
107807
160703
234782
276607
302681
124723
106410
76708.1
36410.3
-4780.95
-37877
-67285.4
-82254.9
-106893
-131043
-177804
-217112
-260030
-193630
-124989
-94676.2
-69901.7
-68329.6
-103243
-167823
-357649
-288168
-205672
-163147
-80271.1
-36612.2
9294.96
5988.08
13759.8
-10694.8
-6232
-4717.65
-7374.69
-9705.21
-40126.8
-68730.4
-45397.9
-32134.1
-30322.4
-3824.65
-26400.7
1217.96
52391.8
167721
360077
421335
401899
334029
299467
271437
-263116
-248554
-143353
-168507
-163351
-145376
-174749
-177530
-176861
-167007
-123014
-139640
-104067
-112952
-94146.7
-107962
-68170.8
-20241.6
48565.5
107017
296690
610535
947177
827812
434438
182074
142768
120363
129650
203620
-292680
-243118
-234882
-221991
-243771
-263336
-275880
-284513
-285943
-287201
-284132
-282906
-268535
-263458
-236650
-222865
-193150
-161451
-127395
-84905.6
-45157.8
14070.3
104026
221485
348885
286535
-98532.1
-107482
-107504
-107504
326680
293110
289076
326653
342286
357712
378680
390099
356669
318666
309644
368085
331417
-27122.4
-82545.6
-49903.4
-10979.4
53135.5
134596
171324
161811
86034.3
14480
-49215.1
-83242.9
-102186
-103079
-85465.8
-58390.9
-19091.2
20283
77725.5
173376
235582
250850
206748
88453.6
-30141
-119057
-166945
-204222
-255721
-296161
-355489
-73580
-80533
-104299
-169153
-138932
-50938.3
27045.4
58284.7
66498.5
76964.8
85859.8
93635.6
93581.2
105249
120054
120815
123651
111509
83901.4
53607.2
22198.1
8326.83
-22490.5
-51693.4
-92043.6
-177468
-252723
-296961
-321106
-407048
-254661
-298006
-326652
-305813
-225502
-214778
-247367
-273707
-288159
-294182
-308886
-332324
-365726
-381815
-385059
-363935
-314463
-258134
-239282
-226736
-235894
-217354
-219579
-232058
-274994
-288165
-271324
-247095
-225819
-229345
-379714
-236122
-155614
-190636
-265513
-279392
-290859
-285377
-285222
-282916
-281786
-286836
-286941
-291412
-295899
-311491
-322938
-337091
-330621
-334402
-338193
-365715
-383443
-394105
-390727
-389707
-382277
-358156
-336061
-321790
-248027
-124602
-28503.8
221344
268699
242104
253325
257603
266958
269585
262913
258608
268453
221769
137563
48376.2
-43996.1
-101021
-143582
-141544
-107913
-53293.9
-11703.3
10089.9
27115.1
-8817.54
-119959
-253568
-305205
-302196
-482574
-457475
-414965
-376912
-374994
-405848
-458911
-471380
-493329
-541072
-587253
-592153
-570249
-537842
-503269
-470016
-437649
-397674
-375442
-347201
-356850
-357191
-348471
-316334
-191858
-137933
-163609
-355581
-376152
-350520
-407625
-474249
-449135
-458905
-459806
-439090
-412100
-406249
-387345
-360391
-321282
-376156
-588306
-704173
-659870
-528111
-408440
-357763
-302036
-238508
-167419
-106791
-81242.7
-58108
-48785.9
-54034.6
-64246.4
-122520
-242060
-381022
-233651
-392584
-434246
-375463
-326857
-215596
-162358
-127083
-175829
-256259
-336314
-397598
-436042
-453424
-456884
-467659
-489466
-519191
-557903
-538024
-573158
-487713
-450807
-352813
-217046
15854
53905.6
87365.7
212485
915337
272611
195682
180986
215868
139947
142888
161941
166295
184483
172345
189018
107845
80008.5
73338.4
36226.1
-10054.2
-50022.9
-100052
-108238
-99986.6
-86607.8
-135131
-180539
-244873
-251245
-151840
-119132
-70800.8
-68996.4
-117631
-358233
-249943
-179273
-119030
-73333.1
-22604.4
-18251
-14600.5
-48149
-32761.5
-23790.7
-35716.5
-73511.2
-69254.3
-40671.8
-43706
-69569.3
-8680.21
1122.14
42847.8
36210.5
64308.1
-572.529
73753.1
164811
312677
323041
279945
262573
296940
-270354
-237777
-157163
-141162
-135144
-165892
-141664
-161028
-165599
-153097
-120229
-127783
-90733.2
-78805.4
-55285.1
-61048
-47725.4
2616.86
-31772.2
46519.5
137002
323636
679312
908030
652154
380610
127199
146129
126448
210297
-292457
-263141
-210857
-203361
-236914
-255676
-275517
-279941
-289457
-283012
-288980
-278948
-282329
-263187
-263684
-238121
-234026
-203553
-193224
-147039
-126550
-62420
-43987.5
72773.1
113802
278526
226964
-102161
-107472
-107498
304863
266636
268374
300911
289841
309313
335735
322317
177836
81264.1
77350.4
183568
290970
28205.2
-87126.4
-29664.5
49318.6
177289
257151
286190
204300
123757
54395.5
-2400.65
-52835.1
-63910.2
-67820.3
-50223.2
-33380.8
-10869
49572.2
110277
203723
256882
184870
72976.2
-40625.2
-119487
-156132
-151159
-170125
-215001
-280983
-348314
-95130.6
-107718
-182016
-172366
-119218
-68432.7
-41635.9
-36286.9
-54319.3
-53819.4
-61539.4
-55757.4
-56185.9
-43234.1
-15728.6
-9781.05
-4412.15
-18512.8
-47051.4
-86362.8
-117264
-132043
-153828
-159291
-185584
-212302
-250050
-290816
-314576
-388645
-257783
-314241
-325431
-242580
-207457
-227602
-256010
-260618
-256514
-256952
-280153
-311020
-345222
-372018
-383455
-362970
-325239
-264047
-227088
-214466
-205592
-223132
-242332
-268082
-270284
-250654
-231969
-226377
-235810
-258349
-350844
-191433
-144485
-226159
-264018
-288747
-289167
-292045
-292454
-289721
-288571
-287619
-291292
-297990
-309656
-322315
-330050
-333428
-346177
-350443
-380092
-389286
-402535
-397445
-404797
-401120
-379147
-360490
-335216
-259284
-199783
-147217
15912.2
233118
250478
183983
213063
245820
283122
298211
273704
241943
204554
144435
33297.1
-90194.9
-193916
-266993
-309278
-332644
-344776
-338900
-274728
-190016
-103496
-78391.5
-130702
-237346
-280250
-261388
-461752
-437036
-402472
-389454
-405537
-447262
-475223
-505028
-545679
-589257
-580195
-541096
-471466
-427956
-366601
-341662
-292800
-277013
-244046
-245338
-240322
-300803
-344248
-318328
-262900
-221904
-326372
-357602
-343797
-364899
-426350
-473393
-464386
-484809
-480105
-444892
-408723
-385413
-356538
-339437
-340051
-474470
-649114
-670870
-545532
-410925
-367928
-331671
-295745
-202126
-143040
-109110
-106081
-101075
-74303.6
-41569.8
-28878
-65498.7
-166312
-332947
-269037
-435299
-475852
-488119
-390832
-301614
-167415
-180434
-266534
-349282
-409151
-440655
-463849
-466233
-497646
-534812
-568233
-579213
-601771
-556175
-595124
-512547
-488715
-388019
-352009
-115996
126539
192566
184773
690996
263282
168866
220480
183689
165987
170128
157492
86037.3
86112.1
142895
79849.3
85326.3
107449
63243.6
50152.4
45791.5
15135.2
-42916.9
-134292
-154847
-144968
-95853.6
-107137
-139401
-198028
-253185
-191152
-105461
-51998.4
-79805.4
-332955
-293616
-149793
-92160
-49003.9
-50937.5
-32016.1
-58226.4
-42292
-55597.6
-24942.1
-13308.7
-34434.6
-88315.4
-75749.7
-74624.4
-13858.4
4461.81
59609.8
55497.8
79166.8
79944.4
54395.4
115353
131908
231847
256937
264350
266400
439833
-252557
-201963
-168839
-127548
-87758
-80309.1
-82292.4
-88932.5
-74249.4
-92868.3
-68203.4
-78287.2
-52314.4
-54740.8
-22878.3
-39526.5
27044.7
-3812.08
79774.4
51387
157160
166183
436676
713963
769926
578657
238358
139715
143765
236145
-283921
-239659
-191255
-189479
-214604
-255858
-266383
-280147
-272314
-280404
-267224
-273938
-256809
-258428
-238192
-237029
-215175
-213671
-187024
-182472
-141159
-139795
-67364
-57080
54746.7
121689
246244
52054.2
-107247
-107473
282132
246587
245552
265609
268348
297827
313930
207312
41737.2
1328.84
-14789
40351.3
196380
74292.6
-128112
-125543
-79744.4
-14989.4
103588
240919
360431
348446
249730
149810
88007.1
37376.9
452.227
-20947.2
-34473.3
-18357.3
2315.28
30191.1
101281
195120
220375
157170
47433.3
-69540
-139577
-146260
-146378
-133142
-169078
-240338
-296905
-306734
-229997
-172697
-151092
-190728
-211272
-184051
-131316
-111813
-143368
-185413
-199285
-216607
-217368
-206203
-191241
-168961
-130777
-111568
-112197
-137787
-176046
-190703
-203550
-202248
-211323
-220904
-237920
-234051
-260056
-284076
-312077
-308575
-246313
-271848
-294560
-318253
-265997
-207983
-206116
-232213
-235770
-227353
-207747
-218222
-245595
-284024
-322502
-338259
-359549
-332077
-310823
-266722
-228472
-225380
-233445
-256054
-269212
-259360
-247842
-234693
-233863
-244268
-252455
-278708
-335063
-347513
-260885
-127655
-156249
-203533
-248823
-258389
-277427
-297159
-309400
-314772
-318084
-319525
-323965
-329527
-332131
-338237
-351745
-359148
-368872
-391932
-390976
-421521
-428173
-457128
-451829
-427017
-393577
-354140
-262733
-238097
-212160
-262766
-235475
-170216
-3164.29
202147
205483
120389
143935
160618
233333
268447
253435
204679
158905
92390.9
-15645
-115851
-190407
-232471
-248498
-265587
-281229
-302105
-307344
-299830
-239932
-197685
-208666
-255676
-270977
-281659
-357542
-416588
-441470
-410255
-406484
-422907
-458342
-489574
-528903
-566783
-591377
-578994
-521046
-439774
-363818
-333817
-306766
-288741
-274910
-255325
-244929
-237306
-249361
-267345
-347325
-378990
-336817
-330223
-401385
-379793
-366477
-403693
-461079
-432986
-400753
-467655
-492648
-520005
-502118
-466201
-414479
-378124
-358517
-358508
-424450
-570322
-638287
-555858
-416150
-362588
-355743
-344181
-262886
-205253
-148831
-134093
-126264
-126774
-102936
-42265.5
-3464.7
-58741.1
-134169
-287226
-370119
-315648
-287753
-391293
-562851
-528605
-469564
-400465
-349107
-352636
-396253
-423342
-454551
-470151
-475970
-481786
-515537
-530409
-537203
-534382
-517725
-480520
-457899
-346856
-349866
-206818
-180840
-178886
66670.1
247565
252032
236147
733587
842319
516033
205907
233719
170780
198074
157925
163479
139669
97168.6
77193.7
50510.7
84180.6
75723.8
73286.8
95446.6
86453.8
90190.8
39451.6
-45653.4
-158126
-199972
-186744
-122763
-103167
-106263
-174464
-228444
-195219
-90187.8
-37772.9
-80566.3
-74024.3
-269403
-262981
-197170
-94604.7
-63065.4
-34897
-47135.8
-36945.8
-72360.3
-34480.6
-65059.7
-33653.9
-26238.1
-33311.9
-80805.5
-27485.1
29606.3
58724
52596.2
70195.5
77960.2
113039
98531.5
114591
154750
208210
282129
248590
183939
314951
33894.8
91257.4
109353
52514.2
-32241.7
-91454.1
-62874.3
-48065.3
-35872
-6550.36
-8533.63
25824.4
-5644.11
8391.27
-16304.8
21052.1
-9064.78
47270.4
13735.5
86273.1
64800.6
152113
146165
194773
320208
556531
787356
672633
435251
172706
122176
180172
-40957.7
-240891
-207844
-185728
-165420
-149030
-206438
-243913
-268140
-263110
-265877
-254111
-255841
-242501
-243154
-226370
-226304
-201106
-198839
-172659
-169005
-132406
-133200
-82293.3
-70418.4
14239
30746
135362
164097
209427
-99621.1
-107485
-107479
-107485
268694
225516
227892
250327
255605
292847
304570
180634
27348.3
-1828.65
-17178.3
-30217.3
80739.4
54027.6
-87684.9
-113480
-56457
6294.44
109264
275271
412238
387733
287788
196627
118480
70788.9
25038.2
10792.9
-1111.71
21317.2
68022.1
121444
189131
195049
134183
11928.2
-79060.8
-161766
-200446
-198505
-163956
-140454
-161927
-246931
-280194
-247815
-207423
-198783
-234825
-248096
-231361
-185208
-171558
-185898
-203304
-222619
-238234
-226297
-233986
-224583
-214410
-198034
-180532
-174083
-180499
-192091
-197845
-209012
-208394
-204604
-213977
-228775
-229987
-247099
-261345
-279829
-285459
-260006
-255474
-295139
-311574
-288199
-219751
-201563
-207845
-215273
-213726
-182381
-168948
-168911
-194955
-246354
-274078
-291629
-301166
-290637
-279319
-253854
-241831
-244194
-249463
-254097
-240073
-232825
-230669
-258359
-287605
-301035
-307032
-318351
-318185
-263797
-145735
-99858.5
-124087
-169991
-180397
-200133
-221338
-242094
-269958
-301452
-329265
-349354
-357224
-357841
-358419
-366291
-378213
-385017
-413996
-424015
-481791
-498285
-522205
-499799
-465613
-411792
-349478
-263995
-228726
-210227
-217535
-248281
-245360
-202643
-38535.9
139464
142137
74961.3
42692.6
63100.9
111207
169118
189255
171995
122488
57127
-9268.87
-88586.3
-144988
-163508
-172302
-169655
-184421
-200694
-215658
-218131
-216100
-229430
-242689
-273208
-296951
-347393
-371080
-413713
-413215
-417641
-423918
-469988
-500419
-550349
-572553
-588002
-571184
-502305
-413891
-373586
-338967
-309711
-289813
-257638
-241346
-229175
-242615
-233594
-229841
-232379
-299278
-390313
-399101
-369221
-394650
-435443
-426371
-437698
-468698
-461198
-452143
-488344
-522953
-543661
-532526
-490124
-447553
-411578
-394425
-434204
-515941
-592537
-549244
-428463
-370491
-368385
-384416
-352842
-279615
-218365
-194719
-180374
-170597
-150737
-105552
-35478.3
1111.04
-42786.8
-118569
-260983
-378223
-319293
-283374
-488684
-596389
-570220
-526177
-468394
-413580
-416554
-432685
-454640
-467728
-467891
-479003
-477309
-484075
-487276
-482694
-466462
-451255
-381354
-360461
-214372
-193125
24997.3
28876.2
136168
64873.4
282298
322581
338444
254252
728986
674647
344607
143998
169155
162860
214009
147136
223051
120339
102181
156244
96194.2
118663
142210
145760