/*--------------------------------*- C++ -*----------------------------------*\
| =========                 |                                                 |
| \\      /  F ield         | OpenFOAM: The Open Source CFD Toolbox           |
|  \\    /   O peration     | Version:  2.1.1                                 |
|   \\  /    A nd           | Web:      www.OpenFOAM.org                      |
|    \\/     M anipulation  |                                                 |
\*---------------------------------------------------------------------------*/
FoamFile
{
    version     2.0;
    format      ascii;
    class       volScalarField;
    location    "0.003400000";
    object      Xi;
}
// * * * * * * * * * * * * * * * * * * * * * * * * * * * * * * * * * * * * * //

dimensions      [0 0 0 0 0 0 0];

internalField   nonuniform List<scalar> 
12384
(
1.99662
3.26191
4.32999
4.72624
5.33808
5.62128
6.64316
6.99285
7.86805
9.47349
13.2671
10.4133
7.42529
4.7477
11.1856
28.4866
48.9239
66.1152
79.7519
88.9432
96.3194
102.157
108.382
110.816
114.603
105.862
112.286
80.166
75.9595
71.1958
64.407
56.8153
45.3788
34.9647
29.8959
27.3373
29.222
33.5085
40.4651
46.9756
38.1029
24.4974
15.4801
7.80176
37.1704
40.8375
43.5225
48.6975
54.1562
51.6658
50.5602
45.1154
40.9468
37.9105
35.0542
32.9429
31.9968
30.3692
30.2667
29.4942
30.2928
31.0702
30.7058
30.9727
29.9725
28.0173
28.0677
31.6217
38.1451
36.2823
35.8913
31.3969
23.6047
12.3786
44.9487
62.6441
73.219
80.3652
84.2315
90.0832
98.6857
110.428
124.999
140.071
155.197
167.389
175.833
177.992
167.317
156.743
140.09
125.244
115.847
109.238
99.9829
91.6724
80.4139
71.0668
56.1405
42.6754
29.0678
20.1363
15.8935
9.66236
49.0229
67.0576
78.4605
86.4932
89.4934
94.0069
98.1553
102.776
106.318
108.24
110.56
108.944
107.014
107.173
106.004
104.046
105.829
104.788
104.433
100.627
93.5678
84.2332
75.0174
65.7454
55.9696
52.2325
47.1651
34.6541
23.4566
10.5062
27.9171
48.2172
54.8846
64.5146
67.1099
69.8943
72.5005
79.4744
87.1263
104.191
114.658
122.467
125.385
124.22
123.464
122.37
128.492
131.009
131.055
118.666
107.774
101.273
83.5261
73.885
67.8518
57.8144
46.0459
31.7554
19.3029
9.33141
31.0767
48.5925
68.081
70.8081
72.4907
74.124
72.7855
72.0457
70.6897
70.7263
69.1707
77.5916
93.0078
112.019
111.333
126.612
137.852
153.284
166.997
173.211
183.318
171.745
152.052
123.921
96.194
70.3447
49.3905
32.98
20.4236
6.91714
6.28446
12.1769
18.2396
20.6827
22.3749
20.3608
18.204
15.3508
12.6416
10.2586
7.93505
7.16318
7.23351
8.50668
9.43643
9.8428
12.1663
12.4607
13.8429
14.6593
14.2061
14.3114
14.5033
14.3595
13.6911
11.3895
9.32783
7.82729
6.10681
3.72667
3.8637
4.77063
5.33068
5.89757
6.14823
6.17708
6.61092
7.15033
7.87885
8.46104
9.11743
9.2194
9.26414
8.69675
8.28048
7.55514
7.27586
6.54862
5.84887
5.73772
5.84416
3.95617
3.92723
3.05803
3.04048
2.67513
2.4992
2.18731
1.95263
1.81607
2.26027
2.33383
2.72755
2.7929
2.93098
2.93845
3.16473
3.22981
3.21593
3.57044
4.61533
4.97059
5.04073
5.30292
5.27401
5.22098
4.93357
4.61879
4.13205
4.03153
3.79307
3.99519
3.77956
4.01503
3.76538
3.42599
3.2195
2.81466
2.72891
2.63994
4.25732
4.57928
4.68367
5.07128
5.14474
5.09776
5.05085
4.94093
4.9155
4.86755
5.07837
5.08429
5.26643
5.14868
5.22164
5.11221
5.17723
4.8481
4.6796
4.25506
3.35815
3.00434
2.68946
2.59295
2.43824
2.41588
2.27096
2.17427
2.08849
1.94593
5.10497
5.40396
5.55517
5.3659
5.36758
5.31404
5.45571
5.21856
5.57702
5.3182
5.69302
5.55577
5.68514
5.55145
5.33656
4.86008
5.03999
4.74951
4.42006
3.86277
3.55199
3.48222
3.37074
3.30448
3.34042
3.25278
3.23918
3.28482
3.26619
3.31018
2.81424
4.21707
3.89115
4.37369
3.17769
3.43214
2.94247
3.02214
2.73219
2.76223
2.60528
2.62007
2.51983
2.51876
2.47585
1.56768
1.09754
1.01743
1.00094
1.00002
1
1
1
1
1
1
1
1
1
1
2.64166
3.10647
3.97565
4.68133
5.19791
6.6244
7.27984
8.95423
10.5465
13.0789
16.4386
23.4095
12.8032
10.7851
25.4565
46.6133
68.1473
80.7881
91.1626
100.677
109.811
120.918
131.174
139.087
146.232
142.8
134.581
112.063
102.365
88.7697
83.1726
77.4818
69.3814
57.6742
49.0099
45.6915
46.5522
53.1057
64.9931
84.5117
68.8808
43.4135
23.9571
16.336
63.2242
45.484
53.8713
70.7487
82.9807
83.9702
77.2196
70.0972
59.1547
51.2558
43.1716
37.4517
32.5842
28.9729
26.2199
24.5678
24.2004
24.7486
25.5358
26.2798
27.6885
29.4408
32.4623
38.9377
56.3405
55.0273
52.2156
45.557
31.4215
22.6468
65.5144
56.0848
60.3147
63.6779
69.3547
82.8285
103.746
126.569
148.849
169.453
188.753
206.845
223.07
235.091
249.428
251.224
258.679
250.387
240.181
218.933
193.252
166.045
143.153
125.042
110.602
95.376
76.6319
56.6335
39.207
28.4191
75.9863
75.4342
80.1447
82.6435
86.1369
92.097
99.6137
109.717
120.378
132.365
139.434
143.781
145.472
141.705
138.345
130.974
125.659
120.606
118.922
117.283
116.213
110.371
102.013
89.9451
79.3249
72.7928
67.384
52.5951
35.3514
25.5811
53.8271
78.8053
113.965
145.953
177.754
202.524
217.858
216.667
149.335
131.472
126.025
123.804
124.607
129.101
133.887
132.248
138.086
149.031
161.201
172.379
171.082
161.978
143.468
123.931
98.6749
76.4389
59.3899
41.6929
25.5793
18.4075
54.2851
62.0702
75.3556
80.8943
80.806
79.2879
80.2787
79.5313
86.1519
92.7952
104.149
126.604
142.198
145.198
145.866
150.378
161.807
174.306
189.517
199.442
211.68
213.223
210.817
195.124
169.315
130.389
83.3558
50.09
27.5873
16.0372
11.2774
12.4227
17.6307
19.7285
19.5471
18.3926
16.4982
14.8445
12.937
11.0214
9.47693
9.04271
10.0583
12.6961
13.7191
13.9003
15.1953
17.4656
19.7019
21.2181
21.1322
19.739
15.7257
12.675
9.77814
7.62341
6.12327
4.76789
3.84163
5.1141
5.16965
3.12641
3.53075
3.99906
4.33258
4.67721
5.12695
5.72017
6.27621
6.81617
7.09986
7.29786
7.11979
6.83452
6.48081
6.08867
5.70754
5.29582
5.0407
4.78078
3.42166
3.29068
2.77646
2.85215
2.62684
2.38729
2.24068
1.7302
1.58506
2.07439
2.89323
2.00922
2.38429
2.84574
2.97
3.4978
4.11925
4.7491
5.70791
6.38113
11.7682
9.43063
10.3849
9.42704
8.25611
7.22544
6.17135
5.22828
4.56706
4.05153
3.72527
3.63845
3.46455
3.57107
3.32218
2.81439
2.30599
1.9759
1.81861
2.8529
4.86576
2.5671
2.6521
2.89607
3.09928
3.36895
3.48492
3.66535
3.72598
3.87562
4.00798
4.16873
4.20565
4.20409
4.08339
3.93197
3.69007
3.42619
3.12172
2.72468
2.27338
1.94788
1.94259
1.98882
2.02349
2.02254
1.91385
1.83751
1.74184
2.53111
5.52019
2.90501
2.81436
2.80585
2.74495
2.671
2.68706
2.70524
2.79324
2.86308
2.96173
2.84788
2.82098
2.79756
2.82647
2.89982
2.92282
2.83978
2.34997
1.97049
2.34733
2.61344
2.66548
2.65478
2.59561
2.39255
2.23766
2.15127
2.13761
3.4477
3.57883
2.21956
2.42518
1.91815
1.86678
1.76506
1.73938
1.69817
1.66652
1.65509
1.6647
1.71527
1.76668
1.88942
1.93989
1.88389
1.69513
1.16957
1.07814
1.03519
1.00547
1.00001
1
1
1
1
1
1
1
1
2.54925
3.62539
4.9041
6.28726
7.27212
8.44498
8.73676
9.70628
9.53005
11.6199
15.0487
22.0218
25.5373
20.3557
44.5593
66.7519
77.0191
84.6898
94.2639
104.11
113.304
119.633
126.725
133.145
138.026
145.235
150.3
139.509
107.46
94.232
80.3308
66.5401
57.5556
48.7349
41.5069
39.5381
41.303
50.1064
64.9763
88.9143
69.5133
45.8089
28.4569
20.8065
71.9068
52.635
74.4854
104.049
116.476
119.766
116.442
92.054
82.0894
70.0649
59.1042
49.2229
41.1159
34.8734
30.2538
27.0452
25.0872
23.8555
23.174
22.7911
22.6961
23.6927
27.3753
35.0844
52.2427
59.8158
57.3401
50.6537
38.1179
26.224
72.1453
58.3973
61.903
68.4191
83.8387
104.889
121.967
131.852
137.313
142.605
149.172
157.397
166.719
175.342
189.519
198.435
217.964
223.36
230.725
222.099
202.248
179.261
153.859
133.882
115.612
100.984
82.71
64.2317
48.1596
38.9407
86.2458
85.6083
84.9855
87.1331
94.7579
106.978
121.344
136.332
149.882
157.755
163.367
165.114
160.166
153.644
143.688
134.743
126.55
121.865
118.023
117.63
116.483
113.502
104.547
95.3814
88.2914
88.5816
85.5732
71.8672
55.1387
40.5218
70.6464
103.585
142.23
188.331
212.893
229.722
177.136
152.394
138.839
134.497
126.904
118.898
111.501
106.241
105.95
115.514
132.885
154.527
159.93
165.128
168.885
163.474
155.957
137.923
118.084
94.5063
74.4784
51.1292
32.0355
19.7644
63.5856
66.7316
76.1086
81.6893
84.0248
85.6803
89.3593
93.2692
104.43
123.269
151.623
165.609
162.417
154.743
151.036
148.516
154.387
156.96
165.042
167.389
173.304
177.104
176.814
180.077
183.057
183.824
151.713
102.681
58.8073
38.0004
19.7825
26.2991
33.922
35.0446
31.8794
28.0396
22.8591
18.4412
14.5713
11.7128
11.0007
11.4325
13.1778
15.3446
15.1898
15.0789
16.7947
19.813
23.5098
24.2584
24.6405
23.2255
20.9098
18.4515
15.8263
12.6114
8.93129
6.59034
5.2436
6.40514
6.66381
4.05422
4.54396
5.26748
5.72428
6.28781
6.86095
7.62707
8.53141
9.05958
9.33421
9.2321
8.74955
8.29094
7.52556
6.83253
5.90617
5.342
4.92712
4.30563
4.53476
3.22121
3.25468
2.93482
2.6268
2.72907
2.45034
2.13069
1.94228
2.47293
3.33024
2.10038
2.35902
2.45289
2.72383
2.96821
3.64689
4.48851
5.35763
6.36707
10.3855
11.3582
10.7033
10.0683
9.43206
7.94809
6.33076
5.14569
4.29088
3.80504
3.38169
3.13343
3.01785
3.09494
3.0623
3.03039
2.81243
2.29832
2.06663
3.10866
6.17393
2.91659
2.91501
3.08174
3.16087
3.30185
3.44956
3.64936
3.77741
3.98229
4.23044
4.29784
3.98223
3.58199
3.22483
2.95961
2.86405
2.81761
2.83645
2.5616
2.60941
2.20264
2.21968
2.22962
2.26661
2.22777
2.17635
2.05864
1.96231
3.2385
6.38968
2.92822
2.74561
2.61303
2.4855
2.4045
2.46606
2.46007
2.54851
2.68739
2.71914
2.68507
2.66913
2.8478
2.88404
2.82552
2.94493
3.00073
2.5048
2.04234
1.95337
2.15536
2.59639
2.83184
2.78244
2.51488
2.54186
2.43641
2.36592
3.66759
2.88155
1.64961
1.64781
1.5686
1.54878
1.57493
1.62552
1.69588
1.78094
1.97278
2.11203
2.33268
2.38854
2.41407
2.39839
2.34743
2.12397
2.02708
1.54459
1.42158
1.31282
1.13349
1.00651
1
1
1
1
1
1
1
3.08317
5.36728
7.61609
8.96124
10.3804
11.0488
11.7326
11.9475
11.9655
12.1707
13.7618
21.5156
38.3841
35.7469
61.4366
72.9736
81.2027
89.9208
99.0322
106.415
113.339
119.962
124.123
128.7
131.195
131.526
136.604
142.913
124.24
101.752
82.8055
64.8206
50.3835
41.7077
36.1005
34.6247
38.3312
49.8389
67.8656
97.5979
73.5389
49.6895
33.3403
23.7645
72.9273
61.481
92.3951
122.85
136.92
136.785
126.494
89.8582
74.1688
74.4561
70.0242
63.7629
54.1269
45.7232
38.6642
32.8978
28.4716
25.4455
23.5386
22.3013
21.5848
21.8013
25.4024
34.0447
55.2772
65.4597
64.6261
57.5725
47.822
31.1538
78.0916
62.4371
66.7376
82.5554
100.87
112.425
111.396
111.523
115.349
120.835
126.144
128.589
130.552
129.686
135.537
141.171
160.917
176.637
196.355
200.872
196.927
176.916
157.191
133.549
118.785
103.507
88.6561
71.1196
62.901
51.3555
94.0157
93.5123
93.9311
98.6043
113.384
131.156
151.943
167.203
173.525
174.774
173.89
170.334
167.323
157.594
146.319
135.083
127.231
121.277
118.394
117.995
119.658
116.501
110.712
103.296
102.72
104.174
98.4342
86.4191
75.2658
60.5569
88.8514
121.652
173.344
212.522
231.347
166.356
146.719
145.922
140.396
130.776
119.925
105.702
91.3013
80.1853
74.9284
73.8239
80.3471
87.233
123.382
142.178
145.826
150.888
145.878
139.258
126.507
115.575
100.942
76.5579
51.2742
27.9898
73.3232
69.8978
77.7408
83.8508
91.4853
96.9706
105.296
113.112
134.611
170.376
184.494
177.013
163.911
152.918
145.77
143.549
143.395
145.545
148.505
151.888
154.968
160.913
162.401
164.18
167.627
185.865
196.243
166.687
106.381
67.116
29.7127
51.1173
57.1264
56.3533
49.9997
42.4603
33.4926
25.1417
19.6213
16.6652
16.2452
17.0234
18.3313
19.4148
17.7343
17.4453
19.9449
24.1026
27.2326
27.7484
25.7647
22.3272
19.452
16.8806
14.6246
12.7512
11.4643
10.3636
10.1111
8.96273
7.66653
5.4241
6.64186
7.47088
8.50227
9.10472
10.1869
11.3122
12.658
13.3874
14.1302
13.5759
12.6625
10.9735
9.14126
7.0272
5.71256
4.69172
4.0698
3.92022
3.73064
3.95114
4.05332
4.06126
3.63282
2.75725
2.29941
2.36066
2.28197
3.24609
3.74806
2.34147
2.34019
2.58785
3.00904
3.72935
4.44313
5.20524
5.98533
6.98056
9.13684
12.4695
11.372
10.5922
9.27478
7.9864
6.75755
5.70857
5.0155
4.32022
3.51643
3.25819
3.11831
3.00343
3.00737
3.05119
2.98907
2.81888
2.46599
3.92106
7.69098
3.356
3.45064
3.42757
3.44998
3.52148
3.81107
4.01814
4.34966
4.56439
4.74813
4.79209
4.58618
4.24949
3.61422
3.25028
3.0243
2.7146
2.63054
2.56561
2.46626
2.27752
2.20557
2.19016
2.2479
2.25739
2.21021
2.20351
2.13359
3.90716
7.02829
2.95944
2.53401
2.33847
2.3274
2.34519
2.3242
2.3518
2.32549
2.37238
2.51621
2.66525
2.92437
3.06015
2.89646
3.22703
3.18093
2.89867
2.70065
2.22822
1.99784
2.02017
2.23285
2.50082
2.64787
2.54205
2.37988
2.56375
2.64709
3.88081
3.62198
1.79088
1.77643
1.98634
2.06555
2.0378
2.00584
2.0133
1.99516
1.98191
1.98991
1.97783
2.01204
1.99207
2.02252
2.03075
2.05183
2.13879
2.04658
1.88882
1.8527
1.93491
1.32155
1.12556
1.00001
1
1
1
1
1
4.39396
8.38055
10.7052
11.8354
12.5705
12.932
13.3135
13.6941
14.1554
14.3308
14.7191
19.0937
34.5088
62.0487
66.9314
77.0736
86.4852
97.4832
107.615
98.3417
99.6385
113.07
118.903
121.98
123.054
121.854
125.381
129.174
132.674
109.563
82.5034
64.5328
48.6344
37.5699
32.4255
31.7751
37.1146
50.7473
74.8983
104.323
83.2035
60.634
43.4186
32.714
77.2996
67.9378
101.467
140.504
151.179
142.343
104.148
67.3769
56.5345
56.8875
63.5007
62.3849
58.7835
50.241
40.9656
33.5724
28.4511
25.0742
22.9668
21.7288
21.3936
22.6234
27.5783
37.1347
59.7521
69.957
74.6111
68.9629
61.3873
41.8534
84.1083
68.0248
79.7169
97.1852
104.685
99.6679
101.591
108.881
117.102
124.747
130.359
131.658
128.815
118.752
110.227
103.439
113.635
131.904
155.494
173.689
174.209
168.524
148.905
133.506
118.624
108.985
95.7908
86.3193
86.8561
71.5493
100.941
103.233
106.266
120.054
141.593
163.52
186.096
194.095
192.373
180.614
170.576
162.575
155.528
150.239
141.153
131.943
125.312
121.01
118.884
122.157
125.132
124.297
118.76
117.242
116.374
111.568
103.542
96.8663
91.5334
86.5023
117.576
142.543
196.208
227.812
163.156
145.846
141.883
144.653
141.113
135.276
121.733
106.218
89.2009
78.8049
74.0943
75.2492
75.9693
85.2553
97.334
124.616
139.726
136.263
135.568
130.077
124.461
120.977
123.06
117.4
93.2041
50.6545
86.1032
73.7863
81.3386
93.3273
104.445
114.599
123.553
140.25
175.521
194.442
187.312
169.36
157.342
149.081
145.639
142.819
144.393
145.768
148.863
152.081
153.956
154.079
156.062
155.64
155.168
164.505
192.3
196.585
153.473
94.3254
52.8248
82.6888
83.6418
85.3658
78.1688
65.2301
50.8818
38.8649
31.9163
27.9559
27.2001
27.5436
28.7999
27.0981
22.8206
22.177
25.2334
28.9588
30.5417
29.0829
28.2459
27.673
26.6625
25.0412
23.3105
21.2408
18.5561
14.1566
11.4429
15.8389
9.57807
7.02535
7.69898
9.25059
10.4663
12.2021
13.8045
15.572
15.6355
18.2515
16.196
14.6797
12.2895
10.3587
8.38173
7.07918
5.98676
5.31978
4.66148
4.55783
4.44263
4.54022
4.58379
4.54036
4.13777
3.22336
2.47273
2.20372
2.38052
3.79314
4.89078
2.51648
2.51334
2.79317
3.74978
4.83252
6.09801
6.42857
7.09629
9.53949
10.8239
18.4067
14.2306
14.3323
11.9842
9.49643
7.37177
5.66011
4.47916
3.68521
3.26867
3.25048
3.33176
3.04855
3.0398
2.97263
2.966
3.02621
3.12238
5.11454
8.67158
3.81535
3.77388
3.68687
3.58813
3.81207
4.19147
4.72002
5.14603
5.50461
5.70364
5.61443
4.76225
4.56247
4.07919
3.30635
2.78902
2.46034
2.50423
2.29396
2.37112
2.26599
2.13685
2.1092
2.07177
2.1122
2.15295
2.2722
2.38961
4.62664
7.59746
2.81987
2.4494
2.45909
2.49431
2.51098
2.55982
2.55293
2.54537
2.49151
2.51497
2.56265
2.66622
2.82373
3.06694
3.15437
3.17965
2.83151
2.89744
2.44609
2.12221
1.95022
2.02398
2.21571
2.49548
2.4565
2.50108
2.50802
2.87313
3.8425
2.89967
2.00181
2.0869
2.02355
1.95352
1.91518
1.89987
1.89837
1.89193
1.87641
1.86372
1.85531
1.83616
1.84138
1.82704
1.83154
1.82998
1.85029
1.87885
1.86626
1.80022
1.72483
1.72594
1.85304
1.20389
1.0003
1
1
1
1
5.68717
11.7702
14.4313
14.8886
14.6695
14.0956
14.1739
14.6887
15.7555
16.8621
17.6741
19.4722
30.1609
89.5503
89.244
85.1246
95.2876
88.9156
76.894
67.5635
67.1513
72.6833
91.403
108.124
112.214
113.596
116.37
124.695
117.18
114.447
87.311
63.1855
46.973
35.3248
30.0254
31.0747
40.5672
57.8937
87.5167
117.851
104.206
84.3578
60.8955
44.4808
76.4272
80.1163
117.255
149.474
150.503
134.291
71.007
47.7645
42.9707
44.3109
46.377
47.7937
42.7724
36.3964
31.2115
27.3272
24.705
22.9711
22.2663
22.9021
25.3228
29.7853
35.3192
44.7925
65.4954
76.9308
85.8297
84.6091
77.3335
57.1472
93.8683
79.8156
96.2913
101.033
92.7522
95.9501
105.313
115.542
125.686
133.67
139.458
143.88
142.373
135.18
121.501
103.5
96.8656
103.124
126.693
142.186
154.28
147.863
141.528
128.085
121.376
111.688
103.39
99.4305
107.013
89.1171
112.987
112.871
124.805
146.27
174.881
200.105
219.2
220.722
212.26
195.147
176.494
163.491
152.814
146.821
139.728
132.51
126.482
124.816
127.015
133.834
137.346
135.115
131.654
127.458
121.144
113.994
108.211
105.094
106.438
109.725
145.654
160.033
215.465
160.61
137.015
133.964
136.488
135.988
138.177
136.723
129.372
114.04
99.6722
90.8402
91.6976
98.8898
104.232
112.745
103.762
97.3865
89.5259
83.912
81.7685
73.4292
83.2564
117.195
131.27
156.326
149.795
92.1147
103.73
81.6155
95.7726
110.163
123.451
132.952
145.835
176.42
197.954
193.419
175.556
162.414
154.485
148.971
146.257
147.089
148.18
151.842
153.616
156.964
156.909
157.095
151.216
147.009
143.241
145.538
171.736
195.222
175.139
117.702
88.7467
113.066
123.079
127.442
114.615
96.0183
78.3523
64.4483
56.8119
52.1341
51.7922
53.4184
52.9473
43.3307
33.7641
31.1732
32.6218
35.3005
38.7004
42.0443
44.6217
45.5651
45.4508
44.5604
43.8606
42.4627
38.1439
27.5607
19.1082
17.265
10.2494
9.49858
11.8227
13.6367
17.5384
17.8122
17.0248
17.1801
19.4539
21.232
21.9188
17.155
13.5474
11.4088
9.59935
8.15787
7.02436
6.24916
5.81034
5.5898
5.70258
5.64131
5.62095
5.38507
4.89791
3.48762
3.04039
2.2945
2.20212
4.31988
5.51234
2.73417
2.58671
3.11522
4.42233
6.00141
7.12098
8.17484
9.53931
11.115
15.4241
19.9084
17.497
17.759
15.182
12.1344
9.08883
6.51326
4.94743
3.89555
3.14899
2.74723
2.64605
2.77564
3.01805
3.06634
3.03838
3.30429
3.74601
6.9228
10.0119
3.93562
3.80492
3.59709
3.75206
4.06183
4.31237
5.06771
5.5004
5.77663
6.1081
6.48785
6.21612
5.72808
5.52814
4.66665
3.4783
2.89138
2.47868
2.26378
2.3137
2.26235
2.25256
2.11719
1.95683
1.98873
2.03288
2.22188
2.57895
5.25604
8.12037
2.95563
2.61406
2.54219
2.60198
2.73139
2.82605
2.78779
2.87086
2.79468
2.86294
2.79884
2.83537
2.81559
2.89534
3.01685
3.28427
3.14642
2.75969
2.58434
2.2355
1.94789
1.82613
1.90151
2.14073
2.41737
2.5333
2.73953
2.97791
3.64141
2.42531
1.93744
2.11913
2.01176
1.96156
1.87611
1.84881
1.82141
1.81868
1.80428
1.79745
1.77796
1.77171
1.74621
1.74226
1.72159
1.71499
1.70182
1.70579
1.71426
1.74239
1.69836
1.61993
1.61837
1.66741
1.20739
1.00003
1
1
1
7.41346
16.4343
20.1197
19.414
18.1857
17.0502
17.2532
17.6792
21.6027
25.6884
26.8874
25.3709
32.0517
83.2988
112.282
88.5944
76.5004
58.8623
43.8422
37.2797
37.2284
46.1138
60.5297
81.9998
102.225
106.719
112.897
123.611
119.166
105.235
88.9913
64.3607
42.3462
33.091
30.1616
35.2627
55.1015
87.0361
123.022
126.221
122.095
111.44
84.8583
60.0015
85.7749
97.8685
132.157
147.309
144.339
99.6805
56.3985
42.5316
38.449
35.6726
34.2779
33.2114
32.5369
30.7624
28.6034
27.2072
26.099
26.7727
29.8095
35.1241
42.1894
46.5514
53.1203
62.6359
80.5006
87.904
101.462
104.567
95.881
75.7065
109.674
98.8042
105.9
93.9388
93.4535
102.524
113.626
123.906
131.133
137.239
144.786
153.168
157.616
154.747
143.394
123.228
110.743
108.414
115.077
129.609
136.254
138.747
132.677
128.386
121.867
117.342
113.084
116.924
118.254
106.155
129.918
128.783
146.609
172.526
199.574
221.587
236.387
241.659
239.138
221.645
204.306
185.791
172.433
162.449
153.853
145.845
142.75
142.881
150.134
154.068
152.363
146.321
137.998
125.285
113.601
105.659
103.32
107.895
114.198
134.301
164.125
182.724
222.938
126.722
119.311
128.875
121.751
119.441
121.967
128.926
132.904
129.541
116.694
119.072
144.758
194.364
246.025
242.809
227.771
211.574
184.139
131.627
89.2349
73.7847
69.4408
83.8763
138.615
177.584
203.442
141.139
128.667
103.814
119.895
132.734
142.244
152.211
175.025
200.264
200.284
182.036
165.918
155.901
148.53
144.959
145.327
146.226
150.945
153.691
159.244
161.1
162.95
160.137
156.069
142.661
136.691
134.821
168.715
185.958
166.298
130.933
129.122
140.916
157.328
161.887
148.226
134.951
118.485
106.239
101.38
100.597
107.134
113.203
104.079
78.182
60.773
53.0188
50.775
54.176
61.4539
70.2473
73.9773
75.3845
75.0755
75.8402
78.3654
77.9171
70.1271
49.3274
32.9698
28.7195
15.0553
11.5488
12.1449
14.1152
16.5428
19.9368
22.4107
25.3743
24.9977
23.4096
20.4997
18.1354
16.2185
14.3681
12.3871
10.3155
9.05171
8.39924
9.05335
9.17938
8.96254
8.52254
7.93826
6.96946
6.22372
3.79656
3.11047
2.65853
2.28058
4.73946
6.79909
2.95727
2.8236
3.29188
4.7501
6.59699
8.35653
10.0605
11.041
11.6096
11.4921
12.0452
13.1079
13.5737
14.4961
14.8299
12.7266
9.20566
6.049
4.17015
3.08846
2.83918
2.48775
2.29814
2.45635
2.97954
3.25756
3.56036
4.36242
9.08693
10.1445
4.31297
3.73276
3.73901
3.8862
4.00702
4.66413
5.03439
5.21157
5.53709
6.22699
6.71419
7.0745
7.68685
7.38794
6.11234
4.9244
3.38551
2.86073
2.44333
2.3482
2.18984
2.36665
2.13855
2.0091
1.90584
1.94012
2.13878
2.50354
5.71096
8.16791
3.44367
2.8364
2.6934
2.72115
2.95786
3.27126
3.37779
3.6026
3.38714
3.34664
3.20878
3.17639
3.1147
2.91625
3.0377
2.91633
2.76706
3.01032
2.55434
2.29911
1.9745
1.73501
1.66414
1.78964
2.01691
2.54494
2.69254
2.92012
3.56307
2.37
2.02829
2.1338
2.11019
1.96428
1.89339
1.82597
1.80051
1.76521
1.75219
1.7279
1.72188
1.70564
1.70078
1.68187
1.67054
1.65256
1.63789
1.61835
1.61936
1.61333
1.63823
1.64787
1.5292
1.62
1.53917
1.14996
1.0005
1
1
9.52756
22.4829
26.3647
24.9776
24.1153
23.1913
23.3517
25.283
37.9026
53.2025
57.0325
44.3398
42.2155
87.4705
131.337
95.3896
62.3272
39.4722
29.8314
26.967
31.0437
40.1578
52.4795
66.2194
86.5476
98.2831
110.655
110.792
114.01
107.724
80.6342
55.9894
37.7284
31.7856
38.5403
61.345
96.6958
125.424
114.451
110.637
118.311
122.82
105.269
86.9883
126.692
121.873
133.72
143.25
135.026
100.838
80.6544
73.2788
75.5794
72.5407
73.0069
68.3061
65.8112
58.4013
49.7426
47.0647
45.9498
50.2895
60.1505
75.5923
83.1158
81.1497
79.0509
82.5044
91.3657
101.986
118.445
122.939
115.12
94.337
130.253
111.612
102.337
91.2998
98.4465
108.91
120.176
127.336
132.898
141.984
152.197
167.081
178.804
179.881
169.872
152.451
137.638
128.446
128.984
132.822
140.406
138.933
138.86
133.658
131.118
128.624
129.112
125.103
118.367
122.491
154.621
147.603
164.683
182.051
196.936
209.675
222.774
236.766
245.578
246.019
234.113
218.934
204.116
191.535
184.08
179.067
177.934
179.877
177.527
168.652
151.751
132.413
111.066
96.2575
88.6777
86.4668
91.1835
99.8152
118.283
163.047
191.549
203.961
187.824
111.849
108.638
120.804
108.358
100.144
100.408
111.59
133.14
147.902
151.855
169.977
246.516
265.408
263.961
259.371
257.075
240.872
223.975
196.183
168.762
148.289
138.058
137.458
150.619
190.002
241.773
197.005
159.919
126.486
141.137
152.449
159.649
175.475
201.205
203.259
186.618
169.422
154.512
144.68
139.128
138.942
140.244
145.098
148.771
155.829
159.495
164.336
164.255
161.709
155.756
145.329
130.989
146.121
173.983
181.078
152.209
141.39
186.057
170.706
181.114
179.84
177.948
168.812
161.893
153.796
153.66
157.959
172.987
176.52
152.05
119.588
106.172
97.1488
90.6647
91.4603
99.7868
107.929
113.38
112.249
111.066
114.518
123.196
125.229
112.067
77.0581
48.1545
46.0325
17.0621
15.4097
17.0837
18.0617
22.1812
25.0431
31.6943
32.7992
32.278
28.5414
26.4875
25.1743
23.0929
21.0013
18.0632
15.5846
15.4369
16.9765
19.4191
19.4824
17.571
15.5088
12.5869
10.5359
8.50483
6.26292
3.60335
2.92296
2.51782
6.68759
10.7969
3.42643
3.09091
3.90382
5.43309
7.34383
9.34345
12.6332
13.767
9.661
9.91481
9.78419
10.9543
13.7434
15.2158
14.3839
13.5523
11.7855
8.90882
5.63688
4.04904
2.90133
2.56644
2.42309
2.27068
2.45955
3.06909
4.01158
5.09902
10.3641
10.7556
5.06543
4.31758
4.36277
4.4591
5.40786
5.82144
6.32429
6.6444
7.01675
6.05323
5.53336
6.7857
9.37677
9.6464
8.67157
6.10394
4.48764
3.20916
2.88492
2.58374
2.46079
2.41579
2.177
2.07859
1.9322
1.93428
2.01533
2.35855
5.48056
8.0593
4.47911
3.65006
3.37769
3.65481
4.01878
4.3968
4.81478
4.80656
4.67541
4.22825
3.76396
3.57813
3.45502
3.06137
3.19886
2.67089
2.94437
2.41159
2.50388
2.14648
2.08075
1.74026
1.59629
1.57738
1.7004
2.09893
2.56675
2.7428
3.46931
3.52825
2.23186
2.26686
2.10822
1.99799
1.87088
1.81563
1.76688
1.74799
1.71554
1.6995
1.67666
1.66711
1.65296
1.64357
1.62732
1.60558
1.59131
1.56716
1.55854
1.54464
1.54735
1.55845
1.57655
1.46649
1.54879
1.48656
1.08736
1.00001
1
12.0188
27.6063
31.7393
29.4936
27.0356
26.166
26.5523
35.1052
58.7693
73.5456
86.8867
82.1479
62.1873
108.367
176.158
172.089
132.857
98.4835
55.8268
33.9077
24.8119
24.4657
29.7099
40.8808
53.0054
66.411
80.0657
94.4901
113.148
112.169
109.89
94.3141
62.713
43.0555
37.9935
47.1095
75.6692
119.535
121.001
101.613
93.722
101.008
114.445
121.616
116.886
117.572
153.396
163.289
127.072
124.362
134.384
139.845
138.9
137.058
134.259
129.635
126.529
121.379
116.504
112.091
108.261
104.156
101.795
101.666
104.944
107.309
105.63
100.054
97.4936
93.3501
90.4151
89.6956
99.3359
116.683
134.575
143.424
132.654
117.755
157.947
185.934
142.351
122.411
99.7612
98.7992
106.256
115.777
123.957
128.998
138.799
149.212
164.552
184.837
204.504
213.374
204.435
191.555
173.372
162.45
153.021
153.31
154.402
155.244
154.161
153.588
150.172
145.481
135.714
122.187
114.217
124.573
176.615
203.088
186.445
174.929
176.614
178.058
180.476
183.963
192.238
201.622
215.723
230.62
239.468
241.264
237.725
231.195
224.048
213.691
201.479
185.194
164.438
139.093
114.66
100.425
92.6199
89.9279
88.6714
90.3388
92.9115
103.482
131.459
149.312
176.403
196.809
210.457
227.882
189.998
104.285
99.5851
113.52
102.429
95.2017
89.1823
100.565
127.505
160.986
182.735
212.791
269.872
269.081
271.688
277.863
281.924
283.804
267.361
255.283
230.855
208.213
192.515
181.029
184.406
219.21
277.556
281.36
215.462
227.254
169.788
160.37
166.736
173.105
185.468
203.007
206.037
192.476
170.029
150.456
136.988
130.968
129.177
130.486
135.784
139.419
147.372
150.827
157.358
157.869
158.991
155.34
152.445
143.94
132.677
137.741
179.228
190.409
174.087
139.788
128.447
159.732
172.432
189.515
188.349
189.301
194.235
199.018
195.29
193.406
195.247
206.245
217.944
209.672
172.216
153.165
149.7
146.035
139.658
137.138
138.582
142.628
140.683
141.265
141.888
149.182
164.104
170.904
154.813
105.627
60.0931
39.4609
41.7061
45.9866
79.8117
31.9876
20.9862
22.3513
24.4395
28.4429
33.9123
37.2865
38.3183
40.4464
41.759
41.5687
40.7027
36.9983
33.1084
32.8757
36.8657
41.7418
42.9663
41.6361
35.0877
30.0899
21.5937
17.0405
12.7822
10.1147
5.27549
3.57725
3.04955
5.58974
12.5931
14.654
9.13495
4.82683
3.78377
4.84763
6.73623
9.69512
12.5135
14.9954
17.8612
17.9119
21.4067
22.0249
28.0528
29.0472
25.7454
22.1285
17.4337
14.5378
12.2503
8.54282
5.59885
4.07617
3.3074
2.71692
2.53763
2.56301
2.74885
3.89259
7.02746
22.8052
38.982
22.4059
11.3168
7.36177
6.14658
6.81071
7.97747
9.22769
12.6775
14.0452
15.8303
16.3787
16.9063
12.1574
10.1719
12.0506
13.8526
11.7606
7.99344
5.38361
4.1447
3.35482
3.03603
2.7183
2.62224
2.44957
2.25998
2.07622
1.96709
2.07739
2.51255
4.93197
19.4674
9.09294
5.78657
5.85698
6.84583
6.72724
6.90216
7.46093
7.17155
7.68152
7.11964
6.50564
5.40714
4.55091
3.98168
3.34761
3.43153
2.90193
3.04833
2.61669
2.71321
2.26321
2.20692
2.01443
1.81471
1.61207
1.51824
1.55083
1.74725
2.28531
2.92267
3.38378
4.30867
2.4653
2.46127
2.42381
2.20687
2.12497
1.95275
1.8644
1.78619
1.75778
1.72139
1.71094
1.68192
1.67234
1.64721
1.6388
1.61726
1.60722
1.58288
1.5652
1.53786
1.51759
1.4976
1.49143
1.48399
1.40978
1.46932
1.3482
1.47784
1.09333
1.00019
1
1
1
14.1446
29.6479
33.7856
28.1147
23.3329
22.5377
26.2981
37.9696
61.8346
75.8038
90.202
114.626
89.7463
129.834
177.077
151.35
131.198
83.5534
54.0338
32.2736
23.9357
24.1737
29.5087
39.7953
56.1563
72.7596
92.9389
105.369
116.824
107.467
84.368
63.134
49.2086
47.6291
61.7918
101.42
140.737
122.595
106.531
98.8341
98.2139
102.546
112.461
117.884
118.576
117.205
112.451
116.997
123.53
131.179
141.813
150.093
154.405
153.488
150.943
148.556
145.562
145.328
141.899
140.652
140.309
142.329
146.867
149.177
142.643
130.796
127.759
133.099
136.769
132.874
122.865
114.238
119.118
136.019
158.312
164.98
147.671
134.856
144.004
160.16
149.681
117.85
104.715
105.789
112.424
119.696
124.221
132.932
143.231
159.164
177.542
201.505
235.05
250.271
244.712
232.473
217.029
200.991
192.709
184.635
184.879
182.451
182.066
178.398
170.262
154.967
140.444
131.459
135.723
158.652
195.928
215.623
208.499
186.989
177.76
173.142
171.523
175.843
176.725
180.476
182.027
184.722
188.33
192.79
196.817
196.335
190.732
179.019
160.301
141.944
126.238
115.864
109.976
107.98
107.679
107.049
107.655
105.519
109.594
122.26
135.878
147.767
154.208
195.68
231.209
243.741
198.766
104.98
97.3197
105.681
107.211
96.1621
90.3747
96.447
120.202
157.389
195.419
243.387
266.383
267.327
274.139
286.025
300.447
301.668
306.119
294.93
290.43
272.839
259.259
248.767
254.2
274.678
293.258
251.425
200.994
208.168
197.736
186.922
188.001
197.742
210.402
210.302
189.81
166.142
147.59
130.409
117.951
114.334
116.261
123.568
128.495
137.822
140.652
146.87
146.369
150.192
147.063
148.08
141.359
135.476
124.876
123.01
153.076
179.201
167.37
121.215
121.864
154.214
189.764
187.954
186.388
190.888
202.137
209.398
215.378
220.211
224.906
235.748
233.436
200.782
175.494
172.04
171.627
168.846
164.272
157.548
156.682
150.998
149.854
145.125
151.396
170.114
192.511
202.336
186.186
128.87
74.7001
41.0963
28.192
36.7422
77.3769
35.9998
30.2682
29.938
32.5227
36.6572
42.7869
48.5448
53.4215
57.822
62.0052
64.8064
64.7671
65.3112
67.0165
75.0832
82.1488
87.486
84.0595
78.3672
62.5023
53.0348
37.1143
21.2592
13.8626
8.81236
7.48361
4.77688
3.97345
5.20037
7.10101
8.6111
9.79066
8.08515
6.15807
6.06227
8.35243
11.3665
17.3126
20.1911
32.3073
49.7829
56.2827
100.844
92.7271
80.3953
64.6947
46.8396
34.2755
24.174
17.0208
15.2044
8.91574
5.92002
4.52888
3.86804
3.34426
3.01315
3.30809
3.66734
5.46909
18.5864
38.5592
36.8362
36.9151
32.0225
26.8897
23.5551
22.724
22.3206
23.1435
28.6115
33.4915
36.4975
33.329
33.4159
20.0902
23.7787
21.0181
18.0625
11.3327
5.9612
4.13335
3.61728
3.27053
3.08944
2.84396
2.75119