/*--------------------------------*- C++ -*----------------------------------*\
| =========                 |                                                 |
| \\      /  F ield         | OpenFOAM: The Open Source CFD Toolbox           |
|  \\    /   O peration     | Version:  2.1.1                                 |
|   \\  /    A nd           | Web:      www.OpenFOAM.org                      |
|    \\/     M anipulation  |                                                 |
\*---------------------------------------------------------------------------*/
FoamFile
{
    version     2.0;
    format      ascii;
    class       volScalarField;
    location    "0.002150000";
    object      fH;
}
// * * * * * * * * * * * * * * * * * * * * * * * * * * * * * * * * * * * * * //

dimensions      [0 0 0 0 0 0 0];

internalField   nonuniform List<scalar> 
12384
(
0.0258549
0.0264057
0.0265622
0.0264745
0.0261398
0.0269108
0.0266243
0.0244246
0.0236136
0.0244221
0.0260826
0.0277293
0.0290575
0.0290789
0.022588
0.0202635
0.019118
0.0190553
0.0191873
0.0192182
0.0191934
0.0192122
0.019242
0.0192142
0.0191531
0.0190097
0.0188664
0.0186979
0.0185513
0.0184411
0.0182681
0.0182205
0.0180625
0.0180492
0.0181887
0.0183257
0.0187505
0.0205174
0.0242363
0.0264078
0.0286195
0.0293161
0.0293013
0.0291726
0.0252847
0.0210015
0.0199407
0.0228309
0.0250554
0.0251016
0.0244294
0.0246528
0.0251387
0.0254886
0.0258516
0.0261607
0.0264666
0.0266889
0.0267697
0.0260207
0.0248061
0.0235719
0.0212481
0.0183616
0.0174615
0.0177493
0.0190282
0.0209179
0.0234623
0.0258358
0.028055
0.0291235
0.0292544
0.0291467
0.0270425
0.0255794
0.0234721
0.0215514
0.0203612
0.0196056
0.019117
0.0187965
0.0189475
0.0186414
0.0185482
0.0182884
0.0181161
0.0178134
0.0177774
0.0183511
0.0192059
0.0204653
0.0218381
0.0234869
0.0251521
0.0266145
0.0276866
0.0285075
0.0290255
0.0289426
0.0292065
0.0291021
0.0291151
0.0290929
0.0273097
0.0262409
0.0259118
0.0257368
0.0256054
0.025619
0.0258846
0.0262573
0.0267321
0.0272363
0.0276928
0.0281015
0.0283881
0.0287021
0.0287517
0.0290002
0.0289132
0.0291146
0.0289805
0.0291082
0.0290025
0.0290891
0.029022
0.0290792
0.0290348
0.0290767
0.0290417
0.0290718
0.0290494
0.0290747
0.0290406
0.0290326
0.0290259
0.0290636
0.0290369
0.0290509
0.0290436
0.0290406
0.0290479
0.0290339
0.029047
0.0290301
0.0290424
0.0290254
0.0290373
0.0290241
0.0290359
0.0290277
0.029037
0.0290318
0.0290373
0.0290346
0.0290377
0.0290367
0.0290382
0.0290383
0.0290383
0.029039
0.0290383
0.0290735
0.0290733
0.0290364
0.0290346
0.0290338
0.0290332
0.0290324
0.0290304
0.0290296
0.0290271
0.0290263
0.0290237
0.0290229
0.0290193
0.029018
0.0290151
0.0290153
0.0290152
0.0290182
0.0290203
0.0290225
0.0290235
0.0290253
0.029026
0.0290274
0.0290282
0.0290294
0.0290301
0.0290314
0.0290331
0.0290736
0.0290736
0.0290333
0.029031
0.0290297
0.0290284
0.0290272
0.0290259
0.0290247
0.0290235
0.0290224
0.0290211
0.0290196
0.0290172
0.0290151
0.0290134
0.0290135
0.029015
0.0290172
0.0290196
0.0290211
0.0290224
0.0290237
0.0290249
0.0290262
0.0290273
0.0290284
0.0290295
0.0290308
0.0290332
0.0290734
0.0290735
0.0290334
0.0290313
0.0290298
0.0290287
0.0290276
0.0290265
0.0290253
0.0290241
0.0290228
0.0290216
0.02902
0.0290174
0.0290151
0.0290134
0.0290136
0.029015
0.0290172
0.0290195
0.0290211
0.0290224
0.0290237
0.029025
0.0290263
0.0290274
0.0290285
0.0290296
0.0290308
0.0290332
0.0290734
0.0290734
0.0290337
0.0290313
0.0290295
0.0290284
0.0290271
0.0290258
0.0290246
0.0290235
0.0290224
0.0290212
0.0290197
0.0290177
0.0290155
0.0290139
0.0290133
0.0290147
0.0290171
0.02902
0.0290218
0.0290229
0.0290246
0.0290258
0.029027
0.029028
0.0290292
0.0290302
0.0290316
0.0290335
0.0290736
0.0290734
0.0290332
0.029031
0.0290297
0.0290285
0.0290274
0.0290262
0.029025
0.0290239
0.0290226
0.0290214
0.0290199
0.0290175
0.0290153
0.0290135
0.0290134
0.0290147
0.0290171
0.0290194
0.0290211
0.0290225
0.0290238
0.029025
0.0290264
0.0290276
0.0290287
0.0290296
0.0290308
0.0290331
0.0290734
0.0290736
0.0290329
0.0290309
0.02903
0.029029
0.0290281
0.0290266
0.0290253
0.029024
0.0290225
0.0290212
0.0290195
0.0290171
0.0290151
0.0290134
0.0290134
0.029015
0.0290171
0.0290196
0.0290212
0.0290225
0.0290238
0.029025
0.0290262
0.0290274
0.0290285
0.0290297
0.029031
0.0290329
0.0290736
0.0290734
0.0290331
0.0290308
0.0290293
0.0290282
0.029027
0.0290261
0.0290249
0.0290241
0.0290228
0.0290217
0.0290201
0.029018
0.0290156
0.0290137
0.0290134
0.0290146
0.029017
0.0290193
0.0290209
0.0290224
0.0290238
0.0290251
0.0290264
0.0290276
0.0290286
0.0290297
0.0290307
0.029033
0.0290734
0.025365
0.0249701
0.0239962
0.0231107
0.0224663
0.0227379
0.02132
0.019629
0.0185307
0.0181044
0.0199955
0.0226921
0.0252122
0.0275667
0.0193012
0.0166436
0.0176322
0.0183852
0.0187917
0.0191192
0.018762
0.019504
0.0193748
0.0192963
0.0192361
0.0191534
0.0189724
0.0186886
0.0183588
0.0181426
0.017714
0.0173836
0.0168593
0.0162797
0.0158429
0.0148557
0.0145775
0.0141622
0.0168485
0.0181561
0.0240197
0.0276042
0.0293881
0.0293071
0.0223965
0.0201327
0.0224547
0.0249879
0.0249356
0.0217479
0.0195752
0.0203711
0.0212008
0.0225107
0.0237748
0.0243326
0.0256256
0.0272309
0.0291933
0.0316742
0.0339644
0.0367114
0.034552
0.030604
0.0233324
0.0153671
0.0127935
0.0125585
0.0144597
0.0172379
0.0216752
0.0264196
0.029025
0.029265
0.0227943
0.018719
0.0162345
0.0152831
0.0153823
0.0159848
0.0186182
0.0210085
0.0229302
0.0255938
0.0263551
0.026429
0.025092
0.0224547
0.0183583
0.0146697
0.0121985
0.0113005
0.0112593
0.0114942
0.0124542
0.0136837
0.0157588
0.0178651
0.0212359
0.0241173
0.0268878
0.0283507
0.028828
0.0289062
0.0145033
0.0129908
0.0127809
0.0128074
0.0125562
0.0126773
0.0126945
0.0132598
0.0136092
0.014616
0.0152707
0.0164487
0.0173742
0.0184084
0.0194908
0.0203214
0.0213297
0.0222343
0.0230585
0.0240888
0.024652
0.0256241
0.0259972
0.0267749
0.0270576
0.0275019
0.027638
0.0277914
0.0277576
0.02847
0.0237978
0.0233961
0.0234579
0.0236977
0.024147
0.0245309
0.0248662
0.0252858
0.0254838
0.0258577
0.0259571
0.0262306
0.0262694
0.0264443
0.0264464
0.0265954
0.0266441
0.0267871
0.0268489
0.0269347
0.0269819
0.0270424
0.0270802
0.0271308
0.027156
0.0272033
0.0272138
0.027239
0.0272569
0.0283027
0.0281745
0.0270828
0.0270524
0.0270321
0.0270314
0.0270273
0.0269907
0.0269842
0.0269477
0.0269358
0.0268982
0.0268848
0.0268341
0.0268041
0.0267649
0.0267649
0.0267702
0.0268251
0.0268614
0.0269068
0.0269247
0.0269652
0.0269718
0.0270063
0.0270115
0.0270447
0.0270442
0.0270726
0.0271096
0.028298
0.0282993
0.0271025
0.0270459
0.0270375
0.0270016
0.0269968
0.0269557
0.0269504
0.026912
0.0269065
0.0268673
0.0268587
0.0268047
0.0267758
0.0267361
0.0267475
0.0267607
0.0268167
0.026842
0.0268828
0.0268911
0.0269322
0.0269377
0.0269781
0.0269862
0.0270239
0.0270315
0.0270573
0.0271162
0.0282588
0.0282617
0.0271258
0.0270566
0.0270511
0.0270145
0.0270097
0.0269697
0.0269649
0.0269265
0.0269199
0.0268796
0.0268667
0.02681
0.0267768
0.0267368
0.0267489
0.0267617
0.026816
0.0268411
0.0268821
0.0268906
0.0269322
0.0269381
0.0269788
0.026987
0.0270246
0.0270322
0.0270576
0.0271169
0.0282586
0.0282578
0.0271154
0.0270594
0.0270244
0.0270186
0.0269806
0.0269738
0.0269349
0.026931
0.0268928
0.0268871
0.0268484
0.0268272
0.026772
0.0267568
0.0267355
0.0267671
0.0268003
0.0268635
0.0268926
0.0269131
0.0269539
0.0269623
0.0270011
0.0270052
0.0270417
0.0270415
0.0270738
0.0271092
0.028299
0.0282562
0.0271216
0.0270523
0.0270465
0.0270104
0.0270057
0.0269659
0.0269607
0.0269224
0.0269165
0.0268771
0.0268657
0.0268116
0.0267799
0.0267384
0.0267472
0.0267586
0.0268131
0.0268398
0.0268816
0.0268907
0.026933
0.0269395
0.0269804
0.0269889
0.0270266
0.027034
0.0270572
0.0271174
0.0282592
0.0283012
0.0271054
0.0270553
0.0270485
0.0270144
0.0270084
0.0269656
0.0269583
0.0269169
0.0269086
0.0268663
0.0268559
0.0268027
0.026775
0.0267403
0.0267401
0.0267724
0.0268037
0.026858
0.0268691
0.02691
0.0269172
0.0269571
0.0269633
0.0270039
0.0270081
0.027044
0.0270516
0.0271038
0.0283003
0.0282607
0.0271194
0.0270468
0.0270408
0.0270015
0.0269983
0.0269565
0.0269543
0.0269147
0.0269135
0.0268728
0.0268653
0.0268143
0.026786
0.0267416
0.0267467
0.0267576
0.0268105
0.0268382
0.0268789
0.0268876
0.0269301
0.0269363
0.0269784
0.0269859
0.0270249
0.0270334
0.0270569
0.027117
0.0282593
0.0243158
0.021154
0.0189395
0.0166828
0.0164014
0.0175786
0.0157988
0.0140734
0.0128033
0.0129138
0.0137494
0.0154887
0.0181088
0.0228524
0.015173
0.0162491
0.0174676
0.0172822
0.0168684
0.0168389
0.0192656
0.0208814
0.0211632
0.021279
0.0208134
0.0201188
0.0196563
0.0193239
0.0184368
0.0175421
0.0181721
0.0176565
0.016887
0.0152025
0.0148049
0.0148012
0.0139894
0.012535
0.0120027
0.0123771
0.0158174
0.0221754
0.0282751
0.029371
0.0203115
0.0206287
0.0251627
0.0264208
0.0221789
0.0190097
0.018302
0.0186042
0.0187262
0.0187758
0.018804
0.0185359
0.0189882
0.019902
0.0217964
0.0259291
0.0290357
0.0302255
0.0346782
0.0426466
0.0419274
0.0338068
0.0215017
0.0129088
0.0105824
0.0108876
0.0127034
0.0195836
0.0266109
0.0291147
0.0155026
0.0122652
0.0139345
0.0175768
0.0226296
0.0287551
0.0341373
0.0365854
0.0390744
0.0382116
0.0394606
0.0400978
0.0422169
0.0432208
0.0418085
0.0358934
0.0266093
0.0184816
0.0134851
0.0110484
0.00968761
0.0090774
0.00854495
0.00858275
0.00905804
0.00953331
0.0134419
0.0170464
0.0214441
0.0236125
0.00860665
0.00966613
0.0105461
0.0108936
0.0112072
0.0107119
0.0102469
0.00956212
0.00939533
0.00895117
0.00891301
0.00869582
0.00871317
0.0086213
0.0087163
0.00866017
0.00879418
0.00868762
0.00882368
0.00866762
0.00882921
0.00871062
0.00890625
0.0089237
0.0091654
0.00953292
0.00991128
0.0104427
0.0107806
0.0104965
0.00801939
0.00853324
0.00883347
0.00862101
0.00884002
0.008658
0.00887693
0.00869409
0.00892152
0.00874562
0.00896218
0.0088255
0.00901109
0.00895418
0.00905027
0.00902303
0.00903081
0.00899735
0.00897683
0.00896084
0.00895673
0.00893502
0.0089431
0.00891644
0.00893389
0.0089004
0.00893134
0.00889876
0.00892897
0.00800272
0.00797252
0.00890309
0.00895263
0.00896758
0.00898152
0.0089988
0.00902862
0.00904685
0.00907388
0.00909267
0.00912038
0.00913929
0.009178
0.00920998
0.00923932
0.00924542
0.00923703
0.0091988
0.00916403
0.00913563
0.00911571
0.00909224
0.00907988
0.00906354
0.00905186
0.00903717
0.00902885
0.00901159
0.00896488
0.00797082
0.00797297
0.00897706
0.00902172
0.0090428
0.00905825
0.00907293
0.00909031
0.00910518
0.00912078
0.00913695
0.00915434
0.00917408
0.00920654
0.00924203
0.00926384
0.00926527
0.00924292
0.00920851
0.00917486
0.00915472
0.0091364
0.00911791
0.00910174
0.00908567
0.00906801
0.00905273
0.00903628
0.00902066
0.0089783
0.00797142
0.00797176
0.00896803
0.00901594
0.009035
0.00904851
0.00906338
0.00907894
0.00909426
0.00910966
0.00912728
0.00914548
0.00916866
0.00920349
0.00924224
0.00926391
0.00926475
0.00924268
0.00920949
0.00917612
0.00915578
0.00913709
0.00911821
0.0091017
0.00908525
0.00906732
0.009052
0.00903571
0.00902055
0.00897815
0.0079714
0.00797079
0.00897617
0.00902384
0.00904411
0.00905832
0.00907348
0.00908944
0.00910441
0.00911907
0.00913479
0.00915147
0.00917027
0.00920045
0.00923435
0.00925838
0.00926576
0.00925135
0.00921299
0.00916943
0.00914089
0.00912759
0.00910357
0.00908571
0.00906966
0.0090552
0.00904075
0.00902952
0.00901278
0.00896641
0.00797107
0.00797201
0.00897372
0.00901972
0.00903818
0.00905126
0.00906597
0.00908159
0.00909738
0.00911262
0.00912945
0.00914704
0.00916896
0.00920167
0.00923935
0.00926242
0.00926603
0.00924515
0.00921192
0.00917723
0.00915644
0.00913741
0.00911792
0.00910102
0.00908439
0.00906621
0.00905018
0.00903369
0.00901986
0.00897716
0.00797138
0.00797211
0.00897641
0.00902084
0.00903129
0.00904853
0.00906479
0.00908386
0.0091005
0.00911826
0.00913667
0.00915571
0.00917657
0.00920781
0.0092421
0.00926533
0.00926491
0.00924366
0.00920731
0.00917491
0.00915359
0.00913515
0.00911772
0.00910078
0.00908516
0.00906731
0.00905275
0.00903633
0.00902051
0.00897827
0.00797243
0.00797213
0.00897549
0.00902403
0.0090428
0.00905685
0.00907112
0.00908655
0.00910129
0.00911556
0.00913066
0.00914786
0.00916846
0.00919761
0.00923414
0.00925913
0.00926746
0.00924721
0.0092145
0.00917924
0.00915902
0.00913972
0.00911997
0.00910247
0.00908518
0.00906727
0.00905085
0.00903388
0.00902044
0.00897797
0.00797141
0.0217144
0.0167093
0.0140009
0.0123113
0.0116781
0.0134189
0.00928915
0.00788229
0.00783412
0.00974208
0.01061
0.0111877
0.0127708
0.0164362
0.0137677
0.0167237
0.0183889
0.0213653
0.0233438
0.0246722
0.0253979
0.0261837
0.026873
0.0266575
0.0257915
0.0248611
0.0252569
0.0255635
0.0258207
0.0259015
0.0265663
0.0241582
0.0196261
0.0180052
0.0181834
0.0168552
0.0145428
0.0118498
0.01127
0.01094
0.0112521
0.0146328
0.0237082
0.0288019
0.0188415
0.0215186
0.027159
0.0273844
0.0231413
0.0210032
0.0197129
0.0191356
0.0196743
0.0206051
0.020949
0.0209226
0.0210606
0.0213951
0.0219022
0.0214873
0.0212074
0.0223466
0.029681
0.03496
0.0421524
0.0469112
0.0429186
0.028522
0.016327
0.0104441
0.00992508
0.012824
0.0213398
0.0279406
0.0111121
0.0123416
0.0175767
0.0262987
0.0335419
0.0362481
0.0355224
0.0319541
0.0263807
0.0244518
0.0255472
0.0274984
0.0323992
0.0394988
0.0470681
0.0514822
0.0505083
0.041047
0.0294785
0.0211209
0.016454
0.0136675
0.0120279
0.0105504
0.00944353
0.00903202
0.00860038
0.00971066
0.0117896
0.0147691
0.0122282
0.0172178
0.0203339
0.0230491
0.0238198
0.0227696
0.0199117
0.0172453
0.0147053
0.0132856
0.0121311
0.0113965
0.010734
0.010321
0.00989273
0.00967239
0.00941002
0.00928456
0.00911888
0.0090347
0.00893177
0.00884581
0.00879578
0.00871089
0.00867903
0.0086374
0.00862011
0.00861961
0.00861021
0.00846579
0.00914166
0.0091727
0.00899345
0.00910958
0.00890369
0.00897926
0.00882164
0.00888895
0.0087457
0.00883117
0.00870283
0.00878323
0.00868418
0.0087453
0.00867742
0.00871722
0.00867037
0.00869655
0.00866372
0.0086808
0.00866155
0.00866883
0.00866036
0.00865939
0.00865877
0.00865357
0.0086559
0.00865051
0.00864784
0.00848759
0.00850081
0.0086624
0.00866882
0.00867302
0.00866842
0.00867317
0.00866969
0.00867441
0.00867136
0.00867601
0.00867366
0.00867806
0.00867689
0.00868165
0.00868056
0.00868397
0.00868098
0.00868223
0.00867794
0.00868005
0.0086763
0.00867859
0.00867486
0.00867743
0.00867349
0.00867617
0.00867228
0.0086743
0.00866088
0.00848835
0.00848844
0.00866146
0.00867149
0.00867534
0.00867387
0.00867721
0.0086754
0.00867875
0.00867688
0.00868024
0.00867854
0.00868194
0.00868106
0.00868516
0.0086841
0.00868638
0.00868294
0.00868347
0.00867956
0.00868099
0.00867773
0.00867931
0.00867616
0.00867779
0.00867459
0.00867615
0.00867285
0.00867298
0.00866058
0.00849174
0.00849128
0.00866124
0.00867126
0.00867535
0.00867361
0.00867688
0.0086751
0.00867835
0.00867657
0.00867984
0.00867826
0.00868168
0.00868095
0.00868515
0.00868412
0.00868632
0.00868291
0.00868349
0.00867962
0.00868101
0.00867774
0.0086793
0.00867616
0.00867777
0.00867456
0.00867611
0.00867285
0.00867298
0.00866053
0.00849176
0.00849204
0.00866058
0.00867398
0.00867297
0.00867657
0.00867458
0.00867804
0.00867608
0.00867941
0.00867755
0.00868091
0.00867931
0.00868312
0.00868244
0.00868595
0.00868414
0.00868553
0.00868138
0.00868141
0.00867824
0.00867728
0.00867882
0.00867544
0.00867729
0.00867385
0.00867597
0.00867248
0.00867408
0.00866082
0.0084884
0.00849168
0.00866114
0.00867139
0.00867552
0.00867375
0.008677
0.00867524
0.00867847
0.00867668
0.00867992
0.0086783
0.00868169
0.00868085
0.008685
0.00868404
0.00868639
0.00868306
0.00868361
0.00867967
0.00868104
0.00867778
0.00867928
0.00867614
0.00867771
0.00867453
0.00867598
0.00867276
0.00867282
0.00866063
0.00849165
0.00848854
0.00866098
0.00867331
0.00867509
0.00867341
0.00867713
0.00867512
0.00867872
0.00867674
0.00868027
0.0086785
0.00868201
0.00868103
0.00868506
0.00868416
0.00868414
0.00868513
0.00868105
0.00868188
0.00867847
0.00868018
0.00867677
0.00867868
0.00867525
0.00867714
0.00867373
0.00867534
0.0086721
0.00866119
0.00848856
0.00849143
0.00866131
0.00867153
0.00867568
0.00867386
0.00867726
0.00867537
0.00867874
0.00867675
0.00868012
0.00867827
0.00868178
0.00868065
0.00868488
0.00868382
0.00868652
0.00868325
0.00868382
0.00867991
0.00868135
0.00867811
0.00867967
0.00867647
0.00867807
0.00867484
0.00867623
0.00867299
0.00867302
0.00866065
0.0084917
0.0175115
0.014355
0.0126732
0.012013
0.0117127
0.0116231
0.011402
0.0112369
0.0108491
0.00855008
0.00748937
0.00932051
0.0104087
0.0113362
0.0146081
0.0149797
0.023647
0.0255369
0.0282972
0.0302094
0.0313019
0.0325576
0.0329355
0.0327051
0.0323854
0.032643
0.0353575
0.0362166
0.0369547
0.0369942
0.0368068
0.0320004
0.0261576
0.0239081
0.024584
0.0232255
0.0212697
0.0175603
0.013981
0.012346
0.0106768
0.0111864
0.0182731
0.0272176
0.0173043
0.0225471
0.028674
0.0288868
0.0244682
0.0212984
0.0188104
0.0179943
0.0198399
0.0236461
0.0250555
0.0241562
0.0234835
0.0230852
0.0228332
0.0211771
0.0207184
0.021965
0.0217233
0.0276203
0.0386635
0.0463076
0.0503547
0.0456338
0.0325634
0.0183387
0.0108252
0.0102977
0.015384
0.0250726
0.0107043
0.0156746
0.0242753
0.0318131
0.0339081
0.0302264
0.0244746
0.0189884
0.0175503
0.0149833
0.0167094
0.0182084
0.0224657
0.0281844
0.0359235
0.046089
0.0553553
0.0573382
0.0504672
0.0380433
0.0277543
0.0215615
0.0176234
0.0153456
0.0131989
0.0113629
0.0102397
0.00920833
0.00929035
0.00925459
0.0172989
0.0267297
0.0310259
0.0336904
0.035599
0.0371774
0.0357324
0.0302587
0.0248969
0.0205538
0.0181802
0.016368
0.0153625
0.0143543
0.013801
0.0131924
0.0128312
0.0124505
0.012155
0.0119297
0.0116622
0.0115425
0.011306
0.0112034
0.0110071
0.0108237
0.010637
0.0103896
0.0102295
0.00998708
0.0123308
0.0123165
0.0122485
0.0118749
0.0118372
0.0115647
0.011544
0.0113357
0.011368
0.0111733
0.0112476
0.0110746
0.0111622
0.0110097
0.0111042
0.0109729
0.0110576
0.0109513
0.0110228
0.0109378
0.0109953
0.0109298
0.0109735
0.0109244
0.0109547
0.0109185
0.010937
0.0109127
0.0109161
0.0108933
0.0109344
0.0109438
0.0109459
0.0109376
0.0109399
0.0109285
0.0109359
0.0109247
0.0109319
0.0109222
0.0109294
0.0109212
0.0109279
0.0109214
0.0109271
0.0109214
0.0109267
0.0109211
0.0109263
0.0109208
0.0109263
0.0109202
0.0109259
0.0109196
0.0109256
0.010919
0.0109256
0.0109191
0.0109233
0.0109
0.0109027
0.010921
0.0109245
0.0109193
0.0109261
0.010919
0.0109261
0.010919
0.0109259
0.0109189
0.010926
0.0109195
0.0109263
0.0109203
0.0109265
0.0109206
0.0109265
0.01092
0.0109261
0.0109194
0.0109259
0.0109193
0.0109262
0.0109194
0.0109261
0.0109196
0.0109258
0.0109215
0.010919
0.0109064
0.010906
0.0109185
0.010926
0.0109191
0.0109262
0.010919
0.010926
0.010919
0.0109258
0.0109191
0.010926
0.0109197
0.0109264
0.0109204
0.0109266
0.0109206
0.0109264
0.01092
0.010926
0.0109194
0.0109259
0.0109193
0.0109261
0.0109194
0.0109262
0.0109196
0.0109258
0.0109216
0.010919
0.0109064
0.0109043
0.0109183
0.0109199
0.0109257
0.0109187
0.0109257
0.0109186
0.0109257
0.0109186
0.0109256
0.010919
0.0109258
0.0109197
0.0109262
0.0109203
0.0109264
0.0109205
0.0109266
0.0109214
0.0109239
0.0109249
0.0109194
0.0109262
0.0109189
0.0109258
0.0109186
0.0109256
0.0109185
0.0109231
0.0109002
0.0109063
0.0109184
0.0109262
0.0109191
0.0109262
0.010919
0.010926
0.010919
0.0109258
0.010919
0.0109259
0.0109196
0.0109263
0.0109204
0.0109266
0.0109206
0.0109265
0.0109202
0.0109262
0.0109195
0.010926
0.0109194
0.0109263
0.0109195
0.0109262
0.0109197
0.0109255
0.010922
0.0109192
0.0109065
0.0108999
0.0109215
0.0109205
0.0109195
0.0109253
0.0109185
0.0109258
0.0109187
0.0109256
0.0109187
0.0109259
0.0109193
0.0109263
0.0109204
0.0109256
0.0109255
0.0109207
0.0109264
0.0109196
0.010926
0.0109189
0.0109258
0.010919
0.0109261
0.0109191
0.0109262
0.0109198
0.0109219
0.0109212
0.0109015
0.010906
0.0109185
0.0109261
0.010919
0.0109263
0.010919
0.0109263
0.010919
0.0109261
0.0109188
0.0109261
0.0109193
0.0109265
0.0109202
0.0109268
0.0109208
0.0109269
0.0109206
0.0109265
0.0109197
0.0109263
0.0109196
0.0109265
0.0109199
0.0109265
0.0109198
0.0109256
0.0109222
0.0109191
0.0109062
0.0146812
0.0144004
0.014283
0.0147307
0.0150331
0.0132273
0.0156353
0.0170202
0.015682
0.0142239
0.01168
0.00888105
0.0100743
0.00968783
0.0162575
0.0185654
0.0248437
0.0294937
0.0325655
0.0335932
0.0337526
0.0339389
0.0347351
0.0360902
0.0377199
0.0404138
0.0441178
0.0461372
0.0471232
0.047247
0.0453061
0.0390619
0.0331183
0.0301896
0.0294465
0.0275814
0.0250764
0.022142
0.0186259
0.0159541
0.0125591
0.0109466
0.0138082
0.0241733
0.0163486
0.0229353
0.0295375
0.0299844
0.025217
0.021105
0.0174694
0.0169388
0.0210195
0.028529
0.0330143
0.0333176
0.0302352
0.0271958
0.0251546
0.0235153
0.0231519
0.0224284
0.0216843
0.0243801
0.0294019
0.0438712
0.0532055
0.0543007
0.0469245
0.0337374
0.0179453
0.0105252
0.0118617
0.020714
0.0119334
0.0203867
0.0294852
0.0331274
0.0307594
0.0244914
0.0182754
0.016599
0.0154604
0.0155505
0.0164313
0.0193879
0.0237243
0.0283341
0.033187
0.0393729
0.048526
0.0585968
0.0618982
0.0569176
0.0452776
0.0341797
0.0268165
0.021922
0.0187826
0.0158651
0.0132193
0.0112552
0.00956528
0.00914461
0.0224606
0.0315396
0.0317882
0.0316254
0.0345043
0.0399988
0.0446776
0.0450219
0.0389304
0.0317796
0.026343
0.0233751
0.0212511
0.019981
0.0187697
0.018011
0.0172226
0.0167304
0.0161412
0.0158079
0.0153082
0.0150741
0.0146185
0.0143982
0.0139743
0.0136869
0.013337
0.0129856
0.0126492
0.0121464
0.0166052
0.017026
0.0162492
0.0160459
0.0154341
0.0152871
0.0148719
0.0147804
0.0144711
0.014453
0.0142049
0.0142254
0.014042
0.0140508
0.0139477
0.0139257
0.013879
0.01384
0.0138278
0.0137813
0.0137887
0.0137373
0.0137557
0.0137049
0.0137248
0.0136745
0.0136936
0.0136498
0.0136509
0.013467
0.0135696
0.0137402
0.0137182
0.0137269
0.0137022
0.0137043
0.0136928
0.0136929
0.0136853
0.0136859
0.0136809
0.0136818
0.0136789
0.0136801
0.0136782
0.013679
0.0136781
0.0136782
0.0136782
0.0136779
0.0136789
0.0136775
0.0136786
0.0136773
0.0136784
0.0136773
0.0136784
0.0136768
0.0136668
0.013494
0.0134953
0.0136662
0.0136771
0.013677
0.0136787
0.013677
0.0136783
0.0136768
0.0136781
0.0136768
0.0136784
0.0136772
0.013679
0.0136779
0.0136794
0.013678
0.0136793
0.0136776
0.0136786
0.013677
0.0136784
0.0136769
0.0136784
0.0136772
0.0136788
0.0136775
0.0136788
0.0136771
0.0136656
0.0134933
0.0134928
0.0136664
0.0136783
0.0136774
0.0136787
0.0136769
0.0136782
0.0136766
0.013678
0.0136768
0.0136784
0.0136773
0.013679
0.013678
0.0136793
0.0136779
0.0136792
0.0136776
0.0136786
0.013677
0.0136783
0.0136769
0.0136784
0.0136772
0.0136788
0.0136775
0.0136788
0.0136773
0.0136656
0.0134933
0.013492
0.0136641
0.013677
0.0136787
0.013677
0.0136783
0.0136766
0.0136779
0.0136764
0.013678
0.0136767
0.0136783
0.0136773
0.0136788
0.0136776
0.013679
0.0136778
0.0136794
0.0136782
0.0136776
0.0136781
0.0136769
0.0136784
0.0136768
0.0136781
0.0136768
0.0136784
0.0136761
0.0136665
0.0134946
0.0134922
0.0136664
0.0136786
0.0136775
0.0136788
0.0136769
0.0136781
0.0136766
0.013678
0.0136767
0.0136783
0.0136772
0.013679
0.0136779
0.0136793
0.013678
0.0136792
0.0136776
0.0136786
0.0136771
0.0136784
0.013677
0.0136786
0.0136773
0.0136788
0.0136774
0.0136784
0.0136775
0.0136658
0.0134935
0.0134942
0.0136661
0.0136759
0.0136768
0.0136777
0.0136766
0.0136781
0.0136767
0.013678
0.0136768
0.0136784
0.0136771
0.013679
0.0136779
0.0136786
0.0136786
0.0136781
0.0136791
0.0136772
0.0136785
0.0136768
0.0136782
0.0136769
0.0136783
0.0136771
0.0136787
0.0136775
0.0136757
0.0136663
0.0134947
0.0134921
0.0136662
0.0136784
0.0136774
0.0136787
0.0136771
0.0136782
0.0136769
0.0136781
0.0136769
0.0136783
0.0136774
0.0136792
0.0136783
0.0136801
0.0136787
0.0136801
0.0136785
0.0136795
0.0136779
0.0136789
0.0136776
0.0136791
0.0136779
0.0136793
0.0136774
0.0136785
0.0136776
0.0136654
0.0134929
0.0153474
0.0175026
0.0190751
0.0205931
0.0221476
0.0195532
0.0227174
0.0239164
0.0219571
0.0202188
0.0174871
0.0136582
0.0101045
0.00929551
0.018505
0.0190593
0.0241829
0.0292568
0.032587
0.0333481
0.032332
0.0312641
0.0323759
0.0353801
0.0392531
0.0432215
0.0474275
0.0509446
0.0532679
0.054265
0.0522575
0.0458537
0.0394072
0.0355018
0.0330049
0.0307061
0.027727
0.0248019
0.0225043
0.0201944
0.0157727
0.0126884
0.0121557
0.0197549
0.0145336
0.0236458
0.0302809
0.0307341
0.0267555
0.0207785
0.0161046
0.0161491
0.0227431
0.0336862
0.0427
0.0457292
0.0435229
0.0364507
0.0298231
0.0269948
0.0267533
0.0249149
0.0240232
0.0235527
0.027451
0.0371659
0.0569468
0.0631038
0.0582192
0.0485657
0.0334848
0.0175279
0.0105357
0.0163085
0.0133715
0.0239563
0.032541
0.0331108
0.0300786
0.0246005
0.0212784
0.0195393
0.0184454
0.0181034
0.0202793
0.0242174
0.0299282
0.0354107
0.0396471
0.0428705
0.0470219
0.054032
0.0622333
0.0651626
0.0612973
0.0514185
0.0407626
0.0326211
0.0271434
0.0228598
0.0192212
0.0154556
0.012412
0.00970326
0.0262032
0.0280917
0.0245802
0.0229292
0.0269117
0.0338526
0.0433969
0.0506591
0.0508412
0.0445611
0.0372312
0.0320177
0.0291168
0.0270362
0.0256201
0.0243789
0.0234256
0.0226687
0.0219533
0.0214666
0.0208545
0.0205417
0.0199555
0.0197036
0.0191545
0.0187774
0.0181544
0.0174944
0.0166684
0.0155728
0.023947
0.0239164
0.0232203
0.021908
0.0213371
0.0205685
0.0204005
0.019861
0.0198707
0.0194411
0.0195512
0.0191756
0.0193315
0.0190175
0.0191717
0.0189191
0.0190559
0.0188517
0.0189721
0.0188069
0.0189055
0.0187756
0.0188517
0.0187484
0.0188062
0.0187192
0.0187582
0.018679
0.0186913
0.0186727
0.0188963
0.0187971
0.0187935
0.0187633
0.0187614
0.0187406
0.0187446
0.0187274
0.0187319
0.018719
0.0187233
0.0187138
0.018717
0.0187114
0.0187125
0.01871
0.01871
0.0187086
0.0187093
0.0187075
0.0187095
0.0187062
0.018709
0.0187055
0.0187091
0.0187058
0.0187091
0.0187055
0.0187099
0.0187629
0.0187648
0.0187067
0.0187063
0.0187058
0.018709
0.018705
0.0187082
0.0187041
0.0187076
0.0187038
0.0187073
0.0187041
0.0187071
0.0187044
0.0187069
0.0187046
0.0187069
0.0187042
0.0187071
0.018704
0.0187077
0.0187041
0.0187082
0.0187049
0.018709
0.0187058
0.0187083
0.0187059
0.018707
0.0187617
0.0187613
0.0187077
0.0187087
0.0187058
0.0187089
0.0187046
0.018708
0.0187039
0.0187074
0.0187039
0.0187073
0.0187041
0.0187069
0.0187044
0.0187068
0.0187045
0.0187067
0.0187042
0.0187071
0.018704
0.0187075
0.0187041
0.0187082
0.0187049
0.0187089
0.0187057
0.0187082
0.0187061
0.018707
0.0187617
0.018759
0.0187052
0.0187059
0.0187089
0.0187054
0.0187084
0.0187043
0.0187076
0.0187037
0.0187072
0.0187037
0.0187068
0.018704
0.0187066
0.0187044
0.0187067
0.0187046
0.0187072
0.0187058
0.0187051
0.0187061
0.0187046
0.018708
0.0187045
0.0187083
0.0187051
0.0187086
0.0187048
0.0187087
0.0187635
0.0187607
0.0187071
0.0187087
0.0187058
0.0187089
0.0187046
0.0187078
0.0187038
0.0187072
0.0187038
0.0187072
0.0187041
0.0187069
0.0187044
0.0187067
0.0187046
0.0187068
0.0187042
0.0187071
0.0187041
0.0187077
0.0187043
0.0187083
0.018705
0.0187089
0.0187057
0.0187077
0.0187064
0.0187072
0.0187618
0.0187633
0.0187071
0.018705
0.0187049
0.0187076
0.0187046
0.0187082
0.0187041
0.0187076
0.0187039
0.0187074
0.0187038
0.0187072
0.0187045
0.0187058
0.0187056
0.0187046
0.018707
0.0187039
0.0187074
0.0187039
0.0187077
0.0187041
0.0187083
0.0187049
0.0187087
0.0187059
0.0187047
0.0187067
0.018764
0.0187608
0.0187071
0.0187088
0.0187056
0.0187092
0.0187046
0.0187087
0.0187039
0.0187081
0.0187035
0.0187076
0.0187035
0.0187072
0.0187041
0.0187071
0.0187044
0.0187068
0.018704
0.0187071
0.0187038
0.0187076
0.0187038
0.0187082
0.0187045
0.0187091
0.0187052
0.0187076
0.0187059
0.0187063
0.0187605
0.0198239
0.0233881
0.0255964
0.027414
0.0284373
0.0276016
0.0277323
0.0271058
0.0256137
0.0243629
0.0221917
0.0188058
0.0137139
0.0103711
0.0191032
0.0190944
0.0200992
0.0227585
0.0270153
0.0304194
0.0296573
0.0269837
0.0269166
0.030426
0.035239
0.0403652
0.0445759
0.0495899
0.0537024
0.0571966
0.0577586
0.0539352
0.0475732
0.0419321
0.0379973
0.0345501
0.0313388
0.0277942
0.0249115
0.0224753
0.0191421
0.0149274
0.0122799
0.0171184
0.0134115
0.0232238
0.0307311
0.0321225
0.0290527
0.0216141
0.0150405
0.015535
0.0238365
0.0368951
0.0486824
0.0552588
0.0559974
0.0496555
0.0384837
0.031361
0.0294581
0.0284004
0.0275396
0.0257399
0.0266875
0.033835
0.0416309
0.0588025
0.0660445
0.0595281
0.0480578
0.0311588
0.0141354
0.0131659
0.0177285
0.0267991
0.0327426
0.0330187
0.0303687
0.0271662
0.0238347
0.022632
0.0230045
0.0239317
0.0284662
0.0335857
0.0397414
0.0453252
0.0493681
0.0514366
0.0526889
0.0552101
0.0601477
0.0657395
0.0678634
0.0646677
0.0563168
0.0464282
0.0381314
0.0318092
0.0265401
0.0215408
0.0155073
0.0106064
0.0244749
0.0213786
0.0179821
0.0193686
0.0238422
0.0315248
0.0410634
0.0510536
0.0565636
0.0547224
0.0482783
0.0421849
0.0380037
0.0355351
0.033518
0.0321146
0.030703
0.0297889
0.0287504
0.0281107
0.027238
0.0267372
0.0258852
0.0254402
0.0245351
0.0239481
0.023022
0.022061
0.0206548
0.0190238
0.0308281
0.0320553
0.0309981
0.0293088
0.0279056
0.0269968
0.0263291
0.0258554
0.0254616
0.0251491
0.024961
0.0246773
0.0246225
0.0243678
0.0243987
0.0241596
0.0242355
0.0240128
0.0241135
0.0239125
0.0240153
0.0238378
0.0239348
0.0237749
0.0238607
0.0237081
0.0237739
0.0236316
0.0236509
0.0235854
0.0239995
0.0239373
0.0238359
0.0238351
0.0237827
0.023782
0.0237583
0.023756
0.0237421
0.0237399
0.0237331
0.0237302
0.0237275
0.0237246
0.0237244
0.0237218
0.0237227
0.0237208
0.023722
0.0237216
0.0237218
0.0237213
0.023721
0.0237209
0.0237197
0.0237188
0.0237158
0.0237126
0.0237119
0.0237741
0.0237755
0.0237113
0.0237112
0.0237156
0.0237183
0.023719
0.0237199
0.0237197
0.02372
0.0237197
0.0237203
0.0237202
0.0237205
0.0237202
0.0237205
0.0237202
0.0237205
0.0237202
0.0237204
0.02372
0.0237202
0.0237199
0.0237202
0.02372
0.0237197
0.023718
0.0237159
0.023712
0.0237114
0.023772
0.0237721
0.0237123
0.0237126
0.0237158
0.023718
0.0237187
0.0237197
0.0237195
0.0237198
0.0237198
0.0237203
0.0237202
0.0237203
0.0237202
0.0237204
0.0237201
0.0237203
0.0237201
0.0237203
0.02372
0.0237201
0.0237198
0.0237202
0.0237199
0.0237196
0.0237178
0.0237157
0.023712
0.0237114
0.023772
0.0237699
0.0237101
0.0237124
0.0237159
0.0237178
0.0237188
0.0237193
0.0237195
0.0237194
0.0237196
0.0237197
0.02372
0.0237199
0.02372
0.0237199
0.0237204
0.02372
0.023721
0.0237207
0.02372
0.02372