/*--------------------------------*- C++ -*----------------------------------*\
| =========                 |                                                 |
| \\      /  F ield         | OpenFOAM: The Open Source CFD Toolbox           |
|  \\    /   O peration     | Version:  2.1.1                                 |
|   \\  /    A nd           | Web:      www.OpenFOAM.org                      |
|    \\/     M anipulation  |                                                 |
\*---------------------------------------------------------------------------*/
FoamFile
{
    version     2.0;
    format      ascii;
    class       volScalarField;
    location    "0.002150000";
    object      k;
}
// * * * * * * * * * * * * * * * * * * * * * * * * * * * * * * * * * * * * * //

dimensions      [0 2 -2 0 0 0 0];

internalField   nonuniform List<scalar> 
12384
(
0.130672
0.154395
0.168153
0.156246
0.153914
0.146569
0.125629
0.147591
0.144324
0.137013
0.134882
0.129625
0.124705
0.103381
0.103529
0.130354
0.142672
0.153443
0.16035
0.184055
0.219749
0.247034
0.285791
0.344108
0.414863
0.470971
0.590032
0.669294
0.781125
0.91747
1.13013
1.02838
1.07739
0.881953
0.840644
0.865648
0.753532
0.64154
0.424961
0.41066
0.262198
0.177616
0.139543
0.108982
0.111501
0.122382
0.146091
0.323341
1.64502
9.7114
23.7067
28.0659
26.0375
22.0778
16.7943
11.3641
6.39019
3.38576
1.87648
1.29153
1.20636
1.20588
1.02104
1.03674
0.748133
0.624306
0.463505
0.37286
0.249787
0.19296
0.147855
0.121139
0.113418
0.107365
0.103304
0.106232
0.108742
0.111345
0.116855
0.123668
0.135037
0.159379
0.198693
0.233607
0.277317
0.304767
0.330993
0.361429
0.37673
0.378441
0.373231
0.338254
0.31622
0.26846
0.224742
0.186927
0.144603
0.132674
0.117521
0.11469
0.112744
0.112126
0.109926
0.107772
0.10105
0.103096
0.103731
0.104878
0.106063
0.1073
0.107898
0.108308
0.108238
0.108043
0.107788
0.107399
0.106938
0.106707
0.106086
0.105877
0.105374
0.104921
0.104743
0.104101
0.10408
0.103517
0.103447
0.102991
0.10281
0.102357
0.101902
0.101319
0.100667
0.100318
0.0982638
0.098546
0.0986017
0.098835
0.0987248
0.0988474
0.0987665
0.0987948
0.0987486
0.0987022
0.0986708
0.0986
0.0985691
0.0984861
0.0984624
0.0983764
0.0983517
0.098273
0.0982503
0.0981807
0.0981522
0.0980975
0.0980635
0.0980216
0.0979853
0.0979516
0.0979141
0.0978899
0.0978452
0.0978393
0.0976884
0.0977189
0.0977205
0.0977216
0.0977216
0.0977177
0.09772
0.0977202
0.0977175
0.0977182
0.0977144
0.0977154
0.0977115
0.0977127
0.0977077
0.0977105
0.0977061
0.0977084
0.0977048
0.097706
0.0977039
0.0977044
0.0977031
0.097703
0.0977019
0.0977021
0.0977
0.0977011
0.0976977
0.0976702
0.097668
0.0976963
0.0976972
0.097697
0.097698
0.0976994
0.0977005
0.0977003
0.0977017
0.0977007
0.0977017
0.0977011
0.097701
0.0977015
0.0976997
0.0977017
0.0977002
0.097701
0.0977008
0.0977001
0.0977005
0.0976993
0.0977
0.0976985
0.0976983
0.0976967
0.0976962
0.0976948
0.0976904
0.0976835
0.0976843
0.0976923
0.0976934
0.0976955
0.0976966
0.0976975
0.0976994
0.0976987
0.0977005
0.0976996
0.0977007
0.0977003
0.0977004
0.097701
0.0976994
0.0977014
0.0977
0.0977008
0.0977005
0.0976999
0.0977004
0.0976993
0.0977
0.0976984
0.0976982
0.0976967
0.0976963
0.0976946
0.0976904
0.0976836
0.0976863
0.0976895
0.097693
0.097696
0.097699
0.0976998
0.0976999
0.0977012
0.0977003
0.0977014
0.0977006
0.097701
0.0977011
0.0977
0.0977011
0.0976992
0.0977011
0.0977
0.0976995
0.0977009
0.0976997
0.0976995
0.097701
0.0976997
0.0977004
0.0976997
0.0976984
0.0976989
0.0976967
0.0976698
0.0976852
0.0976922
0.0976935
0.0976955
0.0976966
0.0976976
0.0976992
0.0976988
0.0977004
0.0976997
0.0977007
0.0977004
0.0977004
0.097701
0.0976994
0.0977014
0.0976999
0.0977008
0.0977007
0.0976998
0.0977003
0.0976991
0.0976996
0.0976981
0.097698
0.0976962
0.0976965
0.0976947
0.0976905
0.0976835
0.0976706
0.0976952
0.0976957
0.097698
0.0977007
0.0977013
0.0977022
0.0977014
0.0977023
0.097701
0.0977019
0.0977013
0.0977017
0.0977016
0.0977031
0.0977032
0.0977014
0.0977011
0.0977012
0.0977015
0.0977008
0.097702
0.0977012
0.0977016
0.0977007
0.0976995
0.0976967
0.097695
0.0976951
0.0976706
0.0976844
0.0976923
0.0976948
0.097696
0.0976998
0.0976982
0.0977035
0.0976996
0.0977046
0.0977003
0.0977045
0.0977009
0.097703
0.0977015
0.0977011
0.0977013
0.0976993
0.097701
0.0977006
0.0976998
0.0977012
0.0976995
0.097701
0.0976985
0.0976992
0.0976966
0.0976968
0.0976948
0.0976907
0.0976837
0.180266
0.514776
0.765201
0.847837
0.938511
1.08591
1.05574
1.05686
0.993168
0.954432
0.820493
0.723157
0.530471
0.133974
0.13287
0.517242
0.697394
0.735118
0.854282
1.04183
1.32309
1.7827
2.23489
2.83498
3.54401
4.71659
6.33574
8.35296
10.3883
12.4359
12.7952
13.3292
12.2617
11.1423
10.2403
9.50455
8.67562
7.83092
6.76573
5.59988
3.93825
2.46616
1.42809
0.212868
0.64252
8.92832
50.2099
144.542
250.801
315.404
315.888
260.986
202.803
149.132
98.4134
64.8361
39.311
21.7735
12.7455
8.70072
7.43293
7.01469
7.10811
7.79176
8.1739
8.50864
8.34187
7.63844
6.37043
4.81601
3.04271
1.56628
0.740176
0.163248
0.112522
0.200938
0.288344
0.44876
0.7224
1.1098
1.57144
2.10488
2.45519
2.75139
2.76156
2.41974
2.14921
2.22081
2.52133
2.94568
3.36684
3.70624
3.89819
3.92669
3.81793
3.61437
3.3264
2.90383
2.24849
1.44169
0.760337
0.380337
0.203488
0.116466
0.101663
0.120607
0.125539
0.133225
0.143725
0.155669
0.168534
0.181235
0.192939
0.202161
0.208718
0.211654
0.212037
0.208913
0.204044
0.196937
0.188692
0.179567
0.170155
0.16071
0.151618
0.142965
0.135207
0.128041
0.121856
0.116269
0.111745
0.107951
0.105368
0.100665
0.0986606
0.102082
0.102078
0.102025
0.102116
0.102129
0.102194
0.10218
0.102145
0.10209
0.101985
0.101905
0.101769
0.101637
0.101532
0.101403
0.101345
0.101266
0.101212
0.101145
0.10109
0.101032
0.100979
0.100922
0.100872
0.100814
0.10076
0.10071
0.100568
0.0977635
0.0976217
0.100234
0.10026
0.100276
0.100276
0.100257
0.100264
0.100227
0.100226
0.100179
0.100169
0.100115
0.100097
0.100034
0.100019
0.0999875
0.100018
0.100024
0.100062
0.100056
0.100086
0.100075
0.100101
0.100087
0.100114
0.1001
0.100128
0.100113
0.100087
0.0975942
0.09759
0.100095
0.100131
0.100105
0.100114
0.100082
0.100095
0.100064
0.100076
0.100039
0.100045
0.100004
0.100002
0.0999526
0.0999506
0.0999314
0.0999729
0.0999817
0.100028
0.100026
0.100066
0.100057
0.100088
0.100073
0.100104
0.100089
0.100121
0.100135
0.100095
0.0975888
0.097595
0.100083
0.100148
0.100114
0.100125
0.100093
0.100105
0.100073
0.100086
0.10005
0.100056
0.100014
0.10001
0.0999575
0.0999523
0.09993
0.0999697
0.0999783
0.100025
0.100024
0.100064
0.100056
0.100087
0.100073
0.100105
0.100089
0.100121
0.100134
0.100095
0.0975889
0.0975865
0.100101
0.100126
0.100124
0.10009
0.100101
0.10007
0.100083
0.100051
0.100059
0.100021
0.100024
0.0999802
0.0999724
0.0999321
0.0999502
0.0999553
0.100007
0.100012
0.100049
0.10007
0.100072
0.100104
0.10009
0.100119
0.100106
0.100136
0.100118
0.100095
0.097589
0.0975949
0.100083
0.100146
0.100113
0.100124
0.10009
0.100104
0.100071
0.100083
0.100046
0.100053
0.100012
0.100009
0.0999568
0.0999531
0.0999298
0.0999696
0.0999783
0.100026
0.100025
0.100064
0.100057
0.10009
0.100076
0.100107
0.100091
0.100123
0.100136
0.100093
0.0975892
0.0975852
0.100094
0.100116
0.10011
0.100116
0.100089
0.100101
0.100071
0.100083
0.100047
0.100051
0.100009
0.100005
0.0999534
0.0999415
0.0999425
0.0999528
0.100003
0.100006
0.100048
0.100043
0.10008
0.100067
0.100097
0.100085
0.100112
0.100105
0.100123
0.100095
0.0975865
0.0975942
0.100081
0.10014
0.100103
0.100114
0.100083
0.100099
0.100069
0.100086
0.100052
0.100062
0.100021
0.100019
0.0999672
0.0999605
0.0999304
0.0999658
0.0999753
0.100024
0.100023
0.100065
0.100059
0.100091
0.100077
0.100107
0.100091
0.10012
0.100135
0.100092
0.0975892
0.193787
0.66332
0.816844
0.859922
0.884925
1.36781
1.21957
1.23633
1.12423
1.0579
0.891072
0.793676
0.607114
0.130451
0.160644
1.00362
1.21737
1.38583
2.23156
4.88137
7.1825
8.03846
8.28751
8.38327
9.372
10.4622
12.3351
13.0118
12.6412
12.2442
14.0305
12.8791
11.3864
10.5213
10.9748
10.5221
9.61885
8.44843
6.74628
5.49192
4.41048
3.43338
2.21177
0.281135
1.65174
23.4018
89.6839
186.451
254.69
296.493
313.171
289.06
288.27
286.596
245.864
201.381
150.731
97.6404
65.527
44.5338
31.9474
26.4648
19.3821
15.1575
12.0275
10.0213
8.31436
6.98663
5.55581
4.04544
2.7534
1.73615
1.17457
0.19092
0.123714
0.370507
0.644406
1.33335
2.87675
5.53176
9.00465
11.8257
12.3911
11.7262
9.44763
7.84053
6.30856
5.22821
4.6526
4.46371
4.39118
4.2672
4.04651
3.71876
3.28141
2.77422
2.25795
1.71315
1.19165
0.770693
0.478112
0.296033
0.192614
0.114789
0.102647
0.142102
0.149113
0.158278
0.168451
0.177456
0.185053
0.190627
0.194026
0.195416
0.194803
0.191889
0.187867
0.18198
0.175882
0.168965
0.162201
0.155329
0.148427
0.142002
0.135569
0.129991
0.124555
0.119877
0.115645
0.111975
0.10903
0.106492
0.104811
0.100573
0.0988626
0.102306
0.102286
0.102236
0.102167
0.102065
0.101974
0.101911
0.101787
0.101729
0.1016
0.101527
0.101394
0.101277
0.101208
0.101089
0.101086
0.101015
0.101016
0.100947
0.100939
0.100871
0.100859
0.100799
0.10078
0.100724
0.100686
0.100626
0.100517
0.0979492
0.0978781
0.100234
0.100216
0.100196
0.100169
0.100129
0.100121
0.100068
0.100066
0.100011
0.100006
0.0999455
0.0999298
0.0998628
0.0998489
0.0998169
0.0998645
0.0998795
0.0999398
0.0999439
0.0999902
0.0999845
0.100023
0.100009
0.100044
0.100026
0.100057
0.100038
0.10005
0.0978461
0.0978488
0.100003
0.100026
0.1
0.100016
0.0999787
0.0999941
0.0999525
0.0999653
0.0999204
0.0999267
0.0998717
0.0998641
0.0998013
0.0997952
0.0997702
0.099825
0.0998381
0.0998994
0.0999016
0.0999498
0.0999422
0.0999861
0.0999741
0.100015
0.100006
0.100037
0.100037
0.100028
0.0978113
0.0978119
0.100044
0.10006
0.100018
0.100036
0.0999967
0.100012
0.0999697
0.0999811
0.0999347
0.0999398
0.0998846
0.0998711
0.0998057
0.0997957
0.0997682
0.0998208
0.0998338
0.0998951
0.0998973
0.0999469
0.0999399
0.0999837
0.0999737
0.100015
0.100005
0.100037
0.100038
0.100028
0.0978111
0.0978085
0.100027
0.100021
0.100024
0.0999897
0.100005
0.0999672
0.099981
0.099939
0.09995
0.0999024
0.0999026
0.0998433
0.0998318
0.0997743
0.0997909
0.0997934
0.0998645
0.0998898
0.0999286
0.0999501
0.0999589
0.100002
0.0999906
0.100029
0.100012
0.100045
0.100025
0.100033
0.0978514
0.0978087
0.100039
0.100058
0.100016
0.100035
0.0999954
0.10001
0.0999679
0.0999798
0.0999334
0.0999391
0.0998842
0.0998727
0.099808
0.0997973
0.0997675
0.0998185
0.0998323
0.0998932
0.0998963
0.0999466
0.0999398
0.0999847
0.0999737
0.100016
0.100007
0.100038
0.10004
0.10003
0.0978119
0.0978485
0.100015
0.100025
0.100022
0.10002
0.0999832
0.0999963
0.0999555
0.0999668
0.0999217
0.0999284
0.0998735
0.0998661
0.099803
0.0997816
0.099782
0.0998045
0.0998673
0.0998749
0.0999297
0.0999228
0.0999687
0.0999566
0.0999983
0.0999846
0.100024
0.100017
0.100024
0.100006
0.097849
0.0978076
0.100037
0.100052
0.10001
0.100029
0.0999896
0.100005
0.0999616
0.0999753
0.09993
0.0999378
0.099885
0.099877
0.0998132
0.0998012
0.0997642
0.0998107
0.0998265
0.0998884
0.0998921
0.0999424
0.0999363
0.0999826
0.0999719
0.100014
0.100006
0.100036
0.100041
0.100031
0.0978108
0.26556
1.1569
1.21866
1.56734
2.14738
2.97337
2.53701
2.58249
2.17917
1.64548
1.21044
1.02864
0.766452
0.13838
0.193024
1.84743
3.97093
6.86892
8.23673
10.3391
11.2423
12.4952
12.2859
11.5078
11.9687
13.8228
16.5741
18.1093
19.8023
22.9708
24.7977
21.5707
16.7433
17.511
19.2264
17.3785
14.5363
13.5537
10.7908
7.76983
6.03167
4.845
3.31148
0.440487
2.55811
37.6282
108.594
162.515
166.169
179.806
264.273
470.936
726.767
848.268
843.298
731.55
603.497
420.903
279.966
170.249
104.391
64.7336
49.5876
40.7769
28.475
19.8413
13.773
9.99008
7.24467
5.17258
3.5545
2.45914
1.85112
0.235599
0.161853
1.04687
2.54085
6.04668
11.9535
17.5123
20.0754
20.1988
19.801
23.7922
24.1251
23.9532
20.2991
15.9881
12.4703
9.96906
8.39917
7.33912
6.4247
5.53658
4.63365
3.74471
2.89875
2.09835
1.36977
0.831564
0.505296
0.316616
0.215036
0.116139
0.105223
0.186224
0.20905
0.232872
0.248329
0.251952
0.24939
0.244656
0.239008
0.231847
0.223626
0.214596
0.204979
0.195243
0.185522
0.176069
0.166954
0.158492
0.150481
0.143398
0.136636
0.130805
0.125276
0.120518
0.116119
0.112421
0.109232
0.106672
0.104795
0.100611
0.0991929
0.103047
0.102662
0.102395
0.102277
0.102122
0.102012
0.101863
0.101766
0.101604
0.101528
0.101378
0.101302
0.101167
0.101108
0.100988
0.100939
0.100835
0.100796
0.100706
0.100672
0.100593
0.100561
0.10049
0.100459
0.100388
0.100358
0.100279
0.100165
0.0978411
0.0977169
0.099919
0.0999028
0.0998906
0.0998641
0.0998349
0.0998195
0.0997924
0.0997765
0.099753
0.0997396
0.0997193
0.099707
0.099691
0.0996823
0.0996714
0.0996674
0.0996606
0.0996607
0.0996538
0.0996546
0.099649
0.0996518
0.0996471
0.0996505
0.0996463
0.0996529
0.0996499
0.0996293
0.0976694
0.0976683
0.0996403
0.0996627
0.0996506
0.0996502
0.0996412
0.0996411
0.0996352
0.0996364
0.0996314
0.099632
0.0996265
0.0996266
0.0996217
0.0996226
0.0996203
0.0996241
0.0996237
0.0996289
0.0996286
0.0996336
0.0996319
0.0996367
0.099636
0.0996427
0.0996406
0.0996554
0.0996558
0.0996284
0.0976934
0.0976947
0.0996201
0.0996507
0.0996406
0.0996401
0.0996346
0.099636
0.099632
0.099634
0.0996299
0.0996308
0.0996258
0.0996263
0.0996216
0.0996226
0.0996207
0.0996246
0.0996243
0.0996295
0.0996293
0.0996343
0.0996326
0.0996372
0.0996365
0.0996431
0.0996406
0.0996549
0.0996559
0.0996289
0.0976936
0.0976945
0.0996282
0.0996458
0.0996549
0.0996437
0.099644
0.0996376
0.0996386
0.0996338
0.0996352
0.0996302
0.0996305
0.0996252
0.0996258
0.0996216
0.0996238
0.0996224
0.0996274
0.0996237
0.0996403
0.0996449
0.0996314
0.0996359
0.0996346
0.0996399
0.0996394
0.0996471
0.0996457
0.0996277
0.0976678
0.0976965
0.0996247
0.0996511
0.0996407
0.0996401
0.0996346
0.099636
0.0996321
0.099634
0.0996299
0.099631
0.099626
0.0996264
0.0996217
0.0996226
0.0996205
0.0996242
0.0996238
0.0996288
0.0996286
0.0996337
0.0996321
0.099637
0.0996368
0.0996434
0.0996409
0.0996542
0.0996562
0.0996279
0.0976933
0.0976675
0.0996337
0.0996422
0.0996384
0.0996511
0.0996414
0.0996418
0.0996352
0.0996364
0.0996314
0.0996321
0.0996267
0.0996271
0.0996215
0.0996338
0.0996331
0.0996207
0.0996262
0.0996256
0.0996306
0.0996298
0.0996346
0.0996332
0.099639
0.0996389
0.0996476
0.0996406
0.0996504
0.0996366
0.0976675
0.0976953
0.0996219
0.099649
0.0996391
0.0996389
0.0996343
0.0996359
0.0996331
0.0996349
0.0996317
0.0996327
0.0996281
0.0996277
0.099622
0.0996222
0.0996194
0.0996222
0.0996215
0.0996268
0.0996276
0.0996333
0.0996323
0.0996374
0.099637
0.0996442
0.0996407
0.0996539
0.0996559
0.0996287
0.097694
0.292793
1.68799
1.88292
2.47205
3.54228
6.49007
5.16954
4.47285
4.08957
2.89676
1.8049
1.44191
1.13307
0.174564
0.245903
2.58499
11.585
20.027
18.4457
18.0512
16.7022
16.8359
15.888
15.0464
15.5766
17.219
18.6353
20.077
22.237
25.561
28.0062
29.2471
27.2854
24.0285
23.1017
21.2227
18.1246
18.2733
14.449
10.0818
7.95256
6.51186
5.11656
0.736564
3.39905
51.2215
113.122
119.582
88.021
142.957
464.008
1074.44
1680.16
1978.82
1917.29
1642.33
1310.03
993.063
698.298
453.131
290.917
180.267
111.359
71.2134
61.4911
49.3643
31.4508
20.0383
13.0975
8.92514
6.3222
4.62158
3.55891
0.392614
0.276869
2.94827
6.21181
9.32169
11.5131
12.9572
14.3083
19.2518
30.3089
65.8118
80.0275
81.0126
66.0669
48.7568
34.5827
24.5585
18.0509
13.8991
11.159
9.08848
7.35006
5.81112
4.43656
3.2034
2.15596
1.28385
0.74454
0.444979
0.290023
0.12212
0.111921
0.27004
0.380171
0.502634
0.550249
0.501265
0.428979
0.373898
0.336254
0.307219
0.282763
0.261179
0.241314
0.224221
0.208089
0.194085
0.180882
0.169533
0.159242
0.150268
0.142314
0.135219
0.128988
0.12342
0.118548
0.114336
0.110682
0.107787
0.10561
0.100758
0.0992348
0.10428
0.103645
0.10337
0.103113
0.102779
0.102591
0.102292
0.102146
0.101899
0.101813
0.101577
0.101518
0.10134
0.101246
0.101127
0.10104
0.100948
0.100873
0.1008
0.100735
0.100673
0.100616
0.100557
0.100508
0.100449
0.100404
0.100309
0.100227
0.0978436
0.097757
0.100018
0.100019
0.0999774
0.0999597
0.0999517
0.0999067
0.0999039
0.099858
0.0998561
0.0998129
0.0998149
0.0997745
0.0997803
0.0997447
0.0997541
0.0997232
0.099736
0.0997084
0.0997226
0.0996981
0.0997143
0.0996911
0.0997098
0.0996862
0.0997069
0.0996847
0.0997052
0.0996581
0.0977147
0.0977129
0.0996657
0.0996861
0.0997028
0.0996773
0.0997011
0.0996771
0.0997017
0.0996775
0.0997021
0.0996768
0.0997001
0.0996747
0.099697
0.099673
0.0996959
0.0996738
0.0996985
0.0996761
0.0997011
0.0996776
0.0997015
0.0996772
0.0997004
0.0996765
0.0997001
0.0996802
0.0996887
0.0996811
0.0976917
0.0976935
0.099679
0.0996763
0.0997012
0.0996769
0.0997016
0.0996775
0.0997021
0.0996778
0.0997021
0.0996768
0.0996996
0.0996748
0.0996969
0.0996731
0.0996961
0.099674
0.0996989
0.0996763
0.0997014
0.0996779
0.0997017
0.0996772
0.0997005
0.0996766
0.0997003
0.0996805
0.0996881
0.0996816
0.0976915
0.0976948
0.0996781
0.0996987
0.0996788
0.0997017
0.0996775
0.0997023
0.0996779
0.0997031
0.0996782
0.0997021
0.0996768
0.0996995
0.0996747
0.0996971
0.0996737
0.0996969
0.0996736
0.0996965
0.0996833
0.0996798
0.0997003
0.0996766
0.099701
0.0996782
0.0997024
0.0996805
0.0997055
0.0996565
0.0977165
0.0976905
0.0996814
0.0996756
0.0997008
0.0996765
0.0997015
0.0996772
0.0997023
0.0996778
0.0997024
0.0996768
0.0997
0.0996748
0.099697
0.099673
0.0996959
0.0996737
0.0996983
0.0996759
0.0997007
0.0996773
0.0997008
0.0996766
0.0996997
0.099676
0.0996995
0.0996811
0.0996868
0.0996808
0.0976916
0.0977176
0.0996604
0.0997005
0.0996984
0.0996797
0.0997025
0.0996778
0.0997018
0.0996776
0.0997022
0.0996767
0.0997
0.0996742
0.0996967
0.0996729
0.0996746
0.0996959
0.0996735
0.0996992
0.099676
0.0997013
0.0996768
0.0997009
0.0996766
0.0997005
0.0996768
0.0996986
0.0996947
0.0996622
0.0977153
0.0976917
0.0996786
0.0996742
0.0997004
0.099676
0.0997014
0.0996773
0.0997029
0.0996784
0.0997037
0.0996781
0.0997014
0.0996752
0.0996968
0.0996719
0.0996943
0.0996719
0.0996954
0.0996743
0.0997003
0.0996775
0.0997014
0.0996771
0.0997005
0.0996768
0.0997002
0.0996824
0.0996869
0.0996826
0.097692
0.316981
2.06402
2.70655
3.6513
4.97617
7.84205
5.97544
5.28077
5.07771
4.43595
4.37397
2.7709
1.6107
0.207618
0.235833
4.86896
17.2085
27.7651
27.6142
25.7014
22.8569
21.8062
20.508
19.1591
18.6249
18.9955
19.4018
20.5675
22.0794
24.2392
26.1521
28.2526
29.2448
27.5598
25.0015
27.2192
25.9287
20.4562
17.3641
15.4816
11.91
9.43547
8.23987
1.4984
3.04139
60.7121
110.205
86.3196
63.3173
290.388
829.742
1790.92
2762.58
3287.28
3197.86
2778.95
2198.59
1666.39
1232.07
882.421
568.241
340.267
232.745
170.425
130.513
99.1895
80.8654
50.4822
30.8296
19.1947
13.1234
9.93751
8.21482
0.942602
0.269743
5.13618
7.08118
7.33045
7.59109
9.00378
17.1733
72.5949
155.121
307.642
355.837
318.998
233.848
153.253
96.9026
61.4455
40.4461
28.0854
20.6409
15.8529
12.3775
9.6311
7.30991
5.31819
3.59142
2.22707
1.29308
0.755497
0.48537
0.135188
0.119349
0.348928
0.691204
1.32331
1.66631
1.48237
1.05855
0.734041
0.556997
0.454008
0.385933
0.335906
0.296846
0.266082
0.239971
0.218524
0.199862
0.184563
0.171154
0.159885
0.150124
0.141528
0.134216
0.127604
0.122115
0.117133
0.113086
0.109582
0.107048
0.101105
0.0999994
0.106431
0.105294
0.104426
0.104016
0.103471
0.103198
0.102742
0.102563
0.10218
0.102071
0.101746
0.101691
0.101454
0.101378
0.101213
0.101144
0.101017
0.100962
0.100853
0.100813
0.100717
0.100682
0.100596
0.100565
0.100485
0.100451
0.100355
0.100279
0.0978615
0.0977895
0.100091
0.100075
0.100042
0.100027
0.100007
0.0999683
0.0999561
0.0999166
0.0999035
0.0998638
0.0998534
0.0998186
0.0998126
0.0997841
0.0997835
0.0997583
0.0997631
0.0997411
0.0997475
0.0997276
0.0997382
0.0997204
0.099732
0.0997144
0.0997264
0.0997107
0.099724
0.0996928
0.0977166
0.0977135
0.099702
0.0997129
0.0997188
0.0997041
0.0997194
0.0997054
0.0997215
0.099707
0.0997223
0.0997062
0.09972
0.0997035
0.0997167
0.0997015
0.0997162
0.0997023
0.0997183
0.0997053
0.0997207
0.0997066
0.0997207
0.0997054
0.0997181
0.0997037
0.0997162
0.0997064
0.0997166
0.0997021
0.0977125
0.0977127
0.0996994
0.0997068
0.0997195
0.0997043
0.0997203
0.099706
0.0997214
0.0997072
0.0997218
0.0997059
0.0997194
0.0997036
0.0997165
0.0997017
0.0997165
0.0997028
0.0997185
0.0997055
0.0997208
0.0997068
0.0997208
0.0997056
0.0997183
0.099704
0.0997164
0.0997065
0.0997159
0.0997024
0.0977124
0.0977122
0.0997077
0.0997196
0.0997062
0.099719
0.0997056
0.0997214
0.0997073
0.0997232
0.0997079
0.0997223
0.0997064
0.0997197
0.0997038
0.0997179
0.099703
0.0997171
0.0997028
0.0997141
0.099713
0.0997081
0.0997194
0.0997053
0.0997203
0.0997061
0.0997203
0.0997064
0.0997234
0.0996932
0.0977143
0.0977134
0.0997008
0.0997055
0.0997188
0.0997037
0.0997202
0.0997059
0.0997217
0.0997073
0.0997222
0.0997061
0.0997197
0.0997036
0.0997166
0.0997017
0.0997161
0.0997023
0.0997178
0.0997048
0.09972
0.0997059
0.0997196
0.0997044
0.0997172
0.0997036
0.099716
0.0997084
0.0997141
0.0997009
0.0977124
0.0977152
0.099698
0.0997199
0.0997194
0.099708
0.0997205
0.0997059
0.0997213
0.0997069
0.0997221
0.0997062
0.0997205
0.0997035
0.0997157
0.0997061
0.0997067
0.0997145
0.0997026
0.0997194
0.0997052
0.0997211
0.0997058
0.0997201
0.0997044
0.0997181
0.0997041
0.0997161
0.0997192
0.0996987
0.0977142
0.097714
0.0996984
0.0997043
0.0997176
0.0997028
0.0997193
0.0997051
0.0997213
0.0997072
0.0997229
0.0997076
0.099721
0.099704
0.0997164
0.0997004
0.0997142
0.0996999
0.0997156
0.0997039
0.09972
0.0997069
0.0997208
0.0997061
0.0997187
0.0997051
0.0997184
0.0997099
0.0997152
0.0997049
0.0977123
0.364008
2.43301
3.3956
4.54977
5.5423
7.18611
5.82961
5.40715
5.65798
5.81712
6.48963
4.9526
1.99517
0.249723
0.44534
14.2787
33.6418
43.6058
41.7994
35.9164
30.5224
27.4753
24.9862
22.7958
21.2435
20.7176
20.9821
22.2533
23.8644
25.5431
27.4661
30.0299
32.4776
33.0291
32.775
35.6953
38.5965
35.5552
28.3697
22.3887
22.1624
17.5989
16.2082
4.01777
3.40009
76.1248
118.751
94.6731
136.208
811.587
1407.2
2517.74
3670.12
4243.6
4034.05
3556.75
2830.02
2015.2
1426.59
1090.7
801.606
535.508
371.811
288.177
257.085
198.769
156.933
138.736
98.5666
57.1242
36.2521
26.9336
22.0898
3.50206
0.165598
6.53735
6.95473
9.01661
15.822
46.558
224.829
634.692
1141.95
1516.43
1561.95
1235.8
816.464
482.978
272.767
154.502
91.5875
58.1208
39.5933
28.6629
21.56
16.4506
12.5465
9.33312
6.70384
4.50369
2.81147
1.71259
1.10338
0.212356
0.113552
0.579242
2.03861
4.13465
4.86879
4.18218
2.92989
1.81555
1.11935
0.773344
0.585829
0.471516
0.393605
0.337088
0.293763
0.259555
0.231755
0.209362
0.1907
0.175408
0.162489
0.15161
0.142372
0.134468
0.127835
0.122
0.117123
0.112783
0.109773
0.101768
0.100913
0.109736
0.107903
0.106239
0.105619
0.104545
0.104141
0.103409
0.103139
0.102632
0.102443
0.102085
0.10193
0.101679
0.101552
0.101373
0.101269
0.101133
0.101055
0.10094
0.100886
0.100784
0.100746
0.100653
0.100622
0.100538
0.100504
0.100413
0.100332
0.0978452
0.097758
0.10017
0.100164
0.100114
0.100106
0.10007
0.100042
0.100017
0.0999863
0.0999627
0.0999286
0.0999061
0.0998746
0.099857
0.0998337
0.0998201
0.0998015
0.0997942
0.0997791
0.0997757
0.0997621
0.0997643
0.0997529
0.0997557
0.0997451
0.0997471
0.0997382
0.0997419
0.0997162
0.0976713
0.0976697
0.0997238
0.0997394
0.0997401
0.0997336
0.0997416
0.0997366
0.0997444
0.099739
0.0997458
0.0997387
0.0997435
0.0997367
0.099741
0.099736
0.0997406
0.0997364
0.0997423
0.0997383
0.0997447
0.0997389
0.0997445
0.0997371
0.0997414
0.0997346
0.0997395
0.0997347
0.0997404
0.0997237
0.0976664
0.0976679
0.0997203
0.0997345
0.0997395
0.0997342
0.0997424
0.0997373
0.0997446
0.0997395
0.0997455
0.0997387
0.0997435
0.0997371
0.0997411
0.0997363
0.0997411
0.099737
0.0997427
0.0997387
0.0997449
0.0997393
0.0997447
0.0997374
0.0997416
0.0997349
0.0997399
0.0997351
0.0997397
0.099724
0.0976665
0.0976687
0.0997279
0.0997392
0.0997338
0.0997399
0.0997364
0.0997438
0.0997392
0.0997464
0.0997404
0.099746
0.0997392
0.0997434
0.0997378
0.0997423
0.0997372
0.0997414
0.0997356
0.0997387
0.0997434
0.0997395
0.0997436
0.0997364
0.0997432
0.0997365
0.0997407
0.0997345
0.0997415
0.0997179
0.0976709
0.0976671
0.0997219
0.0997332
0.0997392
0.099734
0.0997427
0.0997377
0.0997451
0.0997398
0.0997461
0.099739
0.0997437
0.0997371
0.0997411
0.0997363
0.0997405
0.0997363
0.0997421
0.099738
0.099744
0.0997382
0.0997435
0.0997362
0.0997407
0.0997345
0.0997396
0.0997373
0.0997384
0.0997226
0.0976664
0.0976718
0.099721
0.0997412
0.0997429
0.0997369
0.0997416
0.0997363
0.0997435
0.0997383
0.0997451
0.0997382
0.0997443
0.0997366
0.0997409
0.0997368
0.0997374
0.0997399
0.0997358
0.0997434
0.0997375
0.0997443
0.0997377
0.0997427
0.0997353
0.0997398
0.0997329
0.0997373
0.0997428
0.0997211
0.0976709
0.0976675
0.0997184
0.099731
0.0997378
0.0997322
0.0997415
0.0997355
0.0997441
0.0997378
0.0997458
0.0997387
0.0997445
0.0997359
0.0997404
0.0997339
0.0997391
0.0997349
0.0997412
0.0997377
0.0997448
0.0997395
0.0997455
0.0997388
0.0997433
0.0997364
0.0997429
0.0997392
0.0997399
0.0997261
0.0976669
0.460417
2.88099
4.08581
5.18194
5.52655
6.63921
6.10226
6.85757
8.45292
9.83611
10.5462
8.11112
3.39266
0.259828
6.27092
51.2214
102.961
109.532
91.3062
67.7818
50.6612
41.3795
35.1762
30.5172
27.0319
25.2121
24.8954
25.8986
27.7662
29.6738
32.1534
35.3013
38.7467
40.7374
42.4725
47.7123
54.2572
60.9612
56.0241
46.0013
33.5583
32.0719
32.4538
16.5602
12.3641
352.851
480.792
471.671
555.698
1761.99
2334.94
3326.18
4297.01
4524.55
4103.74
3632.46
2955.55
2107.85
1429.44
1086.91
884.998
701.732
525.254
413.155
375.151
350.405
296.766
313.152
228.481
162.548
102.322
67.8397
53.6284
12.9991
0.332723
9.16345
17.8627
50.1483
307.605
1016.07
2440.46
4134.43
5803.76
6209.42
5561.24
4094.04
2556.54
1403.52
721.979
371.575
201.86
119.282
76.8507
53.2855
38.6337
28.758
21.5625
16.0927
11.7452
8.18759
5.19469
3.06991
2.0578
0.282767
0.502785
4.0977
9.68862
13.9833
13.6696
10.3889
6.71528
3.9253
2.31403
1.45341
0.982146
0.719871
0.558392
0.450405
0.374569
0.318899
0.276325
0.243527
0.217077
0.196173
0.1787
0.164654
0.152567
0.142613
0.133987
0.126958
0.120941
0.116292
0.113949
0.103641
0.103077
0.11601
0.112291
0.108655
0.107277
0.105648
0.105
0.104018
0.103692
0.103035
0.102809
0.102393
0.102208
0.101903
0.101745
0.101527
0.101411
0.101252
0.101158
0.101034
0.100968
0.100863
0.100816
0.100722
0.100685
0.100608
0.100563
0.100488
0.100438
0.0979175
0.0978253
0.10017
0.100204
0.100156
0.10017
0.100121
0.100104
0.100069
0.100048
0.100017
0.0999904
0.0999607
0.0999309
0.0999039
0.0998804
0.0998619
0.0998465
0.0998347
0.0998209
0.0998121
0.0998013
0.0997989
0.0997905
0.0997891
0.099782
0.0997803
0.0997744
0.0997758
0.0997545
0.0976626
0.0976597
0.0997604
0.0997741
0.099772
0.0997687
0.0997735
0.0997709
0.0997758
0.0997729
0.0997768
0.0997725
0.0997748
0.0997718
0.099774
0.0997705
0.0997729
0.0997718
0.0997751
0.0997723
0.0997759
0.0997726
0.099776
0.0997713
0.0997733
0.0997692
0.0997722
0.0997696
0.0997753
0.0997579
0.0976614
0.0976617
0.0997547
0.0997708
0.0997721
0.0997698
0.0997747
0.0997719
0.0997765
0.0997735
0.0997768
0.0997726
0.099775
0.0997725
0.0997743
0.0997709
0.0997735
0.0997725
0.0997754
0.0997726
0.0997762
0.0997729
0.0997762
0.0997715
0.0997735
0.0997695
0.0997726
0.09977
0.0997748
0.0997581
0.0976613
0.0976629
0.0997622
0.0997735
0.0997694
0.0997724
0.0997711
0.0997755
0.0997733
0.0997776
0.0997742
0.0997771
0.0997731
0.0997758
0.0997732
0.099774
0.0997714
0.0997741
0.0997713
0.0997706
0.0997768
0.0997734
0.099775
0.0997708
0.0997748
0.099771
0.099773
0.0997695
0.0997745
0.0997552
0.0976606
0.0976621
0.0997564
0.0997691
0.0997719
0.0997698
0.0997752
0.0997723
0.0997769
0.099774
0.0997772
0.0997729
0.0997751
0.0997724
0.0997742
0.099771
0.099773
0.099772
0.0997748
0.0997719
0.0997753
0.0997718
0.099775
0.0997702
0.0997724
0.0997689
0.0997722
0.0997719
0.0997736
0.0997568
0.0976613
0.0976611
0.0997576
0.0997737
0.0997761
0.0997721
0.0997736
0.0997706
0.099775
0.0997724
0.0997759
0.0997721
0.0997757
0.0997719
0.099774
0.0997717
0.0997721
0.0997731
0.0997714
0.099775
0.0997716
0.0997755
0.0997719
0.0997744
0.0997696
0.0997718
0.0997681
0.0997696
0.0997753
0.0997574
0.0976605
0.097662
0.0997527
0.0997671
0.0997712
0.0997686
0.0997743
0.0997703
0.0997761
0.0997725
0.0997775
0.0997731
0.0997764
0.0997707
0.0997728
0.0997687
0.0997715
0.0997689
0.0997725
0.0997708
0.0997752
0.0997727
0.0997766
0.0997728
0.0997751
0.0997704
0.0997736
0.099773
0.0997746
0.0997609
0.0976624
0.589182
3.5583
4.70415
5.4357
5.78728
7.1894
7.92343
9.7816
12.3976
14.7792
17.1724
16.6177
13.5789
12.0043
4.46966
5.67585
80.571
189.498
235.818
204.62
147.817
100.037
72.4565
58.3217
49.95
43.3333
38.3548
34.7198
32.7985
32.4749
33.4832
35.121
38.2326
42.6471
48.2347
52.5907
57.3489
66.5547
80.4705
103.914
120.633
103.569
112.561
77.8799
118.356
922.738
797.185
409.12
700.611
1117.85
1326.32
1364
1538.88
2498.68
3666.59
4359.64
4780.95
4417.51
3780.03
3300.82
2727.99
1992.57
1320.58
962.364
833.206
758.634
646.245
549.176
497.259
465.817
419.778
427.738
461.254
385.619
300.783
230.641
249.304
3121.1
1390.3
401.693
156.561
239.824
849.265
2313.15
4762.55
8261.44
12263.1
16132.6
17986.8
17657.1
14716.3
10526.8
6408.34
3390.45
1651.01
798.496
411.035
233.141
145.614
98.3336
69.9935
51.4787
38.4666
28.7519
21.2377
15.6137
11.5189
9.46908
11.0407
37.7625
10.9254
2.71604
20.5391
32.4837
39.9209
40.001
32.0918
21.7901
12.7894
7.02509
3.9839
2.48131
1.66882
1.17345
0.856192
0.655249
0.520161
0.424114
0.354414
0.301641
0.261517
0.230161
0.205648
0.186131
0.170532
0.15797
0.1481
0.14089
0.136216
0.134879
0.138652
0.149735
0.105899
0.103617
0.143431
0.141494
0.128031
0.118312
0.112561
0.109296
0.107154
0.105771
0.104752
0.103989
0.103383
0.102911
0.102534
0.102218
0.101959
0.101742
0.10156
0.101394
0.101272
0.101144
0.101055
0.100955
0.100887
0.100808
0.100753
0.100691
0.100642
0.100599
0.100568
0.100463
0.0978907
0.0978413
0.100523
0.100553
0.100477
0.10038
0.10032
0.100254
0.100209
0.100164
0.100129
0.100088
0.100056
0.100019
0.0999912
0.0999567
0.0999334
0.099906
0.0998899
0.099871
0.099859
0.0998465
0.0998395
0.0998356
0.0998326
0.0998354
0.0998401
0.0998506
0.0998676
0.0998888
0.0999038
0.0998041
0.0975987
0.0975994
0.099809