/*--------------------------------*- C++ -*----------------------------------*\
| =========                 |                                                 |
| \\      /  F ield         | OpenFOAM: The Open Source CFD Toolbox           |
|  \\    /   O peration     | Version:  2.1.1                                 |
|   \\  /    A nd           | Web:      www.OpenFOAM.org                      |
|    \\/     M anipulation  |                                                 |
\*---------------------------------------------------------------------------*/
FoamFile
{
    version     2.0;
    format      ascii;
    class       volScalarField;
    location    "0.002150000";
    object      Tu;
}
// * * * * * * * * * * * * * * * * * * * * * * * * * * * * * * * * * * * * * //

dimensions      [0 0 0 1 0 0 0];

internalField   nonuniform List<scalar> 
12384
(
270
270
270
270
270
270
270
337.515
350.695
353.175
353.638
353.652
353.224
351.617
347.348
347.733
350.035
352.17
350.112
335.254
298.771
284.904
286.386
295.032
294.358
300.096
306.458
312.388
326.956
335.593
359.854
363.714
369.519
370.947
369.12
369
366.241
361.497
359.556
357.977
357.293
358.084
359.462
360.618
410.986
419.405
421.346
413.149
407.384
401.074
403.206
385.758
381.565
375.478
374.821
373.513
377.563
379.972
382.809
383.291
385.228
383.891
382.274
382.243
382.25
382.206
381.862
375.795
376.777
376.916
377.587
374.791
370.868
368.895
334.925
333.194
332.902
330.732
330.79
328.232
332.986
329.148
338.507
338.774
344.539
349.491
355.176
359.41
363.751
366.877
369.057
369.718
369.315
367.844
366.635
361.555
361.73
359.51
364.725
362.78
373.18
377.806
382.24
385.367
321.503
322.239
321.976
322.694
323.45
323.134
324.175
323.766
324.176
323.537
323.684
323.032
323.064
322.485
322.426
321.608
321.645
319.935
320.403
317.878
318.869
316.454
317.429
315.762
316.421
315.324
315.656
314.858
314.981
314.729
298.979
298.935
298.781
298.625
298.446
298.295
297.956
297.862
297.44
297.435
296.892
296.954
296.384
296.495
295.886
296.067
295.469
295.637
295.148
295.247
294.852
294.95
294.583
294.718
294.396
294.503
294.272
294.349
294.214
294.276
293.185
293.182
293.181
293.162
293.163
293.144
293.143
293.121
293.123
293.097
293.103
293.078
293.082
293.058
293.065
293.042
293.049
293.032
293.038
293.025
293.027
293.02
293.02
293.015
293.015
293.012
293.011
293.009
293.009
293.008
293
293
293
293
293.001
293
293
293
293
293.001
293.001
293.001
293
293
293
293
293
293
293.002
293.001
293
293.001
293
293
293
293.001
293
293.001
293
292.999
293
293
293
293.001
293.001
293
293
293
293.001
293.001
293.001
293.001
292.999
293
293
293
293
293
293.001
293.001
293
293.001
293
293
293
293.002
293
293.001
293
292.999
293
293.001
293
293
293.002
293
293
293.001
293.001
293
293.001
293.001
293
292.999
293
293
293
292.999
293.001
293.001
293
293
293
293
293
293.002
293
293
293
293
292.999
293
292.999
293
293.001
293
293
293
293.001
293.001
293.001
293.001
293
293
293
293
293
293
293.002
293.001
293
293.001
293
293
293
293.002
293
293.001
293
293
292.998
293
293
292.999
293.001
292.999
293
293.001
293
293.001
293.001
293.001
293.001
293
293
293.001
293
293
293.002
293.002
293
293.001
293.001
293.001
293
293.001
293
293
293
292.999
292.999
292.999
293
293
293.001
293
293
293
293
293.002
293.001
293.002
293.001
293.001
293.003
293.002
293.003
293.002
293.001
293.001
293.001
293.001
293.002
293.001
293.001
293.003
293.001
293.001
293.002
293
270
270
270
270
270
270
270
334.965
345.603
350.048
352.607
353.443
353.197
354.115
347.513
347.477
345.024
319.411
274.721
270
270
270
270
270
270
270
270
270
270
270
270
270
289.901
327.903
352.892
363.82
366.529
362.639
361.014
358.912
355.789
357.387
357.674
358.998
414.14
416.322
414.661
414.304
413.805
396.764
332.332
270
270
270
270
270
270
270
286.384
317.29
342.915
379.496
381.637
381.401
379.65
379.359
374.172
376.868
374.423
376.033
376.905
378.668
377.219
377.413
333.589
333.48
333.282
334.007
330.558
330.958
331.259
335.46
333.901
343.952
344.99
351.674
356.371
360.254
362.611
364.736
366.047
366.801
367.471
367.284
366.091
363.679
362.416
360.133
364.989
362.968
372.667
376.124
381.666
384.225
321.729
322.009
322.269
323.352
323.233
324.528
323.722
324.725
323.793
324.407
323.362
323.561
322.796
322.867
322.12
321.574
321.406
320.135
320.004
318.251
318.746
316.643
317.421
315.792
316.373
315.271
315.566
314.883
314.521
314.787
298.72
298.812
298.61
298.856
298.323
298.552
297.856
298.133
297.34
297.646
296.816
297.121
296.321
296.624
295.867
296.158
295.461
295.721
295.113
295.342
294.813
295.014
294.571
294.729
294.399
294.512
294.286
294.337
294.241
294.245
293.176
293.184
293.168
293.187
293.159
293.166
293.144
293.137
293.125
293.109
293.104
293.086
293.085
293.067
293.068
293.05
293.053
293.039
293.037
293.032
293.028
293.026
293.018
293.021
293.014
293.016
293.011
293.013
293.009
293.013
293.003
293.003
293
293.004
293.001
293.003
293.002
293.003
293.002
293.004
293.002
293.004
293.001
293.004
293.001
293.003
293.001
293.003
293.002
293.004
293.002
293.003
293.002
293.003
293.002
293.003
293.001
293.005
293.002
293.002
293.002
293.003
293.001
293.003
293.001
293.003
293.001
293.003
293.002
293.003
293.002
293.003
293.001
293.004
293.001
293.003
293.002
293.003
293.002
293.004
293.002
293.003
293.002
293.003
293.002
293.003
293.001
293.005
293.002
293.002
293.003
293.002
293.004
293.001
293.003
293.001
293.003
293.001
293.003
293.002
293.004
293.001
293.003
293.002
293.004
293.002
293.004
293.002
293.004
293.002
293.002
293.003
293.001
293.002
293.001
293.003
293.001
293.004
293.002
293.005
293.001
293.003
293.001
293.003
293.001
293.003
293.001
293.003
293.002
293.003
293.002
293.003
293.001
293.003
293.002
293.003
293.001
293.003
293.002
293.004
293.002
293.003
293.002
293.003
293.002
293.004
293.002
293.005
293.002
293.002
293.004
293.002
293
293.003
293.001
293.004
293.001
293.003
293.002
293.003
293.002
293.003
293.001
293.004
293.002
293.002
293.004
293.001
293.003
293.002
293.004
293.001
293.003
293.001
293.004
293.002
293.004
293
293.003
293.004
293.001
293.003
293
293.004
293.001
293.003
293.002
293.004
293.002
293.005
293.002
293.004
293.003
293.004
293.003
293.005
293.003
293.005
293.003
293.005
293.003
293.005
293.003
293.004
293.003
293.004
293.002
293.005
293.004
293.003
270
270
270
270
270
270
270
289.954
308.776
333.262
348.342
353.244
352.671
352.163
356.876
332.481
272.266
270
270
270
270
270
270
316.691
301.658
270
270
270
270
270
270
270
270
270
270
316.575
348.724
354.759
361.545
362.235
362.115
362.747
363.006
366.16
414.184
413.189
411.292
416.141
416.325
342.252
270
270
270
270
270
270
270
270
270
270
270
270
323.417
377.318
384.679
376.929
372.974
372.496
374.112
375.044
378.959
378.612
379.876
378.912
337.547
337.37
336.165
334.946
334.858
334.108
331.396
337.28
333.546
346.042
346.612
354.042
358.595
361.669
363.673
364.937
365.358
365.246
365.387
365.695
366.122
366.318
365.13
363.585
364.968
363.424
372.158
375.348
379.038
382.351
322.108
321.919
322.952
322.938
324.574
324.184
325.584
324.526
325.507
323.92
324.552
323.349
323.542
322.398
322.637
321.139
321.586
319.84
319.844
318.619
318.539
316.902
317.373
315.806
316.12
315.312
314.809
314.913
314.225
314.176
299.356
299.264
299.328
298.787
298.773
298.263
298.36
297.802
297.822
297.286
297.249
296.791
296.63
296.373
296.073
296.009
295.565
295.639
295.164
295.28
294.85
294.959
294.589
294.702
294.391
294.49
294.265
294.282
294.239
294.211
293.219
293.206
293.211
293.167
293.179
293.144
293.152
293.12
293.127
293.095
293.102
293.072
293.08
293.054
293.061
293.039
293.045
293.029
293.033
293.021
293.024
293.016
293.017
293.011
293.011
293.009
293.009
293.006
293.007
293.006
292.997
292.998
292.998
292.997
292.998
292.998
292.998
292.998
292.999
292.998
292.998
292.998
292.998
292.998
292.998
292.998
292.998
292.998
292.998
292.998
292.998
292.999
292.998
292.998
292.998
292.998
292.998
292.997
292.997
292.997
292.998
292.998
292.998
292.998
292.998
292.997
292.998
292.998
292.999
292.998
292.998
292.998
292.998
292.998
292.998
292.998
292.998
292.998
292.998
292.998
292.998
292.999
292.998
292.997
292.998
292.998
292.998
292.997
292.997
292.997
292.997
292.998
292.997
292.997
292.998
292.998
292.998
292.998
292.999
292.998
292.998
292.998
292.998
292.998
292.998
292.998
292.998
292.998
292.998
292.998
292.998
292.999
292.998
292.997
292.997
292.998
292.998
292.997
292.998
292.997
292.997
292.998
292.997
292.997
292.998
292.997
292.997
292.997
292.998
292.997
292.998
292.998
292.998
292.998
292.998
292.998
292.998
292.998
292.998
292.998
292.998
292.999
292.998
292.998
292.998
292.998
292.997
292.997
292.997
292.997
292.996
292.996
292.998
292.997
292.997
292.996
292.998
292.998
292.998
292.997
292.998
292.998
292.998
292.997
292.997
292.998
292.998
292.998
292.998
292.998
292.998
292.998
292.998
292.998
292.998
292.998
292.998
292.998
292.997
292.997
292.998
292.997
292.998
292.997
292.998
292.998
292.997
292.998
292.998
292.999
292.999
292.998
292.998
292.999
292.999
292.999
292.999
292.999
292.999
292.999
292.999
292.998
292.999
292.999
292.998
292.999
292.999
292.997
292.999
292.998
270
270
270
270
270
270
270
270
270
272.001
328.337
348.483
353.327
355.062
357.072
270
270
270
270
323.762
351.713
382.165
410.395
409.775
423.283
401.436
413.508
400.788
410.332
417.12
422.087
399.742
283.385
270
270
270
270
270
315.746
364.595
365.151
366.351
367.436
365.839
411.513
410.979
407.569
416.666
397.647
270
270
270
270
270
270
270
270
270
270
270
270
270
270
270
347.66
377.231
372.13
373.159
372.575
375.158
375.345
379.823
383.351
385.698
338.547
338.373
338.547
337.406
336.395
335.199
334.186
333.545
337.776
345.475
347.453
356.603
360.193
363.647
365.832
366.458
365.883
365.798
365.363
365.462
366.555
366.815
367.17
366.487
368.419
367.775
370.509
374.137
377.325
378.714
322.128
322.324
322.327
324.144
324.619
326.341
326.3
326.925
325.736
326.227
324.327
324.567
323.066
323.149
321.778
321.744
320.564
320.481
319.175
319.306
317.741
317.858
316.651
316.217
315.547
315.471
314.354
314.789
313.999
314.196
299.066
299.321
298.84
299.039
298.604
298.557
298.254
298.13
297.53
297.68
296.977
297.126
296.444
296.598
295.965
296.11
295.509
295.67
295.142
295.276
294.865
294.937
294.632
294.624
294.476
294.401
294.325
294.247
294.264
294.187
293.195
293.208
293.181
293.209
293.167
293.179
293.146
293.148
293.121
293.12
293.096
293.096
293.074
293.074
293.057
293.056
293.042
293.041
293.031
293.03
293.022
293.021
293.015
293.015
293.011
293.012
293.009
293.009
293.008
293.008
293
293
293
292.999
293
292.999
292.999
292.999
293
293
293
293
293
293
293
293
293
293.001
293
293
293
293
292.999
292.999
292.998
293
292.999
293.001
292.999
292.999
292.999
292.999
292.999
293
292.999
292.999
292.999
292.999
293
292.999
293
292.999
293
293
292.999
293
292.999
293
293
293
293
293
292.999
292.999
292.998
293
292.999
293.001
292.999
292.999
292.999
292.999
293
292.999
292.999
292.998
292.999
292.999
292.999
293
293
293
292.999
293
293.001
293
293.001
292.999
293.001
293
293
293
292.999
292.999
292.998
293
292.999
293
292.999
293
292.998
292.999
292.999
292.999
292.998
292.999
292.998
292.999
293
292.999
293
292.999
293
293
293
293
293
293.001
293
293
293
293
292.999
292.999
292.998
293
292.998
293.001
292.999
292.999
292.999
292.999
292.998
293
292.999
292.998
292.998
292.999
293
293
292.999
292.999
293
293
293
293
293
293
293
293
293
293
292.999
292.999
292.998
292.999
293
292.998
293
292.999
292.998
293
292.999
292.999
292.999
292.999
292.999
292.999
293
293
293
293
293
293
293
293.001
293
293.001
293
293
293.001
293.001
293
293
292.999
293
293.001
293.001
292.999
292.999
270
270
270
270
270
270
270
270
270
270
270
308.056
349.538
356.782
345.938
270
270
270
345.722
375.672
372.944
396.661
403.566
419.374
409.03
416.784
412.204
422.23
432.82
417.54
431.097
385.947
389.477
378.453
386.301
276.399
270
270
270
358.191
368.916
372.226
373.18
375.367
412.571
407.536
406.177
407.106
390.972
270
270
270
270
317.747
288.632
270
270
270
270
270
270
270
270
270
270
270
374.127
373.55
376.212
376.662
375.979
376.754
383.217
390.504
339.322
339.022
338.665
337.135
336.392
334.447
336.04
336.058
339.893
344.526
351.958
356.669
362.315
365.692
367.827
368.952
369.452
368.203
367.344
366.255
365.83
367.238
367.909
368.515
368.878
369.944
371.998
371.708
373.155
374.146
320.943
320.776
322.46
322.016
325.233
325.989
328.046
327.876
327.804
326.039
326.237
324.065
324.286
322.416
322.644
321.034
321.284
319.854
320.123
318.682
318.27
317.842
316.366
316.654
314.813
315.633
314.051
314.452
313.886
313.474
300.01
299.738
300.031
299.418
299.464
298.789
298.419
298.336
297.939
297.447
297.583
296.76
297.014
296.246
296.457
295.794
295.955
295.399
295.527
295.044
295.166
294.742
294.861
294.482
294.622
294.289
294.435
294.172
294.289
294.164
293.286
293.252
293.27
293.202
293.223
293.172
293.182
293.141
293.15
293.112
293.12
293.087
293.093
293.066
293.072
293.05
293.054
293.037
293.039
293.027
293.029
293.019
293.02
293.014
293.015
293.011
293.011
293.009
293.009
293.008
293
293
293.001
293
293
293
293
292.999
293.001
293
293
293
293
293
293
293
293
293
293
293
293
293
293
293
293.001
292.999
293.001
292.999
293
293
293
292.999
293.001
292.999
293.001
293
293
292.999
293.001
293
293.001
293
293
292.999
293
293
293
293
293
293
293.001
293
293
292.999
293.001
292.999
293.001
292.999
293
293
292.999
293
292.999
293.001
293
293
292.999
292.999
293
293.001
293
293
293
293
292.999
293
293
293
293
293.001
293
293
293
292.999
293.001
292.999
293.001
292.999
293
293
293
292.999
293.001
292.999
293
293
293
292.999
293
293
293
293
293
293
293
293
293
293
293
293
293
293
293
293
293.001
292.999
293.001
292.999
293
293
292.999
292.999
293
292.999
293.001
292.999
293
292.999
293.001
293
293
293
293.001
293
293.001
293.001
293
293.001
293
293.001
293.001
293.001
292.999
293
293
293
292.999
293
292.999
293
292.999
292.999
293
292.999
293
292.999
293
292.999
293
293
293.001
293.001
293.001
293.001
293.001
293.001
293.002
293.001
293.001
293.001
293.002
293
293.001
292.999
293.001
292.999
293
292.999
292.999
292.999
270
319.578
347.105
355.913
333.278
270
270
270
270
270
270
270
308.817
356.302
332.481
270
270
337.221
372.195
361.92
390.624
387.721
403.189
399.416
408.588
402.445
409.963
407.999
403.345
404.443
384.736
391.746
378.133
377.634
374.888
379.806
270
270
270
272.138
365.87
373.999
378.071
382.848
409.992
407.181
403.535
400.645
384.557
270
270
270
320.618
380.762
406.495
380.421
334.048
285.431
270
270
270
270
270
270
270
270
270
351.012
378.795
378.957
376.931
375.546
381.866
389.367
337.596
337.196
336.11
335.275
332.864
334.045
331.326
332.775
336.859
337.758
352.302
354.502
361.309
365.865
369.568
371.714
372.237
371.738
370.103
368.428
367.044
366.652
368.626
369.693
371.375
371.577
372.23
372.124
370.173
368.232
318.569
318.568
318.605
323.268
323.494
326.819
327.677
329.405
328.899
328.381
326.028
326.103
323.441
323.738
321.721
322.015
320.49
320.713
319.377
319.521
317.78
318.313
315.934
316.944
314.527
315.381
313.849
314.078
313.279
313.6
299.622
300.36
299.59
299.891
299.285
299.362
298.826
298.292
298.349
297.578
297.573
297.081
296.878
296.517
296.367
296.004
295.856
295.582
295.433
295.174
295.116
294.8
294.839
294.506
294.611
294.288
294.425
294.16
294.262
294.156
293.249
293.299
293.221
293.27
293.199
293.223
293.168
293.18
293.136
293.144
293.106
293.112
293.083
293.084
293.065
293.064
293.045
293.048
293.034
293.033
293.026
293.023
293.018
293.018
293.012
293.014
293.009
293.011
293.008
293.008
293.001
293
293
293
293.001
293
293
293
293
293.001
293
293.001
293
292.999
292.999
292.999
293
292.999
293
293
293
293
293
293
293
293
293
292.999
292.999
292.999
292.999
292.999
293
293
293
293
293
293
292.999
293
293
293
293
292.999
293
292.999
293
293
293
293
293
293
293
293
293
293
293
292.999
292.999
292.999
292.999
292.999
292.999
293
293
293
293
293
293
293
293
293
293
293
293
293
293
293
293
293
293
292.999
293
293
293
293
293
292.999
293
292.999
292.998
292.999
293
292.999
293
293
293
293
293
293
293
293
293
292.999
292.999
292.999
293
292.999
293
293
293
292.999
293
292.999
293
293
293
292.999
292.999
292.999
292.999
292.999
292.999
292.999
292.999
292.999
293
293
293
293
293
293
293
293
293
293
293
293
293
293
293
292.999
293.001
292.999
293
293
293
292.999
293
292.999
292.999
293
292.999
292.999
292.999
292.999
293
293
292.999
293.001
293
293
293
293.001
293
293
293
293.001
293.001
293.001
293
293
293
293
292.999
293
293
292.999
292.998
292.998
380.974
511.653
567.109
585.074
553.327
411.927
384.539
312.772
270
270
270
270
270
332.438
277.693
270
270
291.591
349.874
364.84
379.604
387.091
389.451
396.837
391.433
398.955
391.962
400.246
394.672
389.625
389.316
375.439
367.307
362.55
368.924
378.602
300.096
270
270
270
292.088
371.969
379.825
386.744
409.159
405.793
400.583
397.755
380.411
270
270
270
297.236
413.27
426.081
403.523
402.34
373.126
350.814
292.19
270
270
270
270
270
270
270
270
270
371.429
379.807
377.376
377.603
385.313
335.751
333.276
331.671
328.965
328.58
325.575
326.69
326.594
336.8
335.233
349.765
352.349
360.429
366.104
370
373.037
374.673
374.565
373.063
370.901
368.779
367.807
367.281
370.49
371.403
372.836
370.49
367.346
364.251
362.388
316.121
316.285
319.531
321.17
324.114
325.476
328.3
329.473
330.007
328.971
328.125
325.636
325.636
322.649
323.175
321.1
321.435
320.045
320.198
318.766
318.557
317.914
316.07
316.48
314.454
314.881
313.321
313.497
312.89
312.295
300.699
300.693
301.029
300.301
300.243
299.422
299.455
298.545
298.395
297.867
297.708
297.005
297.209
296.392
296.613
295.927
296.087
295.423
295.702
294.999
295.313
294.688
294.962
294.435
294.679
294.254
294.452
294.127
294.277
294.104
293.405
293.3
293.359
293.241
293.283
293.2
293.227
293.161
293.182
293.127
293.142
293.097
293.109
293.074
293.081
293.057
293.054
293.049
293.036
293.038
293.026
293.028
293.018
293.02
293.013
293.014
293.01
293.01
293.009
293.008
293
293.001
293.001
293.002
293.001
293
293
293
293
293
293.001
293
293
292.999
293
292.999
293
292.999
293
293
293
293
293
293
293
292.999
293.001
292.999
292.999
292.999
292.999
292.999
293
293
293
293
293
292.999
293
293
293
293
293
292.999
293
292.999
293
292.999
293
293
293
293
293
293
293
292.999
293.001
292.999
292.999
292.999
292.999
292.999
292.999
293
292.999
293
293
293
293
293
293
293
292.999
292.999
292.999
292.999
292.999
293
292.999
293
293
293
293
293
293
292.999
293
292.999
292.999
292.999
292.999
292.999
293
293
292.999
293
293
293
293
293
293
292.999
293
292.999
293
292.999
293
292.999
293
293
293.001
293
293
293
293
292.999
293.001
292.999
292.999
292.999
292.999
293
293
293
293
292.999
293
292.999
293
293
293.001
293
293
293
293.001
293
293
293
293
293
293.001
293.001
293
293
292.999
293
293
293
292.999
292.999
293
292.999
292.999
293
292.999
292.999
293
292.999
293.001
293
293.001
293
293
293.001
293.001
293.001
293.001
293.001
293.001
293
293
293
293
292.999
293
292.998
293
292.999
292.999
292.999
608.836
709.287
744.674
740.882
690.272
578.311
433.72
303.277
270
270
270
270
270
326.453
270
270
270
270
287.697
361.591
355.279
370.449
380.91
375.247
386.713
396.007
391.106
397.619
393.543
391.235
377.632
366.984
356.96
354.611
361.331
381.04
366.636
270
270
270
270
307.578
378.427
388.317
402.602
404.044
401.291
397.375
378.549
270
270
270
282.646
392.125
415.667
396.823
391.284
373.468
367.268
376.378
339.976
270
270
270
270
270
270
270
270
270
360.652
379.654
379.917
374.491
332.619
331.063
329.521
325.843
323.969
323.655
327.566
330.615
336.92
336.66
349.753
348.709
357.192
363.162
368.543
372.852
375.583
376.414
375.356
373.089
370.859
368.819
367.881
369.683
371.031
372.82
370.128
368.094
365.399
358.017
317.546
319.427
321.287
322.558
322.323
326.103
327.797
329.776
330.413
330.055
328.665
327.433
325.044
324.407
322.139
322.283
320.679
320.713
319.461
319.415
317.876
318.124
316.003
316.522
314.092
314.917
312.928
313.63
312.388
312.579
300.602
302.149
300.818
301.136
300.346
300.148
299.316
299.357
298.392
298.128
297.962
297.193
297.283
296.558
296.701
295.976
296.238
295.449
295.751
295.096
295.27
294.783
294.914
294.497
294.655
294.252
294.458
294.11
294.272
294.091
293.208
293.443
293.232
293.355
293.224
293.276
293.194
293.211
293.158
293.162
293.126
293.123
293.099
293.089
293.075
293.062
293.061
293.041
293.049
293.031
293.036
293.022
293.025
293.015
293.017
293.01
293.013
293.009
293.009
293.009
293.002
293.001
293.001
293.001
293
293
293.001
292.999
292.999
293.001
293
293
292.999
292.999
292.998
292.998
292.999
292.999
292.999
293
292.999
292.999
292.999
293
292.999
292.999
292.999
292.999
292.999
292.999
292.999
292.999
292.999
292.999
292.998
292.999
293
292.999
292.999
293
292.999
293
292.998
292.999
292.998
292.998
292.998
292.999
292.999
293
292.999
292.999
292.999
293
292.999
292.999
292.999
292.999
292.999
292.999
292.999
292.999
292.999
292.999
292.999
292.998
293
292.999
292.999
292.999
293
293
292.999
292.998
292.998
292.998
292.998
292.999
292.999
293
293
292.999
292.999
293
292.999
292.998
292.999
292.999
292.999
292.999
292.999
292.999
292.999
292.999
292.998
292.999
293
292.999
292.999
293
292.999
293
292.999
292.998
292.998
292.998
292.998
292.999
292.999
293
293
292.999
292.999
293
292.999
292.999
292.999
292.999
292.999
292.999
292.999
292.999
292.999
292.999
292.999
292.998
292.999
292.999
292.999
293
293
292.999
292.999
292.999
292.999
292.999
292.999
292.999
292.999
292.999
293
292.999
292.999
292.999
292.999
292.998
292.999
292.999
292.999
292.999
292.999
292.999
292.999
292.999
292.998
292.999
292.999
292.998
292.999
293
292.999
293
292.999
292.999
293
293
293
293
293
293
292.999
292.999
292.999
292.999
293
292.999
292.999
292.999
292.998
292.999
761.996
764.952
763.386
717.457
600.629
463.682
313.543
270
270
270
270
270
270
299.698
270
270
270
270
291.435
316.262
321.459
326.078
336.899
345.091
361.887
372.419
365.582
397.586
390.77
403.483
398.243
390.587
383.014
372.284
359.313
353.493
357.691
367.507
371.025
310.172
270
270
270
270
346.112
385.835
400.617
388.947
400.474
402.745
402.211
400.203
379.869
270
270
270
315.259
382.049
396.052
394.163
379.913
382.416
374.779
369.359
386.664
275.9
270
270
270
270
270
270
270
270
270
344.167
371.393
369.227
332.819
370.522
343.024
338.51
337.608
334.124
335.865
336.627
337.48
332.791
341.05
333.631
344.231
343.283
352.607
360.267
367.39
372.29
375.664
377.175
376.797
374.824
372.519
369.331
369.213
368.569
369.473
369.729
369.689
363.827
356.218
341.513
317.638
329.04
323.522
320.08
320.819
320.284
323.994
325.723
328.686
330.194
330.711
330.358
329.6
327.898
326.734
323.625
324.011
321.196
321.852
319.651
320.364
318.445
318.851
316.861
317.336
314.802
314.863
313.94
312.311
312.137
310.491
309.279
303.265
304.851
302.636
302.698
302.64
301.612
301.209
300.601
299.719
299.385
298.9
298.225
298.058
297.527
297.19
296.912
296.492
296.277
296.097
295.539
295.759
295.116
295.386
294.727
295.036
294.452
294.728
294.222
294.432
294.071
294.124
293.953
293.928
293.628
293.731
293.396
293.527
293.306
293.384
293.236
293.287
293.184
293.211
293.147
293.158
293.112
293.123
293.084
293.093
293.063
293.068
293.049
293.047
293.037
293.034
293.027
293.025
293.019
293.017
293.015
293.012
293.012
293.008
293.008
293.004
293.004
293.003
293.003
293.002
293.002
293.001
293.001
293
293
293.001
293
293.001
292.999
293
292.999
292.999
292.999
292.999
292.999
293
293
293
293
293
293
293
292.999
293
293
292.999
293
292.998
292.998
293
292.999
293.001
293
293
292.999
293
292.999
293
293
293
292.999
292.999
292.999
292.999
292.999
292.999
292.999
293
293
293
293
293
293
293
292.999
293
293
292.999
293
292.998
292.999
293
293
293
293
293
293
293
293
293
293
293
293
292.999
292.999
292.999
292.999
292.999
292.999
292.999
293
293
293
293
293
293
292.999
293.001
293
292.999
293
292.998
292.998
293
292.999
293
293
293
292.999
293
292.999
293
293
293
292.999
293
292.999
292.999
292.999
292.999
292.999
293
292.999
293
293
293
293
293
293
293.001
293
292.999
293
292.998
292.998
293
292.999
293
293
293
292.999
293
292.999
293
293
293
292.999
293
293
293
293
293
293
293
293
292.999
293
293
293
292.999
293
292.999
293
292.999
293
292.997
292.998
293
292.999
293
292.999
293
292.999
293
292.999
293
292.999
293.001
292.999
293
293
293.001
293.001
293.001
293
293
293
293.001
293
293.001
292.999
293
293
293
292.999
292.999
292.999
292.996
292.997
768.679
743.842
710.762
609.06
478.313
335.619
270
270
270
270
270
270
270
270
270
270
270
270
308.501
318.235
319.263
322.29
323.337
335.576
342.483
368.825
371.35
388.316
392.212
406.686
398.484
392.96
382.599
372.856
364.411
356.899
352.691
355.182
365.371
372.717
346.914
270
270
270
353.616
377.421
381.033
382.911
394.756
393.689
392.086
384.949
358.476
270
270
270
270
383.775
398.08
384.201
379.242
375.733
374.031
377.774
385.532
362.562
270
270
270
270
270
270
270
270
270
270
333.644
366.027
344.987
348.786
357.834
355.472
351.452
346.978
340.273
338.616
335.856
323.023
309.138
300.967
301.943
320.329
343.138
357.995
365.877
371.95
375.4
377.298
377.355
376.185
373.502
370.186
369.535
367.312
367.715
368.255
365.496
362.849
354.074
343.456
329.374
321.335
320.856
321.157
321.156
323.003
324.053
327.102
329.153
330.475
330.975
330.652
329.561
328.88
326.56
325.833
322.396
323.16
320.781
319.93
320.221
318.228
318.987
316.456
317.453
314.511
314.928
313.443
312.118
312.404
309.361
310.498
304.364
306.849
302.39
303.809
302.137
302.371
300.978
301.13
299.765
299.809
298.723
298.874
297.679
298.087
296.941
297.289
296.354
296.565
295.949
295.876
295.467
295.507
295.109
294.863
295.031
294.458
294.75
294.226
294.442
294.02
294.209
293.851
293.986
293.599
293.715
293.438
293.495
293.345
293.37
293.261
293.282
293.197
293.216
293.15
293.17
293.109
293.133
293.08
293.102
293.059
293.076
293.044
293.056
293.032
293.041
293.025
293.031
293.018
293.021
293.013
293.015
293.009
293.01
293.006
293.007
293.003
293.004
293.002
293.002
293.001
293.001
293
293.001
293
293
293
292.999
292.999
292.999
292.999
292.999
292.999
292.999
292.999
292.999
292.999
292.999
292.999
293
292.999
292.999
292.999
292.999
292.999
292.999
292.999
292.999
292.999
292.999
292.999
292.999
292.999
292.999
292.999
292.999
292.999
293
292.999
292.999
292.999
292.999
292.999
292.999
292.999
292.999
292.999
292.999
292.999
292.999
292.999
292.999
292.999
293
292.999
292.999
292.999
292.999
292.999
292.999
292.999
292.999
292.999
292.999
292.999
292.999
292.999
292.999
293
292.999
292.999
292.999
292.999
292.999
292.999
292.999
292.999
292.999
292.999
292.999
292.999
292.999
293
293
292.999
292.999
292.999
292.999
292.999
292.999
292.999
292.999
292.999
292.999
292.999
292.999
292.999
292.999
292.999
292.999
293
292.999
292.999
292.999
292.999
292.999
292.999
292.999
292.999
292.998
292.999
292.999
292.999
292.999
293
293
293
292.999
292.999
292.999
292.999
292.999
292.999
292.999
292.999
292.999
292.999
292.999
293
293
292.999
292.999
292.999
293
292.999
292.999
292.999
292.999
292.999
292.999
292.999
292.999
293
292.999
292.999
292.999
292.999
293
292.999
292.999
292.999
293
292.999
292.999
292.999
292.999
292.999
292.999
292.999
292.999
293
292.999
292.999
292.999
292.999
292.999
292.999
292.999
292.999
292.999
292.999
292.999
292.998
292.998
292.998
292.999
292.999
292.999
292.999
292.998
292.998
292.999
292.998
292.999
292.998
292.999
292.998
292.998
292.997
696.098
678.242
648.902
576.654
504.309
403.553
351.383
302.478
270
270
270
270
270
270
270
270
270
270
291.409
306.992
314.895
314.489
318.898
325.661
324.83
349.928
369.85
393.096
391.134
400.024
396.882
390.12
379.76
376.274
369.225
361.274
354.775
354.682
364.858
392.449
396.545
274.712
270
270
270
270
270
270
270
270
270
270
270
270
270
270
270
343.537
429.029
406.91
379.554
377.776
382.899
387.49
397.45
415.84
392.406
270
270
270
270
270
270
270
270
270
270
332.862
356.683
352.335
345.224
341.78
338.047
333.621
332.94
329.537
311.937
270
270
270
270
270
303.664
352.273
364.642
371.094
374.871
376.776
377.417
376.748
373.463
371.329
368.183
366.232
365.44
363.97
364.011
358.652
355.865
345.668
328.993
330.485
321.792
318.758
322.763
323.115
326.333
327.188
329.559
330.66
331.135
330.883
329.882
328.978
327.423
325.889
323.26
322.313
321.556
319.671
320.103
318.22
318.629
316.512
317.059
314.403
315.382
312.387
313.162
310.86
309.727
309.761
305.818
306.803
303.597
304.197
302.497
302.647
301.375
301.302
300.077
300.203
298.648
299.236
297.797
298.142
297.16
297.225
296.563
296.501
295.99
296.009
295.458
295.513
295.165
294.958
294.91
294.585
294.669
294.254
294.46
294.009
294.217
293.838
293.974
293.611
293.734
293.457
293.545
293.352
293.405
293.278
293.3
293.21
293.235
293.152
293.185
293.117
293.139
293.094
293.102
293.072
293.075
293.056
293.055
293.043
293.041
293.031
293.029
293.022
293.021
293.016
293.015
293.01
293.011
293.007
293.008
293.005
293.005
293.004
293.002
293.003
293.002
293.002
293.002
293.002
293.002
293.001
293.001
293.001
293.001
293.001
293
293
293
293
293.001
293
293
293.001
293.001
293
293.001
293
293
292.999
293
292.999
293
293
292.999
293
293
293
293.001
293.001
293.001
293.001
293.001
293
293
293.001
293.001
293.001
293
293
293
293
293
293
293
293.001
293.001
293
293.001
293
293.001
292.999
293
292.999
293
293
293
293
292.999
293
293
293.001
293
293.001
293.001
293
293.001
293.001
293.001
293
293
293
293
293.001
293
293.001
293.001
293.001
293.001
293
293.001
293.001
293.001
292.999
293.001
292.999
293
293
292.999
293
292.999
293
293
293.001
293.001
293.001
293.001
293
293
293
293
293
293
293
293
293
293
293
293.001
293.001
293.002
293
293.001
293
293.001
292.999
293
292.999
293
293
292.999
293
292.999
293
293
293
293
293.001
293.002
293.001
293.001
293
293.001
293.001
293.001
293
293.001
293.001
293.001
293.001
293.001
293.001
293.001
293.001
293.001
293.001
293.001
293
293
293
293
293
293
293
293
293
293
293
293
293
293
293
293.001
293
293
293
293
293
293.001
293
293
293
293
293
293
293
293.001
293
293
293
292.999
292.999
292.999
292.998
573.949
588.111
590.558