/*--------------------------------*- C++ -*----------------------------------*\
| =========                 |                                                 |
| \\      /  F ield         | OpenFOAM: The Open Source CFD Toolbox           |
|  \\    /   O peration     | Version:  2.1.1                                 |
|   \\  /    A nd           | Web:      www.OpenFOAM.org                      |
|    \\/     M anipulation  |                                                 |
\*---------------------------------------------------------------------------*/
FoamFile
{
    version     2.0;
    format      ascii;
    class       volVectorField;
    location    "0.002150000";
    object      U;
}
// * * * * * * * * * * * * * * * * * * * * * * * * * * * * * * * * * * * * * //

dimensions      [0 1 -1 0 0 0 0];

internalField   nonuniform List<vector> 
12384
(
(-1.82355 -0.932751 0)
(-6.79734 -2.22469 0)
(-4.75539 -11.3857 0)
(-0.979925 -8.79294 0)
(2.09532 -7.46707 0)
(-0.301928 -2.65732 0)
(6.42825 -0.132921 0)
(10.8354 2.52484 0)
(11.2918 0.0160108 0)
(17.7751 0.0779751 0)
(24.9895 -1.39667 0)
(30.159 0.573811 0)
(21.263 -5.07992 0)
(4.9038 -1.34855 0)
(7.57741 11.5362 0)
(13.0568 2.51513 0)
(5.06659 1.05968 0)
(-3.99885 -5.56143 0)
(-5.01185 -2.6414 0)
(-2.09076 -3.76314 0)
(-0.52355 1.28306 0)
(2.12036 4.29423 0)
(1.45794 -0.696989 0)
(2.94787 3.68667 0)
(3.46794 -4.4381 0)
(7.28703 0.42593 0)
(12.023 -6.29147 0)
(9.631 -5.6674 0)
(13.0968 -8.72468 0)
(5.17683 -12.1254 0)
(18.6735 -13.1733 0)
(37.4957 -10.1416 0)
(32.0759 -1.17878 0)
(33.767 0.538158 0)
(36.653 1.2515 0)
(29.4593 -2.98264 0)
(19.192 0.0470961 0)
(7.92849 0.759737 0)
(-4.10328 2.18124 0)
(-3.91697 5.21574 0)
(2.87636 5.44033 0)
(7.84579 6.57641 0)
(4.71288 5.92504 0)
(1.27733 9.04018 0)
(-18.2498 5.74414 0)
(-65.8609 12.3449 0)
(-107.875 27.2344 0)
(-146.508 30.2252 0)
(-164.743 13.6615 0)
(-168.77 -14.1042 0)
(-131.444 -28.2358 0)
(-119.886 -31.7091 0)
(-107.041 -20.1223 0)
(-82.8349 -23.6977 0)
(-56.4941 -17.9234 0)
(-31.8219 -14.0734 0)
(-18.3674 -9.23205 0)
(-7.20002 -9.41831 0)
(-0.00109205 -16.6576 0)
(0.383585 -12.909 0)
(9.7094 -22.9878 0)
(24.8577 -8.37867 0)
(34.7668 -11.3023 0)
(48.0863 -1.69516 0)
(61.2125 -5.4504 0)
(70.9613 -2.11647 0)
(72.8367 -7.56624 0)
(75.9596 -6.31927 0)
(66.5172 -7.22277 0)
(56.0908 -3.96454 0)
(46.9639 -3.20317 0)
(33.318 1.29956 0)
(21.8568 1.66353 0)
(6.76972 0.853379 0)
(-6.68585 7.33699 0)
(-23.3382 7.17883 0)
(-42.5351 7.96537 0)
(-61.0903 7.90006 0)
(-80.9698 7.95112 0)
(-100.834 9.02181 0)
(-108.447 7.03598 0)
(-121.29 -0.854411 0)
(-111.29 3.80141 0)
(-103.995 -9.31047 0)
(-91.0125 -1.54892 0)
(-65.2704 -9.3808 0)
(-41.9154 -8.4386 0)
(-14.2188 -10.0591 0)
(10.9876 -9.78144 0)
(33.4415 -10.6663 0)
(52.3086 -11.5373 0)
(66.8158 -12.1235 0)
(79.1743 -11.1765 0)
(87.1378 -10.7979 0)
(91.9581 -8.93016 0)
(93.4379 -7.65571 0)
(93.1043 -4.13684 0)
(87.5875 -2.65906 0)
(82.8295 3.40426 0)
(76.2684 -0.145356 0)
(43.9439 5.17413 0)
(27.369 4.36741 0)
(7.16491 5.50067 0)
(5.07079 3.93124 0)
(-0.647591 -0.453077 0)
(-1.44776 -2.73744 0)
(-0.448069 -3.42094 0)
(3.48128 -4.66983 0)
(9.42421 -5.25864 0)
(16.1272 -6.8711 0)
(24.6315 -6.00724 0)
(32.3607 -7.36897 0)
(39.8249 -5.12821 0)
(46.9885 -5.56153 0)
(52.5247 -3.81143 0)
(57.3781 -3.97097 0)
(60.9277 -2.4332 0)
(63.9184 -3.0163 0)
(65.7018 -1.52753 0)
(66.1733 -2.49685 0)
(65.8698 -1.1443 0)
(64.7722 -1.94564 0)
(62.0954 -0.865 0)
(60.0574 -0.99328 0)
(55.8763 -0.436218 0)
(53.3409 -0.237835 0)
(48.5518 0.242533 0)
(45.1068 0.0542973 0)
(39.5844 0.937597 0)
(34.3492 0.265341 0)
(27.5902 1.53304 0)
(20.724 0.294417 0)
(13.3371 1.60872 0)
(6.01818 0.414572 0)
(1.03532 -1.12033 0)
(3.13633 -1.25746 0)
(5.09359 -1.21861 0)
(6.501 -1.78182 0)
(7.47181 -1.11069 0)
(8.59937 -1.42598 0)
(8.87914 -1.01386 0)
(9.67635 -0.960199 0)
(9.53831 -0.808016 0)
(9.97095 -0.625675 0)
(9.5315 -0.595971 0)
(9.63106 -0.445785 0)
(9.0078 -0.40956 0)
(8.83176 -0.27994 0)
(8.22363 -0.277665 0)
(7.83734 -0.181034 0)
(7.27068 -0.196422 0)
(6.82339 -0.110262 0)
(6.23927 -0.146059 0)
(5.75704 -0.0317943 0)
(5.16538 -0.135688 0)
(4.64147 0.0607487 0)
(4.13005 -0.1268 0)
(3.548 0.0995594 0)
(3.08656 -0.0996938 0)
(2.48959 0.108338 0)
(2.00375 -0.0574405 0)
(1.42729 0.105691 0)
(0.945353 -0.00123221 0)
(0.28435 0.121878 0)
(0.0441076 -0.0229843 0)
(0.114522 -0.0341293 0)
(0.173445 -0.0225973 0)
(0.2036 -0.0850784 0)
(0.220195 -0.0293694 0)
(0.239603 -0.0762647 0)
(0.253933 -0.0160194 0)
(0.248997 -0.054475 0)
(0.246204 -0.00539479 0)
(0.233651 -0.0406995 0)
(0.219856 -0.00124586 0)
(0.203934 -0.0294243 0)
(0.186786 0.00153841 0)
(0.169603 -0.0203143 0)
(0.151021 0.00401302 0)
(0.136462 -0.0150019 0)
(0.119313 0.00737495 0)
(0.107881 -0.0118781 0)
(0.0919193 0.0116093 0)
(0.0826455 -0.0113414 0)
(0.0696076 0.0132232 0)
(0.0612845 -0.0103273 0)
(0.0501532 0.0124313 0)
(0.0448106 -0.00673198 0)
(0.0338225 0.00959903 0)
(0.0294298 -0.00433683 0)
(0.0190519 0.00723643 0)
(0.0145686 -0.00193091 0)
(0.00759895 0.0028672 0)
(0.00321298 0.000156307 0)
(0.00197044 0.000699598 0)
(0.00243241 0.00115188 0)
(0.000535076 0.00124788 0)
(0.000394088 -0.0004223 0)
(0.000306591 0.000377456 0)
(6.48459e-05 6.93598e-05 0)
(-0.000431881 0.000713841 0)
(-0.00068712 0.000277385 0)
(-0.00126098 0.000821907 0)
(-0.00150652 0.000306013 0)
(-0.00193372 0.000836083 0)
(-0.00177027 4.27247e-05 0)
(-0.00163306 0.000843691 0)
(-0.000895028 -0.000437639 0)
(-0.000107791 0.00093025 0)
(0.00080833 -0.000652529 0)
(0.0017195 0.000865338 0)
(0.00233125 -0.000276335 0)
(0.00286629 0.000756645 0)
(0.00274797 0.000286375 0)
(0.00277207 0.000705229 0)
(0.00224964 0.000544502 0)
(0.00180368 0.000740063 0)
(0.00087137 0.000484462 0)
(0.000119911 0.000513435 0)
(-0.000817576 -0.000309905 0)
(-0.00118223 0.000179005 0)
(-0.00138463 -0.000739786 0)
(0.00132501 -0.00155505 0)
(0.00324488 0.00182179 0)
(-0.00105546 0.000540017 0)
(-0.000482215 -0.00018937 0)
(-0.00123733 0.000544166 0)
(-0.00117354 -0.000281313 0)
(-0.00136823 0.000605705 0)
(-0.00139618 3.49607e-05 0)
(-0.00173744 0.00070673 0)
(-0.00181216 0.000218034 0)
(-0.00217735 0.00076737 0)
(-0.00220279 0.000245795 0)
(-0.00245593 0.000756232 0)
(-0.00216084 -1.67337e-05 0)
(-0.00200056 0.000888469 0)
(-0.00125298 -0.000499422 0)
(-0.000379853 0.000836662 0)
(0.000598734 -0.000714195 0)
(0.00156417 0.00079057 0)
(0.00222959 -0.000318406 0)
(0.00277848 0.0007152 0)
(0.00268268 0.00023606 0)
(0.00272225 0.000658218 0)
(0.00222208 0.000527333 0)
(0.00177346 0.000715109 0)
(0.000865737 0.000455602 0)
(0.000122174 0.000503984 0)
(-0.000802412 -0.000340572 0)
(-0.00117726 0.000148277 0)
(-0.00137139 -0.000795374 0)
(0.00134419 -0.00153828 0)
(0.00326477 0.00180728 0)
(-0.00372653 0.00277323 0)
(-0.00148949 -0.00126424 0)
(0.00203298 -0.000763935 0)
(0.0023874 0.00041283 0)
(0.00213216 0.000199289 0)
(0.00116322 0.00112264 0)
(0.000399126 0.000471337 0)
(-0.000534636 0.000979789 0)
(-0.00102846 0.000349827 0)
(-0.0016016 0.000749362 0)
(-0.00168 0.00015201 0)
(-0.00185667 0.000864527 0)
(-0.00140542 -0.00013774 0)
(-0.000945344 0.00105743 0)
(-0.000210895 -0.000355217 0)
(0.000465266 0.00123276 0)
(0.00103384 -0.00014949 0)
(0.0016309 0.00128367 0)
(0.00204614 0.000337567 0)
(0.00249538 0.00188461 0)
(0.000948707 0.00221727 0)
(0.00101957 0.000753625 0)
(0.000700476 0.00107974 0)
(-0.000159726 0.000418653 0)
(-0.000636033 0.000681693 0)
(-0.00136289 -8.85398e-05 0)
(-0.00191265 0.000492923 0)
(-0.00217499 -0.000890501 0)
(-0.00142118 -0.000194164 0)
(-0.00100076 -0.000240809 0)
(-0.000986207 0.000341387 0)
(-0.000395061 -9.96931e-05 0)
(-0.00115572 0.000621838 0)
(-0.0010859 -0.000223513 0)
(-0.00126195 0.000650497 0)
(-0.00125383 2.03866e-05 0)
(-0.00151686 0.000709418 0)
(-0.00152395 0.000175995 0)
(-0.00185398 0.000787587 0)
(-0.001841 0.000206194 0)
(-0.00210695 0.000808986 0)
(-0.00179982 -3.63701e-05 0)
(-0.00164199 0.000875971 0)
(-0.000897328 -0.000506862 0)
(-9.99957e-05 0.000849457 0)
(0.000777974 -0.000746381 0)
(0.00163323 0.000748058 0)
(0.00223574 -0.000462636 0)
(0.00271296 0.00062123 0)
(0.0026229 8.88597e-05 0)
(0.00263309 0.000588739 0)
(0.00217516 0.000384665 0)
(0.001784 0.000616588 0)
(0.000952786 0.000359014 0)
(0.000218972 0.000425336 0)
(-0.000716132 -0.000432571 0)
(-0.00111621 -0.000122578 0)
(-0.00114073 -0.0011916 0)
(0.0011029 -0.00145713 0)
(0.00279269 0.00160216 0)
(-0.00128874 0.00274605 0)
(-0.00249993 0.00186924 0)
(-0.00050307 -0.00143704 0)
(0.00330991 -0.00109527 0)
(0.00412364 0.000759788 0)
(0.00380986 0.000440318 0)
(0.00275713 0.0010876 0)
(0.0019784 0.000545902 0)
(0.000925959 0.000949366 0)
(0.000420405 0.000394705 0)
(-0.000238799 0.000701681 0)
(-0.000214592 -1.42802e-06 0)
(-0.000358332 0.000750982 0)
(-4.94274e-06 -0.000236278 0)
(0.000463894 0.00124253 0)
(-0.000778679 0.00118007 0)
(-0.000254843 -0.000485971 0)
(0.000344862 0.00081824 0)
(0.000589088 -0.000220133 0)
(0.000807868 0.000677446 0)
(0.000482929 0.000153547 0)
(0.000206046 0.000785321 0)
(-0.000417259 0.000248725 0)
(-0.000740742 0.0007524 0)
(-0.00107275 -5.57161e-05 0)
(-0.000735935 -0.000115071 0)
(0.000232098 -0.00110615 0)
(0.001596 0.00119096 0)
(0.000581455 0.00160859 0)
(-0.000236432 0.00152323 0)
(-0.00128811 -0.000144098 0)
(-0.000721155 -0.000625493 0)
(-0.00128038 0.000175419 0)
(-0.00138842 -0.000494151 0)
(-0.00205303 0.000155492 0)
(-0.00227984 -0.000235384 0)
(-0.00295852 -5.42336e-05 0)
(-0.00316005 -0.00012907 0)
(-0.00376921 -0.000109366 0)
(-0.00375992 -3.59858e-05 0)
(-0.0042659 3.54276e-05 0)
(-0.00395976 -0.000100638 0)
(-0.00408756 0.000302532 0)
(-0.00333249 -0.00045064 0)
(-0.00271442 0.000284072 0)
(-0.00132505 -0.00107291 0)
(-2.17148e-05 0.000311509 0)
(0.0011979 -0.00115642 0)
(0.00222708 0.000312102 0)
(0.00261785 -0.000338134 0)
(0.00289915 0.000329408 0)
(0.00256109 0.000277323 0)
(0.00222624 0.000503875 0)
(0.00131681 0.00034899 0)
(0.000606445 0.000324999 0)
(-0.000353046 -0.000458727 0)
(-0.000786577 4.35066e-05 0)
(-0.00169398 -0.000880714 0)
(0.000989148 -0.00129055 0)
(0.00297217 0.00247076 0)
(0.706256 -8.46028 0)
(2.44418 -12.9402 0)
(5.53898 -13.5016 0)
(9.92318 -14.2009 0)
(13.5516 -12.3622 0)
(9.25798 -6.20207 0)
(4.78366 1.88643 0)
(5.57564 1.22451 0)
(8.63001 1.78157 0)
(15.8332 1.48883 0)
(22.8094 0.573025 0)
(28.3539 0.115404 0)
(22.1984 -8.08065 0)
(7.38614 -3.45354 0)
(-2.63337 7.75695 0)
(-6.41404 -6.7482 0)
(-4.20491 -7.37288 0)
(-5.49243 -8.27419 0)
(-8.60174 -4.12671 0)
(-4.42881 1.83149 0)
(-6.54614 -2.75962 0)
(-14.2807 -1.31923 0)
(-7.22355 -3.48 0)
(-15.6419 -6.43891 0)
(-18.14 -7.3566 0)
(-17.7525 -8.61436 0)
(-34.9541 -13.3123 0)
(-37.145 -7.57906 0)
(-69.7197 -11.9167 0)
(-46.8195 7.95456 0)
(14.8869 1.31809 0)
(52.3806 6.90934 0)
(63.2651 3.69963 0)
(41.8674 5.51161 0)
(40.0074 4.82202 0)
(36.5274 -6.3373 0)
(26.7209 0.0767956 0)
(17.5192 1.36439 0)
(7.90035 5.78801 0)
(4.10597 8.7676 0)
(2.63298 10.9361 0)
(5.46338 13.119 0)
(7.26701 11.874 0)
(3.81435 12.344 0)
(-37.9924 23.8555 0)
(-98.1185 49.4587 0)
(-136.074 75.1398 0)
(-150.059 67.1332 0)
(-156.599 12.6321 0)
(-137.162 -49.8625 0)
(-100.015 -92.5619 0)
(-74.1873 -53.455 0)
(-67.5338 -45.1749 0)
(-42.4069 -13.568 0)
(-5.14043 -7.03158 0)
(16.7539 -0.884565 0)
(20.5209 -4.59012 0)
(13.8097 -9.43404 0)
(16.5433 -14.0975 0)
(23.1295 -10.5449 0)
(35.7071 -7.61973 0)
(46.0144 -11.9119 0)
(48.6083 -10.7036 0)
(54.1603 -5.07217 0)
(56.0875 -2.70534 0)
(61.4024 -2.74351 0)
(63.8089 -8.77288 0)
(63.793 -11.814 0)
(65.2576 -15.3735 0)
(59.0768 -11.7078 0)
(51.9246 -9.26122 0)
(43.9893 -0.186335 0)
(26.0126 5.07188 0)
(7.35536 14.6235 0)
(-10.178 17.1433 0)
(-27.8204 17.3234 0)
(-46.4125 20.5936 0)
(-65.011 22.3044 0)
(-81.9119 20.6727 0)
(-99.1239 18.8043 0)
(-118.417 17.1237 0)
(-124.097 1.90713 0)
(-134.133 5.11828 0)
(-122.505 -23.3679 0)
(-102.59 -18.5491 0)
(-82.7318 -34.5102 0)
(-49.0896 -35.618 0)
(-19.929 -36.8004 0)
(7.81399 -34.3526 0)
(30.2211 -32.1572 0)
(47.6155 -30.0932 0)
(61.3264 -27.7896 0)
(72.2084 -27.6499 0)
(78.657 -27.713 0)
(82.9582 -22.784 0)
(86.2676 -20.561 0)
(89.314 -10.765 0)
(84.6994 -9.47575 0)
(80.1055 1.19104 0)
(73.7372 -0.439469 0)
(47.7668 8.38566 0)
(33.3882 12.101 0)
(14.1216 16.0814 0)
(5.96213 17.1567 0)
(-2.10287 -1.83587 0)
(-4.85843 -6.98553 0)
(-4.22792 -10.7625 0)
(-0.184535 -14.2021 0)
(5.26946 -17.6553 0)
(13.5351 -19.0716 0)
(21.6814 -19.2919 0)
(30.3853 -18.8702 0)
(37.8173 -16.9211 0)
(43.3282 -14.7022 0)
(48.6756 -12.541 0)
(52.4678 -10.8333 0)
(56.4083 -8.48547 0)
(58.3263 -8.19054 0)
(60.9511 -5.6698 0)
(61.2124 -7.08861 0)
(61.6292 -3.87066 0)
(60.9969 -6.25741 0)
(59.483 -2.53516 0)
(57.8849 -3.95309 0)
(54.1762 -1.36548 0)
(52.1867 -1.72186 0)
(47.5096 0.515054 0)
(44.6256 -0.185173 0)
(39.428 2.53377 0)
(34.8791 0.901152 0)
(28.1845 4.46588 0)
(21.6906 1.78085 0)
(13.7816 4.66081 0)
(4.88775 2.50938 0)
(0.745873 -4.71865 0)
(2.41247 -5.26965 0)
(3.82215 -4.766 0)
(5.75255 -4.68808 0)
(7.13575 -3.97767 0)
(8.35317 -3.46868 0)
(9.21569 -3.46028 0)
(9.64708 -2.26897 0)
(9.90637 -2.70793 0)
(9.89881 -1.38206 0)
(9.80992 -2.01527 0)
(9.54838 -0.865849 0)
(9.2464 -1.43749 0)
(8.78315 -0.519789 0)
(8.41748 -1.08412 0)
(7.81587 -0.347904 0)
(7.34989 -0.738884 0)
(6.75101 -0.21671 0)
(6.24763 -0.501211 0)
(5.6561 -0.105384 0)
(5.16244 -0.366335 0)
(4.575 0.00371714 0)
(4.09529 -0.261279 0)
(3.50267 0.125746 0)
(3.04669 -0.175272 0)
(2.42795 0.211278 0)
(2.02029 -0.0949978 0)
(1.40197 0.265298 0)
(0.976487 0.0148701 0)
(0.407989 0.283487 0)
(0.0193219 -0.195071 0)
(0.0808381 -0.21409 0)
(0.128432 -0.17728 0)
(0.198239 -0.193777 0)
(0.249964 -0.142096 0)
(0.26922 -0.150156 0)
(0.302903 -0.10167 0)
(0.283935 -0.118919 0)
(0.281434 -0.0588271 0)
(0.2601 -0.0900096 0)
(0.246704 -0.0341146 0)
(0.224088 -0.0668534 0)
(0.205525 -0.019204 0)
(0.182991 -0.0495571 0)
(0.161965 -0.00984918 0)
(0.139522 -0.0381642 0)
(0.120359 -0.004457 0)
(0.103318 -0.0301069 0)
(0.0859061 -0.00327955 0)
(0.0762726 -0.0254652 0)
(0.0580415 -0.00599998 0)
(0.0516518 -0.0230556 0)
(0.0334353 -0.00812091 0)
(0.0266132 -0.0203014 0)
(0.0180452 -0.0117923 0)
(0.00989223 -0.020749 0)
(8.17935e-05 -0.0138182 0)
(-0.00613466 -0.0218289 0)
(-0.011211 -0.017136 0)
(-0.013178 -0.016617 0)
(0.00924985 -0.0143597 0)
(0.0194154 -0.0173709 0)
(0.020557 -0.0169186 0)
(0.0191672 -0.0154246 0)
(0.0171354 -0.0172205 0)
(0.0153061 -0.0145686 0)
(0.0139752 -0.0166544 0)
(0.0123506 -0.0140686 0)
(0.0111798 -0.0162647 0)
(0.00961192 -0.0137366 0)
(0.0083895 -0.0158956 0)
(0.00669994 -0.0136739 0)
(0.00508543 -0.0154714 0)
(0.00311418 -0.0138181 0)
(0.00109321 -0.0149148 0)
(-0.00111324 -0.013808 0)
(-0.00329413 -0.0151019 0)
(-0.00517631 -0.0137663 0)
(-0.00703134 -0.0156322 0)
(-0.00837173 -0.0136678 0)
(-0.010025 -0.0161927 0)
(-0.0112539 -0.0137565 0)
(-0.012884 -0.0164038 0)
(-0.0140784 -0.0139114 0)
(-0.0157312 -0.0166928 0)
(-0.0172524 -0.0146207 0)
(-0.0195294 -0.0167178 0)
(-0.0226911 -0.0154223 0)
(-0.0252362 -0.0168081 0)
(-0.0280719 -0.0174058 0)
(0.014927 -0.0170187 0)
(0.0259581 -0.0154644 0)
(0.0232555 -0.0174119 0)
(0.0205658 -0.0148888 0)
(0.0189049 -0.0169361 0)
(0.0169489 -0.0143486 0)
(0.0155593 -0.0166856 0)
(0.0138487 -0.0139972 0)
(0.0126713 -0.0163653 0)
(0.0110282 -0.0137484 0)
(0.00981712 -0.0159512 0)
(0.00807152 -0.0137303 0)
(0.00643779 -0.0153411 0)
(0.00433189 -0.0138085 0)
(0.00216514 -0.0149501 0)
(-0.000128289 -0.0138177 0)
(-0.00240808 -0.015094 0)
(-0.00441023 -0.0137389 0)
(-0.00637441 -0.0155786 0)
(-0.00784734 -0.0136597 0)
(-0.00957876 -0.0161692 0)
(-0.0108789 -0.0137443 0)
(-0.0125623 -0.0163863 0)
(-0.0137765 -0.0139273 0)
(-0.0154736 -0.0166991 0)
(-0.0170324 -0.0146377 0)
(-0.0192999 -0.0167237 0)
(-0.0225541 -0.0154601 0)
(-0.0251636 -0.0167984 0)
(-0.0280135 -0.0174437 0)
(0.0281662 -0.0167549 0)
(0.0249464 -0.0168493 0)
(0.0214459 -0.0157625 0)
(0.0183168 -0.0166058 0)
(0.0162612 -0.0142526 0)
(0.0149197 -0.016262 0)
(0.0133729 -0.0137283 0)
(0.0123794 -0.0161476 0)
(0.0108596 -0.0136682 0)
(0.00980746 -0.015999 0)
(0.00828773 -0.0136298 0)
(0.00693285 -0.0155349 0)
(0.00511974 -0.0136505 0)
(0.00321508 -0.0149212 0)
(0.00102219 -0.0135752 0)
(-0.00123115 -0.0146944 0)
(-0.00343927 -0.0135788 0)
(-0.00571004 -0.0151026 0)
(-0.0076865 -0.0138186 0)
(-0.00929771 -0.0147915 0)
(-0.0132653 -0.0135767 0)
(-0.0144062 -0.0139867 0)
(-0.0166744 -0.0160989 0)
(-0.0179096 -0.0138997 0)
(-0.019424 -0.0166585 0)
(-0.0205337 -0.0146756 0)
(-0.0218293 -0.0173826 0)
(-0.0219518 -0.016112 0)
(-0.0191772 -0.0181478 0)
(-0.0107962 -0.0157419 0)
(0.0149546 -0.0172979 0)
(0.0260399 -0.0153924 0)
(0.0233305 -0.0173571 0)
(0.0206409 -0.0148099 0)
(0.0189936 -0.0168526 0)
(0.0170614 -0.014311 0)
(0.015691 -0.0165902 0)
(0.0140376 -0.013988 0)
(0.0128409 -0.0162995 0)
(0.0111882 -0.0137563 0)
(0.00991268 -0.0159599 0)
(0.00804712 -0.0137491 0)
(0.00637534 -0.0154759 0)
(0.00420874 -0.0138999 0)
(0.00203901 -0.0150524 0)
(-0.000285208 -0.0139097 0)
(-0.00254468 -0.0151614 0)
(-0.00460061 -0.013858 0)
(-0.00654113 -0.0156639 0)
(-0.00811046 -0.0138448 0)
(-0.00989396 -0.0161969 0)
(-0.0111952 -0.0139511 0)
(-0.0128527 -0.0164869 0)
(-0.0140206 -0.0141186 0)
(-0.0156416 -0.0168441 0)
(-0.0171916 -0.0148845 0)
(-0.0195655 -0.0170671 0)
(-0.0230448 -0.0157842 0)
(-0.0254335 -0.0169622 0)
(-0.0281548 -0.0180055 0)
(0.0117469 -0.011793 0)
(0.0228089 -0.0173858 0)
(0.0213213 -0.0175612 0)
(0.0177885 -0.0161435 0)
(0.016466 -0.017024 0)
(0.0152385 -0.014034 0)
(0.0146668 -0.0164019 0)
(0.013474 -0.0136742 0)
(0.0127251 -0.0162201 0)
(0.0112797 -0.0136267 0)
(0.0101322 -0.0161507 0)
(0.00830046 -0.0138048 0)
(0.00658379 -0.0156655 0)
(0.0040558 -0.0139282 0)
(0.00288802 -0.0136279 0)
(-0.000664716 -0.0141675 0)
(-0.00260706 -0.0140316 0)
(-0.00509226 -0.0154479 0)
(-0.00715187 -0.0139892 0)
(-0.00895385 -0.0159768 0)
(-0.0101531 -0.0139053 0)
(-0.0115512 -0.0162533 0)
(-0.0124135 -0.0140679 0)
(-0.0137942 -0.0166902 0)
(-0.01478 -0.0149817 0)
(-0.0163896 -0.0177464 0)
(-0.0184391 -0.0164606 0)
(-0.0209261 -0.0165565 0)
(-0.0208061 -0.0172915 0)
(-0.0102989 -0.0139232 0)
(0.0143746 -0.0180346 0)
(0.0247905 -0.0155595 0)
(0.0218577 -0.0181809 0)
(0.0186545 -0.0148612 0)
(0.0166902 -0.0181227 0)
(0.014404 -0.0143118 0)
(0.0132433 -0.0180868 0)
(0.0114888 -0.0139865 0)
(0.0106985 -0.0179631 0)
(0.00921185 -0.013796 0)
(0.00844025 -0.0174306 0)
(0.006978 -0.013825 0)
(0.00597095 -0.0166742 0)
(0.00438376 -0.0140322 0)
(0.00297132 -0.0162069 0)
(0.000662066 -0.0143884 0)
(-0.00149107 -0.0155573 0)
(-0.00405829 -0.0143807 0)
(-0.00634841 -0.0157148 0)
(-0.00793217 -0.0140752 0)
(-0.0096484 -0.0163886 0)
(-0.0107127 -0.0139121 0)
(-0.0122255 -0.0168076 0)
(-0.0131494 -0.0138909 0)
(-0.0147055 -0.0171561 0)
(-0.015988 -0.0144852 0)
(-0.0186673 -0.0171667 0)
(-0.0219896 -0.0155527 0)
(-0.0248263 -0.0166093 0)
(-0.0278496 -0.0162843 0)
(0.472363 -15.1059 0)
(1.58223 -20.1255 0)
(2.3114 -18.8049 0)
(-0.700251 -21.8681 0)
(-2.43242 -20.473 0)
(-0.680829 -9.6272 0)
(2.55892 2.07197 0)
(6.54815 -0.0872301 0)
(9.3297 4.70108 0)
(13.5685 3.38027 0)
(18.381 3.3836 0)
(21.3481 0.181705 0)
(18.3884 -4.50873 0)
(6.46655 -5.661 0)
(0.863181 -2.60516 0)
(-0.409639 -9.10203 0)
(3.09598 -7.27531 0)
(8.73074 -9.68684 0)
(17.3624 -10.4947 0)
(23.5748 4.85999 0)
(12.677 -9.48245 0)
(11.4454 -6.648 0)
(0.876709 -15.8813 0)
(-3.32196 -12.6722 0)
(-9.84738 -12.8446 0)
(-17.6404 -13.243 0)
(-19.6754 -11.642 0)
(-32.3101 -3.6788 0)
(-32.8709 0.795534 0)
(-56.0116 30.5585 0)
(-30.151 53.9406 0)
(3.56925 33.4236 0)
(1.30206 13.6671 0)
(22.7906 9.95585 0)
(34.482 10.5985 0)
(32.7581 -0.0191954 0)
(24.1393 6.20263 0)
(17.1019 9.0929 0)
(9.26763 14.3306 0)
(7.38051 12.1529 0)
(9.4997 13.8562 0)
(9.84957 17.0596 0)
(4.71406 18.4901 0)
(1.41387 22.8697 0)
(-33.8673 56.9954 0)
(-92.237 88.7429 0)
(-129.647 107.569 0)
(-143.49 67.647 0)
(-142.605 -4.70686 0)
(-139.687 -63.8347 0)
(-29.8794 -43.8823 0)
(79.1415 -59.3888 0)
(55.0166 -53.601 0)
(52.9911 -24.099 0)
(64.2533 15.8451 0)
(72.5847 19.2993 0)
(51.2773 19.677 0)
(32.3239 13.6818 0)
(39.3752 18.6105 0)
(65.9191 24.4246 0)
(50.1526 33.2737 0)
(60.7141 19.595 0)
(89.604 14.0625 0)
(83.6734 -1.83661 0)
(74.2994 -7.40897 0)
(71.6257 -1.40089 0)
(62.9091 -8.09884 0)
(60.2425 -6.42483 0)
(60.3166 -8.8227 0)
(57.4265 -7.40421 0)
(53.5963 -4.03139 0)
(46.7912 2.91927 0)
(41.3849 11.2224 0)
(17.2478 23.0481 0)
(-7.96754 24.6854 0)
(-24.7375 26.7149 0)
(-43.6358 29.9896 0)
(-68.1064 32.0055 0)
(-93.84 32.6538 0)
(-115.086 31.4621 0)
(-145.733 20.7122 0)
(-149.18 15.9913 0)
(-164.842 -14.5271 0)
(-136.67 -31.2662 0)
(-119.231 -57.3932 0)
(-93.3021 -70.6047 0)
(-55.1678 -82.7148 0)
(-24.5543 -83.2405 0)
(7.06857 -76.422 0)
(34.6991 -65.4457 0)
(55.0524 -55.3818 0)
(68.3083 -46.2254 0)
(75.903 -40.8859 0)
(82.6217 -36.4033 0)
(87.2424 -31.8538 0)
(88.3588 -26.4365 0)
(84.0345 -17.9738 0)
(74.535 -13.5167 0)
(75.1316 -0.8039 0)
(65.8864 -2.28902 0)
(43.5756 13.934 0)
(31.9077 14.6564 0)
(15.3263 25.2108 0)
(8.67095 29.5447 0)
(-2.81195 -1.35964 0)
(-8.25042 -9.21885 0)
(-10.1183 -15.6956 0)
(-7.1465 -24.9419 0)
(0.474993 -29.8585 0)
(10.4342 -33.8003 0)
(20.6603 -33.9151 0)
(29.6144 -31.2629 0)
(36.9674 -27.4955 0)
(43.5771 -23.8469 0)
(47.3854 -20.066 0)
(50.7763 -17.1434 0)
(52.7058 -13.6964 0)
(54.1966 -13.0894 0)
(54.545 -9.37904 0)
(55.0339 -11.2334 0)
(53.9064 -6.73227 0)
(53.3799 -9.61173 0)
(51.5152 -4.12457 0)
(49.4313 -7.16901 0)
(46.2078 -1.81859 0)
(44.3004 -3.91008 0)
(40.0698 0.580554 0)
(37.4197 -0.904275 0)
(32.5358 3.07261 0)
(28.8323 1.41687 0)
(23.4817 4.775 0)
(17.4333 3.79485 0)
(11.5108 5.68899 0)
(3.50547 5.16775 0)
(1.12087 -8.10064 0)
(3.39514 -8.73834 0)
(5.61964 -7.91212 0)
(6.70186 -7.35951 0)
(7.28833 -6.46475 0)
(7.76849 -5.65825 0)
(8.19385 -5.03844 0)
(8.55106 -4.10103 0)
(8.54932 -3.86176 0)
(8.67565 -2.80863 0)
(8.3815 -2.87017 0)
(8.33063 -1.82014 0)
(7.74435 -2.17357 0)
(7.67156 -1.10944 0)
(7.05619 -1.68713 0)
(6.63952 -0.635242 0)
(6.10889 -1.35043 0)
(5.58077 -0.368858 0)
(5.20103 -0.991882 0)
(4.68642 -0.193015 0)
(4.33088 -0.703965 0)
(3.81757 -0.0755877 0)
(3.45802 -0.444344 0)
(2.91592 0.0420826 0)
(2.5817 -0.218354 0)
(2.00218 0.127136 0)
(1.68002 -0.0221481 0)
(1.17288 0.192885 0)
(0.788703 0.11164 0)
(0.413779 0.249701 0)
(0.0752461 -0.378576 0)
(0.149008 -0.368609 0)
(0.194915 -0.323709 0)
(0.201518 -0.302979 0)
(0.196926 -0.241647 0)
(0.206428 -0.220589 0)
(0.213024 -0.16045 0)
(0.211682 -0.166999 0)
(0.204749 -0.0964 0)
(0.19366 -0.126412 0)
(0.179294 -0.0548321 0)
(0.166722 -0.0937889 0)
(0.151248 -0.0294351 0)
(0.139063 -0.0698435 0)
(0.124502 -0.0141513 0)
(0.113209 -0.0525431 0)
(0.0993413 -0.00681519 0)
(0.0917773 -0.0385178 0)
(0.0807526 -0.00709539 0)
(0.0764409 -0.0282239 0)
(0.0669673 -0.0100569 0)
(0.0681252 -0.0211961 0)
(0.0581261 -0.01455 0)
(0.0583474 -0.0178844 0)
(0.0507675 -0.0151672 0)
(0.0490777 -0.0168523 0)
(0.0425262 -0.0183621 0)
(0.0398696 -0.0176235 0)
(0.0342558 -0.0227668 0)
(0.0356097 -0.0149154 0)
(-0.0232401 -0.0116854 0)
(-0.0226414 -0.0205494 0)
(-0.0199448 -0.0204636 0)
(-0.0201376 -0.0103511 0)
(-0.020353 -0.0199637 0)
(-0.020262 -0.0092787 0)
(-0.0196923 -0.0195656 0)
(-0.0185524 -0.00896562 0)
(-0.0169282 -0.0192573 0)
(-0.0148662 -0.00879692 0)
(-0.0124535 -0.0188014 0)
(-0.00975587 -0.00856849 0)
(-0.00692279 -0.0181085 0)
(-0.00408162 -0.00831823 0)
(-0.00129611 -0.0173387 0)
(0.00153204 -0.00825039 0)
(0.00440416 -0.0175908 0)
(0.00728811 -0.00839531 0)
(0.0102004 -0.0183911 0)
(0.0129902 -0.00865662 0)
(0.0155095 -0.0190098 0)
(0.0177527 -0.00876094 0)
(0.0196311 -0.0192716 0)
(0.0212002 -0.00862989 0)
(0.0223289 -0.0193339 0)
(0.0231196 -0.00861931 0)
(0.0234283 -0.018759 0)
(0.0232482 -0.00867851 0)
(0.0176147 -0.0103543 0)
(0.00822882 -0.0230021 0)
(-0.00693414 -0.0229483 0)
(-0.0186199 -0.00985761 0)
(-0.0222307 -0.0198086 0)
(-0.0233668 -0.00861884 0)
(-0.0238715 -0.0195813 0)
(-0.0234626 -0.00864605 0)
(-0.0224978 -0.0195219 0)
(-0.0210888 -0.00882188 0)
(-0.0192006 -0.0193072 0)
(-0.0169345 -0.00879814 0)
(-0.0143218 -0.0188529 0)
(-0.0114511 -0.00860841 0)
(-0.0084422 -0.0180138 0)
(-0.00545082 -0.00826588 0)
(-0.00252451 -0.0173668 0)
(0.00042428 -0.0082227 0)
(0.00342712 -0.0175767 0)
(0.00641019 -0.00833535 0)
(0.00940961 -0.0183306 0)
(0.0122749 -0.0086318 0)
(0.0148731 -0.0190033 0)
(0.017198 -0.00878028 0)
(0.0191656 -0.0192877 0)
(0.020812 -0.00869349 0)
(0.0220239 -0.0193818 0)
(0.0228951 -0.00865766 0)
(0.0232853 -0.0187966 0)
(0.0231749 -0.00873494 0)
(0.017536 -0.0103978 0)
(0.00820999 -0.0230197 0)
(-0.00881177 -0.0228379 0)
(-0.0184706 -0.0101902 0)
(-0.0236369 -0.00875341 0)
(-0.0235477 -0.0187944 0)
(-0.0231882 -0.00823358 0)
(-0.0223811 -0.0189134 0)
(-0.021215 -0.0083609 0)
(-0.0195794 -0.0190021 0)
(-0.0176194 -0.00855894 0)
(-0.0153088 -0.0188654 0)
(-0.012678 -0.00859418 0)
(-0.00980869 -0.0182709 0)
(-0.00679918 -0.00836339 0)
(-0.00382636 -0.0174224 0)
(-0.00086951 -0.008168 0)
(0.00193573 -0.0171135 0)
(0.0045386 -0.00813039 0)
(0.00718427 -0.0177833 0)
(0.0101401 -0.00909396 0)
(0.0132887 -0.0165814 0)
(0.0191277 -0.0158107 0)
(0.0208001 -0.00878553 0)
(0.022272 -0.0189062 0)
(0.0235598 -0.00855664 0)
(0.0245256 -0.0194557 0)
(0.0252193 -0.00892499 0)
(0.0258166 -0.0204194 0)
(0.0263467 -0.0105933 0)
(0.0264872 -0.0216053 0)
(0.0287226 -0.0109139 0)
(-0.00690707 -0.0232412 0)
(-0.0185912 -0.00977053 0)
(-0.0222082 -0.0197448 0)
(-0.0233169 -0.00854087 0)
(-0.0237579 -0.019475 0)
(-0.0232868 -0.00856358 0)
(-0.0222643 -0.0193973 0)
(-0.0208028 -0.00876471 0)
(-0.0188924 -0.0192117 0)
(-0.016643 -0.00881176 0)
(-0.0140596 -0.0188397 0)
(-0.0112448 -0.00868905 0)
(-0.00827502 -0.0181665 0)
(-0.00532599 -0.00848083 0)
(-0.00239082 -0.0175259 0)
(0.000480379 -0.00844906 0)
(0.0034428 -0.0177338 0)
(0.00635382 -0.00865566 0)
(0.00931189 -0.0185093 0)
(0.0121339 -0.00886732 0)
(0.0147234 -0.0190915 0)
(0.0170297 -0.00901429 0)
(0.0190194 -0.01943 0)
(0.0206796 -0.00894641 0)
(0.0219136 -0.0196132 0)
(0.0227912 -0.00903254 0)
(0.0231666 -0.0192203 0)
(0.0230967 -0.00913119 0)
(0.0172994 -0.0104194 0)
(0.00810828 -0.02326 0)
(-0.024935 -0.0101529 0)
(-0.0233797 -0.0192007 0)
(-0.0221313 -0.0139198 0)
(-0.0255782 -0.00967814 0)
(-0.0247986 -0.0197806 0)
(-0.0239131 -0.00886685 0)
(-0.0224546 -0.0193904 0)
(-0.0207902 -0.00890928 0)
(-0.0186856 -0.019183 0)
(-0.0165894 -0.00889095 0)
(-0.0142113 -0.0189471 0)
(-0.0118616 -0.0089171 0)
(-0.00930388 -0.0182874 0)
(-0.00664675 -0.00881597 0)
(-0.00378412 -0.016133 0)
(0.00323804 -0.0163002 0)
(0.0063975 -0.00883399 0)
(0.00911251 -0.018151 0)
(0.0116347 -0.00901312 0)
(0.0140774 -0.0189695 0)
(0.0164295 -0.00907704 0)
(0.0185331 -0.0193745 0)
(0.0204011 -0.00915014 0)
(0.021774 -0.0197276 0)
(0.0225071 -0.00954264 0)
(0.0225279 -0.0204322 0)
(0.0220133 -0.00979096 0)
(0.0207142 -0.0185062 0)
(0.0226507 -0.0198645 0)
(0.0232299 -0.0119836 0)
(-0.00690978 -0.0235667 0)
(-0.0187132 -0.0104933 0)
(-0.0225127 -0.0205582 0)
(-0.0240749 -0.00931614 0)
(-0.0244848 -0.0209217 0)
(-0.0244401 -0.00948519 0)
(-0.0234254 -0.0211668 0)
(-0.0222586 -0.00963791 0)
(-0.0202544 -0.0211814 0)
(-0.0182224 -0.00967735 0)
(-0.0154699 -0.0206127 0)
(-0.0127969 -0.00957926 0)
(-0.00962613 -0.0196113 0)
(-0.00671431 -0.00933122 0)
(-0.00360251 -0.0186545 0)
(-0.000756245 -0.00895948 0)
(0.00230788 -0.0179547 0)
(0.00538039 -0.00890816 0)
(0.00853333 -0.0184633 0)
(0.0115525 -0.00905814 0)
(0.0143061 -0.0193362 0)
(0.0168263 -0.00917866 0)
(0.0189253 -0.0198529 0)
(0.0208134 -0.00899945 0)
(0.0221218 -0.0199535 0)
(0.0231649 -0.00869725 0)
(0.0234698 -0.0191523 0)
(0.0233996 -0.00857087 0)
(0.0179796 -0.0103707 0)
(0.00867776 -0.0228631 0)
(1.68642 -15.1497 0)
(4.78471 -19.8271 0)
(6.93641 -19.8123 0)
(7.72612 -23.5463 0)
(7.07178 -22.9677 0)
(0.233441 -9.43195 0)
(-5.27318 2.50406 0)
(-3.48363 -2.79106 0)
(2.55325 4.21314 0)
(9.82209 5.2138 0)
(13.8015 4.81301 0)
(16.999 0.946811 0)
(14.1277 -0.560505 0)
(5.97825 -3.04578 0)
(-0.913626 1.73126 0)
(3.50361 -5.81206 0)
(23.9311 -9.43053 0)
(31.1505 -17.3533 0)
(19.2921 -25.5824 0)
(20.4331 -9.90132 0)
(16.0042 -20.4834 0)
(1.76268 -14.9732 0)
(-1.65878 -25.167 0)
(-11.8744 -19.4485 0)
(-11.6403 -15.7137 0)
(-17.3706 -14.7001 0)
(-26.9339 -4.70711 0)
(-33.3824 -6.47636 0)
(-50.6077 16.2161 0)
(-46.2325 15.1249 0)
(-42.8018 63.0962 0)
(-33.5013 19.4509 0)
(-28.518 15.9529 0)
(-37.0014 10.8016 0)
(-28.8753 14.3758 0)
(-21.4833 6.26328 0)
(-0.740129 12.5959 0)
(26.8187 15.1594 0)
(23.8615 25.0316 0)
(19.7554 21.4808 0)
(17.6589 21.1443 0)
(16.5488 22.714 0)
(15.4665 27.5742 0)
(7.13958 34.8553 0)
(-28.1847 93.4223 0)
(-67.9297 115.906 0)
(-100.125 125.123 0)
(-117.267 63.0397 0)
(-119.058 -6.71946 0)
(-75.8061 -48.159 0)
(-7.85525 39.1933 0)
(4.14812 -34.5304 0)
(43.6227 -42.693 0)
(66.0949 -38.4547 0)
(69.2577 -3.0067 0)
(79.1562 12.2083 0)
(77.0571 21.2128 0)
(62.8791 32.6808 0)
(59.6227 40.4818 0)
(74.3815 32.1237 0)
(67.1874 50.8265 0)
(66.5672 56.0955 0)
(85.5002 44.9815 0)
(94.2702 28.4117 0)
(96.7941 -12.2518 0)
(96.2615 2.06919 0)
(78.6906 6.28766 0)
(67.3337 3.69179 0)
(62.7426 0.93398 0)
(59.4719 3.92619 0)
(53.6026 7.1101 0)
(50.5015 13.8937 0)
(38.5716 16.694 0)
(13.9079 14.8561 0)
(-7.52547 32.154 0)
(-22.8089 34.9245 0)
(-42.6032 39.0167 0)
(-66.5467 42.7056 0)
(-93.0704 43.0254 0)
(-118.418 44.8732 0)
(-127.198 25.0435 0)
(-137.565 18.3892 0)
(-132.941 -32.3682 0)
(-104.361 -43.0831 0)
(-77.4671 -99.2493 0)
(-50.5682 -108.112 0)
(-17.2216 -129.073 0)
(8.8949 -130.022 0)
(34.5272 -123.545 0)
(54.0639 -107.858 0)
(69.5892 -87.5343 0)
(82.2393 -68.3347 0)
(90.8429 -51.7998 0)
(95.4418 -41.7712 0)
(98.1484 -34.9348 0)
(98.4681 -30.8464 0)
(98.3494 -23.0356 0)
(92.0141 -16.6886 0)
(76.904 -1.35563 0)
(66.7248 -0.388288 0)
(50.9923 13.492 0)
(32.7147 22.211 0)
(16.7049 30.7757 0)
(3.98419 39.8728 0)
(-7.3096 4.90696 0)
(-16.8462 -6.42448 0)
(-22.6924 -18.9091 0)
(-20.3195 -33.6214 0)
(-9.90463 -46.4029 0)
(6.11804 -52.3554 0)
(21.3882 -52.7157 0)
(35.9126 -47.7371 0)