/*--------------------------------*- C++ -*----------------------------------*\
| =========                 |                                                 |
| \\      /  F ield         | OpenFOAM: The Open Source CFD Toolbox           |
|  \\    /   O peration     | Version:  2.1.1                                 |
|   \\  /    A nd           | Web:      www.OpenFOAM.org                      |
|    \\/     M anipulation  |                                                 |
\*---------------------------------------------------------------------------*/
FoamFile
{
    version     2.0;
    format      ascii;
    class       volScalarField;
    location    "0.003100000";
    object      k;
}
// * * * * * * * * * * * * * * * * * * * * * * * * * * * * * * * * * * * * * //

dimensions      [0 2 -2 0 0 0 0];

internalField   nonuniform List<scalar> 
12384
(
0.285044
0.874916
2.58125
2.22835
5.28733
5.01696
7.46616
6.19983
4.86188
4.06332
2.00141
1.09078
0.65725
0.183823
0.395431
5.55614
14.0718
30.7439
51.656
79.31
123.194
158.62
209.012
229.708
211.019
204.349
189.92
171.68
147.602
121.841
93.4274
71.8417
54.7075
39.0109
37.5341
46.9638
46.4162
73.4561
76.5681
35.2035
24.3686
6.54837
3.56562
0.547328
53.1109
241.29
481.857
787.965
1025.7
1282.48
1420.5
1533.72
1546.05
1609.4
1545.6
1546.91
1434.28
1332.85
1274.2
1115.47
1039.81
877.288
612.028
426.543
242.274
162.315
132.057
101.579
81.847
55.0645
45.1762
26.3457
13.3688
1.91428
196.889
810.436
1376.95
1983.14
2462.78
2788.67
3116.49
3231.62
3412.65
3514.46
3579.83
3665.38
3763.59
3877.86
4048.99
4119.65
4119.87
3873.02
3298.92
2564.14
1637.36
944.23
427.735
191.317
92.6251
51.6768
29.0323
13.1919
7.36251
1.02266
120.72
484.226
1269.88
1406.32
1806.98
1692.45
1575.39
1744.97
2003.31
2160.44
2833.73
2729.4
3204.76
2912.05
2831.33
2348.63
1855.64
1375.21
804.645
392.228
170.451
120.947
59.7011
33.9575
13.372
8.13245
7.68185
3.93819
1.92128
0.385156
2.42993
25.6033
79.4538
184.031
359.489
470.826
450.933
433.36
449.181
449.305
410.021
417.259
321.064
307.686
196.859
199.912
158.582
101.83
15.9347
5.98786
10.4698
8.60503
7.18812
5.73517
4.60399
3.51437
3.31368
2.58907
1.24239
0.250936
0.322635
2.18204
38.4133
305.041
1230.52
1800.01
2631.38
2148.79
1791.36
1083.31
592.82
239.728
81.6327
25.123
7.77742
2.50173
1.73965
3.11354
8.831
34.0635
169.75
135.845
0.666067
0.452127
0.446424
0.380751
0.318485
0.179506
0.155273
0.131803
0.125101
0.165181
0.196799
0.258768
0.300858
0.273243
0.258416
0.22586
0.206789
0.204374
0.197203
0.176757
0.181916
0.158096
0.154266
0.143216
0.144442
0.133348
0.133391
0.118789
0.10773
0.113503
0.101801
0.0971795
0.0974854
0.101163
0.10187
0.107911
0.108056
0.106589
0.103455
0.108085
0.112058
0.111128
0.11359
0.1108
0.109038
0.109107
0.108523
0.108511
0.109023
0.10872
0.108716
0.106305
0.105018
0.103205
0.0993686
0.0973868
0.0967783
0.0967434
0.096758
0.0967351
0.0967472
0.0967277
0.0967363
0.0967209
0.0967249
0.0967137
0.0967097
0.096692
0.0966834
0.0966952
0.0966999
0.0967051
0.0967068
0.0967099
0.0967073
0.0967108
0.0967067
0.0967099
0.0967061
0.0967079
0.0967058
0.0967051
0.0967053
0.0967036
0.0967052
0.0967049
0.0967036
0.096706
0.0967053
0.0967047
0.0967088
0.0967052
0.0967087
0.0967057
0.0967066
0.0967052
0.0967031
0.0966616
0.0966807
0.0966975
0.0967008
0.0967014
0.0967044
0.096703
0.0967068
0.0967038
0.0967075
0.0967042
0.096707
0.0967046
0.0967054
0.0967049
0.0967032
0.0967051
0.0967044
0.0967048
0.0967066
0.0967043
0.0967075
0.0967041
0.0967078
0.096704
0.0967066
0.0967029
0.0967035
0.0966999
0.0966947
0.0966792
0.0966626
0.0967006
0.0966995
0.0967024
0.0967076
0.0967067
0.0967103
0.096707
0.0967101
0.096706
0.0967088
0.0967058
0.0967072
0.0967056
0.0967075
0.0967077
0.0967053
0.0967062
0.0967054
0.0967079
0.0967054
0.0967092
0.0967062
0.0967092
0.096706
0.0967066
0.0967022
0.0967004
0.096701
0.0966614
0.0966796
0.0966974
0.0967025
0.0967015
0.0967083
0.0967033
0.0967122
0.0967041
0.0967132
0.0967045
0.0967123
0.096705
0.0967095
0.0967052
0.0967058
0.0967047
0.0967031
0.0967045
0.0967058
0.0967038
0.0967082
0.0967041
0.0967092
0.0967039
0.0967079
0.0967026
0.0967039
0.0966995
0.0966943
0.096679
0.835409
9.7986
27.9102
43.8515
82.7571
110.957
152.777
153.032
141.127
115.125
74.4272
39.552
14.2216
1.36768
3.09268
70.5903
229.665
609.917
1307.69
2425.12
4225.01
7265.68
11772.8
16560.6
20711.8
23620.1
25189
25115.4
23441.6
20502.8
17000.1
13628.3
10643.6
8058.93
6064.11
4726.09
3893.7
3125.03
2211.36
1250.17
549.849
238.653
63.1504
3.15171
329.527
1560.06
2449.12
3220.7
3750.77
4092.38
4351.85
4538.29
4850.34
5109.02
5106.41
5078.87
4819.22
4584.75
4279.32
3913.41
3650.13
3409.54
3105.18
2783.29
2332.2
1886.92
1524.4
1207.22
971.146
770.97
589.547
332.198
146.194
11.2559
822.581
2927.77
3881.14
4579.73
5199.7
5737.31
6040.75
6116.27
5957.45
5556.91
5137.34
4724.68
4475.17
4609.8
5297.38
6522.59
8105.86
9777.09
10836.9
10671.2
9350.81
7571.74
5325.03
3285.69
1890.29
993.555
484.995
228.449
106.191
10.19
609.526
3640.05
8141.94
13482.3
18708.6
22179.2
24414.1
25436.7
25556.7
23960.4
21185.2
17284.2
13975
11507.2
9594.98
8059.47
6630.55
5207.17
3674.4
2318.39
1474.46
1240.9
974.494
785.523
630.865
223.441
146.914
83.3836
32.7845
2.14039
17.9095
264.745
633.247
1375.54
2591.21
3439.59
3659.47
3663.31
4156.76
5068.59
6347.87
7040.1
6761.78
6238.89
5748.85
5498.63
5041.88
4281.36
3527.13
1774.9
989.478
891.312
809.341
670.896
493.706
344.458
228.226
97.4815
14.1305
1.29974
35.787
343.188
1587.17
3940.44
6627.24
8447.4
8676.79
7734.44
6677.28
5307.39
3859.32
2504.38
1485.88
754.552
287.622
93.2435
63.1536
98.6572
322.365
1619.42
4427.5
2791.25
11.2725
4.25384
3.97547
3.23705
1.83685
0.905716
0.518215
0.157213
0.192194
1.30573
2.00239
3.38161
3.69514
2.91532
2.04849
1.39174
1.08109
0.947143
0.911287
0.940089
1.06017
1.09609
0.955716
1.04881
1.31494
2.10639
3.9447
6.36542
8.35353
7.57918
6.3937
5.43028
3.80148
2.58221
1.52139
0.949037
0.614048
0.127651
0.0972332
0.265709
0.26047
0.248257
0.23261
0.225387
0.219256
0.223957
0.224385
0.223412
0.20657
0.181653
0.155587
0.137787
0.121738
0.111631
0.105806
0.101539
0.100239
0.100162
0.100181
0.100128
0.100131
0.100074
0.10008
0.100029
0.10004
0.100019
0.0999338
0.0965764
0.0965622
0.0999197
0.0999688
0.0999644
0.0999173
0.0999276
0.0998856
0.0998994
0.099857
0.0998656
0.0998184
0.0998219
0.0997684
0.0997622
0.0997145
0.0997373
0.0997387
0.0997999
0.099804
0.0998513
0.0998804
0.0998851
0.0999284
0.0999137
0.0999528
0.0999381
0.0999795
0.0999571
0.0999083
0.0965675
0.0965766
0.0998865
0.0999923
0.0999479
0.0999589
0.099914
0.0999279
0.0998839
0.0998958
0.0998485
0.099855
0.0998041
0.0998014
0.0997411
0.0997401
0.0997113
0.0997578
0.099764
0.0998197
0.0998175
0.0998659
0.0998576
0.0998996
0.099885
0.0999269
0.0999116
0.0999559
0.099967
0.0999062
0.0965626
0.0965636
0.0999143
0.0999603
0.099936
0.099941
0.0999013
0.0999146
0.0998751
0.0998891
0.099844
0.0998505
0.0997992
0.0997967
0.0997372
0.0997269
0.0997286
0.0997361
0.0997944
0.0997962
0.0998468
0.0998408
0.0998868
0.0998727
0.0999134
0.0999006
0.0999399
0.0999308
0.0999634
0.0999071
0.096566
0.0965766
0.0998795
0.0999794
0.099932
0.0999438
0.0999018
0.0999203
0.0998799
0.0998986
0.0998542
0.0998659
0.0998143
0.0998138
0.099753
0.099749
0.099712
0.0997527
0.0997589
0.099816
0.0998143
0.0998656
0.0998579
0.0999
0.099884
0.0999251
0.0999086
0.0999507
0.0999618
0.0999025
0.0965634
1.98384
32.5434
94.8613
173.202
316.876
405.082
467.066
428.003
377.325
297.086
192.477
117.209
46.7902
5.41278
12.3762
354.696
1176.63
2702.54
4882.31
7627.55
11166.9
15980.5
21422.3
26980.7
32231
36449
39271.9
40248.4
38980.4
35164
29211
22105.1
15711
10744.1
7498.86
5426.47
4150.88
3146.19
2212.83
1360.55
656.707
287.427
77.5695
4.8749
533.017
2468.26
3110.77
3638.4
4033.7
4327.18
4615.17
4967.52
5460.53
5883.78
5963.23
5962.87
5700.91
5456.19
5039.81
4683.02
4388.93
4138.54
3853.97
3560.13
3195.66
2693.82
2205.26
1812.82
1498.21
1174.81
857.121
573.355
336.165
17.1616
1217.23
3724.26
4465.41
5081.79
5733.58
6321.76
6557.86
6562.81
6315.28
6121.63
6058.86
6062.64
6220.73
6659.74
7336.88
8099.53
8680.07
9172.09
9309.39
8936.58
7984.68
6528.65
5021.57
3553.67
2389.61
1541.25
990.163
606.887
337.549
44.615
824.287
4120.93
7245.14
11219.6
15709.7
19196.2
21921.9
23188.7
23700.7
22787.4
20552.5
18073.1
15992.8
14705.5
14102.7
13277.3
12111.2
10418
8183.14
5863.23
4207.18
3426.66
2934.07
2574.68
2193.91
1475.41
1057.42
571.047
144.04
1.87015
38.13
473.435
1236.32
2739.07
4815.61
5601.08
5459.15
5704.8
6888.43
8713.12
10768.3
12012
12582.6
12875.7
12669.5
11935.9
10735
8996.16
6949.78
4730.68
3423.84
2610.93
1762.85
1225.99
803.065
474.037
279.57
103.401
18.3818
1.62638
215.516
1760.95
5449.51
10760.6
15746.2
18894.7
18726.2
17732.2
15616.8
12352.6
8880.11
6069.67
4337.61
2458.18
1025.11
265.684
119.478
471.331
3227.47
10515.2
16727.8
13692.1
222.738
56.3548
60.8377
35.3495
14.5748
1.37868
0.670541
0.195517
0.184151
4.03555
9.94477
14.9667
17.5846
13.368
8.03301
4.36311
2.95742
2.38104
2.33444
2.33195
2.36043
2.13079
1.89284
2.12355
3.11275
5.19897
7.20478
7.89135
6.99199
5.99729
5.33408
4.81829
4.19032
3.07195
2.07416
1.3372
0.926812
0.12094
0.104846
0.345137
0.393432
0.363507
0.340172
0.310229
0.29931
0.281924
0.277909
0.262864
0.24868
0.216401
0.182599
0.149536
0.129841
0.115916
0.107911
0.103251
0.100354
0.0999827
0.100016
0.0999708
0.0999934
0.0999499
0.0999721
0.0999322
0.0999436
0.0999098
0.0998586
0.0968608
0.0968487
0.0998188
0.099826
0.099828
0.0997833
0.0997995
0.0997511
0.0997651
0.0997125
0.0997237
0.0996661
0.099668
0.0995999
0.099593
0.0995285
0.0995524
0.0995493
0.0996292
0.0996517
0.0996951
0.0997212
0.0997334
0.0997903
0.0997782
0.0998282
0.0998098
0.0998524
0.0998287
0.0998262
0.0969036
0.0968476
0.0998305
0.09987
0.0998176
0.0998398
0.0997881
0.0998038
0.09975
0.099762
0.0997037
0.0997098
0.099644
0.0996354
0.0995621
0.0995572
0.0995203
0.0995784
0.099587
0.0996566
0.0996572
0.099718
0.0997101
0.0997666
0.0997544
0.0998084
0.0997968
0.0998376
0.09983
0.0998104
0.0968483
0.0968989
0.0997915
0.0998209
0.0998206
0.0998257
0.0997757
0.099789
0.099736
0.0997472
0.0996907
0.0996983
0.0996332
0.099629
0.0995579
0.0995388
0.0995399
0.0995583
0.0996295
0.0996337
0.0996986
0.0996904
0.0997474
0.099735
0.0997883
0.0997732
0.0998238
0.0998081
0.0998224
0.0997833
0.0968978
0.0968459
0.0998273
0.0998645
0.099813
0.0998353
0.0997846
0.0998009
0.0997463
0.0997596
0.0997025
0.0997102
0.0996467
0.0996407
0.0995681
0.0995611
0.0995162
0.0995691
0.0995785
0.0996493
0.0996504
0.0997114
0.0997046
0.0997625
0.0997512
0.0998053
0.0997946
0.0998349
0.0998313
0.0998108
0.096847
3.75704
87.4453
259.871
528.636
865.786
1101.39
1207.2
1210.52
1107.39
935.841
651.505
384.922
153.304
19.769
69.7979
1457.68
3760.99
5906.49
7808.73
9870.7
12342.7
15410
19019.7
23024.7
27298.9
31791
36327.1
40357
42563.6
41987.2
37767.9
30452.7
22067.9
14839.6
9957.18
6900.35
4939.36
3604.1
2430.94
1447.37
685.579
308.322
116.151
7.01211
799.677
3658.95
3844.25
4069.57
4333.3
4590.38
4950.51
5401.23
5931.33
6432.48
6667.22
6665.22
6449.75
6138.23
5654.01
5286.8
4887.35
4500.01
4072.07
3764.54
3546.24
3214.45
2778.86
2365.8
2014.81
1641.88
1272.26
997.385
694.173
45.0893
1563.73
4569.23
5101.18
5676.27
6433.38
7093.7
7290.17
7166.43
6946.66
7125.9
7742.93
8643.13
10275
12225.3
13453.6
13293.7
11761.6
10054.8
8884.83
8047.83
7339.55
6451.68
5467.65
4361.6
3305.58
2504.59
1941.55
1468.96
1097.43
191.091
991.954
4417.22
6533.29
9554.54
13429
16921.5
20174.1
21580.4
22062.9
21376.3
19939.4
18625.1
18336.4
18457.1
18819.3
18779.8
17571.7
15310.7
12189.5
9249.99
7227.27
6191.8
5707.42
5475.25
5300.28
4153.53
3243.11
2269.65
680.196
9.13074
98.2499
1232.3
3172.38
5706.66
7761.94
7851.6
7529.96
8659.86
11278.5
14265.5
17004.1
18839.8
20526.7
21780.2
22396.1
21730.7
20087.1
17341.9
13576.5
10309.7
8758.43
7206.06
5028.07
2912.94
1424.26
589.78
301.545
95.8053
18.9648
1.91314
351.492
3339.57
8760.62
15736
22486.1
26643.3
28021.1
29010.2
28379.1
26439.1
24065.8
21254.1
17076.2
11148.7
5684.32
1513.37
319.785
490.762
2840.22
9701.05
16785.8
14872.1
1763.15
1032.04
1102.6
552.593
307.918
6.34288
1.53834
0.351732
0.251177
8.21856
24.1325
38.6594
50.4837
42.4479
28.6609
13.4824
8.08748
5.73855
4.83774
4.51755
4.2927
3.75348
3.08746
3.11972
4.00463
6.10041
7.48766
7.70692
7.40056
6.971
6.32122
5.6691
4.83226
3.78751
2.74824
1.89441
1.45115
0.114292
0.107878
0.398846
0.570288
0.584455
0.516805
0.478754
0.450374
0.413391
0.3864
0.355739
0.32217
0.286723
0.242723
0.192973
0.157387
0.132231
0.116428
0.107977
0.102808
0.0999813
0.0996829
0.0996452
0.0996206
0.0995839
0.099564
0.0995286
0.0995158
0.09948
0.099407
0.0967189
0.0967106
0.0993665
0.0993998
0.0994109
0.0993959
0.0993963
0.0993857
0.0993868
0.0993783
0.0993797
0.0993717
0.099372
0.099364
0.0993651
0.0993588
0.0993626
0.0993601
0.0993679
0.0993639
0.0993839
0.0993911
0.0993732
0.0993795
0.0993772
0.0993845
0.099383
0.0993921
0.0993886
0.0993561
0.0966729
0.096713
0.0993488
0.0993973
0.0993853
0.0993858
0.0993787
0.0993806
0.0993748
0.0993768
0.0993707
0.099372
0.0993647
0.0993656
0.0993587
0.0993609
0.0993572
0.0993632
0.0993623
0.0993701
0.09937
0.0993779
0.0993765
0.0993843
0.0993839
0.0993932
0.0993906
0.0994048
0.0994013
0.0993563
0.0967079
0.0966731
0.0993694
0.0993984
0.0993874
0.0993984
0.0993875
0.0993878
0.0993788
0.0993796
0.099372
0.0993726
0.0993647
0.0993657
0.0993586
0.0993743
0.0993738
0.0993579
0.0993647
0.0993635
0.099371
0.0993704
0.0993779
0.099377
0.0993857
0.0993859
0.099397
0.0993925
0.0994088
0.0993726
0.0966737
0.0967117
0.0993458
0.0993948
0.099384
0.0993847
0.099379
0.0993811
0.0993766
0.0993785
0.0993735
0.0993743
0.0993676
0.0993672
0.0993595
0.0993604
0.0993562
0.0993611
0.09936
0.099368
0.0993691
0.0993776
0.0993771
0.099385
0.0993849
0.0993947
0.0993916
0.0994058
0.0994024
0.0993596
0.0967082
7.08716
184.349
524.575
1002.86
1452.28
1709.37
1925.37
2106.33
2204.6
2126.41
1738.19
1128.53
526.962
81.6997
186.292
3931.77
6809.84
8004.79
8289.91
8511.06
9102.68
10207.5
11688.3
13536.6
15850.4
18898
22630.8
27100.3
31928.3
35943.8
36496.8
32547.2
24954.4
17081.8
11211
7670.62
5330.91
3764.58
2484.01
1482.74
760.716
475.575
179.025
8.59246
1040.02
4963.6
4683.56
4634.78
4856.13
5216.09
5681.52
6212.54
6768.69
7186.23
7382.28
7295.89
7070.79
6681.93
6269.55
5891.04
5362
4722.29
4073.65
3723.72
3620.85
3403.09
3008.93
2640.43
2370.88
2132.36
1920.91
1771.65
1527.38
91.3663
2124.74
5299.41
5760.03
6318.54
7029.14
7683.48
7970.72
7797.54
7815.06
8583.32
10541.8
13803
19422.9
25175.8
27016.9
23994.1
18246.8
12930.6
9849.89
8704.13
8301.59
7685.48
6944.71
5900.61
4784.66
4021.3
3507.46
3129.62
2925.03
846.172
1200.28
4949.75
6636.56
9295.9
12881.9
16432.2
19604.4
20643.8
20812.8
20300.5
19897.9
19893.2
21336.6
22853.5
23274.7
22641.3
20822.3
18186.3
14935.3
11824.4
9723.03
8568.54
8687.28
9515.08
10409.5
9758.3
8771.67
7412.61
3087.38
22.6746
647.371
4725.62
8425.19
10388.3
10333.2
9641.78
10331.8
13216.2
17284.4
21260.2
24277.4
26261.2
28294.1
30308.4
31968
32869.7
32947.3
31681.3
28145.1
22717.3
17632.8
13392.4
9469.68
5977.06
3073.18
1208.48
533.473
263.134
40.3642
3.02798
554.481
6076.42
11395.9
16974.7
23572.3
28731.2
33312.7
39211
45895.8
53601.4
61870.4
67127.4
65630.8
51235.8
31160.9
11932
2075.57
349.11
673.6
2779.21
6951.56
8026.52
4679.9
4550.39
5285.79
2792.7
1599.42
137.843
15.1327
1.32725
0.389163
29.9679
54.47
89.0857
125.897
123.041
90.0143
50.1136
26.8633
17.0685
11.9534
9.10903
7.29662
5.82795
4.85131
5.03361
6.80332
9.31129
10.5652
10.5672
10.0684
9.12041
8.32463
7.52617
6.54269
5.12381
3.83822
2.64373
2.25314
0.115646
0.103336
0.455007
0.891534
0.968186
0.826469
0.710178
0.620082
0.563848
0.493652
0.443109
0.398812
0.350588
0.298643
0.245746
0.189776
0.153978
0.130059
0.115194
0.107458
0.102589
0.0999712
0.0997389
0.0996769
0.0996676
0.0996077
0.0996016
0.0995478
0.0995327
0.099473
0.0967169
0.0967068
0.0994339
0.0994693
0.0994434
0.0994676
0.0994391
0.0994657
0.0994364
0.0994645
0.0994348
0.099462
0.0994322
0.0994588
0.0994294
0.0994561
0.0994279
0.0994557
0.0994273
0.0994556
0.0994392
0.0994342
0.0994599
0.0994304
0.0994602
0.0994321
0.0994623
0.0994348
0.0994661
0.0993928
0.096731
0.0967002
0.0994244
0.0994282
0.09946
0.0994296
0.0994604
0.0994308
0.099461
0.0994316
0.0994609
0.0994306
0.0994584
0.0994285
0.0994556
0.0994268
0.0994545
0.0994274
0.0994568
0.0994296
0.0994591
0.0994311
0.0994596
0.0994305
0.0994591
0.0994301
0.0994594
0.0994345
0.0994533
0.0994233
0.0967022
0.0967297
0.0994005
0.0994573
0.0994602
0.099432
0.0994605
0.0994308
0.0994598
0.099431
0.0994601
0.0994301
0.0994579
0.0994277
0.0994552
0.0994272
0.0994275
0.0994542
0.0994269
0.0994571
0.0994294
0.0994593
0.0994303
0.0994592
0.0994299
0.0994591
0.0994302
0.0994602
0.0994482
0.099405
0.0967284
0.0967021
0.0994215
0.0994267
0.09946
0.0994293
0.0994607
0.0994312
0.0994622
0.0994326
0.0994628
0.0994323
0.0994603
0.0994292
0.0994558
0.0994258
0.0994535
0.099426
0.0994548
0.0994286
0.0994597
0.099432
0.0994612
0.099432
0.0994608
0.099432
0.0994611
0.0994369
0.0994547
0.0994265
0.096702
10.9695
346.761
934.607
1577.9
2018.11
2183.7
2359.23
2606.63
2949.47
3239.3
3214.28
2727.72
1986.91
357.467
755.722
6865.27
8641.15
8207.35
7174.15
6586.94
6645.17
7192.34
7960.62
8874.32
9923.41
11511.3
13972.6
17388.2
21738.1
26417.4
29621.9
29291.6
24043.8
17118.4
11293.1
7628.61
5266.35
3633.27
2431.49
1592.65
1014.5
938.374
330.023
18.094
1343.81
6334.73
5638.04
5451.25
5711.83
6179.16
6712.16
7242.84
7697.07
7949.93
8069.61
7846.04
7519.39
7054.76
6610.8
6107.34
5492.66
4735.24
4070.62
3744.41
3658.02
3384.92
2937.53
2595.1
2486.11
2544.8
2745.16
3020.81
3271.98
412.925
2848.27
5954.77
6338.93
6946.9
7671.03
8161.27
8316.99
8263.57
8850.14
10612.7
14374.6
22337.3
36118.6
46888.3
46990.1
37102.4
25451.5
16071
11206.7
10469.9
10907.1
10625.5
9724.91
8272.07
6722.49
5694.57
5071.05
4967.24
5291.62
2495.2
1280.55
6421.39
7918.02
10394.6
14015.4
17308.6
19693.3
19980.6
19940.8
19877.4
20699.9
22466.6
25208.6
27016.8
27524.9
26572.5
24744.7
21971
18643.2
15333.1
13015
12150.4
12840.8
14654.2
16783.7
17268.4
17450.5
16981
11397.1
345.895
3571.74
11881.9
14285.9
14314.4
12280.2
12042.6
14626.7
19365.4
24448.1
28471.7
30928.1
33173.1
35776.8
38297.5
41013.1
43866.1
46750.6
48666.2
48594.2
44904.4
39656.3
29825.8
20086.2
12644
7417.71
3892.31
1715.03
671.348
194.825
8.34855
1226.79
15227.3
17033.8
17297.5
21058.9
26634.8
34183.7
46154
61689.2
79662.7
98640.8
114936
125564
120519
93448.7
52883.4
17648.8
2151.26
378.414
637.653
1795.42
3198.53
3937.47
6478.42
8444.67
4890.98
2729.05
625.997
101.819
8.81981
0.647634
76.6806
152.127
251.056
315.875
318.291
243.185
153.584
85.7296
51.7478
32.8042
22.6296
15.1358
9.79527
7.05624
7.28194
10.379
14.1741
16.7369
16.9647
15.8287
13.8429
12.1682
11.1687
9.31677
7.46522
5.3143
3.9178
3.47477
0.113851
0.0985051
0.547017
1.30666
1.49114
1.21272
0.984662
0.795749
0.672436
0.601823
0.542147
0.489977
0.427041
0.368513
0.303008
0.236622
0.18151
0.14751
0.125632
0.112792
0.106328
0.102013
0.0999213
0.0997255
0.099705
0.0996521
0.0996317
0.0995876
0.0995706
0.099508
0.0967391
0.096731
0.0994752
0.0994983
0.0994764
0.0994912
0.0994715
0.0994894
0.0994697
0.0994882
0.0994682
0.0994853
0.0994653
0.0994818
0.0994621
0.0994799
0.0994609
0.0994787
0.0994599
0.099475
0.0994737
0.0994675
0.099481
0.0994625
0.0994817
0.0994633
0.0994822
0.0994644
0.0994866
0.0994344
0.0967268
0.0967266
0.0994452
0.0994638
0.0994813
0.0994613
0.0994818
0.0994634
0.099483
0.0994647
0.0994831
0.0994635
0.0994807
0.0994609
0.099478
0.0994592
0.0994777
0.0994597
0.099479
0.0994621
0.099481
0.0994631
0.0994808
0.0994617
0.099479
0.0994609
0.0994784
0.0994668
0.0994819
0.09945
0.0967249
0.0967267
0.0994428
0.0994843
0.0994814
0.0994636
0.0994804
0.099462
0.099481
0.0994631
0.0994818
0.0994624
0.0994803
0.09946
0.0994761
0.099466
0.0994655
0.0994751
0.0994591
0.0994793
0.0994616
0.0994809
0.0994623
0.0994802
0.0994607
0.0994783
0.09946
0.0994783
0.0994798
0.0994477
0.0967255
0.0967273
0.0994427
0.0994629
0.0994804
0.0994606
0.0994812
0.0994628
0.099483
0.099465
0.0994844
0.0994654
0.0994823
0.0994618
0.0994782
0.0994583
0.0994767
0.0994583
0.0994782
0.0994624
0.0994825
0.0994655
0.0994835
0.0994649
0.0994819
0.0994639
0.0994821
0.0994696
0.0994845
0.0994568
0.0967246
17.0527
575.664
1520.82
2341.64
2676.53
2656.13
2677.28
2813.18
3155.12
3783.78
4564
4959.58
5271.9
1238.38
2980.87
8740.81
9032.99
7693.86
6406.78
5820.3
5896.33
6251.26
6720.25
7178.23
7635.69
8270.54
9503.79
11737.3
15194.1
19238.5
22931.5
24146.7
21222.5
15787.6
10666.5
7254.09
5044.39
3530.5
2546.7
2009.98
1697.15
1546.61
664.163
42.2599
1880.33
7928.51
6587.96
6246.74
6600.92
7201.8
7808.69
8326.48
8653.66
8712.68
8648.85
8198.02
7699.93
7039.95
6564.99
6080.01
5573.79
4990.56
4492.04
4204.07
3912.08
3351.56
2783.1
2457.92
2512.93
2949.16
3693.69
4599.3
5731.08
1045.19
3922.09
6797.34
7130.27
7657.48
8174.33
8346.61
8457.41
8739.89
10028.3
12739
18649.5
32722.6
55439.1
68518.7
64386.9
48133.3
31323.1
19598.1
13936
13864.4
15456.4
15283.2
13548.1
11244.4
8944.01
7420.69
6814.78
7110.05
7689.61
4838.33
2036.86
9603.35
10269
12536
15988.6
18714.9
19986.7
19608.9
19549.2
20135.9
22387.1
25994.7
29725.5
32342.1
32902.6
32437.5
31037
28822.8
26294.4
23245.9
20782.1
19545.4
20266.6
22363.1
25021.6
26225.3
28039.9
29784.2
26638
1742.01
9690.06
16382.4
17454.2
16159
14385.7
16123.6
21137.9
27195.7
32393.6
35625.5
37500.6
39703.7
42448.2
45500.9
48857.3
52898.3
57663.3
62191.9
65129.7
66702
66854.2
61030.1
45861.8
30986
21324.6
13813.1
7029.68
2764.45
870.632
109.759
2227.3
30693.4
22930.1
17023.9
18318.9
23485.4
32200.4
46827.4
65536.4
85047.4
104338
121757
137578
147357
138207
107188
59190.6
17543.8
1284.21
596.761
1061.93
906.478
987.289
2212.39
3635.76
1825.4
789.978
112.346
38.4756
3.62877
6.17187
105.4
353.826
744.048
983.161
912.729
616.012
384.735
223.241
143.216
85.0417
58.1862
35.1845
20.1257
12.5703
10.6603
12.6042
17.3821
21.7346
23.7992
23.2906
20.8848
19.2812
16.9119
14.5454
10.7512
7.90596
5.99017
5.75012
0.125712
0.103194
0.770733
1.84438
2.27794
1.8733
1.43175
1.13295
0.924251
0.780272
0.690802
0.598964
0.528988
0.447886
0.377011
0.293909
0.219598
0.168495
0.138522
0.120173
0.109827
0.104736
0.101312
0.0998495
0.099762
0.0997069
0.0996765
0.0996353
0.0996102
0.0995443
0.0966829
0.0966744
0.0995093
0.099532
0.099518
0.0995233
0.0995118
0.0995188
0.099508
0.0995159
0.0995058
0.0995126
0.0995025
0.0995087
0.0995006
0.0995072
0.0994994
0.0995057
0.0994971
0.0995025
0.0995088
0.0995034
0.0995075
0.0994972
0.0995066
0.0994971
0.0995044
0.0994962
0.0995063
0.0994619
0.0966713
0.0966672
0.0994685
0.0994957
0.0995037
0.0994956
0.0995066
0.099499
0.0995088
0.0995011
0.0995096
0.0995004
0.0995075
0.0994988
0.0995052
0.0994985
0.0995048
0.0994982
0.0995059
0.0994992
0.0995074
0.099499
0.0995068
0.099497
0.0995041
0.0994952
0.0995032
0.0994999
0.0995069
0.0994742
0.0966674
0.096671
0.0994679
0.0995112
0.0995073
0.0994971
0.099504
0.0994963
0.0995058
0.0994984
0.0995076
0.0994984
0.0995072
0.0994974
0.0995047
0.0995012
0.0995006
0.0995036
0.0994968
0.0995063
0.099498
0.099507
0.0994981
0.0995054
0.0994955
0.0995023
0.0994929
0.0995015
0.0995084
0.0994719
0.0966705
0.0966681
0.0994645
0.0994937
0.0995022
0.0994938
0.0995053
0.0994969
0.0995081
0.0994995
0.0995099
0.0995005
0.0995087
0.0994981
0.0995051
0.0994966
0.0995044
0.099498
0.0995065
0.0995005
0.0995099
0.0995023
0.0995105
0.0995014
0.0995084
0.0994989
0.099508
0.0995033
0.0995103
0.0994814
0.0966683
25.2407
894.521
2171.99
3066.05
3300.39
3032.35
2791.46
2872.33
3245.49
4026.04
5472.39
6748.43
7782.13
2170.6
8317.56
9901.4
8887.74
7299.95
6247.81
5902.51
6052.54
6256.63
6513.42
6681.56
6864.48
7127.97
7876.63
9272.02
11826.8
15063.5
18309.7
19822.3
18109.8
14052.6
9804.82
6736.15
4715.35
3421.43
2808.74
2740.59
2933.22
2546.08
1669.67
402.579
3015.39
9969.42
7539.46
7066.78
7502.15
8193.41
8856.28
9326.38
9596.93
9556.39
9390.86
8821.87
8336
7676.22
7429.46
7106.82
6849.58
6448.64
5942.46
5289.02
4447.97
3506.25
2819.51
2496.59
2673.1
3407.83
4616.63
6068.01
8277.97
2472.47
5620.81
7984.83
8083.43
8438.72
8763.77
8869.09
9000.67
9598.78
11184.5
14058.9
21263.6
39631.5
67299.6
80418.9
73317.5
54958.9
37647
26375.9
20985.6
20822
21871.9
20889.2
18034
14873
12200.5
10832.5
11038.6
11728.3
11757.6
7886.68
4127.99
14857.7
13271.2
14891.2
17625.8
19367.1
19668.6
19008.7
19518.3
21093.2
24919.6
30736.7
35436
38757.2
40060.2
40975.6
41287.3
40911.7
40276.4
36758
32514.3
28284
27810.2
29880.9
32528.3
35292.4
37755.8
41335
40434
8878.92
16585.7
19970
19695
18146
18267.4
22248.8
28720.3
34792
39394
42243.4
44266.3
46425.9
49046.5
52128
55719.2
59579.5
63034.7
64645.1
63285.9
61329.5
60123.6
59382.3
55703.2
47928.6
39498.3
30544.8
21674.9
12042.5
4803.11
1894.54
4094.43
50758.4
28709.9
18040.5
17290.8
20996.7
29115.1
45064.3
64521
84106
102090
117931
128233
133477
130484
118587
92650.4
49315.8
9851.38
1013.95
1466.36
954.255
465.9
740.314
1335.17
430.505
165.697
41.6503
15.5654
1.38096
66.1653
162.918
555.327
1354.46
2264.38
2731.15
2419.68
1730.54
1015.49
560.26
285.644
159.286
98.8199
55.7444
30.0733
19.6525
15.7302
17.6795
21.9738
26.5617
28.2733
28.3944
26.778
24.998
20.7336
16.5389
11.4727
9.13309
8.21855
0.16073
0.263572
1.43912
2.67227
3.19074
2.67839
2.04443
1.61983
1.30693
1.09937
0.93767
0.798783
0.678571
0.572628
0.465897
0.366425
0.263439
0.196505
0.153249
0.129249
0.114881
0.106737
0.102891
0.100538
0.0998235
0.0997668
0.0997319
0.0996895
0.0996624
0.0995985
0.0966855
0.096676
0.0995597
0.0995804
0.0995643
0.0995649
0.0995544
0.0995577
0.0995486
0.0995526
0.0995445
0.0995478
0.0995405
0.0995443
0.0995393
0.0995416
0.0995371
0.0995412
0.0995365
0.0995374
0.0995463
0.0995416
0.0995428
0.0995363
0.0995424
0.099537
0.0995415
0.0995372
0.0995443
0.0995047
0.0966583
0.0966609
0.0995074
0.0995377
0.0995415
0.0995369
0.0995435
0.0995386
0.0995445
0.0995398
0.0995445
0.0995386
0.0995421
0.0995378
0.099541
0.0995364
0.0995398
0.0995373
0.0995416
0.0995371
0.0995422
0.0995368
0.0995419
0.0995353
0.0995398
0.0995347
0.0995404
0.0995403
0.099547
0.0995128
0.0966605
0.0966583
0.0995096
0.0995489
0.0995452
0.0995378
0.0995404
0.0995353
0.0995411
0.0995366
0.0995421
0.0995365
0.099542
0.0995365
0.0995405
0.0995393
0.0995388
0.0995396
0.0995362
0.0995413
0.0995364
0.099542
0.0995366
0.0995408
0.0995345
0.0995385
0.0995336
0.0995386
0.0995471
0.0995138
0.0966582
0.0966609
0.0995031
0.0995357
0.0995405
0.0995354
0.0995422
0.0995362
0.0995436
0.0995383
0.0995449
0.099539
0.0995438
0.0995365
0.0995402
0.0995345
0.0995391
0.0995353
0.0995405
0.0995379
0.0995438
0.0995404
0.0995453
0.0995404
0.0995442
0.0995388
0.0995439
0.0995441
0.0995512
0.0995233
0.0966619
35.9657
1288.57
2801.8
3680.98
3643.69
3162.41
2774.32
2989.8
3435.89
4137.25
6000.95
8808.23
11402.3
12704
8599.31
11105.4
12371.3
10889.7
8848.33
7414.72
6734.75
6600.65
6746.26
6863.25
6976.67
6966.65
6948.53
7145.75
7800.26
8873.66
10658
13027
15586.4
16681.7
15457.5
12444
8907.03
6284.7
4633.83
3749.79
3669.77
4227.95
5388.98
6439.04
6188.54
4315.01
3290.35
6391.39
14211.6
11496.4
8498.72
8275.69
9020.71
9965.9
10776.1
11234.2
11440.3
11409.2
11162.1
10629.2
10144.7
9734.96
9801.93
9695.53
9524.65
8943.25
7895.75
6581.91
5211.13
4081.23
3297.3
2983.57
3203.47
3905.64
5201.34
7352.08
10696
10977.9
9017.6
11980.5
12379.1
10097.7
9313
9220.82
9266.12
9325.28
9580.94
10309.4
11675.7
14149.9
21002.3
39610
66419.9
78772.1
72677.9
58486.4
45950.3
38076.9
33750.7
31410.7
29989.9
27652
24245.6
21430.3
20347.3
22041.9
26600.6
31446.5
31624.1
22833.3
13846
12798.3
21537.8
21338.3
16772.4
17293.4
18746.7
19460.4
18991.9
19014.5
20402.6
23471
28938.8
35455.8
41307.3
46097.4
49235.5
52659.4
55978.6
59227.6
61035.8
57711.3
50005.8
40022
34018.8
34270.4
37607.5
41739.1
45711.3
50138.7
49655
35240.7
22969.5
28163.4
24873.3
24002.4
22524.5
22225.9
24778.6
30382.6
36943.6
41936.1
45821.8
47950
50066.3
52188.4
54600.1
57231.2
59687.1
60759.9
59045.1
54403.7
47111.7
40449.7
36893.9
37372.7
41591.2
44936.3
45199.5
42959.7
38680.8
32577.9
24977.1
22143.7
17190.7
11919
43489.2
69738.5
35544.3
20918.3
17321.2
19111.6
27102.5
42124.4
60975.9
82513.5
101668
115167
117072
112097
105321
100618
91397.1
68028.3
28799.1
3087.75
1462.12
1045.09
762.426
798.603
843.42
378.951
127.449
65.9598
19.9212
64.1283
29.6965
78.4053
476.732
456.534
751.046
1732.8
3387.41
5288.35
6210.52
6050.11
4452.16
2820.91
1544.8
770.734
394.193
197.643
103.958
50.1273
28.4692
21.253
21.408
25.5852
29.1121
31.6517
33.0528
30.5272
26.9907
21.7423
17.2873
13.5631
14.3037
34.3422
3.49269
0.874899
1.86684
3.01962
3.90299
4.10904
3.60065
2.89198
2.31945
1.82156
1.51416
1.25865
1.08434
0.921739
0.768561
0.620968
0.473294
0.345096
0.236322
0.180384
0.140734
0.121021
0.109661
0.103909
0.101424
0.100086
0.0998708
0.0998508
0.0998404
0.0998434
0.0998491
0.0996878
0.0966
0.0965931
0.0996998
0.0998352
0.0997835
0.0997292
0.0996909
0.099657
0.0996385
0.0996185
0.0996096
0.0995965
0.0995916
0.099583
0.099581
0.099577
0.0995765
0.0995743
0.0995757
0.0995743
0.0995761
0.0995869
0.0995867
0.0995905
0.0995936
0.0996073
0.0996184
0.0996397
0.099662
0.0996899
0.0997013
0.0995419
0.096578
0.0965754
0.099544
0.099704
0.0996859
0.0996633
0.0996376
0.099623
0.0996065
0.0996002
0.0995913
0.0995884
0.0995811
0.09958
0.099576
0.0995757
0.0995744
0.0995747
0.0995747
0.0995769
0.0995774
0.0995823
0.0995831
0.099591
0.0995948
0.0996074
0.0996198
0.0996425
0.0996672
0.0996953
0.0997091
0.0995436
0.0965749
0.096579
0.0995416
0.099707
0.0996964
0.0996702
0.0996405
0.0996225
0.0996044
0.0995977
0.0995881
0.0995858
0.0995787
0.0995792
0.0995745
0.0995753
0.0995757
0.0995745
0.0995747
0.0995746
0.0995786
0.0995791
0.0995858
0.099588
0.0995977
0.0996042
0.0996217
0.0996378
0.0996659
0.0996979
0.099713
0.099544
0.096578
0.0965749
0.0995381
0.0996996
0.0996842
0.0996629
0.0996361
0.0996214
0.099604
0.0995986
0.0995894
0.0995885
0.0995819
0.0995818
0.0995768
0.0995776
0.0995742
0.0995758
0.0995769
0.0995826
0.0995876
0.0995975
0.0996057