/*--------------------------------*- C++ -*----------------------------------*\
| =========                 |                                                 |
| \\      /  F ield         | OpenFOAM: The Open Source CFD Toolbox           |
|  \\    /   O peration     | Version:  2.1.1                                 |
|   \\  /    A nd           | Web:      www.OpenFOAM.org                      |
|    \\/     M anipulation  |                                                 |
\*---------------------------------------------------------------------------*/
FoamFile
{
    version     2.0;
    format      ascii;
    class       volScalarField;
    location    "0.003100000";
    object      N2;
}
// * * * * * * * * * * * * * * * * * * * * * * * * * * * * * * * * * * * * * //

dimensions      [0 0 0 0 0 0 0];

internalField   nonuniform List<scalar> 
12384
(
0.748391
0.749858
0.750442
0.752346
0.752748
0.753126
0.75311
0.752471
0.751354
0.750572
0.749112
0.747343
0.745906
0.745917
0.751384
0.751636
0.752097
0.75228
0.752334
0.75239
0.752405
0.752477
0.752483
0.752271
0.751999
0.751776
0.75157
0.751496
0.75147
0.751467
0.751592
0.751807
0.752006
0.752469
0.752779
0.752963
0.753223
0.753156
0.752876
0.750616
0.748034
0.745517
0.745328
0.745184
0.748232
0.747105
0.746844
0.746929
0.747012
0.746896
0.746637
0.746262
0.745858
0.745352
0.745048
0.744702
0.744496
0.744299
0.74422
0.744211
0.744311
0.744466
0.744654
0.744715
0.745734
0.747139
0.749192
0.750681
0.751731
0.751866
0.751193
0.749618
0.747604
0.746498
0.745665
0.743839
0.74393
0.744506
0.744717
0.744517
0.74426
0.743843
0.743417
0.742926
0.742585
0.742351
0.742244
0.742241
0.742282
0.742316
0.742256
0.742088
0.742136
0.741984
0.74202
0.742381
0.743064
0.743929
0.746532
0.749598
0.751509
0.75049
0.748033
0.746744
0.748277
0.745962
0.744978
0.744617
0.744287
0.744022
0.743741
0.743768
0.743712
0.743769
0.743607
0.743638
0.743809
0.744182
0.744435
0.744837
0.745114
0.74541
0.745819
0.74657
0.747827
0.749966
0.752057
0.752762
0.752979
0.751059
0.749607
0.748241
0.747083
0.746924
0.750221
0.750226
0.749689
0.749606
0.74717
0.746945
0.745873
0.745308
0.745161
0.744236
0.743767
0.743424
0.743596
0.74395
0.744672
0.746673
0.749423
0.751619
0.753136
0.752135
0.752474
0.752866
0.752599
0.752113
0.751669
0.751422
0.749947
0.748155
0.74895
0.748913
0.750582
0.749785
0.746139
0.742771
0.740644
0.738878
0.736569
0.734595
0.733491
0.733321
0.733525
0.735074
0.737731
0.739505
0.740906
0.742566
0.744199
0.745829
0.750643
0.753472
0.752726
0.753538
0.753401
0.753402
0.753371
0.753366
0.7532
0.752459
0.751375
0.750977
0.750996
0.751004
0.749839
0.748163
0.747777
0.747772
0.747855
0.748294
0.748644
0.748704
0.749014
0.749555
0.749352
0.749562
0.74962
0.750039
0.750512
0.751565
0.75257
0.753381
0.753747
0.754019
0.753764
0.753603
0.753457
0.752821
0.752821
0.751658
0.751675
0.75132
0.750356
0.750783
0.75138
0.751315
0.751479
0.751076
0.750755
0.75038
0.750001
0.749946
0.749245
0.749234
0.748175
0.746875
0.745654
0.744999
0.744821
0.744822
0.744815
0.744818
0.744816
0.744815
0.744814
0.744813
0.744812
0.744812
0.744811
0.744811
0.744807
0.744755
0.744755
0.744807
0.744811
0.744813
0.744814
0.744815
0.744816
0.744817
0.744818
0.74482
0.744821
0.744822
0.744824
0.744826
0.744828
0.744828
0.744827
0.744825
0.744822
0.74482
0.744819
0.744817
0.744816
0.744815
0.744814
0.744813
0.744812
0.744811
0.744807
0.744754
0.744755
0.744807
0.744811
0.744812
0.744814
0.744815
0.744816
0.744817
0.744818
0.744819
0.744821
0.744822
0.744824
0.744826
0.744828
0.744828
0.744827
0.744825
0.744822
0.744821
0.74482
0.744818
0.744817
0.744816
0.744815
0.744813
0.744812
0.744811
0.744807
0.744755
0.744754
0.744808
0.744811
0.744812
0.744813
0.744814
0.744816
0.744817
0.744818
0.74482
0.744821
0.744822
0.744825
0.744827
0.744828
0.744828
0.744827
0.744825
0.744822
0.744821
0.74482
0.744818
0.744817
0.744816
0.744815
0.744814
0.744812
0.744811
0.744808
0.744754
0.744755
0.744808
0.744811
0.744813
0.744814
0.744815
0.744816
0.744817
0.744818
0.744819
0.74482
0.744822
0.744824
0.744826
0.744828
0.744828
0.744827
0.744825
0.744823
0.744821
0.74482
0.744818
0.744817
0.744816
0.744814
0.744813
0.744812
0.744811
0.744808
0.744755
0.750915
0.750947
0.751668
0.75228
0.752527
0.753274
0.75348
0.75381
0.753698
0.753127
0.751504
0.748779
0.74636
0.745867
0.752469
0.752615
0.752366
0.751304
0.75011
0.748948
0.747614
0.746551
0.745311
0.744437
0.743825
0.743576
0.743798
0.744409
0.745463
0.746573
0.747364
0.748058
0.748982
0.750562
0.751896
0.753089
0.753324
0.753395
0.75278
0.750394
0.74649
0.745447
0.745267
0.745411
0.748186
0.747204
0.747239
0.747528
0.747618
0.747342
0.746661
0.745834
0.744853
0.743896
0.74324
0.742786
0.742696
0.742828
0.743221
0.743753
0.744577
0.74512
0.74545
0.745273
0.745152
0.746389
0.748836
0.750893
0.751771
0.7516
0.750468
0.748819
0.747074
0.746475
0.745962
0.743845
0.743945
0.74447
0.744662
0.744625
0.744241
0.743507
0.742762
0.742633
0.743015
0.743874
0.744701
0.745464
0.745924
0.746095
0.746161
0.746052
0.745519
0.744993
0.744351
0.743948
0.743772
0.744712
0.747083
0.749986
0.751481
0.750421
0.747809
0.746566
0.748477
0.747003
0.746503
0.746177
0.745286
0.744337
0.743595
0.743144
0.7425
0.741985
0.7417
0.742116
0.743423
0.744111
0.745562
0.745997
0.746441
0.747268
0.748252
0.748922
0.749859
0.751345
0.75258
0.752863
0.75293
0.75304
0.751322
0.749127
0.747178
0.746817
0.750292
0.750442
0.749519
0.748148
0.744724
0.743299
0.743357
0.744363
0.744555
0.744014
0.74343
0.743439
0.744342
0.746264
0.74962
0.751721
0.752207
0.752217
0.752367
0.752664
0.75306
0.753294
0.752617
0.752203
0.752172
0.751814
0.750693
0.749092
0.747111
0.748956
0.749938
0.747712
0.742403
0.734775
0.72809
0.723199
0.719273
0.71777
0.716364
0.716741
0.717365
0.718739
0.721748
0.727667
0.733926
0.74007
0.744695
0.749541
0.751021
0.749013
0.750022
0.75284
0.753697
0.753073
0.753262
0.753504
0.754714
0.753864
0.754083
0.753572
0.751278
0.75192
0.750738
0.745876
0.746354
0.746436
0.74616
0.747396
0.747952
0.748239
0.749625
0.750138
0.750041
0.750152
0.750062
0.750329
0.751413
0.752098
0.753031
0.753656
0.754477
0.754396
0.754291
0.754146
0.753233
0.753255
0.752291
0.751976
0.751183
0.751054
0.753036
0.754659
0.754216
0.754421
0.755419
0.756331
0.756921
0.757176
0.757862
0.757844
0.757913
0.757598
0.757007
0.756443
0.753994
0.752619
0.748788
0.746742
0.746907
0.746809
0.746834
0.746783
0.746801
0.746759
0.746771
0.746738
0.746747
0.746726
0.746673
0.745609
0.74562
0.746682
0.74675
0.746774
0.746775
0.746802
0.746804
0.746832
0.746832
0.746859
0.746861
0.746889
0.746901
0.74694
0.746948
0.746964
0.746941
0.746921
0.746877
0.746857
0.746842
0.746815
0.746811
0.746783
0.746783
0.746757
0.74676
0.746737
0.746684
0.745572
0.745617
0.746673
0.746752
0.746753
0.746779
0.74678
0.746809
0.74681
0.746838
0.74684
0.746868
0.746875
0.746912
0.746933
0.746962
0.746955
0.746949
0.74691
0.746894
0.746864
0.746859
0.746829
0.746826
0.746797
0.746793
0.746767
0.746763
0.746742
0.746676
0.745612
0.745569
0.746683
0.74675
0.746753
0.746779
0.74678
0.74681
0.746813
0.746842
0.746846
0.746876
0.746882
0.746919
0.746937
0.746961
0.746961
0.746938
0.746918
0.74688
0.746874
0.746845
0.746842
0.746813
0.746811
0.746783
0.746783
0.746756
0.746752
0.746684
0.745571
0.745611
0.746674
0.746755
0.746757
0.746785
0.746785
0.746816
0.746815
0.746844
0.746843
0.746872
0.746875
0.746911
0.746929
0.74696
0.746955
0.746948
0.746911
0.746894
0.746864
0.74686
0.74683
0.746828
0.746798
0.746795
0.746768
0.746763
0.746742
0.746675
0.74561
0.750884
0.749907
0.745597
0.743718
0.739742
0.741849
0.743539
0.74884
0.752332
0.753862
0.753684
0.751455
0.748397
0.747425
0.753561
0.752753
0.749987
0.746795
0.744579
0.742631
0.741418
0.740402
0.73972
0.739246
0.739119
0.739136
0.739166
0.739227
0.739227
0.739226
0.739366
0.740142
0.742476
0.74659
0.750158
0.752753
0.753462
0.753588
0.75269
0.750461
0.747559
0.746421
0.74623
0.747012
0.748139
0.747447
0.747833
0.748328
0.748443
0.748078
0.747107
0.745806
0.744363
0.742836
0.741815
0.741131
0.740935
0.741307
0.742009
0.742915
0.744207
0.745564
0.746833
0.746856
0.745847
0.745909
0.74843
0.750638
0.751678
0.751248
0.74977
0.74811
0.74703
0.746453
0.746293
0.744221
0.744112
0.7445
0.744826
0.744509
0.743292
0.742117
0.74226
0.743677
0.745746
0.746981
0.747447
0.747613
0.74779
0.748049
0.748293
0.7485
0.748442
0.748135
0.747393
0.74667
0.745854
0.746434
0.748601
0.751026
0.751529
0.749916
0.747605
0.746533
0.7491
0.748344
0.748196
0.747683
0.746606
0.745214
0.74381
0.742633
0.741465
0.740735
0.740854
0.74213
0.744968
0.746719
0.748459
0.749668
0.750609
0.750524
0.750608
0.751259
0.752251
0.752551
0.752911
0.752921
0.752688
0.751488
0.749994
0.747901
0.746924
0.747614
0.750329
0.750368
0.748564
0.745428
0.74145
0.740623
0.742017
0.743446
0.743995
0.743484
0.743325
0.74427
0.745845
0.74837
0.750433
0.750736
0.75078
0.751483
0.75213
0.752787
0.753312
0.753034
0.752687
0.752592
0.7524
0.75211
0.751488
0.750152
0.749941
0.751277
0.748795
0.744133
0.735933
0.72744
0.721205
0.717075
0.714386
0.712941
0.713679
0.715099
0.717048
0.718247
0.720088
0.723629
0.730793
0.738531
0.74517
0.749727
0.748427
0.747322
0.74848
0.750006
0.750989
0.749307
0.748254
0.749175
0.752116
0.754257
0.755041
0.755637
0.752302
0.75249
0.748821
0.744901
0.743436
0.743007
0.743793
0.743307
0.743668
0.742513
0.743773
0.745609
0.747501
0.748325
0.749594
0.75045
0.751558
0.752174
0.752612
0.753152
0.753399
0.754354
0.754387
0.754547
0.754277
0.753751
0.75349
0.752535
0.75164
0.751719
0.757281
0.754932
0.750236
0.750117
0.750807
0.752891
0.753664
0.754062
0.755573
0.756147
0.757132
0.757895
0.758558
0.759109
0.759821
0.759661
0.760117
0.759922
0.759707
0.759766
0.759767
0.759778
0.759786
0.759794
0.759804
0.75981
0.759816
0.759822
0.759868
0.760823
0.760823
0.759869
0.75981
0.759796
0.759785
0.759775
0.759763
0.759753
0.759742
0.759731
0.759719
0.759706
0.759685
0.759661
0.759644
0.759639
0.759649
0.759676
0.759706
0.759727
0.759736
0.759753
0.759766
0.759777
0.759787
0.759797
0.759806
0.759818
0.759875
0.760822
0.760822
0.75987
0.759813
0.759799
0.75979
0.759779
0.759769
0.759757
0.759747
0.759735
0.759723
0.759706
0.759684
0.759657
0.759642
0.759639
0.759654
0.759676
0.759701
0.759716
0.75973
0.759743
0.759755
0.759766
0.75978
0.75979
0.759803
0.759812
0.759867
0.760823
0.760822
0.759869
0.759812
0.759804
0.759793
0.75978
0.759767
0.759755
0.759743
0.759729
0.759717
0.759701
0.75968
0.759655
0.75964
0.75964
0.759654
0.75968
0.759702
0.759718
0.759731
0.759744
0.759755
0.759767
0.759778
0.75979
0.7598
0.759813
0.759867
0.760821
0.760822
0.759868
0.75981
0.759796
0.759786
0.759776
0.759766
0.759754
0.759745
0.759734
0.759722
0.759707
0.759687
0.759661
0.759644
0.759638
0.759652
0.759674
0.7597
0.759714
0.759728
0.759741
0.759754
0.759766
0.759779
0.75979
0.759802
0.759812
0.759866
0.760823
0.743475
0.740146
0.732481
0.729913
0.727026
0.728525
0.730969
0.735694
0.743049
0.749686
0.753287
0.753427
0.750094
0.748099
0.754332
0.750896
0.746795
0.745341
0.74491
0.745177
0.745199
0.745391
0.745915
0.746598
0.747238
0.747368
0.746779
0.745366
0.743268
0.74094
0.7378
0.736369
0.737165
0.741691
0.747448
0.751765
0.753343
0.753716
0.753254
0.752137
0.749693
0.749064
0.748127
0.748869
0.748104
0.747716
0.748331
0.748975
0.749207
0.748859
0.74797
0.746518
0.744721
0.742867
0.741393
0.740265
0.739775
0.739495
0.739767
0.740324
0.74171
0.743993
0.746682
0.747922
0.746857
0.745961
0.747785
0.750341
0.751602
0.751164
0.74979
0.748285
0.74723
0.746692
0.74672
0.744747
0.744414
0.744673
0.744567
0.743279
0.74116
0.741058
0.743474
0.746281
0.747452
0.747487
0.74711
0.746947
0.747266
0.747605
0.747907
0.748268
0.748693
0.749144
0.74943
0.748895
0.748202
0.748672
0.750585
0.751745
0.751005
0.748794
0.74706
0.746645
0.749528
0.74952
0.749327
0.748745
0.747643
0.746209
0.744254
0.742375
0.740669
0.739574
0.74044
0.742833
0.747968
0.748872
0.75136
0.751904
0.752637
0.753397
0.753819
0.753926
0.753544
0.753454
0.753343
0.753106
0.75251
0.751137
0.749097
0.747453
0.746194
0.74569
0.750453
0.750358
0.747377
0.74222
0.73846
0.739099
0.741582
0.743195
0.743407
0.743164
0.743706
0.745301
0.747354
0.748833
0.749207
0.749403
0.750054
0.751076
0.75262
0.753277
0.753786
0.753504
0.753493
0.753152
0.753226
0.752965
0.752425
0.752871
0.752703
0.753261
0.747597
0.741105
0.73441
0.729831
0.724734
0.718088
0.713857
0.713561
0.715716
0.718632
0.72142
0.723493
0.725372
0.727548
0.732946
0.738784
0.746466
0.749554
0.747633
0.746819
0.745653
0.743511
0.742709
0.740577
0.741162
0.743732
0.746896
0.752809
0.753477
0.755573
0.753105
0.754457
0.74842
0.741921
0.737868
0.73719
0.736189
0.734361
0.732976
0.732567
0.733826
0.737485
0.741502
0.74401
0.745616
0.748656
0.750756
0.75157
0.752017
0.752172
0.752471
0.752733
0.75358
0.753776
0.754817
0.754409
0.754551
0.754149
0.753092
0.753224
0.756131
0.747782
0.736931
0.736489
0.739365
0.740975
0.743356
0.745333
0.747251
0.749105
0.75114
0.752828
0.754638
0.755053
0.756851
0.757769
0.758703
0.759564
0.760215
0.760317
0.760346
0.760339
0.760342
0.760341
0.760342
0.760341
0.760343
0.760342
0.760356
0.760523
0.760522
0.760355
0.76034
0.76034
0.760337
0.760338
0.760335
0.760336
0.760333
0.760335
0.760332
0.760333
0.760329
0.760329
0.760326
0.760328
0.760327
0.760331
0.760331
0.760334
0.760335
0.760334
0.760337
0.760336
0.760339
0.760338
0.760341
0.76034
0.760355
0.760526
0.760523
0.760355
0.760342
0.760338
0.760339
0.760336
0.760338
0.760335
0.760336
0.760333
0.760334
0.760331
0.760331
0.760327
0.760328
0.760326
0.760329
0.760329
0.760332
0.760332
0.760335
0.760334
0.760337
0.760335
0.760338
0.760337
0.76034
0.76034
0.760355
0.760523
0.760526
0.760355
0.760342
0.760339
0.760339
0.760336
0.760337
0.760334
0.760336
0.760333
0.760334
0.760331
0.760331
0.760327
0.760328
0.760328
0.760327
0.760331
0.760331
0.760334
0.760333
0.760336
0.760335
0.760337
0.760336
0.760339
0.760338
0.760342
0.760355
0.760526
0.760523
0.760354
0.760342
0.760338
0.760339
0.760336
0.760337
0.760334
0.760336
0.760333
0.760334
0.760331
0.760331
0.760327
0.760328
0.760326
0.760329
0.760329
0.760332
0.760331
0.760334
0.760333
0.760336
0.760335
0.760338
0.760337
0.76034
0.76034
0.760355
0.760523
0.730336
0.72648
0.722473
0.723071
0.725489
0.728941
0.73126
0.733132
0.736337
0.741853
0.748983
0.752662
0.751557
0.749507
0.753497
0.748176
0.747384
0.7486
0.749866
0.750755
0.751306
0.751787
0.752195
0.75259
0.752928
0.753095
0.752833
0.751841
0.74978
0.746555
0.741402
0.736689
0.734889
0.73793
0.744614
0.750232
0.75295
0.753831
0.754
0.754604
0.754214
0.752225
0.749981
0.749656
0.74812
0.748018
0.748714
0.749335
0.749462
0.749181
0.748426
0.74709
0.745242
0.743248
0.741228
0.739675
0.738435
0.737601
0.736993
0.737501
0.739351
0.742659
0.746185
0.748327
0.747529
0.746154
0.74737
0.750137
0.751929
0.75166
0.750225
0.748694
0.747612
0.746835
0.747178
0.745337
0.74477
0.744871
0.744271
0.74194
0.740124
0.74208
0.745941
0.7475
0.747233
0.74631
0.746091
0.746657
0.747519
0.747943
0.748125
0.748244
0.748438
0.749043
0.749872
0.750316
0.750066
0.750705
0.751814
0.751738
0.750056
0.748046
0.747117
0.747198
0.749968
0.75013
0.74984
0.749077
0.748079
0.746677
0.74448
0.742269
0.739816
0.738477
0.740094
0.744779
0.749552
0.751723
0.752767
0.753224
0.753498
0.753693
0.753949
0.754242
0.754162
0.754246
0.753933
0.753519
0.753065
0.751781
0.750789
0.748111
0.747616
0.748166
0.750514
0.74986
0.744716
0.73843
0.736401
0.7383
0.741673
0.742678
0.743016
0.743232
0.744642
0.74645
0.747737
0.748032
0.747773
0.747853
0.748676
0.750256
0.751548
0.752625
0.75357
0.754406
0.754854
0.755237
0.755304
0.755427
0.755111
0.754368
0.751807
0.754
0.746589
0.740412
0.737895
0.737128
0.730982
0.7204
0.714276
0.714586
0.718116
0.722122
0.724699
0.726311
0.727859
0.729869
0.733009
0.737335
0.742755
0.748895
0.749527
0.747266
0.745533
0.742099
0.737611
0.735363
0.734228
0.738243
0.744069
0.747278
0.754683
0.754876
0.753433
0.755248
0.748296
0.737627
0.730601
0.728226
0.725699
0.722377
0.721115
0.721712
0.722862
0.727211
0.733163
0.737605
0.739758
0.7435
0.748504
0.750385
0.750462
0.750773
0.750759
0.751374
0.751707
0.753497
0.753545
0.755048
0.754978
0.755393
0.755397
0.755608
0.75187
0.733542
0.727118
0.726453
0.729385
0.732748
0.736004
0.739806
0.741982
0.745117
0.746372
0.748852
0.749469
0.751884
0.75315
0.754179
0.755618
0.756553
0.75761
0.758483
0.758631
0.758675
0.758655
0.758669
0.758657
0.758668
0.758659
0.758668
0.758668
0.758685
0.758684
0.758668
0.758665
0.758661
0.758666
0.758661
0.758666
0.758661
0.758666
0.758661
0.758666
0.758661
0.758666
0.75866
0.758665
0.75866
0.758665
0.75866
0.758665
0.758663
0.758662
0.758666
0.758661
0.758667
0.758661
0.758667
0.758661
0.758668
0.758664
0.758689
0.758684
0.758668
0.758661
0.758667
0.758661
0.758667
0.758661
0.758667
0.758661
0.758667
0.758661
0.758666
0.758661
0.758666
0.75866
0.758665
0.75866
0.758666
0.758661
0.758666
0.758661
0.758667
0.758661
0.758667
0.758661
0.758667
0.758662
0.758667
0.758669
0.758685
0.758688
0.758666
0.758666
0.758667
0.758661
0.758666
0.758661
0.758666
0.758661
0.758666
0.758661
0.758666
0.75866
0.758665
0.758661
0.758661
0.758665
0.75866
0.758666
0.758661
0.758666
0.758661
0.758666
0.758661
0.758666
0.758661
0.758667
0.758664
0.758667
0.758687
0.758685
0.758668
0.758661
0.758667
0.758661
0.758667
0.758661
0.758667
0.758661
0.758667
0.758661
0.758666
0.758661
0.758666
0.75866
0.758665
0.75866
0.758666
0.758661
0.758666
0.758661
0.758667
0.758661
0.758666
0.758661
0.758667
0.758661
0.758667
0.758669
0.758685
0.719642
0.718188
0.718763
0.722198
0.727407
0.733061
0.737493
0.739369
0.739662
0.740572
0.744585
0.750498
0.751849
0.750322
0.749588
0.747549
0.749053
0.750657
0.751583
0.752154
0.752562
0.752801
0.752992
0.753152
0.753298
0.753421
0.753586
0.753551
0.752883
0.750757
0.745786
0.738976
0.734389
0.735861
0.742287
0.749101
0.752721
0.754299
0.755502
0.756716
0.756145
0.754021
0.750329
0.750221
0.748156
0.7483
0.748989
0.749285
0.749184
0.748751
0.747958
0.746701
0.744951
0.742847
0.740858
0.738679
0.736875
0.735256
0.735076
0.736894
0.740349
0.743697
0.746893
0.748478
0.747501
0.746009
0.747187
0.750481
0.752643
0.752681
0.751554
0.749974
0.748299
0.747139
0.747424
0.7458
0.745213
0.744648
0.742529
0.739555
0.740502
0.744708
0.747202
0.747275
0.746313
0.745714
0.746003
0.74723
0.748229
0.748446
0.748503
0.748549
0.748551
0.74888
0.750065
0.750897
0.7514
0.752035
0.752261
0.751441
0.749799
0.748565
0.748159
0.748135
0.750301
0.750302
0.74968
0.74892
0.747979
0.746651
0.744379
0.741695
0.738606
0.73731
0.740263
0.74581
0.750392
0.751362
0.75196
0.751802
0.751621
0.751256
0.751214
0.751358
0.751651
0.752258
0.75352
0.753915
0.753554
0.752765
0.750521
0.748305
0.747691
0.74819
0.750539
0.748525
0.740705
0.734398
0.734994
0.738391
0.741424
0.742334
0.742658
0.743611
0.745119
0.746383
0.746979
0.746857
0.746132
0.745461
0.745184
0.74537
0.746268
0.747232
0.749025
0.750682
0.752218
0.753284
0.754048
0.754387
0.755248
0.755487
0.756812
0.755277
0.746242
0.741121
0.741897
0.743562
0.738224
0.723002
0.714635
0.715505
0.720053
0.723992
0.726152
0.727357
0.728376
0.729156
0.730942
0.733052
0.736246
0.741594
0.748397
0.749638
0.748339
0.746237
0.743015
0.73888
0.735454
0.736745
0.743812
0.747449
0.750903
0.753938
0.753922
0.754731
0.749666
0.734704
0.72342
0.720584
0.717747
0.716232
0.714814
0.715254
0.716324
0.718458
0.723338
0.728807
0.732574
0.73768
0.743969
0.74724
0.749007
0.748975
0.749245
0.749299
0.75051
0.751189
0.753394
0.753833
0.755438
0.755675
0.756439
0.756723
0.749252
0.731535
0.724341
0.72274
0.722971
0.725803
0.72893
0.733844
0.736655
0.739281
0.742429
0.744653
0.746699
0.747761
0.749236
0.750924
0.751624
0.753014
0.753953
0.755258
0.756247
0.756469
0.756521
0.75652
0.756514
0.756522
0.756516
0.756524
0.756532
0.756689
0.756685
0.756531
0.756518
0.756515
0.756518
0.756516
0.756518
0.756517
0.756519
0.756517
0.756519
0.756518
0.756519
0.756518
0.756519
0.756517
0.756519
0.756517
0.756518
0.756519
0.756519
0.756519
0.756518
0.756519
0.756518
0.756519
0.756518
0.756521
0.75653
0.756685
0.756688
0.756531
0.756519
0.756519
0.756518
0.756519
0.756518
0.75652
0.756518
0.756519
0.756518
0.756519
0.756518
0.756519
0.756517
0.756519
0.756518
0.756519
0.756518
0.756519
0.756518
0.756519
0.756518
0.756519
0.756518
0.756519
0.756518
0.756521
0.756533
0.756687
0.756685
0.756531
0.756522
0.75652
0.756518
0.756519
0.756518
0.756519
0.756518
0.756519
0.756518
0.756519
0.756517
0.756519
0.756519
0.756518
0.756519
0.756517
0.756519
0.756518
0.756519
0.756518
0.756519
0.756518
0.756519
0.756517
0.756519
0.756521
0.756532
0.756685
0.756688
0.756531
0.756519
0.756519
0.756518
0.756519
0.756518
0.756519
0.756518
0.756519
0.756518
0.756519
0.756518
0.756519
0.756517
0.756518
0.756517
0.756518
0.756517
0.756519
0.756518
0.756519
0.756518
0.756519
0.756517
0.756519
0.756518
0.756521
0.756534
0.756688
0.714428
0.715139
0.718247
0.722588
0.728004
0.733989
0.740433
0.745102
0.74666
0.745425
0.745291
0.748927
0.75174
0.751105
0.7472
0.748471
0.750194
0.750849
0.751114
0.751104
0.751113
0.751203
0.751406
0.751671
0.751904
0.75215
0.752642
0.753202
0.753269
0.752275
0.748164
0.740814
0.734178
0.73462
0.740831
0.748525
0.752894
0.755199
0.757046
0.757284
0.7556
0.753003
0.750924
0.750034
0.748306
0.748696
0.749013
0.748754
0.748157
0.74737
0.746527
0.745377
0.743845
0.741687
0.738911
0.736336
0.734487
0.734507
0.737023
0.740761
0.74376
0.746051
0.747573
0.747842
0.746682
0.746317
0.748566
0.751775
0.753363
0.753369
0.752556
0.751137
0.749279
0.747661
0.747616
0.746191
0.745338
0.743845
0.740742
0.739318
0.741617
0.745697
0.747156
0.746876
0.745995
0.745524
0.746306
0.74817
0.748722
0.748598
0.748619
0.748697
0.748658
0.748919
0.75019
0.751492
0.752343
0.752682
0.752287
0.751234
0.750125
0.749426
0.749108
0.748874
0.750499
0.750033
0.74914
0.748451
0.747588
0.746392
0.743773
0.740417
0.736704
0.73579
0.739539
0.74542
0.747976
0.748827
0.748596
0.748513
0.748494
0.748767
0.749045
0.749522
0.749973
0.750506
0.750966
0.752295
0.753301
0.753674
0.752576
0.75068
0.750787
0.751554
0.750262
0.745098
0.735216
0.731664
0.7349
0.738716
0.741294
0.741937
0.742652
0.743615
0.744889
0.745705
0.745806
0.744984
0.743381
0.74124
0.739068
0.738065
0.736219
0.737171
0.73658
0.738253
0.738468
0.739294
0.740831
0.743894
0.749059
0.754505
0.757172
0.758139
0.746466
0.742776
0.745157
0.747828
0.741739
0.726732
0.715943
0.715659
0.720259
0.724542
0.726537
0.727683
0.728485
0.729315
0.730033
0.731023
0.733311
0.736136
0.740727
0.744789
0.748186
0.748805
0.746888
0.744326
0.73946
0.736376
0.741415
0.748144
0.750473
0.753566
0.746621
0.752338
0.750364
0.734011
0.719187
0.717128
0.715474
0.714335
0.713119
0.712982
0.713178
0.714407
0.715215
0.718276
0.723641
0.72981
0.737121
0.743869
0.745723
0.746949
0.747673
0.747137
0.748604
0.749811
0.751734
0.753305
0.755117
0.755556
0.756535
0.75649
0.747835
0.733206
0.724929
0.720045
0.71767
0.719023
0.719962
0.723156
0.72684
0.731744
0.735595
0.73957
0.742294
0.744202
0.745178
0.746472
0.747834
0.748712
0.750139
0.750711
0.751877
0.75265
0.752649
0.752716
0.752698
0.752712
0.752705
0.752716
0.752713
0.752672
0.752663
0.752711
0.752709
0.752707
0.75271
0.752708
0.752711
0.752709
0.752713
0.75271
0.752713
0.75271
0.752713
0.752711
0.752713
0.752711
0.752713
0.75271
0.752712
0.752714
0.752713
0.752713
0.75271
0.752713
0.75271
0.752713
0.75271
0.752714
0.75271
0.752665
0.752668
0.752712
0.752711
0.752713
0.75271
0.752713
0.752711
0.752714
0.752711
0.752714
0.752711
0.752714
0.752711
0.752714
0.752712
0.752714
0.752711
0.752714
0.752711
0.752713
0.75271
0.752713
0.75271
0.752713
0.75271
0.752713
0.752711
0.752714
0.752714
0.752668
0.752664
0.752712
0.752716
0.752714
0.75271
0.752713
0.75271
0.752713
0.75271
0.752713
0.75271
0.752714
0.752711
0.752714
0.752713
0.752713
0.752713
0.752711
0.752714
0.75271
0.752713
0.75271
0.752713
0.75271
0.752712
0.752709
0.752713
0.752714
0.752713
0.752664
0.752668
0.752712
0.752711
0.752713
0.75271
0.752713
0.75271
0.752714
0.75271
0.752714
0.752711
0.752714
0.752711
0.752714
0.752711
0.752714
0.752712
0.752714
0.752711
0.752714
0.752711
0.752714
0.75271
0.752713
0.75271
0.752713
0.752711
0.752715
0.752715
0.752671
0.712579
0.715324
0.721884
0.726594
0.729931
0.735057
0.743237
0.749654
0.7518
0.750798
0.747923
0.748962
0.751744
0.751454
0.748161
0.749415
0.750042
0.74962
0.749333
0.749183
0.749115
0.749326
0.749736
0.750328
0.750855
0.751124
0.751472
0.752245
0.752776
0.7522
0.74851
0.74094
0.733789
0.733838
0.740332
0.748813
0.753689
0.75669
0.757582
0.756021
0.75362
0.751991
0.751661
0.751587
0.748523
0.749075
0.748413
0.747288
0.746464
0.74584
0.744881
0.743625
0.741472
0.738757
0.73568
0.734492
0.73568
0.738915
0.742979
0.744625
0.745952
0.746783
0.747029
0.747219
0.747238
0.74992
0.752176
0.753174
0.753203
0.752997
0.75255
0.751671
0.750026
0.748188
0.747764
0.746424
0.745124
0.742331
0.739075
0.739642
0.743762
0.746456
0.747154
0.74679
0.745932
0.745374
0.746851
0.748836
0.748901
0.748612
0.748613
0.748653
0.748602
0.749296
0.750799
0.752216
0.752828
0.752653
0.751422
0.749805
0.748894
0.749011
0.749477
0.749565
0.750375
0.749455
0.748195
0.747913
0.747053
0.745558
0.742147
0.738664
0.734552
0.734175
0.737643
0.741931
0.743841
0.744812
0.74592
0.746967
0.747844
0.748431
0.74914
0.750112
0.750668
0.751051
0.750787
0.750948
0.752502
0.753707
0.752898
0.751743
0.751996
0.752262
0.747876
0.737379
0.729945
0.730891
0.735719
0.739147
0.740819
0.741437
0.742209
0.743048
0.743856
0.74417
0.743671
0.742082
0.739643
0.736539
0.734256
0.731854
0.731876
0.730503
0.731236
0.730591
0.730292
0.730222
0.730213
0.731782
0.734574
0.741362
0.748275
0.753094
0.74764
0.744942
0.748223
0.749948
0.743793
0.729688
0.717893
0.715883
0.71833
0.722608
0.725166
0.72616
0.727379
0.729066
0.730203
0.73058
0.731264
0.73361
0.737707
0.741373
0.745446
0.748334
0.748847
0.748056
0.745361
0.739509
0.73858
0.748705
0.751176
0.752045
0.741052
0.745789
0.747448
0.738285
0.720707
0.716314
0.716715
0.717482
0.716783
0.715795
0.715819
0.716077
0.715897
0.715416
0.716174
0.71713
0.727238
0.73562
0.741887
0.744783
0.744672
0.745399
0.745827
0.748422
0.74839
0.753025
0.752455
0.755408
0.755588
0.755467
0.740024
0.730689
0.723658
0.718531
0.716648
0.715348
0.716305
0.716002
0.718788
0.721053
0.725537
0.731398
0.736191
0.739908
0.74086
0.741781
0.742885
0.744367
0.745852
0.746678
0.747423
0.748196
0.748842
0.748777
0.748802
0.748813
0.748807
0.748823
0.748819
0.748768
0.748746
0.74881
0.74881
0.748808
0.748807
0.748807
0.748807
0.748807
0.748807
0.748807
0.748807
0.748808
0.748808
0.748808
0.748808
0.748808
0.748808
0.748807
0.748808
0.748809
0.748809
0.748808
0.748808
0.748809
0.748809
0.748811
0.748812
0.748815
0.748813
0.748749
0.748754
0.748813
0.748814
0.748812
0.74881
0.74881
0.748809
0.748809
0.748809
0.748809
0.748808
0.748808
0.748808
0.748808
0.748808
0.748808
0.748808
0.748808
0.748808
0.748808
0.748808
0.748808
0.748808
0.748808
0.748809
0.74881
0.748813
0.748816
0.748815
0.748754
0.748749
0.748814
0.748817
0.748813
0.74881
0.748809
0.748808
0.748808
0.748808
0.748808
0.748808
0.748808
0.748808
0.748808
0.748809
0.748809
0.748808
0.748808
0.748808
0.748808
0.748808
0.748808
0.748808
0.748808
0.748809
0.748809
0.748812
0.748817
0.748815
0.748749
0.748753
0.748813
0.748814
0.748812
0.74881
0.748809
0.748808
0.748809
0.748808
0.748808
0.748808
0.748808
0.748808
0.748808
0.748808
0.748808
0.748808
0.748808
0.748808
0.748808
0.748808
0.748808
0.748808
0.748809
0.748809
0.748811
0.748815
0.748822
0.74883
0.748769
0.712576
0.720109
0.730123
0.734748
0.734931
0.739554
0.74776
0.752305
0.752938
0.752201
0.749604
0.750934
0.751968
0.751248
0.750309
0.749567
0.749129
0.748946
0.748626
0.748115
0.74788
0.747681
0.747616
0.747794
0.748243
0.748962
0.749819
0.750225
0.750255
0.750673
0.75142
0.75084
0.746797
0.739036
0.732755
0.73359
0.741201
0.750164
0.755515
0.757476
0.755955
0.75372
0.752063
0.750485
0.750408
0.750733
0.750455
0.74906
0.748667
0.748473
0.747165
0.746463
0.745764
0.744376
0.742842
0.740176
0.737328
0.735296
0.735746
0.737833
0.742537
0.744887
0.746064
0.746222
0.747023
0.7473
0.748716
0.749955
0.75189
0.752817
0.752717
0.752005
0.751562
0.751416
0.751654
0.751551
0.750376
0.748854
0.749619
0.749175
0.747997
0.746442
0.744162
0.740339
0.738457
0.740589
0.744627
0.746719
0.74721
0.746873
0.745908
0.745306
0.747439
0.749214
0.749124
0.748727
0.748628
0.748696
0.749166
0.750522
0.751812
0.75256
0.752391
0.750598
0.748107
0.746845
0.747052
0.747664
0.748435
0.749097
0.74942
0.749953
0.749605
0.748124
0.747418
0.747402
0.746252
0.744072
0.74036
0.736383
0.731838
0.731603
0.734484
0.73784
0.740737
0.743538
0.745677
0.747133
0.747624
0.747846
0.748572
0.749705
0.751073
0.751959
0.75191
0.751472
0.752326
0.753615
0.753253
0.752339
0.750881
0.749027
0.749684
0.746276
0.738024
0.728525
0.728314
0.73205
0.736839
0.738934
0.740102
0.740326
0.740787
0.741561
0.742095
0.741998
0.740709
0.738647
0.735579
0.733598
0.731683
0.730906
0.73
0.729474
0.728693
0.729087
0.729299
0.7297
0.729897
0.730428
0.730552
0.731196
0.734495
0.741846
0.747422
0.750199
0.748149
0.74796
0.750686
0.750328
0.74362
0.733644
0.722553
0.717229
0.717696
0.719711
0.721626
0.723754
0.726001
0.729089
0.730727
0.731138
0.730843
0.730746
0.733872
0.740969
0.744496
0.747146
0.748392
0.748113
0.746405
0.743831
0.737868
0.743841
0.751474
0.752518
0.751438
0.750682
0.748405
0.743041
0.742809
0.740379
0.728791
0.718996
0.717703
0.72037
0.722267
0.724391
0.725065
0.723052
0.723719
0.721274
0.718632
0.714697
0.716651
0.725127
0.733025
0.737954
0.741076
0.740995
0.742773
0.744549
0.747091
0.748802
0.751679
0.752121
0.755471
0.754979
0.748367
0.73562
0.734873
0.729537
0.720798
0.715927
0.714977
0.714438
0.71385
0.714983
0.714821
0.717054
0.717604
0.721099
0.725969
0.731481
0.736491
0.736919
0.737848
0.738349
0.739913
0.741644
0.74179
0.742836
0.74268
0.742712
0.742617
0.74264
0.742638
0.74265
0.742625
0.74234
0.742033
0.742034
0.742304
0.742614
0.742638
0.742641
0.742641
0.74264
0.742641
0.74264
0.742641
0.74264
0.742641
0.74264
0.742641