/*--------------------------------*- C++ -*----------------------------------*\
| =========                 |                                                 |
| \\      /  F ield         | OpenFOAM: The Open Source CFD Toolbox           |
|  \\    /   O peration     | Version:  2.1.1                                 |
|   \\  /    A nd           | Web:      www.OpenFOAM.org                      |
|    \\/     M anipulation  |                                                 |
\*---------------------------------------------------------------------------*/
FoamFile
{
    version     2.0;
    format      ascii;
    class       volScalarField;
    location    "0.003100000";
    object      O2;
}
// * * * * * * * * * * * * * * * * * * * * * * * * * * * * * * * * * * * * * //

dimensions      [0 0 0 0 0 0 0];

internalField   nonuniform List<scalar> 
12384
(
0.0345161
0.0478691
0.0538174
0.0741013
0.0785999
0.0830514
0.0831797
0.0766038
0.0648965
0.056487
0.0408462
0.0225127
0.00934637
0.00942837
0.0651989
0.0679052
0.0728718
0.0748354
0.0754172
0.0760243
0.0761864
0.0769598
0.077027
0.074748
0.0718237
0.0694242
0.0672086
0.06639
0.0660682
0.0659714
0.0672907
0.0695357
0.0717017
0.076792
0.080051
0.0821501
0.0848583
0.0840727
0.0811696
0.0570123
0.0295089
0.00657699
0.00556248
0.180703
0.0315498
0.0201831
0.0179526
0.0187631
0.0195669
0.0184523
0.0159799
0.0128952
0.00959126
0.00627829
0.00459118
0.00287053
0.00253351
0.0022223
0.00208581
0.0021061
0.00224305
0.00255805
0.00286046
0.00289191
0.00835763
0.0207654
0.0417129
0.0576276
0.0689336
0.0703784
0.0631349
0.0462113
0.0252269
0.0148929
0.00755303
0.00141233
0.00157401
0.00223001
0.0024454
0.00219187
0.00188958
0.0014288
0.000973614
0.000480591
0.000219327
0.000219044
0.000213957
0.000232663
0.000246842
0.000246904
0.000215769
0.000198832
0.0001973
0.000177352
0.000181184
0.000211012
0.000780352
0.00176469
0.0148544
0.046021
0.0665802
0.0556057
0.0294799
0.0166967
0.0320363
0.00983245
0.00368995
0.00233018
0.00192078
0.00159028
0.00124522
0.00127435
0.00119438
0.00125576
0.00107996
0.00110453
0.00144651
0.00193813
0.00237902
0.00370211
0.00505889
0.00693523
0.00941335
0.0155922
0.0274839
0.0499309
0.0724167
0.0800066
0.0823356
0.162988
0.181839
0.195825
0.207786
0.215259
0.0527371
0.0527806
0.047029
0.0461362
0.0207822
0.0185522
0.00897104
0.00537416
0.00465585
0.00194462
0.0014737
0.00119459
0.00135122
0.00176113
0.00254673
0.0160214
0.0441718
0.0677742
0.0840796
0.0733302
0.183896
0.185552
0.179894
0.0730819
0.0682636
0.0656381
0.0497635
0.0307499
0.208069
0.223818
0.0566857
0.0481139
0.0114654
0.000251147
8.26351e-05
2.64181e-05
8.24057e-06
2.82504e-06
1.50736e-06
1.13082e-06
7.49298e-07
1.41799e-06
4.91032e-06
1.52186e-05
3.92579e-05
0.000111314
0.00132576
0.00807227
0.0569578
0.0873939
0.194922
0.205104
0.228265
0.2288
0.228753
0.228542
0.228721
0.228513
0.22819
0.228069
0.221479
0.203762
0.194733
0.181871
0.178371
0.179137
0.181363
0.184977
0.189809
0.189466
0.191878
0.196239
0.197042
0.204412
0.191449
0.0508467
0.0554113
0.0664183
0.077282
0.086777
0.0907472
0.0936675
0.090927
0.0891516
0.0875803
0.080689
0.0806923
0.0681834
0.0683718
0.0645549
0.0535791
0.0583791
0.0643997
0.0637421
0.0652382
0.0608842
0.0574412
0.0536087
0.0494249
0.0488749
0.041471
0.0413395
0.0314915
0.0204226
0.0109824
0.00709638
0.0202664
0.223957
0.226197
0.226198
0.226198
0.226197
0.226197
0.226197
0.226197
0.226196
0.226196
0.226196
0.226195
0.226179
0.226179
0.226195
0.226196
0.226197
0.226197
0.226197
0.226198
0.226198
0.226198
0.226199
0.226199
0.226199
0.2262
0.226201
0.226201
0.226201
0.226201
0.2262
0.226199
0.226199
0.226199
0.226198
0.226198
0.226197
0.226197
0.226197
0.226196
0.226196
0.226195
0.226179
0.226179
0.226195
0.226196
0.226197
0.226197
0.226197
0.226198
0.226198
0.226198
0.226199
0.226199
0.226199
0.2262
0.226201
0.226201
0.226201
0.226201
0.2262
0.2262
0.226199
0.226199
0.226198
0.226198
0.226198
0.226197
0.226197
0.226197
0.226196
0.226195
0.226179
0.226179
0.226195
0.226196
0.226196
0.226197
0.226197
0.226197
0.226198
0.226198
0.226199
0.226199
0.2262
0.2262
0.226201
0.226201
0.226201
0.226201
0.2262
0.2262
0.226199
0.226199
0.226198
0.226198
0.226198
0.226197
0.226197
0.226197
0.226196
0.226195
0.226179
0.226179
0.226195
0.226196
0.226197
0.226197
0.226197
0.226198
0.226198
0.226198
0.226199
0.226199
0.226199
0.2262
0.226201
0.226201
0.226201
0.226201
0.2262
0.2262
0.226199
0.226199
0.226198
0.226198
0.226198
0.226197
0.226197
0.226197
0.226196
0.226195
0.226179
0.0584288
0.058621
0.0659463
0.0725772
0.0752373
0.0838496
0.0864578
0.0906918
0.0899156
0.0839218
0.066524
0.0373008
0.0132901
0.00899827
0.0768705
0.0784395
0.0757617
0.0643445
0.0515117
0.0391368
0.0253305
0.0157431
0.00741343
0.00414615
0.00297054
0.00261613
0.00319954
0.0046297
0.00911001
0.0167774
0.0236679
0.0302509
0.0393538
0.0558013
0.0704522
0.0833399
0.0859307
0.0867225
0.0801185
0.0546243
0.0143156
0.00617627
0.00520915
0.00604497
0.0310669
0.0213733
0.0217169
0.0244758
0.0253377
0.022712
0.0161735
0.00961665
0.0039928
0.00211834
0.000872841
-4.08273e-05
-0.000279869
-6.79069e-05
0.00045468
0.00136485
0.00266394
0.00499109
0.00684251
0.0057848
0.0051084
0.0139225
0.037951
0.0599145
0.069366
0.0675143
0.0553403
0.0377578
0.0201678
0.0147118
0.00981824
0.00148198
0.0015917
0.00223213
0.00243663
0.00237318
0.00192968
0.00109399
0.000274428
0.000219312
0.000660581
0.00166543
0.00266736
0.00665641
0.00959616
0.0110796
0.0116562
0.0106993
0.00694054
0.00393954
0.00224046
0.00179373
0.00158503
0.00267165
0.0199484
0.0501964
0.0662813
0.0548725
0.0271322
0.0151335
0.0341215
0.0191477
0.0145296
0.0116928
0.00541621
0.00199208
0.00111801
0.000570931
0.000181865
0.000141358
0.0001158
0.000148886
0.000989834
0.00196417
0.00759229
0.0107591
0.0145038
0.022038
0.0318552
0.0388319
0.0487797
0.0647462
0.0780421
0.0810926
0.0818126
0.0829965
0.0644938
0.0409885
0.0212209
0.195241
0.0534916
0.0551081
0.0451972
0.0306834
0.00247562
0.000776847
0.000822083
0.00200526
0.00224563
0.00176018
0.00116137
0.00118672
0.00227304
0.0125121
0.0462622
0.0688655
0.0741028
0.0742087
0.07582
0.0790187
0.0839646
0.0866598
0.0793311
0.0740376
0.0737051
0.0698582
0.0577856
0.0406251
0.0202297
0.216021
0.0497361
0.0260707
0.000408526
9.36771e-06
5.92755e-07
9.96664e-08
2.66709e-08
1.93748e-08
1.2201e-08
1.18917e-08
1.36816e-08
1.64775e-08
2.9324e-08
1.26662e-07
9.8462e-07
1.78541e-05
0.00176159
0.0451636
0.0607046
0.0394752
0.0505464
0.0810614
0.203321
0.218726
0.215397
0.210325
0.221926
0.228005
0.229007
0.228857
0.200746
0.0711248
0.0584896
0.00912252
0.0132831
0.0139951
0.0115939
0.0230333
0.0286332
0.0316385
0.0465992
0.0522387
0.0509692
0.0522178
0.0514724
0.05331
0.0650813
0.072131
0.0828046
0.0896449
0.098581
0.0977166
0.0965771
0.0950326
0.08514
0.085378
0.0749965
0.0716036
0.0630779
0.0616796
0.0827365
0.100159
0.0953669
0.0973566
0.108066
0.11792
0.12432
0.127015
0.134497
0.134198
0.134974
0.131526
0.12522
0.119025
0.0923489
0.0777873
0.0370961
0.217707
0.226832
0.226803
0.226811
0.226795
0.2268
0.226788
0.226791
0.226781
0.226784
0.226778
0.226761
0.226439
0.226442
0.226764
0.226785
0.226792
0.226793
0.226801
0.226801
0.22681
0.22681
0.226818
0.226819
0.226827
0.226831
0.226843
0.226845
0.22685
0.226843
0.226837
0.226823
0.226817
0.226813
0.226805
0.226803
0.226795
0.226795
0.226787
0.226788
0.226781
0.226765
0.226427
0.226441
0.226762
0.226786
0.226786
0.226794
0.226794
0.226803
0.226803
0.226812
0.226812
0.226821
0.226823
0.226834
0.22684
0.226849
0.226847
0.226845
0.226834
0.226829
0.226819
0.226818
0.226809
0.226808
0.226799
0.226798
0.22679
0.226789
0.226783
0.226762
0.226439
0.226426
0.226765
0.226785
0.226786
0.226794
0.226794
0.226803
0.226804
0.226813
0.226814
0.226823
0.226825
0.226836
0.226842
0.226849
0.226849
0.226842
0.226836
0.226825
0.226823
0.226814
0.226813
0.226804
0.226804
0.226795
0.226795
0.226787
0.226786
0.226765
0.226427
0.226439
0.226762
0.226787
0.226787
0.226796
0.226796
0.226805
0.226805
0.226814
0.226813
0.226822
0.226823
0.226834
0.226839
0.226849
0.226847
0.226845
0.226834
0.226829
0.22682
0.226818
0.226809
0.226809
0.226799
0.226799
0.22679
0.226789
0.226783
0.226762
0.226439
0.0577416
0.0486203
0.0179668
0.00992862
0.00295211
0.00446045
0.00774255
0.0380462
0.0743689
0.0915466
0.0899278
0.0660028
0.033294
0.0233118
0.088676
0.0799276
0.0501819
0.0179251
0.00449573
0.00119666
0.000555657
0.000441104
0.00030072
0.000198488
0.000141799
0.000158246
0.000147447
0.000168781
0.000200763
0.000248429
0.000365946
0.000835631
0.00207403
0.0178335
0.0515324
0.0796715
0.0872809
0.0888623
0.0791705
0.0553444
0.0246171
0.0137469
0.0120811
0.0192231
0.0306909
0.0236838
0.0275503
0.0326372
0.0338185
0.0300641
0.0206468
0.0100939
0.00355972
0.000584672
0.000511476
0.000186226
4.41345e-05
0.000241494
0.000515246
0.000241593
0.00240947
0.0074484
0.017846
0.0180619
0.00945676
0.00995228
0.0336856
0.057174
0.0683609
0.0637376
0.0478552
0.0303922
0.0197481
0.0144862
0.0127359
0.00197994
0.00184793
0.00226237
0.00286127
0.0022933
0.00087852
0.000189153
0.000190498
0.00141277
0.00816785
0.0189408
0.0235394
0.0251858
0.0269341
0.0296397
0.0321951
0.0343539
0.0337546
0.0305367
0.0230117
0.0160525
0.00896235
0.01399
0.0354194
0.0613819
0.0667999
0.0494411
0.0250987
0.0148409
0.0407239
0.0327323
0.0311823
0.0258594
0.0154294
0.00502497
0.00139618
0.000196149
0.000102287
3.37738e-05
4.79222e-05
0.00015202
0.00356909
0.0164664
0.0339769
0.0467661
0.0568506
0.0559115
0.0568048
0.0638183
0.0745173
0.0777356
0.0816066
0.0817154
0.0792075
0.0662852
0.0502325
0.0282446
0.0187498
0.025335
0.0538861
0.0542999
0.0350395
0.00633356
0.000117586
5.41486e-05
0.000165204
0.00106712
0.00172748
0.00123752
0.0010313
0.00221835
0.00889744
0.0329951
0.054996
0.0582639
0.058741
0.0663073
0.073268
0.0803284
0.0859957
0.0829842
0.079251
0.0782259
0.0761633
0.0730432
0.066346
0.0519711
0.0497008
0.21746
0.0372814
0.00253333
1.15374e-05
2.7614e-07
2.77959e-08
7.7506e-09
4.63112e-09
2.9952e-09
4.28579e-09
2.94574e-09
3.13021e-09
5.67514e-09
1.5228e-08
3.95862e-08
2.36979e-07
8.45794e-06
0.00409669
0.0470481
0.0334454
0.0222674
0.0341766
0.0504627
0.061021
0.0429767
0.0318083
0.0415536
0.0731672
0.214358
0.228717
0.229424
0.205397
0.0771325
0.0377372
0.00339218
0.00116379
0.000651813
0.00155369
0.000945003
0.00134685
0.000198562
0.00141731
0.00731226
0.0240739
0.0325258
0.0459932
0.0546229
0.0660436
0.0732014
0.0780243
0.0842908
0.0869704
0.0972586
0.0976199
0.0993196
0.096431
0.0907568
0.0879327
0.077619
0.067998
0.0688416
0.128419
0.103221
0.0527651
0.0513726
0.0586645
0.0811496
0.0894496
0.0937761
0.109877
0.116156
0.126735
0.134939
0.141969
0.147831
0.155563
0.153824
0.158706
0.219008
0.23072
0.230738
0.230738
0.230742
0.230744
0.230746
0.230749
0.230751
0.230753
0.230755
0.230769
0.231059
0.231059
0.230769
0.230751
0.230747
0.230744
0.23074
0.230737
0.230734
0.230731
0.230727
0.230724
0.23072
0.230713
0.230706
0.230701
0.230699
0.230702
0.230711
0.23072
0.230726
0.230729
0.230734
0.230738
0.230741
0.230744
0.230747
0.23075
0.230754
0.230771
0.231059
0.231059
0.230769
0.230752
0.230748
0.230745
0.230742
0.230739
0.230735
0.230732
0.230728
0.230725
0.23072
0.230713
0.230705
0.2307
0.230699
0.230704
0.230711
0.230718
0.230723
0.230727
0.230731
0.230735
0.230738
0.230742
0.230745
0.230749
0.230752
0.230769
0.231059
0.231058
0.230769
0.230752
0.230749
0.230746
0.230742
0.230738
0.230735
0.230731
0.230727
0.230723
0.230718
0.230712
0.230704
0.2307
0.2307
0.230704
0.230712
0.230719
0.230723
0.230727
0.230731
0.230734
0.230738
0.230742
0.230745
0.230748
0.230752
0.230769
0.231058
0.231059
0.230769
0.230751
0.230747
0.230744
0.230741
0.230738
0.230734
0.230732
0.230728
0.230725
0.23072
0.230714
0.230706
0.230701
0.230699
0.230703
0.23071
0.230718
0.230722
0.230726
0.23073
0.230734
0.230738
0.230742
0.230745
0.230749
0.230752
0.230768
0.231059
0.0122836
0.00458612
0.000565666
0.000253546
7.32764e-05
0.000107053
0.000163829
0.000502067
0.00555015
0.0461979
0.0851181
0.0871224
0.0513647
0.0301697
0.0969847
0.0599464
0.017922
0.00725412
0.00448319
0.00564338
0.0056388
0.00658929
0.0100815
0.0156238
0.0217082
0.0229464
0.0171266
0.00646365
0.00098127
0.000137458
0.000161386
0.000231817
0.000222826
0.00205127
0.0245623
0.0686707
0.0859823
0.0901664
0.0853144
0.0733642
0.0470768
0.0403675
0.0304672
0.0382688
0.030338
0.0262576
0.0326696
0.0394115
0.0418682
0.0381907
0.0290119
0.0155598
0.00430563
0.00062938
0.000365139
0.000243972
0.000172177
0.000169311
0.000178507
0.000215904
0.000314326
0.00178373
0.0163036
0.0284679
0.0177338
0.010367
0.0270528
0.0539878
0.0675444
0.0628389
0.0480739
0.0321976
0.0216428
0.0164633
0.0164361
0.00264352
0.00229743
0.00259329
0.0024347
0.000945945
0.00011057
0.00010412
0.0012209
0.012647
0.0235947
0.0239348
0.0202158
0.0186011
0.0217543
0.0251016
0.0281556
0.0319261
0.0363755
0.0411712
0.0442247
0.0385241
0.0312402
0.0361555
0.0566316
0.069122
0.0611503
0.0374559
0.0197196
0.0158112
0.0452835
0.0451971
0.0431502
0.0369387
0.0254638
0.0119741
0.00194002
0.000176896
3.26472e-05
2.26316e-05
-1.14316e-06
0.000134878
0.0288106
0.0382861
0.0649445
0.0708004
0.0786829
0.0869159
0.0914942
0.0926215
0.0884736
0.0874891
0.0862843
0.0837073
0.0772866
0.0625162
0.0406802
0.0238221
0.0124538
0.00826468
0.0552158
0.0541985
0.0228458
0.000186868
1.83384e-05
2.56431e-05
0.000137594
0.000819556
0.00115414
0.00085489
0.00118762
0.0057349
0.0226311
0.0379172
0.0418487
0.043946
0.0509264
0.0619269
0.0785411
0.0856181
0.091144
0.0880735
0.0879617
0.0842467
0.0850566
0.0822289
0.0764027
0.0812986
0.190423
0.224479
0.0251511
0.00025893
3.93798e-06
3.23189e-07
3.65309e-08
8.59392e-09
3.33261e-09
3.05734e-09
2.1639e-09
4.68467e-09
1.1936e-08
1.87325e-08
4.05373e-08
9.97912e-08
5.88212e-07
9.9516e-06
0.0138505
0.0455935
0.0252846
0.017305
0.00736925
0.000960598
-0.000171709
2.57662e-05
3.33826e-05
0.00122964
0.0180779
0.0810311
0.220281
0.226872
0.217432
0.0983493
0.0335216
0.000167153
1.03128e-05
8.40852e-06
5.28422e-06
2.25468e-06
1.11778e-06
9.53357e-07
1.82979e-06
9.09485e-06
0.00013988
0.00191389
0.00748774
0.0360178
0.0577918
0.0664606
0.0718755
0.0737739
0.0769753
0.0797901
0.0889169
0.0910415
0.102196
0.0978429
0.0993575
0.0950535
0.0836013
0.0850343
0.116168
0.0267901
4.32492e-06
3.47908e-06
1.59051e-05
6.15937e-05
0.00060128
0.00541177
0.0215771
0.0408005
0.0626302
0.0805654
0.100085
0.104559
0.123679
0.133558
0.14356
0.15281
0.220127
0.230905
0.230914
0.230912
0.230913
0.230912
0.230913
0.230913
0.230913
0.230913
0.230917
0.230968
0.230968
0.230917
0.230912
0.230912
0.230911
0.230912
0.230911
0.230911
0.23091
0.230911
0.23091
0.23091
0.230909
0.230909
0.230908
0.230908
0.230908
0.230909
0.23091
0.230911
0.230911
0.23091
0.230911
0.230911
0.230912
0.230911
0.230912
0.230912
0.230917
0.230969
0.230968
0.230917
0.230913
0.230912
0.230912
0.230911
0.230911
0.230911
0.230911
0.23091
0.23091
0.230909
0.23091
0.230908
0.230908
0.230908
0.230909
0.230909
0.23091
0.23091
0.230911
0.23091
0.230911
0.230911
0.230912
0.230911
0.230912
0.230912
0.230917
0.230968
0.230969
0.230917
0.230913
0.230912
0.230912
0.230911
0.230911
0.230911
0.230911
0.23091
0.23091
0.230909
0.230909
0.230908
0.230908
0.230908
0.230908
0.230909
0.230909
0.23091
0.23091
0.230911
0.230911
0.230911
0.230911
0.230912
0.230912
0.230913
0.230917
0.230969
0.230968
0.230917
0.230913
0.230912
0.230912
0.230911
0.230911
0.230911
0.230911
0.23091
0.23091
0.230909
0.23091
0.230908
0.230909
0.230908
0.230909
0.230909
0.23091
0.23091
0.23091
0.23091
0.230911
0.230911
0.230912
0.230911
0.230912
0.230912
0.230917
0.230968
0.000545319
0.000188646
4.09986e-05
3.11474e-05
3.50847e-05
7.19943e-05
0.00013874
0.000211355
0.000655124
0.00376662
0.0392893
0.0785364
0.0671016
0.0450726
0.0879794
0.0310845
0.0231011
0.0354341
0.0489003
0.0584411
0.0643744
0.0695473
0.0739449
0.078186
0.0818175
0.0836185
0.0807911
0.0701227
0.0479709
0.0154045
0.00024878
0.000155882
0.00015173
0.000441229
0.00746735
0.052033
0.0816359
0.0914651
0.0934353
0.0999411
0.0957547
0.0743089
0.0501589
0.0466572
0.0305
0.029446
0.0366569
0.0432222
0.0445662
0.0415991
0.0336378
0.0205411
0.00675386
0.00122666
0.00025399
0.000146815
0.000124352
7.75395e-05
8.45046e-05
7.05338e-05
7.23198e-05
0.000418315
0.0122308
0.0326259
0.024466
0.0115984
0.022796
0.0518106
0.0710742
0.0681713
0.0527445
0.0363971
0.0252843
0.0178746
0.0208933
0.00586566
0.00267338
0.00321425
0.00214324
0.000172501
3.85548e-05
0.00018655
0.00970147
0.0240718
0.0214326
0.012893
0.0109751
0.0158837
0.0242498
0.0285339
0.0304371
0.0316748
0.0337069
0.0400985
0.0489628
0.0537277
0.0510472
0.057923
0.0698611
0.0690479
0.0509505
0.0296089
0.0202863
0.021078
0.0499991
0.051746
0.0486305
0.0404771
0.0299591
0.0160497
0.00217254
0.000162599
2.55673e-05
7.11376e-06
2.55471e-05
0.00224396
0.0455602
0.0688931
0.0801123
0.0850344
0.0880131
0.0901299
0.092907
0.0960522
0.0951911
0.0960821
0.0926956
0.0882074
0.083281
0.0694719
0.0588166
0.0302865
0.0252197
0.0308666
0.0558709
0.0488476
0.00259783
1.79392e-05
6.10475e-06
1.60325e-05
0.000155405
0.000345166
0.000695568
0.00105166
0.00270583
0.0144393
0.0264668
0.0294587
0.0269292
0.0275936
0.0361951
0.053103
0.0670013
0.0785934
0.0887994
0.0978051
0.102587
0.106649
0.107354
0.108656
0.105314
0.0973924
0.0697858
0.220287
0.0162918
0.000135269
1.30333e-05
4.55023e-06
3.40804e-07
6.79748e-09
3.74249e-09
3.52483e-09
4.23343e-09
1.5197e-08
3.74348e-08
5.38832e-08
9.34186e-08
1.57691e-07
5.12659e-07
4.34839e-06
0.000205969
0.0385775
0.0453053
0.0217353
0.00679389
0.000149001
8.55797e-06
2.52854e-06
2.03871e-06
8.44918e-06
0.00168102
0.0218617
0.100777
0.206164
0.217731
0.107218
0.0322283
9.72869e-06
5.35039e-07
2.15126e-07
8.45203e-08
2.73244e-08
1.90389e-08
2.36945e-08
3.33577e-08
1.67146e-07
1.65025e-06
1.04734e-05
3.66457e-05
0.000971206
0.0343338
0.0542509
0.0553172
0.058735
0.0585888
0.0651742
0.0687733
0.0880091
0.0885369
0.104648
0.103899
0.108296
0.108339
0.110604
0.0704837
1.34911e-06
1.07777e-07
8.95599e-08
2.15383e-07
8.40207e-07
3.56151e-06
3.29896e-05
0.000144534
0.0045291
0.0133542
0.0381012
0.0446713
0.0703241
0.0839552
0.0950925
0.110408
0.120557
0.131895
0.215715
0.230393
0.230407
0.2304
0.230405
0.230401
0.230404
0.230402
0.230405
0.230404
0.23041
0.230409
0.230404
0.230403
0.230402
0.230404
0.230402
0.230404
0.230402
0.230404
0.230402
0.230404
0.230402
0.230404
0.230402
0.230404
0.230402
0.230404
0.230402
0.230403
0.230403
0.230403
0.230404
0.230402
0.230404
0.230402
0.230404
0.230402
0.230404
0.230403
0.230411
0.230409
0.230405
0.230402
0.230404
0.230402
0.230404
0.230402
0.230404
0.230402
0.230404
0.230402
0.230404
0.230402
0.230404
0.230402
0.230404
0.230402
0.230404
0.230402
0.230404
0.230402
0.230404
0.230402
0.230404
0.230402
0.230404
0.230402
0.230404
0.230405
0.23041
0.23041
0.230404
0.230404
0.230404
0.230402
0.230404
0.230402
0.230404
0.230402
0.230404
0.230402
0.230404
0.230402
0.230404
0.230402
0.230402
0.230404
0.230402
0.230404
0.230402
0.230404
0.230402
0.230404
0.230402
0.230404
0.230402
0.230404
0.230403
0.230404
0.23041
0.230409
0.230405
0.230402
0.230404
0.230402
0.230404
0.230402
0.230404
0.230402
0.230404
0.230402
0.230404
0.230402
0.230404
0.230402
0.230404
0.230402
0.230404
0.230402
0.230404
0.230402
0.230404
0.230402
0.230404
0.230402
0.230404
0.230402
0.230404
0.230405
0.23041
3.92987e-05
1.83107e-05
1.00782e-05
1.58711e-05
4.61339e-05
0.000187395
0.000776391
0.00158184
0.00186845
0.00246808
0.0102595
0.0548405
0.0702421
0.053812
0.0457851
0.0246952
0.0402434
0.0573774
0.0673429
0.0735003
0.0778773
0.0804552
0.082512
0.08423
0.0858101
0.087156
0.0889418
0.0885663
0.0813351
0.0584498
0.00923679
0.000217208
0.000145557
0.000257294
0.00273345
0.0403885
0.0791372
0.0965887
0.10947
0.12245
0.116374
0.0936586
0.0539169
0.0527474
0.0308726
0.0323485
0.0395616
0.042699
0.0416222
0.0370383
0.0288304
0.0166256
0.0050419
0.000196072
1.13835e-05
3.04684e-05
6.10822e-05
4.21833e-05
3.95006e-05
6.55087e-05
0.000127681
0.00158556
0.0184136
0.0341742
0.0241972
0.0103352
0.0209876
0.0555009
0.0787666
0.0791658
0.067037
0.0500525
0.0323329
0.0207571
0.0233199
0.00851406
0.00525085
0.00265671
0.000235178
3.01084e-05
-7.61132e-05
0.00274439
0.0213547
0.0218564
0.0129451
0.00800041
0.0102188
0.0213942
0.0315254
0.0337965
0.0343925
0.0348729
0.0349278
0.0384135
0.0510293
0.0599858
0.0654008
0.0722406
0.0746789
0.0658498
0.0481911
0.0350451
0.0307941
0.0305438
0.0535791
0.0535947
0.046906
0.038802
0.0289165
0.0158114
0.00199511
0.000106668
8.80553e-06
5.36474e-06
2.54269e-05
0.00836524
0.0545934
0.0650091
0.0714397
0.0697368
0.0677917
0.0638721
0.0634171
0.0649656
0.0681209
0.0746456
0.0882539
0.0925437
0.0886213
0.0800866
0.0559457
0.0323272
0.0259426
0.0311205
0.0561427
0.0346242
7.23432e-05
2.4173e-06
2.93264e-06
1.77428e-05
0.000138295
0.000207755
0.000278437
0.00107899
0.00496253
0.0138974
0.0192434
0.0180913
0.0117659
0.00683372
0.00503965
0.00610059
0.0125203
0.021413
0.039932
0.0576781
0.0742108
0.0856825
0.0939644
0.0976057
0.106764
0.109293
0.124044
0.213664
0.0137095
0.00026423
0.000143785
0.00100727
9.54657e-06
1.80942e-08
1.13704e-09
3.15521e-09
7.56813e-09
1.02684e-08
5.98322e-08
1.0605e-07
4.11963e-07
6.9503e-07
4.20441e-07
6.9696e-07
3.19886e-06
0.000102833
0.0332933
0.0464809
0.0326906
0.0122161
0.000597391
2.24037e-05
2.9293e-06
6.41733e-06
0.00154669
0.0235559
0.0600755
0.0928027
0.0928629
0.101284
0.0467623
2.49584e-06
3.49944e-08
1.25069e-08
6.56277e-09
3.434e-09
2.59236e-09
3.0351e-09
3.71871e-09
9.01646e-09
3.68035e-08
3.05041e-07
1.01002e-06
6.38053e-06
0.00115306
0.0213111
0.0397951
0.0394491
0.0423149
0.0428917
0.0558668
0.0631869
0.0868882
0.0916568
0.108774
0.111319
0.119516
0.122535
0.0423441
7.83663e-07
4.92155e-08
3.15538e-08
2.14904e-08
7.50959e-08
1.6978e-07
1.78749e-06
4.69964e-06
2.73083e-05
0.000171271
0.00226803
0.0161749
0.0266998
0.042084
0.0598645
0.0673583
0.0822345
0.0926132
0.10659
0.214826
0.229737
0.229752
0.229752
0.22975
0.229753
0.229751
0.229753
0.229756
0.229803
0.229802
0.229755
0.229752
0.229751
0.229751
0.229751
0.229752
0.229751
0.229752
0.229751
0.229752
0.229751
0.229752
0.229751
0.229752
0.229751
0.229752
0.229751
0.229752
0.229752
0.229752
0.229752
0.229751
0.229752
0.229751
0.229752
0.229752
0.229752
0.229755
0.229802
0.229803
0.229755
0.229752
0.229752
0.229751
0.229752
0.229752
0.229752
0.229752
0.229752
0.229751
0.229752
0.229751
0.229752
0.229751
0.229752
0.229751
0.229752
0.229751
0.229752
0.229751
0.229752
0.229751
0.229752
0.229751
0.229752
0.229752
0.229752
0.229756
0.229803
0.229802
0.229755
0.229753
0.229752
0.229751
0.229752
0.229751
0.229752
0.229751
0.229752
0.229751
0.229752
0.229751
0.229752
0.229752
0.229752
0.229752
0.229751
0.229752
0.229751
0.229752
0.229751
0.229752
0.229751
0.229752
0.229751
0.229752
0.229752
0.229756
0.229802
0.229803
0.229755
0.229752
0.229752
0.229751
0.229752
0.229751
0.229752
0.229752
0.229752
0.229751
0.229752
0.229751
0.229752
0.229751
0.229752
0.229751
0.229752
0.229751
0.229752
0.229751
0.229752
0.229751
0.229752
0.229751
0.229752
0.229752
0.229752
0.229756
0.229803
5.94961e-06
4.17047e-06
6.06217e-06
1.30994e-05
5.4702e-05
0.000283125
0.00203707
0.0123108
0.0207895
0.0138974
0.0131525
0.0387181
0.0690715
0.0622415
0.0216675
0.0341069
0.052416
0.0594512
0.0623076
0.0621979
0.0623066
0.0632745
0.0654636
0.068319
0.0708071
0.0734255
0.0786784
0.0847043
0.0854533
0.0747439
0.030845
0.000371142
0.000129871
0.000206702
0.0018623
0.0348076
0.08097
0.1062
0.125967
0.128523
0.110512
0.0826524
0.0603057
0.0507485
0.0324085
0.0364137
0.0398108
0.0370728
0.0308744
0.0229671
0.0150491
0.00668502
0.00178907
0.00024551
0.000108449
5.72492e-05
3.8687e-05
3.94929e-05
6.71255e-05
0.000198296
0.00163576
0.011112
0.0248875
0.0276454
0.0162865
0.0130171
0.0350476
0.0694352
0.0865441
0.0865907
0.0778169
0.0625536
0.0426428
0.0256676
0.0252245
0.0119001
0.00593181
0.00170462
9.01299e-05
3.09733e-05
0.00016152
0.00800985
0.0206843
0.0179107
0.0102022
0.00697207
0.0128808
0.0309111
0.0366854
0.0353836
0.0355981
0.036429
0.036031
0.0387694
0.0523749
0.0663922
0.0755496
0.0791931
0.0749502
0.0636207
0.0516918
0.0441895
0.0407964
0.0383079
0.0556947
0.0506951
0.0411483
0.0338514
0.024924
0.0135342
0.00122513
3.15196e-05
3.87176e-06
2.85735e-06
1.82949e-05
0.00586703
0.0288959
0.0378214
0.0353669
0.0345042
0.0343013
0.0371743
0.040144
0.0452239
0.0500667
0.0557982
0.0607459
0.0750503
0.0858832
0.0899321
0.0780667
0.0576639
0.0588143
0.0670742
0.0531642
0.00443875
2.93761e-06
7.84979e-07
2.86777e-06
2.18789e-05
0.000129982
0.000188196
0.000297481
0.00115693
0.00385668
0.00832254
0.00920605
0.00423971
0.000875089
0.000135656
1.9708e-05
1.12717e-05
6.11508e-06
7.94365e-06
6.36394e-06
1.30995e-05
1.72289e-05
2.63215e-05
5.80905e-05
0.00149064
0.0403032
0.0988793
0.12732
0.137629
0.0154091
0.00072301
0.004613
0.0273589
9.55151e-05
7.38302e-08
3.99689e-09
3.97417e-09
8.89389e-09
2.72262e-08
8.49032e-08
2.17431e-07
1.36437e-06
3.39356e-06
1.14974e-06
4.10394e-07
1.05021e-06
4.54102e-06
4.81402e-05
0.00257208
0.0310825
0.0375733
0.0180164
0.00209895
2.89817e-05
6.38197e-06
0.000120168
0.0306372
0.0554583
0.0887646
0.0155723
0.0755035
0.0542702
1.98338e-06
9.38942e-09
5.04577e-09
2.88835e-09
2.31639e-09
1.66319e-09
1.17368e-09
1.9113e-09
2.44688e-09
3.17101e-09
8.07852e-09
3.2729e-08
2.2852e-07
2.9887e-06
0.000932507
0.00711965
0.0183888
0.0256864
0.0202921
0.0354686
0.048348
0.0690265
0.0859178
0.10538
0.110044
0.120542
0.120063
0.0275756
1.52211e-06
7.14956e-08
8.01875e-09
3.97801e-09
5.07384e-09
6.36575e-09
1.79046e-08
8.99961e-08
4.53185e-07
2.52358e-06
1.84934e-05
0.000153041
0.00150551
0.00532879
0.0144155
0.0273981
0.0363425
0.051304
0.0576166
0.0700571
0.219663
0.228576
0.228597
0.228591
0.228596
0.228593
0.228597
0.228596
0.228584
0.228581
0.228595
0.228595
0.228594
0.228595
0.228594
0.228595
0.228595
0.228596
0.228595
0.228596
0.228595
0.228596
0.228595
0.228596
0.228595
0.228596
0.228595
0.228596
0.228596
0.228596
0.228596
0.228595
0.228596
0.228595
0.228596
0.228595
0.228596
0.228595
0.228581
0.228582
0.228596
0.228595
0.228596
0.228595
0.228596
0.228595
0.228596
0.228595
0.228596
0.228595
0.228596
0.228595
0.228596
0.228595
0.228596
0.228595
0.228596
0.228595
0.228596
0.228595
0.228596
0.228595
0.228596
0.228595
0.228596
0.228595
0.228596
0.228596
0.228582
0.228581
0.228596
0.228597
0.228596
0.228595
0.228596
0.228595
0.228596
0.228595
0.228596
0.228595
0.228596
0.228595
0.228596
0.228596
0.228596
0.228596
0.228595
0.228596
0.228595
0.228596
0.228595
0.228596
0.228595
0.228596
0.228595
0.228596
0.228596
0.228596
0.228581
0.228582
0.228596
0.228595
0.228596
0.228595
0.228596
0.228595
0.228596
0.228595
0.228596
0.228595
0.228596
0.228595
0.228596
0.228595
0.228596
0.228596
0.228596
0.228595
0.228596
0.228595
0.228596
0.228595
0.228596
0.228595
0.228596
0.228595
0.228597
0.228597
0.228583
1.68433e-06
2.72577e-06
8.43553e-06
2.46872e-05
7.05352e-05
0.000322897
0.00552875
0.0458306
0.0683729
0.0576199
0.0299575
0.0390666
0.0690422
0.0659949
0.0309378
0.0440672
0.0507943
0.0462491
0.0431933
0.0415893
0.0408673
0.0431113
0.0474938
0.0538558
0.0595287
0.0623779
0.0659773
0.0743233
0.0800611
0.0738938
0.0343891
0.000495196
0.000124055
0.000224099
0.0017282
0.0375935
0.0897312
0.122164
0.131703
0.115045
0.0893388
0.0717838
0.0682237
0.0674358
0.0345945
0.0404828
0.0335044
0.0221717
0.0142842
0.00939022
0.00361639
0.00100052
0.000353655
0.00010824
4.47686e-05
4.4089e-05
5.08867e-05
9.90034e-05
0.000943711
0.00260602
0.00984334
0.0170618
0.0197034
0.0215129
0.0217074
0.0494786
0.0737412
0.0844686
0.0847829
0.082571
0.0777482
0.0683143
0.0506106
0.0310891
0.0266621
0.0141573
0.00491267
0.000239692
2.05215e-05
3.79922e-05
0.00144534
0.0145007
0.0209192
0.0174349
0.0096626
0.00615674
0.0176667
0.0378922
0.0385827
0.0355278
0.0355351
0.0359526
0.0354493
0.0428018
0.058929
0.0741844
0.0807692
0.0788809
0.0656487
0.0482471
0.0385146
0.0397675
0.0447289
0.0456731
0.0543737
0.0444986
0.0311739
0.0282273
0.0196298
0.00686084
0.000137976
8.98979e-06
1.47835e-06
1.3053e-06
5.57955e-06
0.000108714
0.00137818
0.00273297
0.00948451
0.0187955
0.0275035
0.0336402
0.0411447
0.0515526
0.0575325
0.0616527
0.0588222
0.06057
0.0772819
0.0902915
0.0815396
0.0691211
0.0718284
0.0746817
0.0278422
8.42811e-06
3.35193e-07
5.68651e-07
4.46733e-06
2.74601e-05
9.07488e-05
8.27731e-05
0.000236588
0.000346007
0.00175273
0.00230269
0.0014714
0.000253934
3.96543e-05
6.90632e-06
2.58012e-06
9.43225e-07
8.58645e-07
5.47503e-07
6.5059e-07
6.85907e-07
8.29857e-07
1.02513e-06
6.37743e-07
1.77803e-06
6.39361e-06
7.58662e-05
0.0319572
0.0836514
0.0255831
0.00506883
0.0313853
0.0498403
0.00109739
2.24303e-07
3.92362e-09
5.89063e-09
5.76524e-09
2.80936e-08
6.27377e-08
2.11331e-07
2.48518e-07
9.03518e-07
8.24733e-08
3.42578e-07
6.68958e-07
1.56247e-06
9.62136e-06
0.000118316
0.00644189
0.0326309
0.0380134
0.029714
0.00600403
2.97912e-05
1.81946e-05
0.0365133
0.0629981
0.177556
9.92229e-05
0.00836202
0.0235483
1.2901e-05
1.53879e-08
3.39586e-09
3.66659e-09
5.69457e-09
3.88422e-09
3.39973e-09
3.23005e-09
3.5611e-09
3.1454e-09
3.0364e-09
2.77657e-09
2.45983e-09
2.58618e-08
7.49992e-07
5.17279e-05
0.00173133
0.00169899
0.00555087
0.00810407
0.033562
0.0332371
0.0828891
0.0767687
0.108453
0.11039
0.109081
3.7221e-05
4.63433e-07
2.77439e-08
7.01862e-09
2.02677e-09
1.64816e-09
1.81515e-09
1.77899e-09
4.62215e-09
1.15054e-08
4.36736e-08
3.72486e-07
4.75533e-06
2.50973e-05
0.000172062
0.000219824
0.000749892
0.00327811
0.0100943
0.0167589
0.023362
0.182091
0.227368
0.2274
0.227408
0.227411
0.22741
0.227414
0.227413
0.227398
0.227391
0.227411
0.227411
0.22741
0.22741
0.22741
0.22741
0.22741
0.22741
0.22741
0.22741
0.22741
0.22741
0.22741
0.22741
0.22741
0.22741
0.22741
0.22741
0.22741
0.22741
0.22741
0.22741
0.22741
0.22741
0.227411
0.227411
0.227412
0.227411
0.227392
0.227393
0.227411
0.227412
0.227411
0.227411
0.227411
0.22741
0.22741
0.22741
0.22741
0.22741
0.22741
0.22741
0.22741
0.22741
0.22741
0.22741
0.22741
0.22741
0.22741
0.22741
0.22741
0.22741
0.22741
0.22741
0.227411
0.227411