/*--------------------------------*- C++ -*----------------------------------*\
| =========                 |                                                 |
| \\      /  F ield         | OpenFOAM: The Open Source CFD Toolbox           |
|  \\    /   O peration     | Version:  2.1.1                                 |
|   \\  /    A nd           | Web:      www.OpenFOAM.org                      |
|    \\/     M anipulation  |                                                 |
\*---------------------------------------------------------------------------*/
FoamFile
{
    version     2.0;
    format      ascii;
    class       volScalarField;
    location    "0.003100000";
    object      omega;
}
// * * * * * * * * * * * * * * * * * * * * * * * * * * * * * * * * * * * * * //

dimensions      [0 0 -1 0 0 0 0];

internalField   nonuniform List<scalar> 
12384
(
1941.71
2391.49
3314.98
3052.65
4327.77
4229.47
5058.55
4650.45
4180.9
3867.68
2866.08
2325.58
1963.71
1486.53
1841.16
4431.73
6810.4
9943.8
12837
15876.3
19759.4
22412.4
25731
26982
25883.2
25487.2
24570.7
23363.1
21668.3
19696.2
17263.4
15153.8
13240.2
11206
10977.3
12067
12178.6
15189.8
15585.8
10594.4
8850.41
4726.57
3591.67
1357.71
13078.7
27733.2
39154
50048.6
57093.9
63836.4
67181.6
69805.9
70085.1
71507.7
70073.8
70105.8
67503.3
65073.1
63623.1
59523.6
57473
52793.9
44101.7
36845.4
27794.8
22764.3
20534.9
18018.5
16179.9
13298.8
12071.6
9298.04
6772.29
3029.69
24981.4
50683.1
66079.3
79322.8
88414.7
94083.8
99462.5
101282
104075
105601
106582
107840
109285
110936
113356
114331
114303
110797
102250
90169.8
72081.4
54754.9
36876
24695.2
17217
12876.7
9673.53
6601.84
5059.55
2393.74
19614.3
39228.5
63512.2
66826
75753.8
73297.6
70711.1
74425.9
79743.9
82769.5
94756.3
92924.9
100849
95989.5
94809
86343.4
76767
66105.5
50572.9
35336.1
23332.8
19667.6
13838.8
10460
6654.56
5125.9
4963.01
3556.57
2488.3
1134.21
2939.45
9019.61
15857.4
24099.4
33679.2
38559.7
37745
37008.7
37743.1
37680.3
36085.2
36338.4
31919.2
31272.7
25020.8
25215.7
22462.4
18013.4
7174.13
4452.57
5772.72
5234.53
4790.27
4390.7
4030.5
3524.84
3470.6
3192.3
1997.31
904.578
1165.15
2689.47
11007.1
31027.3
62468.7
75552.7
91400.9
82583.3
75385.3
58587
43304.9
27501.9
16050.2
8919.3
4997.62
2892.08
2438.03
3218.85
5315.62
10384.2
23056.2
20688.5
1452.23
1198.11
1191.48
1100.78
1009.78
761.663
709.278
654.958
647.271
762.042
841.424
978.006
1051.74
1010.68
979.302
915.186
864.894
850.954
827.642
781.43
794.426
742.959
749.216
897.019
806.924
795.564
772.102
763.395
760.627
873.401
822.305
982.38
924.106
1157.35
1100.63
1279.99
1283.78
1296.37
974.483
990.103
906.7
897.711
866.607
861.173
858.534
882.664
855.201
850.726
815.893
793.532
786.235
821.266
911.1
866.909
1187.51
626.233
615.804
614.978
615.049
615.026
615.047
615.029
615.043
615.03
615.034
615.017
615.016
615.045
615.091
615.045
615.051
615.062
615.066
615.073
615.063
615.072
615.06
615.067
615.057
615.06
615.051
615.047
615.045
615.041
615.046
615.05
615.051
615.06
615.06
615.061
615.074
615.065
615.077
615.071
615.075
615.072
615.072
615.043
615.092
615.058
615.062
615.06
615.068
615.06
615.07
615.059
615.069
615.057
615.064
615.055
615.054
615.048
615.042
615.046
615.047
615.051
615.061
615.056
615.066
615.058
615.071
615.061
615.071
615.063
615.066
615.059
615.051
615.088
615.045
615.065
615.057
615.062
615.077
615.071
615.079
615.068
615.075
615.061
615.068
615.057
615.058
615.05
615.053
615.054
615.049
615.055
615.057
615.066
615.06
615.073
615.065
615.076
615.068
615.073
615.062
615.06
615.066
615.042
615.089
615.056
615.065
615.059
615.078
615.06
615.084
615.059
615.084
615.058
615.078
615.056
615.065
615.05
615.051
615.046
615.045
615.05
615.058
615.054
615.069
615.058
615.075
615.061
615.076
615.063
615.068
615.057
615.05
615.089
2286.71
106587
155754
178079
198188
203574
203673
195441
190315
183361
171706
157340
139039
2426.44
3401.18
120036
182397
252195
337769
437178
545048
659093
775753
878114
957147
1.00777e+06
1.02907e+06
1.01894e+06
979537
914947
837673
759763
689449
628889
577763
532489
491036
442661
388277
331513
279749
236305
178721
3390.44
32372.9
242827
306696
353928
384594
404018
417659
427564
441106
450818
450788
449112
437505
428737
416304
401003
390713
378819
362008
343342
316095
294035
281283
268752
257697
245335
234601
217993
194387
6232.12
51064.9
320226
377966
414825
446033
470510
486585
492731
488147
473600
457305
439493
428920
435833
465732
513606
567928
616948
642727
636721
597656
544986
468936
387839
317491
263681
225559
200934
177428
5894.71
44013.1
391514
582111
735528
851262
922779
962408
985694
987182
958442
904426
823382
748926
684764
630268
581130
532181
476622
420934
364591
328614
316994
307305
306312
302012
249488
245232
228275
217345
2637.25
7600.47
297546
362281
414324
453330
462978
439669
413367
417320
445820
494065
531428
547480
563667
580786
615466
652393
677145
673279
609947
619488
668190
673474
611033
548976
503282
467731
374957
196325
2039.4
10638.9
485335
638347
776393
850404
882598
876308
865321
869437
890986
923514
955585
957017
882875
757379
619467
556697
580912
656635
675743
689810
499864
327588
319925
339731
324872
311130
278582
228323
714.386
817.893
257159
319153
361302
391473
401581
411732
407894
400960
408681
420251
435062
488109
504388
505265
602877
827620
1.06013e+06
1.30297e+06
1.49992e+06
1.60878e+06
1.60215e+06
1.54419e+06
1.5138e+06
1.39233e+06
1.29017e+06
1.08733e+06
935233
688954
1355.46
908.321
377738
430813
393487
359260
358221
368435
393507
410443
432755
438447
427389
391131
334782
242705
141842
42525.3
1532.13
172.531
166.237
165.822
165.477
165.173
164.945
164.753
164.629
164.528
164.516
171.068
613.5
613.509
171.069
164.448
164.427
164.436
164.455
164.466
164.493
164.509
164.536
164.548
164.583
164.626
164.659
164.682
164.701
164.676
164.64
164.568
164.551
164.544
164.511
164.496
164.466
164.459
164.438
164.429
164.44
170.725
613.599
613.567
170.934
164.469
164.431
164.454
164.457
164.478
164.49
164.52
164.536
164.56
164.58
164.642
164.664
164.703
164.694
164.674
164.63
164.584
164.543
164.527
164.492
164.474
164.445
164.436
164.425
164.429
164.475
171.12
613.535
613.594
170.871
164.481
164.408
164.416
164.411
164.441
164.46
164.501
164.525
164.558
164.587
164.645
164.667
164.694
164.697
164.67
164.645
164.582
164.555
164.524
164.507
164.471
164.459
164.433
164.437
164.417
164.466
170.825
613.599
613.574
170.921
164.466
164.426
164.449
164.451
164.467
164.474
164.499
164.515
164.546
164.571
164.634
164.672
164.704
164.694
164.671
164.627
164.592
164.55
164.529
164.492
164.469
164.436
164.426
164.415
164.421
164.478
171.121
613.541
2906.66
154073
207519
238751
261530
263124
256119
243650
233485
225501
216572
207161
196165
4296.03
6385.32
165347
260353
367847
479012
587155
696597
810312
920709
1.02326e+06
1.11292e+06
1.18152e+06
1.22476e+06
1.23794e+06
1.21593e+06
1.15356e+06
1.05372e+06
927159
800977
691296
609180
544655
492360
438869
384279
331734
279886
233748
141047
4091.34
41155.1
318173
360147
389561
410206
425322
438441
454556
474649
490464
494266
493263
482903
472864
456111
440952
428900
417073
403517
388384
369470
344744
322641
306638
293002
278759
265134
251484
227012
7571.8
62122.3
381771
422761
452070
480754
504446
514119
515125
506038
498675
495947
494656
499396
515256
539399
567184
587732
603198
607372
595468
566665
522834
471750
414438
359514
313285
282364
264836
245236
11997.4
51171.8
421790
558623
682634
794434
875222
927062
952852
958450
940985
897309
846435
801979
772591
759273
740002
711056
666400
604280
535757
484970
462164
453109
451731
451108
431580
442031
466215
411018
3205.41
11026.1
352317
427915
483171
525883
519750
495358
497784
539111
597688
661492
703723
731941
756605
772148
780883
784328
777673
757503
730316
750160
800441
802716
754641
681528
606694
527544
410448
235489
2278.77
26057.8
685472
852397
943214
1.00631e+06
1.04452e+06
1.04227e+06
1.04238e+06
1.03088e+06
1.00554e+06
962101
917469
883741
822746
732807
632242
580386
628562
820017
1.0801e+06
1.1952e+06
1.00791e+06
528129
418658
400627
361108
329484
306713
259045
796.224
793.601
425364
520538
555662
587375
597716
599180
587510
574760
571842
591204
610687
636914
632520
635869
768122
1.06775e+06
1.32475e+06
1.48032e+06
1.53502e+06
1.52625e+06
1.50872e+06
1.50742e+06
1.50907e+06
1.48536e+06
1.37306e+06
1.22385e+06
1.06214e+06
837804
1305.8
746.014
596687
716887
659157
607437
577143
571128
565110
570826
564875
554305
521296
476097
394174
295034
179589
70888.1
7451.53
264.461
159.993
159.765
159.532
159.367
159.212
159.116
159.022
158.968
158.95
163.916
594.108
594.12
163.913
158.858
158.801
158.773
158.765
158.732
158.724
158.69
158.679
158.638
158.618
158.563
158.53
158.478
158.482
158.499
158.569
158.616
158.658
158.683
158.714
158.756
158.767
158.801
158.807
158.833
158.877
163.88
594.274
594.123
163.9
158.889
158.81
158.809
158.774
158.767
158.73
158.719
158.679
158.663
158.613
158.579
158.517
158.489
158.469
158.513
158.547
158.604
158.627
158.67
158.686
158.725
158.736
158.775
158.787
158.819
158.865
163.881
594.124
594.261
163.876
158.866
158.814
158.8
158.761
158.75
158.714
158.702
158.663
158.648
158.599
158.57
158.511
158.475
158.476
158.511
158.571
158.601
158.65
158.664
158.704
158.714
158.751
158.76
158.797
158.803
158.863
163.885
594.258
594.119
163.899
158.882
158.804
158.803
158.769
158.761
158.724
158.714
158.675
158.661
158.615
158.585
158.524
158.493
158.465
158.503
158.539
158.597
158.62
158.664
158.68
158.72
158.731
158.77
158.783
158.817
158.867
163.88
594.122
3891.22
205361
254976
295782
318403
325683
321586
313491
301129
288348
272446
254832
234969
7988.82
14930.2
247335
387271
484680
556559
621925
690595
765458
845069
926763
1.00808e+06
1.08789e+06
1.16264e+06
1.22316e+06
1.25234e+06
1.23834e+06
1.16993e+06
1.05034e+06
901470
756317
642430
558269
493035
438261
380991
323416
269078
226140
160317
4837.2
50399.4
382923
399167
411803
424879
437739
453817
473571
495116
513675
522139
522093
513454
501265
482793
467674
451297
433082
412629
397610
386404
369362
347771
328505
313527
299223
283856
274490
256969
12086.8
70447.8
427161
454144
479167
509149
533420
540527
536503
528730
533875
553439
579761
623870
672873
705261
706865
673052
628579
594522
566943
542806
515960
484000
443496
397970
360297
337359
322599
299061
24676.8
56133.5
441326
541150
639360
740792
824500
887590
915911
922882
910449
883232
859016
855591
861777
873405
874829
849703
797898
721465
643083
586865
559631
554792
560937
571673
549345
557700
591120
566740
5727.06
17617.3
388073
493934
563033
591769
574977
562189
600136
679769
760812
829907
876153
917114
949617
968696
966296
949305
925000
888408
864133
882422
893926
851197
775357
681877
589314
506757
378950
240959
2467.98
33223.9
814214
936427
997168
1.08115e+06
1.13885e+06
1.16993e+06
1.20565e+06
1.22784e+06
1.23417e+06
1.22264e+06
1.17956e+06
1.08369e+06
952419
810874
670858
611219
662791
863661
1.14745e+06
1.31033e+06
1.23162e+06
966597
791866
683663
557642
441586
349780
302155
1064.27
906.702
453328
604782
644586
691101
723110
737027
723150
713447
711113
718975
735474
746053
729280
701363
773973
996792
1.22272e+06
1.35786e+06
1.42494e+06
1.46761e+06
1.51381e+06
1.5381e+06
1.54164e+06
1.52271e+06
1.43967e+06
1.32512e+06
1.17344e+06
959421
1231.33
764.389
717890
898533
869921
804779
783388
774428
753426
742971
726976
705924
679025
634081
566213
473352
349885
210669
81135.6
7815.81
272.774
159.388
159.141
158.932
158.755
158.618
158.5
158.417
158.413
164.402
594.087
594.105
164.386
158.328
158.262
158.251
158.248
158.24
158.239
158.234
158.233
158.228
158.225
158.22
158.218
158.214
158.216
158.216
158.221
158.221
158.231
158.239
158.23
158.232
158.233
158.238
158.239
158.247
158.316
164.378
594.007
594.119
164.362
158.318
158.243
158.24
158.235
158.235
158.231
158.231
158.227
158.226
158.221
158.22
158.215
158.215
158.213
158.217
158.219
158.224
158.226
158.231
158.232
158.237
158.239
158.246
158.248
158.255
158.323
164.371
594.105
594.008
164.388
158.324
158.247
158.249
158.243
158.241
158.234
158.232
158.227
158.226
158.22
158.219
158.215
158.222
158.221
158.215
158.218
158.219
158.224
158.226
158.231
158.232
158.238
158.241
158.248
158.251
158.329
164.393
594.01
594.115
164.365
158.316
158.242
158.239
158.235
158.235
158.233
158.232
158.23
158.229
158.224
158.221
158.216
158.214
158.212
158.215
158.216
158.221
158.225
158.23
158.232
158.238
158.24
158.247
158.248
158.256
158.324
164.372
594.106
5181.11
252409
298912
333047
348811
351025
353673
357732
360152
354575
335357
309364
279698
16120
24346.9
374608
511219
557439
567138
572453
589603
621130
661809
709505
765946
833931
911110
996488
1.08047e+06
1.14323e+06
1.14844e+06
1.08154e+06
949610
794706
658840
561385
484931
423148
362445
302897
248711
216220
169671
5336.82
57475
441766
437248
437619
448357
464871
484920
506427
527176
542396
548828
545948
537490
523765
508133
493403
471989
443527
412267
394597
389079
377464
356782
336974
323985
315186
308148
306215
295362
17114.9
82110.3
463682
484131
506160
532470
554864
563695
558152
558595
582026
638332
719801
839361
947924
988850
944322
834279
710580
626452
589991
574045
555661
532694
497064
454747
423832
405604
394075
378521
51858.8
61746.6
469711
547821
631807
725297
808832
869729
891902
893968
886327
881111
885943
918841
952968
966764
958471
923908
867846
791828
711810
654063
623399
634280
669286
706083
704481
714342
740303
677724
8483.77
45202.3
494102
614604
662819
650445
628659
651461
734515
837788
927628
992766
1.03596e+06
1.07756e+06
1.1161e+06
1.14531e+06
1.16117e+06
1.16346e+06
1.152e+06
1.11227e+06
1.06052e+06
1.02648e+06
983363
903695
794073
685255
594656
524885
452175
258860
3103.54
41712.4
914699
948175
956425
1.04683e+06
1.13772e+06
1.22152e+06
1.33124e+06
1.45226e+06
1.58097e+06
1.7028e+06
1.77012e+06
1.74108e+06
1.55547e+06
1.26512e+06
922371
652526
606481
702413
918830
1.14842e+06
1.20803e+06
1.13934e+06
1.0637e+06
982452
816426
607761
448785
372652
2060.95
1122.94
517248
665795
724732
794033
849696
875380
880008
873870
869390
855040
843959
826036
790843
759975
812565
1.00452e+06
1.20052e+06
1.34299e+06
1.42507e+06
1.48794e+06
1.53776e+06
1.56663e+06
1.60493e+06
1.59944e+06
1.54554e+06
1.44748e+06
1.30202e+06
1.11423e+06
1089.86
1046.76
784514
1.10767e+06
1.13314e+06
1.05652e+06
999242
947648
921944
877525
844799
813791
773798
721123
664737
579711
474099
343521
205826
80182.9
7527.94
253.572
159.321
159.079
158.885
158.711
158.589
158.477
158.476
164.523
596.331
596.346
164.513
158.386
158.306
158.313
158.302
158.312
158.3
158.311
158.299
158.309
158.297
158.306
158.294
158.304
158.292
158.304
158.292
158.303
158.301
158.297
158.307
158.295
158.308
158.297
158.309
158.3
158.381
164.532
596.414
596.335
164.499
158.363
158.309
158.295
158.308
158.296
158.309
158.297
158.308
158.295
158.306
158.293
158.303
158.29
158.302
158.292
158.305
158.295
158.307
158.296
158.307
158.295
158.307
158.295
158.308
158.298
158.378
164.495
596.341
596.412
164.512
158.377
158.31
158.296
158.308
158.295
158.308
158.296
158.308
158.295
158.306
158.293
158.302
158.292
158.292
158.302
158.291
158.305
158.294
158.307
158.295
158.307
158.294
158.307
158.295
158.309
158.372
164.51
596.409
596.34
164.5
158.363
158.309
158.295
158.309
158.297
158.309
158.298
158.31
158.297
158.308
158.294
158.303
158.29
158.301
158.289
158.302
158.292
158.307
158.297
158.308
158.296
158.308
158.296
158.31
158.3
158.38
164.496
596.34
6331.42
296746
338502
363645
369060
362919
362306
369419
384412
397887
397670
380444
353683
33668.6
49000.8
502751
583795
569234
530448
506418
506919
524769
549682
577506
608886
652744
715176
795307
888280
979077
1.03608e+06
1.02896e+06
934661
795055
656065
550629
468889
401127
342212
291612
248933
233653
175222
7610.47
65318.7
495077
476323
472001
484098
503882
525535
545481
561914
570765
573634
565674
553565
537333
520945
502615
477652
444847
412517
395720
390702
376375
351889
331830
325680
330338
342728
358125
367977
36250.1
95097
493801
509884
531609
556144
572071
576570
574655
593067
644687
742021
909481
1.14102e+06
1.30262e+06
1.31944e+06
1.1928e+06
999533
800968
670953
645572
654166
646022
619626
575487
524824
488519
467025
465676
470921
89032.8
63773
524104
582643
654099
743989
819877
866690
875240
875416
877812
897052
936775
993867
1.03183e+06
1.0466e+06
1.03451e+06
1.00226e+06
948052
876770
799577
742255
720762
742148
791471
846835
867322
893225
920189
835544
32966.3
106363
682530
757416
757554
706267
701663
772995
888374
999264
1.08073e+06
1.12897e+06
1.16988e+06
1.21416e+06
1.25549e+06
1.29696e+06
1.33552e+06
1.37194e+06
1.39295e+06
1.38506e+06
1.34399e+06
1.29294e+06
1.1898e+06
1.05263e+06
887987
732872
609566
514216
448258
322042
5145.42
62029.4
1.04074e+06
970359
894595
956311
1.06987e+06
1.20974e+06
1.4034e+06
1.62495e+06
1.84714e+06
2.05192e+06
2.20883e+06
2.29749e+06
2.24055e+06
1.97694e+06
1.52722e+06
997340
622404
611492
708709
856000
955549
1.00208e+06
1.03988e+06
1.04422e+06
941210
752331
566229
455735
5341.23
1680.42
599987
750565
824509
898309
955537
975907
982812
992319
1.0013e+06
998858
983672
936966
860357
802393
857030
1.044e+06
1.25163e+06
1.41313e+06
1.50086e+06
1.56698e+06
1.59576e+06
1.6433e+06
1.69137e+06
1.69673e+06
1.65766e+06
1.5687e+06
1.44872e+06
1.25368e+06
1007.51
1561.83
837967
1.2868e+06
1.39475e+06
1.33762e+06
1.24753e+06
1.14214e+06
1.06765e+06
1.0249e+06
979421
941866
885241
826780
755574
674615
568425
447728
312957
183402
67174.7
5012.16
205.33
159.228
159.008
158.811
158.665
158.543
158.527
164.515
598.895
598.922
164.506
158.419
158.338
158.343
158.335
158.343
158.334
158.342
158.334
158.34
158.331
158.336
158.327
158.334
158.326
158.334
158.325
158.331
158.336
158.331
158.336
158.328
158.337
158.329
158.337
158.33
158.408
164.465
598.919
598.917
164.474
158.397
158.337
158.328
158.337
158.33
158.338
158.331
158.338
158.329
158.336
158.327
158.333
158.324
158.332
158.325
158.334
158.328
158.336
158.329
158.336
158.328
158.334
158.327
158.335
158.331
158.408
164.478
598.912
598.919
164.474
158.407
158.338
158.328
158.335
158.327
158.336
158.329
158.337
158.328
158.336
158.326
158.331
158.329
158.328
158.33
158.325
158.334
158.328
158.337
158.328
158.336
158.326
158.334
158.324
158.335
158.406
164.479
598.916
598.918
164.47
158.396
158.335
158.327
158.337
158.329
158.339
158.332
158.34
158.332
158.337
158.327
158.332
158.323
158.331
158.323
158.333
158.328
158.337
158.331
158.338
158.33
158.337
158.329
158.338
158.334
158.41
164.484
598.911
7733.56
325951
376111
395752
390011
373191
363349
363826
378702
408675
443014
459730
467879
62663.8
97284.6
582074
604566
555453
504073
479637
480853
493452
509243
523774
537774
557274
593457
655901
743501
837056
914144
938666
882523
767445
639402
535689
453557
385661
334468
301317
277534
259505
199369
11628.5
77239.5
547940
512946
504665
519793
542537
565093
583333
594715
596782
593448
578756
561301
538911
521305
503265
481283
455483
431716
417664
403460
375435
343495
323378
325743
348984
385920
424767
462050
57632.5
111590
528618
541718
559424
575826
581276
583849
592853
632437
707391
845228
1.10038e+06
1.41786e+06
1.58916e+06
1.56364e+06
1.37444e+06
1.12201e+06
892105
747725
737589
772423
768568
726442
666425
600709
552371
533114
544623
550256
123976
80446.2
619752
643812
703676
786900
847972
874000
869937
869342
884552
932108
1.00359e+06
1.07427e+06
1.1224e+06
1.13706e+06
1.13341e+06
1.11223e+06
1.07431e+06
1.02749e+06
968578
920043
896045
912066
955830
1.01017e+06
1.03772e+06
1.07817e+06
1.12333e+06
1.05308e+06
73935.5
175326
808788
843142
811422
766976
810436
925533
1.0507e+06
1.14847e+06
1.20996e+06
1.24659e+06
1.28473e+06
1.32725e+06
1.37184e+06
1.41731e+06
1.46693e+06
1.52154e+06
1.56713e+06
1.58628e+06
1.58542e+06
1.56622e+06
1.49343e+06
1.33436e+06
1.1546e+06
986308
816070
637123
498373
369295
18446.9
83614.2
1.18926e+06
1.00742e+06
853320
879717
994796
1.16037e+06
1.39805e+06
1.65628e+06
1.88966e+06
2.09184e+06
2.25692e+06
2.39387e+06
2.4583e+06
2.37004e+06
2.08479e+06
1.58088e+06
976019
596919
678543
794836
725699
734741
826357
901016
865897
732521
534346
478608
3466.56
4582.06
622834
824976
942096
1.02863e+06
1.05967e+06
1.04201e+06
1.0331e+06
1.05663e+06
1.09523e+06
1.10522e+06
1.0954e+06
1.03687e+06
947779
879853
899824
1.02999e+06
1.23312e+06
1.41094e+06
1.55163e+06
1.62549e+06
1.67414e+06
1.73284e+06
1.78598e+06
1.80151e+06
1.75745e+06
1.68999e+06
1.60486e+06
1.47043e+06
1022.68
1896.61
1.00784e+06
1.47304e+06
1.65198e+06
1.64228e+06
1.55309e+06
1.42745e+06
1.316e+06
1.22522e+06
1.1616e+06
1.09071e+06
1.02976e+06
946785
868187
769876
663495
535793
401170
267484
146622
45308.8
2108.22
167.825
159.197
158.969
158.789
158.642
158.602
164.682
603.978
604.008
164.718
158.461
158.38
158.379
158.374
158.377
158.372
158.376
158.371
158.374
158.368
158.37
158.365
158.369
158.364
158.367
158.362
158.365
158.373
158.368
158.369
158.363
158.368
158.363
158.365
158.362
158.436
164.621
604.018
604.001
164.634
158.43
158.364
158.361
158.368
158.365
158.371
158.368
158.372
158.367
158.369
158.364
158.367
158.363
158.366
158.363
158.368
158.365
158.369
158.365
158.369
158.363
158.366
158.362
158.365
158.365
158.438
164.633
604.002
604.019
164.622
158.44
158.369
158.363
158.365
158.362
158.368
158.365
158.369
158.365
158.369
158.363
158.366
158.365
158.364
158.365
158.362
158.368
158.364
158.368
158.364
158.367
158.361
158.363
158.358
158.362
158.439
164.627
604.017
604.004
164.626
158.428
158.363
158.36
158.367
158.363
158.369
158.366
158.371
158.367
158.37
158.364
158.366
158.361
158.365
158.362
158.367
158.366
158.37
158.368
158.371
158.368
158.37
158.364
158.37
158.368
158.442
164.637
604.001
9274.67
345787
401370
416608
406007
377678
354868
353891
372081
410989
473820
522933
555985
82959.3
162508
630484
602948
543362
500476
486267
490804
498551
507040
512535
517462
525598
548599
591767
663404
746733
821917
855221
820138
728597
616159
517746
438161
376665
342737
335962
340626
306044
235412
35783
97852.4
608076
548369
535493
553218
578354
601126
616723
625459
624104
617492
599455
581896
560384
550734
540146
529892
513926
493286
466563
430022
385154
346910
326863
335314
373575
429369
487741
554406
88624.8
133598
572168
578217
588304
597651
600157
603502
622670
670087
747414
905550
1.21026e+06
1.56455e+06
1.72904e+06
1.67916e+06
1.47533e+06
1.23247e+06
1.02994e+06
908277
893284
912071
894422
836646
765999
699745
661897
665599
677867
634547
158266
114509
754892
722332
761543
826272
865691
871683
860440
869847
905453
981118
1.08567e+06
1.16706e+06
1.22271e+06
1.2475e+06
1.26475e+06
1.27103e+06
1.26526e+06
1.25466e+06
1.20274e+06
1.13936e+06
1.07426e+06
1.06782e+06
1.10263e+06
1.14888e+06
1.19401e+06
1.238e+06
1.29412e+06
1.21746e+06
167200
229463
897955
900996
865065
866023
952163
1.08066e+06
1.19377e+06
1.27297e+06
1.32063e+06
1.35426e+06
1.38838e+06
1.42658e+06
1.46911e+06
1.51456e+06
1.55886e+06
1.59619e+06
1.60457e+06
1.57888e+06
1.5358e+06
1.49961e+06
1.46876e+06
1.40721e+06
1.30656e+06
1.19767e+06
1.07925e+06
939974
742983
510534
76676.6
113750
1.37268e+06
1.07185e+06
865331
853867
939204
1.10126e+06
1.36145e+06
1.62941e+06
1.86073e+06
2.05023e+06
2.20265e+06
2.29803e+06
2.33789e+06
2.30808e+06
2.1962e+06
1.93904e+06
1.45126e+06
826166
634651
841056
765222
621684
666587
722457
702893
680366
547810
471517
2115.37
14529.1
586267
840278
1.025e+06
1.16774e+06
1.23121e+06
1.20531e+06
1.15844e+06
1.12682e+06
1.11557e+06
1.10959e+06
1.10342e+06
1.08948e+06
1.03242e+06
966490
951504
1.00616e+06
1.13424e+06
1.30666e+06
1.4846e+06
1.61e+06
1.70929e+06
1.78254e+06
1.84994e+06
1.86125e+06
1.85535e+06
1.78506e+06
1.72725e+06
1.57626e+06
1079.02
1720.63
1.25266e+06
1.71378e+06
1.87363e+06
1.87838e+06
1.82514e+06
1.73054e+06
1.61047e+06
1.49725e+06
1.39602e+06
1.29961e+06
1.20023e+06
1.10136e+06
988609
880320
756903
634307
486011
346871
216524
100168
19729.5
537.719
159.483
159.145
158.926
158.746
158.679
164.647
609.317
609.383
164.648
158.518
158.433
158.428
158.421
158.421
158.417
158.418
158.414
158.414
158.41
158.411
158.409
158.41
158.407
158.409
158.406
158.406
158.415
158.411
158.411
158.407
158.409
158.407
158.408
158.406
158.478
164.565
609.336
609.338
164.574
158.473
158.408
158.406
158.41
158.409
158.412
158.41
158.412
158.409
158.41
158.408
158.409
158.406
158.408
158.408
158.41
158.408
158.41
158.408
158.41
158.406
158.407
158.404
158.407
158.409
158.48
164.582
609.336
609.337
164.565
158.481
158.412
158.407
158.407
158.405
158.409
158.407
158.41
158.407
158.41
158.407
158.409
158.408
158.407
158.408
158.406
158.409
158.407
158.41
158.407
158.408
158.404
158.405
158.402
158.405
158.48
164.57
609.336
609.338
164.571
158.471
158.407
158.405
158.409
158.407
158.411
158.409
158.412
158.41
158.411
158.407
158.408
158.405
158.407
158.405
158.408
158.408
158.411
158.41
158.413
158.411
158.411
158.408
158.411
158.413
158.484
164.582
609.318
10949.5
354395
414052
427470
408090
372732
345163
354738
379245
416374
497944
596696
651301
548506
165188
187730
681942
669154
600796
548492
521773
516529
521690
526494
530620
530678
529585
535919
555880
589022
640068
703998
765967
791158
763638
690149
590842
502495
435695
393973
387718
411124
453672
480824
458086
378991
102124
142412
706482
656831
581101
578180
604973
635636
660240
673766
679399
677598
669733
654188
639692
628087
628843
626055
619770
600288
565549
518686
465035
414165
374178
356038
365184
400606
459917
541797
638710
529166
169200
195058
627519
642254
621109
616420
616746
617713
625488
648153
688789
754129
902012
1.20834e+06
1.55416e+06
1.71613e+06
1.67819e+06
1.52444e+06
1.3563e+06
1.2257e+06
1.13816e+06
1.08857e+06
1.0637e+06
1.0265e+06
967289
913537
889558
920419
1.00116e+06
1.0746e+06
1.04976e+06
811271
209478
201352
935738
896901
807412
820384
855886
870943
863157
863343
890727
953252
1.05373e+06
1.16364e+06
1.25653e+06
1.32955e+06
1.37816e+06
1.42661e+06
1.47052e+06
1.50987e+06
1.53133e+06
1.49354e+06
1.40342e+06
1.27343e+06
1.1882e+06
1.19309e+06
1.24761e+06
1.30633e+06
1.36479e+06
1.41846e+06
1.36433e+06
1.02046e+06
270054
299141
968014
999033
965712
955802
1.00531e+06
1.11017e+06
1.2244e+06
1.31045e+06
1.37332e+06
1.40946e+06
1.44157e+06
1.47204e+06
1.50532e+06
1.53984e+06
1.56839e+06
1.57848e+06
1.55206e+06
1.48149e+06
1.37628e+06
1.26923e+06
1.2071e+06
1.21022e+06
1.26401e+06
1.30483e+06
1.30637e+06
1.27895e+06
1.22663e+06
1.14252e+06
1.02075e+06
904530
233712
194204
1.2839e+06
1.5684e+06
1.17439e+06
927527
854868
898559
1.05827e+06
1.30566e+06
1.56788e+06
1.82058e+06
2.02195e+06
2.15087e+06
2.17776e+06
2.1387e+06
2.07892e+06
2.03316e+06
1.9357e+06
1.67855e+06
1.17899e+06
670603
784914
764768
708598
711568
702648
613931
591164
549198
530323
358866
9774.95
15826.8
401153
645823
844310
1.0577e+06
1.26593e+06
1.42073e+06
1.45791e+06
1.42353e+06
1.32113e+06
1.24403e+06
1.18335e+06
1.15449e+06
1.12884e+06
1.09756e+06
1.05642e+06
1.01443e+06
1.01934e+06
1.07881e+06
1.18851e+06
1.35549e+06
1.5118e+06
1.65419e+06
1.78809e+06
1.8391e+06
1.88327e+06
1.87428e+06
1.88468e+06
1.85918e+06
1.90851e+06
1.31255e+06
4216.12
2233.78
979326
1.50012e+06
1.83764e+06
1.99474e+06
2.01791e+06
2.03355e+06
2.00099e+06
1.89005e+06
1.78137e+06
1.65421e+06
1.55746e+06
1.44173e+06
1.31958e+06
1.18743e+06
1.04944e+06
915875
772953
626929
445754
288655
151213
47634.4
3046.68
189.339
159.424
159.209
159.05
158.968
159.16
171.99
618.846
618.852
172.24
159.059
158.714
158.624
158.567
158.527
158.503
158.485
158.476
158.466
158.461
158.454
158.451
158.449
158.448
158.446
158.447
158.446
158.448
158.457
158.457
158.461
158.466
158.477
158.491
158.511
158.536
158.569
158.804
171.534
618.858
618.851
171.62
158.807
158.566
158.536
158.51
158.494
158.478
158.471
158.463
158.459
158.454
158.451
158.448
158.447
158.446
158.447
158.447
158.448
158.449
158.453
158.456
158.461
158.467
158.478
158.492
158.514
158.541
158.573
158.812
171.616
618.85
618.861
171.55
158.809
158.574
158.543
158.513
158.492
158.476
158.468
158.46
158.456
158.451
158.451
158.447
158.447
158.447
158.446
158.446
158.446
158.45
158.451
158.456
158.46
158.468
158.476
158.492
158.51
158.539
158.575
158.814
171.555
618.857
618.85
171.616
158.803
158.564
158.536
158.509
158.492
158.476
158.469
158.461
158.459
158.454
158.453
158.449
158.449
158.446
158.447
158.448
158.453
158.458
158.466
158.474
158.489
158.507
158.536
158.574
158.633
158.706
158.795
159.094
172.425
618.843
618.478
13102.9
354393
414273
424080
398016
364521
346023
368088
393168
423406
517229
652045
740124
734295
664533
644545
655671
647802
595848
567591
557832
561438
571462
580546
582994
572498
554087
546556
560567
592141
634795
684233
730121
744053
717686
655245
570448
498251
447444
420101
424817
456946
524070
637786
783905
922043
1.03286e+06
1.03132e+06
922609
728891
691985
703920
732619
760240
778160
785958
784353
774095
756668
739578
730624
726074
725552
718967
699460
665708
620761
569408
518140
474990
449751
447445
459181
483653
533334
620115
714507
707997
636167
679344
746690
698942
670285
652446
640646
633557
638393
655364
679045
721726
838481
1.11309e+06
1.43996e+06
1.62088e+06
1.63106e+06
1.5528e+06
1.47745e+06
1.42356e+06
1.36473e+06
1.29911e+06
1.24534e+06
1.2007e+06
1.16096e+06
1.1434e+06
1.17251e+06
1.26699e+06
1.40639e+06
1.55143e+06
1.65703e+06
1.6701e+06
1.61972e+06
1.48018e+06
1.2595e+06
1.00805e+06
909272
886801
883939
879268
875616
893321
935059
1.01412e+06
1.12292e+06
1.23586e+06
1.33759e+06
1.41969e+06
1.49497e+06
1.5707e+06
1.6564e+06
1.74936e+06
1.81683e+06
1.81258e+06
1.70967e+06
1.51922e+06
1.35027e+06
1.29532e+06
1.33988e+06
1.39101e+06
1.43163e+06
1.44324e+06
1.38908e+06
1.24631e+06
1.16902e+06
1.16533e+06
1.15833e+06
1.10517e+06
1.07495e+06
1.08956e+06
1.1568e+06
1.25014e+06
1.33985e+06
1.40513e+06
1.45092e+06
1.47828e+06
1.49791e+06
1.51689e+06
1.53547e+06
1.54346e+06
1.53167e+06
1.48681e+06
1.40287e+06
1.27751e+06
1.13239e+06
1.0061e+06
963666
1.03127e+06
1.18216e+06
1.3353e+06
1.41962e+06
1.45714e+06
1.45586e+06
1.42279e+06
1.38047e+06
1.36327e+06
1.37102e+06
1.44089e+06
1.85785e+06
1.73245e+06
1.34453e+06
1.03468e+06
869327
883894
1.02737e+06
1.24306e+06
1.48907e+06
1.74828e+06