/*--------------------------------*- C++ -*----------------------------------*\
| =========                 |                                                 |
| \\      /  F ield         | OpenFOAM: The Open Source CFD Toolbox           |
|  \\    /   O peration     | Version:  2.1.1                                 |
|   \\  /    A nd           | Web:      www.OpenFOAM.org                      |
|    \\/     M anipulation  |                                                 |
\*---------------------------------------------------------------------------*/
FoamFile
{
    version     2.0;
    format      ascii;
    class       volScalarField;
    location    "0.003100000";
    object      p;
}
// * * * * * * * * * * * * * * * * * * * * * * * * * * * * * * * * * * * * * //

dimensions      [1 -1 -2 0 0 0 0];

internalField   nonuniform List<scalar> 
12384
(
572582
514800
516128
514485
544135
533050
537563
547660
562749
557446
622606
628028
681560
709478
442682
440781
446351
455842
460209
466494
473631
474373
476511
474338
472679
471720
473013
474399
471931
480647
471999
492611
509287
490483
595510
559265
683987
808190
905539
978526
955633
843926
792815
716742
506036
499321
474642
480287
454433
463337
454479
459970
457825
463293
462174
466673
470902
470824
475199
466828
471879
453421
453823
468024
477402
476207
462956
445133
444708
428658
423214
422211
420525
424410
743405
742337
699756
703025
721815
738080
743147
729318
706611
656806
618242
524799
498039
471379
461679
468327
496387
526548
551403
589633
584409
577223
555438
563535
560784
566645
566608
565093
569238
554936
673484
688305
694759
720031
741306
759287
775159
777140
788881
792462
787233
798427
687051
510197
542081
376237
432031
360432
372896
356361
345595
351756
342011
347474
330893
338965
352849
346603
348871
352569
695293
675900
753088
750895
816461
854768
867563
858327
762406
696589
633827
555096
585334
584304
616389
672928
699460
718154
683126
737375
721340
696494
585939
615640
441570
524241
523444
548574
549531
527614
1.31913e+06
1.31764e+06
1.35642e+06
1.32234e+06
1.32656e+06
1.30017e+06
1.33123e+06
1.32768e+06
1.34333e+06
1.34451e+06
1.33961e+06
1.3242e+06
1.31797e+06
1.29665e+06
1.37383e+06
1.37965e+06
1.46448e+06
1.44488e+06
1.35632e+06
1.34417e+06
965832
983684
860591
859245
853309
870571
915180
882002
932015
940298
605801
595585
608803
590757
584171
561366
564286
583173
637725
739937
863710
907735
821376
676892
796267
1.47609e+06
2.17635e+06
2.05802e+06
2.14308e+06
1.43427e+06
1.27319e+06
862069
1.04488e+06
690517
812710
596717
666990
597691
616253
628908
1.22343e+06
1.13713e+06
1.37322e+06
1.39032e+06
1.53711e+06
1.58234e+06
1.60911e+06
1.52444e+06
1.69614e+06
1.71594e+06
2.01359e+06
2.16536e+06
2.3561e+06
2.18348e+06
1.79362e+06
1.96071e+06
1.02381e+06
122479
100279
101667
101611
101542
101569
101505
101527
101478
101491
101471
101462
101467
101340
101340
101339
101339
101337
101337
101335
101335
101332
101333
101331
101331
101329
101329
101328
101328
101327
101326
101326
101325
101325
101325
101325
101325
101325
101325
101324
101325
101324
101324
101324
101324
101324
101324
101324
101324
101324
101324
101324
101324
101324
101324
101324
101324
101324
101324
101324
101324
101324
101324
101324
101324
101324
101324
101324
101324
101324
101324
101324
101324
101324
101324
101324
101324
101324
101324
101324
101324
101324
101324
101324
101324
101324
101324
101324
101324
101324
101324
101324
101324
101324
101324
101324
101324
101324
101324
101324
101324
101324
101324
101325
101325
101324
101324
101324
101324
101324
101324
101324
101324
101323
101323
101323
101323
101323
101323
101323
101323
101323
101323
101323
101323
101323
101323
101323
101323
101323
101323
101323
101323
543972
568921
569643
556782
535232
533825
539021
548577
557440
582223
609713
639886
685028
712290
449455
453419
459489
458083
465832
473073
474780
475251
474991
476404
473515
471289
472555
470340
474566
475152
477156
495578
491327
546717
536742
627170
674596
779766
889046
931638
879762
850398
804268
790272
504674
492455
476664
471365
458156
455918
455902
459341
458685
464554
461583
470394
468285
478209
474206
472805
472649
463502
458958
481047
482151
471668
470565
454094
449448
439916
440140
437201
435075
420760
723942
696259
701459
676241
684716
698551
699662
693933
667439
636811
603033
589543
554868
535399
518563
511252
509062
521860
560782
564493
570325
557928
562926
558980
571498
572163
577982
583925
576265
575920
674937
669282
687270
695172
715924
732349
746631
767399
774182
772402
793373
789948
703057
570323
427495
439407
379906
399516
389137
368318
339311
341686
341106
341200
333773
354462
339628
330850
331917
347648
638923
677955
651779
707543
708908
750621
765387
749780
741247
633943
589526
571804
539658
577999
595768
639362
677662
696621
696853
704817
727975
676101
615063
528157
563409
528010
514038
516223
548226
521933
1.34408e+06
1.33676e+06
1.32044e+06
1.31942e+06
1.2592e+06
1.26341e+06
1.24533e+06
1.27572e+06
1.26805e+06
1.27693e+06
1.27788e+06
1.27425e+06
1.26525e+06
1.31524e+06
1.29035e+06
1.40364e+06
1.44775e+06
1.5159e+06
1.27307e+06
1.17148e+06
998258
930387
984552
881763
979211
903104
898464
860949
787169
800735
620316
628896
615832
615353
602186
602946
607052
620952
676274
717911
777506
791184
713058
626737
776555
1.49099e+06
1.60504e+06
2.11562e+06
1.76996e+06
1.70429e+06
970937
1.15168e+06
796439
880999
654300
696869
603704
624576
610881
614079
1.0902e+06
1.28567e+06
1.28422e+06
1.43453e+06
1.42567e+06
1.53677e+06
1.48237e+06
1.55119e+06
1.41981e+06
1.61771e+06
1.63216e+06
1.75355e+06
1.68981e+06
1.77162e+06
1.967e+06
1.42135e+06
1.48503e+06
183305
103894
101354
101614
101547
101557
101525
101502
101500
101472
101479
101458
101462
101340
101338
101338
101336
101336
101334
101334
101332
101332
101329
101329
101327
101327
101326
101326
101324
101325
101324
101324
101323
101323
101323
101322
101323
101322
101322
101322
101322
101321
101322
101321
101322
101321
101322
101321
101322
101321
101322
101321
101322
101321
101322
101321
101322
101321
101322
101321
101322
101321
101322
101321
101322
101321
101322
101321
101322
101321
101322
101321
101322
101322
101322
101321
101322
101321
101322
101321
101322
101321
101322
101321
101322
101321
101321
101321
101321
101321
101321
101321
101321
101321
101321
101322
101321
101322
101321
101322
101321
101321
101321
101322
101322
101322
101322
101321
101322
101321
101322
101321
101322
101321
101321
101320
101321
101320
101321
101320
101321
101320
101321
101320
101321
101320
101321
101320
101321
101320
101321
101321
101321
611024
579073
582354
558736
564442
552026
558050
556172
564069
591520
604853
648277
682401
713132
448908
454627
457201
462541
473533
474206
479542
481374
481291
475781
474832
470638
467872
470323
466710
482850
469765
513718
488946
564943
550237
584537
732889
726840
864947
889946
878611
837841
840696
839737
491903
493573
468209
473136
452608
458316
454826
459163
459475
462154
469161
466456
479719
476264
486950
472235
476928
465801
474953
483854
482518
490104
485025
475019
456813
443474
432050
430073
430717
446370
638023
651281
652034
676582
672201
662094
671369
657169
632709
608109
611672
600396
601416
589042
573393
554882
543042
536566
534818
550802
550522
559781
552292
576223
572358
583046
594637
587723
588287
588418
649038
666263
656845
679337
683883
703521
725019
755443
761050
814674
793235
784387
758611
571615
480774
512572
450825
372130
328521
351401
385776
351928
353800
336103
356774
356315
379980
427442
415055
397482
653179
628745
661061
630380
675665
666529
666778
668754
639639
579196
590977
520100
537143
540639
555855
609345
638342
678022
700106
726373
700260
654257
593877
592213
519017
535920
535278
511510
559482
521909
1.36318e+06
1.34025e+06
1.28511e+06
1.23049e+06
1.22369e+06
1.16616e+06
1.1907e+06
1.17208e+06
1.20246e+06
1.2002e+06
1.19854e+06
1.21723e+06
1.24786e+06
1.24269e+06
1.31223e+06
1.343e+06
1.45395e+06
1.39169e+06
1.2368e+06
955302
975065
1.00773e+06
879482
1.17244e+06
956945
906626
1.1797e+06
838728
697832
592205
646730
616235
598462
583584
585597
600102
602410
637792
644892
693174
681408
670992
623593
573403
707561
1.4218e+06
1.96067e+06
1.77804e+06
1.87907e+06
1.19042e+06
1.37956e+06
909612
1.05903e+06
719499
823356
591238
672946
585432
622008
619246
1.21056e+06
1.24205e+06
1.34158e+06
1.33382e+06
1.44608e+06
1.25031e+06
1.28914e+06
1.18837e+06
1.31655e+06
1.20272e+06
1.18808e+06
1.14522e+06
1.36605e+06
1.55622e+06
1.29056e+06
1.5474e+06
1.12488e+06
321071
102508
101095
101596
101550
101558
101532
101495
101506
101470
101481
101459
101469
101344
101345
101343
101343
101341
101341
101339
101339
101336
101337
101334
101334
101332
101333
101330
101331
101329
101330
101329
101329
101329
101328
101329
101328
101328
101328
101328
101327
101328
101328
101328
101327
101328
101327
101328
101327
101328
101327
101328
101327
101327
101327
101327
101326
101327
101326
101327
101326
101327
101327
101327
101327
101328
101327
101328
101327
101328
101327
101327
101327
101328
101328
101328
101327
101328
101327
101328
101327
101328
101327
101327
101327
101327
101326
101327
101327
101326
101327
101326
101327
101327
101327
101327
101328
101327
101328
101327
101328
101327
101328
101328
101328
101329
101327
101328
101327
101328
101327
101327
101326
101327
101326
101327
101326
101327
101326
101326
101326
101326
101326
101327
101326
101327
101326
101327
101326
101327
101326
101327
101327
612833
606062
582784
588002
558463
561987
561954
557285
582836
584494
609619
647300
677927
704452
464357
464076
466920
473969
473959
479199
479680
480429
477843
478431
474665
471780
466949
463421
474053
474009
477304
520431
497386
576499
563608
624611
664155
763396
822016
883378
846673
842398
784940
741888
495521
476581
470250
461560
455688
452312
454969
460751
457515
469335
464355
478343
473410
489638
481347
489574
469367
482296
483760
481472
500691
499260
492501
482270
468777
462168
459684
456514
451790
438252
647647
609712
584414
582314
608456
616844
597609
587318
578601
601418
602914
615088
633215
635273
621861
592476
556248
533539
524698
522658
537897
536968
564907
577996
584509
605210
601174
602628
600119
600341
648347
629335
649876
641197
663733
688188
704071
748567
795786
847162
876957
828522
762020
643206
468603
464289
485484
544980
529190
441867
364809
344589
325639
327935
336106
362454
372003
357304
401905
429958
616461
630148
604302
634387
587429
604059
629053
630338
573961
585153
499036
528887
514685
499048
550955
542763
611649
630826
690075
728672
733516
633613
627488
524459
552357
534173
495798
555516
539388
545841
1.37298e+06
1.33025e+06
1.22634e+06
1.19566e+06
1.10549e+06
1.16222e+06
1.12363e+06
1.14015e+06
1.10343e+06
1.11578e+06
1.12782e+06
1.18259e+06
1.22452e+06
1.28819e+06
1.29533e+06
1.35829e+06
1.36621e+06
1.26064e+06
1.06032e+06
918180
820861
784777
949145
797817
992242
775243
781578
778413
640903
580476
649316
635368
608524
615914
610695
610135
639362
644057
665886
645271
649434
624873
583245
524598
587295
1.27878e+06
1.89002e+06
1.98072e+06
1.65544e+06
1.46549e+06
1.10586e+06
1.20607e+06
844154
939643
655088
732657
590321
636638
603996
605737
1.22342e+06
1.0953e+06
1.10325e+06
1.17547e+06
968055
1.05524e+06
938725
953034
824460
829721
779370
964828
1.00176e+06
934893
1.33102e+06
1.31547e+06
1.21031e+06
1.21573e+06
323871
103262
100977
101570
101527
101542
101497
101495
101478
101471
101464
101458
101347
101344
101346
101339
101341
101337
101338
101335
101335
101332
101333
101330
101331
101328
101330
101327
101328
101326
101328
101325
101326
101326
101325
101326
101324
101326
101324
101326
101324
101325
101324
101325
101323
101325
101323
101325
101323
101325
101323
101325
101323
101325
101323
101325
101323
101325
101323
101325
101323
101325
101323
101325
101323
101325
101323
101325
101323
101325
101324
101324
101324
101324
101324
101325
101323
101325
101323
101325
101323
101325
101323
101325
101323
101325
101323
101323
101325
101323
101325
101323
101325
101323
101325
101323
101325
101323
101325
101324
101324
101324
101325
101325
101324
101326
101323
101326
101323
101325
101323
101325
101323
101325
101322
101324
101322
101324
101322
101324
101322
101324
101322
101324
101322
101324
101322
101325
101323
101325
101324
101324
602869
593041
582878
586125
568987
570963
573307
563163
586904
589910
608442
642380
662921
692577
465083
466526
470827
472995
479145
482108
487856
489567
491878
486498
480875
473074
468822
467189
470438
476672
490859
513153
533401
559066
601651
632667
640927
724076
817079
854683
897726
838266
752011
665752
474668
480443
462246
456027
452663
455035
456200
454842
461648
463047
482742
484191
504900
496796
510123
494059
497530
483550
482801
498930
499020
508942
505435
497644
489274
474698
461907
457424
455691
456172
551672
586041
606095
591526
574360
593262
597339
582791
584564
562475
588955
618951
645202
656825
642634
606064
552521
521829
503848
504182
538316
526275
574045
585849
604371
604128
609184
607963
608464
607956
589751
608499
594548
626917
637969
675840
723054
780386
846034
898039
941435
922793
819956
701689
631592
637671
597736
579677
598661
610993
598181
522834
455391
416064
413436
443178
503734
523097
515825
574057
624288
612145
614526
589255
615291
597451
571426
549261
576074
497613
492310
460874
462885
504874
486016
544896
535088
620261
642288
714603
704887
662856
566603
561292
563602
550799
605101
528678
618009
595801
1.3853e+06
1.2921e+06
1.19829e+06
1.11124e+06
1.12386e+06
1.02855e+06
1.08252e+06
1.07879e+06
1.08525e+06
1.03759e+06
1.05238e+06
1.12163e+06
1.28469e+06
1.40655e+06
1.43065e+06
1.31682e+06
1.25314e+06
1.00346e+06
867948
743356
748578
787712
706145
819372
683762
794541
748880
673351
698002
673088
668163
642485
621448
600363
607556
632096
642904
652252
639894
626962
573625
550865
533829
519726
538596
1.10817e+06
1.88635e+06
1.89341e+06
1.77275e+06
1.29061e+06
1.39225e+06
989664
1.10049e+06
758014
851044
608203
689270
587326
631840
613519
784428
757478
749672
778842
932256
829311
773706
647938
758568
663067
771417
838879
773421
1.03535e+06
1.03001e+06
1.10601e+06
1.30254e+06
1.19737e+06
1.25782e+06
352413
103461
100971
101551
101527
101518
101484
101493
101461
101473
101455
101345
101345
101343
101346
101340
101342
101337
101338
101336
101334
101333
101332
101331
101330
101329
101328
101327
101327
101326
101327
101326
101326
101325
101325
101325
101325
101325
101325
101325
101325
101324
101324
101324
101324
101324
101324
101324
101324
101324
101324
101324
101324
101324
101324
101324
101324
101324
101324
101324
101324
101324
101324
101324
101324
101324
101324
101324
101324
101324
101324
101324
101324
101324
101324
101325
101324
101325
101324
101324
101324
101324
101324
101324
101324
101324
101324
101324
101324
101324
101324
101324
101324
101324
101324
101324
101324
101324
101324
101324
101324
101325
101325
101325
101325
101325
101324
101325
101324
101324
101324
101324
101323
101324
101323
101323
101323
101323
101323
101323
101323
101323
101323
101324
101323
101324
101324
101324
101324
101324
101324
571655
571234
574761
569733
572008
577277
573435
577736
586795
587888
620270
620842
658147
666548
468714
476772
476173
479950
483972
490809
492283
495091
491992
489508
484258
481876
474868
466888
482890
472268
513753
510448
560808
568771
605944
654555
641403
711229
752858
837017
821695
840728
852236
1.35476e+06
484313
468630
463909
461433
454297
445254
446538
456745
483974
487080
487596
498708
502352
519074
506740
516292
498415
502033
487199
497987
499970
509703
512324
509131
500452
488172
479063
475606
470079
479469
569602
522860
515008
517651
514993
497402
500481
504143
497527
530323
564649
601873
634241
650027
637819
592309
541420
510270
491432
492489
525168
545427
587126
592681
607269
605302
603493
605755
600613
610526
607592
603276
615816
616948
632274
702859
767783
834086
894458
959431
999892
981694
857797
683877
661094
671462
680998
698412
691963
689804
681680
664938
658033
612858
607203
582007
590397
632238
640599
554841
616571
631425
605507
598518
579683
580028
563079
575130
497109
492700
467962
457782
469236
451340
498543
479451
551935
552623
628376
662478
702228
620348
609018
576248
583738
659239
643231
656584
662223
632671
1.39495e+06
1.27023e+06
1.13526e+06
1.06457e+06
1.02902e+06
1.0606e+06
978457
992123
986577
983157
970549
1.06137e+06
1.28335e+06
1.49102e+06
1.4715e+06
1.23148e+06
890213
819169
731005
759731
752184
691753
653557
615555
717715
674366
624874
678218
809451
861500
712185
651571
655284
654978
638979
640863
642113
642920
635188
581251
571848
551891
570575
478733
599463
1.01914e+06
1.46572e+06
1.97319e+06
1.53953e+06
1.57713e+06
1.13268e+06
1.23967e+06
905067
990073
681117
781429
580591
661389
602697
615680
458120
492126
698418
609495
953696
771387
966314
688525
852466
623769
819200
783832
811922
943957
944355
1.13805e+06
1.18269e+06
1.30551e+06
1.18024e+06
1.2759e+06
312611
103837
101066
101557
101499
101507
101486
101465
101468
101462
101351
101353
101354
101345
101347
101341
101343
101338
101338
101336
101335
101333
101333
101330
101331
101328
101329
101328
101328
101327
101327
101326
101326
101326
101325
101326
101325
101326
101325
101325
101325
101325
101325
101325
101325
101325
101325
101325
101325
101325
101324
101325
101324
101325
101324
101325
101324
101325
101324
101325
101324
101325
101324
101325
101325
101325
101325
101325
101325
101325
101325
101325
101325
101325
101325
101325
101325
101325
101325
101325
101324
101325
101324
101325
101324
101324
101325
101324
101325
101324
101325
101324
101325
101324
101325
101325
101325
101325
101325
101325
101325
101326
101325
101326
101325
101325
101325
101325
101324
101325
101324
101325
101324
101324
101324
101324
101324
101324
101324
101324
101324
101324
101324
101325
101324
101325
101324
101325
101325
101325
549229
546307
550980
560230
570616
572545
575370
587488
590527
596618
607643
629566
628936
664192
488220
480657
484255
489772
494248
497066
502635
504160
504254
499409
491472
482053
477509
486673
493622
490008
531113
516598
585276
580432
633769
644962
683164
686875
730185
765660
798176
770679
769512
869918
463525
477743
453240
441108
439233
460865
481964
488382
463798
483451
509733
529531
536647
534003
537320
517616
517950
495992
499461
487726
494710
504167
508744
510332
507916
497817
492758
484698
493450
500771
506932
539933
542640
537415
531820
533455
520715
513463
521523
523987
539710
556790
581065
601165
601366
572351
528371
497629
499187
500835
536017
571385
596119
603231
603106
599810
595362
589741
593601
594039
529198
557246
597456
634418
686196
759600
818612
883006
933703
1.00272e+06
1.01824e+06
984028
827006
723293
647477
678415
675859
664686
673254
678074
681923
708734
723377
794920
811743
813840
743913
702169
681639
671820
646873
645042
636773
599599
579694
580722
550082
512052
477826
468609
416291
437117
431954
461332
446943
500486
478195
569109
561724
649788
642574
664387
628870
655272
735629
733585
771479
800277
827354
862511
1.39562e+06
1.23926e+06
1.11499e+06
981900
1.01241e+06
961399
1.01194e+06
946062
948595
936945
924275
938382
1.11109e+06
1.30814e+06
1.26938e+06
864960
790357
702474
739111
726623
671615
652803
666956
652560
624779
580695
654453
611086
774376
919363
652323
664012
659325
647973
664986
666857
668534
630548
609455
591669
542059
605689
535186
599386
768123
973614
1.765e+06
1.67821e+06
1.80368e+06
1.4042e+06
1.36378e+06
1.0631e+06
1.10374e+06
817432
833837
704541
651065
657467
589187
615105
374038
606147
602053
952164
866300
1.12912e+06
1.03604e+06
1.16464e+06
858020
1.05039e+06
761804
1.02944e+06
827988
951274
1.0568e+06
1.05798e+06
1.22905e+06
1.23285e+06
1.31932e+06
1.15294e+06
1.28492e+06
205434
103993
101192
101533
101487
101495
101468
101461
101463
101368
101355
101353
101354
101347
101348
101342
101341
101339
101336
101337
101332
101333
101331
101329
101330
101328
101328
101327
101327
101326
101326
101326
101326
101325
101325
101325
101325
101325
101325
101325
101325
101325
101325
101325
101325
101325
101325
101324
101324
101324
101324
101324
101324
101324
101324
101324
101324
101324
101324
101324
101324
101324
101324
101324
101324
101324
101324
101324
101325
101325
101325
101325
101325
101325
101325
101325
101324
101324
101324
101324
101324
101324
101324
101324
101324
101324
101324
101324
101324
101324
101324
101324
101324
101324
101324
101325
101325
101325
101325
101325
101325
101325
101325
101325
101325
101325
101324
101324
101324
101324
101324
101324
101324
101324
101324
101324
101324
101324
101324
101324
101324
101324
101324
101324
101324
101324
101324
101325
101325
526234
536451
535460
545356
557276
563971
574802
594745
592841
601164
605919
613366
632020
637767
490104
500804
499175
499804
502233
506880
509575
511160
509195
506903
504003
495270
494090
483183
499483
498356
539252
532125
598335
605046
648169
668195
683910
703851
700079
721142
723649
739303
726786
719566
516516
497422
484887
486902
509449
492374
482776
489143
534039
547237
559029
561780
558978
554649
538814
534916
508845
510531
488403
491038
483379
487132
495169
497901
499898
504237
497028
510523
514136
517257
524078
497731
492813
479600
473856
462531
454710
455744
460149
483803
508847
525116
528164
541352
553270
554762
520788
502468
498743
528447
562055
590949
607427
609988
601844
591423
580367
570177
552730
589359
556799
583305
645441
678373
749052
804918
854474
907233
959400
1.00247e+06
1.01032e+06
920125
769935
709798
647577
632840
639105
654540
647748
642176
645081
645404
725757
790229
907834
931624
876231
778577
714034
582312
681277
660958
642621
640916
584688
576527
558056
491319
463313
448539
411476
396642
409292
410452
453483
441568
505383
481697
575871
569661
651358
648683
696226
734328
730942
758620
858816
910165
1.03207e+06
1.01242e+06
1.407e+06
1.22149e+06
1.08429e+06
956985
923835
938286
907831
959660
884696
850336
845497
899236
953132
1.05144e+06
968627
814680
632802
680494
634876
640895
626429
632774
593024
598369
585652
627998
628375
662026
627355
835083
610206
655321
663777
679620
666123
671151
662392
672069
612166
574378
628527
576611
665100
607953
851665
913471
1.70896e+06
1.75867e+06
1.93303e+06
1.70971e+06
1.52704e+06
1.20596e+06
1.16687e+06
939771
967662
689400
775173
652511
686862
593728
630443
711605
895369
748180
1.06777e+06
1.04699e+06
1.20072e+06
1.14122e+06
1.20818e+06
1.04981e+06
1.18819e+06
989234
1.21331e+06
957793
1.19296e+06
1.08457e+06
1.24359e+06
1.25728e+06
1.28444e+06
1.36722e+06
1.14423e+06
537146
106347
102351
101418
101505
101487
101475
101461
101462
101346
101368
101360
101353
101354
101347
101348
101341
101342
101338
101338
101335
101334
101331
101332
101330
101330
101329
101329
101328
101328
101327
101327
101327
101326
101326
101326
101326
101326
101326
101325
101326
101325
101326
101325
101325
101325
101325
101325
101325
101325
101325
101325
101325
101325
101325
101325
101325
101325
101325
101325
101325
101325
101325
101325
101325
101325
101325
101325
101325
101325
101325
101326
101326
101325
101326
101325
101325
101325
101325
101325
101325
101325
101325
101325
101325
101325
101325
101325
101325
101325
101325
101325
101325
101325
101325
101325
101326
101325
101326
101326
101326
101326
101326
101326
101326
101325
101326
101325
101325
101325
101325
101325
101325
101325
101325
101325
101325
101325
101325
101325
101325
101325
101325
101325
101325
101325
101326
101326
101326
528408
519428
531824
529679
548795
553157
581822
593452
598753
605496
613515
613933
619097
616975
570768
499948
523076
492271
500817
505094
509835
513073
516138
517742
518344
514977
505880
508848
500037
515134
517176
520873
552376
552976
610719
630997
670493
686970
697414
701610
711565
705569
719419
719785
705179
637164
626905
551093
522039
493046
499193
507006
480620
501230
529926
565470
566310
579980
575993
577363
572329
557988
545900
523897
521852
494402
496338
474914
474719
465238
470923
485142
492247
488827
516511
524820
532408
544662
532568
513376
503549
509973
502655
500167
487325
480771
477128
480189
481405
481592
494492
496654
492941
497041
519284
536086
535196
512372
494120
565715
582477
609068
619682
615168
606520
594963
589742
568927
555025
560338
465374
354250
517795
632023
677741
735576
788644
824392
869952
911209
962151
982543
939950
835893
738166
664406
649137
626496
618409
602615
597542
598626
617742
647975
665844
754438
853233
917586
896494
821198
759965
696402
735233
730780
700008
678152
648165
647166
618208
575733
529030
524086
428810
457962
392292
414587
400951
422252
413002
454021
441740
503524
476106
594948
577946
716937
692324
718285
770789
732982
877618
952833
1.0183e+06
1.03351e+06
1.15002e+06
989572
1.23512e+06
1.13222e+06
1.03704e+06
920067
946806
917788
905566
866146
892163
845887
836086
808197
866571
876307
849976
711573
706667
610445
662813
632597
641699
603390
617116
602116
614246
620524
620532
637098
661640
619370
560927
575982
575490
638393
665753
670772
709068
716579
720896
685729
649464
647207
598254
682194
626168
739624
802400
895642
1.66986e+06
1.7299e+06
2.01581e+06
2.03637e+06
1.77332e+06
1.54374e+06
1.30353e+06
954635
872464
912163
666210
733966
470655
434637
236776
458127
680923
746424
674431
1.04359e+06
958662
1.126e+06
1.08518e+06
1.16496e+06
1.10771e+06
1.19618e+06
1.15205e+06
1.28137e+06
1.20006e+06
1.3575e+06
1.12874e+06
1.3836e+06
1.16122e+06
1.45478e+06
1.25257e+06
1.31322e+06
1.40807e+06
975609
224229
97603.1
101924
101457
101504
101453
101465
101430
101435
101393
101403
101370
101370
101363
101354
101355
101346
101345
101343
101338
101339
101334
101336
101331
101331
101331
101329
101329
101328
101328
101327
101327
101326
101326
101326
101326
101325
101326
101325
101326
101326
101326
101325
101325
101325
101325
101325
101325
101325
101325
101325
101325
101325
101325
101325
101325
101325
101325
101325
101325
101325
101325
101325
101325
101325
101325
101325
101325
101325
101325
101325
101325
101325
101325
101325
101325
101325
101325
101325
101325
101325
101325
101325
101325
101325
101325
101325
101324
101324
101324
101324
101324
101324
101325
101325
101325
101325
101325
101325
101325
101325
101325
101325
101325
101326
101326
101325
101325
101325
101325
101325
101325
101325
101325
101325
101325
101325
101325
101325
101324
101324
101324
101324
101324
101324
101324
101325
101325
101325
101325
101325
101325
101325
101325
101326
101326
101326
101326
516320
528921
520711
536945
529900
556895
581414
589068
611348
612763
615043
619260
613487
600991
559398
519084
520484
504728
509587
513547
516082
517741
519969
522607
522736
519360
520792
509370
522792
513093
533360
538325
569789
579381
626669
659693
691092
706401
711682
705735
704508
711971
716106
708058
691185
678954
651807
571681
573119
574368
562689
546806
572058
587018
597232
586100
593154
585844
587343
576906
566973
557295
533409
531895
501574
505169
475502
479006
453576
452909
443328
449851
491638
474803
516493
531362
543002
546151
534132
514041
509237
496359
480344
469070
465987
450046
459006
465717
467014
491489
497281
514194
510746
520001
516207
534836
543261
523317
528930
580811
596075
620387
619629
617534
606705
614270
605910
607258
590343
566143
517647
474956
589629
691769
700456
764064
785541
842816
858903
919638
939528
930801
853408
772399
690196
653556
622287
621381
615379
619237
612644
600628
595292
589680
654044
694011
801417
852360
846500
799222
767535
692080
719690
705171
683930
666164
653420
638993
618925
615108
516696
545982
448204
444604
412244
405226
402386
399873
420839
411377
450566
424353
477659
533536
651904
667852
773346
746207
784537
716593
913147
937365
988640
1.03622e+06
994020
1.04325e+06
1.14216e+06
1.06107e+06
971090
934196
878191
882317
883386
837775
795319
801967
775251
788744
808339
796697
738575
748342
620257
632355
592251
620254
610215
616142
609628
605747
611048
608541
622352
615651
624612
610875
567387
558343
582198
623574
647617
692911
709959
757903
764580
771285
742468
711455
710665
623678
752609
665526
807264
843653
1.50741e+06
1.69216e+06
2.04285e+06
2.12729e+06
2.11118e+06
1.97711e+06
1.729e+06
1.55271e+06
1.35043e+06
1.00424e+06
832366
628144
515826
424249
514857
875955
1.09767e+06
983671
951223
931930
1.15075e+06
1.00771e+06
1.07894e+06
939923
1.07114e+06
1.00725e+06
1.19178e+06
1.15904e+06
1.34967e+06
1.31989e+06
1.48652e+06
1.30206e+06
1.58973e+06
1.28403e+06
1.68171e+06
1.30455e+06
1.31899e+06
1.4818e+06
362189
105582
100207
101533
101494
101461
101463
101434
101433
101400
101403
101372
101383
101357
101363
101355
101349
101349
101342
101344
101338
101339
101335
101334
101333
101331
101331
101329
101330
101328
101329
101328
101328
101327
101327
101327
101327
101326
101326
101326
101326
101326
101326
101326
101326
101326
101326
101326
101326
101326
101326
101326
101326
101326
101326
101326
101326
101326
101326
101326
101326
101326
101326
101326
101326
101326
101326
101326
101326
101326
101326
101326
101326
101326
101326
101326
101326
101326
101326
101326
101326
101326
101326
101326
101325
101325
101325
101325
101325
101325
101325
101325
101325
101325
101326
101325
101326
101326
101326
101326
101326
101326
101326
101326
101326
101326
101326
101326
101326
101326
101326
101326
101326
101326
101326
101326
101325
101325
101325
101325
101325
101325
101325
101325
101325
101325
101325
101326
101326
101326
101326
101326
101326
101326
101326
101327
101327
101327
549887
532991
541781
528484
537302
556991
570560
597634
609338
619277
620973
618189
615601
581784
551177
513369
523177
508580
515093
513590
518068
516929
520248
522932
523830
526421
519858
529430
521028
544416
543784
561100
586910
606537
655265
686287
715639
729076
728305
712546
707674
712351
717883
717983
708333
689640
655865
600911
607999
586605
588315
607656
611741
615857
606570
604743
587521
590151
573087
572176
553278
549224
526223
526916
497880
493293
475246
459378
459763
441870
447640
433792
480202
471644
508928
534488
547169
543955
528651
511453
506887
486320
483750
471832
459552
460919
464089
465110
483954
495972
513780
508660
514549
509834
521318
535624
541067
550128
536855
585418
600320
616904
624811
614691
628925
622012
623673
600589
580592
572183
510294
619812
615802
703650
698923
770541
782813
831089
877356
900592
914433
855703
775051
714404
663349
649086
618601
596857