/*--------------------------------*- C++ -*----------------------------------*\
| =========                 |                                                 |
| \\      /  F ield         | OpenFOAM: The Open Source CFD Toolbox           |
|  \\    /   O peration     | Version:  2.1.1                                 |
|   \\  /    A nd           | Web:      www.OpenFOAM.org                      |
|    \\/     M anipulation  |                                                 |
\*---------------------------------------------------------------------------*/
FoamFile
{
    version     2.0;
    format      ascii;
    class       volVectorField;
    location    "0.003100000";
    object      U;
}
// * * * * * * * * * * * * * * * * * * * * * * * * * * * * * * * * * * * * * //

dimensions      [0 1 -1 0 0 0 0];

internalField   nonuniform List<vector> 
12384
(
(-48.5431 -45.1741 0)
(-91.6255 -72.1941 0)
(-117.718 -72.8395 0)
(-106.299 -19.1732 0)
(-75.866 -22.8943 0)
(-67.7107 -7.61341 0)
(-56.5555 -10.7096 0)
(-38.3237 -10.7905 0)
(-36.9124 1.51166 0)
(-22.9869 0.190076 0)
(6.82282 10.0069 0)
(15.3644 3.69189 0)
(13.1997 8.66453 0)
(15.0542 -14.3013 0)
(2.64424 -7.54431 0)
(9.68792 -13.2647 0)
(27.4547 -13.3573 0)
(58.3306 -16.3114 0)
(90.1605 -14.0983 0)
(120.263 -13.8745 0)
(147.831 -13.6107 0)
(172.725 -8.69636 0)
(198.818 -3.96122 0)
(226.795 -1.99024 0)
(254.753 -0.037434 0)
(278.146 0.331217 0)
(298.317 4.99285 0)
(317.892 8.53594 0)
(326.451 11.6899 0)
(333.315 20.3489 0)
(330.116 13.0831 0)
(322.248 21.3526 0)
(327.913 7.64961 0)
(291.858 2.57535 0)
(297.051 10.6585 0)
(250.187 -37.2521 0)
(173.04 25.7435 0)
(113.807 -40.586 0)
(-11.275 -1.79495 0)
(-29.436 -18.189 0)
(-49.1273 -5.97236 0)
(-37.4312 14.0967 0)
(-17.1104 72.5758 0)
(-36.5076 20.6609 0)
(-19.7848 11.7165 0)
(-24.5936 20.335 0)
(-35.7703 12.5792 0)
(-31.5036 18.4078 0)
(-16.9826 10.7925 0)
(0.957956 16.6692 0)
(27.5104 8.76633 0)
(48.349 9.08916 0)
(68.0543 8.46281 0)
(90.0752 8.72003 0)
(115.565 8.33337 0)
(133.38 9.25348 0)
(163.011 9.56172 0)
(185.305 12.6007 0)
(199.654 8.86744 0)
(192.313 9.16072 0)
(152.487 10.2537 0)
(117.089 4.4141 0)
(52.0391 -3.48843 0)
(-24.3491 1.89419 0)
(-42.7005 16.0681 0)
(-52.8416 11.6598 0)
(-45.225 10.7337 0)
(-38.4839 9.79365 0)
(-26.3814 7.91359 0)
(-6.0802 1.69443 0)
(3.69195 -1.79308 0)
(8.77629 0.503625 0)
(11.4787 0.950073 0)
(8.95356 8.53238 0)
(-49.8326 -37.6864 0)
(-110.647 -18.1768 0)
(-151.1 -5.49248 0)
(-179.221 1.73246 0)
(-167.216 3.43437 0)
(-144.109 -7.82375 0)
(-115.555 -17.8348 0)
(-77.6518 -14.9226 0)
(-39.5067 -14.6263 0)
(-33.379 -36.0673 0)
(-29.7795 -23.1675 0)
(-23.4182 -48.1723 0)
(-20.8319 -36.0309 0)
(8.27511 -33.7579 0)
(49.0031 -31.9301 0)
(101.091 -28.2701 0)
(129.093 -33.3737 0)
(108.705 -38.2712 0)
(61.9954 -33.2875 0)
(38.8955 -21.0767 0)
(19.5716 -10.3365 0)
(10.2507 1.74735 0)
(-9.72092 5.69083 0)
(-36.5282 19.34 0)
(-65.6267 12.658 0)
(-95.8362 18.0976 0)
(-104.69 6.95746 0)
(-98.32 8.61542 0)
(-63.4818 13.8659 0)
(-21.0843 10.7126 0)
(-9.50153 31.2744 0)
(1.54249 41.9167 0)
(32.0127 15.5182 0)
(72.2052 17.8613 0)
(129.233 13.4 0)
(171.181 15.698 0)
(201.968 16.2326 0)
(216.652 13.0098 0)
(233.298 -0.283457 0)
(253.025 -5.48746 0)
(280.433 -17.0663 0)
(250.507 -43.893 0)
(224.641 15.2782 0)
(84.8669 -56.9529 0)
(-10.8123 42.2869 0)
(2.42339 -3.68787 0)
(-12.5711 27.099 0)
(37.7265 20.7798 0)
(47.2482 11.4749 0)
(79.8967 32.6883 0)
(98.5503 23.0494 0)
(100.186 33.071 0)
(107.499 27.1075 0)
(88.6591 28.2899 0)
(64.9699 40.0575 0)
(40.762 57.9665 0)
(31.2342 43.6787 0)
(5.51421 52.2945 0)
(-19.4195 34.9574 0)
(-15.8796 24.9524 0)
(20.9714 -47.1973 0)
(-16.7187 -84.9499 0)
(-22.0414 -54.3398 0)
(14.4282 -95.4539 0)
(46.8747 -82.3085 0)
(113.417 -94.3292 0)
(132.16 -68.5752 0)
(104.308 -71.3115 0)
(55.1928 -1.1851 0)
(-92.0452 -55.3099 0)
(-140.73 13.7155 0)
(-163.288 -34.6422 0)
(-182.379 -15.8168 0)
(-177.017 -7.40957 0)
(-221.051 -15.377 0)
(-255.79 -3.0858 0)
(-243.987 -21.9912 0)
(-196.711 7.85544 0)
(-201.861 26.3627 0)
(-157.036 67.4894 0)
(-118.522 41.868 0)
(-114.956 77.7898 0)
(-233.874 50.9375 0)
(-155.257 161.987 0)
(-101.943 -5.78615 0)
(-174.733 31.0618 0)
(-156.298 34.6759 0)
(-132.198 60.2403 0)
(-49.6826 -8.5859 0)
(-10.3457 19.4581 0)
(-17.4825 -3.61382 0)
(-75.951 15.9976 0)
(-160.745 24.2544 0)
(-234.341 3.65601 0)
(-230.517 1.69774 0)
(-202.462 -18.6918 0)
(-130.804 -10.0842 0)
(-31.689 -22.0089 0)
(85.1677 -39.2251 0)
(213.748 -38.5377 0)
(347.979 -26.614 0)
(463.696 -13.3604 0)
(531.988 2.58997 0)
(560.171 19.1415 0)
(582.157 35.3467 0)
(571.076 27.1978 0)
(538.578 19.7759 0)
(506.381 36.5817 0)
(354.924 -26.6561 0)
(104.938 2.27051 0)
(43.2877 -65.85 0)
(-18.887 -33.7407 0)
(-46.272 -30.388 0)
(-90.7288 -33.1324 0)
(-103.263 -32.5185 0)
(-118.064 -46.6588 0)
(-131.968 13.5351 0)
(-131.213 20.7837 0)
(-101.696 34.6713 0)
(-32.8707 22.561 0)
(-1.94082 40.1127 0)
(6.48823 46.4506 0)
(3.0169 32.7185 0)
(1.06159 45.1681 0)
(-9.71672 47.7168 0)
(-15.9213 39.6022 0)
(-16.5099 26.1059 0)
(-20.957 43.0209 0)
(-24.83 16.5435 0)
(-12.9478 14.2059 0)
(21.9789 9.8853 0)
(45.5526 2.70908 0)
(70.3821 8.30037 0)
(36.9358 18.9965 0)
(-158.539 41.9591 0)
(-454.451 110.443 0)
(-349.43 148.965 0)
(-620.079 127.828 0)
(-667.995 124.445 0)
(-918.453 8.19416 0)
(-602.017 81.7596 0)
(-706.323 -62.8594 0)
(-469.632 66.2083 0)
(-466.219 -41.2886 0)
(-315.074 102.72 0)
(-273.38 -1.07616 0)
(-196.769 100.866 0)
(-117.103 41.5172 0)
(-103.135 87.313 0)
(-35.4605 66.7995 0)
(42.359 137.009 0)
(58.312 118.198 0)
(104.659 116.736 0)
(184.055 94.552 0)
(241.627 77.0794 0)
(272.899 55.9181 0)
(275.832 57.1178 0)
(280.796 32.4304 0)
(302.545 54.4577 0)
(407.749 19.8309 0)
(527.358 3.19616 0)
(671.489 -46.8094 0)
(784.177 -86.7641 0)
(847.688 -43.0329 0)
(993.511 -147.98 0)
(645.456 -70.7201 0)
(513.872 -35.2547 0)
(41.982 1.11171 0)
(0.244725 -0.207022 0)
(0.520754 -0.0134471 0)
(0.615642 -2.46971e-05 0)
(0.541745 -0.0153257 0)
(0.458971 0.0036653 0)
(0.409485 -0.00606248 0)
(0.322551 -0.000720631 0)
(0.282604 0.00518985 0)
(0.200091 -0.0086072 0)
(0.153393 0.0109515 0)
(0.0902883 -0.00514142 0)
(0.0207828 0.0139861 0)
(0.00333531 -0.00972484 0)
(0.0105537 -0.00715264 0)
(0.0165018 -0.00638886 0)
(0.0203529 -0.00539268 0)
(0.0235418 -0.00522348 0)
(0.0237328 -0.00283168 0)
(0.0249304 -0.00467562 0)
(0.0224691 -0.00116246 0)
(0.0223931 -0.00401851 0)
(0.0186922 -0.000285076 0)
(0.0182881 -0.00345678 0)
(0.0147426 2.51972e-05 0)
(0.0139735 -0.0027573 0)
(0.0108136 3.76787e-05 0)
(0.00983571 -0.00238532 0)
(0.00736782 1.47622e-05 0)
(0.00617501 -0.00209445 0)
(0.00432837 -9.89668e-05 0)
(0.0032347 -0.00188741 0)
(0.00200155 -0.000100472 0)
(-0.000373589 -0.000181564 0)
(-0.00162646 -0.00110439 0)
(-0.00239867 -0.000371845 0)
(-0.00350706 -0.00104017 0)
(-0.00385173 -0.000566488 0)
(-0.00427192 -0.00130069 0)
(-0.00395821 -0.000889321 0)
(-0.00330217 -0.00189186 0)
(-0.00220552 -0.000880909 0)
(-0.00134651 -0.000997628 0)
(0.00103968 -0.00141951 0)
(0.00314457 -0.00184363 0)
(0.00416519 -0.000727359 0)
(0.00453547 -0.00129709 0)
(0.00470094 -0.000772161 0)
(0.00456047 -0.0012389 0)
(0.00437616 -0.000738425 0)
(0.00395393 -0.00113874 0)
(0.00354776 -0.000717742 0)
(0.002955 -0.00115303 0)
(0.00236092 -0.00064598 0)
(0.0017178 -0.00128699 0)
(0.00111481 -0.000587167 0)
(0.000604009 -0.00151647 0)
(0.000153452 -0.000557594 0)
(-0.000336023 -0.00155674 0)
(-0.000772026 -0.000611495 0)
(-0.00141325 -0.00133347 0)
(-0.00210279 -0.000614205 0)
(-0.00281607 -0.00114712 0)
(-0.00362151 -0.000623602 0)
(-0.00433804 -0.000999563 0)
(-0.00509987 -0.00063015 0)
(-0.0055473 -0.000929584 0)
(-0.00592566 -0.00063506 0)
(-0.00589366 -0.0012103 0)
(-0.00601129 -0.000557612 0)
(-0.0051728 -0.00207512 0)
(-0.00249228 -0.00230609 0)
(-0.000538871 -0.000841828 0)
(3.08528e-05 -0.000232469 0)
(0.000144507 -0.000892021 0)
(0.00093936 -0.0018748 0)
(0.00329779 -0.0024719 0)
(0.0050839 -0.0011092 0)
(0.00575611 -0.00126665 0)
(0.00595774 -0.00059618 0)
(0.00550763 -0.000853855 0)
(0.00498829 -0.000413113 0)
(0.00417994 -0.000840371 0)
(0.00347239 -0.000363448 0)
(0.00266332 -0.00100282 0)
(0.00199302 -0.00034222 0)
(0.00125947 -0.00120259 0)
(0.000750723 -0.00045082 0)
(-0.00100421 -0.000294488 0)
(-0.00172906 -0.00116895 0)
(-0.00244372 -0.000470856 0)
(-0.00311788 -0.0010873 0)
(-0.00376465 -0.000555684 0)
(-0.00432067 -0.000937861 0)
(-0.00492451 -0.000552119 0)
(-0.00523198 -0.000925864 0)
(-0.00553812 -0.000638518 0)
(-0.0052674 -0.00128581 0)
(-0.00487942 -0.000806024 0)
(-0.00405512 -0.00160546 0)
(-0.00293108 -0.0003994 0)
(-0.00264544 -0.00052672 0)
(-0.00147294 -0.000971373 0)
(0.00124707 -0.00102169 0)
(0.00343987 -0.00155215 0)
(0.00453805 -0.000419253 0)
(0.00498085 -0.000856957 0)
(0.0054196 -0.000442063 0)
(0.00527177 -0.000629443 0)
(0.00539116 -0.00046529 0)
(0.0048997 -0.000500634 0)
(0.00479162 -0.000479179 0)
(0.00405154 -0.000455412 0)
(0.00367283 -0.000430368 0)
(0.00271451 -0.000525324 0)
(0.00211024 -0.000381367 0)
(0.00108525 -0.00073849 0)
(0.000473836 -0.00047037 0)
(-0.000379407 -0.00104844 0)
(-0.000958745 -0.000487588 0)
(-0.00176033 -0.00111375 0)
(-0.00242699 -0.000569658 0)
(-0.00327482 -0.000822287 0)
(-0.00415981 -0.000585328 0)
(-0.00481068 -0.000638871 0)
(-0.00562429 -0.000504431 0)
(-0.00597229 -0.000607005 0)
(-0.00640955 -0.000503982 0)
(-0.00626472 -0.000799919 0)
(-0.00625311 -0.000464741 0)
(-0.00516091 -0.00193699 0)
(-0.00266516 -0.00194951 0)
(-0.000756605 -0.000832639 0)
(-55.0143 -166.002 0)
(-81.8146 -127.656 0)
(-72.2688 -152.251 0)
(-73.3742 -71.1079 0)
(-77.6881 -94.4245 0)
(-63.2313 -41.4555 0)
(-39.6927 -44.0645 0)
(-23.5331 -26.2281 0)
(-10.0001 -5.02113 0)
(11.1723 2.16077 0)
(30.4192 16.6613 0)
(39.6308 13.601 0)
(30.2813 15.5485 0)
(17.0992 -26.9662 0)
(6.36941 -7.05878 0)
(22.3815 -21.7778 0)
(44.1689 -34.7727 0)
(67.3017 -47.1295 0)
(96.6417 -47.0945 0)
(131.341 -38.5051 0)
(165.083 -37.6292 0)
(200.679 -28.3015 0)
(234.115 -20.6922 0)
(263.214 -12.4957 0)
(295.325 -4.31334 0)
(324.834 1.18901 0)
(350.291 15.6458 0)
(367.838 26.1478 0)
(379.578 36.9689 0)
(386.176 50.549 0)
(373.369 50.3847 0)
(368.919 43.5947 0)
(341.607 32.7591 0)
(318.042 -1.43202 0)
(289.98 15.112 0)
(231.025 -39.3427 0)
(211.274 -4.9482 0)
(80.5074 -32.1479 0)
(10.6717 -19.1298 0)
(-34.6422 10.5745 0)
(-44.3748 15.8007 0)
(-38.0372 52.4314 0)
(-45.9514 59.5532 0)
(-37.3472 18.686 0)
(-13.1137 47.3207 0)
(-23.3036 54.57 0)
(-35.665 48.0542 0)
(-30.6564 49.8835 0)
(-12.9311 39.4903 0)
(5.17603 38.861 0)
(29.9709 29.4751 0)
(58.4491 28.4361 0)
(76.859 26.0677 0)
(96.6874 28.8013 0)
(118.386 26.3974 0)
(139.596 31.2355 0)
(165.161 28.235 0)
(185.008 34.1532 0)
(195.181 19.382 0)
(194.547 14.3979 0)
(159.439 8.01115 0)
(99.3929 1.15913 0)
(53.5699 -6.24894 0)
(-2.5959 11.5785 0)
(-44.6715 32.8743 0)
(-55.2123 29.2821 0)
(-52.1919 22.3598 0)
(-46.1581 17.2024 0)
(-45.1726 16.1772 0)
(-41.8185 14.9064 0)
(-29.92 21.4891 0)
(-15.4267 26.282 0)
(-3.49667 30.5446 0)
(2.75669 43.0896 0)
(-26.0078 -48.6127 0)
(-75.5081 -42.5597 0)
(-122.835 -27.7613 0)
(-151.177 -12.5874 0)
(-162.189 11.6209 0)
(-141.786 8.65884 0)
(-115.977 1.26571 0)
(-86.3648 -10.4251 0)
(-72.6541 -29.9206 0)
(-64.3852 -54.4126 0)
(-63.045 -78.4118 0)
(-60.2095 -118.14 0)
(-36.1237 -122.577 0)
(-2.93934 -138.153 0)
(39.5037 -138.538 0)
(79.982 -121.037 0)
(103.321 -119.862 0)
(104.245 -101.15 0)
(87.6351 -71.0772 0)
(53.5623 -33.0066 0)
(32.2899 3.00196 0)
(8.83744 11.6629 0)
(-16.8968 31.7402 0)
(-46.9797 41.9736 0)
(-79.5026 38.5666 0)
(-98.9412 25.9703 0)
(-105.52 21.59 0)
(-86.4382 23.2694 0)
(-61.7461 27.1436 0)
(-27.7637 15.1462 0)
(13.7056 101.156 0)
(25.8419 94.8675 0)
(50.0297 65.281 0)
(93.7591 52.4913 0)
(133.308 54.8347 0)
(174.681 58.5261 0)
(201.454 61.1414 0)
(223.306 40.1799 0)
(245.958 10.8306 0)
(267.954 -15.5058 0)
(268.425 -53.3277 0)
(244.782 -69.355 0)
(170.027 -11.8568 0)
(62.0924 -92.7031 0)
(-63.5141 58.272 0)
(-82.9177 -25.189 0)
(-54.59 20.1387 0)
(-45.0696 60.8695 0)
(-1.25252 80.5049 0)
(45.8739 105.248 0)
(69.6309 65.2961 0)
(66.98 90.2292 0)
(65.5126 88.3324 0)
(56.3278 88.5356 0)
(19.082 100.925 0)
(27.6911 115.757 0)
(40.774 79.2407 0)
(28.1617 36.1176 0)
(17.3239 22.1236 0)
(3.79401 21.7997 0)
(-2.89552 -117.26 0)
(-8.58922 -160.664 0)
(-5.1584 -153.257 0)
(32.3564 -152.686 0)
(88.6141 -186.888 0)
(105.489 -118.625 0)
(124.796 -88.4349 0)
(98.2965 -59.9587 0)
(6.81323 -21.3122 0)
(-84.806 -40.171 0)
(-185.833 -2.64324 0)
(-217.417 -21.9882 0)
(-226.646 3.2652 0)
(-272.69 4.51165 0)
(-326.278 16.8492 0)
(-373.922 14.9545 0)
(-391.407 25.2071 0)
(-385.09 57.6715 0)
(-372.138 85.9306 0)
(-314.177 143.056 0)
(-241.997 119.383 0)
(-229.793 138.948 0)
(-242.21 127.685 0)
(-311.557 213.29 0)
(-284.316 48.7011 0)
(-240.832 65.8506 0)
(-233.797 65.328 0)
(-191.466 103.714 0)
(-106.258 6.69586 0)
(-35.7806 19.0408 0)
(-51.3531 26.4348 0)
(-151.331 65.0723 0)
(-256.677 68.6979 0)
(-294.462 23.8466 0)
(-297.782 1.53999 0)
(-249.918 3.92822 0)
(-185.823 -12.3995 0)
(-105.169 -17.453 0)
(3.68012 -38.3444 0)
(114.253 -43.2892 0)
(239.748 -54.7515 0)
(366.377 -32.0365 0)
(464.15 0.898397 0)
(533.714 67.951 0)
(555.794 92.4652 0)
(513.587 109.889 0)
(471.563 91.5554 0)
(354.463 99.613 0)
(229.345 -26.4729 0)
(36.264 -36.2174 0)
(-10.1934 -123.215 0)
(-17.7017 -117.445 0)
(-49.4956 -91.4557 0)
(-80.0368 -148.855 0)
(-93.869 -111.574 0)
(-74.4398 -132.099 0)
(-89.3072 -32.5643 0)
(-107.005 75.0024 0)
(-89.8649 115.361 0)
(-41.2551 121.134 0)
(-23.6819 109.384 0)
(-9.06562 95.3663 0)
(15.2741 107.32 0)
(20.5052 105.728 0)
(28.9133 87.5543 0)
(15.0527 89.3565 0)
(-0.153586 84.5386 0)
(-43.8172 76.5964 0)
(-63.1625 80.9377 0)
(-74.7071 83.2751 0)
(-79.7062 106.72 0)
(-48.9145 109.361 0)
(-15.9711 89.6268 0)
(-33.3266 73.4496 0)
(-333.415 118.317 0)
(-767.873 341.907 0)
(-1008.63 423.811 0)
(-937.259 343.352 0)
(-1014.19 259.527 0)
(-741.182 111.743 0)
(-847.35 47.4383 0)
(-611.475 33.4479 0)
(-615.244 94.2994 0)
(-471.751 72.3196 0)
(-446.865 165.976 0)
(-360.195 116.865 0)
(-281.226 200.447 0)
(-231.677 167.136 0)
(-139.535 216.073 0)
(-50.747 158.255 0)
(22.0907 432.225 0)
(65.6315 333.996 0)
(106.438 298.32 0)
(180.697 270.352 0)
(239.718 202.921 0)
(217.883 156.881 0)
(227.232 154.718 0)
(254.127 93.5023 0)
(305.313 94.7937 0)
(330.69 50.8574 0)
(395.892 12.8314 0)
(460.203 -71.5091 0)
(548.325 -125.761 0)
(622.268 -262.147 0)
(592.231 -286.263 0)
(761.242 -296.53 0)
(490.603 -156.862 0)
(123.902 -6.09324 0)
(0.488977 -0.028123 0)
(0.606471 0.0160743 0)
(0.553608 -0.0285438 0)
(0.546153 -0.0347257 0)
(0.443748 -0.0118498 0)
(0.396859 -0.0234212 0)
(0.32272 -0.0166945 0)
(0.262607 -0.00178992 0)
(0.201365 -0.0232503 0)
(0.136373 0.0100551 0)
(0.0801222 -0.0161951 0)
(0.0199687 0.000284696 0)
(0.0324943 -0.037898 0)
(0.0302888 -0.0304245 0)
(0.0297926 -0.0302903 0)
(0.031205 -0.0285701 0)
(0.0324106 -0.0260416 0)
(0.0315911 -0.0236905 0)
(0.0326172 -0.023121 0)
(0.0298729 -0.0192538 0)
(0.0301272 -0.0199482 0)
(0.0266946 -0.0163203 0)
(0.0247651 -0.0175158 0)
(0.0205675 -0.0148892 0)
(0.0178127 -0.0156881 0)
(0.0136347 -0.0140509 0)
(0.0110773 -0.0146705 0)
(0.00715254 -0.0139885 0)
(0.00446651 -0.0142102 0)
(0.000517831 -0.0140959 0)
(-0.00250191 -0.0137054 0)
(-0.00643258 -0.0131531 0)
(-0.0101938 -0.0134041 0)
(-0.0111991 -0.0127011 0)
(-0.0137999 -0.0145106 0)
(-0.0150668 -0.012769 0)
(-0.0162148 -0.01494 0)
(-0.0165552 -0.0133819 0)
(-0.0168253 -0.0156809 0)
(-0.0163372 -0.0141256 0)
(-0.0140337 -0.0160035 0)
(-0.00750484 -0.0134827 0)
(0.0113328 -0.0169922 0)
(0.0199489 -0.014324 0)
(0.0186548 -0.0147908 0)
(0.0176587 -0.0132322 0)
(0.0169697 -0.0146882 0)
(0.016059 -0.0126583 0)
(0.0150755 -0.0144556 0)
(0.0140466 -0.0123846 0)
(0.01286 -0.0142102 0)
(0.0115345 -0.0122253 0)
(0.00996842 -0.0138477 0)
(0.00815248 -0.0121162 0)
(0.00606914 -0.0135232 0)
(0.00374354 -0.0121226 0)
(0.00127854 -0.0132813 0)
(-0.00121896 -0.0120623 0)
(-0.00359748 -0.0133724 0)
(-0.00567775 -0.0120107 0)
(-0.00763532 -0.0136218 0)
(-0.00933499 -0.0120208 0)
(-0.0108146 -0.0138321 0)
(-0.0120866 -0.0120507 0)
(-0.0131118 -0.0140179 0)
(-0.0138578 -0.012326 0)
(-0.0143569 -0.0142758 0)
(-0.0149582 -0.0128829 0)
(-0.0156683 -0.0140212 0)
(-0.0179068 -0.0133463 0)
(-0.019253 -0.0140637 0)
(-0.0201968 -0.0159224 0)
(0.0083066 -0.0122604 0)
(0.0160415 -0.0150657 0)
(0.0158304 -0.0145628 0)
(0.0140997 -0.014399 0)
(0.0127212 -0.0157037 0)
(0.0125585 -0.0133456 0)
(0.0121594 -0.0147254 0)
(0.0118407 -0.0124305 0)
(0.0111721 -0.0141094 0)
(0.0103594 -0.0120608 0)
(0.00915401 -0.0138039 0)
(0.0077558 -0.0119965 0)
(0.00593098 -0.0135521 0)
(0.00389702 -0.0118942 0)
(0.00150593 -0.0126424 0)
(-0.00245565 -0.0123415 0)
(-0.00403994 -0.011785 0)
(-0.00596591 -0.0134021 0)
(-0.00769228 -0.0119171 0)
(-0.00929106 -0.013756 0)
(-0.0106345 -0.0119823 0)
(-0.0117896 -0.0140247 0)
(-0.0127408 -0.0123076 0)
(-0.0134505 -0.0145149 0)
(-0.0143207 -0.0129346 0)
(-0.01483 -0.0149144 0)
(-0.0154234 -0.0131841 0)
(-0.0151765 -0.0139469 0)
(-0.0135089 -0.0147046 0)
(-0.0063357 -0.0127994 0)
(0.0111323 -0.0154733 0)
(0.0195973 -0.0134295 0)
(0.0181657 -0.014139 0)
(0.0174831 -0.0119548 0)
(0.0166954 -0.014448 0)
(0.016195 -0.0113929 0)
(0.0152652 -0.0145228 0)
(0.0146464 -0.0110533 0)
(0.0134682 -0.0144323 0)
(0.0125538 -0.0108529 0)
(0.0110148 -0.0140881 0)
(0.00965755 -0.0108655 0)
(0.00769413 -0.0136238 0)
(0.00584178 -0.011122 0)
(0.00357712 -0.0132673 0)
(0.001277 -0.0115164 0)
(-0.00118826 -0.0128996 0)
(-0.0037807 -0.011509 0)
(-0.00628041 -0.0130706 0)
(-0.00835841 -0.0114558 0)
(-0.0101262 -0.0135046 0)
(-0.011602 -0.0114202 0)
(-0.0126884 -0.0138247 0)
(-0.0136168 -0.0116261 0)
(-0.0141419 -0.0141551 0)
(-0.0147285 -0.0123028 0)
(-0.0151244 -0.0139821 0)
(-0.0170572 -0.0131044 0)
(-0.0182962 -0.0134379 0)
(-0.0194195 -0.0153494 0)
(-16.7061 -236.052 0)
(-66.2163 -195.221 0)
(-102.679 -222.786 0)
(-92.5169 -131.408 0)
(-73.3801 -146.958 0)
(-55.0892 -76.6961 0)
(-31.108 -59.1706 0)
(-15.5928 -36.4933 0)
(-2.6383 -10.1298 0)
(26.7258 12.3943 0)
(42.6712 12.6618 0)
(53.3974 29.1142 0)
(44.5821 14.1236 0)
(23.0697 -28.6864 0)
(3.21647 -7.53923 0)
(10.5201 -31.9218 0)
(34.6524 -60.8149 0)
(71.6348 -77.0991 0)
(114.519 -75.6037 0)
(145.415 -71.2589 0)
(173.699 -61.4157 0)
(208.934 -45.7201 0)
(248.363 -35.6883 0)
(290.107 -24.7678 0)
(321.704 -12.1446 0)
(352.855 1.91633 0)
(381.709 22.3427 0)
(401.271 43.946 0)
(419.459 59.8792 0)
(429.224 82.733 0)
(418.075 86.2836 0)
(394.662 82.6266 0)
(367.953 65.2872 0)
(309.766 42.5727 0)
(293.732 7.27761 0)
(199.241 2.22344 0)
(196.95 -37.4202 0)
(82.5232 -19.9314 0)
(22.726 -23.9928 0)
(-17.8678 -1.34418 0)
(-29.1191 13.1789 0)
(-53.3286 13.1132 0)
(-64.0011 1.81255 0)
(-41.0928 -69.2562 0)
(-12.094 89.771 0)
(-22.9405 82.8159 0)
(-29.0581 83.1305 0)
(-27.616 68.5151 0)
(-8.21681 67.5739 0)
(14.6873 56.8441 0)
(40.6662 50.34 0)
(66.8565 49.822 0)
(88.2023 45.3276 0)
(104.205 49.5544 0)
(128.652 51.2764 0)
(146.046 49.6756 0)
(171.332 52.3925 0)
(190.001 47.6716 0)
(187.335 31.9801 0)
(191.665 20.3275 0)
(155.476 -4.46792 0)
(89.0415 2.39465 0)
(62.0327 15.6424 0)
(9.54344 19.9099 0)
(-46.6843 38.1767 0)
(-59.1725 50.6667 0)
(-65.3329 38.9871 0)
(-63.6826 39.057 0)
(-51.137 33.5795 0)
(-32.627 32.7266 0)
(-19.7811 35.3391 0)
(-15.2804 45.2952 0)
(-11.6037 53.0351 0)
(-5.93777 85.1917 0)
(-27.529 -76.0957 0)
(-73.9986 -67.5687 0)
(-102.839 -33.5117 0)
(-120.55 -25.0754 0)
(-128.063 -8.92828 0)
(-119.28 6.74863 0)
(-99.4708 2.76111 0)
(-99.1514 -15.9818 0)
(-104.769 -29.2797 0)
(-116.151 -59.8343 0)
(-115.427 -106.934 0)
(-98.649 -150.395 0)
(-72.3668 -194.816 0)
(-21.9496 -230.379 0)
(30.3524 -233.504 0)
(73.3978 -208.586 0)
(97.979 -169.581 0)
(99.5488 -117.941 0)
(82.0655 -62.9792 0)
(54.7984 -20.4332 0)
(21.8011 30.7201 0)
(-10.7497 35.5424 0)
(-47.0952 56.6483 0)
(-79.6982 61.2385 0)
(-109.933 50.9769 0)
(-119.143 35.4605 0)
(-106.404 40.2076 0)
(-89.5534 38.9935 0)
(-56.2115 36.1991 0)
(-16.6308 30.8737 0)
(4.66656 148.007 0)
(33.6466 132.584 0)
(71.3798 103.06 0)
(106.076 87.4751 0)
(148.458 85.6124 0)
(177.22 90.01 0)
(199.58 90.9672 0)
(220.411 57.6204 0)
(236.645 9.02791 0)
(244.559 -37.8266 0)
(254.7 -89.5448 0)
(234.972 -87.9851 0)
(113.888 -45.4543 0)
(17.5529 -66.8553 0)
(-132.01 -8.35652 0)
(-189.427 35.999 0)
(-102.869 26.5516 0)
(-12.4767 51.2283 0)
(-15.0395 45.2036 0)
(-45.3268 79.7932 0)
(-4.85321 123.95 0)
(42.724 143.086 0)
(47.6671 158.792 0)
(42.9742 141.742 0)
(28.5163 164.692 0)
(-13.7603 177.242 0)
(-60.9448 137.339 0)
(-47.5589 127.683 0)
(-35.5311 84.8267 0)
(-6.92723 40.5775 0)
(-14.3835 -158.81 0)
(-15.5671 -176.159 0)
(6.32528 -210.742 0)
(29.3119 -214.914 0)
(58.2917 -210.121 0)
(103.798 -176.623 0)
(88.4329 -125.807 0)
(22.9713 -96.63 0)
(-35.9162 -30.5197 0)
(-117.969 -22.1814 0)
(-189.142 -25.0555 0)
(-234.589 -2.20031 0)
(-285.016 11.4187 0)
(-293.179 32.9936 0)
(-337.184 20.0672 0)
(-379.725 56.8934 0)
(-403.476 58.4835 0)
(-396.109 107.725 0)
(-369.055 119.06 0)
(-314.955 143.775 0)
(-279.908 166.155 0)
(-290.404 203.996 0)
(-351.383 163.856 0)
(-350.72 165.782 0)
(-332.476 110.232 0)
(-295.999 91.375 0)
(-235.451 92.264 0)
(-194.343 72.4592 0)
(-104.749 65.6835 0)
(-41.1624 20.8027 0)
(-80.8458 103.645 0)
(-208.401 144.733 0)
(-292.843 111.376 0)
(-336.708 52.7668 0)
(-298.763 8.98597 0)
(-271.15 -9.23563 0)
(-222.587 -16.0698 0)
(-164.814 -29.4002 0)
(-113.252 -47.3376 0)
(-41.8304 -73.2379 0)
(41.5472 -95.6637 0)
(149.591 -91.4797 0)
(273.703 -36.8293 0)
(378.728 81.7095 0)
(415.388 154.666 0)
(407.35 206.769 0)
(358.627 208.355 0)
(249.554 161.432 0)
(44.1335 43.0255 0)
(-182.32 -197.315 0)
(-267.428 -164.467 0)
(-261.713 -162.264 0)
(-354.332 -141.441 0)
(-190.941 -117.438 0)
(-36.6059 -118.461 0)
(-119.706 -82.4796 0)
(6.95033 -2.57528 0)
(10.1016 76.5185 0)
(-50.7326 115.12 0)
(-21.2762 131.682 0)
(2.53336 169.022 0)
(34.3467 153.768 0)
(58.9583 185.624 0)
(49.4387 165.692 0)
(31.9586 144.118 0)
(16.7377 167.715 0)
(-37.3536 161.476 0)
(-109.752 151.384 0)
(-148.733 171.166 0)
(-159.381 156.484 0)
(-165.382 145.233 0)
(-156.975 131.261 0)
(-118.272 97.4215 0)
(-110.54 80.0346 0)
(-373.929 126.525 0)
(-1016.62 362.87 0)
(-1074.23 436.245 0)
(-1079.47 430.136 0)
(-829.168 289.765 0)
(-801.644 184.181 0)
(-621.655 90.6614 0)
(-634.902 135.64 0)
(-507.604 134.217 0)
(-517.796 180.249 0)
(-416.132 210.735 0)
(-404.75 231.385 0)
(-317.703 280.317 0)
(-236.276 284.407 0)
(-162.299 332.857 0)
(-53.329 239.962 0)
(-24.9593 497.546 0)
(-0.642389 421.632 0)
(96.1336 325.626 0)
(127.665 315.822 0)
(153.578 211.288 0)
(210.573 193.443 0)
(240.394 138.546 0)
(265.892 97.7006 0)
(266.569 14.5195 0)
(307.92 -50.9216 0)
(340.655 -123.8 0)
(396.899 -194.113 0)
(436.623 -348.772 0)
(472.77 -380.686 0)
(602.539 -421.853 0)
(515.862 -447.486 0)
(512.674 -388.428 0)
(186.29 -177.291 0)
(0.660218 -0.504696 0)
(0.352823 0.203094 0)
(0.460568 -0.0623837 0)
(0.470688 -0.0128339 0)
(0.380359 -0.0914491 0)
(0.339429 0.0124265 0)
(0.284891 -0.0733035 0)
(0.229384 0.0180924 0)
(0.186515 -0.0449607 0)
(0.129076 0.0154414 0)
(0.0895479 -0.0189098 0)
(0.0322572 -0.00579031 0)
(-0.0084006 -0.0532917 0)
(-0.00570731 -0.0396826 0)
(-0.000404619 -0.040459 0)
(0.00235742 -0.0368719 0)
(0.0053099 -0.0313409 0)
(0.00685953 -0.0311747 0)
(0.00958183 -0.0255067 0)
(0.00941734 -0.0260708 0)
(0.0107989 -0.0209749 0)
(0.00911924 -0.0219356 0)
(0.010397 -0.0174342 0)
(0.00871021 -0.0194669 0)
(0.00962248 -0.0145079 0)
(0.00818695 -0.0180048 0)
(0.00870508 -0.0124064 0)
(0.00744764 -0.0173853 0)
(0.00763797 -0.0116348 0)
(0.00665374 -0.0171238 0)
(0.00724382 -0.0113097 0)
(0.0071645 -0.015117 0)
(0.0104847 -0.0159937 0)
(0.00997409 -0.0104981 0)
(0.0108243 -0.0172903 0)
(0.0116936 -0.0108879 0)
(0.0122918 -0.0178858 0)
(0.0130757 -0.0113936 0)
(0.0139192 -0.0186978 0)
(0.0148174 -0.0121902 0)
(0.0153503 -0.0193254 0)
(0.0169815 -0.0123093 0)
(-0.00333713 -0.022507 0)
(-0.00942154 -0.0112864 0)
(-0.0107646 -0.0172096 0)
(-0.0107736 -0.0102925 0)
(-0.0106764 -0.0173748 0)
(-0.00993542 -0.0101417 0)
(-0.0092194 -0.017159 0)
(-0.00810553 -0.0100998 0)
(-0.00713822 -0.016888 0)
(-0.00588783 -0.0100563 0)
(-0.00485038 -0.016402 0)
(-0.00365862 -0.00985928 0)
(-0.00274255 -0.0158191 0)
(-0.00186756 -0.00957497 0)
(-0.00127939 -0.0153419 0)
(-0.000643673 -0.00945465 0)
(4.34161e-05 -0.0155508 0)
(0.000796554 -0.00965981 0)
(0.00185994 -0.0160504 0)
(0.00287212 -0.00972773 0)
(0.00416196 -0.0163553 0)
(0.00527475 -0.00960943 0)
(0.00665283 -0.0165511 0)
(0.00779326 -0.00970354 0)
(0.00914189 -0.0168364 0)
(0.0102296 -0.0100981 0)
(0.0112792 -0.0163168 0)
(0.0119827 -0.0100719 0)
(0.00860998 -0.0104012 0)
(0.00385384 -0.0214773 0)
(-0.013014 -0.0135912 0)
(-0.0115035 -0.017332 0)
(-0.0098436 -0.0142957 0)
(-0.0116977 -0.0108058 0)
(-0.0111585 -0.0185336 0)
(-0.0101242 -0.0111285 0)
(-0.00922501 -0.0177428 0)
(-0.00803855 -0.0103646 0)
(-0.00712691 -0.0170176 0)
(-0.00593872 -0.00996738 0)
(-0.00506269 -0.0165197 0)
(-0.00398421 -0.00970037 0)
(-0.00326815 -0.0160132 0)
(-0.00243106 -0.00951057 0)
(-0.00216428 -0.0139178 0)
(0.00077145 -0.0145643 0)
(0.00162094 -0.00946457 0)
(0.00256639 -0.0158756 0)
(0.00329319 -0.00952389 0)
(0.00422738 -0.0162991 0)
(0.00497688 -0.00951614 0)
(0.00596078 -0.0165711 0)
(0.00662491 -0.00967658 0)
(0.00749245 -0.0170373 0)
(0.00801998 -0.0101815 0)
(0.00876837 -0.0174935 0)
(0.00945427 -0.0103643 0)
(0.0101195 -0.0164552 0)
(0.0126566 -0.0173376 0)
(0.0137316 -0.0120619 0)
(-0.00327175 -0.0204783 0)
(-0.00927172 -0.00931023 0)
(-0.0105753 -0.0161935 0)
(-0.010558 -0.00813588 0)
(-0.0104605 -0.0167261 0)
(-0.00952231 -0.00802213 0)
(-0.00886313 -0.0168605 0)
(-0.00753577 -0.00801736 0)
(-0.00668105 -0.0167443 0)
(-0.00521254 -0.00796934 0)
(-0.00432305 -0.0162528 0)
(-0.00294599 -0.00790916 0)
(-0.00220051 -0.0155547 0)
(-0.00119436 -0.00792998 0)
(-0.000773177 -0.0149317 0)
(-0.000174688 -0.00795247 0)
(0.000133922 -0.0145133 0)
(0.000689059 -0.00802967 0)
(0.0015048 -0.0149685 0)
(0.00232688 -0.00819409 0)
(0.00352044 -0.0156409 0)
(0.00455277 -0.00836325 0)
(0.00597494 -0.0160875 0)
(0.00713482 -0.00861023 0)
(0.00858842 -0.0164551 0)
(0.00969144 -0.00920691 0)
(0.0107732 -0.0161124 0)
(0.0115058 -0.00914405 0)
(0.00856291 -0.00949402 0)
(0.00371168 -0.0199167 0)
(-29.1744 -293.697 0)
(-26.1262 -252.95 0)
(-31.7285 -280.155 0)
(-50.5677 -184.044 0)
(-45.7803 -181.076 0)
(-36.7047 -105.715 0)
(-14.5952 -78.5629 0)
(-7.84247 -44.7695 0)
(22.5278 -13.3827 0)
(47.318 11.882 0)
(52.1429 19.9072 0)
(63.4777 33.895 0)
(49.2327 24.3171 0)
(25.3316 -23.0476 0)
(6.28543 -11.2495 0)
(19.9089 -45.1064 0)
(44.791 -81.9861 0)
(79.0077 -98.8007 0)
(108.734 -100.691 0)
(139.506 -92.6847 0)
(173.037 -79.071 0)
(202.362 -64.2003 0)
(230.083 -50.3074 0)
(259.217 -37.7058 0)
(293.216 -23.3226 0)
(328.291 -1.62352 0)
(364.748 20.5499 0)
(388.455 49.2454 0)
(411.198 72.0982 0)
(433.898 104.208 0)
(404.285 102.697 0)
(405.117 132.096 0)
(352.014 82.9054 0)
(312.333 90.1428 0)
(258.879 -4.86112 0)
(208.502 15.7931 0)
(179.485 -31.7798 0)
(104.52 -25.5055 0)
(17.5461 -3.53103 0)
(-22.8805 -3.53123 0)
(-43.3462 5.95492 0)
(-48.9617 -29.2768 0)
(-74.9302 -52.3846 0)
(-76.3515 -130.616 0)
(-12.7342 126.797 0)
(-19.156 120.787 0)
(-24.5244 110.475 0)
(-14.8631 91.7769 0)
(4.39112 86.1564 0)
(25.6783 76.577 0)
(51.7029 68.5901 0)
(79.4889 69.8036 0)
(100.122 65.4557 0)
(123.63 71.3471 0)
(142.258 69.3123 0)
(161.623 68.562 0)
(182.437 63.0593 0)
(191.823 54.1816 0)
(194.183 28.8347 0)
(181.621 22.2177 0)
(156.847 -17.887 0)
(104.667 7.67201 0)
(58.6738 11.6932 0)
(-2.28314 22.0827 0)
(-32.6647 52.844 0)
(-57.179 69.1023 0)
(-64.1357 62.0398 0)
(-61.3823 54.278 0)
(-55.9185 49.1591 0)
(-48.4095 42.504 0)
(-39.9442 46.1194 0)
(-25.7444 58.1059 0)
(-4.44333 67.3824 0)
(0.756313 93.8953 0)
(-1.7785 -85.6502 0)
(0.378725 -92.4477 0)
(-43.4249 -83.0013 0)
(-71.0572 -60.7565 0)
(-84.1872 -63.598 0)
(-100.812 -62.0678 0)
(-128.041 -60.6185 0)
(-136.442 -38.1783 0)
(-154.14 -30.1496 0)
(-168.554 -51.741 0)
(-162.547 -101.63 0)
(-144.191 -174.737 0)
(-93.795 -264.653 0)
(-18.8562 -321.556 0)
(51.6453 -317.013 0)
(99.3644 -267.506 0)
(118.417 -182.578 0)
(109.182 -94.6361 0)
(82.2516 -20.4622 0)
(43.0344 31.3124 0)
(6.54325 65.7177 0)
(-46.0974 77.8447 0)
(-85.8742 71.1443 0)
(-115.463 68.9057 0)
(-137.669 50.8676 0)
(-127.563 46.1046 0)
(-121.527 51.2365 0)
(-93.2639 56.8093 0)
(-56.4386 54.6093 0)
(-19.305 54.3533 0)
(25.0631 181.728 0)
(52.1207 185.007 0)
(80.4868 139.813 0)
(116.626 118.5 0)
(145.033 117.085 0)
(183.402 119.425 0)
(192.875 102.079 0)
(202.098 65.99 0)
(222.43 -10.7825 0)
(220.812 -78.8877 0)
(216.706 -124.442 0)
(213.299 -125.289 0)
(49.9607 -103.469 0)
(-59.8251 -82.0592 0)
(-96.1342 -133.954 0)
(-154.841 -104.793 0)
(-169.983 -74.3558 0)
(-175.088 -70.6919 0)
(-110.144 -63.3728 0)
(7.82836 -36.9712 0)
(50.6838 53.8741 0)
(45.7641 106.29 0)
(29.5648 166.38 0)
(29.9242 174.474 0)
(39.0654 195.719 0)
(28.5709 140.588 0)
(46.1398 110.531 0)
(12.5331 94.7763 0)
(-62.4904 60.4572 0)
(-61.4802 -52.5684 0)
(-4.29088 -172.941 0)
(14.0611 -179.482 0)
(36.1042 -224.984 0)
(66.888 -223.409 0)
(82.9859 -222.292 0)
(50.7922 -165.806 0)
(20.1885 -105.64 0)
(-5.32719 -48.5545 0)
(-72.6293 -15.2762 0)
(-169.463 -2.43453 0)
(-222.479 22.5546 0)
(-268.368 19.5781 0)
(-283.238 43.7935 0)
(-333.058 43.1678 0)
(-341.604 48.7515 0)
(-399.029 54.5332 0)
(-401.956 94.4392 0)
(-404.404 124.172 0)
(-373.114 153.702 0)
(-319.767 152.337 0)
(-304.619 154.2 0)
(-388.821 166.985 0)
(-381.964 152.329 0)
(-383.284 145.515 0)
(-342.295 106.412 0)
(-265.908 97.9092 0)
(-251.831 84.3415 0)
(-174.5 106.756 0)
(-86.8488 81.192 0)
(-42.9068 33.2962 0)
(-99.4522 200.077 0)
(-234.378 233.432 0)
(-300.241 156.113 0)
(-292.317 69.1484 0)
(-297.145 29.55 0)
(-255.374 8.16475 0)
(-235.125 -7.25654 0)
(-233.635 -7.70844 0)
(-236.576 -11.2523 0)
(-248.098 -39.8241 0)
(-216.489 -79.602 0)
(-125.854 -111.392 0)
(6.28397 -79.1452 0)
(146.022 42.7238 0)