/*--------------------------------*- C++ -*----------------------------------*\
| =========                 |                                                 |
| \\      /  F ield         | OpenFOAM: The Open Source CFD Toolbox           |
|  \\    /   O peration     | Version:  2.1.1                                 |
|   \\  /    A nd           | Web:      www.OpenFOAM.org                      |
|    \\/     M anipulation  |                                                 |
\*---------------------------------------------------------------------------*/
FoamFile
{
    version     2.0;
    format      ascii;
    class       volScalarField;
    location    "0.004350000";
    object      H;
}
// * * * * * * * * * * * * * * * * * * * * * * * * * * * * * * * * * * * * * //

dimensions      [0 0 0 0 0 0 0];

internalField   nonuniform List<scalar> 
12384
(
0.000595795
0.000576959
0.000556126
0.000542193
0.000526498
0.000516088
0.000501237
0.000478072
0.000467042
0.000462515
0.000511898
0.000461658
8.23823e-05
8.14736e-06
1.3537e-06
5.26007e-06
6.30694e-06
5.73262e-06
5.1301e-06
4.30221e-06
4.01622e-06
3.68748e-06
3.61331e-06
3.73655e-06
3.70845e-06
3.83859e-06
4.17815e-06
4.40041e-06
4.71435e-06
5.82721e-06
5.99154e-06
8.27393e-06
8.34783e-06
1.20916e-05
1.40432e-05
1.77402e-05
2.16584e-05
3.08921e-05
3.69284e-05
2.12217e-05
6.1083e-06
2.33944e-06
3.01914e-06
2.25681e-05
7.61922e-05
9.9847e-05
9.75849e-05
0.000103626
0.000103505
0.000102521
9.84808e-05
9.46824e-05
9.29276e-05
8.65738e-05
8.7378e-05
8.84869e-05
8.36326e-05
8.4598e-05
8.42397e-05
8.22895e-05
8.15809e-05
8.16477e-05
7.59713e-05
7.61158e-05
6.25146e-05
3.18031e-05
7.04927e-05
0.000165446
0.00016638
0.000152519
0.00011032
5.7425e-05
1.67601e-05
5.76645e-06
3.89518e-05
4.33416e-05
5.39165e-05
6.04275e-05
6.45682e-05
6.65687e-05
7.00384e-05
6.8065e-05
6.5952e-05
6.30525e-05
6.03784e-05
5.97358e-05
5.7722e-05
5.50308e-05
5.6359e-05
5.13539e-05
5.22026e-05
5.53709e-05
5.19297e-05
6.87031e-05
6.55939e-05
7.63959e-05
7.82507e-05
6.36856e-05
4.50146e-05
3.43902e-05
3.66719e-05
3.91613e-05
3.93224e-05
3.8017e-05
4.02427e-05
1.94987e-05
2.30755e-05
3.4814e-05
3.82864e-05
3.75857e-05
3.43642e-05
3.00091e-05
2.31871e-05
1.9087e-05
1.71178e-05
1.54315e-05
1.5651e-05
1.53762e-05
1.54845e-05
1.66914e-05
1.6283e-05
1.98189e-05
2.43254e-05
2.87335e-05
3.67116e-05
6.91314e-05
9.49422e-05
7.67127e-05
4.16036e-05
2.25641e-05
1.85465e-05
2.03253e-05
2.43905e-05
2.37769e-05
1.0675e-05
5.88506e-05
6.18213e-05
6.18395e-05
5.83854e-05
5.02985e-05
4.36317e-05
4.2243e-05
4.37395e-05
4.68862e-05
5.04807e-05
5.4156e-05
5.77693e-05
5.83839e-05
5.9061e-05
5.96405e-05
6.00919e-05
6.03657e-05
6.01056e-05
5.94565e-05
5.84482e-05
5.79421e-05
6.41681e-05
6.87169e-05
6.87104e-05
6.96615e-05
6.91332e-05
7.31706e-05
6.36826e-05
1.89487e-05
4.50617e-05
3.37849e-05
3.56219e-05
6.37112e-05
6.72148e-05
6.41705e-05
5.81182e-05
5.78197e-05
6.02308e-05
5.81649e-05
4.91132e-05
4.27357e-05
3.58325e-05
3.20947e-05
2.93447e-05
2.73282e-05
2.58925e-05
2.3247e-05
2.3592e-05
2.06212e-05
2.12468e-05
1.97116e-05
1.99789e-05
1.90586e-05
1.91121e-05
2.04393e-05
2.6232e-05
4.14479e-05
5.52501e-05
7.48978e-06
4.6997e-06
5.30483e-06
1.86842e-05
0.000128744
0.000131811
0.000120043
9.7789e-05
9.99609e-05
9.21553e-05
8.88341e-05
9.75405e-05
9.14333e-05
0.000106182
0.000102404
0.000116109
0.000125795
0.000133566
0.0001397
0.000142968
0.000144224
0.000141006
0.00013608
0.000122821
0.000108459
0.000105484
9.69321e-05
9.56706e-05
0.000108705
0.000120345
0.000132094
2.56983e-07
3.20512e-07
1.42524e-06
4.36589e-05
4.19998e-05
4.55837e-05
4.74207e-05
5.0913e-05
5.10375e-05
5.59221e-05
5.95766e-05
6.27257e-05
6.83033e-05
6.76538e-05
7.11667e-05
6.82576e-05
6.93082e-05
6.61534e-05
6.8115e-05
6.21021e-05
6.09287e-05
5.45516e-05
5.45212e-05
5.27688e-05
5.59077e-05
5.42983e-05
5.45655e-05
5.70965e-05
5.32708e-05
2.19894e-05
1.15148e-05
0.000153109
0.000172195
0.000130523
0.000116738
0.00011362
0.000116276
0.000124628
0.000127436
0.000133296
0.00012163
0.000118979
0.0001051
9.24129e-05
9.04009e-05
7.56803e-05
7.57279e-05
6.29122e-05
6.82162e-05
6.21625e-05
7.10833e-05
7.21776e-05
8.01929e-05
7.95961e-05
8.00599e-05
8.07426e-05
8.36822e-05
9.42878e-05
0.000104793
0.000105845
2.9282e-06
0.000114942
0.000112054
0.000110497
0.000108765
0.000105992
0.000102268
9.8984e-05
9.56528e-05
9.23874e-05
8.90418e-05
8.42669e-05
7.81079e-05
6.90025e-05
6.60535e-05
4.94717e-05
5.65062e-05
4.02378e-05
4.17001e-05
4.07148e-05
4.28333e-05
4.85695e-05
5.27371e-05
5.45995e-05
5.86053e-05
5.99434e-05
6.47723e-05
7.31155e-05
7.9075e-05
7.3363e-05
1.57447e-07
7.71081e-05
8.59813e-05
8.09953e-05
8.00763e-05
7.83131e-05
8.14332e-05
7.78018e-05
7.95801e-05
7.53461e-05
7.64449e-05
7.60546e-05
7.42417e-05
7.13125e-05
7.30663e-05
7.20659e-05
7.33419e-05
7.07595e-05
7.06398e-05
7.14198e-05
6.87304e-05
6.96515e-05
6.69756e-05
6.56631e-05
7.05847e-05
7.11229e-05
8.43311e-05
1.09473e-06
1.2935e-07
2.98722e-07
2.42449e-08
4.78823e-08
5.13386e-08
1.64364e-07
8.19914e-07
5.12574e-06
4.75587e-05
6.3206e-05
6.27312e-05
6.31973e-05
5.81951e-05
5.78844e-05
5.30431e-05
5.23515e-05
5.02121e-05
4.85559e-05
5.11999e-05
5.14814e-05
5.33852e-05
5.54744e-05
6.29746e-05
6.38552e-05
6.76085e-05
5.39039e-05
2.67518e-05
4.18708e-06
3.22384e-07
9.17073e-08
9.73329e-08
1.76944e-07
0.000445486
0.000424136
0.000377996
0.000358547
0.000359808
0.000372123
0.000400235
0.00040852
0.000411686
0.000402276
0.00043714
0.000460495
0.000168794
1.22826e-05
1.35969e-06
6.40954e-06
5.3339e-06
3.38141e-06
2.61062e-06
2.26016e-06
2.05842e-06
2.02484e-06
2.21229e-06
2.41119e-06
2.77454e-06
3.4385e-06
3.96909e-06
4.76439e-06
5.58535e-06
6.72931e-06
7.75337e-06
9.12655e-06
1.03674e-05
1.16959e-05
1.34688e-05
1.61211e-05
1.92093e-05
2.53841e-05
3.25282e-05
3.20866e-05
1.88363e-05
6.8947e-06
3.52603e-06
1.10414e-05
8.22549e-05
9.59192e-05
9.54787e-05
9.79932e-05
9.41981e-05
8.25752e-05
6.03166e-05
4.99875e-05
4.0276e-05
3.81965e-05
3.70931e-05
3.57273e-05
3.59239e-05
3.65764e-05
3.65791e-05
4.13239e-05
5.05968e-05
5.55417e-05
6.56465e-05
7.02278e-05
6.79516e-05
3.71799e-05
3.33956e-05
6.631e-05
7.68289e-05
0.000124126
0.000160565
0.000157135
6.22194e-05
9.89406e-06
4.23552e-05
6.38353e-05
7.51483e-05
7.85442e-05
7.91563e-05
6.93939e-05
6.19132e-05
5.51782e-05
4.91615e-05
4.51882e-05
3.90898e-05
3.42947e-05
2.99618e-05
2.77196e-05
2.34311e-05
2.37277e-05
2.3588e-05
2.65971e-05
3.02878e-05
4.23633e-05
4.79733e-05
7.32988e-05
8.31831e-05
7.77825e-05
6.20585e-05
4.44659e-05
4.01023e-05
4.56821e-05
4.87589e-05
4.12108e-05
1.04631e-05
2.50696e-05
5.57313e-05
5.7803e-05
5.8093e-05
5.8421e-05
5.9063e-05
6.00508e-05
5.9389e-05
5.74069e-05
5.51874e-05
4.41119e-05
3.44061e-05
2.43236e-05
1.74243e-05
1.31717e-05
1.17715e-05
1.33735e-05
1.56153e-05
1.83985e-05
2.65667e-05
4.70415e-05
7.99392e-05
9.24843e-05
8.3283e-05
5.99482e-05
3.82509e-05
3.62087e-05
4.15987e-05
3.84917e-05
1.79995e-05
6.06558e-05
6.14367e-05
4.93952e-05
3.49173e-05
3.47782e-05
4.70482e-05
5.81785e-05
6.03397e-05
6.18604e-05
6.30682e-05
6.27019e-05
6.21944e-05
6.17318e-05
6.13969e-05
6.11493e-05
6.07859e-05
6.05316e-05
6.05654e-05
6.02647e-05
5.98531e-05
6.25847e-05
6.80563e-05
7.23048e-05
7.87051e-05
8.01801e-05
7.73034e-05
7.9601e-05
7.46173e-05
4.47153e-05
5.39149e-05
3.62536e-05
5.78914e-05
6.82207e-05
6.22007e-05
6.0278e-05
5.82856e-05
4.17024e-05
1.90614e-05
1.3002e-05
1.30268e-05
1.47351e-05
1.9877e-05
2.44452e-05
2.69681e-05
2.42826e-05
2.0551e-05
1.85007e-05
1.60948e-05
1.42312e-05
1.20656e-05
1.10072e-05
1.0189e-05
9.19638e-06
8.61146e-06
9.08164e-06
1.18105e-05
2.55457e-05
5.03819e-05
1.26078e-05
5.58805e-06
2.08699e-05
0.000112589
0.000138063
0.000118433
0.000102712
8.54514e-05
7.94074e-05
7.45549e-05
7.37534e-05
7.65522e-05
7.64642e-05
8.1351e-05
8.08965e-05
8.65896e-05
8.85842e-05
0.00010118
0.000107457
0.00011688
0.000123399
0.000124006
0.00011075
6.71737e-05
3.20338e-05
1.96267e-05
1.35191e-05
1.61718e-05
3.13497e-05
9.08828e-05
0.000127155
4.50703e-07
4.91395e-06
5.84472e-05
4.40409e-05
4.52315e-05
5.12725e-05
5.26171e-05
5.70486e-05
5.85708e-05
6.47355e-05
6.68433e-05
7.3755e-05
7.83383e-05
8.25843e-05
8.201e-05
8.00983e-05
8.02061e-05
7.65131e-05
7.57859e-05
7.27758e-05
7.2217e-05
6.71478e-05
6.80158e-05
6.43928e-05
6.21821e-05
6.65441e-05
6.71012e-05
6.05028e-05
5.66395e-05
4.37829e-05
5.50067e-05
0.00014801
9.99702e-05
5.70424e-05
4.91038e-05
5.6904e-05
7.99757e-05
0.000107247
0.000111202
0.000102717
7.78497e-05
6.75866e-05
5.70634e-05
4.66835e-05
4.77372e-05
5.24642e-05
5.5024e-05
5.88185e-05
5.87513e-05
5.96604e-05
5.711e-05
5.4513e-05
5.20787e-05
4.86616e-05
5.04963e-05
5.39135e-05
6.37579e-05
7.98039e-05
9.66193e-05
0.000103185
3.92381e-05
0.00011732
0.000119713
0.000112037
0.000103749
0.000106173
0.000105374
9.82249e-05
8.98743e-05
8.55373e-05
8.59607e-05
8.7899e-05
8.74232e-05
8.03675e-05
7.35337e-05
6.36787e-05
5.76044e-05
5.85277e-05
5.44479e-05
5.02815e-05
4.78851e-05
4.82612e-05
5.11343e-05
5.40487e-05
5.63685e-05
6.08218e-05
6.67888e-05
7.38033e-05
7.9472e-05
8.17991e-05
1.34364e-05
8.77326e-05
8.4381e-05
8.23166e-05
8.91294e-05
9.04344e-05
9.03557e-05
8.4932e-05
8.19024e-05
7.46463e-05
7.45428e-05
7.23875e-05
7.24495e-05
7.29037e-05
7.28431e-05
7.36149e-05
6.80582e-05
6.58889e-05
5.79507e-05
6.0362e-05
6.63451e-05
7.77981e-05
7.46998e-05
7.47541e-05
6.95553e-05
6.98165e-05
8.23824e-05
5.22058e-05
3.98594e-07
2.11582e-07
2.67952e-08
5.67992e-08
1.14527e-07
5.96488e-07
6.40439e-06
5.57068e-05
5.82446e-05
5.30101e-05
4.5932e-05
4.83233e-05
4.59957e-05
4.46217e-05
4.52009e-05
4.28221e-05
4.0073e-05
3.99439e-05
3.80035e-05
3.79417e-05
3.6287e-05
3.41389e-05
3.32522e-05
4.20326e-05
5.02763e-05
5.91798e-05
6.62297e-05
7.23334e-05
3.51687e-05
1.1947e-06
1.27525e-07
1.76778e-07
0.000303458
0.00022931
0.000139876
0.000113325
0.000103395
0.000144853
0.000220252
0.000296918
0.000344834
0.000338199
0.000351929
0.000410175
0.000255985
2.08806e-05
1.45766e-06
6.42294e-06
2.94342e-06
2.42084e-06
2.40618e-06
2.52315e-06
2.84032e-06
3.46092e-06
4.09778e-06
5.16163e-06
6.56466e-06
7.54426e-06
8.94849e-06
1.07598e-05
1.20316e-05
1.57578e-05
1.93148e-05
2.71155e-05
3.43621e-05
3.4976e-05
3.69607e-05
3.17401e-05
2.61547e-05
2.39227e-05
2.77308e-05
3.4656e-05
3.18804e-05
1.83016e-05
4.47928e-06
7.75483e-06
8.51752e-05
9.60282e-05
8.84035e-05
9.66664e-05
7.58873e-05
4.34822e-05
2.5821e-05
2.06426e-05
1.71419e-05
1.85253e-05
1.90074e-05
2.05399e-05
2.15182e-05
2.39127e-05
2.16764e-05
2.26798e-05
2.29969e-05
2.88814e-05
4.18874e-05
5.62949e-05
6.51417e-05
4.92859e-05
2.63528e-05
2.38547e-05
1.78783e-05
2.92302e-05
7.70111e-05
0.000151468
0.000122737
1.84538e-05
6.52838e-05
7.88292e-05
8.06284e-05
7.35557e-05
6.19305e-05
5.63611e-05
5.25022e-05
4.96754e-05
4.17344e-05
3.32666e-05
2.49745e-05
2.03721e-05
1.66645e-05
1.35149e-05
1.17931e-05
1.11299e-05
1.00657e-05
1.20096e-05
1.1989e-05
2.09059e-05
2.94262e-05
5.65928e-05
7.64729e-05
8.78021e-05
7.48489e-05
5.45376e-05
4.09499e-05
4.7813e-05
5.73859e-05
4.91331e-05
7.17288e-06
5.44378e-05
5.87268e-05
5.8416e-05
5.83889e-05
5.92525e-05
5.96224e-05
5.9408e-05
5.98031e-05
6.07245e-05
5.96858e-05
5.71384e-05
4.81041e-05
3.43143e-05
2.06843e-05
1.41232e-05
1.18831e-05
1.32388e-05
1.52579e-05
1.65808e-05
2.13649e-05
3.29331e-05
5.73119e-05
8.6012e-05
9.86573e-05
9.30862e-05
7.38719e-05
5.30254e-05
4.55397e-05
4.15167e-05
3.21086e-05
6.04611e-05
5.2392e-05
3.40375e-05
4.38108e-05
5.94875e-05
6.21581e-05
6.29514e-05
6.30365e-05
6.27897e-05
6.23128e-05
6.17797e-05
6.1235e-05
6.07853e-05
6.04633e-05
6.04942e-05
6.0423e-05
6.02937e-05
5.96677e-05
5.93699e-05
6.10927e-05
6.12531e-05
6.37293e-05
6.80891e-05
7.20714e-05
7.84286e-05
8.35928e-05
8.20772e-05
8.46782e-05
5.77419e-05
6.33102e-05
4.45404e-05
6.84894e-05
6.49588e-05
5.93558e-05
5.56717e-05
2.62127e-05
1.25341e-05
1.4687e-05
2.3169e-05
4.75441e-05
5.82315e-05
6.05054e-05
5.88196e-05
4.82738e-05
3.57797e-05
2.10249e-05
1.71409e-05
1.54119e-05
1.5134e-05
1.52005e-05
1.31693e-05
1.09345e-05
8.69207e-06
6.16542e-06
4.92997e-06
5.47977e-06
1.16247e-05
4.21733e-05
1.93709e-05
9.11168e-06
8.52691e-05
0.000134939
0.000128484
0.000104535
9.13603e-05
7.60204e-05
7.84706e-05
7.58034e-05
7.55267e-05
8.08241e-05
7.95261e-05
8.32756e-05
8.05625e-05
7.65256e-05
7.26181e-05
7.74854e-05
8.73219e-05
0.000102937
0.000114261
0.000108828
7.47914e-05
4.1516e-05
1.73855e-05
9.83335e-06
4.84646e-06
4.21748e-06
6.19167e-06
4.03465e-05
0.000123417
5.63887e-06
5.82221e-05
4.82965e-05
4.43389e-05
4.78587e-05
5.22221e-05
5.07547e-05
5.49178e-05
5.59844e-05
6.19233e-05
6.67566e-05
7.55445e-05
8.16182e-05
8.59774e-05
8.79611e-05
8.34899e-05
8.29289e-05
7.93018e-05
8.65807e-05
8.48792e-05
7.64777e-05
5.20779e-05
3.9516e-05
4.37287e-05
6.779e-05
7.79546e-05
7.99641e-05
6.92299e-05
5.73189e-05
5.13318e-05
8.8535e-05
0.00011035
4.99966e-05
3.31645e-05
3.22923e-05
3.96026e-05
6.71236e-05
9.7184e-05
8.79089e-05
7.12352e-05
5.00676e-05
4.4488e-05
4.37238e-05
5.05662e-05
5.47832e-05
5.63602e-05
5.09432e-05
4.14604e-05
3.60767e-05
3.20988e-05
2.7468e-05
1.97786e-05
1.44054e-05
1.13035e-05
1.12559e-05
1.71372e-05
3.54251e-05
5.83514e-05
8.70485e-05
0.000106844
8.56695e-05
0.000122368
0.000100267
5.73564e-05
6.45135e-05
9.6773e-05
9.94526e-05
8.8566e-05
8.38853e-05
8.75959e-05
9.8549e-05
8.16643e-05
4.90871e-05
2.72536e-05
1.77041e-05
1.14923e-05
1.18156e-05
1.41329e-05
2.96466e-05
5.28682e-05
5.82352e-05
5.93359e-05
5.78833e-05
5.70749e-05
5.67554e-05
6.02702e-05
6.46532e-05
6.8851e-05
7.47607e-05
8.01251e-05
7.01986e-05
8.70981e-05
8.54872e-05
8.99755e-05
9.56951e-05
9.28426e-05
8.89153e-05
7.93154e-05
7.50312e-05
7.05455e-05
7.0702e-05
6.97313e-05
7.48983e-05
7.52787e-05
7.70207e-05
7.01062e-05
4.02996e-05
1.60175e-05
1.16381e-05
1.2756e-05
2.17928e-05
4.74415e-05
7.55413e-05
8.20241e-05
7.17748e-05
7.0643e-05
7.6779e-05
8.58704e-05
1.38395e-06
1.50798e-07
3.50733e-08
7.36396e-08
3.06918e-07
4.09055e-06
5.84647e-05
6.04995e-05
4.95894e-05
4.67609e-05
5.2018e-05
5.13943e-05
5.41673e-05
5.78885e-05
5.75047e-05
5.5544e-05
5.34229e-05
5.20245e-05
4.83562e-05
4.67875e-05
4.0841e-05
3.79536e-05
3.35943e-05
3.44508e-05
4.39461e-05
6.21974e-05
8.02115e-05
7.84138e-05
7.56198e-05
4.74562e-05
5.05219e-07
1.28067e-07
0.000157662
8.08333e-05
4.33261e-05
3.4865e-05
3.39337e-05
4.05782e-05
6.21537e-05
0.000140634
0.000238283
0.000282923
0.000292532
0.000357037
0.000299771
3.13188e-05
1.78173e-06
4.68844e-06
2.66391e-06
2.98292e-06
3.75772e-06
5.63398e-06
7.78416e-06
9.77682e-06
1.13467e-05
1.24576e-05
1.19017e-05
1.14641e-05
1.09805e-05
1.09352e-05
1.24775e-05
1.8523e-05
2.83078e-05
4.9753e-05
7.4216e-05
0.000101029
0.000110345
9.22963e-05
6.20318e-05
3.93067e-05
3.03553e-05
3.27243e-05
3.7092e-05
2.64287e-05
7.68926e-06
6.7875e-06
8.24502e-05
8.57359e-05
8.64608e-05
9.18241e-05
5.44866e-05
2.98377e-05
1.75996e-05
1.84863e-05
2.32229e-05
3.02588e-05
4.31101e-05
4.98033e-05
5.54997e-05
5.25295e-05
4.24423e-05
3.0116e-05
2.16047e-05
1.89437e-05
2.47634e-05
3.96789e-05
5.53775e-05
5.20513e-05
2.97482e-05
1.76219e-05
1.18963e-05
1.05136e-05
2.0634e-05
8.80521e-05
0.000142158
3.03189e-05
7.58825e-05
8.11208e-05
7.58591e-05
6.57007e-05
6.28443e-05
6.16672e-05
5.57164e-05
4.56338e-05
3.09735e-05
2.10648e-05
1.44423e-05
1.1433e-05
9.77736e-06
8.9702e-06
8.58565e-06
7.70742e-06
7.46988e-06
7.80042e-06
8.74387e-06
1.37552e-05
2.0833e-05
4.0065e-05
6.6213e-05
9.15826e-05
8.2894e-05
6.26041e-05
4.60457e-05
4.78878e-05
6.08496e-05
5.81749e-05
1.33335e-05
5.43558e-05
5.85766e-05
5.87343e-05
5.51485e-05
4.55618e-05
4.38443e-05
4.79244e-05
5.13414e-05
4.96353e-05
4.25456e-05
3.40023e-05
2.17534e-05
1.67694e-05
1.63434e-05
1.689e-05
2.01267e-05
2.13687e-05
2.3708e-05
2.41129e-05
2.49345e-05
3.03369e-05
4.57154e-05
7.3298e-05
9.55701e-05
0.000105193
9.49448e-05
7.27938e-05
5.32839e-05
4.07543e-05
4.16801e-05
5.84708e-05
4.01459e-05
4.7819e-05
6.07759e-05
6.25235e-05
6.21999e-05
6.19664e-05
6.27046e-05
6.30098e-05
6.23967e-05
6.17042e-05
6.11683e-05
6.24777e-05
6.50996e-05
6.49109e-05
6.66987e-05
6.83529e-05
6.75117e-05
7.02324e-05
6.86024e-05
7.37038e-05
7.08671e-05
6.83803e-05
7.0971e-05
7.36395e-05
7.98186e-05
8.4812e-05
8.35681e-05
6.53254e-05
7.31325e-05
5.97863e-05
6.80299e-05
6.19939e-05
5.76903e-05
2.83306e-05
1.44541e-05
1.77301e-05
4.63513e-05
5.95224e-05
6.20886e-05
6.06052e-05
6.32431e-05
6.1132e-05
4.3547e-05
1.99878e-05
1.12943e-05
1.03366e-05
1.05741e-05
1.14315e-05
1.1529e-05
1.15809e-05
1.05964e-05
8.78844e-06
5.93438e-06
3.86788e-06
3.26311e-06
6.18233e-06
3.29634e-05
2.40605e-05
1.66467e-05
0.000113943
0.000131753
0.000116874
9.49677e-05
8.76805e-05
7.42254e-05
7.73743e-05
7.30446e-05
7.41569e-05
7.49883e-05
8.16044e-05
8.44172e-05
8.57814e-05
8.25578e-05
7.15001e-05
7.22055e-05
8.37795e-05
9.58589e-05
0.00010846
0.000111067
9.33822e-05
8.00006e-05
6.018e-05
2.7142e-05
9.03365e-06
2.99167e-06
3.84301e-06
2.01783e-05
0.000111589
5.46339e-05
4.6443e-05
4.1609e-05
4.3694e-05
4.82344e-05
4.65696e-05
4.63064e-05
4.80446e-05
5.02309e-05
5.80949e-05
6.58689e-05
7.29778e-05
7.92341e-05
8.67207e-05
8.71979e-05
8.48486e-05
8.04758e-05
8.53655e-05
6.61459e-05
1.72859e-05
4.50367e-06
2.66936e-06
2.21426e-06
2.17674e-06
3.6027e-06
1.51966e-05
7.1089e-05
7.65266e-05
5.62882e-05
4.43785e-05
9.39011e-05
8.23311e-05
4.25222e-05
3.54949e-05
3.04793e-05
3.14907e-05
5.93477e-05
9.23275e-05
7.32727e-05
5.51991e-05
4.84711e-05
5.07764e-05
5.44334e-05
2.74069e-05
7.66519e-06
2.90565e-06
2.59235e-06
2.30216e-06
2.92619e-06
4.12899e-06
5.29787e-06
6.01893e-06
5.90249e-06
5.44615e-06
4.58091e-06
4.44255e-06
8.55008e-06
3.4892e-05
7.14176e-05
9.79105e-05
9.96932e-05
0.000118613
5.75324e-05
4.35941e-05
8.16612e-05
0.00010007
9.04488e-05
8.38364e-05
8.6483e-05
0.000100604
5.90201e-05
2.63734e-05
1.82441e-05
1.13686e-05
7.65282e-06
4.2229e-06
3.75675e-06
3.33768e-06
3.12288e-06
7.08143e-06
2.26123e-05
5.79308e-05
6.42095e-05
6.13715e-05
6.00195e-05
6.29729e-05
6.55529e-05
6.95634e-05
7.5936e-05
8.47452e-05
8.35898e-05
8.60584e-05
8.90297e-05
9.58415e-05
9.72337e-05
9.37574e-05
8.84064e-05
7.82956e-05
7.43757e-05
6.79793e-05
6.82239e-05
7.114e-05
7.25514e-05
7.41746e-05
7.75863e-05
6.28797e-05
1.32693e-05
5.28193e-06
4.03505e-06
4.40564e-06
7.50584e-06
1.87962e-05
7.12323e-05
8.30849e-05
7.42733e-05
7.02419e-05
7.4173e-05
8.87132e-05
6.22539e-06
1.33811e-07
4.46867e-08
1.14488e-07
1.37544e-06
4.53679e-05
6.28804e-05
5.08559e-05
4.81201e-05
4.98281e-05
5.49798e-05
6.38758e-05
6.54243e-05
6.90028e-05
6.87906e-05
6.61423e-05
6.27014e-05
5.83693e-05
5.67123e-05
5.36036e-05
4.76186e-05
4.55386e-05
3.77726e-05
3.48647e-05
4.12747e-05
6.56811e-05
8.59655e-05
8.89863e-05
8.24058e-05
7.29237e-05
2.4304e-06
8.47956e-08
0.000100928
4.19172e-05
2.91971e-05
2.93494e-05
2.88297e-05
2.85794e-05
3.22212e-05
5.79966e-05
0.000134371
0.000208074
0.000235865
0.000313117
0.00031336
4.49877e-05
2.64695e-06
3.47478e-06
3.45089e-06
5.31578e-06
7.94383e-06
1.33565e-05
1.71805e-05
2.15284e-05
2.14331e-05
1.93973e-05
1.4781e-05
1.10764e-05
7.89965e-06
7.82297e-06
1.00147e-05
1.67577e-05
3.51432e-05
7.44737e-05
0.000122985
0.000165055
0.000180356
0.000171194
0.000120656
6.82518e-05
3.86282e-05
3.27605e-05
3.71135e-05
3.04186e-05
1.10288e-05
6.82307e-06
8.31874e-05
7.82697e-05
8.45048e-05
8.86056e-05
5.53623e-05
3.45389e-05
3.32156e-05
4.69894e-05
6.98373e-05
9.05121e-05
0.000101632
0.000106447
0.000103763
0.000101248
9.18536e-05
6.93794e-05
3.59981e-05
1.98436e-05
1.90021e-05
2.8875e-05
4.51472e-05
5.17984e-05
3.68202e-05
2.03964e-05
1.24125e-05
8.90126e-06
1.07953e-05
4.08753e-05
0.000131985
3.82163e-05
7.8221e-05
7.96385e-05
7.19871e-05
6.75259e-05
6.75211e-05
6.3025e-05
4.85086e-05
3.03858e-05
1.71009e-05
1.08607e-05
9.0079e-06
8.89753e-06
9.59233e-06
1.10195e-05
1.03307e-05
1.04242e-05
8.81419e-06
8.89521e-06
8.49425e-06
1.28437e-05
1.83649e-05
3.21514e-05
6.11505e-05
8.82065e-05
8.58988e-05
6.69698e-05
5.03001e-05
4.85565e-05
5.94513e-05
6.17032e-05
3.34857e-05
5.86881e-05
5.94341e-05
4.94237e-05
2.17864e-05
1.23995e-05
1.02702e-05
1.05939e-05
1.1424e-05
1.19671e-05
1.35745e-05
1.79032e-05
2.58709e-05
3.4391e-05
4.90633e-05
5.98068e-05
6.30393e-05
6.31779e-05
5.6243e-05
4.71702e-05
3.83931e-05
3.50219e-05
4.39796e-05
6.37556e-05
8.96653e-05
0.000104202
0.000102913
8.39983e-05
6.01595e-05
3.98027e-05
4.65814e-05
5.57258e-05
4.49217e-05
5.97418e-05
6.23802e-05
6.15228e-05
6.15735e-05
6.29095e-05
6.33984e-05
6.28695e-05
6.21937e-05
6.13825e-05
6.3406e-05
6.6834e-05
6.78595e-05
7.19202e-05
7.32665e-05
7.19418e-05
7.43476e-05
7.41792e-05
7.74964e-05
7.73918e-05
7.87638e-05
7.72583e-05
7.34334e-05
7.41557e-05
7.68996e-05
8.32448e-05
8.61638e-05
6.97308e-05
7.051e-05
6.56379e-05
6.56567e-05
6.20576e-05
4.3525e-05
1.74617e-05
2.23564e-05
4.69218e-05
6.24088e-05
5.82822e-05
5.47524e-05
5.52769e-05
6.16989e-05
6.05222e-05
3.21334e-05
1.22055e-05
9.72615e-06
1.11774e-05
1.81947e-05
1.99685e-05
1.83161e-05
1.54555e-05
1.21298e-05
9.60855e-06
6.21185e-06
3.62392e-06
2.7394e-06
4.38387e-06
2.50104e-05
2.58628e-05
2.75503e-05
0.000122428
0.000124914
0.000107678
9.26391e-05
8.12412e-05
7.34497e-05
7.00499e-05
6.80964e-05
6.84218e-05
6.87676e-05
7.32972e-05
8.32828e-05
8.44016e-05
8.26541e-05
7.23888e-05
6.78702e-05
8.10916e-05
0.000103019
0.000123705
0.00013433
0.000137754
0.000133559
0.000117401
0.000104987
3.89113e-05
7.52918e-06
3.44649e-06
1.50702e-05
0.000108968
5.40951e-05
4.06403e-05
4.1135e-05
4.4656e-05
4.41796e-05
4.33283e-05
3.97832e-05
4.21676e-05
4.34667e-05
5.03301e-05
6.04339e-05
7.05885e-05
7.79325e-05
8.47489e-05
8.48483e-05
7.95736e-05
8.14053e-05
6.93821e-05
1.50629e-05
3.33792e-06
1.82917e-06
1.50557e-06
1.80988e-06
1.86069e-06
1.48532e-06
2.4688e-06
1.69505e-05
7.44189e-05
5.52567e-05
4.36137e-05
9.26405e-05
7.36734e-05
5.23291e-05
4.91358e-05
3.33398e-05
3.12964e-05
6.52838e-05
8.45035e-05
6.57239e-05
5.2111e-05
5.39969e-05
4.88798e-05
7.50095e-06
1.69641e-06
1.25062e-06
8.54192e-07
1.16355e-06
9.31992e-07
2.06377e-06
2.66138e-06
5.56784e-06
7.31032e-06
9.64932e-06
9.14096e-06
6.29603e-06
3.49638e-06
3.40879e-06
1.22489e-05
6.50639e-05
0.000108464
0.000104355
0.000104961
4.86758e-05
6.49265e-05
9.64977e-05
9.55199e-05
8.48632e-05
8.35642e-05
9.96148e-05
7.68205e-05
3.3935e-05
2.631e-05
1.79847e-05
1.01954e-05
4.94459e-06
3.12795e-06
2.67695e-06
2.2212e-06
2.06773e-06
3.29772e-06
6.30459e-06
2.41607e-05
6.03839e-05
6.58174e-05
6.28635e-05
6.27271e-05
6.40766e-05
6.71724e-05
7.17667e-05
8.0847e-05
8.65668e-05
8.68776e-05
9.3038e-05
9.97014e-05
0.000102018
9.95962e-05
9.21008e-05
8.47589e-05
7.43036e-05
6.86286e-05
6.64802e-05
6.54581e-05
6.82952e-05
7.20205e-05
7.68811e-05
6.89255e-05
2.41573e-05
6.41745e-06
5.60231e-06
5.31558e-06
8.88291e-06
2.07491e-05
6.83988e-05
8.1889e-05
7.20597e-05
6.80687e-05
7.04789e-05
8.58282e-05
3.30786e-05
1.4687e-07
5.11726e-08
2.09154e-07
6.7737e-06
6.75689e-05
5.65767e-05
4.99161e-05
4.92592e-05
5.60079e-05
6.55522e-05
7.71216e-05
8.13031e-05
8.74966e-05
9.10049e-05
8.82184e-05
7.95306e-05
7.11469e-05
6.60514e-05
5.76185e-05
5.48784e-05
4.77497e-05
4.5013e-05
3.78706e-05
3.88766e-05
6.71021e-05
8.38497e-05
8.87241e-05
8.74629e-05
8.0718e-05
3.99033e-06
7.57909e-08
7.93852e-05
3.07519e-05
2.94718e-05
3.92226e-05
4.65191e-05
3.73518e-05
3.03624e-05
3.57571e-05
7.21837e-05
0.000144279
0.00018542
0.000274307
0.000322517
5.90505e-05
4.18372e-06
3.67577e-06
6.64838e-06
8.98219e-06
1.29616e-05
2.11748e-05
2.81169e-05
2.94813e-05
2.80276e-05
2.08111e-05
1.39556e-05
8.63085e-06
5.77538e-06
5.63961e-06
9.08657e-06
2.39763e-05
5.89391e-05
0.000109095
0.000143363
0.000159431
0.000172329
0.000176285
0.000150822
9.26283e-05
4.46019e-05
3.44025e-05
3.77082e-05
3.41365e-05
1.38168e-05
6.42399e-06
7.75866e-05
6.97398e-05
8.08148e-05
9.12467e-05
7.13941e-05
6.20112e-05
7.85891e-05
0.000106117
0.000107266
0.000113322
0.000111521
0.00011341
0.000113121
0.000114177
0.00010891
9.94567e-05
6.73858e-05
2.25338e-05
1.75079e-05
2.27163e-05
3.68205e-05
4.60577e-05
3.96e-05
2.41134e-05
1.45431e-05
9.59694e-06
8.03153e-06
2.22952e-05
0.000114326
4.5042e-05
8.12363e-05
7.87852e-05
7.14813e-05
6.80317e-05
6.78486e-05
6.02306e-05
3.99982e-05
2.06379e-05
1.15784e-05
9.54748e-06
9.58837e-06
1.25346e-05
1.80874e-05
2.10088e-05
2.11448e-05
1.80193e-05
1.35935e-05
1.21667e-05
1.03683e-05
1.43018e-05
1.87796e-05
3.51286e-05
6.1512e-05
8.54149e-05
8.6677e-05
6.87947e-05
5.00531e-05
4.99632e-05
5.44081e-05
5.92379e-05
5.49517e-05
6.32164e-05
5.74138e-05
2.19165e-05
8.01005e-06
6.24942e-06
6.0614e-06
8.16447e-06
1.04908e-05
2.1085e-05
3.9262e-05
6.99314e-05
9.05092e-05
0.00010707
0.000110826
0.00011459
0.000110315
0.000103324
9.29157e-05
7.39966e-05
5.62215e-05
4.49503e-05
4.56785e-05
6.22386e-05
8.46864e-05
0.000103613
0.000100238
8.92948e-05
6.11454e-05
3.87223e-05
4.97782e-05
5.26447e-05
5.8223e-05
6.19334e-05
6.22036e-05
6.20056e-05
6.33529e-05
6.28684e-05
6.27486e-05
6.25248e-05
6.19021e-05
6.15005e-05
6.51173e-05
6.67361e-05
7.09621e-05
7.22908e-05
7.42986e-05
7.9156e-05
7.81693e-05
8.32203e-05
7.93375e-05
8.25795e-05
8.09992e-05
8.17652e-05
8.02666e-05
7.66018e-05
7.77693e-05
8.28095e-05
8.83978e-05
7.28414e-05
7.17504e-05
6.76167e-05
6.60072e-05
5.95098e-05
3.28762e-05
2.40209e-05
4.56972e-05
6.05393e-05
5.80158e-05
5.26981e-05
5.16879e-05
5.24354e-05
6.11805e-05
5.95688e-05
2.43766e-05
9.70072e-06
1.016e-05
2.09579e-05
4.13779e-05
4.86736e-05
4.70993e-05
3.8077e-05
2.47581e-05
1.39455e-05
7.36571e-06
3.64089e-06
2.56865e-06
3.76054e-06
2.26401e-05
2.4564e-05
3.61498e-05
0.000116682
0.000114765
0.000101176
8.50822e-05
7.91034e-05
7.00574e-05
6.97412e-05
6.36032e-05
6.66969e-05
6.64193e-05
6.99157e-05
7.70582e-05
8.39913e-05
8.35937e-05
7.15834e-05
6.67581e-05
9.20494e-05
0.000120476
0.000143464
0.00014337
0.000137222
0.000119903
0.000105738
0.000101241
9.95692e-05
3.76301e-05
9.33365e-06
2.19926e-05
0.000102157
4.67504e-05
3.79656e-05
4.0525e-05
4.12671e-05
4.04457e-05
3.86366e-05
3.90477e-05
3.76464e-05
3.77291e-05
4.33866e-05
5.52924e-05
6.7612e-05
7.56868e-05
8.41819e-05
7.90918e-05
7.47212e-05
7.51516e-05
4.0845e-05
6.95622e-06
3.22477e-06
2.71295e-06
3.74686e-06
4.82263e-06
6.17095e-06
4.0291e-06
1.94516e-06
5.3104e-06
6.93952e-05
5.17406e-05
3.879e-05
8.90573e-05
8.20655e-05
8.26941e-05
6.7277e-05
3.69517e-05
3.47594e-05
7.2368e-05
7.86778e-05
6.29846e-05
5.40175e-05
5.99768e-05
1.12604e-05
2.77682e-06
1.52373e-06
2.03502e-06
2.41627e-06
3.19254e-06
2.85571e-06
3.34935e-06
4.98456e-06
1.2685e-05
2.70906e-05
3.77111e-05
3.57862e-05
2.2267e-05
7.66395e-06
3.44317e-06
5.8201e-06
5.52816e-05
0.000103495
0.000105806
8.7626e-05
5.84951e-05
8.75023e-05
0.000100194
9.08502e-05
8.04836e-05
8.70349e-05
0.000100429
6.73598e-05
4.52634e-05
3.09566e-05
1.65009e-05
6.16365e-06
2.9019e-06
1.94795e-06
1.46441e-06
1.57616e-06
1.62571e-06
2.15019e-06
3.65028e-06
1.16197e-05
4.71022e-05
6.41053e-05
6.36715e-05
6.28666e-05
6.08655e-05
6.28678e-05
7.10137e-05
8.07831e-05
8.49167e-05
8.55974e-05
9.59934e-05
0.00010599
0.000109292
0.000106293
0.000104213
9.37932e-05
8.21864e-05
7.2915e-05
6.19291e-05
6.12023e-05
6.38586e-05
6.64653e-05
7.03453e-05
7.55807e-05
6.71482e-05
3.85753e-05
2.09021e-05
1.53561e-05
2.50542e-05
5.3091e-05
7.94142e-05
7.46223e-05
6.82378e-05
6.38321e-05
6.88361e-05
7.91417e-05
7.20125e-05
1.56233e-07
5.62131e-08
3.8372e-07
3.48126e-05
6.38063e-05
5.10508e-05
4.95638e-05
5.43255e-05
6.39605e-05
7.75363e-05
9.40777e-05
0.000106181
0.000112898
0.000114539
0.000107726
0.000104247
8.85869e-05
7.98299e-05
6.93842e-05
5.85326e-05
5.24085e-05
4.90736e-05
4.32358e-05
4.1376e-05
6.98886e-05
7.35694e-05
7.95195e-05
8.90825e-05
7.69883e-05
4.49763e-06
6.90668e-08
6.40505e-05
2.58988e-05
3.24164e-05
6.12903e-05
8.78037e-05
6.99687e-05
4.02054e-05
3.04244e-05
4.41981e-05
8.7286e-05
0.000134236
0.000236384
0.000321978
7.99521e-05
6.0201e-06
6.51903e-06
1.54466e-05
1.59584e-05
1.87112e-05
2.42615e-05
3.08923e-05
3.10377e-05
2.91612e-05
1.95863e-05
1.29849e-05
6.93109e-06
4.48403e-06
4.53644e-06
1.04814e-05
3.74644e-05
9.88907e-05
0.000121783
0.000109841
9.27965e-05
0.000101896
0.000126007
0.000124646
8.93412e-05
4.77811e-05
3.44216e-05
3.6789e-05
3.59078e-05
1.68079e-05
7.16863e-06
7.39406e-05
6.71917e-05
7.68902e-05
9.77116e-05
9.47262e-05
9.84219e-05
0.000101936
0.000107951
0.000111426
0.000109757
0.000107133
0.000106205
0.000103909
0.000105613
9.94145e-05
0.00010611
8.73357e-05
3.96232e-05
1.5402e-05
2.03708e-05
3.18055e-05
3.98102e-05
3.6774e-05
2.51216e-05
1.49587e-05
9.70726e-06
7.25993e-06
1.71927e-05
0.000101391
4.5154e-05
8.20232e-05
7.99221e-05
7.457e-05
7.02462e-05
6.77649e-05
5.81205e-05
3.71081e-05
1.93402e-05
1.21539e-05
1.10247e-05
1.40593e-05
2.06169e-05
2.88836e-05
3.38991e-05
3.46078e-05
2.66669e-05
2.04094e-05
1.66852e-05
1.51484e-05
1.88027e-05
2.76413e-05
4.37454e-05
6.78764e-05
8.72797e-05
8.05431e-05
6.84375e-05
5.10862e-05
4.81604e-05
5.39414e-05
5.96569e-05
6.78408e-05
6.48818e-05
4.31262e-05
1.09559e-05
6.54082e-06
6.24912e-06
8.23697e-06
1.58522e-05
3.77824e-05
7.76017e-05
0.000105649
0.000113455
0.000115399
0.000117281
0.000113438
0.000115153
0.000115884
0.000114198
0.000102643
8.61368e-05
6.48108e-05
5.13662e-05
5.33249e-05
6.51607e-05
8.92308e-05
0.000102013
0.000100902
8.63439e-05
5.87134e-05
3.4755e-05
5.10935e-05
5.52362e-05
6.0328e-05
6.26761e-05
6.28002e-05
6.37014e-05
6.27598e-05
6.2874e-05
6.312e-05
6.28325e-05
6.23055e-05
6.22951e-05
6.40403e-05
6.95149e-05
7.24767e-05
7.48454e-05
7.95161e-05
7.96894e-05
8.3779e-05
8.37479e-05
8.27353e-05
8.73385e-05
8.03497e-05
8.71539e-05
8.55336e-05
8.10963e-05
8.11952e-05
8.385e-05
9.02035e-05
7.5082e-05
7.12623e-05
6.89505e-05
6.42089e-05
5.53165e-05
3.38718e-05
4.01801e-05
5.86511e-05
5.84303e-05
5.38875e-05
5.05798e-05
5.16217e-05
5.36328e-05
6.06526e-05
6.08546e-05
2.6236e-05
8.34973e-06
8.21641e-06
2.26399e-05
5.15585e-05
6.08632e-05
6.21443e-05
5.87752e-05
4.23339e-05
1.99566e-05
8.51429e-06
3.87936e-06
2.70483e-06
4.47885e-06
2.55497e-05
2.34391e-05
3.89799e-05
0.000110206
0.000108568
9.25797e-05
8.26467e-05
7.52707e-05
6.77982e-05
6.36824e-05
6.38017e-05
6.16819e-05
6.69013e-05