/*--------------------------------*- C++ -*----------------------------------*\
| =========                 |                                                 |
| \\      /  F ield         | OpenFOAM: The Open Source CFD Toolbox           |
|  \\    /   O peration     | Version:  2.1.1                                 |
|   \\  /    A nd           | Web:      www.OpenFOAM.org                      |
|    \\/     M anipulation  |                                                 |
\*---------------------------------------------------------------------------*/
FoamFile
{
    version     2.0;
    format      ascii;
    class       volScalarField;
    location    "0.004350000";
    object      H2O;
}
// * * * * * * * * * * * * * * * * * * * * * * * * * * * * * * * * * * * * * //

dimensions      [0 0 0 0 0 0 0];

internalField   nonuniform List<scalar> 
12384
(
0.241035
0.241905
0.242419
0.242661
0.242854
0.242901
0.242536
0.242094
0.24147
0.240942
0.238911
0.232327
0.205823
0.217655
0.188718
0.199497
0.202666
0.204446
0.205161
0.205495
0.205459
0.205323
0.205102
0.204933
0.204741
0.204757
0.204668
0.204768
0.204853
0.204809
0.205546
0.203865
0.205339
0.204081
0.205273
0.205045
0.205769
0.206681
0.209043
0.200875
0.178606
0.169733
0.183784
0.22232
0.234779
0.244092
0.246867
0.247813
0.246956
0.245889
0.24513
0.244256
0.243782
0.242814
0.242892
0.24164
0.242261
0.240643
0.24149
0.240289
0.240933
0.240088
0.240189
0.239227
0.238065
0.227487
0.235514
0.242851
0.244463
0.244905
0.244188
0.239523
0.224519
0.209877
0.249764
0.250449
0.251778
0.251902
0.25177
0.251657
0.251825
0.251422
0.251113
0.250993
0.250793
0.250728
0.250591
0.251028
0.250716
0.251132
0.251205
0.251218
0.25103
0.251446
0.251548
0.251286
0.251567
0.250053
0.244863
0.235654
0.234811
0.235977
0.236328
0.236042
0.242468
0.234984
0.241602
0.247288
0.249178
0.249458
0.249016
0.246868
0.243615
0.240272
0.23794
0.235859
0.235134
0.234586
0.234172
0.233434
0.233003
0.233656
0.235347
0.236473
0.239278
0.245529
0.249255
0.248297
0.240184
0.22832
0.224593
0.225755
0.228562
0.229991
0.230995
0.25212
0.252125
0.252209
0.252093
0.250933
0.249875
0.249636
0.249858
0.250339
0.250903
0.251472
0.252042
0.252067
0.252088
0.252102
0.25211
0.252108
0.252134
0.252074
0.252159
0.25218
0.251577
0.251353
0.2503
0.250016
0.249547
0.249726
0.247978
0.230821
0.247227
0.245035
0.248676
0.252044
0.251801
0.251571
0.25188
0.252027
0.252196
0.252164
0.250582
0.249754
0.248375
0.24681
0.245262
0.244445
0.243545
0.24243
0.24236
0.240796
0.241232
0.239797
0.239915
0.239086
0.239078
0.240413
0.243486
0.248955
0.251124
0.22399
0.19249
0.198127
0.224889
0.250688
0.250654
0.250864
0.251268
0.251241
0.251446
0.251527
0.251445
0.251539
0.251268
0.251375
0.25116
0.250988
0.250857
0.250721
0.250634
0.25048
0.250381
0.25065
0.250046
0.249716
0.249195
0.249402
0.248475
0.249886
0.250436
0.250638
0.161355
0.165396
0.194487
0.249791
0.24889
0.249542
0.249758
0.249896
0.249977
0.250071
0.250093
0.250058
0.249974
0.249896
0.249769
0.24967
0.24954
0.249473
0.249343
0.249258
0.24925
0.249195
0.249281
0.249276
0.249316
0.249453
0.249515
0.249297
0.249766
0.242491
0.198182
0.243627
0.244887
0.241425
0.241192
0.242261
0.244493
0.247237
0.249157
0.250142
0.251293
0.250959
0.25127
0.25152
0.251545
0.251718
0.251742
0.251973
0.25191
0.251999
0.251858
0.251915
0.251716
0.251778
0.25178
0.251732
0.251636
0.251283
0.250995
0.251274
0.204624
0.250536
0.25037
0.250524
0.250601
0.250591
0.250491
0.250334
0.250157
0.250001
0.24987
0.249826
0.249873
0.25
0.250069
0.250022
0.250103
0.249961
0.250076
0.250114
0.249886
0.249987
0.250095
0.2502
0.250315
0.250441
0.25053
0.250739
0.251504
0.251853
0.174799
0.251714
0.249188
0.24883
0.248795
0.24905
0.249352
0.249869
0.250097
0.25051
0.250687
0.25093
0.251102
0.25121
0.251246
0.251289
0.251313
0.251348
0.251283
0.251106
0.250824
0.250413
0.249896
0.249326
0.24889
0.24908
0.251434
0.181885
0.151599
0.160342
0.153598
0.149307
0.144484
0.157511
0.185582
0.218752
0.251833
0.251883
0.250733
0.250018
0.249492
0.249076
0.248803
0.24872
0.248591
0.248749
0.248878
0.249282
0.249814
0.250538
0.251296
0.251728
0.2523
0.252246
0.245422
0.211777
0.172705
0.152012
0.151702
0.162722
0.245578
0.245178
0.245016
0.244769
0.244642
0.244762
0.244451
0.243874
0.242611
0.241389
0.239794
0.234712
0.216997
0.21433
0.188695
0.202155
0.205817
0.20614
0.205685
0.204877
0.204033
0.2034
0.202997
0.202863
0.203008
0.203342
0.203904
0.204635
0.205359
0.206007
0.207021
0.206361
0.207522
0.20664
0.207237
0.206813
0.206388
0.206376
0.208169
0.207499
0.199476
0.182806
0.178495
0.207811
0.238756
0.248078
0.249065
0.248163
0.244671
0.240587
0.236133
0.231699
0.228459
0.226662
0.225845
0.225862
0.226589
0.227425
0.229206
0.230816
0.233129
0.236261
0.237523
0.238838
0.23831
0.23127
0.226392
0.234553
0.236811
0.241051
0.243512
0.244098
0.23874
0.216646
0.250339
0.251942
0.25177
0.251417
0.251122
0.249392
0.248309
0.247477
0.246991
0.246117
0.244904
0.243807
0.242876
0.242267
0.242027
0.241847
0.242528
0.244067
0.24593
0.247852
0.24899
0.250174
0.251342
0.25107
0.248923
0.243085
0.23728
0.239359
0.240278
0.238739
0.226138
0.244872
0.252247
0.252248
0.252147
0.252134
0.252156
0.252216
0.252269
0.252192
0.252049
0.250327
0.248779
0.243988
0.238962
0.234686
0.231559
0.23078
0.230945
0.232351
0.235351
0.242024
0.247329
0.249214
0.248602
0.245426
0.236178
0.234518
0.236683
0.236372
0.239076
0.252172
0.252194
0.250814
0.248371
0.248508
0.250398
0.252065
0.252127
0.252177
0.252212
0.252145
0.252081
0.252023
0.25197
0.251923
0.25188
0.251841
0.251819
0.251785
0.251794
0.251791
0.25181
0.251867
0.251869
0.251669
0.251266
0.250996
0.249581
0.243924
0.248651
0.2463
0.251617
0.251868
0.251501
0.251833
0.252243
0.250027
0.240288
0.234465
0.23387
0.235744
0.24039
0.243297
0.244172
0.243061
0.240766
0.238845
0.236234
0.234493
0.232177
0.230597
0.228954
0.227124
0.22599
0.226869
0.232019
0.243187
0.250365
0.232783
0.197858
0.226107
0.250128
0.250628
0.250885
0.2512
0.251449
0.251671
0.251747
0.251758
0.251755
0.25181
0.251757
0.252032
0.25172
0.251692
0.251753
0.251163
0.250985
0.250804
0.250549
0.249399
0.24311
0.231436
0.222094
0.215966
0.220333
0.232078
0.247106
0.250702
0.172788
0.218434
0.25206
0.249373
0.249427
0.250168
0.25054
0.25079
0.250997
0.251059
0.251161
0.251101
0.25101
0.250736
0.250564
0.250282
0.250049
0.249886
0.249939
0.250003
0.250389
0.250491
0.250642
0.250572
0.250401
0.250254
0.250286
0.249873
0.249911
0.250389
0.2278
0.2428
0.237319
0.228305
0.228428
0.234807
0.243837
0.249546
0.251548
0.251419
0.251192
0.250988
0.250902
0.25095
0.251321
0.251474
0.251913
0.252007
0.252172
0.252281
0.252242
0.2522
0.251967
0.251514
0.251767
0.252216
0.25216
0.251733
0.251187
0.251138
0.24584
0.250622
0.250866
0.25096
0.25075
0.25115
0.251083
0.250669
0.250165
0.249897
0.250083
0.25063
0.251151
0.251704
0.251853
0.252069
0.252113
0.251947
0.25157
0.251199
0.250727
0.250402
0.250234
0.250235
0.250369
0.250496
0.250555
0.250621
0.251125
0.251733
0.239087
0.250286
0.24887
0.248916
0.249493
0.250258
0.250804
0.251307
0.251489
0.251713
0.251724
0.251859
0.251875
0.251861
0.251911
0.252156
0.251875
0.25203
0.250999
0.251485
0.25192
0.251778
0.251281
0.25021
0.249248
0.248828
0.250004
0.249193
0.164791
0.154879
0.152652
0.146619
0.151369
0.177339
0.22036
0.252333
0.250566
0.248234
0.246759
0.246078
0.245772
0.245642
0.245629
0.245622
0.245531
0.245375
0.245185
0.244971
0.244842
0.244784
0.24516
0.246234
0.247372
0.248704
0.249585
0.251127
0.248157
0.187371
0.155627
0.15835
0.242167
0.240437
0.235414
0.233766
0.2328
0.237209
0.240298
0.242477
0.242277
0.240582
0.239217
0.23603
0.225256
0.214497
0.189393
0.204357
0.20628
0.206275
0.205833
0.205454
0.204882
0.204844
0.204876
0.205595
0.206145
0.206632
0.207223
0.207684
0.20875
0.210219
0.212107
0.21423
0.216085
0.217195
0.216464
0.214288
0.211254
0.208682
0.207936
0.208825
0.208054
0.197468
0.180325
0.198155
0.241701
0.248684
0.247806
0.245959
0.239271
0.229691
0.221534
0.217
0.215073
0.216769
0.217986
0.221606
0.222841
0.224847
0.22455
0.224953
0.225854
0.229324
0.233182
0.236498
0.238526
0.234776
0.226374
0.223276
0.220522
0.225321
0.23614
0.242034
0.242375
0.224178
0.251992
0.251828
0.251258
0.249861
0.24784
0.246897
0.246528
0.245989
0.244571
0.242692
0.240709
0.237931
0.235291
0.233401
0.231299
0.230476
0.229608
0.23122
0.232882
0.236007
0.24265
0.247577
0.25011
0.251399
0.250164
0.247266
0.24042
0.240154
0.242518
0.24057
0.225446
0.252243
0.252149
0.252066
0.252127
0.252173
0.252157
0.252121
0.252133
0.252198
0.252241
0.252147
0.250872
0.248675
0.242107
0.235581
0.233227
0.231879
0.2309
0.231297
0.233071
0.238065
0.245508
0.248301
0.249825
0.249439
0.246856
0.241232
0.238341
0.236712
0.247121
0.252159
0.251275
0.247968
0.249918
0.252112
0.252196
0.252212
0.252187
0.252148
0.252094
0.252024
0.251949
0.251882
0.251832
0.251786
0.251746
0.251718
0.251672
0.251632
0.251465
0.251477
0.251327
0.251396
0.25149
0.251691
0.251738
0.251466
0.251425
0.247369
0.250371
0.24905
0.252223
0.251562
0.251782
0.252212
0.245028
0.23433
0.235947
0.243286
0.250341
0.252076
0.252054
0.252038
0.250248
0.248324
0.241232
0.237511
0.235548
0.235383
0.235246
0.233321
0.230326
0.226153
0.221187
0.216961
0.218859
0.231695
0.249081
0.239415
0.209018
0.247925
0.250576
0.250725
0.251094
0.251227
0.251258
0.251066
0.250929
0.250886
0.251004
0.251281
0.251597
0.251774
0.25177
0.251511
0.251272
0.251219
0.251163
0.250912
0.249604
0.244952
0.234419
0.220984
0.208155
0.196935
0.194564
0.201923
0.235824
0.250718
0.222504
0.252188
0.250289
0.249443
0.250057
0.250604
0.250791
0.250966
0.251124
0.251342
0.251509
0.251582
0.251666
0.251323
0.251073
0.250702
0.250492
0.25066
0.251189
0.251632
0.25189
0.249224
0.246667
0.248185
0.251619
0.251767
0.251312
0.250563
0.250129
0.251828
0.236171
0.239173
0.225202
0.219071
0.221763
0.230162
0.244627
0.250831
0.251344
0.250765
0.250456
0.250305
0.250762
0.251495
0.252119
0.252244
0.25186
0.249899
0.249293
0.247615
0.245747
0.241662
0.236651
0.233586
0.233604
0.239314
0.249337
0.252157
0.251539
0.251047
0.250898
0.250854
0.249978
0.244506
0.246471
0.250969
0.251062
0.25027
0.249874
0.250216
0.251271
0.250874
0.246643
0.238266
0.23375
0.229976
0.233963
0.235724
0.246658
0.251837
0.252206
0.251573
0.250946
0.250585
0.250561
0.2507
0.250817
0.250871
0.25108
0.251696
0.251905
0.249372
0.248894
0.249543
0.250376
0.250989
0.251369
0.251602
0.251766
0.251877
0.251829
0.251851
0.251565
0.251526
0.251754
0.251754
0.247767
0.23273
0.225564
0.227388
0.23713
0.248645
0.252113
0.251022
0.249773
0.24877
0.249206
0.251529
0.183391
0.150016
0.150589
0.147552
0.166279
0.213014
0.252214
0.250148
0.247589
0.246368
0.246157
0.246375
0.246641
0.246863
0.246983
0.246998
0.246895
0.246715
0.246432
0.246036
0.245497
0.244893
0.244505
0.244909
0.246677
0.248769
0.25005
0.250228
0.251063
0.25013
0.174468
0.152972
0.235645
0.227808
0.220549
0.219023
0.219068
0.221733
0.22732
0.237065
0.240005
0.239524
0.237852
0.236501
0.229141
0.215939
0.191127
0.206527
0.208148
0.209907
0.212112
0.214344
0.216514
0.218362
0.219308
0.218635
0.217423
0.215277
0.213223
0.211607
0.211309
0.212898
0.216745
0.221143
0.22579
0.228211
0.228865
0.226724
0.221639
0.214543
0.20957
0.208971
0.21034
0.204607
0.186183
0.195784
0.242368
0.247409
0.24635
0.244868
0.236731
0.226038
0.220503
0.219615
0.224645
0.230689
0.236238
0.23926
0.24101
0.240849
0.238936
0.233928
0.227854
0.226529
0.22974
0.233787
0.23708
0.237046
0.229603
0.221703
0.216294
0.214612
0.221551
0.236989
0.241956
0.229941
0.251877
0.251615
0.25039
0.248302
0.247505
0.247396
0.247308
0.246737
0.243368
0.238947
0.234559
0.231351
0.228848
0.22725
0.226643
0.225166
0.224772
0.224566
0.225977
0.228968
0.236444
0.242534
0.248273
0.251334
0.250679
0.248377
0.242845
0.240974
0.243992
0.24305
0.235525
0.252189
0.252237
0.252292
0.252152
0.250625
0.250302
0.250879
0.251336
0.251085
0.249932
0.248248
0.242602
0.23726
0.235033
0.234235
0.234452
0.234758
0.234478
0.234481
0.234506
0.236781
0.242333
0.246887
0.249333
0.250405
0.249531
0.246506
0.241018
0.237117
0.249566
0.252082
0.249321
0.250505
0.25215
0.252204
0.252185
0.252178
0.252198
0.252177
0.25209
0.251992
0.251916
0.25188
0.251842
0.25188
0.2519
0.251868
0.251894
0.251789
0.251779
0.251603
0.251424
0.251293
0.251204
0.251332
0.251623
0.251708
0.25125
0.248655
0.252113
0.251381
0.251847
0.251575
0.252294
0.246163
0.236159
0.239467
0.250419
0.252176
0.252007
0.251913
0.25203
0.252113
0.249522
0.240485
0.231322
0.229601
0.229797
0.231493
0.231477
0.231659
0.22967
0.226321
0.220389
0.213274
0.211151
0.22131
0.246574
0.242616
0.221784
0.250438
0.250703
0.250872
0.25108
0.250954
0.250515
0.250066
0.249806
0.249792
0.249967
0.250338
0.250848
0.251574
0.251995
0.251561
0.251289
0.251306
0.250489
0.249924
0.249024
0.246781
0.245875
0.243051
0.230677
0.209106
0.191159
0.192943
0.222545
0.250546
0.252207
0.250517
0.24941
0.249726
0.250291
0.250511
0.250495
0.250521
0.25071
0.251073
0.251538
0.251835
0.251768
0.251583
0.251228
0.250951
0.251013
0.25159
0.25058
0.229809
0.204037
0.194259
0.190893
0.191902
0.198938
0.227649
0.251485
0.251226
0.2504
0.251249
0.237127
0.234144
0.22212
0.220963
0.221272
0.227705
0.244904
0.251478
0.251071
0.250387
0.250317
0.251368
0.252327
0.246347
0.22705
0.210625
0.20776
0.206477
0.210592
0.215735
0.219745
0.222921
0.222752
0.220695
0.217729
0.217382
0.228023
0.249208
0.252004
0.2512
0.250925
0.25059
0.243244
0.239898
0.249302
0.251248
0.250474
0.249873
0.250095
0.251251
0.24644
0.234394
0.226797
0.2206
0.216123
0.212773
0.210853
0.211641
0.211311
0.223696
0.243673
0.252143
0.251898
0.251226
0.250882
0.250948
0.251181
0.251215
0.251153
0.251441
0.251201
0.248986
0.249199
0.250107
0.250764
0.251127
0.251392
0.251668
0.25182
0.252012
0.251942
0.251746
0.251351
0.251308
0.251739
0.250885
0.226782
0.207742
0.203967
0.205855
0.215464
0.234278
0.252
0.251402
0.249986
0.248691
0.248808
0.250975
0.211781
0.148242
0.149156
0.152399
0.190186
0.250816
0.250664
0.247796
0.2464
0.246309
0.246709
0.247227
0.247622
0.247868
0.248007
0.247966
0.247837
0.247585
0.247237
0.246867
0.246421
0.245815
0.245116
0.244707
0.246128
0.249261
0.251198
0.251194
0.250692
0.251834
0.198366
0.147558
0.230982
0.219626
0.215908
0.216761
0.218033
0.218146
0.219778
0.227137
0.235489
0.236707
0.235221
0.235768
0.231236
0.218491
0.194378
0.208212
0.213412
0.218578
0.223145
0.227817
0.231724
0.233461
0.232454
0.229804
0.2245
0.218271
0.212756
0.209226
0.209355
0.213364
0.220182
0.226883
0.23142
0.233125
0.233914
0.23315
0.230005
0.222183
0.213184
0.209677
0.210878
0.208466
0.191515
0.194097
0.241916
0.245794
0.245767
0.244835
0.238637
0.23249
0.233004
0.239593
0.245435
0.247295
0.248125
0.247983
0.247751
0.247102
0.247218
0.245639
0.238642
0.228197
0.227965
0.231817
0.235396
0.23642
0.232355
0.224134
0.217447
0.213442
0.214614
0.229006
0.241156
0.231564
0.25184
0.251389
0.249705
0.248274
0.248086
0.248177
0.24776
0.244145
0.237453
0.23175
0.228141
0.227463
0.228148
0.229659
0.229119
0.227675
0.225681
0.224588
0.225111
0.226903
0.233179
0.239697
0.247176
0.250701
0.25101
0.249139
0.245011
0.242392
0.245049
0.244763
0.248718
0.252273
0.252358
0.251298
0.24067
0.229296
0.227516
0.229519
0.231454
0.231792
0.232135
0.233593
0.236581
0.239859
0.242769
0.243968
0.245335
0.244839
0.243849
0.241637
0.239526
0.238575
0.241358
0.246099
0.248525
0.250196
0.250205
0.248407
0.243965
0.237398
0.250308
0.251705
0.250021
0.252103
0.252183
0.252154
0.25215
0.252184
0.252176
0.252106
0.252015
0.251919
0.251881
0.251904
0.251959
0.25191
0.251887
0.251909
0.251855
0.251858
0.251774
0.251761
0.251672
0.251469
0.251246
0.251199
0.251362
0.251616
0.251553
0.249496
0.251707
0.252
0.251637
0.251942
0.250473
0.239347
0.243205
0.250809
0.2522
0.251744
0.25125
0.25134
0.251863
0.252091
0.246571
0.232835
0.228378
0.231199
0.238297
0.240129
0.238293
0.23555
0.232138
0.227857
0.221325
0.212465
0.207847
0.215093
0.24304
0.243272
0.231292
0.250879
0.250766
0.250913
0.250887
0.250383
0.249747
0.249362
0.249188
0.249221
0.249403
0.249719
0.250248
0.25104
0.25169
0.251576
0.250766
0.250556
0.250207
0.249881
0.249998
0.25069
0.250804
0.250632
0.250031
0.238192
0.206244
0.193815
0.218743
0.250493
0.251663
0.249458
0.249421
0.249897
0.250166
0.250037
0.249776
0.249638
0.249817
0.250392
0.251287
0.251869
0.25185
0.251653
0.251173
0.25101
0.251399
0.251622
0.227849
0.199172
0.187253
0.184523
0.185946
0.186424
0.183319
0.190888
0.229957
0.251808
0.250597
0.251036
0.237277
0.232814
0.227207
0.227974
0.224386
0.229758
0.247093
0.251651
0.250724
0.250416
0.25126
0.252152
0.224655
0.197316
0.192302
0.188588
0.191691
0.192968
0.200335
0.207022
0.216161
0.222806
0.226571
0.226588
0.221667
0.214084
0.213837
0.234672
0.251971
0.251054
0.25079
0.249589
0.239917
0.245848
0.250955
0.250993
0.250101
0.24991
0.251019
0.24867
0.238928
0.233635
0.227753
0.219418
0.212479
0.207411
0.205414
0.204683
0.204041
0.20719
0.219359
0.243484
0.252119
0.251805
0.25129
0.251313
0.251561
0.251618
0.251437
0.25166
0.250624
0.248946
0.249562
0.250402
0.250814
0.251047
0.251345
0.251516
0.251828
0.252038
0.252079
0.251943
0.251433
0.251204
0.251493
0.251845
0.238078
0.2135
0.20814
0.208506
0.217548
0.235552
0.251591
0.251277
0.249746
0.248443
0.248505
0.250348
0.242858
0.149076
0.148932
0.159063
0.222158
0.251839
0.248834
0.246726
0.246317
0.246757
0.247519
0.248165
0.248708
0.249074
0.249196
0.249171
0.248934
0.248534
0.247997
0.24747
0.246934
0.246386
0.245679
0.245189
0.245821
0.249793
0.251665
0.251595
0.251135
0.251665
0.208394
0.146755
0.227626
0.215928
0.216332
0.220557
0.22247
0.22063
0.218811
0.220684
0.22859
0.233229
0.232896
0.23472
0.23253
0.221021
0.198598
0.212022
0.222125
0.227329
0.232417
0.236905
0.239328
0.239951
0.237393
0.232211
0.224338
0.215421
0.207621
0.204448
0.207771
0.215905
0.225762
0.230717
0.231394
0.23162
0.232199
0.23284
0.231669
0.226105
0.216443
0.210431
0.211101
0.210284
0.195273
0.193486
0.240615
0.244006
0.24556
0.245816
0.244224
0.244718
0.247086
0.250371
0.250253
0.250224
0.249915
0.249418
0.249509
0.248688
0.249039
0.248926
0.247051
0.233488
0.227296
0.231056
0.23443
0.235671
0.23364
0.227163
0.22023
0.214729
0.212118
0.221983
0.239943
0.232627
0.25181
0.251181
0.249403
0.248401
0.248453
0.248667
0.247915
0.24135
0.233242
0.229211
0.229149
0.232844
0.236668
0.239113
0.238657
0.234904
0.231025
0.227568
0.226267
0.227726
0.232256
0.240491
0.247181
0.250417
0.25127
0.249657
0.246638
0.244355
0.246285
0.245718
0.251736
0.252173
0.252117
0.239693
0.217802
0.21111
0.212438
0.215638
0.221484
0.230085
0.239877
0.245444
0.247006
0.248076
0.247714
0.248355
0.247344
0.247608
0.246494
0.245354
0.243647
0.241005
0.241964
0.245948
0.248301
0.250062
0.250147
0.249411
0.245522
0.237966
0.250751
0.251213
0.252064
0.252154
0.252155
0.252147
0.252202
0.252125
0.252098
0.252052
0.251968
0.251889
0.251929
0.252042
0.252012
0.251971
0.251883
0.251756
0.251752
0.251666
0.251759
0.251702
0.251721
0.251661
0.251411
0.25121
0.251246
0.251557
0.251739
0.250207
0.251907
0.252081
0.251597
0.252375
0.248271
0.244206
0.250587
0.25226
0.251664
0.251169
0.250931
0.251055
0.251828
0.252063
0.243083
0.228598
0.229227
0.241278
0.249044
0.250138
0.24985
0.248422
0.24273
0.233981
0.223632
0.212516
0.206755
0.213094
0.241878
0.243064
0.236968
0.25107
0.250871
0.250908
0.250518
0.249826
0.249262
0.248973
0.248857
0.24893
0.249061
0.249393
0.24983
0.250641
0.251607
0.251642
0.250712
0.25117
0.250409
0.250848
0.250377
0.250472
0.250542
0.250538
0.250493
0.250248
0.23772
0.211302
0.225795
0.250787
0.250831
0.24913
0.249515
0.249897
0.249841
0.249497
0.249173
0.249033
0.249087
0.249588
0.250714
0.251879
0.252205
0.251659
0.251
0.251023
0.251838
0.247616
0.216008
0.198793
0.195686
0.198438
0.203605
0.206007
0.198319
0.186373
0.207004
0.252128
0.250747
0.250139
0.237593
0.235188
0.236033
0.234608
0.228144
0.233558
0.249388
0.25147
0.250702
0.250848
0.252175
0.230543
0.203747
0.194483
0.198096
0.20454
0.208154
0.209873
0.210638
0.217333
0.229146
0.239842
0.243936
0.243398
0.236578
0.221957
0.210096
0.221078
0.251326
0.251375
0.250661
0.246928
0.242767
0.249173
0.251278
0.250722
0.25002
0.250356
0.251268
0.247235
0.243629
0.239562
0.227855
0.213761
0.204682
0.200542
0.199539
0.199534
0.20031
0.201948
0.210254
0.230275
0.250804
0.252064
0.251618
0.251652
0.252014
0.25205
0.251795
0.251674
0.250276
0.249002
0.249891
0.25054
0.250735
0.250864
0.250999
0.251287
0.251713
0.251932
0.252296
0.252387
0.251943
0.251261
0.25115
0.251728
0.251778
0.245924
0.235468
0.231954
0.237815
0.249664
0.251765
0.250709
0.249127
0.248097
0.248114
0.2496
0.251028
0.151686
0.14915
0.167642
0.249086
0.250463
0.247582
0.246295
0.246547
0.247434
0.248374
0.249207
0.249858
0.25022
0.250353
0.250285
0.249964
0.249531
0.248838
0.248121
0.247445
0.246805
0.246069
0.245418
0.246004
0.250367
0.251721
0.251718
0.25155
0.251768
0.212661
0.145571
0.225654
0.213733
0.218043
0.225628
0.229818
0.227366
0.220761
0.21735
0.221047
0.226514
0.228413
0.233206
0.233708
0.224084
0.202695
0.217252
0.23058
0.234938
0.237863
0.241068
0.241878
0.241356
0.238091
0.232177
0.223445
0.212761
0.203607
0.200453
0.207318
0.220545
0.22933
0.230394
0.227049
0.223857
0.224768
0.227886
0.229298
0.225812
0.217141
0.210892
0.211568
0.211581
0.198261
0.19339
0.238794
0.240288
0.245054
0.246775
0.247526
0.249608
0.250442
0.251063
0.25116
0.251089
0.250752
0.250095
0.249832
0.248716
0.249435
0.249748
0.249616
0.242691
0.227549
0.229365
0.233306
0.234778
0.233394
0.228402
0.221991
0.215336
0.211692
0.220057
0.238521
0.232622
0.251896
0.251108
0.249698
0.248665
0.24886
0.249095
0.248282
0.24092
0.233759
0.231904
0.235019
0.239847
0.24344
0.245822
0.244918
0.241729
0.236376
0.232421
0.231287
0.233202
0.237111
0.243806
0.248307
0.250993
0.250926
0.24997
0.247444
0.246521
0.247309
0.246314
0.252233
0.252143
0.249481
0.223649
0.209252
0.206736
0.211297
0.222227
0.237
0.245861
0.248875
0.249446
0.249396
0.249034
0.248769
0.248156
0.248366
0.247934
0.247553
0.246043
0.24505
0.243172
0.243826
0.246536
0.248698
0.249946
0.250083
0.249774
0.246241
0.238604
0.250921
0.251543
0.252086
0.252159
0.252162
0.252128
0.251988
0.251997
0.252029
0.252019
0.251936
0.251896
0.25206
0.252081
0.25202
0.251919
0.25175
0.251689
0.25161
0.251592
0.251638
0.251583
0.251736
0.251585
0.25157
0.251282
0.251219
0.251467
0.251615
0.250582
0.252066
0.251887
0.251705
0.252208
0.248956
0.249903
0.252197
0.251934
0.251297
0.250961
0.250941
0.251195
0.251745
0.252095
0.24397
0.22605
0.225682
0.242167
0.250635
0.252002
0.251997
0.251702
0.249079
0.239874
0.225738
0.213328
0.207756
0.215491
0.24349
0.242284
0.241105
0.251211
0.250938
0.250883
0.250316
0.249513
0.248984
0.248738
0.248626
0.248622
0.248774
0.249146
0.249606
0.250417
0.251472
0.251642
0.250698
0.25058
0.25079
0.25034
0.250618
0.249992
0.247762
0.249235
0.251399
0.251248
0.250063
0.241929
0.240165
0.251021
0.250294
0.249087
0.249571
0.249756
0.249513
0.249197
0.249021
0.24888
0.248803
0.248998
0.250066
0.25166
0.252099
0.251629
0.250678
0.251068
0.252047
0.2416
0.218813
0.211829
0.213399
0.217793
0.220338
0.222011
0.216845
0.19316
0.19559
0.251975
0.250853
0.250825
0.23872
0.240273
0.242434
0.239286
0.231142
0.235761
0.249944
0.251705
0.250856
0.251262
0.252228
0.230385
0.21601
0.224036
0.235368
0.243819
0.242323
0.236231
0.227657
0.225207
0.232925
0.245606
0.249224
0.249329
0.24709
0.231687
0.210099
0.213779
0.249668
0.251018
0.250468
0.246059
0.246049
0.250545
0.251291
0.250578
0.250025
0.250521
0.251317
0.249265
0.24754
0.242401
0.226312
0.209161
0.201147
0.199697
0.199424
0.199699
0.200312
0.202974
0.209998
0.22959
0.250377
0.252178
0.251951
0.252072
0.252427
0.252315
0.252001
0.251691
0.250049
0.249153
0.250132
0.250586
0.250657
0.250655
0.250843
0.250949
0.251141
0.251696
0.252221
0.252246
0.252357
0.251938
0.251112
0.251112
0.251488
0.251895
0.25172
0.252289
0.251855
0.251804
0.250914
0.249679
0.248458
0.247647
0.247479
0.248475
0.251417
0.158464
0.149992
0.177438
0.252191
0.249279
0.246871
0.246237
0.246936
0.248037
0.249145
0.250128
0.250648
0.250771
0.250827
0.250752
0.250629
0.250213
0.249552
0.248738
0.247928
0.247199
0.2464
0.245489
0.245806
0.25054
0.252009
0.251511
0.252057
0.251481
0.189841
0.145665
0.223983
0.21207
0.219399
0.230535
0.237118
0.236874
0.228045
0.21975
0.218214
0.219848
0.222545
0.230994
0.234084
0.22644
0.204443
0.22078
0.237869
0.241413
0.24221
0.243385
0.24342
0.242477
0.239753
0.234653
0.226244
0.214404
0.202635
0.197669
0.206306
0.222521
0.230733
0.22839
0.220167
0.213478
0.214177
0.21991
0.223614
0.221363
0.214811
0.210644
0.212057
0.211915
0.198937
0.193297
0.238125
0.237231
0.243461
0.247268
0.249464
0.250396
0.251099
0.251188
0.251273
0.2512
0.251427
0.250713
0.250552
0.248579
0.248954
0.249874
0.250486
0.247007
0.231827
0.228123
0.231808
0.233027
0.231668
0.227457
0.221646
0.214923
0.210437
0.218215
0.238126
0.232346
0.251794
0.251314
0.251134
0.249023
0.249063
0.249362
0.248716
0.243425
0.236893
0.235659
0.238882
0.243076
0.246727
0.248469
0.248338
0.246743
0.243649
0.24048
0.240157
0.240914
0.245007
0.247815
0.250028
0.250943
0.251019
0.249831
0.247875
0.247486
0.248029
0.246468
0.251943
0.252127
0.245609
0.221115
0.209613
0.20905
0.219433
0.235942
0.245857
0.248648
0.249699
0.249516
0.249427
0.24856
0.248283
0.248263
0.248043
0.247911
0.247094
0.246446
0.245362
0.245182
0.246152
0.247697
0.249925
0.250277
0.250611
0.249837
0.244943
0.237313
0.251005
0.252027
0.252126
0.252172
0.252099
0.251888
0.251835
0.251912
0.252018
0.252022
0.251919
0.251925
0.252089
0.252228
0.252142
0.251963
0.251824
0.251663
0.25164
0.251557
0.251628
0.251511
0.251711
0.251479
0.251534
0.251296
0.251231
0.251538
0.251656
0.250439
0.251984
0.251835
0.251846
0.252181
0.250435
0.252155
0.252121
0.251666
0.251249
0.251131
0.251213
0.251311
0.25158
0.252142
0.249202
0.224844
0.214864
0.226766
0.247335
0.251631
0.252016
0.251966
0.249954
0.242366
0.227473
0.21666
0.213391
0.224617
0.245913
0.239385
0.24308
0.251341
0.250986
0.250812
0.250248
0.249436
0.248879
0.248626
0.248469
0.24841
0.248587
0.249026
0.249536
0.25028
0.251326
0.251574
0.250531
0.250618
0.250799
0.250408
0.249456
0.245824
0.248565
0.25222
0.252017
0.25214
0.251824
0.249345
0.247587
0.251158
0.249917
0.249094
0.249548
0.249599
0.249322
0.249173
0.249138
0.249017
0.248793
0.248751
0.249429
0.251476
0.25212
0.251599
0.250393
0.251122
0.251855
0.23966
0.225693
0.22506
0.227459
0.226288
0.224498
0.223752
0.220112
0.197157
0.194369
0.252051
0.250819
0.248841
0.240672
0.24367
0.246466
0.242677
0.236065
0.235543
0.247249
0.251761
0.251163
0.251222
0.252367
0.246684
0.243801
0.249867
0.251516
0.251755
0.251475
0.249389
0.243024
0.232555
0.23486
0.245871
0.250215
0.250481
0.24804
0.234254
0.207555
0.209441
0.249365
0.250929
0.250502
0.246433
0.248705
0.250837
0.251433
0.250597
0.249995
0.250428
0.251337
0.250931
0.250061
0.246293
0.228362
0.209248
0.203042
0.203303
0.20419
0.204483
0.203803
0.210449
0.218606
0.239239
0.252037
0.252214
0.252147
0.252367
0.250757
0.25111
0.252382
0.251751
0.249941
0.249324
0.250322
0.250657
0.250722
0.250771
0.250779
0.250753
0.250885
0.251091
0.251708
0.252139
0.250361
0.253046
0.251901
0.25113
0.250869
0.251101
0.251262
0.251361
0.251211
0.250633
0.24975
0.248743
0.247823
0.247072
0.246483
0.247252
0.251001
0.1585
0.151025
0.185192
0.25192
0.248532
0.246483
0.246254
0.247224
0.24854
0.249714
0.250642
0.25078
0.250453
0.250713
0.25047
0.250962
0.250591
0.249913
0.249128
0.248318
0.247573
0.246706
0.245528
0.245255
0.24974
0.250674
0.247601
0.246858
0.220518
0.181055
0.17855
0.223542
0.210468
0.219004
0.233498
0.241574
0.242482
0.239179
0.231641
0.224474
0.221245
0.221242
0.227804
0.234225
0.229428
0.23112
0.220197
0.20809
0.230769
0.240389
0.24263
0.245169
0.246121
0.246246
0.245455
0.243661
0.240985
0.233563
0.221226
0.205645
0.196694
0.202379
0.220326
0.229752
0.22759
0.217319
0.209256
0.209026
0.212898
0.216215
0.215121
0.211259
0.210482
0.21293
0.213172
0.201452
0.193789
0.195644
0.214062
0.234867
0.235183
0.236448
0.245723
0.249288
0.250549
0.251438
0.251303
0.251302
0.251232
0.251238
0.2514
0.250517
0.247965
0.247919
0.249099
0.250178
0.247731
0.234589
0.227575
0.228899
0.229747
0.228079
0.224324
0.218994
0.212817
0.210244
0.219676
0.237689
0.244327
0.251748
0.251754
0.251715
0.251811
0.251685
0.251102
0.249654
0.249747
0.249432
0.247342
0.241142
0.238366
0.240259
0.24388
0.247516
0.249094
0.249642
0.249632
0.248928
0.248515
0.248432
0.248369
0.249547
0.250784
0.251051
0.251141
0.251214
0.249463
0.248039
0.248168
0.248418
0.246309
0.240553
0.24882
0.25183
0.252002
0.24823
0.2276
0.215003
0.214517
0.224116
0.238659
0.245578
0.248697
0.249733
0.249809
0.249928
0.24891
0.248426
0.248119
0.247918
0.247567
0.246972
0.246642
0.246481
0.24671
0.247991
0.249798
0.250181
0.250408
0.250774
0.249053
0.244879
0.238728
0.238533
0.245348
0.250506
0.252055
0.252161
0.25209
0.251839
0.25155
0.251553
0.251763
0.251938
0.251998
0.251934
0.251924
0.252119
0.252125
0.252129
0.252026
0.251871
0.25176
0.25165
0.251659
0.251594
0.251659
0.251584
0.25154
0.251502
0.251332
0.251227
0.25137
0.251278
0.250671
0.251761
0.251937
0.251922
0.251659
0.251911
0.252167
0.252176
0.252299
0.251901
0.251499
0.251336
0.251373
0.251388
0.251357
0.251388
0.251813
0.252074
0.233543
0.207552
0.203832
0.219564
0.242
0.250367
0.251667
0.250773
0.248119
0.236765
0.227745
0.226018
0.237357
0.246416
0.228282
0.209411
0.212746
0.248388
0.251566
0.25102
0.250929
0.250348
0.249458
0.248894
0.248625
0.248468
0.24837
0.248534
0.24899
0.249562
0.250197
0.251277
0.251468
0.250552
0.250579
0.250466
0.249659
0.246206
0.245548
0.252112
0.251309
0.250139
0.250314
0.251525
0.252099
0.251329
0.251583
0.251058
0.251428
0.249632
0.249119
0.249534
0.249453
0.249257
0.249238
0.249275
0.249172
0.248891
0.248655
0.249047
0.251274
0.251962
0.251419
0.250097
0.251236
0.251505
0.237636
0.231428
0.233254
0.229525
0.220929
0.212823
0.211757
0.211212
0.192128
0.194056
0.252327
0.250796
0.250777
0.249692
0.243612
0.244088
0.247588
0.247926
0.247218
0.24309
0.239504
0.241201
0.25161
0.251345
0.250937
0.252001
0.252058
0.251542
0.251799