/*--------------------------------*- C++ -*----------------------------------*\
| =========                 |                                                 |
| \\      /  F ield         | OpenFOAM: The Open Source CFD Toolbox           |
|  \\    /   O peration     | Version:  2.1.1                                 |
|   \\  /    A nd           | Web:      www.OpenFOAM.org                      |
|    \\/     M anipulation  |                                                 |
\*---------------------------------------------------------------------------*/
FoamFile
{
    version     2.0;
    format      ascii;
    class       volScalarField;
    location    "0.004350000";
    object      k;
}
// * * * * * * * * * * * * * * * * * * * * * * * * * * * * * * * * * * * * * //

dimensions      [0 2 -2 0 0 0 0];

internalField   nonuniform List<scalar> 
12384
(
12.1469
172.072
280.022
354.578
375.691
349.029
287.692
220.691
168.899
118.934
72.2131
35.8167
12.9901
3.7494
142.439
570.32
1206.77
1769.74
2279.79
2760.37
3283.36
3785.38
4320.08
4845.64
5335.16
5777.46
6115.89
6268.55
6276.03
5940.26
5486.82
4720.43
4183.64
3358.72
2703.63
2013.66
1378.89
876.802
585.776
431.773
312.425
206.079
101.945
29.9439
1031.35
2702.65
3809.21
4682.82
5323.15
6050.62
6774.5
7545.37
8231.25
8746.23
9096.22
9193.59
9082.07
8765.98
7967.11
6941.93
5525.06
4283.02
3311.69
2494.4
1744.12
1140.72
776.829
612.534
498.953
427.881
342.894
246.612
140.2
45.1335
454.361
1377.64
2291.69
3353.26
4686.14
6323.3
8276.23
10458.5
12745.9
14837.9
16601.4
17570.8
17767.2
17067.4
15440.8
13268.6
12160
11353.6
10621.5
9666.71
8477.55
7070.17
5378.39
3463.57
1657.44
699.6
411.616
373.082
366.448
169.538
653.077
2553.97
4127.74
5509.52
6840.86
8131.99
9373.2
10560
11716.3
12797.4
13922.9
14635.6
15269.2
14852.6
14401.4
12371.3
10873.8
9265.57
7947.28
6807
5686.94
4684.78
3840.12
2946.7
2054.91
1206.46
625.448
357.917
252.696
220.366
167.734
419.56
773.186
1189.96
1597.18
1932.9
2180.52
2335.29
2495.05
2656.32
2878.42
3204.32
3657.51
4258.83
4971.83
5782.86
6541.55
7236.77
7589.15
8060.1
8269.49
8713.75
9148.17
9348.36
9099.16
8336.76
7062.95
5052.75
2155.17
472.781
273.802
493.734
745.206
1002.33
1225.72
1394.66
1533.64
1656.08
1769.58
1842.9
1944.49
2007.95
2091.67
2165.29
2253.07
2372.63
2531.91
2731.84
2975.92
3132.62
3269.54
3304.81
3267.81
3172.18
2927.64
2583.31
2102.34
1474.95
734.321
183.048
107.725
275.161
381.927
530.844
1049.18
2340.07
4116.69
5746.98
7113.09
8279.42
9327.72
10167.7
10110
9663.48
8550.27
7461.09
6268.36
5300.18
4535.24
3928.68
3553.87
3325.7
3284.74
3315.6
3340.98
3275.65
3021.7
2503.07
1669.04
689.181
6.70501
31.7558
183.486
1091.86
3335.63
6128.35
8779.27
11244.6
13837.5
16164.7
17227.8
16874.3
16194.1
14798.5
13327.1
11502.3
10047.9
8644.74
7424.73
6212.19
5259.12
4150.86
3289.95
2144.08
1281.33
649.151
269.23
80.7497
14.8587
1.39217
57.8506
821.209
3476.43
7489.22
11500.1
14730.7
16694.3
17276.9
16993.7
16144.8
15087.4
14070.8
13156.4
12396.9
11817.7
11549.6
11497.2
11664.6
11923.4
12252.8
12399.9
12804.1
12574
12380.2
11626.2
10427.5
9065.21
7577.02
5871.15
3982.39
114.88
1267.88
4009.3
7190.83
10077.1
12330.2
13509.8
13723.2
13172.3
12298.2
11434
11025.6
11215.4
11859
12605.6
13140.9
12241.4
11604.7
10511
10300.6
10239.1
10244.9
10462.9
10609
10739.8
10603.2
9836.16
8149.24
5542.77
3046.48
36.5348
421.218
1976.61
4186.82
6450.56
8416.81
10039
10990
10991.4
10489.1
9676.85
8848.94
8193.1
7864.37
7743.23
7770.29
7775.1
7391.41
6338.94
5069.01
3964.96
2833.45
1740.91
835.505
284.482
60.8712
7.85662
0.988073
0.349406
0.163753
0.339201
0.881183
2.8552
9.2853
21.3375
39.3609
66.9914
102.338
143.124
193.098
290.251
521.126
944.482
1614.55
1758.8
1525.82
1084.73
527.199
191.781
34.0398
5.82383
2.54529
1.9158
1.20628
0.985021
0.62511
0.476432
0.3883
0.252435
0.164206
65.072
724.684
1093.85
1511.2
1992.3
2419.03
2684.88
2741.09
2609.78
2271.53
1727.12
1056.26
432.66
75.3172
218.837
806.599
1443.53
2107.38
2810.05
3677.04
4796.63
6204.15
7898.97
9899.08
12163.1
14700.5
17412.2
20235.8
23015.1
25666.5
27908.2
29563.1
30376.3
29942.5
28340.3
25366.8
21144.5
15673.7
9378.84
4302.14
1791.34
878.721
464.694
138.129
1359.17
2559.18
3611.64
4809.93
5434.55
6006.62
6829.09
7951.62
9340.79
10845.3
12411.1
14076.7
15818.5
17643.6
19472.5
21153.3
22235.4
22213
20967
18861.3
15669.7
11171.9
6554.95
3549.6
2236.74
1607.25
1153.45
785.327
477.685
182.155
817.966
1770.15
3274.7
5841.33
9786.79
15458
23226
33314.2
45603
59545.7
74319.5
89247.2
103087
115263
124996
131532
133961
132150
125940
113227
95278.5
73187.4
49178
27269.1
11753.3
3984.44
1440.23
872.721
816.121
451.467
1329.57
4306.17
7247.39
10421.2
14059.4
18526.3
23743.2
29214.5
34563.6
39492.8
44010.9
48351.3
52308.5
55872
58534.2
60310.9
60023.7
56981.8
51877.2
44845.2
35676
23944.5
12553.4
5599.73
2863.37
1803.36
1211.68
785.768
583.275
587.244
527.14
951.574
1355.58
1665.58
1869.85
2015.24
2165.61
2377.35
2796.24
3509.55
4673.28
6547.43
9252.25
12943.5
17573.6
23000.4
28826.2
34531.3
39554.4
42811.9
43816.3
42691.4
38944
33929.2
27934
21728.6
15718.3
10153.4
5424.97
3269.25
613.752
903.793
1473.14
2171.25
2953.79
3791.14
4618.34
5289.05
5670.24
5726.8
5542.27
5137.26
4631.49
4093.52
3637.09
3354.14
3308.84
3503.71
3959.86
4575.78
5286.04
5927.88
6388.3
6641.23
6620.19
6390.41
5789.87
4661.03
2934.05
983.67
398.83
1149.86
3149.01
8825.33
18064.8
28514.6
38159.8
45465.7
49778.8
50409
47400.9
41241.6
34013.2
26739.4
20268
14974.5
10874.2
7936.95
5938.86
4602.36
3951.23
3743.32
3869.93
4116.12
4524.19
4992.09
5242.63
4996.42
4039.36
2248.74
118.574
1698.43
7929.83
17045.2
24686.1
29423.5
31527.9
31548.4
29793.5
26677.5
23061.6
19523.4
16402.5
13726.1
11671.2
10043.2
9078.83
8561.74
8507.35
8690.89
9354.68
10076.5
10980.7
11531.3
11010.1
8800.19
5452.55
2387.67
626.333
45.3815
3021.67
8939.17
13622.2
16327.3
17400.8
17186.8
16159.8
14511.5
12622.3
10671.3
8849.43
7556.44
6829.13
6922.28
8044.84
10492.4
14685.2
20579.3
27723.8
34363.8
39689.7
42427.2
41775.9
39162.9
35223.5
30423.3
24971.7
18599.1
11498.5
7085.26
3527.73
7477.82
10163
11279.7
11309.9
10681.4
9742.86
8697.08
7700.58
7373.9
8861.33
13035.7
20771.6
32390.3
48374.3
68235.2
90224.3
110091
119704
115914
99998.9
80280
62082.4
46735.6
34726.3
25389.4
18013
12086.9
7463.22
8646.68
1850.94
4813.35
8219.43
11203.5
13426.2
14395.7
14111.3
12969.8
11191.3
9317.77
7664.79
6716.39
6591.98
7609.9
9695.17
13018.6
17623.6
22910.1
27955.1
31068
30854.2
27831.8
22499.3
15501.9
8380.81
3064.52
642.259
72.0572
5.21134
0.467816
11.9535
92.4458
375.701
996.618
2098.84
3858.18
6317.51
9277.59
12482.4
15400
17639.6
19086.5
19459.1
18599.5
15993.6
12324.1
8323.02
4639.83
1977.35
472.847
53.8031
10.0006
6.35106
4.16712
3.12487
1.97494
1.35378
0.986674
0.606819
0.281511
181.98
1216.35
1478.56
1721.45
2031.44
2360.19
2624.76
2760.74
2765.53
2634.91
2305.48
1752.16
1002.88
205.348
462.356
1328.52
2270.6
2986.94
3458.47
3913.39
4497.76
5311.73
6396.97
7785.13
9482.46
11454.1
13631.4
15933.3
18276
20619.9
22723.6
24467.3
25519.4
25741.2
25125.9
23878.7
21793.9
18546.6
13615.6
7960.76
3730.36
1676.1
846.929
261.773
1919.82
3042.66
4899.2
7001.35
7670.27
7424.69
7126.47
7111.9
7395.36
7883.92
8483.41
9183.74
10003.3
10889.1
11981.7
13160.1
14522.1
15851.3
16996.6
17993.2
18418.5
16510.2
12044.9
7273.5
4079.2
2473.67
1588.04
1043.32
684.651
308.996
1450.63
2589.07
4741.6
8008.01
12168.1
17304
23625.2
31323.3
40443.7
50845.8
61957.2
73160.1
83831.4
93279.6
101023
106848
109965
110168
107278
99867.7
89594.5
75356.1
57815.1
38018.9
20093.8
8216.78
2673.18
1039.36
985.361
750.409
2340.81
6955.94
12667.6
16672.3
18758.2
20486.8
22803
25752
29046.2
32462.1
35825.4
39151.2
42217.6
45121.3
47318.6
48680.2
48775.9
47371.3
45053
42664.7
39076.4
31898
21097.1
11165.6
5515.93
3140.55
2032.77
1318.87
898.208
925.369
896.993
1423.08
1769.25
2030.58
2249.97
2452.33
2697.56
3032.77
3583.98
4404.18
5564.96
7249.66
9511.17
12486.2
16281.2
20879.9
26036.5
31215.6
35817.1
39142.2
40486.5
39612.6
36389.4
31910.6
26963.4
22011.6
17234.5
12425.8
7752.94
5298.57
941.014
1195.82
1776.89
2484.04
3272.99
4131.13
4963.35
5752.43
6424.54
6837.08
7038.91
6910.92
6521.18
5957.02
5385.68
4913.4
4552.8
4271.53
4156.59
4206.94
4447.24
4755.26
5079.77
5339.59
5528.6
5702.81
5822.18
5558.91
4331.94
1412.5
758.362
2259.15
6523.24
14742.7
25008
34918.8
43362.8
49566.2
53477.1
54031.5
50824.5
44715.8
37689.6
30539.7
24086.9
18517.8
14080.4
10818.8
8732.18
7459.14
6868.46
6522
6008.33
5316.62
4756.11
4439.07
4434.03
4680.57
4923.41
2809.11
1217.73
8238.43
19323.2
28923.5
33482.5
34251.6
33227.1
31467.4
29300.4
26594.1
23675.2
20872.1
18226.6
15826.3
13700.5
11953.1
10671.9
9931.49
9577.55
9383.94
9489.26
9663.34
9991.65
10237.2
9939.4
8536.43
5998.43
3237.56
1138.3
80.0917
6407.27
13661.7
16940.8
17904.8
18131.9
17950.3
17148.2
15740
14045.1
12354.6
10724.6
9745.36
9294.45
9755.52
11095.3
13593.5
17539.3
22802.1
29027.5
34486.5
38518.7
39891.9
39055.3
36628.5
33865.1
31009.5
28199.2
23984.4
17303.2
9556.42
6679.28
10575.8
11693.3
11283.1
10718.8
10147.9
9486.7
8794.59
8570.42
10278.7
15821.9
24030.8
33953.4
44949.1
58030.9
74021.2
91636.8
108988
120406
117935
105305
86761
67760.8
51129.1
38214.6
28722.2
21537.7
15542.7
10297
11474.4
4655.57
8584.66
12527.6
15512.7
17570.4
18600.2
18590.2
17842.7
16288.2
14552.9
12804.9
11544.2
10826.8
10854.6
11153.5
11848.5
13106.5
15067.4
17609.8
20180
21458.9
21085.3
18742.8
14562.3
9229.29
4248.39
1224.09
188.218
14.8782
0.964009
40.3158
240.955
765.189
1823.51
3742.99
6670.75
10534.4
14978.2
19672.3
24198.8
28127.8
30722.1
31332.8
29661.2
26302.9
21796.8
16639.4
11404.6
6499.66
2499.72
387.923
22.2097
11.2113
8.38344
6.37204
3.66587
2.13947
1.39805
0.892924
0.395442
345.291
1592.41
1673.69
1715.01
1807.08
1981.05
2224.34
2473.17
2650
2766.51
2759.09
2519.74
1905.01
430.98
919.624
2015.6
3142.65
3761.79
3902.72
3949.59
4099.18
4481.15
5109.87
6009.22
7186.17
8592.07
10177.3
11882.1
13640.5
15428.1
17132.1
18766.8
19985.7
20787.2
20912.2
20689.4
20027.8
18547.3
15428.8
10523.8
5655.06
2677.32
1390.05
409.799
2565.92
3451.5
6113.53
8914.67
9534.4
8722.27
7735.3
7101.87
6853.81
6889.41
7034.23
7166.21
7255.57
7215.55
7322.88
7587.29
8289.99
9651.18
11707.3
14484.6
17611.9
18883.5
16178
11123.3
6637.75
3927.7
2375.62
1447.63
934.027
473.246
2292.53
3334.17
6360.11
10435
14845.1
19496.8
24312.8
29253.8
34477
40303.5
46693.9
53532.7
60300
66606.1
72085.9
76714.1
79832.7
81428.8
81107.4
78155.7
74095.9
66614
55898.9
41523.7
25779.5
12809.7
4954.83
1718.07
1153.13
1047.15
3586.89
10791
20051.7
23733.9
22769.3
20805.1
19866.3
20226.4
21565.9
23476.9
25711.9
28084.6
30376
32404.8
33968.2
34890.2
34978.6
34652.8
34538.9
35053.7
35598.5
33185.4
25573.9
15702.4
8421.84
4782.22
3033.41
1962.25
1259.33
1207.56
1375.38
2104.5
2368.83
2578.48
2830.36
3131.41
3515.15
4059.9
4855.28
5904.74
7194.61
8793.79
10754
13163.7
16198.8
19875.6
24114.5
28563.3
32714.6
35601.6
36833.1
36121.3
33299.7
29291.8
24961
20926.7
17415.4
13951.1
10075.6
6712.68
1251.64
1583.31
2209.65
2969.13
3833.19
4746.63
5729.42
6763.5
7825.8
8674.58
9176.87
9160.87
8761.12
8200.3
7658.66
7111.09
6469.43
5668.74
4845.72
4210.17
3895.58
3800.18
3895.88
4092.55
4410.9
4892.17
5633.38
6328.77
5979.21
1670.04
1224.77
3799.08
9788.08
19018.8
29059.9
37559.4
44706.5
49959
52937.7
52866.3
49601.4
44702.8
39387.5
33839
28309.2
22917.1
18236.4
14642.5
12410.5
11210.5
10496.7
9654.38
8109.56
6313.31
4798.97
3775.86
3542.23
4411.71
6141.43
3086.9
3912.56
18226.5
31410.7
38778.7
39046.1
36290.1
33294.2
30602.1
28204.6
26141.4
24263.9
22484.1
20488.9
18355.1
16080.8
14055.7
12432.9
11453.8
10805.5
10464.9
10258.8
10040.9
9679.11
9165.12
8515.03
7833.61
6663.84
4814.64
2436.12
164.392
9529.89
18485.7
19400.4
18908.2
18869.4
18855.9
18338.1
17257.3
15889.4
14626.4
13531.4
13178.4
13096.8
13694.9
14683.1
16294.3
18771.4
22025.1
26049.1
29756.8
32871.5
34350.6
34222.7
32657.4
31148.5
29985.5
29515.5
28370.4
24181.4
11849.2
9348.51
13580.9
12682.8
11093.2
10334.4
9967.79
9682
9609.3
10848.1
16054.7
26694.5
37415.3
46203.8
52491.1
57941.7
64958
75625.6
87898.9
99861.7
102252
94647.9
81318.1
65406.9
50221.8
38178.2
29561.4
23445.9
18410
13568.4
13839.1
7660.84
13411.4
17501.9
20290.6
22326.4
23788.1
24523.2
24585.2
23617.8
22139.3
20259.3
18476.1
17011.6
15892.9
14358.3
12550.3
10559.4
9004.6
8784.35
10056.1
11836.1
13120.1
13060.2
11405.5
8349.86
4634.04
1710.96
364.248
42.3221
2.77839
100.756
560.495
1458.07
3236.83
6233.37
10324.4
15261.4
20465.8
25544.5
30075.4
33778
36064.3
36687.7
35331.2
32571.6
28616.9
23724.3
18195.1
12236.1
6454.65
1754.98
85.9249
18.0822
14.1922
10.6177
5.84124
3.23573
2.11689
1.34849
0.520962
518.97
1840.35
1769.67
1657.03
1558.06
1549.93
1707.17
2014.75
2379.48
2778.43
3148.69
3362.21
3112.84
762.602
1500.83
2828.45
3918.41
4420.2
4302.03
4096.24
4011.58
4162.77
4512.89
5076.6
5794.55
6611.85
7502.16
8446.18
9468.73
10596.9
11781.3
13052.7
14226.4
15307.1
16104.3
16761
17168.6
17050.9
15541.1
11906.9
7306.38
3875.34
2191.87
669.396
3220.9
3744.91
6915.46
10029.8
10649.9
9786.85
8802.7
8295.42
8229.38
8559.78
8943.18
9007.38
8634.52
7601.38
6319.89
5190.49
4896.56
5683.21
7630.14
10836.9
15181.6
18624.9
17853.1
13533.5
8714.42
5384.82
3312.72
1998.33
1237.46
697.941
3135.98
4010.55
7979.71
12747.2
17361.9
21577.2
24934.4
27114
28546.2
29697.2
31164.4
33275.6
36199
39605.5
43143.1
46859.8
50468.7
53210.7
55344.9
56204.1
56220.6
53832.6
49041.3
40461
28667.8
16614.5
7593.3
2935.52
1541.91
1386.35
5111.91
16141.8
26728.1
27894
23490.1
18805.6
15791.9
14483.4
14295
14846.1
15782.1
16926.2
18089.8
19261.3
20242.9
21022.9
21611
22489.3
24101.3
26655.6
29548.7
30133.7
25352.4
17197.6
9968.62
5947.92
3892.54
2559.12
1582.88
1414.92
1935.24
3027.8
3176.56
3339.89
3631.44
4019.78
4569.88
5387.96
6501.76
7863.32
9398.33
11015.1
12761.8
14666
16928
19540.2
22396.7
25342.1
28249.9
30504.9
31653.7
31256.4
29217.4
26129.1
22752.5
19702.7
17387.1
15345.6
12626.9
7677.29
1565.15
2106.49
2814.23
3629.66
4510.41
5514.35
6718.39
8048.08
9394.89
10318.8
10750.1
10678.7
10473.2
10246.3
10032.3
9587.72
8771.49
7506.49
6021.29
4713.09
3833.65
3332.13
3162.13
3246.99
3625.58
4362.44
5656.81
7262.89
7898.04
1758
1657.24
5309.78
12263.3
21448
30236.1
37117
42112.3
44835.3
45398.3
44082.3
41726.9
39662.9
37788.8
35350.5
31755.4
27224.5
22652.2
18912.9
16575.1
15407.2
14402.8
12869.3
10315
7381.72
4793.62
3145.08
2832.87
4409.43
7758.41
3186.5
7443.49
30841.8
43666.2
46973.9
42801
36977.4
32023.6
28468.5
26216.5
25263.7
24831.1
24287.5
23022.8
21029.1
18499
16061
14156.2
13018.3
12394.1
12182.7
11973.3
11685.7
10901.2
9581.83
8153.81
7362.08
7492.57
7512.65
5516.52
331.467
12615.3
24546.9
22319.8
20343.5
19980.8
20049.5
19768.8
18981.5
17976.1
17224.4
17016.5
17487.6
17852.4
18180.3
18209.1
18167.6
18172.7
18676
19916
21760.9
23924.9
25574
26508.3
26656.3
26901.6
27877.8
30210.2
32987.2
32307.7
13857.5
11795.9
17127.4
13629.4
10941.2
10115.9
10001.1
10202
11016.1
14522
24043.8
39307.3
50889.8
57395.7
58166.4
54627.8
51571.2
52624.9
58207.2
66882.4
72418.5
71721.9
65930.4
56473.2
45441.9
35527.1
28304.1
23744.8
20416.6
16882.8
15951.4
10871.5
19951.2
23609
25855.8
27844
29776.9
31578.9
32712.7
32686.9
31384.5
29152.2
26585.5
24229.7
22005.7
19049.3
15296.6
10806.4
6626.28
4238.55
4370.67
6097.63
7949.21
8936.93
8585.12
7101.92
4689.38
2147.07
595.216
99.4807
6.71599
224.142
1181
2554.71
5231.62
9094.58
13991.2
19304.2
24351.3
28717.5
32063.2
34476.1
35806.5
36283.5
35614.9
34304.3
32155
28865.8
24105
17894.9
11003.3
4471.23
376.707
26.9582
19.9242
14.8326
8.16848
4.31913
2.95843
2.09755
0.70961
686.532
1961.9
1817.01
1625.17
1394
1223.97
1269.65
1573.07
2077.08
2725.8
3479.92
4251.96
4554.46
1245.48
2079.8
3655.62
4515.7
4919.46
4673.77
4354.82
4215.08
4319.53
4569.09
4962.22
5318.9
5592.7
5781.87
5939.81
6206.21
6643.72
7242.9
8027.04
8970.67
10109.1
11324.6
12654.4
13968.3
14920.8
14672.9
12285.2
8414.73
5052.19
3213.28
995.523
3915.34
3867.26
6967.53
10135.9
10908.8
10361.3
9958.85
10277.1
11291.3
12909.8
14520.9
15328.1
14931.5
12840.6
9519.59
6007.39
3842.32
3536.08
5100.28
8065.13
12507.9
16757.9
17277.1
14191.8
9846.21
6465.02
4163.28
2577.23
1574.73
938.396
3851.17
4609.38
9314.23
14583
19397.3
23337
25512.1
25496.7
24162.6
22113.5
20236
18796.4
18349.7
19081.2
20931.8
23569.6
26906.1
30723.2
34049.1
37555.3
39949.6
41438.6
40871.6
36945.7
29147.7
19001.2
9821.63
4285.88
2184.82
1741.86
7050.83
21362
29664.5
27524.8
21548.7
16108.5
12556
10547.6
9485.58
8961.5
8675.05
8571.41
8581.74
8566.65
8648.53
9280.24
10486.8
12737.4
15763.1
19576.5
23572.2
25314
22084.3
15688.7
9667.47
6183.4
4301.55
2972.57
1861.68
1550.76
2718.02
4370.04
4309.35
4333.38
4525.8
4917.89
5633.29
6771.43
8250.42
9913.85
11714.2
13410.2
14978.1
16366.9
17802.2
19126.2
20160.3
20947.8
21720.8
22518.4
23314.6
23765.9
23160.3
21767.1
20010.8
18425.4
17465
16891.4
15399.4
8071.55
1940.38
2875.65
3585.74
4393.67
5277.64
6370.29
7707.18
9135.93
10371.2
11021.7
11226.9
11267.5
11466.7
11856.1
12097.6
11916.5
11075.8
9525.7
7612.8
5802.35
4447.6
3548.72
3088.2
3019.22
3366.87
4280.02
5998.05
8320.15
9716.64
1743.72
2123.84
6735.48
13945.8
22414.1
29519.7
34186.3
36232.8
35592.5
33083.7
30531.8
29530.9
30917.5
33296
34733.7
33757.1
30439.6
26265.3
22628.1
20383.4
19249.5
18222.1
16485
13545.1
9763.46
6025.66
3339.13
2808.41
4901.37
9662.19
3127.95
11520.5
46237.5
56061.6
53911.7
45197.1
36133.3
29007.5
24563.8
22761.9
23328.1
24722.8
25606.4
25126.6
23371.3
20660.2
17906.7
15771.3
14655
14257.4
14501.4
14750.2
14786.7
13753.8
11485.4
8867.8
7545.92
8702.44
11538.2
11901.5
743.464
15901.8
32840
26481.5
22354.7
21323
21494.7
21499.3
20926.7
20177.1
19952.3
20852.3
22242.2
23230.2
23599.5
22988.3
21523.8
19651.2
17886.3
16624.4
15887.4
15917
16566.3
17695.8
19228.9
21629.2
25268.9
30635.9
37397.5
40881.5
15471.5
14210.4
21532.7
14887.9
11020.1
10044.5
10196.1
10902
12807.1
19134.3
33296.9
51710.1
64221.1
68840.5
64580.5
51778.8
39201
31187.8
29699.7
35037
41806.5
46447.5
47246.8
43794.5
37766.7
31117
26059.1
23388.7
22022.4
20178.5
17836.4
14483.7
28972.2
31223.5
32002.7
33119
35142.6
37910.8
40414.8
41770.2
40879.1
38139.8
34420.1
30900.8
27752.9
23815.5
18905
13376.8
7910.2
3952.47
2871.26
4014.41
5553.08
6563.44
6713.42
6063.45
4587.8
2522.83
916.031
223.885
14.5409
436.13
2162.23
4034.71
7324.68
11827.1
17076.5
22145.8
26274.7
28992.7
30326.5
30613.4
30417.3
30348.1
30486.7
31210.7
31803.9
31253.2
28455.3
22888.9
15357.5
7664.57
1226.93
42.9244
22.7816
17.655
10.3908
5.60609
3.97234
3.2809
0.953488
827.25
1949.8
1808.56
1606.09
1300.48
1011.84
960.172
1234.77
1830.15
2675.32
3784.29
5122.39
6136.94
2030.1
2659.91
4471.38
4887.04
5197.33
4891.33
4557.38
4475.48
4659.28
4996.24
5400.99
5592.32
5470.66
5084.84
4608.79
4298.13
4184.44
4248.5
4533.92
5097.86
6080.87
7448.78
9119.11
11004.6
12652.5
13266.4
11946
9028.61
6143.57
4456.74
1511.2
4745.5
3896.2
6258.01
9248.53
10278.2
10182.7
10462.3
11871.4
14416.7
17740.3
21205.4
23672.9
24216.9
21858.9
16825.1
10364.7
5293.44
3112.58
3865.47
6499.22
10526.7
14621.1
15695.2
13665.1
10132.2
7061.35
4779.1
3057.26
1903.21
1125.91
4422.19
5176.02
10279.8
15890.8
21027.6
24924.4
26396.2
25079.6
22280.1
18668.6
15348.3
12190.6
9719.95
8344.47
8481.76
10023
12729.6
16353.8
19932.4
24287.2
27958.3
31540.7
33290.9
32262
27350.3
19329.1
10876.8
5288.2
2902.42
2174.79
9601.89
24026
28718.6
25122.3
19423.7
14434.1
11100.2
8944.57
7542.07
6626.04
5982.26
5362.46
4618.7
3836.57
3337.2
3710.33
5258.3
7970.14
11531.8
15594.7
19254.7
20491.9
17771.7
12715.9
8257.8
5722.51
4265.92
3115.33
2051.61
1624.89
3727.77
6219.92
5824.89
5574.86
5505.65
5769.28
6604.16
8025.22
9777.76
11702.1
13649.5
15484.6
16890.4
17913.6
18753.2
19009.2
18192.3
16421.9
14564.3
13446.1
13400
14280.6
15516.9
16398.7
16953
17250.6
17822.1
18553.8
18025.1
7588.82
2358.28
3966.47
4602.07
5286.15
6066.95
7133.69
8414.15
9670.57
10477.6
10716.8
10712.9
10886.4
11596.8
12608.3
13397.5
13528.5
12805.7
11208.5
9144.9
7145.45
5531.77
4395.33
3670.9
3427.04
3678.98
4653.34
6551.79
9200.02
11003.5
1649.37
2525.01
7966.53
14807.2
22473.9
27944.2
30585.2
29729.6
25905.9
20574.5
16665
16624.9
20887.6
27333
32567.3
34000.7
31926.3
28244
24923.4
23038.5
22253.8
21615.2
20252.6
17706.3
14040.8
9810.97
5865.22
4412.68
6247.97
11945.3
3080.43
16445.1
64812.5
68792
60049.8
46315.5
33580.9
24021.8
18628
17637
20022.3
23510.4
25856.2
26200.1
24823.9
22203.8
19385.6
17310.2
16424.6
16457.6
17368.6
18307.5
18576.2
17111.4
13846.7
10092.2
8200.65
10265.5
16679.7
20827.7
1268.09
19894.7
44392.7
32477.8
25055.7
22793.3
22995.9
23295.8
22797.3
22077.5
22319.4
24311
26884.1
28923.2
29892.5
29593.7
27432.1
24241.8
20243.3
16649.5
13411.6
11475.2
10667.2
10982.3
12421.8
16105.9
22370.3
30976.5
41141.3
48270
15484.8
17047.6
26992.3
16614.5
11390.6
10193.2
10614
11742.3
14608.9
23591
41970
63146.7
76499.1
80075.4
72321.9
53072.4
33668.9
18909.2
12949.2
14356.7
20522.8
27494.5
32122.2
32624.9
30222.7
26389.8
23383.9
22487
23096.8
22940.6
19284
18858.2
40924.8
40362.3
38230.4
37007.7
37772.9
40870
44961.4
48427.5
49030.2
46011.1
40818.1
35671.6
31691.3
27194.3
21964.8
16529.4
11164.5
6684.26
4235.28
4120.42
4827.09
5403.44
5566.45
5238.52
4340.58
2792.94
1333.35
493.198
37.4672
781.147
3453.17
5746.81
9306.62
14138.8
19334.3
23796.6
26530
27141.2
25969.8
23738.5
21693.6
20809.3
21882.1
24749.6
28342.5
30986.2
30831.8
26686.2
19001.4
10480.7
2727.6
93.5577
21.7923
18.1134
12.3079
8.04133
6.48661
6.30994
2.73819
925.778
1810.7
1719.71
1574.57
1294.75
994.023
908.473
1131.62
1713.97
2627.83
3969.47
5848.72
7863.53
2997.36
3682.6
5409.84
4968.15
5130.22
4826.79
4524.23
4530.3
4863.09
5403.7
5985.86
6230.99
5900.22
5098.75
4166.38
3502.69
3121.91
2924.24
2879.83
3059.55
3724.48
4951.8
6674.97
8715.56
10613.8
11623.5
10992.7
8997.98
6914.1
5822.07
2214.96
5982.83
3971.01
5193.84
7733.2
8915.3
9032.27
9582.83
11552.1
15024.9
19576.3
24630
29243.9
31543.9
30534.8
25180.8
17038.1
9350.76
4628.58
3747.25
5943.56
9557.22
12957.1
13981.7
12674.5
9979.71
7391.96
5280.54
3508.4
2281.18
1374.66
5426.71
6142.35
11028.9
16573.2
21928.2
26167
27645.7
26022.1
22651
18524.2
14764.7
11103.6
8180.88
6007.27
5218.68
5639.04
7221.01
9687.11
12688.1
16322.6
20113.8
24031.7
26698.8
27052
23834.5
17515.8
10410.6
5698.22
3806.59
3185.95
11757.3
23139.6
26226.9
23281.7
18732.6
14597.2
11613.9
9543.9
8266.49
7546.87
7189.97
6898.62
6339.54
5650.53
4942.31
5094.02
6413.41
8777.8
11748.9
14753.8
16783.1
16611.4
13750.7
9616.36
6629.94
5026.94
4057.84
3135.92
2217.7
1718.27
5147.66
8733.94
7568.8
6745.89
6239.85
6303.41
7225.35
8882.75
10803.4
12856.3
14915.5
16893.4
18249.9
19183.9
19863.3
19803.4
18032.9
14434.7
10435.7
7541.11
6416.64
7191.48
9392.74
12088.3
14658.4
16704.2
18673.7
20337.3
20122.6
6281.87
2897.79
5447.49
5678.89
6085.27
6702.25
7628.21
8659.53
9494.97
9782.27
9673.48
9513.91
9883.35
10877.1
12364
13588.6
14077.8
13582.7
12163.5
10201.1
8268.93
6721.59
5606.97
4740.07
4337.89
4430.62
5313.99
7104.88
9626.59
11538.6
1760.62
2983.52
9056.18
14833.2
21716.8
26261.4
27545.3
24855.2
19076.1
12327.4
7549.27
7340.04
12820.3
21589.5
29145.9
32329.1
31263.7
28169.3
25368.5
24043.9
23798.6
23842.3
23476
22397
20269
17009.7
12380.1
9119.49
9587.24
15866.5
3306.4
22458
86938.5
81125.7
64805.1
45863.5
29514.6
17886.9
12069.6
11967.9
15901.4
21147.3
24732.7
25727.1
24857.5
22739.1
20374.8
18714.6
18356.8
19081.9
20592.4
21710.6
21246.4
18467.7
14114.8
10320
8967.27
12495.8
22879.5
30082.9
1953.23
25164.7
61790.6
40280.1
27874.2
23816.9
24041.2
24822
24233.9
23182.2
23542.4
26465.8
30605.6
34485.5
36940.8
37736.7
35232.4
30548.5
24324.3
18527.1
13704.6
10549.4
8814.28
8301.29
8912.88
12473.6
20318.2
31498.3
43944.2
53122.4
13620.8
20724.1
34143.9
18575.2
11784.5
10417.6
11062.8
12297.9
15612.6
26505.6
48051.2
71726.7
86100.9
89226.2
80022.1
60025.5
38047.7
19609.3
9798.36
7679.53
11777.8
17971.8
23192.7
25115.9
24377.6
22332.1
21100.9
21906.4
24074.8
25232.3
19761.5
24243.1
56317.1
50486.6
43531.2
37596.3
34886.4
36942.1
42595.8
49586.5
53588
51733.6
45214.3
37982.4
32976.9
28411.7
23372.7
18551.1
14136.1
10142.5
7128.32
5589.78
5128.18
4982.49
4828.54
4545.15
3957.93
2877.56
1737.81
954.602
95.5673
1249.26
4881.22
7299.61
10919.4
15817.6
20831.5
24566.4
25888.6
24550.1
21094.7
16572.9
12790.1
11112
12970.3
17797.2
23940
29347.3
31601.7
29053.3
21561.3
12477.2
4337.33
242.406
18.5093
16.7057
15.8947
16.821
20.0176
27.2775
30.0653
945.202
1580.66
1589.79
1551.13
1378.15
1191.29
1204.65
1444.26
1923.31
2688.68
4015.31
6298.92
9333.41
10432.6
7437.44
5517.85
8735.75
6016.23
5091.98
5085.8
4680.3
4276.49
4273.03
4695.3
5441.31
6283.26
6790.14
6529.19
5526.45
4272.49
3341.31
2869.16
2640.38
2517.38
2514.94
2897.35
3825.11
5308.33
7137.44
8866.14
9894.85
9644.62
8548.82
7510.27
7350.41
7430.82
5562.77
5626.05
7882.74
4154.94
4186.59
6041.88
7126.18
7181.19
7491.33
9163.51
12391.1
17129.8
23145
29600.7
34217.1
35737.2
31826
23769.5
14913.4
8190.83
5057.12
5959.21
9073.06
11839.2
12682.1
11757.4
9735.57
7557.49
5564.44
3792.87
2763.67
3299.11
5827.53
7948.78
7611.1
7826.87
11793.6
16779.6
21942.7
26341.3
28257.9
27299.2
24192.8
20313
16562.8
13095
10215.7
8046.77
6880.32
6503.11
7091.1
8448.91
10419.1
12902.8
15885.9
18896.8
21214.2
21599.4
19142.9
14367.3
9435.93
6449.84
5358.22
6008.49
7161.71
8058.86
12165.2
20280.8
24385
23239.1
19780.6
16358.7
13767.5
12053.1
11221.8
11139.5
11600.2
12256.5
12694.6
12852.9
12661.3
12721.9
13241.2
14238.1
15357.2
16118.6
15769.7
13887
10762.2
7600.24
5571.38
4450.98
3727.19
3156.27
2931.88
3031.04
3556.33
7125.93
13480.7
11998.5
9554.79
7742.82
6624.15
6430.55
7399.82
9239.94
11192.6
13168.5
15234.5
17244
18706.1
19930.2
21071.5
21463.8
20018.4
16227.5
11464.9
7421.44
5427.45
5671.42
7778.97
10896.2
14236.2
17229.8
19935.1
21875.1
20607
9751.36
3178.41
3972.55
6669.15
7503.76
6960.18
6775.41
7059.19
7723
8392.41
8739.73
8577.88
8192.91
8012.86
8435.28
9559.21
11194.5
12682.4
13459.8
13293.2
12172.4
10502.7
8705.14
7392.81
6482.2
5768.62
5325.92
5247.39
5776.75
7038.17
8904.58
10684.3
6252.88
3626.48
4113.9
8253.72
11263.4
14799
20637.7
24805.7
25813.2
22585
16228.9
9406.51
4853.97
4708.03
9748.96
17955.7
25375.4
28986.7
28616.9
26183.8
24217.5
23642.1
24061.2
24906.4
25970.4
27219.6
28120.7
27169.4
22548.9
16980.6
15594.5
21130.3
15545.7
8026.95
28093.3
94247.8
110416
91231.4
67054.2
43449.8
24633.6
12485.9
7109.77
7827.95
12372.7
18311.6
22356.3
23573.5
23185.5
21963.1
20602.3
19929.7
20550.1
22161.8
23972
24391.7
22326.2
18199.6
13383.5
10637.1
10895.9
16180.9
27716.9
33577.4
13204.4
6957.18
35418
100186
83549.8
49045.9
29766.2
23370
23895.7
25474.4
24603.4
22818.5
22887.8
26434.5
32475.9
39301.8
44775.1
47516.4
44931.4
37962
28947.2
21106.4
15417.7
11814.6
9694.09
8891.02
9462.79
12957.6
21590.1
33967.6
46321.3
53403.4
30872.7
12257.2
33317.4
70021.6
41820.5
20631.7
12056.8
10602.1
11431.5
12376.6
15289
26473.5
49595.1
75578.4
91732.4
95369.2
87323.4
70712
50312.6
31907.6
19337.1
13343.6
13868.9
17216.1
20406.3
21674.9
21131.9
20168.9
20280.4
22086.2
24579.6
25740
23806
15562
30292.6
79704.4
72790.9
59917.8
46723.8
34507.9
26484.7
25745.4
32200.9
42647.9
51911.4
53581.5
47141.2
37638.9
31751.9
27295.5
22940.3
18983
15584.7
12506
9777.51
7556.47
6041.03
5091.39
4431.21
3928.81
3446.96
2773.45
2155.36
1837.29
1760.15
2012.32
3580.92
6062.63
6420.04
8586.18
12047.4
16802.3
21545.2
24696.1
25177.5
22737.7
17884.8
11918.2
6869.85
4330.39
6984.17
13364.9
21050.1
27944
31687.2
30131.5
22869.4
13440
5403.47
556.123
19.9352
15.0931
27.3579
58.3469
116.316
197.308
267.082
9.34474
0.909536
918.625
1316.7
1415.55
1478.09
1423.43
1346.51
1407.05
1580.46
1914.35
2499.17
3635.36
5932.2
9533.54
13464.8
11070.5
8971.23
10987.2
7783.27
6505.65
5918.64
4980.96
4169.49
3937.38
4281.75
5078.83
6126.7
6956.08
6990.37
6038.23
4664.29
3520.9
2953.76
2755.65
2700.39
2703.63
2925.47
3546.76
4621.99
5941.58
7252.6
8012.7
7939.02
7469.27
7166.01
7510.05
8659.58
6031.57
4622.19
6916.68
4090.68
3315.41
4372.15
5239.22
5182.35
5080.65
5974.6
8153.87
11881.6
17587
24902.6
31848.7
36061.1
35090.7
29040.5
20869.9
13465.4
8517.02
7213.47
9033.28
11140.1
11799.6
11031.3
9404.51
7519.39
5681.07
4048.14
3451.44
4749.61
6538.06
7636.36
7060.32
7257.84
10998.5
15447.8
20213
24771.6
27626.9
27803.8
25663.3
22502.3
19350.2
16438.8
13956.1
12036.9
10706.7
9969.15
9881.55
10367.4
11282.7
12601
14194.2
15729.4
16727.9
16295.1
14164.6
11041.6
8344.39
6760.36
6096.59
6256.13
4320.95
4852.67
10419.6
18816.5
24231.2
24534.8
21903
19072.3
17003.5
15862.7
15606.3
16306.4
17741.3
19619.7
21425.5
22781.9
23497.1
23428
22819.2
21784.9
20364.7
18440.1
15807.8
12629.3
9455.62
6932.52
5327.78
4245.58
3383.3
2736.51
2643.14
4106.89
7854.96
14302.6
19585.6
14831.5
11106.4
8225.11
6386.68
5871.15
6881.4
8822.35
10743
12472.5
14479.7
16506.6
18124.6
19721.6
21612.1
23256.5
23355.6
21120.4
17127.9
12791.9
9991.27
9266.27
10395.8
12761.9
15692.1
18612.6
21155.9
22254.1
18977.1
8481.3
2616.96
5030.48
8986.25
7997.82
7406.17
7001.28
7041.37
7357.04
7578.07
7472.62
7024.29
6506.04
6294.83
6679.09
7749.26
9296.53
10858.3
11892.1
12106.5
11386.8
10046.3
8485.7
7361.51
6641.55
6183.79
5812.59
5637.93
5748.13
6233.93
6929.92
8092.49
8479.66
6049.05
6543.17
8987.17
10587.8
14283.8
19955.3
24053.8
25148
22237.4
16518.2
10463.5
6698.91
6614.53
10451.5
16534.6
22223.1
25091.8
24768.6
22857.6
21846.8
22202.8
23522.3
25429.7
28337.7
32444.6
37115.6
39826
36727
28922.8
24069.1
26543.4
30929.8
28185
69775.2
129592
121915
94151.7
64445.9
38497.2
19659.9
8903.45
5116.42
6557.72
10794.4
15828
19068.5
19944.9
20092.4
19963.9
20074.2
21037.6
23151.4
25896.7
27686.3
27416.2
24776.4
20921.1
17781.2
15982.3
16850.4
21871.8
28675.5
29170.5
18480.7
20539.1
87540
153193
99303.2
55236.8
29370.9
20542.3
21907.4
24689.4
23549.8
20670.5
20044.3
23798.7
31874.4
42449.9
52834.1
58937.9
57206.6
46899.6
34965.9
25282.1
19110.2
15246.8
13321.9
12763
13981.4
18417.3
27369.9
38673.6
48202.9
48724.4
29405.5
19337.6
57650.2
85965.9
44577.1
21412.6
11910.8
10533.8
11496.3
11775.1
13486.2
23511.5