/*--------------------------------*- C++ -*----------------------------------*\
| =========                 |                                                 |
| \\      /  F ield         | OpenFOAM: The Open Source CFD Toolbox           |
|  \\    /   O peration     | Version:  2.1.1                                 |
|   \\  /    A nd           | Web:      www.OpenFOAM.org                      |
|    \\/     M anipulation  |                                                 |
\*---------------------------------------------------------------------------*/
FoamFile
{
    version     2.0;
    format      ascii;
    class       volScalarField;
    location    "0.004350000";
    object      N2;
}
// * * * * * * * * * * * * * * * * * * * * * * * * * * * * * * * * * * * * * //

dimensions      [0 0 0 0 0 0 0];

internalField   nonuniform List<scalar> 
12384
(
0.738275
0.737806
0.737784
0.737858
0.738034
0.738323
0.738722
0.739249
0.739725
0.74006
0.740232
0.742368
0.748285
0.748115
0.750771
0.749729
0.749432
0.749293
0.749247
0.749239
0.74925
0.74927
0.749291
0.749302
0.749319
0.749314
0.749312
0.749298
0.749283
0.74926
0.749194
0.749288
0.749162
0.749201
0.749067
0.749031
0.748913
0.748717
0.748433
0.749335
0.751502
0.752365
0.751134
0.747467
0.745637
0.744028
0.743436
0.743379
0.743536
0.743766
0.743972
0.744192
0.744307
0.744583
0.744562
0.744795
0.744741
0.744948
0.744863
0.745014
0.744955
0.745044
0.745103
0.745204
0.7455
0.746894
0.745667
0.743446
0.743149
0.743246
0.743946
0.745415
0.747368
0.748829
0.744207
0.743813
0.743059
0.742633
0.742487
0.742575
0.742738
0.742903
0.74305
0.743178
0.743248
0.743288
0.743395
0.743311
0.743343
0.743269
0.743211
0.743162
0.743276
0.742877
0.742869
0.74241
0.742724
0.743497
0.745023
0.746116
0.746162
0.746023
0.745989
0.746032
0.745353
0.746403
0.745738
0.744923
0.744422
0.744374
0.744628
0.745049
0.745528
0.745942
0.746183
0.746397
0.746456
0.74651
0.746544
0.746587
0.746633
0.746516
0.746294
0.746127
0.745744
0.744438
0.743081
0.743666
0.745572
0.746949
0.747333
0.747205
0.746901
0.746774
0.746913
0.741972
0.739883
0.740758
0.742244
0.743374
0.743976
0.744108
0.743977
0.743698
0.743375
0.743047
0.742722
0.742415
0.742129
0.741915
0.741766
0.741725
0.74161
0.742134
0.742023
0.742672
0.742912
0.742899
0.743236
0.743336
0.743458
0.743357
0.744007
0.746778
0.744698
0.745183
0.74467
0.741632
0.738291
0.737415
0.738169
0.738953
0.741186
0.741833
0.743531
0.744051
0.744762
0.745015
0.745234
0.74536
0.745484
0.745654
0.745655
0.745867
0.745817
0.745972
0.745956
0.746046
0.746046
0.745904
0.745484
0.744349
0.743108
0.747583
0.750331
0.749833
0.747287
0.739967
0.736909
0.737435
0.737945
0.737986
0.73824
0.738266
0.738504
0.738561
0.738747
0.738649
0.738655
0.73852
0.738605
0.738728
0.739024
0.739421
0.740057
0.740823
0.741649
0.742436
0.74302
0.743059
0.743315
0.742771
0.741402
0.739923
0.753187
0.752835
0.750272
0.731102
0.728324
0.730327
0.731032
0.731519
0.731773
0.732166
0.73229
0.732245
0.732101
0.731842
0.731509
0.731124
0.730748
0.730375
0.73007
0.729723
0.729709
0.729435
0.729698
0.729643
0.729827
0.730143
0.730347
0.72979
0.731157
0.745666
0.7497
0.743323
0.742856
0.744033
0.744292
0.744148
0.74365
0.742932
0.742161
0.74134
0.740614
0.739895
0.73909
0.739054
0.738438
0.738635
0.738636
0.73903
0.739206
0.739245
0.739276
0.739708
0.739369
0.739851
0.739876
0.73962
0.738992
0.737758
0.736964
0.738166
0.749343
0.73551
0.734766
0.735306
0.735518
0.735373
0.734866
0.734166
0.73344
0.73275
0.73225
0.731991
0.732003
0.7322
0.732339
0.731902
0.732291
0.731551
0.731944
0.732025
0.73138
0.731767
0.732174
0.732533
0.732942
0.733343
0.733768
0.734763
0.737951
0.741436
0.75204
0.73949
0.729923
0.728727
0.728607
0.729383
0.730399
0.731985
0.732752
0.73408
0.734737
0.735538
0.735939
0.736223
0.736493
0.736672
0.736844
0.736844
0.736564
0.735854
0.734913
0.733476
0.731853
0.729981
0.728749
0.72935
0.738306
0.751362
0.754028
0.753266
0.753879
0.754242
0.754653
0.753523
0.751065
0.748087
0.743289
0.738165
0.734435
0.732127
0.730378
0.729145
0.728173
0.727966
0.72754
0.727982
0.728431
0.729661
0.73131
0.733589
0.73635
0.738048
0.740452
0.742188
0.745268
0.748705
0.752203
0.754
0.754027
0.753076
0.736831
0.738061
0.739188
0.73972
0.739775
0.739432
0.739158
0.739342
0.740039
0.740818
0.740879
0.74187
0.746573
0.748321
0.750772
0.749473
0.749186
0.749209
0.749271
0.749351
0.74943
0.749485
0.749512
0.749517
0.749493
0.749445
0.749383
0.7493
0.749219
0.749139
0.749031
0.74906
0.748937
0.74899
0.748908
0.748904
0.748895
0.748811
0.748558
0.748621
0.749484
0.751121
0.751577
0.748901
0.74513
0.743177
0.743196
0.743357
0.744125
0.744975
0.745714
0.74627
0.746683
0.746884
0.746969
0.746985
0.746919
0.746838
0.746664
0.746463
0.746138
0.745776
0.745512
0.745319
0.745404
0.746476
0.746969
0.745827
0.745454
0.7443
0.743385
0.74331
0.745434
0.748166
0.743933
0.742103
0.741557
0.742029
0.742804
0.743487
0.743984
0.744344
0.744633
0.744881
0.745109
0.745308
0.745481
0.745586
0.74569
0.745704
0.745635
0.745415
0.745148
0.744644
0.744153
0.743192
0.74272
0.742927
0.743836
0.74522
0.745892
0.745593
0.745453
0.745721
0.747338
0.745358
0.741825
0.74019
0.739699
0.739657
0.739828
0.740218
0.740898
0.741815
0.742828
0.743818
0.744698
0.745467
0.746087
0.746542
0.746845
0.746884
0.74683
0.746655
0.746259
0.745296
0.743822
0.743147
0.74344
0.744677
0.746018
0.746196
0.745928
0.745997
0.746066
0.741249
0.740938
0.743448
0.744794
0.744765
0.743673
0.742469
0.741603
0.740955
0.74047
0.740056
0.739677
0.739337
0.739029
0.738762
0.738509
0.738284
0.738171
0.738031
0.738053
0.738108
0.73872
0.739449
0.740402
0.741446
0.742386
0.742898
0.74335
0.745129
0.744084
0.745005
0.743037
0.738935
0.7371
0.738167
0.741299
0.744011
0.74594
0.746565
0.746617
0.74642
0.745916
0.745538
0.745396
0.745566
0.745871
0.746078
0.746352
0.74654
0.746785
0.74694
0.747099
0.747277
0.747387
0.747302
0.746801
0.745529
0.743544
0.746721
0.749848
0.747145
0.741601
0.737761
0.737481
0.738016
0.737998
0.738269
0.738397
0.738678
0.73896
0.739482
0.740088
0.740689
0.740951
0.741045
0.740586
0.740209
0.739928
0.740107
0.74121
0.742872
0.744899
0.746527
0.747529
0.748159
0.747734
0.746481
0.743679
0.740395
0.752187
0.74812
0.73923
0.729824
0.729992
0.732381
0.733566
0.734495
0.735196
0.735554
0.735883
0.735908
0.735692
0.73502
0.734361
0.73329
0.732608
0.732009
0.732122
0.7323
0.733444
0.733719
0.734256
0.733907
0.733262
0.732937
0.733008
0.731605
0.731677
0.743894
0.746546
0.743542
0.745079
0.746476
0.74656
0.745874
0.744469
0.742546
0.740442
0.738425
0.73651
0.735438
0.73485
0.734761
0.735967
0.736669
0.738226
0.739024
0.739885
0.740759
0.741561
0.742384
0.742983
0.743265
0.743111
0.742412
0.741225
0.739371
0.737461
0.737628
0.744966
0.736206
0.737742
0.740503
0.741137
0.739922
0.737791
0.735378
0.733264
0.732251
0.732862
0.734887
0.737024
0.738782
0.739481
0.739852
0.73946
0.738685
0.737074
0.735606
0.734067
0.733021
0.732581
0.732633
0.733053
0.733558
0.733928
0.734386
0.7363
0.73984
0.746132
0.733676
0.728907
0.729018
0.731019
0.733622
0.73567
0.737521
0.738257
0.739205
0.739272
0.739451
0.739451
0.73956
0.739984
0.740772
0.741872
0.742812
0.743331
0.743132
0.741954
0.739722
0.736739
0.733053
0.729841
0.728547
0.732529
0.743811
0.752876
0.753738
0.753961
0.75447
0.754053
0.751788
0.747921
0.741676
0.733733
0.726534
0.722015
0.720007
0.719096
0.718702
0.718655
0.718623
0.718338
0.717908
0.717335
0.716689
0.716298
0.716111
0.717199
0.720426
0.723881
0.727986
0.730814
0.735907
0.744823
0.750894
0.753687
0.753451
0.741733
0.743169
0.744932
0.745374
0.745579
0.744631
0.743271
0.741724
0.741195
0.741739
0.741956
0.742077
0.745065
0.748174
0.750708
0.749286
0.74921
0.749227
0.749265
0.749293
0.749332
0.749317
0.749297
0.749209
0.749131
0.749068
0.74899
0.748915
0.748804
0.748611
0.748399
0.748112
0.747863
0.747747
0.747799
0.748048
0.748376
0.748621
0.748634
0.748479
0.748575
0.749674
0.751385
0.749791
0.744773
0.743298
0.743616
0.74384
0.745195
0.746529
0.747488
0.747961
0.748176
0.748012
0.747901
0.747556
0.747438
0.74723
0.747289
0.74724
0.747157
0.746761
0.746243
0.745746
0.745417
0.746004
0.747065
0.747369
0.747695
0.747118
0.745521
0.743753
0.744095
0.747371
0.741593
0.741091
0.742128
0.743318
0.744088
0.744451
0.744639
0.744828
0.745103
0.745443
0.745799
0.746127
0.746425
0.746648
0.746867
0.746952
0.747045
0.74687
0.746723
0.74629
0.745515
0.744292
0.743179
0.742664
0.743208
0.744416
0.745551
0.745479
0.745095
0.745416
0.747464
0.7428
0.73974
0.739249
0.739622
0.739933
0.739878
0.739667
0.739763
0.74018
0.741009
0.742167
0.743485
0.744734
0.745738
0.746446
0.746693
0.746785
0.746841
0.746778
0.746543
0.745922
0.744726
0.743483
0.742879
0.743086
0.744058
0.745294
0.745705
0.745927
0.744982
0.741374
0.743181
0.744854
0.743956
0.741887
0.740772
0.740495
0.740305
0.740078
0.739758
0.739344
0.738908
0.738519
0.73823
0.738043
0.737896
0.737794
0.737593
0.737453
0.736881
0.736928
0.736512
0.736905
0.737461
0.738596
0.740185
0.741638
0.742664
0.744307
0.743382
0.744252
0.740674
0.737418
0.738008
0.742058
0.745319
0.746585
0.746403
0.745564
0.74367
0.74239
0.74204
0.742505
0.743668
0.744783
0.745821
0.74622
0.746426
0.746445
0.746456
0.746663
0.746965
0.747371
0.747851
0.748243
0.748067
0.746833
0.74428
0.746012
0.748816
0.743424
0.738638
0.737386
0.737592
0.737391
0.736665
0.735998
0.735438
0.735281
0.735771
0.736961
0.73856
0.740063
0.741493
0.742267
0.742298
0.741839
0.741249
0.741215
0.742498
0.744428
0.746132
0.747657
0.748893
0.749959
0.750177
0.749496
0.746022
0.741046
0.74775
0.73993
0.732705
0.73004
0.731979
0.733771
0.734337
0.735002
0.735537
0.736452
0.737317
0.738064
0.738197
0.737539
0.736364
0.734924
0.734139
0.73464
0.736943
0.739239
0.742699
0.744002
0.744913
0.744505
0.74246
0.739505
0.73714
0.734023
0.732395
0.743222
0.745336
0.744748
0.746844
0.747589
0.747365
0.746522
0.744598
0.741373
0.737806
0.734811
0.733204
0.732698
0.734102
0.736685
0.739293
0.741705
0.743063
0.74406
0.744471
0.744929
0.745218
0.745805
0.746346
0.746674
0.746673
0.746061
0.744485
0.74193
0.738705
0.737415
0.742093
0.738178
0.742453
0.744832
0.744237
0.741178
0.737311
0.733638
0.732155
0.733414
0.738606
0.742494
0.744686
0.745986
0.74654
0.746988
0.746631
0.746433
0.745079
0.74299
0.740026
0.73726
0.735036
0.733806
0.733699
0.734274
0.734797
0.735074
0.735836
0.738463
0.740821
0.730576
0.728999
0.731199
0.734237
0.736625
0.738027
0.738963
0.739628
0.73978
0.739535
0.73879
0.738011
0.737854
0.739178
0.74192
0.74471
0.746657
0.747363
0.747187
0.746173
0.744279
0.74092
0.736175
0.731559
0.728387
0.729836
0.739212
0.75122
0.754161
0.754135
0.754387
0.75276
0.748595
0.741651
0.732497
0.724529
0.720846
0.720279
0.720912
0.721737
0.722433
0.722792
0.722831
0.722491
0.721955
0.721078
0.71988
0.71824
0.716438
0.715284
0.716483
0.721771
0.728231
0.732585
0.732988
0.735827
0.743862
0.752039
0.753913
0.744701
0.746303
0.747364
0.747596
0.747604
0.747292
0.746543
0.744709
0.743135
0.742802
0.742993
0.742568
0.744197
0.747914
0.750546
0.749141
0.74906
0.748899
0.748684
0.748449
0.748218
0.748021
0.747912
0.747949
0.748062
0.748254
0.748437
0.748573
0.748573
0.748343
0.747881
0.747236
0.746552
0.746063
0.745915
0.746283
0.747063
0.747938
0.748467
0.748487
0.748322
0.74895
0.750819
0.750013
0.744725
0.743744
0.743944
0.744134
0.745727
0.747044
0.747692
0.74777
0.747256
0.746617
0.745948
0.745542
0.74528
0.745341
0.745688
0.746335
0.747004
0.74716
0.746784
0.746217
0.745696
0.745747
0.746725
0.747597
0.74816
0.748328
0.747564
0.745303
0.743899
0.74669
0.739986
0.741474
0.743069
0.743881
0.744137
0.744194
0.744367
0.744808
0.74541
0.746024
0.746529
0.74687
0.747119
0.747273
0.747333
0.747477
0.747516
0.747528
0.747387
0.747035
0.746252
0.745349
0.743871
0.74266
0.742945
0.743942
0.745221
0.74539
0.74489
0.745028
0.746465
0.742489
0.740202
0.74089
0.74256
0.743667
0.743837
0.74349
0.743207
0.743355
0.744005
0.744825
0.745664
0.746249
0.746453
0.746515
0.746441
0.746393
0.746382
0.746375
0.74636
0.746075
0.745284
0.744044
0.743051
0.742683
0.743024
0.744154
0.745313
0.745899
0.744153
0.742299
0.744292
0.743609
0.741363
0.740642
0.740831
0.740927
0.740637
0.740248
0.739743
0.739174
0.738727
0.738549
0.738618
0.738795
0.738938
0.73897
0.738998
0.73876
0.738489
0.737931
0.737117
0.736491
0.736288
0.736923
0.738217
0.74012
0.741893
0.743813
0.742663
0.743112
0.738773
0.737367
0.741098
0.745157
0.746389
0.746037
0.743696
0.741462
0.739281
0.738668
0.739493
0.741523
0.744088
0.745906
0.746872
0.74704
0.747018
0.746854
0.746853
0.746837
0.747029
0.747355
0.747925
0.748584
0.748781
0.747841
0.745024
0.745618
0.747589
0.741033
0.737614
0.737256
0.736877
0.735893
0.73397
0.732566
0.731637
0.731601
0.732191
0.733491
0.735448
0.738091
0.740604
0.742285
0.742961
0.742784
0.74227
0.742261
0.742986
0.743737
0.744142
0.745
0.746666
0.748825
0.750499
0.750324
0.747485
0.7415
0.742318
0.733368
0.729904
0.730884
0.732709
0.733334
0.733293
0.733404
0.734065
0.735433
0.737381
0.739045
0.739646
0.738938
0.737136
0.735712
0.735834
0.738528
0.743303
0.746901
0.749357
0.750247
0.75055
0.750463
0.74982
0.747123
0.742439
0.736606
0.733149
0.743526
0.745169
0.745629
0.747206
0.747393
0.747432
0.746852
0.744744
0.740218
0.73574
0.733095
0.7328
0.736203
0.74036
0.745155
0.747315
0.748839
0.749095
0.749213
0.748841
0.748368
0.747997
0.747706
0.747723
0.747912
0.748187
0.74822
0.747213
0.744547
0.740331
0.737603
0.741011
0.740719
0.74497
0.745541
0.743098
0.739046
0.734421
0.732135
0.732913
0.739381
0.744391
0.746326
0.747145
0.747801
0.748254
0.748616
0.748795
0.74874
0.748773
0.747615
0.745532
0.742136
0.738651
0.735984
0.734863
0.735177
0.735969
0.736211
0.736227
0.738003
0.737031
0.729298
0.730013
0.733226
0.735698
0.737275
0.738338
0.739296
0.739889
0.740032
0.739392
0.738079
0.736967
0.736825
0.739092
0.743266
0.74723
0.749023
0.749374
0.749205
0.748312
0.746475
0.742822
0.737809
0.732288
0.728138
0.728575
0.73632
0.748642
0.754316
0.754256
0.753964
0.750644
0.743717
0.734205
0.725162
0.720953
0.720695
0.721947
0.723581
0.724778
0.725573
0.726008
0.725843
0.725406
0.724588
0.723548
0.722421
0.721013
0.719213
0.717089
0.715888
0.720108
0.729778
0.736881
0.737074
0.734868
0.739297
0.749904
0.754384
0.745799
0.747461
0.747941
0.747866
0.747756
0.747752
0.747564
0.746606
0.744979
0.743974
0.74391
0.743129
0.743792
0.747526
0.750237
0.74903
0.748583
0.748097
0.747644
0.747141
0.74673
0.746506
0.746596
0.746869
0.747402
0.748005
0.748534
0.748841
0.748787
0.74833
0.747489
0.746447
0.745516
0.74494
0.744665
0.744882
0.745679
0.746951
0.748062
0.748429
0.748277
0.748558
0.750294
0.750155
0.744826
0.744197
0.744089
0.744191
0.745526
0.746398
0.746369
0.745544
0.744439
0.743675
0.743299
0.74327
0.743329
0.743501
0.743641
0.744408
0.745826
0.747001
0.747033
0.746541
0.746
0.745823
0.746384
0.747345
0.748053
0.748457
0.748322
0.746634
0.744174
0.746438
0.739987
0.741999
0.743397
0.743837
0.743911
0.743984
0.744469
0.745339
0.746226
0.746844
0.747193
0.747256
0.747183
0.747024
0.747085
0.747207
0.747411
0.747503
0.747466
0.747229
0.746583
0.745773
0.744269
0.742876
0.742796
0.743653
0.744927
0.745233
0.744795
0.744793
0.744785
0.741374
0.74089
0.743299
0.745859
0.74703
0.747224
0.747045
0.746862
0.746821
0.746757
0.746554
0.74616
0.745723
0.745188
0.744903
0.744628
0.744727
0.744965
0.745336
0.745693
0.745845
0.745413
0.744444
0.743352
0.742675
0.742702
0.743508
0.744902
0.745887
0.743721
0.74291
0.743878
0.741889
0.740808
0.741175
0.741192
0.740684
0.740273
0.739865
0.739332
0.738763
0.738649
0.738996
0.73944
0.739687
0.73972
0.739651
0.739514
0.739492
0.739436
0.739331
0.738636
0.737604
0.73656
0.736361
0.737176
0.738877
0.741156
0.743454
0.741983
0.741662
0.73774
0.738834
0.743798
0.746052
0.745588
0.743553
0.74032
0.737821
0.73593
0.736273
0.73849
0.741797
0.74504
0.746724
0.747158
0.746885
0.746132
0.745938
0.74613
0.746425
0.746787
0.747205
0.747839
0.748659
0.749081
0.748416
0.745555
0.745513
0.7466
0.739637
0.737256
0.736843
0.735754
0.733692
0.73144
0.730144
0.729585
0.72969
0.730236
0.731347
0.73323
0.736144
0.739564
0.74213
0.743209
0.743016
0.742231
0.74173
0.74134
0.740758
0.74069
0.741241
0.742756
0.745828
0.749101
0.750262
0.747897
0.74169
0.737399
0.730045
0.729932
0.731443
0.732252
0.731845
0.730982
0.73061
0.731177
0.733039
0.736177
0.739138
0.740297
0.739367
0.736723
0.735757
0.73759
0.742337
0.747108
0.749806
0.750877
0.751124
0.750991
0.750948
0.751228
0.750544
0.746895
0.739092
0.733791
0.743623
0.745169
0.745867
0.746633
0.746601
0.747121
0.746671
0.744077
0.738632
0.734495
0.73313
0.73582
0.743151
0.747523
0.75002
0.750465
0.750805
0.750524
0.750424
0.749748
0.749155
0.748297
0.747687
0.747317
0.747326
0.74781
0.748525
0.748548
0.74656
0.741803
0.737612
0.741037
0.742621
0.745461
0.744383
0.741222
0.736735
0.732893
0.732259
0.737122
0.743383
0.745801
0.746412
0.747068
0.747924
0.748621
0.749107
0.749292
0.749369
0.749429
0.749122
0.748008
0.745522
0.741812
0.738264
0.736317
0.73641
0.737444
0.73782
0.737272
0.738107
0.734831
0.729184
0.731332
0.734447
0.736276
0.737251
0.73815
0.739055
0.739915
0.740388
0.740384
0.739035
0.737079
0.736307
0.737795
0.741861
0.746052
0.7485
0.748981
0.748957
0.748108
0.746331
0.742427
0.737251
0.731479
0.727339
0.727558
0.733819
0.745396
0.754242
0.754273
0.753386
0.747747
0.738196
0.728319
0.721953
0.720712
0.722103
0.724464
0.726576
0.728281
0.729585
0.730028
0.729893
0.728996
0.727598
0.725934
0.724233
0.722636
0.720908
0.718804
0.717305
0.719187
0.731488
0.739603
0.740106
0.736683
0.738249
0.749
0.754455
0.746334
0.747921
0.747901
0.747411
0.747159
0.747427
0.747672
0.747441
0.74632
0.745127
0.744776
0.743629
0.743523
0.747152
0.749833
0.748694
0.747762
0.747266
0.746744
0.746206
0.745879
0.745793
0.746054
0.746628
0.74743
0.748294
0.749022
0.749295
0.748941
0.74801
0.746715
0.745733
0.745325
0.745153
0.744975
0.744871
0.745223
0.746338
0.747702
0.748346
0.748251
0.748361
0.749929
0.750215
0.745033
0.744696
0.744199
0.743967
0.744632
0.74474
0.743915
0.742727
0.742013
0.741841
0.742128
0.742501
0.742812
0.742945
0.742933
0.743101
0.744156
0.746488
0.747116
0.7467
0.746196
0.745964
0.746231
0.747027
0.747778
0.748334
0.748585
0.747503
0.744626
0.746254
0.740347
0.742434
0.743478
0.743796
0.743789
0.743924
0.74471
0.745819
0.746699
0.74709
0.747094
0.746715
0.746279
0.746012
0.74605
0.746437
0.746856
0.747183
0.747329
0.747132
0.746658
0.745643
0.744259
0.742939
0.742721
0.743488
0.744675
0.745002
0.744626
0.744622
0.743117
0.740353
0.742291
0.745943
0.748105
0.748711
0.748601
0.748285
0.747737
0.746817
0.745643
0.744443
0.743685
0.743165
0.743206
0.742955
0.743286
0.743335
0.743767
0.744367
0.744991
0.745437
0.745324
0.744513
0.743515
0.742716
0.742482
0.743124
0.744629
0.745851
0.743451
0.74319
0.742696
0.741087
0.741024
0.741117
0.740477
0.739965
0.739813
0.739552
0.73906
0.738613
0.739083
0.739863
0.740147
0.740062
0.739781
0.739492
0.7393
0.739249
0.739379
0.739469
0.739396
0.738795
0.737519
0.736527
0.736748
0.738179
0.740652
0.743201
0.741375
0.740344
0.737604
0.740788
0.744844
0.745449
0.743672
0.740706
0.737527
0.73558
0.734805
0.735211
0.738267
0.74218
0.745562
0.74714
0.747076
0.745818
0.744325
0.743685
0.743839
0.744653
0.745593
0.746591
0.747616
0.748655
0.74918
0.748602
0.745724
0.745561
0.745973
0.739177
0.736968
0.736204
0.734275
0.731841
0.729841
0.72893
0.728485
0.728756
0.729161
0.730237
0.731792
0.734694
0.738714
0.742082
0.743255
0.742679
0.741378
0.740436
0.739863
0.740192
0.741194
0.741797
0.742026
0.742771
0.745888
0.748628
0.747177
0.741678
0.734375
0.729032
0.730202
0.731377
0.731207
0.730132
0.729174
0.728722
0.728884
0.730457
0.734213
0.73872
0.740556
0.739193
0.735683
0.735626
0.739517
0.744791
0.748279
0.749842
0.750123
0.749858
0.749386
0.749151
0.74986
0.750949
0.749085
0.741096
0.734226
0.744099
0.745175
0.745521
0.745421
0.745768
0.74674
0.746277
0.743224
0.73782
0.734338
0.734598
0.740169
0.746943
0.749429
0.750269
0.749941
0.749374
0.749042
0.748905
0.748825
0.748212
0.747037
0.745847
0.745237
0.745326
0.746216
0.74775
0.748869
0.747872
0.743213
0.738204
0.741268
0.743617
0.745006
0.743032
0.739806
0.735302
0.73253
0.733882
0.739648
0.743984
0.745112
0.745797
0.747083
0.748486
0.749347
0.749733
0.749837
0.749834
0.749765
0.749603
0.748849
0.746959
0.743605
0.739813
0.737612
0.73771
0.739058
0.739608
0.738424
0.738347
0.733533
0.729336
0.73247
0.73519
0.736278
0.736807
0.73729
0.73795
0.739011
0.740309
0.741156
0.740993
0.738763
0.736245
0.735979
0.738352
0.742172
0.74501
0.746334
0.746733
0.74606
0.743862
0.739791
0.734696
0.729446
0.726232
0.726339
0.731178
0.742748
0.754017
0.754254
0.752637
0.744578
0.733538
0.724463
0.72065
0.721458
0.724183
0.727215
0.730102
0.732578
0.734014
0.734637
0.734073
0.73287
0.731001
0.728708
0.726356
0.724176
0.722212
0.719987
0.718014
0.719753
0.733304
0.741784
0.741457
0.738332
0.739278
0.748615
0.754557
0.746676
0.748171
0.747711
0.746709
0.746045
0.746456
0.747382
0.747802
0.747311
0.746361
0.745737
0.744204
0.743366
0.746659
0.749436
0.748182
0.746865
0.746468
0.746162
0.745774
0.74557
0.745622
0.745974
0.74665
0.747523
0.748554
0.749394
0.749664
0.748952
0.747431
0.745979
0.745636
0.746092
0.746548
0.74638
0.745867
0.74572
0.746397
0.747608
0.748306
0.748222
0.74823
0.749626
0.750209
0.745269
0.745198
0.744366
0.743653
0.743545
0.743035
0.742026
0.741129
0.740861
0.741024
0.741498
0.742226
0.742821
0.743062
0.743003
0.742791
0.743131
0.745339
0.747129
0.74689
0.746366
0.746125
0.746291
0.746905
0.747614
0.748281
0.748638
0.747745
0.744989
0.746253
0.740672
0.742787
0.743328
0.743677
0.743702
0.743853
0.744724
0.745879
0.746643
0.746827
0.746496
0.745952
0.745441
0.745097
0.745183
0.745662
0.746266
0.746678
0.746806
0.746574
0.746085
0.745155
0.743852
0.742767
0.74266
0.743429
0.744468
0.744753
0.744418
0.744491
0.740735
0.740399
0.744171
0.747542
0.748864
0.749087
0.748651
0.74758
0.745952
0.744179
0.742981
0.742568
0.742531
0.742767
0.7429
0.742981
0.742927
0.743099
0.74336
0.743972
0.744642
0.74511
0.74501
0.74432
0.743329
0.742603
0.742513
0.743059
0.744538
0.745846
0.743344
0.74298
0.741872
0.740897
0.740854
0.740046
0.739233
0.739293
0.739476
0.739403
0.738925
0.738711
0.739714
0.740363
0.740386
0.740006
0.739505
0.73908
0.73885
0.738676
0.738921
0.739117
0.739378
0.739211
0.738277
0.737053
0.736747
0.737944
0.740388
0.74305
0.740765
0.739195
0.737945
0.742164
0.744667
0.744113
0.741516
0.738606
0.736075
0.734863
0.734834
0.735699
0.737899
0.741699
0.745432
0.747387
0.747422
0.745694
0.743412
0.742296
0.742057
0.742783
0.744274
0.74596
0.747411
0.748579
0.74909
0.74838
0.745496
0.745666
0.745509
0.738956
0.736871
0.735716
0.733457
0.730756
0.728939
0.728114
0.727764
0.727723
0.728291
0.729447
0.731077
0.733801
0.738059
0.74207
0.743224
0.742105
0.740645
0.740064
0.740824
0.742818
0.744043
0.743756
0.742895
0.742569
0.743057
0.745358
0.745607
0.741362
0.732588
0.728881
0.730316
0.730917
0.730174
0.729229
0.72868
0.728281
0.727998
0.728651
0.732031
0.737882
0.74077
0.738661
0.734502
0.735657
0.741071
0.745704
0.748019
0.748667
0.748486
0.748058
0.74779
0.747651
0.748132
0.750339
0.750133
0.742324
0.734492
0.743693
0.745076
0.744677
0.743957
0.745027
0.746398
0.746051
0.743312
0.738273
0.734886
0.735861
0.74188
0.746955
0.7483
0.747557
0.746391
0.745501
0.745666
0.746377
0.747243
0.747478
0.746716
0.745091
0.743732
0.743533
0.744487
0.746711
0.748836
0.748529
0.743954
0.73802
0.741591
0.743866
0.744049
0.741948
0.738975
0.734589
0.732515
0.734469
0.739891
0.743155
0.74427
0.745426
0.747284
0.748918
0.749682
0.749815
0.749847
0.749823
0.749768
0.749527
0.748885
0.747045
0.743944
0.740374
0.738579
0.739319
0.741203
0.741694
0.739647
0.738726
0.732641
0.72978
0.733423
0.735617
0.736284
0.736456
0.736524
0.736757
0.737419
0.738862
0.740971
0.742403
0.741874
0.738561
0.735596
0.735768
0.737644
0.740369
0.742151
0.742725
0.74165
0.739389
0.735495
0.731199
0.727291
0.724863
0.724343
0.727478
0.738791
0.753427
0.75418
0.751771
0.741604
0.729802
0.7224
0.720509
0.722669
0.726143
0.729929
0.733446
0.736153
0.737678
0.738005
0.737513
0.735886
0.733774
0.731147
0.728368
0.725757
0.723442
0.720962
0.718233
0.719192
0.734002
0.742867
0.742642
0.740627
0.743078
0.750672
0.754549
0.746871
0.748367
0.74755
0.74594
0.744353
0.744492
0.746318
0.747448
0.74762
0.747245
0.746671
0.744935
0.743311
0.746249
0.749248
0.747774
0.74571
0.745437
0.745611
0.74546
0.745386
0.745478
0.745828
0.746387
0.747251
0.748397
0.749488
0.749918
0.749036
0.747098
0.745725
0.745964
0.747141
0.747973
0.747879
0.747157
0.746703
0.747033
0.747866
0.74833
0.748162
0.748186
0.749573
0.750215
0.745347
0.745602
0.744832
0.743539
0.742868
0.74201
0.741105
0.740416
0.740146
0.74023
0.740678
0.741598
0.742664
0.74324
0.743269
0.742935
0.742906
0.74444
0.746698
0.74704
0.746592
0.746391
0.746549
0.747029
0.74766
0.74833
0.748757
0.747928
0.745079
0.746275
0.741056
0.742508
0.74286
0.743639
0.743622
0.743703
0.744435
0.745551
0.746307
0.746437
0.74609
0.745569
0.744981
0.744632
0.744547
0.744925
0.745398
0.745795
0.745825
0.745694
0.745019
0.74424
0.743171
0.742461
0.742656
0.743475
0.744363
0.744537
0.744247
0.744453
0.738966
0.741203
0.745127
0.747765
0.748812
0.748851
0.747821
0.746046
0.74416
0.743085
0.742508
0.742442
0.742799
0.742992
0.743074
0.743116
0.743168
0.743249
0.743587
0.744064
0.744589
0.744818
0.744531
0.743772
0.742846
0.742376
0.742439
0.743229
0.744948
0.746051
0.74327
0.742612
0.741274
0.740543
0.739883
0.738627
0.738304
0.738762
0.739392
0.739444
0.738857
0.738903
0.74007
0.740566
0.740389
0.739911
0.739399
0.738929
0.738561
0.738428
0.738525
0.738805
0.739066
0.739157
0.73867
0.73748
0.736996
0.738101
0.740654
0.743
0.74023
0.738529
0.738321
0.742409
0.74382
0.74239
0.739708
0.737448
0.735886
0.735507
0.735762
0.736091
0.737231
0.740049
0.744319
0.747507
0.748441
0.747317
0.74492
0.742843
0.742082
0.74241
0.74377
0.745653
0.747244
0.748272
0.748574
0.747525
0.745129
0.746029
0.745292
0.738743
0.73668
0.735561
0.733147
0.730388
0.728594
0.727844
0.727268
0.727165
0.727722
0.729091
0.730762
0.733216
0.737631
0.742159
0.743183
0.741659
0.740507
0.740949
0.7429
0.744796
0.744361
0.741638
0.739045
0.739775
0.742021
0.743409
0.743809
0.740999
0.7314
0.728886
0.730278
0.730411
0.729617
0.729161
0.729068
0.728692
0.72798
0.727878
0.729977
0.73701
0.741077
0.738076
0.733308
0.735937
0.742021
0.745923
0.747345
0.747381
0.747097
0.747183
0.747376
0.747421
0.747789
0.749975
0.750244
0.742618
0.734342
0.744743
0.744933
0.743595
0.742613
0.744141
0.745793
0.746029
0.744335
0.73978
0.735644
0.735742
0.74101
0.745069
0.745371
0.743847
0.742566
0.7424
0.743027
0.744332
0.745605
0.746768
0.746523
0.745178
0.74357
0.74324
0.744109
0.746406
0.749056
0.748904
0.743933
0.737972
0.741841
0.743736
0.743043
0.741494
0.73876
0.7344
0.73219
0.733916
0.738883
0.742035
0.743369
0.744919
0.747088
0.748925
0.749515
0.749501
0.749419
0.749392
0.749453
0.748852
0.748102
0.746067
0.742975
0.740139
0.739684
0.741588
0.74383
0.743642
0.740477
0.739079
0.732161
0.730326
0.734184
0.73617
0.736798
0.737073
0.737082
0.736798
0.736556
0.736969
0.739067
0.742273
0.744128
0.74272
0.73858
0.735604
0.735102
0.735644
0.73667
0.737079
0.736408
0.734278
0.731392
0.728201
0.725402
0.723087
0.721312
0.723645
0.736349
0.753425
0.75409
0.751085
0.739354
0.727312
0.721219
0.720553
0.723576
0.727724
0.73201
0.73598
0.738761
0.740162
0.740654
0.740071
0.73841
0.735609
0.732742
0.729768
0.727006
0.724558
0.721913
0.718354
0.717506
0.731301
0.743521
0.744845
0.744977
0.747893
0.751459
0.751679
0.746963
0.748533
0.7476
0.745396
0.742625
0.74177
0.74358
0.745659
0.746724
0.746984
0.746846
0.74557
0.7434
0.745615
0.745525
0.747586
0.748895
0.746464
0.743895
0.743817
0.744699
0.745016
0.744979
0.745065
0.745302
0.745693
0.746512
0.747758
0.749207
0.750011
0.74942
0.747385
0.745862
0.746153
0.747547
0.748508
0.74854
0.748097
0.74773
0.747857
0.74827
0.748351
0.74806
0.748061
0.749301
0.75014
0.749971
0.748153
0.745755
0.745806
0.745867
0.744066
0.742888
0.741731
0.740733
0.740077
0.739678
0.739582
0.739889
0.740838
0.74227
0.743457
0.743753
0.743366
0.743139
0.744307
0.746399
0.747109
0.746929
0.746803
0.746975
0.747381
0.747935
0.748548
0.748787
0.747793
0.745272
0.744769
0.740966
0.741297
0.74137
0.741248
0.741515
0.74284
0.743447
0.74351
0.743964
0.744965
0.745853
0.746147
0.745942
0.745469
0.744923
0.744414
0.744079
0.743998
0.744196
0.744363
0.744358
0.744183
0.743599
0.743048
0.742451
0.742315
0.742809
0.743697
0.744402
0.74437
0.744192
0.744594
0.745538
0.74395
0.738909
0.741613
0.744627
0.747133
0.748302
0.748333
0.747339
0.745724
0.744241
0.743161
0.742624
0.742484
0.742735
0.743019
0.743259
0.74338
0.743492
0.743687
0.743928
0.744194
0.744385
0.744215
0.743707
0.742936
0.742436
0.742471
0.742775
0.743636
0.745006
0.745932
0.746079
0.745233
0.743574
0.742217
0.740762
0.739841
0.738381
0.737157
0.737171
0.738008
0.739007
0.739364
0.73899
0.738927
0.740132
0.740645
0.740521
0.7401
0.739555
0.739047
0.738641
0.738437
0.738451
0.738633
0.738945
0.739112
0.738706
0.737803
0.737412
0.738529
0.74099
0.742868
0.739663
0.739409
0.739427
0.737731
0.738694
0.741902
0.742369
0.740546
0.738407
0.73685
0.736228
0.736362
0.736456
0.736339
0.736469
0.738143
0.742101
0.74665
0.749111
0.749448
0.748006
0.745716
0.743568
0.742839
0.743311
0.744793
0.746295
0.747217
0.747389
0.746237
0.745082
0.747176
0.748947
0.748644
0.744333
0.739162
0.736707
0.735641
0.733517
0.730429
0.728753
0.72779
0.727317
0.727085
0.727607
0.729097
0.73085
0.733013
0.737613
0.742393
0.743121
0.741446
0.740891
0.74217
0.744339
0.744999
0.741993
0.736061
0.732106
0.732678
0.736946
0.741299
0.742441
0.740946
0.741786
0.737016
0.730493
0.728908
0.730167
0.729985
0.729426
0.729408
0.729519
0.729179
0.728297
0.727554
0.72877
0.736134
0.741616
0.737543
0.732385
0.736388
0.743055
0.746106
0.746718
0.746493
0.746864
0.74775
0.748497
0.748609
0.748665
0.750437
0.75029
0.741393
0.734263
0.743648
0.744188
0.744783
0.744391
0.742276
0.741358
0.742727
0.744351
0.745389
0.745432
0.74205
0.736621
0.734966
0.738761
0.742493
0.74265
0.741412