/*--------------------------------*- C++ -*----------------------------------*\
| =========                 |                                                 |
| \\      /  F ield         | OpenFOAM: The Open Source CFD Toolbox           |
|  \\    /   O peration     | Version:  2.1.1                                 |
|   \\  /    A nd           | Web:      www.OpenFOAM.org                      |
|    \\/     M anipulation  |                                                 |
\*---------------------------------------------------------------------------*/
FoamFile
{
    version     2.0;
    format      ascii;
    class       volScalarField;
    location    "0.004350000";
    object      omegaC_burn;
}
// * * * * * * * * * * * * * * * * * * * * * * * * * * * * * * * * * * * * * //

dimensions      [1 -3 -1 0 0 0 0];

internalField   nonuniform List<scalar> 
12384
(
90657.1
197869
232472
250063
254346
245647
231903
209570
193714
170401
144652
114142
77262.5
62321.5
216421
341560
455444
538246
602786
636230
659981
639409
642046
657983
644138
658295
701160
713083
746406
821943
803000
823096
781306
736807
670131
608654
521407
437081
380870
338484
282825
241533
208606
155869
574661
853833
1.0025e+06
1.08127e+06
1.11172e+06
1.14506e+06
1.16668e+06
1.20339e+06
1.21459e+06
1.23981e+06
1.22854e+06
1.22883e+06
1.19311e+06
1.17265e+06
1.10506e+06
1.04624e+06
940028
850370
752297
675930
577907
498530
404802
364879
334738
323675
306072
280697
235202
156419
456784
685530
811896
905128
989767
1.05826e+06
1.09452e+06
1.08542e+06
1.03635e+06
920452
796255
741035
698712
511265
663642
461840
483878
665263
515510
1.06476e+06
984737
1.14749e+06
1.09664e+06
968179
728723
504924
409051
393526
389526
294083
458466
776754
882991
894834
827241
688750
561458
458447
356279
284737
279198
274054
317306
338716
379874
607132
653366
871561
952781
975847
945825
878015
827578
763296
662912
536232
421772
347835
310595
297881
268115
393405
490562
573775
633462
663199
674781
679216
688609
699917
716361
733140
751615
764212
767912
757750
739349
713271
725910
665870
735957
650042
977630
1.0614e+06
1.14014e+06
1.14477e+06
1.10954e+06
992221
719729
403145
370599
466827
554847
605454
619347
650750
679088
713300
678433
702780
631520
658686
601521
621313
586526
598786
570453
576558
549449
548264
529872
528388
515683
521075
520119
532108
535704
507144
402939
229432
251153
358561
432784
491507
567620
762947
915749
1.06193e+06
1.1274e+06
1.17642e+06
1.27159e+06
1.2828e+06
1.34235e+06
1.3016e+06
1.28321e+06
1.22574e+06
1.15931e+06
1.09734e+06
1.04352e+06
992531
951264
913222
894762
873175
879105
837416
819634
753476
646475
471744
67098.3
119456
275493
562615
781325
993026
1.0724e+06
1.14302e+06
1.11273e+06
1.23353e+06
1.31075e+06
1.37948e+06
1.47433e+06
1.44158e+06
1.43819e+06
1.36049e+06
1.31322e+06
1.24256e+06
1.17294e+06
1.08948e+06
1.01937e+06
916284
851696
724005
609792
478784
352067
231110
134270
66614.3
214047
597893
998643
1.3165e+06
1.52969e+06
1.67506e+06
1.73086e+06
1.75456e+06
1.7016e+06
1.68924e+06
1.60027e+06
1.54324e+06
1.51902e+06
1.39431e+06
1.42538e+06
1.21616e+06
1.29256e+06
886306
1.09507e+06
825253
1.16642e+06
1.15778e+06
1.34522e+06
1.3385e+06
1.34065e+06
1.29146e+06
1.23137e+06
1.10876e+06
976359
847677
309408
705827
1.06627e+06
1.34044e+06
1.52114e+06
1.63828e+06
1.68478e+06
1.68715e+06
1.64864e+06
1.59954e+06
1.5442e+06
1.50692e+06
1.49538e+06
1.4737e+06
1.47261e+06
1.17068e+06
1.32482e+06
697543
930929
788175
1.05262e+06
1.19566e+06
1.23352e+06
1.27922e+06
1.35986e+06
1.36848e+06
1.36913e+06
1.3076e+06
1.18492e+06
992034
212998
560907
799309
1.03103e+06
1.2058e+06
1.33237e+06
1.45602e+06
1.50524e+06
1.55111e+06
1.50414e+06
1.51198e+06
1.44069e+06
1.43481e+06
1.39666e+06
1.40254e+06
1.39244e+06
1.39824e+06
1.36135e+06
1.29081e+06
1.18116e+06
1.05538e+06
924726
746576
557736
375889
219803
132034
53814.8
32966
28427.4
31288.2
39851.7
54904.8
91041.6
147470
213082
282060
309706
325872
344307
382602
455709
551721
654627
674441
639394
574811
453928
327660
186793
106408
83116.8
76331.4
67362.9
60835.5
47971.2
37304.7
30911.9
27113.1
25581.2
148682
256117
293722
326169
359133
375546
386469
383461
377736
357672
322849
265953
191423
163302
253431
286939
364335
272166
111166
48239.8
20840.8
13165.2
13808.7
12310.8
14823
22864.1
23412.5
31151.5
35727
54130
61813.3
114864
138766
227580
318773
511143
703545
854370
784636
595407
423545
312082
252912
252175
647182
647502
741416
801713
800993
801000
816850
844347
859980
854956
855544
826943
791428
747320
723656
690899
758167
763676
848651
843629
855740
712328
660960
525820
436297
378276
333552
293995
262442
257625
567809
524715
609095
661658
590132
413758
229769
97466.7
33896.7
9799.12
2306.97
611.966
145.567
71.3343
7.08095
7.41671
3.18649
3.40107
3.46225
291.472
581.765
37154.1
145063
363337
709258
735234
490756
398320
391253
419817
615357
202003
200154
136614
79200.2
41476.1
20726.3
10258
5160.44
2455.99
1090.57
462.416
191.881
80.7403
37.692
20.4632
47.8551
267.598
1840.04
8522.81
49445.5
302802
744091
693797
559507
470900
399192
340494
311377
424584
411858
390530
427467
406067
354301
340020
363525
382449
377267
349642
289976
208725
129835
71981
36408.8
18636
10087.2
5882.31
3754.91
2995.03
2854.02
6873.27
22534.8
55096
163565
304307
445824
647961
697341
832280
501179
436953
518992
574138
588098
538058
337401
182703
77282.7
56364.2
50365.2
66877.5
91551.9
132180
151926
164477
143383
125624
88074.9
63824.7
40204.6
29466.4
22142.5
18574.6
17810.9
21784.6
40220.7
114630
299358
427937
410050
489618
731150
1.00169e+06
1.10659e+06
797394
263995
134246
61653.6
49232.2
81670.1
101386
227572
273761
587246
767307
977582
956189
873736
789625
737689
708458
689307
660499
643677
582063
626815
670284
671359
720224
202989
294830
328932
257475
155335
95412.2
67314.7
76233.9
72160.3
169386
275005
510117
709109
857741
893365
898545
872979
869241
874873
860455
864391
778392
758477
707337
739410
835356
775282
565189
337330
229108
947837
1.06488e+06
1.21062e+06
1.21882e+06
1.17639e+06
1.16312e+06
1.15419e+06
1.1592e+06
1.07334e+06
1.042e+06
893532
756993
697611
345840
267211
158727
85052.4
31450.7
13999.9
5746.71
2970.37
1836.29
1559.3
1787.23
2856.25
6345.32
55131.7
427827
824769
1.03955e+06
1.16775e+06
1.01448e+06
1.13707e+06
1.17444e+06
1.15496e+06
1.14115e+06
1.10901e+06
1.05116e+06
985807
957664
1.02252e+06
1.11498e+06
997722
428465
105079
5228
656.496
135.019
130.373
160.903
1212.12
7351.34
28108.2
82102.2
214349
435234
722043
895158
887144
1.37722e+06
1.02334e+06
902057
975810
1.07574e+06
1.16835e+06
1.18992e+06
1.17091e+06
1.05682e+06
1.03496e+06
894789
931086
864547
881696
845177
805474
624945
404606
191870
104043
81128.4
165745
463733
719068
1.09697e+06
965084
654709
382512
174994
44232.1
37766.3
111641
122311
203757
299651
409027
639506
845785
838605
807612
796565
776166
748067
723158
707959
696094
680915
633361
518602
370708
203732
84446.5
49183.4
45317.4
43718.5
41722.3
39293.5
33501.2
24546.8
17938.2
29431.6
214728
317963
337268
355490
375198
390721
399224
394480
389065
377823
357625
315848
256312
221138
333216
350557
193180
64703.2
53186.7
53826.8
80482.3
121978
143699
189259
239229
240632
273771
318144
303835
455876
476674
649765
754611
806685
830506
798498
786362
824400
843940
729490
557539
406900
306973
305352
745122
689174
814459
887482
875557
829257
779611
749815
712919
711474
692319
696342
649281
643453
536811
529645
451651
561833
631905
772958
776550
707443
566454
614487
536910
459745
379394
319692
283290
307471
671544
575050
655911
631044
500722
351639
209711
99541.9
30299.7
7231.43
1299.68
178.688
46.1788
10.2241
3.13571
1.88142
0.623439
3.64281
1.06249
201.046
293.886
19433.8
78936.1
288299
524278
773031
622560
424218
415302
506167
666315
178558
113894
66363.7
40845.9
30267.5
22237
16248
11034.2
7015.94
4200.84
2101.73
888.23
324.952
120.034
57.0429
48.2615
590.787
1731.79
6224.11
18733.4
83403.8
371485
725586
684160
570911
489409
411596
356088
495701
506176
423370
402903
333800
347908
389642
396339
379563
351163
307069
252444
189411
127912
80843.4
47457.7
26819.6
14721.8
8639.85
6683.75
4237.72
11643.4
10875.9
30771.6
69118.4
133188
270323
425311
553430
681202
984419
589904
476547
545912
580874
531217
341996
132416
57247.5
44589.2
60605
96926.7
140680
149997
163206
139321
122729
91021.4
87445.5
78803.2
78353.8
67236.3
54316.3
39044
27768.8
18384.3
12899.5
14569.8
38980.5
166122
484761
536626
646548
907967
1.14056e+06
900601
482781
151766
168868
114671
115002
205617
165370
251730
253742
310557
392437
680903
906968
973456
934884
891214
837803
768254
657216
574936
460630
450461
492169
659671
783130
606773
248386
138132
85188.7
51098.1
40769.7
26191.8
43741.6
43983.5
111054
180269
359391
585308
756892
895479
871264
902164
861602
905262
859200
673951
447813
313929
340618
510877
775599
825892
642755
411659
283252
1.26121e+06
1.20958e+06
1.20801e+06
1.11972e+06
1.06253e+06
1.04093e+06
1.03729e+06
1.08505e+06
960498
866151
572355
352238
287051
186407
137646
59210.3
23805.5
6374.57
2628.23
981.195
565.243
311.029
220.78
203.862
279.977
652.917
2737.14
24444.8
572313
1.18594e+06
1.43944e+06
1.14555e+06
1.15741e+06
1.03063e+06
1.03094e+06
1.11414e+06
1.09772e+06
1.03257e+06
1.00237e+06
1.07291e+06
1.17057e+06
764700
257921
34654
4708.14
77.4715
4.97527
2.12598
5.65957
25.7462
219.544
2793.76
18064.1
68743.4
149609
276549
449190
681283
884011
1.52368e+06
1.39093e+06
1.01667e+06
1.10183e+06
1.19761e+06
1.25286e+06
1.17303e+06
1.06055e+06
824163
745120
631423
726262
701457
862455
845231
831544
623548
345574
158362
97111
63049
99407.2
220932
539742
1.06735e+06
988524
730674
457292
249278
71254.3
45734.6
161051
164813
250974
420322
671041
838686
818527
808056
819608
818840
799978
767782
756462
701682
748893
763633
765945
733551
609912
412934
185305
59772.9
52493.7
53932.8
53092.3
45481.5
40209
34510.3
22213.7
31453
269753
349187
353841
356222
362589
372299
385052
391393
389919
388315
383051
363114
323496
280253
427950
369607
54157.5
40208.7
98078.6
209338
310407
367074
406839
442783
402694
392824
375707
373364
414060
562740
690391
877347
937444
981381
994269
997508
963383
898275
856838
791983
644706
487236
366788
348078
830768
713707
861047
946995
917186
817776
726257
711991
721336
759938
765675
781315
764010
742403
699710
593202
510868
398061
506034
601848
733924
670809
524843
454421
449481
482096
454851
365666
311311
354280
763544
609779
644486
561386
452634
336142
182398
55568.6
10016.5
1719.68
256.815
52.7676
14.8858
7.76744
5.19226
2.22197
1.84517
3.54947
4.76038
217.719
402.155
15803.1
72495.1
282387
461614
662794
748426
515235
440651
574829
705478
89455.6
33083.2
17771.2
12223.7
10200.1
10567.9
11264.7
10018.7
7286.35
3975.12
1882.64
780.16
574.867
1401.26
2179.08
7996.49
9680.32
21735.4
23635.1
30091.3
59679.7
197279
596218
739561
654983
562233
479802
401311
539204
585053
410805
329161
333200
378873
372512
342411
307416
269167
226602
184192
141362
105603
89631.2
83013.2
46361.3
35008.3
29605.1
16787.3
23191.3
18735.2
49639.1
68248.3
92722.3
177606
247931
384798
515259
629590
1.05449e+06
656703
524503
575253
585661
399102
153055
62315.6
53328.3
86314.7
120117
131709
141346
133181
118066
67877
38701.5
26076.5
32615.8
43681
64710.5
71434.2
77046
65146.9
50630.6
30411.9
14559.7
8680.25
14221.3
78053.2
521184
657579
770661
1.01777e+06
1.14659e+06
694324
486709
214802
282832
234814
271316
253572
391068
355352
346933
284866
266718
382207
718968
981430
1.01901e+06
984578
937382
854343
762002
646220
528212
412826
440865
632140
795767
929619
108939
54390.3
32177.5
22361.7
18557.1
17994.8
36492.8
43557
95430.4
149456
263056
423910
653269
793308
849244
800433
814153
521635
304458
162600
115137
92774.4
116571
175231
369363
718004
753162
551821
361665
1.45325e+06
1.29675e+06
1.19168e+06
1.12207e+06
1.02671e+06
927308
899289
969030
833514
574394
431535
190078
96769.9
19890.7
4082.43
509.711
380.848
86.476
76.3683
73.8787
75.2605
91.5149
91.0804
91.7075
79.2846
90.7021
279.27
2533.72
111535
1.26258e+06
1.59394e+06
1.23424e+06
1.05654e+06
979589
1.0766e+06
1.12011e+06
1.07391e+06
1.03702e+06
1.08045e+06
1.18543e+06
660017
224281
62169.1
11072.2
2135.19
37.443
5.95845
0.472013
0.123385
4.25297
13.3475
869.086
11978.4
58060.2
142687
256993
382649
586370
824488
1.5961e+06
1.55005e+06
1.12934e+06
1.20732e+06
1.26757e+06
1.2255e+06
1.08805e+06
929201
607729
507719
334646
401160
544835
699245
781587
733872
498914
262211
225774
199223
149378
195394
233672
615368
1.02684e+06
975288
749147
508966
313376
121256
63522.6
218878
193459
342035
585730
858942
829113
814571
826065
827177
828916
814069
816520
744268
764677
739770
753625
770700
798666
768605
623939
361356
98633.5
59952.7
65817.1
66177.8
54301
45187.9
40511.5
28187.9
32786.9
310277
366528
359572
351567
341710
341678
350918
369436
382790
391953
403298
405093
386383
340891
507286
176298
47247.4
61998.7
176841
338562
421984
481084
498570
467274
435109
381921
299801
318244
417012
583381
754218
830561
852887
876550
895814
915212
939710
928007
867473
807783
696197
555222
437644
411309
896946
723752
885823
975026
932289
817252
788124
838326
863836
890114
880244
881685
830593
795883
723909
679128
593679
515553
421128
528653
632754
657061
531915
415598
381020
417621
484725
420763
343663
403112
835614
625849
604273
511772
412937
255438
81394.5
11659.1
1617.58
383.61
221.413
173.676
159.297
268.002
78.3757
126.728
49.884
103.295
33.3741
1071.55
1809.6
23728
97872.9
271236
404700
541409
749013
632575
497662
644532
788754
66558.5
15842
4928.83
5499.51
11704.3
8523.29
6358.5
5252.21
6444.32
17979.6
37694.6
86706.2
154806
228762
333726
302703
336011
238034
176108
126490
96737
209159
485181
737816
691842
608749
526969
436547
567107
650818
334027
278109
331261
335376
301617
268451
236943
196982
156179
123997
98231.7
99714.1
111509
80315.8
84769.2
76090.5
45349.1
51968.9
40692.5
62195.5
67141.5
116408
155051
210028
309776
364658
462608
560707
1.08526e+06
711337
573402
599981
570182
233757
82098.3
65126
93408.4
119509
130508
119754
122865
106890
74403.4
25723.2
11025
9523.84
18056.9
44035.9
80439.7
100692
113795
103692
84302.3
49195.5
18815
6509.68
5929.01
35959.2
511390
745562
843899
1.07404e+06
1.03796e+06
700112
468904
352349
352369
302445
312726
344580
403749
507231
373046
276252
189612
249261
596034
1.00206e+06
1.08948e+06
1.0777e+06
1.01683e+06
936118
810535
698349
564629
480299
367290
515498
798607
983106
46141.6
20526
14271
10783.4
17326.6
19190.3
49915.7
55348.3
108436
125420
186047
304714
538572
725056
726000
705566
421024
190978
69040.9
55787.1
46846.6
72996.9
89751.5
110465
187464
381761
717467
629577
458565
1.59891e+06
1.34282e+06
1.23725e+06
1.18291e+06
1.01511e+06
835604
807889
818364
667762
409735
290266
25880
8880.21
1251.59
1940.22
158.389
630.293
42.4109
702.462
187.431
1771.52
1361.46
1841.72
1207.08
439.752
91.5122
60.3521
362.319
44085.7
1.40575e+06
1.71276e+06
1.2396e+06
1.02661e+06
1.05146e+06
1.11232e+06
1.10587e+06
1.06421e+06
1.07254e+06
1.18902e+06
880319
294169
92051.2
24179.9
4908.53
563.95
26.3681
13.1707
1.49114
0.467537
13.7044
26.1625
249.41
5595.27
48692
137211
209143
242074
328350
600459
1.64121e+06
1.67031e+06
1.21228e+06
1.25575e+06
1.25369e+06
1.19647e+06
1.09604e+06
831830
604364
321877
159425
164179
201396
421343
581750
642542
456499
324781
341142
464905
407052
451283
434760
785352
1.00437e+06
915738
740194
545610
367122
186499
85550
288473
198547
472532
835867
867443
834430
827063
839052
873737
912066
955890
910355
926803
887671
822911
815337
802497
805942
812631
756696
542266
186716
67166.9
76363.4
75784.5
61828.7
49773.2
44760.8
33953.6
35580.7
342025
371805
360743
343562
324248
308683
313550
337861
367190
392822
418734
442782
446537
402559
570015
115457
88947.9
80567.5
188384
353036
473118
516909
503750
489967
427108
344064
291269
346351
475359
641545
667872
685766
710966
741302
776135
816251
854350
890605
864607
811039
729953
608502
499333
464206
948679
712984
877973
975013
953064
898425
910191
960151
971161
1.01178e+06
984354
994648
922338
912871
811336
698376
597947
506129
475468
471088
559699
612324
555487
427063
382429
383198
443281
469397
375852
445970
892656
630495
568286
446069
331403
159494
24075.6
1928.46
879.497
861.143
1193.9
4308.99
10947.5
10106.7
8468.71
8604.69
3534.32
2767.49
930.744
5685.58
10575.7
49669.7
135332
274965
368957
446069
660002
712302
577420
711166
951581
69980.4
10924.9
7072.01
14050
39299.6
48960.2
104756
138624
323908
461197
612077
648423
653200
660777
649165
675386
644983
628962
466896
266324
212215
238931
501656
703379
689109
614191
548652
459407
582199
699383
231589
243497
283518
270752
248666
232255
194771
146706
108953
82409.7
66612.8
78955
58527.9
73906.7
74032.4
80434.4
128190
108698
166720
121351
159285
171178
224629
302627
347913
392132
421522
487866
1.08613e+06
770305
602302
631351
405746
141495
80634.9
95997.2
127446
126929
126628
113743
115963
94396.3
50633.4
12073.1
4168.83
5051.34
18504.5
58949.3
115535
162091
178904
161959
122291
65047.5
19913.4
5009.64
3462.14
19488.5
551167
814589
897876
1.06119e+06
974176
631637
548857
412775
470493
408607
495209
474546
525041
506723
450798
264998
139725
178166
624000
1.07442e+06
1.14031e+06
1.1144e+06
1.07075e+06
962219
851649
736791
594376
526439
507623
539795
778475
896185
14419.9
8011.14
5219.28
6158.98
13177.2
39491.9
63850.3
79922.2
118282
134247
143321
205520
475905
618633
577207
434047
128457
52805.7
43827.3
35918.8
77579.9
104692
195228
202852
153043
198068
396171
298151
597078
1.71583e+06
1.37122e+06
1.33849e+06
1.23917e+06
996474
765241
713908
654629
571582
294352
111572
6256.13
4192.65
786.492
1461.62
501.219
1475.95
255.463
1310.26
1273.9
20652.3
82517.7
114240
97931.7
44435.4
5612.72
276.84
98.6883
8212.37
1.47352e+06
1.81e+06
1.17057e+06
1.06305e+06
1.10128e+06
1.11704e+06
1.09151e+06
1.05871e+06
1.11526e+06
1.15923e+06
624639
185090
45340.3
7973.07
786.092
72.6093
29.9587
5.97533
14.1908
3.86216
67.0463
55.9091
378.807
2947.28
42823.3
111900
153276
124938
154011
402051
1.66094e+06
1.77618e+06
1.18848e+06
1.20902e+06
1.22628e+06
1.21968e+06
1.09676e+06
999196
696045
357206
156096
42380
45962.3
135323
369958
518369
589772
490545
516749
613351
603987
657255
705357
921797
918093
840641
711506
569515
415409
266475
111982
358101
179152
537414
894244
851480
822262
849466
881088
955051
1.03723e+06
1.04893e+06
1.0941e+06
1.06716e+06
1.01976e+06
1.00183e+06
896457
915449
834908
832265
816701
675622
313270
80690.4
82319
81362.5
67300.2
54497.4
48711.2
39574.4
38302.6
361467
368326
356994
338680
309502
282401
278524
304474
349564
389497
430552
476900
497638
482536
620298
187921
318014
182421
189225
347504
458601
481004
511089
444588
410036
308232
295401
352429
524126
546225
540941
546597
570838
610461
658065
712621
773315
823454
833361
791871
734165
647682
562977
539422
1.0074e+06
694644
840010
949198
964435
951968
967848
981004
1.00663e+06
977671
892444
880067
747028
866270
753021
812991
656444
534823
432706
473968
546657
570110
539185
436978
378656
349734
392176
497324
403189
475492
922590
630980
561778
413137
256785
94689.6
9423.6
1416.45
1185.14
1849.25
5874.27
27338.4
96432.5
107566
148169
94544.8
51312.5
36926.3
17818.1
24940.8
54014.2
84227
199519
305450
360328
390849
578406
720063
647186
780673
1.12957e+06
65407.7
10735.9
18350.2
44528.2
85910
184706
356071
502925
613460
598386
577002
534288
498051
459094
476597
530576
619942
652168
612951
408200
283519
367568
547614
705050
666460
611776
552837
471965
586796
720946
145287
185752
218939
224903
229711
202802
155360
108857
78674.3
59057.2
46546.7
35224.4
56288
75385.3
97567.4
165172
189103
296113
313263
319373
372350
266015
399079
400947
405746
446606
406410
477237
1.0634e+06
819216
637241
584272
257684
117824
102845
127722
141909
133515
139899
125231
123885
96486
49221.6
9802.05
2219
2449.72
12846.4
53819.4
115954
168995
204185
187640
128959
61252.5
17419.4
4459.56
3068.73
17828.1
513552
867234
917757
1.03271e+06
809461
644464
575315
506786
515429
618056
637851
710693
633183
638949
477907
301805
124016
166849
738806
1.11239e+06
1.14849e+06
1.11062e+06
832621
494811
353468
433392
620636
638514
584573
472749
756647
642376
3446.27
2082.12
1935.83
5629.12
20096.8
62699
145899
118394
162291
137804
136031
155407
411785
520597
503194
247499
69154.8
32724.3
32610.3
71851
93917.7
176977
186267
270295
156983
77418.4
134052
91493.1
720873
1.81652e+06
1.37455e+06
1.43876e+06
1.27333e+06
983534
697903
554763
593712
452121
183698
55875.3
4429.28
4973.24
3208.38
15338.9
1789.66
9700.61
1970.75
1992.47
3034.04
15193.9
125316
349905
446916
332675
91257.6
2811.36
305.566
12768.7
1.54974e+06
1.89815e+06
1.12053e+06
1.11666e+06
1.11714e+06
1.10652e+06
1.08041e+06
1.07378e+06
1.12352e+06
1.06566e+06
501320
108117
18553.5
1014.41
167.914
4.96064
25.5292
47.1215
266.234
186.574
130.894
144.715
668.813
3767.77
41682.9
94244.6
77880.2
33997.1
36200.9
204763
1.61648e+06
1.86127e+06
1.00108e+06
1.08814e+06
1.17896e+06
1.1881e+06
1.21991e+06
1.06952e+06
874702
635136
228168
52793.1
9791.62
15169.4
119428
407418
555926
673758
717780
771497
744502
797646
832920
869929
825691
755032
677359
564136
451312
360879
161909
399118
163860
714647
888175
830246
817323
844486
954761
1.03918e+06
1.09819e+06
1.1249e+06
1.09978e+06
1.06069e+06
1.07879e+06
1.10198e+06
1.03251e+06
966498
915529
857181
844958
756667
441015
108871
81760.7
82060.8
71827
62383.5
57727.7
46729.8
54278.8
376405
353691
346792
330352
303720
276330
267623
290465
334264
383307
436414
499371
550032
551661
692798
400360
597053
578214
329220
314119
423960
461423
450829
419117
375503
307439
273543
360965
499702
485526
462842
462171
467708
502397
561529
632647
708126
769581
789133
771593
735376
678894
616427
620224
1.06608e+06
679860
774144
891304
936771
945367
941916
969935
946054
915323
778152
699335
539656
664865
489824
692345
670576
594772
474693
423085
480683
499395
470608
397256
349648
304151
334826
512102
430350
507542
984729
584908
467067
350864
248023
94998.9
11322.2
1529.7
1403.34
2519.28
6671.3
27285.9
105259
155748
249596
234973
144939
150357
88381.4
95107.1
137538
150029
285340
358094
362011
397493
547526
685003
694492
900219
1.11717e+06
69300.7
16408.9
32811.5
78194.2
136281
344548
505549
638424
649221
628469
629926
592710
569080
538450
530694
577720
614976
636354
516911
451215
343017
455416
649646
658734
618478
577134
532659
465909
587808
689151
85264.7
135564
174866
211230
227778
196359
138871
93284.9
63672.6
47556.8
36660.3
40055.8
24641
24149.3
54970.9
110989
226207
297754
453672
459688
544452
399576
581581
441094
528326
450899
462741
459837
1.03209e+06
874744
603151
498179
225419
126649
133831
155600
169906
151373
187058
157052
160850
116896
72696.7
17496.7
1845.65
760.826
3244.39
24418.3
78595
133830
157614
152179
104963
49170.6
16899.9
5639.53
6472.09
18461.7
587150
900984
919627
941052
773172
594431
642462
544389
681901
675456
643340
646118
740138
742497
573376
408135
140640
211300
849459
1.12647e+06
1.12311e+06
879231
294937
69480.4
39411.6
53497.7
109003
327111
610649
627895
779309
416243
917.777
924.34
2247.41
9347.16
37670.3
103095
302542
239618
218499
172426
136935
128553
413544
486291
415863
158999
43897.2
43817
56340.3
111166
155902
151579
299690
366334
144552
50732.4
32220.3
17911.4
755881
1.88412e+06
1.35218e+06
1.50581e+06
1.31087e+06
1.03553e+06
666131
467794
482766
338542
184363
58120.6
6513.35
22874
25347.1
77413.9
29870.6
33300.2
4136.45
4546.76
5043.04
13145.7
43169.3
271628
412991
473549
149757
5707.47
710.876
23907.9
1.50886e+06
1.93289e+06
1.00858e+06
1.13453e+06
1.08981e+06
1.03598e+06
1.00509e+06
989280
1.0505e+06
935285
412013
77715.3
5348.6
523.225
29.2353
3.84056
4.43685
85.033
1256.74
2628.33
1408.41
761.651
2098.41
9253.73
36643.1
52877.6
24329.1
10058
8215.56
101601
1.57617e+06
1.89008e+06
734171
933420
1.08796e+06
1.22883e+06
1.18601e+06
1.14394e+06
1.08269e+06
753247
517177
162219
12036.3
1716.86
6341
131375
458581
666273
807677
875264
899067
859700
828400
792040
740332
687614
621343
537879
460150
463123
220721
396502
134118
797049
855711
800723
786927
871033
950628
1.06004e+06
1.11089e+06
1.07064e+06
991273
944816
1.0024e+06
1.06403e+06
1.09986e+06
1.03433e+06
954145
889053
871687
801633
536312
158732
74223.9
79740.4
78203
80965.2
82220.7
81777.6
151180
372267
335440
336120
327754
305586
285695
290692
310400
341295
382835
432660
514901
584633
670935
788785
765084
502629
607304
546166
564218
609526
404521
437311
453359
457482
414010
377342
324686
281133
335343
483879
466512
447856
436316
435248
454399
506492
576296
653747
707912
742849
735958
724690
695214
673647
662331
883188
933397
891090
681307
705590
813544
869497
875546
892740
916542
940753
933527
830148
641242
463955
536386
313227
436427
417641
494244
423354
401778
396805
409689
375778
329950
271806
227093
278195
511288
460758
569514
979806
1.04565e+06
546405
472287
359377
260837
182976
92394
21055.1
1842.9
1545.99
2220.99
4876.32
13097.7
32625.8
65031.3
108487
149339
219970
165276
168037
197618
230087
257220
379618
389160
403888
438211
525143
617182
683671
789196
1.14037e+06
1.21774e+06
424280
120569
31469.9
37491
90364.1
139546
355638
465319
655040
649695
667041
668693
610457
628700
574880
565489
542635
517030
494648
405974
380697
489195
579971
663344
641765
597512
567811
525282
496981
455553
615408
497074
42520.6
47704.8
97798.7
156065
214263
232250
194790
132713
84134.4
58534.6
43056.3
34030.4
24185.1
18878.3
26186.2
36697
70562.5
122001
282724
376958
503260
433715
549038
537720
550677
534602
554450
586454
594468
809519
840846
919900
582900
465478
407095
253255
158094
176203
219677
226855
186239
220278
200134
184125
149906
103604
45094.3
4350.66
396.316
347.952
2955.23
25034.5
80571.1
125760
129758
98992.7
56736.9
27965.5
17137.1
19575.2
28733
44933.9
369711
363893
426207
815171
888696
684502
625347
552557
677096
658475
657946
550063
562423
750718
773853
741050
549270
192554
310358
961763
1.11122e+06
1.02007e+06
543223
86411.7
27942.5
17598.8
17267.1
26380.9
55217.4
87750.5
187063
377134
951777
627250
470.585
79.0988
255.038
1551.43
11059.5
90994.1
251273
450931
393032
335749
195538
181114
152151
436376
508235
383286
129504
57138.5
112732
108846
112521
83794.8
128823
183076
225303
71553.7
8218.66
14136
12907
48159.6
702185
1.29654e+06
359463
1.11231e+06
1.51119e+06
1.35901e+06
1.17759e+06
897104
460773
326303
360297
226054
66696.1
30666.9
90651.4
88686.6
105009
149970
14050.2
7148.51
4332.3
5953.82
12851.6
38794.1
62034
52191.5
106921
44452.6
2091.5
739.355
57303.3
1.2738e+06
1.38144e+06
1.88469e+06
547945
831201
1.11005e+06
1.05289e+06
1.02852e+06
957100
858724
884739
892544
390714
51129.5
5656.57
206.664
83.5257
0.718181
2.45494
24.4649
433.428
2675.55
4244.51
5732.32
11673.4
21716.5
29190.2
23844.5
7867
2057.64
4149.76
83943.1
506943
1.55811e+06
1.59968e+06
244564
423913
674082
976544
1.13545e+06
1.21392e+06
1.22597e+06
1.105e+06
949264
696845
437455
86504.9
1451.67
974.1
5453.66
103275
442941
734110
889126
900971
880482
802465
732111
665684
608608
552292
485568
463812
555293
570898
748979
692426
6035.79
107099
799873
827593
761548
761376
824568
963734
1.04234e+06
1.0825e+06
976098
792515
666308
801113
990003
1.10458e+06
1.07587e+06
987377
913934
890904
822244
586751
224293
71500
77740.4
98383.4
136670
193284
241895
220375
72519.4
36722.9
368024
308756
320174
320850
304789
291521
297546
318444
339858
372609
421126
498135
595598
708556
674349
651281
538578
634759
558983
544499
562259
589955
509679
531771
527868
511107
422916
383246
302599
316165
449037
473682
454450
449949
444775
458796
490300
546658
602212
659693
681403
697326
689743
693974
685407
694780
632136
623329
793201
663892
619427
712586
767599
777412
776404
819205
874335
948609
931557
784271
568033
437065
414607
199043
256297
272494
298791
293289
310156
290567
260524
213738
174138
143093
273587
535271
511132
638050
634263
482913
515287
419043
287691
216113
190259
140563
51462.9
6052.9
1807.58
1821.24
2953.33
5950.65
12415.7
23484.4
40547.5
63150.1
123130
86862.6
226215
181111
275362
344648
405102
417909
451987
477954
514242
576140
635260
733408
676900
719332
529577
138814
35895.9
23078.7
68717.9
88641.9
246772
315444
490750
551448
576363
496450
506022
388806
345952
321680
283280
304216
326966
374632
440548
549805
654979
632142
586499
536382
478174
435918
358184
220846
73097.8
22499.7
10902.8
32309.7
82165.1
157560
240440
269296
226984
154445
100213
67458.8
47914.7
36340.4
27233.8
19277.9
14516.8
13199
24138.3
79304.2
123942
200460
358699
301073
526349
542990
518268
645517
668240
684526
734127
821742
600712
709265
550736
475677
392674
320932
342180
381148
393780
395164
371912
354389
281150
264090
216783
164279
105378
31394.5
1223.73
127.163
174.315
1737.64
18462.7
72406.4
118816
119615
91774.7
73577.9
62755.3
63283.2
61080.3
24010
20417.6
10204.6
124857
428804
797382
757740
527070
633559
590152
695295
706964
640749
643200
775794
875966
880551
678347
267257
509926
1.04108e+06
1.10158e+06
839723
349494
38098.1
18264
6569.31
3860.29
4661.96
11643.9
24072.3
85760.8
319301
548459
47885.3
58.988
47.6899
170.226
3355.13
45661.5
171034
365941
554399
492963
348619
273758
309177
149659
563104
585190
359951
124700
144336
214191
141070
60516.7
18993.4
16021.7
25536.7
41602.3
15506.5
6395.19
18430.9
18695.5
33799.6
422639
584557
231602
1.19064e+06
1.52863e+06
1.32084e+06
1.20084e+06
1.15222e+06
689270
327048
424581
283248
130788
80848
100377
133869
126111
86889.1
3876.51
9592.06
2372.01
4135.41
8672.32
12398.5
6283.15
1755.62
1566.73
1586.2
353.922
2257.5
277576
1.2904e+06
1.22582e+06
769351
255641
875292
1.10154e+06
1.04743e+06
998796
870025
740617
702371
707444
413069
89369.8
9356.52
544.488
64.9561
2.33056
0.923397
7.49014
80.4402
679.18
2542.11
5833.75
10394.2
13843
11052.6
3357.29
603.191
432.551
4212.39
124259
577637
1.00359e+06
704751
139142
268160
543621
886681
1.17282e+06
1.11071e+06
1.00067e+06
1.09056e+06
1.01891e+06
811488
606063
364727
15214.2
514.421
482.693
2651.75
15964.7
182309
619996
893836
895734
819584
715289
633318
568309
517629
478673
469141
537339
775489
751076
165000
2462.77
57078.1
804912
787423
727265
719568
796181
874609
1.02807e+06
1.03908e+06
953293
753177
613644
806849
1.00559e+06
1.11039e+06