/*--------------------------------*- C++ -*----------------------------------*\
| =========                 |                                                 |
| \\      /  F ield         | OpenFOAM: The Open Source CFD Toolbox           |
|  \\    /   O peration     | Version:  2.1.1                                 |
|   \\  /    A nd           | Web:      www.OpenFOAM.org                      |
|    \\/     M anipulation  |                                                 |
\*---------------------------------------------------------------------------*/
FoamFile
{
    version     2.0;
    format      ascii;
    class       volScalarField;
    location    "0.004350000";
    object      T;
}
// * * * * * * * * * * * * * * * * * * * * * * * * * * * * * * * * * * * * * //

dimensions      [0 0 0 1 0 0 0];

internalField   nonuniform List<scalar> 
12384
(
2997.15
2993.16
2994.49
2994.57
2994.23
2995.96
2999.31
2998.76
3004.35
3001.97
2996.01
2984.23
2829.7
2598.12
2557.96
2696.04
2731.79
2737.66
2737.54
2728.3
2726.48
2719.22
2717.82
2723.88
2723.9
2726.92
2735.72
2740.93
2743.69
2767.92
2764.68
2800.52
2795.14
2835.02
2839.1
2862.82
2878.54
2904.79
2927.22
2859.86
2702.23
2598.29
2575.79
2676.07
3078.46
3083.21
3060.66
3061.13
3066.62
3073.01
3071.54
3073.79
3072.53
3075.36
3069.93
3071.28
3063.98
3061.75
3054.15
3052.9
3044.31
3044.09
3028.71
3029.66
3000.74
2929.12
3012.68
3057.1
3047.07
3043.47
3012.15
2953.45
2799.84
2653.65
2880.6
2875.19
2865.71
2854.86
2848.79
2848.16
2850.14
2847.05
2844
2838.2
2831.88
2830.34
2825.99
2813.56
2819.22
2796.6
2789.08
2806.84
2767.44
2835.9
2832.03
2868.56
2903.86
2927.64
2916.67
2855.56
2855.07
2867.6
2870.99
2866.58
2758.87
2747.04
2803.98
2841.04
2844.44
2838.86
2830.79
2812.23
2783.47
2764.91
2745.68
2729.03
2723.94
2714.71
2711.83
2709.43
2707.37
2722.95
2733.81
2739.93
2754.88
2761.37
2731.65
2734.75
2718.29
2633.92
2606.79
2618.65
2645.15
2659.33
2550
2732.02
2730.02
2735.81
2750.54
2754.44
2750.85
2741.88
2732.31
2720.32
2710.49
2700.75
2694.17
2684.8
2676.49
2669.38
2664.9
2661.82
2673.78
2678.43
2713.78
2730.94
2772.26
2792.58
2815.66
2832.85
2850.41
2868.36
2866.75
2728.8
2699.37
2706.09
2757.61
2756.45
2710.85
2695.54
2679.34
2669.91
2671.61
2644.09
2627.04
2620.01
2590.22
2588.43
2559.37
2558.17
2538.95
2539.39
2521.63
2522.92
2513.34
2512.71
2504.6
2508.56
2508.19
2525.52
2551.41
2590.17
2597.11
2424.44
2434.79
2475.61
2668.12
2763.5
2687.01
2680.7
2659.7
2670.55
2669.47
2664.75
2690.98
2682.95
2711.95
2704.33
2722.19
2732.2
2741.75
2755.63
2771.39
2786.79
2805.65
2822.51
2838.76
2847.89
2866.53
2851.25
2858.62
2858.04
2820.05
2761.13
2406.87
2434.24
2616.56
2587.13
2501.07
2530.52
2540.65
2554.08
2555.19
2577.2
2592.63
2597.28
2617.49
2611.67
2620.96
2612.17
2613.02
2612.13
2606.23
2594.79
2593.59
2577.05
2588.89
2588.69
2614.58
2639.07
2655.19
2669.56
2706.66
2950.48
2733.69
3017.15
3012.78
2999.28
2993.35
2987.64
2975.85
2966.01
2938.67
2924.03
2877.6
2864.35
2817.99
2792.23
2782.6
2746.63
2754.95
2723.75
2745.48
2727.6
2752.78
2769.88
2781
2791.2
2795.35
2783.91
2767.16
2746.49
2748.74
2781.58
2640.09
2881.29
2866.66
2871.69
2871.66
2863.78
2847.64
2829.69
2810.66
2794.13
2781.11
2768.27
2755.87
2734.8
2725.16
2661.05
2691.57
2576.15
2631.43
2602.87
2622.75
2644.71
2659.54
2666.66
2692.84
2705.03
2720.08
2750.87
2833.35
2918.39
2390.33
2928.28
2789.73
2762.45
2757.9
2763.09
2783.13
2793.92
2811.62
2816.94
2833.32
2836.57
2847.56
2844.86
2854.23
2849.88
2855.96
2849.64
2844.26
2832.28
2805.32
2795.21
2763.07
2732.02
2739.8
2750.4
2923.56
2607.75
2367.72
2450.24
2198.69
2255.12
2266.23
2371.03
2561.9
2779.6
2955.42
2863.1
2797.53
2762.32
2733.6
2709.78
2693.26
2680.17
2673.46
2671.69
2680.22
2694.83
2722.28
2760.48
2820.46
2850.47
2913.78
2934.19
2955.33
2748.51
2469.35
2311.3
2313.83
2406.47
2997.92
3005.14
3018.14
3015.06
3018.95
3007.26
3010.14
3006.56
3014.99
3017.43
3010.58
2992.19
2914.34
2644.43
2560.94
2727.8
2734.54
2701.18
2678.73
2667.58
2660.04
2661
2672.38
2681.88
2694.34
2714.83
2727.66
2745.31
2761.03
2782.3
2793.95
2817.52
2829.81
2844.51
2856.48
2869.22
2877.92
2895.2
2918.49
2913.21
2849.13
2720.19
2630
2631.03
3081.74
3039.46
3022.23
3043.19
3064.92
3062.09
3040.76
3013.64
2992.88
2973.87
2968.69
2960.6
2959.32
2957.53
2966.12
2971.98
2993.58
3009.69
3022.09
3020.63
3014.16
2946.17
2937.66
3004.23
3014.05
3038.84
3043.65
3034.13
2950.83
2723.48
2876.4
2842.67
2825.35
2832.53
2847.3
2848.56
2849.91
2848.09
2846.71
2839.16
2827.73
2818.7
2809.11
2806.18
2790.28
2792.95
2784.85
2791.06
2793.79
2833.29
2824.4
2861.63
2884.42
2912.96
2930.02
2910.09
2875.74
2902.03
2912.29
2901.09
2699.2
2838.38
2847.22
2819.57
2804.11
2793.54
2786.34
2781.55
2791.69
2797.64
2807.92
2810.82
2809.9
2786.83
2755.14
2726.16
2713.1
2708.24
2711.08
2716.58
2731.53
2758.57
2749.44
2732.78
2735.54
2747.53
2702.18
2692.08
2711.49
2709.76
2614.78
2729.81
2738.01
2754.93
2743.48
2725.66
2694.7
2660.36
2625.94
2605.58
2591.26
2582.45
2574.62
2569.41
2563.54
2559.1
2556.2
2550.7
2547.03
2551.25
2560.03
2577.45
2616.13
2652.44
2708.44
2764.62
2808.65
2848.05
2865.35
2834.45
2702.05
2722.21
2775.41
2732.24
2690.43
2678.63
2676.46
2657.14
2572.53
2525.82
2483.83
2506.53
2511.72
2543.71
2533.57
2541.63
2513.82
2511.84
2480.83
2476.81
2450.5
2445.73
2430.65
2424.34
2418.95
2431.29
2474.71
2558.21
2596.88
2489
2489.06
2699.05
2793.92
2730.37
2704.4
2714.75
2694.66
2709.88
2710.45
2721.28
2738.67
2747.3
2772.13
2774.62
2786.84
2779.83
2772
2759.77
2760.61
2772.71
2824.46
2877.64
2901.37
2855.76
2811.77
2764.06
2789.07
2840.95
2879.99
2773.96
2480.35
2744.88
2794.63
2543.36
2520.26
2562.35
2585.68
2613.79
2630.8
2659.46
2677.74
2697.54
2704.62
2698.74
2688.96
2667.91
2655.86
2645.3
2658.32
2652.7
2679.99
2670
2685.75
2677.67
2668.53
2682.8
2708.64
2696.93
2713.71
2969.03
2941.3
3016.78
3000.93
2952.43
2941.32
2960.42
2973.61
2952.52
2886.16
2838.32
2752.68
2716.73
2696.96
2659.23
2694.42
2664.62
2712.02
2685.87
2723.13
2733.67
2763.33
2799.88
2820.59
2831.36
2831.44
2822.16
2798.02
2768.09
2743.84
2762.73
2946.85
2899.62
2937.76
2992.57
2998.65
2965.19
2911.33
2851.57
2802.37
2781.71
2794.91
2832.45
2871.9
2887.58
2884.33
2856.5
2827.21
2757.91
2733.77
2705.08
2700.76
2687.96
2683.73
2685.8
2700.55
2716.56
2733.4
2748.66
2795.8
2887.64
2902.41
2842.51
2772.8
2768.46
2808.4
2848.16
2881.91
2904.09
2914.49
2915.72
2919.85
2911.46
2916.03
2914.38
2927.75
2945
2968.97
2987.27
2988.66
2984.2
2963.87
2928.6
2859.29
2800.05
2749.62
2736.31
2819.95
3015.19
2481.95
2411.53
2228.18
2267.99
2328.41
2517.47
2803.84
2925.87
2776.66
2666.09
2609.33
2591.8
2581.78
2574.87
2570.82
2562.99
2554
2544.11
2534.02
2521.72
2513.72
2505.85
2515.73
2569.8
2626.09
2704.1
2753.63
2844.49
2980.47
2591.61
2349.94
2373.93
3038.17
3034.06
3014.37
2996.88
2991.64
3009.59
3023.09
3020.82
3024.06
3025
3022.4
3004.43
2963.1
2699.46
2571.52
2734.95
2672.31
2638.71
2635.55
2640.71
2652.62
2674.59
2689.91
2712.49
2737.12
2750.24
2767.68
2792.12
2802.69
2847.12
2864.91
2906.07
2933.29
2950.72
2949.47
2938.03
2919.04
2908.65
2912.14
2921.57
2913.42
2834.69
2678.68
2634.97
3078.4
3022.96
3019.37
3050.32
3046.44
2985.62
2917.5
2881.6
2854.25
2859.86
2855.36
2871.96
2867.09
2875
2860.6
2866.61
2870.03
2918.54
2957.15
3001.58
3007.09
2973.61
2910.87
2907.98
2881.65
2923.43
3010.98
3042.57
3007.8
2800.6
2830.37
2813.66
2834.47
2852.13
2853.01
2852.31
2850.88
2846.39
2836.34
2826.5
2813.44
2792.08
2777.01
2761.05
2746.18
2737.21
2720.57
2739.9
2732.47
2785.44
2809.47
2864.63
2869.41
2895.48
2918.79
2929.79
2897.08
2904.34
2923.23
2911.99
2710.37
2861.05
2811.22
2794.39
2792.06
2787.96
2778.66
2773.49
2765.64
2764.96
2778.5
2790.95
2802.77
2801.79
2764.94
2728.54
2706.49
2707.42
2698.91
2705.72
2715.6
2742.32
2764.85
2742.11
2733.07
2739.38
2749.93
2742.88
2732.78
2718.86
2680.67
2730.11
2750.03
2725.82
2694.84
2638.93
2598.11
2583.61
2579.46
2576.98
2578.14
2577.9
2580.08
2584.7
2592.37
2600.29
2597.94
2599.11
2595.23
2584.02
2574.68
2563.93
2558.21
2576.69
2602.94
2655.39
2726.4
2791.53
2851.69
2856.33
2705.02
2745.03
2763.78
2711.84
2674.93
2679.43
2618.8
2529.75
2511.61
2565.36
2564.15
2577.29
2560.36
2581.69
2575.23
2587.06
2537.82
2522.46
2498.05
2502.55
2487.85
2476.87
2446.51
2420.43
2386.8
2364.42
2384.34
2482.95
2596.94
2532.92
2585.5
2823.71
2754.77
2731.52
2725.34
2727.83
2697.74
2703.82
2689.06
2685.29
2708.58
2722.63
2764.48
2789.37
2814.58
2813.63
2807.58
2794.55
2788.07
2812.64
2889.48
2939.28
2920.34
2847.17
2775.72
2687.39
2668.95
2698.96
2862.46
2798.86
2782.03
2809.47
2615.22
2526.1
2547.72
2586.94
2594.55
2620.85
2635.88
2678.29
2715.82
2757.04
2780.96
2771.18
2755.81
2713.16
2708.2
2716.15
2783.32
2833.95
2915.89
2911.46
2907.49
2912.14
2891.62
2828.83
2796.3
2749.04
2717.84
2957.99
2992.92
3014.28
2948.19
2908.52
2908.69
2935.06
2973.28
2919.81
2812.05
2736.71
2669.31
2642.65
2672.46
2705.1
2772.15
2797
2836.69
2806.15
2827.98
2808.19
2814.73
2802.01
2787.69
2767.49
2767.44
2792.1
2836.25
2809.89
2763.4
2767.98
2969.73
2950.77
3040.19
3043.73
3032.91
2985.92
2892.25
2807.85
2779.53
2809.96
2930.75
3010.93
3015.8
2949.38
2905.29
2842.44
2844.06
2822.26
2889.92
2882.31
2847.05
2792.81
2750.22
2729.69
2724.94
2734.28
2744.8
2753.31
2782.19
2850.26
2943.16
2798.51
2775.87
2812.97
2869.32
2905.27
2925.55
2924.48
2932.36
2920.32
2916.34
2891.59
2886.43
2880.82
2917.54
2975.46
3011.9
2931.35
2889.84
2894.9
2951.56
3010.06
2953.15
2868.66
2774.32
2735.74
2771.53
2948.16
2628.87
2371.09
2237.91
2290.39
2443.04
2765.35
2931.02
2756.85
2640.51
2603.93
2605.25
2618.33
2631.47
2639.87
2641.71
2633.15
2630.46
2616.04
2600.37
2583.08
2554.25
2524.05
2497
2510.55
2594.59
2712.93
2805.79
2814.38
2849.55
2984.35
2500.77
2335.16
3022.8
2966.82
2910.25
2890.56
2888.49
2902.08
2944.97
3005.52
3021.94
3028.96
3027.36
3016.65
2983.3
2745.91
2592.27
2709.91
2634.64
2634.45
2662.9
2700.17
2736.25
2761.55
2776.05
2783.54
2774.18
2766.02
2762.71
2767.04
2782.86
2831.76
2878.37
2950.69
2997.47
3027.68
3038.6
3032.02
2998.78
2951.12
2921.5
2921.62
2926.1
2880.54
2724.11
2635.45
3065.84
3015.38
3022.5
3042.88
3002.61
2913.76
2862.3
2848.68
2872.26
2908.68
2934.27
2948.93
2949.07
2938.43
2920.65
2878.49
2839.68
2830.07
2887.32
2943.13
2993.46
2983.07
2927.94
2871.2
2831.01
2820.8
2890.02
3018.3
3027.73
2863.15
2790.89
2821.9
2851.01
2851.85
2847.67
2844.81
2844.87
2846.62
2829.74
2806.77
2777.15
2754.26
2734.29
2723.28
2714.75
2699.04
2701.81
2706.32
2711.75
2753.64
2784.64
2847.76
2865.36
2887.55
2907.05
2924.69
2909.45
2904.31
2925.35
2922.08
2776.91
2861.3
2813.5
2814.55
2831.99
2834.86
2830.66
2820.3
2812.13
2811.21
2806.04
2805.77
2768.95
2734.73
2716.25
2699.75
2705.26
2698.6
2705.93
2709.86
2717.42
2734.11
2757.92
2755.84
2738.2
2736.98
2741.59
2752.98
2746.01
2718.98
2700.04
2743.34
2724.93
2679.01
2619.1
2590.07
2588.63
2599.42
2606.36
2609.18
2607.79
2613.14
2626.56
2648.35
2669.61
2682.9
2698.57
2703.29
2702.19
2698.9
2681.47
2667.13
2626.69
2589.95
2582.38
2600.4
2652.45
2734.12
2817.79
2854.71
2709.58
2763.32
2737.05
2692.98
2673.15
2620.81
2528.54
2553.94
2579.29
2573.23
2540.62
2551.02
2554.43
2589.77
2590.24
2554.55
2484.81
2482.82
2472.39
2490.08
2476.18
2479.72
2452.95
2430.71
2387.08
2340.07
2333.95
2414.65
2585.43
2562.88
2680.8
2802.66
2740.4
2744.75
2731.87
2722.49
2665.91
2655.24
2629.26
2634.45
2635.49
2668.39
2693.92
2742.88
2789.39
2808.7
2817.1
2819.86
2837.42
2891.07
2962.24
2988.65
2993.62
2987.71
2923.1
2786.59
2655.98
2665.61
2817.48
2798.43
2870.46
2641.99
2534.39
2526.22
2551.95
2557.4
2544.89
2550.08
2570.34
2627.83
2702.35
2777.75
2813.36
2809.91
2767.36
2738.42
2736.67
2814.23
2915.52
2835.07
2679.36
2612.16
2581.78
2591.03
2639.7
2820.36
2906.68
2797.67
2729.49
2939.21
3000.15
2995.79
2940.13
2925.33
2907.77
2917.48
2972.6
2887.61
2762.19
2685.03
2669.56
2730.52
2826.03
2876.72
2778.48
2645.48
2638.85
2598.74
2636.39
2658.7
2684.31
2714.48
2714.69
2706.99
2682.47
2676.22
2728.31
2834.52
2777.95
2754.4
2972.37
3013.23
3049.55
3022.8
3023.22
2933.74
2824.64
2779.39
2799
2951.86
3035.53
2972.2
2907.4
2843.1
2793.47
2728.46
2710.46
2694.36
2677.56
2796.97
2917.17
2917.34
2842.77
2787.29
2761.13
2765.86
2781.7
2787.15
2793.81
2847.55
2889.71
2780.8
2796.2
2854.56
2898.36
2921.26
2931.84
2930.99
2936.87
2919.9
2906.48
2879.23
2860.04
2864.08
2914.96
3002.58
2899.99
2788.52
2764.35
2770.84
2837.32
2943.37
3002.37
2901.57
2789.45
2731.7
2749.8
2894.5
2823.32
2357.8
2252.01
2336.02
2613.95
2967.17
2792.39
2649.54
2607.46
2613.47
2634.15
2662.78
2684.51
2698.18
2697.74
2696.22
2678.46
2662.43
2642.03
2623.94
2603.98
2574.51
2537.92
2507.03
2565.5
2734.06
2889.61
2898.42
2845.79
2907.66
2677.82
2298.23
2989.09
2904.35
2868.5
2870.03
2875.35
2874.12
2882.45
2938.05
2998.59
3016.27
3020.84
3020.13
2991.89
2796.56
2627.71
2676.69
2662.85
2691.59
2737.45
2789.52
2825.85
2842.71
2839.98
2814.29
2775.62
2737.16
2702.51
2698.67
2735.44
2804.2
2894.61
2981.82
3031.36
3055.03
3066.5
3064.44
3052.93
3002.49
2942.97
2921.28
2925.47
2904.94
2773.71
2654.11
3053.61
3011.71
3017.25
3029.06
2985.58
2924.95
2917.51
2954.8
2974.68
2978.83
2977.68
2983.58
2972.44
2972.44
2952.89
2940.87
2884.98
2822.69
2828.58
2899.36
2956.96
2975.67
2940.05
2878.14
2824.64
2798.13
2821.36
2956.3
3029.93
2885.49
2784.22
2834.37
2849.74
2842.46
2838.81
2838.55
2844.26
2832.78
2797.2
2761.19
2735.43
2723.08
2718.36
2721.87
2703.65
2703.09
2692.08
2704.72
2703.39
2748.67
2779.84
2834.52
2865.48
2878.1
2895.88
2917.74
2917.64
2906.6
2924.98
2927.89
2866.45
2847.77
2821.73
2839.81
2795.13
2719.72
2696.55
2707.42
2713.54
2707.46
2705.96
2704.22
2712.56
2724.8
2733.81
2742.37
2738.15
2742.77
2736.87
2737.68
2743.64
2743.19
2759.98
2764.37
2747.69
2735.95
2736.56
2744.12
2751.41
2716.28
2703.23
2729.06
2691.15
2631.9
2594.35
2602.22
2621.27
2625.81
2625.66
2618.65
2618.46
2634.25
2665.96
2699.65
2722.46
2741.73
2742.51
2734.94
2736.11
2734.79
2743.19
2741.38
2718.33
2669.25
2614.51
2599.51
2622.01
2688.79
2790.2
2850.56
2696.47
2756.73
2720.42
2683.15
2646.07
2557.03
2562.51
2595.38
2552.55
2553.14
2537.06
2556.69
2572.36
2608.3
2590.41
2510.81
2468.31
2497.35
2531.41
2549.44
2524.05
2509.75
2475.89
2448.98
2400.58
2343.67
2316.56
2371.36
2577.12
2551.65
2746.26
2778.56
2737.19
2744.67
2731.65
2687.08
2640.91
2620.83
2606.62
2609.06
2618.72
2627.9
2662.14
2693.57
2752.37
2793.23
2814.2
2834.39
2882.25
2938.43
2959.21
2948.54
2941.05
2936.63
2976.79
2949.55
2762.31
2656.76
2785.03
2807.28
2747.22
2556.66
2516.32
2521.99
2518.81
2492.31
2451.88
2448.49
2468.1
2543.62
2652.39
2769.13
2828.61
2818.13
2757.52
2729.63
2779.97
2883.18
2819.46
2638.05
2562.02
2538.47
2549.56
2548.87
2530.57
2588.09
2834.01
2836.48
2728.4
2930.26
2999.73
2992.58
2971.65
2966.6
2921.3
2920.25
2964.93
2841.35
2730.75
2682.58
2741.27
2901.46
2787.95
2596.95
2575.05
2512.88
2541.56
2514.72
2581.51
2605.15
2683.77
2720.75
2750.26
2750
2720.59
2669.87
2657.34
2775.49
2827.74
2780.54
2986.98
3055.81
3038.64
3041.22
2988.2
2876.41
2790.32
2780.05
2896.37
3033.2
3006.85
2957.43
2900.36
2825.75
2750.42
2685.99
2669.26
2648.89
2640.2
2694.27
2777.79
2931.76
2918.2
2843.08
2800.06
2797.15
2812.2
2813.42
2806.99
2841.73
2858.11
2781.07
2821.04
2882.09
2918.54
2931.68
2934.91
2940.87
2935.73
2927.78
2922.42
2885.42
2855.58
2845.24
2882.66
2969.51
2963.13
2817.19
2791.01
2786.44
2853.06
2948.43
2990.56
2887.78
2773.16
2717.44
2730.72
2847.99
3009.55
2367.29
2260.6
2395.54
2832.25
2872.26
2700.93
2620.85
2612.26
2637.73
2681.69
2724.34
2760.37
2780.11
2791.91
2780.18
2755.48
2724.51
2691.09
2657.99
2629.06
2603.51
2570
2540.71
2550.17
2764.07
2938.59
2962.14
2889.05
2903.95
2741.56
2289.23
2963.39
2869.77
2868.04
2896.66
2913.89
2893.02
2877.45
2889.27
2950.83
2998.14
3013.89
3019.79
3001.19
2828.79
2673.05
2690.26
2732.04
2753.15
2797.46
2841.46
2869.55
2878.84
2853.56
2815.5
2758.12
2693.49
2644.62
2652.9
2715.01
2837.13
2952.41
3015.61
3040.92
3050.46
3056.17
3062.03
3055.7
3027.12
2965.87
2925.6
2928.78
2914.15
2793.78
2655.38
3042.85
3007.81
3008.85
3017.69
2993.22
2976.22
2970.96
2972.54
2955.85
2961.39
2960.96
2975.75
2972.73
2975.24
2953.18
2938.99
2920.55
2835.06
2808.79
2862.64
2928.05
2958.62
2943.94
2889.71
2834.86
2797.33
2791.41
2895.02
3031.58
2903.94
2794.02
2843.95
2842.94
2832.88
2828.75
2833.65
2844.5
2814.49
2766.33
2738.01
2730.85
2742.1
2748.13
2742.31
2734.19
2719.51
2704.5
2708.55
2706.08
2747.99
2778.29
2834.46
2861.15
2867.01
2886.83
2910.65
2921.91
2913.08
2925.95
2930.15
2882.39
2826.73
2839.65
2793.95
2642.77
2595.61
2586.63
2605.47
2625.03
2674.21
2717.01
2741.06
2738.58
2743.4
2747.81
2742.35
2746.39
2735.23
2742.58
2748.74
2752.24
2756.52
2758.07
2766.09
2748.44
2738.5
2723.45
2733.7
2748.3
2712.22
2705.32
2714.85
2657.31
2603.21
2600.95
2626.21
2644.95
2646.02
2635.01
2625.12
2627
2652.59
2696.95
2730.81
2750.06
2745.01
2736.91
2737.97
2725.94
2736.56
2735.03
2754.33
2754.27
2735.96
2677.13
2624.11
2619.81
2669.68
2773.92
2847.85
2691.56
2743.61
2710.46
2665.23
2618.91
2580.68
2579.7
2561.66
2542.29
2560.41
2563.29
2576.94
2595.35
2626.74
2576.99
2483.02
2472.7
2561.92
2595.29
2591.98
2591.39
2589.23
2551.35
2499.52
2429.08
2354.72
2312.91
2376.11
2565.22
2586.69
2775.11
2762.14
2728.08
2739.54
2705.07
2664.86
2620.23
2616.83
2607.21
2618.27
2613.2
2627.37
2635.81
2667.43
2727.89
2786.32
2812.25
2856.49
2903.68
2924.43
2908.02
2906.76
2909.6
2915.51
2918.46
2946.06
2928.12
2777.14
2832.83
2789.52
2669.4
2518.93
2505.11
2496.19
2462.3
2410.48
2380.66
2375.46
2391.15
2460.4
2586.16
2748.15
2834.41
2815.47
2726.99
2722.5
2809.93
2900.68
2724.94
2628.78
2604.43
2632.72
2662.08
2682.11
2629.65
2550.6
2684.78
2870.49
2718.1
2919.12
2995.85
3006.6
3019.99
3000.05
2936.27
2933.44
2951.45
2813.29
2726.98
2711.92
2843.56
2829
2671.99
2591.45
2619.65
2638.74
2662.11
2638.31
2649.08
2673.88
2763.06
2834.49
2861.27
2864.04
2832.78
2741.07
2657.48
2716.09
2858.6
2790.6
2999.45
3062.53
3053.3
3034.98
2955.34
2841.72
2775.39
2810.52
2955.11
3038.41
3022.94
2981.82
2887.81
2774.25
2683.76
2638.69
2604.12
2612.8
2609.91
2658.62
2714.6
2855.1
2944.75
2877.47
2826.73
2825.03
2846.92
2853.2
2831.1
2847.38
2834.93
2779.98
2843.53
2905.45
2930.2
2934.54
2940.32
2931.92
2933.15
2936.9
2929.6
2923.79
2875.12
2834.26
2835.04
2892.31
2974.4
2999.18
2946.78
2928.35
2966.54
3000.18
2937.69
2823.53
2739.64
2695.22
2713.08
2795.38
3021.04
2383.73
2269.53
2462.24
2977.99
2786.86
2648.13
2607.03
2628.32
2675.56
2738.22
2800.45
2851.65
2890.66
2896.06
2879.21
2852.83
2800.12
2756.78
2702.34
2659.38
2625.36
2590.5
2559.12
2566.81
2797.05
2976.25
2981.33
2922.79
2920.27
2773.69
2283.49
2943.24
2849.59
2879.04
2940.94
2970.39
2950.98
2898
2868.67
2903.64
2957.62
2988.22
3019.58
3006.52
2873.98
2716.97
2742.11
2818.07
2822.01
2831.47
2868.92
2885.75
2879.34
2857.98
2807.27
2746.68
2665.58
2612.08
2619.4
2731.03
2892.06
2999.99
3026.62
3018.8
3010.11
3017.4
3034.45
3042.84
3019.77
2966.04
2924.16
2923.92
2917.73
2818.6
2673.48
3040.9
2998.8
3000.14
3008.17
2986.38
2969.53
2946.29
2925.7
2921.61
2920.44
2929.95
2955.86
2958.92
2968.52
2938.21
2936.21
2912.78
2889.37
2792.5
2838.02
2905.67
2938.03
2932.11
2889.65
2839.05
2794.9
2779.51
2873.62
3020.28
2903.58
2800.44
2849.29
2838.79
2827.4
2821.8
2825.25
2839.18
2805.2
2761.79
2744.75
2758.8
2767.73
2768.59
2757.15
2755.84
2741.35
2725.4
2729.16
2733.52
2762.57
2799.75
2836.21
2851.41
2859.14
2876.28
2905.69
2921.49
2923.95
2926.06
2929.11
2848.02
2824.79
2851.92
2694.29
2587.68
2552.86
2570.13
2619.02
2687.76
2721.36
2721.71
2732.54
2741.69
2751.47
2751.24
2750.93
2745.23
2747.03
2741.14
2750.75
2761.14
2757.27
2764.93
2759.33
2748.8
2734.85
2723.97
2721.33
2732.98
2699.48
2699.62
2685.04
2627.04
2604.25
2634.51
2657.99
2655.21
2642.09
2624.97
2617.24
2622.39
2658.92
2715.93
2752.11
2752.3
2743.76
2737.78
2723.09
2723.68
2710.8
2714.04
2741.19
2745.82
2763.31
2725.81
2660.94
2639.27
2670.52
2771.13
2847.78
2686.86
2736.38
2686.81
2646.3
2610.39
2594.43
2555.13
2553.38
2550.25
2574.51
2583.28
2604.34
2610.26
2630.48
2588.8
2462.02
2453.32
2562.86
2595.98
2600.63
2587.56
2605.66
2600
2549.02
2451.5
2369.06
2343.14
2392.24
2602.43
2558.28
2792.55
2750.75
2720.51
2719.26
2695.58
2645.87
2611.59
2606.27
2613.16
2608.65
2621.97
2616.52
2634.86
2651.85
2710.74
2785.12
2813.06
2860.72
2902.46
2903.83
2911.42
2927.06
2928.84
2914.96
2895.32
2881.96
2909.88
2913.97
2882.24
2777.84
2612.27
2498.13
2483.53
2459.61
2409.01
2362.51
2343.68
2356.13
2355.66
2406.62
2520.37
2716.1
2838.08
2799.13
2697.54
2724.92
2844.05
2870.57
2735.7
2694.32
2723
2748.57
2772.2
2770.55
2742.67
2589.62
2597.75
2885.9
2716.17
2906.75
2991.27
3026.28
3038.46
3016.28
2947.87
2938.95
2950.24
2826.19
2729.13
2736.71
2888.69
2832.06
2760.99
2801.49
2885.69
2894.87
2900.8
2813.79
2764.62
2724.28
2778.49
2852.18
2868.09
2880.7
2894.31
2825.85
2680.35
2690.62
2885.36
2813.73
3009.67
3068.61
3056.93
3014.89
2928.33
2815.71
2771.56
2817.94
2958.8
3029.26
3022.39
2982.44
2855.97
2737.31
2637.77
2624.94
2575.86
2605.94
2609.07
2646.06
2702.33
2843.11
2945.8
2884.63
2844.88
2853.64
2889.3
2894.47
2851.05
2849.5
2813.63
2780.56
2863.17
2919.64
2938.78
2947.76
2937.03
2931.08
2924.92
2919.55
2940.24
2945.04
2930.15
2867.27
2820.64
2828.44
2872.35
2933.58
2975.62
2988.88
2971.16
2913.16
2840.81
2760.71
2699.16
2681.37
2676.91
2733.96
2942.86
2437.29
2278.83
2535.74
2940.94
2721.58
2620.56
2605.37
2645.38
2718.5
2794.98
2876.57
2945.25
2975.15
2977.67
2968.83
2928.75
2875.78
2810.7
2751.22
2693.25
2647.33
2607.45
2563.5
2564.96
2810.92
2989.59
2990.98
2953.33
2988.89
2612.1
2280.93
2932.13
2830.58
2885
2971.04
3016.56
3011.91
2958.54
2898.76
2889.8
2919.2
2957.09
3010.65
3014.63
2899.16
2747.55
2801.96
2933.19
2918.13
2881.01
2878.28
2892.02
2889.4
2866.66
2825.67
2762.88
2677.07
2599.58
2601.67
2732.41
2928.38
3014.1
3015.78
2972.29
2934.56
2945.17
2982.2
3006.69
2990.59
2947.58
2921.65
2928.81
2922.6
2822.52
2675.96
3040.23
2993.02
2986.62
3000.4
2987.08
2947.18
2914.39
2894.37
2876.93
2879.01
2890.93
2924.82
2951.24
2964.19
2928.87
2923.23
2897.21
2903.56
2821.35
2817.85
2876.17
2907.31
2903.33
2869.87
2828.39
2784.64
2763.99
2853.91
3017.05
2906.67
2806.89
2830.54
2828.74
2821.87
2815.84
2818.87
2830.72
2810.96
2772.07
2763.9
2773.29
2781.23
2779.59
2766.18
2768.1
2766.37
2753.02
2765.22
2771.38
2788.83
2825.08
2829.65
2838.75
2847.09
2872.36
2903.81
2922.54
2926.97
2926.49
2927.96
2812.52
2837.98
2839.02
2675.63
2589.06
2554.6
2604.63
2671.17
2709.4
2710.8
2720.49
2739.37
2745.8
2752.84
2749.98
2746.73
2748.84
2742.58
2750.1
2745.77
2761.08
2759.76
2756.51
2751.41
2737.56
2718.83
2698.32
2704.56
2716.53
2676.76
2685.64
2669.25
2614.93
2619.47
2653.21
2671.13
2668.86
2652.41
2631.8
2613.27
2614.53
2667.7
2732.81
2741.06
2733.37
2729.75
2723.9
2722.14
2707.78
2706.52
2694.6
2732.15
2728.26
2774.29
2744.4
2699.83
2662.78
2692.09
2789.82
2863.57
2680.91
2723.43
2672.43
2632.51
2604.77
2574.13
2549.02
2562.73
2573.1
2608.56
2615.18
2624.81
2616.76
2632.75
2631.94
2467.85
2383.01
2465.17
2588.29
2605.27
2604.25
2600.25
2613.2
2590.77
2487.27
2420.09
2382.64
2488.3
2603.26
2596.22
2787.22
2737.41
2697.86
2712.62
2683.88
2642.83
2603.4
2612.99
2605.78
2610.95
2612.53
2621.72
2640.15
2645.42
2707.32
2788.02
2817.07
2867.93
2901.32
2914.15
2934.43
2931.97
2926.54
2853.18
2764.56
2796.29
2848.41
2891.21
2887.99
2763.17
2567.24
2481.25
2466.75
2429.06
2373.12
2343.49
2336.55
2359.5
2353.92
2382.53
2466.73
2686.32
2844.21
2788.44
2671.58
2729.76
2861.34
2853.3
2779.19
2781.69
2807.04
2814.23
2795.37
2804.34
2776.79
2613
2588.84
2878.04
2696.74
2881.61
2980.19
3027.45
3039.23
3020.82
2973.35
2934.33
2957.6
2854.38
2739.98
2736.1
2865.15
2926.79
2943.02
2946.08
2948.55
2921.5
2927.54
2898.97
2852.37
2780.54
2776.59
2826.06
2852.87
2859.04
2890.18
2843.78
2673.1
2678.49
2896.26
2824.18
3006.08
3066.19
3050.8
2997.63
2907.77
2794.04
2740.93
2788.44
2924.06
3005.11
3011.5
2982.67
2865.51
2722
2654.65
2614.17
2616.13
2616.83
2617.71
2677.4
2749.4
2884.17
2928.78
2867.34
2856.4
2891.12
2919.65
2918.98
2864.93
2855.31
2791.31
2783.86
2877.44
2933.08
2960.76
2962.64
2963.3
2951.03
2918.92
2911.82
2916.26
2948.42
2953.81
2945.86
2862.9
2818.41
2814.22
2831.33
2853.03
2866.1
2852.21
2809.49
2763.22
2711.57
2683.92
2651.29
2634.31
2665.59
2889.97
2434.76
2290.4
2592
2892.62
2678.02
2601.51
2601.92
2663.32
2741.87
2840.33
2940.34
3009.25
3044
3060.49
3041.83
2993.99
2925.35
2852.68
2783.76
2721.41
2670.78
2623.89
2566.63
2544.74
2754.42
2985.16
2985.69
2977.28
2810.22
2537.03
2521.65
2918.75
2818.62
2880.42
2990.01
3028.07
3019.74
3016.78
2982.48
2942.42
2938.89
2948.18
3000.97
3017.96
2942.8
2974.65
2879.85
2772.52
2916.83
3011.29
3002.06
2960.18
2910.22
2909.93
2909.29
2897.89
2874.8
2819
2727.34
2619.75
2586.11
2700.98
2908.65
3008.89
3003.32
2950.9
2899.92
2900.31
2927.57
2954.17
2941.04
2925.12
2917.93
2934.48
2924.54
2846.81
2710.64
2696.99
2833.51
3025.31
2992.2
2947.15
2993.64
2988.39
2942.74
2906.28
2873.45
2858.21
2852.71
2858.84
2892.81
2934.96
2964.71
2930.14
2915.34
2884.72
2894.57
2830.44
2807.57
2839.43
2865.2
2859.88
2835.88
2800.01
2762.15
2753.97
2854.33
2999.9
2936.85
2815.31
2807.47
2809.29
2808.57
2806.41
2814.82
2806.21
2805.14
2815.9
2821.66
2792.96
2771.39
2775.06
2788.25
2786.88
2770.34
2761.62
2759.78
2771.45
2780.4
2787.13
2798.9
2811.11
2814.4
2827.22
2842.12
2878.52
2908.8
2926.97
2928.92
2924.65
2920.19
2885.26
2909.26
2825.54
2853.73
2856
2713.88
2621.64
2579.28
2620.6
2674.3
2705.66
2699.24
2718.11
2726.95
2736.05
2744.25
2738.12
2739.83
2739.73
2739.6
2747.23
2747.18
2747.98
2752.41
2745.89
2738.5
2726.23
2703.51
2697.89
2699.27
2708.36
2676.43
2629.54
2699.98
2705.16
2656.6
2622.83
2643.45
2679.09
2679.54
2670.88
2648.15
2618.56
2602.16
2605.08
2652.84
2710.07
2737.77
2740.05
2728.08
2724.09
2717.26
2719.04
2702.98
2716.3
2706.55
2743.34
2770.33
2766.81
2725.15
2695.98
2733.31
2818.47
2875.25
2702.82
2648.88
2690.35
2704.51
2656.5
2619.08
2594.9
2568.9
2564.59
2577.34
2600.73
2633.16
2627.66
2620.9
2616.65
2624.04
2647.4
2525.95
2335.36
2301.36
2419.1
2562.04
2607.61
2626.41
2613.2
2618.63
2556.79
2493.19
2503.08
2573.15
2662.08
2544.65
2458.19
2512.67
2781.55
2721.96
2687.67
2698.34
2688.7
2631.96
2616.7
2598.74
2600.52
2595.93
2613.34
2638.83
2642.66
2652.19
2716.23
2797.3
2824.73
2878.51
2913.21
2936.07
2944.31
2931.53
2876.45
2675.95
2580.37
2586.95
2702.41
2807.61
2821.59
2723.94
2762.94
2715.24
2540.74
2448.98
2435.94
2391.13
2345.11
2339.74
2347.1
2362.89
2361.24
2382.61
2436.49
2660.82
2863.2
2775.29
2653.74
2741.54
2887.12
2848.45
2833.73
2839.67
2829.34
2777.69
2740.74
2720.82
2709.39
2575.73
2565.25
2840.85
2690.69
2884.77
2868.2
2949.05
2955.22
3006.8
3018.3
3029.44
3008.03
2969.57
2940.28
2904.13
2763.59
2713.41
2802.76
2920.28
2952.29
2922.52
2926.1
2933.77
2905.28
2911.78
2870.42
2821
2793.51
2814.34
2816.54
2841.97
2844.23
2749.12
2617.32
2686.57
2898.91
2831.59
2895.63
2988.38
3022.05
3060.2
3035.21
2988.93
2909.57
2783.21
2711.51
2731.5
2864.12
2964.73
2985.27
2983.41
2886.85
2759.97
2659.9
2658.06
2652.4
2694.95
2735.77
2788.34
2861.64
2907.27
2884.23
2866.11
2886.56
2917.9
2853.45
2922.09
2873.78
2864.65
2937.02
2845.17
2756.19
2778.81
2882.87
2947.5
2981.74
3015.23
3018.95
2988.71
2952.81
2912.39
2899.07
2925.59
2960.78
2902.46
2950.77
2898.25
2840.06
2805.61
2783.11
2761.87
2754.42
2730.76
2700.75
2670.53
2643.55
2613.76
2574.06
2609.99
2791.92
2742.87
2650.25
2517.19
2314.11
2637.97
2864.65
2651.8
2585.98
2598.43
2660.85
2752.3
2857.83
2970.79
3039.54
3073.49
3082.04
3085.74
3043.4
2957.02
2875.62
2800.75
2738.66
2687.5
2634.33
2568.89
2524.69
2677.72
2957.47
2957.91
2935
2969.21
2842.68
2630.05
2466.5
2463.81
2919.18
2798.19
2854.04
2977.91
3021.31
3003.86
3009.11
3018.51
3007.18
2991.92
2986.38
3003.72
3027.68
2976.61
2989.1
2963.9
2825.77
2998.22
3041.38
3037.91
3022.72
2958.4
2931
2934.35
2934.34
2935.83
2896.18
2809.45
2673.13
2586.35
2639.28
2840.52
2979.48
2998.11
2955.13
2906.51
2884.29
2893.06
2898.37
2910.61
2908.8
2928.45
2938.6
2936.38
2877.71
2779.53
2705.81
2736.79
2958.71
2958.7
2854.24
2960.65
2985.13
2968.03
2910.36
2874.82
2850.24
2847.51
2843.24
2871.11
2920.4
2958.94
2955.21
2906.84
2890.95
2888.09
2841.33
2793.17
2801.01
2815.11
2809.51
2790.12
2763.6
2735.58
2753.35
2889.61
2989.3
2893.91
2804.71
2799.16
2798.55
2764.84
2767.34
2793.01
2809.09
2803.2
2804.15
2817.55
2802.23
2776.8
2776.06
2779.72
2789.59
2789.25
2778.64
2767.79
2775.92
2762.48
2783.92
2784
2793.59
2804.46
2827.45
2853.43
2890.83
2918.7
2930.26
2929.66
2920.95
2909.59
2894.23
2860.64
2831.83
2849.13
2852.76
2788.9
2691.74
2616.54
2620.18
2650.67
2694.16
2693.43
2702.85
2707.85
2725.94
2726.31
2732.69
2731.07
2730.07
2732.84
2735.74
2738.99
2737.98
2732.5
2729.46
2704.94
2683.24
2676.88
2689.42
2674.48
2678.97
2698.99
2712.54
2716.83
2691.01
2647.02
2633.74
2671.41
2693.13
2706.62
2697.82
2670.69
2638.59
2610.1
2596.92
2626.41
2701.63
2734.14
2727.05
2722.45
2717.48
2727.7
2725.06
2720.8
2733.59
2721.04
2759.6
2782.84
2768.36
2747.13
2736.78
2781.65
2856.76
2852.55
2688.27
2687.99
2713.96
2690.73
2643.39
2615.63
2599.29
2585.76
2590.54
2612.68
2634.81
2645.54
2638.89
2634.8
2630.8
2633.93
2641.5
2660.4
2399.58
2233
2217.75
2328.16
2489.83
2610.34
2634.24
2632.14
2623.95
2614.54
2631.27
2636.38
2672.69
2592.22
2507
2507.32
2659.59
2797.09
2712.68
2690.34
2684.25
2660.2
2612.23
2605.76
2605.4
2623.43
2623.68
2647.55
2663.6
2665.59
2735.56
2810.96
2836.19
2893.33
2938.23
2958.06
2952.95
2939.48
2771.48
2550.92
2491.35
2507.97
2597.56
2757.81
2808.83
2762.29
2841.74
2704.24
2505.6
2432.92
2411.37
2374.81
2346.41
2342.59
2340.21
2364.48
2376.49
2380.93
2428.95
2656.91
2887.13
2774.53
2649.22
2765.34
2901.92
2865.83
2877.24
2869.59
2817.38
2689.87
2604.95
2576.97
2589.11
2570.71
2738.13
2790.84
2696.7
2892.67
2972.31
2984.66
2962.97
2993.44
3000.67
3010.33
3016.16
2998.73
2958.66
2945.31
2815.43
2691.86
2737.91
2861.66
2911.32
2921.44
2928.38
2934.96
2903.47
2917.83
2859.36
2822.98
2793.42
2772.66
2696.5
2644.95
2625.81
2577.16
2570.52
2788.26
2875.67
2859.51
3004.04
3016.35
3016.26
3050.04