/*--------------------------------*- C++ -*----------------------------------*\
| =========                 |                                                 |
| \\      /  F ield         | OpenFOAM: The Open Source CFD Toolbox           |
|  \\    /   O peration     | Version:  2.1.1                                 |
|   \\  /    A nd           | Web:      www.OpenFOAM.org                      |
|    \\/     M anipulation  |                                                 |
\*---------------------------------------------------------------------------*/
FoamFile
{
    version     2.0;
    format      ascii;
    class       volScalarField;
    location    "0.004350000";
    object      Tu;
}
// * * * * * * * * * * * * * * * * * * * * * * * * * * * * * * * * * * * * * //

dimensions      [0 0 0 1 0 0 0];

internalField   nonuniform List<scalar> 
12384
(
1124.44
1102.59
1082.69
1067.64
1054.41
1043.04
1037.23
1023
1023.31
1024.2
1085.2
1124.83
922.872
351.104
361.339
460.535
464.04
428.963
403.813
371.391
362.828
351.059
349.877
358.81
360.893
365.429
380.323
388.863
395.879
435.003
429.581
507.608
491.049
574.587
587.009
635.288
666.472
728.848
755.545
720.452
698.866
633.155
546.058
525.354
680.576
615.112
563.846
551.741
563.86
579.768
579.785
586.38
586.688
592.229
585.84
598.926
583.533
596.795
579.27
590.243
574.036
585.507
561.921
576.278
544.682
514.272
601.329
702.503
677.023
649.335
578.951
500.879
418.838
376.713
270
270
279.173
302.441
320.755
332.68
338.233
339.709
338.44
329.607
322.609
321.381
314.323
291.364
304.022
270
270
287.085
270
339.707
324.702
378.277
384.824
376.093
399.716
459.528
483.5
482.284
477.497
473.031
398.151
345.787
314.784
298.931
286.728
276.071
270
270
270
271.981
277.212
284.084
295.761
298.619
305.339
330.408
331.802
358.596
374.486
393.641
423.105
463.893
463.518
432.852
435.015
438.579
443.412
448.56
453.555
453.532
270
270
270
270
270
270
270
270
270
270
270
270
270
270
270
270
270
270
270
270
272.815
270
318.669
342.331
370.656
380.421
388.775
397.857
403.866
398.05
368.797
329.432
292.902
305.624
316.915
312.961
275.25
271.628
270
270
270
270
270
270
270
270
270
270
270
270
270
270
270
270
270
270
270
270
270
270
568.658
533.873
493.693
549.859
551.374
515.188
429.156
441.338
410.01
398.97
433.371
410.658
463.721
451.966
496.853
525.917
548.676
566.566
578.496
582.505
576.347
555.79
538.782
508.885
510.144
475.605
493.719
498.397
512.119
529.38
418.903
406.92
321.623
308.15
343.952
336.942
332.694
340.175
335.758
353.901
372.888
383.027
417.49
418.855
441.864
440.369
449.259
453.603
448.008
433.242
423.056
397.607
394.756
382.614
397.372
400.549
396.277
405.268
378.445
307.781
670.767
736.048
750.323
727.184
703.761
680.32
648.236
621.958
583.616
574.395
511.702
514.926
463.49
416.136
415.976
348.466
356.827
290.68
318.445
285.918
329.877
334.593
369.875
365.975
370.492
367.439
379.097
416.252
454.861
443.979
378.728
539.227
539.839
529.647
522.367
516.883
512.075
511.248
509.274
508.166
504.419
492.25
470.253
431.526
407.977
328.822
361.339
270
285.31
270
303.009
331.964
347.676
347.863
370.835
377.132
390.603
403.319
394.98
370.203
274.431
401.181
529.228
529.862
528.023
511.824
507.206
471.55
467.757
433.216
429.877
408.388
406.703
392.785
396.265
384.294
386.906
377.069
379.657
389.187
385.334
420.816
430.253
445.961
492.529
484.769
428.127
456.833
488.047
492.898
270
363.944
436.987
414.307
344.912
292.468
282.499
336.308
378.421
407.554
422.236
428.366
432.672
423.711
423.479
410.024
406.864
389.693
376.276
353.957
345.183
326.005
327.536
288.92
294.694
329.366
369.71
408.783
411.898
406.779
965.877
949.416
912.208
895.816
898.586
904.598
934.914
945.946
965.198
970.514
1018.21
1095.96
993.497
456.355
362.127
473.453
402.372
329.225
294.032
283.258
280.564
285.226
304.56
320.37
338.071
366.48
381.894
401.326
419.596
445.853
456.6
496.716
507.458
540.296
559.352
597.929
635.842
690.664
740.065
746.611
717.265
686.827
611.441
523.581
650.033
538.056
507.575
529.105
582.57
604.072
600.111
594.166
590.207
579.812
582.025
571.005
563.402
555.745
551.147
547.443
559.601
554.608
569.239
560.673
560.92
510.312
533.791
590.065
600.372
656.456
681.152
667.226
528.381
401.954
270.267
311.55
351.7
373.899
383.612
388.954
389.624
383.642
374.388
362.026
347.214
335.537
322.675
317.411
289.817
295.879
279.335
276.855
270.983
326.208
317.473
389.077
402.992
398.398
397.69
425.243
472.143
486.612
484.543
476.522
325.427
270
270
271.24
270
270
270
270
270
270
270
270
270
270
270
270
284.148
310.036
339.643
361.314
390.03
428.232
459.606
457.885
445.316
443.701
458.831
468.549
471.632
460.4
270
270
270
270
270
270
270
270
270
270
270
270
270
270
270
270
270
270
270
270
270
285.5
310.727
325.21
351.587
372.114
378.156
391.275
403.76
395.924
366.77
324.633
304.75
319.821
306.134
288.323
270
270
270
270
270
270
270
270
270
270
270
270
270
270
270
270
270
270
270
270
270
270
270
270
549.16
505.966
536.691
573.572
507.896
460.444
388.877
372.313
351.782
346.207
358.914
356.718
379.76
373.621
406.588
416.257
453.424
482.728
514.188
532.746
538.106
526.812
513.378
495.974
495.11
473.003
480.571
475.92
505.069
517.626
384.17
271.073
277.449
327.096
333.433
323.768
317.121
322.392
317.219
341.141
353.29
382.003
403.302
426.42
437.787
448.288
452.035
450.032
452.294
429.842
417.495
386.54
382.43
376.157
376.566
394.077
405.222
397.191
380.382
299.731
691.701
738.99
720.582
692.902
658.704
623.321
575.741
541.518
487.386
476.094
401.524
368.722
336.766
277.678
270
270
270
270
270
270
270
270
270
270
270
270
301.491
362.244
423.514
439.941
399.635
540.709
535.927
515.92
503.329
496.214
495.795
494.796
494.844
493.925
486.178
466.243
442.35
394.591
361.707
303.587
276.101
270
270
270
292.592
316.388
334.691
346.348
362.696
377.156
397.62
411.883
409.82
396.826
288.868
485.856
538.407
530.039
523.641
493.219
469.293
432.985
417.196
385.636
385.67
367.428
372.997
367.585
370.39
363.253
359.435
347.296
342.65
339.127
351.195
386.712
396.887
441.871
473.722
491.838
481.901
389.025
485.091
506.56
272.788
413.302
431.662
377.996
312.125
298.393
372.996
445.927
492.758
521.893
531.874
531.785
527.128
517.138
511.376
508.932
509.075
508.033
506.015
498.994
486.012
479.509
465.188
455.535
438.741
395.663
309.546
375.601
413.251
415.068
880.268
817.015
752.278
719.835
711.063
739.568
803
861.859
910.87
925.523
956.118
1042.63
1019.95
550.668
368.156
448.085
307.15
277.3
281.913
292.577
316.109
348.15
373.515
401.407
435.503
453.531
475.728
508.122
513.778
564.057
577.517
621.587
651.139
663.792
666.918
658.83
656.412
675.192
713.489
742.858
739.031
713.57
655.734
553.195
621.177
516.47
514.461
565.164
603.747
594.086
566.305
554.715
538.727
534.336
524.768
515.922
503.385
498.316
479.338
483.048
471.264
496.697
512.052
548.279
546.13
526.591
486.653
501.245
480.965
515.984
609.984
687.683
633.145
440.342
308.503
357.403
382.948
393.111
398.998
401.247
396.865
386.763
367.69
349.402
327.808
307.886
300.765
287.362
282.815
276.206
270
287.994
270
336.247
322.652
393.622
404.611
419.86
409.46
412.757
452.209
483.494
485.393
481.107
270
270
275.906
276.884
270
270
270
270
270
270
270
270
270
270
270
270
270.456
311.394
331.547
356.845
376.936
402.389
431.137
456.946
462.909
457.131
455.947
470.396
482.818
470.744
270
270
270
270
270
270
270
270
270
270
270
270
270
270
270
270
270
270
273.68
270
292.908
293.102
310.401
326.187
338.813
356.082
373.161
381.216
395.534
397.841
359.728
320.731
315.944
317.587
284.144
270
270
270
270
270
270
270
270
270
270
270
270
270
270
270
270
270
270
270
270
270
270
270
270
270
526.874
513.831
569.759
546.191
468.437
428.098
372.579
390.134
380.418
381.218
401.177
381.753
386.035
376.35
376.589
376.935
402.657
435.676
476.575
510.808
526.732
519.926
512.692
490.171
493.396
479.681
483.649
483.118
478.481
511.852
270
270
303.848
324.963
315.798
309.322
294.884
304.442
299.964
322.583
334.742
361.881
390.382
408.874
435.28
429.477
443.577
424.139
422.921
402.494
379.253
354.22
342.272
344.429
351.075
367.091
395.098
398.348
366.016
291.583
705.804
723.545
700.046
672.858
637.584
592.367
526.894
482.342
429.551
404.442
337.216
303.013
283.206
270
270
270
270
270
270
270
270
270
270
270
270
270
270
284.77
389.732
458.914
457.995
541.296
519.28
500.803
486.245
480.783
482.028
485.746
489.501
484.539
471.17
444.556
421.776
383.97
358.95
299.314
270
270
270
270
276.078
304.48
326.589
348.022
356.674
362.509
371.245
385.549
403.103
397.265
376.686
523.86
540.389
523.647
502.197
468.406
444.087
405.791
388.654
367.224
368.89
360.713
383.502
382.839
384.864
367.727
359.671
363.773
369.756
361.166
355.872
367.157
374.166
432.894
454.794
497.114
499.878
433.666
472.188
511.408
319.286
429.324
406.081
335.314
310.102
388.657
468.241
516.868
535.115
536.402
532.799
526.576
519.255
506.127
511.202
505.675
506.299
513.22
514.112
516.416
506.576
496.353
477.704
459.533
457.145
455.437
406.323
328.537
395.383
430.086
785.304
705.427
643.205
617.059
609.901
613.592
650.737
733.484
827.311
883.794
912.971
995.292
1023.14
615.101
379.448
374.155
270.798
271.498
300.035
333.133
362.927
383.819
399.295
425
429.022
443.443
460.258
481.099
505.159
561.727
599.864
681.04
728.593
772.382
787.118
772.651
730.409
700.708
705.831
731.098
737.664
718.078
665.436
553.496
599.275
514.199
535.633
573.06
572.99
539.056
512.609
507.04
501.991
502.363
497.417
502.567
494.161
482.5
467.041
441.525
439.163
425.512
459.296
491.336
535.793
521.356
490.665
463.778
438.482
434.423
493.825
627.274
674.694
484.447
341.263
372.126
386.901
400.087
407.561
405.899
388.105
356.554
325.952
305.129
286.729
276.908
271.099
273.48
270
270
270
279.637
280.571
332.549
328.095
395.903
408.408
431.317
422.841
410.463
436.023
472.304
477.88
480.231
270
270
271.713
270
270
270
270
270
270
270
270
270
270
276.927
299.97
313.058
343.413
348.989
372.666
376.271
384.749
398.338
416.731
448.949
463.108
469.956
460.225
459.096
473.104
461.487
270
270
270
270
270
270
270
270
270
270
270
270
270
277.769
286.043
282.916
291.297
297.096
292.083
306.927
301.407
326.47
331.451
330.712
345.39
349.043
360.997
375.432
389.557
392.891
353.728
320.295
321.837
305.813
270
270
270
270
270
270
270
270
270
270
270
270
270
270
270
270
270
270
270
270
270
270
270
270
270
270
505.258
529.473
557.153
518.672
445.392
429.319
396.919
425.665
421.39
431.408
419.901
434.178
414.566
396.233
378.969
371.9
380.799
420.22
476.932
519.372
535.016
531.181
506.995
482.205
468.499
467.656
475.411
489.687
487.799
482.94
270
288.256
315.206
315.286
303.23
292.771
287.413
298.99
298.201
316.094
327.037
351.837
375.246
404.871
418.978
427.87
408.578
404.617
375.338
386.256
414.72
422.929
421.19
422.222
416.665
382.675
364.7
385.126
358.693
270
708.112
713.292
691.959
666.571
629.766
572.928
498.42
447.372
404.457
364.862
332.712
288.189
270
270
270
270
279.221
270
270
270
270
270
270
270
270
270
270
270
324.421
425.999
489.413
540.74
516.424
501.584
481.646
477.757
482.534
490.396
487.515
477.665
466.86
458.14
436.367
404.219
376.004
313.495
306.116
272.793
270
291.117
274.506
294.239
317.868
339.893
351.827
359.896
365.122
379.931
402.729
414.709
437.625
538.14
537.089
514.611
490.536
465.978
440.336
401.428
384.342
353.492
357.236
367.734
383.84
394.867
384.437
365.442
376.43
402.574
403.292
393.1
393.252
370.272
372.043
421.3
452.804
499.619
507.426
459.777
437.525
514.999
357.393
430.287
369.803
303.265
381.556
463.371
519.765
535.028
531.673
528.459
525.092
522.07
508.662
510.626
498.307
498.967
499.521
504.686
512.878
517.831
519.053
505.458
481.376
442.612
431.336
436.766
439.21
367.389
371.877
443.58
729.153
646.714
607.12
598.216
592.893
587.588
588.665
637.538
735.181
830.959
883.216
958.442
1011.15
670.089
405.682
310.301
271.3
278.736
310.01
343.201
359.223
374.539
390.498
391.368
398.247
409.633
412.207
434.666
478.588
536.934
616.878
714.718
787.07
840.599
863.348
852.987
810.238
745.043
710.165
718.18
728.666
720.601
685.641
575.08
590.377
523.199
539.122
563.24
543.999
506.092
491.756
494.371
495.402
513.126
520.035
533.151
523.675
529.652
499.301
470.169
417.955
415.785
410.149
456.118
498.761
517.798
493.17
462.023
433.544
420.606
439.363
554.491
669.886
507.402
349.894
374.669
389.506
404.555
409.881
393.56
354.341
310.994
283.096
270
270
270.342
275.149
285.218
274.798
291.487
284.806
301.644
285.057
343.046
346.927
397.673
416.152
432.42
423.006
406.91
422.015
453.086
458.178
469.919
270
279.562
274.317
270.227
294.164
313.939
297.95
284.429
277.611
283.831
311.462
334.993
364.773
389.674
412.312
441.17
432.74
444.851
428.754
422.955
418.182
408.885
423.068
437.056
462.891
469.539
466.928
451.976
456.578
451.148
270
270
270
270
270
270
270
270
270
270
270
270
279.845
290.853
291.973
307.165
309.432
303.258
316.067
313.881
330.79
330.405
342.374
346.56
346.531
357.509
359.682
369.55
384.335
386.225
348.04
318.946
318.787
297.363
270
270
270
270
270
270
270
270
270
270
270
270
270
270
270
270
270
270
270
270
270
270
270
270
270
270
488.362
528.24
539.931
489.541
447.645
429.364
432.295
437.84
432.109
431.221
433.794
429.056
442.147
407.515
382.262
365.952
376.876
424.356
497.093
546.337
563.15
550.687
535.555
498.546
485.283
441.44
461.792
456.768
459.869
479.944
270
305.519
312.333
306.101
291.829
294.619
291.47
309.201
305.543
319.842
321.164
339.48
365.308
396.592
415.95
404.496
394.769
355.642
380.187
406.788
429.166
430.797
438.6
436.134
440.756
435.488
375.729
354.021
336.588
270
701.799
703.668
686.228
663.189
616.272
548.577
471.807
417.993
387.995
347.403
320.634
270.899
304.389
320.256
342.303
305.374
321.171
278.625
311.41
283.131
311.467
300.279
300.643
290.991
282.399
271.577
270
270
322.596
467.789
504.456
539.654
523.956
499.739
480.292
475.139
482.827
486.543
482.966
477.128
467.659
445.134
420.036
391.652
348.475
307.089
302.443
280.707
276.599
316.004
304.413
292.539
302.912
328.775
344.115
345.458
340.877
347.603
376.435
399.988
468.3
541.402
529.384
511.044
498.952
482.02
451.402
425.215
381.696
350.356
341.574
339.713
371.378
386.639
386.232
360.134
365.438
391.92
407.75
392.37
396.255
369.675
374.631
421.287
455.858
502.805
510.18
477.474
407.813
518.678
373.018
428.892
337.748
355.03
442.701
512.197
532.787
532.572
530.154
530.502
529.352
518.131
521.033
508.461
500.46
498.672
501.455
502.695
506.504
514.98
521.794
516.876
483.876
431.641
403.325
421.294
437.906
400.002
353.234
440.885
702.313
615.292
604.021
620.544
634.099
608.38
589.267
597.819
665.11
778.866
853.212
931.344
1005.49
698.132
430.814
298.771
285.963
278.399
302.51
329.753
355.57
374.304
377.903
386.967
391.734
393.987
400.494
432.268
475.025
575.46
677.84
765.831
822.947
847.854
862.312
863.08
837.606
779.108
722.465
717.969
729.148
719.249
680.258
570.281
589.795
534.541
532.783
551.824
527.423
493.424
487.512
496.249
499.46
514.056
509.047
525.879
513.425
528.736
504.069
482.127
432.409
384.04
399.922
420.137
469.025
500.363
492.209
460.998
437.054
418.473
420.403
502.497
657.307
528.396
359.089
379.688
393.943
402.751
400.798
373.217
318.515
274.292
270
270
270
284.118
294.444
292.304
300.751
312.583
309.464
321.591
307.247
351.21
364.743
398.393
416.794
427.07
418.552
400.592
407.095
429.383
431.987
457.187
290.154
294.151
283.301
308.767
354.646
382.004
366.628
378.188
370.404
401.349
414.55
455.038
477.669
497.193
511.496
505.236
514.906
491.962
490.498
466.461
432.393
428.199
419.789
435.203
451.926
468.938
460.071
444.17
441.598
437.352
270
270
270
270
270
270
270
270
270
270
270
270
280.998
283.078
299.849
301.728
309.304
329.492
324.64
345.846
332.234
347.278
344.213
353.788
359.478
360.647
364.965
369.065
382.3
380.181
341.757
314.908
322.107
273.667
270
270
270
270
270
270
270
270
270
270
270
270
270
270
270
270
270
270
270
270
270
270
270
270
270
270
461.831
506.878
511.945
476.764
437.26
446.289
435.17
447.5
433.017
439.123
432.582
435.355
435.609
421.441
384.456
360.446
371.962
443.006
525.104
559.632
565.246
552.328
506.175
475.656
461.121
460.254
435.52
460.224
461.247
450.964
276.291
306.762
306.929
291.193
285.417
291.719
308.674
314.695
312.058
323.311
323.357
330.69
351.565
394.238
402.996
386.941
354.201
333.149
359.004
401.262
406.664
427.732
421.797
432.184
434.21
441.364
399.734
330.692
306.087
270
687.527
697.265
688.625
660.108
600.625
525.406
446.103
399.499
381.662
333.484
305.08
302.741
346.677
337.6
339.589
302.688
306.834
270
288.14
278.892
316.939
342.406
354.351
354.55
348.096
327.776
301.75
280.457
307.31
451.512
511.725
542.221
527.128
500.163
477.636
473.299
473.475
477.116
476.403
476.204
453.518
425.527
399.491
367.942
327.428
304.094
270
276.828
271.885
315.12
304.48
300.075
285.489
315.007
327.58
326.698
315.096
320.751
360.471
397.953
477.866
534.621
522.771
518.812
516.537
503.434
493.733
454.454
412.689
366.835
319.89
315.857
333.879
370.976
383.43
378.743
357.297
358.232
369.949
370.934
376.481
358.296
396.678
419.139
471.593
502.24
520.669
487.893
417.511
508.822
382.122
416.678
309.985
398.145
480.884
527.907
536.595
528.98
530.237
531.161
525.03
533.074
520.408
513.853
516.623
500.47
511.145
505.198
506.4
512.013
520.647
526.456
492.265
417.614
378.856
396.659
425.412
382.356
353.806
448.172
678.569
603.182
614.135
668.442
697.163
674.131
620.097
596.489
636.263
731.281
818.514
910.106
991.071
741.993
457.593
325.945
341.609
302.444
293.778
320.928
349.552
358.627
378.686
377.896
391.053
388.763
404.598
430.487
506.372
623.529
747.29
795.412
798.623
798.879
809.257
826.242
820.354
771.72
724.099
711.282
716.522
713.146
688.962
589.089
604.161
561.61
528.62
545.81
523.114
493.75
483.918
479.221
482.622
477.948
478.841
494.519
483.195
507.234
470.812
484.673
433.479
386.748
370.684
408.235
453.276
480.18
480.689
456.29
433.669
413.8
408.828
481.333
641.348
528.855
357.915
381.663
395.35
403.274
392.089
354.695
296.912
270
270
270
274.643
287.401
302.119
294.853
313.361
311.695
318.434
333.914
330.283
346.11
377.195
389.991
411.985
419.445
411.737
392.296
393.712
404.134
405.606
444.844
313.953
300.365
297.942
360.574
406.622
419.934
431.662
432.603
435.425
468.12
481.001
491.085
492.831
501.435
494.007
509.682
505.798
511.959
491.6
481.775
449.527
422.39
426.236
430.292
455.586
467.464
463.057
426.352
415.82
407.413
270
270
270
270
270
270
270
270
270
270
270
270
270
293.196
300.806
312.318
330.22
329.915
346.205
344.837
342.325
363.915
338.299
367.227
371.889
367.242
377.827
374.029
390.769
378.565
328.167
324.862
306.527
270
270
270
270
270
270
272.126
270
270
270
270
270
270
270
270
270
270
270
270
270
270
270
270
270
270
270
270
435.626
484.005
492.069
445.67
441.834
446.232
439.974
438.746
443.306
436.95
451.211
432.042
443.337
423.488
389.501
360.15
374.508
466.223
542.3
566.046
551.181
481.618
421.509
366.78
342.122
367.211
417.413
412.466
419.892
439.21
270
300.953
291.28
282.752
290.43
302.303
308.862
328.584
312.728
328.701
324.4
326.443
343.349
384.711
394.836
377.427
338.92
332.52
352.121
368.809
404.785
405.828
422.564
405.966
418.331
429.515
399.932
310.456
290.299
270
665.916
687.741
694.4
655.573
590.477
509.366
429.826
397.338
365.41
321.291
303.281
304.588
342.782
322.335
335.354
274.694
300.758
270
270
270
279.295
314.768
361.194
386.424
389.146
384.737
352.117
316.958
335.697
495.488
512.865
550.318
527.525
492
465.274
458.52
468.629
468.533
471.086
466.636
433.161
400.896
363.43
357.583
294.394
289.45
270
270
270
278.119
284.41
284.349
274.725
300.257
311.441
298.4
280.733
287.419
336.38
386.482
475.621
520.482
518.154
524.66
529.758
537.21
516.209
498.398
464.607
398.185
342.538
293.562
290.841
330.198
375.712
382.368
379.303
367.373
363.109
353.875
374.209
376.569
414.83
445.853
477.637
520.281
525.766
514.592
443.315
499.422
384.205
402.766
331.718
427.005
500.015
529.912
528.74
533.902
528.854
530.555
538.958
531.279
523.179
528.26
524.757
518.897
511.039
513.606
509.778
509.911
519.096
527.412
504.422
416.578
353.214
372.925
383.779
347.242
373.759
442.747
676.355
588.332
615.976
699.396
774.152
763.161
685.821
640.898
642.194
713.544
793.66
880.321
986.947
763.902
482.541
394.375
493.556
412.961
317.938
308.199
332.895
349.953
359.874
369.215
381.053
389.083
400.883
437.448
518.662
667.801
764.235
783.41
753.467
727.657
736.263
760.789
770.059
746.467
715.774
712.003
719.975
717.621
687.099
592.875
607.163
581.998
521.793
539.016
525.405
493.677
469.541
466.749
456.924
463.908
457.868
469.071
464.163
491.896
447.134
455.367
411.955
393.698
373.787
390.974
429.894
456.396
458.286
442.735
425.887
406.068
401.035
470.493
635.731
532.925
357.182
360.339
371.1
390.49
391.058
357.787
302.726
270
270
270
270
277.775
289.579
283.862
301.649
307.497
302.637
333.758
333.089
346.621
374.628
377.939
403.09
412.502
400.597
385.382
382.257
382.688
388.676
442.534
310.456
305.805
313.619
379.26
428.595
439.122
462.288
450.004
475.028
479.255
477.273
489.477
475.644
488.367
488.165
482.795
493.171
482.691
482.643
447.419
441.218
417.227
416.702
439.813
446.76
450.96
420.32
394.629
391.724
379.13
270
270
270
270
270
270
270
270
270
270
270
270
278.819
270
275.067
298.046
312.083
329.899
325.489
346.687
334.645
376.575
335.311
387.288
370.842
389.147
385.819
388.971
399.494
401.718
328.93
318.917
300.879
276.629
270
270
270
272.092
270
281.966
270
272.891
270
270
270
270
270
270
270
270
270
270
270
270
270
270
270
270
270
270
399.663
458.462
460.745
440.791
429.871
450.829
439.331
457.652
447.9
463.831
460.04
440.499
451.447
431.316
404.049
363.656
386.649
484.841
546.719
555.956
503.64
413.473
335.181
277.526
270
275.786
318.992
400.207
443.754
440.334
270
293.137
289.27
291.546
301.076
312.752
307.463
331.126
318.099
329.116
330.869
322.853
334.254
384.965
390.416
366.252
328.309
328.484
357.449
378.446
403.082
427.542
418.578
442.921
441.305
423.113
401.018
285.814
270
270
622.994
686.915
702.445
658.259
590.43
510.639
436.386
386.119
354.013
326.408
300.27
294.107
342.841
330.552
360.503
327.398
317.267
270
270
270
270
270
321.73
348.533
389.011
394.433
374.953
346.031
360.405
513.382
496.451
545.907
522.877
478.181
437.441
429.575
433.003
445.769
457.533
451.645
416.214
366.987
354.75
332.137
292.499
270
270
270
270
270
270
270
270
281.801
283.935
270
270
270
319.02
380.065
458.485
507.573
512.215
525.091
543.47
535.864
536.283
528.118
488.222
461.234
386.65
305.133
270
271.518
325.083
371.173
386.887
390.708
387.836
391.307
397.601
410.377
441.624
467.625
509.137
525.703
548.229
527.903
453.213
492.692
385.657
389.134
348.835
440.688
504.874
524.135
528.978
519.501
526.725
537.126
543.954
550.381
553.291
549.385
530.957
528.94
520.925
517.236
512.924
511.311
517.253
528.44
518.379
424.148
338.533
327.711
320.213
324.884
370.108
376.688
660.194
586.833
613.65
720.921
832.795
856.847
797.554
727.362
705.003
745.878
788.346
868.423
973.618
812.578
775.962
557.119
487.237
532.167
727.975
658.345
446.731
319.368
325.663
337.724
350.184
355.797
368.859
383.52
400.346
430.902
514.187
653.636
761.503
763.165
731.377
691.132
685.228
700.374
715.714
702.328
707.764
709.607
723.34
710.739
698.998
621.105
613.638
618.866
638.528
597.369
524.477
536.954
527.65
495.378
472.237
454.585
456.169
462.579
457.993
452.276
454.404
485.956
437.286
433.349
383.824
373.344
363.828
384.203
411.122
433.468
435.912
426.865
408.827
389.747
387.384
465.082
607.626
474.078
360.232
344.051
346.167
341.125
346.408
363.11
373.735
357.146
315.569
270
270
270
270
270
270
270
277.129
284.722
304.468
316.123
319.129
343.732
362.772
369.227
397.07
398.112
389.694
378.884
371.613
366.294
376.724
431.827
441.251
379.499
330.055
320.497
319.172
367.872
425.972
435.9
463.803
448.207
477.955
462.245
473.179
467.873
455.134
465.062
449.08
449.613
446.212
438.814
441.877
425.804
412.481
424.771
427.308
440.56
455.638
437.048
402.436
378.775
376.166
357.496
284.305
270
270
270
270
270
270
270
270
270
270
270
270
270
270
270
281.719
287.979
303.431
309.294
326.43
318.778
351.094
328.51
358.524
378.129
391.866
397.836
406.423
424.647
427.472
415.422
362.525
306.518
321.406
312.13
299.706
283.019
270
271.512
279.767
276.677
270
278.04
270
270
270
270
270
270
270
270
270
270
270
270
270
270
270
270
270
270
270
270
270
270
346.832
410.657
448.138
422.383
425.626
432.214
460.297
448.357
457.81
464.623
475.835
465.306
449.843
450.098
419.847
372.974
401.493
502.705
546.741
532.154
460.819
362.229
294.186
270
270
270
270
294.73
354.242
369.09
396.279
312.675
270
270
273.217
286.549
303.069
325.918
324.911
331.118
319.316
338.965
331.893
323.487
338.153
381.928
391.176
362.652
331.872
348.664
397.252
397.996
414.253
413.315
441.571
429.077
425.011
423.304
365.167
270
270
270
270
493.486
556.797
658.992
708.01
675.731
616.491
546.068
456.542
380.349
358.704
327.545
298.5
314.112
361.057
362.48
389.837
388.106
304.369
291.92
270
270
270
270
270
270
328.927
376.495
374.552
346.452
381.834
525.67
606.261
526.073
498.437
533.253
514.069
469.446
438.506
414.8
404.836
412.978
441.092
436.189
395.602
361.989
331.057
347.085
279.075
270
270
270
270
270
270
270
270
270
270
270
270
270
317.15
371.402
396.504
417.763
425.679
478.176
491.794
517.171
530.898
552.753
550.808
521.75
512.997
484.435
444.327
356.902
270
270
270
306.078
353.091
385.492
408.297
420.819
443.077
454.299
476.461
502.149
529.457
552.719
556.82
556.596
482.622
408.161
409.387
428.906
383.922
376.089
358.127
447.865
501.592
518.261
513.757
518.403
515.878
539.087
544.978
548.19
547.311
557.434
542.492
532.127
527.58
522.435
517.181
513.125
513.755
527.449
527.325
455.994
332.8
318.752
312.006
300.568
331.785
462.187
518.993
516.216
670.65
572.015
591.259
696.442
851.209
926.663
891.553
815.504
770.114
778.533
823.282
866.91
972.257
860.345
842.77
706.702
523.165
701.126
908.567
887.409
692.883
399.782
334.581
346.755
353.224
360.427
359.351
377.37
392.524
423.715
484.619
612.166
721.476
751.825
718.088
688.216
665.212
672.54
670.145
694.573
695.225
723.91
718.043
715.216
703.076
673.117
638.423
614.757
636.222
591.941
521.61
529.376
529.476
514.444
475.542
463.337
453.619
475.036
464.919
459.332
454.731
471.442
470.941
402.98
382.567
361.335
361.969
369.837
396.264
408.63
410.74
400.781
386.83
369.022
391.271
507.769
576.446
409.72
356.381
327.004
331.843
307.968
310.964
331.024
363.398
369.548
339.652
288.872
270
270
270
270
270
270
270
273.319
299.691
287.366
324.141
329.034
347.084
366.32
383.155
380.662
378.539
371.893
362.436
359.792
371.657
424.482
413.758
355.471
340.918
318.278
309.11
331.981
391.648
408.758
450.469
438.096
459.742
457.172
458.728
446.454
453.977
430.912
432.963
424.925
415.935
415.354
414.855
417.887
418.116
419.666
435.798
429.992
408.074
378.536
358.393
356.566
306.265
281.069
270
270
270
270
270
270
270
270
270
270
270
270
270
270
270
270
270
271.583
283.867
309.802
313.369
313.028
338.237
314.796
364.496
392.226
392.285
422.072
437.632
447.344
455.966
435.577
363.225
347.685
339.126
313.625
299.7
293.049
296.081
303.623
303.562
301.653
294.823
285.354
270
270
270
270
270
270
270
270
270
270
270
270
270
270
270
270
270
270
270
270
270
270
340.162
363.819
424.25
432.539
407.069
438.35
437.419
458.882
469.216
503.594
482.477
468.318
474.058
472.419
428.822
380.577
425.567
515.804
545.734
502.392
440.165
328.673
280.407
270
270
270
270
276.753
332.9
410.089
452.167
358.203
270
270
273.209
303.863
335.326
344.099
327.999
340.83
335.956
335.484
337.02
339.639
335.209
388.347
399.777
355.861
349.722
400.065
432.119
416.294
402.371
393.452
415.484
431.256
430.063
395.165
318.823
272.314
270
270
399.681
603.551
566.851
680.93
728.545
705.615
670.84
593.395
497.451
410.835
360.448
331.513
311.027
320.728
357.659
393.738
405.012
387.672
301.949
314.452
270
270
270
270
270
270
301.46
356.471
356.041
339.794
429.839
566.204
597.192
525.493
479.044
536.607
510.971
467.699
414.556
383.859
377.542
380.963
404.917
426.248
402.021
361.789
331.43
339.886
296.524
270
270
270
270
270
270
270
270
270
270
270
270
270
325.256
381.821
434.723
452.593
433.735
461.374
486.329
515.212
547.256
549.078
532.22
530.218
508.319
489.719
469.007
416.887
296.949
270
270
270
270
306.282
355.359
398.411
434.755
469.293
491.781
511.419
533.937
548.167
559.022
547.221
523.432
421.872
364.958
411.617
391.281
361.186
363.751
442.873
495.56
508.574
508.635
498.674
514.463
517.401
537.286
537.527
545.045
555.868
552.584
535.021
530.257
529.424
522.173
514.939
515.871
523.638
530.527
491.829
371.662
308.41
322.61
376.414
465.733
527.748
526.568
532.49
672.359
579.214
568.914
650.16
822.819
945.808
956.855
863.728
778.351
731.682
769.682
825.392
940.332
908.923
899.983
909.186
686.874
809.777
934.34
930.121
799.328
518.093
368.387
372.552
399.35
397.747
384.638
372.587
388.361
414.857
455.654
545.989
661.202
722.354
727.011
695.09
679.07
672.335
681.79
691.98
710.859
724.794
717.291
709.651
715.076
693.627
657.617
607.551
625.721
588.409
535.61
523.258
533.554
519.8
500.955
475.071
458.493
478.221
476.459
461.075
460.677
464.998
493.17
414.651
368.439
354.534
354.803
364.049
374.578
387.698
385.775
377.048
362.452
363.962
408.822
507.348
512.444
379.302
345.277
320.743
302.965
280.093
273.687
291.058
321.437
348.225
347.799
311.98
270
270
270
270
270
270
270
272.439
270
282.161
313.624
302.529
339.633
349.169
361.266
367.345
370.272
364.237
356.661
356.506
369.204
416.807
369.144
358.576
354.821
316.48
297.881
295.396
338.073
361.395
408.805
415.341
435.853
435.452
448.355
428.095
436.943
422.449
409.241
407.432
403.323
410.263
402.236
412.461
420.563
419.542
413.052
404.47
386.805
365.093
335.554
270
270
270
270
270
270
270
270
270
270
270
270
270
270
270
270
270
270
270
270
270
273.847
289.955
312.77
320.7
335.012
337.992
385.213
388.654
416.831
448.091
462.299
476.606
461.331
423.008
377.402
353.061
337.882
342.981
333.757
322.943
332.224
335.941
338.458
336.013
317.165
302.762
278.222
270
270
270
270
270
270
270
270
270
270
270
270
270
270
270
270
270
270
270
270
280.988
366.259
385.074
391.042
423.092
422.489
409.934
434.414
462.462
482.95
473.041
492.258
490.838
488.354
488.653
441.159
393.431
440.518
524.079
535.295
495.996
427.904
314.367
281.617
270
270
270
280.488
286.695
329.755
405.283
433.783
341.097
284.221