/*--------------------------------*- C++ -*----------------------------------*\
| =========                 |                                                 |
| \\      /  F ield         | OpenFOAM: The Open Source CFD Toolbox           |
|  \\    /   O peration     | Version:  2.1.1                                 |
|   \\  /    A nd           | Web:      www.OpenFOAM.org                      |
|    \\/     M anipulation  |                                                 |
\*---------------------------------------------------------------------------*/
FoamFile
{
    version     2.0;
    format      ascii;
    class       volScalarField;
    location    "0.004600000";
    object      O;
}
// * * * * * * * * * * * * * * * * * * * * * * * * * * * * * * * * * * * * * //

dimensions      [0 0 0 0 0 0 0];

internalField   nonuniform List<scalar> 
12384
(
0.000638235
0.000609607
0.000644579
0.000650296
0.000663628
0.000647499
0.000638363
0.000629608
0.000652729
0.000729138
0.000887401
0.00125643
0.00201211
0.000492706
0.000210426
0.000265084
0.000217276
0.000188032
0.000158583
0.000151352
0.000135964
0.000138128
0.000128476
0.000137847
0.000126886
0.000135992
0.000127693
0.000132213
0.00012818
0.000131084
0.000130294
0.000132899
0.000133976
0.000136565
0.000138095
0.000142008
0.000147468
0.000155608
0.000194164
0.000250015
0.000107847
0.000103873
0.000169128
0.000201653
0.000157602
7.86215e-05
7.3969e-05
8.39341e-05
9.40696e-05
0.000115619
0.000127357
0.000152079
0.000174438
0.000195831
0.000216178
0.000225111
0.000224117
0.000199275
0.000190081
0.000180216
0.000180308
0.000183206
0.000187559
0.000194979
0.000205265
0.000227199
0.000243762
0.000280578
0.000293046
0.000329068
0.000385304
0.000404658
0.000357803
0.000247249
6.14616e-05
2.80823e-05
5.51509e-05
6.53672e-05
9.71557e-05
0.000110823
0.000121531
0.000129346
0.000136317
0.000142108
0.00015237
0.000155416
0.000159714
0.000157913
0.000156768
0.000147247
0.000154906
0.000133282
0.000147209
0.000130679
0.000135782
0.000148268
0.000167078
0.000186116
0.000200659
0.000201581
0.000244885
0.000328121
0.000338881
0.000340901
0.000122531
5.37589e-05
2.79283e-05
2.27621e-05
2.27819e-05
2.3511e-05
2.56828e-05
2.91072e-05
3.33008e-05
2.73144e-05
4.45366e-05
5.95361e-05
7.34174e-05
8.75919e-05
9.21064e-05
9.77526e-05
0.000103279
0.0001046
0.000106051
0.000103705
9.2624e-05
7.80216e-05
6.0316e-05
3.23371e-05
5.87349e-05
0.000258082
0.000296665
0.000297087
0.000289218
0.000281751
0.000153998
2.15682e-05
1.44425e-05
2.59249e-05
6.56238e-05
6.70644e-05
4.80156e-05
4.91479e-05
4.49778e-05
3.68215e-05
2.82122e-05
3.43879e-05
2.11392e-05
1.66423e-05
4.97525e-05
4.84172e-05
4.66085e-05
4.57724e-05
4.35846e-05
3.88159e-05
3.73107e-05
1.18635e-05
1.17172e-05
1.98289e-05
1.92023e-05
2.30583e-05
5.82713e-05
0.000110145
0.000252597
0.000343154
0.000145789
6.45841e-05
1.39392e-05
9.71423e-06
1.88304e-05
5.76249e-05
9.34018e-05
9.2463e-05
8.29851e-05
8.22087e-05
9.97435e-05
0.000110329
0.000110853
0.000129122
0.000137399
0.000142807
0.000147348
0.000151281
0.000158322
0.000157729
0.000164518
0.000169206
0.000170282
0.000176676
0.000175641
0.000180115
0.000181444
0.000181677
0.000143524
0.000182751
0.000282264
0.000402571
5.58202e-05
4.09187e-05
4.1482e-05
4.6557e-05
2.47261e-05
3.63718e-05
3.12563e-05
4.09402e-05
3.74241e-05
3.5928e-05
3.2248e-05
2.97345e-05
3.26721e-05
2.77244e-05
3.00442e-05
2.37704e-05
2.16582e-05
2.08351e-05
1.85571e-05
1.27113e-05
1.38283e-05
1.72383e-05
1.71866e-05
1.69891e-05
1.85928e-05
1.28663e-05
4.51426e-05
4.786e-05
9.5315e-05
0.00015881
3.00007e-06
2.10207e-06
4.06145e-06
3.12208e-06
7.02267e-06
9.00872e-06
1.01442e-05
1.0456e-05
8.46869e-06
8.56884e-06
7.83221e-06
7.60428e-06
7.15234e-06
6.7532e-06
5.413e-06
4.40294e-06
3.59444e-06
4.46548e-06
4.21611e-06
3.02224e-06
2.7243e-06
8.47799e-07
1.65272e-06
1.14487e-06
7.15594e-07
1.0424e-06
8.69023e-07
2.00115e-06
0.000339647
0.000348226
0.000263997
0.000270229
0.000230627
0.000129452
7.11195e-05
2.90782e-05
1.28783e-05
5.13289e-06
7.36869e-06
6.83002e-06
6.78697e-06
7.25009e-06
8.06369e-06
3.31282e-06
4.25436e-06
2.01345e-06
4.67118e-06
4.3087e-06
4.86901e-06
5.37059e-06
3.85767e-06
3.07294e-06
2.62513e-06
5.17371e-06
6.11009e-06
8.77743e-06
1.06458e-05
1.42848e-05
6.07764e-05
4.9914e-06
5.14778e-06
3.01029e-06
2.35069e-06
1.94252e-06
2.89537e-06
3.90235e-06
1.44853e-06
3.32169e-06
2.89746e-06
3.80638e-06
3.17423e-06
3.99355e-06
3.93165e-06
3.19027e-06
4.67363e-06
3.71764e-06
4.09924e-06
5.20032e-06
4.35845e-06
5.88803e-06
7.37482e-06
1.31288e-05
1.80585e-05
1.11247e-05
2.94488e-06
5.5174e-06
8.58698e-06
1.09596e-05
7.29675e-05
1.48282e-05
9.06164e-07
4.09188e-07
8.76233e-07
1.519e-06
6.22908e-07
2.77764e-06
3.84459e-06
4.06888e-06
4.4513e-06
4.1122e-06
4.05176e-06
4.20728e-06
3.86631e-06
4.17478e-06
3.38214e-06
3.6174e-06
3.63283e-06
3.75018e-06
3.66496e-06
3.73733e-06
4.02706e-06
4.61562e-06
5.73128e-06
2.132e-06
5.17975e-06
1.42706e-05
3.87414e-05
3.14105e-05
8.37756e-06
1.24979e-05
1.92349e-05
6.07495e-05
5.21973e-05
1.24365e-06
2.06835e-07
2.88518e-07
3.50472e-07
3.1846e-07
2.4279e-07
2.33136e-07
2.34102e-07
2.22542e-07
2.09724e-07
1.76738e-07
2.51499e-07
2.77536e-07
1.17039e-07
4.07905e-07
6.74493e-07
1.39383e-06
2.64065e-06
5.02654e-06
1.0788e-05
7.37117e-05
0.000143389
4.31507e-05
2.03678e-05
2.82509e-05
0.000703558
0.000811616
0.000896464
0.000925638
0.000922388
0.000917926
0.000888874
0.000743407
0.000628071
0.000666605
0.000756848
0.00107517
0.00173862
0.000860343
0.000206284
0.000224666
0.00016489
0.000145893
0.000144119
0.000154532
0.000167421
0.000182902
0.000183476
0.000187269
0.000176369
0.000171929
0.000164823
0.000166407
0.000163784
0.000164128
0.00016486
0.000169488
0.000169188
0.000172125
0.000172903
0.000174341
0.000171558
0.000166748
0.000183033
0.000235375
0.000187681
0.000125995
0.000119358
0.000154456
0.000156331
7.65956e-05
8.6231e-05
0.000125954
0.000163586
0.00020866
0.000243159
0.00025656
0.000260833
0.000255471
0.000210943
0.000101854
4.90952e-05
5.35719e-05
5.74309e-05
6.75267e-05
7.51276e-05
0.000101344
0.000118531
0.000127373
0.000137153
0.000146155
0.000172403
0.000213726
0.000268086
0.000305139
0.000361848
0.000404949
0.000426349
0.000349484
5.43796e-05
5.00109e-05
6.9051e-05
0.000131841
0.000144792
0.000153445
0.000161942
0.000168712
0.000181444
0.000191188
0.000194752
0.000195747
0.000191837
0.000184846
0.000174885
0.000168195
0.000156328
0.000148854
0.000143917
0.000142688
0.000146398
0.000164815
0.000180972
0.000193394
0.000199134
0.000203236
0.000219855
0.000270073
0.000321084
0.000317644
0.000154617
8.15702e-05
2.69217e-05
1.41668e-05
1.2497e-05
1.64862e-05
2.57e-05
3.65687e-05
6.44838e-05
0.000106421
0.000152098
0.000197345
0.000238728
0.000252191
0.000259388
0.000258771
0.00025426
0.000251931
0.000244747
0.000248219
0.000243993
0.000234165
0.000183146
9.54152e-05
5.80913e-05
0.00013498
0.000275511
0.00030215
0.0002977
0.000290267
0.000115734
2.08004e-05
2.62662e-05
5.63525e-05
4.07103e-05
2.79253e-05
1.6907e-05
2.0039e-05
2.35e-05
2.45305e-05
3.08121e-05
3.6861e-05
4.16728e-05
4.64761e-05
5.39243e-05
5.76673e-05
5.7459e-05
5.3821e-05
5.43119e-05
4.88869e-05
5.15476e-05
4.81986e-05
4.36635e-05
4.38936e-05
3.74488e-05
3.59073e-05
2.92043e-05
6.12167e-05
0.000116035
0.000235016
0.000130752
3.17047e-05
1.19503e-05
1.56452e-05
5.54754e-05
7.88374e-05
3.04512e-05
3.63485e-05
4.42185e-05
0.000103383
0.000167119
0.000175369
0.000170078
0.00017402
0.000175916
0.000169374
0.000151882
0.000132755
0.000121313
0.000124537
0.000136226
0.000155415
0.000172932
0.00017907
0.000182205
0.000181978
0.000184623
0.000183232
0.000164429
0.000175867
0.000424658
0.000118547
4.66371e-05
4.05023e-05
3.58318e-05
3.24397e-05
9.40105e-06
2.32497e-05
3.63566e-05
5.20474e-05
4.99479e-05
5.85883e-05
6.02724e-05
6.12199e-05
6.11758e-05
6.04202e-05
5.96464e-05
5.37502e-05
5.31036e-05
4.59992e-05
4.28843e-05
3.89747e-05
3.72958e-05
3.06902e-05
2.55067e-05
1.96015e-05
1.45243e-05
1.99429e-05
3.8788e-05
5.25633e-05
0.000249808
1.78742e-05
3.5278e-06
4.58597e-06
1.0579e-05
8.55098e-06
5.41387e-06
5.60848e-06
1.39217e-06
3.36011e-06
4.53923e-06
1.20442e-05
1.84712e-05
2.17679e-05
2.88877e-05
2.68501e-05
2.49336e-05
1.60291e-05
1.11918e-05
1.105e-05
7.3437e-06
3.88601e-06
4.34167e-06
3.00918e-06
1.14143e-06
1.87899e-06
1.40909e-06
1.39567e-06
7.0195e-07
1.33771e-06
0.000401598
0.000327858
0.000323716
0.000297557
0.00014726
2.39878e-05
1.85438e-06
3.71589e-06
2.23951e-06
3.36967e-06
5.50734e-06
5.96147e-06
1.37653e-05
1.42617e-05
2.27323e-05
2.77796e-05
2.45002e-05
1.11735e-05
1.15633e-05
8.54546e-06
5.98554e-06
6.32206e-06
5.95248e-06
6.46959e-06
5.74675e-06
4.46341e-06
4.0706e-06
8.339e-06
8.52125e-06
7.88338e-06
2.55943e-05
6.26407e-06
2.90911e-06
3.56486e-06
2.133e-06
2.22057e-06
3.3786e-06
2.91731e-06
2.2608e-06
2.61204e-06
2.88628e-06
3.17627e-06
5.05708e-06
4.01981e-06
6.73887e-06
8.74857e-06
9.27108e-06
1.38727e-05
1.47414e-05
1.50444e-05
1.3596e-05
1.19117e-05
8.91862e-06
8.57135e-06
4.24376e-06
1.84528e-05
9.23357e-06
4.2711e-06
1.91755e-06
4.96025e-06
2.34111e-05
1.57493e-06
7.31271e-07
7.4674e-07
1.9869e-06
2.11475e-06
7.07579e-06
9.00561e-06
8.88185e-06
1.47929e-05
1.89822e-05
1.78559e-05
1.44524e-05
5.14082e-06
7.90073e-06
5.12979e-06
4.38726e-06
3.33724e-06
3.14152e-06
2.0452e-06
2.60515e-06
3.4614e-06
5.02885e-06
1.70218e-06
5.45899e-06
5.51665e-06
6.82078e-06
7.4197e-06
6.90311e-05
4.93816e-05
1.02666e-05
1.73422e-05
6.46805e-05
7.02155e-05
1.31201e-06
4.79665e-07
3.29196e-07
2.91397e-07
1.95405e-07
6.45373e-08
2.3442e-07
2.39834e-07
2.39107e-07
1.83036e-07
1.52468e-07
1.17665e-07
8.83355e-08
9.5322e-08
6.9799e-08
9.4817e-08
1.26707e-07
7.96587e-08
3.24994e-07
6.29502e-07
1.08843e-06
1.73894e-06
7.07256e-06
0.000197342
3.23115e-05
2.62655e-05
0.00101296
0.000913156
0.000843672
0.000818012
0.000827658
0.000824913
0.00084052
0.000902653
0.000921167
0.000751293
0.000755305
0.000906106
0.00149081
0.00111591
0.000193449
0.000183924
0.000154903
0.000183144
0.000213206
0.000249596
0.000239114
0.000225772
0.00019806
0.000176562
0.000165733
0.000154554
0.000158249
0.000160718
0.000172288
0.000183605
0.000190288
0.000200792
0.000205398
0.000212656
0.000216585
0.000218932
0.000212058
0.000195311
0.000189694
0.000221216
0.00024533
0.000205207
0.000160351
0.00014203
0.000145939
8.39461e-05
0.000141209
0.000215885
0.00025675
0.000266259
0.000265506
0.000254006
0.000148864
5.1721e-05
2.31773e-05
1.33022e-05
1.71323e-05
2.77974e-05
4.34389e-05
7.21465e-05
0.000144904
0.000185561
0.000193923
0.00018599
0.000171434
0.000156397
0.00014477
0.00017247
0.000216823
0.000278801
0.000326502
0.000385466
0.000440932
0.000434184
4.93006e-05
5.84846e-05
0.000126488
0.000148624
0.000146561
0.000154825
0.000169602
0.000188936
0.000197923
0.000187684
0.000183761
0.000180071
0.000177621
0.000160144
0.000135418
0.000120177
0.000109895
9.85348e-05
0.000105233
0.000111608
0.000122093
0.000146773
0.000173216
0.000202965
0.000217149
0.000214011
0.00021255
0.000240729
0.000290594
0.000299281
0.000184342
8.75837e-05
1.7248e-05
5.48279e-06
6.55023e-06
1.71533e-05
3.47034e-05
7.59151e-05
0.000146491
0.000201893
0.000252534
0.000288971
0.000309036
0.000318233
0.000321485
0.000319071
0.000316617
0.000310877
0.00030734
0.000313939
0.000305535
0.000300759
0.000270535
0.000199903
9.09352e-05
8.45666e-05
0.000183505
0.000278941
0.000304873
0.000301793
8.76336e-05
2.65362e-05
5.41125e-05
3.29447e-05
2.23924e-05
1.47208e-05
1.61163e-05
1.45987e-05
2.28608e-05
2.633e-05
3.65981e-05
3.83596e-05
3.9086e-05
4.32142e-05
4.47629e-05
4.6062e-05
5.02259e-05
4.95281e-05
4.75469e-05
5.36131e-05
5.19947e-05
5.29505e-05
5.54893e-05
5.47973e-05
4.71501e-05
3.7395e-05
3.67183e-05
2.96012e-05
8.03015e-05
0.000176708
9.88081e-05
1.70095e-05
5.62552e-06
2.32082e-05
5.85302e-05
2.91958e-05
1.85904e-05
3.53862e-05
0.000112967
0.000174558
0.000157968
0.000138266
0.000137974
0.000159484
0.000173189
0.000134067
8.40734e-05
6.83981e-05
5.95478e-05
6.65964e-05
7.92794e-05
0.000104895
0.000138837
0.00017636
0.000183317
0.000184244
0.00018794
0.000186434
0.000182379
0.000171945
0.000298431
5.47642e-05
3.73108e-05
2.91131e-05
1.87591e-05
1.75198e-05
1.15232e-05
2.35357e-05
2.47143e-05
5.2424e-05
6.77987e-05
7.48487e-05
8.96464e-05
0.000107412
0.00010501
9.47855e-05
8.52991e-05
7.88073e-05
6.6914e-05
4.89785e-05
5.99921e-05
5.50789e-05
5.31736e-05
4.91474e-05
4.5562e-05
3.40829e-05
2.94206e-05
2.62243e-05
3.95497e-05
5.72975e-05
3.0067e-05
4.05258e-06
2.24429e-06
8.51473e-06
3.74567e-06
8.6431e-06
8.76422e-06
4.47982e-06
9.87874e-06
1.9612e-05
3.50769e-05
3.27629e-05
6.36151e-05
8.54542e-05
9.73842e-05
0.000103653
0.000109129
9.45309e-05
7.24195e-05
3.58194e-05
2.3815e-05
8.66748e-06
6.94707e-06
2.32746e-06
3.85408e-06
2.60198e-06
3.11003e-06
2.82016e-06
1.5765e-06
3.80162e-07
0.000391008
0.000367024
0.000357385
0.00013423
1.74075e-05
3.56473e-06
1.191e-06
3.5808e-07
3.76745e-06
2.57955e-06
2.36757e-06
2.77501e-05
0.000144535
0.000209833
0.000212669
0.000203966
0.000189378
0.000169497
0.000105052
3.01867e-05
1.13838e-05
9.08828e-06
8.12039e-06
8.54328e-06
8.67028e-06
7.59854e-06
5.58393e-06
6.82483e-06
8.60758e-06
1.23052e-05
1.4542e-05
9.62347e-06
7.33301e-06
3.78839e-06
2.8361e-06
2.53551e-06
8.94865e-07
7.59643e-07
1.21116e-06
2.65302e-06
5.58829e-06
1.07945e-05
2.04035e-05
2.34592e-05
6.69153e-05
9.30087e-05
0.000104105
0.000116782
0.000113395
0.000108841
9.75639e-05
7.4701e-05
4.4425e-05
2.88542e-05
2.39242e-05
2.26228e-05
1.57803e-05
6.25981e-06
3.28219e-06
3.52532e-06
1.71268e-06
8.88757e-07
1.31399e-06
4.09363e-06
8.28111e-06
9.28278e-06
1.69632e-05
7.90964e-05
0.000143045
0.000160477
0.000164521
0.000161699
0.000141425
9.02961e-05
2.78718e-05
1.19589e-05
5.82661e-06
3.16635e-06
5.76988e-07
2.50339e-06
1.5014e-06
3.97135e-06
6.67391e-06
1.31197e-05
1.01364e-05
1.0537e-05
1.14897e-05
6.79251e-06
9.94254e-06
0.000130615
1.22668e-05
2.94277e-05
0.000184382
2.05026e-06
6.75797e-08
2.96461e-07
2.18499e-07
2.74426e-07
1.85347e-07
2.46006e-07
3.4439e-07
4.29276e-07
4.86536e-07
4.74304e-07
4.41555e-07
2.54431e-07
2.00226e-07
2.4933e-07
1.79858e-07
1.64493e-07
1.45967e-07
2.5734e-07
5.50886e-07
1.60203e-06
1.3707e-06
4.55406e-06
4.18543e-06
1.78423e-05
7.98473e-05
2.45386e-05
0.000968233
0.000820329
0.000816718
0.000905181
0.000957505
0.00094595
0.000848205
0.000817473
0.000907416
0.000910431
0.000838336
0.00095097
0.00143184
0.0012094
0.000181527
0.000179147
0.000203062
0.000254796
0.000270881
0.000248923
0.000222698
0.000187863
0.000167752
0.00015389
0.00015433
0.000164093
0.000205316
0.000255939
0.00030368
0.000351437
0.000375945
0.00037113
0.000359023
0.000331778
0.000309524
0.000289666
0.000270006
0.000241532
0.000210909
0.000219627
0.000262229
0.000294426
0.000229629
0.000157894
0.000145498
0.000102544
0.00017377
0.000240039
0.000255031
0.00025718
0.000208591
8.75088e-05
3.09005e-05
1.85928e-05
1.67555e-05
1.78159e-05
2.07901e-05
2.84207e-05
6.27047e-05
0.000189184
0.000257364
0.00025753
0.000248796
0.000233526
0.000207946
0.000175452
0.000154628
0.000148964
0.000188623
0.000251416
0.000305324
0.00036833
0.000421602
0.000444087
3.54834e-05
6.7925e-05
0.000138112
0.000136183
0.000137973
0.000139443
0.000142435
0.000166826
0.000196528
0.000185404
0.000175403
0.000174907
0.000164633
0.000128519
0.00010628
8.61188e-05
8.39818e-05
7.7486e-05
7.73544e-05
7.84576e-05
9.0731e-05
0.000116536
0.000144616
0.000186516
0.000221372
0.000229985
0.000218311
0.000221013
0.000261149
0.000287942
0.000194334
7.09348e-05
8.86831e-06
9.76203e-06
9.21397e-06
2.61048e-05
7.06532e-05
0.000158792
0.000229607
0.000275511
0.000289508
0.000277658
0.000258579
0.000237241
0.000218841
0.000206821
0.000199096
0.000201185
0.000218623
0.000258671
0.000296078
0.000334727
0.000305827
0.000255468
0.000141416
7.97165e-05
0.000117831
0.000231317
0.000290648
0.00029173
7.36559e-05
3.15316e-05
4.24544e-05
2.07722e-05
1.39534e-05
1.26349e-05
1.23304e-05
1.76839e-05
2.09775e-05
2.26653e-05
2.47268e-05
2.04981e-05
2.27588e-05
2.40609e-05
3.35008e-05
3.85335e-05
3.82828e-05
4.07206e-05
4.0404e-05
4.06847e-05
4.61556e-05
4.70617e-05
5.80147e-05
6.02682e-05
5.12013e-05
3.8894e-05
3.10631e-05
3.33127e-05
5.50745e-05
0.000124266
5.95087e-05
1.14724e-05
2.44888e-05
4.89116e-05
2.88647e-05
1.45698e-05
1.86604e-05
2.05335e-05
0.000101587
0.000170851
0.00015373
0.000125366
0.000124747
0.000150752
0.000173013
0.000125332
9.22613e-05
8.73298e-05
0.000103648
0.000118239
0.000146524
0.000162469
0.000176761
0.000178902
0.000186081
0.000187222
0.000190367
0.000189774
0.000185737
0.000172174
0.00014918
4.19543e-05
2.27566e-05
1.48555e-05
9.31188e-06
1.00078e-05
1.17289e-05
1.22083e-05
1.87376e-05
6.45386e-05
0.000101302
0.000151182
0.000176572
0.000145715
0.000112306
5.80539e-05
3.58394e-05
3.96722e-05
3.70782e-05
3.58156e-05
3.53501e-05
3.36863e-05
3.59101e-05
3.78813e-05
4.3966e-05
4.3877e-05
3.89079e-05
3.77445e-05
4.93694e-05
6.31561e-05
1.00058e-05
1.86862e-06
4.52491e-06
4.6561e-06
3.52715e-06
4.1088e-06
8.36062e-06
1.17198e-05
2.81221e-05
4.08341e-05
8.0617e-05
0.000106614
0.000107708
0.000121421
0.00013326
0.00012665
0.000146054
0.000171705
0.00017542
0.000133221
8.62706e-05
2.92589e-05
1.42096e-05
8.97879e-06
5.10324e-06
6.82959e-06
3.45866e-06
9.14204e-06
2.7289e-06
1.16573e-06
0.000408687
0.000390224
0.000254857
1.34323e-05
4.33941e-06
1.5462e-06
2.28917e-06
3.9499e-06
9.5482e-06
3.69455e-05
0.000117322
0.000220636
0.000234183
0.000215487
0.000202109
0.000188472
0.000169603
0.000159752
0.000169042
0.000169842
6.23156e-05
1.86655e-05
7.66772e-06
1.0769e-05
1.60437e-05
1.55397e-05
6.46699e-06
6.27009e-06
8.96673e-06
1.08307e-05
6.79361e-06
1.28775e-05
9.24953e-06
2.0074e-06
2.19945e-06
1.46206e-06
8.94732e-07
1.4163e-06
3.29453e-06
7.82339e-06
2.35323e-05
7.93065e-05
0.000131217
0.000160113
0.000170523
0.000159719
0.000177251
0.000163235
0.000178456
0.000176639
0.000174197
0.000165454
0.00013361
9.36192e-05
4.9789e-05
9.05304e-06
1.91886e-05
6.79583e-06
4.02426e-06
3.09996e-06
1.15574e-06
9.3349e-07
3.69894e-06
2.29115e-06
2.24987e-05
7.17522e-05
0.000154849
0.000167994
0.000162656
0.000157468
0.00015754
0.000161226
0.000169498
0.000159872
0.000103567
3.46513e-05
8.73786e-06
2.14511e-06
1.506e-06
8.56304e-07
2.72021e-06
3.43489e-06
1.40379e-05
4.1803e-05
8.72649e-05
5.1049e-05
1.93194e-05
4.95333e-06
6.57605e-06
0.000186722
1.43241e-05
5.98328e-05
1.9194e-05
2.0707e-07
2.84397e-07
2.06254e-07
3.02965e-07
3.65648e-07
4.93516e-07
5.18157e-07
6.45274e-07
9.02838e-07
1.01957e-06
1.1017e-06
1.03506e-06
6.47132e-07
3.22249e-07
4.21939e-07
1.83876e-07
1.84948e-07
9.08704e-08
3.89226e-07
1.98991e-06
1.28428e-05
4.15704e-06
5.05766e-06
4.62781e-06
5.99557e-06
0.000142883
2.31669e-05
0.00092974
0.000779948
0.000918367
0.00100155
0.000988316
0.00102993
0.000935199
0.000805364
0.000881859
0.000959901
0.000932266
0.00104993
0.00141831
0.00122795
0.000175201
0.000201161
0.000251516
0.000265611
0.00025189
0.00023242
0.000219454
0.000202275
0.000188622
0.000170918
0.000187423
0.000232468
0.000315714
0.000438308
0.000507992
0.000543074
0.000566168
0.00056263
0.000547522
0.00051861
0.000464467
0.000411117
0.000367178
0.000305528
0.000250199
0.000230979
0.000272231
0.000329749
0.000300225
0.000176827
0.000139746
0.000118516
0.000173735
0.000219947
0.000217342
0.000152894
5.56283e-05
2.16309e-05
1.63339e-05
1.44082e-05
1.60799e-05
1.90721e-05
2.54378e-05
3.97945e-05
0.000130295
0.0002676
0.000261527
0.000249385
0.00023834
0.00021808
0.000176475
0.000156563
0.00014218
0.000138001
0.000172655
0.000236712
0.000290979
0.000346181
0.00041954
0.000454474
3.86299e-05
5.9566e-05
0.000131577
0.000122266
0.000100186
5.50907e-05
5.55952e-05
9.91452e-05
0.00015429
0.000185446
0.000178127
0.000175525
0.000156218
0.000111301
8.73352e-05
7.51559e-05
7.57142e-05
7.12895e-05
8.24436e-05
8.79267e-05
9.64664e-05
0.000110505
0.000135425
0.000170889
0.000214431
0.000239031
0.000225579
0.000212605
0.000238041
0.000261872
0.000173968
2.38199e-05
1.00245e-05
9.71703e-06
8.79716e-06
3.45976e-05
0.000135658
0.000223001
0.000267725
0.000266208
0.0002406
0.000204666
0.000177792
0.000150543
0.000151393
0.000144458
0.000141702
0.000136692
0.000140469
0.000159672
0.00020861
0.000281162
0.000315162
0.000275422
0.000181035
7.96939e-05
8.97595e-05
0.000177329
0.000259556
0.000274939
6.73578e-05
3.79042e-05
2.99485e-05
1.3709e-05
1.13179e-05
9.24847e-06
1.13628e-05
1.28038e-05
1.65739e-05
1.37435e-05
1.15853e-05
9.89418e-06
1.14144e-05
2.44707e-05
3.09891e-05
3.47441e-05
3.31535e-05
3.48869e-05
4.00269e-05
4.05287e-05
4.34597e-05
5.06337e-05
5.02219e-05
5.74715e-05
4.93246e-05
3.69088e-05
2.79037e-05
2.78969e-05
4.52662e-05
8.7837e-05
2.55918e-05
1.1403e-05
3.33271e-05
3.93954e-05
1.55581e-05
1.08822e-05
1.44306e-05
9.48111e-06
3.52673e-05
0.000101101
0.000169701
0.000127947
0.000115269
0.000131921
0.000173395
0.000164363
0.000151561
0.000168541
0.000177531
0.000177768
0.000170205
0.000170299
0.000169847
0.000172478
0.000178759
0.000181763
0.00018623
0.000184688
0.000188903
0.000179621
0.000105444
2.48094e-05
1.43606e-05
8.34098e-06
6.00079e-06
3.56995e-06
8.64666e-06
1.39405e-05
1.2432e-05
6.47672e-05
0.000145584
0.000177496
0.000131359
4.07526e-05
2.768e-05
1.59042e-05
1.28487e-05
9.77706e-06
8.29448e-06
6.67475e-06
8.00345e-06
9.43374e-06
1.078e-05
1.31057e-05
1.94044e-05
3.38215e-05
4.53067e-05
4.44183e-05
5.31147e-05
7.32799e-05
5.7783e-06
1.40203e-06
2.79784e-06
2.66557e-06
2.73708e-06
5.28225e-06
1.0611e-05
8.21324e-06
5.03641e-05
8.98492e-05
0.00010331
8.98155e-05
8.596e-05
9.0298e-05
8.50672e-05
0.000107577
0.000137429
0.000157591
0.000196423
0.000236012
0.000201037
9.04758e-05
3.1976e-05
1.7258e-05
1.28293e-05
8.41437e-06
5.85633e-05
3.98198e-05
4.20437e-06
1.70042e-06
0.000433336
0.000363263
6.70942e-05
1.61075e-06
1.6195e-06
2.02813e-06
3.17809e-06
1.14428e-05
2.66733e-05
7.69282e-05
0.000192209
0.000226284
0.000242349
0.000232901
0.00022302
0.000206252
0.000189329
0.000181694
0.000169973
0.00017964
0.000145518
3.3688e-05
1.78288e-05
1.79835e-05
2.6045e-05
2.95429e-05
2.125e-05
2.34876e-06
9.26438e-06
1.19461e-05
1.14245e-05
2.02119e-05
7.77108e-06
3.04758e-06
1.53283e-06
7.13873e-07
1.15024e-06
2.1087e-06
1.00425e-05
2.29422e-05
0.000107051
0.000161791
0.000162433
0.000129633
0.00011253
0.000109419
0.000114305
0.000113254
0.000121137
0.000134459
0.00014821
0.000169048
0.000174148
0.000160628
0.000113537
7.18489e-05
3.57632e-05
1.58249e-05
4.6409e-06
2.76427e-06
1.10845e-06
1.13748e-06
7.43169e-06
2.05082e-05
5.63453e-05
0.000108691
0.000141901
0.000147097
0.00014628
0.000155172
0.000163183
0.000162711
0.000144499
0.000116385
9.97044e-05
7.71591e-05
8.85833e-06
1.12109e-06
9.81694e-07
1.24364e-06
2.18415e-06
8.00417e-06
0.000110983
0.00021284
0.000238524
0.000197508
4.49581e-05
8.1085e-06
4.1721e-06
0.000196483
1.6971e-05
0.00011995
4.08656e-06
3.89791e-07
2.12891e-07
2.78127e-07
3.74398e-07
3.85825e-07
7.97843e-07
4.77042e-07
1.75412e-06
1.51279e-06
2.49652e-06
3.30719e-06
1.7602e-06
2.0291e-06
7.15032e-07
7.18148e-07
4.63022e-07
3.50365e-07
1.36003e-07
1.52989e-07
4.36016e-07
1.3433e-05
3.78029e-05
1.50689e-05
6.63936e-06
7.80558e-06
0.000156614
2.11479e-05
0.000903276
0.000793669
0.000977045
0.000858768
0.000867353
0.00103242
0.000942345
0.000827608
0.000894064
0.00102339
0.00105717
0.00115999
0.00143559
0.0012084
0.000174157
0.000230056
0.00026092
0.000247495
0.000237888
0.000223276
0.000238107
0.000239556
0.0002318
0.000198071
0.000205444
0.000278363
0.00039489
0.000494056
0.000564971
0.000575525
0.000583528
0.000604273
0.000614024
0.00060549
0.000587059
0.000536636
0.000474552
0.000394051
0.000298772
0.00025722
0.000277155
0.000362349
0.000339874
0.000201791
0.000144137
0.00012036
0.000139539
0.000146959
0.000113666
5.32325e-05
2.28301e-05
1.71641e-05
1.45432e-05
1.51259e-05
1.23946e-05
3.2144e-05
4.07784e-05
5.34118e-05
0.000206459
0.000263325
0.00024206
0.000250955
0.000235848
0.000202007
0.000152932
0.000132251
0.000126252
0.000130512
0.000166631
0.000226127
0.000286541
0.000349287
0.000419874
0.000432187
3.3014e-05
7.42953e-05
0.000122413
8.96479e-05
5.00745e-05
2.5997e-05
1.7519e-05
3.14584e-05
7.98223e-05
0.000163705
0.000176788
0.000174985
0.000149587
0.000100345
8.01872e-05
6.87875e-05
8.54445e-05
0.00010784
0.000131717
0.000143586
0.000142469
0.000135429
0.00014564
0.000168308
0.00021
0.000238912
0.000233048
0.000208636
0.000220291
0.000240552
9.98319e-05
1.29885e-05
1.15251e-05
9.90707e-06
1.13954e-05
3.42127e-05
0.000157516
0.000240876
0.000254143
0.00022245
0.000179632
0.000158849
0.000145415
0.000148255
0.00015891
0.000170606
0.00017302
0.0001731
0.000155793
0.000152135
0.000161456
0.000228494
0.000289822
0.000267678
0.000181979
8.01196e-05
7.24797e-05
0.000141758
0.000235039
0.000258916
6.36094e-05
3.39881e-05
2.40306e-05
1.26399e-05
8.30331e-06
7.54866e-06
8.1678e-06
1.01668e-05
6.1981e-06
6.86893e-06
4.88963e-06
7.38139e-06
1.23894e-05
2.4872e-05
3.02712e-05
2.48618e-05
3.03941e-05
4.26082e-05
4.23528e-05
4.57515e-05
4.11736e-05
4.23403e-05
5.03419e-05
5.47063e-05
4.80422e-05
3.21219e-05
1.99914e-05
2.67018e-05
3.48603e-05
7.02402e-05
3.5847e-05
1.96102e-05
2.47912e-05
1.96663e-05
9.21696e-06
6.29453e-06
8.1838e-06
1.01596e-05
1.35335e-05
3.51384e-05
0.000138451
0.000154162
0.000117937
0.000126111
0.0001624
0.000168719
0.000169168
0.000175114
0.000170595
0.000160936
0.000164949
0.000163423
0.000170945
0.00016595
0.000158823
0.00015938
0.000169873
0.000171393
0.000186184
0.000178426
7.2383e-05
1.7395e-05
8.7974e-06
4.61666e-06
3.16265e-06
4.18703e-06
4.76515e-06
1.02016e-05
2.6072e-05
5.73047e-05
0.000143453
0.00010984
4.10529e-05
1.76005e-05
1.45416e-05
1.17115e-05
8.21765e-06
6.62e-06
5.63717e-06
3.57028e-06
3.56916e-06
3.35814e-06
3.05489e-06
3.6543e-06
5.91605e-06
1.61571e-05
4.07162e-05
5.33298e-05
9.36219e-05
0.000100662
4.30781e-06
2.38114e-06
1.61884e-06
1.04143e-06
2.55392e-06
3.01107e-06
3.77653e-06
4.21381e-05
9.02837e-05
0.000106542
8.85677e-05
7.26871e-05
6.88774e-05
8.63448e-05
0.000135611
0.00016492
0.000162239
0.00016203
0.000177499
0.000212408
0.000252681
0.000201128
6.05764e-05
3.49532e-05
3.55556e-05
0.000118388
0.000272811
0.000209277
9.79459e-06
1.99111e-06
0.000434053
0.000292457
3.12712e-06
1.981e-06
1.9142e-06
1.91435e-06
1.33865e-05
2.9912e-05
5.99643e-05
0.000107852
0.000202171
0.000215029
0.000237396
0.000224999
0.000191653
0.000150165
0.000126202
0.000141946
0.000180896
0.000185491
0.000166866
5.7808e-05
2.26104e-05
2.52393e-05
5.42752e-05
9.12808e-05
5.52335e-05
1.58094e-05
9.47973e-06
1.23951e-05
1.61532e-05
1.62555e-05
6.28944e-06
9.51092e-07
5.9311e-07
8.00104e-07
2.62111e-06
4.83283e-06
3.08646e-05
0.000100049
0.000155545
0.000135922
9.18373e-05
6.04134e-05
6.53735e-05
9.6142e-05
0.00013332
0.000173937
0.000184464
0.0001825
0.000184036
0.00017793
0.000180949
0.000175574
0.00017089
0.000106789
6.23671e-05
1.88274e-05
6.11671e-06
2.88993e-06
1.26753e-06
3.62354e-06
9.23223e-06
2.40195e-05
2.55128e-05
2.92602e-05
2.59549e-05
1.48979e-05
1.14127e-05
1.44117e-05
1.64431e-05
2.59151e-05
3.12382e-05
1.57909e-05
4.53641e-05
7.99558e-05
2.01948e-05
6.96119e-07
6.66953e-07
1.00151e-06
5.32934e-06
4.81128e-05
0.000218251
0.000191467
0.00021037
0.000239827
8.59136e-05
8.05419e-06
2.71202e-06
0.000185062
1.73919e-05
0.000179126
1.77174e-06
1.66602e-07
2.16135e-07
3.40133e-07
2.98396e-07
7.98223e-07
1.19012e-06
1.21756e-06
4.19305e-06
7.73969e-06
1.09139e-05
1.27999e-05
1.15064e-05
5.78817e-06
1.94931e-06
1.20524e-06
6.28445e-07
3.96219e-07
2.63031e-07
8.66887e-08
2.38571e-07
5.70252e-06
5.37355e-05
8.6383e-06
8.60111e-06
1.33206e-05
0.000136535
1.90336e-05
0.000894178
0.000826898
0.000889092
0.000669385
0.000794295
0.00105636
0.000955616
0.000874186
0.0010022
0.00111966
0.0012277
0.00129603
0.00143165
0.00121768
0.000195089
0.000246718
0.000249463
0.00022462
0.00019912
0.000174941
0.000211463
0.000262947
0.000265063
0.000219484
0.000220148
0.000280783
0.000421863
0.000516554
0.000526079
0.000539222
0.000517867
0.000520553
0.000573768
0.00062003
0.00064331
0.000607637
0.000565632
0.000480568
0.000367366
0.000279819
0.000299846
0.000359031
0.000373583
0.000216861
0.000146326
0.000115442
9.45229e-05
6.53174e-05
5.28194e-05
2.79851e-05
1.99367e-05
1.59371e-05
1.50549e-05
1.10004e-05
4.23093e-05
5.48722e-05
5.05043e-05
7.87523e-05
0.000260646
0.000247439
0.000241573
0.000257735
0.000239355
0.000204625
0.000136842
0.000117818
0.000127806
0.000141033
0.000177716
0.000240588
0.000284313
0.000347482
0.000442466
0.000456065
2.69461e-05
7.96424e-05
0.000107214
5.94844e-05
1.77602e-05
9.14229e-06
8.14713e-06
1.21425e-05
2.71783e-05
9.65757e-05
0.000172607
0.000174042
0.000145025
9.55683e-05
7.63555e-05
7.70163e-05
0.000110184
0.000157475
0.000203141
0.000224745
0.000212442
0.000188179
0.000177154
0.000185761
0.00021478
0.000240926
0.000232884
0.00020318
0.000199291
0.000212958
2.33702e-05
9.64325e-06
1.20118e-05
1.18236e-05
1.37942e-05
3.5847e-05
0.000158193
0.000219526
0.000217724
0.00018587
0.000161266
0.000154819
0.000166275
0.000183538
0.000200041
0.000206325
0.000201614
0.000190927
0.000185487
0.000158672
0.000164969
0.000220116
0.000245992
0.000230839
0.000151545
7.0342e-05
5.23935e-05
0.00011969
0.000207571
0.000235217
5.9999e-05
3.28918e-05
2.12186e-05
1.07268e-05
6.58267e-06
5.60305e-06
5.81745e-06
7.05188e-06
7.8315e-06
7.55731e-06
8.75069e-06
8.96589e-06
9.00454e-06
2.16025e-05
2.48791e-05
1.84826e-05
2.37683e-05
3.9426e-05
4.04709e-05
4.29517e-05
4.18395e-05
4.5387e-05
4.94581e-05
4.86589e-05
4.27086e-05
2.54965e-05
1.63521e-05
2.21897e-05
3.12258e-05
7.13775e-05
3.28965e-05
2.44254e-05
3.51458e-05
1.34089e-05
6.84651e-06
2.82305e-06
5.40193e-06
5.47261e-06
6.67924e-06
1.34166e-05
2.92065e-05
0.000177815
0.000127452
0.000115974
0.000150614
0.00017281
0.000171751
0.000175972
0.00015998
0.000158598
0.000178781
0.000175302
0.000135724
0.000151095
0.000184759
0.000169085
0.000152917
0.000156438
0.000175913
0.000179449
4.96404e-05
6.08331e-06
4.78283e-06
2.83959e-06
1.72935e-06
2.92971e-06
1.72696e-06
6.30539e-06
1.71461e-05
6.00599e-05
9.51446e-05
5.05876e-05
1.91579e-05
1.38331e-05
2.14279e-05
1.71663e-05
8.51965e-06