/*--------------------------------*- C++ -*----------------------------------*\
| =========                 |                                                 |
| \\      /  F ield         | OpenFOAM: The Open Source CFD Toolbox           |
|  \\    /   O peration     | Version:  2.1.1                                 |
|   \\  /    A nd           | Web:      www.OpenFOAM.org                      |
|    \\/     M anipulation  |                                                 |
\*---------------------------------------------------------------------------*/
FoamFile
{
    version     2.0;
    format      ascii;
    class       volScalarField;
    location    "0.004600000";
    object      T;
}
// * * * * * * * * * * * * * * * * * * * * * * * * * * * * * * * * * * * * * //

dimensions      [0 0 0 1 0 0 0];

internalField   nonuniform List<scalar> 
12384
(
3058.47
3062.21
3068.23
3071.66
3076.86
3075.75
3074.67
3071.14
3071.33
3072.74
3076.63
3065.89
3002.34
2728.3
2688.04
2754.6
2742.63
2731.84
2705.91
2702.06
2683.14
2686.58
2672.68
2682.68
2667
2677.06
2664.07
2669.98
2662.94
2668.44
2667.69
2673.26
2674.83
2681.47
2686.48
2695.21
2703.15
2709.55
2732.4
2710.78
2526.83
2472.25
2515.38
2537.83
2966.61
2935.16
2926.06
2935.46
2936.95
2947.1
2946.65
2952.66
2956.16
2949.27
2940.97
2939.37
2940.92
2947.54
2950.37
2949.15
2948.75
2947.83
2947.07
2947.54
2945.22
2947.36
2944.42
2946.86
2953.57
2989.5
3040.29
2975.72
2834.8
2704.59
2889.92
2874.25
2864.85
2866.6
2863.49
2861.19
2861.89
2863.78
2866.42
2868.84
2870.09
2871.38
2870.65
2869.48
2867.71
2861.06
2864.82
2848.65
2856.25
2841.97
2846.71
2856.24
2875.45
2893.46
2910.3
2920.15
2914.56
2879.46
2883.36
2888.67
2810.63
2833.32
2849.72
2841.54
2845.58
2844.07
2849.23
2850.85
2853.6
2854.63
2851.45
2846.22
2841.44
2833.66
2826.9
2816.63
2804.64
2796.92
2796.73
2802.47
2822.21
2835.64
2847.73
2856.15
2848.64
2712.16
2608.9
2621.93
2646.02
2652.3
2698.49
2767.91
2799.08
2800.71
2818.57
2789.64
2799.97
2774.8
2781.69
2771.74
2787.48
2797.81
2815.33
2830.38
2837.06
2842.84
2842.18
2835.76
2826.36
2813.22
2805.81
2799.81
2800.49
2787.83
2792.38
2790.36
2820.88
2891.7
2910.14
2865.68
2705.68
2766.52
2761.08
2744.97
2745.06
2740.01
2724.53
2723.06
2725.54
2729.48
2734.31
2739.32
2731.33
2720.49
2714.32
2709.15
2701.62
2698.95
2685.41
2686.76
2666.78
2655.96
2653.97
2621.79
2628.93
2597.53
2595.53
2599.06
2646.92
2615.85
2484.23
2720.63
2814.9
2819.96
2824.1
2824.02
2818.86
2816.67
2800.47
2807.44
2785.59
2779.76
2776.3
2760.95
2764.09
2747.08
2748.78
2729.04
2730.98
2708.4
2710.7
2697.39
2695.52
2685.24
2681.56
2675.56
2678.65
2695.97
2747.9
2755.54
2550.88
2693.36
2757.73
2673.43
2719.26
2754.98
2780.57
2794.37
2802.42
2805.35
2806.72
2807.04
2803.45
2802.75
2797.65
2784.33
2775.05
2755.39
2747.17
2725.9
2717.82
2697.25
2675.68
2656.24
2631.96
2616.14
2609.35
2601.74
2614.16
2747.58
2741.93
2912
2931.94
2929.2
2930.77
2928.6
2904.05
2864.86
2831.57
2812.55
2801.51
2802.2
2804.95
2810.17
2811.52
2811.48
2801.88
2792.82
2781.16
2779.59
2778.22
2768.22
2769.84
2762.21
2743.84
2744.6
2746.1
2772.91
2772.56
2778.24
2915.32
2836.17
2817.93
2789.88
2770.02
2767.92
2788.6
2809.62
2819.74
2820.85
2819.88
2817.26
2814.71
2804.85
2806.5
2784.07
2811.12
2759.11
2795.32
2778.4
2824.01
2823.02
2866.85
2889.33
2912.67
2900.43
2794.63
2804.46
2852.76
2862.77
2457.92
2847.01
2710.19
2695.46
2724.77
2770.49
2805.94
2822.81
2837.73
2837.23
2841.74
2840.02
2837.71
2838.3
2832.88
2834.58
2833.19
2832.34
2833.81
2832.88
2833.06
2833.44
2846.64
2844.07
2862.17
2885.96
2869.16
2928.37
2424.14
2377.88
2210.91
2252.75
2295.2
2521.82
2975.51
2766.47
2690.26
2660.18
2649.06
2639.57
2635.91
2632.24
2629.69
2627.35
2625.62
2623.89
2626.26
2635.66
2644.56
2672.64
2716.45
2767.98
2816.9
2858.3
2909.13
2978.25
2730.14
2437.16
2307.76
2362.57
3092.53
3084.36
3067.89
3050.16
3041.07
3053.54
3073.04
3094.1
3093.39
3082.5
3081.52
3076.66
3051.89
2820.45
2684.75
2738.18
2703.65
2680.5
2678.98
2688.32
2703.32
2712.59
2700.56
2690.91
2672.46
2658.4
2645.73
2640.77
2638.72
2641.74
2646.85
2659.07
2665.32
2677.34
2688.12
2700.72
2710.06
2713.87
2726.63
2731.26
2634.5
2544.47
2512.38
2512.81
2965.59
2920.04
2920.8
2931.45
2938.55
2932.16
2920.16
2895.46
2880.26
2883.75
2913.12
2911.44
2903.02
2892.42
2897.15
2908.59
2918.71
2921.05
2921.51
2921.37
2923.34
2924.35
2935.84
2948.15
2945.52
2965.76
3020.03
3040.89
3015.82
2812.62
2884.46
2858.91
2863.07
2858.59
2854.14
2855.21
2858.41
2856.84
2849.07
2843.13
2839.14
2834.87
2834.45
2836.69
2835.81
2832.58
2834.41
2822.09
2827.63
2823.82
2824.86
2832.64
2849.23
2869.98
2894.45
2910.28
2918.67
2909.77
2902.71
2915.06
2792.22
2834.5
2846.87
2830.65
2832.73
2831.49
2841.94
2846.06
2844.87
2837.93
2827.68
2796.25
2766.67
2738.63
2714.29
2692.73
2676.31
2665.75
2664.74
2682.73
2707.43
2753.52
2807.53
2842.91
2846.84
2809.96
2680.54
2642.06
2675.99
2689.59
2730.94
2779.97
2806.87
2774.28
2762.12
2713.38
2716.91
2715.36
2746.59
2765.42
2813.15
2836.05
2863.53
2878.04
2886.38
2890.81
2890.96
2888.47
2883.8
2877.97
2875.95
2875.91
2851.94
2838.32
2816.33
2794.19
2799.49
2836.05
2892.01
2910.57
2715.95
2770.33
2751.21
2743.09
2730.14
2718.12
2728.81
2736.58
2754.06
2755.13
2696.97
2640.82
2621.17
2635.77
2658.18
2696.38
2725.25
2736.17
2746.13
2731.69
2725.66
2687.46
2674.85
2627.03
2607.27
2598.54
2579.69
2590.48
2626.35
2634.84
2691.55
2838.75
2830.5
2840.1
2831.81
2825.78
2823.49
2818.88
2826.52
2820.75
2820.03
2832.3
2830.69
2840.66
2848.52
2850.18
2850.86
2840.1
2835.09
2818.41
2813.47
2797.79
2787.76
2768.98
2748.97
2726.77
2707.52
2706.92
2742.8
2764.64
2883.62
2866.43
2697.19
2737.94
2795.44
2815.78
2825.24
2829.78
2837.18
2842.78
2858.42
2869.19
2886.85
2896.18
2894.65
2890.19
2878.1
2861.76
2831.64
2807.57
2773.56
2746.23
2720.91
2691.16
2668.79
2648.8
2638.58
2631.73
2624.02
2720.35
2867.09
2930.08
2927.73
2922.8
2923.65
2872.37
2801.06
2767.93
2762.22
2772.77
2794.18
2823
2849.93
2870.34
2882.14
2882.81
2872.07
2849.11
2827.67
2808.06
2793.33
2793.9
2787.5
2779.65
2768.53
2748.46
2750.13
2758.95
2768.05
2769.36
2906.63
2845.83
2829.18
2791.51
2771.74
2778.05
2792.48
2786.29
2775.3
2775.14
2786.73
2805.14
2823.25
2834.27
2845.63
2842.36
2843.15
2827.18
2834.51
2837.31
2847.62
2866.61
2883.61
2893.12
2909.07
2915.41
2861.09
2789.01
2780.62
2808.2
2841.03
2755.76
2704.02
2750.03
2813.08
2853.7
2875.16
2886.03
2904.19
2906.14
2918.52
2909.17
2905.82
2895.68
2875.71
2859.55
2840.93
2829.68
2823.96
2822.32
2827.74
2837.96
2855.79
2871.61
2887.58
2899.69
2886.28
2884.78
2977.1
2477.84
2233.32
2285.42
2524.02
2961.8
2796.42
2681.1
2646.54
2630.68
2622.11
2617.57
2611.68
2609.54
2606.73
2603.36
2596.12
2588.64
2581.26
2568.64
2564.62
2558.43
2565.77
2596.65
2639.69
2691.31
2740
2781.41
2898.35
2868.75
2396.72
2351.29
3033.66
2988.1
2963.22
2957.24
2961.99
2964.75
2973.79
3009.83
3074.51
3094.76
3090.96
3087.36
3068.93
2892.42
2678.22
2705.94
2675.55
2708.83
2742.56
2775.19
2753.94
2718.03
2667.64
2633.02
2605.26
2588.61
2591.79
2597.32
2613.65
2628.41
2639.8
2655.92
2668.57
2683.98
2698.14
2714.01
2724.85
2728.29
2730.86
2738.47
2702.72
2647.44
2585.88
2524.28
2956.61
2912.67
2924.21
2911.01
2867.24
2842.22
2839.67
2868.52
2915.07
2880.05
2842.76
2829.14
2835.08
2851.23
2880.71
2917.67
2925.51
2925.27
2916.06
2916.15
2917.23
2922.43
2924.1
2933.44
2944.47
2948.3
2987.94
3034.92
3035.64
2908.96
2876.65
2854.49
2856.14
2846.7
2847.17
2851.65
2847.54
2834.29
2818.37
2807.22
2805.07
2809.64
2823.43
2837.15
2847.35
2847.54
2837.91
2826.24
2827.09
2820.73
2829.14
2830.57
2835.86
2849.84
2869.03
2895.23
2912.93
2919.92
2911.59
2919.61
2766.23
2838.41
2841.98
2814.15
2821.93
2826.78
2837.61
2835.61
2822.04
2791.45
2760.56
2730.91
2711.19
2698.53
2691.37
2685.62
2678.15
2669.19
2660.77
2663.23
2668.74
2679.71
2723.3
2798.81
2839.34
2831.71
2771.62
2688.81
2690.04
2704.06
2747.59
2787.24
2775.88
2715.88
2696.3
2688.92
2725.95
2739.75
2786.52
2815.09
2842.52
2849.74
2854.93
2858.53
2867.61
2878.11
2884.36
2886.19
2887.35
2887.52
2887.88
2895.27
2892.79
2885.6
2856.18
2818.3
2789.17
2800.32
2855.79
2905.7
2730.02
2765.45
2743.1
2729.71
2710.59
2718.02
2736.79
2770.66
2765.37
2665.22
2578.78
2537.77
2536.46
2597.29
2681.43
2751.7
2781.69
2776.03
2778.64
2764.01
2766.19
2734.74
2720.9
2656.88
2615.33
2597.65
2567.2
2574
2603.94
2637.73
2831.48
2836.47
2837.34
2825.02
2799.46
2787.07
2789.35
2798.21
2820.1
2834.79
2852.69
2886.14
2903.16
2923.58
2931.62
2929.57
2929.46
2914.35
2912.97
2898.45
2890.79
2872.39
2862.07
2848.85
2832.13
2799
2763.58
2737.91
2754.47
2775.37
2907.33
2740.3
2723.04
2775.06
2788.32
2788.78
2803.35
2823.49
2852.32
2880.99
2915.16
2950.62
2965.75
2969.65
2972.9
2971.94
2966.95
2952.19
2938.45
2901.91
2861.58
2815.8
2773.14
2735.57
2711.33
2702.29
2701.48
2699.85
2657.88
2706.45
2914.31
2920.71
2907.8
2924.77
2842.73
2767.07
2745.08
2749.89
2776.61
2823.97
2875.18
2917.8
2915.89
2874.65
2834.63
2814.68
2805.92
2832.82
2871.69
2851.87
2833.83
2813.37
2808.14
2810.8
2797.21
2780.21
2760.22
2754.89
2765.98
2780.57
2906.85
2869.98
2851.88
2801.83
2777.01
2775.24
2747.27
2730.02
2743.96
2783.97
2836.7
2883.05
2913.23
2930.12
2915.11
2900.62
2877.49
2872.07
2861.35
2861.74
2878.09
2899.05
2914.5
2921.87
2920.25
2922.78
2903.36
2833.32
2765.69
2770.21
2770.51
2721.25
2756.76
2832.03
2879.05
2905.25
2934.23
2940.51
2918.96
2890.02
2874.44
2888.13
2920.43
2946.86
2937.52
2909.74
2864.5
2828.19
2805.59
2799.16
2812.48
2841.67
2881.14
2920.71
2944.04
2945.37
2921.53
2885.16
2907.42
2684.52
2248.21
2373.46
2857.53
2828.82
2685.87
2638.12
2627.95
2630.59
2632.98
2640.32
2652.65
2662.4
2668.01
2666.54
2661.2
2651.15
2629.82
2614.52
2596.38
2587.19
2606.24
2659.24
2743.49
2815.55
2862.99
2853.53
2844.45
2945.76
2573.54
2341
3004.85
2945.08
2946.99
2990.47
3018.41
3005.21
2974.77
2968.72
3014.95
3082.92
3095.16
3092.44
3071.24
2929.43
2673.25
2698.4
2730.17
2791.65
2805.5
2770.74
2720.69
2662.35
2625.72
2591.46
2579.86
2589.12
2633.14
2681.75
2729.09
2765.65
2784.42
2784.68
2779.59
2767.26
2758.65
2755.79
2756.41
2752.87
2743.73
2744.61
2738.21
2716.82
2658.66
2558.26
2954.56
2918.07
2918.05
2868.73
2841.36
2852.3
2898.57
2900.26
2846.98
2809.42
2799.67
2807.16
2825.2
2854.69
2904.32
2930.71
2885.07
2859.33
2859.46
2874.48
2892.69
2909.4
2916.25
2921.81
2933.59
2935.83
2964.53
3016.59
3037.29
2954.69
2871.18
2851.34
2847.25
2840.58
2842.74
2846.63
2849.42
2837.86
2812.25
2787.86
2786.38
2798.86
2827.59
2848.43
2846.54
2832.99
2825.08
2813.49
2806.16
2802.38
2804.95
2819.12
2836.7
2840.18
2851.52
2874.83
2906.78
2917.69
2916.55
2920.4
2756.25
2844.13
2824.17
2810.79
2814.24
2826.82
2830.6
2805.04
2763.78
2739.72
2727.05
2728.14
2731.25
2726.6
2723.94
2721.27
2717.64
2716.12
2714.24
2723.3
2713.64
2701.22
2699.27
2746.37
2825.77
2835.9
2816.02
2746.29
2713.52
2717.02
2757.8
2781.89
2729.86
2685.21
2688.35
2715.86
2729.69
2760.69
2782.92
2803.15
2805.68
2801.61
2802.75
2822.81
2846.93
2864.45
2875.46
2881.53
2881.37
2883.23
2883.31
2890.25
2901.74
2905.25
2880.28
2839.68
2791.16
2779.98
2827.35
2897.11
2740.82
2756.11
2730.62
2708.21
2707.28
2720.43
2755.1
2792.64
2785.28
2689.38
2577.28
2515.82
2505.93
2574.43
2691.67
2776.6
2794.74
2792.97
2793.16
2766.58
2751.74
2710.73
2676.88
2654.27
2606.01
2589.96
2560.14
2559.15
2586.71
2637.53
2850.15
2837.17
2823.16
2788.57
2760.13
2748.91
2760
2781.4
2813.54
2859.57
2894.21
2918.97
2947.69
2945.33
2947.46
2930.69
2920.48
2897.9
2889.32
2881.08
2877.61
2868.86
2867.31
2859.55
2862.46
2849.55
2820.39
2782.94
2777.96
2788.91
2817.83
2709.3
2722.06
2731.17
2724.95
2752.74
2798.56
2848.39
2896.52
2941.5
2974.7
2986.34
2984.26
2987.3
2987.84
2990.92
2976.23
2979.52
2969.21
2958.96
2934.61
2890.12
2831.82
2791.2
2760.86
2772.66
2802.77
2797.19
2713.05
2717.23
2918.8
2908.02
2921.52
2870.87
2770.74
2736.58
2737.96
2775.36
2840.53
2897.35
2923.74
2886.52
2821.22
2776.91
2764.3
2754.9
2734.11
2707.76
2723.47
2812.6
2855.75
2835.31
2833.24
2832.03
2836.68
2821.47
2787.27
2763.5
2765.39
2775.14
2912.2
2899.25
2882.81
2804.65
2767.75
2724.55
2698.27
2730.02
2800.18
2876.42
2935.61
2951.98
2922.02
2890.67
2857.78
2861.99
2816.57
2839.68
2808.68
2819.57
2827.9
2854.8
2888.45
2925.09
2933.36
2942.63
2924.88
2876.75
2788.29
2761.52
2744.02
2743.51
2824.37
2887.57
2920.53
2939.54
2912.63
2859.85
2833.43
2816.59
2817.68
2830.11
2863.92
2909.82
2950.57
2942.83
2888.26
2815.18
2770.1
2766.14
2803.62
2864.77
2937.55
2981.96
2999.94
2996.63
2966.69
2895.81
2876.06
2818.5
2264.61
2512.06
2941.56
2725
2639.78
2626.3
2634.54
2644.98
2666.14
2688.38
2710.3
2724.98
2733.21
2737.52
2730.03
2707.76
2687.65
2660.16
2631.91
2616.39
2610.04
2660.3
2811.14
2925.31
2958.88
2918.06
2852.68
2894.06
2715.03
2333.11
2981.42
2928.14
2992.06
3067.61
3084.48
3063.68
3003.38
2965.01
2993.68
3065.67
3094.37
3093.39
3067.64
2945.4
2669.8
2729.87
2798.45
2831.5
2803.64
2763.15
2738.21
2708.35
2666.67
2621.8
2620.3
2656.65
2729.23
2810.93
2862.76
2892.71
2914.46
2911.86
2905.52
2884.52
2859.02
2831.57
2810.5
2790.97
2767.6
2754.7
2758.98
2758.93
2715.13
2587
2948.88
2916.11
2912.41
2883.99
2887.09
2914.14
2890.2
2841.66
2803.74
2789.32
2799.16
2818.48
2841.47
2871.5
2919.08
2874.12
2818.03
2813.7
2826.92
2856.24
2877.03
2893.95
2902.15
2914.39
2921.95
2928.27
2945.3
2997.65
3034.88
2971.57
2853.52
2846.97
2836.58
2833.76
2839.84
2843.93
2844.32
2843.35
2833.23
2794.59
2778.06
2793.18
2829.53
2852.3
2837.78
2826.54
2820.98
2806.3
2801.42
2796.28
2795.59
2801.25
2817.63
2833.64
2839.93
2858.09
2889.99
2911.65
2916.62
2918.75
2784.24
2852.04
2814.96
2807.84
2816.6
2823.7
2806.89
2759.09
2727.17
2726.05
2730.75
2728.6
2731.11
2738.43
2740.95
2743.13
2743.72
2740.75
2735.82
2737.85
2736.75
2743.37
2717.78
2734.88
2802.3
2836.15
2830.57
2786.83
2733.2
2726.5
2760.04
2755.56
2704.42
2676.56
2709.43
2717.39
2735.02
2748.54
2775.83
2770.31
2769.13
2765.87
2775.71
2811.08
2846.72
2854.31
2864.8
2875.02
2879.15
2878.33
2884.96
2895.44
2894.45
2908.39
2891.6
2844.72
2788.12
2768.25
2811.25
2890.91
2749.66
2750.62
2718.44
2703.82
2702.52
2729.52
2758.58
2778.72
2792.45
2789.31
2648.54
2530.08
2492.95
2546.83
2671.66
2759.65
2776.3
2744.68
2697.48
2659.7
2617.18
2609.06
2565.88
2577.24
2550.74
2557.92
2538.63
2538.06
2572.11
2635.78
2849.08
2823.96
2793.11
2753.72
2730.97
2721.72
2735.17
2760.96
2817.23
2880.66
2902.78
2938.27
2936.55
2927.28
2878.45
2832.41
2819.9
2788.61
2782.59
2775.39
2780.25
2790.62
2797.85
2814.08
2839.01
2851.22
2855.74
2825.1
2810.27
2799.39
2762.01
2685.65
2687.49
2667.5
2680.83
2748.54
2824.45
2889.9
2942.74
2977.94
2984.18
2975.1
2972.15
2969.97
2969.09
2958.62
2969.52
2959.28
2960.17
2966.39
2955.05
2934.52
2884.59
2843.28
2824.16
2861.53
2917.88
2898.54
2768.98
2730.3
2913.78
2899.15
2923.47
2798.93
2734.86
2728.14
2765.92
2842.44
2908.14
2928.96
2908.87
2842.06
2812.67
2816.2
2836.44
2855.44
2845.02
2779.48
2719.06
2736.31
2819.29
2858.36
2843.08
2855.89
2876.39
2865.16
2833.85
2802.26
2782.04
2786.8
2919.29
2924.17
2880.61
2785.81
2726.29
2675.35
2715.92
2809.27
2896.66
2959.41
2947.19
2903.75
2876.45
2895.68
2883.79
2890.85
2863.53
2872.4
2853.11
2841.45
2844.34
2847.33
2849.4
2884.5
2919.24
2942.28
2939.45
2903.89
2819.43
2758.45
2738.93
2785.72
2872.09
2917.8
2940.61
2942.16
2929
2932.48
2934.45
2929.68
2919.52
2918.97
2936.93
2951.68
2955.69
2953.4
2904.94
2800.02
2732.2
2744.89
2820.89
2928.7
2989.19
2925.86
2917.53
2983.97
3000.1
2907.75
2862.5
2864.52
2288.61
2671.28
2851.85
2668.49
2630.23
2632.42
2647.68
2678.93
2710.6
2746.09
2772.28
2799.63
2827.73
2836.13
2816.82
2790.99
2749.69
2702.14
2670.53
2639.23
2611.86
2610.54
2744.13
2947.71
2978.47
2938.47
2879.23
2899.35
2762.66
2309.33
2964.98
2934.39
3054.01
3095.22
3097.31
3074.92
3000.3
2968.39
2997.4
3062.57
3085.19
3091.7
3059.94
2946.46
2677.54
2781.14
2842.32
2841.93
2834.25
2833.45
2843.89
2806.11
2741.85
2670.29
2646.22
2696.16
2780.18
2849.54
2893.88
2902.13
2908.06
2916.99
2926.86
2929.14
2923.76
2903.71
2874.6
2842.87
2800.92
2773.66
2770.19
2786.94
2750.8
2611.54
2949.11
2916.84
2908.63
2909.67
2909.93
2888.72
2846.95
2808.74
2791.37
2796.78
2821.69
2849.71
2864.61
2891.76
2913.35
2820.48
2786.63
2801.6
2823.41
2860.29
2882.02
2885.12
2894.52
2902.51
2914.94
2916.38
2936.21
2990.26
3026.98
2963.57
2839.35
2845.42
2835.72
2835.18
2828.08
2816.63
2816.51
2828.75
2842.32
2822.85
2782.36
2793.6
2828.23
2848.02
2834.93
2826.78
2819.59
2813.39
2812.36
2808.92
2803.72
2796.01
2809.97
2824.63
2830.43
2846.21
2876.67
2904.54
2912.57
2914.27
2857.09
2839.82
2816.38
2805.4
2813.36
2827.63
2785.65
2734.94
2726.28
2725.36
2726.84
2736.44
2743.66
2750.09
2755.65
2759.84
2759.76
2762.83
2756.29
2758.7
2749.79
2754.58
2747.49
2746.3
2798.55
2838.71
2835.66
2812.13
2751.24
2736.96
2750.33
2742.27
2685.86
2689.19
2715.31
2724.38
2729.7
2755.62
2765.76
2780.57
2755.94
2743.91
2760.75
2814.97
2835.97
2838.19
2850.69
2873.97
2876.57
2877.52
2875.66
2890.87
2896.63
2898.61
2890.13
2839.04
2772.56
2756.47
2801.87
2880.8
2744.65
2740.11
2708.88
2693.67
2707.33
2731.41
2747.98
2757.15
2772.43
2796.67
2768.19
2596.81
2509.24
2529.07
2647.88
2737.2
2740.33
2705.9
2642.08
2616.52
2583.05
2596.11
2575.33
2563.04
2500.76
2506.37
2500.27
2508.08
2553.57
2647.34
2829.11
2801.04
2765.89
2734.4
2714.62
2707.7
2705.57
2747.17
2812.14
2870.33
2913.08
2919.13
2899.73
2836.83
2810.75
2797.7
2784.88
2752.31
2734.55
2712.62
2708.21
2702.56
2704.8
2724.46
2764.74
2824.8
2859.09
2854.99
2832.14
2816.36
2735.42
2651.05
2618.92
2604.85
2673.29
2774.16
2861.95
2928.67
2967.8
2979.36
2968.1
2964.37
2952.88
2943.73
2929.56
2939.42
2937.72
2946.63
2948.14
2947.64
2956.48
2950.52
2923.75
2883.15
2889.96
2929.02
2871.71
2930.61
2822.91
2750.76
2909.94
2928.17
2866.18
2749.2
2722.21
2758.09
2837.37
2892.96
2928.73
2918.36
2890.43
2832.42
2829.64
2854.61
2903.75
2919.75
2905.63
2863.43
2769.59
2721.56
2805.5
2849.41
2859.69
2882.48
2894.43
2892.61
2869.26
2816.24
2783.53
2792.18
2925.65
2936
2844.45
2730.67
2668.88
2697.18
2793.42
2890.31
2946.86
2955.73
2898.06
2898.31
2899.22
2901.49
2881.46
2906.75
2868.59
2863.26
2824.03
2833.52
2821.85
2846.43
2826.15
2851.71
2874.92
2940.68
2947.35
2923.18
2836.89
2762.39
2746.72
2822.62
2902.44
2931.21
2947.44
2952.18
2944.99
2931.57
2925.88
2928.41
2929.67
2937.08
2943.59
2950.84
2953.99
2955.51
2924.79
2798.23
2712.39
2730.55
2851.3
2975.56
2895.16
2816.95
2836.9
2922.56
3005.15
2907.82
2849.6
2841.01
2309.8
2805.45
2790.38
2647.08
2626.53
2641.4
2672.99
2711.06
2754.5
2795.92
2846.38
2906.44
2946.42
2952.08
2937.27
2889.64
2820.58
2754.66
2695.3
2653.2
2630.72
2604.92
2623.19
2863.12
2984.55
2952.48
2908.95
2932.04
2703.55
2292.88
2959.94
2949.19
3078.68
3090.63
3094.97
3069.67
2994.85
2973.11
3016.53
3061.9
3079.43
3077.53
3052.79
2958.25
2702.39
2829.41
2866.84
2870.4
2893.73
2924.33
2931.79
2884.17
2795.95
2701.55
2663.16
2699.82
2800.21
2856.4
2874.05
2875.91
2864.76
2865.92
2889.93
2918.68
2946.91
2944.69
2929.64
2891.67
2839.1
2792.23
2786.77
2795.29
2770.97
2629.44
2947.54
2915.62
2908.47
2902.87
2892.28
2866.37
2825.23
2802.01
2799.04
2820.9
2863.18
2884.11
2880.17
2904.53
2879.89
2794.46
2785.9
2807.97
2821.46
2856.28
2873.56
2876.25
2891.43
2902.55
2909.67
2906.71
2927.67
2984.53
3021.96
2964.13
2815.69
2836.37
2824.04
2822.25
2803.79
2784.29
2782.85
2793.77
2818.82
2833.61
2800.13
2795.31
2825.5
2846.96
2833.68
2823.79
2826.13
2822.71
2801.24
2792.17
2788.09
2794.33
2806.31
2813.74
2823.27
2834.61
2867.21
2897.61
2904.02
2907.3
2862.94
2836.11
2813.78
2808.89
2810.1
2823.3
2781.54
2731.56
2729.69
2729.29
2731.73
2738.42
2747.87
2753.79
2761.04
2760.64
2763.47
2763.67
2767.4
2767.73
2757.77
2764.3
2766.66
2769.07
2816.65
2837.86
2835.78
2819.2
2762.53
2740.62
2753.32
2727.41
2687.68
2692.74
2724.08
2725.25
2746.89
2764.69
2797.74
2795.38
2778.36
2735.62
2743.55
2801.33
2816.6
2805.3
2827.43
2859.6
2871.45
2870.71
2873.83
2891.64
2894.23
2893.18
2864.27
2810.19
2749.7
2745.98
2801.22
2885.39
2746.67
2726.85
2697.05
2686.89
2715.95
2730.12
2738.63
2743.5
2756.2
2779.02
2808.21
2707.14
2547.65
2512.45
2598.5
2706.33
2717.01
2673.44
2615
2604.61
2632.28
2706.52
2724.59
2700.55
2646.69
2539.05
2482.91
2478.14
2540.33
2643.66
2821.88
2765.79
2733.39
2717.89
2709.48
2690.99
2691.76
2725.32
2781.49
2865.77
2894.34
2900.42
2843.51
2807.3
2833.19
2825.98
2805.62
2742.82
2729.78
2702.91
2679.74
2664.94
2645.47
2643.81
2687
2773.83
2856.58
2877.95
2856.88
2821.85
2699.76
2608.72
2570.97
2591
2690.02
2782.7
2867.46
2934.81
2965.11
2969.68
2962.93
2931.48
2916.88
2901.45
2862.21
2831.17
2849.42
2902.72
2930.72
2939.72
2935.37
2947.19
2935.26
2920.83
2928.97
2849.79
2721.79
2862.63
2842.42
2767.77
2912.38
2938.86
2787.85
2729.74
2755.48
2832.09
2885.02
2915.87
2937.31
2913.97
2886.23
2833.87
2848.65
2878.71
2925.39
2919.29
2914.92
2863.23
2808.5
2783.74
2824.44
2858.15
2880.62
2902.93
2926.31
2879.5
2884.62
2841.79
2807.03
2808.92
2932.39
2910.35
2761.09
2667.05
2674.23
2771.22
2859.73
2920.95
2950.49
2926.86
2901.38
2907.42
2884.84
2904.45
2887.67
2887.68
2770.8
2748.5
2692.93
2708.06
2745.95
2798.78
2795.91
2828.75
2845.88
2909.32
2955.58
2935.76
2847.69
2758.97
2764.6
2853.59
2911.15
2928.94
2928.21
2913.51
2898.38
2895.81
2896.32
2885.53
2883.14
2886.93
2892.8
2904.05
2920.37
2948.28
2944.63
2823.2
2710.33
2711.96
2847.47
2979.49
2885.82
2825.75
2832.63
2926.27
2999.77
2884.6
2844.64
2734.62
2324.78
2888.11
2757.23
2639.63
2627.45
2651.97
2694.65
2739.18
2790.61
2853.8
2935.46
3009.73
3046.89
3057.46
3032.81
2971.75
2897.88
2809.07
2717.48
2663.57
2642.67
2621.59
2581.34
2726.21
2974.85
2976.3
2954.63
2978.28
2535.37
2275.73
2946.38
2960.26
3088.03
3079.87
3090.94
3063.08
3002.67
2996.5
3027.91
3058.81
3071.59
3066.54
3046.67
2964.64
2723.15
2856.74
2889.41
2909.96
2945.47
2963.69
2976.3
2933.52
2834.04
2732.89
2679.56
2717.49
2809.89
2866.89
2866.79
2856.06
2855.48
2855.73
2875.56
2918.68
2958.28
2974.27
2965.23
2932.57
2870.27
2815.22
2797.74
2817.03
2777.75
2626.75
2949.37
2918.9
2905.34
2887.79
2870.47
2847.18
2823.98
2805.59
2820.55
2869.78
2895.81
2891.64
2891.59
2913.9
2854.78
2792
2795.22
2824.19
2823.44
2845.43
2879.57
2881.96
2888.28
2896.84
2900.8
2900.63
2932.69
2991.65
3000.89
2945.64
2811.67
2837.78
2830.34
2816.8
2789.7
2769.3
2768.85
2774.83
2795.17
2829.49
2828.35
2800.01
2823.65
2843.26
2829.64
2828.56
2829.24
2810.6
2772.11
2763.7
2765.9
2776.58
2794.97
2802.67
2816.82
2829.97
2861.11
2896
2899.87
2904.19
2856.47
2836.55
2811.94
2808.83
2806.91
2818.59
2782.86
2748.9
2733
2731.9
2733.75
2738.07
2745.35
2756.19
2757.63
2760.4
2761.85
2771.5
2768.37
2770
2761.77
2768.35
2778.21
2796.69
2831.67
2832.99
2832.19
2818.18
2767.39
2740.96
2740.45
2736.11
2692.75
2697.69
2722.94
2742.09
2759.81
2798.11
2823.54
2829.83
2794.13
2749.96
2742.15
2801.19
2808.93
2800.36
2814.64
2852.37
2870.66
2877.42
2885.16
2886.48
2891.54
2867.53
2815.49
2760.34
2731.78
2751.76
2821.64
2885.75
2746.75
2719.32
2692.41
2695.36
2718.33
2729.17
2737.73
2739.08
2747.1
2764.72
2789.65
2798.07
2597.41
2498.34
2524.46
2608.8
2620.53
2598.96
2580.87
2655.43
2765.87
2743.27
2686.75
2697.24
2705.62
2686.83
2536.8
2479.42
2529.9
2639.83
2766.54
2751.05
2720.61
2700.83
2687.39
2680.03
2685.57
2697.28
2760.96
2828.65
2886.54
2872.65
2820.53
2828.11
2874.16
2866.39
2789.13
2707.31
2676.92
2679.77
2673.65
2653.18
2611.97
2594.25
2622.74
2743.8
2856.85
2894.24
2867
2838.82
2670.87
2556.51
2520.68
2564.87
2650.51
2730.81
2826.92
2912.32
2962.23
2972.29
2937.86
2921.4
2922.55
2839.86
2774.69
2758.6
2776.49
2833.24
2895.66
2934.81
2924.66
2941.5
2931.91
2932.12
2884.88
2729.4
2676.28
2897.52
2835.74
2790.71
2935.44
2886.55
2759.98
2766.97
2840.45
2880.17
2902.88
2928.67
2938.4
2910.32
2884.93
2838.99
2853.36
2885.14
2926.74
2920.77
2900.83
2865.74
2839.95
2835.71
2857.53
2877.21
2900.11
2934.03
2893.66
2829.4
2888.71
2851.92
2812.84
2812.04
2935.72
2862.97
2693.53
2666.78
2744.31
2808.21
2871.22
2922.9
2938.65
2927.55
2902.59
2898.21
2871.61
2906.25
2892.18
2821.22
2691.84
2665.53
2610.3
2631.35
2683.8
2749.71
2777.86
2809.67
2843.5
2899.16
2963.91
2950.27
2849.33
2755.33
2776.54
2873.4
2912.5
2915.71
2906.92
2896.21
2896.78
2899.33
2892.23
2887.5
2882.37
2872.71
2866.15
2871.44
2878.01
2916.75
2946.51
2871.01
2717.79
2696.17
2824.71
2974.52
2928.34
2867.4
2897.01
2992.38
2957.41
2845.79
2858
2591.56
2314.59
2854.4
2754.44
2637.45
2627.36
2660.56
2708.53
2760.09
2816.22
2893.52
2983.47
3046.34
3081.46
3083.66
3062.78
3011.24
2937.31
2836.99
2740.75
2664.05
2629.25
2631.71
2588.17
2583.4
2942.51
2956.98
2949.62
2765.15
2490.17
2368.49
2939.92
2962.03
3084.46
3077.94
3089.06
3071.05
3035.15
3033.46
3046.07
3042.54
3018.6
3006.56
3010.7
2972.8
2897.86
2779.98
2765.28
2883.89
2911.97
2937.58
2965.09
2981.62
2991.09
2951.64
2848.65
2744.52
2686.71
2714.67
2822.77
2865.01
2874.8
2861.96
2871.09
2897.97
2919.43
2948.68
2979.55
2986.55
2980.48
2948.9
2886.23
2826.36
2817.17
2822.22
2788.74
2669.41
2690.67
2862.13
2943.9
2918.6
2907.23
2878.06
2859.24
2838.5
2825.97
2834.51
2876.35
2900.68
2903.92
2896.34
2899.02
2919
2844.06
2791.98
2814.21
2842.57
2837.15
2832.39
2860.65
2882.05
2891.99
2888.79
2892.56
2903.61
2949.28
2983.6
2974.89
2946.46
2914.29
2818.88
2794.6
2827.09
2824.75
2808.3
2775.95
2757.33
2758.37
2764.43
2779.77
2806.65
2827.83
2812.86
2822.74
2836.36
2833.79
2828.1
2833.63
2801.73
2762.86
2754.14
2751
2769.4
2781.06
2800.91
2807.82
2826.55
2861.22
2890.81
2889.46
2889.73
2882.37
2891.87
2873.65
2847.65
2821.54
2808.98
2806.94
2815.01
2793.55
2762.64
2743
2734.07
2735.82
2736.82
2748.85
2754.58
2757.02
2756.78
2761.03
2768.85
2763.59
2768.85
2765
2775.2
2797.57
2817.93
2828.65
2827.64
2828.34
2812
2760.14
2727.36
2709.33
2732.98
2742.79
2741.58
2717.57
2700.82
2725.84
2752.13
2785
2821.07
2844.28
2845.13
2819.04
2763.89
2742.47
2789.47
2803.43
2781.45
2786.58
2818.9
2849.74
2867.9
2871.84
2868.2
2840.77
2798.36
2751.35
2733.61
2752.86
2805.14
2833.23
2840.52
2748.49
2758.51
2744.05
2708.32
2684.38
2697.85
2722.65
2729.09
2736.83
2741.41
2745.96
2757.21
2776.74
2809.69
2642.93
2484.56
2447.35
2467.34
2490.3
2524.18
2633.71
2778.4
2712.17
2667.17
2660.84
2644.93
2643.77
2686.81
2645.67
2495.79
2536.31
2667.81
2734.52
2660.28
2667.26
2660.94
2651.28
2668.31
2682.21
2678.42
2663.65
2686.92
2715.87
2806.83
2868.56
2857.28
2811.18
2845.36
2888.55
2873.41
2788.33
2695.45
2642.96
2640.51
2655.96
2622.56
2574.92
2549.81
2604.91
2754.01
2879.25
2904.7
2851.74
2851.31
2844.5
2686.7
2607.87
2505.54
2494.73
2536.27
2571.69
2616.04
2716.82
2864.09
2961.28
2952.8
2929.25
2931.1
2895.24
2779.66
2731.24
2722.87
2742.25
2803.36
2866.91
2912.97
2916.25
2927.53
2927.74
2872.43
2769.05
2666.19
2697.92
2957.1
2823.59
2807.66
2936.45
2953.93
2946.47
2821.85
2785.4
2853.52
2893.43
2893.83
2915.97
2940.99
2939.15
2917.27
2899.47
2847.08
2847.35
2869.36
2914.79
2925
2908.21
2890.49
2873.44
2872.2
2880.39
2910.24
2938.9
2919.84
2835.67
2815.54
2893.52
2844.8
2827.76
2838.61
2923.81
2932.13
2886.33
2750
2672.91
2727.26
2772.34
2803.13
2863.81
2904.41
2924.18
2918.46
2895.44
2880.5
2863.51
2909.33
2884.58
2783.99
2656.94
2636.74
2628.71
2670.94
2695.21
2735.23
2764.43
2812.68
2837.42
2901.81
2969.74
2954.05
2834.25
2757.56
2800.62
2802.99
2799.36
2881.19
2910.82
2907.26
2908.14
2911.59
2932.42
2945.61
2950.88
2938.15
2903.67
2880.32
2865.54
2856.76
2863.92
2871.86
2930.26
2914.03
2753.42
2674.86
2742.53
2893.69
2987.13
2994.77
3002.31
2973.03
2873.71
2816
2941.89
2485.81
2467.88
2380.77
2356.13
2871.17
2766.82
2640.83
2623.92
2660.19
2712.61
2767.71
2822.73
2897.61
2991.97
3042.27
3085.92
3082.26
3057.73
3005.31
2927.5
2837.35
2741.68
2660.07
2621.12
2629.72
2613.86
2528.76
2802.78
2954.32
2932.53
2959.52
2844.84
2663.47
2500.53
2483.98
2925.59
2929.91
3080.91
3072.66
3084.37
3079.16
3061.39
3064.23
3046.28
2983.18
2884.64
2830.42
2848.71
2865.53
2801.14
2776.77
2829.81
2911.98
2933.06
2954.9
2974.3
2990.41
3000.28
2955.11
2857.99
2764.07
2698.47
2721.01
2819.11
2871.05
2872.37
2878.83
2895.87
2928.99
2960.47
2973.48
2986.63
2987.54
2977.13
2943.38
2883.4
2838.95
2831.34
2834.44
2800.49
2702.5
2722.76
2856.48
2958.88
2930.61
2916.75
2888.56
2868.69
2859.3
2865.59
2895.24
2898.36
2853.03
2876.2
2900.33
2901.84
2921.85
2844.16
2795.21
2827.92
2864.25
2861.8
2848.25
2850.17
2870.74
2880.21
2885.43
2895.33
2920.37
2954.39
2965.39
2945.25
2941.92
2944.69
2889.77
2810.01
2823.83
2818.58
2800.45
2772.92
2753.93
2753.34
2761.92
2775.05
2794.18
2825.3
2833.05
2825.13
2838.51
2835.44
2831.66
2835.35
2800.64
2751.96
2735.28
2735.52
2749.31
2779
2784.39
2807.26
2829.21
2865.31
2897.6
2897.71
2894.19
2895.77
2901.4
2889.24
2859.5
2840.55
2815.39
2800.75
2813.76
2805.11
2771.31
2755.74
2739.41
2737.35
2742.12
2748.54
2751.54
2756.98
2756.3
2754.9
2760.79
2758.96
2770.64
2770.79
2790.8
2809.67
2818.4
2825.88
2827.4
2826.18
2806.89
2761.24
2731.29
2716.09
2728.47
2740.06
2733.89
2706.23
2700.92
2721.9
2764.63
2793.77
2834.21
2852.66
2843.71
2841.45
2790.99
2736.99
2784.98
2803.97
2781.93
2772.54
2776.87
2794.38
2802.43
2803.71
2781.72
2757.7
2733.72
2737.87
2772.22
2812.05
2816.33
2778.84
2766.89
2758.32
2749.71
2726.92
2693.9
2675.72
2701.19
2721.32
2730.77
2731.81
2737.46
2746.71
2754.67
2766.89
2797.42
2670.02
2461.32
2389.03
2390.58
2433
2575.75
2781.48
2735.59
2653.36
2673.91
2632.22
2641.17
2634.73
2676.15
2686.54
2542.78
2603.89
2739.43
2717.68
2687.23
2684.5
2678.61
2675.18
2650.41
2637.03
2633.19
2665.48
2672.86
2704.59
2777.86
2855.77
2836.92
2785.8
2818.48
2875.13
2880.8
2835.3
2760.67
2657.83
2603.37
2578.57
2565.38
2541.92
2560
2658.4
2810.58
2907.42
2876.84
2857.2
2854.16
2728.14
2605.95
2524.24
2448.57
2437.8
2438.66
2440.84
2483.29
2588.51
2793.17
2940.93
2958.85
2937.62
2917.1
2894
2802.29
2746.14
2734.33
2763.4
2796.76
2858.31
2898.55
2896.55
2903.93
2844.98
2756.15
2701.71
2727.6
2907.63
2922.46
2861.26
2924.88
2988.67
2960.18
2886.33
2826.08
2871.41
2923.09
2912.3
2904.66
2921.08
2950.09
2946.91
2929.65
2909.58
2869.67
2832.25
2844.99
2885.17
2923.46
2926.71
2918.3
2903.39
2925.18
2930.47
2941.76
2911.22
2837.22
2799.41
2852.92
2883.68
2852.56
2855.79
2898.38