/*--------------------------------*- C++ -*----------------------------------*\
| =========                 |                                                 |
| \\      /  F ield         | OpenFOAM: The Open Source CFD Toolbox           |
|  \\    /   O peration     | Version:  2.1.1                                 |
|   \\  /    A nd           | Web:      www.OpenFOAM.org                      |
|    \\/     M anipulation  |                                                 |
\*---------------------------------------------------------------------------*/
FoamFile
{
    version     2.0;
    format      ascii;
    class       volScalarField;
    location    "0.002900000";
    object      alphat;
}
// * * * * * * * * * * * * * * * * * * * * * * * * * * * * * * * * * * * * * //

dimensions      [1 -1 -1 0 0 0 0];

internalField   nonuniform List<scalar> 
12384
(
5.99027e-06
1.37639e-05
2.73763e-05
5.99045e-05
4.44711e-05
2.94041e-05
2.44868e-05
3.02849e-05
4.86019e-05
6.43406e-05
1.92187e-05
8.55958e-06
4.19776e-06
7.84679e-06
4.86022e-06
2.21553e-06
1.54433e-05
2.20386e-05
3.23878e-05
4.04389e-05
4.50749e-05
5.78018e-05
6.06764e-05
6.31096e-05
5.7992e-05
4.67932e-05
4.1504e-05
3.08293e-05
2.60521e-05
2.33342e-05
2.53457e-05
2.74489e-05
3.30413e-05
4.06318e-05
9.46174e-05
4.21064e-05
2.45932e-05
1.29695e-05
7.50599e-06
3.90019e-06
2.34269e-06
2.36711e-06
7.64756e-06
6.34156e-06
0.000148522
0.000864596
0.00157866
0.00395254
0.00286556
0.00354694
0.0020311
0.00199649
0.00118646
0.00108248
0.000781022
0.000689032
0.000561416
0.000483013
0.000367927
0.000288999
0.000227324
0.000133801
0.000107923
6.68974e-05
5.08892e-05
3.27717e-05
3.37474e-05
2.41547e-05
3.03552e-05
4.57905e-05
4.00523e-05
3.38847e-05
1.52297e-05
7.26061e-06
0.000367448
0.00204639
0.0051416
0.011584
0.0149631
0.0168883
0.0195609
0.0207086
0.0192321
0.0170019
0.0178367
0.0289736
0.0232216
0.0091055
0.00899098
0.0175572
0.0165373
0.00416331
0.00122114
0.000363332
0.000138189
4.87791e-05
3.8528e-05
2.93539e-05
3.01483e-05
1.56463e-05
7.82978e-06
4.76824e-06
8.37842e-06
7.46772e-06
4.72621e-05
0.000894782
0.00260144
0.00196717
0.00172535
0.00151777
0.00114164
0.000819528
0.000566708
0.000353149
0.000244777
0.000226509
0.000289735
0.000356572
0.000284076
0.00014244
8.97534e-05
6.7616e-05
5.78706e-05
5.17991e-05
1.1474e-05
5.1956e-06
1.37412e-05
2.19303e-05
4.0378e-05
1.26737e-05
1.22037e-05
4.54809e-06
5.2724e-06
2.35412e-06
1.10258e-05
8.69858e-06
2.77389e-05
8.78786e-05
0.000268866
0.000207166
0.00020018
0.000290667
0.000373431
0.000376603
0.000238157
0.000161595
0.000106254
8.1051e-05
4.7874e-05
4.25949e-05
2.4275e-05
3.56579e-05
6.04063e-05
0.000157629
0.000155524
8.35124e-05
7.68366e-05
2.63778e-05
3.20053e-05
6.94671e-06
4.92815e-06
1.96692e-06
1.89162e-06
1.71964e-06
8.9597e-07
3.40307e-07
2.89587e-07
5.29116e-07
1.68776e-06
3.50176e-06
6.51606e-06
6.78543e-06
9.17112e-06
8.17601e-06
8.42453e-06
7.3544e-06
5.02816e-06
3.84948e-06
2.75853e-06
2.48072e-06
1.7606e-06
1.57211e-06
1.22916e-06
1.14369e-06
9.26668e-07
8.23521e-07
6.5754e-07
5.24152e-07
4.85193e-07
3.41243e-07
3.40571e-07
2.64971e-07
2.12559e-07
4.0268e-07
8.36023e-06
5.92375e-06
4.70293e-06
3.8674e-06
3.4833e-06
3.12909e-06
2.94855e-06
2.86529e-06
2.87694e-06
2.92153e-06
3.03226e-06
3.15435e-06
3.35104e-06
3.55808e-06
3.77492e-06
4.07972e-06
4.41058e-06
4.83952e-06
5.30146e-06
5.89569e-06
6.55833e-06
7.41618e-06
8.4285e-06
9.77579e-06
1.15304e-05
1.40798e-05
1.79768e-05
2.52089e-05
4.15834e-05
0.000106296
0.00013635
0.000136459
0.000136464
0.000136458
0.000136453
0.000136448
0.000135877
0.000136436
0.00013642
0.00013642
0.000136403
0.000136406
0.000136391
0.0001364
0.000136382
0.000136387
0.000136368
0.000136367
0.00013635
0.000136348
0.000136337
0.000136335
0.000136325
0.000136323
0.000136315
0.000136312
0.000136305
0.000136301
0.000136288
0.00013618
0.00013617
0.000136276
0.000136287
0.000136294
0.000136298
0.000136302
0.000136304
0.000136308
0.000136309
0.000136312
0.000136312
0.000136315
0.000136319
0.000136322
0.000136326
0.000136325
0.000136325
0.000136319
0.000136313
0.000136311
0.000136308
0.000136305
0.000136304
0.000136301
0.0001363
0.000136296
0.000136294
0.000136292
0.000136283
0.000136153
0.000136169
0.000136279
0.000136288
0.000136292
0.000136295
0.000136298
0.000136302
0.000136304
0.000136307
0.000136309
0.000136312
0.000136314
0.000136318
0.000136323
0.000136325
0.000136327
0.000136323
0.00013632
0.000136315
0.000136311
0.000136311
0.000136306
0.000136305
0.000136301
0.0001363
0.000136295
0.000136293
0.000136288
0.000136277
0.000136168
0.000136154
0.000136282
0.000136288
0.000136292
0.000136296
0.0001363
0.000136305
0.000136305
0.00013631
0.000136311
0.000136314
0.000136316
0.00013632
0.000136325
0.000136329
0.000136329
0.000136324
0.00013632
0.000136315
0.000136313
0.00013631
0.000136309
0.000136306
0.000136304
0.000136301
0.000136297
0.000136293
0.000136289
0.000136283
0.000136153
0.000136167
0.000136279
0.000136289
0.000136293
0.000136298
0.000136299
0.000136306
0.000136305
0.000136312
0.000136309
0.000136316
0.000136315
0.000136322
0.000136324
0.000136326
0.000136328
0.000136323
0.000136321
0.000136317
0.000136313
0.000136312
0.000136308
0.000136307
0.000136303
0.000136301
0.000136296
0.000136294
0.000136289
0.000136278
0.000136168
6.91984e-06
3.76283e-05
5.91242e-05
8.21722e-05
0.00011243
0.000138139
0.00016113
0.000175137
0.000183229
0.000165023
0.000116224
7.22759e-05
4.10643e-05
1.18136e-05
4.83494e-06
8.5312e-05
0.000140515
0.000193593
0.000259202
0.000371811
0.000517265
0.000709937
0.000910037
0.00109953
0.00123041
0.00130191
0.0014274
0.00153549
0.00160095
0.00168114
0.00173209
0.00168804
0.00147895
0.0011869
0.000981935
0.000969429
0.000974219
0.00123237
0.00131471
0.00104069
0.000544486
0.00024563
0.000119784
2.22523e-05
0.000617175
0.00305584
0.00435091
0.00565032
0.00711257
0.00797265
0.00861002
0.00875731
0.00842359
0.00805819
0.00733475
0.00668046
0.00558122
0.00477262
0.00439046
0.00356882
0.00350188
0.00297525
0.00266505
0.00249432
0.00210972
0.00182089
0.00153671
0.00129757
0.00105164
0.000845931
0.00060776
0.000248325
0.000125457
2.91858e-05
0.00133552
0.00587032
0.00700472
0.00787554
0.00879608
0.00972537
0.0105943
0.0115431
0.0121563
0.012931
0.0131818
0.012916
0.0120028
0.0105522
0.00897978
0.00882123
0.00713445
0.00631363
0.00458102
0.00349959
0.00256957
0.00205031
0.00174584
0.00145057
0.00118141
0.000598011
0.000323265
0.000190214
6.1247e-05
1.77644e-05
0.000224034
0.00305891
0.00492126
0.00503968
0.00508812
0.00529445
0.00548746
0.00531009
0.00536626
0.005481
0.00616833
0.00728255
0.00846078
0.00926756
0.00911897
0.00760904
0.00576125
0.00393439
0.00238628
0.00142619
0.000696348
0.00060955
0.0003242
0.000130519
0.000367273
0.000369871
0.000284191
0.000163751
6.81249e-05
6.95201e-06
0.000157894
0.000182023
0.000409017
0.00101521
0.00221458
0.00401984
0.00560354
0.00794232
0.00975624
0.0112211
0.0102873
0.00802871
0.0054852
0.00340306
0.00229618
0.00160518
0.00107347
0.00054231
0.000320932
0.00019958
0.000440948
0.000576641
0.000388873
0.000413949
0.000266004
0.000169071
0.000100634
4.27661e-05
2.68775e-05
2.87329e-06
1.56504e-06
7.61303e-06
1.49698e-05
3.01078e-05
4.04888e-05
9.08641e-05
0.000121403
9.19228e-05
6.60356e-05
3.28847e-05
1.72873e-05
1.09266e-05
1.96391e-05
2.53994e-05
2.49535e-05
2.4434e-05
2.34109e-05
2.22084e-05
2.28155e-05
2.03899e-05
1.77285e-05
1.56961e-05
1.10036e-05
9.36768e-06
5.71052e-06
4.64863e-06
3.56173e-06
3.58694e-06
6.05716e-06
3.7076e-07
3.44496e-06
3.41868e-06
3.23667e-06
3.1548e-06
3.13487e-06
3.0754e-06
3.00484e-06
2.99732e-06
3.01165e-06
3.08802e-06
3.20263e-06
3.37094e-06
3.56126e-06
3.7935e-06
4.07015e-06
4.41911e-06
4.79448e-06
5.27765e-06
5.82539e-06
6.49245e-06
7.24304e-06
8.20018e-06
9.34068e-06
1.08251e-05
1.27594e-05
1.55516e-05
1.97937e-05
2.754e-05
4.43122e-05
9.94327e-05
0.000138066
0.00014317
0.000138607
0.000130347
0.000125465
0.000124141
0.000125113
0.000128507
0.000133617
0.000140365
0.0001493
0.000160968
0.000176014
0.000195256
0.000219895
0.00024916
0.000284027
0.000325567
0.000380403
0.000448354
0.000528094
0.000563069
0.000563264
0.000563121
0.000563285
0.000563096
0.000563242
0.000563074
0.000540401
0.000137751
0.000137741
0.000540588
0.000563122
0.000563291
0.000563052
0.000563195
0.000562993
0.000563131
0.000562892
0.000562997
0.000562755
0.000562803
0.000562485
0.000562567
0.000562322
0.000562456
0.000562433
0.00056272
0.000562722
0.000562877
0.000562954
0.000562945
0.000563166
0.000563038
0.000563228
0.000563084
0.00056332
0.000563062
0.000541659
0.000137667
0.000137756
0.000540804
0.00056321
0.000563135
0.000563251
0.000563047
0.000563209
0.000562982
0.000563096
0.000562833
0.000562939
0.000562672
0.000562664
0.000562429
0.000562452
0.000562311
0.00056256
0.000562522
0.000562837
0.000562802
0.000563054
0.000562961
0.000563193
0.00056305
0.000563246
0.000563052
0.000563208
0.000563028
0.000540332
0.000137738
0.000137656
0.00054124
0.00056299
0.000563147
0.000563286
0.000563141
0.000563274
0.000563056
0.000563155
0.000562892
0.000562979
0.000562671
0.000562672
0.000562425
0.000562403
0.000562405
0.000562418
0.000562653
0.00056266
0.000562955
0.000562868
0.000563118
0.000563011
0.000563217
0.000563077
0.000563231
0.000563105
0.000563073
0.000541356
0.000137661
0.000137745
0.000540805
0.000563168
0.000563091
0.000563226
0.000563039
0.00056326
0.000563054
0.00056323
0.000562968
0.000563083
0.000562774
0.000562755
0.000562452
0.000562491
0.000562322
0.000562548
0.000562517
0.000562799
0.000562774
0.000563063
0.000562982
0.000563235
0.000563094
0.000563293
0.000563085
0.000563218
0.000562996
0.000540299
0.000137737
6.4048e-06
5.88131e-05
8.24042e-05
0.000120837
0.000168205
0.000210303
0.000270708
0.000304124
0.000318806
0.000288254
0.000218438
0.000146065
8.09352e-05
1.26505e-05
2.7664e-05
0.000235335
0.000359775
0.000476637
0.000631763
0.000790901
0.000974027
0.00124289
0.00160693
0.00201484
0.00230858
0.00244922
0.00251597
0.00255571
0.00255561
0.00260513
0.00250915
0.00241943
0.00212001
0.00182614
0.00151276
0.00146953
0.00132939
0.00153457
0.00152832
0.00119052
0.000879162
0.000380236
0.00021562
5.98282e-05
0.000616601
0.00402748
0.00508988
0.00635389
0.00786697
0.00879931
0.00951445
0.00938831
0.00932745
0.00879567
0.00830327
0.00765936
0.00664185
0.00608626
0.00600871
0.00532471
0.00554986
0.00475813
0.00435316
0.00379777
0.00321892
0.00266936
0.00233141
0.00216642
0.00188423
0.00145059
0.000887215
0.000504824
0.000253537
2.79515e-05
0.00131469
0.00679178
0.00735955
0.00778486
0.00878555
0.00938636
0.0104633
0.0108068
0.0117163
0.0122419
0.0124515
0.0121906
0.0113861
0.0104706
0.0095645
0.00954857
0.00855195
0.00816826
0.00690225
0.0055124
0.00428229
0.00342542
0.00289042
0.0025432
0.00216336
0.00158271
0.00104832
0.000538205
0.000178853
2.47583e-05
0.0018614
0.0039475
0.00472626
0.00488689
0.00504955
0.00512857
0.00510566
0.00533048
0.00541064
0.00586518
0.00696399
0.00763045
0.0091893
0.0101533
0.00988253
0.00944013
0.00795149
0.00626997
0.00488867
0.00359402
0.0025058
0.00174954
0.00106675
0.000522886
0.000136892
0.000398773
0.000281477
0.000146114
7.77287e-05
9.30595e-06
7.34691e-05
0.000203469
0.00046815
0.00121379
0.00366559
0.00779219
0.013953
0.0181721
0.0218306
0.0215377
0.0200197
0.0172888
0.012639
0.00972217
0.00687432
0.00495229
0.00313615
0.00191911
0.0012577
0.00100898
0.000668114
0.000589167
0.000279009
0.000294243
0.000155758
0.000191962
0.000123603
5.81494e-05
2.9908e-05
2.61866e-06
2.8314e-06
2.20036e-05
5.26646e-05
8.35742e-05
0.00013814
0.000343283
0.000434547
0.000328971
0.000201883
0.000100749
5.03285e-05
2.81825e-05
1.71721e-05
1.30673e-05
1.34143e-05
1.12832e-05
1.13651e-05
1.77039e-05
2.17527e-05
1.85617e-05
1.86612e-05
1.24072e-05
1.16258e-05
7.42224e-06
6.21968e-06
3.86367e-06
2.74466e-06
3.0133e-06
3.43875e-06
3.77074e-07
2.48932e-06
3.20635e-06
6.2748e-06
5.694e-06
5.52284e-06
5.23529e-06
4.95524e-06
4.692e-06
4.56067e-06
4.53228e-06
4.63508e-06
4.78609e-06
4.94003e-06
5.23798e-06
5.59993e-06
6.08982e-06
6.6587e-06
7.37666e-06
8.17893e-06
9.14456e-06
1.02298e-05
1.15777e-05
1.31708e-05
1.52438e-05
1.79488e-05
2.17823e-05
2.75332e-05
3.78156e-05
6.0025e-05
0.000130137
0.000109993
0.000116646
0.000126013
0.000133954
0.000142642
0.000152067
0.000162532
0.000175014
0.00019009
0.000207057
0.000224754
0.000241386
0.000265633
0.000295604
0.000329757
0.000371345
0.00041273
0.000453969
0.000492862
0.00052954
0.000570639
0.000615873
0.000665977
0.000700385
0.000700712
0.000700668
0.00070093
0.000700787
0.000679769
0.000176819
0.000176806
0.000679649
0.000700666
0.000700779
0.000700471
0.000700518
0.000700192
0.000700224
0.00069989
0.00069991
0.000699544
0.00069951
0.000699035
0.000698876
0.000698456
0.000698556
0.000698567
0.000699124
0.000699402
0.000699748
0.000699928
0.000700053
0.000700411
0.000700394
0.000700715
0.000700659
0.00070094
0.000700719
0.000679958
0.000176858
0.000176804
0.000679834
0.000700909
0.000700722
0.000700789
0.00070046
0.00070049
0.000700149
0.000700171
0.000699803
0.000699787
0.000699371
0.000699212
0.000698676
0.000698591
0.000698385
0.000698769
0.000698929
0.000699443
0.000699498
0.000699892
0.000699907
0.000700265
0.000700253
0.00070061
0.000700588
0.000700865
0.000700726
0.000679758
0.000176807
0.000176852
0.000679661
0.000700657
0.000700776
0.00070075
0.00070044
0.000700441
0.000700093
0.000700096
0.000699726
0.000699707
0.000699295
0.000699159
0.000698651
0.000698498
0.000698505
0.000698646
0.000699163
0.000699305
0.000699717
0.000699736
0.000700099
0.00070009
0.000700427
0.000700413
0.000700721
0.000700705
0.00070069
0.000679553
0.000176851
0.0001768
0.000679797
0.000700859
0.000700672
0.000700734
0.000700413
0.000700455
0.000700115
0.000700154
0.000699802
0.000699792
0.000699385
0.000699258
0.00069873
0.000698628
0.000698372
0.000698732
0.000698891
0.000699409
0.000699469
0.000699861
0.000699886
0.000700255
0.000700252
0.000700606
0.000700591
0.000700859
0.000700728
0.00067976
0.000176805
1.16896e-05
8.45759e-05
0.000129471
0.000211869
0.000314859
0.000394567
0.000475755
0.000551574
0.000625744
0.00060944
0.000537438
0.00038256
0.000162861
1.1265e-05
0.000157315
0.000592987
0.000801
0.000963626
0.0010527
0.00118377
0.00149826
0.00195127
0.00250698
0.00311697
0.00371413
0.00415975
0.00448184
0.00462755
0.00466466
0.00462899
0.00444348
0.00416698
0.00362046
0.00305306
0.00254111
0.00225294
0.00216021
0.00200782
0.00187103
0.00170298
0.00108883
0.000488156
0.000338932
0.000127615
0.000709087
0.00538291
0.00607749
0.0071923
0.0086702
0.00959486
0.00996486
0.00984782
0.00959216
0.00923581
0.00872203
0.00789107
0.00737503
0.00662868
0.00698507
0.00633297
0.00625829
0.00609848
0.0053644
0.00489492
0.0043151
0.00393271
0.00370505
0.0036517
0.00304094
0.00221279
0.00138667
0.000830534
0.000447205
2.09958e-05
0.00151574
0.00833986
0.00832061
0.00842753
0.0088928
0.0098745
0.0102172
0.0110839
0.0113424
0.0119655
0.0117606
0.0113766
0.0104542
0.0106261
0.00971754
0.0101431
0.00998382
0.00985649
0.00900308
0.00783697
0.00648031
0.00528903
0.00458321
0.00396597
0.00374671
0.00335292
0.00248633
0.0014524
0.000717932
1.61808e-05
0.00113667
0.00384444
0.00451024
0.00450351
0.0046136
0.00438683
0.00472149
0.0050633
0.00569984
0.00677583
0.00765216
0.00823922
0.0100941
0.0101922
0.0106783
0.0105216
0.00975175
0.00865101
0.0072957
0.00611019
0.00518163
0.00424976
0.00341911
0.00228679
0.00133752
0.00027717
0.000132513
6.06885e-05
0.000102593
1.64272e-05
6.1991e-05
0.000344124
0.000772933
0.00184776
0.00571478
0.0152105
0.0233697
0.0274311
0.0302911
0.0296278
0.0302932
0.026053
0.0239432
0.0196095
0.0160041
0.0119998
0.00797847
0.0046561
0.00255752
0.00152323
0.00121646
0.00121639
0.00128423
0.000791864
0.000552209
0.000231414
0.000207211
0.000112922
5.64254e-05
5.47511e-06
3.16766e-06
2.76915e-05
0.000143108
0.00034046
0.000381754
0.000877978
0.000995184
0.000744802
0.00041451
0.000250545
0.000129712
6.80717e-05
4.31327e-05
2.84341e-05
1.99767e-05
1.97247e-05
1.28965e-05
1.12111e-05
9.78309e-06
1.29836e-05
1.34379e-05
1.85156e-05
1.21567e-05
1.03874e-05
6.29513e-06
3.99492e-06
3.07151e-06
2.17265e-06
2.7405e-06
4.5606e-07
1.8393e-06
6.1589e-06
1.34657e-05
2.14542e-05
1.84328e-05
1.53453e-05
1.27875e-05
1.07305e-05
9.07014e-06
7.94136e-06
7.06872e-06
6.52812e-06
6.23295e-06
6.04638e-06
6.06963e-06
6.26084e-06
6.66966e-06
7.18847e-06
7.90416e-06
8.71893e-06
9.75869e-06
1.10062e-05
1.27152e-05
1.4848e-05
1.75178e-05
2.1355e-05
2.70165e-05
3.6609e-05
5.70864e-05
0.000118755
7.83408e-05
8.24485e-05
9.19966e-05
9.98167e-05
0.00010845
0.000118465
0.000129896
0.000143227
0.000158418
0.000175857
0.000195644
0.000217866
0.000243068
0.000271909
0.000304508
0.00034195
0.000383299
0.0004293
0.000479993
0.000535444
0.000596898
0.000664882
0.000705651
0.000705634
0.000705658
0.000705633
0.000705692
0.000705388
0.000679122
0.000175688
0.000175676
0.000679048
0.000705269
0.000705614
0.000705553
0.000705561
0.000705515
0.000705519
0.00070548
0.000705483
0.000705444
0.000705445
0.000705396
0.000705391
0.000705351
0.000705362
0.000705357
0.000705411
0.000705408
0.00070552
0.000705545
0.000705469
0.00070551
0.0007055
0.00070554
0.00070553
0.000705569
0.000705266
0.000679016
0.000175651
0.000175678
0.000679046
0.000705309
0.000705535
0.000705541
0.000705505
0.000705509
0.00070548
0.000705485
0.000705452
0.000705453
0.000705418
0.000705407
0.000705364
0.000705361
0.000705341
0.000705378
0.000705386
0.000705436
0.000705438
0.000705477
0.000705475
0.000705513
0.000705515
0.000705557
0.000705541
0.000705618
0.000705322
0.000679053
0.000175674
0.000175651
0.000679057
0.000705286
0.000705531
0.000705589
0.000705534
0.000705531
0.000705488
0.000705495
0.000705455
0.000705456
0.000705417
0.000705408
0.000705359
0.000705426
0.000705426
0.000705354
0.000705407
0.000705413
0.000705453
0.000705453
0.000705491
0.000705487
0.000705528
0.000705528
0.000705577
0.000705548
0.000705336
0.00067906
0.000175652
0.000175677
0.000679009
0.000705298
0.000705524
0.000705531
0.000705502
0.000705504
0.00070548
0.000705485
0.000705459
0.00070546
0.000705425
0.00070542
0.00070537
0.000705368
0.000705347
0.000705379
0.000705388
0.000705437
0.000705441
0.000705481
0.000705478
0.000705517
0.000705514
0.000705563
0.000705545
0.00070562
0.000705327
0.000679073
0.000175676
1.87955e-05
0.000124344
0.000222942
0.00039985
0.000613413
0.000795016
0.000949488
0.00111384
0.00125348
0.00122391
0.00118243
0.00103265
0.000356595
1.24635e-05
0.000523884
0.00119889
0.00140027
0.00137633
0.00147756
0.00172536
0.00214
0.00269029
0.00331012
0.00398454
0.00465721
0.00533711
0.00586922
0.00622524
0.0064108
0.00604947
0.00588332
0.00534375
0.00496199
0.00423839
0.00366331
0.00319812
0.00302943
0.00280424
0.00265133
0.00207191
0.00149746
0.000895952
0.00113912
0.000107123
0.000820594
0.00671387
0.00700485
0.00804867
0.00911978
0.0100901
0.0101121
0.0100591
0.00976191
0.00937158
0.00867036
0.00804925
0.0074312
0.00684788
0.00643391
0.00608553
0.00618288
0.00575044
0.00587307
0.00549652
0.00504464
0.00501675
0.00473348
0.00510611
0.00465169
0.00348389
0.00240111
0.00175419
0.00101842
1.57751e-05
0.00166782
0.00999261
0.00963781
0.00929674
0.0097814
0.0100396
0.0109214
0.0110337
0.0115008
0.0111744
0.0109755
0.010378
0.0104271
0.0102223
0.0104939
0.0116039
0.0123996
0.0124473
0.0117339
0.0102469
0.00873006
0.00750471
0.00658509
0.00630585
0.00647472
0.00620388
0.00538466
0.00408185
0.00319738
0.000603842
0.00153679
0.00326853
0.0041055
0.0043468
0.00393473
0.00387401
0.00429332
0.00553612
0.00650829
0.00698283
0.00803804
0.00884954
0.00968458
0.0106088
0.0107226
0.0105726
0.0103389
0.00964948
0.00878253
0.00786505
0.00738945
0.00699169
0.00621106
0.00483363
0.00280347
0.0012577
0.000479347
0.000260222
0.000262562
1.57322e-05
0.000169513
0.00202275
0.00760724
0.00787125
0.0127345
0.0224403
0.0281744
0.0339101
0.0330278
0.0379994
0.0361892
0.037206
0.0336984
0.0306239
0.0290678
0.0231715
0.0182326
0.0110939
0.00603273
0.00293077
0.00177251
0.00150619
0.0015578
0.00227605
0.00155876
0.00040698
0.000239845
0.000202674
0.000119802
6.65137e-06
3.97759e-06
0.000102789
0.00128324
0.00109449
0.00102944
0.00169539
0.00208994
0.00172243
0.00112338
0.000726032
0.000456772
0.000279569
0.00015527
8.35858e-05
4.76574e-05
3.0937e-05
2.34535e-05
1.71993e-05
1.23732e-05
8.96542e-06
8.69667e-06
8.35683e-06
1.36816e-05
1.16232e-05
7.56499e-06
5.61908e-06
3.27499e-06
2.48028e-06
2.42079e-06
6.00524e-07
1.5973e-06
1.52365e-05
3.01014e-05
4.41797e-05
5.86893e-05
4.47968e-05
3.49544e-05
2.70832e-05
2.14096e-05
1.6929e-05
1.39542e-05
1.1614e-05
9.9978e-06
8.78978e-06
8.03886e-06
7.55055e-06
7.30159e-06
7.41398e-06
7.75292e-06
8.38236e-06
9.20422e-06
1.03185e-05
1.16842e-05
1.34837e-05
1.58057e-05
1.90454e-05
2.37419e-05
3.18883e-05
4.84932e-05
9.05358e-05
5.45984e-05
5.80396e-05
6.73492e-05
7.40449e-05
8.13098e-05
8.99447e-05
9.9928e-05
0.00011179
0.000125317
0.000140991
0.000158725
0.0001791
0.000202493
0.000230256
0.000261335
0.000297406
0.000338771
0.000388078
0.000445374
0.000513302
0.000581385
0.000657553
0.00068772
0.000687887
0.000687679
0.000687854
0.000687675
0.000687497
0.00066162
0.000170139
0.000170132
0.00066158
0.000687485
0.0006876
0.000687785
0.000687599
0.000687787
0.000687601
0.000687788
0.000687596
0.000687778
0.000687591
0.000687766
0.000687585
0.000687755
0.000687581
0.000687751
0.000687577
0.000687749
0.000687643
0.000687616
0.000687776
0.00068759
0.000687778
0.000687597
0.000687786
0.000687603
0.000687511
0.00066117
0.000170164
0.000170123
0.000661541
0.000687292
0.00068777
0.000687587
0.000687777
0.000687591
0.000687781
0.000687595
0.000687779
0.000687593
0.000687767
0.000687584
0.000687754
0.000687582
0.000687751
0.000687582
0.000687757
0.000687589
0.000687771
0.000687591
0.000687773
0.000687592
0.000687771
0.000687587
0.000687769
0.000687612
0.000687432
0.000661555
0.000170125
0.00017016
0.000661305
0.000687468
0.000687764
0.000687594
0.000687777
0.00068759
0.000687773
0.00068759
0.000687775
0.00068759
0.000687767
0.000687578
0.000687755
0.000687586
0.00068759
0.00068775
0.000687578
0.000687764
0.000687585
0.000687773
0.000687592
0.000687775
0.00068759
0.000687771
0.000687587
0.000687765
0.000687414
0.000661343
0.000170156
0.000170124
0.000661516
0.000687284
0.000687769
0.000687582
0.000687775
0.00068759
0.000687785
0.000687594
0.000687786
0.000687597
0.000687775
0.00068759
0.000687762
0.000687579
0.000687752
0.000687583
0.000687756
0.000687593
0.000687777
0.000687597
0.000687781
0.000687599
0.000687777
0.000687595
0.000687772
0.000687619
0.000687432
0.000661579
0.000170128
1.68848e-05
0.000181959
0.000366442
0.000686854
0.00108727
0.00142374
0.00177986
0.00219524
0.00257292
0.00250537
0.00242283
0.00269218
0.00232074
5.13358e-05
0.00117853
0.0020502
0.0018965
0.00195103
0.00203797
0.0023229
0.00283147
0.0036035
0.00451338
0.00522953
0.00571491
0.00606138
0.00635197
0.00653681
0.00650228
0.00590849
0.00589558
0.00555707
0.00542446
0.0048986
0.00467744
0.0041456
0.00397283
0.00365545
0.00360609
0.00286178
0.00216039
0.00275901
0.00183895
0.000198123
0.000941951
0.00774357
0.00781303
0.00858189
0.00949971
0.00996902
0.0101174
0.0098947
0.00971078
0.00914872
0.00846989
0.00756525
0.00721202
0.00630707
0.00634993
0.00604821
0.00562807
0.00563922
0.00556393
0.00582338
0.0058555
0.00562258
0.00549841
0.00621981
0.00614531
0.00509881
0.00394669
0.00289478
0.00241972
8.68205e-05
0.00179653
0.011833
0.0110175
0.0103416
0.0104103
0.0110461
0.0111282
0.0115749
0.0111124
0.0108551
0.0102938
0.010651
0.0104035
0.0110262
0.012415
0.0137892
0.0148164
0.0146003
0.0130911
0.0114019
0.00957397
0.00861008
0.00809198
0.00842938
0.00897611
0.00953093
0.00949742
0.0085192
0.00747785
0.00364768
0.000519602
0.00265782
0.00388274
0.00404702
0.00419852
0.00449325
0.00573282
0.00627908
0.00636807
0.00729225
0.00771554
0.0088984
0.00993556
0.00992565
0.010635
0.0101313
0.00993314
0.00971871
0.00928471
0.00889048
0.00882745
0.00890368
0.00844756
0.00679193
0.00480712
0.00244362
0.00105211
0.000486346
0.000186026
1.89327e-05
0.00254189
0.022441
0.0353887
0.0417903
0.037612
0.0317233
0.0337542
0.0333373
0.0402878
0.0399955
0.0433642
0.0406907
0.0395763
0.0403923
0.0363823
0.0353877
0.0278465
0.0212504
0.0129148
0.00645431
0.00329849
0.00236258
0.00254206
0.00337842
0.00390277
0.00208094
0.000499229
0.000133769
0.000224748
2.99671e-05
2.138e-05
0.00154391
0.00298068
0.00684082
0.00525631
0.0041269
0.0039266
0.00368044
0.00325764
0.00297257
0.00253344
0.00184937
0.00104196
0.000435308
0.000172019
7.44462e-05
4.19234e-05
2.7345e-05
1.95667e-05
1.52091e-05
1.00366e-05
8.72087e-06
7.74398e-06
9.73941e-06
1.06936e-05
6.49152e-06
4.57195e-06
2.9653e-06
2.59714e-06
6.82202e-07
1.06796e-06
1.90971e-05
2.39122e-05
2.99753e-05
3.66856e-05
4.67601e-05
5.7715e-05
6.21976e-05
4.61499e-05
3.46256e-05
2.68866e-05
2.14933e-05
1.75077e-05
1.4764e-05
1.25924e-05
1.08771e-05
9.70044e-06
8.99333e-06
8.75964e-06
8.84276e-06
9.26164e-06
9.96732e-06
1.10079e-05
1.23878e-05
1.42731e-05
1.65632e-05
2.05046e-05
2.71105e-05
3.97294e-05
6.07562e-05
3.87434e-05
4.2414e-05
5.04318e-05
5.64101e-05
6.30076e-05
7.13147e-05
8.03784e-05
9.12439e-05
0.000103658
0.000117888
0.000134117
0.000153158
0.000174121
0.000196168
0.000220575
0.000251161
0.000289278
0.000332953
0.000385893
0.000452162
0.000528439
0.000616598
0.000666231
0.000666285
0.000666185
0.000666249
0.000666177
0.000665972
0.000641179
0.000164475
0.000164468
0.00064115
0.000665931
0.000666096
0.000666196
0.000666092
0.000666201
0.000666098
0.000666205
0.000666097
0.000666204
0.000666093
0.000666196
0.00066609
0.00066619
0.000666084
0.000666183
0.000666079
0.000666166
0.000666143
0.000666119
0.000666192
0.00066609
0.000666196
0.000666093
0.000666198
0.000666094
0.000665947
0.000641052
0.000164461
0.000164465
0.000641092
0.000665819
0.000666189
0.000666079
0.000666194
0.000666088
0.000666198
0.000666094
0.0006662
0.000666094
0.000666191
0.000666083
0.000666184
0.00066608
0.000666182
0.000666083
0.000666187
0.000666087
0.000666192
0.000666089
0.000666189
0.000666079
0.000666187
0.00066608
0.000666179
0.000666108
0.000665915
0.00064112
0.000164463
0.00016446
0.000641073
0.000665944
0.000666189
0.000666098
0.000666191
0.000666087
0.00066619
0.000666089
0.000666194
0.000666088
0.000666192
0.000666079
0.000666175
0.000666115
0.000666112
0.000666171
0.000666076
0.000666188
0.000666083
0.000666191
0.000666087
0.000666187
0.000666084
0.000666182
0.000666083
0.000666178
0.000665912
0.000641086
0.000164459
0.000164466
0.000641089
0.00066582
0.000666187
0.000666074
0.000666189
0.000666084
0.000666196
0.000666091
0.000666202
0.000666094
0.000666198
0.000666084
0.000666183
0.000666075
0.000666179
0.000666077
0.000666182
0.000666086
0.000666196
0.000666096
0.000666199
0.000666091
0.000666191
0.000666087
0.000666189
0.000666113
0.000665921
0.00064114
0.000164463
2.66724e-05
0.000254492
0.000544924
0.00106327
0.00164474
0.00223094
0.00311193
0.00456179
0.00541259
0.00547339
0.0058242
0.00680424
0.00814562
0.000246531
0.00261883
0.0027541
0.00263183
0.00263546
0.00280962
0.00333678
0.00434611
0.00493155
0.00525782
0.00538644
0.00533956
0.00517004
0.00504861
0.00506972
0.00526067
0.00523009
0.00509205
0.00500699
0.00525476
0.00500197
0.00525877
0.00495033
0.00502388
0.00481428
0.00520802
0.00521406
0.00499383
0.00609608
0.00346282
0.000348981
0.00112772
0.00846533
0.00828042
0.00876984
0.00929625
0.00953951
0.00951663
0.00947191
0.0090908
0.00848138
0.00759104
0.00699443
0.00611336
0.00616838
0.00595456
0.00577162
0.00590262
0.00532686
0.00579103
0.00634911
0.00645201
0.00619438
0.00623625
0.00709139
0.00728371
0.00632244
0.00523397
0.00461499
0.00481715
0.00119056
0.00174501
0.0136983
0.0121622
0.0113061
0.0113029
0.0115278
0.0120219
0.0114372
0.0110546
0.0105163
0.0110433
0.0110833
0.0117667
0.0129413
0.0141687
0.015085
0.0149381
0.0136989
0.0122797
0.010662
0.00959802
0.00907426
0.00894565
0.00940032
0.0100945
0.0114151
0.0129171
0.0132358
0.0130105
0.0138719
0.00220071
0.0049042
0.00682927
0.00686751
0.00669157
0.00695979
0.00677321
0.00684733
0.00668551
0.00687851
0.00783717
0.00835828
0.00954298
0.0100222
0.00948454
0.0099523
0.00953114
0.00939171
0.00949104
0.00966178
0.00974017
0.00959449
0.0098084
0.00913982
0.0071682
0.00468483
0.00256458
0.00116076
0.000617773
4.23505e-05
0.00608756
0.0940111
0.106937
0.062578
0.0472477
0.0348383
0.0344176
0.036743
0.0420521
0.0409546
0.0435773
0.0412438
0.0416556
0.0365928
0.039267
0.0345603
0.0322264
0.0265967
0.0195559
0.0109062
0.00507538
0.00285746
0.00237386
0.00222496
0.00213229
0.00607851
0.00299541
0.000730402
0.000161793
9.44604e-05
0.000592131
0.00552718
0.00428958
0.0118212
0.0448395
0.0368037
0.0249968
0.0166951
0.0138673
0.010283
0.00983371
0.0067175
0.00367039
0.00154387
0.000535346
0.000188319
7.69561e-05
4.39777e-05
2.91441e-05
2.04064e-05
1.63924e-05
1.0664e-05
7.84566e-06
7.96925e-06
9.6287e-06
9.3092e-06
5.81205e-06
3.96875e-06
3.10193e-06
8.31707e-07
3.03995e-07
9.71255e-06
1.30653e-05
1.71213e-05
2.2638e-05
2.95094e-05
3.85409e-05
4.84749e-05
6.11764e-05
7.06753e-05
5.26811e-05
3.96605e-05
3.0864e-05
2.421e-05
1.95937e-05
1.61889e-05
1.39071e-05
1.22508e-05
1.10424e-05
1.04026e-05
1.01381e-05
1.03061e-05
1.08965e-05
1.1838e-05
1.21598e-05
1.38187e-05
1.67586e-05
2.14254e-05
3.00947e-05
3.93485e-05
2.59228e-05
3.17879e-05
3.70467e-05
4.2018e-05
4.77326e-05
5.48327e-05
6.44623e-05
7.40213e-05
8.49202e-05
9.71028e-05
0.000110598
0.000125847
0.000143796
0.000164839
0.000189211
0.000217568
0.000250608
0.000289047
0.000333838
0.000385255
0.000448452
0.000525789
0.000617495
0.000630999
0.000630925
0.000630963
0.000630912
0.0006307
0.000606627
0.00015389
0.000153887
0.000606613
0.000630632
0.00063084
0.000630892
0.000630846
0.000630905
0.000630855
0.000630911
0.00063086
0.000630912
0.000630862
0.000630907
0.000630867
0.000630907
0.000630864
0.000630903
0.000630855
0.000630885
0.000630906
0.000630881
0.000630901
0.000630845
0.000630899
0.000630843
0.000630892
0.000630845
0.00063064
0.000606528
0.000153872
0.000153878
0.000606526
0.000630581
0.000630891
0.00063084
0.000630901
0.000630851
0.000630909