/*--------------------------------*- C++ -*----------------------------------*\
| =========                 |                                                 |
| \\      /  F ield         | OpenFOAM: The Open Source CFD Toolbox           |
|  \\    /   O peration     | Version:  2.1.1                                 |
|   \\  /    A nd           | Web:      www.OpenFOAM.org                      |
|    \\/     M anipulation  |                                                 |
\*---------------------------------------------------------------------------*/
FoamFile
{
    version     2.0;
    format      ascii;
    class       volScalarField;
    location    "0.002900000";
    object      G;
}
// * * * * * * * * * * * * * * * * * * * * * * * * * * * * * * * * * * * * * //

dimensions      [0 0 0 0 0 0 0];

internalField   nonuniform List<scalar> 
12384
(
1
1
1
1
1
1
1
1
1
1
1
1
1
1
1
1
1
1
1
1
1
1
1
1
1
1
1
1
1
1
1
1
1
1
1
1
1
1
1
1
1
1
1
1
1
1
0.999998
0.999336
0.999138
0.980012
0.990321
0.966394
0.990825
0.988199
0.995138
0.99701
0.998963
0.999768
0.99996
0.999993
0.999999
1
1
1
1
1
1
1
1
1
1
1
1
1
1
0.999997
0.99971
0.993726
0.97527
0.936141
0.883771
0.833642
0.808182
0.7836
0.778242
0.778741
0.754019
0.768434
0.777384
0.805428
0.884179
0.954481
0.995386
0.999965
0.999999
1
1
1
1
1
1
1
1
1
1
0.999885
0.987217
0.997092
0.995013
0.992964
0.993293
0.996748
0.998719
0.999877
0.99998
0.999989
0.999864
0.999308
0.999619
0.999998
1
1
1
1
1
1
1
1
1
1
1
1
1
1
1
1
1
1
1
1
1
1
1
1
1
1
1
1
1
1
1
1
1
1
1
1
1
1
1
1
1
1
1
1
1
1
1
1
1
1
1
1
1
1
1
1
1
1
1
1
1
1
1
1
1
1
1
1
1
1
1
1
1
1
1
1
1
1
1
1
1
1
1
1
1
1
1
1
1
1
1
1
1
1
1
1
1
1
1
1
1
1
1
1
1
1
1
1
1
1
1
1
1
1
1
1
1
1
1
1
1
1
1
1
1
1
1
1
1
1
1
1
1
1
1
1
1
1
1
1
1
1
1
1
1
1
1
1
1
1
1
1
1
1
1
1
1
1
1
1
1
1
1
1
1
1
1
1
1
1
1
1
1
1
1
1
1
1
1
1
1
1
1
1
1
1
1
1
1
1
1
1
1
1
1
1
1
1
1
1
1
1
1
1
1
1
1
1
1
1
1
1
1
1
1
1
1
1
1
1
1
1
1
1
1
1
1
1
1
1
1
1
1
1
1
1
1
1
1
1
1
1
1
1
1
1
1
1
1
1
1
1
1
1
1
1
1
1
1
1
1
1
1
0.999993
1
1
1
1
1
1
1
0.998142
0.921383
0.712278
0.578226
0.923241
0.999634
0.999997
1
1
1
0.999986
0.996158
0.862025
0.31744
0.080713
0.0875545
0.117911
0.0700455
0.0897787
0.0836629
0.0629727
0.0444706
0.232634
0.890607
0.999998
1
1
0.999989
0.569964
0.263981
0.0800585
0.0281119
0.013138
0.150885
0.561435
0.876277
0.975024
0.983411
0.989232
0.937587
0.806797
0.630723
0.518444
0.54627
0.59623
0.654476
0.596465
0.504489
0.340951
0.111937
0.0453894
0.0793815
0.415799
0.847999
0.999999
1
1
0.998458
0.311734
0.211392
0.134226
0.0919758
0.0522692
0.0313795
0.020492
0.018944
0.0246967
0.0368435
0.0474767
0.0539856
0.0620785
0.0714111
0.0909623
0.0943233
0.103011
0.143517
0.159136
0.118278
0.0600977
0.035973
0.0457867
0.15455
0.804632
0.991837
0.999918
1
1
1
0.0721458
0.0163867
0.0341024
0.0872141
0.0944586
0.11326
0.134799
0.147075
0.160498
0.171057
0.154735
0.131889
0.107819
0.079028
0.0805435
0.117386
0.189027
0.32665
0.46779
0.53545
0.190271
0.232483
0.998068
0.995154
0.986482
0.998732
1
1
1
1
1
1
0.99902
0.501382
0.214832
0.103248
0.0623572
0.0432169
0.0344432
0.0369892
0.0674719
0.148766
0.318184
0.592546
0.805712
0.958479
0.999469
0.999998
1
1
1
1
0.999949
0.999995
0.997964
0.999989
1
1
1
1
1
1
1
1
1
1
1
1
1
1
1
1
1
1
1
1
1
1
1
1
1
1
1
1
1
1
1
1
1
1
1
1
1
1
1
1
1
1
1
1
1
1
1
1
1
1
1
1
1
1
1
1
1
1
1
1
1
1
1
1
1
1
1
1
1
1
1
1
1
1
1
1
1
1
1
1
1
1
1
1
1
1
1
1
1
1
1
1
1
1
1
1
1
1
1
1
1
1
1
1
1
1
1
1
1
1
1
1
1
1
1
1
1
1
1
1
1
1
1
1
1
1
1
1
1
1
1
1
1
1
1
1
1
1
1
1
1
1
1
1
1
1
1
1
1
1
1
1
1
1
1
1
1
1
1
1
1
1
1
1
1
1
1
1
1
1
1
1
1
1
1
1
1
1
1
1
1
1
1
1
1
1
1
1
1
1
1
1
1
1
1
1
1
1
1
1
1
1
1
1
1
1
1
1
1
1
1
1
1
1
1
1
1
1
1
1
1
1
1
0.979005
0.999999
1
1
1
0.999402
0.879533
0.530825
0.530564
0.999439
1
1
1
1
1
1
1
1
1
1
0.999996
0.999602
0.996287
0.994236
0.93319
0.70651
0.0621092
0.0156203
0.0101564
0.065634
0.431411
0.97636
1
1
0.999684
0.264422
0.10832
0.0260654
0.0100458
0.0893277
0.621601
0.932451
0.99736
0.999524
0.999882
0.999934
0.998852
0.955372
0.413284
0.0675502
0.0537462
0.0801426
0.230845
0.356041
0.464978
0.389566
0.124602
0.011832
0.0160033
0.155305
0.617888
0.981672
1
1
0.985862
0.0917699
0.0943326
0.0851539
0.0648455
0.0426035
0.0295431
0.0216949
0.0204824
0.0222621
0.0275482
0.0344305
0.0454848
0.0550612
0.0576483
0.0604555
0.0380663
0.0202714
0.0151703
0.0152888
0.013258
0.00861273
0.0047241
0.0047903
0.0107916
0.0655403
0.238969
0.731465
0.999999
1
0.994532
0.00652306
0.0029772
0.0089196
0.0162515
0.0315046
0.0551298
0.0806312
0.0910216
0.089716
0.0882119
0.0867923
0.0825678
0.0733117
0.0645135
0.0625094
0.071252
0.0898819
0.108279
0.104573
0.0559069
0.0107836
0.000270468
1.06089e-05
0.998752
0.903397
0.928204
0.999993
1
1
1
1
1
0.999996
0.998396
0.581099
0.0294988
0.0091196
0.00426229
0.00275548
0.00234294
0.00332164
0.00653867
0.0174351
0.0501582
0.137406
0.311831
0.613992
0.803176
0.787034
0.974477
0.964808
0.999998
1
1
0.999999
0.998952
1
1
1
1
1
1
1
1
0.970514
0.764066
0.843723
0.995358
1
1
1
1
1
1
1
1
1
1
1
1
1
1
1
1
1
1
1
1
1
0.999983
1
1
1
1
1
1
1
1
1
1
1
1
1
1
1
1
1
1
1
1
1
1
1
1
1
1
1
1
0.999984
0.999979
1
1
1
1
1
1
1
1
1
1
1
1
1
1
1
1
1
1
1
1
1
1
1
1
1
1
1
1
0.999978
0.999978
1
1
1
1
1
1
1
1
1
1
1
1
1
1
1
1
1
1
1
1
1
1
1
1
1
1
1
1
0.999978
0.999978
1
1
1
1
1
1
1
1
1
1
1
1
1
1
1
1
1
1
1
1
1
1
1
1
1
1
1
1
0.999978
0.999978
1
1
1
1
1
1
1
1
1
1
1
1
1
1
1
1
1
1
1
1
1
1
1
1
1
1
1
1
0.999978
0.999978
1
1
1
1
1
1
1
1
1
1
1
1
1
1
1
1
1
1
1
1
1
1
1
1
1
1
1
1
0.999978
1
1
1
1
1
1
1
1
1
1
0.999903
0.0919854
1
1
1
0.59349
0.212498
0.377674
1
1
1
1
1
1
0.999998
0.999981
0.999968
0.999979
0.999991
0.999998
1
1
1
1
0.999991
0.995895
0.842115
0.0559781
0.00302418
0.0163726
0.0630137
0.616531
0.999956
1
0.996133
0.100504
0.0447967
0.0098226
0.0138267
0.205176
0.781508
0.983121
0.998038
0.999569
0.999884
0.999924
0.999274
0.568147
0.0397548
0.0118698
0.00542899
0.00365
0.00995611
0.115974
0.256524
0.351192
0.155328
0.00421806
0.00220224
0.0394508
0.314708
0.829976
0.998848
1
0.91965
0.0195642
0.0306362
0.0428773
0.0413437
0.0331536
0.0254463
0.0201839
0.0165495
0.0159079
0.0207784
0.0333154
0.044008
0.0474785
0.0426668
0.0279941
0.00889269
0.00183712
0.000744442
0.000601583
0.000558925
0.000575969
0.00042186
0.00047444
0.000450706
0.00104317
0.0145859
0.262803
0.727859
1
0.998343
0.00165054
0.000787007
0.000921148
0.00598718
0.0272644
0.055781
0.06244
0.0574827
0.0438859
0.0436535
0.0532113
0.0635677
0.065114
0.071816
0.0713633
0.0699059
0.0715787
0.0664082
0.0400919
0.00903248
0.0006157
3.58574e-06
7.03211e-10
7.69133e-08
0.00486409
0.00043489
1
0.999997
1
1
0.999989
1
1
0.998968
0.763623
0.0104545
0.00212977
0.000627909
0.000193613
9.05235e-05
6.90147e-05
9.65203e-05
0.000232892
0.000947682
0.00531633
0.0328673
0.155339
0.468539
0.710082
0.732902
0.589626
0.566525
0.837759
0.996113
1
0.999998
0.998526
1
1
1
1
1
1
0.999967
0.726796
0.460379
0.498977
0.710598
0.944509
0.999512
1
1
1
1
1
1
1
1
1
1
1
1
1
1
1
1
1
1
1
1
1
1
1
1
1
1
1
1
1
1
1
1
1
1
1
1
1
1
1
1
1
1
1
1
1
1
1
1
0.999999
0.999999
1
1
1
1
1
1
1
1
1
1
1
1
1
1
1
1
1
1
1
1
1
1
1
1
1
1
1
1
0.999999
0.999999
1
1
1
1
1
1
1
1
1
1
1
1
1
1
1
1
1
1
1
1
1
1
1
1
1
1
1
1
0.999999
0.999999
1
1
1
1
1
1
1
1
1
1
1
1
1
1
1
1
1
1
1
1
1
1
1
1
1
1
1
1
0.999999
0.999999
1
1
1
1
1
1
1
1
1
1
1
1
1
1
1
1
1
1
1
1
1
1
1
1
1
1
1
1
0.999999
0.999999
1
1
1
1
1
1
1
1
1
1
1
1
1
1
1
1
1
1
1
1
1
1
1
1
1
1
1
1
0.999999
1
1
1
1
1
1
1
1
1
1
1
8.45073e-06
0.391617
1
0.99882
0.0442262
0.407987
1
1
1
1
0.999999
0.99158
0.499345
0.236962
0.109348
0.0859834
0.317741
0.965978
0.998464
0.999953
0.999995
1
1
1
1
0.997475
0.661743
0.0127425
0.00129455
0.00138934
0.00541145
0.983923
1
0.982648
0.0394176
0.0181073
0.00443953
0.0120548
0.304198
0.812845
0.979911
0.993244
0.997289
0.999134
0.999708
0.998265
0.85128
0.102761
0.0465479
0.0194857
0.00553268
0.00285156
0.0144038
0.132641
0.251322
0.148119
0.0020763
0.000129947
0.00263761
0.0691154
0.432043
0.875175
1
0.77455
0.00371106
0.00833651
0.0176239
0.0224735
0.0205972
0.0180838
0.0146247
0.0136505
0.0214879
0.147876
0.149691
0.056525
0.037435
0.0169275
0.00276483
0.000157068
1.33909e-05
3.87221e-06
3.37813e-06
5.70219e-06
1.31442e-05
1.89965e-05
1.61712e-05
1.49281e-05
1.95757e-05
0.000107689
0.00776485
0.0385502
0.999998
0.968951
0.00165876
0.000725996
0.00197766
0.0188017
0.0688338
0.0662925
0.0451808
0.0347436
0.0242637
0.0265738
0.036823
0.0451699
0.0599674
0.0827686
0.0985603
0.0993472
0.0920135
0.0808061
0.0464693
0.00512628
8.23257e-05
3.14682e-07
2.4956e-09
1.9829e-10
1.24782e-07
4.53745e-05
0.000181942
0.949057
1
1
0.497794
0.236434
0.906218
0.981189
0.476357
0.0027016
0.000495728
6.08147e-05
1.3636e-05
3.29959e-06
1.86606e-06
1.51464e-06
2.35262e-06
1.03491e-05
4.96302e-05
0.000546859
0.00712348
0.0859645
0.431434
0.722162
0.745338
0.565874
0.290071
0.816498
0.999999
1
0.999964
0.979367
1
1
1
1
0.993753
0.848713
0.282378
0.0907922
0.0703459
0.106728
0.184081
0.38174
0.715167
0.95996
0.999997
1
1
1
1
1
1
1
1
1
1
1
1
1
1
1
1
1
1
1
1
1
1
1
1
1
1
1
1
1
1
1
1
1
1
1
1
1
1
1
1
1
1
1
1
1
1
1
1
1
1
1
1
1
1
1
1
1
1
1
1
1
1
1
1
1
1
1
1
1
1
1
1
1
1
1
1
1
1
1
1
1
1
1
1
1
1
1
1
1
1
1
1
1
1
1
1
1
1
1
1
1
1
1
1
1
1
1
1
1
1
1
1
1
1
1
1
1
1
1
1
1
1
1
1
1
1
1
1
1
1
1
1
1
1
1
1
1
1
1
1
1
1
1
1
1
1
1
1
1
1
1
1
1
1
1
1
1
1
1
1
1
1
1
1
1
1
1
1
1
1
1
1
1
1
1
1
1
1
1
1
1
1
1
1
1
1
1
1
1
1
1
1
1
1
1
1
1
1
1
1
1
1
1
1
1
0.999999
0.996656
2.69511e-06
1.82298e-06
1
0.856881
0.0642223
1
1
1
1
0.829773
0.179642
0.00589706
0.000247844
4.56983e-05
2.4941e-05
3.32861e-05
0.000133999
0.0029565
0.154706
0.99452
0.999916
0.999999
1
1
1
1
0.971834
0.0937421
1.97135e-05
2.60836e-07
2.82038e-09
0.454833
1
0.947274
0.0177706
0.00884563
0.00289412
0.0448128
0.398468
0.864794
0.967678
0.9847
0.991752
0.99832
0.999584
0.999871
0.993279
0.800658
0.102867
0.0488796
0.0269808
0.00648041
0.00640408
0.0616382
0.178166
0.120784
0.000836164
9.00982e-06
7.84676e-05
0.00752088
0.119192
0.371581
1
0.575062
0.000739528
0.00276505
0.00841681
0.0118738
0.0119841
0.0106571
0.0109589
0.0171126
0.341084
0.598186
0.354567
0.0450989
0.0142706
0.00120917
3.49479e-05
1.23117e-06
3.313e-07
5.4665e-07
2.6997e-06
1.5996e-05
5.41966e-05
8.16046e-05
5.19891e-05
1.32984e-05
1.84522e-06
9.03232e-07
1.92055e-05
0.000893906
0.890088
0.999763
0.00259729
0.00136904
0.00517457
0.0284293
0.0488547
0.0352812
0.0197244
0.0174463
0.017166
0.0181732
0.0316664
0.0360009
0.0489279
0.088418
0.121607
0.137762
0.133462
0.111258
0.0745336
0.0189711
0.000195235
9.06207e-07
1.87483e-08
5.47953e-09
1.5679e-08
8.95563e-07
1.97054e-06
3.03987e-07
1
0.999333
0.00133636
0.00114393
0.0226892
0.414214
0.0685573
0.00102606
8.19922e-05
1.13357e-05
1.57927e-06
4.66819e-07
1.75711e-07
1.22021e-07
2.4816e-07
4.49524e-07
2.90257e-06
1.75549e-05
0.000245759
0.0043055
0.0726507
0.428636
0.651653
0.398181
0.30524
0.312041
0.79874
0.999971
1
1
1
1
0.999977
0.720815
0.0142431
0.0112067
0.0409575
0.0207844
0.00993155
0.00660456
0.00641429
0.0111025
0.0238992
0.0665498
0.221493
0.741009
0.999832
1
1
1
1
1
1
1
1
1
1
1
1
1
1
1
1
1
1
1
1
1
1
1
1
1
1
1
1
1
1
1
1
1
1
1
1
1
1
1
1
1
1
1
1
1
1
1
1
1
1
1
1
1
1
1
1
1
1
1
1
1
1
1
1
1
1
1
1
1
1
1
1
1
1
1
1
1
1
1
1
1
1
1
1
1
1
1
1
1
1
1
1
1
1
1
1
1
1
1
1
1
1
1
1
1
1
1
1
1
1
1
1
1
1
1
1
1
1
1
1
1
1
1
1
1
1
1
1
1
1
1
1
1
1
1
1
1
1
1
1
1
1
1
1
1
1
1
1
1
1
1
1
1
1
1
1
1
1
1
1
1
1
1
1
1
1
1
1
1
1
1
1
1
1
1
1
1
1
1
1
1
1
1
1
1
1
1
1
1
1
1
1
1
1
1
1
1
1
1
1
1
0.806568
0.1655
0.128809
0.0909842
9.1403e-09
5.26644e-13
0.979147
0.490554
0.999992
1
1
0.992104
0.315235
0.00216303
4.71039e-05
7.4302e-06
4.16632e-06
6.1595e-06
1.46797e-05
3.30769e-05
6.40895e-05
0.000348028
0.00755481
0.259879
0.994505
0.999994
1
1
1
1
0.999531
0.0497424
9.57469e-08
1.78693e-12
1.18946e-12
0.0422379
1
0.872743
0.00906743
0.00503101
0.024581
0.288226
0.767886
0.94785
0.985205
0.990668
0.996985
0.999362
0.999967
0.999937
0.999784
0.595563
0.0876672
0.0561263
0.0337144
0.0115114
0.00796695
0.0408517
0.111739
0.0575731
0.000284822
1.04688e-06
3.32777e-06
0.000690849
0.0224963
0.0411027
0.999651
0.407865
0.000185002
0.00125939
0.00463649
0.00620634
0.00619707
0.00644524
0.0125596
0.046698
0.740732
0.711735
0.0438309
0.0163587
0.00162737
7.83076e-05
9.60039e-06
8.49154e-06
3.91648e-05
0.000210868
0.000868483
0.00154773
0.00190999
0.00144357
0.000862796
0.000234323
6.45774e-06
1.19638e-07
1.26967e-07
6.75426e-06
0.296743
0.965444
0.000685407
0.000505336
0.00360194
0.0117759
0.0136657
0.0101812
0.0105477
0.0126792
0.0137012
0.0194615
0.0256821
0.0312987
0.0415201
0.0771579
0.128356
0.155295
0.162531
0.13379
0.0956458
0.0571481
0.0111694
9.78571e-05
9.35061e-07
2.27015e-08
5.95871e-10
1.52255e-10
3.80063e-11
1.30055e-07
1
0.974807
3.40258e-06
2.28302e-07
0.000217555
0.137265
0.0112401
0.000260041
2.21957e-05
3.03097e-06
5.43944e-07
2.75027e-07
2.03926e-07
1.70059e-06
4.05559e-06
0.00682612
0.034821
0.190572
0.352303
0.487687
0.553177
0.234634
0.439623
0.61869
0.644233
0.469254
0.0477162
0.488153
0.996868
0.999942
1
1
0.99023
0.0285488
2.43105e-06
6.81986e-08
1.51606e-06
2.68842e-05
7.35247e-05
4.49856e-05
2.37582e-05
6.6272e-05
0.000264822
0.00210991
0.0139196
0.0916524
0.455484
0.98583
1
1
1
1
1
1
1
1
1
1
1
1
1
1
1
1
1
1
1
1
1
1
1
1
1
1
1
1
1
1
1
1
1
1
1
1
1
1
1
1
1
1
1
1
1
1
1
1
1
1
1
1
1
1
1
1
1
1
1
1
1
1
1
1
1
1
1
1
1
1
1
1
1
1
1
1
1
1
1
1
1
1
1
1
1
1
1
1
1
1
1
1
1
1
1
1
1
1
1
1
1
1
1
1
1
1
1
1
1
1
1
1
1
1
1
1
1
1
1
1
1
1
1
1
1
1
1
1
1
1
1
1
1
1
1
1
1
1
1
1
1
1
1
1
1
1
1
1
1
1
1
1
1
1
1
1
1
1
1
1
1
1
1
1
1
1
1
1
1
1
1
1
1
1
1
1
1
1
1
1
1
1
1
1
1
1
1
1
1
1
1
1
1
1
1
1
1
1
1
0.949014
0.125435
0.363168
0.537326
0.035686
3.70227e-08
1.70806e-19
1.87714e-07
0.287936
1
1
0.907644
0.0631319
0.000210482
1.05259e-05
3.30205e-06
2.54498e-06
5.90043e-06
2.51277e-05
0.00012045
0.000467798
0.00137302
0.00674329
0.0358286
0.323718
0.970765
0.999986
1
1
1
1
0.99981
0.041
3.51343e-11
1.44671e-13
5.15005e-10
0.236835
0.998297
0.665845
0.00525752
0.00418259
0.18178
0.672159
0.940973
0.986675
0.988571
0.996296
0.999376
0.999975
0.999983
0.999993
0.997513
0.144635
0.0633656
0.0507326
0.0415045
0.0182811
0.0135537
0.0336778
0.054733
0.012089
1.76362e-05
2.11249e-07
1.24112e-06
0.00025758
0.00287363
0.00163746
0.474854
0.1652
3.73054e-05
0.000545994
0.0024944
0.00314203
0.00303387
0.00536788
0.028281
0.427998
0.777708
0.224437
0.0189899
0.00359162
0.000401213
0.000137165
0.000200782
0.000441017
0.000717173
0.000936978
0.000940674
0.000924201
0.0010865
0.00119275
0.00101868
0.000837466
8.81934e-05
3.35904e-07
1.23699e-08
1.65703e-07
0.0464236
0.252319
4.72786e-05
0.000205797
0.00133114
0.00306716
0.00425751
0.00539549
0.00921934
0.0133277
0.016253
0.0167361
0.0223336
0.0242769
0.0347976
0.0631842
0.119571
0.155235
0.157117
0.140663
0.103576
0.071033
0.0456078
0.0132776
0.000125044
1.48306e-07
1.66126e-10
2.19854e-12
3.0662e-12
1.21231e-09
0.998917
0.941506
0.000204262
5.79147e-07
0.00527278
0.0226931
0.0146376
9.65566e-05
7.72539e-06
1.0576e-05
5.86136e-07
3.48831e-05
1.95298e-06
3.44918e-05
0.00708587
0.0943822
0.408173
0.633405
0.854582
0.956728
0.995408
0.999941
0.999974
0.944399
0.296314
0.243002
0.0626944
0.292989
0.983199
0.999498
1
0.999981
0.706817
0.00667618
2.43e-15
4.44192e-11
1.2959e-09
5.07282e-08
1.78715e-07
4.34342e-07
6.38097e-07
4.78321e-06
3.71913e-05
0.000311236
0.00325165
0.0239774
0.113659
0.411569
0.94524
1
1
1
1
1
1
1
1
1
1
1
1
1
1
1
1
1
1
1
1
1
1
1
1
1
1
1
1
1
1
1
1
1
1
1
1
1
1
1
1
1
1
1
1
1
1
1
1
1
1
1
1
1
1
1
1
1
1
1
1
1
1
1
1
1
1
1
1
1
1
1
1
1
1
1
1
1
1
1
1
1
1
1
1
1
1
1
1
1
1
1
1
1
1
1
1
1
1
1
1
1
1
1
1
1
1
1
1
1
1
1
1
1
1
1
1
1
1
1
1
1
1
1
1
1
1
1
1
1
1
1
1
1
1
1
1
1
1
1
1
1
1
1
1
1
1
1
1
1
1
1
1
1
1
1
1
1
1
1
1
1
1
1
1
1
1
1
1
1
1
1
1
1
1
1
1
1
1
1
1
1
1
1
1
1
1
1
1
1
1
1
1
1
1
1
1
1
1
0.710642
0.150866
0.874559
0.982455
0.704355
5.86e-05
9.22415e-19
5.54702e-16
0.964067
0.981477
0.185481
0.999962
0.603935
0.0157374
0.000192119
2.598e-05
8.72673e-06
3.90117e-06
4.15618e-06
9.73799e-06
3.3835e-05
0.000118719
0.000444741
0.00185542
0.0374876
0.500739
0.793564
0.999435
0.999998
1
1
1
1
0.984793
6.81141e-05
4.33835e-14
1.45844e-12
1.63174e-06
0.000591334
0.00998917
0.248726
0.222874
0.0040113
0.00383754
0.203981
0.795584
0.985422
0.987095
0.948898
0.951921
0.986303
0.999824
0.999978
0.999997
0.999916
0.236371
0.0631789
0.0383945
0.0385008
0.0304046
0.01891
0.0152951
0.0153133
0.0080204
0.000204664
5.7546e-07
1.65288e-07
6.91254e-06
0.000375143
0.000457177
6.65951e-05
5.45243e-05
0.0316096
0.0129745
3.30494e-06
7.99994e-06
0.000264822
0.00117092
0.00144088
0.00196634
0.00826665
0.0429849
0.596
0.519963
0.0967815
0.0079091
0.00197631
0.000709969
0.000430405
0.000264971
0.000153549
8.6576e-05
4.83711e-05
2.25461e-05
1.32917e-05
1.92264e-05
0.000124323
0.000547575
0.000922396
0.000265266
1.30919e-06
7.39682e-09
5.68312e-08
4.09886e-06
0.000545432
0.000759961
1.72842e-05
1.85082e-05
0.000166657
0.000634252
0.00121855
0.00260135
0.00883695
0.016122
0.0225369
0.0178393
0.0160299
0.0163604
0.0185914
0.0227179
0.0495762
0.108516
0.141622
0.136093
0.119107
0.100927
0.0747541
0.0537498
0.0360572
0.0120927
9.39785e-05
2.68907e-08
1.90953e-11
3.79615e-12
3.63297e-13
1.44937e-10
0.00298784
0.0025854
0.00030549
0.000176966
5.49351e-05
0.00557325
0.0453143
0.00340713
0.00126796
8.30447e-06
0.000247879
1.26437e-05
0.000660627
0.000335037
0.00751363
0.0150026
0.0968527
0.255274
0.497464
0.554991
0.670853
0.846608
0.980249
0.999569
0.999961
0.989057
0.152818
0.186219
0.475862
0.981277
0.96504
0.0182179
0.867759
0.999906
0.668524
0.0279839
0.00380787
1.23523e-08
4.85589e-13
4.24499e-13
6.19117e-11
1.37535e-09
6.43955e-09
6.35272e-08
6.6039e-07
7.27061e-06
9.92234e-05
0.00072247
0.00418069
0.0149451
0.0501539
0.186248
0.735917
1
1
1
1
1
1
1
1
1
1
1
1
1
1
1
1
1
1
1
1
1
1
1
1
1
1
1
1
1
1
1
1
1
1
1
1
1
1
1
1
1
1
1
1
1
1
1
1
1
1
1
1
1
1
1
1
1
1
1
1
1
1
1
1
1
1
1
1
1
1
1
1
1
1
1
1
1
1
1
1
1
1
1
1
1
1
1
1
1
1
1
1
1
1
1
1
1
1
1
1
1
1
1
1
1
1
1
1
1
1
1
1
1
1
1
1
1
1
1
1
1
1
1
1
1
1
1
1
1
1
1
1
1
1
1
1
1
1
1
1
1
1
1
1
1
1
1
1
1
1
1
1
1
1
1
1
1
1
1
1
1
1
1
1
1
1
1
1
1
1
1
1
1
1
1
1
1
1
1
1
1
1
1
1
1
1
1
1
1
1
1
1
1
1
1
1
1
1
1
1
1
1
1
1
1
1
1
1
1
1
1
0.536288
0.0197434
0.602685
0.992719
0.986944
0.295988
6.84858e-06
6.32146e-08
0.941068
0.892348
0.765553
0.0555298
0.00268268
0.000187628
4.50447e-05
1.25876e-05
3.57462e-06
2.4689e-06
4.10965e-06
1.07566e-05
2.26764e-05
3.75864e-05
6.22946e-05
0.00016465
0.000527211
0.00278616
0.0122679
0.427817
0.775339
0.983861
0.999163
0.99957
0.995365
0.338603
7.85646e-08
9.32071e-16
2.06998e-12
3.354e-07
4.72901e-05
0.000233156
0.000587598
0.000655044
0.000943068
0.226549
0.818713
0.987684
0.938038
0.197049
0.117876
0.17022
0.984577
0.999763
0.999983
0.999665
0.210849
0.0357441
0.0131501
0.0155103
0.0129126
0.00658318
0.00317022
0.00112095
0.000339928
2.39007e-05
6.58884e-07
1.31603e-07
5.02611e-07
1.41056e-05
0.000381182
0.00100828
0.00020523
1.90407e-05
1.60553e-06
3.59547e-07
2.79775e-07
1.04225e-05
0.000182928
0.0005462
0.000739116
0.00181565
0.0137904
0.0836787
0.442034
0.51746
0.119084
0.00660229
0.00221621
0.000698155
0.000139262
3.06588e-05
1.12066e-05
6.82843e-06
1.87905e-06
4.49738e-07
1.48177e-07
2.42904e-07
2.15353e-06
8.24453e-05
0.000875501
0.000238136
1.98177e-06
1.33372e-08
3.06328e-08
2.09031e-07
8.87006e-07
4.4256e-06
1.4351e-05
7.83677e-05
0.000308488
0.000601556
0.00243244
0.0141109
0.0365949
0.0603986
0.0459835
0.0270148
0.0150331
0.0115338
0.0111556
0.0184703
0.0362042
0.0992822
0.133057
0.0997854
0.0775432
0.0676572
0.0652055
0.0510036
0.0360625
0.0266507
0.012745
0.000606878
1.27659e-06
4.69879e-09
5.07327e-12
7.08705e-12
7.38439e-09
3.32794e-07
4.51363e-09
6.9639e-05
7.21517e-05
0.0465568
0.0285365
0.0352208
0.000714722
0.000116099
0.000190428
0.00017236
0.00503391
0.000914016
0.000957617
0.00263417
0.00201428
0.0335393
0.103923
0.169297
0.193706
0.416988
0.618157
0.851182
0.99326
0.999429
0.993601
0.0950561
0.207785
0.483566
0.66771
0.107545
2.27608e-05
5.39937e-07
7.22683e-06
2.1441e-05
0.000108929
2.04954e-06
7.7385e-09
2.29857e-10
1.46529e-11
2.00584e-11
3.90589e-11
1.5754e-10
1.42258e-08
5.01688e-07
5.5552e-06
3.56751e-05
0.000149148
0.000687842
0.00322329
0.0195287
0.106697
0.647215
1
1
1
1
1
1
1
1
1
1
1
1
1
1
1
1
1
1
1
1
1
1
1
1
1
1
1
1
1
1
1
1
1
1
1
1
1
1
1
1
1
1
1
1
1
1
1
1
1
1
1
1
1
1
1
1
1
1
1
1
1
1
1
1
1
1
1
1
1
1
1
1
1
1
1
1
1
1
1
1
1
1
1
1
1
1
1
1
1
1
1
1
1
1
1
1
1
1
1
1
1
1
1
1
1
1
1
1
1
1
1
1
1
1
1
1
1
1
1
1
1
1
1
1
1
1
1
1
1
1
1
1
1
1
1
1
1
1
1
1
1
1
1
1
1
1
1
1
1
1
1
1
1
1
1
1
1
1
1
1
1
1
1
1
1
1
1
1
1
1
1
1
1
1
1
1
1
1
1
1
1
1
1
1
1
1
1
1
1
1
1
1
1
1
1
1
1
1
1
1
1
1
1
1
1
1
1
1
1
1
0.619854
0.00202137
0.020148
0.930161
0.998151
0.990582
0.954648
0.897047
0.908199
0.335352
0.00774645
0.00054627
9.12596e-05
2.38284e-05
9.08167e-06
3.30822e-06
2.74777e-06
5.80246e-06
1.95401e-05
4.29729e-05
4.96969e-05
4.36936e-05
4.39082e-05
3.9709e-05
7.58552e-05
9.50135e-05
0.000218497
0.000298256
0.00045048
0.000386561
0.00031644
0.00290481
0.0140987
0.000290979
2.02541e-10
7.62945e-16
1.53355e-12
3.01445e-07
5.15135e-05
0.000414334
0.000757925
0.0119549
0.237668
0.913434
0.984544
0.477251
0.0443903
0.0083305
0.0117348
0.0574113
0.82633
0.972472
0.730633
0.0368205
0.00308828
0.000806614
0.00133355
0.00156506
0.000657034
8.47561e-05
1.18317e-05
1.24614e-06
2.63666e-07
9.57385e-08
8.67973e-08
3.63572e-07
5.11712e-06
6.00287e-05
0.000347748
0.000616934
0.000420652
0.000110582
8.7163e-06
1.15869e-06
1.35049e-06
3.12263e-05
0.000157455
0.00032153
0.000501518
0.00205878
0.0142822
0.0437963
0.245865
0.419478
0.313309
0.0235106
0.00238821
0.000348377
3.06962e-05
7.07282e-06
3.11426e-06
9.72384e-07
3.40926e-07
6.37215e-08
1.44046e-08
9.60058e-09
7.43711e-08
2.0556e-06
8.12596e-05
0.000137993
1.07326e-06
1.88374e-08
2.68469e-08
1.41832e-07
1.76612e-06
4.69495e-06
1.77808e-05
0.000101569
0.000442618
0.00216522
0.014207
0.0342277
0.0527435
0.0670895
0.0553366
0.0236397
0.0125046
0.00878598
0.00929247
0.014513
0.0484895
0.101997
0.111732
0.070532
0.0389835
0.0279451
0.0273266
0.0282269
0.0247719
0.0183718
0.0138531
0.00992265
0.0044769
0.000851081
1.35187e-06
1.38794e-08
1.1234e-08
6.09773e-07
0.000110785
1.52311e-05
0.000129371
0.0227293
0.163573
0.0831069
0.0105685
5.26999e-05
6.93777e-05
0.000635339
0.00267214
0.000126447
0.000280681
0.000360774
0.000331982
0.00446607
0.00272204
0.000974099
0.0699391
0.226597
0.49985
0.740619
0.851766
0.972738
0.987908
0.845781
0.0208859
0.0467969
0.0697388
0.0239087
0.00115437
5.90401e-05
8.53088e-06
3.65178e-06
1.06766e-05
1.22137e-06
8.02727e-08
1.58513e-09
1.06322e-10
7.39138e-13
3.94711e-13
2.28775e-13
3.80113e-12
1.27141e-09
9.39341e-08
1.52527e-06
1.36738e-05
5.59353e-05
0.000373454
0.00204782
0.0183619
0.12858
0.917105
1
1
1
1
1
1
1
1
1
1
1
1
1
1
1
1
1
1
1
1
1
1
1
1
1
1
1
1
1
1
1
1
1
1
1
1
1
1
1
1
1
1
1
1
1
1
1
1
1
1
1
1
1
1
1
1
1
1
1
1
1
1
1
1
1
1
1
1
1
1
1
1
1
1
1
1
1
1
1
1
1
1
1
1
1
1
1
1
1
1
1
1
1
1
1
1
1
1
1
1
1
1
1
1
1
1
1
1
1
1
1
1
1
1
1
1
1
1
1
1
1
1
1
1
1
1
1
1
1
1
1
1
1
1
1
1
1
1
1
1
1
1
1
1
1
1
1
1
1
1
1
1
1
1
1
1
1
1
1
1
1
1
1
1
1
1
1
1
1
1
1
1
1
1
1
1
1
1
1
1
1
1
1
1
1
1
1
1
1
1
1
1
1
1
1
1
1
1
1
1
1
1
1
1
1
1
1
1
0.999965
0.692678
0.00243852
0.000426558
0.288323
0.994047
0.997418
0.994791
0.940987
0.390341
0.00436261
0.000407713
4.33293e-05
1.40954e-05
7.24652e-06
5.15194e-06
5.3706e-06
1.35044e-05
4.03977e-05
9.1813e-05
0.000141856
0.000148841
0.000136486
0.000140526
0.000157486
0.000227881
0.000326416
0.000481231
0.000629018
0.000650093
0.000493842
0.000209814
5.07917e-05
3.44528e-06
2.79699e-08
5.69616e-12
6.54452e-14
4.01966e-11
5.852e-07
0.000139146
0.000586133
0.0142809
0.189322
0.839731
0.854993
0.118396
0.0116628
0.000389322
0.000304992
0.00133693
0.00413383
0.00442868
0.00221891
0.000145624
3.08339e-05
8.15718e-06
1.72195e-05
2.84588e-05
2.70853e-05
6.14611e-06
1.30784e-06
2.37771e-07
1.26434e-07
1.44728e-07
7.35299e-07
4.31974e-06
2.42475e-05
9.73971e-05
0.000190516
0.000142722
0.000290206
0.000422183
0.00031916
5.76728e-05
1.2982e-05
1.56169e-05
9.96017e-05
0.000154042
0.000278492
0.000522687
0.00188369
0.00913624
0.0282787
0.0378777
0.0762757
0.383994
0.123564
0.00356307
0.000464805
3.60568e-05
7.15902e-06
2.11557e-06
6.65654e-07
1.81814e-07
5.00754e-08
7.75144e-09
1.90894e-09
3.30702e-09
7.13708e-08
2.11933e-06
9.12966e-06
1.28946e-06
7.91994e-08
3.93514e-08
2.51655e-07
2.02182e-06
3.20349e-06
2.08011e-05
0.000161116
0.000945892
0.0067633
0.0146334
0.0152638
0.020981
0.0307415
0.0279492
0.0164435
0.0093024
0.00809947
0.0121073
0.029692
0.0611039
0.0800103
0.0599082
0.0329987
0.0175937
0.0111266
0.00906299
0.00901043
0.0092403
0.00847666
0.00631529
0.00441417
0.00329338
0.00235293
0.00163739
0.000184126
2.22473e-05
1.99035e-05
6.25794e-06
2.75071e-05
8.85585e-07
0.00438539
0.120641
0.295563
0.0624669
6.25491e-05
0.000314234
9.51965e-06
2.16006e-05
4.70516e-05
6.92173e-05
7.36708e-05
0.00374882
0.00424333
0.00210918
0.0305942
0.0693925
0.223479
0.466598
0.656852
0.776089
0.826882
0.947136
0.887459
0.185797
0.000849664
0.000815747
0.000393847
0.000101874
9.57422e-06
2.0074e-06
9.85319e-07
9.13309e-07
1.47539e-07
1.07376e-09
2.40875e-10
1.50125e-11
4.32832e-12
8.12382e-13
3.51552e-13
3.31454e-13
9.71813e-12
2.89981e-09
1.36859e-07
1.28231e-06
1.08359e-05
5.63727e-05
0.000504319
0.0032491
0.0389767
0.321005
1
1
1
1
1
1
1
1
1
1
1
1
1
1
1
1
1
1
1
1
1
1
1
1
1
1
1
1
1
1
1
1
1
1
1
1
1
1
1
1
1
1
1
1
1
1
1
1
1
1
1
1
1
1
1
1
1
1
1
1
1
1
1
1
1
1
1
1
1
1
1
1
1
1
1
1
1
1
1
1
1
1
1
1
1
1
1
1
1
1
1
1
1
1
1
1
1
1
1
1
1
1
1
1
1
1
1
1
1
1
1
1
1
1
1
1
1
1
1
1
1
1
1
1
1
1
1
1
1
1
1
1
1
1
1
1
1
1
1
1
1
1
1
1
1
1
1
1
1
1
1
1
1
1
1
1
1
1
1
1
1
1
1
1
1
1
1
1
1
1
1
1
1
1
1
1
1
1
1
1
1
1
1
1
1
1
1
1
1
1
1
1
1
1
1
1
1
1
1
1
1
1
1
1
1
1
1
0.998111
0.984942
0.642774
0.0135864
0.00289445
0.137737
0.979919
0.997006
0.993736
0.804245
0.0206386
0.00133156
0.000145323
3.12144e-05
1.68897e-05
1.80302e-05
2.07129e-05
4.00139e-05
7.48675e-05
0.000158746
0.000229493
0.000266187
0.000237992
0.000266585
0.000308635
0.000420979
0.000605994
0.000810736
0.00100489
0.00115887
0.00091426
0.000714158
0.00027339
7.84087e-05
7.14625e-06
1.29562e-07
5.86785e-10
1.06399e-10
1.72587e-08
1.23329e-05
0.000304411
0.00541036
0.122256
0.887409
0.960852
0.26041
0.0167793
0.000152349
1.3194e-05
5.30177e-06
4.83904e-06
3.52876e-06
1.35708e-06
4.08589e-07
2.70912e-07
2.23844e-07
4.24011e-07
9.71084e-07
1.38501e-06
1.51636e-06
1.09825e-06
1.49166e-06
2.02054e-06
4.11017e-06
9.51229e-06
2.61386e-05
6.2993e-05
0.000115402
0.000132245
0.000160359
0.000163415
0.000278435
0.00044328
0.000418073
0.000211885
0.000107205
0.00014416
0.000220056
0.000325987
0.000447612
0.000660633
0.00145948
0.00463666
0.0104165
0.0170091
0.0215529
0.0218413
0.0174158
0.00957927
0.00225272
0.000275479
3.9407e-05
8.98394e-06
2.44674e-06
5.06714e-07
9.90428e-08
1.85046e-08
2.64463e-09
6.05067e-10
1.53565e-09
2.61692e-08
5.06446e-07
3.33566e-07
1.01232e-07
1.09057e-07
4.23175e-07
9.79533e-07
3.42954e-06
2.92765e-05
0.000241447
0.00180947
0.00832098
0.0104851
0.0252381
0.0104198
0.0129799
0.0146348
0.013639
0.0122993
0.0146827
0.0212554
0.0328732
0.0374728
0.0333387
0.0240844
0.0148614
0.00875042
0.00634039
0.00460574
0.00402925
0.003503
0.00296543
0.0022318
0.00134185
0.000762556
0.000406832
0.000231697
0.00024297
0.00018566
0.000183455
0.000194799
5.90553e-05
6.25665e-06
3.04635e-05
0.021919
0.148509
0.115947
0.0114708
0.00113695
0.000291842
1.69752e-05
1.63894e-05
2.48057e-05
0.00267528
0.00705245
0.00472304
0.0301764
0.119596
0.261005
0.268514
0.509498
0.673551
0.780278
0.847296
0.837476
0.868631
0.579171
0.0374162
1.88505e-05
6.32703e-06
1.02061e-06
1.22039e-07
3.40447e-08
7.94934e-09
5.81498e-09
1.58191e-09
4.63833e-10
3.43603e-11
1.32164e-11
1.6797e-12
1.38846e-12
5.73111e-13
7.29101e-13
4.65353e-12
1.47737e-10
1.76469e-08
3.72132e-07
2.36755e-06
2.10189e-05
0.000101296
0.00122827
0.00963125
0.1362
0.994447
1
1
1
1
1
1
1
1
1
1
1
1
1
1
1
1
1
1
1
1
1
1
1
1
1
1
1
1
1
1
1
1
1
1
1
1
1
1
1
1
1
1
1
1
1
1
1
1
1
1
1
1
1
1
1
1
1
1
1
1
1
1
1
1
1
1
1
1
1
1
1
1
1
1
1
1
1
1
1
1
1
1
1
1
1
1
1
1
1
1
1
1
1
1
1
1
1
1
1
1
1
1
1
1
1
1
1
1
1
1
1
1
1
1
1
1
1
1
1
1
1
1
1
1
1
1
1
1
1
1
1
1
1
1
1
1
1
1
1
1
1
1
1
1
1
1
1
1
1
1
1
1
1
1
1
1
1
1
1
1
1
1
1
1
1
1
1
1
1
1
1
1
1
1
1
1
1
1
1
1
1
1
1
1
1
1
1
1
1
1
1
1
1
1
1
1
1
1
1
1
1
1
1
1
1
0.999999
0.94542
0.597263
0.283633
0.0492184
0.0648796
0.719596
0.997441
0.997844
0.993622
0.748313
0.0604949
0.0032982
0.000761176
0.00027944
0.000121255
8.38702e-05
9.48503e-05
0.000124023
0.000181571
0.000229023
0.000287755
0.000332701
0.000335278
0.000393902
0.000489353
0.000674553
0.000916674
0.00110144
0.00116187
0.00117908
0.000778921
0.000478576
0.000171508
3.37526e-05
3.43384e-06
2.73167e-07
5.17151e-08
1.51979e-07
4.92697e-06
0.000122448
0.00484156
0.26887
0.925552
0.992492
0.944453
0.0669391
0.00705903
5.61476e-05
2.00419e-06
4.57876e-07
2.25267e-07
1.35727e-07
7.51559e-08
9.48897e-08
8.88755e-08
1.61922e-07
3.2335e-07
7.53945e-07
1.42063e-06
2.05927e-06
3.97334e-06
6.23642e-06
1.19837e-05
2.01473e-05
4.33155e-05
6.88216e-05
0.000106561
0.000136222
0.000167192
0.00022286
0.000296249
0.000490462
0.000637001
0.000713386
0.000616244
0.000638877
0.000506446
0.000816421
0.000732459
0.000863619
0.00109802
0.00169366
0.00296394
0.0043678
0.00564181
0.00660156
0.0104196
0.0161076
0.0168685
0.012642
0.00476697
0.00139747
0.000443527
8.92124e-05
1.30003e-05
1.45566e-06
1.37257e-07
1.7874e-08
1.88103e-09
2.58257e-10
2.814e-10
2.64346e-09
1.16993e-08
5.22343e-08
7.55676e-08
2.49069e-07
1.61153e-06
1.24839e-05
6.44297e-05
0.000402724
0.00208293
0.00822154
0.0145178
0.0416682
0.0268099
0.0157545
0.0146228
0.0133245
0.0131615
0.0139976
0.0170482
0.020847
0.0239083
0.0243393
0.0222462
0.0191325
0.0144291
0.0107878
0.00753032
0.00499675
0.00319886
0.00197636
0.00119162
0.000643191
0.000325342
0.00014769
6.70245e-05
3.2341e-05
2.32224e-05
1.73828e-05
1.49197e-05
0.000646888
0.000126353
0.000188502
0.0019921
0.0522192
0.159351
0.12474
0.0880771
0.0379243
0.00607322
0.000942858
0.0002481
0.0262429
0.0929299
0.226414
0.355044
0.535394
0.504661
0.528253
0.720801
0.879754
0.892871
0.902948
0.903896
0.848149
0.778058
0.455507
0.0788898
0.000294993
1.94547e-07
4.92802e-08
5.14209e-09
1.2532e-09
4.69314e-10