/*--------------------------------*- C++ -*----------------------------------*\
| =========                 |                                                 |
| \\      /  F ield         | OpenFOAM: The Open Source CFD Toolbox           |
|  \\    /   O peration     | Version:  2.1.1                                 |
|   \\  /    A nd           | Web:      www.OpenFOAM.org                      |
|    \\/     M anipulation  |                                                 |
\*---------------------------------------------------------------------------*/
FoamFile
{
    version     2.0;
    format      ascii;
    class       volScalarField;
    location    "0.002900000";
    object      sL;
}
// * * * * * * * * * * * * * * * * * * * * * * * * * * * * * * * * * * * * * //

dimensions      [0 1 -1 0 0 0 0];

internalField   nonuniform List<scalar> 
12384
(
13.1026
10.0729
6.67049
4.60903
3.43457
2.61675
1.81119
1.07485
0.764056
0.774778
0.834763
0.956216
1.15519
2.22495
0.766671
0.772633
0.696912
0.663874
0.645238
0.635806
0.634503
0.639682
0.649087
0.662868
0.675953
0.679261
0.678945
0.664178
0.651714
0.643384
0.634913
0.625958
0.617182
0.601384
0.601874
0.579571
0.575938
0.55169
0.546631
0.588452
0.702417
1.00103
2.72546
3.64978
0.981707
1.05397
1.12842
1.1455
1.1454
1.131
1.11787
1.12473
1.19001
1.2037
1.19496
1.23333
1.27381
1.2762
1.3154
1.3218
1.2953
1.2727
1.20814
1.1555
1.04126
0.955762
0.81523
0.747929
0.675881
0.680171
0.798242
1.10442
1.48186
2.81393
1.04213
1.26719
1.36366
1.39631
1.36857
1.34502
1.27832
1.25235
1.22843
1.23119
1.26511
1.30625
1.36134
1.40821
1.41549
1.36275
1.32151
1.24071
1.18278
1.08102
0.91938
0.770846
0.691674
0.654419
0.685235
0.811248
0.915994
1.04195
1.30229
2.78595
0.884718
0.850042
0.872193
1.11677
1.23986
1.27019
1.28627
1.30288
1.33003
1.35212
1.39984
1.41862
1.46442
1.38992
1.30939
1.27063
1.23589
1.19924
1.16043
1.1098
1.04528
1.00814
1.63411
1.62772
1.66783
1.73203
2.22012
2.21106
3.11117
2.73943
3.02566
2.57615
0.935249
1.03882
1.0667
1.13871
1.17274
1.24157
1.23765
1.2747
1.275
1.32284
1.33573
1.31556
1.33062
1.28155
1.3243
1.24934
1.21222
1.50163
3.45103
2.57518
2.17288
1.80006
1.73654
1.68114
2.08863
2.24466
2.92336
2.95098
2.64498
2.06484
2.22387
2.65113
2.79865
2.93117
3.19756
3.27663
3.40644
3.5851
3.77168
4.03219
3.99332
3.99077
3.58036
3.52383
3.13537
2.92833
2.65836
2.41262
2.21253
2.03452
2.06069
1.96621
2.25994
2.30405
2.88417
3.48904
4.00831
2.71358
2.10907
2.10554
2.10367
2.10161
2.1013
2.09629
2.09802
2.08976
2.09304
2.08412
2.08774
2.08038
2.08027
2.07819
2.07547
2.0748
2.07202
2.07226
2.06952
2.07018
2.0676
2.06836
2.06622
2.0669
2.06529
2.06571
2.0647
2.0649
2.06456
2.06986
2.06434
2.05892
2.05851
2.0584
2.05819
2.05805
2.05781
2.05768
2.05744
2.05727
2.05703
2.05682
2.05642
2.05614
2.05586
2.05585
2.05592
2.05615
2.05633
2.05649
2.05658
2.05673
2.05682
2.05697
2.05707
2.05722
2.05729
2.05744
2.05782
2.06343
2.06338
2.05782
2.0574
2.05721
2.05712
2.05696
2.05682
2.0567
2.05657
2.05644
2.05632
2.05616
2.05593
2.05568
2.05553
2.05545
2.0556
2.05585
2.0562
2.05638
2.0565
2.05669
2.05682
2.05695
2.05706
2.05721
2.05729
2.05744
2.05778
2.0634
2.06337
2.05776
2.05737
2.05724
2.05713
2.05699
2.05686
2.05673
2.05661
2.05648
2.05634
2.05619
2.05591
2.05567
2.05547
2.05547
2.0556
2.05587
2.05613
2.05631
2.05644
2.0566
2.05672
2.05687
2.057
2.05715
2.05723
2.05737
2.05776
2.06338
2.06339
2.05772
2.05736
2.05726
2.05717
2.05704
2.05689
2.05676
2.0566
2.05645
2.05631
2.05614
2.05588
2.05565
2.05546
2.05547
2.05563
2.05587
2.05616
2.05632
2.05645
2.05659
2.05673
2.05686
2.05699
2.05712
2.05724
2.05736
2.05772
2.06339
2.06336
2.05773
2.05735
2.0572
2.05708
2.05694
2.05684
2.05671
2.05661
2.05649
2.05637
2.0562
2.05596
2.05571
2.05552
2.05548
2.05562
2.05587
2.0561
2.05628
2.05643
2.05659
2.05675
2.05687
2.05701
2.05715
2.05726
2.05736
2.05776
2.06338
9.34777
6.90223
5.54815
4.46463
3.69318
2.64429
1.84369
1.24469
0.88343
0.501474
0.566976
0.718735
0.981992
2.48273
0.759748
0.775504
0.727398
0.66317
0.618916
0.623323
0.666155
1.04927
1.9856
3.0754
4.14561
4.66381
4.59655
3.81392
2.61389
1.70848
1.09216
0.805634
0.756735
0.716716
0.610308
0.582821
0.571269
0.536504
0.518884
0.553189
0.683284
0.87631
1.11528
2.95366
0.98875
1.0714
1.11465
1.09788
1.05803
1.04236
1.6298
2.42251
3.26521
4.03111
3.95257
3.82309
2.69699
2.00452
1.56711
1.43545
1.39585
1.43472
1.43615
1.31049
1.18322
0.987545
0.779014
0.655989
0.652146
0.774995
0.896075
1.04167
1.04871
2.0999
1.0187
1.19533
1.30954
1.35324
1.35666
1.33629
1.29919
1.263
1.26084
1.29262
1.3432
1.40921
1.47415
1.51184
1.53982
1.46864
1.36555
1.21465
1.10909
0.988034
0.861733
0.745533
0.671897
0.664739
0.714317
0.855053
0.920328
0.887911
1.20657
1.72316
0.884512
0.856439
0.803414
0.885826
1.03694
1.10989
1.17226
1.21384
1.23051
1.27921
1.35897
1.42255
1.45439
1.42753
1.33816
1.28498
1.26548
1.23827
1.22417
1.17789
1.07161
0.86331
0.685318
0.700227
1.62478
1.65252
1.92812
2.46739
2.68908
2.73743
2.55262
0.810398
1.40431
1.73705
1.15869
1.19461
1.25838
1.28078
1.31989
1.33659
1.39571
1.40609
1.41327
1.41079
1.392
1.39749
1.31079
1.37768
1.30556
1.17521
2.97106
3.24317
2.63487
2.17267
1.91097
1.36215
1.36213
1.88021
2.65065
2.89611
1.75589
2.25814
3.17688
2.05937
1.2968
1.27176
1.19266
1.35809
1.33096
1.40892
1.50965
1.49726
1.88379
4.56331
5.09767
5.17259
5.27609
5.21482
5.45176
5.18985
4.81209
3.80412
2.52055
1.738
0.870746
0.809848
0.749846
0.908656
1.71086
2.46372
1.56703
1.50988
1.51369
1.5388
1.58051
1.62119
1.65412
1.6984
1.71322
1.75052
1.75246
1.78088
1.77543
1.79527
1.78705
1.80425
1.80173
1.81669
1.81788
1.82769
1.82701
1.83447
1.83332
1.83937
1.83914
1.84326
1.84358
1.8453
1.85103
1.97489
1.95915
1.83486
1.8259
1.8259
1.82349
1.8237
1.8203
1.82066
1.81676
1.81708
1.81261
1.81225
1.80617
1.80374
1.79925
1.80078
1.80124
1.8065
1.80821
1.81222
1.81257
1.81664
1.81686
1.82082
1.82124
1.82482
1.82535
1.82824
1.83627
1.96644
1.96636
1.83604
1.82785
1.82457
1.8243
1.82073
1.8203
1.8166
1.81642
1.81281
1.81245
1.80878
1.80703
1.80192
1.80068
1.7986
1.80164
1.80444
1.81031
1.81297
1.81493
1.81857
1.81911
1.82276
1.82287
1.82629
1.82594
1.82896
1.83521
1.97121
1.96588
1.83663
1.82696
1.82675
1.82335
1.82317
1.81938
1.81912
1.81548
1.81514
1.81144
1.81055
1.80549
1.80277
1.79885
1.79979
1.80066
1.80576
1.80804
1.81203
1.81267
1.81669
1.81708
1.82096
1.82145
1.82498
1.82553
1.82818
1.83628
1.96643
1.97159
1.83523
1.82716
1.82684
1.82338
1.82322
1.81928
1.81882
1.81495
1.81436
1.81039
1.80959
1.80462
1.80224
1.79903
1.79897
1.80205
1.80472
1.80981
1.81067
1.81453
1.81498
1.81873
1.81905
1.82283
1.82291
1.82645
1.82687
1.83509
1.97131
1.96651
1.83649
1.82652
1.82626
1.82252
1.82247
1.81844
1.8185
1.81467
1.81483
1.81094
1.81048
1.80566
1.80331
1.7991
1.79979
1.80066
1.80565
1.80799
1.81186
1.81244
1.81645
1.8168
1.82076
1.82116
1.82482
1.82542
1.82814
1.83628
1.96658
7.65766
9.49907
14.1529
16.8175
16.1337
10.7887
5.72633
3.43127
2.46033
1.52118
0.502962
0.501966
0.787984
2.33173
0.642271
0.712547
0.621404
0.58049
0.64675
1.56719
3.7324
6.87174
9.29733
10.4468
10.9097
10.9173
10.8381
10.8433
10.1537
8.32639
5.44683
3.69342
2.80749
2.41808
1.67183
1.19947
0.644482
0.526034
0.503215
0.544233
0.597373
0.733644
0.930848
2.76049
0.991691
1.07262
1.0785
1.0167
1.0149
1.55209
2.83199
4.21995
6.35834
7.21214
7.69175
7.4686
5.33012
3.20824
1.63665
1.13612
1.07352
1.15802
1.33289
1.43699
1.43053
1.22134
0.909643
0.655598
0.651075
0.804071
0.93632
1.03433
1.08373
1.89829
0.988186
1.1155
1.21653
1.28185
1.3113
1.32204
1.29106
1.27428
1.25278
1.25175
1.26927
1.32066
1.41746
1.5083
1.54216
1.49138
1.33628
1.1408
1.0046
0.907385
0.812568
0.733403
0.664958
0.636002
0.672166
0.775196
0.881797
1.01291
1.18667
1.42965
0.875292
0.833039
0.799665
0.872186
0.939134
1.0192
1.10276
1.14124
1.1641
1.20396
1.26911
1.40391
1.44193
1.44297
1.41851
1.367
1.3396
1.33186
1.31528
1.25498
1.11372
0.912344
0.678714
0.554183
0.8397
1.54002
1.52932
1.84166
2.34845
2.96633
2.46068
0.910587
2.62761
2.93781
3.47706
2.17427
1.3856
1.44689
1.48728
1.54206
1.5847
1.59832
1.6326
1.62275
1.61097
1.57027
1.50721
1.48477
1.42835
1.30263
1.28786
1.19121
1.28364
2.40285
1.10051
1.65379
1.23051
1.37248
1.78673
1.85852
1.02047
2.47081
4.07858
2.24998
1.67092
1.52378
1.54083
1.72996
1.73163
1.728
1.72126
1.66362
1.56149
1.5216
1.43766
1.45941
1.42075
2.93537
4.92875
5.19343
5.77422
5.2784
5.70526
5.1841
4.33819
2.2207
0.732837
0.472708
0.234671
0.273188
0.125983
0.158057
0.176779
0.171834
0.179874
0.175099
0.180397
0.178189
0.182287
0.182102
0.183342
0.185892
0.186616
0.190019
0.190528
0.192567
0.190376
0.190455
0.18778
0.187939
0.186563
0.18656
0.185433
0.18576
0.184418
0.185144
0.183931
0.184883
0.182155
0.126553
0.125085
0.181041
0.185382
0.185874
0.187176
0.187584
0.188942
0.189426
0.190766
0.191415
0.192854
0.193876
0.196093
0.197994
0.199437
0.199444
0.198508
0.19679
0.195209
0.194128
0.193263
0.192252
0.191468
0.190582
0.189705
0.188895
0.188078
0.187261
0.183749
0.124848
0.124821
0.183626
0.187443
0.188465
0.189245
0.189974
0.190829
0.191553
0.192349
0.193113
0.194018
0.194961
0.196566
0.198279
0.199578
0.199916
0.199202
0.19717
0.194964
0.193459
0.192754
0.191562
0.190601
0.189818
0.189038
0.188347
0.18772
0.186865
0.183099
0.124852
0.124888
0.183501
0.187179
0.188209
0.188837
0.18963
0.190384
0.191232
0.191975
0.192882
0.19375
0.194937
0.196588
0.198583
0.199742
0.199971
0.198844
0.197162
0.195328
0.194277
0.193251
0.192296
0.191386
0.190576
0.18961
0.188831
0.187947
0.187238
0.183679
0.124845
0.124896
0.183588
0.187247
0.187864
0.18868
0.189565
0.190493
0.191395
0.192264
0.193256
0.194195
0.195331
0.196901
0.198724
0.199901
0.199875
0.198801
0.196878
0.195244
0.194086
0.193176
0.192235
0.191404
0.190558
0.189691
0.188896
0.188117
0.187211
0.18367
0.124921
0.124895
0.183596
0.187397
0.188445
0.189118
0.189891
0.190633
0.191429
0.192122
0.192942
0.19379
0.194904
0.196378
0.198309
0.199573
0.200044
0.198958
0.1973
0.19544
0.194413
0.193375
0.1924
0.191463
0.190617
0.189663
0.188862
0.18796
0.187269
0.183729
0.124845
13.8698
26.4067
28.0191
23.9252
20.6332
19.44
16.7781
13.6534
10.8406
6.03271
1.31217
0.333858
0.594636
2.00616
0.548589
0.60299
0.554318
0.667536
2.61896
7.58808
10.7454
11.1771
10.2548
9.29276
8.49772
8.19103
8.59964
9.44098
10.3322
11.1207
11.2305
11.1408
9.27862
7.22708
4.69158
2.68755
1.5815
0.718643
0.49062
0.485215
0.486538
0.553943
0.74667
2.83154
0.995865
1.05776
1.03592
0.952037
1.11618
1.94531
3.45835
5.41284
6.86229
7.666
8.19718
7.91382
5.98448
2.11263
1.10164
0.992623
0.916054
0.86981
0.968198
1.27599
1.44598
1.42843
1.09032
0.685135
0.623258
0.76421
0.902551
1.02155
1.01929
1.06632
0.949818
1.03808
1.12108
1.1949
1.26635
1.28714
1.29246
1.2515
1.21708
1.18144
1.20466
1.28414
1.39598
1.44397
1.48349
1.37091
1.17668
0.967745
0.842015
0.760535
0.696421
0.656489
0.608562
0.599495
0.600416
0.653445
0.810458
1.08497
1.17111
1.1457
0.866139
0.811371
0.773443
0.801103
0.915305
1.04244
1.09809
1.12323
1.12244
1.1228
1.20195
1.35135
1.42634
1.4841
1.46927
1.4456
1.41498
1.40463
1.40129
1.32203
1.13724
0.927571
0.662328
0.457732
0.519544
0.582445
0.492643
0.660826
1.42085
2.21099
2.45503
0.983992
2.321
4.12241
4.2151
3.25027
1.50736
1.56324
1.57589
1.60804
1.58427
1.61396
1.59253
1.6087
1.61218
1.6217
1.61225
1.59698
1.54594
1.49725
1.40059
1.28665
1.24846
1.1313
1.18668
1.66522
1.94043
1.15344
1.05563
0.979477
0.777734
2.41586
4.21675
4.26356
1.70156
1.68324
1.65488
1.69951
1.72149
1.62475
1.58614
1.4845
1.43993
1.45245
1.43997
1.37974
1.41455
1.33492
1.31379
1.87694
3.15272
5.09606
4.77491
5.34189
5.20268
4.77058
3.4303
1.65661
0.785128
0.413808
0.183857
0.188755
0.177588
0.180455
0.170233
0.172133
0.166125
0.166829
0.162278
0.163071
0.159703
0.160431
0.158471
0.15879
0.157295
0.157998
0.156385
0.157006
0.155663
0.15623
0.155229
0.155692
0.154793
0.155369
0.154616
0.154982
0.154565
0.154708
0.153917
0.144218
0.144253
0.154192
0.154582
0.155106
0.154741
0.155124
0.154842
0.155176
0.154946
0.155265
0.155081
0.155395
0.155294
0.155639
0.155535
0.155724
0.155492
0.155545
0.155299
0.155382
0.155185
0.155269
0.155073
0.155161
0.15496
0.155047
0.15484
0.154863
0.153958
0.143896
0.143894
0.15396
0.154876
0.154859
0.155053
0.154968
0.155155
0.155072
0.155249
0.155174
0.155352
0.155293
0.155505
0.155502
0.155696
0.155613
0.15567
0.15543
0.155392
0.155197
0.155142
0.155206
0.155022
0.1551
0.154916
0.155008
0.154825
0.154873
0.153965
0.143683
0.143879
0.153998
0.154745
0.154981
0.154906
0.155079
0.155008
0.15518
0.15511
0.155281
0.155221
0.155406
0.155397
0.155632
0.155605
0.155724
0.155542
0.155542
0.155316
0.155364
0.155186
0.155244
0.15507
0.155138
0.154958
0.155024
0.154832
0.154847
0.153963
0.143883
0.1437
0.153975
0.154772
0.154952
0.15489
0.155081
0.155008
0.155195
0.155121
0.155306
0.155242
0.155429
0.155413
0.155635
0.155603
0.155603
0.155641
0.155413
0.155421
0.155238
0.155299
0.15512
0.155193
0.155015
0.155085
0.15491
0.154967
0.154742
0.15399
0.143699
0.14386
0.154005
0.154755
0.154994
0.154918
0.155098
0.155022
0.1552
0.155118
0.155295
0.155222
0.155411
0.155384
0.155622
0.155593
0.155732
0.155551
0.155553
0.155327
0.155381
0.155203
0.155266
0.155088
0.155157
0.154976
0.155038
0.154846
0.154859
0.153963
0.143881
30.8048
29.9991
20.6595
17.4531
17.2177
16.8305
15.8709
15.1541
13.4607
10.9376
2.98034
0.254711
0.458428
1.67016
0.443677
0.519477
0.783844
4.63042
10.0602
10.9655
8.8439
5.76187
3.15555
1.6377
1.46322
1.37508
1.4197
2.02781
4.74435
7.3728
10.0007
10.9695
12.2116
11.9788
10.2694
6.33677
3.15908
1.47117
0.624831
0.438255
0.365763
0.327378
1.13728
2.60511
0.984435
1.03118
0.986504
0.900104
1.12718
2.19529
3.63319
5.3515
6.03725
6.43418
6.88435
7.18367
5.68362
2.90779
1.32755
1.20694
1.06885
0.94045
0.867491
1.03201
1.3614
1.46294
1.22669
0.734042
0.570428
0.671038
0.842561
0.963943
0.992666
1.014
0.916802
0.981552
1.05637
1.14237
1.21619
1.26433
1.25075
1.22437
1.18384
1.22965
1.68933
1.72726
1.44819
1.42296
1.32655
1.10016
0.86969
0.713535
0.625319
0.579103
0.556743
0.552223
0.55272
0.544488
0.544436
0.580287
0.676305
0.966832
1.13195
1.14155
0.870822
0.832491
0.786036
0.833763
1.00379
1.11094
1.14086
1.10418
1.06752
1.08338
1.15287
1.30659
1.42747
1.47215
1.52022
1.52168
1.48774
1.47202
1.47358
1.41906
1.15375
0.86872
0.632716
0.48316
0.427671
0.528218
0.627201
0.576198
1.482
1.88229
2.36017
0.869905
1.08709
2.43697
4.48737
3.10176
1.56217
1.54779
1.5806
1.54023
1.55485
1.53375
1.54263
1.53583
1.53115
1.54524
1.54904
1.57951
1.57681
1.56891
1.52414
1.44192
1.27177
1.12876
1.40897
1.37664
1.78922
1.60883
0.954325
0.695726
0.992774
2.29458
4.23309
1.37006
1.6528
1.68208
1.66358
1.66961
1.61881
1.5792
1.53299
1.48097
1.43334
1.40083
1.38409
1.38117
1.36602
1.3835
1.4042
1.41185
1.382
1.45757
4.15889
4.71952
4.66382
5.11399
4.85392
4.02346
2.36422
1.36437
0.388764
0.395182
0.386527
0.362435
0.357188
0.336326
0.329733
0.317208
0.315498
0.304652
0.305971
0.296979
0.299213
0.292574
0.294372
0.289686
0.291448
0.287584
0.289089
0.286179
0.287397
0.285149
0.286163
0.284284
0.285215
0.283535
0.284416
0.282843
0.283205
0.281213
0.283111
0.283561
0.284567
0.283212
0.28412
0.283002
0.283771
0.282837
0.283556
0.282726
0.283427
0.282698
0.283347
0.282706
0.28329
0.282707
0.283217
0.282671
0.283147
0.282639
0.283101
0.282628
0.283079
0.282614
0.283061
0.282594
0.283019
0.282552
0.282421
0.281123
0.281009
0.282349
0.282553
0.283016
0.282521
0.28302
0.282524
0.283026
0.282537
0.283027
0.282567
0.283042
0.282612
0.283066
0.282649
0.283084
0.28266
0.283104
0.282717
0.282867
0.282965
0.282569
0.283058
0.282536
0.283031
0.282511
0.283009
0.282484
0.282786
0.28072
0.281157
0.282423
0.283029
0.282521
0.283037
0.282535
0.283032
0.282547
0.283027
0.282558
0.28304
0.282599
0.283065
0.282651
0.283088
0.282662
0.28308
0.282633
0.283052
0.282583
0.283038
0.282563
0.283047
0.282552
0.283037
0.282544
0.282989
0.282539
0.282411
0.281122
0.280821
0.282636
0.282647
0.282544
0.283048
0.28256
0.283063
0.282567
0.283048
0.282569
0.283059
0.282605
0.283084
0.282665
0.283007
0.283024
0.282682
0.283092
0.282619
0.283065
0.28258
0.283054
0.282577
0.283067
0.282582
0.283074
0.282572
0.282796
0.282586
0.280893
0.281124
0.282424
0.283015
0.28251
0.283049
0.282528
0.283057
0.282543
0.283051
0.282546
0.283051
0.28258
0.283077
0.282638
0.283101
0.282667
0.2831
0.282646
0.283066
0.282591
0.283049
0.28258
0.283066
0.282583
0.283062
0.282561
0.283001
0.282555
0.2824
0.281086
32.9545
22.3374
16.5211
16.9779
15.7818
13.3854
11.1139
7.35521
5.28138
4.71917
2.55225
0.339679
0.318769
1.17843
0.42955
0.668927
6.08058
10.8657
9.71136
5.2255
1.62978
1.09437
0.787305
0.646963
0.600386
0.595405
0.625192
0.713017
0.928159
1.55152
5.37593
8.37258
10.9915
11.9417
13.2881
11.1341
6.79895
2.57382
0.913341
0.360158
0.245911
0.187194
0.776715
2.1095
0.979777
0.997654
0.938893
0.874
1.369
2.37979
3.85269
4.94024
5.38663
5.59846
6.35767
6.89635
7.33945
4.89645
2.81422
1.39532
1.26492
1.1203
0.967243
0.977507
1.24682
1.45487
1.30234
0.749142
0.530871
0.574072
0.750544
0.933638
0.959576
0.960396
0.895658
0.939322
1.02526
1.12212
1.19028
1.21623
1.2207
1.19289
1.24022
2.20837
2.8668
2.32224
1.50221
1.31902
1.05271
0.81552
0.654456
0.58735
0.578617
0.598946
0.638344
0.665839
0.684081
0.664136
0.617709
0.575541
0.593197
0.757822
1.03518
1.09891
0.892562
0.853901
0.873302
0.977221
1.10546
1.15457
1.10929
1.0755
1.05476
1.04948
1.13925
1.29216
1.40523
1.48477
1.53481
1.58454
1.56428
1.52729
1.52418
1.52625
1.33102
0.922696
0.662737
0.53226
0.474125
0.484424
0.531079
0.510669
0.343231
1.20249
2.28782
0.911923
1.08741
1.85044
3.92673
2.53332
1.57132
1.56551
1.52186
1.53357
1.51326
1.53041
1.51263
1.49291
1.48983
1.48295
1.49748
1.49893
1.50918
1.51955
1.5264
1.47448
1.25329
1.36129
1.50504
1.5631
1.44782
1.18017
1.71785
0.947802
1.48087
3.96343
2.01847
1.44236
1.6306
1.72835
1.64648
1.64233
1.6416
1.65846
1.66051
1.61418
1.53064
1.44622
1.41266
1.38112
1.37195
1.38098
1.40072
1.38533
1.42457
1.36223
1.3593
3.06908
4.69913
4.51158
4.90807
4.99862
4.764
2.83803
0.846999
0.885285
0.78541
0.752363
0.677951
0.661538
0.617679
0.599182
0.579757
0.564156
0.553207
0.54209
0.537947
0.525321
0.52895
0.514054
0.522156
0.507249
0.516382
0.503285
0.511703
0.500775
0.507858
0.498962
0.504729
0.497408
0.501835
0.496082
0.497765
0.478266
0.483644
0.50167
0.500132
0.501225
0.4994
0.4999
0.498707
0.499054
0.498225
0.498557
0.497996
0.498286
0.497876
0.498122
0.497835
0.497963
0.49783
0.497838
0.497815
0.497735
0.497814
0.49769
0.49781
0.497674
0.497806
0.497662
0.497732
0.497467
0.496108
0.479385
0.479232
0.496007
0.497487
0.497747
0.497583
0.497723
0.497547
0.49769
0.497531
0.497691
0.497551
0.497712
0.497589
0.497744
0.497601
0.49776
0.497622
0.497806
0.497663
0.497564
0.497637
0.497556
0.49772
0.497558
0.497695
0.497553
0.497695
0.497437
0.496391
0.479528
0.479272
0.496319
0.497666
0.497582
0.497735
0.497546
0.497686
0.49753
0.497676
0.497544
0.4977
0.497579
0.497753
0.497623
0.497771
0.497628
0.497767
0.497609
0.497728
0.497578
0.497718
0.497567
0.49773
0.497578
0.497739
0.497578
0.497667
0.497424
0.496125
0.479355
0.479555
0.49632
0.4973
0.497512
0.497692
0.497576
0.497728
0.497576
0.497713
0.497575
0.497737
0.497589
0.49777
0.497628
0.497663
0.497685
0.497641
0.497779
0.497594
0.497742
0.497576
0.497723
0.497586
0.497743
0.49761
0.497774
0.497583
0.49739
0.496284
0.479581
0.479254
0.4963
0.497628
0.497564
0.497718
0.497563
0.497702
0.497559
0.497691
0.497563
0.497706
0.497597
0.49777
0.49766
0.497833
0.497679
0.497827
0.497671
0.497784
0.497631
0.49775
0.49762
0.497774
0.497642
0.49779
0.497592
0.497694
0.497435
0.496075
0.479281
26.995
17.1093
15.8128
16.5757
14.5251
12.4997
6.2144
2.30342
1.45444
1.376
1.27234
0.348301
0.213117
0.677227
0.523826
4.45925
11.1842
8.6904
2.65908
1.17022
0.691782
0.54714
0.502945
0.494104
0.506572
0.527238
0.544646
0.568805
0.650246
0.877996
1.46517
4.47107
8.67576
10.433
13.5949
13.926
10.7424
4.54136
0.996477
0.311617
0.182989
0.172619
0.606114
1.94767
0.96504
0.959654
0.897471
1.15822
2.00099
3.21832
4.43131
5.35389
5.59772
6.10832
6.77784
8.27844
7.71688
6.95324
2.31807
1.42987
1.30901
1.22532
1.07005
1.03779
1.24811
1.44324
1.26444
0.74074
0.497355
0.503824
0.671218
0.872382
0.920554
0.885434
0.874785
0.917063
1.01877
1.11304
1.15999
1.17945
1.17437
1.24241
1.45683
3.5194
3.5282
1.61739
1.43246
1.13304
0.898729
0.769669
0.745452
0.797788
0.868904
0.946319
0.975348
0.985324
0.970052
0.935815
0.852799
0.697202
0.598234
0.655859
0.887432
1.02817
0.878309
0.865084
0.931679
1.07074
1.17245
1.14204
1.10207
1.0719
1.05811
1.06627
1.14362
1.29012
1.38575
1.44578
1.55346
1.60342
1.62885
1.60554
1.56903
1.57326
1.5536
1.29394
0.883141
0.650022
0.528836
0.443601
0.386843
0.34138
0.363525
0.975069
1.45338
0.844831
1.03284
1.52637
3.60463
2.18147
1.54981
1.53582
1.50572
1.5279
1.52446
1.55761
1.77802
1.85752
3.62108
4.18883
5.17468
5.23061
4.6334
3.39448
1.64647
1.43939
1.49994
1.51228
1.51891
1.44584
1.48701
1.3716
1.0132
1.22017
2.47426
5.70849
1.76822
1.83473
1.62305
1.64432
1.65067
1.68122
1.68805
1.77244
1.71175
1.67487
1.5897
1.50595
1.44683
1.4122
1.40186
1.38589
1.37978
1.39769
1.36835
1.40119
1.39356
1.37393
3.35673
4.59045
4.49712
4.78741
5.54105
4.88602
1.80731
1.81758
1.57226
1.40907
1.33538
1.22313
1.20509
1.12949
1.12904
1.08003
1.08573
1.04915
1.05588
1.0308
1.0348
1.01982
1.01942
1.01185
1.01084
1.00433
1.00525
0.998466
1.00101
0.993869
0.99705
0.990201
0.993036
0.985885
0.987292
0.987428
1.0039
0.992741
0.994089
0.989775
0.991434
0.988223
0.989757
0.987143
0.988582
0.986441
0.987796
0.986047
0.987169
0.985835
0.986711
0.985726
0.986386
0.985642
0.986211
0.985609
0.986107
0.985609
0.986081
0.985635
0.98609
0.985639
0.985919
0.985387
0.985477
0.991711
0.991363
0.985242
0.985487
0.985946
0.985555
0.985922
0.985435
0.985835
0.985367
0.985782
0.985356
0.985731
0.985368
0.98568
0.985387
0.985689
0.985417
0.98577
0.985547
0.985384
0.985546
0.985432
0.985858
0.985438
0.985885
0.985472
0.985852
0.985368
0.985925
0.992133
0.99166
0.985647
0.985817
0.985495
0.985901
0.985413
0.985816
0.985343
0.985761
0.985347
0.985749
0.985368
0.985711
0.985384
0.985678
0.985398
0.985694
0.985386
0.985754
0.985394
0.985835
0.985417
0.985891
0.985469
0.985929
0.985501
0.98575
0.98534
0.985454
0.991682
0.992199
0.98566
0.98519
0.985369
0.985842
0.985471
0.985902
0.985426
0.985844
0.985401
0.985811
0.985372
0.985753
0.985396
0.98549
0.985508
0.985406
0.985742
0.985379
0.98581
0.985397
0.985851
0.985432
0.985919
0.985521
0.985972
0.985506
0.985319
0.985535
0.992246
0.991647
0.985642
0.985791
0.985473
0.985932
0.985423
0.985917
0.98536
0.985865
0.985329
0.985797
0.985317
0.985744
0.985361
0.985718
0.985376
0.985671
0.985346
0.985723
0.985345
0.985796
0.985369
0.985887
0.985436
0.985974
0.985471
0.985765
0.985285
0.985294
0.991457
20.7584
15.5813
16.8237
16.8441
16.6357
11.1581
3.13024
1.65887
2.31922
2.85639
1.70151
0.561061
0.166834
0.160782
0.59093
9.41673
9.9703
2.26357
1.00135
0.617111
0.524303
0.50365
0.504899
0.532587
0.574866
0.617307
0.654127
0.683438
0.772482
0.917764
1.38384
3.01491
6.9013
10.1298
13.2591
15.5008
13.5461
5.69259
1.15187
0.253324
0.184085
0.235934
0.968701
1.18303
0.937982
0.919626
0.878195
1.65859
2.72371
4.04228
5.22552
5.37522
5.95032
6.77817
8.36737
8.20332
8.73072
5.258
1.52746
1.35823
1.36978
1.32917
1.19751
1.17841
1.31784
1.39318
1.12699
0.647338
0.476644
0.501166
0.679946
0.842409
0.847337
0.819959
0.861097
0.89601
1.01133
1.10507
1.12209
1.12767
1.18178
1.40273
2.67531
4.02224
2.45018
1.56248
1.31306
1.09921
1.00075
1.00131
1.04867
1.08339
1.11967
1.12456
1.11932
1.10775
1.10307
1.08948
1.07519
0.926615
0.695603
0.635092
0.80227
0.955298
0.885912
0.8982
1.01408
1.14583
1.17716
1.14152
1.13462
1.11134
1.09842
1.09502
1.1485
1.25229
1.35996
1.40853
1.49253
1.6342
1.65424
1.66827
1.64262
1.6162
1.63348
1.60822
1.36658
0.930549
0.614794
0.431549
0.344982
0.319592
0.338608
0.877662
1.55426
1.19143
1.03738
2.1945
2.63146
2.43593
1.54946
1.52347
1.77845
1.55254
2.14918
1.65987
1.96187
3.06734
4.122
5.57077
6.44012
7.94972
9.00606
9.65459
9.71908
6.81109
2.59122
1.38778
1.40238
1.39222
1.46372
1.53637
1.24587
2.01003
4.26215
4.722
1.65777
3.61153
1.96384
1.71664
1.60372
1.67802
1.68729
1.76572
1.73259
1.62212
1.56244
1.48683
1.45477
1.43131
1.38616
1.39235
1.4021
1.38522
1.40333
1.38046
1.39315
1.42967
1.77943
3.80075
4.50169
4.49423
5.08537
6.1156
3.40581
3.44237
2.72059
2.19487
2.05321
1.94936
1.86464
1.79912
1.75838
1.6964
1.70359
1.63692
1.65814
1.60343
1.62835
1.57848
1.60767
1.56327
1.59085
1.55398
1.57804
1.54693
1.56761
1.54168
1.55844
1.53651
1.5493
1.53071
1.538
1.53068
1.56045
1.55559
1.54568
1.54676
1.54203
1.54233
1.53984
1.54011
1.53857
1.53855
1.53798
1.5376
1.53754
1.53701
1.5372
1.53669
1.53698
1.5365
1.53686
1.53641
1.53675
1.53634
1.53665
1.53632
1.53643
1.53601
1.53587
1.53523
1.53532
1.54348
1.54324
1.53514
1.53534
1.5358
1.53596
1.53611
1.53614
1.53619
1.53613
1.53619
1.53616
1.53622
1.53617
1.5362
1.53615
1.53624
1.53617
1.53633
1.53626
1.53607
1.53613
1.53618
1.53625
1.53616
1.53609
1.53589
1.53566
1.53523
1.53552
1.54401
1.5434
1.5355
1.53538
1.53568
1.53594
1.53599
1.53614
1.53609
1.53616
1.53614
1.53622
1.53618
1.53623
1.53618
1.53622
1.53618
1.53623
1.53619
1.53625
1.53621
1.53626
1.5362
1.53626
1.53619
1.53615
1.5359
1.53563
1.53518
1.5353
1.54345
1.54396
1.53543
1.53501
1.53552
1.53589
1.53603
1.53621
1.53618
1.53622
1.5362
1.53626
1.53619
1.53625
1.53617
1.53611
1.53615
1.53617
1.53626
1.53619
1.53627
1.53619
1.53624
1.53619
1.53625
1.53611
1.53604
1.5357
1.53507
1.53532
1.54397
1.54349
1.53552
1.53536
1.53565
1.53594
1.53605
1.53619
1.53617
1.53621
1.53619
1.5362
1.53621
1.53625
1.53622
1.53629
1.53623
1.53626
1.53622
1.53628
1.53624
1.53628
1.53625
1.53629
1.5362
1.53616
1.53582
1.53539
1.5344
1.53325
1.54136
16.5373
14.2835
16.3072
17.4482
17.7684
10.6687
2.69114
2.01412
4.53458
7.17744
4.91933
1.28209
0.234508
0.261015
2.65047
3.228
1.91557
8.77318
2.06634
0.973839
0.670977
0.594928
0.570505
0.556392
0.568169
0.601303
0.649173
0.693638
0.734701
0.79515
1.04939
1.71987
2.08698
4.47251
7.29023
9.50827
13.3105
14.4317
11.3117
4.26988
0.711994
0.218033
0.239396
0.425552
0.587052
0.664221
0.71694
0.802562
0.906537
0.887797
1.59721
2.80342
4.51868
4.92971
4.12488
4.06023
4.66397
6.974
7.88293
8.95393
6.89972
1.61172
1.34116
1.36314
1.39413
1.38395
1.31245
1.30241
1.29616
1.17945
0.835107
0.547716
0.482881
0.5663
0.737859
0.821153
0.77475
0.756827
0.754815
0.843056
0.857918
0.879786
1.01358
1.08523
1.08599
1.10807
1.25652
1.55116
3.31056
3.32252
2.14057
1.50815
1.34126
1.24661
1.19145
1.15623
1.13427
1.12961
1.11667
1.07972
1.03496
1.01526
1.03333
1.06472
1.11486
1.06828
0.804624
0.666305
0.790066
0.899996
0.831267
0.846804
0.882031
0.961119
1.12642
1.1832
1.17895
1.20121
1.24483
1.22258
1.18519
1.13606
1.15201
1.22622
1.29526
1.36014
1.44769
1.60162
1.71102
1.68295
1.68605
1.68507
1.67505
1.67313
1.66592
1.45306
0.958803
0.596097
0.416445
0.361795
0.322674
0.278014
0.455174
0.509493
0.774826
1.31929
1.44001
2.10529
2.84477
2.06403
2.15594
1.6163
2.43336
1.88872
2.57095
2.11757
2.51175
2.23585
2.63038
3.59257
5.20931
6.07605
6.73508
7.39394
8.31275
9.12523
7.78191
3.91105
1.33674
1.35722
1.44353
1.56186
1.46073
1.26254
1.61348
3.23879
3.73972
2.1688
1.58496
1.63492
2.55822
2.23503
1.7577
1.7254
1.72641
1.70647
1.59295
1.52429
1.45462
1.45333
1.43038
1.40583
1.41166
1.40835
1.39268
1.40181
1.38731
1.40501
1.40286
1.40609
1.39561
2.74734
4.09805
4.39382
4.41773
5.19308
5.23767
5.25255
4.31764
4.37819
3.92619
2.76162
2.65977
2.59181
2.57219
2.49223
2.48083
2.43064
2.4266
2.39003
2.38957
2.3616
2.36634
2.34113
2.34843
2.32904
2.33227
2.32082
2.32346
2.31069
2.31677
2.30428
2.30988
2.29843
2.30292
2.29121
2.29464
2.30859
2.34905
2.34504
2.34311
2.30178
2.30488
2.29459
2.29911
2.29292
2.29597
2.29198
2.29394
2.29134
2.29255
2.29092
2.29162
2.29055
2.29098
2.29022
2.29054
2.28996
2.29022
2.28975
2.28996
2.2896
2.28978
2.28948
2.2895
2.28914
2.28903
2.28886
2.29131
2.31886
2.34428
2.34431
2.31878
2.29116
2.28891
2.28899
2.28897
2.28924
2.28922
2.28941
2.28928
2.28942
2.28933
2.28948
2.28941
2.28949
2.28943
2.2895
2.28942
2.28953
2.28947
2.28926
2.28929
2.28935
2.28941
2.28925
2.28919
2.28891
2.28887
2.28883
2.29149
2.3191
2.34424
2.34424
2.31882
2.29142
2.28898
2.28878
2.28902
2.28903
2.28931
2.28921
2.28939
2.28927
2.28943
2.28936
2.28948
2.28941
2.28947
2.28942
2.28949
2.28941
2.28948
2.28935
2.28946
2.28931
2.28945
2.28923
2.28925
2.28893
2.28883
2.28875
2.29128
2.31882
2.34425
2.34424
2.31906
2.29132
2.28865
2.28869
2.28901
2.28906
2.28935
2.28928
2.28943
2.28932
2.28947
2.28938
2.28949
2.28942
2.28938
2.2894
2.28942
2.2895
2.28938
2.28946
2.28929
2.28943
2.28927
2.28938
2.28911
2.28911
2.28883
2.28873
2.29127
2.31908
2.34422
2.34425
2.3189
2.29143
2.28897
2.28874
2.28906
2.28905
2.28939
2.28923
2.28941
2.28923
2.2894
2.28927
2.28942
2.28935
2.28946
2.28941
2.28949
2.28942
2.28949
2.28931
2.28943
2.28921
2.28938
2.28907
2.28916
2.28877
2.28868
2.28856
2.29119
2.31864
2.34259
2.32281
14.5932
13.9092
16.0889
17.0159
17.0379
10.9382
2.55635
1.57153
3.64504
8.72465
9.70239
4.25018
1.23379
0.80118
7.72371
6.42223
4.43614
1.53548
0.995833
0.767059
0.686306
0.635405
0.607205
0.602206
0.627879
0.671591
0.706289
0.726354
0.740649
0.762873
0.803162
0.863387
0.960517
1.75161
2.31729
3.57779
5.14972
5.77778
4.94837
2.13315
0.497341
0.202188
0.269621
0.469536
0.647311
0.768287
0.826334
0.858774
0.886792
1.74351
2.77896
4.38466
3.71077
1.66915
1.50188
1.5843
4.49602
6.92059
8.34871
6.3757
1.59979
1.26109
1.23549
1.30841
1.33826
1.26876
1.19669
1.08947
0.972795
0.777492
0.595998
0.507215
0.502221
0.56217
0.674356
0.744431
0.767653
0.74806
0.735666
0.792874
0.834925
0.892871
1.01358
1.06197
1.05276
1.12093
1.34651
1.78116
2.91934
3.32818
2.30827
1.51911
1.43441
1.32123
1.2065
1.11849
1.10786
1.12107
1.09446
1.02491
0.972349
0.942639
0.960453
1.01659
1.10931
1.08298
0.880548
0.720906
0.820709
0.859991
0.830352
0.863539
0.931551
1.05361
1.16411
1.20869
1.27316
1.42197
1.48692
1.48391
1.34326
1.25251