/*--------------------------------*- C++ -*----------------------------------*\
| =========                 |                                                 |
| \\      /  F ield         | OpenFOAM: The Open Source CFD Toolbox           |
|  \\    /   O peration     | Version:  2.1.1                                 |
|   \\  /    A nd           | Web:      www.OpenFOAM.org                      |
|    \\/     M anipulation  |                                                 |
\*---------------------------------------------------------------------------*/
FoamFile
{
    version     2.0;
    format      ascii;
    class       volScalarField;
    location    "0.002900000";
    object      Tu;
}
// * * * * * * * * * * * * * * * * * * * * * * * * * * * * * * * * * * * * * //

dimensions      [0 0 0 1 0 0 0];

internalField   nonuniform List<scalar> 
12384
(
1167.5
1095.18
983.219
855.102
733.557
598.501
452.988
322.229
270
270
270
270
270
383.398
270
270
270
270
270
270
270
270
270
270
270
270
270
270
270
270
270
270
270
270
270
270
270
270
270
270
270
270
447.622
508.608
270
270
270
270
270
270
270
270
273.467
272.181
270
270
270
270
270
270
270
270
270
270
270
270
270
270
270
270
270
276.556
314.753
437.049
270
270
270
270
270
270
270
270
270
270
270
270
270
270
270
270
270
270
270
270
270
270
270
270
270
270
270
270
293.948
436.527
270
270
270
270
270
270
270
270
270
270
270
270
270
270
270
270
270
270
270
270
270
270
403.412
445.898
479.542
481.39
460.653
411.795
434.928
407.666
630.118
552.276
270
270
270
270
270
270
270
270
270
270
270
270
270
270
270
270
270
312.733
545.629
576.792
585.172
562.515
541.783
470.499
467.704
442.14
459.895
465.223
573.133
500.969
483.57
499.874
492.278
467.681
469.614
461.582
466.167
479.07
490.17
523.601
527.911
550.377
525.23
563.578
551.479
588.312
602.904
623.725
628.572
626.173
630.843
609.405
626.538
575.936
599.145
574.588
521.935
374.125
299.153
299.127
299.153
298.762
298.858
298.144
298.3
297.378
297.62
296.691
296.925
296.222
295.958
296.024
295.366
295.579
294.926
295.163
294.566
294.804
294.306
294.508
294.117
294.269
293.986
294.077
293.906
293.951
293.861
293.883
293.135
293.132
293.131
293.12
293.117
293.108
293.098
293.096
293.083
293.083
293.067
293.069
293.051
293.056
293.041
293.045
293.033
293.035
293.027
293.028
293.02
293.022
293.015
293.017
293.012
293.015
293.009
293.012
293.009
293.009
293.001
293.003
293.002
293.002
293.003
293.002
293.002
293.003
293.003
293.002
293.002
293.002
293.001
293.001
293.002
293.002
293.001
293.001
293.002
293.002
293.002
293.001
293.001
293.001
293.001
293.003
293.001
293.001
293.001
293.001
293
293.001
293.001
293.001
293.002
293.001
293.001
293.001
293.002
293.002
293.002
293.003
293.001
293.002
293.001
293.002
293.001
293.002
293.003
293.002
293.002
293.002
293.001
293.001
293.001
293.003
293.001
293.002
293.001
293.001
293
293.001
293.001
293.001
293.003
293.001
293.001
293.002
293.001
293.002
293.002
293.003
293.002
293.002
293.001
293.002
293.002
293.001
293.004
293.003
293.002
293.002
293.002
293.002
293.001
293.002
293.001
293.001
293.001
293
292.999
293
293.001
293.001
293.002
293.001
293.001
293.001
293.001
293.003
293.002
293.003
293.002
293.002
293.004
293.003
293.004
293.003
293.002
293.002
293.002
293.002
293.003
293.002
293.002
293.004
293.002
293.002
293.003
293.002
1122.83
1097.32
1112.47
1057.02
978.586
816.724
655.607
508.941
399.534
281.461
270
270
270
419.87
270
270
270
270
270
270
270
329.177
435.956
513.878
569.606
588.565
586.84
556.032
485.503
410.981
339.088
293.934
290.747
289.12
270
270
270
270
270
270
270
270
270
461.092
270
270
270
270
270
270
341.598
415.142
473.635
514.901
499.534
483.605
388.912
333.683
286.969
270
270
270
270
270
270
270
270
270
270
270
270
270
270
379.876
270
270
270
270
270
270
270
270
270
270
270
270
270
270
270
270
270
270
270
270
270
270
270
270
270
270
270
270
270
329.25
270
270
270
270
270
270
270
270
270
270
270
270
270
270
270
270
270
270
270
270
270
270
270
270
470.158
469.973
454.472
443.688
429.059
438.985
584.336
270
325.761
345.947
270
270
270
270
270
270
270
270
270
270
270
270
270
270
270
270
484.358
554.322
493.047
552.112
500.217
498.402
486.096
445.285
455.47
469.774
551.017
506.122
509.656
344.553
270
270
270
270
270
270
270
270
299.27
497.344
528.652
538.31
542.053
547.768
579.355
581.992
589.956
606.047
575.308
609.567
572.727
604.148
566.998
529.453
495.386
395.542
300.574
299.996
299.183
299.78
298.663
298.826
297.947
298.084
297.19
297.31
296.616
296.566
295.988
296.055
295.443
295.607
294.986
295.198
294.603
294.834
294.334
294.516
294.138
294.271
293.994
294.092
293.899
293.969
293.858
293.896
293.129
293.138
293.123
293.141
293.114
293.126
293.1
293.11
293.083
293.094
293.067
293.078
293.054
293.063
293.043
293.05
293.035
293.039
293.029
293.031
293.023
293.026
293.018
293.021
293.015
293.018
293.013
293.017
293.012
293.015
293.007
293.005
293.006
293.005
293.006
293.005
293.006
293.004
293.006
293.005
293.006
293.004
293.005
293.004
293.006
293.004
293.006
293.004
293.006
293.005
293.005
293.006
293.004
293.005
293.004
293.006
293.004
293.006
293.005
293.008
293.005
293.006
293.004
293.005
293.004
293.005
293.004
293.006
293.004
293.006
293.005
293.006
293.004
293.006
293.004
293.005
293.004
293.005
293.004
293.006
293.004
293.006
293.004
293.006
293.004
293.006
293.005
293.007
293.005
293.007
293.006
293.005
293.002
293.005
293.004
293.006
293.004
293.005
293.004
293.005
293.005
293.006
293.004
293.006
293.004
293.004
293.006
293.004
293.005
293.004
293.006
293.004
293.005
293.004
293.006
293.004
293.006
293.003
293.005
293.006
293.004
293.005
293.003
293.006
293.004
293.005
293.004
293.006
293.004
293.006
293.005
293.006
293.005
293.006
293.005
293.007
293.006
293.007
293.006
293.007
293.006
293.007
293.005
293.006
293.005
293.006
293.005
293.007
293.006
293.007
1189.77
1279.78
1334.31
1292.68
1208.38
1064.31
918.608
789.669
694.239
561.346
312.071
270
270
431.051
270
270
270
270
270
388.523
537.051
646.611
712.774
742.114
755.301
755.886
752.759
755.112
732.325
680.848
583.735
518.62
489.164
486.203
429.243
391.718
289.141
270
270
270
270
270
270
461.997
270
270
270
270
277.528
348.942
473.238
551.773
654.442
678.289
693.599
676.561
561.702
445.843
317.28
270
270
270
270
270
270
270
270
270
270
270
270
270
270
364.34
270
270
270
270
270
270
270
270
270
270
270
270
270
270
270
270
270
270
270
270
270
270
270
270
270
270
270
270
270
297.256
270
270
270
270
270
270
270
270
270
270
270
270
270
270
270
270
270
270
270
270
270
270
270
270
270
459.911
451.014
437.702
428.253
441.173
577.201
270
448.572
451.656
482.156
354.008
270
270
270
270
270
270
270
270
270
270
270
270
270
270
270
270
270
407.724
270
503.351
521.652
505.818
471.634
453.961
483.248
513.942
517.091
330.135
270
270
270
270
270
270
270
270
270
270
270
270
270
395.431
541.428
553.351
593.63
551.163
587.146
550.833
582.838
562.712
525.81
542.988
484.477
491.206
299.668
299.952
300.659
299.182
299.668
298.64
298.757
297.843
297.944
297.099
296.71
296.715
295.961
296.114
295.469
295.593
295.038
295.157
294.677
294.774
294.386
294.476
294.149
294.254
293.985
294.077
293.881
293.953
293.835
293.879
293.152
293.14
293.147
293.119
293.128
293.102
293.107
293.085
293.09
293.07
293.071
293.057
293.053
293.046
293.037
293.038
293.026
293.029
293.019
293.02
293.016
293.014
293.013
293.01
293.009
293.007
293.007
293.004
293.005
293.003
292.996
292.997
292.997
292.996
292.997
292.997
292.997
292.997
292.998
292.997
292.997
292.997
292.997
292.997
292.997
292.997
292.997
292.996
292.997
292.997
292.997
292.997
292.996
292.996
292.996
292.997
292.996
292.996
292.996
292.995
292.995
292.996
292.996
292.996
292.997
292.996
292.996
292.996
292.997
292.996
292.996
292.997
292.997
292.997
292.997
292.997
292.997
292.997
292.996
292.996
292.996
292.997
292.996
292.996
292.996
292.997
292.996
292.996
292.996
292.995
292.994
292.995
292.996
292.996
292.996
292.995
292.997
292.997
292.997
292.996
292.996
292.997
292.996
292.996
292.996
292.996
292.996
292.996
292.996
292.996
292.997
292.996
292.996
292.996
292.996
292.996
292.997
292.996
292.996
292.995
292.995
292.995
292.996
292.996
292.996
292.997
292.996
292.996
292.996
292.997
292.997
292.997
292.997
292.997
292.998
292.998
292.998
292.998
292.998
292.998
292.997
292.997
292.998
292.998
292.996
292.998
292.998
292.997
292.998
292.995
1400.91
1501.72
1379.32
1249.99
1144.13
1107.25
1050.65
997.096
963.852
836.171
502.662
270
270
444.973
270
270
270
270
457.01
652.139
748.568
763.636
730.239
690.762
655.901
642.264
663.118
705.082
747.458
779.279
777.064
772.922
719.161
681.339
614.16
530.475
458.584
323.483
270
270
270
270
270
517.18
270
270
270
270
303.285
405.493
519.498
613.194
659.505
685.266
699.875
684.2
600.365
361.696
270
270
270
270
270
270
270
270
270
270
270
270
270
270
270
270
270
270
270
270
270
270
270
270
270
270
270
270
270
270
270
270
270
270
270
270
270
270
270
270
270
270
270
270
270
270
270
270
270
270
270
270
270
270
270
270
270
270
270
270
270
270
270
270
270
270
270
270
270
270
270
270
270
270
394.377
469.955
573.639
270
418.174
551.137
527.05
435.95
270
270
270
270
270
270
270
270
270
270
270
270
270
270
270
270
270
270
270
328.429
529.003
531.289
517.451
490.629
441.804
476.939
545.711
488.662
270
270
270
270
270
270
270
270
270
270
270
270
270
270
270
320.847
423.062
564.313
528.928
564.517
536.604
512.152
537.783
502.293
524.145
571.061
301.41
301.458
300.087
301.264
299.343
299.687
298.525
298.682
297.667
297.853
296.719
296.782
296.352
295.805
295.874
295.349
295.378
294.937
294.974
294.582
294.647
294.337
294.246
294.236
294.008
294.084
293.885
293.956
293.83
293.887
293.142
293.154
293.131
293.149
293.12
293.128
293.104
293.107
293.087
293.089
293.07
293.072
293.055
293.056
293.041
293.043
293.032
293.032
293.025
293.024
293.02
293.018
293.014
293.013
293.01
293.011
293.009
293.009
293.007
293.008
293.001
293
293.001
293
293
293
293
293
293
293.001
293
293
293
293.001
293.001
293.001
293.001
293
293.001
293
293
293
292.999
292.999
292.999
293
293
293
293
293
292.999
293
293
292.999
292.999
292.999
292.999
292.999
293.001
293
293
293
293.001
293
293.001
293.001
293
293.001
293
293
293
293
292.999
292.999
292.999
293
292.999
293
293
292.999
293
292.999
292.999
293
293
292.998
292.999
292.999
293
293
293
293
293
293
293
293
293
293
293
293
293
293
292.999
293
292.999
293
293
292.999
293
292.999
292.999
293
292.999
292.999
292.999
292.999
292.999
292.999
293
293
293
293
293
293
293
293.001
293.001
293.001
293.001
293
293.001
293.001
293
293
293
293
293.001
293
292.999
292.999
1559.36
1422.42
1172.61
1060.5
1029.81
1026.31
1017.1
1013.57
982.345
946.707
653.396
270
270
432.33
270
270
280.244
541.309
722.023
754.989
670.702
521.488
373.648
270
270
270
270
306.27
474.571
605.563
732.167
770.161
816.962
810.534
780.419
703.279
586.908
448.734
314.437
270
270
270
438.712
521.802
270
270
270
270
307.596
431.821
524.057
598.085
608.373
614.069
628.814
643.239
572.074
406.67
270
270
270
270
270
270
270
270
270
270
270
270
270
270
270
270
270
270
270
270
270
270
270
270
270
270
305.724
304.355
270
270
270
270
270
270
270
270
270
270
270
270
270
270
270
270
270
270
270
270
270
270
270
270
270
270
270
270
270
270
270
270
270
270
270
270
270
270
270
270
270
270
270
270
270
270
444.854
463.755
600.956
270
270
411.757
547.601
409.399
270
270
270
270
270
270
270
270
270
270
270
270
270
270
270
270
270
270
270
270
373.125
521.102
543.624
524.746
425.711
459.734
527.271
270
270
270
270
270
270
270
270
270
270
270
270
270
270
270
270
270
270
270
500.112
525.574
506.55
529.035
501.588
520.733
530.566
639.017
300.15
300.959
302.448
300.732
301.302
299.53
299.572
298.616
298.589
297.454
297.683
296.484
296.753
295.992
295.716
295.693
295.165
295.226
294.756
294.813
294.439
294.498
294.185
294.263
294.009
294.078
293.897
293.931
293.83
293.876
293.204
293.171
293.193
293.143
293.162
293.123
293.133
293.101
293.11
293.082
293.089
293.064
293.07
293.049
293.055
293.038
293.042
293.029
293.032
293.022
293.025
293.018
293.016
293.015
293.012
293.012
293.01
293.009
293.009
293.008
293.001
293.001
293.001
293.002
293.001
293.001
293
293
293.001
293.002
293.001
293.001
293.001
293.001
293
293.001
293.001
293.001
293.001
293.001
293.001
293
293.001
293
293.001
293
293.001
293
293
293
293.001
293
293.001
293
293
293
293
292.999
293.001
293
293.001
293
293.001
293
293.001
293
293.001
293.001
293.001
293.001
293.001
293
293
293
293.001
293
293.001
292.999
293
293.001
293
293
293.001
293
293.001
293
293
293
293.001
293.001
293.001
293
293.002
293
293.001
293.001
293.001
293.002
293.001
293.002
293.001
293.001
293
293
293
293.001
293
293
293
293
292.999
293
293
292.999
293
293
293
292.999
293
293
293.001
293.001
293.001
293.001
293.001
293.001
293.002
293.001
293.001
293.001
293.002
293.001
293.001
293
293.001
293
293.001
293
293
293
1499.32
1227.69
1049.33
1022.82
1026.16
1024.69
986.109
865.946
769.856
733.791
617.482
326.772
270
411.274
270
270
595.643
747.549
707.628
492.099
270
270
270
270
270
270
270
270
270
281.804
512.87
652.428
772.312
804.904
865.163
831.202
751.302
555.89
394.035
270
270
270
443.944
510.492
270
270
270
270
343.962
443.586
530.144
561.614
562.637
559.433
591.355
613.231
635.11
502.397
387.596
270
270
270
270
270
270
270
270
270
270
270
270
270
270
270
270
270
270
270
270
270
270
270
270
339.481
380.093
340.493
270
270
270
270
270
270
270
270
270
270
270
270
270
270
270
270
270
270
270
270
270
270
270
270
270
270
270
270
270
270
270
270
270
270
270
270
270
270
270
270
270
270
270
270
270
270
270
451.402
593.925
270
270
355.997
503.351
364.621
271.168
270
270
270
270
270
270
270
270
270
270
270
270
270
270
270
270
270
270
270
270
270
502.675
575.159
426.539
502.873
316.652
270
270
270
270
270
270
270
270
270
270
270
270
270
270
270
270
270
270
270
270
414.65
521.89
495.34
513.66
511.274
548.547
638.662
302.445
303.695
302.558
303.283
301.436
301.883
299.649
299.223
298.705
298.148
297.251
297.326
296.455
296.231
296.07
295.423
295.603
294.984
295.123
294.626
294.731
294.332
294.42
294.11
294.184
293.947
294.011
293.832
293.89
293.811
293.176
293.217
293.154
293.195
293.14
293.162
293.119
293.131
293.096
293.104
293.078
293.082
293.061
293.063
293.047
293.046
293.037
293.034
293.029
293.025
293.023
293.017
293.019
293.013
293.015
293.01
293.011
293.008
293.008
293.007
293
293
293
293.001
293.001
293.001
293
293
293
293.001
293.001
293.001
293
293
293
293
293
293
293
293
293
292.999
293
293
293
293
293
293
293
292.999
292.998
292.999
293
293
293
293
293
293
293
293
293
293
293
292.999
293
292.999
293
292.999
293
293
293
292.999
293
292.999
292.999
293
293
292.999
292.999
292.999
292.999
292.999
292.999
292.999
292.999
293
293
293
293
293
293
292.999
293
293
293
293
293
293
293
293
293
293
293
292.999
293
293
293
292.999
293
292.999
292.998
293
292.999
292.999
292.999
292.999
293
293
292.999
293
293
293
293
293
293
293
293
293.001
293.001
293.001
293
293
293
293
292.999
293
293
292.999
292.998
292.998
1361.84
1082.11
999.775
1030.47
1060.5
1043.64
862.467
662.042
561.434
532.8
519.604
338.467
270
367.505
270
514.657
761.125
663.008
337.31
270
270
270
270
270
270
270
270
270
270
270
280.989
468.526
672.626
744.517
880.356
900.898
861.792
685.082
418.351
285.342
270
285.745
418.639
503.361
270
270
270
315.764
413.849
498.234
539.947
558.987
553.458
570.827
598.328
666.698
634.972
606.931
327.318
270
270
270
270
270
270
270
270
270
270
270
270
270
270
270
270
270
270
270
270
270
270
270
270
417.486
419.361
270
270
270
270
270
270
270
270
270
270
270
270
270
270
270
270
270
270
270
270
270
270
270
270
270
270
270
270
270
270
270
270
270
270
270
270
270
270
270
270
270
270
270
270
270
270
270
270
453.347
484.284
270
270
320.993
483.672
329.35
270
270
270
270
270
270
287.83
291.173
435.362
469.478
534.684
542.771
514.906
439.121
293.179
270
270
270
270
270
270
270
270
534.33
483.415
546.102
270
270
270
270
270
270
270
270
270
270
270
270
270
270
270
270
270
270
270
270
270
270
431.959
510.533
495.546
508.223
557.481
641.988
328.671
319.5
304.027
303.542
303.789
301.463
301.874
299.405
299.382
298.143
298.178
296.898
297.245
296.076
296.355
295.641
295.391
295.373
294.883
294.955
294.55
294.554
294.336
294.203
294.133
293.995
293.974
293.85
293.861
293.791
293.289
293.208
293.261
293.166
293.207
293.14
293.167
293.111
293.133
293.087
293.106
293.068
293.082
293.052
293.063
293.04
293.048
293.03
293.037
293.023
293.027
293.019
293.018
293.015
293.013
293.012
293.011
293.01
293.008
293.008
293.001
293.001
293.001
293.001
293.001
293
293
293
293.001
293.001
293
293
293
293
293
293
293
293
293
293
293
293
293
293
293
292.999
293
292.999
293
293
293
292.999
293
293
292.999
292.999
293
293
293
293
293.001
293
293
293
293
293
293
293
293
293
293.001
293
293
292.999
292.999
292.999
293.001
292.999
293
293
293
293
293
293
293
292.999
293
293
293
293
293.001
293
293
293
293.001
293
293
293
293
293
293.001
293.001
293
293
293
293
293
293
293
293
293
292.999
292.999
293
293
293
293
292.999
293.001
293.001
293.001
293
293.001
293.001
293.001
293.001
293.001
293.001
293.001
293.001
293
293
293
293
293
292.999
292.999
292.999
292.999
292.999
1197.88
1033.05
1017.56
1062.61
1072.57
961.811
712.328
591.185
613.527
624.274
534.073
391.916
270
270
270
707.46
715.794
312.298
270
270
270
270
270
270
270
270
270
270
270
270
294.468
386.747
596.677
741.904
865.653
960.083
939.422
746.748
469.34
290.83
270
270
404.027
371.299
270
270
270
381.652
465.902
512.349
542.876
533.761
556.835
595.54
668.74
657.183
685.551
505.122
270
270
270
270
270
270
270
270
270
270
270
270
270
270
270
270
270
270
270
270
270
270
270
270
358.78
446.967
336.538
270
270
270
270
270
270
270
270
270
270
270
270
270
270
270
270
270
270
270
270
270
270
270
270
270
270
270
270
270
270
270
270
270
270
270
270
270
270
270
270
270
270
270
270
270
270
270
270
447.264
559.717
365.373
270
390.962
399.826
354.558
270
270
295.344
270
321.069
270
293.587
380.273
452.269
550.287
605.01
687.936
741.24
775.173
785.893
659.787
389.122
270
270
270
270
270
270
551.338
552.855
500.389
270
270
270
270
270
270
270
270
270
270
270
270
270
270
270
270
270
270
270
270
270
270
296.57
460.618
505.658
499.433
541.753
639.747
405.089
411.805
342.896
303.797
303.197
304.205
301.153
301.824
298.995
298.94
298.502
297.232
297.126
296.609
296.245
295.694
295.799
295.04
295.314
294.661
294.902
294.308
294.569
294.062
294.292
293.887
294.078
293.775
293.924
293.757
293.132
293.332
293.155
293.263
293.154
293.203
293.137
293.158
293.112
293.114
293.097
293.08
293.079
293.06
293.059
293.045
293.045
293.034
293.035
293.025
293.027
293.016
293.021
293.013
293.015
293.009
293.011
293.008
293.008
293.007
293.001
293.001
293.001
293
292.999
292.999
293
292.999
292.999
293
293
293
292.999
292.999
292.998
292.998
292.998
292.999
292.999
293
293
292.998
292.999
292.999
292.999
292.998
292.999
292.999
292.999
292.999
292.999
292.999
292.999
292.999
292.998
292.998
292.999
292.999
292.999
293
293
293
292.999
292.998
292.998
292.998
292.998
292.999
292.999
293
292.999
292.999
292.999
292.999
292.999
292.998
292.999
292.999
292.999
292.999
292.999
292.999
292.999
292.999
292.999
292.998
292.999
292.998
292.999
292.999
293
292.999
292.999
292.998
292.998
292.998
292.998
292.998
292.999
292.999
293
292.999
292.999
292.999
292.999
292.998
292.999
292.999
292.999
292.999
292.998
292.998
292.998
292.999
292.998
292.999
292.999
292.998
292.999
293
292.999
292.999
292.999
292.999
292.999
292.999
293
292.999
293
293
292.999
292.999
292.999
292.999
292.999
292.999
292.999
292.998
292.998
292.998
1076.89
969.22
991.387
1038.68
1055.04
916.443
683.693
615.538
694.297
757.831
685.81
460.064
270.353
270
456.416
455.4
346.364
664.04
304.064
270
270
270
270
270
270
270
270
270
270
270
292.822
357.725
353.292
495.748
641.793
719.351
883.613
942.69
899.236
694.5
424.781
290.901
270
270
270
270
270
270
270
270
371.682
466.693
522.483
514.097
459.019
453.272
482.799
600.198
641.03
696.406
585.626
270
270
270
270
270
270
270
270
270
270
270
270
270
270
270
270
270
270
270
270
270
270
270
270
270
270
270
399.972
401.111
318.686
270
270
270
270
270
270
270
270
270
270
270
270
270
270
270
270
270
270
270
270
270
270
270
270
270
270
270
270
270
270
270
270
270
270
270
270
270
270
270
270
270
270
270
270
270
270
270
270
270
270
270
270
270
367.056
389.985
317.993
375.662
421.579
313.712
325.347
276.252
354.204
293.655
348.851
301.193
336.27
316.615
355.867
428.933
541.876
593.292
629.663
661.705
704.47
743.63
683.076
483.97
270
270
270
270
270
348.191
391.47
566.096
518.348
334.83
270
270
270
270
270
270
270
270
270
270
270
270
270
270
270
270
270
270
270
270
270
270
270
384.834
479.257
498.468
494.238
551.197
540.76
540.54
466.143
477.306
421.129
310.513
304.477
303.848
303.983
301.062
300.425
299.14
298.626
297.779
297.304
296.663
296.608
295.728
295.941
295.288
295.065
295.07
294.709
294.472
294.506
294.154
294.242
293.933
294.022
293.775
293.801
293.696
293.642
293.446
293.528
293.269
293.386
293.206
293.282
293.163
293.211
293.13
293.161
293.103
293.119
293.084
293.085
293.065
293.065
293.049
293.05
293.036
293.039
293.026
293.031
293.019
293.021
293.016
293.014
293.013
293.009
293.011
293.007
293.008
293.003
293.002
293.003
293.003
293.002
293.002
293.001
293.001
293
293
293
293.001
293
293
293
293
293
293
293
293
292.999
293
293
293
292.999
292.999
293
292.999
293
293
292.999
293
292.997
292.997
293
292.999
293
293
292.999
292.999
293
292.999
293
293
293
292.999
293
292.999
293
293
293
292.999
293
292.999
293
293
293
293
293
293
293
293
292.999
293
292.997
292.997
293
293
293
293
293
292.999
293
292.999
293
293
293
293
293
293
293
293
293
293
293
293
292.999
293
293
293
292.999
292.999
293
293
292.999
293
292.997
292.997
293
292.999
293
292.999
293
292.999
293
292.999
293
293
293.001
293
293
293
293.001
293.001
293.001
293
293
293
293
293
293
292.999
293
293
293
292.999
292.999
292.999
292.995
292.996
1012.07
955.767
993.762
1017.33
1021.1
903.689
678.921
591.707
645.349
759.83
784.82
585.164
395.437
291.466
643.868
575.289
466.343
270
270
270
270
270
270
270
270
270
270
270
270
270
270
270
270
363.419
416.192
511.067
634.288
697.806
703.104
573.511
382.212
273.83
270
270
270
270
270
270
270
375.137
436.451
490.987
433.01
279.673
270
270.64
474.66
595.649
669.123
561.29
274.634
270
270
270
270
270
270
270
270
270
270
270
270
270
270
270
270
270
270
270
270
270
270
270
270
270
270
288.294
374.794
406.425
337.189
270
270
270
270
270
270
270
270
270
270
270
270
270
270
270
270
270
270
270
270
270
270
270
270
270
270
270
270
270
270
270
270
270
270
270
270
270
270
270
270
270
270
270
270
270
270
270
270
270
270
270
270
302.444
298.221
365.917
304.361
449.336
393.717
391.307
317.028
323.673
333.811
320.768
372.459
301.847
270
270
270
370.513
462.568
535.008
554.131
606.79
611.304
620.993
713.288
706.253
566.616
270
270
270
270
270
270
270
270
270
270
270
270
270
270
270
270
270
270
270
270
270
270
270
270
270
270
270
270
270
270
270
270
270
448.823
484.428
496.138
507.127
517.082
470.043
502.029
453.583
447.506
345.134
305.005
305.241
304.036
302.145
300.835
300.075
298.354
298.554
297.198
297.254
296.359
296.129
295.758
295.538
295.129
294.921
294.925
294.35
294.668
294.06
294.359
293.866
294.109
293.708
293.905
293.587
293.719
293.41
293.531
293.289
293.372
293.229
293.268
293.185
293.196
293.148
293.152
293.11
293.122
293.081
293.095
293.061
293.073
293.044
293.057
293.032
293.043
293.023
293.032
293.017
293.023
293.013
293.017
293.009
293.012
293.007
293.009
293.004
293.006
293.002
293.003
293.001
293.002
293.001
293.001
293
293
293
293
292.999
292.999
292.999
292.999
292.999
292.999
292.999
292.999
292.999
292.999
292.999
292.999
292.999
292.999
292.999
292.999
292.999
292.999
292.999
292.998
292.998
292.998
292.998
292.998
292.999
292.999
292.999
292.999
292.999
292.999
292.999
292.999
292.999
292.999
292.999
292.999
292.999
292.999
292.999
292.998
292.999
292.999
292.999
292.999
292.999
292.999
292.999
292.998
292.999
292.999
292.999
292.999
292.998
292.998
292.998
292.998
292.999
292.999
293
292.999
292.999
292.999
292.999
292.999
292.999
292.999
292.999
292.999
292.999
292.999
292.999
292.999
292.999
292.999
292.999
292.999
292.999
292.999
292.999
292.999
292.999
292.999
292.999
292.998
292.998
292.998
292.998
292.998
292.998
292.998
292.999
292.998
292.999
292.999
292.999
292.998
292.999
292.999
292.999
292.999
292.999
292.999
292.998
292.998
292.998
292.999
292.999
292.999
292.999
292.998
292.998
292.998
292.998
292.998
292.998
292.998
292.997
292.998
292.996
958.416
936.433
953.568
950.391
940.873
908.467
706.516
578.902
575.06
647.784
800.913
765.14
704.77
629.096
597.027
407.369
270
270
270
270
270
270
270
270
270
270
270
270
270
270
270
270
270
270
270
270
270
323.485
401.086
399.308
327.352
270
270
270
270
270
270
319.374
392.62
456.96
485.615
321.246
270
270
270
270
417.841
496.242
380.52
270
270
270
270
270
270
270
270
270
270
270
270
270
270
270
270
270
270
270
270
270
270
270
270
270
270
270
270
270
341.16
392.207
383.397
299.096
270
270
270
270
270
270
270
270
270
270
270
270
270
270
270
270
270
270
270
270
270
270
270
270
270
270
270
270
270
270
270
270
270
270
270
270
270
270
270
270
270
270
270
270
270
270
270
270
270
270
270
289.662
414.389
344.537
320.963
428.034
507.105
443.225
385.737
299.323
314.888
333.113
351.859
270
270
270
275.254
353.831
375.103
364.758
525.92
600.227
669.703
700.935
676.085
724.709
689.96
506.705
270
270
270
270
270
270
270
270
270
270
270
270
270
270
270
270
270
270
270
270
270
270
270
270
270
270
270
270
270
270
270
270
328.081
484.952
485.972
495.293
470.562
505.457
464.255
480.158
436.293
385.037
307.755
304.411
305.628
301.737
302.621
299.492
299.676
297.573
298.364
296.56
296.913
296.321
295.551
295.831
295.089
295.165
294.724
294.643
294.571
294.16
294.316
293.924
294.074
293.739
293.874
293.596
293.7
293.433
293.519
293.331
293.375
293.254
293.281
293.197
293.219
293.151
293.171
293.117
293.13
293.09
293.1
293.065
293.079
293.047
293.06
293.037
293.044
293.03
293.032
293.024
293.025
293.017
293.018
293.013
293.012
293.01
293.008
293.007
293.006
293.005
293.003
293.004
293.001
293.003
293.002
293.002
293.001
293.002
293.002
293.001
293.001
293.001
293.001
293.001
293.001
293
293.001
293.001
293
293.001
293.001
293.001
293.001
293
293.001
293.001
293
292.999
293
292.999
293
293
292.999
293
292.999
293
293
293.001
293
293.001
293.001
293
293
293
293
293
293
293
293
293
293
293
293
293.001
293.001
293
293.001
293
293
292.999
293
292.999
293
293
292.999
293
292.999
293
293
293
293
293.001
293.001
293.001
293
293
293
293.001
293.001
293.001
293.001
293.001
293
293.001
293.001
293.001
293.001
293.001
293.001
293.001
293.001
293
293
293
293
293
293
293
293
293
293
293
293
293
293
293
293.001
293.001
293
293
293.001
293.001
293.001
293.001
293.001
293
293
293
293.001
293
293.001
292.999
293
292.999
292.999
292.998
292.999
292.998
915.589
909.026
937.935
897.123
885.565
876.875
740.425
593.903
563.008
579.722
705.263
755.194
750.157
611.103
407.357
270
270
270
270
270
270
270
270
270
270
270
270
270
270
270
270
270
270
270
270
270
270
270
270
270
270
270
270
270
270
270
316.117
360.028
440.449
412.692
270
270
270
270
270
270
270
270
270
270
270
270
270
270
270
270
270
270
270
270
270
270
270
270
270
270
270
270
270
270
270
270
270
270
270
270
270
270
270
297.398
391.727
340.61
270
270
270
270
270
270
270
270
270
270
270
270
270
270
270
270
270
270
270
270
270
270
270
270
270
270
270
270
270
270
270
270
270
270
270
270
270
270
270
270
270
270
270
270
270
270
270
270
270
270
270
270
289.026
360.914
286.225
423.81
542.674
582.432
467.424
298.123
331.591
270
270
270
270
270
359.912
378.68
385.085
500.722
552.82
634.9
699.615
723.265
727.243
699.743
751.385
655.344
424.505
270
270
270
270
270
270
270
270
270
270
270
270
270
270
270
270
270
270
270
270
270
270
270
270
270
270
270
270
270
270
270
270
436.3
494.251
481.193
496.452
464.738
482.21
458.754
468.891
415.976
320.414
304.965
305.227
302.285
303.219
299.25
300.625
297.597
298.358
296.945
296.732
296.328
295.85
295.684
295.192
295.218
294.709
294.695
294.613
294.113
294.393
293.879
294.129
293.705
293.905
293.566
293.719
293.421
293.555
293.312
293.421
293.238
293.319
293.184
293.241
293.144
293.186
293.109
293.144
293.083
293.11
293.062
293.082
293.049
293.058
293.039
293.044
293.028
293.035
293.02
293.027
293.015
293.019
293.01
293.014
293.007
293.01
293.004
293.006
293.002
293.004
293.001
293.002
293.002
293.001
293
293.001
293.001
293.001
293
293
293
293
292.999
292.999
292.999
292.999
293
293
293
293
293
293
292.999
292.999
292.999
293
292.999
292.999
292.999
292.999
292.999
292.999
292.999
292.999
293
292.999
292.999
292.999
293
293
292.999
292.999
293
293
292.999
292.999
292.999
292.999
293
293
292.999
293
293
293
293
292.999
292.999
293
292.999
292.999
292.999
292.998
292.999
292.999
292.999
292.999
293
292.999
292.999
292.999
293
293
293
293
293
293
292.999
292.999
292.999
292.999
293
293
293
293
293
293
292.999
292.999
292.999
293
292.999
292.999
292.998
292.998
292.998
292.999
292.998
292.998
293
292.999
292.999
292.999
292.999
292.999
293
292.999
293
292.999
292.999
292.999
292.999
292.999
292.999
293
293
292.999
292.999
292.999
292.999
292.999
292.999
292.998
292.998
292.998
292.998
292.999
292.997
897.695
911.636
899.251
806.983
810.309
839.554
761.137
641.999
610.859
603.738
658.976
703.222
693.856
496.648
283.297
270
270
270
270
270
270
270
270
270
270
270
270
270
270
270
270
270
270
270
270
270
270
270
270
270
270
270
270
270
270
297.85
341.283
467.735
499.63
307.676
270
270
270
270
270
270
270
270
270
270
270
270
270
270
270
270
270
270
270
270
270
270
270
270
270
270
270
270
270
270
270
270
270
270
270
270
270
270
270
270
270
270
270
270
270
270
270
270
270
270
270
270
270
270
270
270
270
270
270
270
270
270
270
270
270
270
270
289.791
270
270
270
270
270
270
270
270
270
270
270
270
270
270
270
270
270
270
270
270
270
270
270
270
270
270
270
270
293.286
336.51
518.251
608.98
541.258
419.966
357.13
324.661
270.714
270
282.986
369.861
400.282
407.905