/*--------------------------------*- C++ -*----------------------------------*\
| =========                 |                                                 |
| \\      /  F ield         | OpenFOAM: The Open Source CFD Toolbox           |
|  \\    /   O peration     | Version:  2.1.1                                 |
|   \\  /    A nd           | Web:      www.OpenFOAM.org                      |
|    \\/     M anipulation  |                                                 |
\*---------------------------------------------------------------------------*/
FoamFile
{
    version     2.0;
    format      ascii;
    class       volScalarField;
    location    "0.006700000";
    object      H2O;
}
// * * * * * * * * * * * * * * * * * * * * * * * * * * * * * * * * * * * * * //

dimensions      [0 0 0 0 0 0 0];

internalField   nonuniform List<scalar> 
12384
(
0.228679
0.227106
0.226854
0.227209
0.227834
0.228823
0.229654
0.230441
0.231198
0.231726
0.231999
0.23205
0.232148
0.234376
0.21526
0.218503
0.21734
0.215659
0.214146
0.21328
0.213212
0.213739
0.214926
0.216659
0.218676
0.220226
0.22167
0.223206
0.224935
0.226743
0.228734
0.230011
0.231005
0.231706
0.231984
0.231809
0.231307
0.230419
0.228896
0.225982
0.221817
0.216568
0.209879
0.203359
0.23458
0.240845
0.244969
0.245693
0.246117
0.246244
0.24658
0.247043
0.247567
0.248041
0.248475
0.248807
0.248957
0.249043
0.24925
0.249161
0.249105
0.249095
0.249151
0.249082
0.249175
0.249286
0.24941
0.249451
0.249419
0.249237
0.248585
0.246519
0.241747
0.241195
0.248083
0.248039
0.247849
0.248027
0.248312
0.248703
0.248846
0.249257
0.249472
0.249724
0.250019
0.250071
0.250096
0.250053
0.249936
0.249775
0.249622
0.249468
0.249337
0.249246
0.249158
0.249045
0.24884
0.248664
0.248499
0.247959
0.247442
0.24743
0.248452
0.248686
0.250599
0.250409
0.250283
0.250217
0.250161
0.250142
0.250161
0.250144
0.250722
0.250718
0.250716
0.250615
0.250797
0.250552
0.250736
0.250382
0.250453
0.250035
0.249874
0.249615
0.249408
0.249358
0.24906
0.249375
0.249684
0.250032
0.25029
0.250309
0.250035
0.249475
0.251306
0.251308
0.251262
0.251293
0.251321
0.251352
0.251378
0.25134
0.251359
0.251333
0.251311
0.251297
0.251286
0.251306
0.251296
0.251342
0.251299
0.251426
0.251445
0.25141
0.251501
0.251463
0.25146
0.25145
0.251462
0.251527
0.251514
0.251754
0.251728
0.251407
0.251374
0.251107
0.251613
0.252435
0.252032
0.252075
0.252005
0.252066
0.252025
0.252
0.251994
0.251918
0.251947
0.25198
0.252006
0.252028
0.251975
0.251977
0.25196
0.251882
0.251825
0.251811
0.251787
0.25162
0.246944
0.233109
0.232023
0.232591
0.233308
0.233302
0.25093
0.251618
0.251328
0.25129
0.251293
0.251323
0.251389
0.251355
0.251444
0.251491
0.251472
0.251533
0.251561
0.251559
0.251549
0.251469
0.251427
0.251432
0.25137
0.251355
0.251405
0.251505
0.251541
0.251744
0.251804
0.251579
0.251551
0.251564
0.251548
0.251838
0.251053
0.251084
0.251079
0.251134
0.251146
0.2512
0.251199
0.251245
0.251197
0.251361
0.251401
0.251298
0.25135
0.251326
0.251282
0.251275
0.251429
0.251544
0.251227
0.251235
0.251318
0.251349
0.251356
0.25137
0.251367
0.251365
0.251348
0.251293
0.25118
0.250993
0.251956
0.251773
0.251731
0.251737
0.251766
0.251942
0.251924
0.25199
0.25197
0.251879
0.251917
0.251892
0.251867
0.251805
0.251789
0.251649
0.251701
0.25164
0.251655
0.251727
0.25169
0.251684
0.25171
0.251699
0.251731
0.25171
0.251723
0.251713
0.251734
0.251743
0.251918
0.251864
0.251817
0.251841
0.251836
0.251827
0.251784
0.251842
0.251808
0.251809
0.251839
0.251839
0.251836
0.25183
0.251838
0.25184
0.251822
0.251528
0.251367
0.251309
0.251306
0.25135
0.251393
0.251429
0.251476
0.2515
0.251472
0.251442
0.251406
0.251435
0.252152
0.252244
0.25236
0.252203
0.252137
0.252027
0.251939
0.251907
0.251919
0.251867
0.251859
0.251875
0.251809
0.251808
0.251863
0.251863
0.25187
0.251888
0.251842
0.251881
0.251925
0.251977
0.25198
0.252041
0.252112
0.252149
0.252197
0.252223
0.252218
0.25215
0.251465
0.2514
0.251368
0.251517
0.251888
0.252304
0.236867
0.251959
0.249197
0.249277
0.249271
0.249216
0.24919
0.24915
0.249127
0.249116
0.249133
0.249169
0.249241
0.249357
0.249555
0.249814
0.250227
0.250559
0.25057
0.25021
0.249519
0.248423
0.247324
0.248386
0.221443
0.221695
0.222028
0.222184
0.222828
0.224235
0.225681
0.227648
0.230079
0.232188
0.233642
0.233605
0.232786
0.234202
0.215449
0.218825
0.216109
0.213413
0.212128
0.212685
0.214877
0.21736
0.219389
0.220205
0.220467
0.221211
0.222727
0.225329
0.228483
0.230759
0.232446
0.233604
0.23452
0.235429
0.236886
0.237949
0.238494
0.238385
0.237334
0.233854
0.228558
0.221142
0.213256
0.206895
0.235174
0.241508
0.244741
0.245052
0.245047
0.245456
0.246457
0.247537
0.248363
0.248901
0.249492
0.249594
0.249477
0.248814
0.247867
0.247112
0.246422
0.246064
0.246014
0.246236
0.246648
0.24737
0.248117
0.248827
0.249144
0.249284
0.249017
0.247808
0.244995
0.241072
0.248019
0.24795
0.24799
0.248446
0.249053
0.2495
0.250063
0.250401
0.250578
0.250866
0.250966
0.25103
0.250962
0.250817
0.250418
0.249805
0.249156
0.248572
0.248127
0.247733
0.247628
0.247511
0.247565
0.247861
0.247972
0.248088
0.247655
0.24733
0.24776
0.248418
0.250875
0.250589
0.250411
0.250263
0.250186
0.250225
0.250829
0.250956
0.250776
0.250849
0.250809
0.250826
0.250924
0.250743
0.250479
0.250413
0.250203
0.250054
0.249842
0.249657
0.249407
0.249277
0.24911
0.249353
0.250299
0.251245
0.250691
0.250749
0.250793
0.25072
0.251318
0.251314
0.251295
0.251326
0.251388
0.251388
0.25137
0.251314
0.251303
0.251311
0.251306
0.251305
0.251296
0.2513
0.251275
0.251302
0.251314
0.251275
0.251365
0.251328
0.251362
0.251349
0.251354
0.251385
0.251437
0.251476
0.25152
0.251472
0.251413
0.251398
0.251421
0.251641
0.252046
0.252045
0.252013
0.251949
0.252063
0.25195
0.251873
0.251828
0.251764
0.251781
0.252261
0.252335
0.252429
0.251881
0.251863
0.251865
0.251787
0.251852
0.251759
0.251768
0.251735
0.251669
0.250775
0.243928
0.232661
0.234734
0.239141
0.238247
0.251387
0.251236
0.251292
0.25131
0.251258
0.251278
0.251334
0.251333
0.251438
0.251469
0.251551
0.251557
0.251531
0.251507
0.251552
0.251554
0.251493
0.251447
0.251441
0.25139
0.251358
0.251448
0.251564
0.251695
0.251582
0.251554
0.251561
0.25155
0.25152
0.251488
0.251092
0.251085
0.251075
0.251026
0.250892
0.251002
0.250968
0.250891
0.251061
0.251056
0.251046
0.251113
0.251142
0.251156
0.251296
0.25129
0.2513
0.251546
0.25134
0.251285
0.251399
0.251415
0.251402
0.251423
0.251538
0.251556
0.251487
0.25154
0.251611
0.251408
0.251909
0.251837
0.251749
0.251765
0.251887
0.251874
0.251809
0.251855
0.251835
0.251866
0.251843
0.251872
0.251829
0.2518
0.251702
0.251672
0.251647
0.251656
0.251612
0.251815
0.251732
0.251681
0.251698
0.251717
0.251737
0.251748
0.251732
0.251687
0.251665
0.251679
0.251943
0.251837
0.251847
0.251849
0.251883
0.25188
0.251922
0.251966
0.251955
0.251957
0.251948
0.251902
0.251861
0.25188
0.251863
0.25185
0.251829
0.251586
0.251332
0.251256
0.251316
0.251394
0.251528
0.251645
0.251697
0.251712
0.251695
0.251615
0.251461
0.251408
0.251999
0.252136
0.252196
0.252158
0.252065
0.251944
0.251881
0.251819
0.251858
0.251854
0.251838
0.251866
0.251844
0.251862
0.251868
0.251876
0.251815
0.251841
0.251878
0.251918
0.251953
0.251927
0.25194
0.251966
0.252009
0.252079
0.252136
0.252193
0.252211
0.252157
0.251455
0.25132
0.250901
0.250671
0.251256
0.251058
0.252287
0.250055
0.24906
0.249058
0.248915
0.248794
0.248715
0.248657
0.248646
0.248639
0.248646
0.24866
0.248688
0.248726
0.248775
0.248916
0.249527
0.250625
0.25082
0.250296
0.249161
0.247874
0.247158
0.2486
0.220105
0.219641
0.216952
0.216774
0.218547
0.221115
0.22322
0.224743
0.226219
0.229134
0.232758
0.234718
0.233855
0.23423
0.21547
0.218742
0.215117
0.212118
0.212008
0.214088
0.215961
0.216254
0.214663
0.213192
0.214276
0.217203
0.220991
0.2249
0.227782
0.22854
0.227929
0.22643
0.225645
0.225624
0.226702
0.229081
0.232265
0.235674
0.238178
0.238024
0.234632
0.22697
0.217123
0.209632
0.235558
0.241624
0.243658
0.242955
0.242874
0.245278
0.247567
0.249007
0.249452
0.249384
0.249617
0.24921
0.248147
0.246364
0.244726
0.24272
0.241096
0.240308
0.240068
0.24035
0.241206
0.242824
0.244811
0.24623
0.247752
0.248759
0.249117
0.248601
0.246602
0.242377
0.247984
0.247958
0.248269
0.248992
0.249734
0.250181
0.250218
0.250262
0.249917
0.250083
0.250222
0.250578
0.250912
0.250785
0.250089
0.249073
0.248027
0.247217
0.246563
0.246217
0.246002
0.246041
0.246074
0.246348
0.246893
0.247321
0.247523
0.247447
0.247457
0.248173
0.250945
0.25062
0.250348
0.250235
0.250303
0.2504
0.250438
0.250496
0.250516
0.250497
0.250606
0.250775
0.250749
0.250451
0.250424
0.250062
0.249974
0.249845
0.249729
0.249384
0.249437
0.249292
0.24921
0.249164
0.250004
0.2508
0.251062
0.250665
0.250935
0.251064
0.251329
0.251335
0.251339
0.251379
0.251409
0.251326
0.251326
0.251318
0.251364
0.25138
0.25138
0.251363
0.251317
0.251323
0.251249
0.251259
0.251238
0.25122
0.251239
0.25123
0.251258
0.251266
0.251251
0.251277
0.251339
0.251401
0.251503
0.251523
0.251451
0.251409
0.25164
0.252012
0.252071
0.251979
0.251852
0.252055
0.251932
0.251796
0.251894
0.251551
0.251501
0.251608
0.251807
0.252021
0.252196
0.251774
0.251742
0.251787
0.251699
0.251767
0.251659
0.251684
0.251761
0.251762
0.251607
0.24947
0.239201
0.235003
0.242687
0.243121
0.251309
0.251263
0.251286
0.251323
0.251291
0.251326
0.251357
0.251387
0.251477
0.251437
0.251479
0.25153
0.251492
0.251513
0.251514
0.251478
0.251527
0.251497
0.251459
0.251472
0.251412
0.251417
0.251613
0.251593
0.251611
0.251611
0.251841
0.251528
0.251506
0.25147
0.251108
0.25107
0.250994
0.250883
0.25073
0.250746
0.250859
0.250474
0.250253
0.250015
0.250359
0.250514
0.250868
0.250964
0.251051
0.251168
0.251302
0.251545
0.251563
0.251319
0.251396
0.251416
0.251401
0.251415
0.251559
0.251504
0.251439
0.251363
0.251445
0.251635
0.25175
0.251801
0.251766
0.25183
0.251842
0.251819
0.251784
0.251809
0.252391
0.252072
0.251631
0.25165
0.251663
0.251678
0.251687
0.252219
0.251608
0.251622
0.251647
0.251657
0.251733
0.251683
0.251691
0.251728
0.251752
0.251775
0.251789
0.251704
0.251691
0.251686
0.251858
0.251821
0.251889
0.25198
0.252044
0.252245
0.252153
0.252141
0.252194
0.252177
0.252268
0.252314
0.252054
0.251979
0.251914
0.251908
0.251864
0.251812
0.25139
0.251233
0.25124
0.251394
0.251592
0.251718
0.251839
0.251881
0.251766
0.2517
0.251569
0.2514
0.251965
0.2521
0.252147
0.252095
0.251991
0.25187
0.251832
0.251787
0.251813
0.251819
0.251779
0.251832
0.251806
0.251855
0.251901
0.251879
0.251929
0.251964
0.252046
0.2521
0.252139
0.252169
0.25217
0.252147
0.252104
0.252094
0.252132
0.252157
0.252192
0.252156
0.251777
0.251807
0.251669
0.251265
0.252135
0.252274
0.250833
0.249089
0.24892
0.248843
0.248727
0.248717
0.248708
0.248703
0.248672
0.24863
0.248565
0.248562
0.248597
0.248644
0.248655
0.248648
0.248776
0.24992
0.250854
0.250095
0.248461
0.247299
0.247176
0.249293
0.217739
0.212835
0.21217
0.216396
0.222359
0.226574
0.228304
0.22816
0.227317
0.227589
0.230133
0.234166
0.234417
0.234271
0.215647
0.218812
0.214371
0.211506
0.211751
0.212657
0.211903
0.209507
0.208146
0.210536
0.216546
0.222196
0.226427
0.228721
0.228502
0.225507
0.221912
0.219269
0.217851
0.21745
0.217812
0.219007
0.222016
0.227485
0.233528
0.237743
0.23752
0.231857
0.220959
0.211269
0.235536
0.24127
0.242415
0.240915
0.241677
0.245919
0.24918
0.250494
0.250587
0.249839
0.249547
0.248581
0.246657
0.244356
0.241002
0.239105
0.238308
0.238024
0.238004
0.238143
0.23826
0.238833
0.240271
0.24308
0.245569
0.247583
0.24879
0.24883
0.247454
0.243715
0.247963
0.248014
0.248552
0.249423
0.250042
0.250084
0.249628
0.24907
0.248749
0.248742
0.249109
0.249579
0.25031
0.250744
0.249948
0.248587
0.247251
0.246382
0.245612
0.244503
0.243878
0.243353
0.243634
0.244524
0.245826
0.246541
0.247143
0.247343
0.247426
0.247984
0.250961
0.250457
0.250224
0.250305
0.250445
0.250564
0.250552
0.25049
0.250412
0.250521
0.249985
0.249388
0.249219
0.248913
0.248836
0.248999
0.249013
0.249188
0.249259
0.249094
0.249105
0.249047
0.249099
0.249125
0.249825
0.250246
0.249508
0.250307
0.250669
0.25103
0.251352
0.251356
0.251345
0.251428
0.251389
0.25137
0.251355
0.251404
0.251429
0.251437
0.251435
0.251406
0.251347
0.251296
0.251259
0.251178
0.251169
0.251053
0.251049
0.251008
0.251059
0.251107
0.251158
0.251184
0.251288
0.251368
0.251454
0.251527
0.251495
0.251402
0.251959
0.252024
0.25222
0.251783
0.251878
0.252025
0.251842
0.252318
0.251636
0.251465
0.251582
0.251882
0.251732
0.251744
0.251727
0.251706
0.251692
0.251681
0.251634
0.25167
0.251626
0.251643
0.251674
0.251718
0.251688
0.251182
0.246611
0.237692
0.243123
0.245971
0.251214
0.251262
0.251307
0.251236
0.251327
0.251359
0.251382
0.251392
0.251416
0.251471
0.251497
0.251364
0.251392
0.251378
0.251459
0.251475
0.251538
0.251518
0.251504
0.251472
0.251471
0.251431
0.251448
0.251685
0.251503
0.251613
0.251819
0.251476
0.25146
0.251439
0.251142
0.251044
0.250922
0.250664
0.25098
0.249797
0.24897
0.248689
0.248226
0.248301
0.248238
0.24857
0.249136
0.249874
0.250886
0.251051
0.25119
0.25138
0.251543
0.251608
0.251378
0.251414
0.251409
0.251452
0.251516
0.251464
0.251425
0.251307
0.251312
0.251516
0.251688
0.251903
0.251892
0.251823
0.251789
0.251795
0.252112
0.251379
0.250743
0.25028
0.25011
0.249934
0.249958
0.250144
0.250392
0.250759
0.251452
0.251572
0.251595
0.251618
0.25186
0.251715
0.251679
0.251697
0.251741
0.251785
0.251739
0.251712
0.251636
0.251625
0.251829
0.251923
0.252155
0.252148
0.252053
0.252062
0.252068
0.25208
0.25209
0.25212
0.252086
0.252075
0.252088
0.252262
0.252061
0.251968
0.251928
0.251862
0.251559
0.251264
0.251219
0.251373
0.251614
0.251746
0.251878
0.251845
0.251774
0.251693
0.251597
0.251392
0.251954
0.252095
0.252112
0.252035
0.251921
0.251823
0.251798
0.251709
0.251688
0.251651
0.251645
0.251651
0.251718
0.251829
0.251864
0.251886
0.25199
0.252076
0.252177
0.252216
0.252267
0.252442
0.252435
0.252467
0.252261
0.252176
0.252147
0.252134
0.252166
0.252147
0.251784
0.25201
0.252239
0.252272
0.252234
0.25148
0.24949
0.248835
0.248816
0.248742
0.248788
0.248905
0.249002
0.24903
0.248978
0.248839
0.248668
0.248542
0.248495
0.248569
0.24866
0.248676
0.248593
0.249087
0.250948
0.250404
0.248394
0.247343
0.247579
0.250667
0.211213
0.208752
0.213291
0.223313
0.229798
0.231793
0.232096
0.231189
0.229665
0.227918
0.228865
0.233117
0.234857
0.234465
0.215484
0.219136
0.21439
0.210863
0.210183
0.209504
0.207265
0.20576
0.207749
0.216759
0.225337
0.229033
0.230475
0.230121
0.225954
0.220364
0.21637
0.214824
0.214783
0.215206
0.215533
0.215829
0.217061
0.220327
0.22736
0.234459
0.237722
0.234304
0.223609
0.212475
0.235173
0.240642
0.241286
0.239238
0.240296
0.246194
0.250111
0.250485
0.250456
0.25022
0.249478
0.24799
0.245429
0.241598
0.239049
0.238255
0.238107
0.238201
0.238338
0.238349
0.238312
0.238246
0.238583
0.240087
0.24331
0.246008
0.248111
0.248829
0.247886
0.244533
0.247957
0.248065
0.24876
0.249714
0.250163
0.249873
0.249069
0.248509
0.248273
0.248163
0.248234
0.248603
0.249638
0.250677
0.249718
0.248095
0.246776
0.245934
0.244247
0.243023
0.242216
0.24208
0.242
0.242568
0.243879
0.245813
0.24668
0.247268
0.247375
0.247857
0.250573
0.250248
0.250229
0.250394
0.250575
0.25058
0.250543
0.250416
0.250229
0.24907
0.247944
0.247291
0.247009
0.246594
0.246806
0.246943
0.247379
0.247971
0.248544
0.24876
0.248746
0.248816
0.249039
0.248996
0.249718
0.249964
0.248705
0.2487
0.250269
0.250798
0.251373
0.251373
0.25139
0.251447
0.251382
0.251374
0.251413
0.251446
0.25145
0.25144
0.251445
0.251436
0.251356
0.251298
0.251193
0.251134
0.251026
0.250934
0.250915
0.250904
0.250878
0.250943
0.251009
0.251126
0.251188
0.251286
0.251398
0.251524
0.251531
0.251437
0.252319
0.252061
0.251948
0.251749
0.251882
0.252065
0.251892
0.251828
0.251634
0.251566
0.251763
0.252166
0.251742
0.2517
0.251746
0.251715
0.251757
0.251697
0.251685
0.25166
0.251562
0.251645
0.251602
0.251674
0.251674
0.25159
0.249182
0.242741
0.243857
0.247772
0.251247
0.251292
0.251309
0.25128
0.251356
0.251389
0.251413
0.251403
0.251473
0.251276
0.251317
0.251309
0.251336
0.251355
0.25135
0.251353
0.251459
0.251521
0.251519
0.251505
0.251453
0.251468
0.251437
0.251731
0.251625
0.251651
0.2515
0.251476
0.251426
0.251421
0.25112
0.250951
0.250757
0.251081
0.249711
0.248499
0.247723
0.246996
0.246597
0.246581
0.246811
0.24709
0.247578
0.24845
0.249632
0.251047
0.251103
0.251208
0.251467
0.251576
0.251416
0.251389
0.251399
0.251574
0.251543
0.251441
0.251426
0.251377
0.25131
0.251456
0.251564
0.251783
0.251764
0.251747
0.251762
0.251723
0.250784
0.249961
0.249243
0.248812
0.248509
0.248476
0.248447
0.248662
0.248992
0.249554
0.250362
0.251229
0.251569
0.251551
0.251703
0.251739
0.251736
0.251705
0.251758
0.251718
0.251714
0.25169
0.251619
0.251617
0.251955
0.252137
0.252135
0.252023
0.252458
0.25126
0.250504
0.250041
0.249948
0.250212
0.250848
0.251656
0.252038
0.252065
0.252127
0.252092
0.251982
0.251923
0.251826
0.25138
0.251235
0.251366
0.251614
0.251753
0.251887
0.251866
0.251761
0.251668
0.251569
0.251403
0.25195
0.252091
0.252081
0.251981
0.251808
0.251797
0.251723
0.251608
0.251547
0.251552
0.25153
0.251522
0.251636
0.251752
0.251807
0.251869
0.251961
0.252137
0.25223
0.252243
0.252437
0.252366
0.252309
0.252337
0.252413
0.252281
0.252177
0.252125
0.25214
0.252135
0.251616
0.252009
0.252421
0.252161
0.251553
0.25004
0.248843
0.248768
0.248777
0.248859
0.249077
0.249391
0.249575
0.249649
0.249549
0.24929
0.248965
0.248649
0.248424
0.248432
0.248588
0.248688
0.248595
0.248577
0.250661
0.250966
0.249253
0.248103
0.249043
0.252054
0.20614
0.208558
0.219575
0.229351
0.232246
0.232636
0.232465
0.231688
0.229923
0.227791
0.228061
0.232106
0.235104
0.234586
0.215446
0.219617
0.214886
0.21026
0.208151
0.206397
0.204986
0.205583
0.213512
0.225136
0.231048
0.232602
0.23213
0.229307
0.221855
0.215981
0.213973
0.214698
0.216335
0.217361
0.217589
0.21722
0.216789
0.217697
0.222361
0.230862
0.236989
0.235169
0.225269
0.213237
0.234487
0.239837
0.240643
0.23822
0.238446
0.245132
0.250044
0.250537
0.250506
0.250118
0.249275
0.247596
0.24439
0.240008
0.238769
0.238591
0.23859
0.238676
0.238845
0.239001
0.239013
0.238677
0.238347
0.238819
0.241042
0.244892
0.247292
0.248607
0.248035
0.244857
0.247959
0.248077
0.248861
0.249938
0.250343
0.24996
0.249089
0.248664
0.248436
0.248199
0.248037
0.248139
0.24903
0.250538
0.249712
0.247881
0.246572
0.245272
0.24341
0.241967
0.241261
0.240876
0.241103
0.241637
0.242646
0.244524
0.246389
0.247123
0.24746
0.247934
0.250399
0.250684
0.250766
0.250464
0.25065
0.250622
0.250558
0.250526
0.248872
0.24744
0.246179
0.245801
0.24535
0.245327
0.245511
0.245686
0.245989
0.246631
0.247463
0.248064
0.248459
0.248596
0.248774
0.248887
0.249554
0.249853
0.248624
0.248141
0.248922
0.250391
0.251384
0.251372
0.251429
0.251463
0.251439
0.251415
0.251433
0.251442
0.25139
0.251366
0.25143
0.251444
0.251426
0.25129
0.251234
0.251089
0.251009
0.250893
0.250816
0.25071
0.250731
0.250797
0.250852
0.250992
0.251111
0.251286
0.251412
0.251503
0.25154
0.251458
0.252033
0.252193
0.251785
0.251737
0.251826
0.251881
0.252038
0.251869
0.251661
0.251419
0.251845
0.25176
0.251737
0.251746
0.251696
0.251756
0.251738
0.251746
0.251641
0.251705
0.251573
0.251594
0.251536
0.251643
0.251639
0.251596
0.250262
0.246965
0.245973
0.248357
0.251297
0.251293
0.251232
0.251318
0.251341
0.251394
0.25142
0.251402
0.251297
0.251283
0.251321
0.251288
0.251293
0.251291
0.251302
0.251321
0.25137
0.251527
0.251526
0.251515
0.251478
0.25143
0.25144
0.251433
0.251643
0.251718
0.251464
0.251441
0.251434
0.251415
0.251174
0.250956
0.250694
0.25021
0.24871
0.247334
0.246471
0.244631
0.243389
0.243168
0.243432
0.244473
0.246084
0.247078
0.248373
0.25008
0.251059
0.251169
0.25138
0.251572
0.251591
0.251392
0.251399
0.251559
0.251489
0.251517
0.251538
0.251468
0.251295
0.251419
0.251581
0.251789
0.251764
0.251708
0.252121
0.250738
0.249698
0.248838
0.248289
0.247031
0.246447
0.246269
0.246398
0.246944
0.248086
0.248508
0.249349
0.250399
0.251415
0.251539
0.251592
0.251696
0.25169
0.251718
0.251751
0.251649
0.251648
0.25154
0.251523
0.251496
0.25216
0.252167
0.25204
0.252109
0.2505
0.249038
0.246815
0.245034
0.244502
0.24544
0.247437
0.249138
0.250594
0.25206
0.252084
0.252139
0.252077
0.251959
0.251838
0.251537
0.251283
0.25137
0.25161
0.251743
0.251884
0.251885
0.251786
0.251687
0.251541
0.251454
0.251948
0.252085
0.252056
0.25195
0.251803
0.251705
0.251616
0.251586
0.251509
0.2515
0.251473
0.251489
0.251531
0.251659
0.251791
0.251912
0.251999
0.252147
0.252222
0.252227
0.252457
0.25236
0.252273
0.252289
0.252349
0.252442
0.252208
0.252132
0.25214
0.25212
0.251274
0.251673
0.252095
0.251492
0.250384
0.249131
0.248703
0.248753
0.24886
0.249094
0.249515
0.249897
0.250161
0.25022
0.250074
0.249786
0.249388
0.248877
0.248493
0.248342
0.248497
0.248642
0.248602
0.248373
0.249893
0.251497
0.250571
0.249802
0.251121
0.249755
0.204573
0.211703
0.226249
0.232029
0.232757
0.232768
0.232614
0.231588
0.229362
0.227031
0.22742
0.231551
0.234971
0.234732
0.215214
0.220221
0.216176
0.210309
0.207072
0.205313
0.204815
0.209124
0.220473
0.229969
0.233661
0.234089
0.232619
0.227029
0.218345
0.214003
0.214376
0.216829
0.21871
0.219856
0.220035
0.219331
0.218071
0.217526
0.220316
0.228333
0.235299
0.234921
0.225612
0.213558
0.233841
0.238612
0.24012
0.238045
0.236952
0.24201
0.248399
0.250458
0.250446
0.249772
0.249004
0.247149
0.242735
0.239331
0.239083
0.239003
0.238806
0.238804
0.239093
0.239392
0.2394
0.239241
0.23879
0.238645
0.239959
0.243814
0.246637
0.248238
0.247927
0.244947
0.24795
0.248004
0.248749
0.250017
0.250725
0.250535
0.249932
0.249459
0.249176
0.248653
0.248125
0.248
0.248404
0.250125
0.249692
0.247685
0.246531
0.245032
0.24286
0.241456
0.24074
0.240521
0.240562
0.240942
0.242063
0.243896
0.246289
0.247131
0.24761
0.248138
0.250245
0.250255
0.2506
0.250495
0.250697
0.250665
0.250457
0.249816
0.247944
0.246168
0.245341
0.245066
0.244802
0.245108
0.245097
0.245147
0.245241
0.245801
0.246497
0.2473
0.247916
0.248264
0.248384
0.24881
0.24944
0.249792
0.248902
0.248206
0.248542
0.250554
0.251335
0.25135
0.251421
0.251455
0.25146
0.251439
0.251465
0.251429
0.251369
0.251321
0.251366
0.251434
0.251436
0.251347
0.251277
0.251089
0.251011
0.250793
0.250782
0.250736
0.250777
0.250733
0.250899
0.251018
0.251124
0.251263
0.251389
0.251515
0.251548
0.251505
0.252058
0.252063
0.251676
0.251655
0.251693
0.25176
0.252083
0.251896
0.251624
0.25147
0.251611
0.2518
0.251735
0.251736
0.251834
0.251789
0.25183
0.251767
0.251736
0.251692
0.251533
0.251537
0.251576
0.251615
0.251607
0.251606
0.251109
0.248648
0.248025
0.248979
0.251305
0.251092
0.251246
0.2513
0.251385
0.251475
0.251392
0.251457
0.251291
0.251307
0.251275
0.251255
0.251268
0.251258
0.251275
0.251293
0.251322
0.251378
0.251514
0.251515
0.251482
0.251445
0.251435
0.251443
0.251456
0.251441
0.251448
0.251532
0.251612
0.251396
0.251188
0.250901
0.250661
0.249716
0.247979
0.246638
0.244314
0.241917
0.240782
0.240446
0.241016
0.241969
0.243674
0.24595
0.247363
0.249196
0.251153
0.251123
0.251284
0.251641
0.25155
0.251398
0.251519
0.251487
0.251558
0.251611
0.251606
0.25153
0.251439
0.251409
0.251574
0.251676
0.251721
0.251637
0.251424
0.249998
0.248981
0.248133
0.246598
0.245835
0.245574
0.245422
0.245361
0.245721
0.246442
0.247793
0.248739
0.249789
0.250883
0.251479
0.251548
0.251846
0.251667
0.251705
0.251636
0.251484
0.251685
0.251695
0.251529
0.251483
0.252199
0.252078
0.252014
0.2507
0.248806
0.243863
0.23966
0.236927
0.235918
0.236859
0.239968
0.243961
0.248581
0.250354
0.252235
0.252111
0.252185
0.252024
0.2519
0.251677
0.251354
0.251391
0.251593
0.25173
0.251858
0.251893
0.251826
0.251748
0.25165
0.251544
0.251943
0.252076
0.252037
0.251886
0.251741
0.251698
0.251584
0.251514
0.251443
0.251446
0.251481
0.251471
0.25156
0.251578
0.251766
0.251873
0.251986
0.252142
0.252216
0.252194
0.252211
0.252426
0.252355
0.252306
0.252353
0.252466
0.252163
0.252085
0.252111
0.252136
0.250627
0.251036
0.251441
0.250579
0.249396
0.248677
0.248652
0.248803
0.248976
0.249392
0.249889
0.250338
0.250598
0.250674
0.250507
0.2502
0.249684
0.249103
0.248587
0.248289
0.248416
0.248576
0.248542
0.248306
0.249345
0.251906
0.251542
0.251507
0.252369
0.220152
0.204981
0.217328
0.229838
0.232249
0.232407
0.23196
0.232279
0.231144
0.228379
0.225853
0.226975
0.231701
0.235176
0.234786
0.214998
0.22062
0.218565
0.211916
0.207513
0.206094
0.207209
0.214959
0.226219
0.232706
0.235178
0.235062
0.232545
0.224903
0.215933
0.213658
0.215681
0.218349
0.220304
0.221455
0.221556
0.220773
0.219232
0.218168
0.219874
0.227231
0.23415
0.234041
0.224617
0.213283
0.233406
0.237206
0.239313
0.238304
0.236832
0.238994
0.245671
0.249499
0.250243
0.249065
0.248598
0.24693
0.241691
0.23947
0.239626
0.239412
0.238845
0.23889
0.239395
0.239892
0.239886
0.239511
0.239033
0.23875
0.239707
0.243041
0.246275
0.248046
0.247777
0.244828
0.24802
0.247948
0.248436
0.249729
0.250878
0.250622
0.251093
0.250893
0.250392
0.2494
0.248429
0.247992
0.248225
0.250004
0.249819
0.247616
0.246506
0.24508
0.242893
0.241342
0.240646
0.240448
0.240546
0.241
0.241837
0.243808
0.246304
0.24716
0.247556
0.248063
0.250621
0.249715
0.250316
0.250472
0.250731
0.250756
0.250425
0.249431
0.24731
0.245765
0.24514
0.244705
0.244797
0.244915
0.244954
0.244942
0.244907
0.24538
0.245571
0.246861
0.247365
0.24788
0.248137
0.248746
0.249406
0.249826
0.24927
0.248451
0.248686
0.250747
0.251356
0.251381
0.251479
0.251486
0.251498
0.251483
0.251478
0.251367
0.251231
0.251285
0.251356
0.251453
0.251442
0.251398
0.251307
0.251175
0.251018
0.250864
0.250804
0.250723
0.250788
0.250758
0.250911
0.251009
0.251092
0.251256
0.25141
0.251522
0.25154
0.251514
0.252066
0.252021
0.251503
0.251488
0.251475
0.251618
0.251859
0.25191
0.251794
0.251545
0.251628
0.25225
0.251771
0.251771
0.251837
0.251825
0.251825
0.251648
0.251711
0.251677
0.251611
0.251595
0.251529
0.251608
0.251595
0.251595
0.251385
0.249569
0.248815
0.249611
0.251038
0.250986
0.251068
0.251322
0.251364
0.251475
0.251393
0.251525
0.251296
0.251291
0.251269
0.251247
0.25122
0.251237
0.251249
0.251298
0.251306
0.251373
0.251499
0.251517
0.251489
0.251446
0.251438
0.251425
0.251427
0.251459
0.251464
0.251383
0.251584
0.251681
0.251117
0.25089
0.251247
0.249472
0.247857
0.246102
0.242837
0.240475
0.238916
0.238607
0.238998
0.240376
0.242109
0.244451
0.246914
0.248675
0.250631
0.251081
0.251229
0.251465
0.251538
0.251501
0.251462
0.251464
0.251581
0.251611
0.251869
0.251618
0.251529
0.251425
0.251554
0.251624
0.251618
0.251579
0.251072
0.249681
0.248632
0.247278
0.245994
0.245376
0.245256
0.245247
0.245118
0.245412
0.245668
0.246939
0.248318
0.249385
0.250682
0.251872
0.251474
0.251823
0.251663
0.251623
0.251442
0.251676
0.251731
0.251706
0.25166
0.251601
0.252256
0.252073
0.252238
0.24981
0.246056
0.239404
0.235076
0.232217
0.23088
0.231532
0.234038
0.238505
0.244231
0.249122
0.251069
0.25206
0.252155
0.252086
0.251948
0.251793
0.251429
0.25142
0.251568
0.25168
0.251816
0.25187
0.251913
0.251824
0.251763
0.251694
0.251929
0.25207
0.252034
0.251854
0.25177
0.251663
0.251544
0.251464
0.251464
0.251383
0.25146
0.251446
0.251532
0.251465
0.251724
0.251844
0.251953
0.252123
0.25222
0.252169
0.252124
0.252171
0.252218
0.252266
0.252259
0.252167
0.252072
0.252032
0.252076
0.252116
0.25004
0.250075
0.250821
0.249776
0.248838
0.248502
0.248665
0.248836
0.249089
0.249557
0.250184
0.250566
0.25084
0.250878
0.250774
0.250378
0.249862
0.249249
0.248658
0.248271
0.248354
0.248513
0.248428
0.248236
0.24894
0.251855
0.252086
0.252341
0.237996
0.190316
0.205825
0.221992
0.231342
0.231945
0.231062
0.231466
0.232246
0.230346
0.227116
0.225166
0.227059
0.232091
0.235168
0.234851
0.234206
0.229069
0.217493
0.219622
0.220331
0.216259
0.211483
0.209257
0.211819
0.220709
0.229555
0.234162
0.236125
0.235724
0.232407
0.223595
0.214863
0.213873
0.216611
0.219087
0.221022
0.222009
0.222162
0.221463
0.219778
0.218644
0.220372
0.227385
0.233417
0.232426
0.222892
0.213135
0.216924
0.22408
0.231908
0.235438
0.238226
0.238317
0.237132
0.237883
0.242735
0.247085
0.248785
0.24813
0.248111
0.246762
0.241332
0.239785
0.240107
0.239723
0.238896
0.23873
0.239339
0.240021
0.239887
0.239473
0.238928
0.238708
0.2398
0.243065
0.246079
0.247773
0.24748
0.244662
0.244864
0.246883
0.247931
0.247925
0.248075
0.24895
0.250159
0.251093
0.250677
0.250711
0.2511
0.249873
0.248536
0.247938
0.24802
0.249665
0.24992
0.247734
0.246593
0.245414
0.243329
0.241671
0.24093
0.240666
0.240706
0.241223
0.242096
0.24429
0.246379
0.247333
0.247657
0.248211
0.250294
0.249968
0.249739
0.249053
0.249808
0.250428
0.250709
0.250776
0.250473
0.249582
0.247314
0.245734
0.245003
0.244631
0.244717
0.244695
0.244715
0.244763
0.244716
0.245146
0.245294
0.246597
0.2468
0.247614
0.247991
0.248679
0.249579
0.249946
0.249603
0.248939
0.248968
0.250415
0.250584
0.250782
0.251276
0.25136
0.251443
0.251483
0.251482
0.25146
0.251429
0.251369
0.251208
0.251046
0.251217
0.251438
0.251469
0.251451
0.251328
0.251236
0.251001
0.250946
0.250883
0.250813
0.250814
0.25086
0.250903
0.251017
0.251121
0.25126
0.251393
0.251536
0.251604
0.25155
0.251941
0.252035
0.252112
0.25189
0.251424
0.251373
0.25133
0.251383
0.251705
0.252061
0.252117
0.251697
0.251584
0.25182
0.251788
0.251742
0.251783
0.251841
0.251819
0.251776
0.251682
0.25169
0.251539
0.251581
0.251514
0.251584
0.251597
0.251583
0.25141
0.250223
0.249492
0.250287
0.251425
0.251078
0.250848
0.25084
0.250925
0.251321
0.251353
0.251423
0.251411
0.251527
0.25131
0.251286
0.251287
0.251257
0.251224
0.251217
0.251258
0.251306
0.251328
0.251367
0.251514
0.251514
0.251481
0.251437
0.251423
0.251394
0.251393
0.251555
0.25138
0.251384
0.25151
0.251352
0.251351
0.25132
0.251236
0.250937
0.251138
0.249552
0.247947
0.246101
0.242612
0.240104
0.238714
0.23834
0.238678
0.239775
0.241517
0.243956
0.246785
0.248462
0.250443
0.251043
0.251212
0.251397
0.251556
0.251523
0.251426
0.251427
0.251582
0.251784
0.251708
0.251684
0.251711
0.251664
0.251588
0.251641
0.251659
0.251662
0.2517
0.25161
0.251176
0.249716
0.248579
0.247197
0.245742
0.245183
0.245104
0.245138
0.245014
0.245332
0.245435