/*--------------------------------*- C++ -*----------------------------------*\
| =========                 |                                                 |
| \\      /  F ield         | OpenFOAM: The Open Source CFD Toolbox           |
|  \\    /   O peration     | Version:  2.1.1                                 |
|   \\  /    A nd           | Web:      www.OpenFOAM.org                      |
|    \\/     M anipulation  |                                                 |
\*---------------------------------------------------------------------------*/
FoamFile
{
    version     2.0;
    format      ascii;
    class       volScalarField;
    location    "0.006700000";
    object      HO2;
}
// * * * * * * * * * * * * * * * * * * * * * * * * * * * * * * * * * * * * * //

dimensions      [0 0 0 0 0 0 0];

internalField   nonuniform List<scalar> 
12384
(
1.14135e-05
1.23591e-05
1.24029e-05
1.22647e-05
1.20051e-05
1.11401e-05
1.08038e-05
1.05098e-05
1.02808e-05
1.00841e-05
9.99223e-06
1.00345e-05
1.00154e-05
8.54888e-06
1.02422e-05
1.08094e-05
1.13627e-05
1.17454e-05
1.19407e-05
1.19844e-05
1.19998e-05
1.18901e-05
1.17725e-05
1.14838e-05
1.11456e-05
1.08402e-05
1.05247e-05
1.02623e-05
9.97017e-06
9.65616e-06
9.02952e-06
8.64811e-06
8.38851e-06
8.19645e-06
8.11595e-06
8.14042e-06
8.25855e-06
8.47301e-06
8.85199e-06
9.70002e-06
1.05258e-05
1.16729e-05
1.13745e-05
1.02755e-05
7.13698e-06
5.03635e-06
3.17873e-06
2.87727e-06
2.71475e-06
2.67408e-06
2.51569e-06
2.37738e-06
2.17469e-06
2.00445e-06
1.84245e-06
1.72221e-06
1.66887e-06
1.6402e-06
1.57789e-06
1.6118e-06
1.63163e-06
1.6333e-06
1.60882e-06
1.6164e-06
1.5792e-06
1.53711e-06
1.48813e-06
1.47398e-06
1.48754e-06
1.55734e-06
1.80647e-06
2.61676e-06
4.81959e-06
5.04137e-06
1.94484e-06
1.97448e-06
2.04133e-06
1.9704e-06
1.86084e-06
1.70743e-06
1.64075e-06
1.48236e-06
1.40714e-06
1.3126e-06
1.21651e-06
1.20255e-06
1.198e-06
1.21844e-06
1.26739e-06
1.33075e-06
1.38785e-06
1.44233e-06
1.48769e-06
1.51685e-06
1.54617e-06
1.58973e-06
1.67162e-06
1.75043e-06
1.8392e-06
2.05611e-06
2.27658e-06
2.28743e-06
1.86289e-06
1.77678e-06
5.39455e-07
6.09867e-07
6.56195e-07
6.8707e-07
7.14871e-07
7.29687e-07
7.31031e-07
7.31802e-07
9.50751e-07
9.48313e-07
9.17537e-07
9.6246e-07
8.61214e-07
9.64193e-07
8.77755e-07
1.02579e-06
9.88449e-07
1.18024e-06
1.23331e-06
1.3614e-06
1.44188e-06
1.47932e-06
1.57367e-06
1.46772e-06
1.3511e-06
1.23918e-06
1.1396e-06
1.13698e-06
1.24136e-06
1.45368e-06
1.0836e-07
1.21941e-07
1.64895e-07
1.68149e-07
1.61256e-07
1.49791e-07
1.40828e-07
1.44161e-07
1.41468e-07
1.47831e-07
1.53206e-07
1.56937e-07
1.59571e-07
1.57334e-07
1.58002e-07
1.52654e-07
1.5744e-07
1.39392e-07
1.36169e-07
1.41268e-07
1.26202e-07
1.30795e-07
1.29973e-07
1.30441e-07
1.28075e-07
1.20909e-07
1.33889e-07
1.24401e-07
1.32522e-07
1.57242e-07
7.18555e-07
8.05133e-07
6.31633e-07
3.5745e-07
2.19288e-07
1.72027e-07
1.71865e-07
1.5085e-07
1.64007e-07
1.75166e-07
1.83755e-07
2.07292e-07
2.05644e-07
2.01677e-07
1.96057e-07
1.92247e-07
2.02247e-07
2.05389e-07
2.04164e-07
2.25275e-07
2.39502e-07
2.45584e-07
2.74142e-07
3.42373e-07
2.65897e-06
5.95105e-06
6.137e-06
6.0355e-06
5.89884e-06
5.87446e-06
5.28174e-07
2.1186e-07
1.55622e-07
1.39555e-07
1.29414e-07
1.18771e-07
1.0555e-07
1.13776e-07
9.5745e-08
9.24063e-08
9.15475e-08
8.56247e-08
7.85086e-08
7.96231e-08
7.82762e-08
9.5956e-08
1.03161e-07
1.01416e-07
1.11259e-07
1.17291e-07
1.48287e-07
2.43533e-07
2.39099e-07
1.64911e-07
1.34251e-07
1.40332e-07
1.39704e-07
1.36081e-07
1.41833e-07
1.20574e-07
4.16404e-07
3.81008e-07
3.83268e-07
3.70572e-07
3.71305e-07
3.58879e-07
3.60045e-07
3.46096e-07
3.63972e-07
3.16778e-07
3.10571e-07
3.37837e-07
3.23344e-07
3.2633e-07
3.32453e-07
3.28915e-07
2.7092e-07
6.51468e-08
2.33449e-08
2.14661e-08
2.79865e-08
2.93558e-08
3.1281e-08
3.33039e-08
3.50283e-08
3.50912e-08
3.31309e-08
2.65993e-08
1.66928e-08
1.30145e-08
1.56053e-07
9.26884e-08
8.82935e-08
9.32826e-08
1.01715e-07
1.14057e-07
1.36564e-07
1.35038e-07
1.5094e-07
1.82565e-07
1.79889e-07
1.90936e-07
1.99563e-07
2.17488e-07
2.22415e-07
2.56113e-07
2.38141e-07
2.48349e-07
2.28573e-07
9.86123e-08
5.60561e-08
5.05232e-08
5.1307e-08
5.51576e-08
5.25396e-08
5.43039e-08
5.09777e-08
4.95765e-08
4.3459e-08
3.99574e-08
3.46493e-08
3.68212e-08
3.82895e-08
3.02025e-08
2.93311e-08
2.87831e-08
3.52273e-08
2.70406e-08
3.4369e-08
3.57121e-08
3.09851e-08
3.29388e-08
3.72204e-08
4.25644e-08
4.56115e-08
4.59288e-08
2.99969e-08
1.87542e-08
1.30663e-08
1.30732e-08
1.42458e-08
1.27304e-08
1.70092e-08
1.76459e-08
1.85041e-08
1.72535e-08
1.77634e-08
1.52802e-08
1.37944e-08
1.24735e-08
3.96121e-08
4.7697e-08
5.5595e-08
4.39675e-08
3.79291e-08
2.84082e-08
2.23313e-08
2.20276e-08
1.69327e-08
2.2439e-08
2.0727e-08
1.82136e-08
2.41713e-08
2.37767e-08
1.68465e-08
1.69546e-08
1.68156e-08
1.60169e-08
2.39129e-08
2.25672e-08
2.16408e-08
2.08922e-08
2.7837e-08
2.85269e-08
2.99145e-08
3.72068e-08
4.13416e-08
4.36265e-08
4.31202e-08
3.72701e-08
1.06562e-08
9.64545e-09
8.5195e-09
1.19894e-08
1.81497e-08
1.74323e-07
4.72122e-06
2.28265e-08
1.83511e-09
2.01773e-09
1.94422e-09
1.83437e-09
1.8524e-09
1.7154e-09
1.68682e-09
1.73519e-09
1.79074e-09
1.86534e-09
1.94504e-09
2.12707e-09
2.18772e-09
3.15909e-09
3.76151e-09
5.2155e-09
4.95131e-09
3.68366e-09
1.67505e-09
7.8021e-10
3.48169e-10
6.90276e-10
1.40569e-05
1.40009e-05
1.38128e-05
1.35604e-05
1.31861e-05
1.23737e-05
1.19365e-05
1.1379e-05
1.07834e-05
9.65225e-06
9.22375e-06
9.36497e-06
9.77434e-06
8.64743e-06
1.02441e-05
1.08705e-05
1.17703e-05
1.21543e-05
1.21136e-05
1.19497e-05
1.16074e-05
1.12322e-05
1.07811e-05
1.05416e-05
1.04752e-05
1.03643e-05
1.02006e-05
9.83214e-06
9.0197e-06
8.45248e-06
8.0287e-06
7.74433e-06
7.51479e-06
7.28571e-06
6.47953e-06
6.11419e-06
5.92479e-06
5.94927e-06
6.29305e-06
7.55873e-06
8.94435e-06
1.0756e-05
1.15904e-05
1.09285e-05
7.01432e-06
4.816e-06
3.26788e-06
3.11861e-06
3.1208e-06
2.96954e-06
2.58655e-06
2.18402e-06
1.86888e-06
1.67412e-06
1.45026e-06
1.4176e-06
1.47977e-06
1.73593e-06
2.10115e-06
2.4197e-06
2.68678e-06
2.82293e-06
2.83728e-06
2.75058e-06
2.55566e-06
2.27517e-06
1.98953e-06
1.71802e-06
1.58415e-06
1.53446e-06
1.63924e-06
2.09975e-06
3.19761e-06
5.07707e-06
1.9687e-06
2.00692e-06
1.9878e-06
1.81231e-06
1.58024e-06
1.39597e-06
1.18327e-06
1.05694e-06
9.90938e-07
8.91291e-07
8.55471e-07
8.34893e-07
8.67017e-07
9.26988e-07
1.0811e-06
1.31485e-06
1.55945e-06
1.77722e-06
1.94018e-06
2.06246e-06
2.09933e-06
2.1457e-06
2.12793e-06
2.04464e-06
2.01314e-06
1.99896e-06
2.1721e-06
2.29846e-06
2.14038e-06
1.87457e-06
4.53717e-07
5.38892e-07
6.14559e-07
6.8521e-07
7.1552e-07
7.11291e-07
9.29327e-07
8.75561e-07
9.24541e-07
8.96739e-07
8.83313e-07
8.7386e-07
8.21667e-07
8.88902e-07
9.74112e-07
1.00612e-06
1.0855e-06
1.16641e-06
1.24339e-06
1.34795e-06
1.43502e-06
1.50904e-06
1.56924e-06
1.48494e-06
1.12328e-06
7.79466e-07
5.6642e-07
5.33607e-07
5.10774e-07
5.44631e-07
1.07134e-07
1.29274e-07
1.65801e-07
1.61235e-07
1.34873e-07
1.25339e-07
1.29477e-07
1.47285e-07
1.56091e-07
1.59938e-07
1.63804e-07
1.65479e-07
1.69028e-07
1.67895e-07
1.73869e-07
1.68194e-07
1.67599e-07
1.71528e-07
1.55037e-07
1.59067e-07
1.51878e-07
1.52214e-07
1.50033e-07
1.42696e-07
1.31576e-07
1.26783e-07
1.25881e-07
1.46581e-07
1.63539e-07
1.50765e-07
7.01786e-07
6.1882e-07
2.22978e-07
1.75357e-07
8.03438e-08
8.5554e-08
1.13762e-07
1.77895e-07
2.314e-07
2.67395e-07
2.95239e-07
2.99595e-07
4.03833e-07
3.7402e-07
3.37118e-07
2.72223e-07
2.70666e-07
2.63382e-07
2.71564e-07
2.4979e-07
2.64984e-07
2.58303e-07
2.76365e-07
3.06353e-07
9.73471e-07
3.50543e-06
6.03158e-06
5.66797e-06
4.90782e-06
5.00413e-06
1.69231e-07
1.26576e-07
1.0851e-07
1.05086e-07
1.14079e-07
1.10901e-07
1.03503e-07
1.02907e-07
8.62279e-08
7.56782e-08
6.56665e-08
6.52769e-08
7.16725e-08
7.52106e-08
6.95483e-08
7.33315e-08
8.65057e-08
9.7098e-08
9.8182e-08
1.08684e-07
1.26895e-07
1.60867e-07
2.29842e-07
1.73676e-07
1.40019e-07
1.38129e-07
1.30494e-07
1.18929e-07
1.13489e-07
1.18416e-07
3.84219e-07
3.90055e-07
4.01885e-07
4.28447e-07
4.75978e-07
4.56858e-07
4.70535e-07
4.99466e-07
4.54837e-07
4.5693e-07
4.58688e-07
4.36344e-07
4.20302e-07
4.03955e-07
3.52577e-07
3.38462e-07
3.23865e-07
1.32297e-07
3.09327e-08
2.63337e-08
3.51618e-08
3.63543e-08
3.7806e-08
3.90265e-08
3.87276e-08
4.62209e-08
6.47981e-08
5.8135e-08
3.85067e-08
3.2487e-08
1.87065e-07
9.26676e-08
9.38813e-08
1.06508e-07
1.48433e-07
1.82815e-07
2.22124e-07
2.27684e-07
2.43018e-07
2.44742e-07
2.55694e-07
2.54293e-07
2.64243e-07
2.69623e-07
2.86933e-07
2.85983e-07
2.82745e-07
2.6624e-07
2.60407e-07
1.58696e-07
6.38219e-08
5.45417e-08
5.85479e-08
6.01319e-08
5.90878e-08
6.00504e-08
6.09029e-08
5.79078e-08
5.20971e-08
5.00329e-08
3.38448e-08
3.90061e-08
3.70974e-08
4.28221e-08
4.5724e-08
5.36502e-08
5.34241e-08
5.05969e-08
5.30545e-08
5.18578e-08
4.94882e-08
5.02634e-08
5.05369e-08
4.51746e-08
4.76023e-08
4.91413e-08
4.34317e-08
2.20464e-08
1.30382e-08
1.23799e-08
1.16263e-08
1.64561e-08
1.84773e-08
1.93602e-08
2.06456e-08
2.00669e-08
1.98291e-08
1.85872e-08
1.55887e-08
1.24991e-08
2.62641e-08
3.82712e-08
4.33074e-08
3.9934e-08
3.17711e-08
2.42952e-08
2.00396e-08
2.39769e-08
1.80285e-08
1.92413e-08
2.24031e-08
1.99738e-08
2.26058e-08
1.94443e-08
1.71411e-08
1.48182e-08
2.26141e-08
2.18156e-08
2.18109e-08
2.16475e-08
2.1113e-08
2.72398e-08
2.66451e-08
2.62672e-08
2.6825e-08
2.85801e-08
3.61411e-08
4.09442e-08
4.24966e-08
3.78041e-08
1.24697e-08
1.02388e-08
6.11026e-09
4.8387e-09
6.35374e-09
8.46185e-07
1.61298e-07
3.61972e-09
1.71352e-09
1.82109e-09
1.72491e-09
1.49057e-09
1.40624e-09
1.39735e-09
1.37915e-09
1.39612e-09
1.37134e-09
1.35563e-09
1.30573e-09
1.27563e-09
1.54379e-09
1.5501e-09
1.73028e-09
6.05447e-09
6.50089e-09
3.99744e-09
1.42698e-09
5.14955e-10
3.28078e-10
6.01428e-10
1.4208e-05
1.41526e-05
1.41758e-05
1.38641e-05
1.3348e-05
1.29259e-05
1.25554e-05
1.18459e-05
1.14333e-05
1.07043e-05
9.23483e-06
8.77265e-06
8.72421e-06
8.63104e-06
1.02677e-05
1.10751e-05
1.20192e-05
1.22314e-05
1.19426e-05
1.15283e-05
1.12244e-05
1.09839e-05
1.10443e-05
1.11772e-05
1.14514e-05
1.1647e-05
1.11467e-05
1.04043e-05
9.50547e-06
9.21993e-06
9.43605e-06
1.00075e-05
1.02063e-05
1.02788e-05
1.00547e-05
9.17171e-06
8.22945e-06
7.26592e-06
6.02885e-06
6.06445e-06
7.36139e-06
9.58478e-06
1.13577e-05
1.13514e-05
6.92221e-06
4.77102e-06
4.05838e-06
4.26607e-06
4.28425e-06
3.03446e-06
2.1589e-06
1.6225e-06
1.45053e-06
1.48735e-06
1.40063e-06
1.56107e-06
1.98702e-06
2.67378e-06
3.3454e-06
4.57301e-06
5.09928e-06
5.34338e-06
5.41306e-06
5.3081e-06
4.97877e-06
4.46067e-06
3.29351e-06
2.70948e-06
2.12699e-06
1.72755e-06
1.59561e-06
1.79513e-06
2.58263e-06
4.61488e-06
1.97999e-06
2.00169e-06
1.88033e-06
1.60562e-06
1.32089e-06
1.15016e-06
1.12236e-06
1.1148e-06
1.23391e-06
1.1822e-06
1.13547e-06
1.00336e-06
8.81332e-07
9.35065e-07
1.2022e-06
1.58749e-06
1.98166e-06
2.28358e-06
2.49677e-06
2.61921e-06
2.69444e-06
2.67674e-06
2.66916e-06
2.57719e-06
2.40929e-06
2.25926e-06
2.18965e-06
2.24811e-06
2.24809e-06
1.9837e-06
4.25313e-07
5.32748e-07
6.54401e-07
7.01451e-07
6.86413e-07
6.56756e-07
6.36021e-07
6.18629e-07
6.12006e-07
6.20977e-07
5.84886e-07
8.93243e-07
8.73136e-07
9.86618e-07
9.85798e-07
1.13171e-06
1.1579e-06
1.23426e-06
1.27876e-06
1.4323e-06
1.42124e-06
1.50478e-06
1.53346e-06
1.56289e-06
1.23114e-06
9.48583e-07
8.46552e-07
5.62117e-07
4.45026e-07
3.89975e-07
1.06888e-07
1.32286e-07
1.60546e-07
1.41057e-07
1.17446e-07
1.33333e-07
1.44251e-07
1.55849e-07
1.52347e-07
1.50947e-07
1.5182e-07
1.56066e-07
1.65304e-07
1.65082e-07
1.77586e-07
1.72267e-07
1.73269e-07
1.69843e-07
1.64262e-07
1.6141e-07
1.57263e-07
1.55767e-07
1.61358e-07
1.58828e-07
1.47764e-07
1.36958e-07
1.24463e-07
1.29958e-07
1.50543e-07
1.50747e-07
6.25661e-07
2.44311e-07
1.71733e-07
7.02531e-08
7.34171e-08
1.08965e-07
2.04495e-07
2.81507e-07
5.4044e-07
6.60346e-07
6.75502e-07
6.34296e-07
5.58593e-07
4.78445e-07
4.13025e-07
2.93137e-07
2.99553e-07
2.8429e-07
3.13975e-07
2.84906e-07
3.11677e-07
2.88256e-07
2.68082e-07
2.76205e-07
3.4115e-07
1.4372e-06
4.90893e-06
5.64773e-06
3.86457e-06
3.72688e-06
8.89095e-08
1.08221e-07
1.10194e-07
1.052e-07
1.09932e-07
1.01924e-07
9.6166e-08
8.67672e-08
6.71481e-08
7.20523e-08
6.49009e-08
5.16022e-08
5.98716e-08
5.88201e-08
6.06725e-08
7.1287e-08
6.96454e-08
8.13754e-08
9.29203e-08
9.20449e-08
1.0618e-07
1.30151e-07
1.91388e-07
2.18172e-07
2.11711e-07
2.08109e-07
1.16004e-07
1.31258e-07
1.18726e-07
1.08539e-07
3.84177e-07
4.04352e-07
4.42148e-07
4.95344e-07
5.54719e-07
5.62508e-07
9.48708e-07
1.06608e-06
1.12029e-06
1.21326e-06
1.07495e-06
1.01884e-06
8.95361e-07
5.01466e-07
4.53753e-07
3.95558e-07
3.4079e-07
2.3395e-07
7.14123e-08
3.15024e-08
3.40413e-08
3.55546e-08
3.49489e-08
3.82485e-08
4.36227e-08
6.83302e-08
8.22627e-08
9.50059e-08
8.66873e-08
4.67474e-08
2.48087e-07
1.06875e-07
1.1191e-07
1.71535e-07
2.05887e-07
2.39603e-07
2.65687e-07
2.77913e-07
3.42068e-07
4.52463e-07
6.02889e-07
6.01514e-07
5.97006e-07
5.92903e-07
6.0004e-07
4.14433e-07
3.26141e-07
3.05835e-07
2.78495e-07
2.42671e-07
9.86211e-08
5.84571e-08
5.63266e-08
5.45123e-08
5.74351e-08
6.56411e-08
6.23023e-08
5.70657e-08
3.82921e-08
3.91041e-08
3.24432e-08
4.80236e-08
5.9345e-08
6.75033e-08
7.55225e-08
7.64375e-08
1.13159e-07
1.21711e-07
1.12121e-07
1.10853e-07
7.52907e-08
4.735e-08
6.51217e-08
6.03897e-08
5.70739e-08
5.02726e-08
4.95064e-08
2.4439e-08
1.53335e-08
1.17391e-08
1.23159e-08
1.52201e-08
1.84316e-08
1.99623e-08
1.60912e-08
1.22703e-08
1.84446e-08
1.86312e-08
1.78124e-08
1.28592e-08
2.32786e-08
3.5056e-08
3.9055e-08
3.45452e-08
2.42335e-08
2.2207e-08
2.1656e-08
2.8262e-08
2.55733e-08
2.60309e-08
3.24429e-08
2.74825e-08
3.39438e-08
2.8944e-08
2.21025e-08
2.41356e-08
2.2395e-08
3.08175e-08
3.41376e-08
3.69145e-08
3.92026e-08
4.0257e-08
3.90523e-08
3.59622e-08
3.29942e-08
3.04686e-08
3.05632e-08
3.78203e-08
4.08398e-08
3.76789e-08
1.68388e-08
1.78039e-08
1.45545e-08
7.35167e-09
4.44352e-08
1.7266e-07
6.95293e-09
1.69834e-09
1.77996e-09
1.61999e-09
1.7857e-09
1.48584e-09
1.52243e-09
1.5815e-09
1.52102e-09
1.33164e-09
1.58301e-09
1.41356e-09
1.24419e-09
1.11406e-09
1.39582e-09
1.30041e-09
1.27803e-09
3.16821e-09
7.33045e-09
3.36326e-09
8.21052e-10
3.64058e-10
3.27828e-10
1.29091e-09
1.45733e-05
1.49403e-05
1.44257e-05
1.37789e-05
1.30085e-05
1.18818e-05
1.15378e-05
1.14796e-05
1.14908e-05
1.11669e-05
1.04582e-05
8.80078e-06
8.41659e-06
8.62774e-06
1.02857e-05
1.11814e-05
1.21422e-05
1.2092e-05
1.1708e-05
1.14738e-05
1.13787e-05
1.14758e-05
1.16829e-05
1.21613e-05
1.25342e-05
1.19302e-05
1.06878e-05
9.59765e-06
9.42458e-06
1.03057e-05
1.10688e-05
1.17882e-05
1.22805e-05
1.25168e-05
1.24688e-05
1.20959e-05
1.13043e-05
9.71766e-06
7.8813e-06
6.16562e-06
6.21989e-06
8.0983e-06
1.07328e-05
1.14081e-05
6.91627e-06
4.88831e-06
4.47296e-06
4.93627e-06
4.69409e-06
2.78589e-06
1.54371e-06
1.0413e-06
1.01723e-06
1.31068e-06
1.42475e-06
1.79686e-06
2.55412e-06
3.48215e-06
5.118e-06
5.73284e-06
5.98062e-06
6.06355e-06
6.05255e-06
5.98657e-06
5.95098e-06
5.75912e-06
5.25153e-06
4.35708e-06
2.95919e-06
2.18716e-06
1.71212e-06
1.70401e-06
2.22999e-06
4.16308e-06
1.98595e-06
1.97846e-06
1.77177e-06
1.4409e-06
1.20222e-06
1.18637e-06
1.34084e-06
1.55046e-06
1.67039e-06
1.67269e-06
1.55226e-06
1.3795e-06
1.10504e-06
9.43958e-07
1.24914e-06
1.76469e-06
2.24173e-06
2.55915e-06
3.24573e-06
3.55322e-06
3.72613e-06
3.90115e-06
3.81575e-06
3.55394e-06
2.76578e-06
2.53874e-06
2.32384e-06
2.25354e-06
2.251e-06
2.04621e-06
4.22664e-07
6.06039e-07
7.02268e-07
6.81868e-07
6.34692e-07
5.96529e-07
5.91793e-07
6.11526e-07
6.40113e-07
9.94964e-07
1.17235e-06
1.41236e-06
1.43231e-06
1.54684e-06
1.57738e-06
1.51288e-06
1.51218e-06
1.46527e-06
1.43787e-06
1.53424e-06
1.52602e-06
1.58696e-06
1.5739e-06
1.58324e-06
1.30538e-06
1.15855e-06
1.43368e-06
1.13404e-06
5.49782e-07
3.95594e-07
1.05477e-07
1.32835e-07
1.58213e-07
1.22425e-07
1.1511e-07
1.27259e-07
1.43235e-07
1.39572e-07
1.3516e-07
1.32739e-07
1.3615e-07
1.45693e-07
1.58568e-07
1.67926e-07
1.71026e-07
1.79095e-07
1.68584e-07
1.79389e-07
1.7229e-07
1.76247e-07
1.6888e-07
1.64466e-07
1.63153e-07
1.65322e-07
1.52705e-07
1.4106e-07
1.29414e-07
1.24706e-07
1.38297e-07
1.51516e-07
5.15274e-07
2.12263e-07
8.81859e-08
5.27909e-08
8.10711e-08
1.49859e-07
2.46101e-07
3.89782e-07
6.28671e-07
6.87874e-07
6.43353e-07
5.31855e-07
3.04775e-07
2.86968e-07
2.74279e-07
2.68147e-07
2.66817e-07
2.72312e-07
2.97052e-07
2.93723e-07
3.21321e-07
3.05948e-07
2.96e-07
2.81235e-07
3.04338e-07
8.28814e-07
2.78742e-06
5.20092e-06
3.74718e-06
2.98105e-06
1.18477e-07
1.12665e-07
1.03703e-07
1.17613e-07
1.02102e-07
9.26056e-08
8.43063e-08
7.51514e-08
6.50681e-08
4.85646e-08
4.00837e-08
4.84947e-08
4.60474e-08
4.74754e-08
4.99071e-08
5.46882e-08
5.20074e-08
6.57933e-08
7.85124e-08
9.10248e-08
9.24772e-08
1.09685e-07
1.45783e-07
1.87426e-07
2.56831e-07
2.20882e-07
1.19228e-07
1.41099e-07
1.36226e-07
1.16347e-07
3.79313e-07
4.1933e-07
4.78952e-07
5.77074e-07
9.06365e-07
1.32864e-06
1.63326e-06
1.68819e-06
1.88528e-06
1.82191e-06
1.84786e-06
1.72894e-06
1.51844e-06
1.25372e-06
8.90256e-07
4.59013e-07
3.88904e-07
3.12122e-07
1.37226e-07
3.05273e-08
3.35795e-08
3.60165e-08
3.69785e-08
3.91635e-08
6.83164e-08
9.47898e-08
1.02832e-07
1.18382e-07
1.14637e-07
7.84153e-08
2.76188e-07
1.21444e-07
1.45385e-07
2.10637e-07
2.53215e-07
2.77282e-07
4.4176e-07
6.97743e-07
9.02844e-07
1.06154e-06
1.11587e-06
1.17827e-06
1.18595e-06
1.12347e-06
1.04386e-06
9.21324e-07
6.90068e-07
3.47645e-07
3.1889e-07
2.83727e-07
1.51972e-07
6.56436e-08
5.76038e-08
5.67361e-08
6.40308e-08
7.00342e-08
6.34014e-08
4.98519e-08
4.51184e-08
3.82412e-08
4.90476e-08
6.99761e-08
8.67721e-08
1.2572e-07
1.78581e-07
2.00255e-07
2.16508e-07
2.21956e-07
2.22501e-07
2.10808e-07
2.04912e-07
1.85686e-07
1.52863e-07
7.72972e-08
6.70161e-08
6.05955e-08
5.25388e-08
4.08513e-08
2.1461e-08
1.22044e-08
1.11874e-08
1.42305e-08
1.86946e-08
2.03102e-08
1.42493e-08
1.86938e-08
1.73286e-08
1.77758e-08
1.72795e-08
1.30516e-08
2.22795e-08
3.45691e-08
3.60468e-08
2.92987e-08
2.09878e-08
2.27365e-08
2.42488e-08
3.74196e-08
3.48205e-08
3.76227e-08
3.80456e-08
4.00803e-08
3.9686e-08
2.95272e-08
2.88608e-08
2.70436e-08
2.32426e-08
3.41871e-08
4.04384e-08
4.51002e-08
5.0465e-08
5.10799e-08
6.12375e-08
4.38707e-08
4.59179e-08
3.80033e-08
3.21874e-08
3.59214e-08
3.86169e-08
3.69146e-08
1.68832e-08
2.28374e-08
4.53493e-08
5.1049e-08
5.0876e-08
1.50657e-08
1.63781e-09
1.72815e-09
1.68898e-09
1.97662e-09
2.09926e-09
2.45416e-09
2.85969e-09
2.97911e-09
2.79944e-09
2.38815e-09
1.78012e-09
1.21038e-09
1.30489e-09
1.023e-09
1.26054e-09
1.2587e-09
1.09337e-09
1.69113e-09
7.68526e-09
4.28904e-09
8.03577e-10
3.68544e-10
3.41091e-10
4.33691e-09
1.52765e-05
1.46781e-05
1.42425e-05
1.26881e-05
1.07185e-05
1.00656e-05
9.9746e-06
1.03394e-05
1.08053e-05
1.14468e-05
1.08017e-05
9.07481e-06
8.15744e-06
8.52994e-06
1.0261e-05
1.11366e-05
1.21155e-05
1.20492e-05
1.17462e-05
1.16902e-05
1.1631e-05
1.17205e-05
1.22129e-05
1.27715e-05
1.15239e-05
1.05513e-05
9.73432e-06
9.19206e-06
1.02441e-05
1.13988e-05
1.25288e-05
1.31438e-05
1.34968e-05
1.36661e-05
1.36387e-05
1.3509e-05
1.29145e-05
1.18499e-05
9.76347e-06
7.5893e-06
6.15724e-06
7.45067e-06
1.02006e-05
1.14614e-05
7.00805e-06
5.10312e-06
4.867e-06
5.53458e-06
5.18394e-06
2.70083e-06
1.18723e-06
6.15448e-07
6.31882e-07
1.16319e-06
1.4484e-06
2.01725e-06
3.0572e-06
4.90354e-06
5.73599e-06
5.98562e-06
6.02162e-06
5.97298e-06
5.90886e-06
5.90963e-06
5.91829e-06
5.92401e-06
5.81691e-06
5.29506e-06
4.26806e-06
2.79001e-06
1.98612e-06
1.6987e-06
2.0616e-06
3.3704e-06
1.98651e-06
1.95777e-06
1.69198e-06
1.32912e-06
1.15564e-06
1.26348e-06
1.54967e-06
1.7592e-06
1.84816e-06
1.89103e-06
1.86468e-06
1.72952e-06
1.35694e-06
9.65104e-07
1.3188e-06
1.92544e-06
2.41399e-06
2.71939e-06
3.61957e-06
3.96309e-06
4.18606e-06
4.20772e-06
4.25596e-06
4.12962e-06
3.74816e-06
2.76939e-06
2.45761e-06
2.27136e-06
2.23446e-06
2.06006e-06
5.5202e-07
6.85873e-07
7.10024e-07
6.49774e-07
5.86291e-07
5.76927e-07
5.8965e-07
6.44403e-07
1.11572e-06
1.53984e-06
1.9509e-06
2.18767e-06
2.26519e-06
2.43572e-06
2.33558e-06
2.29266e-06
2.12653e-06
1.92146e-06
1.70708e-06
1.65873e-06
1.65279e-06
1.67309e-06
1.59494e-06
1.62765e-06
1.35543e-06
1.26411e-06
1.73866e-06
1.74216e-06
1.14789e-06
5.0527e-07
1.03388e-07
1.31915e-07
1.48206e-07
1.11486e-07
1.13168e-07
1.27619e-07
1.29866e-07
1.24795e-07
1.18613e-07
1.17896e-07
1.2557e-07
1.36644e-07
1.55896e-07
1.66661e-07
1.7809e-07
1.76855e-07
1.76865e-07
1.81829e-07
1.71779e-07
1.65916e-07
1.7362e-07
1.67899e-07
1.69082e-07
1.63607e-07
1.63145e-07
1.52717e-07
1.36346e-07
1.22058e-07
1.30092e-07
1.45742e-07
3.90274e-07
1.70952e-07
6.18203e-08
5.17466e-08
8.40888e-08
1.20414e-07
2.1502e-07
2.87347e-07
6.27828e-07
6.49643e-07
5.75617e-07
4.26687e-07
2.85012e-07
2.65838e-07
2.30009e-07
2.19009e-07
1.98319e-07
2.1756e-07
2.37657e-07
2.65981e-07
3.16519e-07
3.02255e-07
3.16293e-07
2.91545e-07
3.02417e-07
3.5615e-07
1.54486e-06
3.84156e-06
3.56451e-06
2.04096e-06
1.19838e-07
9.41711e-08
9.59463e-08
1.08122e-07
9.63033e-08
8.38834e-08
7.2163e-08
6.25308e-08
4.20076e-08
5.29173e-08
4.45209e-08
4.22935e-08
3.91729e-08
3.85598e-08
4.18018e-08
4.67122e-08
5.1053e-08
5.23238e-08
6.60602e-08
7.96838e-08
9.48228e-08
9.60306e-08
1.25469e-07
1.49353e-07
2.12386e-07
1.9754e-07
1.46469e-07
1.41522e-07
1.48801e-07
1.27835e-07
3.85296e-07
4.48513e-07
5.37127e-07
8.76513e-07
1.35828e-06
1.82971e-06
2.07168e-06
2.30331e-06
2.47896e-06
2.44309e-06
2.35858e-06
2.22793e-06
2.08294e-06
1.7657e-06
1.33703e-06
8.28918e-07
4.3499e-07
3.76443e-07
2.63781e-07
9.04588e-08
3.66036e-08
3.6626e-08
3.74575e-08
3.63371e-08
8.0911e-08
1.12506e-07
1.17197e-07
1.19082e-07
1.20903e-07
9.26525e-08
3.04564e-07
1.64315e-07
2.17045e-07
2.59808e-07
2.86438e-07
5.82305e-07
9.04947e-07
1.18512e-06
1.41595e-06
1.5611e-06
1.66486e-06
1.67242e-06
1.68665e-06
1.63111e-06
1.52719e-06
1.33303e-06
1.07289e-06
7.68717e-07
3.51195e-07
3.22652e-07
2.28851e-07
8.76602e-08
5.47121e-08
6.60771e-08
7.85215e-08
6.95566e-08
4.0672e-08
3.03526e-08
3.86735e-08
3.24933e-08
7.94984e-08
1.03822e-07
1.43698e-07
2.08624e-07
3.35714e-07
7.28151e-07
9.80068e-07
1.13359e-06
1.1662e-06
1.0762e-06
8.61576e-07
5.90399e-07
2.35172e-07
1.87767e-07
1.28068e-07
6.89622e-08
6.11691e-08
4.95645e-08
2.18771e-08
1.56638e-08
1.12041e-08
1.39488e-08
1.92983e-08
2.03727e-08
1.42619e-08
1.69263e-08
1.72012e-08
1.68157e-08
1.62522e-08
1.37954e-08
2.20165e-08
3.41952e-08
3.33735e-08
2.48685e-08
2.74456e-08
2.29093e-08
3.10581e-08
4.44015e-08
4.63237e-08
4.09819e-08
4.49334e-08
4.56558e-08
3.37768e-08
3.02617e-08
3.48576e-08
3.06831e-08
3.0723e-08
3.52038e-08
4.23805e-08
4.68606e-08
4.65487e-08
9.82516e-08
1.39596e-07
1.32103e-07
8.32475e-08
4.77891e-08
3.71415e-08
3.51796e-08
3.6357e-08
3.57062e-08
1.54219e-08
2.27431e-08
8.25723e-08
4.41316e-08
1.62615e-08
3.10396e-09
1.49167e-09
1.59463e-09
2.00799e-09
2.36138e-09
3.20444e-09
2.87405e-09
4.99102e-09
5.80618e-09
4.80006e-09
3.80004e-09
2.88576e-09
1.82752e-09
1.31711e-09
1.14889e-09
1.18657e-09
1.16575e-09
1.02994e-09
1.03293e-09
5.00655e-09
7.62949e-09
1.58755e-09
6.7871e-10
1.16823e-09
3.8635e-08
1.54405e-05
1.47369e-05
1.37528e-05
1.09485e-05
9.94416e-06
9.78707e-06
9.91513e-06
1.02428e-05
1.09447e-05
1.19386e-05
1.12612e-05
9.38717e-06
8.0591e-06
8.48617e-06
1.02357e-05
1.10809e-05
1.2103e-05
1.20384e-05
1.17538e-05
1.16878e-05
1.16792e-05
1.19242e-05
1.26174e-05
1.15778e-05
1.0155e-05
9.08988e-06
9.1771e-06
9.28258e-06
1.09364e-05
1.24256e-05
1.33061e-05
1.37657e-05
1.38173e-05
1.38347e-05
1.38219e-05
1.36995e-05
1.35783e-05
1.28914e-05
1.13665e-05
8.65116e-06
6.39672e-06
7.22975e-06
9.88801e-06
1.1418e-05
7.13208e-06
5.40277e-06
5.09694e-06
5.92906e-06
5.85875e-06
3.10551e-06
1.20764e-06
5.94081e-07
6.11612e-07
1.18675e-06
1.52518e-06
2.18423e-06
3.45451e-06
5.38551e-06
5.78157e-06
5.83251e-06
5.81561e-06
5.72825e-06
5.6589e-06
5.59109e-06
5.57927e-06
5.71813e-06
5.83556e-06
5.68422e-06
4.95812e-06
3.20597e-06
2.2914e-06
1.7767e-06
1.9988e-06
3.2417e-06
1.9855e-06
1.9521e-06
1.65323e-06
1.24307e-06
1.08794e-06
1.22898e-06
1.54206e-06
1.69998e-06
1.78525e-06
1.8763e-06
1.93924e-06
1.90185e-06
1.58333e-06
1.01447e-06
1.31536e-06
1.99651e-06
2.48004e-06
3.28667e-06
3.82179e-06
4.22832e-06
4.41671e-06
4.52277e-06
4.45704e-06
4.29919e-06
4.05727e-06
3.54109e-06
2.55415e-06
2.28978e-06
2.19245e-06
2.02095e-06
6.30916e-07
9.81507e-07
9.52305e-07
6.23543e-07
5.56534e-07
5.58917e-07
5.92601e-07
1.0165e-06
1.62324e-06
2.1705e-06
2.63599e-06
2.7538e-06
2.91957e-06
2.92201e-06
2.83725e-06
2.77792e-06
2.65544e-06
2.44353e-06
2.09752e-06
1.91771e-06
1.76393e-06
1.74811e-06
1.70095e-06
1.66933e-06
1.41549e-06
1.30541e-06
1.77322e-06
1.95196e-06
1.67603e-06
6.71348e-07
1.03157e-07
1.33184e-07
1.40007e-07
1.04715e-07
1.00044e-07
1.15717e-07
1.19469e-07
1.13703e-07
1.09267e-07
1.09634e-07
1.14628e-07
1.29907e-07
1.42435e-07
1.67263e-07
1.68542e-07
1.77865e-07
1.69762e-07
1.72484e-07
1.75391e-07
1.88142e-07
1.84131e-07
1.73542e-07
1.80795e-07
1.74624e-07
1.69029e-07
1.48831e-07
1.32117e-07
1.24083e-07
1.27178e-07
1.41896e-07
2.4441e-07
1.02309e-07
4.10224e-08
4.9666e-08
6.78111e-08
8.54552e-08
1.4813e-07
2.73533e-07
6.16593e-07
6.9275e-07
5.44005e-07
2.98618e-07
2.71733e-07
2.31944e-07
2.11184e-07
1.69694e-07
1.64152e-07
1.63279e-07
2.05689e-07
2.16431e-07
2.86491e-07
3.01802e-07
3.26504e-07
2.98793e-07
3.09012e-07
3.42868e-07
1.16055e-06
2.71986e-06
3.00057e-06
1.86501e-06
1.00154e-07
7.51857e-08
1.00275e-07
9.87712e-08
9.82502e-08
8.45921e-08
6.54836e-08
5.94678e-08
5.08567e-08
4.58289e-08
3.65582e-08
3.56861e-08
3.42385e-08
3.43247e-08
3.62846e-08
4.09847e-08
4.37472e-08
4.01891e-08
5.49514e-08
7.12456e-08
8.74931e-08
1.01036e-07
1.12426e-07
1.49648e-07
1.81583e-07
1.46602e-07
1.45369e-07
1.58825e-07
1.62317e-07
1.36672e-07
3.66159e-07
4.54382e-07
5.71338e-07
1.17846e-06
1.72693e-06
2.22867e-06
2.49282e-06
3.51444e-06
3.79695e-06
3.85952e-06
3.75665e-06
3.4706e-06
2.98125e-06
2.26609e-06
1.79459e-06
1.17199e-06
4.69673e-07
4.01758e-07
3.18042e-07
1.37525e-07
4.34223e-08
3.711e-08
3.84114e-08
5.99827e-08
1.07652e-07
1.14724e-07
1.13094e-07
1.17542e-07
1.32052e-07
1.00246e-07
2.87902e-07
1.92277e-07
2.48178e-07
2.89032e-07
4.47318e-07
9.25098e-07
1.27809e-06
1.57646e-06
1.73757e-06
2.41443e-06
2.55229e-06
2.62011e-06
2.57308e-06
2.45613e-06
1.83202e-06
1.7153e-06
1.40902e-06
1.06281e-06
7.08846e-07
3.44469e-07
2.81919e-07
1.14884e-07
7.99893e-08
8.42623e-08
8.85353e-08
4.30804e-08
2.72376e-08
3.46107e-08
3.48884e-08
3.83253e-08
9.41401e-08
1.25499e-07
2.00089e-07
4.54582e-07
1.00018e-06
1.49431e-06
2.4357e-06
2.88565e-06
3.00744e-06
2.78028e-06
2.28274e-06
1.44115e-06
9.47923e-07
4.56204e-07
1.90346e-07
1.23678e-07
6.73144e-08
5.96802e-08
4.55758e-08
2.05874e-08
1.25406e-08
1.42749e-08
1.96089e-08
2.08629e-08
1.53092e-08
1.65351e-08
1.65363e-08
1.56213e-08
1.70698e-08
1.50784e-08
2.16698e-08
3.36187e-08
3.11449e-08
2.10409e-08
2.44759e-08
3.54622e-08
4.52603e-08
4.35936e-08
5.70727e-08
5.97486e-08
6.29262e-08
5.17017e-08
4.22406e-08
3.07382e-08
3.23961e-08
2.62079e-08
2.53872e-08
3.55035e-08
4.35797e-08
4.42149e-08
3.37051e-08
9.83794e-08
1.65949e-07
1.72811e-07
1.32852e-07
5.51052e-08
3.94483e-08
3.04594e-08
2.99693e-08
3.45739e-08
8.01906e-09
1.53531e-08
3.42589e-08
1.41874e-08
3.76648e-09
1.68374e-09
1.31088e-09
1.83628e-09
2.16718e-09
3.33318e-09
4.69459e-09
8.37457e-09
1.12424e-08
1.25285e-08
1.04942e-08
7.26524e-09
3.01188e-09
2.60417e-09
1.24962e-09
1.17498e-09
1.08921e-09
1.01924e-09
1.00554e-09
9.55395e-10
2.77563e-09
1.50805e-08
4.11926e-09
2.24189e-09
7.52463e-09
1.26879e-06
1.52742e-05
1.46706e-05
1.22453e-05
9.98627e-06
9.50105e-06
9.34539e-06
9.51045e-06
1.01548e-05
1.11666e-05
1.23475e-05
1.15324e-05
9.66026e-06
8.68088e-06
8.4192e-06
1.01593e-05
1.08677e-05
1.19906e-05
1.20649e-05
1.1773e-05
1.17171e-05
1.17463e-05
1.2247e-05
1.23464e-05
1.05244e-05
8.71415e-06
8.42108e-06
8.79924e-06
9.94271e-06
1.16108e-05
1.29564e-05
1.36311e-05
1.37599e-05
1.38886e-05
1.38149e-05
1.37879e-05
1.37039e-05
1.35549e-05
1.32696e-05
1.20815e-05
9.49843e-06
7.27989e-06
7.29839e-06
9.82868e-06
1.13905e-05
7.27126e-06
5.80393e-06
5.32002e-06
6.01243e-06
6.37421e-06
4.67248e-06
1.83139e-06
6.25662e-07
6.35094e-07
1.31715e-06
1.62371e-06
2.35443e-06
4.47206e-06
5.61185e-06
5.673e-06
5.63336e-06
5.66756e-06
5.65622e-06
5.55701e-06
5.4451e-06
5.44351e-06
5.4822e-06
5.64883e-06
5.72805e-06
5.32705e-06
4.06871e-06
2.53901e-06
1.9164e-06
2.03953e-06
3.2029e-06
1.99001e-06
1.98071e-06
1.6954e-06
1.21434e-06
9.44119e-07
1.01503e-06
1.24259e-06
1.40855e-06
1.51443e-06
1.70933e-06
1.90907e-06
1.95831e-06
1.80482e-06
1.15955e-06
1.32328e-06
2.06923e-06
2.48971e-06
3.33412e-06
3.98591e-06
4.3458e-06
4.53058e-06
4.6163e-06
4.61005e-06
4.53982e-06
4.1869e-06
3.68075e-06
2.58056e-06
2.27512e-06
2.12186e-06
1.93048e-06
6.89203e-07
1.14404e-06
1.01675e-06
6.13119e-07
5.3699e-07
5.41807e-07
6.25667e-07
1.28083e-06
1.98579e-06
2.65957e-06
2.93731e-06
3.05754e-06
3.15333e-06
3.00916e-06
3.00985e-06
2.99768e-06
2.96441e-06
2.74145e-06
2.48059e-06
2.19801e-06
1.9648e-06
1.86844e-06
1.8571e-06
1.69622e-06
1.45871e-06
1.33127e-06
1.66907e-06
1.92995e-06
1.82086e-06
1.0506e-06
1.15219e-07
1.35147e-07
1.41333e-07
1.05524e-07
9.20322e-08
1.05302e-07
1.05871e-07
1.02438e-07
8.65724e-08
8.75695e-08
1.06888e-07
1.23771e-07
1.3826e-07
1.57621e-07
1.61443e-07
1.75971e-07
1.64704e-07
1.87638e-07
1.75839e-07
1.79564e-07
1.66261e-07
1.7974e-07
1.59791e-07
1.60086e-07
1.63504e-07
1.50535e-07
1.34659e-07
1.20815e-07
1.2486e-07
1.34341e-07
2.28424e-07
7.31994e-08
3.08072e-08
4.15805e-08
4.82599e-08
6.13887e-08
9.40484e-08
2.53845e-07
6.21027e-07
6.73788e-07
6.20352e-07
2.90436e-07
2.66599e-07
2.22884e-07
1.58572e-07
1.43968e-07
1.1703e-07
1.36776e-07
1.54603e-07
1.94303e-07
2.74216e-07
3.02469e-07
3.11285e-07
3.04164e-07
3.17218e-07
3.37565e-07
8.7842e-07
1.73627e-06
1.98757e-06
1.64152e-06
7.22392e-08
7.34002e-08
8.08203e-08
9.51949e-08
9.07043e-08
7.09994e-08
6.87665e-08
4.75085e-08
4.81817e-08
3.96667e-08