/*--------------------------------*- C++ -*----------------------------------*\
| =========                 |                                                 |
| \\      /  F ield         | OpenFOAM: The Open Source CFD Toolbox           |
|  \\    /   O peration     | Version:  2.1.1                                 |
|   \\  /    A nd           | Web:      www.OpenFOAM.org                      |
|    \\/     M anipulation  |                                                 |
\*---------------------------------------------------------------------------*/
FoamFile
{
    version     2.0;
    format      ascii;
    class       volScalarField;
    location    "0.006700000";
    object      O2;
}
// * * * * * * * * * * * * * * * * * * * * * * * * * * * * * * * * * * * * * //

dimensions      [0 0 0 0 0 0 0];

internalField   nonuniform List<scalar> 
12384
(
0.0129905
0.0145622
0.0148843
0.0146152
0.0140535
0.0132402
0.01253
0.0117898
0.0110523
0.0104899
0.0101435
0.0100398
0.00985745
0.00760941
0.0310646
0.0272721
0.028052
0.0295242
0.030959
0.0318363
0.0319062
0.0314366
0.0303041
0.0286838
0.0268437
0.0254347
0.0240866
0.0226523
0.0210308
0.0193397
0.0175442
0.016387
0.0155012
0.0148855
0.0146434
0.0148152
0.0152704
0.0160698
0.0174284
0.0200749
0.0239172
0.0286241
0.0358139
0.0429219
0.0125906
0.00709786
0.00400632
0.00359186
0.00334746
0.00325484
0.00304768
0.00270859
0.00237264
0.00202403
0.00172042
0.00147722
0.00135861
0.00128049
0.00112668
0.00117567
0.00121148
0.00122045
0.00119484
0.0012575
0.00121065
0.0011492
0.00108394
0.00106211
0.00109252
0.00122705
0.00166552
0.00298091
0.00632388
0.00672402
0.00217632
0.00214761
0.00222649
0.00211871
0.00194821
0.00172156
0.00162731
0.00138151
0.0012187
0.00105554
0.000838731
0.000781707
0.000748065
0.000762024
0.000825506
0.000926539
0.0010342
0.00115491
0.00125988
0.00133744
0.00141147
0.00148837
0.00160745
0.00166584
0.00173259
0.00204322
0.00233604
0.00236653
0.0018325
0.00167869
0.000388216
0.000446016
0.000493472
0.000528139
0.000559021
0.00057692
0.00058176
0.000600778
0.000200654
0.000228745
0.000315814
0.000369354
0.000367547
0.000487072
0.000427199
0.000599298
0.00058903
0.000723252
0.000816015
0.000871958
0.000926854
0.00100607
0.00150827
0.00129935
0.00109572
0.00082611
0.000652787
0.000617542
0.000799897
0.0011797
4.50535e-05
5.66608e-05
9.23642e-05
9.58829e-05
9.48917e-05
8.57605e-05
7.89839e-05
8.12098e-05
7.50182e-05
8.00284e-05
8.4326e-05
8.73386e-05
8.95873e-05
8.84964e-05
8.90887e-05
9.03982e-05
9.35361e-05
8.14807e-05
8.27444e-05
8.63535e-05
7.56563e-05
7.85259e-05
7.76759e-05
7.77537e-05
7.58115e-05
7.06112e-05
8.13362e-05
-3.21835e-05
-2.31526e-05
9.6557e-05
0.000640133
0.000852878
0.000515542
-7.07367e-05
0.000179178
0.000117411
0.000113953
8.22488e-05
9.59207e-05
0.000108251
0.000118721
0.000152927
0.000152949
0.000150289
0.000145342
0.000142374
0.000150752
0.000163599
0.000140883
0.000173045
0.000173402
0.000180672
0.000211971
0.000285296
0.00356937
0.0158508
0.016865
0.016352
0.0157091
0.0157472
0.000407948
3.80435e-05
8.41414e-05
7.04663e-05
6.23508e-05
5.44149e-05
4.50265e-05
5.63934e-05
4.34429e-05
4.60666e-05
4.4969e-05
4.51662e-05
3.60573e-05
3.70218e-05
3.59245e-05
4.8786e-05
5.42886e-05
4.86862e-05
5.59896e-05
6.07586e-05
8.73332e-05
0.000108863
0.000106731
2.84865e-05
-6.38427e-06
8.68326e-05
8.58924e-05
8.32572e-05
8.78144e-05
-1.84036e-05
0.000241461
0.000197469
0.000201079
0.000192508
0.000195757
0.000187873
0.000233487
0.000221306
0.000239751
0.000213709
0.000193126
0.00023449
0.000204805
0.000206134
0.000209968
0.000205383
0.000142988
2.76398e-05
1.0249e-05
9.04247e-06
1.34848e-05
1.44767e-05
1.57542e-05
1.71218e-05
1.82287e-05
1.8261e-05
1.69198e-05
1.25075e-05
5.77359e-06
6.10248e-06
7.50559e-05
5.80843e-05
5.20339e-05
5.62876e-05
6.3443e-05
2.46217e-05
5.13024e-05
5.46673e-05
7.28592e-05
0.000116657
0.000116112
0.000127794
0.000124934
0.000153949
0.000147304
0.000178555
0.000147988
0.000156019
0.000131701
5.94424e-05
2.6791e-05
2.23105e-05
2.33728e-05
2.63753e-05
2.46635e-05
2.58964e-05
2.34218e-05
2.21706e-05
1.74644e-05
1.46226e-05
1.49384e-05
1.6379e-05
1.73565e-05
8.99386e-06
8.41259e-06
8.07019e-06
1.52251e-05
7.00787e-06
1.48577e-05
1.59436e-05
1.01822e-05
1.17442e-05
1.50969e-05
1.93123e-05
2.18324e-05
2.20795e-05
9.02719e-06
9.46958e-06
5.5657e-06
5.51058e-06
6.28343e-06
4.8009e-06
8.18219e-06
8.63542e-06
9.25077e-06
8.47446e-06
8.78609e-06
7.13735e-06
6.14841e-06
5.29896e-06
2.48127e-05
3.15881e-05
1.34739e-05
2.84417e-05
2.33184e-05
1.53507e-05
8.94292e-06
8.62616e-06
3.01344e-06
8.81133e-06
5.65744e-06
3.78565e-06
7.98252e-06
7.6227e-06
2.41776e-07
2.6536e-07
1.45459e-07
-4.01253e-07
7.64926e-06
6.77729e-06
6.26066e-06
5.92973e-06
1.30393e-05
1.38436e-05
1.52077e-05
2.23296e-05
2.57897e-05
2.76976e-05
2.72625e-05
2.23732e-05
4.39735e-06
3.67341e-06
2.91086e-06
5.72135e-06
4.64713e-06
0.000137185
0.012954
7.12e-06
7.07215e-07
7.96751e-07
7.63626e-07
6.7375e-07
7.19094e-07
6.17213e-07
6.02382e-07
6.2344e-07
6.48884e-07
6.84076e-07
7.2375e-07
8.50169e-07
5.88657e-07
1.2093e-06
1.56337e-06
1.88758e-06
1.7482e-06
1.59239e-06
4.27849e-07
2.9311e-07
1.22736e-07
2.53063e-07
0.0203898
0.020145
0.0199897
0.0201032
0.0197639
0.0186307
0.0173165
0.015427
0.0129744
0.0108263
0.00913491
0.00875741
0.00926876
0.00776403
0.030866
0.02685
0.029023
0.0316033
0.0329437
0.0325031
0.0304389
0.0281452
0.0263327
0.0256763
0.0254766
0.024765
0.023249
0.0207266
0.0177736
0.0157344
0.0142235
0.0131692
0.0123345
0.0115094
0.010212
0.00937038
0.0089518
0.00906338
0.00992847
0.0130055
0.0177034
0.0244164
0.0321529
0.039013
0.0120284
0.00657908
0.00416098
0.00400552
0.00402311
0.0037499
0.00309865
0.00236843
0.00182482
0.00143583
0.00103269
0.000935467
0.000978313
0.00138167
0.00197249
0.00245438
0.0028969
0.00313229
0.0031729
0.0030343
0.00277409
0.0023306
0.00185416
0.00141003
0.00122777
0.00116101
0.00136662
0.00215425
0.00391423
0.00685415
0.00220381
0.00218318
0.00213116
0.00184374
0.00146521
0.00118808
0.000827745
0.00059789
0.000475459
0.000261006
0.000183867
0.000130815
0.000158275
0.00024483
0.000512077
0.000927275
0.00137662
0.00178623
0.00210999
0.0023938
0.00247928
0.00254499
0.00249481
0.00226948
0.00214847
0.00203928
0.00226202
0.00243991
0.00220151
0.00183249
0.00030112
0.000387172
0.000451552
0.000530559
0.00058145
0.000579712
0.000139724
9.15706e-05
0.000255248
0.000218075
0.000327805
0.000336083
0.000319468
0.000435539
0.000640309
0.000660581
0.000772024
0.000797263
0.000905175
0.000927826
0.00101546
0.00102436
0.00128018
0.00125899
0.000686262
1.13504e-05
0.000448382
0.000409349
0.000382698
0.000420579
4.43227e-05
6.30337e-05
9.37392e-05
9.47383e-05
7.36962e-05
6.60911e-05
6.5088e-05
7.93185e-05
8.67037e-05
9.01432e-05
9.32806e-05
9.48102e-05
9.79745e-05
9.74762e-05
0.000102576
9.86949e-05
0.000103353
0.000105801
9.46347e-05
9.72172e-05
9.21968e-05
9.21126e-05
9.01206e-05
8.42071e-05
7.53547e-05
7.50004e-05
7.47257e-05
9.14837e-05
0.000101807
9.10482e-05
0.000605762
0.000462
0.000184697
0.000128657
5.15159e-05
5.52791e-05
3.86217e-05
0.000109912
0.000170401
0.000211754
0.000250825
0.000257275
-6.75317e-05
-0.000102915
-0.000160874
0.000231388
0.00022831
0.000220342
0.00022387
0.000192896
0.000202084
0.00019495
0.000211493
0.000244434
0.000829387
0.00607949
0.0162744
0.0143634
0.0102769
0.0111633
0.000100577
5.84846e-05
3.86469e-05
3.63974e-05
4.93982e-05
4.71363e-05
4.75688e-05
4.69985e-05
4.01362e-05
2.75366e-05
2.54728e-05
2.50976e-05
3.39996e-05
3.64232e-05
2.85967e-05
3.16621e-05
4.13902e-05
4.91939e-05
4.60635e-05
5.40559e-05
6.88678e-05
9.85161e-05
9.67335e-05
5.029e-05
8.63412e-05
8.77195e-05
7.84167e-05
6.8841e-05
6.39931e-05
6.78285e-05
0.000203451
0.000211081
0.000227606
0.000259618
0.000331071
0.000323403
0.000358285
0.000389035
0.000366258
0.000368879
0.000369988
0.000347349
0.000328639
0.000307592
0.000238072
0.000218564
0.000200886
8.00777e-05
1.46524e-05
1.23337e-05
1.83598e-05
1.92244e-05
2.01491e-05
2.02615e-05
6.18609e-06
9.14296e-06
2.37438e-05
1.87848e-05
6.55164e-06
1.65917e-05
0.000110445
5.85057e-05
5.67487e-05
6.72693e-05
6.34017e-05
0.000104811
0.000159608
0.000169144
0.000195623
0.000199391
0.000211006
0.00021101
0.000220242
0.000216269
0.000230292
0.000227248
0.000210328
0.000178596
0.000168279
5.42223e-05
3.09648e-05
2.5547e-05
2.91006e-05
3.05834e-05
2.99582e-05
3.08788e-05
3.15254e-05
2.88139e-05
2.40654e-05
2.24452e-05
1.44332e-05
1.80427e-05
1.46207e-05
1.94042e-05
2.21376e-05
3.05815e-05
3.07676e-05
2.89088e-05
3.07602e-05
2.98258e-05
2.78821e-05
2.81128e-05
2.79974e-05
2.17903e-05
2.35751e-05
2.47143e-05
1.99637e-05
1.16951e-05
5.51076e-06
5.0073e-06
4.05562e-06
7.83467e-06
9.29366e-06
9.99092e-06
1.12999e-05
1.09302e-05
1.07885e-05
9.48322e-06
7.3896e-06
5.28587e-06
1.36253e-05
2.36902e-05
2.78707e-05
2.50309e-05
1.81833e-05
1.05847e-05
5.53374e-06
8.42972e-06
2.07968e-06
3.03314e-06
5.28393e-06
3.48993e-06
5.12112e-06
2.58564e-06
5.8126e-07
-1.35185e-06
6.49276e-06
5.9578e-06
6.13305e-06
6.20735e-06
5.98195e-06
1.23626e-05
1.19596e-05
1.17781e-05
1.23881e-05
1.40404e-05
2.14419e-05
2.54367e-05
2.67402e-05
2.27987e-05
5.5853e-06
4.00111e-06
2.64693e-06
1.8634e-06
8.95499e-07
0.000938674
0.000127861
1.4679e-06
6.07312e-07
6.59574e-07
6.10642e-07
4.50392e-07
4.09019e-07
4.01766e-07
3.92453e-07
3.98091e-07
3.84842e-07
3.75875e-07
3.52264e-07
3.39222e-07
5.15748e-07
5.25278e-07
3.59564e-07
2.38561e-06
2.71436e-06
1.76128e-06
5.18394e-07
1.55803e-07
1.13707e-07
1.07407e-07
0.0218894
0.0224926
0.02578
0.0263326
0.0247241
0.0221272
0.0200178
0.0186316
0.0172525
0.0144243
0.010716
0.00828865
0.00851909
0.0077852
0.0308203
0.0267958
0.0298993
0.0329148
0.0332297
0.031334
0.0296299
0.0294785
0.0311099
0.0325383
0.031235
0.0280113
0.0242757
0.0206499
0.0180902
0.0174549
0.0180073
0.0192933
0.0199457
0.0199249
0.0188876
0.0168332
0.0140978
0.0111758
0.00916896
0.0093503
0.0123101
0.0190649
0.028272
0.0360972
0.0116796
0.00649825
0.00499989
0.00562701
0.00570532
0.00382484
0.00235332
0.00138399
0.00110205
0.00111898
0.000951753
0.00118524
0.00183562
0.00295396
0.00400046
0.0054577
0.00677976
0.00743854
0.00764782
0.00743728
0.00675745
0.00543654
0.00398244
0.0030663
0.00209467
0.00146827
0.00127233
0.00163793
0.00291705
0.00582129
0.00222088
0.00216801
0.00194802
0.00148275
0.00101629
0.00072012
0.000716755
0.000669055
0.000908484
0.000787051
0.000675447
0.000430551
0.000199444
0.000277618
0.00074887
0.00144781
0.0021643
0.00272718
0.00318316
0.00343513
0.00358647
0.00358303
0.00353661
0.00331193
0.00291996
0.00259584
0.00242088
0.00241279
0.00238523
0.00196969
0.000286463
0.000381604
0.000498292
0.000567889
0.000554213
0.000524468
0.000519585
0.000503995
0.000500364
0.000512181
0.000497856
0.000291405
0.000377995
0.000581454
0.000625001
0.000831496
0.000899586
0.000934278
0.000993387
0.00116174
0.00108251
0.00106326
0.00112383
0.00125524
0.00086267
0.000304138
0.000109582
0.000438828
0.000309176
0.00024842
4.44722e-05
6.61136e-05
9.00282e-05
7.86179e-05
5.96518e-05
7.20016e-05
7.68996e-05
9.10155e-05
8.87339e-05
8.77051e-05
8.85037e-05
9.20046e-05
9.93298e-05
9.56442e-05
0.000105466
0.000101933
0.000103463
0.000100607
9.73291e-05
9.47341e-05
9.21277e-05
9.08444e-05
9.88717e-05
9.67369e-05
8.79768e-05
8.28703e-05
7.35301e-05
7.82991e-05
9.46305e-05
9.11503e-05
0.000460946
0.00020842
0.000125532
4.32358e-05
4.49842e-05
3.29727e-05
0.000141854
0.000235979
0.000160015
0.000397167
0.00043791
0.000367884
0.000234788
8.51881e-05
-4.16614e-05
0.000252786
0.000258043
0.000243363
0.000262533
0.000232541
0.000254514
0.000227772
0.000193238
0.000203218
0.000282201
0.00168919
0.0102207
0.0140927
0.00707784
0.00676779
2.1991e-05
3.78923e-05
4.02443e-05
3.69043e-05
4.65796e-05
4.06097e-05
4.20181e-05
3.4792e-05
2.09957e-05
2.86065e-05
2.79371e-05
1.37417e-05
2.39344e-05
2.33391e-05
2.48776e-05
3.27696e-05
2.81998e-05
3.71755e-05
4.59685e-05
4.14781e-05
5.2466e-05
7.25729e-05
5.15008e-05
9.94456e-05
9.26494e-05
8.92859e-05
-2.57701e-05
7.88603e-05
6.81867e-05
5.94716e-05
0.000205651
0.000229663
0.000274396
0.000336799
0.00042359
0.000459669
0.000289817
0.000622331
0.000837503
0.000965747
0.000802392
0.000697796
0.000448551
0.000419572
0.000363684
0.000297941
0.000224102
0.000105777
3.32089e-05
1.57821e-05
1.76443e-05
1.86949e-05
1.82692e-05
2.04466e-05
1.04354e-05
2.68758e-05
3.41645e-05
4.37746e-05
4.14153e-05
1.35267e-05
0.000175582
6.97842e-05
7.16276e-05
8.77976e-05
0.000130488
0.000180848
0.000219189
0.000235401
-0.000138324
7.83306e-05
0.000375252
0.000345581
0.000342342
0.000313693
0.000255504
-0.000124185
0.000271585
0.000236963
0.000193166
0.000149252
5.95168e-05
2.87992e-05
2.71734e-05
2.60921e-05
2.86624e-05
3.55049e-05
3.30394e-05
2.81635e-05
1.04033e-05
1.10912e-05
1.09422e-05
2.33419e-05
3.3059e-05
4.04295e-05
4.9106e-05
1.12809e-05
5.99577e-05
6.96498e-05
6.09085e-05
5.85682e-05
1.14976e-05
-1.98182e-05
4.09717e-05
3.66298e-05
3.35175e-05
2.60953e-05
2.51683e-05
4.50057e-06
7.08931e-06
4.5669e-06
4.95781e-06
7.01965e-06
9.33752e-06
1.08673e-05
1.67686e-06
-1.20047e-06
9.93485e-06
9.99772e-06
8.96387e-06
5.51593e-06
1.11169e-05
2.09842e-05
2.43074e-05
2.05401e-05
1.07462e-05
7.29448e-06
4.96654e-06
1.01618e-05
6.13229e-06
6.66959e-06
1.11566e-05
7.57154e-06
1.42758e-05
1.0303e-05
4.80944e-06
8.08283e-06
6.82041e-06
1.52367e-05
1.82164e-05
2.06894e-05
2.27112e-05
2.37215e-05
2.27882e-05
2.02436e-05
1.76774e-05
1.56177e-05
1.58203e-05
2.28322e-05
2.53535e-05
2.26997e-05
8.72947e-06
9.74087e-06
7.13733e-06
2.05527e-06
2.66325e-05
0.000140587
3.11659e-06
6.02155e-07
6.34717e-07
5.12914e-07
5.87635e-07
3.93282e-07
4.12799e-07
4.40407e-07
4.08364e-07
3.14497e-07
4.83249e-07
4.00164e-07
3.2008e-07
2.59801e-07
4.40971e-07
3.96989e-07
3.93022e-07
1.22943e-06
3.3658e-06
1.35047e-06
3.1204e-07
1.29168e-07
1.13748e-07
4.86981e-07
0.0243736
0.0298653
0.0310041
0.0268383
0.0205598
0.0161918
0.014294
0.0145378
0.0157291
0.0158625
0.0134398
0.0093011
0.00822847
0.00774493
0.0306232
0.0265924
0.0305854
0.0336199
0.0336371
0.0328862
0.0336999
0.0361241
0.0373071
0.0346056
0.027962
0.022086
0.0183043
0.0167359
0.0172398
0.0200558
0.0232976
0.0255783
0.0267267
0.0269889
0.0266046
0.0255435
0.0228906
0.0181179
0.0129902
0.009519
0.00977289
0.0147596
0.0246394
0.0343243
0.0117089
0.00676965
0.00595147
0.00720488
0.0065851
0.00337481
0.00127638
0.000409843
0.000342086
0.000817893
0.00100114
0.00159457
0.002797
0.00425848
0.0068694
0.00841459
0.00907835
0.00932313
0.00936228
0.00927984
0.00918101
0.00872625
0.00755336
0.00525286
0.00349483
0.00221305
0.00146764
0.00148039
0.00237874
0.00478487
0.00223135
0.00212964
0.00176138
0.00119934
0.000810618
0.000776699
0.001107
0.00147505
0.00169545
0.00170591
0.00144652
0.0011051
0.00060631
0.000322192
0.000868523
0.00180376
0.00271903
0.0033172
0.00384163
0.00478277
0.0053147
0.00571657
0.0054955
0.00475553
0.00366944
0.00317255
0.00272836
0.00253695
0.00243483
0.00209491
0.000268379
0.000445278
0.000568262
0.000548692
0.000499373
0.000461236
0.000472854
0.000494566
0.00053006
0.000386805
0.000757628
0.00110212
0.00130556
0.00148972
0.00153601
0.00145485
0.00143779
0.00131518
0.00127939
0.00134769
0.00133553
0.00128278
0.00118599
0.00120143
0.000916821
0.00067669
0.00114123
0.000578
0.000422502
0.000252351
4.39047e-05
6.70408e-05
9.25549e-05
6.4003e-05
5.75014e-05
6.31774e-05
8.09956e-05
7.85582e-05
7.51983e-05
7.34077e-05
7.63814e-05
8.4084e-05
9.43986e-05
9.7716e-05
0.000100975
0.000101933
9.47508e-05
0.000102169
9.73146e-05
0.000100232
9.51249e-05
9.2152e-05
9.12929e-05
9.76946e-05
8.82221e-05
8.28718e-05
7.72692e-05
7.40321e-05
8.50184e-05
9.49604e-05
0.000242454
0.000171666
2.52239e-05
2.5829e-05
5.14087e-05
8.15215e-05
0.00019628
-0.000112051
0.000356222
0.000471066
0.000385452
0.000170451
0.000263851
0.000236058
0.000220986
0.000212767
0.000210603
0.000216761
0.00024111
0.000239293
0.000255615
0.00024861
0.000223039
0.000207509
0.000231403
0.000517295
0.00382001
0.0115862
0.00670917
0.00430392
4.58831e-05
4.19449e-05
3.53696e-05
5.17404e-05
4.09648e-05
3.361e-05
3.29685e-05
2.55504e-05
2.29803e-05
1.04441e-05
4.24951e-06
2.66763e-05
2.52117e-05
2.60703e-05
1.56627e-05
1.96455e-05
1.43196e-05
2.49092e-05
3.50074e-05
4.46276e-05
4.19644e-05
5.57462e-05
8.61914e-05
5.26803e-05
0.000142392
9.07229e-05
-2.30635e-05
8.62728e-05
8.21765e-05
6.53944e-05
0.000204976
0.00024859
0.000318897
0.000446072
0.00020718
0.00101692
0.00156871
0.00187941
0.00213753
0.00216593
0.00217981
0.0019702
0.00161714
0.00111965
0.000428247
0.00037145
0.000292275
0.000194708
8.73268e-05
5.08466e-08
1.73092e-05
1.89798e-05
1.95861e-05
2.03787e-05
3.02701e-05
4.83905e-05
5.10585e-05
6.26092e-05
5.95339e-05
3.85044e-05
0.000206821
1.83289e-05
4.7349e-05
0.0001346
0.000194907
0.000224654
2.44953e-05
0.000512695
0.000977707
0.00128608
0.00142298
0.00152289
0.00147309
0.00133824
0.00114683
0.000870348
0.000373338
0.000295485
0.000251021
0.000197659
4.89087e-05
3.22521e-05
2.80318e-05
2.74899e-05
3.38517e-05
3.91593e-05
3.3422e-05
2.23867e-05
1.80275e-05
9.70485e-06
2.21947e-05
4.19263e-05
1.78957e-05
6.48323e-05
0.000132498
0.000159137
0.000179143
0.000192831
0.000194062
0.000181591
0.000173007
0.00014263
0.000104039
1.3314e-05
4.2479e-05
3.67041e-05
2.81262e-05
1.82037e-05
1.13062e-05
4.90995e-06
4.19561e-06
6.35503e-06
9.5409e-06
1.11185e-05
3.91656e-07
5.36342e-06
9.21286e-06
9.4338e-06
8.63862e-06
5.63964e-06
1.02723e-05
2.05575e-05
2.18023e-05
1.61397e-05
6.54934e-06
5.86601e-06
5.20456e-06
1.52574e-05
1.09898e-05
1.29915e-05
1.31627e-05
1.44072e-05
1.65982e-05
8.86354e-06
1.01908e-05
1.05024e-05
7.82742e-06
1.83957e-05
2.37993e-05
2.77172e-05
3.22614e-05
8.13241e-07
1.25315e-05
-6.60278e-06
2.86686e-05
2.1957e-05
1.71896e-05
2.1258e-05
2.34978e-05
2.20607e-05
8.76705e-06
8.81495e-06
2.77203e-05
3.2423e-05
3.21664e-05
7.3224e-06
2.9961e-07
6.06946e-07
5.43594e-07
6.8001e-07
6.86876e-07
8.68381e-07
1.06644e-06
1.1242e-06
1.03589e-06
8.30083e-07
5.29368e-07
2.4864e-07
3.45033e-07
2.14075e-07
3.785e-07
3.78047e-07
2.98421e-07
6.38028e-07
3.59047e-06
1.31889e-06
3.03669e-07
1.31234e-07
7.57277e-08
1.60928e-06
0.0313254
0.0345317
0.0299263
0.0194295
0.012632
0.0105154
0.0100796
0.0108608
0.0125563
0.0149799
0.0146537
0.0105729
0.00810067
0.00762907
0.0308028
0.0262574
0.0305782
0.0343407
0.0352576
0.0360215
0.0382205
0.0396725
0.0373578
0.0275309
0.0184964
0.0149796
0.0142959
0.0155262
0.0195934
0.0247673
0.0281602
0.0292909
0.0290243
0.0284394
0.0280857
0.0278801
0.026985
0.024251
0.0181777
0.012196
0.0095796
0.0125709
0.0221549
0.0330765
0.0120323
0.00724107
0.00679768
0.00845378
0.00761056
0.00317443
0.000653944
0.000498222
0.00051767
0.00057216
0.00105393
0.00198222
0.00359368
0.00641736
0.00848585
0.00914204
0.00927937
0.00922573
0.00913985
0.00912127
0.00915393
0.0092308
0.0089581
0.00772216
0.00508609
0.00321858
0.00188709
0.00147718
0.00210931
0.00420764
0.00223634
0.00209706
0.00162217
0.00100727
0.000725751
0.000924123
0.00148073
0.0018639
0.00203056
0.00210467
0.00205896
0.00179036
0.00106616
0.000376664
0.00104919
0.0021606
0.00305828
0.0036372
0.00501311
0.00604123
0.00671722
0.00686048
0.00688516
0.00636988
0.00528418
0.00369126
0.00308872
0.00264129
0.00251217
0.00220388
0.000402905
0.00054955
0.000578826
0.000514611
0.000448271
0.000454095
0.000469444
0.00051669
0.000525057
0.0012755
0.00199611
0.00243321
0.00266716
0.00288553
0.00279365
0.00269539
0.00241991
0.00203642
0.00168457
0.001543
0.00157171
0.00145343
0.00125355
0.00125168
0.000924339
0.000864758
0.00167659
0.00163989
0.000578828
0.000358964
4.28143e-05
6.67078e-05
8.50622e-05
5.52147e-05
5.58173e-05
6.8186e-05
7.06547e-05
6.69197e-05
6.19768e-05
6.13234e-05
6.78659e-05
7.7177e-05
9.23441e-05
0.000101317
0.000105988
0.000100255
0.000100015
9.75545e-05
9.06591e-05
7.9736e-05
9.2162e-05
8.82614e-05
9.52296e-05
9.17573e-05
9.60349e-05
9.17841e-05
8.25792e-05
7.205e-05
7.87394e-05
9.06673e-05
7.09756e-06
0.000124736
3.63355e-05
2.48623e-05
5.38558e-05
4.84046e-05
0.000162292
0.000244773
0.000366836
0.000418381
0.000271384
-2.9511e-05
0.000233685
0.000209896
0.000160854
0.000146789
0.00011188
0.000144222
0.000152338
0.000197913
0.000247471
0.0002355
0.000244499
0.000218454
0.000228459
0.000289224
0.0018789
0.0070732
0.00607268
0.00279715
4.79094e-05
2.70386e-05
2.8951e-05
4.49594e-05
3.69158e-05
2.70924e-05
2.38472e-05
1.55844e-05
5.51955e-06
2.8282e-05
2.40531e-05
2.25632e-05
2.06649e-05
2.03109e-05
2.23828e-05
2.54763e-05
1.65888e-05
1.41895e-05
2.52139e-05
3.588e-05
4.75358e-05
4.49403e-05
6.91163e-05
7.64377e-06
8.04221e-05
6.42061e-05
9.0976e-05
8.67303e-05
9.21848e-05
7.48163e-05
0.000211489
0.00030058
0.000401365
0.000111971
0.00108805
0.00186418
0.00247524
0.00298582
0.00324804
0.00330608
0.00317569
0.00300893
0.00265868
0.00208698
0.00130134
0.000331915
0.000344822
0.000277943
0.000153572
4.91238e-05
1.85865e-05
1.92964e-05
1.98818e-05
4.53461e-06
3.7791e-05
6.28059e-05
6.65551e-05
6.39757e-05
6.0779e-05
4.63465e-05
0.000234065
6.333e-05
0.000138007
0.000199591
0.000233446
0.000252291
0.000899384
0.00147454
0.00197077
0.00226498
0.0024587
0.00250206
0.00249152
0.00233317
0.00207212
0.00168522
0.00110891
0.000515668
0.000288949
0.000253001
0.000134461
5.0661e-05
2.36449e-05
3.51941e-05
4.57842e-05
3.82162e-05
1.22022e-05
3.56471e-06
1.25686e-05
4.91394e-06
4.994e-05
3.74407e-05
8.56657e-05
0.000166929
-0.000105726
0.000704396
0.00122143
0.00153316
0.00159081
0.00142651
0.00102608
0.000489039
0.000206735
0.000144701
7.61891e-05
4.42506e-05
3.72869e-05
2.57395e-05
2.61106e-06
7.30887e-06
4.22687e-06
6.16601e-06
9.93562e-06
1.11754e-05
4.41545e-07
4.03315e-06
9.45529e-06
8.78027e-06
7.93328e-06
6.13711e-06
1.00597e-05
2.02494e-05
1.95636e-05
1.12816e-05
1.13217e-05
4.13079e-06
8.21694e-06
1.85408e-05
1.71064e-05
9.75689e-06
1.58955e-05
1.57526e-05
6.65838e-06
6.92935e-06
1.49337e-05
1.34426e-05
1.52565e-05
1.94957e-05
2.55843e-05
2.92704e-05
-4.64664e-06
5.34425e-05
9.96031e-05
9.20236e-05
3.75597e-05
3.02412e-05
2.12443e-05
2.06532e-05
2.16111e-05
2.10144e-05
7.64207e-06
8.68107e-06
3.41052e-05
2.64469e-05
8.15963e-06
1.20208e-06
4.93888e-07
4.96798e-07
6.958e-07
8.16517e-07
1.23327e-06
4.14566e-07
1.55476e-06
1.99357e-06
1.44623e-06
1.47375e-06
1.07426e-06
5.4996e-07
4.82479e-07
4.26736e-07
3.4043e-07
3.35332e-07
2.68721e-07
2.68757e-07
1.81122e-06
3.39999e-06
6.27283e-07
2.45024e-07
4.22461e-07
2.20217e-05
0.0367398
0.034735
0.0231411
0.0128939
0.00996268
0.00962647
0.00972884
0.0102899
0.011876
0.0143447
0.0151066
0.0115404
0.00807325
0.00752649
0.0308666
0.0257746
0.0300594
0.0349841
0.0372336
0.0390462
0.0404703
0.0396993
0.031123
0.0186452
0.0128271
0.011691
0.0129666
0.0164668
0.0234933
0.0286706
0.0301197
0.0289166
0.0269762
0.0257663
0.0254958
0.0259978
0.0266955
0.0262421
0.0224338
0.0152491
0.0101466
0.0117996
0.0206198
0.0323011
0.0126983
0.00787432
0.00724063
0.00919438
0.00900253
0.00381849
0.000696534
0.000474997
0.000495375
0.000666637
0.00119539
0.00224134
0.00427325
0.00775058
0.00877535
0.00893411
0.00896002
0.00890287
0.00878069
0.00867885
0.00867581
0.00890039
0.00915043
0.00877097
0.00698089
0.00396691
0.00242758
0.00162514
0.00203012
0.00402469
0.0022385
0.00209162
0.00155361
0.000858885
0.000602079
0.000872337
0.0014732
0.00177206
0.00193186
0.00209312
0.00220434
0.00212851
0.0015005
0.000478642
0.00107596
0.00234067
0.00323123
0.00420713
0.00575931
0.00696346
0.00756659
0.0078764
0.00769991
0.00726789
0.00637209
0.00478059
0.00332368
0.00278745
0.00250291
0.00218768
0.000473843
0.000197608
0.0001728
0.000487153
0.000416187
0.000434429
0.000459437
0.000315715
0.00137772
0.00228207
0.0030822
0.00337743
0.00362686
0.00364247
0.00355586
0.00343855
0.00326646
0.00283418
0.00234379
0.00194826
0.00172881
0.00161447
0.00142132
0.00130902
0.000991847
0.000928998
0.00172668
0.00201975
0.00146446
0.000539519
4.29448e-05
7.26375e-05
7.90123e-05
4.98025e-05
4.60181e-05
5.88979e-05
6.22262e-05
5.77533e-05
5.35094e-05
5.36239e-05
5.87692e-05
7.17156e-05
8.26244e-05
0.000101643
9.91523e-05
0.000100682
8.91205e-05
8.43059e-05
8.6582e-05
9.58692e-05
9.29782e-05
8.55296e-05
9.72565e-05
9.9324e-05
0.000100343
8.53172e-05
7.6246e-05
7.35571e-05
7.64431e-05
8.77802e-05
0.000209521
4.12809e-05
1.6415e-05
2.32128e-05
3.85238e-05
5.49964e-05
8.0825e-05
0.000230935
0.000361697
0.00052663
0.000228471
0.000258119
0.000218456
0.000162935
0.000136168
7.87713e-05
7.07765e-05
7.08277e-05
0.000111729
0.000130925
0.000201371
0.000233367
0.000253654
0.000226297
0.000234591
0.000272928
0.00113339
0.00347588
0.0042749
0.00237802
3.24663e-05
1.11675e-05
3.76214e-05
3.81259e-05
3.82449e-05
3.30724e-05
1.8747e-05
1.79283e-05
2.71698e-05
2.37813e-05
1.90066e-05
1.82737e-05
1.73931e-05
1.74434e-05
1.87526e-05
2.17396e-05
2.37106e-05
4.45203e-06
1.65807e-05
2.91789e-05
4.19355e-05
5.23004e-05
5.82624e-05
9.25554e-05
4.13347e-05
2.01597e-06
8.94789e-05
0.00010038
0.000100091
7.82981e-05
0.00019266
0.000311122
0.000443297
0.000742578
0.0017484
0.00266945
0.0033373
0.00471836
0.00585296
0.00604086
0.00585472
0.00498226
0.00367933
0.00297538
0.00212535
0.0010103
0.000387869
0.000307548
0.000202252
8.79185e-05
1.04594e-05
1.96419e-05
1.97219e-05
2.02579e-05
5.91014e-05
6.52622e-05
6.41586e-05
6.71797e-05
7.37295e-05
4.85984e-05
0.000202822
9.67283e-05
0.000175042
0.00023232
-4.62276e-05
0.00090356
0.00163684
0.00221977
0.00262194
0.00361751
0.00411653
0.00423296
0.00414113
0.00364958
0.002701
0.00234923
0.00180183
0.0010671
0.000358599
0.000278446
0.00019285
7.21251e-05
4.3558e-05
4.73746e-05
5.12555e-05
1.34294e-05
5.41289e-07
1.82508e-05
1.83916e-05
2.06132e-05
2.73656e-05
6.54375e-05
0.00015743
0.000113352
0.00120183
0.00217207
0.00390032
0.00540695
0.00587175
0.00506763
0.00336698
0.0021072
0.00118528
0.000196524
0.000148852
7.14931e-05
4.28357e-05
3.59782e-05
2.38897e-05
1.07165e-05
5.15575e-06
6.38384e-06
1.01441e-05
1.14913e-05
1.2858e-06
3.80008e-06
9.03435e-06
8.01195e-06
8.86093e-06
7.03521e-06
9.73922e-06
1.97606e-05
1.769e-05
6.72209e-06
7.26449e-06
1.376e-05
1.93386e-05
1.26264e-05
2.33033e-05
2.18363e-05
2.75041e-05
1.78402e-05
1.3205e-05
4.10106e-06
1.10184e-05
8.38947e-06
9.67951e-06
1.97824e-05
2.76731e-05
2.71149e-05
-1.8779e-05
5.33893e-05
0.000129154
0.000137753
9.3251e-05
5.37506e-06
2.32512e-05
1.56947e-05
1.52455e-05
2.01006e-05
1.97294e-06
8.02086e-06
1.82366e-05
6.73288e-06
9.80123e-07
6.33108e-07
3.56196e-07
6.12109e-07
7.24787e-07
1.29263e-06
1.37697e-06
3.382e-06
3.32925e-06
4.13061e-06
4.51328e-06
2.77485e-06
4.7716e-07
9.3423e-07
2.66081e-07
4.37022e-07
2.91216e-07
2.64571e-07
2.56641e-07
3.56644e-07
1.02798e-06
7.42607e-06
1.27955e-06
8.19771e-07
3.67599e-06
0.00179281
0.0385094
0.0313696
0.0160768
0.0103662
0.0101521
0.0105771
0.0104769
0.0107306
0.0123428
0.0147717
0.0154995
0.0120237
0.00820671
0.00741076
0.031154
0.0253115
0.0287636
0.0349021
0.0383033
0.0401134
0.0405956
0.0360018
0.0236464
0.0137487
0.0106718
0.0106572
0.0128339
0.0186386
0.0267411
0.0303529
0.0293957
0.0264433
0.0241131
0.0227285
0.0225265
0.0234967
0.0250843
0.0260468
0.0240304
0.0173107
0.011575
0.0120036
0.0202945
0.0319771
0.0133086
0.00887113
0.00759989
0.00924593
0.0101148
0.00609118
0.00172995
0.000511175
0.000520612
0.00090595
0.00139909
0.0025294
0.00553713
0.0083032
0.00854137
0.00864297
0.00883979
0.00884235
0.00860796
0.00838778
0.00838226
0.00852631
0.0088567
0.00893004
0.00783451
0.00472541
0.00286272
0.00185937
0.00210081
0.00398535
0.00224338
0.00214395
0.00162362
0.000799454
0.000346354
0.000483621
0.000890086
0.00122495
0.00141693
0.001775
0.00213954
0.00222656
0.00192661
0.000766655
0.0010881
0.00247796
0.00328479
0.00443307
0.00621392
0.00743474
0.00804266
0.00818675
0.00813401
0.00778466
0.00690474
0.00536171
0.00343148
0.00282858
0.00245982
0.00210433
0.000554983
0.000522229
0.00029364
0.00047656
0.000395034
0.000416677
0.000493862
0.000765285
0.00195171
0.00305262
0.00362443
0.00377958
0.00388406
0.00372544
0.00372279
0.00370292
0.00364942
0.00334158
0.00289848
0.00241171
0.00205561
0.00182486
0.00165498
0.00136553
0.00103968
0.000948061
0.0015506
0.00197942
0.00172383
0.000367119
5.71205e-05
7.38557e-05
7.99356e-05
5.46963e-05
3.96781e-05
5.05415e-05
5.16546e-05
4.85953e-05
3.04013e-05
3.05978e-05
5.16092e-05
7.06418e-05
7.91742e-05
9.47515e-05
9.41358e-05
9.92012e-05
8.55738e-05
9.49618e-05
8.72241e-05
8.26373e-05
7.36328e-05
8.98956e-05
7.62185e-05
8.33586e-05
9.17397e-05
8.67332e-05
7.82561e-05
7.13338e-05
7.79419e-05
8.24511e-05
0.000192038
4.78507e-05
7.42938e-06
1.60594e-05
2.18136e-05
3.2874e-05
1.77155e-05
0.000209224
0.000407939
0.000503836
0.00039587
0.000250791
0.000212565
0.000151816
7.08405e-05
5.10539e-05
5.73859e-06
4.08682e-05
4.16269e-05
0.000103741
0.000184449
0.000231688
0.00022649
0.000231657
0.000242638
0.000267071
0.000570649
0.00222455
0.00262883
0.00193843
9.0715e-06
3.6468e-05
2.19083e-05
3.48106e-05
3.29868e-05
2.36471e-05
2.08967e-05
9.18806e-06
2.546e-05
2.08256e-05
1.79857e-05
1.59823e-05
1.51355e-05
1.62048e-05
1.71818e-05
1.91738e-05
2.24712e-05
2.58905e-05
1.23012e-05
2.51455e-05
3.85725e-05
4.88217e-05
5.36895e-05
7.57592e-05
9.21239e-05
8.91878e-05
0.000100979
8.24245e-05
2.78698e-05
8.78799e-05
0.000205929
0.000340728
0.000473641
0.00109986
0.00222638
0.00317906
0.00501217
0.00703572
0.00805201
0.00839533
0.00792232
0.0071563
0.00572426
0.00379775
0.00277312
0.00158826
0.000277448
0.000335523
0.000249783
8.16909e-05
3.81898e-05
2.14563e-05
1.16127e-05
5.58973e-05
6.4419e-05
7.0809e-05
7.49593e-05
7.51815e-05
6.29055e-05
5.27693e-05
0.000180418
0.000170043
0.000201821
0.000263719
0.000407223
0.00139942
0.00211913
0.00268898
0.00400171
0.00463052
0.00485525
0.00495505
0.00492802
0.00468063
0.00400918
0.00281944
0.00219068
0.00147585
0.000707546
0.000308753
0.000217682
3.65503e-05
6.49246e-05
6.47265e-05
2.8637e-05
2.05244e-05
2.56122e-06
2.99773e-06
1.88935e-05
2.00735e-05
2.47452e-05
0.000114819
0.000198854
0.00105116
0.00231832
0.00637951
0.010023
0.0125968
0.0135476
0.0127138
0.0098347
0.00631033
0.00246334
0.00131583
6.2313e-05
0.000124161
4.13229e-05
4.04522e-05
3.13249e-05
1.38268e-05
6.58243e-06