/*--------------------------------*- C++ -*----------------------------------*\
| =========                 |                                                 |
| \\      /  F ield         | OpenFOAM: The Open Source CFD Toolbox           |
|  \\    /   O peration     | Version:  2.1.1                                 |
|   \\  /    A nd           | Web:      www.OpenFOAM.org                      |
|    \\/     M anipulation  |                                                 |
\*---------------------------------------------------------------------------*/
FoamFile
{
    version     2.0;
    format      ascii;
    class       volScalarField;
    location    "0.006700000";
    object      OH;
}
// * * * * * * * * * * * * * * * * * * * * * * * * * * * * * * * * * * * * * //

dimensions      [0 0 0 0 0 0 0];

internalField   nonuniform List<scalar> 
12384
(
0.00992732
0.00982543
0.00975067
0.00970295
0.00967981
0.00960585
0.00955015
0.00955415
0.00957863
0.00963271
0.00970593
0.00975846
0.0098311
0.00988235
0.00485216
0.00560194
0.00586134
0.00591325
0.00586468
0.00578807
0.00578116
0.00577123
0.00581504
0.00585259
0.00585548
0.00584947
0.00587246
0.00589908
0.0059353
0.00596954
0.00594729
0.00592987
0.00590336
0.00587761
0.00586517
0.00585469
0.00586072
0.00587624
0.00591468
0.0059334
0.0059051
0.00597607
0.00500179
0.00394196
0.00556866
0.00527421
0.004578
0.00431033
0.00415592
0.00412009
0.00399418
0.00387547
0.00370219
0.00357057
0.00344111
0.00334855
0.00331106
0.00329512
0.00326478
0.0032974
0.0033152
0.00331707
0.0032941
0.00328037
0.00324298
0.00320102
0.00315272
0.00313671
0.0031424
0.00319271
0.00339735
0.00409498
0.00521237
0.00531805
0.00342861
0.00348772
0.0035728
0.00350984
0.00340802
0.00326431
0.00319607
0.00304719
0.00298593
0.00290107
0.0028434
0.002838
0.00283886
0.00286008
0.00290568
0.00296128
0.00300763
0.00304786
0.00308058
0.00310135
0.00312156
0.00315765
0.00323271
0.00332007
0.00341922
0.00361694
0.00382409
0.00381652
0.00337818
0.00330179
0.00237446
0.00254578
0.00264555
0.00271201
0.00277037
0.00280099
0.00280338
0.00281635
0.00273985
0.00272728
0.00264498
0.00268465
0.00253195
0.00263408
0.00254224
0.00268982
0.00264848
0.00288831
0.00294709
0.00312446
0.00325951
0.00325293
0.00311568
0.00301255
0.00290947
0.00284298
0.00276013
0.002766
0.00285438
0.0030316
0.00118697
0.001255
0.00146777
0.00148623
0.00145133
0.00139191
0.0013477
0.0013641
0.00135924
0.00139052
0.00141727
0.0014359
0.00144991
0.00144215
0.00144633
0.00142198
0.0014444
0.00136063
0.00134108
0.00136728
0.00129041
0.00131166
0.00130607
0.0013071
0.00129336
0.00125486
0.00132791
0.00135663
0.0013778
0.0014567
0.00188663
0.00194686
0.00175015
0.00148755
0.00141438
0.00125385
0.001249
0.00120322
0.00124512
0.00128157
0.00131111
0.00137269
0.00137044
0.00135989
0.00134294
0.0013323
0.00136165
0.00136737
0.00137571
0.00143589
0.00147921
0.00150063
0.00158958
0.00180872
0.00335558
0.00383526
0.00382128
0.00381354
0.00379899
0.00376994
0.00227724
0.00151181
0.00141468
0.00133715
0.0012894
0.00124077
0.00118115
0.00120708
0.00112011
0.00109107
0.00108459
0.00104393
0.00101993
0.00102654
0.0010197
0.00111053
0.00114992
0.00115391
0.00120377
0.00123468
0.00139869
0.00158954
0.001579
0.00139026
0.00131159
0.00136149
0.00135659
0.00133815
0.00136973
0.0012819
0.00204033
0.00196322
0.00197005
0.00194348
0.00194576
0.00192068
0.00188711
0.00185499
0.00189951
0.00176863
0.00177186
0.00182303
0.00180371
0.00181069
0.00182607
0.00181815
0.00166915
0.00091646
0.000576096
0.000554577
0.000633081
0.000650569
0.000673266
0.000697526
0.000717234
0.000717817
0.000694033
0.000615839
0.000496726
0.000460597
0.00125455
0.00108108
0.00105602
0.00108885
0.00114339
0.00112765
0.00119768
0.00119849
0.00124718
0.00131656
0.00131117
0.00134598
0.00139173
0.00142701
0.00145778
0.00155359
0.001521
0.00154789
0.00148896
0.00111335
0.000822676
0.000785603
0.000793778
0.000819076
0.000804001
0.000814832
0.0007939
0.000783761
0.000744073
0.00072015
0.000640192
0.000654854
0.000665005
0.000625894
0.000620901
0.000618107
0.000645438
0.000608365
0.000641624
0.000652012
0.000636777
0.000650713
0.0006807
0.000718429
0.000740742
0.000742908
0.000626773
0.000503559
0.000417545
0.000416318
0.000433349
0.000423608
0.000475175
0.00048516
0.000498729
0.000481676
0.000488544
0.00045225
0.00043051
0.000411786
0.000668052
0.000747905
0.000737658
0.000710795
0.000650329
0.00055644
0.000511534
0.000508336
0.000484834
0.000510702
0.000512582
0.000493233
0.000536888
0.000533178
0.000500429
0.000500623
0.000499326
0.000493796
0.0005329
0.000523517
0.000517723
0.000513756
0.000556032
0.000564425
0.000578896
0.000638163
0.000678935
0.000701411
0.000696269
0.000638664
0.000371067
0.000353795
0.000335684
0.000387305
0.000463978
0.00123096
0.00332878
0.000525995
0.000178015
0.000188755
0.000184943
0.000179639
0.000179395
0.000173303
0.000171601
0.000173755
0.000176535
0.000180448
0.000185044
0.000195327
0.000189355
0.000222002
0.000249268
0.000275982
0.000270364
0.000246197
0.000165473
0.000119378
8.05162e-05
0.000111235
0.00928131
0.0092935
0.00916964
0.00895507
0.00874111
0.00861132
0.00859785
0.00866763
0.00885389
0.00899713
0.00927221
0.0096103
0.00982367
0.00989805
0.00487559
0.00572572
0.00599338
0.00588893
0.00573836
0.00567864
0.00573771
0.00576042
0.00572755
0.00564554
0.00561019
0.00563776
0.00575589
0.00588465
0.00594668
0.00589745
0.0058604
0.00585108
0.00584341
0.00583339
0.00579392
0.00566135
0.00558136
0.00557381
0.00567829
0.00578714
0.00594646
0.00600827
0.00552592
0.00456975
0.00558248
0.00518578
0.00464793
0.00451968
0.00451399
0.00438538
0.00405999
0.00372455
0.0034596
0.00330615
0.00312419
0.00310783
0.00319231
0.00341733
0.00373178
0.0040006
0.00422101
0.00433247
0.00434268
0.00426958
0.00411521
0.00387173
0.00362922
0.00339404
0.00325425
0.00319579
0.00326635
0.00365829
0.00460921
0.00530625
0.00345685
0.00352824
0.00352825
0.00337224
0.00316345
0.00298285
0.00279029
0.00268121
0.00262552
0.00257612
0.00254903
0.00253412
0.00256578
0.00261804
0.00274603
0.00294049
0.00314174
0.0033196
0.00344912
0.00355028
0.00357761
0.00362175
0.00361094
0.00354415
0.0035326
0.00353175
0.00370424
0.00382798
0.00366645
0.00340016
0.002173
0.002375
0.00255343
0.00270422
0.00277639
0.0027647
0.00270146
0.00264185
0.00263784
0.00260889
0.00254473
0.00252956
0.00247321
0.00253477
0.00257394
0.00264074
0.00272327
0.00283799
0.00292282
0.0030666
0.00318678
0.00329616
0.00324694
0.00307078
0.00270766
0.00245489
0.00242111
0.00234078
0.00228489
0.00236642
0.00118191
0.00129199
0.00147352
0.00145004
0.00131377
0.00126594
0.00130022
0.00138768
0.00143175
0.00145138
0.00147019
0.0014792
0.00149843
0.00149532
0.00152701
0.00150237
0.00150531
0.00152317
0.00144733
0.00146587
0.00143222
0.0014325
0.00141963
0.00138043
0.00132145
0.00128717
0.00128297
0.00139862
0.0014893
0.00142261
0.00186934
0.00174609
0.00143143
0.00124989
0.00100176
0.00103686
0.00108302
0.00129109
0.00146587
0.00158445
0.00167839
0.00169638
0.001624
0.00159126
0.00155468
0.0016108
0.001603
0.00157894
0.00159572
0.00152993
0.00156494
0.00154427
0.00159351
0.00169105
0.00222912
0.0036441
0.00382518
0.0038309
0.00386315
0.00381026
0.00148271
0.00127062
0.00120725
0.00119348
0.0012159
0.00120123
0.00115293
0.00114939
0.00105377
0.00101848
0.000949093
0.000946179
0.000963325
0.00098185
0.000970076
0.000990657
0.00105943
0.00111443
0.00113679
0.0011903
0.00128553
0.00146626
0.0015554
0.00136775
0.00135798
0.00135074
0.00130561
0.00124159
0.0012105
0.0012381
0.00197082
0.00198461
0.00201286
0.00207482
0.00217542
0.00213821
0.00217153
0.00224511
0.00214163
0.00214795
0.00215199
0.00209292
0.00204845
0.00200152
0.00187822
0.0018414
0.00180496
0.00131766
0.000673658
0.000612818
0.000719324
0.000734662
0.000751213
0.000766065
0.000761564
0.000838565
0.000940716
0.000904475
0.000760954
0.000687743
0.00135009
0.00108277
0.00109199
0.00117306
0.00123276
0.00133972
0.00144219
0.00146393
0.00150717
0.00151601
0.00155268
0.00155039
0.00158144
0.00159952
0.00164818
0.0016428
0.00163474
0.00159882
0.00158047
0.00128632
0.000892126
0.000812619
0.000841775
0.000853585
0.000847839
0.000855232
0.000861073
0.000839823
0.000800981
0.00078707
0.000634955
0.000671236
0.000676001
0.000718714
0.000742376
0.000790809
0.000791984
0.000773588
0.000791447
0.000782481
0.000764038
0.000766916
0.000766405
0.000739369
0.000755696
0.000766164
0.000724257
0.000552592
0.000416327
0.000405237
0.000408432
0.000467549
0.000499698
0.000515073
0.000535303
0.000526565
0.000523239
0.000503944
0.000457869
0.000411487
0.000536201
0.000654824
0.000704041
0.000670555
0.000589843
0.000529644
0.000511279
0.000541735
0.000518607
0.000527792
0.000549477
0.000531857
0.000547615
0.00052302
0.000503642
0.000484954
0.000521342
0.000515537
0.000516917
0.000517244
0.000514556
0.000548985
0.000544457
0.000542264
0.000548657
0.000566311
0.000627707
0.000674748
0.000690114
0.000643649
0.000399205
0.000361434
0.000297443
0.000261689
0.000314385
0.00193152
0.00117088
0.000241535
0.000171691
0.000177249
0.000171296
0.000162401
0.000157941
0.000156911
0.000155937
0.00015643
0.000155146
0.00015432
0.000152134
0.000151055
0.000160407
0.000162206
0.000174364
0.000296664
0.000311082
0.000259539
0.000156189
9.44365e-05
7.71234e-05
0.000105798
0.00905038
0.00890002
0.00818563
0.00785111
0.00783748
0.00805348
0.00821365
0.00820528
0.00822378
0.00834814
0.0086413
0.00913898
0.00960231
0.00986254
0.00489908
0.00584418
0.00602065
0.00577316
0.00558276
0.00557964
0.00557329
0.00546451
0.00530375
0.00522723
0.00551392
0.00600561
0.00625888
0.00630728
0.00623673
0.0061811
0.00619075
0.00626518
0.00632243
0.00636313
0.00640331
0.00628981
0.00611817
0.00593057
0.00564859
0.00561831
0.00576994
0.00602928
0.00584128
0.00494952
0.00557894
0.00516157
0.00481686
0.00484404
0.00484198
0.00446455
0.00371145
0.0032619
0.00311316
0.00315097
0.00308353
0.00323271
0.00361971
0.00420847
0.00475455
0.00517696
0.00535006
0.00541955
0.00543341
0.00538694
0.00527537
0.00510513
0.00470527
0.00423767
0.00374352
0.00338397
0.00324838
0.00340062
0.00407355
0.00513562
0.00347161
0.00353059
0.00343645
0.00319481
0.00294107
0.00279592
0.00274289
0.00276769
0.00284566
0.00282599
0.00279164
0.00268049
0.00257764
0.00262202
0.00284285
0.00316013
0.00348733
0.00373717
0.00393013
0.00403322
0.00409935
0.00407569
0.0040766
0.00400731
0.00385359
0.00373563
0.00369102
0.00376327
0.00377147
0.00351318
0.00208414
0.00235907
0.00263655
0.00274346
0.00270617
0.00263671
0.00259825
0.0025586
0.00254772
0.00257222
0.00250596
0.00261807
0.0025571
0.0026533
0.00264922
0.00278508
0.00280913
0.00290617
0.00295256
0.00309667
0.00313152
0.0032668
0.00328909
0.00322492
0.00281413
0.00260036
0.00252573
0.00240991
0.00212641
0.00199297
0.001182
0.00130858
0.00144864
0.00134525
0.00122409
0.00130709
0.00137265
0.00142719
0.00140995
0.00140243
0.00140745
0.00143056
0.00147958
0.00148297
0.0015458
0.00152448
0.001535
0.00151958
0.00149909
0.0014845
0.00146732
0.00145917
0.00148127
0.00146615
0.00140708
0.00134427
0.00127584
0.00130697
0.00142095
0.00142257
0.00178667
0.00151044
0.00123811
0.000928682
0.000947352
0.00106816
0.00138108
0.00163133
0.00176556
0.00188919
0.0019046
0.00186461
0.00179048
0.00171329
0.0016517
0.00168337
0.00170166
0.00165407
0.00173749
0.00164779
0.00171955
0.00164321
0.00157842
0.00160382
0.0018016
0.0027012
0.00386453
0.00385157
0.00378866
0.00370414
0.00111489
0.00120548
0.00121641
0.00119514
0.00119705
0.00115958
0.00111656
0.00106923
0.000976885
0.000976103
0.000921732
0.000871045
0.000892182
0.000886983
0.000898056
0.000956627
0.000968706
0.00103077
0.00109206
0.00110604
0.00117895
0.0013051
0.00145844
0.00148874
0.00147131
0.00146404
0.00126715
0.00131041
0.00123954
0.00118266
0.00197067
0.00201738
0.00210568
0.00223012
0.00237099
0.00240861
0.00257026
0.00262578
0.00263444
0.00272784
0.00258256
0.00253122
0.00241888
0.00227054
0.00213768
0.00197907
0.00184993
0.00157594
0.000955969
0.000673965
0.000706632
0.000725219
0.000717751
0.0007564
0.000791379
0.000960957
0.00106224
0.00112749
0.0010622
0.000810383
0.00153425
0.00117763
0.00120687
0.00130148
0.00140875
0.00149987
0.00158188
0.00162851
0.00156896
0.00168477
0.00181183
0.00184458
0.00183847
0.00183888
0.0018539
0.00170329
0.00177163
0.00170541
0.00163411
0.00152986
0.00111374
0.000839628
0.000825902
0.000815892
0.000836615
0.000892896
0.000872056
0.00083387
0.000734192
0.000739727
0.000642897
0.000754506
0.000839681
0.000903362
0.000965417
0.000922247
0.0010205
0.00105266
0.00102101
0.00101453
0.000921078
0.000823594
0.000887536
0.000847128
0.00081835
0.00077714
0.000769906
0.000586606
0.000451126
0.00039554
0.000404161
0.000449593
0.000500693
0.000525086
0.00047182
0.000441791
0.000503128
0.000504497
0.000492566
0.000416555
0.00050663
0.000622918
0.000662046
0.000617663
0.000531077
0.000529538
0.000546709
0.000597224
0.000601461
0.000606163
0.000646984
0.000613744
0.000635959
0.000597038
0.000543581
0.000536987
0.00052338
0.000580285
0.000612512
0.000639384
0.000661405
0.000672354
0.000662071
0.00063421
0.000606225
0.000583588
0.000585513
0.000644071
0.000673773
0.00064249
0.000474246
0.000490683
0.000436342
0.000315235
0.000704491
0.00121928
0.000317846
0.000171315
0.000173852
0.00016879
0.000175525
0.000167103
0.000168849
0.000171324
0.000168229
0.000159469
0.000164394
0.00015619
0.000148499
0.000142823
0.000151813
0.000147123
0.000147422
0.000224057
0.000329084
0.000233591
0.000123331
8.24402e-05
7.71998e-05
0.000147767
0.0087791
0.00789228
0.0074221
0.00771054
0.0084218
0.00885914
0.00911483
0.00902142
0.00866982
0.00833422
0.00840273
0.00871434
0.0093951
0.00986248
0.00493131
0.005967
0.00601671
0.00564181
0.00542769
0.00535806
0.00524158
0.00502832
0.00507808
0.00555335
0.00658353
0.00721362
0.00714764
0.00666595
0.00640069
0.00634236
0.00637937
0.00650119
0.00663539
0.00672541
0.00677182
0.00674703
0.00665529
0.00645839
0.00607022
0.00569878
0.00566146
0.00586451
0.00595929
0.00520041
0.00557066
0.00521427
0.00500302
0.00513544
0.00505259
0.00427384
0.00320252
0.00274656
0.00275643
0.00300525
0.00310409
0.00343666
0.00409767
0.00486094
0.00534848
0.00554984
0.00562239
0.00564121
0.00562349
0.00558313
0.00557315
0.00550238
0.00534637
0.00505698
0.00444862
0.00379291
0.00336348
0.00333057
0.00377612
0.00494755
0.00347962
0.0035129
0.00334401
0.00305377
0.00284183
0.0028314
0.00293796
0.00312325
0.00322591
0.00322535
0.00313516
0.00299799
0.00276834
0.00262613
0.00287533
0.00330021
0.00370679
0.00398291
0.00421785
0.00430477
0.00435209
0.0044319
0.00439464
0.00431106
0.00417409
0.0039574
0.00378617
0.00375086
0.00376558
0.00357247
0.00210115
0.00253321
0.0027465
0.00269696
0.00258655
0.00249869
0.00249249
0.00254326
0.00262123
0.00273755
0.00290173
0.00315143
0.00312774
0.00323684
0.00326389
0.0031975
0.00319685
0.00314515
0.00311636
0.00319322
0.00319194
0.00328736
0.00332907
0.00330594
0.00293267
0.00277749
0.00302872
0.00278652
0.00238043
0.00200707
0.00117713
0.00131261
0.0014351
0.00125028
0.00121187
0.001289
0.00136182
0.00134339
0.00132066
0.00130892
0.00132776
0.00137803
0.00144671
0.00149698
0.00151888
0.00156225
0.00152388
0.00157401
0.00154793
0.00156723
0.00153517
0.00151491
0.00150602
0.00150512
0.00144224
0.00137314
0.00130369
0.00127797
0.00135377
0.00142576
0.00166763
0.00139058
0.000966014
0.000812444
0.00100411
0.00120511
0.00150867
0.00160596
0.00185246
0.00191476
0.00187381
0.00176743
0.00171983
0.00165972
0.00161966
0.00159912
0.00159453
0.00161255
0.00168471
0.00167607
0.0017525
0.00170472
0.00166432
0.00161976
0.0016842
0.00209592
0.00341785
0.00388356
0.0037533
0.00351941
0.00125318
0.00122774
0.00118807
0.00123116
0.00116165
0.00111627
0.00105811
0.00101086
0.000939282
0.000851872
0.000808829
0.000873491
0.000848993
0.000863328
0.000833834
0.000861902
0.000874526
0.000946964
0.00101578
0.00108232
0.00110916
0.00119838
0.00138876
0.00144785
0.00159461
0.0015348
0.00127621
0.00136312
0.00133633
0.00122421
0.00196162
0.00205331
0.00219277
0.00242425
0.00253267
0.00287564
0.00314698
0.00315889
0.00335465
0.00327557
0.0033092
0.00319309
0.00299227
0.0027477
0.00241639
0.0021542
0.00196333
0.00177853
0.00134851
0.00071408
0.000700794
0.000730288
0.000741104
0.000767689
0.000936775
0.00110824
0.0011694
0.00124954
0.0012299
0.000996359
0.00162099
0.00119033
0.0012598
0.00142146
0.00154171
0.00162325
0.00167902
0.00194889
0.00214315
0.00231798
0.00237517
0.00244635
0.0024665
0.00240238
0.00232052
0.0021967
0.0019836
0.0018413
0.00174439
0.0016485
0.00126792
0.000902676
0.000833338
0.000828346
0.000880081
0.00092303
0.000876602
0.000785611
0.000751495
0.000731075
0.00078054
0.00091803
0.000949273
0.0010905
0.00126179
0.00134758
0.00141209
0.0014369
0.0014407
0.00139561
0.00136732
0.0012933
0.00116739
0.000926966
0.000901809
0.000848009
0.000794821
0.000707796
0.000544066
0.000403112
0.000387371
0.000434965
0.000505191
0.000531081
0.000458187
0.000472566
0.000486046
0.000491133
0.000485402
0.00041929
0.000496666
0.000617864
0.000632544
0.000565797
0.000521307
0.000555518
0.000593611
0.000685502
0.000691811
0.000709524
0.00071108
0.00072108
0.000697035
0.000625209
0.000595766
0.000561787
0.000533059
0.000614263
0.000673074
0.000716003
0.000765755
0.000747626
0.000788954
0.000720478
0.000726229
0.00065285
0.000600505
0.00062554
0.000651912
0.000634962
0.000475154
0.00050894
0.000715634
0.000767243
0.000764737
0.000440424
0.000170201
0.000170443
0.000171653
0.000184686
0.000194105
0.00021128
0.000229777
0.000235168
0.000226866
0.000207406
0.000179165
0.000152976
0.000150411
0.000137941
0.000145222
0.000145259
0.000136373
0.000169483
0.000339472
0.000252023
0.000121371
8.32388e-05
7.84308e-05
0.000250605
0.00790895
0.0070669
0.00747063
0.00865396
0.00935377
0.00956269
0.0096848
0.00974026
0.0095198
0.00883852
0.00836351
0.0084831
0.00916979
0.00980504
0.00490392
0.00600122
0.0060079
0.00552353
0.00525744
0.00512684
0.00497885
0.00490794
0.00536211
0.00679461
0.00785207
0.0079511
0.00739208
0.00659859
0.00638936
0.0063325
0.00654978
0.00680031
0.00706432
0.00724771
0.0072964
0.00723868
0.00704387
0.00682188
0.00650457
0.00601748
0.00566414
0.00580524
0.00601421
0.00533589
0.00558003
0.00531507
0.00517748
0.00540652
0.00527775
0.00420545
0.00290864
0.0025508
0.00259103
0.00288051
0.00312192
0.00362645
0.00450326
0.00525767
0.0055344
0.00561076
0.005612
0.00558239
0.00554626
0.00555355
0.00555511
0.00554271
0.00550554
0.0053505
0.00501446
0.00430401
0.00361634
0.00333257
0.00362876
0.00475958
0.00348101
0.00349575
0.00327728
0.00295863
0.00280482
0.00289569
0.00312111
0.0033003
0.00337367
0.00340958
0.0033856
0.0032748
0.00297878
0.00264239
0.00290824
0.00342716
0.00385154
0.00411899
0.00431308
0.00441801
0.00448883
0.00447547
0.00451958
0.00450438
0.00437855
0.0041719
0.00389969
0.00374715
0.00374177
0.00358037
0.00240365
0.00271117
0.00276215
0.00262251
0.00247555
0.00245406
0.00248834
0.00261994
0.0028961
0.00327306
0.00364385
0.00384851
0.00391155
0.00407404
0.00397985
0.0039405
0.00379453
0.00360325
0.00340649
0.00333895
0.00330827
0.00335158
0.00333378
0.0033632
0.00302993
0.00286848
0.0032878
0.00330949
0.00281151
0.00228277
0.00116925
0.00130944
0.00138516
0.0011938
0.0012017
0.00128009
0.00129315
0.00126754
0.00123619
0.00123277
0.0012736
0.00133275
0.0014332
0.0014934
0.00155292
0.00155677
0.00156453
0.00160012
0.00156693
0.00156412
0.00157836
0.00155191
0.00153992
0.00151121
0.0014951
0.00143445
0.00134249
0.00126477
0.00130955
0.00139501
0.00153059
0.00123615
0.000867874
0.000805408
0.00102584
0.00110966
0.00140278
0.00165517
0.00184968
0.0018727
0.00180445
0.00166575
0.00165335
0.00159173
0.00149678
0.00146445
0.00142836
0.00145996
0.00153298
0.00160114
0.00173911
0.00169894
0.00172728
0.00165259
0.00167835
0.00184275
0.00280617
0.00374871
0.00370725
0.00331914
0.00126153
0.00114392
0.00115289
0.00118829
0.00113586
0.00107594
0.000998847
0.000947495
0.000818613
0.000909925
0.000830513
0.000805849
0.000774173
0.000768117
0.000802508
0.000853676
0.000840514
0.000874545
0.000948997
0.00102158
0.00110294
0.00112808
0.00128208
0.00135194
0.00151264
0.00147632
0.00139357
0.00136622
0.00140566
0.00128875
0.00197692
0.00210962
0.00232666
0.00251447
0.00289717
0.00333026
0.00351862
0.00373561
0.00387726
0.00385476
0.00376744
0.00365854
0.00351304
0.00321693
0.00281953
0.00235734
0.00208921
0.00192982
0.00162357
0.0010706
0.000738253
0.000736058
0.000746438
0.000748013
0.00103255
0.00120674
0.00123281
0.00125367
0.00127956
0.00109483
0.0017046
0.00131167
0.0014371
0.00155897
0.00165082
0.00183328
0.0021712
0.0024643
0.00271052
0.0028706
0.00298749
0.00299314
0.00301292
0.00294404
0.00283752
0.00263479
0.0023722
0.00206597
0.00184391
0.00175447
0.00148922
0.00104479
0.000835195
0.000892234
0.000978912
0.000917047
0.000747228
0.000681024
0.000706511
0.00069416
0.000988858
0.00100926
0.00115398
0.00137526
0.00148259
0.00189411
0.00218424
0.00236276
0.00239993
0.00229505
0.0020433
0.00172973
0.0014876
0.00130063
0.00107472
0.000918268
0.000853385
0.000773646
0.000569452
0.000455984
0.00038807
0.000430808
0.000513881
0.000532463
0.000458593
0.000457733
0.000483607
0.000475604
0.000469859
0.000430243
0.000494171
0.00061424
0.000606161
0.000537106
0.000571666
0.000584059
0.000667757
0.000757038
0.000791722
0.000787156
0.000782957
0.000781917
0.000707173
0.000655913
0.000642201
0.00059223
0.000580614
0.000625957
0.000692364
0.000732948
0.000728791
0.000935338
0.00109952
0.00107162
0.000877496
0.000743416
0.000644961
0.000618435
0.000629686
0.000622585
0.000448166
0.000507437
0.000864915
0.00070221
0.000460362
0.000222772
0.000158462
0.0001668
0.000186417
0.000206267
0.000245314
0.00024882
0.000304579
0.000326045
0.000299227
0.000273315
0.000230258
0.000180916
0.000160692
0.000148615
0.000140781
0.000140802
0.000133234
0.00013313
0.00027338
0.0003398
0.000165107
0.000108383
0.000138398
0.000654542
0.00721794
0.00704427
0.00839346
0.00948401
0.00966604
0.00964281
0.00969758
0.0098307
0.00988582
0.00947199
0.00861721
0.00846364
0.00900855
0.00979123
0.00487702
0.00603967
0.00606657
0.0054415
0.00514037
0.00494842
0.00482514
0.00503062
0.00623738
0.00788237
0.0082095
0.00795625
0.00722764
0.00643626
0.00625293
0.00641341
0.00675617
0.00723585
0.00763992
0.00787757
0.00793034
0.00778622
0.00752238
0.00718391
0.00678275
0.00624077
0.00576682
0.00578385
0.00602967
0.00540752
0.0055483
0.00542446
0.00531472
0.00559363
0.00557562
0.0045672
0.00293091
0.00249938
0.00254156
0.00286506
0.0031831
0.00377025
0.00482759
0.00539325
0.00551227
0.00551961
0.00549806
0.00547438
0.00544326
0.00540482
0.00539811
0.00547567
0.0055268
0.00547238
0.00521653
0.0046478
0.00387274
0.00340241
0.00357092
0.00464231
0.00347913
0.00349017
0.00324513
0.00288574
0.0027488
0.002864
0.00311193
0.00324396
0.00331481
0.00339132
0.00344323
0.00341388
0.00316029
0.00268244
0.0028988
0.00347927
0.00390013
0.00417712
0.0043468
0.00447756
0.00452934
0.00457401
0.00454189
0.00448178
0.00443811
0.00428954
0.0039747
0.00375658
0.00368995
0.003537
0.00258849
0.00276785
0.00272597
0.00256276
0.00240736
0.00241082
0.00249664
0.00280902
0.00335224
0.00384754
0.00425842
0.00435207
0.00451763
0.00452458
0.00444865
0.00439467
0.00428519
0.00409023
0.00377914
0.00358988
0.00344169
0.00341318
0.00342086
0.00340529
0.00310388
0.00290886
0.00331626
0.00348597
0.00327763
0.00266302
0.00116928
0.00130815
0.00134466
0.00115871
0.00113651
0.00121903
0.00123884
0.00121015
0.00118678
0.00118901
0.00121733
0.0012979
0.0013677
0.00149598
0.00150998
0.00156287
0.0015496
0.00158692
0.00160584
0.00166089
0.00164507
0.00160278
0.00160689
0.00156366
0.00152583
0.00142536
0.00132868
0.00127608
0.00129355
0.0013744
0.00151271
0.00101627
0.000734101
0.000792066
0.000916921
0.00103607
0.00120185
0.00161038
0.00183512
0.0018913
0.00177016
0.00170049
0.00161172
0.00150211
0.00143955
0.00135068
0.00133437
0.00133337
0.00144337
0.00147987
0.00166294
0.00169938
0.00175818
0.00167612
0.00169789
0.00180053
0.0024259
0.00342793
0.00354266
0.00313583
0.00117313
0.00105717
0.00114863
0.0011456
0.00114474
0.00105798
0.000966343
0.000905926
0.00089255
0.000840192
0.000746901
0.000734971
0.000720366
0.000721211
0.000742835
0.000792073
0.000824358
0.00080856
0.000890427
0.000975866
0.00106388
0.0011363
0.00121365
0.00140771
0.00143324
0.00134332
0.00138537
0.00146011
0.00147715
0.00134122
0.00193439
0.0021269
0.00241299
0.00273959
0.00322862
0.00367791
0.00391085
0.00425673
0.00428633
0.0043033
0.0042492
0.00415839
0.00397643
0.00368817
0.00324827
0.00266598
0.00218769
0.00199912
0.00179325
0.00135154
0.000790112
0.000742221
0.000757257
0.000913358
0.00117919
0.00121926
0.00121071
0.0012348
0.0013202
0.00115424
0.00166541
0.00138931
0.00153145
0.00165321
0.0017347
0.00219722
0.00256586
0.00287889
0.00306534
0.00324465
0.00328726
0.00333287
0.00330672
0.00328929
0.00316141
0.00303579
0.00271726
0.0023649
0.00201002
0.00182067
0.00164078
0.00121278
0.000991261
0.00101993
0.00104889
0.000758979
0.000659018
0.000716362
0.000718975
0.000758739
0.000977228
0.0010908
0.00134342
0.00161779
0.00221963
0.00277112
0.0031722
0.00331767
0.00334705
0.00328051
0.00312786
0.00271963
0.00214418
0.00157821
0.00131291
0.00105876
0.000904982
0.000841244
0.000727481
0.000531087
0.000408541
0.000435604
0.000518486
0.000539935
0.000467313
0.000455015
0.000472951
0.000457435
0.000477344
0.000450039
0.000490354
0.000608472
0.000584072
0.000522746
0.000569283
0.000672268
0.000763464
0.000806544
0.000887238
0.000927512
0.000919132
0.000848382
0.000761857
0.00068643
0.000645395
0.000577785
0.000552037
0.000629043
0.000701143
0.000709316
0.000678429
0.000935472
0.00120453
0.00123377
0.0010753
0.00076356
0.000666879
0.000584089
0.00057901
0.000611862
0.000338052
0.000446371
0.000612143
0.00042643
0.000237928
0.000169123
0.000152612
0.000178057
0.00019796
0.000250764
0.000295732
0.000394025
0.000448467
0.000469599
0.00044929
0.000364261
0.000251801
0.000217059
0.000154301
0.00014991
0.000135064
0.000133041
0.000131981
0.000133496
0.000209768
0.00044308
0.000251219
0.000185117
0.000339127
0.00245342
0.00691923
0.00748713
0.00920882
0.00950461
0.00911227
0.00874676
0.00895713
0.00954439
0.00993311
0.00970921
0.00878586
0.0084996
0.0090116
0.00976849
0.00480911
0.00596127
0.00617175
0.00547399
0.0050637
0.00487795
0.00485336
0.00545769
0.00723388
0.0082717
0.00797797
0.00765147
0.00695158
0.00635973
0.00621589
0.00652416
0.00707236
0.00771027
0.00823733
0.00852959
0.00856228
0.0082782
0.00790348
0.00749115
0.00701803
0.0064804
0.00588068
0.00580429
0.00604022
0.00543489
0.0055336
0.00555532
0.00543121
0.00568835
0.00582279
0.00519823
0.00348404
0.00257907
0.00259832
0.00297227
0.00325616
0.00391407
0.00509052
0.00546452
0.00545994
0.00543417
0.00542427
0.00542387
0.00539185
0.0053402
0.00533849
0.00534304
0.00542287
0.00547595
0.0053566
0.00492985
0.00407681
0.00352502
0.00360578
0.00460413
0.00348246
0.0035119
0.00328326
0.00286373
0.00262578
0.00268154
0.00287382
0.00299161
0.00308293
0.00324979
0.00341758
0.00345721
0.00333853
0.00277937
0.00290639
0.00354075
0.0039012
0.00417985
0.00440099
0.00448414
0.00453977
0.00459381
0.00460602
0.00460019
0.00445015
0.00429575
0.00398723
0.00373118
0.00361184
0.00344375
0.00272032
0.00288308
0.00277345
0.0025388
0.00236282
0.00237062
0.00257447
0.00304621
0.00368846
0.00428098
0.00452576
0.00463639
0.00475794
0.00463626
0.00464515
0.00462287
0.00458888
0.00436997
0.0041437
0.00385509
0.00363155
0.003523
0.00355576
0.00342604
0.00315485
0.0029394
0.00322232
0.00346369
0.00339472
0.00276636
0.00121295
0.00131719
0.00135094
0.00115085
0.0010953
0.00116496
0.00117037
0.00115339
0.00109693
0.00110142
0.00117637
0.00125973
0.00134537
0.00144902
0.00147754
0.00155479
0.00153131
0.0016479
0.00161239
0.00165373
0.00160882
0.00163021
0.00154802
0.0015193
0.00151127
0.00143529
0.00134281
0.00126047
0.00128058
0.00133603
0.00145446
0.000953393
0.000662455
0.000734869
0.000781691
0.000871784
0.0010232
0.00154317
0.0018088
0.00186862
0.0018188
0.00167531
0.0015956
0.00147491
0.0013218
0.00128118
0.00124963
0.00126024
0.00134161
0.0014177
0.00162852
0.00170161
0.00172179
0.00169293
0.00172216
0.00178452
0.00216293
0.00300151
0.0032399
0.00292937
0.00104477
0.00107381
0.00105551
0.00112744
0.00111087
0.00099366
0.000981669
0.000844138
0.000866193
0.00077702
0.000730366
0.000697236
0.000663618
0.00068263
0.000699968
0.000749786
0.000804257
0.000860267
0.000862192
0.000948697
0.00104098
0.00111203
0.00118519
0.00132347
0.00142554
0.00138461
0.00146378
0.00153295
0.00149232
0.00140271
0.00189401
0.00219004
0.00247267
0.00288849
0.00347355
0.003884
0.00425912
0.00445597
0.0045017
0.00447594
0.00442216
0.00431013
0.00416479
0.00398291
0.00359846
0.00296731
0.00231456
0.00206604
0.00190302
0.00151201
0.000992553
0.000786011
0.000801564
0.00115766
0.00121142
0.00122599
0.00125622
0.00126113
0.00124296
0.00118112
0.00161385
0.00152887
0.00160464
0.00174706
0.00198832
0.00246868
0.00282788
0.0031354
0.0032638
0.00334091
0.00335803
0.00339603
0.0034667
0.00338863
0.0033819
0.00329425
0.00295449
0.00258297
0.00220296
0.00190488
0.00170475
0.00124096
0.00115788
0.00115503
0.000877384
0.00075711
0.000673332
0.000676413
0.00072786
0.000749205
0.000966271
0.00120299
0.00147929
0.0021488
0.00286087
0.00342926
0.00365424
0.0035958
0.00357411
0.00354825
0.00357144
0.00340873
0.0029466
0.00224363
0.00151395
0.00123119
0.000958113
0.000882994
0.000797643
0.000599634
0.000439984
0.000447965
0.000523062
0.000536722
0.000486223
0.000464575
0.000470932
0.000454282
0.000453556
0.000474426
0.000487618
0.000599779
0.000568588
0.000543991
0.000608079
0.000681809
0.000807323
0.000911479
0.00103343
0.00108829
0.00103941
0.000958587
0.000762673
0.00071904
0.000640048
0.000613328
0.000547622
0.000621009
0.000696528
0.000670022
0.000710026
0.000743303
0.000980775
0.00113302
0.00101016
0.000711205
0.000652524
0.000571521
0.000560933
0.00057508
0.00028121
0.000319202
0.000373039
0.000251216
0.000178067
0.000144767
0.000161938
0.00017711
0.000227985
0.000265361
0.000395401
0.000526759
0.000680766
0.000716907
0.000627587
0.000444133
0.000341758
0.000251428
0.000171383
0.000146124
0.000137507