/*--------------------------------*- C++ -*----------------------------------*\
| =========                 |                                                 |
| \\      /  F ield         | OpenFOAM: The Open Source CFD Toolbox           |
|  \\    /   O peration     | Version:  2.1.1                                 |
|   \\  /    A nd           | Web:      www.OpenFOAM.org                      |
|    \\/     M anipulation  |                                                 |
\*---------------------------------------------------------------------------*/
FoamFile
{
    version     2.0;
    format      ascii;
    class       volScalarField;
    location    "0.006700000";
    object      rhoUnburned;
}
// * * * * * * * * * * * * * * * * * * * * * * * * * * * * * * * * * * * * * //

dimensions      [1 -3 0 0 0 0 0];

internalField   nonuniform List<scalar> 
12384
(
2.52506
2.56852
2.5849
2.59401
2.60048
2.60538
2.59817
2.58096
2.55529
2.52858
2.50373
2.48803
2.47019
2.33389
4.38162
4.03035
3.84745
3.76142
3.73814
3.74312
3.75086
3.76698
3.79826
3.84122
3.89535
3.93853
3.97716
4.00521
4.03198
4.05932
4.08684
4.10186
4.11226
4.12087
4.12363
4.12356
4.1169
4.10426
4.07692
4.01882
3.91659
3.76215
4.03215
4.47704
4.25632
4.23767
4.48862
4.61415
4.66964
4.67675
4.69956
4.6706
4.68299
4.65489
4.63957
4.6178
4.59881
4.5773
4.56315
4.54952
4.54437
4.54266
4.55096
4.56218
4.57899
4.60012
4.62099
4.63307
4.64953
4.67215
4.68041
4.57701
4.29604
4.23439
4.9585
4.834
4.74129
4.74807
4.77244
4.81245
4.81533
4.8451
4.82149
4.82365
4.80717
4.78351
4.76591
4.75379
4.74256
4.73888
4.7484
4.77067
4.79211
4.80845
4.82633
4.82959
4.81443
4.74808
4.69703
4.64791
4.57322
4.61639
4.87559
4.88273
4.42227
4.34445
4.3349
4.35207
4.37772
4.40672
4.43793
4.46899
4.51653
4.5449
4.60895
4.60714
4.7087
4.66932
4.72778
4.66633
4.69694
4.55445
4.51253
4.3963
4.28464
4.37812
4.89161
4.92192
4.91858
4.87344
4.86349
4.83484
4.83994
4.8593
4.59541
4.61398
4.62282
4.65414
4.71074
4.73675
4.73939
4.69345
4.6633
4.63895
4.61659
4.60307
4.58591
4.58457
4.56735
4.60453
4.56974
4.65268
4.68999
4.6656
4.72946
4.71308
4.71668
4.71452
4.73503
4.82019
4.80886
4.66821
4.65344
4.62439
6.98187
7.26111
7.21396
6.91636
6.6783
6.38514
6.18169
6.09145
6.05812
6.05968
6.09021
6.13532
6.19277
6.24808
6.27969
6.30676
6.23758
6.3418
6.1389
6.13103
6.03149
6.01642
6.17251
6.14462
6.65981
6.63873
6.66106
6.69111
6.73529
6.79559
5.32127
4.99925
4.74689
4.65322
4.62257
4.61607
4.64371
4.64658
4.70414
4.76487
4.75755
4.85294
4.81663
4.81125
4.78478
4.74472
4.68969
4.65614
4.59117
4.58458
4.69726
4.89856
4.94145
4.96828
4.93639
4.95019
4.91439
4.91654
4.90079
4.91484
4.7966
4.6897
4.68669
4.71516
4.73397
4.76816
4.88154
4.87219
4.88848
4.99298
4.97441
4.9813
4.94666
4.91678
4.86508
4.83229
4.84776
4.92439
5.04309
5.07812
5.07153
5.07613
5.04762
5.02617
4.99881
4.9971
5.01743
5.07043
5.1088
5.08816
5.64067
5.35567
5.22749
5.22082
5.25744
5.34066
5.42377
5.55534
5.59645
5.67463
5.74202
5.76197
5.6558
5.69261
5.6182
5.49824
5.4346
5.36667
5.30121
5.3095
5.40135
5.39569
5.41232
5.3885
5.42866
5.39409
5.41056
5.40085
5.43602
5.46706
6.27133
6.13753
6.01784
5.92545
5.89611
5.85841
5.88331
5.8682
5.90725
5.89941
5.84188
5.83059
5.817
5.78874
5.78915
5.79394
5.8429
5.96691
5.959
5.85306
5.78639
5.78563
5.80769
5.84203
5.88247
5.97102
5.88775
5.95558
5.94104
6.07558
7.10593
7.14878
7.19557
7.14129
7.14557
7.09118
6.78492
6.69148
6.5705
6.57782
6.41985
6.46685
6.31954
6.33136
6.30268
6.31188
6.33925
6.38888
6.45722
6.5528
6.65912
6.78354
6.91619
7.06822
7.25079
7.35587
7.38187
7.39657
7.40085
7.36228
6.62371
6.5638
6.57654
6.81512
6.94236
7.68773
8.11752
6.78467
4.66797
4.64888
4.65783
4.59631
4.61505
4.56456
4.56058
4.5447
4.55187
4.56717
4.60534
4.6774
4.79529
4.97752
5.25821
5.47424
5.50584
5.29451
4.96638
4.53003
4.16743
4.59745
2.70969
2.7092
2.73705
2.78883
2.84794
2.87343
2.8743
2.84743
2.78742
2.6913
2.58197
2.4989
2.46305
2.3465
4.37309
3.95059
3.73886
3.69662
3.72948
3.77599
3.82765
3.89956
3.97432
4.03861
4.07683
4.08384
4.06366
4.06202
4.0927
4.1232
4.14444
4.14537
4.14322
4.14263
4.15969
4.18458
4.21037
4.2196
4.2082
4.15966
4.05106
3.84713
3.87232
4.20636
4.24676
4.26697
4.49566
4.58978
4.61101
4.62024
4.6381
4.63981
4.64763
4.62326
4.61054
4.58064
4.54363
4.49643
4.44693
4.40754
4.37978
4.36714
4.36711
4.37906
4.40205
4.44263
4.47332
4.51588
4.55846
4.60731
4.65608
4.63173
4.45899
4.25802
4.93132
4.79116
4.73623
4.75261
4.78286
4.79604
4.80792
4.79441
4.78478
4.76379
4.74858
4.74034
4.7273
4.72386
4.73942
4.76282
4.79425
4.82734
4.86657
4.89778
4.91904
4.90997
4.8882
4.84831
4.79372
4.75866
4.67527
4.62268
4.70901
4.83538
4.52461
4.39977
4.36984
4.41851
4.47684
4.52548
4.57771
4.62068
4.65086
4.6677
4.7338
4.75531
4.79662
4.79374
4.81731
4.78624
4.74111
4.67956
4.61695
4.52619
4.392
4.33164
4.53952
4.81833
4.91318
4.84674
4.78574
4.74253
4.72057
4.74566
4.60109
4.62961
4.66013
4.7274
4.76701
4.73449
4.65352
4.61377
4.61126
4.62333
4.62403
4.62202
4.60329
4.58742
4.54724
4.55367
4.54581
4.51866
4.54245
4.51261
4.51934
4.51214
4.52773
4.56864
4.63516
4.7468
4.81225
4.75426
4.64763
4.60212
6.96486
7.01698
6.72652
6.4343
5.92909
5.76922
5.82006
5.9196
6.04447
6.15198
6.23173
6.29595
6.36347
6.39916
6.40036
6.3676
6.31574
6.25897
6.14737
6.08269
5.98502
5.9628
6.04408
6.04367
6.32189
6.57674
6.66624
6.6813
6.66087
6.78802
4.90517
4.57492
4.50951
4.51269
4.53273
4.54763
4.60526
4.60637
4.70334
4.67651
4.77975
4.79281
4.81768
4.8046
4.78965
4.80001
4.75757
4.73142
4.66699
4.61779
4.59964
4.77293
4.94088
5.00049
4.9709
4.96789
4.91744
4.88094
4.82914
4.78101
4.71472
4.72631
4.75547
4.78185
4.82184
4.90975
4.95
4.95596
5.09229
5.07817
5.08238
5.09679
5.07849
5.03132
4.98413
4.90762
4.85638
4.87599
4.98311
5.05809
5.04337
5.02646
4.98345
4.94589
4.87937
4.78333
4.70308
4.77421
5.0049
5.11481
5.71158
5.4685
5.2501
5.26455
5.40634
5.57013
5.7454
5.89668
6.03008
6.11824
6.12601
6.18672
6.15646
6.03253
5.88863
5.80676
5.65859
5.50703
5.37754
5.28566
5.35502
5.38177
5.38318
5.40557
5.43516
5.4432
5.40524
5.33032
5.28923
5.32258
6.33315
6.05525
5.90001
5.85695
5.89254
5.95113
6.01711
6.09689
6.06619
6.07134
6.0735
5.9967
5.93178
5.87753
5.83712
5.80495
5.78756
5.90421
5.89585
5.78626
5.75471
5.82683
5.97404
6.15153
6.25327
6.32399
6.27701
6.10941
5.94702
6.02454
7.04061
7.09987
7.14783
7.13762
7.10004
6.74384
6.40055
6.21942
6.11962
6.10313
6.07517
6.15824
6.15732
6.2314
6.29739
6.35513
6.4106
6.48049
6.56167
6.64851
6.72719
6.78841
6.82878
6.89992
7.00142
7.17167
7.34572
7.39056
7.39771
7.37711
6.46577
6.35673
6.05939
5.91592
6.21286
7.84563
7.69898
5.13534
4.53678
4.48669
4.38652
4.2606
4.21074
4.1733
4.17112
4.17485
4.19771
4.226
4.26665
4.30674
4.3664
4.4686
4.81648
5.46748
5.65714
5.29253
4.77044
4.31622
4.1117
4.67111
2.74284
2.77475
2.92032
3.01001
3.03708
3.00849
2.9861
2.98946
2.98087
2.93189
2.78361
2.58853
2.47421
2.35335
4.3549
3.8751
3.68879
3.70655
3.79863
3.87601
3.94867
4.02174
4.06252
4.04969
3.93593
3.79008
3.74644
3.81066
3.90124
3.94037
3.92458
3.86802
3.81517
3.78304
3.78773
3.83908
3.93675
4.05905
4.16386
4.20197
4.16508
3.97895
3.84247
4.05556
4.24616
4.27641
4.45213
4.48862
4.49339
4.54755
4.61522
4.62594
4.64118
4.6218
4.60823
4.56491
4.49451
4.40788
4.33467
4.27144
4.23345
4.22045
4.22055
4.23421
4.26115
4.29464
4.34782
4.40199
4.46341
4.52938
4.60242
4.64258
4.56051
4.32016
4.91369
4.76846
4.73376
4.75053
4.78016
4.77289
4.78259
4.76642
4.76986
4.76689
4.74544
4.7348
4.7284
4.73506
4.76459
4.81355
4.85663
4.89352
4.92662
4.95143
4.95765
4.98922
4.95849
4.90624
4.86487
4.82412
4.77282
4.68753
4.66413
4.77713
4.58894
4.42829
4.43085
4.49982
4.55404
4.59272
4.62142
4.63565
4.62426
4.62498
4.65901
4.62533
4.65967
4.67455
4.68656
4.66453
4.66128
4.64689
4.61984
4.58331
4.51172
4.39515
4.39548
4.58993
4.87383
4.84728
4.80193
4.72179
4.67549
4.65811
4.60706
4.65188
4.7038
4.77077
4.75833
4.65634
4.62485
4.66692
4.72067
4.74522
4.74426
4.71784
4.65778
4.60226
4.51831
4.48607
4.41857
4.37823
4.34071
4.32921
4.33354
4.34735
4.37693
4.42513
4.50669
4.63504
4.7742
4.80967
4.72365
4.61799
6.94552
6.75973
6.48516
5.88827
5.60718
5.76188
6.02286
6.23802
6.35972
6.40926
6.43196
6.41093
6.36959
6.30228
6.23331
6.15466
6.12412
6.12482
6.0605
6.03611
5.98568
5.90233
5.93824
5.99297
6.11397
6.35367
6.6728
6.65772
6.4928
6.61441
4.49899
4.47526
4.49787
4.52416
4.55894
4.57769
4.61157
4.62661
4.64983
4.67975
4.73509
4.72074
4.75845
4.78029
4.7849
4.77229
4.76406
4.75828
4.73764
4.69312
4.63273
4.67473
4.84607
5.01725
5.02139
4.99244
4.91016
4.85618
4.81347
4.74288
4.7417
4.76062
4.78879
4.82174
4.87696
4.9671
4.9446
5.04817
5.10773
5.07994
5.16966
5.16678
5.15448
5.12139
5.0665
5.01063
4.93187
4.88574
4.9355
5.01474
5.05185
5.04163
5.03303
4.99881
4.9123
4.73013
4.5683
4.48669
4.66428
5.04752
5.68191
5.37668
5.26434
5.40975
5.64409
5.88739
6.04672
6.18165
6.33996
6.36601
6.40102
6.34587
6.35077
6.29794
6.15134
6.0688
5.89912
5.7378
5.55765
5.38106
5.31687
5.37191
5.38435
5.43893
5.46967
5.49411
5.50706
5.37095
5.24834
5.23369
5.94552
5.78339
5.85643
5.99134
6.13224
6.27947
6.37467
6.38641
6.48489
6.43156
6.32696
6.2845
6.19692
6.09577
5.9997
5.91265
5.82331
5.84541
5.87877
5.77506
5.7546
5.89137
6.09107
6.34143
6.4655
6.60683
6.521
6.37752
6.03488
5.99018
7.02893
7.08974
7.12602
7.0962
6.86305
6.33392
6.01475
5.84947
5.73571
5.73307
5.68351
5.79988
5.95067
6.1279
6.32371
6.51652
6.67604
6.85503
7.00549
7.08953
7.14027
7.18909
7.21054
7.20074
7.14869
7.16923
7.28821
7.3649
7.38831
7.37351
6.82714
6.91274
6.76408
6.44618
7.09167
7.71053
5.81025
4.56015
4.39042
4.2693
4.13311
4.07075
4.04002
4.02447
4.0233
4.04286
4.07654
4.13194
4.20851
4.28209
4.32549
4.33921
4.43317
5.06214
5.70816
5.18904
4.49985
4.12996
4.11686
5.06778
2.79603
2.9551
3.07211
3.05812
2.93053
2.80511
2.73561
2.75848
2.85186
2.9468
2.92073
2.72999
2.51407
2.35817
4.34161
3.81693
3.66796
3.75146
3.86937
3.9364
3.98324
4.00876
3.95745
3.76989
3.50779
3.35742
3.43509
3.66347
3.80598
3.80285
3.7088
3.59439
3.50345
3.44865
3.43281
3.46149
3.55482
3.72929
3.9553
4.14473
4.19477
4.08928
3.86016
3.97231
4.24785
4.2527
4.37056
4.36192
4.38132
4.50264
4.60433
4.62639
4.6306
4.617
4.60665
4.54298
4.44049
4.33242
4.23269
4.19007
4.17519
4.17275
4.17865
4.18968
4.19121
4.21145
4.24683
4.3042
4.37726
4.45954
4.54972
4.62567
4.60449
4.38614
4.90389
4.76079
4.73029
4.74802
4.76981
4.75888
4.78207
4.78809
4.80302
4.81295
4.79986
4.75834
4.73371
4.74668
4.79335
4.85827
4.9098
4.93894
4.94346
4.92976
4.92407
4.88578
4.90792
4.92434
4.9124
4.89245
4.84218
4.7573
4.68735
4.75516
4.5387
4.40661
4.48291
4.53518
4.57404
4.61008
4.61887
4.58893
4.55148
4.52725
4.48266
4.43179
4.48006
4.44018
4.44263
4.47605
4.47574
4.51421
4.53148
4.55547
4.53584
4.4672
4.37677
4.4585
4.76291
4.85958
4.81045
4.75764
4.67363
4.6216
4.62047
4.6709
4.74626
4.79458
4.72064
4.65417
4.69689
4.75827
4.78763
4.78917
4.78401
4.75278
4.67212
4.57434
4.47868
4.34044
4.24375
4.12314
4.06272
4.01705
4.04756
4.09399
4.16915
4.2664
4.38251
4.52952
4.6974
4.80798
4.77129
4.65203
6.89426
6.57999
6.25879
5.4503
5.61155
5.92656
6.14463
6.36019
6.45757
6.47177
6.41555
6.30759
6.12986
5.94573
5.80077
5.69897
5.64966
5.65267
5.73143
5.80129
5.84774
5.87444
5.87733
5.89765
6.0018
6.17211
6.59318
6.63074
6.4901
6.47353
4.43394
4.47253
4.49953
4.52626
4.57037
4.58513
4.6017
4.59468
4.62022
4.64025
4.63349
4.65819
4.69146
4.67429
4.68575
4.72041
4.72608
4.74754
4.75801
4.74981
4.68638
4.65917
4.73573
4.96484
5.02456
4.98259
4.88164
4.80128
4.76611
4.72007
4.77001
4.77642
4.81663
4.85981
4.95445
4.95572
4.97766
5.12162
5.04314
5.16149
5.10714
5.13862
5.17068
5.16983
5.14615
5.08437
5.01123
4.93493
4.91565
4.99045
5.0348
5.03772
5.01913
4.99025
4.85989
4.69724
4.58346
4.44436
4.44546
4.86824
5.68628
5.21914
5.32372
5.63106
5.90285
6.0735
6.27483
6.31302
6.46027
6.4841
6.57047
6.53396
6.40552
6.35109
6.28078
6.16602
6.07638
5.9352
5.75178
5.52079
5.34487
5.33205
5.37285
5.40078
5.44642
5.49739
5.43428
5.39617
5.27182
5.14684
5.65308
5.87297
6.11726
6.32024
6.48428
6.62034
6.72349
6.87065
6.88734
6.92842
6.80818
6.58128
6.42516
6.33003
6.20927
6.07505
5.93571
5.85591
5.86743
5.803
5.77153
5.89779
6.11308
6.3749
6.5719
6.68992
6.61868
6.41782
6.11965
5.95911
7.0291
7.09804
7.10197
7.07174
6.46023
5.97097
5.68171
5.44129
5.27233
5.198
5.2138
5.2691
5.51776
5.83929
6.16555
6.48547
6.79705
7.08543
7.23479
7.23756
7.25837
7.3136
7.34405
7.35705
7.3241
7.25197
7.28966
7.34628
7.37256
7.36694
6.8381
7.20214
7.38515
7.35714
7.23998
6.32992
4.83047
4.34155
4.23813
4.08865
3.99442
3.96746
3.94833
3.9461
3.94765
3.9512
3.97333
4.02284
4.11536
4.24576
4.36231
4.3766
4.35389
4.60748
5.79046
5.36398
4.46976
4.14458
4.24904
5.90067
2.9167
3.0958
3.0742
2.87008
2.6544
2.55347
2.51636
2.52278
2.61113
2.80147
2.93222
2.82958
2.56194
2.36041
4.34468
3.79977
3.66609
3.78422
3.90159
3.94461
3.96714
3.94287
3.78491
3.42221
3.15723
3.12132
3.32653
3.68826
3.78233
3.6858
3.51892
3.37889
3.2793
3.22109
3.20522
3.22689
3.29716
3.44001
3.69706
3.9903
4.17308
4.13329
3.89424
3.93378
4.24458
4.20973
4.28117
4.23314
4.26441
4.45638
4.59846
4.60299
4.62367
4.62387
4.61122
4.52507
4.38882
4.25794
4.19916
4.18167
4.183
4.19036
4.19792
4.19199
4.19241
4.19634
4.20752
4.24455
4.31678
4.39714
4.49661
4.60615
4.62449
4.43047
4.90101
4.75843
4.72392
4.74434
4.75897
4.76662
4.79347
4.82254
4.84544
4.85224
4.85456
4.81766
4.75766
4.75233
4.81772
4.90274
4.94575
4.96745
4.94381
4.91773
4.8923
4.91528
4.87991
4.87651
4.90709
4.93286
4.90874
4.82187
4.73332
4.7697
4.43014
4.44975
4.52725
4.54912
4.58522
4.6097
4.59168
4.53251
4.45898
4.38618
4.30519
4.28769
4.27118
4.22636
4.24767
4.26135
4.28176
4.34199
4.39493
4.47878
4.51318
4.48791
4.40589
4.40467
4.65553
4.85862
4.82362
4.76033
4.71389
4.63709
4.62845
4.6861
4.77885
4.79714
4.7102
4.6988
4.75008
4.78837
4.77764
4.75617
4.7716
4.76597
4.68072
4.57899
4.40973
4.25297
4.07289
3.93671
3.83604
3.78117
3.77984
3.84681
3.96614
4.11235
4.26379
4.42534
4.61524
4.78567
4.80639
4.68657
6.88401
6.43639
5.84786
5.3809
5.61298
5.83837
6.08214
6.36043
6.48792
6.50857
6.41114
6.21964
5.92626
5.66774
5.45473
5.30223
5.22612
5.24899
5.32395
5.48392
5.63565
5.74971
5.80421
5.83579
5.94747
6.07112
6.38608
6.59547
6.4698
6.36987
4.46588
4.45881
4.48158
4.54199
4.57681
4.59362
4.59392
4.57492
4.60847
4.5563
4.62595
4.64055
4.67457
4.70577
4.67849
4.66632
4.69138
4.7133
4.74352
4.76839
4.72852
4.68452
4.68676
4.86333
4.96625
4.93754
4.84358
4.79545
4.7327
4.69986
4.75189
4.79891
4.84471
4.92837
4.98002
4.94404
5.06838
5.07137
5.08481
5.13393
5.18723
5.21199
5.17811
5.18927
5.19705
5.15873
5.06588
4.9839
4.94465
4.95284
4.99096
5.00605
4.99707
4.93668
4.797
4.68394
4.66619
4.54425
4.4008
4.69541
5.55482
5.19566
5.53557
5.84671
6.04615
6.19338
6.30183
6.41742
6.50712
6.54864
6.51401
6.58981
6.5123
6.41816
6.29391
6.23032
6.13463
6.06565
5.88968
5.66388
5.41349
5.3318
5.36063
5.38871
5.44165
5.39218
5.31486
5.28548
5.26894
5.14053
5.88156
6.1709
6.3973
6.56545
6.74437
6.85783
6.94154
6.95236
6.94978
6.97042
7.04979
7.04716
6.81987
6.55915
6.39618
6.2577
6.0924
5.93329
5.87444
5.83441
5.79628
5.89487
6.08281
6.3775
6.5913
6.77876
6.69261
6.43914
6.12161
5.94388
7.02291
7.09356
7.0877
6.80576
6.12308
5.68302
5.33792
5.08001
4.88503
4.77705
4.84878
4.90672
5.11958
5.48721
5.96022
6.39273
6.81518
7.21833
7.34175
7.26945
7.2655
7.31787
7.37035
7.42547
7.40324
7.34093
7.28155
7.33513
7.35343
7.38254
6.60555
7.21359
7.53798
7.18254
6.40141
5.24037
4.43936
4.22622
4.11007
3.98106
3.93562
3.92875
3.92083
3.92151
3.91945
3.92382
3.92939
3.9535
4.02123
4.16563
4.33197
4.41339
4.37423
4.36415
5.61738
5.73152
4.84407
4.40732
4.90297
6.88682
3.02856
3.11527
2.91542
2.64171
2.53031
2.52727
2.5153
2.49736
2.51975
2.6542
2.87276
2.87174
2.611
2.36332
4.36479
3.79311
3.65597
3.79824
3.90925
3.94105
3.94741
3.86405
3.54388
3.13845
3.02508
3.08354
3.38096
3.76264
3.7522
3.55798
3.369
3.21993
3.1101
3.04314
3.03095
3.06663
3.13783
3.25864
3.48462
3.83041
4.12908
4.14135
3.92118
3.91756
4.26181
4.16434
4.20318
4.13327
4.13474
4.3656
4.58116
4.60014
4.62013
4.64873
4.62053
4.51085
4.35308
4.22639
4.20638
4.21013
4.21962
4.22687
4.22971
4.24262
4.24025
4.21371
4.19853
4.21251
4.27188
4.37179
4.46847
4.59001
4.63885
4.46277
4.90489
4.76081
4.72
4.74048
4.75136
4.77342
4.80322
4.83537
4.85609
4.87361
4.88887
4.87361
4.80543
4.76326
4.84184
4.94795
4.99135
4.99113
4.94763
4.90855
4.89597
4.85547
4.88401
4.91301
4.9179
4.94885
4.95431
4.88421
4.78602
4.80284
4.41072
4.5119
4.56202
4.55341
4.58356
4.60298
4.56342
4.47346
4.36457
4.26484
4.17924
4.16554
4.08465
4.07824
4.08217
4.10137
4.12337
4.19754
4.25864
4.38119
4.43413
4.48827
4.40489
4.38277
4.58421
4.84422
4.82712
4.77389
4.71469
4.66037
4.63368
4.71337
4.80476
4.81236
4.74782
4.73102
4.76566
4.75916
4.67163
4.63318
4.72111
4.76655
4.72398
4.57037
4.41948
4.18999
3.98531
3.80571
3.70373
3.62094
3.62821
3.66056
3.78077
3.96961
4.16499
4.35709
4.56275
4.75239
4.81765
4.70945
6.82071
6.25569
5.46462
5.34665
5.47545
5.59737
5.93265
6.38136
6.54075
6.54042
6.43653
6.16396
5.80972
5.4701
5.21764
5.04473
4.97793
4.98287
5.04401
5.2092
5.39701
5.5975
5.69351
5.78974
5.90216
6.00804
6.24922
6.51626
6.44207
6.2165
4.46954
4.41449
4.47035
4.54723
4.56628
4.63756
4.57309
4.60599
4.54569
4.59796
4.66009
4.65474
4.66531
4.65961
4.65325
4.6636
4.67218
4.69665
4.71234
4.76263
4.74454
4.70912
4.67047
4.76873
4.85592
4.833
4.80003
4.7818
4.72558
4.66821
4.76322
4.82329
4.87887
4.97429
4.96762
4.98273
5.08382
4.99659
5.06649
5.0651
5.08324
5.11476
5.17275
5.15053
5.16138
5.20014
5.14241
5.03384
4.96545
4.95343
4.97047
4.99296
4.94748
4.82193
4.75847
4.80697
4.83742
4.73298
4.45557
4.58415
5.42876
5.37559
5.73598
5.93374
6.10097
6.22055
6.37706
6.45779
6.60063
6.53937
6.53621
6.45775
6.47275
6.4217
6.39277
6.16682
6.18208
6.09748
5.98236
5.77482
5.4597
5.27962
5.29795
5.32968
5.37294
5.22432
5.23014
5.25069
5.22677
5.12037
6.1667
6.37768
6.5688
6.69529
6.83001
6.85361
6.82105
6.82117
6.85215
6.85075
6.81507
6.86955
7.01656
6.93066
6.62587
6.40845
6.23536
6.05
5.91758
5.86521
5.81579
5.8876
6.05349
6.32079
6.56846
6.8362
6.81767
6.56255
6.15213
5.97091
7.03836
7.09309
7.07974
6.52663
5.89561
5.42703
5.08615
4.80062
4.66669
4.58697
4.63392
4.69929
4.90672
5.18706
5.72688
6.28107
6.77274
7.23738
7.3895
7.27387
7.25003
7.29354
7.40929
7.516
7.48402
7.34557
7.30812
7.30836
7.36075
7.35644
6.18309
6.86256
7.21558
6.43052
5.468
4.683
4.27263
4.14473
4.02132
3.93162
3.91441
3.93093
3.91768
3.93156
3.93071
3.93472
3.92935
3.9351
3.97117
4.08947
4.29307
4.42299
4.395
4.29382
5.11255
6.28005
5.59879
5.26044
6.12545
7.76808
3.06584
3.0444
2.72548
2.57308
2.66027
2.76583
2.7048
2.56831
2.51694
2.60022
2.82446
2.87407
2.63138
2.36239
4.38733
3.8346
3.63942
3.78164
3.90354
3.93177
3.92512
3.75409
3.29898
2.9969
3.03552
3.15547
3.50174
3.81348
3.69471
3.45282
3.26016
3.09601
2.96318
2.89141
2.88197
2.93683
3.02752
3.15153
3.3579
3.70441
4.06062
4.1263
3.92184
3.90876
4.27707
4.14015
4.13513
4.06647
4.02891
4.21192
4.48252
4.59119
4.62252
4.66292
4.64605
4.49402
4.30497
4.21849
4.23141
4.25282
4.25487
4.24102
4.24235
4.25562
4.25733
4.25768
4.23202
4.21798
4.24135
4.33861
4.45542
4.5741
4.63579
4.47683
4.90722
4.77097
4.71357
4.73198
4.74908
4.76617
4.77982
4.80769
4.8184
4.84475
4.88397
4.89977
4.83084
4.76837
4.84066
4.96251
5.02516
5.002
4.93766
4.93374
4.89549
4.86286
4.83944
4.85308
4.92358
4.9733
5.00279
4.93445
4.84605
4.8568
4.45268
4.56902
4.57948
4.55979
4.58058
4.59798
4.52988
4.42559
4.2944
4.17889
4.11286
4.03364
3.94213
3.94746
3.92488
3.95625
3.97385
4.09616
4.13741
4.29166
4.3689
4.46355
4.38379
4.38244
4.544
4.81541
4.84045
4.78563
4.72457
4.68573
4.63711
4.69098
4.80242
4.85092
4.75833
4.74835
4.77201
4.70174
4.51486
4.45661
4.61679
4.77253
4.73424
4.61608
4.44341
4.183
3.95548
3.74892
3.65155
3.57925
3.55998
3.60613
3.71646
3.90705
4.10578
4.3191
4.5256
4.74531
4.85803
4.74351
6.79082
6.09833
5.28621
5.22204
5.26603
5.3683
5.7204
6.3149
6.60241
6.58066
6.48653
6.2145
5.7624
5.39117
5.14158
4.95816
4.83607
4.87565
4.87887
5.05507
5.23411
5.45317
5.6136
5.74802
5.86978
5.99762
6.18577
6.38834
6.34631
6.10017
4.41456
4.36738
4.43349
4.5214
4.5936
4.67888
4.54691
4.64202
4.55098
4.67068
4.62893
4.67386
4.73493
4.72223
4.6991
4.67431
4.63754
4.69592
4.68726
4.74757
4.74265
4.72241
4.66469
4.71783
4.76839
4.77428
4.79897
4.81814
4.72753
4.66016
4.79811
4.83497
4.91925
5.00201
4.95914
5.02536
5.02048
5.00006
5.04637
5.07724
5.10017
5.13179
5.15403
5.18486
5.13203
5.18128
5.17591
5.06526
4.99163
4.95486
4.93031
4.93098
4.87445
4.75172
4.86246
5.01875
5.01346
4.90535
4.6347
4.58003
5.33523
5.53927
5.79032
5.92303
6.1027
6.25901
6.43335
6.49524
6.5669
6.50545
6.49967
6.4388
6.29544
6.36766
6.32704
6.14499
6.1511
6.10308
6.0007
5.79687
5.50076
5.2921
5.24526
5.29876
5.21122
5.14398
5.30326
5.3096
5.22419
5.12253
6.24424
6.47241
6.68093
6.73573
6.84972
6.73585
6.67117
6.67037
6.69317
6.79653
6.87351
6.82654
6.82269
6.91105
6.8376
6.56873
6.38466
6.15253
5.97519
5.88834
5.83938
5.88259
6.00177
6.22774
6.476
6.82998
6.92718
6.84233
6.48693
6.17489
7.02268
7.09825
7.06271
6.34221
5.72061
5.27601
4.91219
4.66877
4.55887
4.50863
4.54644
4.58088
4.79379
5.03219
5.52949
6.13389
6.72816
7.24532
7.3866
7.2714
7.21037
7.23349
7.34787
7.42244
7.39801
7.33807
7.22763
7.19553
7.31184
7.38401
5.61511
6.16261
6.58194
5.6961
4.88045
4.40249
4.18559
4.09197
3.9599
3.91528
3.91952
3.93101
3.91002
3.92079
3.90584
3.93781
3.925
3.92849
3.94709
4.0389
4.25202
4.41476
4.39913
4.27859
4.80231
6.63352
6.52206
6.43342
7.41367
7.86418
3.0613
2.92871
2.65595
2.74789
3.05595
3.15579
2.89677
2.59589
2.51611
2.60468
2.82508
2.85818
2.60549
2.34698
4.4137
3.88215
3.61544
3.72143
3.87432
3.91094
3.86226
3.54627
3.09814
2.96225
3.14253
3.29427
3.59869
3.84062
3.63158
3.3876
3.18606
3.00791
2.86853
2.80596
2.79576
2.85368
2.95859
3.09262
3.29976
3.6457
4.01428
4.09676
3.89271
3.89404
4.30741
4.16593
4.09042
4.02671
3.97641
4.06661
4.31025
4.5
4.61729
4.67367
4.65827
4.4937
4.28169
4.22951
4.26816
4.28798
4.2638
4.24136
4.2464
4.27271
4.27896
4.26073
4.23809
4.23644
4.25828
4.32061
4.44803
4.59626
4.65793
4.4732
4.93407
4.78909
4.71773
4.72373
4.74245
4.76612
4.79318
4.80886
4.81595
4.82702
4.87517
4.92502
4.87486
4.76589
4.84588
4.96669
5.03188
5.00235
4.96328
4.94511
4.89007
4.87408
4.86034
4.92205
4.93907
4.99437
5.03431
4.95992
4.86813
4.88267
4.49762
4.60175
4.60952
4.57034
4.57477
4.58402
4.51959
4.39726
4.2472
4.15502
4.04685
3.92439
3.83478
3.80739
3.77804
3.82543
3.85665
4.02237
4.00513
4.24681
4.29482
4.40839
4.36085
4.37911
4.51565
4.79385
4.84475
4.78875
4.73508
4.68791
4.653
4.71033
4.83642
4.87553
4.79934
4.77728
4.7656
4.61847
4.36385
4.2759
4.47139
4.71883
4.7783
4.65689
4.48372
4.22622
3.97654
3.76613
3.67843
3.59528
3.57832
3.60919
3.7214
3.89944
4.11225
4.30649
4.53008
4.75464
4.85728
4.75351
6.76083
6.03295
5.18022
5.09214
5.05303
5.15036
5.51326
6.16062
6.56383
6.62445
6.58801
6.31853
5.84398
5.44161
5.15892
4.98712
4.82275
4.85046
4.83431
5.01244
5.16393
5.40593
5.54984
5.74117
5.8644
6.00933
6.1562
6.25077
6.23097
5.97264
4.32482
4.28155
4.34175
4.50568
4.61548
4.67849
4.55852
4.69007
4.54534
4.66634
4.65162
4.73524
4.71534
4.74677
4.69459
4.71673
4.62168
4.71171
4.64633
4.74832
4.73678
4.72865
4.6673
4.69317
4.71771
4.76385
4.84265
4.82381
4.77159
4.72133
4.77029
4.8563
4.95044
5.00318
5.02048
4.9888
5.00171
5.04639
5.00566
5.05831
5.06476
5.07034
5.10104
5.1202
5.14349
5.16145
5.14081
5.07736
5.00493
4.96432
4.92009
4.87004
4.73442
4.75189
4.94754
5.06153
5.09526
5.02002
4.83108
4.68435
5.21916
5.51324
5.70863
5.90076
6.0958
6.27797
6.43099
6.46584
6.51054
6.39572
6.37699
6.33588
6.20027
6.3135
6.20532
6.08072
6.10046
6.08425
5.97479
5.78934
5.46247
5.26232
5.20586
5.12537
5.05321
5.31215
5.47336
5.40773
5.23223
5.13336
6.28726
6.51671
6.7121
6.75922
6.71961
6.60294
6.51387
6.41102
6.36678
6.41739
6.57394
6.80258
6.84532
6.96535
6.84561
6.65683
6.48126
6.24942
6.03532
5.91773
5.85645
5.88038
5.94532
6.10768
6.33798
6.6979
6.96224
7.0607
6.96919
6.80826
7.05425
7.09792
7.08407
6.25273
5.63361
5.19751
4.8434
4.60242
4.50565
4.4425
4.51209
4.55135
4.7481
4.95699
5.43113
6.04146
6.62317
7.2022
7.39251
7.29043
7.15494
7.1509
7.13223
7.18925
7.20109
7.13375
7.07925
7.08143
7.20529
7.31932
5.18243
5.3197
6.05709
5.17538
4.55302
4.26284
4.12869
4.06714
3.92484
3.91894
3.90775
3.93473
3.89499
3.91706
3.90121
3.93217
3.92971
3.93295
3.93855
4.01951
4.22131
4.40586
4.38011
4.28251
4.57779
6.53193
6.97002
7.28901
7.95957
8.02453
3.02401
2.83661
2.70879
3.09233
3.4919
3.37078
2.88063
2.5218
2.50628
2.6397
2.84158
2.83051
2.56819
2.34292
2.48809
3.05251
4.12725
4.04406
3.70514
3.63681
3.74152
3.82009
3.71984
3.32984
2.979
2.98522
3.2968
3.44876
3.65639
3.85792
3.59676
3.36128
3.15877
2.97952
2.84757
2.78384
2.7746
2.82923
2.93403
3.07139
3.29247
3.6462
3.9972
4.04788
3.84781
3.89464
4.25134
4.43087
4.35456
4.18666
4.07515
3.99851
3.95686
3.99148
4.15469
4.35342
4.54146
4.68277
4.67283
4.4838
4.27017
4.25077
4.29323
4.3071
4.27171
4.22534
4.23209
4.26275
4.26172
4.25793
4.22755
4.22291
4.26417
4.34945
4.45275
4.60054
4.67729
4.4733
4.40771
4.63998
4.91006
4.82585
4.73639
4.71403
4.71147
4.74923
4.7475
4.76251
4.78314
4.79804
4.84291
4.89401
4.87521
4.76428
4.82037
4.96938
5.02488
5.00652
4.99861
4.95819
4.9271
4.90199
4.88675
4.94244
4.9489
5.05959
5.02973
4.98698
4.8991
4.95064
4.64878
4.59096
4.60897
4.66754
4.63404
4.59608
4.56279
4.57381
4.52202
4.38568
4.25266
4.14099
4.00093
3.86654
3.76245
3.69495
3.67068
3.72941
3.78012
3.94091
3.93689
4.24122
4.21068
4.38097
4.34782
4.36687
4.49945
4.78666
4.83305
4.80745
4.73937
4.69237
4.60254
4.56936
4.58713
4.66941
4.79085
4.88281
4.84732
4.80838
4.76501
4.60192
4.30478
4.17943
4.30528
4.66193
4.79935
4.71519
4.55247
4.33069
4.04402
3.8607
3.73782
3.66782
3.64631
3.68731
3.78949
3.95936
4.14481
4.33993
4.55909
4.80771
4.90835
4.81992
5.58332
6.45755
6.5695
5.7473
5.10562
5.00027
4.94337
4.97172
5.26913
5.95711
6.49928
6.64892
6.63724
6.44769
6.04877
5.60519
5.3171
5.11683
4.92767
4.96256
4.8935
5.10686
5.15282
5.48378
5.54196
5.73727
5.89649
6.04957
6.13615
6.18983
6.15416
5.87704
4.83937
4.3526
4.18268
4.13471
4.23714
4.44954
4.60526
4.69423
4.5838
4.68773
4.55983
4.65426
4.67003
4.71154
4.72497
4.7141
4.71426
4.71604
4.65069
4.69727
4.65607
4.74463
4.7283
4.72162
4.66001
4.6677
4.72075
4.82483
4.86155
4.86806
4.84932
4.83794
4.73869
4.66709
4.79832
4.87874
4.96518
5.01064
5.04723
5.01124
5.00562
5.03374
5.02498
5.0724
5.06522
5.06187
5.09413
5.10183
5.15264
5.12605
5.11444
5.06985
5.02102
4.9533
4.88161
4.79704
4.64871
4.73816
4.94602
5.0559
5.11292
5.13808
5.15719
5.18355
5.33822
5.38252
5.46645
5.6119
5.75415
5.91107
6.08475
6.26229
6.36789
6.43395
6.42099
6.27748
6.21475
6.21104
6.08535
6.20647
6.02779
6.03487
6.05475
6.02688
5.90597
5.73132
5.41951
5.20607
5.10882
4.94882
5.01859
5.35285
5.5917
5.7092
5.71517
5.7107
5.64714
5.47862
6.11901
6.34148
6.60929
6.71393
6.6971
6.58405
6.39027
6.39505
6.45107
6.43213
6.47914
6.47909
6.75867
7.00761
6.81302
6.70907
6.52793
6.32462
6.07989
5.94779
5.86895
5.87794
5.88662
5.98628
6.14529
6.48611
6.83922
7.12642
7.10977
7.09328
7.03882
7.01001
7.03726
7.11004
7.07374
6.21608
5.63716
5.20509
4.87443
4.6459
4.5405
4.47312
4.52
4.57353
4.76284
4.97945
5.39976
6.01716
6.56193
7.10012
7.39321
7.30818
7.10304
7.04589
7.07844
7.07365
7.02725
7.00666
6.98513
7.03503
7.13224
7.2124
6.75098
6.03012
5.05733
4.70353
5.45024
5.10841
4.40231
4.18715
4.09895
4.03589
3.91692
3.92635
3.88564
3.93064
3.89339
3.90805
3.90108
3.92223
3.93187
3.92866
3.94017
4.01036
4.21375
4.39752
4.35823
4.25815
4.52896
6.43507
7.37109
7.8206
7.98542
8.27307
3.78884
3.07442
2.97757
2.82159
2.90828
3.4296
3.63191
3.26201
2.6879
2.45472
2.51297
2.68275
2.83637
2.80196
2.57401
2.35287
2.44879
2.97266
3.79836
4.14757
3.92363
3.63771
3.59195
3.61028
3.45853
3.12235
2.92907
3.05245
3.46116
3.59365
3.6719
3.88396
3.60029
3.37389
3.17869
3.013
2.89188
2.81853
2.80259
2.85212
2.95683
3.1127
3.36048
3.7049
3.96237
3.95399
3.80609
3.90413
4.2634
4.50554
4.44349
4.27284
4.1255
4.00993
3.95768
3.9612
4.03835
4.23754
4.452
4.67018
4.69097
4.48977
4.27478
4.25876
4.31968
4.33054
4.29669
4.23406
4.24086
4.24028
4.24917
4.2445
4.23508
4.2379
4.2787
4.3745
4.48964
4.61855
4.65743
4.43313
4.38278
4.67008
4.89778
4.86569
4.76693
4.72857
4.72201
4.72574
4.74665
4.76898
4.78421
4.8039
4.84922
4.90405
4.8979
4.76104
4.79142
4.9386
5.01434
5.01347
5.00256
5.00443
4.95023
4.94013
4.93656
4.97333
5.003
5.0734
5.02328
4.9711
4.9038
4.91402
4.63371
4.64034
4.64908
4.67476
4.64304
4.61466
4.55125
4.55809
4.52105
4.40903
4.27551
4.15561
4.00877
3.87889
3.76436
3.70842
3.68109
3.69674
3.77618
3.86369
3.96072
4.1812
4.17687
4.35417
4.31863
4.33793
4.5148
4.77141
4.81497
4.78347
4.73457
4.69677
4.62503
4.60072
4.55773
4.61235
4.74631
4.85758
4.88782
4.8573
4.80032
4.64144
4.31511
4.11123
4.19397
4.53559
4.81537
4.76611
4.6367
4.4479
4.19163
3.99072
3.84951
3.7865
3.76854
3.81026
3.90826
4.04324
4.21731
4.39713
4.63683
4.84103
4.88572
4.84828
5.54204
6.29602
6.27372
5.53654
5.05626
4.94796
4.9026
4.89067
5.0425
5.66214
6.35325
6.59681
6.66282
6.60227
6.29085
5.91799
5.54502
5.30434
5.21579
5.12621
5.15287
5.24823
5.29569
5.56319
5.56953
5.79084
5.94871
6.08846
6.13376
6.11826
6.00174
5.62327
4.70883
4.25011
4.0234
3.97801
4.11081
4.3554
4.58017
4.68341
4.63015
4.68529
4.58982
4.6204
4.67918
4.71771
4.73662
4.70752
4.73329
4.69675
4.65823
4.70314
4.68839
4.73408
4.71761
4.71204
4.66946
4.68882
4.76457
4.8253
4.84413
4.82472
4.79089
4.7413
4.68886
4.68274
4.79308
4.86928
4.96246
5.01816
5.04188
5.03543
5.03334
5.02593
5.05616
5.07991
5.02906
5.03922
5.02583
5.05693
5.09205
5.09666
5.09899
5.05417
5.01102
4.94214
4.82694
4.69459
4.58457
4.61554
4.76075
4.92155
5.05228
5.15915
5.21846
5.2729
5.31415
5.36893
5.37143
5.5158
5.65077
5.83238
6.01424
6.22201
6.29376
6.38725
6.37812
6.31318
6.2115
6.10476
6.124
6.15044
5.97951
6.02006
6.01317
5.9346
5.83402
5.63196
5.353
5.19881
5.05436
4.84177
4.78418
4.98313
5.23711