/*--------------------------------*- C++ -*----------------------------------*\
| =========                 |                                                 |
| \\      /  F ield         | OpenFOAM: The Open Source CFD Toolbox           |
|  \\    /   O peration     | Version:  2.1.1                                 |
|   \\  /    A nd           | Web:      www.OpenFOAM.org                      |
|    \\/     M anipulation  |                                                 |
\*---------------------------------------------------------------------------*/
FoamFile
{
    version     2.0;
    format      ascii;
    class       volScalarField;
    location    "0.006700000";
    object      Xi;
}
// * * * * * * * * * * * * * * * * * * * * * * * * * * * * * * * * * * * * * //

dimensions      [0 0 0 0 0 0 0];

internalField   nonuniform List<scalar> 
12384
(
7.68168
10.1726
11.3856
12.3243
13.1611
13.8089
14.1529
14.0792
13.6752
13.101
12.2603
11.1034
9.2505
6.28795
21.6325
22.8402
23.4513
23.8279
24.1499
24.4927
24.7402
25.3197
26.1274
27.3697
28.7158
30.2174
32.1113
34.3345
36.9392
39.7779
42.6195
45.0548
46.829
47.8008
47.4973
46.4338
45.2882
43.9101
42.1162
39.4822
35.542
28.922
21.7905
17.4959
25.9203
28.1276
31.8061
33.8274
34.9356
35.1019
35.5998
35.3736
36.0039
36.4861
38.0433
40.8221
43.7955
47.0518
50.435
53.6798
56.3029
58.1342
58.7732
57.942
56.5892
55.5767
54.8375
53.7081
52.2454
50.0284
46.0442
38.0817
24.9465
20.2505
31.7706
34.3646
35.6695
37.4499
39.6553
42.3959
44.6302
47.3777
49.2399
51.3737
53.0831
54.857
57.421
61.4312
65.7489
70.5514
75.6618
80.7201
84.6734
86.7765
85.908
82.1569
78.594
73.4034
68.1574
60.7748
49.0978
34.8504
28.7591
30.4116
30.8849
38.6625
44.7269
50.9915
56.8969
62.6919
68.4842
74.0775
80.1866
84.8428
90.8964
91.9436
96.8546
93.3173
92.4024
86.3549
84.0958
75.5782
70.5455
61.437
51.4658
41.6388
36.9357
32.0546
29.8514
29.22
30.1136
30.2622
29.5411
27.4912
20.5869
24.0576
26.288
27.6515
28.5425
28.98
29.9179
31.4811
34.1167
37.6887
41.7957
46.4794
50.9834
55.6994
59.6592
64.4029
66.1298
69.33
69.3611
64.8654
63.3323
59.7575
57.2729
54.6523
51.8122
48.61
42.7174
34.3897
28.713
27.8342
30.8072
35.1814
37.3864
38.1996
42.3406
47.8844
55.1682
63.1488
71.689
80.0271
88.1755
95.4176
101.278
104.767
104.572
101.526
93.4161
92.8788
84.2507
82.4746
75.709
71.6128
67.1099
57.9886
51.5349
45.3004
43.1225
41.1349
40.7099
42.833
22.6938
22.2686
28.7049
37.306
45.3529
52.9574
60.1308
66.1651
71.7511
77.4556
77.507
80.2574
75.879
73.5147
71.8868
68.6008
65.8775
62.1589
57.383
52.1944
46.8617
41.3704
35.1133
31.0583
29.2386
29.09
28.8999
28.8242
28.3968
28.1298
24.6359
33.6692
44.0849
53.0655
60.2665
66.523
73.9838
77.2394
77.596
80.0852
77.9188
76.6645
74.3074
71.7873
68.2455
64.3611
60.0459
54.5192
49.3501
42.3265
36.0034
32.065
30.2088
30.1386
29.8886
28.9714
27.6231
26.1134
24.6828
23.681
31.4145
33.3968
35.6048
40.0189
49.4286
60.6916
71.3444
82.2851
89.8754
96.3394
100.958
101.613
97.4885
97.7436
93.5459
88.5143
84.2108
78.6289
71.9667
64.6785
56.376
46.1337
38.3616
35.2104
35.3911
35.3582
35.1223
34.2808
34.1203
34.4196
34.5334
38.6757
44.6164
54.2444
65.4786
75.1234
82.9442
88.7196
92.2675
94.2018
93.9558
93.7474
92.1196
89.6622
87.3162
84.0359
79.802
76.0718
69.3546
60.0448
51.051
44.4202
42.9619
43.7865
44.1557
44.1661
42.3499
41.605
40.7548
40.5115
33.2995
34.2013
39.9846
45.1898
50.9393
56.1493
58.3815
62.3984
65.9728
72.5529
76.4479
81.1065
78.0065
75.5291
70.7343
66.0904
61.1028
57.764
56.2383
56.6924
58.4819
61.0495
63.168
66.1139
69.0626
70.2634
69.3625
66.5769
60.6291
48.483
17.9581
20.886
19.643
18.3047
18.012
27.6712
52.0413
55.216
45.916
50.0041
53.385
55.038
57.5196
59.3749
61.4504
61.5388
59.2741
55.939
51.6026
47.0667
42.0941
37.2861
33.5399
30.941
28.2347
24.1899
19.3151
13.8715
8.93604
5.26631
10.8594
8.04026
9.03154
10.4144
11.883
13.083
13.9482
14.3687
14.2261
13.4649
12.2573
10.8773
9.39329
9.72301
22.2325
16.8577
16.9182
17.3136
17.8862
18.4086
18.8606
19.3665
19.659
19.8973
20.0238
20.7204
22.7275
26.1385
30.6626
35.5623
40.4971
44.9976
48.8699
51.8328
53.8101
54.7705
54.5978
53.3127
50.7716
47.0186
41.5546
33.9843
26.8986
28.0247
27.6189
23.8893
28.1591
30.6639
31.4134
30.8219
29.4702
27.7278
27.0139
27.0823
28.8211
31.9811
36.2214
41.2899
46.7796
52.3952
57.7054
62.3686
66.0337
68.2321
69.2199
69.1142
67.4349
64.8445
61.1943
56.4318
50.2465
41.7278
30.9832
31.5308
34.9057
32.2213
36.9004
41.121
44.4025
46.4139
47.1793
46.4134
44.7235
42.3732
40.4732
39.6545
40.5944
44.632
50.8007
58.5525
67.5084
77.0298
86.4883
94.6836
100.557
102.867
101.967
97.8663
91.1564
82.5735
69.9413
54.7386
37.8111
34.9977
28.4012
22.4008
27.8658
35.4757
42.9453
50.4062
58.2942
66.5359
75.2344
82.8823
92.7636
99.7965
107.193
110.693
114.114
113.134
109.972
103.285
96.7734
86.18
73.9665
59.4001
45.8988
30.0951
23.6281
22.9773
22.4778
21.944
21.6971
29.7711
22.4282
17.205
18.6561
19.8458
20.8435
22.1379
23.6222
25.5482
27.7668
30.6938
34.2913
39.049
44.5215
50.6811
57.0226
64.006
71.2037
75.6459
81.5095
82.9825
84.0645
82.3029
79.1792
74.7555
68.4792
60.2091
48.9513
35.2388
22.8719
31.1541
32.5455
21.1856
22.1205
26.1558
30.773
37.9478
47.6307
58.3384
70.4386
83.2546
96.2678
109.067
121.474
132.029
139.701
144.08
144.681
143.28
134.696
128.018
115.216
104.89
91.4187
74.6312
58.5677
42.1521
28.9908
24.9031
28.0565
46.6771
24.3905
20.0481
28.3032
36.6966
44.866
52.6444
61.8467
69.222
79.8289
85.1209
94.4523
98.2021
101.62
100.421
97.2683
93.5218
86.5056
78.5207
68.5428
57.3247
45.4936
35.4379
27.7735
25.4543
25.3319
24.7818
23.2807
22.0897
21.1648
28.992
29.7185
34.7995
45.6479
55.4581
64.9016
75.7473
85.2255
91.7062
101.684
104.495
104.537
103.32
98.7115
91.2508
81.8881
69.9287
57.6433
46.797
39.0813
34.8363
32.6446
32.8309
32.4366
30.7594
28.0155
24.7524
21.4523
18.7684
17.6621
27.102
31.7158
18.8956
20.5394
32.9209
48.9142
64.4657
79.762
94.3494
108.098
119.499
126.329
132.595
132.142
126.696
118.276
110.255
98.2494
85.1593
71.3764
57.4633
46.36
39.0792
36.6496
36.0104
34.7044
32.2297
29.1873
26.1225
24.2976
34.586
35.4734
32.5328
48.3784
64.5455
79.2683
92.1967
103.491
113.218
117.017
119.207
118.38
112.663
105.009
95.1195
83.8169
72.3822
62.4336
55.7551
51.4086
48.4673
47.791
47.8404
47.1725
45.5209
42.6459
39.4036
35.3153
29.9564
26.389
41.2278
38.9401
23.1335
35.3338
53.6405
70.7755
80.3698
85.3279
88.2162
89.3051
89.1843
85.9133
82.7077
75.311
68.9562
62.0575
55.7219
50.5291
47.5877
48.1927
51.7241
57.0591
62.7131
67.2885
70.4228
71.7406
71.5646
68.8872
62.4102
53.4632
60.014
25.1133
23.1532
20.8562
19.939
21.2891
35.4381
52.3505
46.511
51.8988
59.4868
63.9269
65.3666
66.101
65.1574
63.1392
59.5191
55.0222
49.7993
44.4029
38.8435
33.4828
28.4713
24.7217
22.1753
19.8011
17.3828
14.6468
11.2846
7.82946
5.96267
12.8088
9.62021
11.389
13.0775
14.2503
14.8285
15.2715
15.6471
15.7435
15.3063
13.9405
12.109
10.5455
11.2558
23.0963
16.8181
16.4507
17.1323
18.299
19.4112
20.402
21.2713
21.676
21.8711
21.7547
22.6148
25.4658
29.8098
34.5983
38.681
41.9502
44.402
46.3858
47.9432
49.226
50.2201
50.8202
50.9075
50.2709
48.2898
44.8201
38.6634
31.5123
33.7578
28.7439
24.5807
26.9173
27.4451
26.9291
26.2086
26.095
26.6691
28.7873
31.2944
34.7675
38.5774
42.7252
46.8846
51.0179
54.848
58.5522
61.9717
64.6391
66.4649
67.4658
66.9479
65.6766
63.6476
61.0173
57.7835
53.5467
47.2011
37.8943
39.3824
36.828
34.6492
37.9595
40.8707
43.2814
44.5862
45.5068
45.2015
44.9361
44.6166
44.6964
45.9272
48.4563
53.4565
59.8546
66.914
73.7814
80.564
87.2986
93.3439
97.7904
101.418
100.656
97.2678
92.9156
87.0548
78.4824
65.4718
49.2312
43.2248
32.4758
25.7557
33.0038
41.9318
50.018
57.1668
63.7783
69.8891
75.5745
81.0932
88.9003
92.3425
98.9269
102.501
105.733
104.928
104.886
101.105
97.9511
92.0284
84.5175
71.7764
58.4677
42.8733
28.1934
22.0146
22.1328
22.8928
23.5746
30.823
24.2098
17.1002
17.78
18.845
20.5016
22.6321
25.334
28.6276
32.2519
36.3134
40.8101
45.5935
49.8754
54.0597
57.5859
62.0232
65.9019
69.3045
72.7758
74.833
76.2692
76.0018
74.9747
72.9051
69.8487
65.02
57.1317
45.0969
31.4609
35.7281
34.909
21.3248
23.756
27.8774
34.4601
45.1619
58.0375
70.5492
81.8138
92.007
101.61
110.227
118.129
124.496
129.342
132.273
133.495
135.253
128.97
126.064
116.975
108.44
98
86.0484
70.6323
55.1836
39.936
26.3542
25.574
45.9922
24.7607
26.0686
35.4517
44.1229
52.1347
58.9547
66.2152
72.0227
78.8439
84.0838
91.5324
93.5611
96.8892
97.9208
96.6963
93.1613
88.8719
83.679
76.6427
67.3757
56.0398
44.7177
34.7241
26.8298
22.1289
20.78
21.6986
22.6764
21.9901
29.6572
37.2727
47.2606
57.881
66.5024
74.209
82.976
87.2437
94.7501
101.731
102.682
106.676
105.497
102.052
96.7886
89.5366
80.4509
68.8691
56.7448
46.2597
38.152
33.1583
29.9514
28.6126
27.7385
26.9343
25.3387
22.8804
19.5781
17.5727
28.1961
33.2646
18.5951
27.2061
46.1177
65.2656
82.6988
96.801
109.205
121.446
129.26
135.385
137.122
138.693
135.538
127.216
120.594
109.806
98.2591
84.6265
69.7317
55.5425
44.7954
37.2168
33.4019
30.6092
29.8841
30.2221
28.5884
25.8588
34.8096
36.6248
50.1913
69.7413
86.6091
101.249
114.501
125.439
131.872
138.658
138.265
134.053
129.761
121.979
111.805
99.9848
87.0493
74.2445
63.8649
55.0431
48.3983
44.9101
44.1432
44.6724
46.157
47.0038
47.1424
42.8915
35.5815
28.4485
42.6652
42.346
32.4067
50.1681
68.8163
81.2272
84.2189
85.0426
85.4638
84.3901
84.2059
80.4799
79.6604
77.1674
74.8461
72.2033
68.8515
64.4936
60.7313
59.3153
59.7721
61.6769
64.635
67.5741
69.5168
69.4079
68.9252
67.448
63.564
57.1441
65.3343
31.3601
27.183
21.8518
21.367
32.3867
53.3027
52.7873
52.7186
58.9412
62.8771
63.9854
64.4745
64.5251
63.5607
61.7602
59.3814
56.5476
53.3695
49.8938
45.4728
39.9022
33.5044
27.2541
22.7358
17.1266
10.9187
8.70974
7.29356
5.71031
4.95437
14.2045
11.8362
13.6215
14.5484
14.3559
13.9076
13.6673
13.9725
14.7109
15.3952
15.1883
13.7306
12.0221
12.3614
24.5185
17.9821
16.9727
17.6184
18.9271
20.1116
21.0734
21.7719
21.8254
21.4085
21.1436
22.8459
27.1143
33.2013
38.3179
41.2145
42.293
42.4528
42.4545
42.6001
42.9512
43.5275
44.293
45.6098
46.943
47.7494
46.5095
42.6269
35.838
37.3029
29.8769
26.1731
26.3312
24.8732
23.1549
22.6224
23.9145
26.8
30.8146
35.2405
39.9694
44.3514
48.5066
52.0336
54.6069
56.9455
58.9664
60.6303
62.1333
63.4004
63.6229
63.3282
62.5511
61.1643
59.6042
57.854
55.4238
51.1863
43.7245
44.8927
38.855
38.3505
39.3336
40.3333
41.3014
41.7634
42.7565
43.4063
44.677
46.7826
49.3007
52.0524
55.7721
61.6379
68.5268
75.0602
79.9977
83.2572
85.4619
87.2344
89.1521
90.1417
91.7894
92.556
91.3375
89.0478
83.7377
73.62
58.3283
50.1401
40.1159
29.3119
37.5052
46.7776
54.8509
61.7198
67.0383
70.5602
73.8782
77.1183
80.6836
82.0807
87.92
89.5551
91.169
93.3552
93.5278
93.2589
93.5937
91.4431
89.0113
80.1135
67.8163
53.0781
37.7331
24.0941
21.2749
23.5376
25.0801
31.657
26.0208
18.3624
18.2698
19.0427
20.8363
23.6255
27.3448
31.3308
35.9368
41.2382
46.8639
51.9141
55.4268
57.2764
58.8592
58.395
59.5554
59.528
61.0508
62.155
64.1931
65.7659
66.9003
68.1433
68.3954
66.7498
61.8454
52.2357
39.0147
40.3526
36.8536
23.4611
26.3302
29.3249
39.721
53.4477
66.7877
79.616
89.6256
96.732
101.491
104.782
106.418
107.339
108.69
109.935
111.654
113.246
113.574
114.465
110.737
108.366
100.303
91.6364
79.25
65.0954
51.4572
34.6241
26.1537
44.612
26.4652
31.23
41.0448
49.9493
58.1322
63.8067
69.0663
71.8529
76.2019
79.635
82.4607
85.5261
88.5538
88.9217
88.7618
88.5975
86.6492
84.1873
80.6049
74.3866
64.7284
53.5349
42.8383
33.5761
24.7554
20.3385
22.1649
23.5101
22.2787
29.8689
45.0781
57.701
67.432
74.3263
80.6697
83.7414
85.685
92.8869
92.4698
98.0597
97.896
98.7831
99.4352
97.6237
93.894
87.768
78.8721
67.3642
55.2382
45.3697
37.4374
31.1373
26.9604
25.8937
26.4876
26.8271
25.1615
21.2374
17.6361
27.8505
35.0749
20.936
36.2305
59.6484
80.178
94.8537
108.156
114.92
124.332
128.791
134.888
135.674
133.001
131.514
127.374
121.888
115.887
107.747
96.4793
82.0475
66.7846
53.2245
42.3163
34.0642
30.2657
30.9019
31.9337
31.2531
27.4877
34.6717
39.964
72.4208
92.9741
108.548
120.963
131.083
139.495
148.336
152.691
154.971
150.003
140.723
133.065
125.494
115.246
102.799
89.0863
76.2421
64.7087
54.1049
47.0722
43.547
43.6108
47.3449
52.2703
54.2712
49.8757
39.957
30.5482
43.6579
46.8186
43.1706
62.3182
80.0261
84.4279
83.7884
82.1085
78.3804
75.1673
73.005
71.5464
70.5643
73.3777
76.3547
78.1513
78.2656
76.2085
72.5227
68.9987
65.6479
63.3953
62.4443
62.4836
63.4428
64.3426
64.7702
65.705
65.1518
62.3351
68.9953
34.3106
29.1429
25.0804
33.1034
47.0157
55.5657
54.5271
58.2049
62.377
63.1449
62.2686
61.8921
60.7742
59.6034
58.44
57.305
56.4383
55.3666
53.7337
50.8895
46.0491
38.5247
30.4764
23.4592
18.3069
9.39153
6.02078
5.36147
4.7996
4.55245
15.913
13.8214
14.737
14.1218
13.0636
12.4283
12.0307
11.9428
12.565
14.0961
15.4903
15.2711
13.751
13.2904
26.1766
19.7429
17.8872
18.0429
19.0781
20.0575
20.8366
21.1343
20.8025
19.7251
20.2847
23.4613
29.2984
37.1835
41.7043
42.7002
41.3948
39.4642
37.6966
36.5143
36.1826
36.5906
37.7838
39.6016
42.496
45.5213
47.3168
45.702
40.1783
39.714
30.8112
27.9076
26.4151
23.0722
20.19
19.8724
22.485
27.0128
32.7772
38.5887
44.2628
49.1333
53.1843
55.9343
57.765
58.3874
58.1892
57.823
57.7143
57.6042
57.8326
58.1751
58.1091
57.8842
57.5483
56.9913
56.3
54.4158
49.0699
48.9552
40.7219
42.4706
41.0266
39.814
38.8649
38.4376
39.0715
40.6319
43.5786
47.8638
53.093
57.7694
61.9013
67.9816
75.69
82.1132
84.8252
84.443
81.5566
78.5543
76.9569
78.282
80.2168
82.8594
86.6057
89.0502
87.8317
80.3458
66.4636
54.9256
46.588
32.3189
40.8903
50.1496
58.4112
64.9594
68.989
70.8197
71.5344
71.7583
71.7167
72.683
75.1372
74.8181
77.7015
79.1842
81.1176
82.984
85.7892
87.7993
89.3791
84.3511
74.9363
60.7042
46.0174
30.2964
21.175
23.4376
26.3231
32.8777
27.7519
20.0023
19.2523
19.4603
21.2485
24.49
28.4127
32.8679
38.3326
44.6794
51.4961
57.3443
60.2749
61.4319
59.3664
56.3809
53.2187
50.2681
49.7173
49.6782
51.8895
54.8547
58.6768
62.3306
65.3012
66.272
64.0693
57.1418
45.1679
44.1236
38.9804
26.1129
27.5322
32.3381
44.0501
57.795
72.0149
85.8884
95.7809
101.059
101.731
99.3364
94.4818
90.7881
88.5874
88.0438
88.3185
92.1084
93.7095
99.3272
100.469
102.881
99.1782
94.1369
84.8185
72.3286
58.8106
42.7163
29.0345
43.2366
29.2451
34.8679
45.0114
55.114
63.3185
68.0227
71.4557
70.9581
73.1181
70.6824
73.4678
74.4686
76.9927
79.3523
80.1422
80.4427
81.6932
81.511
80.9021
77.8623
70.6819
60.6163
49.3204
39.4434
29.3872
23.5556
24.2877
24.7334
22.2902
30.2607
51.8072
65.9849
74.3781
80.3773
83.4139
81.2269
83.1373
82.9501
81.9535
84.7502
87.453
91.1485
92.1472
94.3956
95.2375
92.4241
85.646
75.8309
63.9834
52.0845
42.3827
34.232
28.4606
26.8311
28.0707
28.9218
27.5768
23.0605
18.197
27.3318
35.7117
24.8505
46.6102
71.6476
90.0934
102.481
110.064
115.197
118.172
119.057
118.578
121.807
120.381
120.248
118.084
118.216
115.459
113.084
104.615
92.7723
76.7363
61.8077
48.2577
37.4926
32.9868
33.8308
34.4925
32.6183
28.5734
35.2542
50.0146
95.6304
112.811
124.029
132.373
138.531
142.899
145.398
146.514
149.252
152.5
151.595
143.283
133.962
126.183
116.541
103.764
89.2733
75.5759
62.4273
52.0431
45.5343
43.8476
48.9384
56.4824
60.8262
56.2764
44.4304
32.7739
44.7092
51.4892
52.3725
71.5575
84.5064
84.425
81.648
75.9129
70.0667
64.2608
60.6742
61.3871
62.3202
67.176
74.1555
80.8223
84.093
84.2647
81.7431
76.4748
69.9648
63.8767
58.449
54.0278
52.9216
54.9879
59.0495
63.2589
67.0724
67.7121
71.2844
34.7511
30.2891
32.1483
41.6833
50.6125
54.7759
57.4145
61.7294
63.2837
61.6234
59.4478
57.1717
55.0502
53.6823
53.3009
54.1249
55.5448
56.5867
56.5636
54.9765
50.5678
42.8746
33.5624
24.4017
19.6021
10.3605
5.69895
4.92764
5.09191
4.88526
17.158
14.7325
14.3276
13.1035
12.4465
12.0477
11.3829
10.7977
10.9718
12.5422
15.1882
16.5155
15.5254
14.0114
27.8749
21.5641
18.9129
18.4118
18.9321
19.5918
20.0748
19.9778
18.9044
18.2988
20.6347
25.1258
32.2887
40.8545
43.9569
42.6702
39.5572
35.9451
32.5654
30.0388
28.8239
29.2942
31.156
34.1074
38.1044
43.2777
47.8325
48.3092
44.2084
41.1118
31.7762
29.3001
26.976
22.3457
18.1224
17.7133
21.4772
27.2626
34.2197
41.3281
47.4392
52.6713
56.8542
59.3442
60.3723
59.1523
56.497
53.5074
51.0788
50.1744
50.6011
51.3397
52.5733
53.8897
55.3469
56.6158
57.3438
57.321
54.1593
51.8759
41.7732
46.2022
42.9069
39.5661
36.4306
34.5987
34.5991
36.7577
41.2841
47.7597
55.1762
61.908
66.8215
72.3272
80.876
87.8356
89.0515
85.4497
77.5836
68.7274
62.5169
61.7877
67.5298
75.3685
81.9427
88.2307
91.0203
86.4052
73.6094
56.7927
51.5654
34.303
43.3953
52.5518
60.9011
67.382
70.761
71.0575
69.659
67.0427
64.0976
63.016
60.5996
60.3509
62.2601
64.7719
68.7221
72.1782
77.9535
82.2549
87.1352
86.6028
78.9234
66.1911
52.1427
36.9153
23.5441
23.2474
26.718
34.1806
29.3582
21.8937
20.4932
20.0047
21.7282
24.6728
28.467
33.182
38.8897
45.9053
54.2905
61.0592
65.1248
64.284
61.569
55.2897
48.9861
42.7263
38.9377
37.5957
40.0935
44.4395
49.8013
56.2084
61.8218
65.2736
65.2373
60.1342
49.8628
46.5674
40.8117
28.8573
28.2163
34.9227
46.0467
58.5549
74.3912
91.5406
101.533
105.273
103.193
95.3325
85.1034
75.6911
69.448
66.5749
67.9126
72.2546
76.3003
84.0226
88.4702
95.3403
95.0513
94.238
87.2916
76.7076
63.725
48.374
32.6478
41.598
33.4906
36.9373
48.1617
59.304
67.1431
72.9242
73.4143
71.7692
68.1185
64.1139
63.5641
61.3394
62.0317
64.7825
68.4203
71.6443
75.7557
77.3609
79.2824
78.6985
73.925
65.1369
53.7034
42.643
32.0443
25.7515
25.6742
25.1174
22.0207
30.4747
58.5467
71.6436
79.4065
84.8015
83.6024
79.6991
78.0436
70.9224
68.6367
67.0372
69.8666
74.8548
82.1696
86.98
91.9639
94.9147
90.9926
81.9227
70.3045
57.9571
46.8772
37.4705
30.4465
28.2279
29.9106
31.5667
29.7752
24.6893
18.8375
27.1643
36.5232
30.654
56.254
79.7573
96.3138
105.532
111.564
110.751
110.438
103.296
98.8278
94.8872
97.5035
101.382
106.763
107.41
113.395
113.623
110.587
100.616
84.1188
66.3886
51.3303
39.6159
35.2548
35.4196
36.0474
33.7458
28.8153
35.9139
66.3387
113.476
126.265
132.296
135.258
133.983
129.816
126.847
126.55
126.812
129.285
135.9
144.025
143.009
134.53
126.356
115.876
101.679
86.1076
71.1298
57.9019
48.6187
44.8331
49.5826
58.9882
65.7853
62.5504
50.2524
36.7971
46.9214
55.6748
60.0565
78.3072
85.655
83.7669
77.8009
70.1454
61.0403
54.4426
49.4462
50.3975
54.4586
62.2566
69.883
80.2218
86.8176
88.297
86.4078
81.0276
72.7165
64.5233
55.6192
46.9185
41.2992
44.4398
52.9608
62.3907
68.7467
71.942
71.6293
33.7921
30.7455
36.0887
42.9939
49.1829
54.9502
59.6425
63.2363
62.6119
59.1178
55.0455
51.1618
47.1547
45.6853
46.907
50.2842
54.2147
57.5253
58.8491
57.8474
54.0393
46.2497
35.9369
25.6808
19.4841
12.8792
6.82306
5.79575
6.51117
5.91401
17.6331
14.8024
13.5198
12.9085
13.1956
13.0106
11.6037
10.0087
9.78305
11.6126
15.1252
17.5501
17.021
14.4499
29.5078
23.5811
20.0774
18.62
18.389
18.6341
18.8636
18.3437
16.9943
17.723
21.7777
27.1419
35.2137
43.2938
44.6614
41.7745
37.5308
32.5712
27.7211
23.8791
21.5478
21.9761
25.1314
29.5198
34.8018
41.3761
48.0564
50.4391
47.4275
40.9682
32.6904
30.3438
27.7552
22.7775
17.5183
16.1801
20.38
27.3474
34.9642
42.8219
49.6893
54.6691
58.6888
61.1616
61.545
59.0792
54.0136
47.7665
42.3621
39.7236
40.5785
43.9344
47.1696
49.9496
52.5418
55.6939
58.332
59.6732
58.2893
53.3301
41.4653
49.0425
44.8543
39.9072
34.795
30.9623
29.7512
32.1192
37.7561
45.9951
55.2706
63.5454
69.1677
74.4718
82.8647
90.3511
91.5234
85.6461
73.5067
59.6727
46.7934
44.9941
54.5608
65.8209
78.4667
88.4032
94.3324
91.6599
79.8523
55.5383
54.6981
35.5303
44.943
54.1472
62.5803
69.4033
72.1319
71.8301
68.9325
63.7939
59.325
52.9285
46.6007
44.3505
45.1052
49.8599
55.7387
63.2903
70.0444
77.5316
84.6627
87.0434
80.8455
70.1132
56.0598
41.5943
27.3592
23.687
27.0242
35.9643
31.0542
23.2732
21.7349
21.1028
22.004
24.4988
28.0806
32.6482
37.9194
45.0898
54.6685
63.7073
67.5315
67.4365
63.8
55.7332
47.6003
37.7583
30.4657
27.0789
30.5992
36.8404
44.179
51.9795
58.8298
64.2077
65.5918
62.6453
54.2782
47.9673
43.107
31.6013
29.1711
35.602
45.9894
58.0613
73.6724
93.8735
106.719
109.05
105.626
95.3328
79.4971
64.8619
53.6105
47.318
48.1531
55.7502
61.5124
71.5641
78.0968
87.2378
90.3707
92.3038
87.5894
79.3851
66.7361
51.4599
35.5639
40.9579
39.1771
38.3257
50.0783
61.6657
71.139
77.7551
74.9527
73.2288
66.0942
60.2615
52.3701
46.3599
45.6268
49.6169
56.865
62.4439
68.4495
73.6751
76.6333
78.1619
75.1135
67.599
55.8055
43.7386
32.3428
25.9984
25.5308
25.0954
22.0171
32.3398
66.6078
74.7103
83.1932
87.9602
83.7628
79.759
72.3608
63.1401
55.5604
50.6048
52.1094
60.9657
71.6826
81.357
87.6484
93.9675
93.5453
85.6707
74.6582
61.8414
49.328
38.6403
31.2467
29.1209
32.3226
34.7891
32.3127
26.4802
20.5289
28.7453
38.056
38.7
63.8806
85.3891
100.811
109.416
113.205
108.928
102.354
90.8987
80.3798
71.238
68.5196
78.7886
90.2999
98.594
108.489
113.995
113.154
105.074
88.8685
70.3184
52.8335
40.6302
35.2654
36.3304
39.1137
36.7104
30.6667
38.0565
87.6904
124.341
134.969
136.416
134.588
126.889
116.429
109.656
103.552
104.519
110.122
117.079
126.696
138.101
140.586
134.227
125.705
111.462
95.0758
78.6961
63.7578
51.9526
45.5736
49.1014
59.326
68.5356
67.7866
57.5212
44.0555
53.5508
58.7658
66.1418
82.8332
85.7294
82.19
74.9426
64.9834
54.6438
45.3939
38.3228
39.2178
46.1532
57.6117
66.7145
77.4499
86.0575
89.3573
87.4645
81.6564
73.3781
64.9198
56.0071
47.0197
39.488
42.6867
53.0457
62.0568
69.1234
74.1681
70.5783
32.1542
29.1408
36.1137
41.3645
47.6799
55.0269
60.6468
63.5297
60.9356
56.1052
50.7498
44.1713
37.9254
35.8559
39.3817
46.5323
52.7691
58.1222
60.6203
59.9426
56.3524
48.4474
37.5622
26.692
19.5868
15.6222
9.372
8.22012
9.75962
8.25814
17.4064
14.1238
13.1877
13.9367
15.2116
14.5487
11.7279
9.20675
8.88391
11.2352
15.4567
18.3471
17.8998
14.6693
31.0417
25.166
21.1634
18.8568
17.6562
17.371
17.2458
16.1989
15.4747
17.7285
23.1777
29.1002
36.9375
44.3589
44.2597
40.6952
35.7521
30.119
24.3846
19.4073
15.4021
15.3423
20.2013
26.3849
33.0547
40.813
48.6326
52.1521
49.4982
38.721
33.9004
31.1585
28.62
24.0384
18.4529
15.8325
19.339
26.6564
34.9797
43.0982
50.2448
55.4423
59.5562
62.304
62.6003
59.0588
51.8109
42.9635
34.219
28.7755
30.5779
36.5082
42.353
47.4471
51.5097
55.1391
59.4808
62.7321
62.2034
52.6794
42.2446
50.8193
46.8135
41.4709
35.2359
29.6348
26.9668
28.9306
35.2254
44.1066
54.3666
63.7684
69.727
73.8276
82.7155
90.4401
91.7666
85.4959
72.8805
56.6943
39.7506
36.8251
48.5071
63.7018
77.8585
89.5023
97.4663
94.8925
83.2026
49.7543
55.7173
36.8924
46.4696
55.185
63.5153
70.3273
73.4748
73.0109
68.9938
64.0089
56.9697
46.9154
37.5194
30.6347
30.2532
37.1101
45.8144
56.154
62.9458
75.1277
81.705
85.7033
81.6901
71.8603
57.7441
44.3553
30.5527
25.0085
27.6524
38.8935
32.8568
24.6983
23.3461
22.1324
22.3167
24.1491
27.1514
30.9515
35.7151
42.7226
53.0499
63.2294
69.2113
69.4981
65.4872
57.8528
48.5636
38.3457
28.7062
23.0084
25.7698
32.8368
41.0271
49.6888
57.7934
63.3632
66.1063
64.0889
56.5719
47.0646
46.3794
34.8053
29.9759
35.1107
44.196
56.0976
71.5063
92.0743
107.675
111.804
109.572
97.9871
79.9917
62.3859
45.8763
33.6337
34.0908
43.5781
51.5262
62.8675
70.7448
81.1138
85.5439
89.5844
86.4563
79.7025
67.4742
51.8378
37.9532
42.0059
44.6654
38.98
50.2246
63.4462
74.2658
80.217
77.2262
76.4836
67.0021
58.6863
48.0918
37.3918
28.8648
35.5624
46.723
55.8378
63.7176
70.5612
74.3861
77.4201
75.4109
68.2667
56.1432
42.8731
30.4715
23.6762
26.416
28.6177
29.0944
40.296
74.2718
76.3501
85.7908
89.6408
87.2363
80.0385
71.3642
62.4436
49.5751
38.7061
35.2515
47.0657
62.7709
75.3774
85.9448
92.5401
93.0872
87.5035
76.9488
64.2679
50.8816
39.0028
30.6038
30.2038
35.4976
39.698
39.8988
36.1668
30.7716
34.8786
43.8186
49.9377
71.3515
91.3783
106.14
114.603
117.269
110.9
102.449
86.9961
72.5729
58.1102
49.9156
61.0174
78.463
92.3158
106.244
114.12
114.19
107.173
90.1833
71.0569
53.1514
39.7029
36.2175
44.2814
51.6869
51.3409
45.1109
46.2609
115.643
129.845
139.149
139.563
131.779
122.054
107.288
92.5107
78.5444
72.8898
81.1957
99.6598
116.507
132.825
138.86
138.042
132.105
119.067
102.234
84.9398
68.8412
55.1739
46.2802
47.7089
57.9827
68.3879
71.2033
64.1385
52.4282
66.3647
60.955
70.6304
85.564
85.5424
80.6848
73.0601
62.2202
50.58
39.3887
29.4221
29.8624
40.3106
54.0678
63.9463
74.9745
83.5838
86.5174
84.8324
79.1822
72.046
64.8216
59.1303
53.5118
50.9701
52.2223
56.6013
62.5316
67.9386
72.9665
68.3991
32.4884
25.9679
34.4741
39.2031
46.3265
54.7796
60.5168
63.1078
59.235
53.6787
46.5139
37.8501
28.4304
25.7327
33.8191
44.1839
52.4098
58.9048
61.8066
61.408
57.4929
49.6103
38.1294
27.2506
19.6135
17.4875
13.1144
13.5126
17.0966
17.3585
16.9137
13.4653
13.4859
15.8602
17.4403
15.2261
11.2573
8.72845
8.96578
11.7994
16.1915
18.827
18.1327
15.6053
18.9332
24.0007
29.3654
28.221
23.6252
19.8486
17.2948
16.2391
15.5569
14.3485
14.4928
17.787
24.3333
30.3364
37.1663
44.0722
43.3089
39.792
34.847
29.2728
23.56
18.1754
13.5243
13.0825
18.5729
25.4481
32.8932
41.4189
49.6749
52.88
50.1452
40.8579
38.6732
39.2551
31.7463
30.9753
29.1725
25.4754
20.5276
16.9662
18.8829
25.3759
33.692
42.279
49.2246
54.2825
58.65
62.2759
62.6458
58.7981
51.3594
41.5419
31.4329
22.8303
24.1222
32.256
39.3065
45.3451
50.8639
55.8956
60.3107
64.4772
64.9349
55.7326
44.8323
45.532
47.2064
50.7589
47.7633
43.3132
37.8059
32.3652
28.3796
28.9799
34.3245
42.4011
51.8971
60.777
66.8978
70.9682
79.1623
88.2007
90.1698
85.1673
75.4908
62.0609
48.7695
44.8555
52.8221
66.2092
79.7002
92.9044
98.1399
96.7761
84.4306
54.1801
49.1684
51.3969
37.1271
39.1427
47.4552
55.8759
63.2349
70.1646
74.1685
73.5347
70.6358
65.8037
58.1207
48.2811
39.1029
30.6353
27.5034
32.8871
41.3306
52.1447
59.9933
74.4218
78.5133
85.2301
81.4212
71.0969
57.4219
45.3912
32.8815
27.9152
29.2294
30.0987
38.5337
37.7275
31.8746
28.8006
26.8417
24.8434
23.7183
24.1876
26.1413
29.3915
33.7459
40.3769
49.3304
61.2993
68.6827
70.1643
66.8955
60.7256
51.1356
43.0594
34.5734
28.8229
29.0042
34.1635
41.438
49.7971
57.3758
63.291
66.1413
65.7837
59.2954
47.9415
50.3409
59.8763
48.317
36.7799
31.1471
34.2966
42.2403
52.8226
67.0584
87.1177
105.322
112.593
111.378
101.85
85.9745
68.3879
52.8365
40.1791
35.5991
41.7428
48.27
59.7819
66.2113
78.4007
81.4491
85.7619
84.2855
77.8598
65.5323
51.6444
43.9229
44.6135
47.8452
45.9929
30.5672
37.972
49.2657
63.111
74.6281
82.04
79.5211
79.0808
70.4705
62.5426
53.8728
42.6848
33.4745
34.7586
44.8276
54.1873
62.6946
69.1847
74.0167
76.7644
74.7695
67.6238
55.1265
41.2415
29.9572
31.8775
40.1979
46.9607
51.1215
54.0685
56.6521
63.5342
62.3091
77.4931
87.3922
91.5522
90.3509
84.2994
75.7839
68.1596
56.7528
47.0635
41.2264
49.0532
63.2492
75.2569
86.2184
91.2364
92.3998
87.6435
78.0549
64.9464
51.0743
39.0892
30.815
32.0094
41.1151
49.9841
55.913
59.4017
60.5285
57.0381
64.5092
75.368
67.6079
70.3439
83.5409
99.6497
112.671
121.16
122.797
118.394
109.837
95.0573
81.7882
69.3594
60.6769
68.5396
79.4817
95.0357
107.716
114.562
114.111
107.172
90.3948
71.114
53.7931
42.1932
44.3532
58.3466
71.5538
78.9161
79.162
72.6638
73.7702
82.0672
104.801
124.936
138.586
141.576
135.435
126.696
108.158
95.6697
79.5455
66.8605
67.1783
81.4021
108.688
130.17
136.268
139.926
135.166
123.976
106.877
89.6317
72.7461
57.9106
46.7722
45.6577
54.5847
65.7761
71.5812
68.2922
55.736
46.2251
57.2837
59.0359
62.3237
72.8629
85.7324
83.9588
79.6783
72.1799
62.0175
50.9096
40.2344
31.452
31.9063
40.9667
53.2809
62.5009
72.3528
80.5612
82.106
78.5804
73.8987
68.3674
63.8071
61.6912
60.9705
59.981
59.0318
59.8553
61.3891
64.0405
66.7067
61.3917
50.2914
41.3677
29.2107
25.7467
31.4438
39.0219
45.1329
53.8816
59.9725
61.6782
58.0528
52.6205
43.9743
34.9713
24.7376
24.5513
34.7227
44.9935
53.3944
59.522
62.6296
61.7314
57.703
49.4106
37.6366
26.8588
19.7262
18.7113
18.6174
21.9505
26.2455
25.6446
8.6171
4.08934
16.1167
12.9819
14.3889
17.5844
17.9485
14.4551
10.3779
8.68454
9.4774
12.5312
16.4345
18.5737
17.8313
15.8313
12.2022
14.8347
25.3106
29.7607
26.6635
21.469
17.6005
15.245
13.8077
12.9406
13.9668
17.8408
24.8572
30.4837
35.7939
42.7373
42.0836
39.1313
34.9231
30.2084
25.4938
21.0462
17.797
17.9424
21.8813
27.795
34.9929
43.1806
49.8798
51.9323
49.2568
42.2917
23.3366
22.706
28.7208
30.3666
29.7369
26.9251
22.9717
19.2111
19.2644
24.3759
31.6637
40.091
46.838
51.768
56.6902
60.8286
62.3458
59.4166
53.4613
45.3541
37.7726
31.0897
30.2055
34.8223
40.4806
45.7739
51.0921
56.4993
61.5617
65.3953
65.0842
54.566
28.3341
27.5453
44.5502
48.011
46.8866
44.7434
41.9232
38.2884
35.1846
34.3385
37.2265
42.898
50.337
57.7714
62.9277
65.8015
73.4301
82.918
87.0482
84.9395
78.271
70.5113
61.0617
58.2392
62.8273
72.3272
84.0598
93.9298
97.5987
94.3211
82.2531
59.9772
31.9109
30.9891
32.8188
37.854
46.6
54.5812
61.1239
68.1477
73.0346
74.1092
72.3261
68.7023
62.5407
55.0486
47.8758
41.3524
37.939
39.1998
45.6593
52.7503
62.5285
73.0256
77.3452
83.8012
78.4962
67.8528
55.7665
44.11
33.4053
29.3062
30.0078
30.4278
28.3839
28.573
30.0473
30.5126
30.1786
28.3654
26.3519
25.2526
25.748
28.0432
31.5787
37.0165
45.3867
56.4681
66.1625
69.1536
67.5331
63.1395
55.417
48.9949
42.2706
38.4043
36.955
39.859
45.0242
51.3579
57.9886
62.9325
66.4072
65.5966
59.3958
49.5012
37.1719
41.0478
46.4936
35.2388
29.824
32.0212
39.6328
49.3609
60.7491
78.6204
99.0018
109.257
111.408
106.327
93.6394
79.5968
65.3383
55.0397
50.5172
50.152
54.7634
60.9532
67.1981
75.9824
78.1676
81.9969
80.3721
73.6397
61.7165
50.1285
45.4516
43.5232
32.4187
27.8008
28.1449
35.2776
46.2003
59.8374
72.6763
81.2998
81.0966
81.662
75.2327
68.9477
64.1182
57.0223
52.0215
50.2083
54.837
59.2883
65.899
71.1244
75.2188
76.0716
73.8268
66.4074
54.654
42.0052
33.2252
33.3602
37.7805
41.2047
42.6847
42.205
41.8358
46.6936
63.3599
77.1891
88.1327
93.4901
93.2954
89.8338
83.9331
78.0292
71.5432
65.4962
62.043
65.2974
71.4261
79.5433
87.1844
91.2171
91.6196
86.4493
77.1926
64.7386
50.8009
38.6645
30.8939
31.1991
39.5847
49.9116
58.616
65.4338
69.3678
71.5761
72.1658
70.9847
65.7719
71.5056
86.1109
102.922
116.39
127.253
129.554
128.517
122.991
114.009
102.873
92.6913
89.7901
92.5064
94.9198
105.238
112.612
115.247
113.928
104.662
88.1676
70.9599
54.1474
41.8436
37.9103
43.9503
54.2289
62.3025
66.6613
66.8645