/*--------------------------------*- C++ -*----------------------------------*\
| =========                 |                                                 |
| \\      /  F ield         | OpenFOAM: The Open Source CFD Toolbox           |
|  \\    /   O peration     | Version:  2.1.1                                 |
|   \\  /    A nd           | Web:      www.OpenFOAM.org                      |
|    \\/     M anipulation  |                                                 |
\*---------------------------------------------------------------------------*/
FoamFile
{
    version     2.0;
    format      ascii;
    class       volScalarField;
    location    "0.001750000";
    object      omegaC_burn;
}
// * * * * * * * * * * * * * * * * * * * * * * * * * * * * * * * * * * * * * //

dimensions      [1 -3 -1 0 0 0 0];

internalField   nonuniform List<scalar> 
12384
(
4946.54
5197.91
5142.57
2695.12
245.513
16.8714
1.47387
1.59701
0.436632
0.0372215
0.00164212
5.3289e-05
1.34739e-06
2.33908e-08
3.41265e-05
0.00229947
0.106796
0.719611
3.18896
13.3922
22.0921
28.178
27.1481
27.7078
25.2085
26.1193
28.4149
22.8844
13.4658
5.75519
1.91155
1.08298
0.200874
0.000368182
3.40022e-07
3.32362e-10
4.06889e-13
6.4691e-16
1.19331e-18
7.23488e-21
2.83958e-23
3.20138e-25
5.50274e-26
2.1323e-23
1.91787e-27
4.07229e-26
1.96464e-25
1.70579e-25
1.9938e-26
2.37449e-28
6.39519e-30
2.09108e-30
2.94438e-31
2.48013e-32
1.97405e-34
2.24558e-36
1.45944e-39
2.33899e-43
3.49489e-47
4.74631e-51
7.13036e-55
1.20906e-58
2.17361e-62
4.07147e-66
7.87947e-70
1.58107e-73
3.20497e-77
6.61392e-81
1.40425e-84
3.0031e-88
6.62394e-92
1.48146e-95
3.40487e-99
8.09304e-103
1.87336e-117
1.50811e-118
5.53747e-121
1.20793e-123
1.74486e-126
1.38754e-129
7.54361e-133
3.31255e-136
1.30685e-139
4.31699e-143
1.51795e-146
5.80683e-150
2.47249e-153
1.21987e-156
7.411e-160
0
0
0
0
0
0
0
0
0
0
0
0
0
0
0
0
0
0
0
0
0
0
0
0
0
0
0
0
0
0
0
0
0
0
0
0
0
0
0
0
0
0
0
0
0
0
0
0
0
0
0
0
0
0
0
0
0
0
0
0
0
0
0
0
0
0
0
0
0
0
0
0
0
0
0
0
0
0
0
0
0
0
0
0
0
0
0
0
0
0
0
0
0
0
0
0
0
0
0
0
0
0
0
0
0
0
0
0
0
0
0
0
0
0
0
0
0
0
0
0
0
0
0
0
0
0
0
0
0
0
0
0
0
0
0
0
0
0
0
0
0
0
0
0
0
0
0
0
0
0
0
0
0
0
0
0
0
0
0
0
0
0
0
0
0
0
0
0
0
0
0
0
0
0
0
0
0
0
0
0
0
0
0
0
0
0
0
0
0
0
0
0
0
0
0
0
0
0
0
0
0
0
0
0
0
0
0
0
0
0
0
0
0
0
0
0
0
0
0
0
0
0
0
0
0
0
0
0
0
0
0
0
0
0
0
0
0
0
0
0
0
0
0
0
0
0
0
0
0
0
0
0
0
0
0
0
0
0
0
0
0
0
0
0
0
0
0
0
0
0
0
0
0
0
0
0
0
0
0
0
0
0
0
0
0
5331.13
4698.28
5134.59
4809.45
410.765
63.2133
23.6268
16.7281
6.88562
1.89253
0.105432
0.00286451
7.9665e-05
1.23306e-06
0.0016706
0.195998
4.67564
15.8738
58.4506
224.047
298.218
359.32
364.89
371.3
363.026
372.075
385.503
310.997
228.952
77.0876
26.9854
13.9273
3.01174
0.0334085
1.52232e-05
1.45722e-08
1.17949e-10
1.13618e-13
1.83584e-16
2.94497e-18
8.80612e-21
1.49157e-22
3.39733e-23
1.47052e-20
2.31248e-24
5.67e-23
3.63374e-22
4.30635e-22
7.44443e-23
1.11564e-24
2.34541e-26
8.61443e-27
1.57556e-27
2.12087e-28
2.13237e-30
2.35942e-32
1.45099e-35
1.45164e-39
1.39686e-43
1.00476e-48
4.55928e-52
1.9553e-55
2.7742e-59
2.01574e-63
1.64421e-67
1.76051e-71
2.29971e-75
3.48756e-79
6.13286e-83
1.15928e-86
2.77389e-90
6.13895e-94
1.35906e-97
3.11241e-101
7.09417e-114
5.56635e-115
2.48242e-117
5.50898e-120
7.89102e-123
5.94896e-126
2.87732e-129
1.05332e-132
3.2879e-136
3.73921e-140
5.20998e-144
9.91559e-148
2.7772e-151
1.2393e-154
9.4576e-158
1.64611e-160
0
0
0
0
0
0
0
0
0
0
0
0
0
0
0
0
0
0
0
0
0
0
0
0
0
0
0
0
0
0
0
0
0
0
0
0
0
0
0
0
0
0
0
0
0
0
0
0
0
0
0
0
0
0
0
0
0
0
0
0
0
0
0
0
0
0
0
0
0
0
0
0
0
0
0
0
0
0
0
0
0
0
0
0
0
0
0
0
0
0
0
0
0
0
0
0
0
0
0
0
0
0
0
0
0
0
0
0
0
0
0
0
0
0
0
0
0
0
0
0
0
0
0
0
0
0
0
0
0
0
0
0
0
0
0
0
0
0
0
0
0
0
0
0
0
0
0
0
0
0
0
0
0
0
0
0
0
0
0
0
0
0
0
0
0
0
0
0
0
0
0
0
0
0
0
0
0
0
0
0
0
0
0
0
0
0
0
0
0
0
0
0
0
0
0
0
0
0
0
0
0
0
0
0
0
0
0
0
0
0
0
0
0
0
0
0
0
0
0
0
0
0
0
0
0
0
0
0
0
0
0
0
0
0
0
0
0
0
0
0
0
0
0
0
0
0
0
0
0
0
0
0
0
0
0
0
0
0
0
0
0
0
0
0
0
0
0
0
0
0
0
0
0
0
0
0
0
0
0
0
0
0
0
0
4858.35
3874.22
3861.06
3491.24
325.933
140.942
124.98
96.6344
42.0682
14.3707
3.71307
0.402607
0.00634896
7.0095e-05
0.115702
7.73083
152.243
305.26
807.569
5460.99
7292.47
7655.13
8233.98
8171.6
8583.17
9342.18
10894.8
10931.2
10861.5
2380.09
751.355
449.122
262.262
38.1405
1.78757
3.21532e-08
2.3048e-16
1.88353e-18
1.1151e-17
1.78753e-15
3.0812e-18
8.85984e-20
2.04027e-20
9.91942e-18
4.23379e-21
1.45535e-19
1.55871e-18
2.92346e-18
7.02727e-19
1.14227e-20
1.22126e-22
3.76085e-23
8.44192e-24
1.75793e-24
2.91323e-26
4.1532e-28
3.6485e-31
1.40468e-34
3.155e-38
4.46199e-43
7.90787e-54
2.90136e-64
6.63897e-79
9.09541e-86
1.82328e-108
2.9519e-116
4.61774e-195
0
3.37161e-80
4.14111e-84
8.25279e-87
1.03483e-90
1.51321e-94
3.41258e-98
8.0252e-110
7.19955e-111
3.99084e-113
8.96043e-116
1.27781e-118
9.20699e-122
4.0683e-125
1.30158e-128
3.51316e-132
0
0
0
0
0
0
0
2.41911e-159
2.66034e-162
0
0
0
0
0
0
0
0
0
0
0
0
0
0
0
0
0
0
0
0
0
0
0
0
0
0
0
0
0
0
0
0
0
0
0
0
0
0
0
0
0
0
0
0
0
0
0
0
0
0
0
0
0
0
0
0
0
0
0
0
0
0
0
0
0
0
0
0
0
0
0
0
0
0
0
0
0
0
0
0
0
0
0
0
0
0
0
0
0
0
0
0
0
0
0
0
0
0
0
0
0
0
0
0
0
0
0
0
0
0
0
0
0
0
0
0
0
0
0
0
0
0
0
0
0
0
0
0
0
0
0
0
0
0
0
0
0
0
0
0
0
0
0
0
0
0
0
0
0
0
0
0
0
0
0
0
0
0
0
0
0
0
0
0
0
0
0
0
0
0
0
0
0
0
0
0
0
0
0
0
0
0
0
0
0
0
0
0
0
0
0
0
0
0
0
0
0
0
0
0
0
0
0
0
0
0
0
0
0
0
0
0
0
0
0
0
0
0
0
0
0
0
0
0
0
0
0
0
0
0
0
0
0
0
0
0
0
0
0
0
0
0
0
0
0
0
0
0
0
0
0
0
0
0
0
0
0
0
0
0
0
0
0
0
0
0
0
0
0
0
0
0
0
0
0
0
0
0
0
0
0
0
4064.23
3338.25
2782.49
2451.66
2026.98
0
0
2211.6
621.664
204.214
47.7535
8.78474
1.65246
0.0116507
2.31525
143.694
2911.68
7821.7
9592.7
10713.1
10714.5
10714.6
10511.9
10561.9
11008.5
12634.6
13189.9
13204.1
13069.6
13231.8
14251.6
14659.5
13149.5
1239.98
112.97
5.69027
0.0119835
3.86177e-08
1.58559e-13
8.13552e-20
4.92673e-16
8.31577e-17
1.26668e-17
6.54267e-15
1.85e-17
8.03815e-16
9.8657e-15
1.24818e-14
2.12502e-15
3.14538e-17
1.88952e-19
5.65301e-20
1.44223e-20
4.54218e-21
1.1346e-22
1.69998e-24
1.95539e-27
1.23302e-30
5.38742e-34
1.50249e-37
2.82527e-41
3.92475e-45
4.61371e-49
8.90728e-54
2.36712e-60
3.6327e-74
1.43728e-105
0
0
0
1.00397e-82
3.10659e-87
1.49305e-91
1.45475e-94
3.82584e-105
2.40507e-106
1.36724e-108
3.018e-111
4.49938e-114
3.53668e-117
1.66671e-120
5.70132e-124
1.54001e-127
3.80482e-131
9.01432e-135
2.27901e-138
6.41972e-142
2.04649e-145
8.06238e-149
4.42369e-152
3.46487e-155
3.60893e-158
3.74298e-161
0
0
0
0
0
0
0
0
0
0
0
0
0
0
0
0
0
0
0
0
0
0
0
0
0
0
0
0
0
0
0
0
0
0
0
0
0
0
0
0
0
0
0
0
0
0
0
0
0
0
0
0
0
0
0
0
0
0
0
0
0
0
0
0
0
0
0
0
0
0
0
0
0
0
0
0
0
0
0
0
0
0
0
0
0
0
0
0
0
0
0
0
0
0
0
0
0
0
0
0
0
0
0
0
0
0
0
0
0
0
0
0
0
0
0
0
0
0
0
0
0
0
0
0
0
0
0
0
0
0
0
0
0
0
0
0
0
0
0
0
0
0
0
0
0
0
0
0
0
0
0
0
0
0
0
0
0
0
0
0
0
0
0
0
0
0
0
0
0
0
0
0
0
0
0
0
0
0
0
0
0
0
0
0
0
0
0
0
0
0
0
0
0
0
0
0
0
0
0
0
0
0
0
0
0
0
0
0
0
0
0
0
0
0
0
0
0
0
0
0
0
0
0
0
0
0
0
0
0
0
0
0
0
0
0
0
0
0
0
0
0
0
0
0
0
0
0
0
0
0
0
0
0
0
0
0
0
0
0
0
0
0
0
0
0
0
0
0
0
0
0
0
0
0
0
0
0
0
0
0
0
3599.38
3418.53
3468.24
3677.72
5518.98
5770.51
5236.13
4738.14
4272.87
3711.54
843.801
207.302
24.5215
1.21422
14.9455
405.722
10141.9
12882.7
13090
13459.1
13130.5
12206
12455.4
12125.3
12701.8
13205.3
12804.1
12802.5
13634.6
14197.5
14550
15285.9
15919.6
14789
1821.49
169.133
10.51
0.0886248
0.00047736
3.25605e-08
6.96391e-15
7.95228e-14
1.10114e-14
4.54394e-12
1.50307e-13
3.86125e-12
1.94583e-11
1.57948e-11
3.03885e-12
7.11242e-14
2.91146e-16
8.22164e-17
2.18691e-17
1.11726e-17
4.29221e-19
6.4719e-21
7.37529e-24
4.12436e-27
1.89219e-30
8.00192e-34
2.64628e-37
6.06748e-41
1.04176e-44
1.49118e-48
1.90194e-52
2.16796e-56
2.22005e-60
1.84671e-64
0
0
0
0
8.46338e-88
2.23338e-90
7.70339e-101
2.16638e-102
1.07715e-104
2.12329e-107
3.3594e-110
3.1798e-113
1.93474e-116
8.35235e-120
2.75412e-123
7.78811e-127
2.06793e-130
5.59226e-134
1.661e-137
5.10427e-141
1.89283e-144
8.0653e-148
4.95514e-151
4.19549e-154
4.35022e-157
5.13777e-160
0
0
0
0
0
0
0
0
0
0
0
0
0
0
0
0
0
0
0
0
0
0
0
0
0
0
0
0
0
0
0
0
0
0
0
0
0
0
0
0
0
0
0
0
0
0
0
0
0
0
0
0
0
0
0
0
0
0
0
0
0
0
0
0
0
0
0
0
0
0
0
0
0
0
0
0
0
0
0
0
0
0
0
0
0
0
0
0
0
0
0
0
0
0
0
0
0
0
0
0
0
0
0
0
0
0
0
0
0
0
0
0
0
0
0
0
0
0
0
0
0
0
0
0
0
0
0
0
0
0
0
0
0
0
0
0
0
0
0
0
0
0
0
0
0
0
0
0
0
0
0
0
0
0
0
0
0
0
0
0
0
0
0
0
0
0
0
0
0
0
0
0
0
0
0
0
0
0
0
0
0
0
0
0
0
0
0
0
0
0
0
0
0
0
0
0
0
0
0
0
0
0
0
0
0
0
0
0
0
0
0
0
0
0
0
0
0
0
0
0
0
0
0
0
0
0
0
0
0
0
0
0
0
0
0
0
0
0
0
0
0
0
0
0
0
0
0
0
0
0
0
0
0
0
0
0
0
0
0
0
0
0
0
0
0
0
0
0
0
0
0
0
0
0
0
0
0
0
0
0
4537.91
5050.63
6088.84
7547.26
9284.93
8499.62
7232.98
6693.83
6251.3
5831.37
5205.31
4389.53
284.042
10.4125
47.3595
918.12
13089.9
15961.9
16154.9
15562.7
14884.2
14288.9
13930.4
13935.6
13593.9
13208.3
12454.1
12183.4
12666.5
13301.5
14084.1
14782.8
15859.1
16198.3
15009.3
2377.06
250.702
26.8744
1.25156
0.0111551
6.68512e-06
1.76022e-13
1.32635e-11
3.52265e-09
7.74898e-10
6.08303e-09
1.64968e-08
1.41879e-08
4.06782e-09
1.95518e-10
5.87233e-13
1.22756e-13
1.62409e-14
2.4914e-14
1.46458e-15
2.37485e-17
2.8935e-20
1.5118e-23
5.85663e-27
2.13045e-30
7.99473e-34
2.79771e-37
7.64528e-41
1.60255e-44
2.81451e-48
4.26775e-52
5.77545e-56
6.90529e-60
7.294e-64
6.69813e-68
5.00195e-72
0
0
1.06209e-85
7.47905e-97
8.96167e-99
4.01224e-101
7.0675e-104
1.05598e-106
1.00797e-109
7.11142e-113
4.02258e-116
1.76155e-119
6.2675e-123
1.98656e-126
6.0724e-130
1.9415e-133
6.36881e-137
2.2941e-140
9.05444e-144
4.39918e-147
2.82913e-150
2.56628e-153
2.87563e-156
3.2827e-159
3.91376e-162
0
0
0
0
0
0
0
0
0
0
0
0
0
0
0
0
0
0
0
0
0
0
0
0
0
0
0
0
0
0
0
0
0
0
0
0
0
0
0
0
0
0
0
0
0
0
0
0
0
0
0
0
0
0
0
0
0
0
0
0
0
0
0
0
0
0
0
0
0
0
0
0
0
0
0
0
0
0
0
0
0
0
0
0
0
0
0
0
0
0
0
0
0
0
0
0
0
0
0
0
0
0
0
0
0
0
0
0
0
0
0
0
0
0
0
0
0
0
0
0
0
0
0
0
0
0
0
0
0
0
0
0
0
0
0
0
0
0
0
0
0
0
0
0
0
0
0
0
0
0
0
0
0
0
0
0
0
0
0
0
0
0
0
0
0
0
0
0
0
0
0
0
0
0
0
0
0
0
0
0
0
0
0
0
0
0
0
0
0
0
0
0
0
0
0
0
0
0
0
0
0
0
0
0
0
0
0
0
0
0
0
0
0
0
0
0
0
0
0
0
0
0
0
0
0
0
0
0
0
0
0
0
0
0
0
0
0
0
0
0
0
0
0
0
0
0
0
0
0
0
0
0
0
0
0
0
0
0
0
0
0
0
0
0
0
0
0
0
0
0
0
0
0
0
0
0
0
0
7869.73
8547.71
9097.35
10419.8
9971.35
9074.79
7630.83
7075.3
7014.44
7101.58
6700.18
5549.75
561.642
20.0181
239.867
7893.44
18031.1
19902.3
18130.5
16812.4
15471.1
15304.2
15179.8
15152.1
14609.3
14030.3
12915.7
12739.2
12667
13204.5
13992.2
14721.2
15310.6
16120.2
15959.5
15261.6
3420.97
567.901
68.9386
8.80961
0.183019
0.000250579
1.43425e-12
3.42053e-06
2.1058e-06
5.19048e-06
9.09943e-06
9.97059e-06
4.76818e-06
4.79102e-07
9.46915e-10
1.15271e-12
1.13041e-13
6.71598e-14
4.75309e-12
8.06579e-14
1.02203e-16
5.29027e-20
1.92562e-23
6.0116e-27
1.86126e-30
6.19875e-34
2.09511e-37
6.31517e-41
1.58022e-44
3.36741e-48
6.19796e-52
9.99334e-56
1.37819e-59
1.67845e-63
1.62915e-67
1.15884e-71
0
6.09176e-81
4.60585e-93
2.95137e-95
1.426e-97
2.30534e-100
3.13886e-103
2.6687e-106
1.65644e-109
9.17264e-113
4.74305e-116
2.13684e-119
8.39264e-123
3.03205e-126
1.08591e-129
3.87248e-133
1.45653e-136
5.69244e-140
2.50605e-143
1.28019e-146
9.02521e-150
8.53905e-153
9.87824e-156
1.19577e-158
1.44513e-161
0
0
0
0
0
0
0
0
0
0
0
0
0
0
0
0
0
0
0
0
0
0
0
0
0
0
0
0
0
0
0
0
0
0
0
0
0
0
0
0
0
0
0
0
0
0
0
0
0
0
0
0
0
0
0
0
0
0
0
0
0
0
0
0
0
0
0
0
0
0
0
0
0
0
0
0
0
0
0
0
0
0
0
0
0
0
0
0
0
0
0
0
0
0
0
0
0
0
0
0
0
0
0
0
0
0
0
0
0
0
0
0
0
0
0
0
0
0
0
0
0
0
0
0
0
0
0
0
0
0
0
0
0
0
0
0
0
0
0
0
0
0
0
0
0
0
0
0
0
0
0
0
0
0
0
0
0
0
0
0
0
0
0
0
0
0
0
0
0
0
0
0
0
0
0
0
0
0
0
0
0
0
0
0
0
0
0
0
0
0
0
0
0
0
0
0
0
0
0
0
0
0
0
0
0
0
0
0
0
0
0
0
0
0
0
0
0
0
0
0
0
0
0
0
0
0
0
0
0
0
0
0
0
0
0
0
0
0
0
0
0
0
0
0
0
0
0
0
0
0
0
0
0
0
0
0
0
0
0
0
0
0
0
0
0
0
0
0
0
0
0
0
0
0
0
0
0
9805.66
10185.6
10739.3
10688.9
9609.26
8364.16
8058.95
8298.13
8838.67
8943.19
8022.67
5530.81
446.292
25.9684
338.979
12865.8
23624.6
22433.6
19459
17118.5
16214.3
16030.8
15644.9
16348.8
16186.4
15451.5
14560.3
14037.9
13650.4
13566.9
13916.3
14301.3
14706.5
15114.6
15419.1
15558.5
15795.7
16652.8
1135.33
457.562
61.858
3.59983
1.60253e-05
0.00208346
0.00185751
0.00228662
0.00305881
0.00412079
0.00299806
0.000478315
2.46183e-06
3.14817e-09
6.3268e-13
1.03844e-11
1.04008e-09
2.87859e-10
3.08223e-13
1.5889e-16
5.69058e-20
1.69351e-23
4.608e-27
1.27324e-30
3.82117e-34
1.21483e-37
3.72387e-41
1.03891e-44
2.57484e-48
5.58944e-52
1.05429e-55
1.73193e-59
2.32415e-63
2.36671e-67
1.4779e-71
3.22004e-76
2.2592e-89
4.79374e-92
6.73794e-94
9.36208e-97
1.00983e-99
7.29734e-103
3.87385e-106
1.82916e-109
8.6572e-113
4.05674e-116
1.78762e-119
7.42748e-123
2.96471e-126
1.16656e-129
4.64081e-133
1.87419e-136
8.01457e-140
3.69883e-143
2.03726e-146
1.46162e-149
1.44224e-152
1.6899e-155
2.13642e-158
2.55272e-161
0
0
0
0
0
0
0
0
0
0
0
0
0
0
0
0
0
0
0
0
0
0
0
0
0
0
0
0
0
0
0
0
0
0
0
0
0
0
0
0
0
0
0
0
0
0
0
0
0
0
0
0
0
0
0
0
0
0
0
0
0
0
0
0
0
0
0
0
0
0
0
0
0
0
0
0
0
0
0
0
0
0
0
0
0
0
0
0
0
0
0
0
0
0
0
0
0
0
0
0
0
0
0
0
0
0
0
0
0
0
0
0
0
0
0
0
0
0
0
0
0
0
0
0
0
0
0
0
0
0
0
0
0
0
0
0
0
0
0
0
0
0
0
0
0
0
0
0
0
0
0
0
0
0
0
0
0
0
0
0
0
0
0
0
0
0
0
0
0
0
0
0
0
0
0
0
0
0
0
0
0
0
0
0
0
0
0
0
0
0
0
0
0
0
0
0
0
0
0
0
0
0
0
0
0
0
0
0
0
0
0
0
0
0
0
0
0
0
0
0
0
0
0
0
0
0
0
0
0
0
0
0
0
0
0
0
0
0
0
0
0
0
0
0
0
0
0
0
0
0
0
0
0
0
0
0
0
0
0
0
0
0
0
0
0
0
0
0
0
0
0
0
0
0
0
0
10574.4
11180.4
11247.9
10727.8
9690.23
9308.45
9954.91
10690.9
11407.6
11881.4
10869.5
7505.74
4067.77
216.275
8934.18
9784.94
2545.11
23030.1
27734.1
24593
19223.6
17540.7
16873.7
17004.8
16718.8
16886.1
17285
17289
16480.4
15647.3
14652.6
14150.1
13914.8
13824.3
13871.3
14546.3
15224.9
15773.7
17046.4
19067.6
19185.5
21304.2
1416.16
433.29
27.5357
4.04338e-06
2.15728e-06
4.44902e-05
4.45321e-10
5.58928e-08
3.39659e-05
0.00118414
0.00330268
0.000846309
4.63309e-05
4.11088e-07
5.75019e-07
2.29418e-06
7.57973e-05
1.18408e-06
9.08875e-10
3.83123e-13
1.38694e-16
4.09628e-20
1.07589e-23
2.66131e-27
6.75909e-31
1.85316e-34
5.47994e-38
1.63854e-41
4.70818e-45
1.27187e-48
3.14286e-52
7.06938e-56
1.29968e-59
2.03833e-63
2.03279e-67
3.23377e-78
3.57788e-77
3.71396e-81
5.79942e-86
1.63737e-88
4.55924e-90
4.92699e-93
3.55655e-96
1.94697e-99
8.80775e-103
3.60197e-106
1.4771e-109
6.28367e-113
2.67705e-116
1.12435e-119
4.59487e-123
1.89739e-126
7.77461e-130
3.24602e-133
1.40004e-136
6.2781e-140
3.09464e-143
1.74022e-146
1.27313e-149
1.25263e-152
1.52269e-155
1.94715e-158
2.44427e-161
0
0
0
0
0
0
0
0
0
0
0
0
0
0
0
0
0
0
0
0
0
0
0
0
0
0
0
0
0
0
0
0
0
0
0
0
0
0
0
0
0
0
0
0
0
0
0
0
0
0
0
0
0
0
0
0
0
0
0
0
0
0
0
0
0
0
0
0
0
0
0
0
0
0
0
0
0
0
0
0
0
0
0
0
0
0
0
0
0
0
0
0
0
0
0
0
0
0
0
0
0
0
0
0
0
0
0
0
0
0
0
0
0
0
0
0
0
0
0
0
0
0
0
0
0
0
0
0
0
0
0
0
0
0
0
0
0
0
0
0
0
0
0
0
0
0
0
0
0
0
0
0
0
0
0
0
0
0
0
0
0
0
0
0
0
0
0
0
0
0
0
0
0
0
0
0
0
0
0
0
0
0
0
0
0
0
0
0
0
0
0
0
0
0
0
0
0
0
0
0
0
0
0
0
0
0
0
0
0
0
0
0
0
0
0
0
0
0
0
0
0
0
0
0
0
0
0
0
0
0
0
0
0
0
0
0
0
0
0
0
0
0
0
0
0
0
0
0
0
0
0
0
0
0
0
0
0
0
0
0
0
0
0
0
0
0
0
0
0
0
0
0
0
0
0
0
0
0
0
0
0
0
0
0
0
0
0
0
0
0
0
0
0
0
0
10469.5
10700.8
10493.9
10009.1
9578.48
9361.41
9528.37
9748.28
10037.9
10591.2
11802.7
10445.8
6778.88
6168.02
9693.73
12410.9
18116.4
29402.8
28069.8
22004
17975.9
17254.2
17952.6
18162.9
18273.3
17617.5
18130.8
18678.8
18130.9
16404
15475.4
14348.3
13726.5
13182.6
13386.5
13843.8
14557
15685.1
17605.6
19855
23010.9
25689.6
26072.3
53574.4
1593.16
37.8205
0.513136
0.036901
0.0145915
0.00310135
0.00393636
0.00915194
0.0168269
0.0169765
0.0121143
0.0396693
0.123019
0.386822
0.287245
0.0092599
2.54355e-06
7.82645e-10
2.44802e-13
7.54291e-17
2.0043e-20
4.86739e-24
1.12884e-27
2.68645e-31
6.84154e-35
1.87199e-38
5.33008e-42
1.49867e-45
4.10115e-49
1.05398e-52
2.55461e-56
5.79686e-60
1.02029e-63
1.03131e-67
1.25361e-73
1.66428e-79
9.57127e-82
2.72126e-83
4.13369e-86
2.24554e-89
1.07499e-92
4.5886e-96
1.78382e-99
6.57484e-103
2.40224e-106
9.06048e-110
3.50862e-113
1.37534e-116
5.33357e-120
2.11917e-123
8.34647e-127
3.36137e-130
1.37568e-133
5.82706e-137
2.59472e-140
1.22188e-143
6.34878e-147
3.5937e-150
2.40785e-153
1.87366e-156
1.79091e-159
0
0
0
0
0
0
0
0
0
0
0
0
0
0
0
0
0
0
0
0
0
0
0
0
0
0
0
0
0
0
0
0
0
0
0
0
0
0
0
0
0
0
0
0
0
0
0
0
0
0
0
0
0
0
0
0
0
0
0
0
0
0
0
0
0
0
0
0
0
0
0
0
0
0
0
0
0
0
0
0
0
0
0
0
0
0
0
0
0
0
0
0
0
0
0
0
0
0
0
0
0
0
0
0
0
0
0
0
0
0
0
0
0
0
0
0
0
0
0
0
0
0
0
0
0
0
0
0
0
0
0
0
0
0
0
0
0
0
0
0
0
0
0
0
0
0
0
0
0
0
0
0
0
0
0
0
0
0
0
0
0
0
0
0
0
0
0
0
0
0
0
0
0
0
0
0
0
0
0
0
0
0
0
0
0
0
0
0
0
0
0
0
0
0
0
0
0
0
0
0
0
0
0
0
0
0
0
0
0
0
0
0
0
0
0
0
0
0
0
0
0
0
0
0
0
0
0
0
0
0
0
0
0
0
0
0
0
0
0
0
0
0
0
0
0
0
0
0
0
0
0
0
0
0
0
0
0
0
0
0
0
0
0
0
0
0
0
0
0
0
0
0
0
0
0
0
0
0
0
0
0
0
0
0
0
0
0
0
0
0
0
0
0
0
0
8297.2
8899.72
8609.25
8306.17
8442.27
8592.95
8613.24
8439.95
8715.48
9128.97
10459.6
12427.8
13383.5
13890
15080.7
15606.8
18069.6
24157.1
20887.3
16839.5
15339.3
17199.4
17965.3
18398.5
18503.9
18847.1
19236.3
19054.7
17984.4
16228.2
15044.4
14298.5
13635.8
13387.7
13503.7
14111.1
14959.5
16572.1
18342.3
21535.4
24358.9
29629.5
33013.5
32774.4
43708.9
77943.1
48871.2
9911
2378.88
47.8547
7.20976
8.1995
7.87104
2.14117
0.69486
0.541211
1.01539
1.29959
1.90295
0.585983
0.00717885
1.20988e-06
2.96395e-10
8.27642e-14
2.42489e-17
6.20903e-21
1.45825e-24
3.24676e-28
7.38777e-32
1.75622e-35
4.53477e-39
1.20793e-42
3.19952e-46
8.29796e-50
2.16987e-53
5.37004e-57
1.25798e-60
3.09876e-64
6.19323e-68
1.21621e-71
2.54106e-75
6.32159e-79
1.94812e-82
6.68742e-86
2.42683e-89
8.90107e-93
3.13307e-96
1.07807e-99
3.65941e-103
1.25487e-106
4.39981e-110
1.55585e-113
5.55465e-117
2.02103e-120
7.32721e-124
2.72742e-127
1.01828e-130
3.90352e-134
1.53049e-137
6.23894e-141
2.69681e-144
1.23843e-147
6.29262e-151
3.33836e-154
1.93289e-157
1.11668e-160
0
0
0
0
0
0
0
0
0
0
0
0
0
0
0
0
0
0
0
0
0
0
0
0
0
0
0
0
0
0
0
0
0
0
0
0
0
0
0
0
0
0
0
0
0
0
0
0
0
0
0
0
0
0
0
0
0
0
0
0
0
0
0
0
0
0
0
0
0
0
0
0
0
0
0
0
0
0
0
0
0
0
0
0
0
0
0
0
0
0
0
0
0
0
0
0
0
0
0
0
0
0
0
0
0
0
0
0
0
0
0
0
0
0
0
0
0
0
0
0
0
0
0
0
0
0
0
0
0
0
0
0
0
0
0
0
0
0
0
0
0
0
0
0
0
0
0
0
0
0
0
0
0
0
0
0
0
0
0
0
0
0
0
0
0
0
0
0
0
0
0
0
0
0
0
0
0
0
0
0
0
0
0
0
0
0
0
0
0
0
0
0
0
0
0
0
0
0
0
0
0
0
0
0
0
0
0
0
0
0
0
0
0
0
0
0
0
0
0
0
0
0
0
0
0
0
0
0
0
0
0
0
0
0
0
0
0
0
0
0
0
0
0
0
0
0
0
0
0
0
0
0
0
0
0
0
0
0
0
0
0
0
0
0
0
0
0
0
0
0
0
0
0
0
0
0
0
0
0
0
0
0
0
0
0
0
0
0
0
0
0
0
0
0
6194.92
6755.07
6816.6
6532.02
6600.32
6709.37
7072.37
7244.52
7451.07
7758.2
8648.23
10197.7
11898.2
12718.5
13439.1
14974.2
16492.1
17869.5
15844.9
14426.3
15805.6
15207
15361
16460.7
17454.5
18415
18545
17799.1
16859.1
15967.5
15313.6
14570.4
14127.1
13993.7
14171.8
15053.3
16541.1
17920.3
20285.6
23865
27013.9
31767.5
37672.9
46295.2
55150.8
62870.6
46742.8
19058.9
6445.36
875.893
495.336
365.072
215.038
156.665
2.02115
0.453147
0.533244
0.37611
1.09673
1.80311
0.412695
0.000343914
1.37763e-07
5.64804e-11
1.81021e-14
5.58363e-18
1.42052e-21
3.24988e-25
6.71268e-29
1.37831e-32
3.01281e-36
6.99194e-40
1.7305e-43
4.26955e-47
1.0553e-50
2.42614e-54
5.86473e-58
1.39155e-61
3.18969e-65
8.10789e-69
2.10924e-72
5.945e-76
2.01025e-79
8.39426e-83
3.2003e-86
1.19917e-89
4.25651e-93
1.44343e-96
4.82324e-100
1.57616e-103
5.16964e-107
1.67122e-110
5.49377e-114
1.81798e-117
5.99542e-121
2.02663e-124
6.82364e-128
2.36194e-131
8.2158e-135
2.92028e-138
1.04338e-141
3.7855e-145
1.40309e-148
5.15783e-152
1.98252e-155
7.50826e-159
0
0
0
0
0
0
0
0
0
0
0
0
0
0
0
0
0
0
0
0
0
0
0
0
0
0
0
0
0
0
0
0
0
0
0
0
0
0
0
0
0
0
0
0
0
0
0
0
0
0
0
0
0
0
0
0
0
0
0
0
0
0
0
0
0
0
0
0
0
0
0
0
0
0
0
0
0
0
0
0
0
0
0
0
0
0
0
0
0
0
0
0
0
0
0
0
0
0
0
0
0
0
0
0
0
0
0
0
0
0
0
0
0
0
0
0
0
0
0
0
0
0
0
0
0
0
0
0
0
0
0
0
0
0
0
0
0
0
0
0
0
0
0
0
0
0
0
0
0
0
0
0
0
0
0
0
0
0
0
0
0
0
0
0
0
0
0
0
0
0
0
0
0
0
0
0
0
0
0
0
0
0
0
0
0
0
0
0
0
0
0
0
0
0
0
0
0
0
0
0
0
0
0
0
0
0
0
0
0
0
0
0
0
0
0
0
0
0
0
0
0
0
0
0
0
0
0
0
0
0
0
0
0
0
0
0
0
0
0
0
0
0
0
0
0
0
0
0
0
0
0
0
0
0
0
0
0
0
0
0
0
0
0
0
0
0
0
0
0
0
0
0
0
0
0
0
0
0
0
0
0
0
0
0
0
0
0
0
0
0
0
0
0
0
5111.7
5228.39
5372.49
5489
5719.13
6182.12
6600.37
6980.66
7212.7
7431.35
7892.27
9034.69
10169.1
11014.8
11890.2
13943.7
16290.3
16515.3
15836.1
15523.3
13584.6
13277.7
14146.1
15107.6
16090.7
17089.7
17244.1
17522.3
17465.7
17343.4
17042.9
16451.9
16115.4
16002.6
16682.7
17300.2
18939.8
21243.8
23884.2
27844.8
33036.2
38175.5
39975.2
38160
28768.8
18840.4
5812.31
1179.1
390.2
118.796
40.0481
18.729
10.545
8.68237
7.41804
7.94351
17.6853
10.4785
0.624909
1.74251
0.783584
0.0294771
5.07717e-06
8.39857e-10
2.27605e-13
7.618e-17
2.759e-20
8.97212e-24
2.64164e-27
7.10751e-31
1.85583e-34
4.66706e-38
1.22693e-41
3.21249e-45
8.64843e-49
2.2632e-52
6.28879e-56
1.63655e-59
4.39825e-63
1.23601e-66
3.35164e-70
9.51071e-74
2.73296e-77
7.74983e-81
2.25941e-84
6.53886e-88
1.89922e-91
5.55871e-95
1.62097e-98
4.79189e-102
1.41395e-105
4.18273e-109
1.2607e-112
3.76735e-116
1.15102e-119
3.51926e-123
1.08235e-126
3.35347e-130
1.04497e-133
3.29023e-137
1.03354e-140
3.30423e-144
1.05062e-147
3.32127e-151
1.06638e-154
3.33865e-158
1.10453e-161
0
0
0
0
0
0
0
0
0
0
0
0
0
0
0
0
0
0
0
0
0
0
0
0
0
0
0
0
0
0
0
0
0
0
0
0
0
0
0
0
0
0
0
0
0
0
0
0
0
0
0
0
0
0
0
0
0
0
0
0
0
0
0
0
0
0
0
0
0
0
0
0
0
0
0
0
0
0
0
0
0
0
0
0
0
0
0
0
0
0
0
0
0
0
0
0
0
0
0
0
0
0
0
0
0
0
0
0
0
0
0
0
0
0
0
0
0
0
0
0
0
0
0
0
0
0
0
0
0
0
0
0
0
0
0
0
0
0
0
0
0
0
0
0
0
0
0
0
0
0
0
0
0
0
0
0
0
0
0
0
0
0
0
0
0
0
0
0
0
0
0
0
0
0
0
0
0
0
0
0
0
0
0
0
0
0
0
0
0
0
0
0
0
0
0
0
0
0
0
0
0
0
0
0
0
0
0
0
0
0
0
0
0
0
0
0
0
0
0
0
0
0
0
0
0
0
0
0
0
0
0
0
0
0
0
0
0
0
0
0
0
0
0
0
0
0
0
0
0
0
0
0
0
0
0
0
0
0
0
0
0
0
0
0
0
0
0
0
0
0
0
0
0
0
0
0
0
0
0
0
0
0
0
0
0
0
0
0
0
0
0
0
0
4842.93
4843.94
5158.86
5430.14
5675.48
6143.57
6569.18
7389.46
7753.48
7937.91
8355.55
9112.36
9914.6
10747.5
11054.2
11788.1
14299.8
16283.3
16108.3
14111.3
13410.4
13688.6
14567.3
15213.1
16674.3
18062.2
18903.2
20605.2
21389.8
22006.6
21882.6
21688.5
21109.9
20977.7
21037.5
22022.9
23533.1
25609.1
29051.9
33126.3
38261
40696.7
31932.7
16897.1
7055.46
2137.25
544.961
152.9
39.503
12.9431
5.06253
2.30878
1.58558
1.43355
2.12006
4.092
10.0342
39.998
4.11938
1.57028
0.727596
0.0585697
2.15705e-05
3.24778e-09
7.23787e-13
1.78688e-16
6.03382e-20
2.14421e-23
6.98378e-27
2.13718e-30
5.9815e-34
1.59049e-37
4.25106e-41
1.09537e-44
2.96506e-48
7.69245e-52
2.08224e-55
5.24807e-59
1.40929e-62
3.64657e-66
9.55611e-70
2.54209e-73
6.92302e-77
1.93463e-80
5.39351e-84
1.53034e-87
4.34739e-91
1.24172e-94
3.59307e-98
1.03451e-101
3.01553e-105
8.78453e-109
2.57953e-112
7.5606e-116
2.25554e-119
6.68596e-123
2.01458e-126
6.0425e-130
1.82515e-133
5.49645e-137
1.65449e-140
5.03069e-144
1.50781e-147
4.62079e-151
1.39713e-154
4.19586e-158
1.29387e-161
0
0
0
0
0
0
0
0
0
0
0
0
0
0
0
0
0
0
0
0
0
0
0
0
0
0
0
0
0
0
0
0
0
0
0
0
0
0
0
0
0
0
0
0
0
0
0
0
0
0
0
0
0
0
0
0
0
0
0
0
0
0
0
0
0
0
0
0
0
0
0
0
0
0
0
0
0
0
0
0
0
0
0
0
0
0
0
0
0
0
0
0
0
0
0
0
0
0
0
0
0
0
0
0
0
0
0
0
0
0
0
0
0
0
0
0
0
0
0
0
0
0
0
0
0
0
0
0
0
0
0
0
0
0
0
0
0
0
0
0
0
0
0
0
0
0
0
0
0
0
0
0
0
0
0
0
0
0
0
0
0
0
0
0
0
0
0
0
0
0
0
0
0
0
0
0
0
0
0
0
0
0
0
0
0
0
0
0
0
0
0
0
0
0
0
0
0
0
0
0
0
0
0
0
0
0
0
0
0
0
0
0
0
0
0
0
0
0
0
0
0
0
0
0
0
0
0
0
0
0
0
0
0
0
0
0
0
0
0
0
0
0
0
0
0
0
0
0
0
0
0
0
0
0
0
0
0
0
0
0
0
0
0
0
0
0
0
0
0
0
0
0
0
0
0
0
0
0
0
0
0
0
0
0
0
0
0
0
0
0
0
0
0
4668.41
4664.68
5100.12
5543.99
5881.45
6307.01
6781.91
7244.31
7438.14
7763.42
7995.97
8965.15
9877.23
10769.3
11784.3
12494.4
13363.8
14725.5
15627.4
16072.7
16446
16985.2
18342.5
18925.2
20841.5
22331.5
24119.1
26277.5
27677.9
28327.1
28794.4
28069.9
28192.6
27402.6
27939.9
28677.8
30514.5
32754
35813.1
40440
41717.6
36981.3
25576.8
13509.5
5297.59
1786.78
583.009
193.968
74.9816
31.6892
18.5409
12.7871
10.8692
12.6099
14.6661
16.8071
22.4001
13.5014
0.428456
0.993206
0.202484
0.0013006
4.66909e-07
1.74862e-10
6.87572e-14
2.20966e-17
7.36914e-21
2.30086e-24
6.69045e-28
1.87255e-31
5.03987e-35
1.34364e-38
3.77182e-42
9.97383e-46
2.78321e-49
7.14416e-53
1.94548e-56
4.84771e-60
1.29184e-63
3.24613e-67
8.34559e-71
2.20319e-74
5.83173e-78
1.57015e-81
4.32125e-85
1.18876e-88
3.33095e-92
9.31426e-96
2.64677e-99
7.56335e-103
2.16153e-106
6.29125e-110
1.81705e-113
5.3478e-117
1.56808e-120
4.61013e-124
1.37407e-127
4.07446e-131
1.23251e-134
3.69314e-138
1.12223e-141
3.38751e-145
1.01497e-148
3.09527e-152
9.26198e-156
2.77353e-159
0
0
0
0
0
0
0
0
0
0
0
0
0
0
0
0
0
0
0
0
0
0
0
0
0
0
0
0
0
0
0
0
0
0
0
0
0
0
0
0
0
0
0
0
0
0
0
0
0
0
0
0
0
0
0
0
0
0
0
0
0
0
0
0
0
0
0
0
0
0
0
0
0
0
0
0
0
0
0
0
0
0
0
0
0
0
0
0
0
0
0
0
0
0
0
0
0
0
0
0
0
0
0
0
0
0
0
0
0
0
0
0
0
0
0
0
0
0
0
0
0
0
0
0
0
0
0
0
0
0
0
0
0
0
0
0
0
0
0
0
0
0
0
0
0
0
0
0
0
0
0
0
0
0
0
0
0
0
0
0
0
0
0
0
0
0
0
0
0
0
0
0
0
0
0
0
0
0
0
0
0
0
0
0
0
0
0
0
0
0
0
0
0
0
0
0
0
0
0
0
0
0
0
0
0
0
0
0
0
0
0
0
0
0
0
0
0
0
0
0
0
0
0
0
0
0
0
0
0
0
0
0
0
0
0
0
0
0
0
0
0
0
0
0
0
0
0
0
0
0
0
0
0
0
0
0
0
0
0
0
0
0
0
0
0
0
0
0
0
0
0
0
0
0
0
0
0
0
0
0
0
0
0
0
0
0
0
0
0
0
0
0
0
0
4078.63
4326.47
4428.52
4535.93
4607.17
4545.69
4882.3
4808.12
4930.95
5351.76
5145.77
6116.6
6216.3
7210.53
8051.71
8354.74
9899.71
11451.1
11799.5
11497.4
11178.4
11512.5
11883.9
13007.1
13382.7
14242.9
15583.9
16581.4
16713.3
17017.5
16041.1
15911.2
15662.4
14715
13784.2
14459.1
15765.5
17286.1
19922.1
21814.8
27468.5
29351.4
34569.2
37791.9
42115
45212.1
42991.9
43911.4
45591.9
53860.9
52226.9
47194.1
41406.9
35486.9
35442.4
4426.91
669.054
224.17
60.5719
8.77172
0.0201876
1.3101e-05
7.90829e-09
3.14595e-12
1.30634e-15
4.1996e-19
1.39482e-22
4.21988e-26
1.26621e-29
3.62062e-33
1.05868e-36
2.90754e-40
8.2858e-44
2.19923e-47
5.98595e-51
1.51599e-54
4.03464e-58
9.98435e-62
2.64683e-65
6.69561e-69
1.8077e-72
4.81664e-76
1.34834e-79
3.80323e-83
1.09449e-86
3.24502e-90
9.58601e-94
2.92039e-97
8.90756e-101
2.72315e-104
8.58154e-108
2.67061e-111
8.50465e-115
2.73956e-118
8.73971e-122
2.86315e-125
9.33422e-129
3.07418e-132
1.02128e-135
3.37153e-139
1.1315e-142
3.73924e-146
1.25701e-149
4.20795e-153
1.37944e-156
4.56827e-160
0
0
0
0
0
0
0
0
0
0
0
0
0
0
0
0
0
0
0
0
0
0
0
0
0
0
0
0
0
0
0
0
0
0
0
0
0
0
0
0
0
0
0
0
0
0
0
0
0
0
0
0
0
0
0
0
0
0
0
0
0
0
0
0
0
0
0
0
0
0
0
0
0
0
0
0
0
0
0
0
0
0
0
0
0
0
0
0
0
0
0
0
0
0
0
0
0
0
0
0
0
0
0
0
0
0
0
0
0
0
0
0
0
0
0
0
0
0
0
0
0
0
0
0
0
0
0
0
0
0
0
0
0
0
0
0
0
0
0
0
0
0
0
0
0
0
0
0
0
0
0
0
0
0
0
0
0
0
0
0
0
0
0
0
0
0
0
0
0
0
0
0
0
0
0
0
0
0
0
0
0
0
0
0
0
0
0
0
0
0
0
0
0
0
0
0
0
0
0
0
0
0
0
0
0
0
0
0
0
0
0
0
0
0
0
0
0
0
0
0
0
0
0
0
0
0
0
0
0
0
0
0
0
0
0
0
0
0
0
0
0
0
0
0
0
0
0
0
0
0
0
0
0
0
0
0
0
0
0
0
0
0
0
0
0
0
0
0
0
0
0
0
0
0
0
0
0
0
0
0
0
0
0
0
0
0
0
0
0
0
0
0
0
0
4998.67
5065.03
5066.18
3592.68
356.987
31.0967
3.12696
1.12334
0.28213
0.049112
0.00206036
6.44025e-05
1.69864e-06
2.89622e-08
0.000171275
0.0180153
0.684554
1.17056
3.98046
15.86
26.8266
30.1264
30.3293
25.8697
26.0536
26.843
24.103
18.6019
13.8054
4.48975
1.46794
0.692623
0.134788
0.000215963
1.99851e-07
1.88704e-10
3.79588e-13
7.01629e-16
1.43462e-18
7.95759e-21
3.05723e-23
4.06399e-25
4.36637e-26
1.70042e-23
2.20718e-27
6.24132e-26
3.41436e-25
2.89227e-25
3.43262e-26
3.01287e-28
1.24002e-29
1.74103e-30
8.98309e-31
6.67065e-32
8.69124e-34
8.62799e-36
5.49388e-39
1.0259e-42
1.43734e-46
2.05813e-50
3.25591e-54
5.68806e-58
1.06806e-61
2.07259e-65
4.20768e-69
8.70922e-73
1.86359e-76
4.01468e-80
8.65331e-84
1.92983e-87
4.23802e-91
9.50371e-95
2.14231e-98
4.9907e-102
6.39275e-117
5.04682e-118
2.65515e-120
5.99904e-123
8.76103e-126
6.66762e-129
3.33191e-132
1.29686e-135
3.35627e-139
8.65931e-143
2.29641e-146
6.54576e-150
2.27176e-153
1.21934e-156
1.07883e-159
0
0
0
0
0
0
0
0
0
0
0
0
0
0
0
0
0
0
0
0
0
0
0
0
0
0
0
0
0
0
0
0
0
0
0
0
0
0
0
0
0
0
0
0
0
0
0
0
0
0
0
0
0
0
0
0
0
0
0
0
0
0
0
0
0
0
0
0
0
0
0
0
0
0
0
0
0
0
0
0
0
0
0
0
0
0
0
0
0
0
0
0
0
0
0
0
0
0
0
0
0
0
0
0
0
0
0
0
0
0
0
0
0
0
0
0
0
0
0
0
0
0
0
0
0
0
0
0
0
0
0
0
0
0
0
0
0
0
0
0
0
0
0
0
0
0
0
0
0
0
0
0
0
0
0
0
0
0
0
0
0
0
0
0
0
0
0
0
0
0
0
0
0
0
0
0
0
0
0
0
0
0
0
0
0
0
0
0
0
0
0
0
0
0
0
0
0
0
0
0
0
0
0
0
0
0
0
0
0
0
0
0
0
0
0
0
0
0
0
0
0
0
0
0
0
0
0
0
0
0
0
0
0
0
0
0
0
0
0
0
0
0
0
0
0
0
0
0
0
0
0
0
0
0
0
0
0
0
0
0
0
0
0
0
0
0
0
0
0
0
0
0
0
0
0
0
0
0
0
0
0
0
0
0
0
5127.06
4716.93
5023.16
4795.88
427.145
66.5915
23.3075
16.8195
6.88439
2.69776
0.171436
0.00357959
8.01929e-05
1.24968e-06
0.0136913
1.07315
14.8313
18.9311
65.0565
250.543
346.913
401.6
408.571
380.627
373.739
390.004
367.512
302.751
232.476
68.9864
23.4901
9.98533
0.858719
0.0570214
3.79333e-06
1.01583e-08
1.60368e-10
1.58996e-13
2.45721e-16
3.46702e-18
1.07634e-20
1.81619e-22
2.56607e-23
1.18537e-20
2.5914e-24
8.54394e-23
6.18387e-22
7.18351e-22
1.27795e-22
1.43177e-24
4.43155e-26
6.16726e-27
4.14804e-27
5.08336e-28
8.57852e-30
8.76478e-32
5.28104e-35
6.80248e-39
2.92984e-43
5.03831e-48
1.64935e-51
7.70305e-55
1.19197e-58
8.6354e-63
7.6546e-67
8.35498e-71
1.1293e-74
1.82094e-78
3.2596e-82
6.4279e-86
1.57788e-89
3.55751e-93
7.90257e-97
1.82636e-100
2.71881e-113
2.16623e-114
1.2188e-116
2.78702e-119
4.10453e-122
3.00976e-125
1.37341e-128
4.69094e-132
4.02756e-136
4.18763e-140
6.39521e-144
1.37909e-147
4.17621e-151
2.23998e-154
2.31364e-157
3.43e-160
0
0
0
0
0
0
0
0
0
0
0
0
0
0
0
0
0
0
0
0
0
0
0
0
0
0
0
0
0
0
0
0
0
0
0
0
0
0
0
0
0
0
0
0
0
0
0
0
0
0
0
0
0
0
0
0
0
0
0
0
0
0
0
0
0
0
0
0
0
0
0
0
0
0
0
0
0
0
0
0
0
0
0
0
0
0
0
0
0
0
0
0
0
0
0
0
0
0
0
0
0
0
0
0
0
0
0
0
0
0
0
0
0
0
0
0
0
0
0
0
0
0
0
0
0
0
0
0
0
0
0
0
0
0
0
0
0
0
0
0
0
0
0
0
0
0
0
0
0
0
0
0
0
0
0
0
0
0
0
0
0
0
0
0
0
0
0
0
0
0
0
0
0
0
0
0
0
0
0
0
0
0
0
0
0
0
0
0
0
0
0
0
0
0
0
0
0
0
0
0
0
0
0
0
0
0
0
0
0
0
0
0
0
0
0
0
0
0
0
0
0
0
0
0
0
0
0
0
0
0
0
0
0
0
0
0
0
0
0
0
0
0
0
0
0
0
0
0
0
0
0
0
0
0
0
0
0
0
0
0
0
0
0
0
0
0
0
0
0
0
0
0
0
0
0
0
0
0
0
0
0
0
0
0
5032.49
4095.23
3717.1
3092.05
344.805
158.589
109.313
104.854
44.8548
16.8973
3.65434
0.577651
0.00563259
4.17974e-05
0.770756
23.2175
272.756
304.456
902.861
6247.43
7524.33
8096.32
8251.5
8392.25
8569.05
9490.56
10742.1
10894.8
11086.2
2104.95
678.047
418.419
254.854
33.2825
0.792155
7.59074e-08
7.93129e-17
3.26622e-20
1.59077e-16
2.20592e-15
4.97304e-18
1.04264e-19
1.42958e-20
8.10362e-18
4.60136e-21
2.02219e-19
2.57678e-18
4.88338e-18
1.18497e-18
1.49604e-20
2.30274e-22
2.57677e-23
1.81738e-23
3.88486e-24
1.0489e-25
1.54918e-27
1.35207e-30
5.12066e-34
1.14813e-37
5.38057e-43
1.80403e-52
1.35629e-65
2.2075e-73
9.56228e-92
4.74626e-100
5.37818e-129
1.47334e-182
0
1.93453e-79
2.34021e-83
4.55283e-86
5.88246e-90
8.82266e-94
2.2823e-97
3.51591e-109
3.19757e-110
1.9678e-112