/*--------------------------------*- C++ -*----------------------------------*\
| =========                 |                                                 |
| \\      /  F ield         | OpenFOAM: The Open Source CFD Toolbox           |
|  \\    /   O peration     | Version:  2.1.1                                 |
|   \\  /    A nd           | Web:      www.OpenFOAM.org                      |
|    \\/     M anipulation  |                                                 |
\*---------------------------------------------------------------------------*/
FoamFile
{
    version     2.0;
    format      ascii;
    class       volScalarField;
    location    "0.001750000";
    object      omega;
}
// * * * * * * * * * * * * * * * * * * * * * * * * * * * * * * * * * * * * * //

dimensions      [0 0 -1 0 0 0 0];

internalField   nonuniform List<scalar> 
12384
(
3965.77
4078.95
4159.5
1649.57
681.981
656.513
648.112
675.276
653.692
654.228
642.722
639.242
630.411
603.558
599.756
622.146
647.701
662.775
691.248
733.143
795.674
850.857
918.778
997.197
1068.03
1146.2
1231.87
1284.75
1352.28
1442.65
1445.44
1510.66
1381.34
1294.76
1235.99
1046.06
952.289
808.783
709.513
691.011
649.642
631.255
621.682
610.158
610.968
616.845
621.662
625.259
635.065
651.372
679.917
713.455
733.559
757.499
778.25
800.695
815.56
823.248
823.332
797.972
784.839
739.962
711.946
672.785
662.612
637.924
632.855
630.436
628.927
627.212
623.985
620.655
615.91
609.943
611.543
615.194
616.464
618.84
620.642
623.413
624.392
625.327
625.725
625.76
625.697
625.488
624.771
624.907
623.664
624.139
622.48
623.652
621.921
622.803
621.349
621.81
620.651
620.577
619.679
618.697
617.684
616.567
615.293
614.644
617.438
617.782
617.838
618.09
618.169
618.484
618.405
618.677
618.532
618.831
618.615
618.806
618.819
618.691
618.847
618.698
618.797
618.71
618.768
618.67
618.721
618.633
618.656
618.619
618.522
618.598
618.444
618.488
618.362
618.343
618.7
618.716
618.728
618.724
618.737
618.741
618.738
618.75
618.743
618.755
618.748
618.758
618.745
618.747
618.757
618.752
618.758
618.756
618.762
618.762
618.76
618.764
618.761
618.764
618.76
618.76
618.76
618.759
618.754
618.771
618.744
618.764
618.769
618.768
618.77
618.766
618.768
618.769
618.77
618.769
618.77
618.769
618.765
618.765
618.76
618.764
618.762
618.766
618.767
618.768
618.77
618.769
618.772
618.77
618.772
618.773
618.771
618.773
618.768
618.746
618.744
618.767
618.768
618.766
618.768
618.77
618.77
618.77
618.771
618.769
618.771
618.769
618.765
618.765
618.76
618.764
618.762
618.766
618.767
618.767
618.767
618.766
618.767
618.765
618.764
618.762
618.762
618.762
618.754
618.772
618.776
618.757
618.758
618.762
618.764
618.765
618.767
618.766
618.769
618.766
618.769
618.767
618.764
618.764
618.759
618.764
618.761
618.765
618.766
618.767
618.767
618.766
618.767
618.765
618.764
618.762
618.761
618.761
618.754
618.773
618.78
618.754
618.759
618.763
618.769
618.769
618.769
618.77
618.768
618.769
618.768
618.767
618.766
618.762
618.764
618.759
618.764
618.763
618.765
618.769
618.766
618.768
618.771
618.769
618.77
618.772
618.769
618.771
618.768
618.747
618.778
618.757
618.758
618.762
618.764
618.765
618.767
618.766
618.768
618.767
618.769
618.767
618.764
618.764
618.759
618.764
618.761
618.765
618.767
618.767
618.767
618.766
618.767
618.765
618.763
618.761
618.762
618.761
618.754
618.773
618.747
618.765
618.766
618.771
618.774
618.774
618.773
618.772
618.771
618.769
618.77
618.768
618.766
618.765
618.767
618.767
618.764
618.765
618.768
618.77
618.769
618.771
618.772
618.773
618.773
618.772
618.767
618.765
618.765
618.749
618.777
618.757
618.761
618.763
618.77
618.766
618.776
618.768
618.776
618.768
618.775
618.768
618.769
618.765
618.763
618.763
618.761
618.765
618.765
618.765
618.768
618.766
618.769
618.765
618.766
618.762
618.763
618.761
618.754
618.774
3814.31
55049.2
49622.2
40203.8
27722.2
23759
20430.5
19069.5
18899.3
21201.7
23148.3
21944.9
15354.3
643.035
638.159
16382.5
21467.3
26317
29826.2
35075.9
40527.6
46658.5
54074.4
62409.4
71213
80386.9
89521.7
96956
102833
106669
108952
112405
114441
116106
115774
113672
111416
106341
98974.3
88878.6
74991.5
56660.9
33905.1
704.379
619.301
11771.1
18924.3
27015.9
34683.7
40552
44758.5
47341.8
48665.9
51343.7
55424.5
61740.6
69249
76966.3
84096
90117.4
94424.9
97148.2
98075.5
97144.1
94615.3
89831.9
84017.6
75914.1
65795.2
53376.4
39629.6
25742.8
13051.7
621.365
603.092
3463.78
4757.71
6708.68
9347.91
12465.7
15812.8
19083.7
22068.8
24560.4
26488.3
27717.1
28242.2
28057.3
27328.9
26109.8
24551.3
22716.6
20744.9
18619.2
16433.9
14189.4
11924.3
9686.1
7506.4
5469.6
3630.44
2088.88
958.687
614.928
612.28
344.965
392.327
458.466
529.404
592.722
638.227
664.168
669.717
658.293
631.836
594.882
552.324
507.708
463.007
419.503
378.444
340.237
304.806
272.262
243.006
217.112
194.627
175.168
158.797
145.036
134.057
125.541
123.641
617.509
617.701
120.663
116.614
116.655
116.692
116.714
116.726
116.743
116.757
116.78
116.802
116.834
116.907
116.95
116.986
116.974
116.929
116.881
116.819
116.773
116.738
116.697
116.662
116.63
116.603
116.588
116.569
116.558
120.955
617.833
617.851
120.751
116.555
116.58
116.564
116.572
116.606
116.643
116.688
116.73
116.77
116.816
116.888
116.93
116.973
116.984
116.962
116.901
116.811
116.756
116.713
116.665
116.637
116.607
116.588
116.57
116.553
116.538
120.731
617.861
617.853
120.713
116.527
116.551
116.586
116.606
116.64
116.671
116.709
116.743
116.777
116.822
116.894
116.943
116.991
116.988
116.947
116.892
116.82
116.771
116.737
116.697
116.663
116.633
116.607
116.592
116.57
116.554
120.951
617.833
617.84
120.886
116.533
116.556
116.586
116.607
116.631
116.66
116.694
116.733
116.767
116.811
116.893
116.946
116.992
116.986
116.946
116.892
116.823
116.772
116.736
116.696
116.66
116.628
116.602
116.588
116.569
116.557
120.955
617.833
617.82
120.91
116.526
116.56
116.591
116.616
116.644
116.675
116.709
116.743
116.775
116.819
116.885
116.932
116.973
116.989
116.955
116.89
116.805
116.765
116.739
116.69
116.657
116.623
116.6
116.574
116.546
116.516
120.706
617.85
617.834
120.906
116.54
116.562
116.591
116.614
116.639
116.67
116.705
116.742
116.774
116.817
116.891
116.94
116.989
116.988
116.949
116.893
116.822
116.771
116.734
116.693
116.658
116.626
116.598
116.584
116.567
116.559
120.956
617.835
617.843
120.787
116.557
116.547
116.566
116.578
116.613
116.648
116.693
116.735
116.776
116.828
116.898
116.945
116.988
116.989
116.95
116.9
116.824
116.774
116.736
116.7
116.659
116.63
116.6
116.587
116.56
116.544
120.772
617.843
617.837
120.913
116.548
116.569
116.598
116.616
116.633
116.656
116.683
116.716
116.753
116.8
116.876
116.94
116.985
116.987
116.949
116.893
116.832
116.781
116.738
116.693
116.653
116.617
116.59
116.577
116.563
116.567
120.973
617.834
3265.57
62618.1
54057.4
37837.5
21571.5
19687.6
19896.1
20245.4
18288.5
17504.1
17453.3
17588.8
14059.7
630.944
676.169
25012.3
35169.9
45108.3
57126.1
69937.5
76546.5
77908.3
85528.7
94148.8
100164
108530
115004
115325
120672
127509
127212
123988
120636
116165
111424
106771
101710
95684.9
88874.8
81082.8
71705.8
59038.6
41873.1
730.154
633.057
21517
30929.3
43077.1
56298.6
68038.7
76482.6
80055
79455.8
78781.7
78019
79331.5
81926.4
85014
87748.4
89589.3
90046.4
89054.7
86598.6
82517.7
77417.6
71425.2
64541.6
57274.3
49299
40819.4
31922.4
23183.3
14912.4
617.22
600.139
7329.92
9132.17
11216.8
13608.9
16118.3
18484.5
20549
22146.9
23242
23770.4
23783.5
23350.5
22479.2
21344.7
19942
18361.5
16648.2
14907.1
13161.7
11440.5
9761.73
8169.54
6650.89
5208.66
3859.62
2655.01
1631.79
877.829
599.21
598.098
603.57
596.35
601.853
608.112
610.143
603.611
588.565
565.236
535.808
502.301
467.069
431.53
396.436
362.15
329.46
299.045
271.19
245.567
222.255
201.573
183.633
168.097
154.738
143.334
133.755
125.897
119.799
118.424
597.506
597.633
116.429
113.359
113.266
113.186
113.128
113.069
113.03
112.986
112.957
112.921
112.895
112.852
112.821
112.8
112.789
112.813
112.83
112.858
112.867
112.884
112.888
112.903
112.906
112.923
112.929
112.943
112.968
116.14
597.569
597.656
116.134
112.963
112.94
112.932
112.914
112.906
112.887
112.884
112.865
112.859
112.835
112.82
112.787
112.773
112.762
112.788
112.811
112.846
112.86
112.884
112.892
112.91
112.913
112.93
112.933
112.947
112.965
116.09
597.633
597.65
116.164
112.957
112.924
112.922
112.905
112.902
112.886
112.884
112.866
112.861
112.836
112.82
112.785
112.771
112.763
112.791
112.812
112.843
112.853
112.873
112.878
112.896
112.899
112.918
112.924
112.94
112.965
116.146
597.57
597.569
116.112
112.969
112.934
112.934
112.916
112.913
112.896
112.893
112.874
112.869
112.843
112.824
112.787
112.771
112.763
112.789
112.81
112.841
112.851
112.872
112.877
112.895
112.899
112.918
112.924
112.941
112.966
116.144
597.569
597.561
116.164
112.953
112.931
112.916
112.914
112.896
112.895
112.878
112.875
112.856
112.848
112.817
112.797
112.767
112.768
112.777
112.816
112.844
112.868
112.88
112.892
112.911
112.914
112.931
112.933
112.945
112.96
116.118
597.652
597.56
116.138
112.966
112.932
112.932
112.914
112.911
112.894
112.892
112.874
112.869
112.844
112.825
112.789
112.773
112.762
112.787
112.808
112.84
112.851
112.871
112.877
112.895
112.899
112.918
112.926
112.942
112.967
116.137
597.57
597.648
116.138
112.962
112.938
112.927
112.907
112.903
112.886
112.883
112.865
112.86
112.836
112.82
112.786
112.766
112.766
112.787
112.821
112.837
112.862
112.867
112.885
112.888
112.905
112.909
112.927
112.934
112.96
116.152
597.647
597.559
116.139
112.963
112.928
112.927
112.909
112.906
112.888
112.887
112.869
112.865
112.843
112.828
112.794
112.775
112.76
112.783
112.805
112.838
112.848
112.869
112.875
112.893
112.897
112.916
112.924
112.941
112.969
116.136
597.569
2476.35
63742.3
59093.4
46998.8
33958.6
32325.6
32937.5
34259.6
30458.3
25122
20514.2
19247.5
15279.1
628.541
737.206
33399.6
52372.5
82217.8
105012
121319
118535
112707
114657
119450
125027
127788
124223
119579
120961
126993
141382
151752
142353
141711
131344
119629
110231
100956
91196.2
81508.8
71981.1
62443.8
51677.9
762.946
685.574
40061.8
56813.2
77875.5
98229.5
112128
119942
125532
128093
127985
124861
120561
116233
113815
112238
110352
107587
103591
98148.2
91291.5
83916.5
75927.6
67847.5
59619.6
51237.5
42626.7
34062.4
26422.4
20110.5
614.585
606.014
13172.3
17287.5
20709.9
23441.6
25614.2
27252.4
28411.4
28953.8
29025.7
28648.3
27945
26833.1
25313.4
23593.4
21660.7
19670.8
17599.5
15618
13711.1
11923.8
10215.3
8563.11
6978.44
5479.85
4096.91
2863.96
1837.86
1092.3
597.776
599.429
1073.56
1002.66
940.588
889.785
835.908
782.231
728.26
674.714
621.596
568.838
517.52
468.547
422.835
380.819
342.813
308.318
277.408
250.145
226.238
205.306
186.899
170.847
156.927
144.97
134.852
126.569
120.137
119.565
597.644
597.787
117.798
113.474
113.294
113.166
113.058
112.969
112.897
112.837
112.79
112.752
112.724
112.697
112.678
112.669
112.658
112.653
112.647
112.645
112.642
112.642
112.639
112.64
112.639
112.641
112.64
112.645
112.68
116.949
597.822
597.766
116.968
112.674
112.644
112.641
112.638
112.639
112.637
112.637
112.635
112.635
112.633
112.633
112.631
112.631
112.63
112.631
112.631
112.632
112.633
112.634
112.634
112.636
112.636
112.638
112.639
112.643
112.677
116.965
597.769
597.768
116.972
112.68
112.644
112.642
112.638
112.638
112.635
112.636
112.634
112.634
112.632
112.631
112.629
112.629
112.629
112.63
112.63
112.632
112.633
112.634
112.634
112.635
112.636
112.638
112.638
112.645
112.679
116.948
597.822
597.827
116.947
112.677
112.64
112.638
112.636
112.636
112.634
112.635
112.633
112.633
112.631
112.631
112.629
112.629
112.629
112.63
112.631
112.632
112.633
112.635
112.634
112.636
112.636
112.638
112.638
112.644
112.679
116.948
597.823
597.827
116.952
112.676
112.645
112.64
112.639
112.637
112.636
112.635
112.635
112.633
112.633
112.631
112.631
112.629
112.63
112.63
112.632
112.631
112.636
112.638
112.634
112.636
112.636
112.638
112.639
112.643
112.677
116.966
597.767
597.832
116.946
112.677
112.64
112.638
112.636
112.636
112.634
112.635
112.634
112.633
112.632
112.631
112.629
112.629
112.629
112.63
112.63
112.632
112.633
112.634
112.634
112.636
112.636
112.639
112.639
112.644
112.679
116.949
597.821
597.765
116.965
112.673
112.638
112.642
112.639
112.638
112.636
112.636
112.634
112.634
112.632
112.631
112.629
112.633
112.633
112.629
112.631
112.631
112.633
112.633
112.635
112.634
112.636
112.637
112.64
112.639
112.675
116.97
597.766
597.829
116.949
112.676
112.639
112.638
112.636
112.636
112.635
112.635
112.634
112.634
112.633
112.632
112.629
112.629
112.628
112.629
112.629
112.631
112.632
112.634
112.634
112.635
112.636
112.639
112.638
112.644
112.679
116.948
597.824
2283.57
61904.8
62999.8
56011.4
45912.8
46295.2
47943.2
49163.6
42035.3
34548.7
27728.5
24803.5
19402.8
690.855
843.148
36710.9
76979.2
104876
114023
123845
118565
114465
116450
119174
123290
127409
121721
121407
129618
138679
151258
155670
163675
147196
147964
137500
126092
115923
105274
93880.6
83034.6
74470
67787.3
866.524
797.748
64568.7
83539.5
101487
113842
124364
137254
157420
176082
185799
186101
178252
166669
155625
146664
139262
132380
125119
117088
108064
98763.1
89113.1
79739.8
70635.4
61581.7
52495.9
43597.3
35941.9
30223.3
619.389
619.163
21369.6
30978.5
38573.7
42060.9
42816.9
42199.4
41173.4
39780.9
38247.6
36510
34650.1
32581.7
30389.3
28010.5
25468
22897.5
20380.3
17984.7
15688.4
13573.9
11614.3
9781.03
8060.82
6449.05
4969.81
3633.52
2491.62
1620.08
599.402
602.937
1856
1640.42
1475.08
1341.01
1206.3
1083.17
974.706
878.63
788.325
703.691
627.286
558.61
495.493
438.125
386.837
342.349
303.767
270.035
241.006
216.248
195.153
177.146
161.743
148.707
137.677
128.59
121.394
120.285
599.983
600.192
118.772
114.2
113.857
113.614
113.4
113.234
113.094
112.994
112.906
112.849
112.795
112.765
112.738
112.713
112.705
112.689
112.688
112.677
112.679
112.67
112.674
112.666
112.671
112.664
112.67
112.665
112.698
117.019
600.083
600.14
117.043
112.704
112.664
112.666
112.671
112.663
112.671
112.664
112.671
112.664
112.671
112.663
112.669
112.662
112.668
112.662
112.669
112.662
112.669
112.662
112.67
112.663
112.671
112.664
112.671
112.665
112.705
117.044
600.132
600.133
117.032
112.699
112.672
112.663
112.67
112.663
112.671
112.664
112.671
112.663
112.67
112.662
112.668
112.66
112.667
112.661
112.669
112.663
112.67
112.664
112.671
112.663
112.67
112.663
112.67
112.664
112.698
117.019
600.083
600.09
117.02
112.696
112.671
112.663
112.671
112.663
112.671
112.664
112.671
112.663
112.67
112.662
112.668
112.66
112.667
112.661
112.669
112.663
112.67
112.664
112.671
112.663
112.67
112.663
112.67
112.664
112.698
117.018
600.083
600.091
117.017
112.703
112.664
112.671
112.663
112.671
112.664
112.671
112.664
112.671
112.663
112.67
112.662
112.668
112.661
112.668
112.661
112.668
112.665
112.664
112.669
112.663
112.67
112.664
112.671
112.665
112.705
117.039
600.139
600.082
117.02
112.696
112.671
112.663
112.67
112.663
112.671
112.664
112.671
112.663
112.67
112.662
112.668
112.66
112.667
112.661
112.669
112.663
112.67
112.663
112.67
112.663
112.67
112.663
112.67
112.665
112.697
117.02
600.083
600.143
117.035
112.703
112.67
112.664
112.671
112.663
112.671
112.663
112.671
112.663
112.67
112.662
112.668
112.66
112.661
112.667
112.661
112.669
112.663
112.671
112.663
112.67
112.663
112.67
112.663
112.67
112.701
117.034
600.14
600.085
117.02
112.695
112.671
112.663
112.671
112.663
112.671
112.664
112.672
112.664
112.671
112.662
112.668
112.66
112.666
112.659
112.667
112.661
112.67
112.663
112.67
112.663
112.669
112.662
112.67
112.665
112.697
117.018
600.083
2736
57740.8
61668.3
57582.2
52372.9
52707
52753.1
55281.3
54478.9
53335.3
47868.5
35323.4
25269.1
756.798
825.839
39842
101695
113045
115982
122398
119354
118025
119259
119313
120277
121578
115919
117698
124212
132675
141636
147342
161016
167416
152756
157241
147486
135816
125250
113647
102469
95108.2
91788.3
1139.92
811.155
83715.9
93273.4
97909.4
101960
118137
153797
197215
234884
255440
259601
249126
230229
209716
191726
177260
165130
153748
142419
130765
118890
107489
96677.2
86481.3
76811.7
67584.3
59091.6
52260.5
47608.6
636.26
642.226
31702.2
52195.3
69461.7
75601.6
73309
67119.5
61040
55676.3
51080.7
47004.2
43321.5
39930.1
36708
33515.6
30317.1
27098.8
24005.9
21092.1
18385.3
15918.6
13664.7
11572.7
9637.54
7841.92
6208.68
4736.07
3470.45
2521.08
602.016
607.457
3122.45
2632.63
2267.57
1976.99
1714.26
1485.86
1288.51
1119.1
975.357
852.29
746.482
654.215
573.166
500.878
437.607
383.018
336.221
296.327
262.335
233.575
209.093
188.399
170.863
155.874
143.171
132.59
124.101
121.54
602.414
602.711
120.275
115.301
114.656
114.193
113.814
113.529
113.306
113.145
113.018
112.931
112.86
112.813
112.777
112.747
112.733
112.714
112.709
112.698
112.698
112.69
112.691
112.685
112.687
112.682
112.685
112.683
112.714
116.977
602.604
602.611
116.975
112.716
112.68
112.686
112.686
112.682
112.686
112.683
112.687
112.683
112.687
112.682
112.685
112.681
112.685
112.68
112.685
112.681
112.685
112.68
112.685
112.681
112.686
112.682
112.686
112.682
112.718
116.968
602.614
602.61
116.979
112.715
112.685
112.68
112.685
112.681
112.687
112.682
112.687
112.682
112.686
112.68
112.683
112.679
112.683
112.679
112.685
112.682
112.686
112.682
112.686
112.682
112.685
112.681
112.684
112.681
112.715
116.978
602.606
602.606
116.972
112.713
112.685
112.681
112.686
112.682
112.687
112.683
112.687
112.682
112.685
112.68
112.683
112.679
112.683
112.68
112.685
112.682
112.686
112.683
112.686
112.682
112.685
112.681
112.684
112.681
112.714
116.978
602.605
602.605
116.982
112.717
112.681
112.685
112.682
112.687
112.683
112.688
112.683
112.687
112.682
112.685
112.68
112.684
112.68
112.684
112.68
112.683
112.684
112.682
112.685
112.681
112.686
112.682
112.685
112.681
112.719
116.97
602.611
602.607
116.978
112.713
112.685
112.68
112.686
112.682
112.687
112.683
112.687
112.682
112.686
112.68
112.683
112.679
112.683
112.679
112.684
112.681
112.686
112.682
112.686
112.681
112.684
112.681
112.684
112.682
112.713
116.977
602.606
602.613
116.977
112.716
112.685
112.682
112.686
112.681
112.686
112.682
112.687
112.682
112.686
112.68
112.683
112.68
112.68
112.682
112.68
112.685
112.681
112.686
112.682
112.686
112.681
112.685
112.68
112.683
112.716
116.978
602.612
602.609
116.975
112.712
112.684
112.68
112.686
112.682
112.687
112.683
112.688
112.683
112.686
112.68
112.683
112.678
112.682
112.677
112.683
112.68
112.685
112.682
112.686
112.681
112.685
112.681
112.685
112.682
112.714
116.978
602.606
3960.61
53671.2
57509.8
55163.8
53968.5
56481.8
58019.7
60906.2
60285.3
59281.2
56750.2
47561
30415.2
787.146
955.745
48412
125070
123341
115577
118242
117897
118695
119344
118703
117588
117382
114106
117452
122781
129806
137145
145241
155459
166851
170345
165514
171500
165837
155535
145492
137677
132138
130933
2001.88
911.385
91172
101956
109460
127649
165468
219920
276642
323059
346525
348282
331015
302540
271057
243646
221879
204293
189005
174705
160884
147207
134026
121672
110526
101002
92929.6
86347.7
81153.6
78676
706.814
643.492
49333.3
91061.5
120048
128292
120537
104713
89640
77823.8
68728.8
61375.3
55295.2
50096.7
45423
41001.5
36899
32949.4
29207.4
25619.7
22333.7
19337.4
16653.1
14232.7
12062.9
10105
8333.33
6678.88
5208.61
4179.86
606.588
615.187
5074.7
4232.09
3454.64
2869.84
2410.77
2038.52
1730.51
1474.08
1260.76
1081.19
929.92
800.17
689.127
594.426
513.938
445.394
387.024
337.495
295.689
260.385
230.669
205.529
184.242
166.276
151.225
138.943
128.706
124.551
607.519
607.949
123.119
117.083
115.916
115.102
114.471
114.001
113.647
113.39
113.199
113.061
112.958
112.886
112.832
112.794
112.768
112.746
112.734
112.723
112.718
112.711
112.709
112.705
112.704
112.701
112.701
112.7
112.731
117.095
607.752
607.766
117.084
112.731
112.697
112.704
112.702
112.7
112.703
112.702
112.704
112.702
112.704
112.701
112.702
112.701
112.702
112.7
112.702
112.7
112.701
112.699
112.702
112.7
112.702
112.7
112.701
112.699
112.732
117.083
607.762
607.764
117.081
112.733
112.701
112.698
112.701
112.7
112.703
112.702
112.704
112.701
112.702
112.7
112.701
112.699
112.7
112.699
112.702
112.701
112.703
112.702
112.703
112.701
112.701
112.699
112.7
112.698
112.732
117.097
607.752
607.757
117.088
112.731
112.699
112.698
112.702
112.701
112.703
112.702
112.704
112.701
112.702
112.7
112.701
112.699
112.701
112.7
112.702
112.701
112.703
112.702
112.703
112.701
112.701
112.699
112.7
112.698
112.731
117.097
607.752
607.756
117.096
112.732
112.698
112.7
112.7
112.703
112.702
112.704
112.703
112.704
112.702
112.702
112.7
112.702
112.7
112.701
112.699
112.7
112.702
112.701
112.702
112.7
112.702
112.7
112.7
112.698
112.733
117.077
607.765
607.754
117.096
112.73
112.699
112.698
112.702
112.701
112.703
112.702
112.704
112.701
112.702
112.7
112.701
112.699
112.7
112.699
112.701
112.701
112.703
112.701
112.703
112.7
112.701
112.699
112.7
112.7
112.731
117.095
607.752
607.768
117.082
112.731
112.702
112.7
112.701
112.7
112.703
112.701
112.703
112.701
112.703
112.7
112.701
112.699
112.699
112.7
112.699
112.702
112.701
112.703
112.701
112.702
112.699
112.7
112.698
112.698
112.733
117.081
607.767
607.755
117.091
112.729
112.699
112.698
112.701
112.7
112.703
112.701
112.704
112.701
112.703
112.699
112.7
112.698
112.699
112.698
112.7
112.7
112.702
112.701
112.703
112.701
112.702
112.7
112.702
112.7
112.732
117.093
607.752
4359.63
52711.8
56215.2
56066.7
58795.4
64513.5
69244.1
74598.2
76595
75784.3
71013
50635.2
32051.3
758.274
2037.79
79987.9
130809
123050
114511
116230
118047
120370
122065
121652
119869
118553
116543
119537
123357
128624
135140
142964
150600
160504
171979
182006
190324
191493
195032
183647
172562
163544
166013
3095.93
5911.23
104962
148028
191105
244635
308175
373026
427547
463854
471318
455308
422118
379334
335875
299003
270632
248176
229421
212372
196299
180663
165562
151328
138451
127150
117309
109063
104146
110891
790.725
1154.52
105132
168849
198304
197963
177888
149040
122682
103184
89068.6
78264.2
69548
62197.3
55877.2
50229.9
44998.6
40073.9
35473
31154.2
27159.9
23515.1
20250.4
17319
14656
12225.6
9973.6
7911.41
6350.13
5978.71
613.856
623.863
9074.16
7227.13
5398.7
4126.5
3262.5
2642.63
2189.05
1841.84
1566.01
1332.8
1134.16
964.804
822.028
701.808
600.793
514.993
442.695
381.77
330.983
288.466
253.141
223.681
199.004
178.093
160.312
145.464
133.047
127.749
612.698
613.053
127.372
119.409
117.398
116.106
115.171
114.501
114.012
113.655
113.39
113.199
113.061
112.965
112.894
112.845
112.81
112.784
112.767
112.754
112.745
112.737
112.734
112.729
112.727
112.724
112.723
112.723
112.753
117.011
612.909
612.912
117.007
112.752
112.72
112.726
112.724
112.723
112.724
112.725
112.726
112.725
112.726
112.725
112.726
112.725
112.725
112.724
112.725
112.723
112.723
112.722
112.724
112.723
112.724
112.723
112.722
112.721
112.754
117.005
612.913
612.91
117.007
112.755
112.722
112.721
112.723
112.723
112.725
112.724
112.725
112.724
112.724
112.724
112.724
112.723
112.724
112.724
112.725
112.724
112.725
112.724
112.725
112.723
112.723
112.722
112.722
112.721
112.753
117.013
612.911
612.911
117.008
112.753
112.721
112.721
112.724
112.723
112.725
112.724
112.725
112.724
112.724
112.724
112.724
112.723
112.724
112.724
112.725
112.724
112.725
112.724
112.725
112.724
112.723
112.722
112.722
112.721
112.753
117.013
612.911
612.912
117.018
112.753
112.721
112.722
112.723
112.725
112.724
112.726
112.725
112.726
112.724
112.725
112.724
112.724
112.723
112.724
112.723
112.722
112.725
112.723
112.724
112.723
112.724
112.723
112.722
112.721
112.754
117.005
612.911
612.912
117.012
112.752
112.721
112.721
112.724
112.723
112.725
112.725
112.726
112.724
112.725
112.724
112.724
112.723
112.724
112.724
112.724
112.724
112.725
112.724
112.724
112.723
112.723
112.721
112.722
112.722
112.752
117.011
612.911
612.913
117.009
112.752
112.724
112.723
112.723
112.723
112.725
112.724
112.725
112.724
112.725
112.724
112.724
112.723
112.723
112.724
112.723
112.725
112.723
112.725
112.724
112.724
112.722
112.722
112.721
112.72
112.753
117.007
612.912
612.912
117.011
112.751
112.721
112.721
112.724
112.723
112.725
112.724
112.726
112.724
112.725
112.723
112.723
112.722
112.723
112.722
112.723
112.723
112.724
112.723
112.724
112.723
112.724
112.722
112.723
112.722
112.753
117.001
612.894
4702.64
54912.3
59869.7
63103.9
68988.6
77103.5
84675
92190.4
97880.3
100091
97718.4
84205.2
57876.8
47949.3
3644.88
3774.29
55805.9
115152
136717
124781
115382
116010
118413
121605
125123
125677
123679
122104
121153
122548
125882
129677
135012
142026
148742
157178
165928
179846
195885
225310
225806
238336
240063
231825
249139
284926
34150.2
20994.9
153931
234160
298801
367881
444970
519893
583019
626163
636456
616254
573619
519026
458132
401769
356131
321908
295744
274380
255447
237996
221546
205878
191080
177508
165827
156971
153389
161441
193801
243881
3947.29
1760.73
156520
246162
286995
291157
268853
230393
187868
152513
127368
109769
96536
86014
77150.3
69342.2
62249.9
55776.3
49792.7
44171.2
38971.6
34181.2
29854
26022.8
22722.1
19902.7
17622.9
16006.2
15283
16092.1
19771.2
26683
629.3
627.621
23647.1
21420.8
15295.8
10198.3
7000.38
5106.81
3931.84
3138.24
2554.63
2104.44
1746.01
1455.89
1219.04
1025.11
864.988
732.681
622.046
529.947
452.923
388.899
335.556
291.395
254.756
224.714
200.406
181.32
167.209
158.455
157.665
175.764
622.383
622.494
173.991
142.192
129.491
122.729
119.078
116.959
115.635
114.754
114.149
113.724
113.429
113.226
113.085
112.983
112.912
112.861
112.825
112.8
112.782
112.77
112.761
112.757
112.754
112.754
112.758
112.766
112.778
112.792
112.907
121.823
622.385
622.39
121.799
112.908
112.793
112.777
112.77
112.76
112.753
112.75
112.748
112.747
112.745
112.745
112.743
112.743
112.743
112.743
112.743
112.743
112.743
112.743
112.744
112.746
112.749
112.753
112.759
112.767
112.779
112.795
112.908
121.802
622.39
622.39
121.807
112.91
112.797
112.78
112.767
112.759
112.753
112.75
112.747
112.746
112.744
112.743
112.742
112.742
112.742
112.742
112.742
112.743
112.743
112.745
112.745
112.748
112.749
112.753
112.758
112.767
112.779
112.795
112.909
121.835
622.387
622.388
121.834
112.908
112.794
112.778
112.766
112.759
112.753
112.75
112.747
112.746
112.744
112.743
112.743
112.742
112.742
112.742
112.742
112.743
112.744
112.745
112.746
112.748
112.75
112.753
112.759
112.768
112.78
112.795
112.91
121.841
622.387
622.387
121.843
112.91
112.796
112.779
112.767
112.759
112.754
112.75
112.748
112.746
112.745
112.744
112.743
112.743
112.742
112.742
112.742
112.742
112.742
112.745
112.745
112.747
112.748
112.753
112.758
112.767
112.779
112.795
112.908
121.797
622.39
622.386
121.841
112.909
112.794
112.778
112.766
112.759
112.753
112.75
112.748
112.747
112.744
112.744
112.743
112.742
112.742
112.742
112.742
112.743
112.743
112.744
112.745
112.747
112.749
112.752
112.758
112.767
112.78
112.794
112.908
121.837
622.386
622.391
121.802
112.909
112.794
112.781
112.768
112.759
112.752
112.75
112.747
112.746
112.744
112.744
112.742
112.742
112.741
112.741
112.742
112.742
112.743
112.744
112.745
112.747
112.749
112.752
112.758
112.767
112.779
112.795
112.909
121.807
622.391
622.386
121.851
112.907
112.793
112.779
112.767
112.759
112.752
112.75
112.747
112.746
112.745
112.744
112.743
112.742
112.741
112.74
112.741
112.742
112.743
112.745
112.747
112.751
112.755
112.763
112.773
112.791
112.815
112.845
112.972
121.829
622.379
622.143
4952.94
56564
61255.8
63145.9
65620
70100.8
74979.9
81988.4
90334.7
97291.3
101855
97626.1
87894.1
73903
75969
82085.4
100551
137830
137630
123352
114016
114032
116799
120363
124463
125808
125074
124192
124242
124590
127659
130472
134513
139574
145657
154441
164084
176724
195109
234294
258971
302198
291897
319576
345395
410230
492525
571254
618643
638559
654963
678738
712769
746712
774400
787669
779796
746300
690082
613796
536160
467800
414244
374859
345068
321276
300657
281818
264336
247790
232708
219475
208827
202065
202300
215629
251317
335297
389969
418546
428773
420185
397325
360009
311357
259530
212931
176312
149751
130500
115627
103297
92626.3
83199
74764.9
67119.2
60062.2
53412.3
47208.8
41543.9
36452.8
31928.4
28018.4
24693.5
21983.2
19921.1
18821.2
19167.7
21712.1
28325.5
29421.4
28637.9
27307.5
20985
14438.3
9846.33
7181.28
5558.04
4448.73
3627.56
2986.27
2475.05
2058.36
1719.05
1439.65
1209.98
1019
860.105
726.815
615.609
522.784
445.479
381.034
327.884
284.389
249.045
220.443
197.717
180.256
168.203
162.824
165.694
168.132
163.309
155.255
137.641
128.101
122.893
119.718
117.624
116.19
115.19
114.479
113.975
113.616
113.364
113.186
113.059
112.971
112.907
112.862
112.83
112.807
112.792
112.782
112.775
112.77
112.767
112.767
112.77
112.773
112.773
112.777
112.882
117.28
117.279
112.88
112.776
112.773
112.77
112.771
112.764
112.76
112.759
112.758
112.757
112.756
112.755
112.754
112.753
112.753
112.752
112.753
112.753
112.753
112.754
112.755
112.757
112.758
112.76
112.763
112.768
112.771
112.773
112.775
112.881
117.279
117.279
112.881
112.777
112.775
112.772
112.768
112.764
112.76
112.759
112.758
112.757
112.755
112.753
112.753
112.752
112.752
112.752
112.752
112.753
112.754
112.755
112.757
112.758
112.759
112.76
112.763
112.768
112.771
112.773
112.776
112.882
117.279
117.279
112.881
112.775
112.773
112.771
112.768
112.764
112.76
112.76
112.758
112.757
112.755
112.754
112.753
112.752
112.752
112.752
112.752
112.753
112.754
112.755
112.757
112.758
112.759
112.76
112.763
112.768
112.771
112.773
112.776
112.881
117.279
117.279
112.882
112.777
112.773
112.771
112.768
112.764
112.761
112.76
112.759
112.757
112.756
112.754
112.753
112.752
112.752
112.752
112.752
112.753
112.752
112.755
112.756
112.757
112.758
112.76
112.763
112.768
112.771
112.774
112.776
112.881
117.279
117.279
112.882
112.776
112.773
112.771
112.768
112.764
112.76
112.76
112.758
112.757
112.755
112.754
112.753
112.752
112.752
112.752
112.752
112.753
112.754
112.755
112.756
112.758
112.759
112.76
112.763
112.768
112.771
112.772
112.776
112.882
117.279
117.279
112.881
112.777
112.772
112.773
112.769
112.764
112.76
112.759
112.758
112.757
112.755
112.754
112.753
112.752
112.751
112.751
112.752
112.752
112.754
112.755
112.757