/*--------------------------------*- C++ -*----------------------------------*\
| =========                 |                                                 |
| \\      /  F ield         | OpenFOAM: The Open Source CFD Toolbox           |
|  \\    /   O peration     | Version:  2.1.1                                 |
|   \\  /    A nd           | Web:      www.OpenFOAM.org                      |
|    \\/     M anipulation  |                                                 |
\*---------------------------------------------------------------------------*/
FoamFile
{
    version     2.0;
    format      ascii;
    class       volScalarField;
    location    "0.001750000";
    object      rhoUnburned;
}
// * * * * * * * * * * * * * * * * * * * * * * * * * * * * * * * * * * * * * //

dimensions      [1 -3 0 0 0 0 0];

internalField   nonuniform List<scalar> 
12384
(
1.90354
1.8825
1.88522
1.8652
1.53572
1.42032
1.34427
1.34893
1.34136
1.31297
1.34419
1.40762
1.38769
1.44446
1.35479
1.37136
1.37282
1.39663
1.40002
1.42897
1.45039
1.46771
1.46573
1.47673
1.46792
1.54554
1.54932
1.63037
1.64911
1.73423
1.77913
1.80358
1.78021
1.72911
1.61371
1.59867
1.44457
1.43266
1.35762
1.33991
1.3705
1.40964
1.4788
1.52739
1.18438
1.19519
1.2089
1.22477
1.24494
1.25457
1.29486
1.30739
1.33092
1.35769
1.37715
1.39075
1.39024
1.37965
1.36707
1.3403
1.31729
1.29544
1.26837
1.25071
1.23572
1.2322
1.21988
1.21817
1.23409
1.23067
1.25027
1.24974
1.25159
1.25253
1.07019
1.08257
1.08321
1.08666
1.08569
1.08614
1.08256
1.08119
1.08056
1.07685
1.07645
1.07501
1.07365
1.06887
1.06103
1.05084
1.04506
1.02403
1.02629
1.01004
1.01473
1.00227
1.00608
0.998391
0.995533
0.997144
0.990155
0.992951
0.988019
0.989319
0.90415
0.903819
0.903174
0.903307
0.902011
0.89995
0.900285
0.897132
0.897654
0.893675
0.894348
0.891342
0.888947
0.889831
0.885572
0.886782
0.882905
0.883592
0.880155
0.881321
0.878009
0.879192
0.876534
0.876928
0.876146
0.874963
0.875412
0.87437
0.874706
0.874129
0.866182
0.866505
0.866396
0.866457
0.866307
0.866264
0.866259
0.866098
0.866135
0.86597
0.86602
0.865871
0.86591
0.865869
0.865784
0.865817
0.865698
0.865718
0.86561
0.865595
0.865581
0.865504
0.865524
0.865451
0.865469
0.865419
0.865408
0.865403
0.865375
0.865146
0.865118
0.865353
0.865369
0.865377
0.865376
0.865389
0.865395
0.865409
0.865416
0.865429
0.865435
0.86545
0.865469
0.865485
0.865495
0.8655
0.86549
0.865473
0.865445
0.865435
0.865423
0.865412
0.865402
0.865397
0.865385
0.865379
0.865371
0.865367
0.865354
0.865118
0.865117
0.865351
0.865362
0.865379
0.86538
0.865396
0.865404
0.865415
0.86542
0.865431
0.865436
0.865451
0.86547
0.865488
0.865498
0.8655
0.865486
0.865471
0.865448
0.86544
0.86543
0.865421
0.86541
0.865404
0.865394
0.865385
0.865375
0.865369
0.865357
0.865122
0.86512
0.865356
0.865361
0.865375
0.865378
0.865394
0.8654
0.865411
0.865416
0.865428
0.865433
0.865448
0.865469
0.865488
0.865498
0.865499
0.865486
0.865472
0.865449
0.86544
0.86543
0.86542
0.865409
0.865404
0.865393
0.865382
0.865375
0.865369
0.865357
0.865122
0.865119
0.865352
0.865366
0.865374
0.865382
0.865393
0.865406
0.865411
0.865422
0.865431
0.865439
0.865447
0.865469
0.865483
0.865496
0.865496
0.865491
0.865471
0.865448
0.865434
0.865428
0.865417
0.865404
0.865398
0.865389
0.865377
0.86537
0.865364
0.86535
0.865117
0.865122
0.865356
0.865363
0.865378
0.865378
0.865395
0.865402
0.865413
0.865418
0.86543
0.865434
0.865449
0.865469
0.865486
0.865497
0.8655
0.865488
0.865472
0.865449
0.86544
0.86543
0.86542
0.865409
0.865403
0.865391
0.865381
0.865374
0.865368
0.865358
0.86512
0.865116
0.865351
0.865363
0.865372
0.865372
0.865388
0.865397
0.865408
0.865418
0.865431
0.865438
0.865453
0.86547
0.86549
0.865501
0.865499
0.865492
0.865474
0.865454
0.865438
0.865433
0.865422
0.865413
0.865401
0.865396
0.865379
0.865379
0.865365
0.865356
0.865119
0.865115
0.865353
0.865359
0.865375
0.865378
0.865396
0.865398
0.865413
0.865419
0.865432
0.865437
0.865452
0.86547
0.865491
0.865497
0.865506
0.865491
0.86548
0.865464
0.865453
0.86544
0.86543
0.865415
0.86541
0.865395
0.865388
0.865378
0.865374
0.865362
0.865122
1.98119
1.9725
1.89757
1.95126
1.98164
1.59262
1.52369
1.49692
1.47938
1.45406
1.50672
1.49002
1.50028
1.47667
1.42314
1.46586
1.49635
1.47168
1.50304
1.69513
1.83879
1.88002
1.87858
1.91867
1.9742
1.99561
2.08372
1.94028
1.83481
1.75079
1.75505
1.76743
1.77895
1.73759
1.79778
1.72928
1.68495
1.61928
1.53105
1.46075
1.4364
1.43294
1.4725
1.5151
1.24665
1.29545
1.33219
1.35431
1.36229
1.36001
1.32676
1.34708
1.34336
1.37219
1.40945
1.45177
1.48955
1.50967
1.51078
1.51347
1.51349
1.49034
1.47632
1.43412
1.39845
1.34552
1.30877
1.27021
1.26097
1.24779
1.25237
1.25343
1.25008
1.24928
1.22181
1.23951
1.24744
1.24995
1.25264
1.25177
1.24781
1.2386
1.23065
1.2168
1.20573
1.19084
1.17907
1.16306
1.13908
1.12806
1.10561
1.08075
1.07326
1.04639
1.04389
1.02741
1.02005
1.01667
1.00667
1.00824
1.00081
1.00045
0.997856
0.991733
0.95104
0.953445
0.95127
0.947162
0.942866
0.937791
0.932129
0.929496
0.923114
0.921699
0.915682
0.915209
0.909367
0.910364
0.904716
0.905863
0.899908
0.901259
0.895387
0.89703
0.892957
0.892704
0.891441
0.889636
0.889698
0.887806
0.888256
0.886992
0.887205
0.879156
0.87264
0.880326
0.88051
0.880515
0.880522
0.880678
0.880607
0.880912
0.88083
0.88123
0.881214
0.881681
0.881899
0.882374
0.882576
0.882483
0.882287
0.881771
0.88158
0.881153
0.881079
0.88066
0.880598
0.880199
0.880123
0.879761
0.879671
0.879493
0.8791
0.870686
0.870397
0.87916
0.879352
0.879645
0.879732
0.879872
0.880242
0.880343
0.880714
0.880816
0.881184
0.881283
0.881742
0.881993
0.88233
0.882303
0.882236
0.881698
0.881362
0.88091
0.880746
0.880341
0.880284
0.87995
0.879893
0.879577
0.879562
0.879286
0.879101
0.870409
0.870404
0.879188
0.879528
0.879631
0.879948
0.88001
0.880372
0.880437
0.880778
0.880845
0.881193
0.881288
0.881771
0.882051
0.882405
0.882314
0.882176
0.881676
0.881426
0.881065
0.880974
0.880607
0.880539
0.880185
0.88009
0.879761
0.879661
0.879469
0.879086
0.870665
0.870639
0.878987
0.879435
0.879512
0.879832
0.879895
0.880246
0.880306
0.880647
0.880725
0.881084
0.881217
0.881726
0.882046
0.882401
0.882303
0.882169
0.881685
0.881437
0.881074
0.88098
0.880609
0.880537
0.880179
0.880083
0.879755
0.879654
0.879468
0.87908
0.870668
0.870679
0.879084
0.879422
0.879743
0.879812
0.880149
0.880227
0.88057
0.880621
0.880958
0.881026
0.881371
0.881582
0.882077
0.882229
0.882414
0.882137
0.881814
0.881239
0.880972
0.880793
0.880413
0.880321
0.879978
0.87992
0.879596
0.879577
0.879282
0.879111
0.870398
0.870685
0.879027
0.879472
0.879554
0.879869
0.87993
0.880278
0.880345
0.880684
0.880755
0.881106
0.881226
0.881711
0.882017
0.882385
0.882319
0.882197
0.881711
0.881447
0.881078
0.880979
0.880601
0.880524
0.880165
0.880067
0.879736
0.879634
0.879467
0.879072
0.870664
0.870392
0.879163
0.879417
0.879529
0.879828
0.879902
0.880281
0.880367
0.880736
0.88083
0.881206
0.881316
0.881794
0.882061
0.882381
0.88238
0.882086
0.881787
0.8813
0.881182
0.880819
0.880734
0.880382
0.880305
0.879942
0.879876
0.879563
0.879459
0.879182
0.870396
0.870657
0.879044
0.879522
0.879604
0.879945
0.879995
0.880357
0.8804
0.880745
0.88078
0.88114
0.881232
0.881686
0.881967
0.882358
0.882334
0.882221
0.881747
0.881475
0.881116
0.881019
0.880637
0.880558
0.880188
0.880097
0.879759
0.879644
0.879478
0.879077
0.870673
2.10406
2.10226
2.05705
2.07321
2.22247
1.91043
1.84992
1.87027
1.71017
1.63244
1.67993
1.65148
1.68235
1.60521
1.56354
1.54119
1.54445
1.76856
1.87805
1.85374
1.80244
1.76966
1.83488
1.87095
1.90028
1.93443
1.96267
1.99859
2.04123
2.00779
1.95542
1.95601
1.70874
1.66052
1.67776
1.75481
1.78625
1.78149
1.74801
1.68883
1.61402
1.55202
1.49927
1.50853
1.36904
1.38137
1.3646
1.32179
1.2428
1.16801
1.11833
1.10508
1.10436
1.13027
1.1467
1.20639
1.29344
1.38852
1.46406
1.50982
1.54174
1.57897
1.60313
1.59802
1.58537
1.55383
1.53007
1.50825
1.48394
1.43839
1.39542
1.35844
1.32802
1.30692
1.3139
1.30027
1.30163
1.30443
1.3134
1.32181
1.32714
1.33053
1.32982
1.33054
1.32829
1.32704
1.32416
1.31519
1.31658
1.30171
1.30586
1.28027
1.28779
1.26378
1.26069
1.25727
1.2408
1.24498
1.22592
1.22717
1.20922
1.20974
1.19616
1.20313
1.13662
1.13017
1.12753
1.12746
1.12421
1.1239
1.12116
1.11786
1.11632
1.1143
1.11025
1.11058
1.10468
1.10523
1.0996
1.10085
1.0965
1.09716
1.09464
1.09373
1.0927
1.0905
1.09118
1.0887
1.08948
1.08776
1.08776
1.08709
1.08719
1.09625
1.08727
1.07731
1.07664
1.07651
1.07599
1.07574
1.07537
1.07491
1.07462
1.07407
1.07375
1.07319
1.0725
1.07199
1.07155
1.07154
1.07169
1.07211
1.07244
1.07263
1.07284
1.07308
1.07325
1.07347
1.07366
1.07388
1.07405
1.07424
1.07459
1.08575
1.08573
1.0746
1.07421
1.07396
1.07391
1.07367
1.0734
1.07315
1.0729
1.07265
1.0724
1.07214
1.07175
1.0713
1.07103
1.07093
1.07114
1.07163
1.07217
1.07253
1.07286
1.07315
1.07337
1.07356
1.07376
1.07393
1.07408
1.07429
1.07473
1.08573
1.08571
1.07456
1.07417
1.07389
1.07369
1.07349
1.07326
1.07306
1.07285
1.07264
1.07241
1.07214
1.07171
1.07123
1.07095
1.07092
1.07123
1.07168
1.07214
1.0724
1.07265
1.07289
1.07311
1.07332
1.07356
1.07376
1.07398
1.07419
1.07456
1.08573
1.08572
1.07469
1.07425
1.07399
1.07382
1.07362
1.07342
1.0732
1.073
1.07276
1.07253
1.07221
1.07176
1.07123
1.07095
1.07093
1.07123
1.07167
1.07212
1.07238
1.07264
1.07288
1.07311
1.07332
1.07357
1.07377
1.07399
1.07419
1.07456
1.08573
1.08573
1.07458
1.07414
1.07388
1.07368
1.07349
1.07327
1.07307
1.07287
1.07267
1.07244
1.0722
1.07179
1.07134
1.07101
1.07092
1.07111
1.07163
1.0722
1.07259
1.07277
1.07308
1.07333
1.07353
1.07373
1.07392
1.07407
1.07429
1.07471
1.08573
1.08572
1.07461
1.0742
1.07395
1.07378
1.07358
1.07338
1.07316
1.07296
1.07274
1.07251
1.07221
1.07178
1.07127
1.07097
1.07091
1.0712
1.07164
1.07211
1.07237
1.07263
1.07289
1.07312
1.07334
1.07359
1.07379
1.07402
1.0742
1.07457
1.08573
1.08572
1.07457
1.07418
1.07404
1.07381
1.0736
1.07335
1.07312
1.07289
1.07264
1.07239
1.07211
1.0717
1.07124
1.07093
1.07094
1.07122
1.07171
1.07213
1.07242
1.07266
1.0729
1.07312
1.07333
1.07357
1.07376
1.07398
1.07419
1.07455
1.08572
1.08571
1.07458
1.07414
1.07388
1.0737
1.07351
1.07331
1.07311
1.07293
1.07272
1.0725
1.07222
1.07184
1.07135
1.07102
1.0709
1.07118
1.07161
1.07209
1.07235
1.07261
1.07287
1.07311
1.07333
1.07358
1.07379
1.07402
1.0742
1.07456
1.08573
2.22806
2.23357
2.23913
2.20807
2.26423
2.24324
2.22988
2.14095
2.16855
2.05013
1.78699
1.72918
1.75546
1.74537
1.62634
1.5598
1.87812
1.73987
1.71866
1.64582
1.66029
1.6775
1.69396
1.75503
1.73013
1.74673
1.71552
1.78593
1.8082
1.76145
1.7978
1.83349
1.87739
1.90891
1.53123
1.59082
1.69098
1.76348
1.82414
1.82885
1.80811
1.71598
1.58745
1.50374
1.35627
1.34865
1.26807
1.14648
1.06285
1.02298
1.03489
1.05125
1.06019
1.04375
1.04497
1.03894
1.05701
1.1276
1.23591
1.35168
1.43217
1.49406
1.5404
1.56885
1.57602
1.56062
1.53544
1.5295
1.52877
1.52868
1.52637
1.49844
1.46594
1.42948
1.25241
1.20302
1.18411
1.18051
1.19677
1.22246
1.24833
1.2669
1.27803
1.28604
1.28497
1.28939
1.28704
1.29407
1.29171
1.29285
1.29222
1.2832
1.27607
1.27222
1.25163
1.25896
1.24143
1.24792
1.23478
1.23971
1.22955
1.2333
1.22613
1.22923
1.12265
1.12294
1.12318
1.12068
1.12209
1.11838
1.11949
1.11656
1.11332
1.11504
1.10911
1.11086
1.10627
1.10537
1.10378
1.10066
1.1011
1.09678
1.09796
1.09365
1.09509
1.09121
1.09245
1.08942
1.09033
1.08799
1.0891
1.08707
1.08826
1.08864
1.08011
1.07806
1.07813
1.0777
1.07785
1.07752
1.07745
1.0774
1.07713
1.07716
1.07689
1.07693
1.07666
1.07671
1.07653
1.07646
1.07648
1.07635
1.07642
1.0763
1.07632
1.07625
1.07629
1.07623
1.07626
1.07622
1.07624
1.07624
1.07635
1.07821
1.07821
1.0763
1.07619
1.07618
1.07618
1.07618
1.07616
1.07616
1.07615
1.07614
1.07614
1.07613
1.07612
1.0761
1.07609
1.07609
1.07609
1.07611
1.07613
1.07614
1.07615
1.07616
1.07617
1.07617
1.07618
1.07618
1.07619
1.0762
1.0763
1.07821
1.07821
1.0763
1.07619
1.07618
1.07617
1.07617
1.07616
1.07616
1.07615
1.07614
1.07613
1.07613
1.07611
1.0761
1.07608
1.07608
1.07609
1.07611
1.07613
1.07613
1.07614
1.07615
1.07615
1.07616
1.07617
1.07618
1.07618
1.0762
1.07632
1.07818
1.07818
1.07631
1.07619
1.07618
1.07617
1.07617
1.07616
1.07616
1.07615
1.07615
1.07614
1.07613
1.07611
1.0761
1.07608
1.07609
1.07609
1.07611
1.07613
1.07613
1.07614
1.07615
1.07616
1.07616
1.07617
1.07618
1.07618
1.0762
1.07632
1.07818
1.07817
1.07631
1.07619
1.07618
1.07617
1.07617
1.07616
1.07616
1.07615
1.07614
1.07614
1.07613
1.07612
1.0761
1.07609
1.07608
1.07609
1.07611
1.07613
1.07614
1.07615
1.07615
1.07616
1.07617
1.07618
1.07618
1.07618
1.0762
1.0763
1.07821
1.07818
1.07632
1.07619
1.07618
1.07617
1.07617
1.07616
1.07616
1.07615
1.07614
1.07614
1.07613
1.07611
1.0761
1.07608
1.07608
1.07609
1.07611
1.07612
1.07613
1.07614
1.07615
1.07615
1.07616
1.07617
1.07618
1.07618
1.0762
1.07632
1.07818
1.0782
1.0763
1.07617
1.07618
1.07617
1.07617
1.07616
1.07616
1.07615
1.07614
1.07614
1.07613
1.07611
1.0761
1.07609
1.07609
1.0761
1.07612
1.07613
1.07614
1.07615
1.07615
1.07616
1.07617
1.07617
1.07617
1.07618
1.07618
1.0763
1.07821
1.07817
1.07631
1.07618
1.07617
1.07617
1.07616
1.07616
1.07616
1.07615
1.07615
1.07614
1.07614
1.07612
1.07611
1.0761
1.07609
1.0761
1.07612
1.07613
1.07614
1.07614
1.07615
1.07616
1.07617
1.07617
1.07618
1.07618
1.0762
1.07632
1.07818
2.00346
1.85095
2.02425
1.91893
1.19272
1.52935
2.0175
2.02648
2.04151
2.10938
2.18395
2.06563
1.77482
1.77067
1.5759
1.89304
1.64063
1.70188
1.65023
1.64112
1.67041
1.61636
1.67907
1.66131
1.65977
1.6249
1.61528
1.6229
1.64799
1.65653
1.63265
1.68312
1.77197
1.80682
1.87615
1.54784
1.56128
1.68754
1.77374
1.86741
1.90568
1.86921
1.74231
1.56784
1.47168
1.34754
1.1982
1.09982
1.06896
1.07569
1.12859
1.14559
1.14241
1.14369
1.10285
1.05884
1.02811
1.01443
1.05506
1.15168
1.27125
1.37025
1.43685
1.48774
1.51157
1.52036
1.50968
1.50282
1.50458
1.51835
1.52516
1.52821
1.51823
1.50969
1.1832
1.08374
1.05024
1.03562
1.03949
1.06968
1.11719
1.16141
1.19288
1.21362
1.21694
1.22765
1.23434
1.23617
1.24176
1.24367
1.24605
1.24673
1.23414
1.24052
1.21893
1.22151
1.20917
1.21233
1.20057
1.20917
1.20148
1.2036
1.20405
1.205
1.08429
1.08461
1.08445
1.08762
1.08629
1.08807
1.08505
1.0865
1.0825
1.08196
1.08104
1.07776
1.07816
1.07402
1.07474
1.07068
1.07118
1.06731
1.06835
1.06424
1.0657
1.06163
1.06334
1.05978
1.06146
1.0586
1.05989
1.05799
1.05874
1.05837
1.04938
1.04946
1.0492
1.04943
1.04908
1.04917
1.04888
1.04878
1.04877
1.04849
1.04856
1.04829
1.04835
1.04816
1.04816
1.04804
1.04801
1.04798
1.04787
1.04794
1.04778
1.04787
1.04774
1.0478
1.04772
1.04775
1.0477
1.0477
1.04775
1.04784
1.04789
1.04767
1.04771
1.04765
1.04767
1.04771
1.04765
1.04773
1.04765
1.04773
1.04765
1.04773
1.04765
1.04772
1.04765
1.04772
1.04765
1.04772
1.04765
1.04772
1.04765
1.04772
1.04765
1.04772
1.04765
1.04772
1.04765
1.04772
1.04767
1.04789
1.04787
1.04769
1.04766
1.04771
1.04765
1.04772
1.04765
1.04773
1.04765
1.04773
1.04765
1.04772
1.04765
1.04771
1.04765
1.04771
1.04765
1.04772
1.04765
1.04772
1.04765
1.04772
1.04765
1.04771
1.04764
1.0477
1.04764
1.04766
1.04771
1.04781
1.04783
1.04772
1.04764
1.04771
1.04764
1.04772
1.04765
1.04772
1.04765
1.04772
1.04765
1.04772
1.04765
1.04771
1.04765
1.04771
1.04765
1.04772
1.04765
1.04772
1.04765
1.04772
1.04765
1.04771
1.04764
1.0477
1.04764
1.04766
1.04771
1.04781
1.04784
1.04772
1.0477
1.04764
1.04772
1.04765
1.04772
1.04765
1.04773
1.04765
1.04773
1.04765
1.04772
1.04765
1.04771
1.04765
1.04771
1.04765
1.0477
1.04767
1.04766
1.04772
1.04765
1.04772
1.04765
1.04772
1.04765
1.04772
1.04767
1.04789
1.04782
1.04772
1.04764
1.04771
1.04764
1.04772
1.04765
1.04772
1.04765
1.04772
1.04765
1.04772
1.04765
1.04771
1.04765
1.04771
1.04765
1.04772
1.04765
1.04772
1.04765
1.04772
1.04765
1.04771
1.04764
1.0477
1.04765
1.04766
1.04771
1.04781
1.0479
1.04768
1.0477
1.0477
1.04765
1.04772
1.04765
1.04773
1.04765
1.04773
1.04765
1.04772
1.04765
1.04771
1.04766
1.04766
1.04771
1.04765
1.04772
1.04765
1.04773
1.04765
1.04773
1.04765
1.04772
1.04765
1.04771
1.0477
1.04768
1.04789
1.04782
1.04771
1.04763
1.04771
1.04764
1.04771
1.04764
1.04773
1.04765
1.04773
1.04766
1.04773
1.04766
1.04772
1.04765
1.04772
1.04765
1.04772
1.04765
1.04773
1.04765
1.04772
1.04765
1.04772
1.04764
1.0477
1.04765
1.04766
1.04772
1.04782
1.07038
1.00518
0.960057
0.834428
0.688815
0.830379
1.38772
1.91159
1.94159
2.00152
2.06397
2.12096
2.22919
1.75379
1.624
1.93146
1.67992
1.66078
1.68093
1.66332
1.6952
1.70099
1.67462
1.69198
1.6543
1.59753
1.58095
1.54681
1.55725
1.56289
1.58711
1.63344
1.66529
1.69237
1.70203
1.82971
1.53329
1.51166
1.67001
1.79931
1.88785
1.93626
1.87437
1.7191
1.42782
1.30315
1.18833
1.15615
1.17241
1.25348
1.26656
1.28894
1.22046
1.25659
1.18957
1.14886
1.07594
1.02542
0.996593
1.02086
1.09689
1.20663
1.29895
1.37146
1.41666
1.44631
1.45679
1.46381
1.46179
1.47677
1.49708
1.50837
1.52119
1.5124
1.08883
1.00195
0.994684
0.981007
0.962984
0.951422
0.977221
1.03077
1.08531
1.12202
1.1434
1.15056
1.16767
1.17137
1.17817
1.18744
1.18847
1.19435
1.18696
1.1929
1.17661
1.1837
1.16585
1.1759
1.16152
1.17005
1.1642
1.16524
1.1709
1.16989
1.03616
1.03505
1.04072
1.04196
1.04628
1.04579
1.04832
1.04587
1.04782
1.04514
1.04328
1.04488
1.04034
1.04087
1.03966
1.03652
1.03747
1.03376
1.03483
1.03168
1.03165
1.02984
1.02939
1.02792
1.02786
1.02651
1.02676
1.02574
1.02592
1.02745
1.01911
1.01714
1.01737
1.01685
1.01713
1.01672
1.01688
1.01652
1.01651
1.01643
1.01622
1.01623
1.01602
1.01605
1.01585
1.0159
1.01575
1.01575
1.0157
1.01564
1.01563
1.01558
1.01556
1.01554
1.0155
1.01552
1.01548
1.01548
1.01558
1.01737
1.01731
1.01554
1.01545
1.01543
1.01545
1.01546
1.01544
1.01546
1.01545
1.01546
1.01545
1.01546
1.01544
1.01546
1.01544
1.01546
1.01544
1.01546
1.01544
1.01545
1.01544
1.01546
1.01544
1.01546
1.01544
1.01546
1.01544
1.01546
1.01554
1.01732
1.01731
1.01555
1.01545
1.01545
1.01543
1.01546
1.01544
1.01546
1.01545
1.01546
1.01544
1.01546
1.01544
1.01545
1.01543
1.01545
1.01543
1.01545
1.01544
1.01546
1.01544
1.01546
1.01544
1.01545
1.01543
1.01545
1.01543
1.01544
1.01555
1.01733
1.01733
1.01555
1.01543
1.01545
1.01543
1.01546
1.01544
1.01546
1.01545
1.01546
1.01544
1.01546
1.01544
1.01545
1.01543
1.01545
1.01543
1.01545
1.01544
1.01546
1.01544
1.01546
1.01544
1.01545
1.01543
1.01545
1.01543
1.01544
1.01555
1.01733
1.01734
1.01556
1.01545
1.01543
1.01545
1.01544
1.01546
1.01544
1.01547
1.01545
1.01546
1.01544
1.01546
1.01544
1.01545
1.01543
1.01545
1.01543
1.01545
1.01545
1.01544
1.01546
1.01544
1.01546
1.01544
1.01546
1.01543
1.01546
1.01555
1.01731
1.01734
1.01555
1.01543
1.01545
1.01543
1.01546
1.01544
1.01546
1.01545
1.01546
1.01544
1.01546
1.01544
1.01545
1.01543
1.01545
1.01543
1.01545
1.01544
1.01546
1.01544
1.01546
1.01544
1.01545
1.01543
1.01545
1.01543
1.01543
1.01555
1.01733
1.01731
1.01555
1.01545
1.01545
1.01544
1.01546
1.01544
1.01546
1.01545
1.01546
1.01544
1.01546
1.01544
1.01545
1.01544
1.01544
1.01545
1.01544
1.01546
1.01544
1.01546
1.01545
1.01546
1.01544
1.01546
1.01544
1.01545
1.01546
1.01555
1.01731
1.01733
1.01554
1.01542
1.01544
1.01543
1.01545
1.01544
1.01546
1.01545
1.01546
1.01544
1.01546
1.01544
1.01545
1.01543
1.01545
1.01543
1.01545
1.01544
1.01545
1.01544
1.01546
1.01544
1.01545
1.01543
1.01545
1.01543
1.01543
1.01555
1.01733
0.679684
0.660088
0.653736
0.618556
0.652236
0.792884
1.28318
1.86301
1.88036
1.92739
1.98979
2.041
2.17325
1.7434
1.68541
1.74207
1.71004
1.71148
1.75589
1.77387
1.76091
1.80349
1.77802
1.76405
1.71129
1.65754
1.5792
1.54996
1.52718
1.53726
1.56071
1.57786
1.57095
1.58298
1.57244
1.56655
1.63878
1.57267
1.44414
1.62923
1.74619
1.84277
1.91239
1.83175
1.45023
1.32593
1.23575
1.24592
1.32686
1.34342
1.3328
1.26489
1.36828
1.2815
1.35862
1.2035
1.14375
1.0502
1.00453
0.980105
0.997346
1.05772
1.14762
1.23241
1.29579
1.34012
1.37099
1.39086
1.39599
1.41303
1.42677
1.44716
1.46478
1.46927
1.04045
1.0096
1.02967
1.02112
0.982757
0.930441
0.903946
0.92201
0.974488
1.02452
1.05854
1.074
1.08906
1.09394
1.1065
1.11192
1.1183
1.12081
1.12102
1.12603
1.11119
1.11905
1.1046
1.10636
1.10245
1.10258
1.10504
1.10604
1.11639
1.1237
0.964429
0.966511
0.971895
0.982018
0.984718
0.989868
0.989204
0.99153
0.988935
0.989988
0.988037
0.986009
0.987048
0.982542
0.984511
0.980661
0.980639
0.979074
0.977364
0.977551
0.974257
0.975912
0.972168
0.973709
0.97119
0.971438
0.970296
0.970397
0.969755
0.96997
0.961343
0.962397
0.962102
0.962383
0.962013
0.962117
0.961792
0.961846
0.961586
0.961485
0.961474
0.961246
0.961289
0.961115
0.96111
0.960997
0.961001
0.960895
0.960908
0.960846
0.960799
0.960809
0.960725
0.960758
0.960689
0.960702
0.960676
0.960663
0.960662
0.960129
0.960089
0.96062
0.960638
0.960622
0.960648
0.960653
0.96063
0.960663
0.960635
0.960668
0.960641
0.960671
0.960645
0.960669
0.960648
0.960666
0.960645
0.960666
0.960639
0.96066
0.960631
0.96066
0.960631
0.960659
0.960626
0.960648
0.960618
0.960643
0.960609
0.960093
0.96008
0.960627
0.960635
0.960638
0.960616
0.960653
0.960628
0.960663
0.960633
0.960667
0.960638
0.960666
0.96064
0.960664
0.960642
0.960662
0.960642
0.960665
0.96064
0.960666
0.960635
0.960661
0.960629
0.960654
0.960618
0.960639
0.960614
0.960625
0.960621
0.960095
0.9601
0.96062
0.960613
0.960636
0.960615
0.960653
0.960628
0.960663
0.960635
0.960666
0.960638
0.960666
0.960641
0.960664
0.960642
0.960663
0.960643
0.960666
0.960641
0.960667
0.960636
0.960662
0.960629
0.960654
0.960619
0.96064
0.960616
0.960623
0.960621
0.960095
0.960116
0.960633
0.960632
0.960613
0.960645
0.960625
0.96066
0.960634
0.960665
0.960639
0.960669
0.960642
0.960668
0.960645
0.960665
0.960643
0.960663
0.96064
0.960651
0.960652
0.960644
0.960658
0.960629
0.960657
0.960624
0.960648
0.960614
0.960647
0.960616
0.960088
0.960105
0.960624
0.960612
0.960635
0.960617
0.960653
0.960629
0.960664
0.960635
0.960667
0.960639
0.960666
0.960641
0.960664
0.960643
0.960662
0.960643
0.960665
0.96064
0.960665
0.960634
0.960659
0.960628
0.960653
0.960619
0.960639
0.96062
0.960621
0.96062
0.960095
0.96009
0.960622
0.960634
0.960639
0.960628
0.960654
0.960628
0.960663
0.960632
0.960666
0.960638
0.960669
0.960641
0.960665
0.960648
0.960651
0.960662
0.960643
0.960669
0.96064
0.960666
0.960634
0.960664
0.96063
0.960654
0.960621
0.960634
0.960643
0.960626
0.960087
0.9601
0.960619
0.960607
0.960635
0.960609
0.96065
0.96062
0.960662
0.960628
0.960669
0.960637
0.960673
0.960642
0.960669
0.960644
0.960666
0.960648
0.96067
0.960646
0.960672
0.960641
0.960668
0.960634
0.960658
0.960622
0.960645
0.960629
0.960626
0.96063
0.960099
0.604847
0.606362
0.616067
0.654232
0.791046
1.32592
1.81706
1.82424
1.85203
1.88715
1.96218
2.06091
2.15973
1.68387
1.7355
1.90056
1.72595
1.7296
1.83364
1.84995
1.87007
1.90782
1.83144
1.86646
1.82266
1.72983
1.64734
1.5833
1.54199
1.51726
1.51263
1.4936
1.47357
1.45645
1.43461
1.4251
1.4277
1.50069
1.57547
1.41415
1.51942
1.65813
1.81948
1.87673
1.36558
1.33805
1.29308
1.28553
1.29359
1.32166
1.3329
1.40194
1.3928
1.49566
1.33589
1.33444
1.14305
1.07994
1.00388
0.977033
0.962103
0.976922
1.02285
1.09603
1.16664
1.22515
1.26658
1.29867
1.31732
1.34333
1.34613
1.38134
1.43774
1.46046
1.00361
1.04938
1.07351
1.05952
1.01408
0.948326
0.88819
0.867616
0.892335
0.936921
0.974925
0.996315
1.00906
1.01643
1.03132
1.03455
1.04599
1.04747
1.05261
1.05373
1.05257
1.04863
1.05271
1.04277
1.05095
1.04134
1.05568
1.05141
1.07088
1.07506
0.889149
0.893231
0.906542
0.916454
0.926702
0.929634
0.934598
0.934156
0.936707
0.934044
0.937366
0.932574
0.935669
0.932068
0.932226
0.931635
0.929004
0.930314
0.926523
0.928435
0.924541
0.926342
0.923173
0.924403
0.922084
0.923017
0.921043
0.922569
0.921292
0.921937
0.912992
0.9132
0.914081
0.913511
0.913987
0.913537
0.913714
0.913382
0.913467
0.913113
0.913194
0.913012
0.912905
0.912896
0.912729
0.912765
0.912637
0.912612
0.912561
0.912518
0.9125
0.912444
0.91244
0.912406
0.912379
0.912402
0.912394
0.912423
0.912426
0.911951
0.911894
0.912393
0.912378
0.912342
0.912344
0.912325
0.912307
0.912316
0.912312
0.912314
0.91231
0.912314
0.912315
0.912317
0.912316
0.912316
0.912314
0.912313
0.912305
0.912302
0.9123
0.912309
0.912307
0.912311
0.912318
0.91233
0.912345
0.912378
0.912389
0.911902
0.911892
0.912391
0.912384
0.912343
0.912324
0.912318
0.912308
0.912314
0.912311
0.912312
0.912307
0.912309
0.912309
0.912311
0.912311
0.912312
0.912311
0.912312
0.912308
0.912309
0.912307
0.912313
0.912308
0.912308
0.912311
0.912325
0.912339
0.912371
0.912386
0.91191
0.911908
0.912383
0.912369
0.91234
0.912323
0.912319
0.912308
0.912315
0.912312
0.912311
0.912307
0.912309
0.91231
0.912312
0.912311
0.912313
0.912312
0.912312
0.912308
0.91231
0.912308
0.912313
0.912309
0.912308
0.912311
0.912326
0.912341
0.912371
0.912387
0.91191
0.911923
0.912393
0.912372
0.912341
0.912327
0.912319
0.912313
0.912314
0.912317
0.912312
0.912313
0.91231
0.912314
0.912314
0.912314
0.912311
0.912313
0.912305
0.912304
0.912306
0.912307
0.912308
0.912307
0.91231
0.912316
0.912328
0.912342
0.912381
0.912393
0.911895
0.911919
0.912387
0.912368
0.91234
0.912324
0.91232
0.912309
0.912316
0.912312
0.912313
0.912308
0.912309
0.91231
0.912312
0.912311
0.912312
0.912311
0.912312
0.912307
0.912309
0.912306
0.912312
0.912307
0.912307
0.91231
0.912326
0.912344
0.912369
0.912385
0.911911
0.911894
0.912391
0.912372
0.912349
0.912329
0.91232
0.912306
0.912313
0.91231
0.91231
0.912307
0.912311
0.91231
0.912313
0.912313
0.912313
0.912313
0.91231
0.912311
0.912307
0.912311
0.91231
0.912313
0.912306
0.912318
0.912323
0.912339
0.912377
0.912394
0.911893
0.911906
0.912381
0.912365
0.912339
0.912322
0.912313
0.912305
0.91231
0.912309
0.91231
0.912312
0.912312
0.91231
0.912311
0.912309
0.912311
0.912311
0.912312
0.912308
0.912307
0.912307
0.912308
0.912303
0.912307
0.912309
0.912331
0.912365
0.912441
0.91257
0.912081
0.608798
0.617482
0.645238
0.725493
0.951894
1.70368
1.77019
1.75855
1.75998
1.79283
1.89542
2.04191
2.17323
2.12367
2.0795
2.05299
1.88908
1.88039
1.7555
1.8217
1.88917
1.92854
1.89969
1.92475
1.89202
1.89087
1.89345
1.8133
1.69011
1.61754
1.53664
1.49479
1.45125
1.39789
1.36245
1.3659
1.37185
1.35331
1.38135
1.40189
1.41748
1.50331
1.68784
1.45174
1.51048
1.58892
1.40056
1.47021
1.4253
1.40387
1.37172
1.32994
1.32129
1.30295
1.34826
1.33985
1.44562
1.41278
1.44023
1.28311
1.22782
1.05963
1.01625
0.966284
0.953976
0.945434
0.958936
0.990545
1.04674
1.1038
1.15179
1.19202
1.21609
1.24904
1.23514
1.29482
1.29239
1.2858
1.04177
1.075
1.06419
1.07814
1.08985
1.0454
1.00093
0.937043
0.87804
0.842334
0.842634
0.869981
0.899275
0.922662
0.929021
0.945265
0.947443
0.956993
0.963922
0.966089
0.973204
0.969846
0.976267
0.965705
0.973791
0.959178
0.971574
0.958213
0.9728
0.970644
0.976378
0.991468
0.94995
0.926776
0.877439
0.851282
0.844433
0.854374
0.859868
0.864943
0.863868
0.868015
0.864679
0.865883
0.865083
0.863305
0.864518
0.860465
0.862722
0.858955
0.858935
0.857606
0.856495
0.855961
0.854158
0.854465
0.85235
0.853006
0.850885
0.851845
0.849755
0.85071
0.8497
0.848057
0.843319
0.843084
0.841355
0.844282
0.843626
0.844292
0.843411
0.843894
0.843263
0.843349
0.843211
0.843044
0.843001
0.842791
0.842889
0.84264
0.842677
0.842608
0.842531
0.842545
0.842459
0.842491
0.842408
0.842439
0.842376
0.842381
0.842363
0.842358
0.842374
0.842347
0.842197
0.839932
0.83797
0.837955
0.839903
0.84216
0.842314
0.842315
0.842316
0.842294
0.842277
0.842283
0.842276
0.842282
0.842275
0.842278
0.842274
0.842276
0.842275
0.842276
0.842273
0.842274
0.84227
0.842273
0.84227
0.842275
0.842272
0.842283
0.842288
0.842304
0.84231
0.842312
0.842151
0.839894
0.837939
0.837941
0.839893
0.842162
0.842317
0.842315
0.842298
0.842293
0.842276
0.842282
0.842275
0.842282
0.842274
0.842275
0.842271
0.842274
0.842273
0.842274
0.842272
0.842275
0.842272
0.842278
0.842275
0.842281
0.842273
0.842282
0.842283
0.842302
0.842312
0.842309
0.842151
0.839902
0.837937
0.837938
0.839901
0.84215
0.842304
0.842313
0.842298
0.842293
0.842277
0.842282
0.842275
0.842281
0.842274
0.842276
0.842273
0.842274
0.842274
0.842275
0.842272
0.842275
0.842272
0.842279
0.842275
0.842281
0.842273
0.842283
0.842284
0.842303
0.842312
0.842309
0.842152
0.839902
0.837938
0.837939
0.839911
0.842159
0.842308
0.842309
0.842304
0.842288
0.842285
0.842276
0.842282
0.842278
0.842279
0.842273
0.842275
0.842272
0.842274
0.842272
0.842273
0.842269
0.842267
0.842277
0.842276
0.842274
0.842271
0.842281
0.842285
0.842304
0.842309
0.842312
0.842155
0.839891
0.83794
0.837939
0.839908
0.842154
0.842303
0.842314
0.8423
0.842294
0.842278
0.842283
0.842277
0.842282
0.842275
0.842276
0.842272
0.842274
0.842274
0.842274
0.842272
0.842275
0.842272
0.842277
0.842274
0.842279
0.842272
0.842281
0.842283
0.842301
0.842314
0.842307
0.84215
0.839902
0.837937
0.83794
0.839893
0.842161
0.842307
0.842319
0.842301
0.842293
0.842276
0.842281
0.842274
0.84228
0.842274
0.842276
0.842273
0.842274
0.842274
0.842275
0.842274
0.842272
0.842277
0.842274
0.842281
0.842275
0.842282
0.842276
0.842293
0.842297
0.842309
0.842308
0.842156
0.839887
0.837938
0.837936
0.839899
0.842147
0.842299
0.842314
0.842297
0.842292
0.842271
0.842282
0.842276
0.842287
0.842279
0.842286
0.842278
0.842282
0.842278
0.842278
0.842273
0.842275
0.842269
0.842279
0.842272
0.842282
0.842272
0.842288
0.842285
0.842301
0.842313
0.842304
0.842143
0.839908
0.838052
0.83974
0.625123
0.632811
0.662203
0.716478
0.821757
0.992806
1.16189
1.33342
1.61895
1.59223
1.68593
1.8896
2.06842
2.08261
1.99327
1.92553
1.95829
1.83092
1.82064
1.85273
1.92753
1.90616
1.86899
1.83078
1.87316
1.8446
1.86798
1.80663
1.70245
1.57798
1.51206
1.43211
1.36933
1.30556
1.29485
1.27812
1.27585
1.28813
1.33017
1.29899
1.36287
1.46421
1.36356
2.29385
1.84907
1.43569
1.35176
1.31559
1.35714
1.3076
1.31334
1.30486
1.28131
1.26752
1.20774
1.26024
1.23611
1.30053
1.28706
1.2907
1.1557
1.10745
0.989673
0.973983
0.942422
0.938671
0.933077
0.943556
0.963861
1.00117
1.04765
1.08467
1.11844
1.12708
1.14358
1.18206
1.14353
1.21737
1.1664
1.12605
1.12994
1.09508
1.03444
0.98619
0.941684
0.892461
0.848904
0.819162
0.810471
0.821208
0.838979
0.857368
0.861185
0.878627
0.877147
0.888861
0.891769
0.898044
0.902458
0.901614
0.90874
0.899698
0.909246