/*--------------------------------*- C++ -*----------------------------------*\
| =========                 |                                                 |
| \\      /  F ield         | OpenFOAM: The Open Source CFD Toolbox           |
|  \\    /   O peration     | Version:  2.1.1                                 |
|   \\  /    A nd           | Web:      www.OpenFOAM.org                      |
|    \\/     M anipulation  |                                                 |
\*---------------------------------------------------------------------------*/
FoamFile
{
    version     2.0;
    format      ascii;
    class       volScalarField;
    location    "0.001750000";
    object      T;
}
// * * * * * * * * * * * * * * * * * * * * * * * * * * * * * * * * * * * * * //

dimensions      [0 0 0 1 0 0 0];

internalField   nonuniform List<scalar> 
12384
(
2382.97
2410.52
2450.72
1238.85
451.289
354.849
345.361
343.545
343.641
342.822
348.034
356.433
354.255
361.141
343.093
342.312
340.765
342.168
342.827
348.54
356.009
360.387
360.356
361.445
358.96
365.706
366.393
369.014
366.385
371.363
375.697
376.509
375.516
372.626
366.168
366.519
356.292
357.018
350.967
349.836
352.94
356.584
363.331
368.387
329.821
329.396
329.339
329.251
330.033
328.764
332.029
332.319
334.547
336.755
338.757
340.558
341.543
341.804
342.344
341.44
341.456
340.429
339.335
338.214
337.392
337.468
336.069
336.179
337.826
337.436
339.663
339.532
339.663
339.836
317.19
317.6
317.454
317.964
317.865
318.239
318.096
318.318
318.719
318.637
319.028
319.059
319.142
318.822
317.823
316.849
315.891
313.582
313.663
311.799
312.293
310.807
311.261
310.303
309.966
310.147
309.288
309.637
309.015
309.188
298.263
298.195
298.076
298.111
297.922
297.668
297.693
297.287
297.344
296.823
296.907
296.505
296.185
296.294
295.727
295.888
295.365
295.464
294.997
295.166
294.708
294.881
294.51
294.576
294.459
294.312
294.362
294.228
294.269
294.22
293.143
293.158
293.141
293.15
293.129
293.121
293.119
293.098
293.1
293.076
293.082
293.06
293.061
293.053
293.041
293.043
293.029
293.033
293.022
293.021
293.019
293.01
293.015
293.004
293.01
293.004
293.002
293.004
293
293.002
292.998
292.999
292.998
292.998
292.999
292.998
292.999
292.998
293
292.998
293.001
293
292.999
292.999
292.999
292.999
292.999
292.999
293
293
292.999
292.998
293
292.998
292.999
292.999
292.999
292.998
292.998
292.998
292.998
292.999
292.998
292.998
293
292.998
292.999
292.998
293
292.998
293.001
293
292.999
292.999
292.999
292.999
292.999
292.999
293
293
292.999
292.998
292.999
292.998
292.998
292.999
292.999
292.999
292.998
292.999
292.999
292.998
292.999
292.998
293
292.998
292.999
292.998
293
292.998
293.001
293
292.999
292.999
292.999
292.999
292.999
292.999
293
293
292.999
292.998
292.999
292.998
292.998
292.999
292.998
292.999
292.998
292.999
292.999
292.999
292.998
292.998
292.999
292.999
292.998
292.999
292.998
292.999
292.999
293
292.999
292.999
292.999
293
292.999
292.999
293
293
292.999
292.999
292.999
292.998
292.999
293
292.999
292.998
292.999
292.998
292.999
292.998
292.999
292.998
293
292.998
292.999
292.998
293
292.998
293.001
293
292.999
292.999
292.999
292.999
292.999
292.999
293.001
292.999
292.999
292.998
292.999
292.998
292.998
292.999
292.999
292.999
292.998
292.998
292.998
292.998
292.998
292.998
292.999
292.998
292.998
292.998
292.999
292.998
293
293
293
292.999
292.999
292.999
292.999
292.999
293
293.001
292.999
292.999
292.999
292.999
292.998
293
292.998
292.999
292.999
292.998
292.998
292.997
292.998
292.997
293
292.998
292.999
292.998
292.999
292.999
293.001
293
293
293
293.002
293.001
293.002
293
293
293
293
293
293.001
292.999
293
293
292.999
293
292.999
293
2371.88
2330.11
2392.27
2254.22
686.977
409.837
360.098
354.164
347.083
343.562
351.643
354.248
359.657
360.636
346.461
343.822
345.37
351.782
379.065
472.663
546.255
596.642
593.691
607.463
593.114
593.799
620.803
560.256
475.623
409.141
379.955
373.975
366.231
360.277
364.375
360.567
358.921
357.709
354.707
354.06
356.096
358.321
363.569
367.728
328.471
328.53
328.329
328.152
328.11
329.171
328.386
332.423
332.453
335.481
336.997
338.465
339.324
339.745
339.41
339.904
340.653
340.467
341.417
339.907
339.625
337.826
336.99
335.853
337.758
337.921
338.916
339.802
339.739
339.634
317.411
317.243
317.885
317.929
318.606
318.553
318.915
318.683
318.958
318.646
318.962
318.547
318.862
318.307
317.141
317.054
315.707
314.007
314.037
311.851
312.345
311.082
310.742
310.718
309.762
310.133
309.251
309.4
308.977
308.983
298.336
298.327
298.338
298.076
298.057
297.801
297.542
297.546
297.102
297.153
296.672
296.745
296.171
296.322
295.732
295.938
295.309
295.584
294.93
295.227
294.719
294.793
294.604
294.486
294.475
294.309
294.352
294.222
294.263
294.184
293.167
293.156
293.152
293.138
293.131
293.129
293.1
293.112
293.075
293.093
293.053
293.075
293.039
293.049
293.04
293.027
293.034
293.01
293.029
292.999
293.02
292.993
293.015
292.987
293.01
292.985
293.003
292.998
292.989
292.996
292.98
292.992
292.977
292.996
292.993
292.98
292.999
292.979
292.999
292.979
292.999
292.98
292.999
292.981
292.998
292.982
292.998
292.981
292.999
292.98
292.999
292.979
292.999
292.978
292.999
292.978
292.998
292.977
292.992
292.98
292.983
292.987
292.995
292.979
292.998
292.978
292.999
292.979
293
292.979
292.999
292.98
292.999
292.981
292.998
292.981
292.999
292.981
292.999
292.979
292.999
292.979
293
292.979
293
292.98
292.997
292.992
292.986
292.993
292.993
292.984
293
292.978
293
292.978
293
292.979
292.999
292.979
292.999
292.98
292.999
292.981
292.998
292.982
292.999
292.981
292.999
292.98
292.999
292.979
293
292.979
293
292.98
292.997
292.993
292.987
292.993
292.987
292.988
292.98
292.997
292.978
292.999
292.978
292.999
292.979
293
292.979
292.999
292.981
292.999
292.982
292.999
292.982
292.998
292.982
292.994
292.997
292.98
292.999
292.978
292.999
292.978
292.998
292.976
292.992
292.98
292.992
292.984
293
292.978
293
292.978
293
292.979
292.999
292.979
292.999
292.98
292.999
292.981
292.998
292.982
292.999
292.98
292.999
292.98
293
292.98
293
292.979
293
292.98
292.996
292.994
292.987
292.993
292.977
292.989
292.979
292.981
292.996
292.977
292.998
292.978
292.999
292.979
292.999
292.98
293
292.982
292.997
292.996
292.983
293
292.98
292.999
292.98
292.999
292.979
292.999
292.979
292.998
292.979
292.984
292.988
292.979
292.992
292.983
293
292.978
293
292.977
293
292.977
293.001
292.978
293.001
292.98
293.001
292.981
293
292.983
293
292.981
293
292.981
293.001
292.98
293.002
292.98
293.001
292.981
292.997
292.995
292.987
292.994
2199.98
2049.55
1992.79
1875.61
725.928
545.199
484.949
503.284
412.233
365.819
355.759
353.723
362.031
360.993
348.087
351.556
406.895
536.654
856.015
2039.14
2316.08
2342.3
2349.04
2302.42
2288.56
2311.19
2386.05
2332.11
2242.21
1210.07
749.076
609.501
472.411
377.792
356.676
358.353
359.666
359.393
357.841
357.952
358.915
361.744
363.159
366.342
328.988
327.937
327.264
327.74
327.696
328.124
329.169
329.145
331.077
334.382
335.934
337.943
339.012
339.493
339.993
339.988
340.592
342.377
343.772
342.678
341.395
338.96
337.264
336.784
337.243
337.58
338.12
339.086
338.802
338.439
317.048
317.026
317.714
318.112
318.746
319.134
319.292
319.274
319.005
318.824
318.47
318.272
317.936
317.09
317.231
315.897
316.305
313.862
314.579
312.26
311.929
311.662
310.256
310.88
309.57
310.051
309.048
309.39
308.725
308.948
298.387
298.38
298.32
298.347
298.019
298.003
297.745
297.424
297.287
297.11
296.692
296.779
296.195
296.333
295.763
295.912
295.438
295.446
295.156
295.008
294.919
294.637
294.737
294.419
294.516
294.302
294.325
294.235
294.251
294.184
293.176
293.189
293.17
293.184
293.15
293.147
293.139
293.117
293.118
293.092
293.096
293.075
293.068
293.066
293.051
293.054
293.04
293.041
293.033
293.03
293.026
293.028
293.021
293.023
293.016
293.02
293.015
293.016
293.015
293.017
293.015
293.011
293.012
293.012
293.013
293.011
293.012
293.013
293.013
293.012
293.012
293.011
293.011
293.011
293.012
293.012
293.011
293.012
293.012
293.013
293.012
293.013
293.013
293.013
293.011
293.013
293.012
293.012
293.011
293.015
293.014
293.013
293.012
293.012
293.012
293.011
293.013
293.013
293.012
293.011
293.012
293.011
293.011
293.012
293.012
293.012
293.011
293.012
293.011
293.012
293.011
293.013
293.013
293.013
293.011
293.012
293.012
293.013
293.012
293.014
293.013
293.013
293.013
293.013
293.012
293.011
293.012
293.013
293.012
293.012
293.012
293.012
293.011
293.012
293.012
293.012
293.011
293.012
293.011
293.012
293.011
293.013
293.013
293.013
293.011
293.012
293.012
293.012
293.012
293.014
293.014
293.012
293.012
293.012
293.012
293.011
293.013
293.013
293.013
293.011
293.012
293.011
293.012
293.012
293.012
293.012
293.012
293.012
293.012
293.013
293.012
293.013
293.013
293.013
293.011
293.012
293.012
293.012
293.011
293.016
293.013
293.013
293.012
293.012
293.012
293.012
293.013
293.013
293.012
293.011
293.012
293.012
293.011
293.012
293.012
293.012
293.011
293.011
293.011
293.012
293.011
293.013
293.013
293.012
293.011
293.012
293.012
293.012
293.012
293.014
293.014
293.011
293.012
293.011
293.012
293.011
293.012
293.013
293.012
293.012
293.012
293.012
293.012
293.011
293.013
293.013
293.012
293.012
293.012
293.012
293.012
293.012
293.013
293.013
293.011
293.012
293.012
293.012
293.012
293.015
293.013
293.012
293.012
293.012
293.011
293.012
293.012
293.013
293.012
293.013
293.013
293.013
293.013
293.013
293.014
293.013
293.013
293.014
293.013
293.013
293.013
293.013
293.013
293.013
293.012
293.013
293.013
293.013
293.013
293.015
1835.44
1751.51
1609.07
1460.66
1389.28
1315.2
1284.01
1397.34
843.093
596.073
422.655
362.823
359.464
362.294
352.713
396.429
1199.19
2483.53
2477.12
2466.57
2466.58
2457.72
2458.11
2478.17
2469.99
2462.43
2436.69
2466.81
2495.57
2464.61
2480.83
2505.11
2454.04
866.739
408.323
354.65
357.128
360.576
363.465
362.429
363.539
364.201
364.338
362.614
323.85
326.413
327.799
327.203
326.03
324.161
325.195
326.616
329.681
330.465
334.042
335.983
337.653
340.241
340.447
341.597
342.095
343.391
344.859
345.213
344.429
341.613
338.535
337.474
337.259
337.417
338.382
338.449
338.67
337.978
316.259
316.74
317.342
318.216
318.93
319.491
319.726
319.704
319.3
318.982
317.947
317.688
316.888
317.128
316.566
316.384
316.064
315.079
314.074
313.712
311.414
312.165
310.259
310.902
309.484
309.99
308.942
309.32
308.59
308.753
298.731
298.725
298.648
298.3
298.368
297.894
297.943
297.575
297.182
297.329
296.669
296.826
296.325
296.204
296.031
295.675
295.72
295.239
295.364
294.889
295.043
294.618
294.75
294.418
294.513
294.257
294.379
294.155
294.278
294.131
293.227
293.192
293.206
293.161
293.175
293.142
293.132
293.131
293.1
293.108
293.076
293.086
293.056
293.063
293.049
293.039
293.043
293.025
293.034
293.017
293.022
293.012
293.017
293.007
293.013
293.005
293.008
293.007
293.004
293.005
293
293.001
293
293.002
293.001
293
293.003
293
293.003
293.001
293.003
293
293.003
293.001
293.004
293.002
293.003
293.001
293.003
293.001
293.003
293.001
293.003
293
293.002
292.999
293.002
292.999
293.001
292.999
293
293
293.002
293
293.003
292.999
293.003
293
293.003
293
293.003
293
293.004
293.001
293.004
293.001
293.004
293.001
293.003
293
293.003
293.001
293.003
293
293.002
293
293.002
293.002
293
293.002
293.001
293
293.003
293
293.002
292.999
293.003
293
293.003
293
293.003
293
293.004
293.001
293.003
293.001
293.004
293.001
293.003
293
293.003
293.001
293.003
293
293.002
293
293.002
293.003
293
293.002
293
293.001
293
293.002
293
293.002
293
293.003
293
293.003
293
293.003
293.001
293.004
293.001
293.004
293.001
293.003
293.002
293.002
293.003
293
293.003
293
293.002
293
293.002
293
293.001
292.999
293.002
293
293.003
293
293.002
292.999
293.003
293
293.003
293
293.003
293
293.004
293.001
293.004
293.001
293.004
293.001
293.003
293
293.003
293.001
293.003
293
293.002
293
293.002
293.002
293
293.002
292.998
293.001
292.998
293
293.002
292.999
293.003
293
293.003
293.001
293.004
293.001
293.004
293.001
293.004
293.004
293.002
293.004
293.001
293.004
293
293.003
293
293.003
292.999
293.002
293
292.999
293.001
292.998
293.001
293
293.002
292.999
293.002
292.998
293.003
293
293.004
293.001
293.004
293.001
293.004
293.001
293.004
293.001
293.004
293.001
293.004
293.001
293.004
293.001
293.004
293.001
293.003
293
293.002
293.003
293.001
293.002
1710.14
1732.03
1703.6
1691.78
2135.35
2182.9
2077.85
1994.83
1901.74
1794.14
1006.64
585.08
397.686
358.731
361.879
603.932
2419.89
2460.58
2460.09
2455.27
2460.27
2425.85
2426.79
2409.9
2392.05
2360.98
2331.74
2329.64
2346.35
2336.77
2319.39
2349.01
2416.19
2419.38
988.149
422.052
355.362
361.043
364.998
368.923
369.415
368.595
367.711
363.54
335.904
334.997
333.213
330.104
326.383
323.057
325.145
326.199
327.096
331.554
333.215
335.678
338.951
340.15
342.529
342.702
343.442
344.034
344.947
345.854
345.469
343.785
341.065
338.758
337.584
337.775
337.635
337.848
337.392
337.372
316.235
315.886
316.858
317.737
318.795
319.397
319.794
319.816
319.39
319.074
317.648
317.476
317.098
316.488
316.482
316.032
315.964
315.591
314.035
314.437
311.962
312.078
310.58
310.773
309.284
309.996
308.875
308.893
308.626
308.523
298.732
298.799
298.563
298.672
298.328
298.334
297.857
297.886
297.343
297.206
297.025
296.624
296.606
296.132
296.161
295.706
295.72
295.291
295.372
294.92
295.056
294.608
294.778
294.383
294.557
294.232
294.372
294.15
294.229
294.164
293.199
293.225
293.192
293.216
293.17
293.18
293.141
293.131
293.126
293.097
293.101
293.072
293.077
293.055
293.057
293.04
293.04
293.034
293.023
293.028
293.014
293.021
293.008
293.012
293.007
293.008
293.005
293.003
293.005
293
293.002
292.998
293.003
292.999
293
293.002
292.998
293.002
292.998
293.004
292.998
293.003
292.999
293.003
292.998
293.003
292.998
293.003
292.998
293.003
292.998
293.003
292.998
293.003
292.998
293.003
292.997
293.003
292.998
293.001
293.001
293
292.998
293.002
292.998
293.003
292.997
293.002
292.998
293.004
292.998
293.003
292.999
293.003
292.998
293.003
292.998
293.003
292.998
293.003
292.998
293.003
292.997
293.002
292.998
293.002
292.998
292.999
293.001
292.997
292.998
293.002
292.997
293.002
292.998
293.003
292.997
293.002
292.998
293.003
292.998
293.003
292.999
293.003
292.998
293.003
292.998
293.003
292.998
293.003
292.998
293.003
292.997
293.002
292.998
293.002
292.998
292.999
293.001
292.997
292.998
293
293.001
292.997
293.003
292.997
293.003
292.997
293.003
292.998
293.003
292.998
293.004
292.998
293.003
292.998
293.003
292.998
293.002
292.999
293
293.003
292.998
293.003
292.998
293.003
292.998
293.003
292.998
293.002
292.997
293.002
292.997
293.002
292.997
293.003
292.997
293.002
292.998
293.003
292.998
293.003
292.999
293.003
292.998
293.003
292.998
293.003
292.998
293.003
292.998
293.003
292.997
293.002
292.997
293.002
292.998
292.999
293.001
292.997
293.002
292.999
293.001
293.002
292.998
293.003
292.997
293.003
292.998
293.004
292.999
293.003
292.999
293.003
292.999
293
293.004
292.999
293.003
292.999
293.004
292.999
293.003
292.998
293.003
292.999
293.002
293.001
292.999
293.002
292.996
293.001
292.996
293.002
292.997
293.003
292.997
293.002
292.997
293.004
292.998
293.003
292.998
293.004
292.999
293.004
292.999
293.004
292.999
293.003
292.999
293.004
292.998
293.002
292.997
293.002
292.999
292.999
293
292.997
1914.11
2018.85
2121.69
2274.24
2466.55
2510.27
2493.91
2408.18
2316.96
2196.28
2050.89
1873.69
650.3
368.81
380.589
885.669
2440.63
2434.53
2491.45
2509.25
2518.44
2504.72
2469.59
2443.68
2405.02
2348.13
2301.29
2257.86
2240.29
2233.74
2238.26
2267.68
2300.83
2335.24
2337.92
1057.73
446.288
358.725
364.081
370.953
372.121
372.087
370.417
368.838
335.316
337.136
337.88
335.644
332.87
335.485
333.769
337.88
329.509
336.374
333.836
338.021
339.47
342.244
342.957
344.527
344.288
344.61
344.731
345.567
345.668
345.111
343.057
341.223
338.661
337.875
337.585
336.949
337.155
336.13
313.31
313.751
315.522
316.318
317.679
318.899
319.811
319.905
319.673
318.971
318.245
316.962
317.191
316.382
316.078
316.187
315.706
315.557
314.402
314.442
312.334
312.71
310.389
311.15
309.194
309.798
308.73
308.472
308.577
307.99
299.141
299.142
299.193
298.778
298.78
298.334
298.286
297.759
297.75
297.286
296.911
296.999
296.356
296.366
296.124
295.742
295.772
295.329
295.395
295.02
294.979
294.756
294.68
294.493
294.469
294.291
294.312
294.169
294.173
294.147
293.309
293.255
293.275
293.207
293.223
293.172
293.181
293.138
293.129
293.121
293.092
293.095
293.068
293.071
293.049
293.052
293.038
293.035
293.031
293.022
293.024
293.015
293.017
293.011
293.01
293.008
293.006
293.006
293.004
293.006
293
293.001
293.001
293.001
293.001
293.001
293.002
293.002
293.002
293.002
293.002
293.001
293.002
293.001
293.002
293.001
293.002
293.001
293.002
293.001
293.002
293.001
293.003
293.001
293.002
293
293.001
293
293
293
293
293
293.001
293
293.001
293.001
293.002
293.002
293.002
293.001
293.002
293.001
293.002
293.001
293.002
293.001
293.002
293.001
293.002
293.001
293.002
293.001
293.003
293
293.001
293
293.001
293
293
293.001
293.002
293
293.001
293
293.001
293
293.002
293.002
293.002
293.001
293.002
293.001
293.002
293.001
293.002
293.001
293.002
293.001
293.002
293.001
293.002
293.001
293.003
293
293.001
293
293.001
293
293
293.001
293.001
293.001
293
293.001
293
293.002
293
293.002
293.001
293.002
293.001
293.002
293.001
293.002
293.001
293.002
293.001
293.002
293.001
293.002
293.002
293.002
293.002
293
293.001
293.001
293.001
293.001
293.001
293
293.002
293
293.001
293
293.001
293
293.002
293.002
293.003
293.001
293.002
293.001
293.002
293.001
293.002
293.001
293.002
293.001
293.002
293.001
293.002
293.001
293.003
293
293.001
293
293
293
293
293.001
293
293.001
293.001
293.001
293.001
293
293.002
293.001
293.003
293.002
293.003
293.001
293.002
293.002
293.002
293.002
293.002
293.003
293.002
293.003
293.002
293.003
293.002
293.002
293.001
293.001
293.001
293.001
293.001
293
293.001
293
293.001
293
293.001
293
293.002
293.001
293.003
293.001
293.003
293.002
293.003
293.003
293.003
293.002
293.002
293.003
293.003
293.001
293.003
293.001
293.003
293
293.001
293
293.001
293.001
293
293.002
2334.56
2354.48
2384.48
2460.52
2513.15
2575.16
2606.53
2578.86
2529.51
2453.94
2301.45
2115.94
832.97
381.92
447.718
2136.62
2480.18
2485.6
2556.42
2544.65
2519.03
2553.99
2565.04
2535.88
2475.33
2402.92
2322.36
2259.76
2208.42
2187.5
2190.85
2201.2
2215.46
2242.4
2252.64
2256.35
1203.47
524.23
370.557
365.51
370.295
370.908
371.405
371.636
342.099
343.417
343.744
345.219
347.414
345.183
344.665
335.647
345.727
336.775
349.066
339.151
343.392
342.491
344.468
344.884
345.635
345.037
344.778
344.92
345.227
345.037
344.512
342.784
340.187
338.654
337.218
335.89
334.52
333.517
313.419
313.225
314.233
315.49
317.153
318.394
319.424
319.88
319.802
319.26
318.572
317.577
317.21
316.28
316.282
315.975
315.684
315.313
314.652
314.626
312.494
312.902
310.825
310.642
309.661
309.192
308.735
308.073
308.178
307.967
299.16
299.574
299.145
299.239
298.777
298.754
298.268
298.185
297.641
297.547
297.159
296.783
296.793
296.171
296.321
295.806
295.742
295.515
295.264
295.258
294.827
295.008
294.524
294.697
294.363
294.377
294.216
294.2
294.088
294.134
293.289
293.321
293.265
293.281
293.221
293.223
293.174
293.175
293.136
293.122
293.114
293.086
293.086
293.064
293.062
293.047
293.047
293.032
293.034
293.025
293.02
293.021
293.011
293.015
293.007
293.009
293.006
293.004
293.005
293.002
293
292.999
293.001
293
292.999
293.001
292.999
293.001
292.999
293.002
292.998
293.002
292.999
293.002
292.999
293.001
292.999
293.002
292.998
293.002
292.998
293.002
292.998
293.001
292.998
293.001
292.997
293.001
292.998
292.999
292.999
292.999
292.998
293.001
292.998
293.001
292.998
293.002
292.999
293.002
292.998
293.002
292.999
293.001
292.999
293.001
292.999
293.001
292.998
293.002
292.998
293.002
292.998
293.001
292.998
293.001
292.999
292.999
293
292.998
292.998
292.999
292.998
293.001
292.998
293.001
292.998
293.001
292.999
293.002
292.998
293.002
292.999
293.002
292.999
293.002
292.999
293.001
292.998
293.002
292.998
293.002
292.998
293.001
292.998
293.001
292.999
292.999
293
292.998
292.999
292.999
293
292.998
293.001
292.997
293.001
292.998
293.002
292.998
293.002
292.998
293.002
292.999
293.001
292.999
293.001
292.999
293
293
292.999
293.002
292.998
293.001
292.998
293.001
292.998
293.001
292.998
293
292.998
293
292.998
293.001
292.997
293.001
292.998
293.001
292.999
293.002
292.998
293.002
292.999
293.001
292.999
293.001
292.998
293.001
292.998
293.001
292.998
293.002
292.998
293.001
292.998
293.001
292.999
292.999
293
292.997
293
292.999
292.999
293
292.999
293.001
292.998
293.002
292.999
293.002
292.998
293.002
292.999
293.002
293
293
293.002
292.999
293.002
292.999
293.002
292.999
293.002
292.998
293.001
292.998
293.001
292.999
292.999
293
292.997
292.999
292.997
293.001
292.997
293.001
292.997
293.002
292.998
293.002
292.999
293.003
292.999
293.003
292.999
293.002
293
293.002
292.999
293.003
292.998
293.002
292.998
293.001
292.997
293
292.998
292.998
292.999
292.996
2435.41
2446.17
2482.79
2538.92
2598.34
2657.77
2646.93
2637.99
2621.18
2538.38
2341.49
2015.31
734.825
373.965
490.044
2159.15
2511.8
2534.84
2470.39
2341.3
2328.14
2384.63
2476.17
2604.87
2582.23
2492.29
2395.43
2298.83
2223.1
2171.46
2147.77
2132.77
2134.87
2149.83
2150.53
2145.76
2147.58
2228.31
675.966
416.277
363.179
364.996
368.775
371.451
342.243
344.491
344.823
346.556
346.775
347.665
347.524
352.093
351.174
359.096
344.704
351.537
341.675
345.87
344.472
345.727
345.58
345.697
344.764
344.6
344.501
344.868
344.491
343.77
341.635
340.441
336.704
335.953
336.106
333.263
310.462
313.46
314.51
314.515
316.486
318.122
319.444
319.917
319.906
319.397
318.881
318.041
317.234
316.262
316.459
315.641
315.794
315.146
314.795
314.214
313.332
312.161
311.999
310.106
310.395
308.538
309.294
307.693
308.321
307.206
297.604
299.452
299.773
299.454
299.253
298.768
298.632
298.132
298.004
297.393
297.525
296.733
296.928
296.345
296.22
296.071
295.619
295.744
295.165
295.387
294.809
295.028
294.554
294.702
294.343
294.441
294.133
294.28
294.047
294.125
293.403
293.314
293.361
293.255
293.288
293.212
293.222
293.168
293.171
293.121
293.127
293.101
293.082
293.08
293.057
293.061
293.044
293.04
293.035
293.028
293.027
293.019
293.021
293.015
293.012
293.012
293.009
293.009
293.007
293.007
293.003
293.002
293.003
293.002
293.002
293.002
293.002
293.002
293.003
293.002
293.002
293.002
293.002
293.002
293.002
293.002
293.002
293.002
293.002
293.002
293.002
293.002
293.003
293.002
293.002
293.002
293.002
293.002
293.002
293.002
293.001
293.001
293.002
293.002
293.002
293.002
293.003
293.002
293.002
293.002
293.002
293.002
293.002
293.002
293.002
293.002
293.002
293.002
293.002
293.002
293.002
293.002
293.003
293.002
293.002
293.002
293.002
293.002
293.002
293.002
293.001
293.002
293.002
293.002
293.002
293.002
293.002
293.001
293.002
293.002
293.002
293.002
293.002
293.002
293.002
293.002
293.002
293.002
293.002
293.002
293.002
293.002
293.003
293.001
293.002
293.002
293.002
293.002
293.002
293.002
293.002
293.002
293.002
293.002
293.002
293.002
293.002
293.003
293.002
293.002
293.002
293.002
293.002
293.002
293.002
293.002
293.002
293.002
293.003
293.002
293.003
293.002
293.003
293.002
293.002
293.002
293.002
293.002
293.002
293.001
293.002
293.002
293.002
293.002
293.002
293.002
293.002
293.002
293.002
293.002
293.002
293.002
293.002
293.002
293.002
293.002
293.002
293.002
293.002
293.002
293.002
293.002
293.003
293.002
293.002
293.002
293.002
293.002
293.002
293.002
293.002
293.002
293.002
293.002
293.002
293.002
293.002
293.002
293.003
293.002
293.002
293.002
293.002
293.002
293.002
293.002
293.002
293.002
293.003
293.003
293.002
293.003
293.002
293.002
293.002
293.002
293.002
293.002
293.002
293.002
293.001
293
293.001
293.001
293.002
293.001
293.003
293.001
293.003
293.001
293.003
293.002
293.003
293.003
293.003
293.003
293.003
293.002
293.003
293.002
293.003
293.002
293.002
293.001
293.002
293.001
293.001
293.001
293.001
293.001
2481.66
2497.02
2513.66
2568.57
2626.25
2672.69
2666.92
2656.03
2650.54
2652.02
2470.78
1958.63
1501.63
605.051
1655.79
1797.43
1076.14
2323.87
2525.81
2498.72
2251.81
2193.58
2240.51
2321.21
2390.17
2496.47
2624.09
2585.46
2448.4
2334.69
2230.43
2168.32
2121.64
2082.52
2056.16
2063.88
2079.3
2077.02
2100.67
2119.5
2142.67
2228.19
699.333
392.548
352.906
352.515
344.061
357.324
352.256
349.423
347.761
345.579
345.748
344.603
346.615
346.369
355.359
352.851
359.145
349.004
353.341
345.493
347.654
345.412
345.955
345.451
345.471
344.25
344.201
344.183
344.257
344.012
342.544
341.509
335.319
336.222
329.609
325.988
314.624
314.889
311.811
312.803
315.347
314.476
316.852
318.109
319.451
320.119
319.986
319.678
318.901
318.548
316.913
317.259
315.83
315.866
315.464
315.028
314.839
313.941
313.81
312.01
312.263
309.863
310.642
308.097
308.823
307.05
306.144
305.271
303.017
302.787
301.211
301.119
300.46
300.167
299.542
299.344
298.598
298.734
297.891
297.794
297.425
297.008
297.004
296.323
296.525
295.907
295.838
295.573
295.372
295.239
294.949
294.952
294.617
294.682
294.339
294.445
294.097
294.187
293.958
293.915
293.71
293.715
293.451
293.518
293.342
293.4
293.252
293.303
293.2
293.203
293.172
293.143
293.131
293.096
293.106
293.067
293.071
293.057
293.045
293.044
293.031
293.034
293.021
293.025
293.016
293.016
293.011
293.009
293.008
293.005
293.005
293.003
293.008
293.005
293.001
293
293
293
293
293
292.999
293
292.999
292.999
292.999
292.999
292.999
292.999
292.999
293
292.999
293
292.999
293
292.999
293
292.999
293
292.999
293
292.999
292.999
292.999
292.998
293.003
293.003
292.998
292.999
292.998
293
292.999
293
292.999
293
292.999
293
292.998
293
292.999
292.999
292.999
293
292.999
293
292.999
293
292.998
293
292.999
293
292.999
293
292.998
292.999
292.998
292.999
293.003
293.003
292.999
292.999
292.998
293
292.999
293
292.999
293
292.999
293
292.999
293
292.999
293
292.999
293
292.999
293
292.999
293
292.998
293
292.999
293
292.999
293
292.998
292.999
292.998
292.998
293.003
293.003
292.999
292.999
292.999
292.999
293
292.999
293
292.999
293
292.998
293
292.999
293
292.999
293
293
292.999
293
292.999
293
292.999
293
292.999
293
292.999
293
292.999
292.999
292.999
292.999
293.003
293.003
292.999
292.999
292.999
293
292.999
293
292.999
293
292.999
292.999
292.999
293
292.999
292.999
292.999
293
292.999
293
292.999
293
292.998
293
292.999
293
292.999
293
292.999
292.999
292.998
292.999
293.003
293.003
292.998
292.999
292.999
292.999
292.999
293
292.999
293.001
292.999
293
292.999
293
292.999
293
293
293
293
292.999
293
292.999
293
292.999
293.001
292.999
293
292.999
292.999
292.998
292.999
292.998
293.003
293.003
292.998
292.998
292.998
293
292.998
293
292.998
293.001
292.998
293.001
292.998
293
292.999
293.001
293
293.001
293
293
292.999
293.001
292.999
293
292.998
292.999
292.998
292.999
292.998
292.999
292.998
292.999
293.002
293.003
2439.96
2437.59
2446.91
2478.91
2542.35
2577.34
2572.78
2524.65
2514.57
2484.31
2577.42
2407.78
1742.76
1567.76
1772.23
1908.03
1970.98
2380.24
2424.18
2277.54
2161.98
2239.97
2409.27
2509.87
2528.37
2539.07
2618.58
2596.39
2461.2
2305.27
2216.38
2143.11
2094
2045.3
2022.75
2003.69
2000.24
2014.14
2040.75
2049.68
2098.41
2139.32
2135.21
2439.5
662.828
390.335
355.134
343.434
348.145
345.858
348.662
353.043
352.571
345.065
335.339
342.184
342.329
352.117
351.831
358.731
352.534
355.19
346.892
347.963
345.557
345.864
345.083
345.053
343.826
343.355
343.626
343.553
343.123
339.756
336.801
335.847
326.029
327.964
319.739
315.892
317.258
315.683
313.636
314.946
317.471
318.88
319.677
320.041
320.046
319.694
319.074
318.663
316.963
317.553
315.729
316.05
315.198
315.152
314.671
313.908
313.881
312.064
312.493
309.862
310.627
308.142
308.702
306.555
306.857
305.204
304.708
302.253
302.585
301.116
301.332
299.833
300.308
299.035
298.98
298.581
297.999
298.083
297.219
297.501
296.718
296.61
296.366
295.971
296.034
295.45
295.651
295.069
295.205
294.789
294.817
294.513
294.511
294.297
294.211
294.14
293.951
293.965
293.69
293.751
293.473
293.516
293.377
293.394
293.286
293.297
293.217
293.234
293.154
293.186
293.113
293.125
293.097
293.082
293.077
293.058
293.06
293.04
293.045
293.029
293.029
293.024
293.02
293.019
293.014
293.014
293.01
293.009
293.007
293.007
293.004
293.005
293.003
293.003
293.002
293.003
293.002
293.002
293.002
293.002
293.002
293.001
293.001
293.002
293.002
293.002
293.002
293.002
293.002
293.002
293.002
293.001
293.001
293.002
293.002
293.002
293.002
293.002
293.002
293.001
293.001
293.001
293.001
293.001
293.001
293.001
293.001
293.002
293.002
293.002
293.002
293.002
293.002
293.001
293.001
293.002
293.002
293.002
293.002
293.002
293.002
293.002
293.002
293.001
293.001
293.002
293.002
293.002
293.002
293.002
293.002
293.001
293.001
293.001
293.001
293.001
293.001
293.001
293.001
293.002
293.002
293.002
293.002
293.002
293.002
293.001
293.001
293.002
293.002
293.002
293.002
293.002
293.002
293.002
293.002
293.001
293.001
293.002
293.002
293.002
293.002
293.002
293.002
293.001
293.001
293.001
293.001
293.001
293.001
293.001
293.001
293.002
293.002
293.002
293.002
293.002
293.002
293.001
293.001
293.002
293.002
293.002
293.002
293.002
293.002
293.002
293.002
293.001
293.001
293.001
293.002
293.001
293.002
293.002
293.002
293.001
293.002
293.001
293.001
293.001
293.001
293.002
293.001
293.002
293.002
293.002
293.002
293.002
293.002
293.001
293.001
293.002
293.002
293.002
293.002
293.002
293.002
293.002
293.002
293.001
293.001
293.002
293.002
293.002
293.002
293.002
293.002
293.001
293.001
293.001
293.001
293.001
293.001
293.001
293.001
293.002
293.002
293.002
293.002
293.002
293.002
293.001
293.001
293.002
293.002
293.002
293.002
293.002
293.002
293.002
293.002
293.001
293.001
293.002
293.002
293.002
293.002
293.002
293.002
293.001
293.001
293.001
293
293.001
293.001
293.001
293
293.002
293.002
293.002
293.002
293.002
293.002
293.002
293.003
293.002
293.002
293.003
293.003
293.002
293.003
293.002
293.003
293.002
293.003
293.002
293.002
293.002
293.002
293.001
293.001
293.001
293
293.001
293.001
293.002
2270.58
2287.38
2283.32
2304.87