/*--------------------------------*- C++ -*----------------------------------*\
| =========                 |                                                 |
| \\      /  F ield         | OpenFOAM: The Open Source CFD Toolbox           |
|  \\    /   O peration     | Version:  2.1.1                                 |
|   \\  /    A nd           | Web:      www.OpenFOAM.org                      |
|    \\/     M anipulation  |                                                 |
\*---------------------------------------------------------------------------*/
FoamFile
{
    version     2.0;
    format      ascii;
    class       volScalarField;
    location    "0.001750000";
    object      Tu;
}
// * * * * * * * * * * * * * * * * * * * * * * * * * * * * * * * * * * * * * //

dimensions      [0 0 0 1 0 0 0];

internalField   nonuniform List<scalar> 
12384
(
270
270
270
270
317.528
351.488
345.183
343.712
344.066
342.871
348.508
356.298
354.842
360.72
343.887
343.016
340.438
342.436
342.744
345.458
342.092
344.496
343.157
344.586
346.315
349.971
353.738
361.136
364.493
371.869
375.546
376.67
375.665
372.094
364.909
366.571
355.806
356.885
350.607
349.661
352.976
356.725
363.42
368.243
329.641
329.447
329.302
329.265
329.606
328.856
331.73
332.517
334.569
336.972
338.896
340.52
341.465
341.778
341.923
341.398
340.997
340.527
339.18
338.188
337.456
337.221
336.128
336.131
337.812
337.495
339.572
339.552
339.703
339.803
317.178
317.627
317.555
317.884
318.013
318.16
318.081
318.348
318.646
318.662
318.968
319.073
319.143
318.742
317.889
316.731
315.988
313.492
313.726
311.756
312.331
310.779
311.273
310.294
309.961
310.144
309.282
309.626
309.012
309.181
298.227
298.17
298.084
298.101
297.931
297.656
297.701
297.279
297.35
296.817
296.909
296.505
296.182
296.297
295.726
295.887
295.368
295.461
295.003
295.161
294.716
294.874
294.517
294.569
294.466
294.307
294.367
294.226
294.272
294.22
293.143
293.159
293.143
293.151
293.131
293.122
293.12
293.098
293.102
293.077
293.084
293.061
293.062
293.055
293.041
293.045
293.03
293.034
293.023
293.022
293.02
293.012
293.016
293.006
293.01
293.005
293.004
293.005
293.001
293.002
292.999
292.999
292.999
292.999
293
292.999
293
293
293
293.001
293.001
293.001
293
293
293
293
293
293
293.001
293.001
293
293
293
293
293
293
292.999
292.999
292.999
292.999
292.998
293
292.999
292.999
293
293
292.999
293
293
293.001
293.001
293.001
293
293
293
293
293
293
293.001
293.001
293
293.001
293
293
292.999
293
292.999
293
292.999
292.999
293
292.999
292.999
293
293
292.999
292.999
293
293
293.001
293.001
293.001
293
293
293
293
293
293
293.001
293.001
293
293.001
293
293
292.999
293.001
292.999
293
292.999
292.999
292.999
293
292.999
292.999
293.001
293
292.999
293
293
293
293.001
293.001
293
293
293
293
293
293
293.001
293.001
293
293
293
293
292.999
293.001
292.999
292.999
292.999
292.998
292.999
292.999
292.999
292.999
293.001
292.999
292.999
293
293
293.001
293.001
293.001
293
293
293
293
293
293
293.001
293.001
293
293.001
293
293
292.999
293.001
292.999
293
292.999
292.999
292.998
292.999
292.999
292.999
293
292.999
292.999
293
292.999
293.001
293.001
293.001
293.001
293
293
293.001
293
293
293.002
293.002
293.001
293
293.001
293
293
293.001
292.999
292.999
293
292.999
292.998
292.998
292.998
292.999
293
292.999
293
293
292.999
293.001
293.001
293.002
293.001
293.001
293.003
293.002
293.003
293.002
293.001
293.001
293.001
293.001
293.001
293.001
293
293.002
293
293.001
293
293
270
270
270
270
270
339.147
348.84
341.546
343.865
343.243
352.232
354.735
360.034
360.469
345.019
343.252
344.328
342.661
336.431
300.131
274.986
270
270
270
270.488
273.752
270.174
298.491
328.141
352.362
364.201
367.317
366.074
361.641
365.125
360.69
359.007
357.49
355.063
354.26
356.088
358.277
363.137
367.188
328.629
328.264
328.279
328.157
328.424
329.121
328.638
332.659
332.376
335.374
336.87
338.534
339.394
339.864
339.867
340.142
341.03
340.779
341.111
340.435
339.197
337.74
337.038
335.911
337.422
337.673
338.95
339.581
339.392
339.363
317.335
317.266
317.694
318.02
318.314
318.642
318.795
318.785
318.766
318.816
318.644
318.676
318.653
318.219
317.175
316.765
315.99
313.614
314.325
311.557
312.475
310.972
310.767
310.705
309.766
310.086
309.328
309.338
309.069
308.914
298.513
298.477
298.329
298.103
298.046
297.817
297.56
297.533
297.134
297.129
296.711
296.721
296.209
296.299
295.789
295.885
295.394
295.51
295.035
295.137
294.841
294.696
294.715
294.415
294.551
294.288
294.379
294.241
294.27
294.215
293.188
293.165
293.173
293.146
293.15
293.136
293.12
293.117
293.098
293.096
293.077
293.077
293.059
293.063
293.045
293.047
293.037
293.031
293.032
293.022
293.021
293.016
293.014
293.011
293.01
293.008
293.004
293.006
293.003
293.002
293.002
293
293.002
293
292.999
293.003
293
293.002
293
293.003
293
293.002
293
293.003
293
293.003
293
293.003
293.001
293.003
293
293.003
293
293.003
293
293.003
292.999
293.002
293
293.003
293.001
293.001
292.998
293.002
292.999
293.002
293
293.003
293
293.003
293
293.003
293
293.003
293
293.002
293
293.002
293
293.003
293
293.003
293
293.002
293
293.002
292.999
293.001
293.001
292.999
292.999
293.001
292.999
293.002
293
293.002
293
293.002
293
293.003
293
293.003
293
293.003
293
293.002
293
293.002
293
293.003
293
293.002
293
293.002
293
293.002
292.999
293.001
293.001
292.999
293
293
293.002
292.999
293.003
293
293.002
293
293.003
293
293.003
293
293.002
293
293.003
293
293.003
293
293.003
293.001
293
293.003
292.999
293.002
293
293.003
292.999
293.002
293
293.003
292.999
293.001
292.999
293.002
293
293.003
293
293.002
293
293.003
293
293.003
293
293.003
293
293.002
293
293.002
293
293.003
293
293.002
293
293.002
293
293.002
292.999
293
293.001
292.999
293.003
293
293
293.002
292.999
293.003
292.999
293.002
293
293.003
293
293.003
293
293.003
293.001
293.001
293.003
293
293.003
293.001
293.003
293
293.003
293
293.003
292.999
293.003
292.999
293.001
293.003
292.998
293.001
292.999
293.002
292.999
293.002
293
293.002
293
293.003
293.001
293.003
293.001
293.004
293.002
293.004
293.002
293.004
293.003
293.004
293.001
293.004
293.001
293.004
293.001
293.003
292.999
293.001
293.002
293
270
270
270
270
270
309.922
318.636
300.94
330.496
344.137
354.845
353.774
361.239
361.763
347.91
347.678
330.486
287.317
270
270
270
270
270
270
270
270
270
270
270
270
270
276.369
321.737
357.16
359.337
359.277
359.712
359.399
357.954
357.864
358.895
361.782
363.067
365.967
329.216
327.9
327.045
327.628
327.152
327.877
328.285
329.63
330.698
334.635
335.359
337.85
338.67
339.391
339.722
339.975
340.448
342.542
343.572
343.093
341.407
339.241
337.4
336.914
337.025
337.567
338.344
339.039
338.99
338.737
317.066
316.983
317.706
318.076
318.734
319.126
319.327
319.244
319.081
318.795
318.607
318.357
318.034
317.184
317.356
315.916
316.454
313.835
314.684
312.208
311.99
311.624
310.3
310.798
309.643
309.908
309.135
309.285
308.788
308.911
298.321
298.281
298.285
298.338
297.999
297.992
297.741
297.42
297.277
297.132
296.668
296.802
296.176
296.34
295.752
295.9
295.44
295.42
295.166
294.977
294.929
294.605
294.741
294.392
294.512
294.285
294.313
294.221
294.238
294.166
293.157
293.178
293.157
293.169
293.138
293.133
293.126
293.102
293.105
293.08
293.082
293.064
293.054
293.055
293.037
293.042
293.028
293.028
293.022
293.016
293.014
293.014
293.008
293.009
293.004
293.006
293.002
293.001
293.001
293.001
292.998
292.998
292.998
292.998
293
292.998
292.999
292.999
293
292.999
292.999
292.999
292.999
292.999
292.999
292.999
292.999
292.999
292.999
293
293
293
292.999
292.999
292.998
292.999
292.999
292.998
292.999
292.998
292.998
292.998
292.999
292.998
292.999
292.998
292.999
292.999
292.999
292.999
292.999
292.999
292.999
292.999
292.999
292.999
292.999
292.999
292.999
292.999
292.999
292.999
292.999
292.999
292.998
292.999
292.999
292.998
292.998
292.998
292.999
292.998
292.999
292.999
292.999
292.998
292.999
292.999
293
292.999
292.999
292.999
292.999
292.999
292.999
292.999
292.999
292.999
292.999
292.999
292.999
292.999
292.999
292.999
292.998
292.999
292.999
292.998
292.998
292.998
292.998
292.999
292.998
292.999
292.999
292.998
292.999
292.999
292.999
292.999
292.999
292.999
292.999
292.999
292.999
292.999
292.999
293
292.999
292.999
292.999
293
292.999
292.999
292.998
292.999
292.999
292.998
292.999
292.998
292.999
292.998
292.998
292.998
292.999
292.998
292.999
292.999
292.999
292.999
292.999
292.999
292.999
292.999
292.999
292.999
292.999
292.999
292.999
292.999
292.999
292.999
292.999
292.999
292.998
292.999
292.999
292.998
292.998
292.998
292.998
292.998
292.998
292.998
292.999
292.998
292.999
292.999
292.999
292.999
292.999
292.999
292.999
292.999
292.999
292.999
292.999
292.999
292.999
292.999
292.999
293
292.999
292.999
292.999
292.999
292.999
292.999
292.998
292.998
292.998
292.997
292.997
292.998
292.999
292.998
292.999
292.999
293
293
293
293
293
293
293
293.001
293
293
293
293
293
293
293.001
293
292.999
293
293
292.998
293
293
270
270
270
270
270
270
270
270
270
282.76
337.924
355.622
359.558
362.262
352.813
337.563
270
270
270
270
270
270
270
270
270
270
270
270
270
270
270
270
270
270
349.316
358.715
359.182
360.548
363.389
362.706
363.394
363.885
364.219
362.761
323.782
325.939
327.735
327.216
326.431
324.511
325.705
327.055
330.157
331.006
334.567
336.237
338.051
339.987
340.489
341.728
342.236
343.386
344.838
345.182
344.359
341.644
338.62
337.545
337.299
337.295
338.17
338.303
338.53
338.174
316.375
316.793
317.348
318.129
318.946
319.52
319.776
319.724
319.292
319.025
317.97
317.709
316.861
317.23
316.436
316.471
315.926
315.072
314.012
313.709
311.361
312.178
310.206
310.898
309.473
310.011
308.941
309.33
308.575
308.721
298.785
298.801
298.672
298.277
298.389
297.877
297.95
297.558
297.176
297.309
296.667
296.8
296.335
296.174
296.047
295.646
295.735
295.215
295.376
294.871
295.052
294.604
294.755
294.408
294.515
294.253
294.377
294.155
294.274
294.133
293.229
293.188
293.206
293.158
293.174
293.139
293.13
293.127
293.098
293.105
293.075
293.083
293.055
293.061
293.046
293.038
293.04
293.024
293.03
293.017
293.019
293.011
293.013
293.006
293.008
293.004
293.005
293.004
293.002
293.001
292.999
292.999
292.999
292.999
292.999
292.999
292.999
292.999
293
293
293
293
293
293
293
293.001
293
293
293
293
293
293
292.999
292.999
292.998
293
292.998
292.999
292.999
292.999
292.999
292.999
292.999
292.999
292.999
292.999
292.998
292.999
293
293
293
293
293
293
293
293.001
293
293.001
293
293
293
293
292.999
292.999
292.998
293
292.999
293
292.999
292.998
292.999
292.999
292.999
292.999
292.999
292.999
292.999
292.999
293
293
293
293
293
293
293
293
293
293
293
293
293
293
292.999
292.999
292.998
293
292.999
293
292.999
292.998
292.998
292.999
292.999
292.998
292.999
292.998
292.999
292.999
293
293
293
293
293
293
293.001
293
293.001
293
293.001
293
293
293
292.999
292.999
292.998
292.999
292.999
292.999
292.999
292.999
292.998
292.999
292.999
292.999
292.999
292.999
292.999
292.999
293
293
293
293
293
293
293
293.001
293
293.001
293
293
293
293
292.999
292.999
292.998
293
292.998
293
292.999
292.998
292.998
292.998
292.997
292.999
292.998
292.998
292.998
292.999
293
293
293
293
293
293.001
293.001
293.001
293.001
293
293
293
293
293
292.999
292.999
292.999
292.999
293
292.998
292.999
292.999
292.997
292.999
292.998
292.998
292.998
292.998
292.998
292.999
292.999
293
293
293
293
293.001
293
293.001
293.001
293.001
293
293
293.001
293.001
293
293
292.999
293
292.999
293
292.999
292.998
300.68
324.251
292.203
306.879
457.662
350.721
270
270
270
270
270
290.95
349.359
358.813
352.711
278.917
270
270
270
270
270
270
270
270
270
270
270
270
270
270
270
270
270
270
270
347.692
360.172
363.26
364.992
368.706
369.362
368.537
367.563
363.669
335.688
335.128
332.743
329.946
325.902
321.403
324.558
325.716
326.163
331.712
333.325
336.149
339.287
340.408
342.262
342.56
343.396
344.244
344.9
345.9
345.382
343.968
341.024
338.784
337.557
337.717
337.693
337.795
337.077
336.912
316.015
315.79
316.544
317.639
318.561
319.45
319.909
319.871
319.512
319.119
317.702
317.418
317.227
316.392
316.53
316.079
315.92
315.631
313.963
314.393
311.966
312
310.616
310.704
309.301
309.911
308.88
308.812
308.651
308.526
298.611
298.736
298.486
298.731
298.271
298.377
297.817
297.908
297.326
297.194
297.048
296.581
296.649
296.08
296.209
295.656
295.766
295.247
295.41
294.885
295.085
294.583
294.796
294.367
294.567
294.221
294.381
294.139
294.235
294.157
293.191
293.229
293.188
293.217
293.168
293.18
293.14
293.131
293.125
293.097
293.1
293.072
293.076
293.054
293.058
293.038
293.041
293.031
293.024
293.027
293.016
293.019
293.01
293.01
293.01
293.005
293.007
293.003
293.004
293.004
292.999
293
292.999
293
293.001
293
293
292.999
293.001
293
293.001
293
293.001
293
293.001
293
293.001
293
293
293
293.001
293
293
292.999
293
292.999
293
292.999
292.999
292.999
293
292.999
293
292.999
293
292.999
293
292.999
293
293
293.001
293
293.001
293
293.001
293
293.001
293
293
293
293.001
293
293
292.999
293
292.999
293
292.999
292.999
293.001
293
292.999
293
293
293
293
293
292.999
293.001
293
293.001
293
293.001
293
293.001
293
293.001
293
293
293
293.001
293
293
292.999
293
292.999
293
292.999
292.999
293.001
292.999
292.999
292.999
293
292.999
293
292.999
292.999
293
293.001
293
293.001
293
293.001
293
293.001
293
293.001
293
293
293.001
293
293
292.999
293
293
293
292.999
292.999
292.999
293
292.999
293
292.999
293
293
293
292.999
293
293
293.001
293
293.001
293
293.001
293
293.001
293
293
293
293.001
293
293
292.999
293
292.999
293
292.999
292.999
293
292.999
292.999
292.999
292.999
293
292.999
292.999
292.999
293.001
293
293.001
293
293.001
293
293.001
293.001
293
293.001
293
293.001
293.001
293.001
292.999
293
293
293
292.999
293
292.999
292.999
292.999
292.998
292.999
292.999
293
292.999
293
292.999
293
293
293.001
293
293.001
293.001
293.002
293.001
293.002
293.001
293.002
293.001
293.002
293.001
293
292.999
293
292.999
293
292.999
292.999
292.999
540.942
562.371
579.86
636.952
723.031
599.1
365.086
270
270
270
270
270
270
355.914
353.931
270
270
270
270
270
270
270
270
270
270
270
270
270
270
270
270
270
270
270
270
270
335.773
361.718
366.961
370.954
371.844
372.292
370.545
369.112
335.447
337.484
338.214
335.773
332.344
334.933
332.01
336.004
329.156
335.022
333.8
338.374
339.891
342.424
343.038
344.375
344.325
344.751
344.845
345.499
345.668
345.029
343.148
341.144
338.76
337.907
337.756
337.104
337.321
336.02
313.003
313.877
315.592
316.668
317.976
318.861
319.742
320.011
319.701
319.115
318.307
316.987
317.25
316.335
316.118
316.208
315.657
315.704
314.227
314.577
312.185
312.762
310.285
311.147
309.155
309.766
308.703
308.455
308.542
308
299.199
299.109
299.277
298.68
298.857
298.27
298.348
297.707
297.792
297.252
296.937
296.964
296.398
296.302
296.193
295.669
295.832
295.274
295.434
294.986
295.001
294.731
294.698
294.47
294.488
294.27
294.322
294.16
294.172
294.15
293.318
293.246
293.276
293.203
293.222
293.172
293.178
293.138
293.124
293.122
293.089
293.095
293.066
293.069
293.049
293.05
293.038
293.033
293.031
293.021
293.023
293.014
293.014
293.011
293.007
293.008
293.004
293.006
293.003
293.004
292.999
292.999
292.999
292.999
292.999
293
292.999
293
293
293
293
293
293
293
293
293
293
293
293
293
293
292.999
293
293
293
292.999
292.999
292.999
292.999
292.999
292.999
292.999
292.999
292.999
292.999
293
292.999
293
293
293
293
293
293
293
293
293
293
293
293
293
293
293
293
293
292.999
292.999
292.999
292.999
292.999
292.999
292.999
292.999
292.999
292.999
292.999
292.999
293
293
292.999
293
293
293
293
293
293
293
293
293
293
293
293
293
293
293
292.999
292.999
292.999
292.999
292.999
292.999
292.999
292.999
292.999
292.999
292.999
293
293
293
293
293
293
293
293
293
293
293
293
293
293
293
293
292.999
293
292.999
292.999
293
292.999
292.999
292.999
292.999
292.999
292.999
292.999
292.999
293
293
293
293
293
293
293
293
293
293
293
293
293
293
293
293
293
293
293
293
292.999
292.999
292.999
292.999
292.999
292.999
292.999
292.999
292.998
292.999
292.999
292.999
292.999
293
293
293
293
293
293
293.001
293
293
293.001
293.001
293.001
293.001
293
293
293
293
293
292.999
292.999
292.999
292.999
292.999
292.998
292.999
292.999
292.999
292.999
293
292.999
293
292.999
293.001
293.001
293
293
293.001
293.001
293
293
293.001
293.001
293.001
293.001
293.001
293
293
292.999
293
293
293
292.998
292.998
757.696
777.636
768.209
796.801
734.335
614.292
382.533
270
270
270
270
270
270
351.735
335.689
270
270
270
270
270
270
270
270
270
270
270
270
270
270
270
270
270
270
270
270
270
270
292.026
357.4
369.048
370.807
370.474
371.43
372.378
342.495
343.484
343.897
344.842
346.585
343.686
342.734
337.33
346.245
338.248
346.235
339.503
343.672
342.791
344.487
344.83
345.468
345.012
344.875
344.965
345.15
345.088
344.371
342.881
340.167
338.878
337.057
335.906
334.59
334.148
313.206
312.83
314.335
315.512
317.119
318.331
319.493
319.899
319.914
319.227
318.758
317.526
317.328
316.121
316.426
315.765
315.889
315.119
314.776
314.567
312.481
312.877
310.804
310.625
309.637
309.174
308.717
308.05
308.175
307.941
299.108
299.517
298.997
299.314
298.678
298.834
298.182
298.248
297.573
297.597
297.11
296.819
296.76
296.197
296.293
295.831
295.715
295.534
295.249
295.267
294.822
295.005
294.531
294.682
294.38
294.359
294.231
294.189
294.096
294.128
293.265
293.334
293.256
293.286
293.218
293.224
293.174
293.173
293.138
293.118
293.117
293.083
293.089
293.062
293.064
293.045
293.048
293.031
293.035
293.024
293.021
293.02
293.012
293.013
293.009
293.008
293.008
293.005
293.005
293.004
292.999
293
293
293.001
293
292.999
293
293
293.001
293
293
293
293
293
293
293
293
293
293
293
293
293
293
292.999
292.999
292.999
293
292.999
292.999
292.999
292.999
292.999
293
293
293
292.999
293
292.999
293.001
293
293
293
293
293
293
293
293
293
293
293
293
293
293
292.999
293
292.999
293.001
292.999
292.999
293
292.999
292.999
292.999
293
293
292.999
293
292.999
293
293
293
293
293
293
293
293
293
293
293
293
293
293
293
292.999
293
292.999
293
292.999
292.999
293
292.999
292.999
292.999
293
292.999
292.999
292.999
293
293
293
293
293
293
293
293
293
293
293
293
293
293
293
293
292.999
292.999
292.999
293
292.999
292.999
292.999
292.999
292.999
292.999
293
292.999
292.999
293
292.999
293.001
293
293
293
293
293
293
293
293
293
293
293
293
293
293
292.999
293
292.999
293.001
292.999
292.999
292.999
292.998
292.999
292.999
293
293
292.999
293
292.999
293.001
293
293
293
293
293
293.001
293.001
293.001
293
293.001
293
293
293.001
292.999
293
292.999
293
293
293
292.999
292.998
292.999
292.998
292.999
292.999
292.999
292.999
293
293
293.001
293
293.001
293.001
293.001
293.001
293.001
293.001
293.001
293.001
293.001
293
293.001
293
293
292.999
293
292.998
292.999
292.999
292.998
292.999
821.968
803.929
781.528
721.049
604.189
365.086
270
270
270
270
270
270
270
348.414
312.59
270
270
270
270
270
270
270
270
270
270
270
270
270
270
270
270
270
270
270
270
270
270
270
270
339.009
363.853
366.298
367.732
369.588
343.5
345.451
345.082
346.234
346.333
346.621
349.17
351.214
352.717
356.521
346.17
350.627
342.645
346.07
344.495
345.605
345.433
345.558
344.755
344.649
344.612
344.888
344.68
343.754
341.697
340.441
336.822
335.76
335.94
330.806
310.181
313.09
314.277
314.274
316.296
317.888
319.241
319.843
319.9
319.504
318.929
318.081
317.225
316.292
316.5
315.595
315.892
315.02
314.924
314.074
313.42
312.016
312.062
309.973
310.456
308.4
309.359
307.626
308.401
307.256
298.267
299.226
300.082
299.301
299.449
298.638
298.751
298.023
298.087
297.321
297.567
296.702
296.932
296.344
296.208
296.08
295.603
295.751
295.155
295.388
294.807
295.02
294.558
294.687
294.352
294.426
294.136
294.275
294.043
294.13
293.452
293.281
293.374
293.246
293.287
293.21
293.217
293.168
293.166
293.121
293.122
293.1
293.078
293.078
293.055
293.058
293.042
293.037
293.034
293.026
293.026
293.016
293.017
293.014
293.008
293.01
293.006
293.007
293.004
293.005
293
293
293
293
292.999
292.999
293
292.999
292.999
293
293
293
293
292.999
293
292.999
293
292.999
293
293
293
292.999
292.999
293
292.999
292.999
292.999
293
292.999
292.999
292.999
292.999
292.999
293
292.999
292.999
293
292.999
292.999
293
293
293
292.999
292.999
293
292.999
292.999
292.999
293
293
293
292.999
292.999
293
292.999
292.999
292.999
293
292.999
292.999
292.999
292.999
292.999
293
292.999
292.999
292.999
292.999
292.999
293
293
293
293
292.999
293
292.999
293
293
293
293
293
292.999
292.999
293
292.999
292.999
292.999
293
292.999
292.999
292.999
292.999
293
292.999
292.999
292.999
293
292.999
292.999
293
293
293
293
293
292.999
293
293
292.999
293
293
293
292.999
292.999
293
292.999
292.999
292.999
293
292.999
292.999
292.999
293
292.999
293
292.999
292.999
293
292.999
292.999
293
293
293
293
292.999
293
292.999
292.999
292.999
293
293
293
292.999
292.999
293
292.999
292.999
292.999
293
292.999
292.999
292.999
292.999
292.999
293
292.999
292.999
292.999
292.999
292.999
293
293
293
293
293
293
293
293
293
293
293
293
292.999
292.999
293
292.999
292.999
293
292.999
292.999
292.999
292.999
292.999
292.999
292.999
292.998
293
292.999
292.999
292.999
293
293
293
293
293
293
293
293
293
293.001
293.001
293
293
293
293
292.999
293
292.999
292.998
292.998
292.999
777.985
758.936
707.812
631.929
494.902
280.847
270
270
270
270
270
270
270
270
270
270
270
270
270
270
270
270
270
270
270
270
270
270
270
270
270
270
270
270
270
270
270
270
270
270
270
270
270
348.401
356.383
355.468
342.277
356.146
353.622
352.663
350.513
347.567
346.844
346.638
348.859
348.011
357.469
354.203
357.385
349.766
353.124
345.48
347.494
345.285
345.829
345.362
345.372
344.252
344.194
344.205
344.274
344.203
342.39
341.604
335.201
336.081
329.666
329.923
312.379
317.361
312.226
311.878
314.16
314.063
316.66
317.937
319.206
319.899
319.949
319.732
319.001
318.569
316.958
317.165
315.924
315.769
315.664
314.816
315.107
313.633
314.048
311.741
312.418
309.662
310.757
307.959
308.831
306.968
305.983
305.483
302.969
302.821
300.784
301.237
300.276
300.347
299.433
299.468
298.508
298.785
297.847
297.81
297.413
297.019
296.99
296.346
296.483
295.964
295.767
295.645
295.301
295.306
294.888
295.004
294.572
294.717
294.309
294.47
294.076
294.206
293.946
293.911
293.7
293.719
293.418
293.537
293.333
293.406
293.251
293.302
293.203
293.199
293.177
293.141
293.133
293.096
293.107
293.069
293.07
293.059
293.044
293.046
293.032
293.034
293.022
293.024
293.016
293.015
293.013
293.009
293.01
293.006
293.006
293.004
293.003
293
293.002
293
293.001
293.001
293.001
293
293
293
293
293
293
293
293
293
293
293
293
293
293
293
293
293
293
292.999
293
293
293
293
292.999
293
292.998
292.998
293
292.999
293
293
293
293
293
292.999
293
293
293
293
293
293
293
293
293
293
293
293
293
292.999
293
293
293
293
293
293
292.999
293
292.998
292.998
293
292.999
293
293
293
293
293
292.999
293
293
293
293
293
293
293
293
293
293
293
293
293
292.999
293
293
293
293
293
293
292.999
293
292.998
292.998
293
292.999
293
293
293
293
293
293
292.999
293
293
293
293
293
293
293
293
293
293
293
293
293
293
293
293
293
293
293
293
293
292.998
292.998
293
292.999
293
293
293
293
293
293
293
293
293
293
293
293
293
293
293
293
293
293
293
292.999
293
293
293
293
293
293
292.999
293
292.998
292.998
293
292.999
293
293
293
293
293
292.999
293
293
293
293
293
293
293
293
293
293
293
293
293
293
292.999
293
293
293
292.999
293
292.999
293
292.998
292.998
293
292.998
293
292.999
293
292.999
293
292.999
293
293
293.001
293
293.001
293.001
293
293
293
293
293.001
293
293.001
293
293.001
292.999
293
293
293
292.999
292.999
292.999
292.996
292.997
704.752
683.16
645.913
598.813
543.068
458.2
389.146
329.562
270
270
270
270
270
270
270
270
270
270
270
270
270
270
270
270
270
270
270
270
270
270
270
270
270
270
270
270
270
270
270
270
270
270
270
270
270
332.799
337.986
334.535
336.02
331.11
331.289
328.24
327.718
333.876
336.586
346.92
347.76
356.636
356.35
360.111
353.347
354.152
346.666
347.711
345.413
345.798
345.069
344.976
343.891
343.446
343.849
343.607
343.17
339.794
336.919
335.919
326.152
328.329
319.808
314.845
316.09
315.588
313.953
315.165
317.385
318.571
319.334
319.772
319.893
319.741
319.112
318.784
316.921
317.577
315.752
315.977
315.266
314.996
314.868
313.638
314.161
311.711
312.751
309.544
310.839
307.874
308.969
306.254
307.159
304.824
305.051
302.029
302.633
300.92
301.276
299.786
300.283
299.067
298.898
298.651
297.927
298.126
297.179
297.514
296.708
296.6
296.366
295.971
296.016
295.47
295.613
295.11
295.15
294.841
294.762
294.559
294.462
294.339
294.163
294.187
293.9
294.013
293.632
293.799
293.421
293.547
293.354
293.407
293.273
293.301
293.211
293.236
293.151
293.183
293.114
293.119
293.099
293.076
293.077
293.053
293.059
293.037
293.042
293.028
293.027
293.023
293.018
293.018
293.011
293.012
293.007
293.008
293.004
293.005
293.002
293.003
293.001
293.001
293
293.001
293
293
293
293
293
293
293
293
293
293
293
293
293
293
293
293
293
293
293
293
292.999
293
293
292.999
292.999
293
292.999
292.999
293
292.999
292.999
293
293
292.999
293
293
293
292.999
293
293
293
292.999
293
293
292.999
293
293
292.999
293
293
293
293
292.999
293
293
292.999
292.999
293
292.999
292.999
293
292.999
292.999
293
293
292.999
293
293
293
292.999
293
293
293
293
293
293
293
293
293
292.999
293
293
293
293
292.999
293
293
292.999
292.999
293
292.999
292.999
293
292.999
292.999
293
293
292.999
293
293
293
293
293
293
293
293
293
293
293
293
293
293
292.999
293
293
293
292.999
293
293
292.999
292.999
293
292.999
292.999
292.999
292.999
292.999
293
293
292.999
293
293
293
292.999
293
293
293
293
293
293
292.999
293
293
292.999
293
293
293
293
292.999
293
293
292.999
292.999
293
292.999
292.999
293
292.999
292.999
293
293
292.999
293
293
293
293
293
293
293
293
293
293
293
293
293
293
293
293
293
293
292.999
293
293
292.999
292.999
292.999
292.998
292.998
292.999
292.999
292.998
293
292.999
292.999
293
293
292.999
293
293
293
293
293
292.999
292.999
292.999
292.999
293
293
293
292.999
292.999
292.999
292.999
292.998
292.998
292.998
292.999
292.998
292.998
292.998
592.208
607.379
591.479
567.598
533.481
480.763
411.301
313.087
270
270
270
270
270
270
270
270
270
270
270
270
270
270
270
270
270
270
270
270
270
270
270
270
270
270
270
270
270
270
270
270
270
270
270
270
270
270
270
270
270
270
270
270
270
270
285.819
305.42
317.715
328.64
351.773
358.559
361.797
354.489
353.975
346.096
347.469
345.29
345.675
344.501
344.586
342.793
343.498
343.296
341.812
339.331
338.957
333.07
327.064
329.432
319.467
317.159
314.923
314.965
318.429
317.283
317.725
319.233
319.159
320.045
319.871
319.726
319.289
318.339
317.263
317.443
315.636
316.334
314.943
315.239
314.414
314.017
313.664
311.992
312.656
309.718
310.814
307.768
308.936
306.132
307.114
304.69
304.998
302.279
302.94
301.067
301.419
300.148
300.269
299.232
299.47
298.361
298.511
297.93
297.455
297.424
296.765
296.924
296.163
296.388
295.74
295.689
295.489
295.179
295.207
294.785
294.913
294.472
294.587
294.26
294.281
294.06
293.997
293.92
293.698
293.776
293.443
293.588
293.381
293.431
293.311
293.318
293.235
293.246
293.178
293.183
293.135
293.135
293.093
293.103
293.065
293.069
293.055
293.044
293.043
293.032
293.032
293.023
293.025
293.015
293.017
293.011
293.01
293.008
293.006
293.004
293.004
293.003
293.001
293.002
293
293.002
293.001
293.001
293
293.001
293.001
293.001
293.001
293.001
293.001
293.001
293.001
293.001
293.001
293.001
293.001
293.001
293.001
293.001
293.001
293
293.001
293.001
293.001
293
293
292.999
293
293
292.999
293
293
293.001
293.001
293.001
293.001
293.001
293.001
293.001
293.001
293.001
293.001
293.001
293.001
293.001
293.001
293.001
293.001
293.001
293.001
293.001
293.001
293
293.001
293.001
293.001
293
293
292.999
293
293
292.999
293
293
293.001
293.001
293.001
293.001
293.001
293.001
293.001
293.001
293.001
293.001
293.001
293.001
293.001
293.001
293.001
293.001
293.001
293.001
293.001
293.001
293
293.001
293.001
293.001
293
293
293
293
293
292.999
293
293
293.001
293.001
293.001
293
293.001
293.001
293.001
293.001
293.001
293.001
293.001
293.001
293.001
293.001
293.001
293.001
293.001
293.001
293.001
293.001
293
293.001
293.001
293.001
293
293
292.999
293
293
292.999
293
293
293.001
293.001
293.001
293.001
293.001
293.001
293.001
293.001
293.001
293.001
293.001
293.001
293.001
293.001
293.001
293.001
293.001
293.001
293.001
293.001
293
293.001
293.001
293.001
293
293
292.999
293
293
292.999
293
293
293
293.001
293.001
293
293.001
293.001
293.001
293.001
293.001
293.001
293.001
293.001
293.001
293.001
293.001
293.001
293.001
293.001
293.001
293.001
293.001
293.001
293.001
293.001
293
293
292.999
292.999
292.999
292.999
292.999
293
293
293
293
293
293
293.001
293
293.001
293.001
293.001
293.001
293.001
293.001
293.001
293.001
293.001
293.001
293.001
293
293.001
293
293
292.999
292.999
293
292.999
292.999
292.999
292.997
434.683
479.694
487.605
447.156
395.499
302.949
270
270
270
270
270
270
270
270
270
270
270
270
270
270
270
270
270
270
270
270
270
270
270
270
270
270
270
270
270
270
270
270
270
270
270
270
270
270
270
270
270
270
270
270
270
270
270
270
270
270
270
270
302.955
354.419
363.104
361.809
352.115
352.96
344.962
347.067
345.288
345.64
343.823
343.055
343.122
341.271
341.325
339.012
338.485
331.136
332.157
326.876
319.743
321.327
320.217
319.148
317.651
320.089
319.061
319.655
320.276
320.002
320.148
319.446
319.554
317.774
318.315
316.571
316.168
315.925
314.908
315.244
314.088
314.463
312.941
312.684
312.142
309.913
310.858
307.714
309
305.93
307.082
304.351
305.129
302.393
303.24
300.995
301.873
300.219
300.568
299.292
299.59
298.47
298.641
297.719
297.996
297.064
297.203
296.589
296.47
296.159
295.817
295.905
295.308
295.508
294.974
294.979
294.752
294.573
294.542
294.24
294.329
294.006
294.065
293.831
293.798
293.706
293.496
293.607
293.381
293.471
293.297
293.361
293.219
293.276
293.167
293.206
293.124
293.153
293.09
293.111
293.066
293.076
293.049
293.057
293.034
293.041
293.025
293.029
293.02
293.018
293.014
293.013
293.01
293.008
293.007
293.004
293.005
293.002
293.002
293.001
293.001
293.001
293.001
293
293
293