/*--------------------------------*- C++ -*----------------------------------*\
| =========                 |                                                 |
| \\      /  F ield         | OpenFOAM: The Open Source CFD Toolbox           |
|  \\    /   O peration     | Version:  2.1.1                                 |
|   \\  /    A nd           | Web:      www.OpenFOAM.org                      |
|    \\/     M anipulation  |                                                 |
\*---------------------------------------------------------------------------*/
FoamFile
{
    version     2.0;
    format      ascii;
    class       volScalarField;
    location    "0.004050000";
    object      H2O2;
}
// * * * * * * * * * * * * * * * * * * * * * * * * * * * * * * * * * * * * * //

dimensions      [0 0 0 0 0 0 0];

internalField   nonuniform List<scalar> 
12384
(
1.7105e-06
1.39314e-06
1.27566e-06
1.26493e-06
1.29134e-06
1.23408e-06
1.27873e-06
1.19317e-06
1.62049e-06
2.26042e-06
2.70619e-06
1.67192e-06
1.03845e-06
7.89119e-07
5.78141e-07
9.72257e-07
1.18161e-06
1.32038e-06
1.35956e-06
1.38499e-06
1.44528e-06
1.4377e-06
1.40789e-06
1.44644e-06
1.43061e-06
1.44399e-06
1.41859e-06
1.42695e-06
1.42567e-06
1.41297e-06
1.41039e-06
1.41132e-06
1.36944e-06
1.30622e-06
1.16904e-06
1.01717e-06
1.00247e-06
9.86246e-07
9.40981e-07
8.21623e-07
5.92745e-07
6.19493e-07
8.40483e-07
9.57331e-07
8.3041e-07
8.15874e-07
8.23305e-07
8.18489e-07
8.19156e-07
8.1152e-07
8.10168e-07
8.07348e-07
8.06452e-07
7.97624e-07
7.74735e-07
8.01461e-07
7.6845e-07
8.40826e-07
8.27867e-07
9.01738e-07
9.66048e-07
9.79763e-07
9.49982e-07
9.24333e-07
1.01718e-06
1.11792e-06
8.67453e-07
7.17188e-07
6.0806e-07
5.592e-07
5.11496e-07
5.34527e-07
7.75294e-07
6.65133e-07
3.76485e-07
3.69787e-07
4.44382e-07
6.05388e-07
6.19829e-07
5.9787e-07
5.74424e-07
5.45754e-07
5.07356e-07
4.5081e-07
4.69705e-07
4.37242e-07
4.00623e-07
3.20676e-07
3.05303e-07
2.5679e-07
2.3981e-07
2.15636e-07
2.05895e-07
1.91398e-07
1.81819e-07
1.83038e-07
2.06567e-07
2.86269e-07
5.81898e-07
6.31235e-07
6.41879e-07
6.37319e-07
6.34909e-07
6.44654e-07
4.71549e-07
4.27204e-07
4.03124e-07
3.81772e-07
3.49175e-07
3.21331e-07
2.89865e-07
2.63359e-07
2.2123e-07
2.16672e-07
1.92301e-07
1.91108e-07
1.93847e-07
1.84845e-07
1.91461e-07
1.84251e-07
2.05687e-07
2.21745e-07
2.35556e-07
2.42773e-07
2.47013e-07
2.55846e-07
2.88899e-07
3.72194e-07
5.95956e-07
6.61291e-07
6.87334e-07
6.78993e-07
6.91489e-07
6.65466e-07
6.74189e-07
6.48347e-07
4.8984e-08
2.14702e-08
2.39744e-08
3.20188e-08
6.06118e-08
9.35909e-08
1.28887e-07
2.89289e-07
3.64019e-07
4.08826e-07
4.32243e-07
4.40871e-07
4.23289e-07
3.94322e-07
3.55495e-07
3.02648e-07
2.78216e-07
2.22793e-07
1.72317e-07
1.8368e-07
1.71995e-07
1.70422e-07
1.77043e-07
1.88809e-07
1.43617e-07
7.31701e-08
6.67776e-07
7.2573e-07
6.22965e-07
5.89488e-07
3.65393e-07
6.36458e-07
6.76124e-07
3.08298e-07
5.03405e-08
2.1849e-08
1.38486e-08
1.35269e-08
1.27653e-08
1.43596e-08
1.84096e-08
2.27097e-08
2.92736e-08
4.92341e-08
6.56247e-08
7.75532e-08
8.48886e-08
1.23377e-07
1.27243e-07
1.2872e-07
8.12447e-08
7.91732e-08
6.93286e-08
6.11824e-08
5.10063e-08
6.29585e-08
6.40257e-07
2.96055e-07
4.4985e-07
5.25392e-07
5.79906e-07
5.93477e-07
6.20919e-07
3.72393e-07
6.52409e-09
6.83878e-09
7.65468e-09
8.41914e-09
8.86857e-09
9.93973e-09
1.1263e-08
1.39785e-08
1.5624e-08
1.62383e-08
1.68149e-08
1.69243e-08
1.79027e-08
2.02235e-08
2.08711e-08
2.139e-08
3.57064e-08
3.41173e-08
5.39647e-08
6.79913e-08
8.16081e-08
9.86438e-08
1.12082e-07
6.65107e-08
2.87725e-07
2.74865e-07
3.25913e-07
4.56656e-07
2.16091e-08
9.70841e-10
4.59908e-10
2.9487e-10
2.8241e-10
2.54571e-10
2.62119e-10
2.30803e-10
1.93453e-10
2.14236e-10
2.14434e-10
2.2025e-10
2.32749e-10
2.50621e-10
2.7531e-10
3.01865e-10
3.38211e-10
4.90415e-10
6.7612e-10
2.32925e-09
2.12697e-08
6.34247e-07
4.58464e-07
3.02993e-07
3.41848e-07
4.94763e-07
6.56256e-07
8.01992e-07
8.97353e-07
8.53177e-07
7.22576e-07
9.84359e-07
1.70245e-07
8.53394e-08
6.01107e-08
7.09851e-08
7.62192e-08
7.77023e-08
8.96289e-08
8.54172e-08
1.03427e-07
1.04236e-07
1.01511e-07
1.02308e-07
1.05032e-07
1.05988e-07
1.06179e-07
1.04056e-07
1.01018e-07
1.13229e-07
1.11003e-07
1.18033e-07
1.42123e-07
2.10964e-07
2.86972e-07
3.51255e-07
4.29951e-07
6.0381e-07
7.15072e-07
1.22908e-06
1.2989e-07
8.81392e-08
7.1219e-08
6.90874e-08
5.93903e-08
5.43449e-08
2.93866e-08
3.97261e-08
2.62752e-08
2.92309e-08
2.98712e-08
3.2154e-08
3.45307e-08
4.29174e-08
4.5522e-08
4.86449e-08
4.8687e-08
4.79374e-08
5.76076e-08
6.94824e-08
7.55401e-08
1.14116e-07
2.88055e-07
4.25484e-07
5.81231e-07
1.00164e-06
2.60934e-07
3.58521e-07
1.00857e-06
2.41858e-08
2.28504e-08
2.06928e-08
1.97464e-08
1.76421e-08
1.74255e-08
1.62314e-08
1.35937e-08
1.04683e-08
1.02404e-08
6.90885e-09
6.94145e-09
5.22796e-09
4.95423e-09
4.34705e-09
4.66642e-09
5.0782e-09
5.8516e-09
1.29698e-08
7.36058e-08
8.50684e-07
5.63606e-07
4.15123e-07
3.58581e-07
3.44823e-07
3.88622e-07
5.27633e-07
3.79605e-07
5.66387e-07
5.51323e-07
5.30518e-07
4.00122e-07
4.32344e-07
3.95469e-07
4.75285e-07
4.95659e-07
6.26755e-07
7.0367e-07
8.76197e-07
9.01356e-07
1.0177e-06
9.79334e-07
1.07692e-06
1.08604e-06
1.12272e-06
1.09648e-06
1.12552e-06
1.08014e-06
1.1141e-06
1.07965e-06
9.83988e-07
7.66049e-07
5.52905e-07
4.58298e-07
4.70693e-07
5.15737e-07
6.68982e-07
5.69357e-07
6.88143e-07
9.32339e-07
1.36931e-06
1.79125e-06
1.8513e-06
1.84222e-06
1.46475e-06
9.80568e-07
9.76864e-07
1.96376e-06
2.39283e-06
1.32336e-06
9.03805e-07
6.68479e-07
1.30549e-06
1.36261e-06
1.31642e-06
1.29953e-06
1.2651e-06
1.3106e-06
1.31142e-06
1.32808e-06
1.3462e-06
1.33556e-06
1.34063e-06
1.32217e-06
1.31296e-06
1.32062e-06
1.34636e-06
1.37521e-06
1.3849e-06
1.38794e-06
1.33013e-06
1.2606e-06
1.12494e-06
1.03477e-06
9.81414e-07
1.05273e-06
9.60693e-07
7.98152e-07
6.16727e-07
8.05267e-07
1.00615e-06
7.49744e-07
7.43764e-07
7.23797e-07
6.87681e-07
7.0057e-07
6.96915e-07
6.9719e-07
7.09826e-07
7.17285e-07
7.30029e-07
7.28475e-07
7.64609e-07
7.5868e-07
8.17099e-07
7.93439e-07
8.72728e-07
9.05575e-07
9.47584e-07
9.4641e-07
9.2605e-07
9.0093e-07
9.54954e-07
1.05696e-06
9.87823e-07
7.43647e-07
6.31982e-07
4.20069e-07
5.1085e-07
7.5201e-07
6.83575e-07
3.46188e-07
6.8052e-07
8.07882e-07
6.68164e-07
5.22547e-07
3.62019e-07
3.21075e-07
3.27352e-07
3.40584e-07
4.78432e-07
5.19698e-07
5.99319e-07
6.20131e-07
6.31393e-07
6.29078e-07
6.02921e-07
5.62138e-07
4.56042e-07
3.1964e-07
2.68089e-07
2.22481e-07
1.99743e-07
2.03331e-07
2.38951e-07
4.42165e-07
5.66201e-07
4.92141e-07
4.75099e-07
5.03461e-07
5.67126e-07
2.39134e-07
2.54564e-07
3.63241e-07
3.63634e-07
3.49395e-07
3.26535e-07
3.01819e-07
2.70659e-07
2.3761e-07
1.62234e-07
1.6003e-07
1.49139e-07
1.52245e-07
1.50742e-07
1.55277e-07
1.57434e-07
1.65446e-07
1.6886e-07
1.7623e-07
1.74904e-07
2.30088e-07
2.24608e-07
2.45375e-07
2.9921e-07
4.78495e-07
6.19801e-07
6.58589e-07
5.97357e-07
6.06047e-07
6.59813e-07
7.16949e-07
2.18424e-07
2.76566e-08
2.52171e-08
5.61184e-08
1.14791e-07
3.47422e-07
6.27088e-07
7.87871e-07
8.39618e-07
8.45388e-07
7.81207e-07
6.86832e-07
5.0794e-07
4.10055e-07
3.13924e-07
1.74012e-07
1.3938e-07
1.11133e-07
9.65239e-08
7.16138e-08
5.47801e-08
7.1362e-08
8.38422e-08
9.59912e-08
1.08595e-07
1.01666e-07
8.05126e-08
2.07839e-07
6.11707e-07
1.44762e-07
4.11097e-07
3.39562e-07
5.25462e-07
2.42698e-07
2.5592e-08
8.47123e-09
5.81833e-09
6.1267e-09
9.39305e-09
1.68513e-08
3.19286e-08
8.69811e-08
3.359e-07
6.58679e-07
7.08414e-07
6.89908e-07
6.62859e-07
6.49073e-07
6.27671e-07
6.29827e-07
6.52632e-07
6.43644e-07
5.7286e-07
3.14263e-07
1.73667e-07
6.99895e-08
6.28431e-08
5.52227e-07
3.52813e-07
4.99018e-07
5.76925e-07
6.22703e-07
6.61941e-07
4.54701e-07
2.85209e-08
5.41395e-09
6.79736e-09
7.5206e-09
8.11408e-09
1.03699e-08
1.19549e-08
1.35158e-08
1.52011e-08
1.74154e-08
1.91079e-08
1.94124e-08
1.94133e-08
1.82632e-08
1.727e-08
2.23492e-08
3.67202e-08
7.55389e-08
1.14598e-07
1.65274e-07
1.56804e-07
1.14292e-07
1.15094e-07
1.56849e-07
7.76745e-08
2.84941e-07
2.74731e-07
4.12843e-07
2.02775e-07
2.81478e-09
5.45031e-10
3.18811e-10
2.76477e-10
2.64537e-10
3.08325e-10
3.38005e-10
3.36349e-10
3.11182e-10
3.24331e-10
3.30445e-10
3.36638e-10
3.45727e-10
4.33254e-10
4.75236e-10
5.2607e-10
5.77247e-10
5.49366e-10
3.43642e-10
2.51282e-10
3.1837e-10
1.38179e-09
2.79816e-08
6.44332e-07
3.71562e-07
3.90466e-07
6.98167e-07
8.34947e-07
8.29739e-07
6.94555e-07
9.3955e-07
4.67367e-07
9.09009e-08
5.50551e-08
6.0003e-08
5.83549e-08
7.58172e-08
8.81846e-08
9.41208e-08
1.19398e-07
1.19307e-07
1.22437e-07
1.18133e-07
1.10601e-07
9.71813e-08
8.6346e-08
7.36391e-08
6.3237e-08
4.96216e-08
3.94159e-08
3.14955e-08
2.87304e-08
5.45962e-08
1.67533e-07
2.72865e-07
3.30453e-07
4.84102e-07
6.95032e-07
1.01879e-06
6.50114e-07
9.31664e-08
4.89545e-08
4.38051e-08
3.74639e-08
3.96156e-08
3.10236e-08
2.38871e-08
1.47632e-08
1.29876e-08
1.14481e-08
1.28899e-08
1.4557e-08
1.62197e-08
1.76134e-08
2.22938e-08
2.75685e-08
4.00344e-08
6.02635e-08
8.36819e-08
2.16031e-07
2.79098e-07
3.45682e-07
4.261e-07
5.30113e-07
6.31247e-07
9.55994e-07
3.18505e-07
8.44334e-07
9.04463e-08
2.52878e-08
2.50249e-08
2.61711e-08
2.39805e-08
2.18009e-08
2.03754e-08
1.73664e-08
1.38776e-08
1.01955e-08
7.99022e-09
6.03899e-09
4.98362e-09
3.6512e-09
3.49312e-09
2.9566e-09
2.39629e-09
1.99041e-09
1.50927e-09
1.32729e-09
1.30216e-09
2.56343e-09
7.45646e-09
8.80675e-08
9.40806e-07
4.94007e-07
2.9296e-07
3.82289e-07
4.23825e-07
6.14432e-07
5.52328e-07
5.4101e-07
5.28499e-07
7.5365e-07
9.81664e-07
1.10663e-06
3.32848e-07
5.55881e-08
1.80883e-08
1.03605e-08
6.79823e-09
5.03511e-09
5.10681e-09
4.36638e-09
4.53208e-09
3.65691e-09
4.38065e-09
3.5886e-09
4.44284e-09
5.02373e-09
8.82066e-09
1.68614e-08
4.37568e-08
6.07476e-07
1.14328e-06
6.25995e-07
4.90525e-07
5.42406e-07
6.4439e-07
7.5874e-07
1.01266e-06
1.38789e-06
1.79422e-06
2.02107e-06
2.25055e-06
2.14814e-06
1.58326e-06
6.67658e-07
8.73626e-07
1.89498e-06
1.79728e-06
9.45715e-07
1.02991e-06
1.35333e-06
1.12866e-06
9.69267e-07
9.34343e-07
9.62251e-07
1.05313e-06
1.14747e-06
1.2065e-06
1.2444e-06
1.29614e-06
1.2822e-06
1.25007e-06
1.21818e-06
1.23276e-06
1.21846e-06
1.2621e-06
1.34295e-06
1.37589e-06
1.36064e-06
1.29555e-06
1.20059e-06
1.11344e-06
1.02056e-06
1.04245e-06
1.12269e-06
9.56337e-07
7.46537e-07
7.42218e-07
1.03318e-06
6.4499e-07
6.19455e-07
6.23335e-07
6.11094e-07
6.14197e-07
6.13535e-07
6.57469e-07
6.60107e-07
6.78173e-07
6.96925e-07
7.03074e-07
7.53393e-07
7.50493e-07
8.15867e-07
7.87603e-07
8.24975e-07
8.54873e-07
8.86118e-07
8.86475e-07
8.95136e-07
8.72694e-07
8.45756e-07
9.01712e-07
1.01815e-06
9.80103e-07
7.62746e-07
4.863e-07
4.14602e-07
6.40866e-07
6.96951e-07
8.63096e-07
7.02737e-07
2.97976e-07
9.24263e-08
5.32838e-08
4.85295e-08
4.70824e-08
5.47438e-08
7.27648e-08
7.27427e-08
1.59402e-07
2.39131e-07
3.30184e-07
5.20956e-07
6.21421e-07
6.59113e-07
6.6104e-07
6.42959e-07
5.93473e-07
4.7482e-07
3.0827e-07
2.4282e-07
2.19349e-07
2.28187e-07
2.9342e-07
4.4866e-07
4.59516e-07
4.63632e-07
4.93162e-07
5.62747e-07
4.02449e-07
5.13726e-07
5.62523e-07
6.28236e-07
5.36628e-07
4.98174e-07
4.50397e-07
4.0006e-07
3.5854e-07
3.20234e-07
2.69404e-07
2.55213e-07
1.83197e-07
1.70931e-07
1.71826e-07
1.67127e-07
1.79007e-07
1.82324e-07
1.88289e-07
1.83743e-07
1.71099e-07
1.53123e-07
1.96682e-07
2.38276e-07
3.23885e-07
5.18355e-07
6.68002e-07
6.27138e-07
5.28502e-07
6.09001e-07
7.18381e-07
6.61267e-08
2.60049e-08
4.47156e-08
1.04643e-07
3.76163e-07
7.27265e-07
7.92925e-07
7.97025e-07
7.03614e-07
4.86772e-07
3.83099e-07
2.75308e-07
1.58208e-07
1.27936e-07
9.9289e-08
7.44287e-08
7.07994e-08
6.48624e-08
6.45511e-08
5.6952e-08
5.01128e-08
5.25046e-08
5.62164e-08
6.15735e-08
7.77077e-08
9.66049e-08
8.48706e-08
8.36636e-08
2.75041e-07
4.85847e-08
2.65818e-07
2.94942e-07
2.10897e-07
2.37851e-08
5.92552e-09
4.37693e-09
5.33856e-09
1.0694e-08
2.76951e-08
1.57612e-07
5.48052e-07
7.15845e-07
6.8818e-07
6.36446e-07
6.1047e-07
5.69726e-07
5.52933e-07
5.31508e-07
5.19924e-07
5.11346e-07
5.34148e-07
5.62952e-07
6.23685e-07
6.38876e-07
4.54987e-07
1.70262e-07
6.7383e-08
2.82805e-07
4.06978e-07
5.12849e-07
6.02447e-07
6.55155e-07
2.84587e-07
3.03265e-08
8.22061e-09
5.66049e-09
6.72227e-09
7.63671e-09
8.60494e-09
9.24905e-09
8.77601e-09
8.38968e-09
8.80984e-09
1.04322e-08
1.3175e-08
2.03123e-08
2.41306e-08
1.93413e-08
1.55529e-08
1.66112e-08
2.88351e-08
1.14197e-07
4.0158e-07
5.54169e-07
3.74927e-07
1.00731e-07
9.07076e-08
1.43994e-07
8.35511e-08
2.93763e-07
3.10899e-07
6.82999e-07
6.55387e-09
8.63113e-10
4.06775e-10
3.16757e-10
3.24927e-10
4.36782e-10
5.29002e-10
6.10096e-10
6.59517e-10
6.80363e-10
6.81857e-10
6.71361e-10
6.58817e-10
6.50991e-10
6.56474e-10
6.77377e-10
8.67571e-10
1.24695e-09
2.14205e-09
2.81095e-09
1.50069e-09
3.37087e-10
1.5649e-10
6.95125e-10
1.63144e-08
6.14853e-07
3.27447e-07
7.61215e-07
8.17677e-07
6.79032e-07
6.81377e-07
1.05224e-06
1.08353e-07
5.4371e-08
5.18089e-08
5.37878e-08
7.93342e-08
9.67606e-08
1.46786e-07
1.68091e-07
1.89576e-07
2.31836e-07
2.53308e-07
2.65031e-07
2.40313e-07
1.81878e-07
1.23176e-07
9.05293e-08
5.58571e-08
3.65795e-08
2.1418e-08
1.26757e-08
1.11133e-08
3.10235e-08
1.15516e-07
2.63965e-07
2.80113e-07
5.1459e-07
7.50526e-07
1.25453e-06
2.06931e-07
5.38295e-08
4.68498e-08
3.18015e-08
5.48541e-08
6.87794e-08
7.39267e-08
6.0932e-08
3.55646e-08
1.98171e-08
1.21131e-08
9.51395e-09
9.18244e-09
1.20929e-08
1.33998e-08
1.97124e-08
4.0166e-08
1.01093e-07
3.58108e-07
7.02819e-07
7.34806e-07
6.92951e-07
7.26117e-07
8.26243e-07
9.42267e-07
8.64943e-07
9.45891e-07
4.49337e-07
5.4978e-07
3.62255e-08
2.53567e-08
3.09331e-08
3.04386e-08
2.3278e-08
2.03439e-08
1.75538e-08
1.42578e-08
1.16553e-08
8.74298e-09
6.68922e-09
4.02475e-09
3.51836e-09
2.48836e-09
2.13126e-09
1.99947e-09
2.0617e-09
2.12005e-09
2.04717e-09
1.70353e-09
1.3593e-09
8.74585e-10
7.72862e-10
1.42676e-09
1.19469e-08
8.17224e-07
4.5487e-07
2.53453e-07
4.67539e-07
6.15464e-07
5.75381e-07
6.8102e-07
9.66523e-07
1.06534e-06
5.82527e-08
1.14754e-08
3.28739e-09
1.75151e-09
1.19319e-09
9.58123e-10
1.10537e-09
1.12742e-09
1.23184e-09
1.29521e-09
1.17871e-09
1.16144e-09
1.1078e-09
1.03239e-09
1.06089e-09
1.31028e-09
2.0271e-09
3.8365e-09
7.79966e-09
1.31148e-08
3.74389e-08
1.20622e-06
6.26417e-07
4.49471e-07
5.59488e-07
8.43273e-07
1.26334e-06
1.35257e-06
1.63323e-06
1.7219e-06
2.15211e-06
2.19643e-06
2.08158e-06
8.65294e-07
5.69188e-07
1.08248e-06
2.01921e-06
1.02271e-06
1.47828e-06
1.20383e-06
9.14301e-07
7.83863e-07
7.95294e-07
8.80978e-07
1.03736e-06
1.19196e-06
1.28698e-06
1.31861e-06
1.36195e-06
1.36943e-06
1.33332e-06
1.31727e-06
1.29984e-06
1.2158e-06
1.22529e-06
1.26385e-06
1.36466e-06
1.37776e-06
1.2963e-06
1.25189e-06
1.15755e-06
1.07533e-06
1.07565e-06
1.17435e-06
1.12843e-06
8.34285e-07
7.41685e-07
1.04134e-06
5.8942e-07
5.79588e-07
5.52653e-07
5.79898e-07
5.91681e-07
6.00494e-07
6.37935e-07
6.45827e-07
6.64557e-07
6.84559e-07
7.01371e-07
7.44033e-07
7.65172e-07
8.15588e-07
7.90659e-07
8.08228e-07
7.93699e-07
8.11965e-07
8.17399e-07
8.2491e-07
8.28196e-07
8.00062e-07
7.91392e-07
8.60431e-07
9.92525e-07
9.77711e-07
6.6368e-07
4.41165e-07
5.64697e-07
7.43249e-07
7.51231e-07
1.16063e-07
4.14452e-08
3.77938e-08
4.49312e-08
5.3682e-08
6.98549e-08
7.23901e-08
7.83986e-08
7.3488e-08
8.37478e-08
1.40175e-07
1.99477e-07
2.68067e-07
4.2836e-07
5.9273e-07
6.61901e-07
6.64736e-07
6.60237e-07
6.21576e-07
4.94247e-07
3.08894e-07
2.56675e-07
2.44111e-07
2.65181e-07
3.17731e-07
4.05051e-07
4.39771e-07
4.93238e-07
5.75636e-07
7.04268e-07
8.62463e-07
8.91611e-07
8.55929e-07
7.12964e-07
5.59197e-07
4.55563e-07
3.99207e-07
3.67985e-07
3.34618e-07
3.32708e-07
3.01667e-07
2.90214e-07
2.14621e-07
2.00216e-07
1.93524e-07
1.89417e-07
1.99138e-07
1.97313e-07
1.85462e-07
1.70462e-07
1.51999e-07
1.44846e-07
2.14029e-07
2.85986e-07
4.45548e-07
6.63373e-07
6.94296e-07
5.6542e-07
5.90998e-07
5.51614e-07
4.0812e-08
2.79632e-08
8.20817e-08
3.18145e-07
6.29055e-07
6.92439e-07
6.64919e-07
3.77213e-07
2.72592e-07
1.33318e-07
1.11472e-07
8.64948e-08
5.72861e-08
4.97011e-08
4.48235e-08
4.66053e-08
5.24304e-08
5.75901e-08
6.05551e-08
6.30494e-08
5.13587e-08
5.29245e-08
5.58612e-08
5.51285e-08
5.97894e-08
7.42745e-08
8.14802e-08
7.47257e-08
1.22993e-07
2.28154e-08
2.29548e-07
2.04141e-07
3.97446e-08
7.28267e-09
3.83797e-09
4.43256e-09
8.99576e-09
2.616e-08
1.85987e-07
6.27876e-07
7.01345e-07
6.91564e-07
6.74152e-07
6.78244e-07
6.87088e-07
6.83669e-07
6.70436e-07
6.32421e-07
6.0398e-07
5.76298e-07
5.75633e-07
5.94245e-07
6.25464e-07
6.45906e-07
5.7089e-07
2.38093e-07
7.10402e-08
2.37851e-07
4.37568e-07
5.55714e-07
6.40217e-07
4.85702e-07
3.0582e-08
9.05779e-09
4.56012e-09
5.81947e-09
6.77436e-09
6.39315e-09
5.8892e-09
4.40566e-09
2.74716e-09
2.22386e-09
2.15524e-09
2.64045e-09
4.624e-09
1.03162e-08
2.30585e-08
2.95933e-08
1.63468e-08
1.22191e-08
1.69294e-08
9.70977e-08
7.07857e-07
1.00867e-06
7.65756e-07
8.27952e-08
4.72809e-08
1.03669e-07
8.30805e-08
2.90031e-07
3.67004e-07
8.62581e-08
1.50667e-09
5.23725e-10
4.0903e-10
4.41065e-10
5.56161e-10
6.8341e-10
9.18217e-10
1.02857e-09
1.05441e-09
1.04316e-09
1.01378e-09
9.89955e-10
9.65602e-10
9.35661e-10
8.68591e-10
7.03936e-10
6.76207e-10
8.72898e-10
1.45244e-09
4.96724e-09
1.07833e-08
6.12903e-09
6.95022e-10
1.95344e-10
7.06377e-10
1.35611e-07
3.49546e-07
7.80315e-07
7.29465e-07
5.8799e-07
8.11692e-07
5.45034e-07
7.98611e-08
4.87842e-08
5.13635e-08
7.34969e-08
1.01795e-07
1.44191e-07
1.44548e-07
1.67778e-07
1.9605e-07
2.71239e-07
3.92019e-07
6.39703e-07
4.58224e-07
3.48081e-07
1.78749e-07
8.75185e-08
4.15398e-08
2.15295e-08
1.04988e-08
7.7288e-09
8.87303e-09
2.89964e-08
1.62173e-07
2.57193e-07
2.17827e-07
4.55737e-07
8.04363e-07
1.09626e-06
1.4173e-07
5.69183e-08
4.2842e-08
6.82808e-08
1.23976e-07
1.80698e-07
2.77241e-07
1.94663e-07
1.47497e-07
6.19177e-08
2.03045e-08
8.86197e-09
7.39153e-09
8.9142e-09
1.10113e-08
2.37711e-08
9.34591e-08
7.02562e-07
7.11823e-07
6.17871e-07
5.58823e-07
5.74596e-07
5.62129e-07
6.81171e-07
8.54236e-07
9.26823e-07
9.41398e-07
6.24579e-07
9.84516e-08
2.84318e-08
2.64782e-08
3.33378e-08
2.74281e-08
2.12942e-08
1.96989e-08
1.69871e-08
1.47721e-08
1.14092e-08
8.76614e-09
5.93704e-09
4.15992e-09
2.74304e-09
1.96028e-09
1.61508e-09
1.65428e-09
1.72758e-09
1.91875e-09
1.99274e-09
2.08495e-09
1.84594e-09
1.33534e-09
9.51445e-10
6.25963e-10
1.02763e-09
1.1113e-08
1.0573e-06
2.37237e-07
4.79889e-07
6.32961e-07
6.75953e-07
9.88849e-07
9.74044e-07
3.31051e-08
4.32861e-09
1.5539e-09
1.21318e-09
1.17566e-09
1.3776e-09
1.68143e-09
2.11398e-09
2.63641e-09
2.72096e-09
2.63863e-09
2.17078e-09
1.55879e-09
1.07702e-09
8.10258e-10
8.67758e-10
9.40654e-10
1.33864e-09
3.92604e-09
1.8655e-08
2.97855e-08
2.17194e-08
7.85449e-08
9.89312e-07
4.14969e-07
7.03671e-07
1.33985e-06
1.71431e-06
1.80987e-06
1.88173e-06
1.87186e-06
2.11302e-06
2.14858e-06
2.12057e-06
1.06665e-06
4.89884e-07
6.96312e-07
1.70987e-06
1.1578e-06
1.51445e-06
1.15158e-06
8.31396e-07
7.33096e-07
7.74488e-07
9.24849e-07
1.14983e-06
1.3129e-06
1.37576e-06
1.39539e-06
1.32516e-06
1.24988e-06
1.28818e-06
1.37989e-06
1.40274e-06
1.25696e-06
1.25192e-06
1.2678e-06
1.358e-06
1.39059e-06
1.30222e-06
1.2267e-06
1.20468e-06
1.11341e-06
1.10639e-06
1.26869e-06
1.20116e-06
8.75829e-07
6.71463e-07
1.03555e-06
5.45329e-07
3.98831e-07
4.10161e-07
5.15331e-07
5.74348e-07
5.73866e-07
5.93444e-07
6.22814e-07
6.55569e-07
6.94297e-07
6.89934e-07
7.75553e-07
7.71122e-07
8.21295e-07
7.88191e-07
7.84894e-07
7.70221e-07
7.42618e-07
7.66386e-07
7.52982e-07
7.60425e-07
7.53405e-07
7.59052e-07
7.48703e-07
8.68772e-07
1.04816e-06
8.16057e-07
4.72024e-07
5.48871e-07
7.90226e-07
1.44642e-07
2.71252e-08
2.95592e-08
5.79344e-08
1.15066e-07
1.43132e-07
2.04928e-07
1.87384e-07
1.6847e-07
1.5746e-07
1.7106e-07
1.7842e-07
2.03206e-07
2.26995e-07
2.89765e-07
4.63722e-07
6.15133e-07
6.62512e-07
6.67099e-07
6.59375e-07
6.04554e-07
4.57324e-07
3.10329e-07
2.79896e-07
2.76254e-07
2.95411e-07
3.16507e-07
3.82475e-07
4.66016e-07
5.84387e-07
8.80805e-07
8.51716e-07
9.01075e-07
8.46876e-07
5.89108e-07
4.72739e-07
3.51354e-07
3.35937e-07
3.14491e-07
3.13574e-07
3.26165e-07
3.55521e-07
3.73037e-07
3.30716e-07
2.3611e-07
2.17939e-07
2.13206e-07
2.06628e-07
2.03821e-07
1.80643e-07
1.68626e-07
1.54738e-07
2.02625e-07
2.42874e-07
3.13366e-07
4.63232e-07
6.91958e-07
7.59718e-07
6.37458e-07
5.88666e-07
3.33304e-07
3.03928e-08
3.11836e-08
1.61787e-07
4.66679e-07
6.0168e-07
4.0724e-07
1.92729e-07
9.31829e-08
7.90646e-08
5.78491e-08
4.29013e-08
3.60621e-08
2.68898e-08
1.94487e-08
1.91784e-08
2.394e-08
3.96442e-08
5.49203e-08
6.11843e-08
5.41704e-08
5.10541e-08
4.63538e-08
4.78213e-08
4.9227e-08
5.27382e-08
5.62556e-08
7.33356e-08
6.59722e-08
1.04072e-07
1.74234e-08
8.77043e-08
7.40335e-08
1.30677e-08
4.30267e-09
3.17281e-09
5.57173e-09
1.3366e-08
6.16602e-08
3.28976e-07
6.73352e-07
7.10383e-07
7.25752e-07
7.2431e-07
6.80303e-07
6.37479e-07
6.37065e-07
6.69498e-07
6.8984e-07
6.73006e-07
6.50078e-07
6.46093e-07
6.55223e-07
6.42459e-07
5.891e-07
4.52036e-07
2.02267e-07
6.73561e-08
2.47795e-07
4.18139e-07
5.70981e-07
6.57484e-07
1.83664e-07
1.13554e-08
4.89987e-09
4.45745e-09
5.66286e-09
5.52146e-09
4.92909e-09
2.86115e-09
1.47163e-09
1.0871e-09
1.06912e-09
1.01552e-09
1.32196e-09
1.39306e-09
2.87223e-09
9.87551e-09
2.95487e-08
2.9375e-08
1.04803e-08
1.35774e-08
6.33388e-08
7.59847e-07
8.37017e-07
1.00073e-06
8.2386e-08
2.92358e-08
8.32393e-08
8.35833e-08
3.11932e-07
4.71294e-07
2.30048e-08
9.11886e-10
4.76453e-10
4.8034e-10
5.92157e-10
8.63199e-10
1.11133e-09
1.22224e-09
1.23257e-09
1.18901e-09
1.13376e-09
1.07879e-09
1.04538e-09
1.04457e-09
1.08928e-09
1.16097e-09
1.16666e-09
1.02667e-09
7.05125e-10
7.259e-10
1.95834e-09
1.16661e-08
2.63456e-08
9.74417e-09
4.50823e-10
2.53503e-10
6.57123e-09
4.48064e-07
8.06418e-07
6.77069e-07
5.52038e-07
1.00031e-06
2.4705e-07
6.75289e-08
5.13085e-08
5.45015e-08
8.89532e-08
1.32492e-07
1.34556e-07
1.45313e-07
1.21887e-07
1.49235e-07
2.33371e-07
5.28932e-07
7.72894e-07
7.49007e-07
3.79041e-07
1.54563e-07
5.48067e-08
2.03838e-08
1.06839e-08
1.3366e-08
5.13223e-08
7.61327e-08
5.42992e-08
1.62918e-07
2.03934e-07
2.16259e-07
4.62398e-07
6.63331e-07
1.00804e-06
9.71895e-08
4.5068e-08
5.42636e-08
8.90289e-08
1.50268e-07
2.93016e-07
3.0915e-07
2.86602e-07
3.01354e-07
2.11794e-07
3.9449e-08
8.07212e-09
5.89923e-09
5.88576e-09
9.60433e-09
3.36732e-08
5.44423e-07
6.6698e-07
5.67959e-07
5.41475e-07
5.24141e-07
4.96982e-07
5.04992e-07
5.49506e-07
6.49832e-07
8.04072e-07
8.5154e-07
7.47985e-07
5.0287e-08
2.29223e-08
3.05307e-08
3.18284e-08
2.38323e-08
2.34749e-08
2.32861e-08
2.62641e-08
2.08545e-08
1.35627e-08
8.89488e-09
5.77112e-09
3.83657e-09
2.41215e-09
1.82267e-09
1.65765e-09
1.74689e-09
3.32553e-09
5.61057e-09
7.13085e-09
7.10086e-09
4.78933e-09
3.28217e-09
1.87026e-09
8.44035e-10
6.441e-10
1.64217e-09
1.09873e-07
3.09096e-07
4.71115e-07
6.57549e-07
8.3127e-07
1.36072e-06
7.16623e-08
5.81255e-09
1.66647e-09
1.55438e-09
1.57306e-09
2.29449e-09
3.51403e-09
6.11056e-09
8.04372e-09
8.9413e-09
9.32224e-09
8.40301e-09
6.86552e-09
4.6243e-09
2.49536e-09
1.34932e-09
7.3621e-10
7.33504e-10
9.2488e-10
2.43218e-09
2.28898e-08
1.22637e-07
5.93051e-08
4.44796e-08
1.23703e-06
4.52186e-07
1.09559e-06
1.92633e-06
1.8867e-06
1.83355e-06
1.79713e-06
1.83543e-06
1.95241e-06
2.08152e-06
2.03215e-06
7.84082e-07
4.65662e-07
5.02185e-07
1.1577e-06
1.31861e-06
1.46256e-06
1.07243e-06
7.64353e-07
7.04256e-07
7.80447e-07
1.04131e-06
1.28983e-06
1.38583e-06
1.42179e-06
1.28295e-06
1.12777e-06
1.07571e-06
1.17594e-06
1.43846e-06
1.44285e-06
1.31104e-06
1.29051e-06
1.37328e-06
1.44619e-06
1.38345e-06
1.22166e-06
1.227e-06
1.18516e-06
1.15591e-06
1.17945e-06
1.31669e-06
1.15437e-06
7.32129e-07
5.49144e-07
9.95971e-07
5.04532e-07
2.88885e-07
2.75011e-07
4.24644e-07
5.64155e-07
5.98651e-07
5.97525e-07
6.07554e-07
6.5928e-07
6.75471e-07
6.88743e-07
7.6521e-07
7.84556e-07
7.87372e-07
7.50242e-07
7.27147e-07
7.03645e-07
7.10319e-07
7.4093e-07
7.89748e-07
7.94115e-07
7.8596e-07
7.38059e-07
7.42549e-07
7.92227e-07
9.87176e-07
9.42073e-07
5.18186e-07
5.44176e-07
8.169e-07
4.25858e-08
2.19375e-08
5.39489e-08
1.34695e-07
2.74366e-07
2.9782e-07
2.59591e-07
2.24049e-07
2.02166e-07
1.92649e-07
2.04207e-07
2.06372e-07
2.16387e-07
2.31602e-07
2.70044e-07
3.97438e-07
5.85876e-07
6.63656e-07
6.6568e-07
6.64781e-07
6.51438e-07
5.71612e-07
4.5021e-07
3.80243e-07
3.08094e-07
2.98615e-07
2.99742e-07
3.19668e-07
4.71489e-07
6.09739e-07
8.17827e-07
8.16346e-07
8.82135e-07
7.555e-07
5.39241e-07
4.35125e-07
3.49209e-07
3.50964e-07
3.04196e-07
3.43993e-07
3.63164e-07
3.87659e-07
3.66111e-07
3.55097e-07
2.94408e-07
2.2867e-07
2.13069e-07
2.00349e-07
1.87002e-07
1.82727e-07
2.29594e-07
2.43062e-07
2.74583e-07
3.31165e-07
4.00249e-07
5.83103e-07
7.54732e-07
7.98369e-07
6.53006e-07
5.906e-07
2.63139e-07
2.88498e-08
5.26565e-08
2.47978e-07
4.11611e-07
2.63757e-07
7.85791e-08
4.78602e-08
3.37203e-08
3.34338e-08
3.15709e-08
2.49711e-08
1.59682e-08
1.22777e-08
9.54089e-09
9.27356e-09
1.65317e-08
3.4886e-08
5.59393e-08
5.31822e-08
4.60753e-08
3.7351e-08
3.74233e-08
4.2375e-08
4.19428e-08
4.63733e-08
5.0831e-08
6.11907e-08
5.77111e-08
8.82767e-08
1.35726e-08
8.01067e-08
3.18433e-08
6.3432e-09
3.34839e-09
3.7072e-09
6.27763e-09
1.73531e-08
5.84217e-08
2.29137e-07
4.50155e-07
5.50978e-07
5.28019e-07
4.3977e-07
3.20605e-07
3.18942e-07
4.28502e-07
5.36618e-07
6.50608e-07
6.83702e-07
6.87841e-07
6.59422e-07
5.07231e-07
2.69447e-07
2.15025e-07
1.71678e-07
7.72099e-08
6.58348e-08
4.12629e-07
3.97497e-07
5.83611e-07
6.4619e-07
5.84691e-08
6.00438e-09
3.89388e-09
4.66026e-09
5.31963e-09
4.59487e-09
2.84104e-09
1.40896e-09
9.18941e-10
8.51176e-10
9.18749e-10
1.15876e-09
1.18833e-09
1.05254e-09
1.43096e-09
3.92259e-09
1.86117e-08
4.35721e-08
1.3922e-08
1.22778e-08
3.948e-08
7.58915e-07
6.86061e-07
9.10812e-07
9.2052e-08
2.4256e-08
7.12014e-08
7.87634e-08
2.99188e-07
5.27826e-07
1.22092e-08
6.99381e-10
5.11783e-10
5.74072e-10
7.322e-10
1.17467e-09
1.3435e-09
1.38289e-09
1.37387e-09
1.33135e-09
1.26011e-09
1.16477e-09
1.07505e-09
1.02242e-09
1.03689e-09
1.19265e-09
1.40934e-09
1.4881e-09
1.25881e-09
7.32305e-10
8.62549e-10
4.26746e-09
2.75407e-08
3.05255e-08
3.00877e-09
4.30531e-10
2.54724e-09
6.32411e-07
7.82383e-07
5.99824e-07
5.48863e-07
1.1063e-06
2.32282e-07
6.50757e-08
5.44078e-08
7.14416e-08
1.1618e-07
1.47741e-07
2.23048e-07
2.13872e-07
1.64082e-07
1.22728e-07
2.08753e-07
6.1268e-07
9.69451e-07
8.97857e-07
3.32815e-07
1.05779e-07
2.59428e-08
9.8314e-09
1.41987e-08
6.11474e-07
6.21231e-07
6.55318e-07
5.04652e-07
1.63714e-07
1.77977e-07
1.45235e-07
3.68207e-07
5.99114e-07
1.06132e-06
1.26321e-07
7.15834e-08
6.94729e-08
1.09297e-07
1.82014e-07
2.37955e-07
1.96062e-07
2.25956e-07
2.64263e-07
4.85122e-07
6.34284e-08
6.77692e-09
4.66435e-09
5.08296e-09
1.00237e-08
6.40032e-08
7.45223e-07
5.9407e-07
5.47594e-07
6.01386e-07
5.77503e-07
5.43154e-07
5.19528e-07
5.16246e-07
5.62724e-07
7.07983e-07
7.46447e-07
7.5045e-07
3.35301e-08
2.25936e-08
3.26903e-08
3.51684e-08
3.28913e-08
3.92182e-08
5.85051e-08
7.42797e-08
4.77089e-08
2.1912e-08
1.13863e-08
5.5133e-09
3.84253e-09
2.25448e-09
1.7513e-09
1.80118e-09
5.19154e-09
1.78386e-08
4.98732e-08
9.96816e-08
1.04296e-07
4.90965e-08
1.64934e-08
6.06028e-09
2.18264e-09
7.74135e-10
7.41027e-10
1.61146e-08
4.32381e-07
4.67432e-07
6.74696e-07
1.04027e-06
5.90514e-07
1.56867e-08
2.82618e-09
1.97683e-09
2.12518e-09
3.85231e-09
6.59634e-09
1.17812e-08
1.64522e-08
1.84435e-08
1.70148e-08
1.43259e-08
1.33534e-08
9.9197e-09
8.14118e-09
7.22444e-09
3.41937e-09
1.1685e-09
6.70468e-10
7.64831e-10
1.42168e-09
1.70884e-08
2.68525e-07
1.54371e-07
6.64027e-08
1.24918e-06
5.09302e-07
1.22568e-06
1.91361e-06
1.7726e-06
1.73055e-06
1.76306e-06
1.75512e-06
1.85277e-06
2.03328e-06
1.57219e-06
6.06049e-07
4.30783e-07
5.60758e-07
1.2553e-06
1.43354e-06
1.37444e-06
9.35496e-07
7.06994e-07
6.91858e-07
8.70291e-07
1.13272e-06
1.32794e-06
1.41442e-06
1.42143e-06
1.36989e-06
1.12054e-06
1.05984e-06
1.0721e-06
1.21783e-06
1.4391e-06
1.49362e-06
1.48477e-06
1.46176e-06
1.37454e-06
1.20671e-06
1.15379e-06
1.18172e-06
1.22685e-06
1.21368e-06
1.26904e-06
1.22418e-06
8.49505e-07
4.82436e-07
4.01255e-07
9.12525e-07
4.53205e-07
2.11e-07
1.80243e-07
3.93044e-07
5.91266e-07
6.23658e-07
6.3539e-07
6.36054e-07
6.65981e-07
6.69735e-07
6.9687e-07
7.03917e-07
7.36955e-07
7.16157e-07
7.01172e-07
7.00745e-07
7.90172e-07
7.13559e-07
5.44881e-07
4.70284e-07
4.04091e-07
5.14232e-07
6.92018e-07
7.8001e-07
8.27049e-07
9.1281e-07
9.55648e-07
5.27558e-07
5.66721e-07
8.16905e-07
1.93758e-08
2.49789e-08
6.94606e-08
1.47684e-07
2.91345e-07
2.79909e-07
2.50091e-07
2.24189e-07
2.15753e-07
2.71633e-07
3.05949e-07
3.29727e-07
3.33191e-07
3.1573e-07
3.30407e-07
4.65945e-07
6.24255e-07
6.63073e-07
6.71189e-07
6.64297e-07
6.56649e-07
6.20108e-07
5.7526e-07
4.92381e-07
4.14588e-07
3.17935e-07
2.90215e-07
3.28083e-07
5.34456e-07
6.40952e-07
7.70162e-07
7.82364e-07
8.38543e-07
8.00211e-07
6.86781e-07
6.03709e-07
4.61069e-07
4.2694e-07
3.31756e-07
3.16909e-07
2.94279e-07
2.9389e-07
3.03129e-07
2.65058e-07
2.16291e-07
2.00526e-07
2.01464e-07
2.53783e-07
2.71751e-07
2.81751e-07
3.1208e-07
3.43227e-07
4.09666e-07
4.62285e-07
6.29324e-07
7.55917e-07
8.27065e-07
8.09591e-07
6.44445e-07
5.82653e-07
1.99563e-07
2.87964e-08
6.87853e-08
2.29692e-07
2.02618e-07
6.1945e-08
2.84651e-08
2.78274e-08
2.5324e-08
2.68697e-08
2.68184e-08
2.43641e-08
1.4887e-08
1.03926e-08
7.52288e-09
7.60235e-09
1.24689e-08
2.92048e-08
5.30571e-08
5.04826e-08
3.50535e-08
3.37909e-08
2.99966e-08
3.16592e-08
3.92501e-08
4.17675e-08
4.51675e-08
5.34999e-08
4.74506e-08
7.8052e-08
1.36963e-08
5.47177e-08
1.92599e-08
5.55173e-09
2.94424e-09
3.88806e-09
5.93233e-09
1.13525e-08
2.29522e-08
4.4289e-08
7.29976e-08
1.54576e-07
1.94325e-07
1.92681e-07
1.92e-07
2.27972e-07
3.01773e-07
4.93666e-07
6.36005e-07
6.8244e-07
6.85151e-07
6.20336e-07
2.55623e-07
6.66349e-08
4.78917e-08
4.50442e-08
5.11904e-08
7.45003e-08
6.13588e-07
3.55804e-07
5.95662e-07
6.161e-07
3.07406e-08
4.8884e-09
3.38968e-09
4.5062e-09
4.79858e-09
3.12553e-09
1.99038e-09
1.04036e-09
7.45365e-10
8.33872e-10