/*--------------------------------*- C++ -*----------------------------------*\
| =========                 |                                                 |
| \\      /  F ield         | OpenFOAM: The Open Source CFD Toolbox           |
|  \\    /   O peration     | Version:  2.1.1                                 |
|   \\  /    A nd           | Web:      www.OpenFOAM.org                      |
|    \\/     M anipulation  |                                                 |
\*---------------------------------------------------------------------------*/
FoamFile
{
    version     2.0;
    format      ascii;
    class       volScalarField;
    location    "0.004050000";
    object      O;
}
// * * * * * * * * * * * * * * * * * * * * * * * * * * * * * * * * * * * * * //

dimensions      [0 0 0 0 0 0 0];

internalField   nonuniform List<scalar> 
12384
(
0.00195237
0.00149603
0.00132456
0.00127479
0.00131134
0.00129178
0.00136004
0.00130916
0.00171705
0.00275527
0.00254332
0.000888085
0.000281794
0.000216265
8.08745e-05
0.000229014
0.000389582
0.000487133
0.00054362
0.00058302
0.000610828
0.000628549
0.000635409
0.000668563
0.000667743
0.00068716
0.000672729
0.000687625
0.000690824
0.000692172
0.000710205
0.000739955
0.000740327
0.000663255
0.000476596
0.000334645
0.000293841
0.000296787
0.00026316
0.000186062
0.000100363
9.27993e-05
0.00019136
0.000335733
0.000264157
0.000258985
0.0002706
0.000270775
0.000269634
0.000264758
0.000260886
0.000251726
0.000248441
0.000236449
0.000228904
0.000236692
0.000218888
0.000243351
0.000236512
0.000260452
0.000282321
0.000294602
0.000265135
0.000251599
0.00031998
0.000516319
0.000534437
0.000431336
0.000343868
0.000297129
0.000261223
0.000261112
0.000278523
0.000140709
0.000103597
0.000102307
0.000143292
0.000168836
0.000179548
0.000172811
0.000163737
0.000161951
0.000146263
0.000139695
0.00013975
0.000137085
0.000119492
0.000114033
0.000107314
9.04919e-05
8.14534e-05
7.19876e-05
6.68609e-05
6.00732e-05
5.56323e-05
5.67308e-05
6.74456e-05
0.000103608
0.000185824
0.000191957
0.000193219
0.000192473
0.000192085
0.000193074
0.000176257
0.000151887
0.000132009
0.000122058
0.000114165
9.67521e-05
8.75432e-05
8.14224e-05
6.9841e-05
6.03506e-05
5.91763e-05
5.173e-05
6.09561e-05
5.5487e-05
5.08842e-05
5.40831e-05
5.73327e-05
6.58391e-05
6.32983e-05
6.44303e-05
7.26189e-05
7.92121e-05
9.90436e-05
0.000146239
0.000233911
0.000246045
0.000227695
0.000191473
0.000191379
0.000177558
0.000126733
0.000173716
1.09908e-05
4.899e-06
5.91897e-06
9.02574e-06
1.4577e-05
2.68632e-05
4.63012e-05
7.28936e-05
0.000106754
0.000133662
0.000148759
0.000147632
0.000147916
0.000133335
0.000120357
9.86243e-05
8.7953e-05
5.85662e-05
5.23525e-05
4.96902e-05
4.30988e-05
4.67318e-05
4.26105e-05
5.19103e-05
2.88136e-05
2.29894e-05
0.000216465
0.000174284
0.000186013
0.000171879
0.000119133
0.000174127
0.000189041
0.00010273
1.40928e-05
5.74654e-06
3.77576e-06
3.45953e-06
3.32258e-06
3.71242e-06
3.41197e-06
5.0852e-06
8.42762e-06
1.25771e-05
2.0527e-05
2.66966e-05
3.04292e-05
3.30049e-05
3.54454e-05
3.80741e-05
3.10178e-05
2.99423e-05
2.60638e-05
2.21643e-05
1.79341e-05
2.32074e-05
0.000175564
2.8286e-05
6.77657e-05
9.44323e-05
0.000118483
0.000126022
0.000139322
0.000128374
1.65893e-06
1.7503e-06
2.07743e-06
2.25535e-06
2.42572e-06
2.87357e-06
3.30109e-06
3.54132e-06
3.84329e-06
3.51088e-06
3.8404e-06
4.51758e-06
4.99471e-06
6.12739e-06
6.74928e-06
7.19586e-06
1.09126e-05
1.10179e-05
1.65642e-05
2.50759e-05
2.7343e-05
3.96877e-05
4.88471e-05
2.21886e-05
2.3414e-05
2.27794e-05
2.93152e-05
6.10456e-05
5.67492e-06
1.37789e-07
5.31845e-08
3.37712e-08
2.96591e-08
1.98153e-08
2.21062e-08
2.03829e-08
1.70624e-08
2.26522e-08
2.18574e-08
2.28747e-08
2.41858e-08
2.67647e-08
3.08254e-08
3.57514e-08
4.20114e-08
6.38059e-08
1.0222e-07
4.5991e-07
6.11413e-06
0.000193571
6.58291e-05
2.72409e-05
3.40234e-05
7.35784e-05
0.00011256
0.000156017
0.000184397
0.000176353
0.00011283
0.000230358
5.46475e-05
1.8976e-05
2.38004e-05
2.85603e-05
3.04459e-05
2.90084e-05
3.50565e-05
3.20351e-05
3.84214e-05
3.73509e-05
3.89104e-05
3.89776e-05
4.00542e-05
4.02385e-05
4.0264e-05
3.9034e-05
3.73721e-05
1.45466e-05
2.14082e-05
3.4297e-05
5.36158e-05
4.63011e-05
0.000100055
0.000123243
2.55786e-05
5.40915e-05
8.03469e-05
0.000313618
4.48739e-05
2.78984e-05
2.19968e-05
2.14708e-05
1.79644e-05
1.58616e-05
4.26e-06
1.09307e-05
5.42161e-06
5.61664e-06
7.10096e-06
8.18909e-06
9.31894e-06
3.96154e-06
5.14596e-06
9.34545e-06
1.11302e-05
1.34475e-05
6.12524e-06
1.50302e-05
2.18667e-05
3.18677e-05
3.25256e-05
0.000133562
0.000186483
0.000314301
8.49442e-06
1.69387e-05
0.000204319
5.89107e-06
5.78177e-06
4.87374e-06
4.66094e-06
4.06844e-06
4.01883e-06
3.64421e-06
2.98306e-06
2.1519e-06
2.12448e-06
1.10724e-06
8.17295e-07
6.83876e-07
2.9688e-07
3.29902e-07
4.55525e-07
7.8966e-07
1.16079e-06
1.2431e-06
1.46056e-05
0.000162385
6.33511e-05
3.39893e-05
2.00814e-05
1.84809e-05
2.29386e-05
4.22212e-05
1.69476e-05
3.94579e-05
4.24838e-05
4.11659e-05
2.48015e-05
2.85375e-05
2.42558e-05
3.45533e-05
3.81083e-05
5.97272e-05
7.58627e-05
0.000116431
0.000125468
0.000154818
0.000144216
0.000170347
0.000175737
0.000188327
0.000181955
0.000193098
0.000178763
0.000190025
0.000173696
0.000141418
8.489e-05
4.33376e-05
3.02597e-05
3.218e-05
3.80807e-05
6.50337e-05
0.00051358
0.000615232
0.000831749
0.00111273
0.00142528
0.00160062
0.00155716
0.00119697
0.000929576
0.000988947
0.00211765
0.00206449
0.000482671
0.000234934
9.54829e-05
0.000450036
0.000523928
0.00049412
0.000477855
0.000473545
0.000511417
0.000530583
0.000551345
0.000576972
0.00057517
0.000579149
0.000565584
0.000560182
0.000572659
0.00058537
0.000627827
0.000685891
0.000728966
0.000713168
0.000600424
0.000440737
0.000335592
0.000301875
0.000326378
0.000270747
0.000172761
0.000105186
0.000158221
0.00034396
0.00025536
0.000283274
0.000288636
0.000285304
0.000274875
0.000261167
0.000248284
0.000237642
0.000231656
0.000226539
0.00021697
0.000220589
0.000218554
0.000231893
0.000219395
0.000236915
0.000249214
0.000258835
0.000270602
0.000254181
0.000244448
0.000279479
0.000417049
0.000539385
0.000458351
0.000369892
0.000279319
0.000256077
0.000298833
0.000149689
8.75086e-05
0.00020158
0.000237718
0.000204942
0.00014753
0.00011635
0.000100344
0.000106751
0.000110924
0.000149097
0.000160558
0.000180856
0.000183074
0.00018522
0.000188718
0.000185435
0.000183473
0.000152479
0.00011836
9.47664e-05
7.41636e-05
6.39138e-05
6.58579e-05
8.21901e-05
0.000147667
0.000183774
0.000166054
0.000159386
0.000169304
0.000183457
0.000108048
0.000120521
0.000109963
0.000109335
0.000112861
0.000110339
0.00010595
8.79438e-05
7.69149e-05
7.61875e-05
7.48981e-05
6.83102e-05
6.85167e-05
6.75228e-05
7.0138e-05
7.09936e-05
7.55233e-05
7.65744e-05
8.01488e-05
7.73652e-05
6.40232e-05
6.12805e-05
7.46887e-05
0.000110309
0.000176313
0.000244636
0.000247193
0.000214736
0.000203859
0.000192312
0.000154152
5.5504e-05
7.53105e-06
6.58406e-06
1.00454e-05
3.92872e-05
0.00011034
0.000201005
0.000243458
0.000262338
0.000272941
0.000278679
0.000243291
0.000193632
0.00013988
8.66484e-05
7.07283e-05
5.43644e-05
3.80508e-05
3.07972e-05
2.20879e-05
2.22889e-05
2.24972e-05
2.9018e-05
3.3813e-05
4.19098e-05
3.77472e-05
2.65515e-05
6.10543e-05
0.000218946
4.70737e-05
0.000135567
0.000107113
0.000153201
7.66742e-05
7.29567e-06
1.8286e-06
1.33878e-06
1.41876e-06
2.14503e-06
3.57964e-06
9.53146e-06
2.88585e-05
0.000111137
0.000179658
0.00017377
0.000155696
0.000141719
0.000137082
0.000138174
0.000143312
0.000166829
0.000186883
0.000190961
0.000125148
6.08906e-05
2.64295e-05
2.30667e-05
0.000191551
4.06697e-05
8.37782e-05
0.000116438
0.000140573
0.000176539
0.000158682
9.27853e-06
1.2554e-06
1.74028e-06
1.9854e-06
2.24288e-06
2.63113e-06
3.20828e-06
3.77963e-06
4.19141e-06
5.18555e-06
5.71122e-06
5.98157e-06
5.8522e-06
5.506e-06
5.03211e-06
7.46941e-06
1.20639e-05
1.92916e-05
4.5721e-05
6.18663e-05
5.40102e-05
4.6352e-05
4.99777e-05
5.02964e-05
2.96233e-05
2.43785e-05
2.28382e-05
4.58083e-05
6.1211e-05
5.60933e-07
7.12724e-08
3.79927e-08
3.07757e-08
2.52595e-08
3.35409e-08
3.92228e-08
3.84226e-08
3.67395e-08
4.05987e-08
4.08295e-08
4.16949e-08
4.2767e-08
4.88626e-08
5.77839e-08
6.80851e-08
8.02408e-08
7.66717e-08
4.39003e-08
2.93898e-08
4.07696e-08
2.49615e-07
9.04004e-06
0.000149693
4.21262e-05
4.62787e-05
0.000125283
0.000177119
0.000162766
0.00011291
0.000216607
0.000157549
3.0115e-05
2.15056e-05
2.18847e-05
2.21584e-05
2.80488e-05
3.58667e-05
3.7275e-05
4.89309e-05
5.29786e-05
5.35886e-05
4.82134e-05
4.49145e-05
3.81873e-05
3.31476e-05
2.68674e-05
2.23096e-05
1.63628e-05
1.24275e-05
9.59119e-06
8.52048e-06
1.80872e-05
3.34861e-05
0.000100822
0.000119272
3.3456e-05
7.45697e-05
0.000173575
0.000220999
3.02066e-05
1.38811e-05
1.30153e-05
1.11261e-05
1.20858e-05
8.96402e-06
6.4533e-06
3.99083e-06
3.31253e-06
2.80052e-06
1.07341e-06
2.55407e-06
3.28326e-06
3.93675e-06
3.14675e-06
6.76043e-06
6.89397e-06
3.93066e-06
2.31675e-05
4.82006e-05
7.39877e-05
0.000101754
0.000124895
0.000153317
0.0001899
0.00029799
1.32022e-05
0.000107519
2.26601e-05
6.37366e-06
6.33401e-06
6.59e-06
5.86664e-06
5.17865e-06
4.78429e-06
3.96192e-06
3.03408e-06
2.04718e-06
1.52589e-06
9.41511e-07
2.55284e-07
6.35405e-07
4.99522e-07
3.34885e-07
3.96799e-07
2.01046e-07
2.47432e-07
1.54871e-07
1.72811e-07
3.57237e-07
1.46956e-06
1.43509e-05
0.00015866
3.76319e-05
1.34938e-05
2.22176e-05
1.9999e-05
4.75073e-05
4.30181e-05
4.31155e-05
4.26851e-05
8.4087e-05
0.000153225
0.000253544
9.11459e-05
1.40154e-05
3.97132e-06
2.10305e-06
1.29698e-06
9.24764e-07
9.54864e-07
7.67743e-07
8.05575e-07
6.4409e-07
7.98471e-07
6.34304e-07
7.9958e-07
9.49336e-07
1.86734e-06
3.92555e-06
1.17858e-05
0.000182261
0.000199249
5.71915e-05
3.5382e-05
4.29569e-05
0.000568122
0.000678613
0.000917214
0.00113325
0.00141363
0.00169538
0.00180261
0.00169402
0.0012917
0.000684065
0.000997567
0.00201487
0.000957602
0.000240881
0.0002531
0.000502014
0.000338029
0.000240095
0.00022256
0.000244788
0.000301522
0.000380014
0.000438139
0.000482048
0.000510886
0.000507581
0.000505215
0.000475317
0.000478508
0.000474494
0.00051886
0.000594713
0.000691695
0.000728865
0.000681527
0.000537303
0.000401776
0.000321233
0.000338335
0.000370666
0.000280431
0.000144294
0.000139684
0.00033698
0.000271213
0.000273762
0.000280202
0.000276483
0.000269201
0.000254172
0.000243946
0.000219864
0.000214664
0.000216344
0.000216419
0.000230583
0.000222032
0.000236956
0.000220221
0.000216799
0.00022299
0.000225371
0.000234579
0.000237108
0.000222524
0.000213566
0.00024805
0.000382727
0.000541279
0.000479707
0.000347119
0.000276551
0.00028856
0.000160086
0.000256399
0.000220529
6.32593e-05
1.99061e-05
1.74601e-05
1.50835e-05
1.52746e-05
1.13032e-05
2.17287e-05
2.42645e-05
3.29561e-05
7.70641e-05
0.000116648
0.000168983
0.000186099
0.000193336
0.000194871
0.000193661
0.000187291
0.000159437
0.000112831
8.39326e-05
7.3622e-05
7.75929e-05
0.000106705
0.000150166
0.000154413
0.00015603
0.000166264
0.000183652
0.000135812
0.000206596
0.000237499
0.000243396
0.000234934
0.00022235
0.000200942
0.00017512
0.000152309
0.000136944
0.000105703
9.88408e-05
9.08232e-05
8.2793e-05
8.03569e-05
7.98195e-05
8.44243e-05
8.52246e-05
8.69018e-05
8.42872e-05
7.65406e-05
6.50868e-05
5.53497e-05
7.69707e-05
0.000122238
0.000198503
0.000255514
0.000233003
0.000193246
0.00019352
0.000184421
1.90127e-05
6.87155e-06
6.89933e-06
3.70625e-05
0.000130088
0.000210262
0.000225442
0.000238344
0.000238573
0.000183547
0.000122745
6.48505e-05
5.76036e-05
3.99337e-05
2.30442e-05
2.88466e-05
2.76217e-05
2.6364e-05
2.56771e-05
2.28594e-05
1.9075e-05
2.09237e-05
2.28826e-05
2.54022e-05
2.31083e-05
3.59714e-05
2.96636e-05
2.87913e-05
9.25238e-05
1.23989e-05
6.23216e-05
8.61006e-05
5.67287e-05
6.65879e-06
1.36256e-06
9.00967e-07
1.197e-06
2.65707e-06
8.2624e-06
3.53451e-05
0.00016607
0.000170852
0.000133338
0.000112629
9.95304e-05
9.4068e-05
8.97553e-05
8.54056e-05
8.28313e-05
8.58704e-05
9.48158e-05
0.000112934
0.000144575
0.000189181
0.00016446
6.06283e-05
2.51206e-05
0.000111169
5.47713e-05
9.01321e-05
0.000131589
0.000180764
0.00010661
1.01223e-05
2.03502e-06
1.35264e-06
1.7709e-06
2.0274e-06
1.93631e-06
2.34743e-06
2.14893e-06
1.95216e-06
2.05397e-06
2.59978e-06
3.59401e-06
5.27159e-06
6.63608e-06
4.49314e-06
4.32705e-06
4.63044e-06
8.51168e-06
4.31017e-05
0.000168007
0.000241684
0.000124165
3.80668e-05
3.06888e-05
3.47088e-05
3.14961e-05
2.6017e-05
2.7512e-05
0.000176652
1.59514e-06
1.15508e-07
4.5425e-08
3.79727e-08
3.92975e-08
4.90951e-08
6.63531e-08
8.02514e-08
9.17661e-08
9.78006e-08
1.01218e-07
9.82467e-08
9.58944e-08
9.27201e-08
9.38561e-08
9.76546e-08
1.17022e-07
2.11068e-07
3.89257e-07
5.86548e-07
2.7634e-07
4.3818e-08
1.67116e-08
1.08966e-07
4.26132e-06
0.000132777
3.10423e-05
0.000132673
0.000161553
0.000106711
0.000107027
0.000341889
4.40776e-05
2.05089e-05
2.004e-05
2.13275e-05
3.57315e-05
4.96349e-05
5.07909e-05
6.17213e-05
8.66856e-05
0.000110286
0.000124517
0.000130249
0.000103171
7.86884e-05
4.98768e-05
3.47651e-05
1.91447e-05
8.66094e-06
2.87476e-06
3.24196e-06
1.08696e-06
8.01507e-06
4.55112e-05
0.000108191
0.00010439
3.87505e-05
8.92436e-05
0.00030306
5.45525e-05
1.75917e-05
1.19082e-05
9.70491e-06
1.83672e-05
1.55825e-05
2.60276e-05
1.70289e-05
1.08357e-05
3.14739e-06
2.54277e-06
1.86576e-06
1.87057e-06
1.83669e-06
1.8946e-06
1.77787e-06
7.12051e-06
2.81776e-05
0.000103365
0.000175967
0.000166924
0.000151604
0.000153868
0.000182881
0.000231437
0.000230359
0.000278245
2.71654e-05
0.000135422
9.2202e-06
6.31391e-06
7.97968e-06
7.81496e-06
5.60671e-06
4.80574e-06
4.09956e-06
3.23364e-06
2.49064e-06
1.75567e-06
1.24506e-06
7.53318e-07
5.68962e-07
2.13769e-07
3.17287e-07
2.89922e-07
2.67963e-07
2.32511e-07
1.31025e-07
2.2716e-07
1.19179e-07
7.84094e-08
7.6812e-08
1.69895e-07
2.41989e-06
0.000205582
3.24935e-05
1.01206e-05
2.54344e-05
5.2131e-05
4.76796e-05
6.80412e-05
0.000142286
0.000286925
1.51119e-05
2.38329e-06
5.48172e-07
2.67113e-07
1.68397e-07
1.29377e-07
1.59647e-07
1.64826e-07
1.83884e-07
1.98367e-07
1.6728e-07
1.71872e-07
1.59522e-07
1.43393e-07
1.5199e-07
1.97893e-07
3.32917e-07
7.11773e-07
1.68913e-06
3.12855e-06
9.34168e-06
0.000309553
5.71713e-05
2.9621e-05
0.000493233
0.00074575
0.000926984
0.00113619
0.0012378
0.00140794
0.00171605
0.00170043
0.00169107
0.000857262
0.000627113
0.00122594
0.00145606
0.00027312
0.000615584
0.000383936
0.000210983
0.000150956
0.000151975
0.000196043
0.000297845
0.000423603
0.000503987
0.000567365
0.000628661
0.000663171
0.000653464
0.000623677
0.000546975
0.000479972
0.000481299
0.00053209
0.000643499
0.000735882
0.000715409
0.000630315
0.000477205
0.000368913
0.000351168
0.000431986
0.000387644
0.000192629
0.000131243
0.000326017
0.000259945
0.000256471
0.000246993
0.00026593
0.000268164
0.000252683
0.00023648
0.000207032
0.00019746
0.000202163
0.00021042
0.000229459
0.000231719
0.000236512
0.0002202
0.000208883
0.000194296
0.000201545
0.000197851
0.00019917
0.000196773
0.00018615
0.000187027
0.000240789
0.000384037
0.000564775
0.000414047
0.00030444
0.000295708
0.000185404
0.000242986
3.33251e-05
8.2395e-06
7.08895e-06
1.13719e-05
1.77668e-05
1.55282e-05
1.98776e-05
2.42069e-05
2.31255e-05
2.87952e-05
2.7438e-05
6.11333e-05
9.0882e-05
0.000138856
0.000185106
0.000193206
0.000189079
0.000190369
0.000191477
0.000168105
0.000114242
9.07968e-05
8.46871e-05
9.40871e-05
0.000117666
0.000133722
0.000145273
0.00016394
0.000182968
0.000263649
0.000291388
0.000299746
0.000323562
0.000304211
0.000274376
0.00021867
0.000190301
0.000173935
0.000151063
0.000156245
0.000130251
0.000121194
0.000112137
0.000101447
9.60377e-05
9.21322e-05
9.71744e-05
9.25249e-05
8.40927e-05
7.49555e-05
6.63103e-05
6.23389e-05
6.22836e-05
0.00010421
0.000163567
0.000252596
0.000257654
0.000213673
0.000194099
0.000165683
8.29614e-06
7.8862e-06
2.57035e-05
0.000104399
0.000177766
0.000192297
0.000197788
0.000132639
7.90882e-05
5.02467e-05
3.61438e-05
2.26282e-05
2.01745e-05
1.63143e-05
1.41449e-05
1.46178e-05
1.777e-05
2.21332e-05
2.50647e-05
2.59795e-05
2.04118e-05
2.06794e-05
2.28538e-05
2.03881e-05
2.3322e-05
2.23747e-05
2.76968e-05
2.44975e-05
4.88432e-05
6.03069e-06
4.48962e-05
5.0709e-05
8.82972e-06
1.04559e-06
7.39812e-07
9.12088e-07
2.11185e-06
7.67129e-06
5.26625e-05
0.000180193
0.000163419
0.000131009
0.000132136
0.000135796
0.000138471
0.000144027
0.000139697
0.000129656
0.000116831
0.000108242
0.000112105
0.000128951
0.000147694
0.000181176
0.000193577
9.07882e-05
2.67804e-05
8.99913e-05
6.39188e-05
0.000104315
0.000160005
0.000169849
1.02463e-05
2.34549e-06
9.63396e-07
1.44068e-06
1.73334e-06
1.63922e-06
1.46751e-06
9.87996e-07
5.79782e-07
4.27773e-07
4.01634e-07
5.33069e-07
9.84217e-07
2.59179e-06
6.73707e-06
9.30688e-06
3.49806e-06
3.1666e-06
5.21508e-06
3.40869e-05
0.000248091
0.000338206
0.000319629
2.85574e-05
1.56369e-05
4.24606e-05
3.33286e-05
2.55507e-05
3.86964e-05
3.06391e-05
2.70628e-07
6.92069e-08
4.66315e-08
5.32723e-08
7.52952e-08
1.00152e-07
1.22914e-07
1.46917e-07
1.53129e-07
1.53294e-07
1.52328e-07
1.47949e-07
1.39415e-07
1.33084e-07
1.15318e-07
1.04561e-07
1.00416e-07
1.21308e-07
2.61262e-07
1.14327e-06
2.85047e-06
1.53938e-06
1.08721e-07
2.10883e-08
1.11367e-07
3.98178e-05
3.65217e-05
0.000140041
0.000129465
7.89201e-05
0.000146715
0.000193208
2.35552e-05
1.78079e-05
2.11175e-05
3.43354e-05
4.50037e-05
6.75575e-05
6.83578e-05
7.98548e-05
9.39524e-05
8.02864e-05
0.000173191
0.000194485
0.000217897
0.000116049
5.96763e-05
3.28061e-05
1.21738e-05
3.83715e-06
5.79865e-07
9.91254e-07
1.82431e-06
3.64467e-06
3.99007e-05
9.72953e-05
7.56594e-05
3.1365e-05
0.000104302
0.000313667
1.24099e-05
1.79397e-05
8.57718e-06
2.25872e-05
3.93158e-05
7.16623e-05
9.32039e-05
8.09534e-05
5.98281e-05
1.89859e-05
4.37493e-06
1.63863e-06
1.57523e-06
8.22236e-07
1.40422e-06
5.59327e-06
2.59775e-05
0.00016826
0.000136275
0.000100888
8.88229e-05
9.16301e-05
8.98571e-05
0.00011242
0.000162192
0.000217825
0.000247545
5.49286e-05
2.57162e-05
7.10565e-06
6.59208e-06
8.75435e-06
7.01731e-06
5.24596e-06
4.85308e-06
1.77547e-06
3.45678e-06
2.44962e-06
1.80522e-06
4.63674e-07
7.285e-07
1.96416e-07
2.66812e-07
1.64986e-07
1.91594e-07
1.5648e-07
1.47111e-07
1.88431e-07
1.37492e-07
2.73192e-07
1.11671e-07
1.02732e-07
7.74545e-08
1.42336e-07
2.29382e-06
0.000200402
9.20566e-06
2.77853e-05
5.67268e-05
6.71047e-05
0.000143356
0.000285789
8.258e-06
7.72542e-07
2.29016e-07
1.78237e-07
1.72729e-07
2.09016e-07
2.74416e-07
3.61848e-07
4.7819e-07
4.9042e-07
4.77592e-07
3.70746e-07
2.49929e-07
1.4803e-07
1.01425e-07
1.13175e-07
1.31832e-07
2.02165e-07
7.46813e-07
4.75172e-06
8.14132e-06
5.67241e-06
2.21112e-05
0.000142691
2.62817e-05
0.000606054
0.00111367
0.00125715
0.00121953
0.00121198
0.00125346
0.00149801
0.00158512
0.00170182
0.000900762
0.000492872
0.000701412
0.00156841
0.000376161
0.000654721
0.000345087
0.000176691
0.000125049
0.00013736
0.00022149
0.000381909
0.000532228
0.00063928
0.000725941
0.000772577
0.000803374
0.000845229
0.000810722
0.000688764
0.00052264
0.00049855
0.000531
0.000634825
0.000753532
0.000758382
0.000663144
0.000534327
0.000391331
0.000387758
0.000487955
0.000430307
0.00021448
0.00011753
0.00031744
0.00023542
0.000174828
0.000185016
0.000228194
0.000260824
0.000248248
0.000233472
0.000199066
0.000191419
0.000197239
0.000199173
0.00023536
0.000231193
0.000236678
0.000215944
0.000195769
0.000174656
0.000165416
0.000168036
0.000160166
0.000164284
0.000161742
0.000166
0.00017147
0.000249411
0.000468934
0.000537376
0.000339596
0.000293831
0.000205868
4.88579e-05
8.0695e-06
9.12073e-06
1.75159e-05
3.59247e-05
5.51608e-05
4.29891e-05
4.11188e-05
3.61478e-05
4.12096e-05
4.55318e-05
5.30162e-05
5.85968e-05
7.496e-05
0.000102983
0.000153627
0.000188645
0.000187421
0.000183157
0.000189423
0.000189077
0.000154557
0.000114821
0.000100968
9.89775e-05
0.000107047
0.000116124
0.000124525
0.000153503
0.000184161
0.000267003
0.00023063
0.000286316
0.000336216
0.0002895
0.000227418
0.000153264
0.000140549
0.000138497
0.000149381
0.000159456
0.000179732
0.00017918
0.000152298
0.000128299
0.000113394
0.000107744
0.000103994
9.79585e-05
8.47463e-05
7.74106e-05
6.85409e-05
6.0035e-05
8.22912e-05
0.000116881
0.000173382
0.000262407
0.000278463
0.000236424
0.000196522
0.000111718
9.02507e-06
9.41046e-06
3.79903e-05
0.000138097
0.000174652
0.00011944
4.63583e-05
3.18222e-05
2.38478e-05
1.05688e-05
1.35415e-05
1.0302e-05
5.8632e-06
5.59287e-06
5.24217e-06
7.4758e-06
1.19687e-05
2.0838e-05
2.5527e-05
2.17188e-05
2.02212e-05
1.76836e-05
1.77782e-05
1.72846e-05
1.99697e-05
2.18154e-05
2.46408e-05
2.0236e-05
3.90483e-05
3.46157e-06
2.68193e-05
2.3411e-05
3.18475e-06
8.80676e-07
6.63485e-07
1.30926e-06
3.71718e-06
1.98554e-05
0.000115989
0.000187237
0.000169923
0.000167534
0.000182134
0.000180824
0.000177873
0.000179867
0.000186215
0.000179371
0.000159754
0.000146724
0.000155052
0.000182901
0.000197202
0.000194782
0.000162094
7.35346e-05
2.49806e-05
9.42103e-05
5.75329e-05
0.000113404
0.000178125
6.2177e-05
3.19388e-06
1.15969e-06
9.0079e-07
1.3604e-06
1.29818e-06
1.16475e-06
6.27047e-07
2.80164e-07
1.85951e-07
1.78074e-07
1.42804e-07
2.22354e-07
2.50333e-07
6.14364e-07
2.51584e-06
9.4473e-06
9.48575e-06
2.6153e-06
3.74457e-06
1.73969e-05
0.000245781
0.000213524
0.00033944
2.99996e-05
1.01209e-05
2.839e-05
3.16254e-05
2.92258e-05
6.51717e-05
6.54312e-06
1.29856e-07
6.13252e-08
6.13954e-08
8.40843e-08
1.22039e-07
1.76734e-07
2.01123e-07
2.01228e-07
1.87245e-07
1.75892e-07
1.67519e-07
1.5921e-07
1.60355e-07
1.6812e-07
1.87424e-07
1.92739e-07
1.57746e-07
1.07205e-07
1.1207e-07
3.48884e-07
3.22726e-06
8.39782e-06
2.55135e-06
6.11316e-08
3.09326e-08
1.69733e-06
6.46437e-05
0.000140278
9.84827e-05
6.44377e-05
0.000235794
0.000101524
1.98996e-05
2.00578e-05
2.37728e-05
3.51675e-05
6.48552e-05
7.09147e-05
7.63298e-05
5.69301e-05
7.00444e-05
7.15595e-05
0.000180048
0.00033322
0.000313525
0.000166229
5.40361e-05
1.2336e-05
4.13694e-06
1.95477e-06
2.18305e-06
8.10136e-06
2.03971e-05
1.17254e-05
5.62252e-05
7.63483e-05
7.34997e-05
3.20646e-05
8.4876e-05
0.000293272
3.27568e-05
1.48362e-05
1.88781e-05
2.76144e-05
6.66125e-05
0.000136053
0.000118434
0.000121888
0.000122639
7.28475e-05
9.72563e-06
1.61391e-06
1.12358e-06
1.2102e-06
1.65865e-06
7.50769e-06
0.00014284
0.000117748
8.59494e-05
8.39919e-05
8.81567e-05
8.46463e-05
7.92718e-05
8.09744e-05
0.000110002
0.000162725
0.000216961
8.4387e-05
1.26363e-05
5.47281e-06
7.94945e-06
4.36858e-06
6.5596e-06
5.80635e-06
6.02086e-06
6.63973e-06
4.53995e-06
3.24782e-06
1.69806e-06
1.15941e-06
4.99323e-07
4.20673e-07
2.36701e-07
1.90156e-07
1.47857e-07
4.45909e-07
5.7874e-07
1.20412e-06
1.22466e-06
8.92529e-07
5.71356e-07
2.1797e-07
2.65663e-08
8.25571e-08
2.44715e-07
3.0585e-05
1.50958e-05
2.77534e-05
5.93967e-05
9.99027e-05
0.000314606
2.01239e-05
1.04107e-06
2.54201e-07
2.38878e-07
2.48586e-07
3.88535e-07
6.64273e-07
1.32555e-06
1.83717e-06
2.09921e-06
2.19323e-06
1.93454e-06
1.49882e-06
9.4175e-07
4.50733e-07
2.11293e-07
9.77097e-08
9.69072e-08
1.27617e-07
4.11123e-07
5.97754e-06
4.04764e-05
1.80306e-05
1.28477e-05
0.000331802
3.10196e-05
0.000777612
0.00127728
0.00105247
0.000958843
0.00093285
0.000974776
0.00113292
0.00139551
0.00162639
0.000701806
0.000432171
0.000508214
0.00106874
0.000512003
0.000592935
0.000309257
0.000146714
0.000112729
0.000158329
0.00029483
0.000475103
0.000630045
0.000724952
0.000775447
0.000776263
0.000752542
0.00085803
0.00092402
0.000762025
0.000591113
0.000556563
0.000621172
0.000759982
0.000835144
0.000776477
0.000693676
0.000532141
0.000424967
0.000453809
0.000546932
0.000416865
0.000153973
7.80564e-05
0.000273526
0.000203251
0.000110939
0.000105585
0.000198697
0.000258298
0.000262345
0.00023978
0.000201877
0.000188252
0.00017959
0.000186679
0.000221198
0.000219101
0.000214131
0.000181763
0.000165418
0.000147684
0.000149474
0.000167498
0.000184969
0.000193216
0.000192313
0.000169275
0.000173201
0.000208049
0.000365457
0.000560763
0.000376471
0.00029584
0.000225439
1.019e-05
5.18419e-06
1.54039e-05
4.37101e-05
6.75485e-05
8.76272e-05
7.77813e-05
6.68489e-05
5.30253e-05
5.95152e-05
5.93674e-05
6.50285e-05
7.28088e-05
7.48089e-05
9.59241e-05
0.000130053
0.000186257
0.000189167
0.000179158
0.00018178
0.000197299
0.000185909
0.000151738
0.000127006
0.00011278
0.000107885
0.000107611
0.000115022
0.000153056
0.000191792
0.000197457
0.00019853
0.000284011
0.000312408
0.000251121
0.0002002
0.00015393
0.000149675
0.00014249
0.000162298
0.000180656
0.000199329
0.000178155
0.000164523
0.000123168
0.000120857
0.000109314
9.93644e-05
8.9605e-05
8.68339e-05
6.96357e-05
8.1398e-05
9.76942e-05
0.000130465
0.00017009
0.000230356
0.000279048
0.00028639
0.000239684
0.000196381
8.50053e-05
8.56088e-06
1.4316e-05
7.6415e-05
0.0001239
8.3824e-05
2.58072e-05
1.07609e-05
1.03903e-05
9.90886e-06
9.24121e-06
6.27658e-06
4.39421e-06
2.95557e-06
1.94681e-06
2.48091e-06
4.37499e-06
9.47261e-06
2.14822e-05
2.13023e-05
1.72767e-05
1.35844e-05
1.30612e-05
1.56782e-05
1.42672e-05
1.77238e-05
1.99312e-05
1.83753e-05
1.7787e-05
3.2763e-05
2.13444e-06
2.49609e-05
8.94448e-06
1.51144e-06
6.86366e-07
7.12774e-07
1.5207e-06
4.30904e-06
1.86703e-05
7.34111e-05
0.000135784
0.00017105
0.000158886
0.000125499
0.000105174
0.000105108
0.000124378
0.000166275
0.0001855
0.0001798
0.00017081
0.000188645
0.000173668
0.000100749
7.88122e-05
5.98696e-05
2.9165e-05
2.39713e-05
0.000147172
4.94849e-05
0.000120368
0.00019244
2.02044e-05
1.51962e-06
8.33345e-07
9.99958e-07
1.21657e-06
1.06095e-06
6.2039e-07
2.64453e-07
1.49924e-07
1.45085e-07
1.64852e-07
2.15729e-07
1.9179e-07
1.73492e-07
2.64868e-07
8.26678e-07
5.23768e-06
1.27698e-05
4.02292e-06
3.38098e-06
1.346e-05
0.000242294
0.00013817
0.000239317
3.73894e-05
7.82961e-06
1.9742e-05
3.03847e-05
2.71214e-05
8.42089e-05
3.29241e-06
1.05224e-07
6.80016e-08
8.17289e-08
1.12627e-07
1.96714e-07
2.38126e-07
2.43854e-07
2.36788e-07
2.24082e-07
2.07997e-07
1.85193e-07
1.68002e-07
1.54139e-07
1.60567e-07
2.01344e-07
2.50015e-07
2.71081e-07
2.18658e-07
1.1315e-07
1.27986e-07
9.43509e-07
8.8044e-06
1.01932e-05
6.65734e-07
5.81645e-08
5.38117e-07
0.000138841
0.000145663
8.36861e-05
6.24319e-05
0.000296827
8.75067e-05
1.50508e-05
2.25158e-05
2.70978e-05
5.80441e-05
8.24233e-05
0.000107482
0.00010714
8.76616e-05
5.78626e-05
8.43941e-05
0.00026056
0.000399216
0.000357965
0.000147001
2.64867e-05
6.83423e-06
1.20153e-06
3.07393e-06
0.000151363
9.08698e-05
0.000100205
0.000131037
5.93128e-05
6.24376e-05
4.96201e-05
2.83683e-05
7.61062e-05
0.000279304
2.23977e-05
1.52519e-05
2.10613e-05
4.10356e-05
5.82542e-05
8.08527e-05
7.1368e-05
6.66656e-05
0.00011078
0.000145497
1.74457e-05
1.3027e-06
8.90634e-07
1.03386e-06
2.10455e-06
1.57482e-05
0.000162779
8.86177e-05
8.52731e-05
0.000107051
0.000105498
9.8207e-05
9.16828e-05
7.7278e-05
8.2797e-05
0.000127198
0.000174678
9.22672e-05
7.96887e-06
1.76895e-06
6.41244e-06
7.13165e-06
4.73691e-06
1.00028e-05
1.85159e-05
1.55371e-05
1.29946e-05
6.04763e-06
2.59375e-06
1.10065e-06
5.28724e-07
3.81095e-07
1.53966e-07
1.63831e-07
3.94791e-07
1.33654e-06
1.09766e-05
1.96955e-05
2.19729e-05
1.06199e-05
3.68368e-06
1.27623e-06
3.52415e-07
1.00882e-07
9.45938e-08
3.58449e-06
2.92138e-05
2.81071e-05
6.66926e-05
0.00016303
0.000183661
3.64131e-06
4.91525e-07
3.26303e-07
3.55556e-07
7.42812e-07
1.42243e-06
2.87876e-06
4.38732e-06
5.00085e-06
4.41808e-06
3.67169e-06
3.38767e-06
2.36362e-06
1.84348e-06
1.63396e-06
6.45728e-07
1.7218e-07
8.67613e-08
9.9021e-08
2.07627e-07
4.21202e-06
9.31421e-05
5.28064e-05
1.9925e-05
0.000312331
3.86715e-05
0.00101265
0.00106324
0.000871059
0.000860487
0.000891741
0.000896866
0.000998501
0.00135234
0.00131429
0.000541833
0.000408202
0.000517221
0.000931491
0.000638759
0.000512771
0.000235377
0.000123468
0.000119777
0.000200438
0.000353545
0.00051093
0.000640179
0.000715199
0.000790135
0.000769371
0.000737872
0.000773648
0.000896822
0.000912159
0.00085109
0.000832694
0.000860354
0.000884947
0.000797114
0.000731283
0.000638982
0.000524631
0.000474299
0.000532042
0.000462705
0.000205591
6.3941e-05
4.22427e-05
0.000216889
0.000171627
7.39036e-05
6.07561e-05
0.000174309
0.000271001
0.000274665
0.000248102
0.000214421
0.000188249
0.000175042
0.000178254
0.000174788
0.000179628
0.000156753
0.00015082
0.000148615
0.000206469
0.000223952
0.000183546
0.000153449
0.000154178
0.000178747
0.000239642
0.000243788
0.000250127
0.000334964
0.000537075
0.00038906
0.000317517
0.000230163
4.76774e-06
6.94163e-06
2.44644e-05
5.48985e-05
8.47556e-05
8.3117e-05
7.3463e-05
6.82056e-05
6.16914e-05
9.54326e-05
0.000114485
0.000125856
0.000125908
0.000119271
0.000124201
0.000158528
0.000196147
0.000184199
0.000173556
0.000176433
0.000188545
0.000193799
0.000185479
0.000167321
0.000137099
0.00011565
0.000101582
0.000120256
0.000178278
0.000209042
0.000157456
0.000181305
0.0002504
0.000280333
0.000277555
0.000252223
0.000215061
0.000198095
0.000152456
0.000138148
0.000134058
0.000134784
0.000134352
0.000111866
0.000112443
0.000101774
0.00010007
9.10205e-05
9.8368e-05
0.000109279
0.00012642
0.000140617
0.000179901
0.000208759
0.00026126
0.000290765
0.000293468
0.000278403
0.000231919
0.000189396
5.84666e-05
8.84616e-06
2.28464e-05
7.32037e-05
6.11626e-05
1.97755e-05
8.67375e-06
8.18432e-06
6.89743e-06
8.01172e-06
7.43286e-06
6.44452e-06
4.08749e-06
2.12237e-06
1.85824e-06
1.848e-06
2.49882e-06
1.03467e-05
2.06933e-05
1.93146e-05
1.13298e-05
1.14704e-05
1.16348e-05
1.27526e-05
1.3886e-05
1.55864e-05
1.71151e-05
1.56336e-05
1.2762e-05
2.61102e-05
3.23416e-06
1.31378e-05
4.58444e-06
1.0952e-06
6.08325e-07
7.43527e-07
1.43692e-06
2.99385e-06
6.72538e-06
1.15258e-05
2.41168e-05
3.51779e-05
5.1326e-05
4.92176e-05
4.86598e-05
6.49847e-05
9.88852e-05
0.000150231
0.000183192
0.000185828
0.000179747
0.00018925
9.11585e-05
2.37994e-05
1.52732e-05
1.45306e-05
1.74843e-05
2.79037e-05
0.00019603
4.00804e-05
0.000127644
0.00019536
1.03216e-05
1.15964e-06
7.64579e-07
9.54253e-07
1.02519e-06
6.91738e-07
3.85434e-07
1.77123e-07
1.22766e-07
1.45308e-07
2.03344e-07
2.00866e-07
1.5285e-07
1.88976e-07
2.25015e-07
5.02109e-07
2.56994e-06