/*--------------------------------*- C++ -*----------------------------------*\
| =========                 |                                                 |
| \\      /  F ield         | OpenFOAM: The Open Source CFD Toolbox           |
|  \\    /   O peration     | Version:  2.1.1                                 |
|   \\  /    A nd           | Web:      www.OpenFOAM.org                      |
|    \\/     M anipulation  |                                                 |
\*---------------------------------------------------------------------------*/
FoamFile
{
    version     2.0;
    format      ascii;
    class       volScalarField;
    location    "0.004050000";
    object      omegaC_burn;
}
// * * * * * * * * * * * * * * * * * * * * * * * * * * * * * * * * * * * * * //

dimensions      [1 -3 -1 0 0 0 0];

internalField   nonuniform List<scalar> 
12384
(
103820
222456
260180
288682
292427
279800
250653
219773
195087
158191
121068
91346.8
90699
70859
206110
371891
516736
611509
671103
718159
759833
789332
802595
820882
808285
787383
741627
700548
657084
613001
568504
527342
480300
443622
412507
381290
355460
318788
286107
262455
232921
211914
179472
119177
315403
618566
727401
776541
801047
794758
788582
764131
752417
709354
681748
691637
650057
671342
623583
598843
560757
531963
510589
495990
467119
428807
386788
368835
335926
320601
286548
258546
206256
131142
483623
792219
944327
1.00465e+06
997821
901135
697273
528267
525129
447079
446973
398412
434915
422921
440320
455968
486545
511123
547344
590796
635113
672346
705375
701254
579191
446703
370210
332593
302955
207461
434178
602716
705394
802684
895222
976811
1.03588e+06
1.06223e+06
1.00791e+06
1.03999e+06
947173
981898
965848
951825
965285
955046
985513
1.00699e+06
1.0307e+06
1.0383e+06
1.02817e+06
981154
908218
815434
685038
544379
434603
331867
264554
207089
276263
420576
555627
671932
788973
863028
918019
951046
969053
983658
1.00399e+06
1.02694e+06
1.06001e+06
1.09663e+06
1.13511e+06
1.15515e+06
1.13302e+06
1.01678e+06
958853
900088
386921
575824
591697
601954
680439
710036
799380
824475
429515
238893
365585
469255
558570
614125
587972
675624
696570
721527
729150
756459
766159
792065
811870
826787
840423
834251
813333
787180
767106
728171
722013
705207
693233
694336
666404
646602
573050
464545
303143
151183
152556
249696
305999
314081
307362
301306
385668
498112
645013
778429
881487
971351
1.03891e+06
1.08945e+06
1.12759e+06
1.12334e+06
1.09403e+06
1.03588e+06
986149
956098
915282
877302
895779
846559
893670
839143
796540
680480
519184
313487
34186.4
55618.9
96817.9
199828
345556
429215
545096
640629
703250
704317
694818
490190
370164
307977
327079
338784
404138
481274
570612
637231
658102
578264
426005
303198
188509
107910
55265.1
35232.3
27500
21405.8
25721.1
34325.3
42957.5
53394.3
63343.2
113477
255450
446033
673374
921661
1.16507e+06
1.40646e+06
1.70371e+06
1.87144e+06
2.03021e+06
2.12002e+06
2.11477e+06
2.105e+06
2.0575e+06
2.00021e+06
1.93594e+06
1.87389e+06
1.81202e+06
1.75148e+06
1.67481e+06
1.58818e+06
1.50469e+06
1.42576e+06
1.28388e+06
989210
28140.5
34776.1
56153.9
143773
321116
562196
845696
1.24007e+06
1.63086e+06
1.74348e+06
1.88894e+06
1.90513e+06
1.77657e+06
1.83119e+06
1.78156e+06
1.76364e+06
1.73071e+06
1.69531e+06
1.66532e+06
1.64663e+06
1.5774e+06
1.39015e+06
1.02179e+06
951265
490954
1.33638e+06
1.51867e+06
1.61405e+06
1.32883e+06
802807
29621.8
52893.3
237655
483295
725236
959576
1.1808e+06
1.4019e+06
1.64298e+06
1.91741e+06
1.92641e+06
1.87439e+06
1.83515e+06
1.62491e+06
1.58531e+06
1.39798e+06
1.28706e+06
1.10777e+06
935404
763216
587869
427578
272723
138134
66323.5
43247.4
34742.4
31115.8
28761.8
25410.6
37894.6
47527.5
49652.3
67429.3
79139.4
95484.9
100063
109760
114824
127542
138881
163886
151301
182863
152526
158629
124484
114198
91905.7
83701.2
73690.7
68166.7
62220.1
56378.5
48596.6
39542.2
36252.3
33364.2
30624.7
28908.2
157102
303923
338496
368163
390717
394348
410482
394526
376045
324144
283571
201180
154297
157833
275977
387142
493218
568290
629152
661711
704563
716198
709350
707712
657498
626495
566227
540782
570728
634091
750075
828422
823313
727523
644178
566835
505275
448252
400277
347432
311573
278655
251694
217957
458099
439135
359858
267148
138533
54817.4
17563.3
5932.88
2264.38
1463.13
1156.27
2607.4
3359.77
15621
16352
66203.3
121172
214646
292623
300815
311006
438591
606495
566909
492045
442982
386695
346563
290691
241682
617238
650441
549835
407439
256284
111780
36286.8
4453.39
1205.2
301.374
141.902
57.1398
35.2127
27.783
24.7265
39.479
70.0679
173.155
506.763
1562.84
4927.01
14545.6
39855.6
96245
170932
288046
350068
355197
349857
331597
520126
595242
709811
793482
777061
648230
472041
315375
194347
127989
122489
108578
157816
193972
250889
300652
375371
430365
496487
508186
490947
408675
319075
227420
315567
342783
402121
372444
326458
365166
471563
484397
524608
473303
572117
583940
505116
459591
490378
518554
559187
605490
640023
647170
606446
524905
399524
250312
147461
118560
35403.6
17047.3
26613.5
32930.5
36125.2
28665.5
22113.4
92134.7
381828
629505
542532
495165
461486
259907
260245
368515
366583
347091
342037
329300
317490
289128
216100
133328
70484.3
37575
22028.5
13755.9
10045.7
7746.45
6369.63
8947.6
11208.1
24263.6
47198.6
92009.2
161010
257348
216838
274230
267230
180373
153981
176196
237406
243157
125032
194408
120911
71968.9
56472.7
52520.2
61312.3
96251.2
166464
279202
378449
517830
587166
553229
567941
546931
619496
519637
815935
854621
976625
958486
870298
761032
67494.7
90353.2
80023.3
298932
151028
22621.7
5368.22
1825.29
1115.45
1215.91
1137.76
665.545
313.512
371.93
644.024
1209.47
2504.12
5608.16
12957.9
31745
74936.3
156273
267849
296901
207778
144345
84590.1
40642.9
21118.8
27631.6
42851.4
40415
73835.5
146943
363280
834192
1.04755e+06
609003
442850
306237
455154
503216
532845
789445
817603
1.01604e+06
1.19502e+06
1.39835e+06
1.4977e+06
1.54087e+06
1.51373e+06
1.43502e+06
1.3371e+06
1.23936e+06
1.15311e+06
1.07886e+06
1.03931e+06
1.06761e+06
1.18249e+06
1.23262e+06
98467.9
138855
368952
908702
1.29256e+06
905867
1.01833e+06
911944
948145
649531
585998
365995
410211
440607
558150
687099
798972
850491
797726
563538
214885
26461.5
818.705
62.8611
23.3982
15.762
864.514
29043.4
253942
1.76574e+06
221470
433208
1.13891e+06
1.39453e+06
1.15705e+06
817299
529535
378606
361041
330011
341536
350195
357100
347972
512366
564203
748966
785167
754926
665230
551366
430730
301653
197638
118894
70683.2
37293.2
21497.5
15383.3
26742.5
93746.5
89371.4
138292
201524
235004
323695
400306
512544
568450
569566
511590
448269
379683
325210
273752
234114
175624
129021
95865.2
75974.2
65203.7
56583.7
53049
50202.6
47771.9
40255.6
30405.8
22469
18860.3
30772.7
224782
412216
422247
421434
422009
407111
410740
392701
415311
372096
340111
283507
219871
225952
376567
492170
582942
481195
404660
427131
516716
607591
645626
662400
685490
648240
590876
502587
505575
490849
583516
723299
790755
755551
675672
606045
545844
483354
438613
386729
335985
300267
277845
261431
593076
500699
491419
421194
301214
127697
32937.3
5732.27
2091.54
1461.9
1418.43
4846.06
4480.12
15587.4
13572.7
29261.4
55961.9
92303.4
140700
187205
183473
179860
297891
573992
574411
493520
418836
373651
330541
295144
700119
610578
600148
620660
558196
413546
247099
90657.3
40240.5
4650.74
1969.21
809.412
360.356
164.074
88.805
57.453
63.4002
96.8867
243.51
728.208
2230.88
6074.5
14516.2
33829.7
71792.4
154864
296464
346336
353360
420603
611327
765666
683116
560000
494143
464734
417357
334068
271470
223125
169083
223632
248054
291830
409653
444553
575343
609262
639197
619292
572131
481052
365195
231847
212562
231740
343031
360297
369361
470119
599569
475257
449226
496928
458713
345333
269801
257121
338799
470993
591432
675364
724788
743263
725031
659887
562146
476596
335634
294090
187076
115181
123704
150106
156180
122893
50856.2
41082.4
185143
831938
648161
544208
388993
293659
350464
350710
314521
306072
294147
255324
174768
79467.7
30757.4
13602.5
8013.81
5713.01
4631.62
4225.57
3719.33
3519.96
3318.55
4081.21
4651.91
7818.38
16036.1
41087.1
86867.3
153537
163911
298697
347214
122001
140429
226644
195879
84258.8
93084.5
76004.1
45979.2
16421.5
12365.9
12921.1
15504.7
20352.1
27959.7
37224.5
50209.7
111239
204543
403993
490339
396164
563811
333377
711562
791103
869988
881511
861946
795063
107799
85512.6
141868
196272
27882.8
4738.87
1667.81
913.006
701.314
616.915
599.162
562.681
581.916
685.221
990.347
1491.91
2455.21
4099.4
7531.08
15296.3
35803.9
90758.4
198240
327952
310837
209242
126912
79462.9
36125.4
33764.8
51140.2
49355.4
95023.8
212182
581775
979184
691935
399202
267767
463378
531933
767334
816609
851779
1.03962e+06
1.14463e+06
1.34567e+06
1.45182e+06
1.54499e+06
1.55114e+06
1.51105e+06
1.4324e+06
1.3155e+06
1.12459e+06
906634
755157
927115
836952
1.08032e+06
1.14033e+06
130857
179469
487874
946115
1.02128e+06
987950
825977
1.16242e+06
1.09142e+06
1.23011e+06
940184
891155
651520
615314
515418
471674
502209
562959
449802
177598
16980.9
268.256
12.673
1.93315
0.390224
0.626051
26.7207
1870.83
25474.3
1.60292e+06
446587
599628
1.15679e+06
1.04585e+06
771942
507968
383721
325330
374967
392756
417494
314031
331706
269114
387777
404571
596508
689728
767026
770153
710925
616206
482780
327874
197047
118900
81142.9
48476.4
22205
27966.3
133097
117883
178821
267579
383831
600131
678934
692498
630951
579905
527619
482323
451211
438534
435137
420251
321037
216965
111929
71286.8
57993.1
53478.2
51530.8
51053.8
50250
47068.5
44678.9
35392.7
22173.8
32089.2
286628
493852
479819
457733
436462
409805
399209
380038
404536
402689
375227
346920
299875
297990
489994
571073
388392
130655
156181
325636
542995
629592
655759
678698
715760
750721
769641
757952
705524
588210
592509
655754
751179
746924
684563
629205
573964
518868
470783
420536
364241
322655
313898
302025
709129
402055
363593
411209
361570
227746
59796.4
7547.64
1777.56
2400.8
3756.91
11056.8
15552
28892
21667.7
28718.2
27993.7
51377.1
60208.1
81725.5
89701
77119.5
81531.9
217757
556493
576865
478570
418401
379335
346794
854690
719751
742706
724098
661441
539485
391926
220555
116048
33441.4
12525.1
5260.32
2896.81
1809.74
929.848
460.306
234.009
230.337
281.478
619.462
1654.08
4102.58
8331.29
16415.5
34886.7
84739.7
212003
315838
335689
506165
740132
354301
219823
310654
469736
625422
627136
625004
623488
543767
508410
431767
454277
498078
574748
646811
684811
726190
705307
675912
634014
547430
462989
313637
221607
211991
268150
345180
394817
538030
689307
392737
354970
455245
244821
83009.1
99470
184408
288586
390027
500980
547900
547649
521530
486257
437181
457208
479735
462639
418935
468583
275830
310255
342017
350859
273417
117342
40569.2
90273.1
911540
714522
572215
326357
338173
360650
302001
291206
270687
234869
131625
47908.5
15354.2
8168.04
9135.61
8920.59
8243.68
9995.57
10342.9
9322.02
8527.32
7743.14
9298.45
12253.9
13951.3
17820.8
29228.2
59235
104242
110383
313851
390153
107631
179249
224149
99597.7
37152.5
61144.9
39692.4
13023.4
13336.7
13477.6
13650
15158.4
18392.5
23314.4
31684.9
40118.5
42220.5
51565.3
104661
286682
272189
419586
141209
499545
670578
763075
801383
880707
794078
157211
17659.7
194260
62320.2
8332.22
2332.21
1283.48
1132.6
1166.32
1267.27
1314.87
1337.17
1417.01
1600.34
1966.11
2606.2
3365.2
4475.63
5930.88
8556.61
16693.7
41942.4
109694
237061
388403
319710
170101
105603
63319.5
48494.7
63255.3
65525
129104
288680
732135
962871
580391
355355
457556
457978
708585
706475
931974
1.03789e+06
998511
1.02016e+06
1.04053e+06
1.24551e+06
1.37948e+06
1.46829e+06
1.45004e+06
1.30026e+06
971793
491206
207055
133429
524426
843516
1.0743e+06
976881
149492
218665
536697
946234
1.04873e+06
1.01062e+06
1.26081e+06
1.2208e+06
1.42029e+06
1.14438e+06
1.29744e+06
1.02903e+06
999884
708290
444346
246025
208529
267834
126902
4418.82
44.5562
1.83998
0.275517
0.110984
0.132028
0.100307
2.85772
100.719
1067.63
1.05689e+06
657091
740932
944368
700657
522107
455542
436522
497804
490542
575440
451492
437862
307570
325736
317904
407766
498459
634832
735135
787534
778592
750273
662246
511561
340231
190390
116034
90028.7
48442.7
34785.1
179666
171988
263204
412293
662984
793853
758148
726608
712495
716736
741542
766240
823152
904402
938119
899269
747935
513579
262477
106199
61682.6
54895.5
54841.1
58888.6
62599.7
56290
48739.1
45652.2
29325.2
33838.7
349306
558144
521217
480405
444980
404125
384217
365561
391443
415544
399074
383953
374692
371015
594659
597654
186345
49667.3
129244
431779
584490
579724
569837
569559
566883
570486
601071
636857
688515
656016
651435
669712
718191
715130
674763
626885
591402
534811
492725
444397
386076
348981
343101
362724
799468
104562
165935
301869
379274
291267
152005
20809.5
8845
12751.9
10263.6
52793.9
43375.8
69091.1
45199.3
39759.7
29582.4
26675.9
39327.6
29806.9
33369.2
28342.9
33333.4
35224.5
193919
624056
559178
475906
438108
416890
1.05322e+06
749248
763146
728812
588890
445533
318545
199592
170160
58926.2
42847.7
20094.5
16777.9
11798.5
7781.13
4266.57
2017.34
914.937
758.362
893.68
1802.67
3589.03
6239.01
10317.8
20648.1
55315.1
158367
279655
312402
567504
869833
43135.3
114268
363002
632365
746351
716884
733238
695583
650669
631425
641057
680635
671553
697843
715553
723686
709178
701382
663013
638292
575356
508156
365979
299065
207331
258722
319895
401523
579751
762379
278607
264445
190506
102432
64965.9
69605.6
108607
236630
287558
293941
313268
317470
294290
267631
296100
362732
464478
542033
618088
591704
609805
517626
505480
504292
360728
159457
37013.4
44033.8
923647
777340
530353
311608
351492
298366
281600
260447
235333
160667
68566.3
24300.5
11815.2
11283.3
17087.2
21036.4
22062.8
22640
20718.9
16471.8
12611.2
12416.9
18020.6
33907.7
39706.4
35925.1
39163
55002.9
81657.1
69861.7
277951
404317
90912.2
195528
150590
49265.3
46301.1
38540.9
13957.7
13468.9
14444.2
14572.9
15852
38200.2
39034.4
50131.6
19426.7
24846.6
34227.7
33973.5
41821.6
80479.1
216773
284606
84066.2
223565
532527
704163
761071
905582
779768
221139
6949.19
123618
20725
3904.88
1853.03
1564.31
1860.23
2481.66
3075.42
3542.66
3958.96
4142.35
4270.15
4660.19
5112.39
5999.28
6985.9
7837.9
9430.74
11634.3
20546.5
59492.6
146535
272230
418724
247855
136641
94918.3
73627.7
79817.5
88530.6
168936
381101
818043
888333
602795
383346
459453
608972
564401
758254
783190
1.06054e+06
1.04446e+06
802517
714397
850361
1.15621e+06
1.30887e+06
1.19636e+06
739498
174784
12028.1
4217.93
8526.6
49468.1
836753
1.01926e+06
866579
181037
209597
537742
890973
857977
999027
975582
1.14386e+06
1.06779e+06
1.26022e+06
1.09307e+06
1.14358e+06
805941
737193
320396
104606
56110.3
78014.2
7160.14
43.2208
0.627356
0.142416
0.170349
0.327021
0.393016
0.410703
0.593915
2.43133
8.0096
453907
754110
562080
573071
400448
390989
446155
562117
526011
673507
559464
584493
401001
386705
283475
302377
349917
466262
599150
748278
832794
890024
900918
860978
750044
546581
329363
183759
125162
100941
54986.8
238692
251036
371695
632617
848478
849082
795220
840280
852208
945402
1.01178e+06
1.14301e+06
1.23857e+06
1.30626e+06
1.37234e+06
1.33068e+06
1.2297e+06
980088
596173
246851
75792.3
55480.1
54610.3
62236.9
72076.7
66168
54860.2
49786
40399.3
39467.6
398502
575308
530255
490344
443394
400702
366738
354487
391586
420240
417171
414605
438678
442177
675762
583413
63628.9
35022
206314
549304
570124
545092
531685
515613
495056
475679
484889
519392
569418
609857
636761
673989
692073
676218
643870
617369
588344
542450
494959
446792
402069
358873
282373
425265
837410
13875.5
29199.7
219496
368337
392805
283183
93558.5
47242.9
31167
33960.4
108125
100271
98006.1
56078.6
46875.8
35770.6
40316.3
47688
54308.2
40851.2
33743.3
15711.4
19134.9
56208.6
466862
634900
543872
497684
477782
1.18647e+06
764100
744753
575375
374363
271564
177460
166365
166474
90622.5
115568
90359.1
73362.7
75224.5
62317.4
38545.4
15663.6
5362.6
2353.51
1830.33
2329.52
3668.08
5250.99
7662.04
15405.4
45923.5
147424
308528
327247
625931
710707
12831.1
97925.6
343021
550160
664498
645893
707759
631832
612701
583512
598422
611613
651225
647693
660695
648292
643853
628062
623771
604656
584080
529447
453715
341700
276438
242578
293124
381188
606667
765808
179372
181736
118827
79615.5
87552
105378
95635
102637
126627
125990
96468.7
92718.6
92603.2
109728
163069
279963
455492
594138
575377
637825
610161
627801
635082
538591
370604
142626
21914.1
17530.3
877043
855296
399518
330540
301613
311863
244439
235735
200145
134103
70708.9
38130.2
24225.5
23319.2
26655.2
28903.7
27309.6
23045.2
18413.3
13994.7
10548.1
11818
23073.8
59972.3
85914
76013.7
63323.7
64279.8
70523.7
35971.4
239039
395932
77856.6
188609
97153.4
29800.4
41312.9
30531
12038.5
15029.4
18741.3
24866.3
85335
105571
157121
101290
19175.5
15068.4
23229.9
27941.2
28623.3
48209.6
165200
180319
76875.9
89262.8
396926
678321
750054
936572
763661
289015
1972.66
61058.1
9347.61
2705.28
1781.04
2216.49
3452.79
5456.69
8525.8
12126.5
15410.6
15502.6
14585.1
12215.3
10809.4
9935.99
10091.7
11760.7
13082.3
14132.4
17398.8
32492.8
104510
201137
355627
347607
182977
127867
116026
104696
116251
199108
445015
855801
907078
674519
491400
597806
661337
864256
883351
1.06381e+06
980350
873461
510647
388106
547301
898006
1.11839e+06
804920
168593
1927.9
144.279
2.61194
20.7313
9344.63
819533
1.02832e+06
705227
210322
148491
415566
761620
886007
783453
1.06603e+06
979304
1.05737e+06
984435
1.08839e+06
1.00305e+06
836202
572617
228041
35513.9
33683.6
43181.6
324.819
3.00466
0.381844
0.132754
0.797086
3.20365
15.1954
10.7623
0.712301
0.0910757
0.108912
94648.3
540792
261517
239272
256036
420678
597476
699148
911126
813018
876216
595136
575128
337451
279937
245166
315353
419158
612080
628229
562512
508629
615531
822960
955247
808643
544759
304553
186619
166578
89519.6
314057
321331
509040
841430
927447
865585
902330
956037
1.06664e+06
1.10803e+06
1.21922e+06
1.21462e+06
1.31028e+06
1.34542e+06
1.35388e+06
1.4309e+06
1.39279e+06
1.25848e+06
1.02968e+06
540701
143306
55880.6
52997.6
59625.9
76058.4
71928.5
59017.1
52477.4
44784.8
43636.1
439030
582302
538615
492966
452097
404564
365377
358208
397478
428518
444481
496058
513448
517729
725734
421754
25994.7
55713.6
359861
581870
576929
563320
554477
549281
529094
511769
496296
511354
535683
574137
610155
626074
634308
627202
611819
598942
573146
522630
475457
434640
391469
211162
80563.2
503375
570425
3330.14
5688.72
197090
401800
409982
318959
199190
110548
76907.7
88507.8
70001.6
97522.5
61681.4
66354.5
80265.9
215333
269353
267060
211347
243971
178981
125608
57765.7
83415.3
335089
693709
602043
556578
514979
1.21243e+06
752740
657279
370994
225914
117903
110476
120361
100355
121087
152304
125104
211472
275433
302991
227163
99452.6
18830
5998.98
3143.03
2966.25
3421.11
4275.41
5891.96
13612.7
51279.4
179732
362963
379475
672735
362023
5252.04
41538.3
130502
211477
314525
362393
552031
546522
631029
614578
618426
644296
622839
625988
604427
588065
572666
562228
557690
565522
557003
561016
474726
408704
291278
246424
261359
343674
612005
743575
103553
103105
82005.9
87531.4
113534
114283
146058
64697
48802.2
53290.6
59764.7
60557.6
83167.6
115376
144799
255139
452882
517670
575048
537692
598225
608600
607497
529019
288933
81142
9403.56
8695.35
780647
912244
392346
283402
393738
235340
226524
203469
184400
143490
114920
79003.1
55443.6
42738.6
37779.6
33315.3
26184
17773.4
11254.5
7486.97
5916.96
7749.64
20679.6
68069.8
108424
106027
88334.7
74510.7
61926.9
13548.7
161674
368986
67199.4
165152
70799.7
37247.2
38444.8
28664.7
12580.3
17649.3
28783.3
89154
191245
273324
209995
50913.5
29291.7
16335.1
15403
24954.8
24585
40193.3
103510
156168
104771
45387.5
283783
665175
758272
949485
730173
372127
1094.25
33251
6114.55
2273.46
2025.73
2999.67
5740.35
11395.4
21969.2
40537.6
79470.8
116608
64386.5
33797.1
21889.6
15235
14531.8
16371.1
18012.9
20148.3
21710.2
26714.4
73131.1
174344
291705
401386
248071
184927
186323
147947
154475
211937
468762
836011
1.00736e+06
857507
740721
775523
848325
870181
930470
881239
952663
570430
184587
149683
331095
653910
596898
136892
1659.89
76.3529
0.00523554
0.000253737
0.00322397
168.201
292242
858707
773138
285963
7202.01
53825.7
534129
620182
867942
917499
1.00118e+06
951871
983493
964522
985625
555701
643529
203632
35795
21004.2
37490.4
163.332
1.14446
0.135011
11.3293
1.4633
5.00657
22.8964
21.2681
0.525019
0.0159561
0.0342986
137929
470271
36789.3
77260.2
142744
235211
380884
699599
694282
877503
763755
856814
541682
396124
226579
225357
290933
413048
401513
197396
112135
136077
156376
261652
637611
1.02873e+06
774139
463943
288100
255239
149192
382572
359935
674737
990683
939129
940376
968555
1.14535e+06
1.17333e+06
1.2237e+06
1.16091e+06
1.26631e+06
1.27435e+06
1.37863e+06
1.45498e+06
1.3907e+06
1.22651e+06
1.26552e+06
1.21825e+06
909419
312557
66539.3
49744.8
55396.3
73862
74542.6
62009.4
57384.4
51721.3
55595.2
441478
548326
515170
494007
469799
435797
398100
395739
429001
479252
590335
649115
643888
631318
800624
201701
27195.1
117971
399585
577596
608773
607057
607074
608470
601167
587572
566496
551397
549819
561485
578784
598033
600848
599917
593384
577252
538351
497316
458776
393544
181064
42657.1
27679.5
654318
244428
4158.1
8547.87
148489
448285
393420
296746
147175
147001
64461.8
78341.7
26682.5
54826.8
60616.6
201054
401555
472607
416905
291248
263412
203888
196696
160657
155522
127246
393934
725009
654980
611889
554178
1.21329e+06
719658
516598
268317
100266
63854.4
63241.9
47621.8
77011.8
49363.9
52499
64937.4
100943
170069
230569
215710
88150
18183.1
5487.32
2818.54
2152.78
2159.25
2791.3
4986.24
15909.2
77538.3
220231
422531
486291
782955
132650
1364.78
4960.33
10482.8
14477
18270.7
20052.5
33289.8
49290.7
91176.5
185725
335088
430456
534838
535686
564283
533976
534683
533157
533198
540982
535427
499473
463177
351100
253840
201686
224525
261833
596052
658241
56708.9
65389
74746.5
113368
129114
137216
107196
92801.7
40215.5
29568.7
26071.8
27374.8
29964.7
56447.8
110541
233818
370882
508234
449976
504051
543529
578728
573453
415397
190794
36328.9
3000.11
8317.85
672251
997342
232272
343299
313428
245528
202778
194451
177692
159193
140967
119061
93030.1
70587.6
53152.4
41409.5
28789.6
15748.1
7186.07
3613.69
2883.83
4204.64
14119.3
56687.3
92153.3
87013.9
77444.9
66465.3
33669.5
1917.03
62268.5
324680
47308.5
140016
60842.5
41711.5
45207.7
31306.2
13031.3
19658.3
36443.9
91358.9
248257
287528
82076.5
58363.1
19053.7
8307.14
12118.7
22170.4
24816.5
34868.1
91856.9
266566
102719
44040.1
219954
660137
783300
966287
734849
369889
250.309
21769
5963.12
2544.73
2554.08
3872.46
7701.47
16730.1
38776
80484.8
195050
249396
158280
66640.5
32060.9
20559.2
18464.9
20000.2
23550.1
26129.4
29228.3
33649.9
54301.7
171236
275823
400540
331739
297367
410020
282508
234911
202950
437126
777879
991910
1.02774e+06
971159
1.00908e+06
993221
950071
896762
851853
716853
232163
46091.9
94017
261607
648928
490601
47476.3
1476.29
0.446584
0.000533335
0.000216226
0.000548667
2.81675
19193.9
854274
981595
425406
1757
15822.4
220117
736599
872152
980094
996207
1.0035e+06
922926
904724
715029
695347
855555
451689
59000.8
100884
21867
183.058
0.573553
2.16148
1.29465
1.38785
1.63408
4.54465
0.889134
0.151161
0.0138661
0.0510337
202596
297716
3152.1
18650.1
45617.6
157859
585142
747772
932115
831747
966837
810924
697484
372049
235887
215286
249218
301275
133497
66157.9
96994.4
108018
153379
203524
490606
974732
943116
620384
394472
379954
261639
484818
337902
890074
1.03392e+06
971751
971077
1.08784e+06
1.23857e+06
1.27888e+06
1.35062e+06
1.29751e+06
1.31906e+06
1.37691e+06
1.37964e+06
1.44091e+06
1.41295e+06
1.33138e+06
1.17277e+06
1.09772e+06
1.15331e+06
580192
113424
46316.6
48007.6
66187
75138.3
68916.3
71584.3
75529.4
148788
462308
521948
508299
504773
498593
484002
465225
474555
518400
648787
795677
893442
814096
630278
863700
844881
209446
7733.83
18952.9
102726
260211
444052
543327
586708
605874
615374
632378
634472
622038
593847
579387
569418
573962
575132
583724
581541
577347
563587
537997
485120
320798
119398
47871.3
27642.8
8773.68
49999.6
519933
816344
10264.4
10354
18229
200454
456686
437395
248101
83383.1
72218
21650.5
30766.7
24865.9
80740.5
199032
321449
235078
117846
60107.9
59793.4
95132.3
164560
213411
230167
165627
259377
482729
759932
689042
661311
347352
473016
818300
671011
661305
453043
170816
63217.3
35409.5
22063.2
24989.5
16297.8
10630.1
13007.3
11714.1
19961.9
30568.9
39582.6
26507.4
7611.19
2147.25
1137.35
753.605
749.776
934.07
1791.05
5059.12
21009.1
72139.1
475974
616938
557168
156589
424064
158274
233.378
218.363
203.534
149.591
99.7116
68.5998
52.7025
43.6028
41.6691
42.9273
85.3386
206.707
833.377
3566.66
11839.5
19756.7
55902.2
74314.1
133730
199937
259293
318463
330517
247760
191312
150072
157379
214651
257999
229643
464159
327542
18013.1
27059
39353.1
72026.2
120588
239585
246634
125857
68092.3
41455.2
26051.9
20820.9
22712.1
34970.8
77093.5
122511
182307
339472
415566
425374
375082
406423
470889
448983
297661
92750.8
12554.6
4555.76
25963.6
578800
778986
947712
233454
183408
292063
377823
206991
202307
192149
182175
237053
202731
251881
161568
105867
84401.8
60597.6
41110.3
21036.5
8009.74
2486.28
1469.18
2118.51
7137.34
26472.9
52484.9
51957.8
35677.2
17507.5
3530.81
121.78
10.839
44974.9
188461
11395.8
30061.6
119075
62008
44829.5
54468
42322.1
20763.9
18372.7
32504.7
69123.3
108581
87999.3
42175.5
17503.8
9624.69
6931.65
10770.9
22897.7
24674.8
36300.4
112597
341004
194260
72275.3
154616
665746
790502
931355
995997
1.01786e+06
658162
8244.84
566.28
20266.7
9073.69
4043.3
3629.23
4972.58
8788.78
17711.2
36120
71891.6
155997
190801
149451
59462.7
32203.3
23054.3
20697.4
25126.5
30280.1
34475.4
41615.5
47882.6
52557.7
176861
267342
382528
392360
414155
379682
578211
488022
226979
181414
176406
311781
686576
894063
1.01186e+06
1.0566e+06
1.02931e+06
1.00766e+06
962945
902737
849145
354663
68473.4
53865.7
101217
311465
502883
183649
3087.82
616.534
0.0147044
0.000891587
0.00492578
0.0120288
0.0627839
667.885
570059
908122
907170
73453.7
0.875286
88.5774
1183.89
59396.3
365664
721591
895417
906052
806765
719949
595196
576063
558453
993266
462943
121254
164126
92156.9
228.656
1.46603
0.0980036
2.9888
0.412529
0.550632
0.353862
0.772395
0.0841548
0.0908116
0.262493
482.884
151052
8493.73
6.33191
29.9065
735.616
10600.6
141132
408107
704758
843158
856928
875164
907136
735783
446273
341651
236067
323630
361820
104400
135975
159914
111010
129369
283220
411696
873349
1.0389e+06
712369
534832
680685
729086
890069
195228
7693.16
436446
1.03472e+06
1.0472e+06
961146
1.00829e+06
1.16099e+06
1.29428e+06
1.43082e+06
1.31578e+06
1.33265e+06
1.21002e+06
1.03187e+06
1.01574e+06
1.19273e+06
1.38681e+06
1.42484e+06
1.13389e+06
1.04263e+06
1.14197e+06
862154
226281
51426.4
41074.8
53789.4
75343.8
88766.6
127982
194184
205252
71620.3
45859.7
440195
461609
469438
492055
518533
524688
522690
512488
512783
566411
696138
837501
793998
203728
31367
7671.81
8676.72
6476.42
20564
51898.8
111893
213551
323762
399716
436381
435127
458388
455583
549395
594224
608488
595106
589264
591817
593937
596882
586752
544342
387717
204626
125976
195445
261255
250718
124273
100713
190929
298007
33761.6
39269.9
38133
110419
509914
446980
275396
102979
47612
18781.8
39936.8
45161.1
96140.7
137353
127902
72662.9
39361.4
20663.6
30215.3
67328.2
132271
155164
197001
252247
364432
676706
764371
710893
668149
158507
283587
459854
557742
605519
408513
184737
64555.3
19503.9
9541.61
6431.28
1505.19
3074.43
756.856
1558.32
1046.65
1851.13
1542.58
732.292
163.817
131.582
112.424
141.022
220.937
454.934
1376.21
4421.4
14211
150437
362521
117149
4331.16
829.102
322.035
193.078
78.8528
65.9946
56.1243
43.9348
35.1428
32.4363
33.2966
32.3213
27.2413
23.8363
18.9171
15.2448
11.5041
8.55539
17.3181
78.5389
110.453
746.58
2219.37
9416.56
23670.2
37732.1
49465.9
72129.6
79926.4
101366
152208
206079
209854
159918
50415.4
10998.6
5989.73
16826.2
35863.2
86745.2
298831
453458
380307
195204
109545
46440.6
28854.5
18393.9
17751.3
22429.3
49169.9
90059.4
148457
240933
382760
376945
314405
260116
291118
224236
148796
52053.5
10907.3
10777.1
119071
618041
472687
340314
183882
145837
319755
356129
289752
232524
256918
385681
387395
440675
491150
392495
377429
147477
103919
71063.4
41419.6
17184.1
3782.92
1073.1
937.875
2297.86
6836.78
10404
6269.92
1481.57
367.055
116.423
23.2685
3.6376
450.375
5687.61
5367.17
26096.9
110527
76039
39866.1
64852.2
60820.8
33664.6
16052
20789.8
26233.6
30658.8
21483.9
12990.6
7859.34
5917.97
6059.18
12095.8
22130.2
26919.1
39612.3
103439
597813
402150
95188.9
172076
659154
829766
935501
828162
245156
32620.5
2404.16
1990.18
26347.5
22697.7
8775.32
6355.81
6686.13
8990.98
13892.5
23331.8
35823.9
63751.6
79062.3
44969.4
31587.9
24474.3
19874.7
22298.6
28589.8
34395.7
41882.9
53479.3
66670
65474.6
176590
303368
365693
365126
147617
40820.7
83394.4
120617
107502
216633
204950
174294
425376
775564
902524
986752
1.00988e+06
1.00325e+06
948507
920233
547328
133833
61435.8
72125.6
230732
456881
478961
109329
4933.54
390.82
0.0101304
0.00264775
0.0318142
0.0439469
0.441232
38.0386
31183.6
365070
399.376
5.71749
0.732922
65.2871
287.893
6957.17
80571.2
245221
349656
348764
330192
243556
365110
456165
958376
1.01263e+06
771721
326614
482418
103215
842.54
2.36451
0.64459
0.029769
2.31371
3.66804
54.8693
14.8316
46.8434
9.67478
181.074
35934.8
2096.38
37.5668
0.751558
32.2766
1723.84
39401.6
256067
555964
699908
872200
840454
902558
952792
851250
653301
319185
292388
529446
380509
118815
151190
112139
53507.2
88122.7
165567
368317
967750
1.04188e+06
783710
748261
948812
414324
92583.5
9908.39
41751.7
767929
1.13887e+06
1.00013e+06
947763
1.00413e+06
1.16412e+06
1.37012e+06
1.41976e+06
1.35422e+06
1.25583e+06
1.05537e+06
767321
820000
1.0722e+06
1.36663e+06
1.39602e+06
1.20511e+06
973816
1.11175e+06
1.05031e+06
404585
82192.3
37749.4
38577.9
54158.9
66835.8
100250
120682
104540
40502.7
45398
440991
420890
445836
491235
532103
559762
571382
563350
541729
555768
630906
736527
815480
409060
103693
34881
26517.8
19296.9
24234.5
37817
72885.2
160100
274221
381668
434751