/*--------------------------------*- C++ -*----------------------------------*\
| =========                 |                                                 |
| \\      /  F ield         | OpenFOAM: The Open Source CFD Toolbox           |
|  \\    /   O peration     | Version:  2.1.1                                 |
|   \\  /    A nd           | Web:      www.OpenFOAM.org                      |
|    \\/     M anipulation  |                                                 |
\*---------------------------------------------------------------------------*/
FoamFile
{
    version     2.0;
    format      ascii;
    class       volScalarField;
    location    "0.004050000";
    object      rhoUnburned;
}
// * * * * * * * * * * * * * * * * * * * * * * * * * * * * * * * * * * * * * //

dimensions      [1 -3 0 0 0 0 0];

internalField   nonuniform List<scalar> 
12384
(
1.69211
1.73327
1.75937
1.7954
1.79924
1.76287
1.70278
1.60788
1.58427
1.58904
1.83865
2.39821
4.83559
6.59863
6.12049
4.45059
3.80561
3.52738
3.3887
3.28984
3.21735
3.16161
3.12742
3.08134
3.05852
3.03217
3.03116
3.01579
3.01974
3.01653
2.9937
2.93951
2.91526
3.09066
3.60924
4.03455
3.96961
3.6171
3.40912
3.54682
4.13918
4.80728
5.06574
4.69415
4.77964
4.87794
4.83654
4.86178
4.89826
4.96489
5.00603
5.07
5.08147
5.14461
5.18995
5.09496
5.15764
4.95151
4.91854
4.72437
4.5422
4.53128
4.71184
4.8689
4.40682
3.47003
2.83684
2.63581
2.65335
2.74354
3.05591
3.71107
4.79248
5.95528
6.1797
6.53467
6.47566
6.52264
6.66851
6.93047
7.31661
7.24262
7.30185
6.74636
7.01599
6.6525
6.80808
6.56067
6.54358
6.21127
6.29153
6.19367
6.23713
6.24642
6.25016
6.21979
6.2216
6.24231
6.35894
6.39365
6.40507
6.41122
6.41373
6.43451
4.64912
4.35081
4.2294
4.17628
4.18055
4.20762
4.25353
4.30638
4.50018
4.4341
4.63136
4.55895
4.56604
4.59216
4.57929
4.61368
4.60025
4.58678
4.59939
4.67082
4.77152
5.0323
5.28633
5.19026
4.70391
4.92099
5.46101
5.89159
5.76831
5.961
7.8478
7.53995
7.05251
6.88058
6.91681
6.57947
6.18105
5.91384
5.77767
5.71509
5.60611
5.51505
5.43716
5.39377
5.34349
5.34179
5.36873
5.4744
5.39137
5.51632
6.1921
5.79026
5.87416
5.97334
6.00405
6.17678
6.33953
5.89445
5.75739
5.45238
5.51077
5.75751
6.60203
7.43425
6.91155
6.90705
6.39807
6.34726
6.23798
6.1465
6.33704
6.28254
6.35375
6.55827
6.7052
6.65743
6.54346
6.36272
6.25933
5.97908
5.95544
5.81686
5.66267
5.68999
5.52603
5.57328
5.46287
5.5119
5.92133
6.28435
6.28256
6.30992
6.29002
6.29235
6.39236
6.0501
5.53603
4.60818
4.57099
4.5349
4.56057
4.5133
4.44811
4.40219
4.32688
4.26815
4.25594
4.3124
4.31461
4.33738
4.46295
4.57407
4.32421
4.433
4.17575
3.914
3.95988
3.91834
3.9331
4.46553
6.2048
5.9153
5.89628
7.02758
6.30266
5.56605
5.50348
5.4137
5.19064
5.09525
4.98399
5.17849
5.34885
4.98691
5.13656
5.11792
5.2536
5.33759
5.3565
5.28652
5.27688
5.20999
5.17562
5.3528
5.85997
6.32173
6.69242
6.87222
6.8374
6.72453
4.96354
4.84533
4.88611
5.09483
5.40503
5.20771
4.35785
3.71346
3.82691
3.65989
3.58511
3.54903
3.49889
3.49098
3.43627
3.51126
3.55565
3.58507
3.61364
3.64336
3.66916
3.69862
3.73105
3.76838
3.80724
3.85241
3.86206
3.87777
3.77136
3.5289
7.63603
6.27485
5.69433
5.52047
4.39177
4.5879
4.62449
4.49496
4.45905
4.52446
4.9082
4.67114
5.07037
5.04872
5.16605
5.22124
5.29178
5.38168
5.48361
5.6385
5.89036
6.24071
6.71009
6.88011
7.39866
6.51378
6.28389
5.74466
5.5952
5.48513
11.3124
9.34285
7.95583
4.77553
4.43268
4.55463
4.63994
4.73128
4.71808
4.72887
4.70641
4.84243
4.77048
4.94949
4.86265
4.95103
4.89239
4.94069
4.9388
5.11721
5.49034
6.25572
8.35514
8.66505
7.37458
6.69712
6.53543
6.5601
6.81977
6.8974
9.26686
7.30895
6.19671
5.87206
5.88783
5.81123
5.90943
5.94458
6.06689
6.20647
6.36281
6.42726
6.48431
6.44566
6.44547
6.37919
6.45221
6.34884
6.48517
6.43821
6.53354
6.44426
6.42974
6.45273
6.09633
6.47345
6.37438
6.41869
6.52909
6.45265
1.80616
1.87428
1.94895
2.02024
2.07473
2.12613
2.08246
1.96281
1.7165
1.53723
1.6383
1.94641
3.26041
5.95712
5.70675
3.57328
3.44762
3.54556
3.59348
3.57047
3.47205
3.39132
3.30603
3.25356
3.22474
3.22112
3.22256
3.21894
3.19634
3.15911
3.0952
3.01518
2.94205
2.9585
3.22211
3.68884
3.95421
3.83024
3.4636
3.38066
3.68601
4.39035
4.98571
4.73935
5.09911
4.58894
4.40441
4.4193
4.56885
4.81234
5.07876
5.33621
5.54879
5.63086
5.66593
5.50395
5.44249
5.24312
5.23212
5.09052
4.87876
4.79471
4.72456
4.81717
4.89175
4.61649
3.85354
3.10243
2.62644
2.50828
2.59014
3.09169
4.35963
5.83953
6.72101
6.20819
5.93573
6.01881
6.14991
6.29649
6.49012
6.83564
7.05417
6.78015
6.92303
6.77189
6.80753
6.76407
6.55658
6.53916
6.33103
6.31985
6.27666
6.27603
6.25904
6.24694
6.22796
6.22758
6.30835
6.34858
6.30666
6.31971
6.34132
6.37154
3.97877
3.93212
3.96345
3.99975
4.02257
4.03667
4.04938
4.05824
4.10031
4.08027
4.07883
4.08713
4.02542
4.02746
4.0353
4.06672
4.08217
4.1452
4.19879
4.3211
4.47131
4.75867
5.03891
5.31688
4.94827
4.80978
4.90076
5.38956
5.7812
6.13771
7.69239
7.25981
6.87669
6.8027
6.07216
5.77569
5.9626
5.98346
5.74217
5.53239
5.31273
5.11179
4.92537
4.76855
4.62693
4.50396
4.41639
4.35195
4.27821
4.17063
4.33104
4.30649
4.28283
4.33339
4.53384
5.00264
5.71043
5.89425
5.7651
5.42313
5.32444
5.78549
7.05211
7.30535
6.65694
6.37595
6.07273
5.97214
6.0869
6.14574
6.3893
6.72409
6.96015
7.16822
7.28452
7.2163
7.16588
6.92593
6.76881
6.55035
6.31263
6.28967
5.97408
5.9909
5.69912
5.69441
5.51182
5.53746
5.80431
6.2708
6.27981
6.29146
6.23124
6.24802
6.04855
5.76591
5.35659
4.59472
4.67923
4.86571
4.99518
5.09362
5.18268
5.17063
5.09005
4.96641
4.83005
4.58592
4.45555
4.46917
4.43303
4.55575
4.39167
4.43985
3.99998
3.8199
3.73664
3.77492
3.91119
4.37526
5.85761
5.89274
7.10684
6.47457
5.77961
5.45792
5.38707
5.3947
5.39776
5.31102
5.24548
5.33536
5.38659
5.10794
5.2499
5.26646
5.35327
5.4294
5.41652
5.42604
5.29475
5.16756
5.10061
4.89075
4.89538
5.24511
5.78099
6.46381
6.7325
6.80506
4.88687
4.87224
5.08395
5.31738
5.2081
4.62706
3.9276
3.68228
3.55436
3.4074
3.2756
3.17558
3.1407
3.12997
3.18475
3.25721
3.31003
3.36371
3.41137
3.46732
3.52467
3.5856
3.65858
3.75535
3.89258
4.08722
4.13469
3.99394
3.81133
3.57685
7.02746
5.83447
5.51678
5.2396
4.48453
4.53037
4.19539
4.00844
3.92771
3.93875
4.04314
4.16904
4.34716
4.52089
4.69315
4.8399
4.9406
5.00105
5.09766
5.33136
5.76713
6.50049
7.40158
7.62061
7.81601
8.01212
7.20795
6.53213
6.04989
5.56751
10.017
8.40194
6.3179
4.65749
4.62144
4.75682
4.85711
4.92265
4.92077
4.98817
4.9388
4.97317
5.02563
5.08559
4.97245
4.94902
4.72184
4.54866
4.30622
4.09879
3.93902
3.81822
4.03445
4.40873
5.2662
6.93786
7.40327
6.33279
6.24793
6.57319
8.88205
6.71071
5.9155
5.75556
5.81035
5.8984
6.27278
6.74261
6.85785
6.15115
5.37248
4.89961
4.49918
4.27071
4.14392
4.02464
4.05106
3.89026
4.06798
3.93173
4.10737
4.06749
4.19918
4.48311
4.7716
6.18833
6.19118
6.23224
6.25025
6.23998
1.87785
1.8943
1.93961
1.98514
2.05114
2.10183
2.1906
2.16151
2.00212
1.67104
1.54395
1.70846
2.60515
5.14534
4.27036
3.49989
4.2199
4.97375
5.12433
4.81952
4.3486
3.94162
3.6824
3.52096
3.43782
3.41789
3.42245
3.43551
3.41782
3.37745
3.27522
3.14299
3.00259
2.92492
3.02172
3.372
3.77862
3.88806
3.61795
3.29773
3.38953
4.01456
4.83779
4.74906
4.32563
3.95832
3.8315
3.87051
4.05531
4.4392
4.97117
5.53165
5.82608
5.87045
5.79953
5.53792
5.49956
5.36195
5.39761
5.42053
5.27088
5.18111
5.07719
4.99001
5.0637
5.11591
4.80593
4.00098
3.0995
2.5575
2.37842
2.6391
3.77042
5.7435
5.73386
5.77831
5.7297
5.51043
5.38762
5.41388
5.54157
5.73693
6.01101
6.43547
6.5922
6.54404
6.67363
6.60803
6.64603
6.52586
6.45379
6.39443
6.3649
6.31918
6.29694
6.23098
6.20444
6.20741
6.25163
6.30157
6.28874
6.28523
6.30996
6.32782
3.96807
4.23098
4.44242
4.40091
4.22976
4.02785
3.89517
3.80766
3.75597
3.75434
3.76244
3.71097
3.72396
3.7299
3.70736
3.74816
3.73169
3.78923
3.88928
4.04849
4.22217
4.47919
4.76706
5.14243
5.1667
4.96424
4.75363
4.99839
5.50475
6.10527
7.55009
7.01266
6.84204
6.19493
6.09851
6.43416
6.36278
6.17825
5.83473
5.51756
5.17481
4.89367
4.70623
4.54968
4.43991
4.36272
4.25607
4.12317
4.02628
3.87921
3.86084
3.81727
3.74447
3.77452
3.87295
4.20898
4.93615
5.66818
5.73976
5.24328
5.08223
6.03533
7.123
6.98274
6.28092
6.03041
5.78082
5.89143
6.10076
6.30527
6.77985
7.12941
7.35216
7.54726
7.57447
7.49885
7.33162
7.17839
6.92162
6.79513
6.4403
6.4896
6.12699
6.17189
5.89937
5.82186
5.62175
5.54304
5.6771
6.19144
6.2596
6.28812
6.15199
6.00167
5.70448
5.46465
4.86742
4.75246
5.03391
5.49633
5.61919
5.65594
5.75884
5.87358
5.99872
6.09312
6.20769
5.93433
5.39353
4.76746
4.54136
4.76857
4.63233
4.75679
4.26529
3.89647
3.63477
3.63207
3.84088
4.3261
5.69998
6.13243
6.697
5.89041
5.4622
5.29308
5.32773
5.33752
5.45853
5.5702
5.76125
5.6695
5.56656
5.34267
5.39415
5.37345
5.48177
5.48849
5.52419
5.44272
5.41394
5.54919
5.46542
5.31371
4.91114
4.74802
4.98929
5.68656
6.49829
6.75797
4.8648
4.98253
5.29209
5.30127
4.92456
4.08441
3.77461
3.58347
3.37692
3.17547
3.00145
2.93629
2.92274
3.01124
3.13115
3.24099
3.3227
3.3729
3.40243
3.43517
3.48077
3.56475
3.71609
3.96967
4.2981
4.70005
4.68065
4.10019
3.76928
3.62599
6.67366
5.7029
5.44981
4.88811
4.42628
4.207
3.94642
3.77174
3.66163
3.69647
3.72197
3.87559
4.03363
4.2227
4.53457
4.84976
5.00286
4.92968
5.12647
5.70201
6.69292
7.82647
7.82408
7.72631
7.30794
7.86507
7.4628
6.91695
6.59381
5.87694
9.28188
7.95251
5.26149
4.70559
4.77737
4.88713
4.89043
4.8334
4.75102
4.66253
4.70043
4.81146
4.94515
5.01108
4.99227
4.95058
4.76411
4.60598
4.38978
4.1901
4.00114
3.84164
3.72041
3.53869
3.57715
3.97431
5.38289
7.13771
6.18363
6.35461
8.2634
6.22446
5.75915
5.61675
5.85256
6.34447
5.7334
4.91426
4.33703
3.88169
3.58996
3.44396
3.34083
3.27705
3.24957
3.24613
3.2297
3.24182
3.25213
3.25616
3.29366
3.33688
3.45341
3.64162
3.79579
4.00683
4.83854
6.34007
6.11669
5.99228
1.83053
1.9319
2.01575
2.07577
2.1043
2.12123
2.16733
2.18546
2.13388
1.82141
1.54193
1.59163
2.27782
4.54675
3.22737
3.93928
5.45278
6.54658
6.26489
5.35001
4.4105
3.81807
3.51721
3.35347
3.22972
3.13628
3.12011
3.1815
3.29131
3.35738
3.33575
3.22855
3.05136
2.90829
2.90307
3.13875
3.58304
3.82784
3.68521
3.29776
3.21778
3.75055
4.70394
4.77666
4.09724
3.92979
3.8786
3.81033
3.9186
4.29136
4.98794
5.81938
6.28256
6.12955
5.90628
5.54234
5.41151
5.34259
5.48418
5.56171
5.68001
5.56967
5.50621
5.40264
5.32913
5.37757
5.33835
4.88463
3.91863
2.91351
2.40169
2.4193
3.35807
5.45614
5.61008
5.49735
5.13408
4.93886
4.91932
5.01413
5.18836
5.34113
5.63278
5.91842
6.19153
6.40439
6.40382
6.50736
6.44676
6.48343
6.45405
6.46315
6.38693
6.35251
6.26449
6.23386
6.20147
6.21641
6.23231
6.26201
6.3131
6.36233
6.40053
6.46337
4.51799
5.06178
4.94845
4.47499
4.00812
3.64044
3.46916
3.34357
3.29235
3.30459
3.33398
3.41478
3.42632
3.47273
3.49592
3.51535
3.55273
3.60834
3.7332
3.93227
4.09818
4.33045
4.52738
4.9107
5.08165
5.06741
4.7759
4.78483
5.20895
6.01623
7.16907
6.76359
6.6838
6.15633
6.61921
7.17052
6.92152
6.3803
5.93751
5.58782
5.27304
5.08552
4.98109
4.91856
4.85728
4.73943
4.50373
4.23491
4.02643
3.83388
3.72676
3.73122
3.60805
3.55895
3.57833
3.80346
4.42671
5.34837
5.72314
5.13605
5.03391
5.99766
7.13545
6.53021
6.12474
5.69896
5.81829
5.90464
6.25632
6.5392
7.02385
7.23965
7.48033
7.30569
7.35456
7.4258
7.25985
7.10387
6.93005
6.79977
6.53664
6.41173
6.2161
6.14658
5.95361
5.83389
5.67118
5.55056
5.71293
6.26274
6.27454
6.19922
6.05425
5.68699
5.47328
5.35795
4.76508
4.9622
5.42435
5.44145
5.39305
5.33873
5.36661
5.4378
5.53818
5.78024
5.9185
5.96637
6.12285
5.77864
4.86777
4.87032
4.89695
5.08995
4.43892
4.21187
3.66763
3.51572
3.74649
4.32858
5.64083
6.89239
6.37347
5.50651
5.29784
5.2496
5.23487
5.33771
5.4222
5.62125
5.69441
5.7273
5.64351
5.45588
5.42127
5.49226
5.47099
5.51183
5.40571
5.31627
5.37278
5.39249
5.5551
5.76767
5.47885
5.00864
4.71088
4.97439
5.92455
6.75568
4.8601
5.12658
5.34191
5.15831
4.63317
3.84324
3.62396
3.40533
3.1242
2.9698
2.88692
2.87799
2.92806
3.00586
3.23591
3.43463
3.57544
3.58448
3.56791
3.53797
3.56099
3.73346
4.13786
4.80837
5.60197
6.33199
5.71671
4.05041
3.6799
3.70038
6.74102
5.6718
5.53817
4.68449
4.35671
3.96921
3.73097
3.57309
3.53764
3.536
3.641
3.78139
3.96108
4.1355
4.44213
4.94899
5.17371
4.97986
5.53595
7.07072
8.04746
7.9162
7.61791
7.35639
7.57719
7.39643
7.17221
7.0363
7.07835
6.29501
9.09336
6.63302
4.95224
4.81199
4.85711
4.77005
4.61739
4.48937
4.35145
4.33826
4.4012
4.52644
4.68935
4.78696
4.78193
4.68513
4.56623
4.42861
4.33454
4.2452
4.16282
4.03132
3.8713
3.6996
3.55006
3.38986
3.77934
4.90861
6.55911
5.99547
7.91762
5.96417
5.59768
5.64536
6.01047
5.17048
4.2345
3.72991
3.47253
3.35436
3.32118
3.31466
3.31669
3.30711
3.29575
3.27661
3.24081
3.20582
3.17989
3.1855
3.19703
3.23393
3.33787
3.64258
4.01555
4.11845
4.10862
4.97879
6.32124
5.85912
1.9127
2.18393
2.38235
2.52217
2.55374
2.50892
2.37895
2.2644
2.1734
1.8685
1.5439
1.49897
1.96793
3.9608
3.15262
4.15973
6.30364
7.27068
6.42279
4.99759
3.97916
3.47688
3.24573
3.03586
2.80408
2.61954
2.59628
2.74981
3.00697
3.23854
3.27598
3.21623
3.04609
2.85644
2.79129
2.96996
3.41081
3.77492
3.64135
3.23549
3.15373
3.63717
4.67143
4.78714
4.22459
4.56408
4.3105
3.96871
3.9066
4.2291
4.88398
5.95686
6.29653
6.14631
5.99788
5.41148
5.38453
5.34803
5.55737
5.76047
5.94871
6.05823
5.86975
5.83216
5.67276
5.62207
5.56425
5.53141
4.75391
3.50601
2.57651
2.33531
3.02729
5.25033
5.62651
5.07894
4.78864
4.75077
4.86662
5.01393
5.26373
5.43272
5.60652
5.97663
6.10571
6.30201
6.33996
6.32284
6.3797
6.38544
6.45339
6.39999
6.44861
6.36236
6.35605
6.26666
6.23275
6.22619
6.24236
6.28325
6.32093
6.3428
6.41806
6.46024
5.51258
5.75696
5.02592
4.25273
3.70764
3.39059
3.27903
3.17453
3.17331
3.15592
3.1393
3.13534
3.17672
3.24965
3.32993
3.38354
3.4465
3.55377
3.70251
3.92789
4.08232
4.29157
4.46463
4.75216
4.9068
5.00759
4.74061
4.65266
5.0258
5.95621
7.05573
6.60045
6.56677
6.73639
7.01679
7.14466
6.91814
6.69682
6.01555
5.69231
5.54122
5.43513
5.34492
5.28709
5.16921
4.94745
4.62911
4.26512
3.97954
3.82896
3.78094
3.73128
3.69413
3.57954
3.51144
3.67807
4.19378
5.16503
5.73608
5.10183
4.97937
6.491
6.83158
6.3726
5.76096
5.79313
5.71732
5.98879
6.25281
6.67478
6.98693
7.21565
7.30527
7.2217
7.2631
7.20905
7.09527
6.99448
6.87927
6.78894
6.60986
6.39559
6.18287
6.0699
5.91363
5.87509
5.72143
5.57248
5.73372
6.26839
6.26947
6.17154
5.89532
5.50436
5.35475
4.92919
4.84583
5.33994
5.37923
5.16483
4.99982
5.01859
4.7082
4.64133
4.69746
5.28553
5.35786
5.77491
5.96458
5.89073
5.59895
4.90298
5.0869
5.26078
4.60303
4.35919
3.81337
3.45925
3.71097
4.31993
5.46966
7.08557
6.093
5.39128
5.18321
5.22555
5.24909
5.2794
5.4342
5.50321
5.58579
5.6806
5.61635
5.4823
5.48655
5.44975
5.53791
5.47211
5.38291
5.40266
5.23817
5.21207
5.40285
5.66821
5.75472
5.58598
4.83719
4.70057
5.43371
6.50458
4.85432
5.18414
5.30935
4.96133
4.32986
3.77086
3.53925
3.33653
3.13679
2.99271
2.98086
2.96091
2.96471
3.09848
3.34189
3.71859
3.86922
3.84467
3.73901
3.65154
3.74381
4.25179
5.42076
7.3043
8.07107
7.84456
7.48106
4.14526
3.68735
3.71112
6.73968
5.78955
5.59284
4.69886
4.28193
3.9691
3.73418
3.61797
3.5075
3.56684
3.65539
3.83092
4.13552
4.21168
4.47677
5.12965
5.41152
5.23636
6.58681
7.96371
7.99323
7.55231
7.23777
6.63192
6.19796
6.67048
7.10831
7.24435
7.7459
6.87747
9.26637
6.03749
4.96653
4.88718
4.73911
4.47787
4.30188
4.19561
4.1856
4.20604
4.27253
4.36889
4.49811
4.63279
4.63318
4.52857
4.44585
4.45098
4.64468
4.87378
4.95012
4.86628
4.58604
4.1788
3.80067
3.49933
3.31448
3.7475
5.95517
5.86498
7.71135
5.8524
5.51537
5.8146
5.16932
4.16781
3.6142
3.40513
3.36745
3.39245
3.45224
3.5192
3.54143
3.54588
3.51069
3.47497
3.42569
3.36334
3.26838
3.18168
3.15428
3.17102
3.2348
3.53151
4.20689
4.59351
4.2817
4.39156
6.05699
5.80455
2.04575
2.5283
2.83088
2.96603
2.97768
2.90755
2.67535
2.39646
2.15846
1.79428
1.5165
1.46677
1.85256
3.56602
3.24036
4.4988
7.25737
7.43826
5.89417
4.40721
3.62109
3.26402
3.06567
2.79517
2.51646
2.34902
2.36551
2.55675
2.86575
3.09648
3.14266
3.06261
2.87856
2.69053
2.64874
2.87706
3.43053
3.67472
3.45344
3.11
3.19425
3.80652
4.85916
4.89324
4.61426
5.38129
5.11455
4.15855
3.93168
4.12168
4.76333
5.75701
6.3298
6.40452
6.22169
5.5786
5.55232
5.6128
5.97499
6.18432
6.28417
6.16874
6.01372
5.80137
5.69328
5.63699
5.74375
5.61741
5.18513
3.99366
2.82103
2.34273
2.83437
5.09718
5.35503
4.78077
4.69605
4.81985
4.98285
5.15578
5.43955
5.47513
5.69035
5.8699
5.87672
6.01003
6.16743
6.20119
6.25838
6.34774
6.36555
6.44507
6.37431
6.38529
6.27793
6.27407
6.2696
6.22243
6.28747
6.32343
6.36574
6.23069
6.33303
6.3117
6.25138
6.06893
5.07297
4.34164
3.89733
3.6354
3.50235
3.31616
3.26932
3.13862
3.08949
3.07304
3.13802
3.19209
3.29875
3.39218
3.52856
3.70446
3.90074
4.04866
4.14457
4.27767
4.35044
4.5478
4.69236
4.7482
4.648
4.6047
5.03262
5.99175
6.70219
6.44366
6.61224
6.82538
6.78671
6.78792
6.74557
6.42133
6.26959
6.03906
5.86029
5.8408
5.77804
5.62955
5.40805
5.09567
4.6779
4.22557
3.97891
3.96343
3.9602
3.97149
3.83861
3.6409
3.56717
3.68273
4.18158
5.20132
5.86265
5.11504
5.24233
6.58623
6.68911
5.98003
5.71275
5.62146
5.8258
5.98715
6.1889
6.46613
6.88333
6.96522
7.0992
7.12664
7.09189
7.04608
7.00268
6.92945
6.89143
6.75465
6.7367
6.34071
6.23033
5.93475
5.74952
5.71165
5.67064
5.66357
5.89145
6.37766
6.29008
6.09831
5.76662
5.37627
5.32748
4.83005
4.91716
5.34552
5.17327
5.02697
4.89399
4.36852
4.17647
3.98716
4.20091
4.69555
5.18909
5.40094
5.67139
5.93645
5.78231
5.04443
5.25036
5.4319
4.6953
4.48665
4.0075
3.48572
3.71046
4.37078
5.59057
6.90363
5.95178
5.30091
5.22178
5.15178
5.24908
5.31463
5.29258
5.40451
5.55384
5.60855
5.58244
5.56967
5.44837
5.48259
5.37679
5.31551
5.43669
5.36045
5.28262
5.22042
5.10652
5.40782
5.81975
5.70766
5.21247
4.77015
5.16081
6.45637
4.84241
5.22122
5.26335
4.80668
4.15499
3.71288
3.48378
3.26406
3.05111
2.94738
2.90899
2.93
2.96764
3.1209
3.60048
4.06008
4.16079
4.03872
3.86918
3.76706
4.07029
5.24765
7.9456
8.58502
8.65277
8.35238
7.84095
4.61322
3.76595
3.93927
7.03847
5.8448
5.82931
4.78546
4.3485
4.10036
3.7976
3.70912
3.67728
3.6507
3.74861
3.96254
4.28652
4.39637
4.53403
5.45625
5.46026
5.4416
7.60947
7.88409
7.60918
7.28675
7.11952
6.64974
6.5205
6.34467
7.01699
7.45955
8.02296
8.07298
9.81222
5.90426
5.05469
4.87176
4.57074
4.33461
4.12227
4.08299
4.09001
4.17559
4.24656
4.27958
4.39664
4.52357
4.51521
4.4093
4.4761
4.87352
5.53933
6.06239
6.37084
6.37915
6.02409
5.26082
4.48113
3.77761
3.34159
3.36088
4.75029
5.93823
7.56287
5.76706
5.55603
5.75103
4.49029
3.72407
3.41833
3.39335
3.46649
3.59047
3.65473
3.6968
3.69924
3.68331
3.65057
3.59897
3.58682
3.54681
3.46165
3.33263
3.17485
3.14517
3.18774
3.35606
4.21115
4.97602
4.66519
4.58031
6.24947
5.77997
2.19181
2.81798
3.08914
3.09449
3.04487
2.98976
2.80249
2.44314
2.03784
1.65936
1.533
1.7187
2.19626
3.30404
3.39907
5.45774
7.88006
6.94248
5.17418
4.05294
3.50824
3.24586
3.08251
2.84352
2.561
2.34203
2.29794
2.38377
2.57467
2.7371
2.77142
2.6906
2.56417
2.50977
2.62219
3.01548
3.46458
3.47624
3.21582
3.16704
3.54082
4.40137
5.21321
5.03738
5.25199
5.94675
5.89286
4.34675
3.87812
4.11208
4.71509
5.5166
6.29772
6.41966
6.3348
6.29256
6.06495
6.32195
6.28468
6.25207
5.7888
5.83378
5.75453
5.76537
5.4797
5.38148
5.32536
5.42284
5.13988
4.22412
2.99675
2.38514
2.74514
5.03173
5.30698
4.7149
4.75071
4.94944
5.08792
5.33234
5.40832
5.44017
5.62333
5.40083
5.55643
5.66506
5.73182
5.8275
5.96737
6.03588
6.1531
6.37729
6.42659
6.31253
6.29454
6.2088
6.32422
6.26713
6.3193
6.38496
6.47391
6.08072
6.0557
5.81587
6.78028
6.41808
5.53125
4.90998
4.53936
4.23544
4.03271
3.72566
3.62295
3.43934
3.41407
3.39901
3.35993
3.45345
3.50166
3.61724
3.71853
3.82411
3.8967
3.98684
4.00474
4.11812
4.12545
4.32364
4.38148
4.50403
4.48974
4.61762
5.14978
6.16774
6.5545
6.20221
6.31622
6.49965
6.49402
6.29828
6.2194
5.92789
6.11039
6.23412
6.22795
6.09307
5.96243
5.69578
5.36195
5.07083
4.64622
4.23627
4.05802
4.05037
4.20733
4.00128
3.84813
3.72759
3.63049
3.81762
4.36714
5.44637
5.95373
4.99008
5.37454
6.49831
6.39955
5.54633
5.67053
5.76172
5.67573
5.91842
5.94158
6.33392
6.50982
6.71326
6.84068
6.91788
6.93013
6.9431
6.94505
6.93892
6.907
6.7989
6.78563
6.44816
6.13326
5.8256
5.79847
5.63251
5.59799
5.67266
6.02698
6.45496
6.28491
6.08146
5.68071
5.33592
5.08752
4.78995
4.92266
5.29033
5.0934
4.9516
4.56844
4.17392
3.89741
4.00141
4.18405
4.34423
4.8893
5.1356
5.50116
5.86494
5.90053
5.29734
5.29505
5.42218
4.79357
4.5196
4.16523
3.56762
3.76699
4.3693
5.31578
7.20054
6.10649
5.39386
5.21952
5.20726
5.20726
5.25623
5.30716
5.29481
5.45407
5.38626
5.26775
5.43338
5.50184
5.44446
5.23107
5.33572
5.34223
5.36599
5.41214
5.20194
5.02533
5.19366
5.56861
5.69097
5.49979
5.02802
5.23081
6.04317
4.88552
5.23854
5.20596
4.71427
4.10981
3.66976
3.44466
3.2184
3.03308
2.96374
2.96379
3.01174
3.11473
3.39107
3.98556
4.4611
4.39456
4.20098
3.97174
4.03209
4.8844
7.2443
8.16343
8.71052
8.44151
8.34409
7.67189
5.46439
3.93533
3.93583
7.44961
6.14797
6.27911
5.22573
4.54375
4.15263
3.98776
3.83517
3.83213
3.82208
3.95429
4.24593
4.6829
4.53801
4.58419
5.62489
5.47529
5.57976
7.61472
8.25408
7.43132
6.54089
6.69939
6.90406
6.01706
6.48656
6.81729
7.32092
7.57695
7.63864
9.39832
6.14208
5.19119
4.87501
4.5725
4.23625
4.10126
4.11152
4.19441
4.28351
4.28649
4.30272
4.33704
4.4784
4.44864
4.36915
4.733
5.72607
6.55207
6.80159
6.60708
6.64022
6.83931
6.55705
5.37358
4.23962
3.50002
3.25753
4.17699
5.92772
7.52256
5.75152
5.61873
5.14955
4.06416
3.52543
3.42214
3.46968
3.63811
3.72948
3.81658
3.80308
3.78074
3.7247
3.66291
3.65072
3.62404
3.57706
3.59694
3.51079
3.31934
3.13121
3.16048
3.27522
4.11609
5.29514
5.25021
5.05428
6.05705
5.79501
2.28351
3.02936
3.14371
3.05005
2.9536
2.89498
2.68368
2.23172
1.7858
1.66966
2.03361
2.60266
2.95745
3.09629
3.56763
6.60175
7.82804
6.20751
4.87883
4.09947
3.68822
3.49603
3.37992
3.22991
2.99775
2.72762
2.49516
2.38317
2.39642
2.43343
2.44815
2.44214
2.45509
2.55748
2.84804
3.23281
3.37656
3.26818
3.33983
3.71184
4.41176
5.0645
5.39778
5.07585
5.47828
5.92307
6.02088
4.68047
3.86621
4.0732
4.72038
5.53104
5.97593
6.39027
6.42295
6.74017
6.38387
6.19378
5.70012
5.54683
5.49206
5.63419
5.85288
5.88695
6.12327
6.09404
5.88271
5.56833
5.22898
4.2178
3.06943
2.41904
2.82906
5.14356
5.0094
4.7021
4.82762
5.00968
5.24755
5.30638
5.37243
5.41283
5.31554
5.31906
5.34203
5.30814
5.4696
5.61667
5.7608
5.88211
6.09119
6.4364
6.33948
6.35317
6.24378
6.19928
6.31618
6.33668
6.33147
6.45598
6.49657
5.72395
5.19081
5.17106
7.28223
7.03508
6.41621
5.91571
5.58187
5.32531
5.15063
4.89232
4.72704
4.43176
4.20459
3.97069
3.92659
3.88662
3.97855
4.00866
4.11038
4.12789
4.07187
4.06028
4.00007
3.99798
4.04461
4.10737
4.23274
4.34759
4.46375
4.79559
5.55339
6.31029
6.33044
6.22349
6.433
6.48119
6.36283
6.12263
5.77697
5.85887
5.85539
6.18517
6.16064
6.14484
6.11705
5.96089
5.50304
5.08468
4.70144
4.34282
4.09901
4.21309
4.28592
4.13316
3.95138
3.79215
3.82974
4.03017
4.69642
5.81162
5.91728
4.78255
5.49439
6.67741
5.99637
5.52896
5.69894
5.6204
5.73047
5.75246
5.81669
6.01283
6.27345
6.39263
6.64168
6.71802
6.78024
6.82575
6.87814
6.93154
6.94419
6.8569
6.72867
6.52725
6.3198
5.79791
5.58289
5.70974
5.80005
5.88714
6.21061
6.59315
6.28761
6.12645
5.68348
5.34438
4.96942
4.70788
4.83648
5.27583
5.06038
4.77269
4.66037
4.2852
4.2423
4.41788
4.08957
4.45448
4.62774
4.98077
5.34953
5.9524
5.8918
5.64858
4.96303
5.43839
4.80124
4.53937
4.29752
3.63744
3.8604
4.45563
5.22607
7.30365
6.24338
5.56943
5.31797
5.30368
5.22843
5.24521
5.22952
5.33797
5.36457
5.27719
5.14776
5.25368
5.51966
5.20258
5.18197
5.1421
5.15339
5.31869
5.28221
5.19876
5.07321
4.88637
5.38596
5.66646
5.51274
5.39862
5.2754
6.13651
4.88048
5.21509
5.21145
4.75414
4.18567
3.69142
3.49359
3.29438
3.13471
3.06217
3.07968
3.14432
3.34377
3.80548
4.51755
4.72709
4.52972
4.31008
4.08582
4.29208
5.72679
7.85702
8.6377
8.14357
7.51745
8.0548
8.06579
7.09307
4.04836
4.11856
7.20255
5.9692
6.06985
5.84985
4.66814
4.35269
4.08022
4.00301
3.9791
4.1815
4.4508
4.78708
4.87105
4.51546
4.58527
5.59701
5.13394
5.91341
8.12656
8.25055
7.06878
6.80556
7.315
6.86006
7.0286
6.23163
7.16837
7.17492
7.31815
7.60815
8.12122
6.41625
5.38899
5.02847
4.50311
4.1652
4.04329
4.07213
4.22523
4.31674
4.41023
4.31468
4.30423
4.4464
4.41303
4.39319
5.2818
6.50095
6.71661
6.31739
6.03245
5.97857
6.13967
6.40462
5.99946
4.75709
3.64546
3.25487
4.11982
6.07343
7.47559
5.74982
5.75652
4.67356
3.82171
3.48771
3.44266
3.57183
3.71998
3.80257
3.81913
3.79209
3.70684
3.67063
3.67881
3.68782
3.61154
3.57649
3.58635
3.59346
3.49161
3.1893
3.13729
3.2009
3.86745
5.41283
5.73803
5.87202
5.95986
6.04785
2.34647
3.063
3.14938
2.97368
2.81434
2.67509
2.42732
1.9669
1.7234
1.91646
2.41271
2.95407
3.61797
4.30302
4.63108
4.9857
5.41458
8.10806
7.30408
5.94087
5.0814
4.51992
4.20221
4.03993
3.95048
3.87162
3.69256
3.47849
3.1008
2.82155
2.62112
2.52214
2.5097
2.53628
2.64796
2.87224
3.14882
3.29935
3.40394
3.57676
4.06577
4.64867
5.15154
5.3502
5.53016
5.34719
5.2649
4.76083
6.13492
6.11599
6.16118
4.8461
3.8958
3.99853
4.65707
5.56927
5.90362
6.46153
6.34586
6.24553
5.8331
5.78211
5.60653
5.93379
6.19546
6.30689
6.03825
5.76864
5.69464
6.00505
5.98692
5.7423
4.99165
4.12432
2.99251
2.42928
3.04797
5.276
6.88848
6.61991
5.07366
4.7353
4.81631
5.09632
5.25999
5.35882
5.42526
5.37762
5.45457
5.38714
5.33272
5.39971
5.44996
5.46303
5.64157
5.7765
6.21954
6.39084
6.37249
6.25517
6.28582
6.16117
6.31148
6.29982
6.41606
6.45905
4.9339
4.41886
4.66787
5.91054
6.51347
7.21381
7.69913
7.60113
7.44868
7.2817
7.12998
6.96705
6.82079
6.64944
6.52848
6.35916
6.21412
5.94737
5.71944
5.44109
5.20064
5.07804
4.83658
4.71279
4.54222
4.3664
4.24831
4.14163
4.10233
4.19474
4.28167
4.42267
4.65481
5.07001
5.73125
6.24023
6.2317
6.07984
6.09535
5.92746
6.02359
6.00708
5.85676
5.24638
5.11234
5.44163
5.83435
6.1009
6.2594
6.31703
6.2292
6.02826
5.45432
5.10999
4.8327
4.45205
4.2332
4.22957
4.43013
4.34896
4.13778
4.01756
4.07856
4.49227
5.19459
5.89359
5.53721
4.5902
5.31908
5.57248
6.13782
6.59821
5.84166
5.29819
5.7389
5.75346
5.67235
5.66271
5.6046
5.61372
5.62893
5.96602
6.36327
6.60108
6.5955
6.71885
6.75001
6.86394
6.96893
7.02325
6.92261
6.62617
6.33366
6.30801
6.22213
5.90919
5.9671
6.3254
6.49308
6.49811
6.31195
6.3107
6.24705
6.15727
5.75451
5.38495
4.95215
4.62783
4.68636
5.05973
5.00191
4.82642
4.72987
4.50217
4.3938
4.42792
4.41475
4.54956
4.55983
4.78395
5.46218
5.79444
6.02022
5.68542
4.83255
5.29573
4.72348
4.51095
4.41774
3.73645
4.00814
4.42069
4.31136
3.97966
4.99209
7.1621
6.67391
5.77783
5.53779
5.37447
5.32236
5.31551
5.33603
5.29511
5.36594
5.3066
5.17565
5.24577
5.2803
5.1332
5.11046
4.99034
5.21387
5.35552
5.37002
5.31523
5.02643
4.76265
5.21194
5.58617
5.7228
5.56775
5.99496
6.46573
5.86942
4.98012
5.01029
5.24414
5.2313
4.93025
4.4838
3.8045
3.56127
3.43363
3.30763
3.25657
3.26003
3.38786
3.69157
4.40715
4.87084
4.71153
4.54104
4.35195
4.24911
4.777
6.8667
7.98509
8.72656
7.56266
6.96236
7.0889
7.71232
7.87653
4.65092
4.06512
5.63048
5.82737
7.3846
6.03948
6.10318
5.96434
5.56212
4.93187
4.58956
4.53082
4.69843
4.92707
5.11081
5.1887
5.10933
4.45679
4.72234
5.57969
4.92355
5.75273
8.12269
8.57224
7.6095
6.82827
7.11672
6.99524
6.72897
7.58094
7.2497
7.92162
7.48674
7.23655
6.60972
6.63235
7.9111
6.94401
5.81214
5.06309
4.44226
4.17521
4.04498
4.0875
4.25704
4.40516
4.4897
4.32243
4.26289
4.35193
4.3778
4.47044
5.62427
6.5664
6.34263
6.03969
5.77955
5.66984
5.76031
6.04798
6.308
4.89188
3.68143
3.39194
4.82047
6.30079
6.69594
7.59266
7.22388
5.7775
5.5854
4.33335
3.70632
3.46701
3.50189
3.62586
3.74052
3.8661
3.80792
3.75079
3.69908
3.6824
3.70227
3.7207
3.67593
3.57818
3.53996
3.58755
3.55542
3.29892
3.13534
3.15856
3.60034
5.15121
5.93073
6.11046
5.59666
3.72367
3.04308
3.1229
2.36273
3.11428
3.1364
2.95596
2.73454
2.48083
2.22104
1.88899
1.64214
1.64536
1.9803
2.72536
3.88124
5.40153
6.76166
7.6427
7.91061
8.14638
7.07184
6.20163
5.6069
5.18627
4.93195
4.78566
4.71138
4.65303
4.55219
4.43894
4.15438
3.85368
3.50768
3.1934
3.09844
3.03563
3.14511
3.27683
3.4335
3.59557
3.93061
4.4041
4.91646
4.97956
4.9405
4.86937
5.01576
5.05246
4.89724
5.09398
6.50801
6.35516
6.23069
5.37826
3.92691
3.9043
4.47299
5.23631
5.61666
6.05376
5.73489
5.96108
5.84672
5.75459
5.76762
5.99041
6.13859
6.10684
5.77717
5.38137
5.31748
5.62324
5.78404
5.37266
4.6552
3.64918
2.80117
2.50077
3.39274
5.70428
6.98056
6.15102
5.1549
4.80553
4.8034
4.94743
5.2214
5.42184
5.48308
5.6271
5.7995
5.66314
5.77945
5.58122
5.66022
5.71817
5.7313
6.09314
6.45318
6.45897
6.2612
6.29193
6.20908
6.13152
6.30798
6.17402
6.46397
5.16966
4.62633
5.40024
6.96667
7.27381
7.49457
7.62665
7.5866
7.51209
7.397
7.27133
7.1331
6.97396
6.80674
6.6481
6.49985
6.4532
6.41162
6.43758
6.46254
6.48668
6.22703
5.78029
5.58228
5.16541
4.8692
4.6398
4.45563
4.39247
4.39776
4.39303
4.51068
4.71026
5.03746
5.56233
6.18994
6.25573
6.17408
6.00163
6.0072
5.98174
6.09289
5.97947
5.10531
4.60356
4.80441
5.26082
5.57423
5.93805
6.15766
6.24189
6.2653
6.12279
5.7148
5.30642
5.02722
4.69611
4.35124
4.27938
4.47902
4.56954
4.48899
4.47644
4.58692
5.00511
5.62302
5.76827
5.12607
4.43829
5.36023
5.70397
6.09468
6.40308
5.59622
5.28497
5.52272
5.70709
5.60136
5.282
5.1968
5.13345
4.93732
5.21721
5.45051
6.23045
6.52859
6.6111
6.55298
6.85859
6.81399
6.93457
7.04169
6.9632
6.66492
6.40813
6.45063
6.79219
6.60014
6.36416
6.58966
6.86601
6.38216
6.33502
6.45409
6.18447
5.86825
5.48276
5.13256
4.59635
4.55353
4.74998
4.9789
4.90088
4.62128
4.66926
4.42168
4.48785
4.4518
4.55665
4.4843
5.04472
5.19825
5.94338
6.34227
5.88172
4.48514
5.06998
4.67328
4.5204
4.4022
3.8012
4.19565
4.47611
4.12729
4.40826
5.31462
7.13426
7.12027
6.21189
5.69227
5.57638
5.42682
5.29882
5.28681
5.3895
5.3335
5.31823
5.24352
5.31486
5.11224
5.08575
4.76015
4.87566
5.05529
5.20445
5.24812
5.15957
5.00276
4.74198
4.95164
5.63486
5.726
5.81083
6.68344
6.81617
5.25424
4.86713
5.043
5.11058
5.1866
5.13419
4.84835
4.40569
3.79143
3.57253
3.50652
3.47003
3.53988
3.74145
4.38441
4.85681
4.80999
4.67441
4.48967
4.35208
4.43114
5.1922
6.83185
8.21855
8.73182
7.66052
7.04635
6.74738
6.75577
6.45639
5.56351
4.66053
5.62392
6.00448