/*--------------------------------*- C++ -*----------------------------------*\
| =========                 |                                                 |
| \\      /  F ield         | OpenFOAM: The Open Source CFD Toolbox           |
|  \\    /   O peration     | Version:  2.1.1                                 |
|   \\  /    A nd           | Web:      www.OpenFOAM.org                      |
|    \\/     M anipulation  |                                                 |
\*---------------------------------------------------------------------------*/
FoamFile
{
    version     2.0;
    format      ascii;
    class       volScalarField;
    location    "0.004050000";
    object      sL;
}
// * * * * * * * * * * * * * * * * * * * * * * * * * * * * * * * * * * * * * //

dimensions      [0 1 -1 0 0 0 0];

internalField   nonuniform List<scalar> 
12384
(
25.9171
24.685
23.5173
21.9754
21.4373
20.9486
22.1165
22.43
23.5959
19.827
12.2134
6.09235
2.30165
1.47251
1.24039
2.39559
3.30052
3.87886
4.1584
4.35256
4.57567
4.65853
4.65442
4.86107
4.85017
4.954
4.87032
4.95009
4.96664
4.96778
5.05831
5.359
5.47448
4.94983
3.52936
2.65767
2.61898
2.8417
2.89794
2.59791
1.85002
1.62314
1.82361
2.65457
1.81688
1.76579
1.84628
1.84054
1.83265
1.78423
1.75687
1.69547
1.67469
1.59198
1.5333
1.62758
1.51639
1.77191
1.73531
1.99558
2.2313
2.32118
2.15301
2.03314
2.46888
3.97413
5.95265
6.8589
6.65224
6.209
4.92694
3.41264
1.96204
1.12675
2.03168
1.8243
1.79156
1.68705
1.55004
1.38404
1.20227
1.13335
1.14791
1.18
1.16761
1.18721
1.19849
1.21819
1.22907
1.27043
1.27904
1.2973
1.30207
1.31067
1.31635
1.31667
1.30219
1.25034
1.13458
1.09532
1.08673
1.0905
1.09248
1.0847
2.86524
3.29459
3.45105
3.47836
3.36773
3.21451
3.03353
2.8495
2.41512
2.54985
2.19805
2.34344
2.32626
2.29474
2.35941
2.3064
2.39761
2.47134
2.53252
2.50893
2.42213
2.15141
1.89178
1.82969
2.0447
1.7479
1.43842
1.13259
1.17305
1.07382
0.882739
1.09211
1.40279
1.47461
1.46262
1.57843
1.77787
1.96026
2.04699
2.08612
2.17259
2.23836
2.28556
2.29056
2.28998
2.23064
2.12934
1.95093
1.95964
1.8626
1.32414
1.54885
1.51372
1.48471
1.51314
1.45154
1.40763
1.6293
1.47969
1.36369
2.34533
2.06556
1.51073
1.1001
1.06341
1.21776
1.426
1.49665
1.52628
1.62727
1.53091
1.61383
1.60367
1.51811
1.45153
1.41728
1.38803
1.36825
1.35441
1.35896
1.35819
1.3616
1.38943
1.39298
1.42436
1.44053
1.46771
1.4396
1.01303
0.630719
0.768717
0.833696
0.88686
0.902282
0.928101
1.22593
1.60521
2.1828
2.25358
2.33859
2.31618
2.43075
2.57797
2.70208
2.87737
2.98463
2.99684
2.84875
2.79998
2.79771
2.56863
2.36291
2.86779
2.507
3.41534
3.80639
4.26451
4.2996
4.25062
3.29706
0.701647
0.745437
0.817822
0.737183
1.49874
1.59584
1.56083
1.54153
1.68888
1.74533
1.83126
1.63295
1.51036
1.53931
1.53063
1.53311
1.52937
1.53122
1.5386
1.55201
1.56504
1.58253
1.60724
1.63303
1.52231
1.09238
0.756551
0.616751
0.646238
0.777752
1.64429
1.93644
2.04912
1.95566
1.62104
2.05794
3.63869
5.17775
4.75216
5.37657
5.67862
5.82387
6.34263
6.14348
6.77325
6.73342
6.68431
6.73169
6.76095
6.71388
6.64027
6.49661
6.26843
5.99929
5.67419
5.36041
5.24439
5.07968
5.44312
6.40912
0.984345
1.42815
1.71875
2.56462
4.82491
4.67263
4.57717
5.16379
5.13714
5.01487
3.69868
4.20398
3.29114
3.44901
3.29319
3.2798
3.23467
3.14213
3.0102
2.80968
2.50898
2.16674
1.79774
1.70613
1.33491
2.01906
2.26361
2.89978
3.04405
2.98286
0.460474
0.686124
1.54697
4.52421
5.09363
4.80967
4.58466
4.33012
4.35918
4.30324
4.26887
3.78989
3.89549
3.27576
3.46111
3.07227
3.20391
3.01591
3.07002
2.90288
2.64742
2.26226
1.33483
1.06766
1.05157
1.05389
0.998135
0.984177
0.994682
1.13119
0.847843
1.33089
1.50876
1.57062
1.27891
1.371
1.22357
1.36062
1.31557
1.45958
1.4829
1.69363
1.69122
1.88117
1.84641
2.01101
2.00151
2.09256
1.99522
2.05553
1.94406
2.03006
1.99618
1.88228
1.75551
1.38597
1.28736
1.28084
1.30506
1.49766
22.4999
21.1212
19.4891
17.4848
15.9554
13.5709
14.511
15.1883
20.5165
23.0278
20.2966
11.0413
4.07466
1.65623
1.42943
3.74235
4.08689
3.87136
3.77009
3.70537
3.9361
4.02868
4.15079
4.28522
4.27416
4.29805
4.22121
4.18899
4.2501
4.35062
4.59945
4.89998
5.32999
5.29861
4.49941
3.2792
2.74323
2.69227
3.12529
2.98771
2.47034
1.81322
1.8075
2.56253
1.63163
2.08694
2.25758
2.2782
2.13721
1.94721
1.75128
1.59218
1.4609
1.40206
1.34912
1.43488
1.41689
1.62565
1.55384
1.79681
1.94088
2.07397
2.15564
2.05891
1.97482
2.18748
3.10327
4.83321
6.58104
7.37343
6.66589
4.88036
2.37662
1.19224
1.72416
1.87809
1.9631
1.89867
1.8079
1.6731
1.53656
1.29065
1.21096
1.16837
1.14907
1.12333
1.10729
1.09811
1.09827
1.119
1.14998
1.18638
1.22685
1.26143
1.2912
1.30561
1.30398
1.28168
1.19226
1.14687
1.1718
1.1785
1.16639
1.14625
3.91739
3.97825
3.84573
3.68528
3.52868
3.37128
3.21488
3.0679
2.89278
2.79488
2.81998
2.75496
2.89725
2.91352
2.95015
2.93378
2.98655
2.96735
2.99071
2.88206
2.71065
2.38511
2.07896
1.78416
1.91027
1.85625
1.77826
1.45354
1.27903
1.08625
0.946367
1.26544
1.45247
1.46643
1.80681
1.94449
1.75585
1.68691
1.81408
1.95534
2.13662
2.34885
2.56278
2.75486
2.90511
3.02281
3.05852
3.00534
2.97414
3.0772
2.67317
2.55058
2.69399
2.68289
2.51083
2.13457
1.69902
1.63597
1.6475
1.67767
2.64572
2.05062
1.31617
1.14081
1.26651
1.48381
1.57079
1.58777
1.57955
1.56279
1.51409
1.43694
1.32374
1.19325
1.08143
1.00577
0.954473
0.927917
0.919904
0.922948
0.938633
0.988555
1.04789
1.14034
1.24763
1.33991
1.42364
1.43871
1.15641
0.680968
0.808754
0.882442
0.933818
1.01308
1.19268
1.49806
1.67125
2.20881
2.15311
2.03249
1.98921
1.96881
1.96908
2.04173
2.1537
2.2803
2.3547
2.56971
2.67132
2.53577
2.58472
2.42792
2.74859
2.51806
3.70662
3.99881
4.67264
4.59631
4.22354
3.39499
0.775109
0.745484
0.69052
1.29616
1.60855
1.57448
1.55114
1.53651
1.56024
1.66325
1.72264
1.66121
1.54903
1.57063
1.56395
1.56401
1.562
1.56166
1.56863
1.57485
1.58814
1.59363
1.57729
1.55805
1.58188
1.63043
1.50034
0.950286
0.680392
0.696187
1.76077
1.98526
1.91425
1.66923
2.02594
3.19904
4.48694
4.78417
5.2096
5.36178
6.26041
6.78618
6.95865
7.60396
7.40758
7.45809
7.42006
7.43432
7.30461
7.14398
6.93317
6.65264
6.27858
5.7807
5.20523
4.6294
4.47111
4.68831
5.11163
6.08412
1.14093
1.66242
2.13322
3.30841
4.57778
4.28751
5.19581
5.60607
6.05361
5.58974
5.30708
4.53362
4.25749
3.9095
3.72833
3.59286
3.51492
3.45076
3.32748
3.02727
2.54654
1.9603
1.43673
1.25783
1.21535
1.16934
1.58266
2.1359
2.58604
2.97639
0.592433
1.17249
2.80755
4.67099
4.7022
4.42111
4.13483
3.98344
4.01054
3.88793
3.83651
3.67153
3.44151
3.14112
3.20976
3.04043
3.26498
3.34987
3.58281
3.76505
3.87785
4.05162
3.73886
3.67046
3.03469
2.02333
1.38165
1.21342
0.969479
1.04074
0.923991
1.51345
1.57066
1.61541
1.49446
1.7789
1.83341
2.02167
2.16904
2.81417
3.49304
4.01085
4.53659
4.85663
5.18742
5.37235
5.39848
5.56799
5.2856
5.41986
5.14326
5.25394
5.35715
5.18564
4.91856
2.94353
2.16964
1.52817
1.34578
1.39873
21.0205
20.5435
19.5159
17.8066
16.1382
13.6228
12.0866
11.0625
14.9823
19.8708
23.522
17.4519
6.42544
1.99138
2.60173
3.98734
2.86289
2.11148
1.97972
2.15573
2.57848
3.08782
3.43878
3.6913
3.90273
3.87642
3.80928
3.66408
3.72495
3.706
3.95391
4.39504
4.92306
5.39639
5.07898
4.00191
3.09846
2.73168
2.99257
3.43713
3.05359
2.19935
1.7952
2.52605
2.32251
2.72768
2.939
2.85709
2.6218
2.19535
1.7808
1.44891
1.31893
1.29265
1.2935
1.46566
1.41935
1.59398
1.50731
1.58907
1.69697
1.7862
1.86026
1.92145
1.83447
1.75879
1.95549
2.80625
4.65693
6.9178
7.78527
6.61295
3.19714
1.23521
2.10081
2.09857
2.24305
2.41884
2.44607
2.31992
2.13718
1.86421
1.71951
1.37707
1.32749
1.27221
1.20899
1.15405
1.10505
1.07368
1.07284
1.08572
1.12546
1.17874
1.23405
1.27915
1.29485
1.28914
1.24524
1.18971
1.1855
1.18391
1.17125
1.14948
3.86366
3.33063
2.93517
2.88016
2.99299
3.17466
3.25717
3.23791
3.22356
3.17076
3.05354
3.24894
3.26338
3.27597
3.45453
3.36622
3.54326
3.48704
3.4142
3.21968
2.97871
2.6385
2.28775
1.91468
1.81318
1.79772
1.89725
1.65716
1.42857
1.14822
1.04059
1.36937
1.46142
1.69397
1.67085
1.47682
1.44002
1.48659
1.67897
1.9661
2.31207
2.63683
2.88268
3.07239
3.19005
3.22599
3.25673
3.33376
3.26748
3.4236
3.26843
3.16268
3.29606
3.37741
3.28075
2.90732
2.1968
1.73448
1.7023
1.92138
2.87135
1.89568
1.28908
1.27726
1.49164
1.58389
1.60628
1.59559
1.55721
1.47677
1.31363
1.13437
0.99684
0.904878
0.857477
0.831734
0.817714
0.809658
0.802896
0.798578
0.811073
0.831683
0.877657
0.943141
1.05574
1.19779
1.34488
1.42816
1.27015
0.730253
0.824364
0.91396
1.02722
1.25838
1.49193
1.60485
1.96884
2.05286
1.9054
1.64496
1.59097
1.59122
1.58751
1.57929
1.56312
1.53923
1.50938
1.63375
1.84291
2.286
2.47528
2.1688
2.53416
2.06311
3.08939
3.77228
4.80451
4.82589
4.2995
3.47501
0.817152
0.744017
1.01382
1.58467
1.59749
1.56588
1.55383
1.55589
1.56022
1.56603
1.5655
1.57644
1.58569
1.59859
1.594
1.59348
1.58617
1.58684
1.58723
1.59839
1.61629
1.61995
1.62661
1.62973
1.58676
1.54255
1.62209
1.55122
0.913056
0.635259
1.84205
1.91716
1.64785
1.65058
2.72823
4.13306
4.53746
4.83507
5.02987
6.06035
6.53914
7.34325
7.55736
7.36957
7.43955
7.23368
7.2882
7.21991
7.27367
7.20244
7.02027
6.61296
5.95192
5.04034
4.18218
3.46083
3.48815
4.29725
4.93056
5.52867
1.23976
1.72638
2.59855
3.72141
4.32599
4.77703
4.93742
5.97469
6.12119
6.4345
5.79154
5.46029
4.71943
4.36566
3.82565
3.45222
3.33055
3.41194
3.20101
2.61698
1.85218
1.23963
1.05324
0.985971
0.944752
0.944346
1.19917
1.64902
2.01769
2.59828
0.757315
1.67891
3.77907
4.50477
4.35469
4.03584
3.93751
3.91315
4.06757
4.12732
4.08926
3.6733
3.46867
3.09786
3.12297
2.9372
3.13654
3.21637
3.45499
3.729
3.99368
4.16585
4.21667
4.37862
4.21712
4.0577
3.14395
1.72046
1.20525
0.890388
1.05493
1.62969
1.64627
1.85877
2.01825
2.58542
3.15838
4.04668
4.15276
4.58252
4.88652
5.06857
5.48477
5.66508
5.91234
6.01813
6.03952
5.94684
5.86596
5.78602
5.63405
5.78907
5.85008
5.96311
6.1523
6.03843
4.80366
2.55712
1.5668
1.3457
21.2398
19.5195
17.6756
16.1603
15.2637
13.828
12.4408
10.6972
12.1162
17.1281
23.1736
21.2161
9.20418
2.4029
4.64989
3.22747
1.82972
1.30153
1.37788
1.77975
2.52229
3.31294
3.8481
4.20242
4.61415
4.90932
4.80849
4.48838
4.10255
3.71969
3.76469
4.01552
4.67244
5.38124
5.49597
4.72934
3.50311
2.94317
2.99962
3.62859
3.57947
2.52515
1.84622
2.45127
2.4814
2.76694
2.77379
2.86342
2.67769
2.27254
1.70399
1.27445
1.1015
1.16874
1.25308
1.44507
1.50088
1.60259
1.49459
1.50297
1.44228
1.5473
1.56859
1.62923
1.64648
1.57624
1.55868
1.86344
2.80222
5.22937
7.56731
7.76304
3.99861
1.39886
2.17098
2.48226
2.78888
2.88833
2.81268
2.59828
2.35294
2.07855
1.86359
1.58733
1.44665
1.34614
1.30078
1.25467
1.19473
1.12669
1.06751
1.0542
1.05848
1.10282
1.17196
1.23558
1.27117
1.27862
1.26451
1.22847
1.20692
1.19196
1.16935
1.14003
2.88516
2.18581
2.18081
2.57401
3.10928
3.68297
3.81422
3.96345
4.02217
3.82841
3.77707
3.5572
3.61935
3.64336
3.72768
3.8141
3.79769
3.8293
3.62332
3.34475
3.10386
2.76437
2.49618
2.09172
1.86898
1.80399
1.86948
1.81381
1.59751
1.21311
1.13189
1.42862
1.45844
1.68259
1.37551
1.10338
1.18781
1.44014
1.70588
1.95943
2.25202
2.44502
2.54802
2.59976
2.64133
2.68659
2.88695
3.09654
3.21735
3.32343
3.55172
3.22447
3.48604
3.65189
3.71379
3.40486
2.63934
1.89896
1.70022
2.03284
2.77473
1.89332
1.27666
1.44149
1.58567
1.61255
1.60412
1.57702
1.48613
1.30473
1.10302
0.969568
0.909017
0.938934
0.933784
0.916441
0.929409
0.921938
0.89996
0.875586
0.861444
0.871566
0.909738
0.950161
1.02888
1.14148
1.30011
1.41951
1.29882
0.757169
0.857269
0.975702
1.17963
1.49121
1.60002
1.64423
2.01701
1.91259
1.61331
1.61621
1.62793
1.63471
1.63098
1.62595
1.62313
1.6057
1.56758
1.50938
1.47614
1.62496
2.13815
2.06345
2.26676
1.69947
2.49677
3.00079
4.67468
5.00191
4.50849
3.43428
0.815805
0.680282
1.34655
1.6176
1.58105
1.56922
1.57403
1.58292
1.59302
1.59033
1.59043
1.59132
1.59545
1.60425
1.6056
1.6003
1.60058
1.59527
1.5961
1.59946
1.60355
1.62274
1.61667
1.57346
1.61207
1.62106
1.55024
1.6238
1.35455
0.657402
1.89481
1.77513
1.53078
1.86139
3.29343
4.4963
4.6428
4.84053
5.69173
5.852
6.6528
6.61276
7.05392
7.15181
6.56448
6.18895
5.88466
6.16503
6.40165
6.67713
6.61198
5.92693
4.76979
3.49328
2.58296
2.04221
2.40609
4.32667
5.00856
4.85488
1.09201
1.79973
2.58812
4.01204
4.4706
4.86467
5.74308
5.84699
6.46826
5.80153
6.05555
5.29636
5.09709
4.46068
3.82014
3.1685
2.97148
3.16848
2.68145
1.63915
1.08753
0.90813
0.833454
0.805132
0.809068
0.807283
1.00074
1.28866
1.53863
2.10276
0.890815
2.45881
4.06348
4.18988
4.01894
4.0201
4.11073
4.32372
4.41194
4.56041
4.22808
4.0285
3.54212
3.38623
3.18441
3.19641
3.20635
3.34985
3.49296
3.66857
3.76279
4.01622
4.23323
4.30302
4.44122
4.56409
4.21289
3.78226
1.78869
0.921889
1.09946
1.70408
1.8563
2.21401
2.84515
4.04053
4.59073
4.85896
5.01208
5.20366
5.45867
5.64448
5.92045
6.29242
6.43437
6.52825
6.47121
6.27403
5.99015
5.6615
5.71866
5.59975
5.75303
5.8927
6.05159
6.07654
6.03058
4.65753
1.93568
1.32726
19.4408
14.7973
11.9791
10.2635
9.73953
9.41011
10.0815
9.89027
11.2868
16.3806
22.8494
23.4284
13.7008
3.09898
4.86053
2.94156
1.43585
1.07849
1.30056
2.00001
3.0714
4.00836
4.62366
5.43308
6.4534
7.3828
7.38182
6.1267
4.94504
3.97038
3.88983
4.03379
4.62547
5.52542
6.04268
5.32206
3.99505
3.0658
3.1539
3.92388
3.78395
2.69196
1.78176
2.38798
2.26062
2.04786
2.28403
2.56615
2.6042
2.20808
1.71946
1.1758
1.06204
1.16096
1.17441
1.53482
1.50764
1.60991
1.4686
1.4019
1.31233
1.2722
1.37181
1.35226
1.41436
1.40965
1.43992
1.40889
1.90025
3.47606
6.56544
8.15266
4.92255
1.53371
2.32502
2.82118
3.06009
3.03408
2.75099
2.46534
2.16405
1.90388
1.80562
1.48416
1.44128
1.31635
1.31747
1.28601
1.24411
1.18188
1.10873
1.04889
1.03495
1.05546
1.11654
1.18719
1.23447
1.25507
1.25691
1.2429
1.22762
1.21509
1.18017
1.13319
1.85931
1.58744
2.03027
2.77629
3.57402
4.14262
4.14284
4.41272
4.19129
4.0046
3.94308
3.99952
4.12432
4.0045
4.00372
4.01702
4.01081
3.82274
3.64182
3.25556
3.04967
2.75414
2.5186
2.16598
2.01412
1.81807
1.92413
1.90018
1.7182
1.25999
1.19747
1.44995
1.44748
1.31252
1.16845
1.12416
1.19407
1.34543
1.71732
1.92583
2.02206
2.1267
2.21251
2.24524
2.28341
2.43967
2.66729
2.97406
3.22274
3.37731
3.27715
3.34946
3.29193
3.51913
3.75485
3.50575
2.82815
1.97582
1.66436
2.04212
2.7457
1.6152
1.35928
1.54055
1.6077
1.60794
1.60351
1.54289
1.40908
1.20965
1.06648
0.993312
1.00109
1.06398
1.08729
1.09738
1.09663
1.06987
1.02297
0.967139
0.94205
0.962463
1.03429
1.0814
1.12694
1.1978
1.32122
1.42658
1.29162
0.737551
0.876355
1.0184
1.32672
1.58393
1.62823
1.89335
1.9542
1.65674
1.62672
1.64557
1.64877
1.63457
1.83883
1.8733
1.95565
1.6272
1.63392
1.57991
1.48239
1.48762
1.64243
2.0523
2.06691
1.58032
1.9623
2.49471
4.31987
5.06183
4.53274
3.47617
0.897531
0.748818
1.50306
1.60374
1.58223
1.57973
1.59328
1.60829
1.60921
1.6089
1.60531
1.59841
1.59977
1.60581
1.6042
1.60638
1.60303
1.60875
1.61552
1.60855
1.60634
1.61122
1.62687
1.57228
1.51021
1.59014
1.60068
1.5722
1.61134
0.755772
1.95501
1.68221
1.47879
2.25018
3.78769
4.48564
4.7472
4.77665
5.26921
5.80875
5.5421
5.94145
5.84022
6.24041
5.8616
4.94266
4.66364
4.9125
5.5926
6.05212
5.71568
4.42701
2.84641
1.69315
1.36271
1.3187
1.37644
3.74329
4.62718
4.9706
1.10619
1.51291
2.48949
3.8005
4.09931
4.68451
4.75576
5.30229
5.1992
5.7968
5.08646
5.08004
4.26612
4.31136
3.58152
2.8206
2.5359
2.70132
1.84192
1.12396
0.863238
0.802712
0.795599
0.813915
0.812355
0.792271
0.836062
0.981901
1.09964
1.59065
0.931125
2.81199
3.86248
3.83386
3.90873
4.10478
4.36478
4.3347
4.60043
4.35441
4.36406
3.94366
3.8199
3.44214
3.34795
3.29855
3.35115
3.39972
3.40417
3.30934
3.30741
3.38732
3.61733
4.1196
4.46233
4.53412
4.84124
4.69043
2.80533
1.09442
1.09612
1.72974
2.05827
2.72144
4.10733
5.08179
5.04802
5.43888
5.31331
5.62004
5.71391
6.0113
6.27739
6.45739
6.80027
6.84078
6.89145
6.69365
6.30516
6.04346
5.56739
5.54991
5.53349
5.80831
5.61167
5.23033
5.86987
5.69561
2.77914
1.4134
16.3007
9.80274
7.612
6.90993
6.63715
6.74621
7.51473
8.79552
11.7979
17.7645
23.3479
23.8797
16.3381
3.90988
4.55209
2.58717
1.1255
1.01819
1.48437
2.53402
3.71103
4.58813
5.38245
6.64022
8.35928
9.34812
9.08936
7.30351
5.36341
4.33377
4.17777
4.56422
5.41144
6.49831
6.85662
5.84714
3.96388
3.28861
3.53161
4.23141
3.68329
2.31765
1.53248
2.18575
1.95847
1.54311
1.67329
2.34228
2.51384
2.30938
1.77826
1.22101
1.05167
1.03308
1.09953
1.43012
1.44977
1.44979
1.27514
1.20963
1.15159
1.19395
1.27555
1.39938
1.43811
1.45847
1.33604
1.37536
1.57997
2.6682
5.3531
8.12677
5.61197
1.64894
2.59601
3.0447
3.10203
2.81593
2.48767
2.23959
1.93784
1.83655
1.70941
1.48038
1.49754
1.38813
1.29774
1.28685
1.26062
1.2092
1.13147
1.05451
1.02179
1.03044
1.08105
1.14231
1.18992
1.21889
1.23422
1.23966
1.23754
1.30353
1.24254
1.23101
1.38271
1.4179
1.99516
2.69752
3.23702
3.61719
3.61747
4.08603
3.81063
4.13466
4.12777
4.26024
4.07375
4.20305
3.98058
3.95513
3.73647
3.50098
3.19416
3.03116
2.86769
2.70679
2.54182
2.32235
2.1013
2.0001
1.94507
1.92761
1.72128
1.26872
1.25182
1.46434
1.41235
1.25878
1.19448
1.24907
1.35179
1.42609
1.51554
1.65804
1.75209
1.72944
1.76001
1.82552
1.95375
2.16982
2.5196
2.96897
3.24881
3.06316
3.06147
2.9141
3.10328
3.43154
3.5353
3.38759
2.75831
1.88947
1.55426
1.97309
2.42148
1.48768
1.46959
1.58303
1.68623
1.61729
1.59184
1.5317
1.41936
1.28011
1.17761
1.13559
1.14265
1.17724
1.20493
1.20703
1.18371
1.14182
1.08396
1.02417
0.994668
1.05294
1.1672
1.27054
1.31196
1.34087
1.39926
1.42606
1.21358
0.711265
0.890624
1.06584
1.4373
1.61939
1.63376
1.957
1.91357
1.63025
1.64489
1.64616
1.6363
1.93464
2.03474
2.33828
2.17962
1.74552
1.6377
1.62894
1.54299
1.45977
1.54826
1.97075
1.88674
1.54849
1.6553
2.13732
3.93795
4.95579
4.56053
3.40874
0.844111
0.800353
1.55328
1.60229
1.58462
1.59677
1.60872
1.61927
1.62548
1.62002
1.61161
1.60652
1.60633
1.60372
1.60796
1.60413
1.60953
1.62035
1.6203
1.62561
1.62475
1.6109
1.61879
1.62877
1.50054
1.49033
1.64283
1.60319
1.6456
0.927469
1.98045
1.59578
1.49379
2.5294
4.14584
4.56477
4.79433
4.85178
5.37842
5.47234
5.84101
5.59105
6.07429
5.51072
4.6676
3.79184
3.66318
4.13386
4.92291
5.51178
4.74381
2.98991
1.4525
1.09052
0.79566
0.825081
1.14101
3.15602
4.48992
3.90129
0.909245
1.47147
2.14264
3.40815
4.09189
4.03233
4.86402
4.61492
5.07884
4.78307
5.05847
4.35056
3.93785
3.7212
3.30265
2.38592
2.42319
2.51784
1.35289
0.973737
0.864567
0.797697
0.85195
0.854137
0.83933
0.826919
0.782615
0.814231
0.888886
1.05902
0.812904
2.77512
3.4987
3.71165
4.10264
4.35669
4.50923
4.76642
4.49954
4.56775
4.10647
4.19875
3.75155
3.56978
3.39445
3.42939
3.37949
3.30202
2.87911
2.51111
2.26139
2.28081
2.55359
3.23967
3.97664
4.8125
4.98463
4.92899
4.25603
1.26593
1.10004
1.7507
2.30701
3.25483
4.99375
5.2556
5.61547
5.575
5.7683
5.67093
5.90705
5.86189
6.12504
6.27206
6.35598
6.72184
6.62407
6.44031
6.66761
6.32097
5.8139
5.45184
5.44936
5.67482
5.43158
4.38346
5.06687
5.28702
2.56823
1.49183
13.9273
7.44639
6.16994
6.07619
6.27437
6.26784
6.81869
8.79815
13.7464
20.7416
22.5171
19.0922
11.4657
4.684
4.10353
1.87369
0.95347
1.11886
1.86665
2.95443
3.93971
4.68018
5.30638
6.46729
8.04872
9.61088
9.64339
8.86482
7.15205
6.11464
5.91828
6.25219
7.17329
7.72357
7.12946
5.33704
3.90592
3.62955
4.0398
3.86706
2.67159
1.58287
1.20638
1.94707
1.48339
1.30815
1.32911
2.23008
2.58411
2.31817
1.78685
1.33127
1.0643
1.00814
1.08872
1.10379
1.22347
1.12879
1.13773
1.14913
1.41708
1.50391
1.58855
1.59581
1.79002
1.78625
1.762
1.58693
1.70633
2.39667
4.79013
7.76049
6.0447
1.6687
2.45215
3.0327
2.95265
2.57603
2.35054
2.03418
1.94527
1.85127
1.67654
1.67755
1.59707
1.42877
1.44212
1.40298
1.35192
1.28031
1.18899
1.03839
1.0032
1.01273
1.05271
1.10311
1.13966
1.17266
1.203
1.22475
1.24108
1.38974
1.38201
1.45811
1.16634
1.26856
1.69986
2.11753
2.37885
2.65507
2.76735
3.24688
3.17948
3.548
3.48395
3.52615
3.78014
3.57201
3.649
3.45162
3.35486
3.18721
3.07104
2.9013
2.88732
2.71436
2.72251
2.4104
2.30718
2.09301
2.01848
1.89058
1.65514
1.20213
1.29583
1.47563
1.39035
1.27895
1.2963
1.40612
1.4761
1.66345
1.51562
1.4843
1.53948
1.62807
1.68318
1.82816
2.00282
2.15393
2.49539
2.94898
3.05481
3.01577
2.65754
2.9319
3.10703
3.21399
3.38871
3.09498
2.46705
1.70132
1.47013
2.02658
2.18318
1.57675
1.50467
1.85264
1.61534
1.60894
1.60312
1.56201
1.51115
1.43995
1.37369
1.31753
1.29078
1.28949
1.28949
1.26757
1.22079
1.15913
1.09571
1.04367
1.02404
1.10459
1.27342
1.41759
1.45793
1.47066
1.46028
1.40552
1.10746
0.675771
0.905829
1.1057
1.49069
1.62939
1.77485
1.98177
1.90752
1.63711
1.64696
1.63731
1.76748
1.95298
2.23891
2.18663
1.90589
1.92507
1.7185
1.64655
1.59616
1.46289
1.50797
1.80007
1.82339
1.63324
1.48098
1.91506
3.64827
4.7401
4.46369
3.48966
1.02619
0.858609
1.55391
1.59894
1.59182
1.60385
1.6214
1.62845
1.62934
1.63085
1.62056
1.70487
1.81474
1.67083
1.60837
1.60562
1.61827
1.61912
1.62782
1.63236
1.62811
1.63064
1.61679
1.63379
1.55678
1.47652
1.58303
1.64351
1.63873
1.1749
1.89767
1.54873
1.51913
2.64985
4.22567
4.85804
4.94691
5.1768
5.46328
5.53174
5.37453
5.41464
5.02203
4.8614
3.61507
2.84126
2.93663
3.56402
4.36438
4.28383
2.96248
1.51701
1.104
0.613143
0.516072
0.523716
0.861129
2.02268
3.80682
4.07977
0.734368
1.07972
1.46972
2.80677
3.44348
4.12249
4.22323
4.51466
4.38153
4.68061
4.33551
3.97685
3.04121
3.55566
3.08914
2.29631
2.26621
2.44522
1.28428
0.903652
0.823838
1.10627
0.905644
0.86415
0.855884
0.830751
0.790276
0.770321
0.88624
1.0606
0.872709
2.32335
3.14491
3.48672
3.66836
3.91359
4.25857
3.93766
4.05386
3.81021
4.17384
3.91196
3.87872
3.50317
3.47289
3.4989
3.34491
2.7381
2.11275
1.8178
1.80624
1.73111
1.77112
2.13484
3.43175
4.64747
5.02191
5.27945
5.03543
1.63255
1.00204
1.81641
2.58657
4.24934
5.19782
5.75916
5.58055
6.0616
5.68835
5.72738
5.44643
5.71357
5.74304
6.11145
6.52601
6.34456
6.01395
6.27735
6.13829
6.31168
6.18922
5.57778
5.42468
5.5886
5.35554
3.76771
3.86229
4.36645
2.53538
1.5115
11.1668
5.71596
5.46434
6.07046
6.56434
6.7588
7.68072
11.6099
18.6542
20.3381
14.4712
7.97346
5.6921
5.02366
3.84973
1.37102
0.956567
1.35207
2.06447
2.8506
3.53325
3.95477
4.28882
4.77107
5.64635
6.92916
8.3051
9.0244
8.73802
8.39745
8.25913
8.49695
8.38656
7.79812
6.19033
4.61406
3.95786
3.99213
3.4488
2.43513
1.60156
1.20118
1.18525
1.86726
1.22092
1.34004
1.34563
1.96923
2.67571
2.32047
1.80396
1.29485
1.1867
0.991942
1.06189
0.931082
1.08972
1.13257
1.43856
1.70815
1.83531
1.77955
1.63276
1.61026
1.46499
1.47107
1.53341
1.67551
1.74874
2.53334
4.60972
7.63037
5.72051
1.59341
2.66812
2.9458
2.75706
2.50736
2.15663
2.04049
1.96029
1.8016
1.8515
1.63424
1.54495
1.47442
1.38068
1.34575
1.30015
1.25431
1.12463
1.00105
0.984964
0.99485
1.026
1.06068
1.09262
1.1336
1.18296
1.22364
1.23498
1.56801
1.86313
1.88467
1.02517
1.0699
1.27552
1.45646
1.57139
1.6645
1.71033
1.85375
1.93294
2.1313
2.37705
2.67611
2.74524
2.88196
2.73673
2.76893
2.60112
2.6205
2.69978
2.71194
2.77746
2.73453
2.58221
2.50478
2.27576
2.09728
1.94529
1.77537
1.45348
1.12019
1.33014
1.46644
1.37526
1.33246
1.41595
1.50102
1.61883
1.59606
1.65509
1.48914
1.47456
1.4829
1.51585
1.56788
1.78107
2.05357
2.41826
2.75344
3.04413
2.75486
2.67971
2.7189
2.93646
3.14703
3.07017
2.78022
2.13352
1.46769
1.46092
2.16958
2.1313
1.43715
1.71879
1.78011
1.66544
1.61757
1.60812
1.59938
1.58446
1.55776
1.51684
1.47355
1.41817
1.38464
1.36206
1.32531
1.2576
1.16764
1.0896
1.04607
1.04431
1.13664
1.31543
1.46477
1.50324
1.47761
1.423
1.277
0.948725
0.636089
0.91495
1.10877
1.49628
1.63037
1.84686
2.04715
1.94486
1.63878
1.64393
1.64426
1.6404
1.84814
1.92397
1.66699
1.97789
1.77708
1.66542
1.6561
1.61694
1.45935
1.46506
1.66332
2.11123
1.62162
1.46533
1.80431
3.40941
4.72066
4.38589
3.41135
1.08814
0.840216
1.52761
1.59932
1.59182
1.60588
1.62423
1.63189
1.63569
1.62977
1.62884
1.77563
1.85453
1.75402
1.60864
1.62222
1.62322
1.63107
1.64385
1.63649
1.63775
1.64219
1.62534
1.62231
1.61143
1.50566
1.56916
1.62699
1.63763
1.36633
1.88313
1.55849
1.47573
2.45032
4.07189
4.95519
5.10548
5.29802
5.64521
5.61633
5.36392
5.10653
4.5607
3.77916
2.73207
2.2457
2.65584
3.28207
4.20412
3.91662
2.34207
1.42082
0.781948
0.575506
0.54969
0.505149
0.688054
1.27536
3.76011
3.72973
0.844082
1.19365
1.42478
2.12866
3.49046
3.88035
4.24412
4.30086
4.36126
3.86167
3.57675
3.00752
3.0457
3.72808
3.42371
2.35151
2.77404
2.16704
1.24119
0.857714
0.992457
0.953953
0.90469
0.878232
0.855343
0.814842
0.781446
0.784692
0.906633
1.03095
0.910089
2.00296
2.76009
3.04631
3.58717
4.2898
4.16336
4.11922
3.58042
3.8276
3.65358
3.98637
3.77397
3.54805
3.50606
3.44191
2.94072
2.14355
1.85162
1.92933
1.88153
1.84505
1.79048
2.03886
2.78712
4.20097
5.37692
5.4574
5.09646
1.95809
1.04742
1.88247
2.93966
4.72744
5.55929
5.6785
5.99575
6.05421
5.80325
5.8335
5.60822
5.65609
6.14861
6.33659
6.4685
6.27139
6.31315
5.94726
5.71258
6.15271
6.28596
5.80822
5.4263
5.44945
5.53186
3.57353
3.02209
2.89192
2.34196
2.08846
10.8728
5.58249
5.54017
6.42699
7.23085
8.01383
9.85963
15.9009
19.8286
16.4069
9.94404
6.11701
4.01232
2.81224
2.42325
1.90708
1.77227
0.888964
1.0193
1.43703
1.87891
2.34701
2.69803
2.93045
3.07454
3.1898
3.50567
3.97025
5.1484
6.26292
7.43238
8.03456
8.16205
7.91714
7.3278
6.05356
4.8618
4.21588
3.65899
2.94891
2.12108
1.58325
1.34634
1.27866
1.1782
1.43471
1.43065
1.94059
1.28102
1.37639
1.35924
1.97118
2.65016
2.48275
1.8168
1.27095
1.17955
0.958554
1.05334
1.07232
1.33552
1.5685
1.79392
1.64601
1.46866
1.36227
1.42262
1.52036
1.55915
1.41551
1.44135
1.53669
1.99159
2.71582
5.00051
7.62042
4.92861
1.64617
1.17634
1.44956
2.50345
2.8119
2.71744
2.3694
2.15249
2.0135
1.8732
1.85015
1.67106
1.54698
1.4996
1.36707
1.34634
1.32321
1.28897
1.20252
1.0464
0.964668
0.964184
0.978267
1.0011
1.03636
1.07356
1.12923
1.18558
1.22189
2.10732
2.68738
2.49752
1.56036
1.25786
1.05316
0.863658
0.907322
0.945443
0.967369
0.977605
0.985076
0.991638
0.995243
0.994494
0.989237
1.0195
1.06729
1.1523
1.26859
1.39352
1.4201
1.59484
1.6202
1.76382
1.91415
2.04955
2.212
2.29092
2.12455
2.01742
1.88303
1.7762
1.63024
1.37308
1.13478
1.097
1.20963
1.3739
1.47262
1.40432
1.43144
1.52141
1.84496
1.9486
1.73467
1.57858
1.49866
1.45183
1.43989
1.48069
1.59311
1.87032
2.06607
2.26059
2.65878
2.83576
2.80249
2.54665
2.5722
2.78424
2.95647
2.81875
2.32967
1.76675
1.46277
1.6475
2.33033
1.6734
1.84577
1.55518
1.46803
1.73627
1.97085
1.61408
1.61062
1.61375
1.61123
1.73403
1.70759
1.81726
1.65516
1.51515
1.4715
1.4401
1.40052
1.33201
1.21983
1.10117
1.03588
1.03549
1.12552
1.27929
1.38564
1.38807
1.3357
1.21012
1.01671
0.79707
0.628234
0.737262
0.883939
0.9252
1.0989
1.46876
1.62602
1.85984
2.10266
2.0434
1.75808
1.64796
1.64575
1.64053
1.65443
1.66649
1.67041
1.67262
1.66551
1.6737
1.66837
1.6089
1.45697
1.41562
1.69311
2.23301
1.79351
1.60105
1.70245
3.21789
4.45684
4.11273
3.54057
2.95914
2.1061
1.34273
0.96369
1.46941
1.59973
1.58761
1.60349
1.61862
1.6271
1.62847
1.63217
1.62876
1.73243
1.80364
1.77364
1.62206
1.62833
1.62597
1.64496
1.64255
1.63051
1.62921
1.63621
1.64238
1.60716
1.64265
1.51059
1.52178
1.54692
1.47373
1.33339
1.26671
1.34502
1.63894
1.4935
1.44556
1.91606
3.36692
4.7961
5.10563
5.26125
5.32507
5.31815
5.20339
4.72612
4.14595
2.83658
2.1513
2.25689
2.57955
3.23157
3.69337
2.93286
1.55492
1.24914
0.641459
0.613281
0.682194
0.663371
0.621859
0.971141
2.89763
3.80797
1.74396
1.03352
0.730102
1.11749
1.21926
1.74867
2.43043
3.15469
3.57016
3.59125
3.2596
2.98841
2.69087
2.62836
2.63964
3.90545
3.13046
2.42901
2.89763
2.54107
1.22157
0.876168
0.789762
1.00741
0.867376
0.888529
0.863666
0.844206
0.793542
0.814669
0.920686
1.02957
1.02177
0.824922
1.01077
1.51077
2.09055
2.706
3.57081
3.88113
3.96145
3.74107
3.59965
3.48933
3.59879
3.90032
3.84849
3.8156
3.56419
3.50824
2.89464
2.10327
2.17716
2.18365
1.96149
1.8218
1.94058
2.01564
2.45471
4.32161
5.38518
5.42523
4.45024
2.01704
1.65102
0.855042
1.01124
2.13463
3.27331
5.12154
5.47501
5.87565
6.11797
6.09973
6.21279
5.50326
5.73516
5.71535
5.62274
5.6449
5.89604
6.25807
6.39877
5.81478
5.70856
5.80189
6.30832
6.17155
5.4654
5.41871
5.53855
4.01518
2.73724
2.59171
3.57165
5.43512
6.13209
5.97592
9.35705
4.84859
5.13305
6.04547
7.42173
9.30507
12.1435
16.9338
21.1752
20.8427
15.2576
7.6412
3.70512
2.03026
1.34601
1.04336
0.979541
0.89072
1.0973
1.34775
1.60678
1.87071
2.0941
2.23745
2.30719
2.30706
2.37228
2.38065
2.72013
3.12889
3.8505
4.75366
5.08367
5.37362
4.89137
4.38959
3.76126
3.16195
2.4248
1.89978
1.64539
1.78928
1.93732
1.978
1.76749
1.76591
1.87655
1.99059
1.32886
1.40384
1.36752
1.63164
2.75091
2.56814
1.98592
1.45969
1.27086
1.10093
1.29438
1.33014
1.54404
1.7005
1.72968
1.59683
1.50308
1.44441
1.56806
1.76982
1.83149
1.64851
1.57277
1.79527
2.25595
3.48855
5.65241
7.27539
3.98302
1.38192
1.22769
1.66602
2.24131
2.65412
2.65184
2.49446
2.22352
1.96444
1.82592
1.68792
1.41257
1.47127
1.2354
1.28848
1.19562
1.21697
1.18436
1.08768
0.949609
0.948114
0.958532
0.977074
1.00801
1.05039
1.1005
1.1682
1.22002
1.83637
2.4369
1.85599
1.12843
0.964717
0.881383
0.856774
0.860808
0.887658
0.915045
0.938375
0.963413
0.9951
1.02795
1.04832
1.05078
1.03891
1.01339
0.980642
0.940309
0.896478
0.93251
1.04401
1.05081
1.22866
1.34472
1.52283
1.66948
1.72477
1.74036
1.81049
1.75905
1.6942
1.60123
1.41041
1.17559
1.08794
1.14014
1.27312
1.41228
1.46407
1.44004
1.50579
1.9566
2.31561
2.17308
1.8602
1.71845
1.52484
1.45703
1.41238
1.4306
1.49713
1.70392
1.92173
2.12857
2.39483
2.7561
2.74793
2.5465
2.41061
2.52836
2.46229
2.38552
2.00344
1.58704
1.50343
1.888
2.55018
1.76413
1.67685
1.63017
1.49558
1.87459
1.97128
1.79067
1.64565
1.6861
1.94056
1.97112
2.07971
2.28582
2.06639
2.03859
1.58313
1.50687
1.47865
1.43821
1.32394
1.16948
1.04431
1.00637
1.04851
1.1363
1.18014
1.10999
0.943675
0.836674
0.777245
0.707016
0.633003
0.762872
0.898657
0.935805
1.08592
1.42203
1.61378
1.74688
2.12
2.15119
1.92678
1.67976
1.64864
1.6611
1.65504
1.67361
1.6715
1.67538
1.67122
1.68174
1.65333
1.60949
1.41298
1.35302
1.56224
2.76123
2.16022
1.6861
1.77116
3.09769
4.51761
3.94398
3.40133
2.43013
1.73377
1.30049
1.03531
1.37449
1.58572
1.59141
1.59478
1.60793
1.62188
1.62763
1.62317
1.6272
1.69081
1.74957
1.6207
1.63073
1.62862
1.65397
1.66002
1.65221
1.6295
1.62658
1.64407
1.64999
1.59857
1.64703
1.51972
1.49508
1.45111
1.1241
0.975417