/*--------------------------------*- C++ -*----------------------------------*\
| =========                 |                                                 |
| \\      /  F ield         | OpenFOAM: The Open Source CFD Toolbox           |
|  \\    /   O peration     | Version:  2.1.1                                 |
|   \\  /    A nd           | Web:      www.OpenFOAM.org                      |
|    \\/     M anipulation  |                                                 |
\*---------------------------------------------------------------------------*/
FoamFile
{
    version     2.0;
    format      ascii;
    class       volScalarField;
    location    "0.004100000";
    object      H2O;
}
// * * * * * * * * * * * * * * * * * * * * * * * * * * * * * * * * * * * * * //

dimensions      [0 0 0 0 0 0 0];

internalField   nonuniform List<scalar> 
12384
(
0.231888
0.235268
0.237015
0.236296
0.236287
0.234691
0.234674
0.233014
0.23266
0.225879
0.208776
0.177299
0.195282
0.228581
0.181693
0.192979
0.199503
0.202838
0.204615
0.206058
0.206975
0.207918
0.208639
0.209222
0.209773
0.210067
0.210534
0.210659
0.211019
0.211358
0.211678
0.211694
0.213209
0.214821
0.220158
0.21995
0.213083
0.202064
0.191302
0.179088
0.169098
0.16926
0.190447
0.228716
0.220414
0.225999
0.22863
0.229841
0.230383
0.230463
0.23004
0.229242
0.228083
0.226452
0.224772
0.22256
0.220237
0.218847
0.217565
0.215603
0.21416
0.21258
0.210365
0.209977
0.212568
0.223166
0.237976
0.242995
0.245106
0.245906
0.246044
0.2452
0.232412
0.206219
0.250153
0.249541
0.248911
0.247811
0.247783
0.248063
0.248322
0.248366
0.248068
0.247315
0.246635
0.244927
0.245711
0.245224
0.244707
0.245582
0.245614
0.245759
0.248115
0.249264
0.250167
0.250979
0.251249
0.249964
0.241224
0.232983
0.233204
0.234178
0.234748
0.23367
0.248257
0.24911
0.249206
0.249091
0.24928
0.24924
0.249724
0.2498
0.250381
0.25031
0.250489
0.250633
0.250779
0.250918
0.251278
0.251465
0.251481
0.251594
0.251573
0.251547
0.251746
0.251508
0.250878
0.249526
0.245411
0.23867
0.231271
0.223517
0.2218
0.22118
0.212146
0.244096
0.25217
0.251948
0.252046
0.252195
0.252143
0.252077
0.251536
0.250461
0.249749
0.249332
0.249112
0.249044
0.249088
0.249165
0.249331
0.249598
0.249829
0.250124
0.250588
0.250836
0.250964
0.251384
0.250476
0.250207
0.249252
0.251008
0.245101
0.212832
0.246212
0.246251
0.24532
0.238338
0.248604
0.252033
0.251748
0.251535
0.251518
0.251623
0.251822
0.252001
0.252235
0.252222
0.25209
0.251445
0.25073
0.24989
0.249728
0.249605
0.249857
0.250263
0.250905
0.251629
0.252014
0.252026
0.252071
0.252101
0.24249
0.176292
0.190831
0.198393
0.20506
0.207728
0.216669
0.252046
0.250819
0.250835
0.250984
0.251102
0.251142
0.251189
0.251235
0.251138
0.251084
0.251025
0.251022
0.25102
0.251045
0.25109
0.251175
0.251253
0.251261
0.251172
0.251127
0.251131
0.251206
0.251212
0.251225
0.25146
0.163461
0.161046
0.166257
0.208604
0.250578
0.247729
0.246936
0.246625
0.246491
0.246465
0.246515
0.246567
0.246599
0.246775
0.246803
0.246937
0.247066
0.24719
0.247323
0.247467
0.247614
0.247744
0.247855
0.248297
0.249755
0.252109
0.219066
0.176994
0.173888
0.190114
0.178938
0.184992
0.186266
0.19765
0.245137
0.246802
0.247596
0.250424
0.249104
0.251514
0.250148
0.251213
0.250696
0.250773
0.25072
0.250708
0.250731
0.25078
0.250799
0.250836
0.250908
0.251001
0.251038
0.251187
0.251177
0.251359
0.251391
0.251437
0.25133
0.250818
0.157434
0.165567
0.219817
0.251031
0.250853
0.25093
0.250886
0.250819
0.250744
0.250671
0.250588
0.250635
0.250548
0.250538
0.25049
0.250487
0.250476
0.250458
0.250427
0.25047
0.25057
0.250771
0.251004
0.251153
0.251249
0.251472
0.251276
0.251044
0.25027
0.243061
0.15574
0.1803
0.25144
0.250158
0.250198
0.25017
0.250104
0.250044
0.249981
0.249742
0.249757
0.249476
0.249439
0.249312
0.249223
0.249129
0.249037
0.248951
0.248885
0.248904
0.249043
0.249487
0.250683
0.250367
0.2025
0.163812
0.152005
0.148145
0.153134
0.166369
0.152855
0.155672
0.149151
0.14293
0.140074
0.142766
0.150355
0.159881
0.173156
0.184018
0.189171
0.196568
0.195699
0.211428
0.207196
0.222459
0.220765
0.222632
0.22677
0.222958
0.225269
0.219922
0.214525
0.203815
0.181404
0.159657
0.150602
0.150473
0.154454
0.166906
0.242974
0.243075
0.241915
0.23985
0.236868
0.231238
0.226892
0.2263
0.2316
0.234375
0.229346
0.210676
0.191996
0.211388
0.182303
0.199251
0.204606
0.205818
0.206391
0.206373
0.206274
0.2063
0.206632
0.207116
0.207547
0.207927
0.208211
0.208142
0.208229
0.207948
0.207646
0.207778
0.208804
0.211502
0.21642
0.220602
0.219084
0.211357
0.200346
0.188786
0.177298
0.170391
0.182456
0.223314
0.229788
0.237417
0.239348
0.239366
0.238896
0.238354
0.237944
0.237383
0.236227
0.234368
0.232474
0.229773
0.226255
0.222882
0.219858
0.217567
0.215597
0.21399
0.212142
0.210753
0.209843
0.212082
0.219824
0.233017
0.24132
0.24428
0.246119
0.246289
0.239412
0.20807
0.24941
0.245965
0.249186
0.251334
0.252135
0.252159
0.252219
0.252196
0.25217
0.252135
0.252101
0.252044
0.251564
0.250419
0.249166
0.247042
0.243968
0.241993
0.241253
0.243076
0.247142
0.249753
0.250859
0.250944
0.247956
0.239656
0.241408
0.242193
0.24077
0.238829
0.250318
0.248378
0.246339
0.243869
0.24325
0.244617
0.246315
0.247222
0.248005
0.248685
0.2493
0.249801
0.250295
0.250901
0.250937
0.251158
0.251202
0.251305
0.251452
0.251535
0.251862
0.251941
0.251345
0.250334
0.248515
0.241976
0.237773
0.238992
0.237234
0.230852
0.219659
0.251029
0.252085
0.252067
0.252152
0.251588
0.248653
0.241782
0.237903
0.237236
0.2392
0.242539
0.245867
0.248712
0.249637
0.250763
0.25174
0.251972
0.251966
0.251976
0.251934
0.252037
0.251779
0.25171
0.251226
0.250583
0.250133
0.250349
0.249243
0.242561
0.251258
0.247464
0.245792
0.249143
0.252089
0.251233
0.250946
0.251212
0.251743
0.252243
0.251164
0.24609
0.231841
0.223615
0.214993
0.213506
0.209126
0.207794
0.206401
0.20539
0.205732
0.20862
0.214489
0.225579
0.239477
0.249114
0.251992
0.252074
0.249034
0.186537
0.194485
0.204788
0.211077
0.220879
0.246796
0.251708
0.25083
0.250938
0.251132
0.251317
0.251443
0.251551
0.251729
0.251707
0.251715
0.251581
0.251464
0.251305
0.251145
0.251121
0.251223
0.251306
0.250811
0.248201
0.247
0.249578
0.250832
0.251121
0.251195
0.251486
0.161962
0.161149
0.195036
0.252078
0.248609
0.247143
0.246835
0.246752
0.246779
0.246944
0.247171
0.247357
0.247541
0.247694
0.247827
0.247934
0.24803
0.24812
0.248239
0.248408
0.248676
0.248966
0.248967
0.248125
0.247448
0.248186
0.250831
0.244929
0.184809
0.181618
0.181097
0.184159
0.202106
0.240903
0.246917
0.247135
0.247502
0.247756
0.249742
0.249883
0.250088
0.250102
0.250361
0.250656
0.250482
0.250595
0.250769
0.250742
0.250748
0.250774
0.250676
0.250633
0.250587
0.250539
0.250566
0.250554
0.250737
0.25115
0.25144
0.250923
0.159361
0.188186
0.249638
0.250929
0.250658
0.250426
0.250337
0.250349
0.250527
0.25052
0.250397
0.250242
0.249971
0.249807
0.249803
0.249924
0.249959
0.24998
0.250165
0.250559
0.250981
0.251082
0.250742
0.250115
0.250796
0.250333
0.251194
0.251146
0.250767
0.245822
0.164716
0.243302
0.25084
0.250256
0.250371
0.250287
0.25014
0.249924
0.249637
0.249423
0.249216
0.248987
0.248793
0.248607
0.248451
0.248289
0.248164
0.248029
0.247897
0.247693
0.247431
0.247053
0.24698
0.247878
0.249751
0.251701
0.222814
0.167175
0.142328
0.150873
0.153715
0.154193
0.146068
0.143179
0.149777
0.168269
0.199445
0.235674
0.251345
0.250816
0.24954
0.248524
0.247479
0.247235
0.24626
0.24634
0.24609
0.246131
0.2462
0.246328
0.246847
0.247238
0.248163
0.249126
0.250092
0.251164
0.207513
0.166234
0.15195
0.156343
0.243211
0.242174
0.240769
0.238581
0.235911
0.231781
0.225452
0.216426
0.217236
0.231742
0.2361
0.228495
0.205928
0.202495
0.188352
0.203363
0.205506
0.2066
0.2057
0.204736
0.204576
0.204968
0.206205
0.207951
0.209418
0.21101
0.211939
0.212937
0.212338
0.211973
0.208185
0.207578
0.204991
0.208274
0.21263
0.218759
0.221312
0.217178
0.207051
0.196392
0.185694
0.174964
0.178281
0.217348
0.237
0.242292
0.244433
0.242739
0.240281
0.238214
0.237422
0.236946
0.23517
0.23329
0.231966
0.231088
0.228829
0.22565
0.222806
0.220151
0.216833
0.215171
0.213158
0.211479
0.209775
0.209004
0.210059
0.217564
0.231184
0.240809
0.244758
0.246316
0.244036
0.210617
0.240937
0.250618
0.252228
0.251954
0.251933
0.25195
0.25203
0.252146
0.252188
0.252195
0.252185
0.252157
0.252134
0.252088
0.252067
0.251215
0.24951
0.24547
0.240227
0.237321
0.24032
0.246517
0.249852
0.250839
0.249701
0.245192
0.242651
0.242685
0.241392
0.238331
0.242891
0.233995
0.228591
0.229737
0.234187
0.23915
0.243032
0.24542
0.246076
0.246642
0.247361
0.247936
0.248826
0.249714
0.250768
0.250823
0.251043
0.251091
0.251281
0.25135
0.251617
0.251768
0.25186
0.251177
0.249726
0.246589
0.241524
0.24026
0.242289
0.237452
0.231663
0.252138
0.252075
0.252174
0.250717
0.243358
0.235017
0.234121
0.240502
0.247855
0.250067
0.251632
0.252078
0.252129
0.252176
0.252183
0.252096
0.252014
0.251914
0.251882
0.251778
0.251757
0.251485
0.251403
0.250873
0.250561
0.250634
0.250251
0.250269
0.248161
0.251763
0.248648
0.249212
0.252116
0.251187
0.250723
0.251097
0.252003
0.252376
0.242459
0.22379
0.215187
0.211457
0.211152
0.212542
0.212526
0.212075
0.21061
0.205899
0.203136
0.199831
0.199367
0.200198
0.205403
0.216464
0.233591
0.249043
0.252048
0.250774
0.195914
0.198303
0.210028
0.224108
0.245567
0.252123
0.251174
0.250857
0.251124
0.251283
0.25133
0.251371
0.251337
0.251379
0.251445
0.251644
0.25186
0.251999
0.251889
0.25156
0.251243
0.251168
0.251411
0.250129
0.232798
0.221364
0.236803
0.250224
0.251058
0.25117
0.25148
0.160986
0.171257
0.248366
0.250097
0.247688
0.247076
0.24701
0.247175
0.247464
0.247793
0.248054
0.248232
0.248339
0.248438
0.248504
0.248554
0.248577
0.248601
0.248628
0.248686
0.248949
0.249518
0.250471
0.250775
0.249658
0.247226
0.247507
0.250721
0.230676
0.175984
0.179955
0.18807
0.232037
0.246764
0.24752
0.247138
0.246466
0.249078
0.248403
0.249199
0.247796
0.245132
0.243994
0.244631
0.246877
0.249473
0.250738
0.25092
0.250928
0.250902
0.250792
0.250766
0.250854
0.250812
0.250652
0.25044
0.250438
0.250783
0.251479
0.25114
0.163866
0.214503
0.251259
0.25079
0.250452
0.250456
0.250656
0.250862
0.250768
0.250778
0.251025
0.251219
0.250562
0.249934
0.24963
0.249806
0.249774
0.250173
0.250886
0.250811
0.24356
0.22415
0.215135
0.209176
0.215963
0.222956
0.239171
0.249065
0.250009
0.246878
0.187537
0.251689
0.250574
0.250414
0.25041
0.250163
0.249905
0.249691
0.249457
0.249149
0.248867
0.248551
0.248269
0.248024
0.24785
0.247745
0.247771
0.247959
0.248059
0.248061
0.247851
0.24745
0.246987
0.246311
0.245748
0.246736
0.250251
0.243649
0.158069
0.137935
0.154276
0.151682
0.145246
0.151051
0.180205
0.231908
0.251506
0.249879
0.24746
0.245764
0.244895
0.244477
0.244579
0.244359
0.244517
0.244386
0.244202
0.243935
0.243917
0.243872
0.244177
0.244638
0.24562
0.247141
0.24836
0.248834
0.250596
0.241613
0.162501
0.146024
0.242728
0.240696
0.237268
0.235257
0.233577
0.231615
0.227861
0.218172
0.213107
0.22455
0.237058
0.234802
0.220307
0.202756
0.200265
0.203885
0.20766
0.206948
0.204621
0.203499
0.204128
0.206563
0.210013
0.213388
0.21751
0.221916
0.225999
0.227598
0.227156
0.222797
0.216716
0.210757
0.2059
0.205715
0.209812
0.21673
0.221907
0.220197
0.212168
0.202108
0.192616
0.18056
0.177526
0.212762
0.23902
0.246181
0.249068
0.245723
0.240952
0.237293
0.236577
0.235578
0.232455
0.229447
0.228455
0.228934
0.228612
0.226694
0.223873
0.220694
0.217804
0.21521
0.21324
0.211296
0.209781
0.208495
0.20741
0.209567
0.218864
0.233086
0.242003
0.245697
0.244606
0.212963
0.250085
0.252011
0.251819
0.251881
0.251885
0.251693
0.251658
0.251681
0.251946
0.252329
0.252061
0.252044
0.252056
0.252048
0.252058
0.251954
0.250755
0.248982
0.243111
0.236457
0.235297
0.241198
0.248591
0.250402
0.250316
0.247985
0.245139
0.244318
0.242428
0.238097
0.221008
0.219174
0.222989
0.230975
0.239065
0.244062
0.245963
0.247163
0.247823
0.248193
0.248038
0.248303
0.248448
0.249048
0.25002
0.250583
0.250759
0.250973
0.251073
0.251324
0.251439
0.251751
0.251919
0.25182
0.250737
0.249015
0.244249
0.239257
0.241561
0.239591
0.242718
0.25221
0.252158
0.252016
0.245182
0.237196
0.24006
0.248773
0.251277
0.25209
0.252157
0.252207
0.252096
0.251983
0.251865
0.251713
0.251576
0.251521
0.251555
0.251607
0.251631
0.251561
0.251442
0.251134
0.250739
0.250463
0.250219
0.250434
0.250418
0.249828
0.251485
0.25017
0.251757
0.25151
0.250571
0.250787
0.251891
0.25207
0.238627
0.224744
0.218964
0.22058
0.228806
0.233851
0.237228
0.237203
0.234799
0.23015
0.224138
0.217453
0.211782
0.209305
0.209475
0.210696
0.214992
0.226051
0.244402
0.251768
0.251174
0.201173
0.201566
0.219455
0.245808
0.252112
0.251577
0.25093
0.250948
0.251175
0.251162
0.250932
0.250522
0.250117
0.249887
0.249983
0.250313
0.25096
0.251609
0.252044
0.252021
0.251577
0.251227
0.251459
0.24915
0.216451
0.197863
0.218184
0.250551
0.251096
0.251157
0.251515
0.162408
0.198951
0.251908
0.248744
0.24742
0.247207
0.24744
0.247802
0.248158
0.248456
0.24857
0.248681
0.248722
0.248754
0.248789
0.248852
0.248905
0.248975
0.24899
0.248901
0.248764
0.248828
0.249803
0.25153
0.251767
0.250026
0.246987
0.247937
0.252322
0.180007
0.178512
0.196738
0.244104
0.248008
0.247667
0.246839
0.247956
0.248518
0.250003
0.24914
0.247465
0.241738
0.234703
0.234334
0.241658
0.24882
0.251178
0.251128
0.251008
0.25096
0.251258
0.251914
0.252282
0.252218
0.252063
0.251472
0.250902
0.250995
0.251561
0.251147
0.167563
0.232481
0.251362
0.250587
0.250666
0.250672
0.250662
0.249763
0.249517
0.249179
0.248568
0.249708
0.250997
0.250176
0.249602
0.249774
0.249858
0.250883
0.251014
0.230444
0.203227
0.195019
0.194043
0.198687
0.198363
0.20189
0.213827
0.236177
0.248732
0.247497
0.211286
0.251335
0.250537
0.250493
0.250379
0.250067
0.249964
0.249898
0.24971
0.249372
0.248861
0.248431
0.248093
0.247915
0.248025
0.248518
0.249333
0.250062
0.250335
0.250299
0.249795
0.248908
0.24796
0.246841
0.24588
0.244953
0.246266
0.250168
0.218743
0.131923
0.154398
0.149985
0.147809
0.170468
0.235552
0.251154
0.248456
0.246414
0.24526
0.245022
0.245319
0.245825
0.2463
0.246472
0.246555
0.246437
0.246139
0.245526
0.244759
0.244001
0.243633
0.24392
0.244906
0.247208
0.249666
0.250187
0.249724
0.251009
0.190087
0.141093
0.240505
0.231724
0.225087
0.223173
0.222339
0.221632
0.219453
0.212299
0.211159
0.223514
0.237995
0.237911
0.230303
0.207757
0.204853
0.205485
0.209496
0.205452
0.202677
0.202786
0.206169
0.210974
0.215549
0.221778
0.228782
0.235198
0.238005
0.238067
0.234774
0.228846
0.218894
0.211035
0.205297
0.204849
0.208687
0.216118
0.222779
0.222945
0.216128
0.206224
0.197803
0.185528
0.177258
0.208205
0.240369
0.247622
0.251048
0.247478
0.240195
0.236035
0.234927
0.233457
0.228768
0.225865
0.225857
0.226648
0.226739
0.225219
0.222523
0.21986
0.216723
0.214456
0.211934
0.2099
0.208015
0.206955
0.205726
0.205937
0.210673
0.223167
0.238474
0.244798
0.244862
0.215095
0.252188
0.251557
0.251896
0.251701
0.250802
0.250118
0.250245
0.250415
0.250745
0.250996
0.25116
0.251022
0.251136
0.251161
0.251277
0.251012
0.250424
0.249256
0.244982
0.236875
0.232277
0.236503
0.24537
0.24984
0.250299
0.248803
0.247198
0.246325
0.243806
0.238225
0.213327
0.217492
0.227416
0.235738
0.241765
0.245031
0.24704
0.247624
0.249212
0.2484
0.248901
0.248333
0.248382
0.248703
0.249443
0.250187
0.250661
0.250786
0.251046
0.251153
0.251484
0.251685
0.251913
0.251977
0.251258
0.24969
0.245935
0.237744
0.239454
0.240121
0.248757
0.252168
0.252175
0.249446
0.242443
0.244641
0.250555
0.252103
0.252177
0.252176
0.252089
0.251991
0.251864
0.251645
0.251391
0.251177
0.251047
0.251121
0.251286
0.251462
0.25152
0.251406
0.251381
0.251088
0.250711
0.25038
0.25025
0.25023
0.250438
0.250021
0.25157
0.25156
0.251786
0.250824
0.250514
0.2513
0.252184
0.248858
0.236723
0.232286
0.237327
0.244309
0.248752
0.249066
0.248378
0.246285
0.241777
0.237204
0.230827
0.224922
0.220963
0.22233
0.227663
0.229559
0.2293
0.233497
0.245694
0.251838
0.251289
0.200325
0.205254
0.227233
0.251989
0.251772
0.251079
0.250814
0.251021
0.251069
0.250753
0.250112
0.249392
0.249047
0.248773
0.249026
0.249096
0.249733
0.250625
0.25168
0.252114
0.251955
0.251459
0.251536
0.248132
0.204721
0.185743
0.210539
0.251202
0.25087
0.251179
0.25153
0.160718
0.217324
0.250803
0.248102
0.247463
0.247527
0.247849
0.248305
0.248639
0.24878
0.248833
0.248832
0.248811
0.24882
0.248838
0.248882
0.248997
0.249243
0.249528
0.249603
0.249308
0.248836
0.248906
0.25082
0.252179
0.251523
0.248397
0.247127
0.250993
0.199212
0.177656
0.201463
0.246428
0.248327
0.247935
0.247413
0.247907
0.249161
0.249308
0.250206
0.249303
0.242606
0.230096
0.226956
0.239041
0.250093
0.251298
0.251083
0.251045
0.251643
0.251781
0.222705
0.198457
0.194947
0.211181
0.248677
0.252079
0.251611
0.251782
0.250973
0.169742
0.240811
0.251073
0.250714
0.250703
0.250523
0.249977
0.25005
0.250296
0.249891
0.247838
0.243364
0.250112
0.250248
0.249611
0.249748
0.250363
0.251592
0.234772
0.199847
0.187276
0.190548
0.200408
0.206463
0.204928
0.200531
0.20093
0.219559
0.24398
0.247663
0.231054
0.251041
0.250554
0.250503
0.250344
0.250308
0.250512
0.250469
0.250357
0.24981
0.249139
0.248486
0.248155
0.248252
0.248984
0.250252
0.251203
0.251125
0.250746
0.250772
0.25115
0.251357
0.250243
0.248623
0.247065
0.245337
0.24445
0.247138
0.251175
0.13706
0.154336
0.150134
0.155331
0.205594
0.251384
0.248482
0.246104
0.245316
0.245499
0.246202
0.247096
0.247686
0.247922
0.247947
0.247848
0.247661
0.247508
0.247233
0.246724
0.245577
0.244103
0.243536
0.244098
0.246302
0.249937
0.250691
0.250418
0.250388
0.234082
0.142463
0.236426
0.219198
0.215563
0.215379
0.215083
0.213156
0.210128
0.207464
0.213251
0.232707
0.24025
0.239429
0.236448
0.217233
0.204187
0.208209
0.208821
0.202465
0.200958
0.204316
0.209374
0.214088
0.219657
0.227063
0.234608
0.239316
0.239753
0.238717
0.235316
0.225662
0.214372
0.207887
0.204246
0.205186
0.210146
0.218462
0.226128
0.225803
0.218763
0.208983
0.201211
0.189079
0.175416
0.203436
0.240512
0.247149
0.251671
0.248497
0.238991
0.23424
0.231958
0.229499
0.224788
0.222832
0.223603
0.224157
0.223627
0.221742
0.218786
0.21515
0.212045
0.209559
0.208599
0.208264
0.208082
0.207147
0.205646
0.205138
0.206975
0.215413
0.232823
0.244275
0.244818
0.216536
0.25174
0.251627
0.251889
0.251552
0.250343
0.249974
0.249993
0.250011
0.249864
0.249482
0.248948
0.249202
0.249488
0.249926
0.250355
0.250282
0.249937
0.248838
0.243467
0.234586
0.229545
0.233834
0.2436
0.249463
0.249857
0.24883
0.247763
0.246768
0.24426
0.239404
0.212826
0.220507
0.228196
0.232938
0.236372
0.240363
0.244992
0.246288
0.248113
0.248271
0.247681
0.247697
0.247664
0.248351
0.249213
0.250176
0.250446
0.250821
0.250897
0.251292
0.251515
0.251738
0.251917
0.251969
0.251108
0.249562
0.24526
0.235449
0.237905
0.240258
0.250002
0.25217
0.252088
0.248616
0.247252
0.251365
0.252168
0.252136
0.252095
0.252084
0.25206
0.25199
0.251828
0.251486
0.251123
0.250879
0.250854
0.251013
0.251329
0.251472
0.251409
0.251406
0.251359
0.251195
0.250839
0.250563
0.250299
0.25032
0.250663
0.250137
0.251288
0.251503
0.251398
0.250435
0.250634
0.251603
0.251993
0.250465
0.248883
0.249155
0.250332
0.251312
0.251316
0.250872
0.249479
0.248116
0.241451
0.235855
0.230664
0.227738
0.227725
0.236126
0.247027
0.249095
0.248629
0.247945
0.249833
0.25203
0.250448
0.195283
0.207136
0.23347
0.252178
0.251243
0.250751
0.250773
0.250982
0.250825
0.250237
0.249369
0.248663
0.248561
0.248448
0.248686
0.248704
0.249109
0.2498
0.251062
0.252015
0.252216
0.251706
0.251514
0.246911
0.196402
0.180909
0.21264
0.25129
0.250596
0.251173
0.251487
0.166966
0.242387
0.24993
0.247826
0.247516
0.247869
0.248337
0.248757
0.24892
0.248964
0.248942
0.24894
0.248918
0.248861
0.248884
0.248803
0.248874
0.249144
0.249661
0.250122
0.249963
0.249341
0.248715
0.250065
0.251905
0.252052
0.249846
0.248093
0.250249
0.213224
0.174646
0.202414
0.247842
0.248784
0.248428
0.247854
0.248114
0.248743
0.249186
0.249774
0.249876
0.244391
0.225258
0.22207
0.240112
0.251161
0.251212
0.251029
0.251635
0.248826
0.193777
0.168678
0.158754
0.156713
0.164344
0.199903
0.250234
0.252114
0.251812
0.251105
0.170106
0.242477
0.251142
0.250785
0.250742
0.25043
0.250091
0.250307
0.25057
0.25068
0.246853
0.235028
0.249942
0.25008
0.249631
0.249806
0.251128
0.249054
0.20996
0.186977
0.184047
0.194249
0.20414
0.205201
0.204485
0.202153
0.197786
0.209528
0.236133
0.246239
0.243449
0.250955
0.250603
0.250553
0.250492
0.250808
0.250975
0.251194
0.250865
0.250494
0.249629
0.248736
0.248289
0.248643
0.249915
0.25134
0.251016
0.24774
0.24263
0.232688
0.231973
0.243058
0.251493
0.250761
0.248747
0.24639
0.244407
0.245226
0.251401
0.143534
0.15411
0.152
0.169715
0.24718
0.249591
0.24656
0.245477
0.245764
0.246697
0.247687
0.248352
0.24864
0.248761
0.248762
0.248419
0.248003
0.247613
0.247508
0.247508
0.247212
0.245818
0.243687
0.243745
0.245452
0.24987
0.250136
0.250585
0.250624
0.234061
0.146593
0.232642
0.21174
0.21304
0.215213
0.215481
0.212566
0.209453
0.212666
0.229879
0.239806
0.241018
0.240221
0.237544
0.22106
0.203348
0.211279
0.206223
0.199847
0.200936
0.20512
0.208643
0.212446
0.216669
0.222696
0.229956
0.237131
0.239537
0.239127
0.236552
0.228283
0.217961
0.212166
0.209434
0.211933
0.218629
0.226258
0.230501
0.228018
0.219348
0.210145
0.202431
0.18901
0.171338
0.194189
0.236016
0.245651
0.251961
0.249309
0.238286
0.232378
0.227629
0.223994
0.220395
0.218835
0.219143
0.21843
0.216187
0.213333
0.211632
0.213725
0.21978
0.227928
0.232617
0.231866
0.228273
0.222654
0.215425
0.210045
0.208777
0.213988
0.2302
0.243558
0.2444
0.21704
0.251558
0.251889
0.251938
0.251949
0.250483
0.249674
0.249374
0.248826
0.247845
0.243127
0.240494
0.238901
0.241782
0.245872
0.248372
0.249208
0.24849
0.246449
0.238198
0.229815
0.227098
0.233428
0.243684
0.249188
0.249214
0.248414
0.247513
0.245895
0.241914
0.238913
0.212667
0.22088
0.22444
0.225697
0.227655
0.230511
0.235275
0.240701
0.246318
0.247786
0.248827
0.24866
0.248733
0.249291
0.249917
0.250217
0.250652
0.250809
0.251185
0.251365
0.251602
0.251779
0.251786
0.251322
0.250163
0.24863
0.241658
0.231561
0.237374
0.240363
0.251078
0.252199
0.251663
0.249141
0.251426
0.252204
0.252003
0.251982
0.252043
0.252133
0.252173
0.252121
0.251932
0.251544
0.251088
0.250841
0.250851
0.251167
0.251433
0.251425
0.251387
0.251372
0.251313
0.251044
0.251014
0.250699
0.250412
0.250529
0.250798
0.250328
0.251236
0.251768
0.250934
0.250299
0.250727
0.251469
0.251887
0.252059
0.252055
0.252052
0.25222
0.252239
0.252132
0.252108
0.25128
0.249183
0.242036
0.234048
0.229034
0.229223
0.235049
0.247347
0.251622
0.252035
0.252023
0.252001
0.252021
0.252049
0.248515
0.188447
0.209418
0.239166
0.252018
0.250849
0.250554
0.250699
0.250868
0.250559
0.249752
0.24886
0.248432
0.248407
0.248465
0.248564
0.248643
0.248857
0.249364
0.250481
0.251941
0.252278
0.251812
0.251487
0.246131
0.191254
0.180691
0.225299
0.251271
0.250512
0.251092
0.251482
0.162049
0.229773
0.249941
0.24789
0.247772
0.248136
0.248611
0.248943
0.249099
0.24915
0.249203
0.24923
0.249205
0.24916
0.248988
0.248879
0.248803
0.249015
0.24961
0.250272
0.250488
0.249872
0.248891
0.249419
0.251818
0.251816
0.250701
0.250272
0.251647
0.246728
0.175184
0.201482
0.248203
0.249266
0.248763
0.248378
0.247934
0.249023
0.249144
0.249721
0.250306
0.243258
0.219503
0.219093
0.243499
0.251375
0.25104
0.251221
0.252372
0.198564
0.167466
0.158727
0.155363
0.153951
0.1572
0.18557
0.24807
0.252222
0.251511
0.250694
0.169664
0.241324
0.251377
0.250859
0.250836
0.250604
0.250537
0.250731
0.250642
0.250597
0.240765
0.226255
0.250824
0.249797
0.249623
0.249971
0.251629
0.242442
0.201333
0.184033
0.183984
0.193778
0.201341
0.201499
0.199254
0.200821
0.19595
0.204143
0.230714
0.244473
0.249645
0.250966
0.250688
0.25062
0.250818
0.251087
0.251036
0.251064
0.251158
0.250981
0.250293
0.249049
0.24848
0.248836
0.250406
0.251619
0.250442
0.247772
0.233426
0.213236
0.208632
0.216188
0.236835
0.25211
0.250218
0.247362
0.244701
0.244734
0.250784
0.157941
0.154066
0.15725
0.195596
0.251414
0.247773
0.245905
0.245827
0.24677
0.247906
0.24878
0.249315
0.249735
0.250162
0.250111
0.249963
0.249114
0.248056
0.247313
0.24725
0.24756
0.247313
0.244927
0.243605
0.244708
0.249474
0.249151
0.249806
0.250599
0.217842
0.147839
0.227988
0.208622
0.212882
0.217412
0.216968
0.216298
0.225373
0.237183
0.2404
0.239357
0.22975
0.223222
0.227507
0.217182
0.20236
0.211117
0.203436
0.199142
0.200447
0.203006
0.204768
0.206943
0.209136
0.212657
0.217692
0.225152
0.234489
0.238864
0.238759
0.237267
0.231925
0.227808
0.225809
0.227798
0.231074
0.233228
0.232299
0.226544
0.216623
0.206821
0.195513
0.179172
0.163873
0.187849
0.221964
0.243868
0.25213
0.250004
0.238217
0.231157
0.224032
0.21871
0.215324
0.21304
0.211167
0.211003
0.215734
0.227011
0.241409
0.248512
0.249599
0.250086
0.250102
0.249828
0.249108
0.245718
0.236244
0.224106
0.21626
0.218049
0.231395
0.243947
0.24369
0.215959
0.251527
0.251891
0.251993
0.251917
0.251251
0.249763
0.248669
0.247347
0.242358
0.234028
0.229053
0.227057
0.229981
0.236383
0.2424
0.244584
0.24312
0.23787
0.229862
0.2252
0.226926
0.235408
0.243994
0.247702
0.248126
0.247719
0.245908
0.237657
0.226563
0.227202
0.214041
0.219578
0.222185
0.225141
0.227073
0.226788
0.227288
0.227171
0.233234
0.241965
0.247449
0.24824
0.249532
0.249755
0.250314
0.250475
0.250768
0.250989
0.251236
0.251247
0.251356
0.250843
0.250376
0.249496
0.248452
0.243094
0.233696
0.228324
0.238193
0.238696
0.251811
0.252183
0.251269
0.250958
0.252181
0.2519
0.251781
0.251857
0.252003
0.252173
0.252151
0.252162
0.252093
0.251778
0.25134
0.251038
0.251066
0.251278
0.251443
0.251419
0.251408
0.251406
0.251276
0.250956
0.250948
0.250855
0.250574
0.250819
0.251063
0.250383
0.251192
0.251427
0.250531
0.250193
0.250599
0.251037
0.25121
0.251344
0.251479
0.251732
0.251965
0.252051
0.252066
0.252163
0.252131
0.251767
0.247262
0.235143
0.228118
0.229629
0.239645
0.249603
0.252018
0.252116
0.252158
0.252107
0.25208
0.251988
0.234211
0.181564
0.209868
0.234023
0.252108
0.250726
0.250453
0.250598
0.25075
0.250407
0.249529
0.248663
0.248312
0.248337
0.248413
0.248521
0.248671
0.24882
0.2492
0.250207
0.251908
0.252223
0.251909
0.251347
0.246485
0.190125
0.182379
0.236735
0.251054
0.250724
0.251118
0.251406
0.165345
0.23587
0.250078
0.247969
0.247773
0.248299
0.248811
0.249176
0.249297
0.249375
0.249451
0.249523
0.249535
0.249418
0.249221
0.248973
0.248849
0.24894
0.249535
0.250441
0.250765
0.250276
0.249092
0.24903
0.251374
0.251827
0.251824
0.252127
0.244642
0.227563
0.172236
0.196326
0.248385
0.249384
0.24941
0.248802
0.248605
0.248886
0.249142
0.249779
0.250598
0.238689
0.212093
0.215524
0.246739
0.251305
0.250771
0.251695
0.232888
0.181125
0.1683
0.166697
0.165127
0.165353
0.176885
0.210193
0.249837
0.251674
0.250858
0.250622
0.168454
0.234975
0.251512
0.250945
0.250854
0.250821
0.250724
0.250663
0.250669
0.248437
0.224997
0.222366
0.251383
0.249642
0.249604
0.250346
0.252151
0.238083
0.202846
0.185959
0.18528
0.193258
0.199106
0.200774
0.198289
0.197299
0.194582
0.202025
0.222311
0.24174
0.250721
0.251091
0.25074
0.250761
0.251017
0.251039
0.250094
0.250453
0.25063
0.251294
0.250619
0.249454
0.248586
0.248895
0.25064
0.252089
0.251479
0.24851
0.220182
0.195664
0.193075
0.200765
0.218606
0.250946
0.25087
0.247698
0.244891
0.244976
0.251168
0.182178
0.154192
0.164707
0.230359
0.25013
0.246886
0.246013
0.2466
0.247756
0.248855
0.249607
0.250092
0.250468
0.24982
0.249754
0.250206
0.250481
0.249346
0.247681
0.246975
0.247215
0.247642
0.246548
0.243728
0.244137
0.248714
0.249126
0.240654
0.236974
0.197711
0.176409
0.227032
0.207522
0.214548
0.217222
0.221026
0.229831
0.238028
0.24005
0.23851
0.229184
0.220414
0.216755
0.214278
0.213237
0.209587
0.207595
0.205198
0.204028
0.200384
0.200281
0.201672
0.203843
0.206054
0.207459
0.208612
0.208469
0.209161
0.212034
0.218887
0.228284
0.23544
0.23843
0.238119
0.237064
0.23626
0.236265
0.235481
0.233687
0.228493
0.218679
0.206136
0.193175
0.181132
0.169389
0.158728
0.174478
0.185268
0.193436
0.207091
0.244598
0.252116
0.250916
0.239301
0.23211
0.223527
0.216248
0.212722
0.212789
0.221779
0.23529
0.246988
0.250048
0.250859
0.25003
0.250091
0.250347
0.251221
0.252122
0.252024
0.251142
0.24921
0.240554
0.228802
0.226439
0.237928
0.24316
0.23691
0.247905
0.251893
0.251409
0.251709
0.251964
0.252052
0.252122
0.251943
0.250638
0.248598
0.245619
0.239756
0.230796
0.223954
0.22155
0.223233
0.226518
0.230461
0.231488
0.229036
0.225103
0.222809
0.223577
0.228834
0.236491
0.242423
0.244855
0.24722
0.246224
0.2398
0.216299
0.207715
0.209348
0.210853
0.212717
0.215875
0.221378
0.229438
0.237741
0.242091
0.240393
0.2328
0.224848
0.219096
0.216615
0.223169
0.23477
0.243522
0.246991
0.248172
0.248776
0.249114
0.249226
0.249211
0.249202
0.248858
0.248392
0.247505
0.243887
0.238361
0.23103
0.224347
0.228469
0.241037
0.238908
0.238797
0.250613
0.252039
0.252134
0.25184
0.252124
0.251899
0.251564
0.251548
0.25169
0.251898
0.252132
0.25213
0.252108
0.252178
0.25205
0.251739
0.251403
0.251289
0.251315
0.251407
0.251431
0.251424
0.251384
0.251215
0.251055
0.250939
0.250917
0.25086
0.251223
0.250986
0.250401
0.251003
0.251154
0.251256
0.251194
0.250299
0.250056
0.250371
0.250539
0.250666
0.250785
0.251052
0.251157
0.251393
0.251473
0.251535
0.251608
0.251825
0.25216
0.251016
0.240416
0.227355
0.226829
0.236385
0.248707
0.251851
0.252015
0.252024
0.251983
0.250753
0.246111
0.213286
0.177391
0.185441
0.201741
0.208932
0.228152
0.252155
0.250779
0.250339
0.250475
0.250617
0.250378
0.24958
0.248736
0.248332
0.248283
0.248366
0.24854
0.248752
0.248925
0.249244
0.250268
0.25197
0.252215
0.252035
0.251254
0.24764
0.190295
0.185736
0.244283
0.251054
0.250762
0.251218
0.251374
0.249629
0.212768
0.170625
0.195089
0.251503
0.248307
0.247925
0.248318
0.248875
0.249239
0.249415
0.249487
0.249561
0.249624
0.249638
0.249474
0.249282
0.249031
0.248917
0.249019
0.249459
0.250549
0.251074
0.250469
0.249033
0.248788
0.251405
0.251928
0.248022
0.20788
0.179727
0.172248
0.170292
0.168335
0.175359
0.198164
0.247434
0.250153
0.249559
0.249276
0.24919
0.248889
0.249388
0.250044
0.249963
0.227168
0.20435
0.215261