/*--------------------------------*- C++ -*----------------------------------*\
| =========                 |                                                 |
| \\      /  F ield         | OpenFOAM: The Open Source CFD Toolbox           |
|  \\    /   O peration     | Version:  2.1.1                                 |
|   \\  /    A nd           | Web:      www.OpenFOAM.org                      |
|    \\/     M anipulation  |                                                 |
\*---------------------------------------------------------------------------*/
FoamFile
{
    version     2.0;
    format      ascii;
    class       volScalarField;
    location    "0.004100000";
    object      H2O2;
}
// * * * * * * * * * * * * * * * * * * * * * * * * * * * * * * * * * * * * * //

dimensions      [0 0 0 0 0 0 0];

internalField   nonuniform List<scalar> 
12384
(
1.2928e-06
1.1045e-06
9.98249e-07
1.04411e-06
1.03234e-06
1.16813e-06
1.31315e-06
1.29745e-06
1.30569e-06
1.96757e-06
2.83985e-06
2.88028e-06
1.81473e-06
1.24394e-06
3.9709e-07
6.53605e-07
8.19144e-07
9.119e-07
9.57848e-07
9.88522e-07
1.01866e-06
1.03948e-06
1.06838e-06
1.09518e-06
1.12302e-06
1.12599e-06
1.1746e-06
1.14805e-06
1.24168e-06
1.17479e-06
1.34466e-06
1.26524e-06
1.47866e-06
1.48451e-06
1.53211e-06
1.46362e-06
1.33285e-06
1.26865e-06
1.2419e-06
1.12913e-06
8.87794e-07
7.37605e-07
8.9834e-07
1.14537e-06
1.29548e-06
1.29837e-06
1.27347e-06
1.25162e-06
1.21555e-06
1.18115e-06
1.15692e-06
1.13476e-06
1.12716e-06
1.07814e-06
1.0289e-06
9.61165e-07
9.18986e-07
8.89862e-07
8.27515e-07
7.90676e-07
7.93552e-07
7.39558e-07
7.273e-07
6.85336e-07
7.49451e-07
8.99645e-07
8.4924e-07
6.45888e-07
5.5829e-07
5.16514e-07
4.83149e-07
5.12003e-07
7.75149e-07
6.71195e-07
2.59554e-07
2.93793e-07
3.28746e-07
4.24913e-07
4.24583e-07
4.14277e-07
4.02107e-07
3.93749e-07
3.93841e-07
4.03849e-07
4.1521e-07
4.46284e-07
4.33278e-07
4.36659e-07
4.64954e-07
4.35239e-07
4.53762e-07
4.50659e-07
3.98088e-07
3.01875e-07
2.56983e-07
2.16171e-07
2.03242e-07
2.83338e-07
6.56831e-07
8.07867e-07
8.47578e-07
8.25793e-07
8.62997e-07
8.69458e-07
3.78401e-07
3.40238e-07
3.41939e-07
3.46064e-07
3.3439e-07
3.23876e-07
2.86834e-07
2.90355e-07
2.38793e-07
2.5118e-07
2.3175e-07
2.32502e-07
2.1514e-07
2.00003e-07
1.71509e-07
1.62264e-07
1.54627e-07
1.48503e-07
1.44229e-07
1.47622e-07
1.32903e-07
1.42418e-07
1.73325e-07
2.49319e-07
4.14384e-07
5.71908e-07
6.30336e-07
6.45395e-07
6.4403e-07
6.43772e-07
6.49277e-07
4.82954e-07
3.07187e-08
2.19249e-08
2.5873e-08
3.2007e-08
5.71097e-08
7.63451e-08
1.52848e-07
2.13488e-07
2.53735e-07
2.76895e-07
2.88656e-07
2.92146e-07
2.89076e-07
2.83021e-07
2.73637e-07
2.5872e-07
2.43247e-07
2.24932e-07
2.02711e-07
1.7853e-07
2.00321e-07
1.50704e-07
2.73349e-07
3.0446e-07
3.72843e-07
2.89665e-07
6.51462e-07
1.02584e-06
6.15744e-07
5.8256e-07
5.35925e-07
6.91563e-07
4.19003e-07
6.73028e-08
2.70445e-08
1.99329e-08
1.91116e-08
1.65116e-08
2.62118e-08
2.2121e-08
3.2417e-08
5.92202e-08
7.63409e-08
1.68157e-07
1.95946e-07
2.43519e-07
2.50994e-07
2.55715e-07
2.39041e-07
2.14855e-07
1.80113e-07
1.35991e-07
8.31873e-08
7.29454e-08
6.04643e-08
5.46992e-08
4.92397e-07
3.35174e-07
4.50787e-07
5.04161e-07
5.49156e-07
5.64032e-07
6.11003e-07
5.33746e-08
5.37684e-09
5.43293e-09
6.02091e-09
6.45475e-09
7.602e-09
1.04863e-08
8.68316e-09
1.71978e-08
1.69016e-08
2.17614e-08
2.21034e-08
2.50156e-08
2.71315e-08
3.13085e-08
3.54884e-08
5.01168e-08
6.03721e-08
7.24239e-08
7.57287e-08
7.26639e-08
6.6157e-08
6.54681e-08
7.32443e-08
6.14342e-08
2.66651e-07
2.46461e-07
2.68562e-07
5.89663e-07
4.41257e-09
4.79391e-10
2.69196e-10
2.25738e-10
2.06905e-10
2.03294e-10
2.10168e-10
2.17481e-10
2.21976e-10
2.466e-10
2.50512e-10
2.69201e-10
2.87247e-10
3.04709e-10
3.23295e-10
3.43507e-10
4.43057e-10
4.84524e-10
5.19799e-10
6.61024e-10
2.15179e-09
2.68995e-08
7.04756e-07
3.74527e-07
3.62138e-07
4.9311e-07
1.67674e-06
1.84786e-06
1.82332e-06
2.02259e-06
7.29127e-07
3.34924e-07
2.9776e-07
8.22957e-08
1.72013e-07
2.39785e-08
9.10686e-08
4.92489e-08
6.10221e-08
5.33948e-08
5.47806e-08
5.43943e-08
5.27838e-08
4.93354e-08
4.55405e-08
4.07361e-08
3.55828e-08
3.0237e-08
2.75151e-08
2.45215e-08
2.39732e-08
2.53849e-08
2.83657e-08
4.47326e-08
7.09255e-08
1.44245e-07
3.19875e-07
5.07899e-07
1.1744e-06
6.98689e-08
3.97646e-08
3.18151e-08
2.6288e-08
1.66608e-08
1.7464e-08
1.34271e-08
1.63983e-08
1.51661e-08
1.95501e-08
2.25926e-08
2.82661e-08
3.24658e-08
3.76645e-08
4.31182e-08
4.86729e-08
5.29148e-08
5.86291e-08
6.03216e-08
5.82028e-08
6.69425e-08
8.21568e-08
8.17767e-08
1.13404e-07
1.49843e-07
2.73118e-07
7.92456e-07
2.59445e-07
5.46419e-07
4.8177e-08
1.87994e-08
1.66495e-08
1.35622e-08
1.02837e-08
1.02981e-08
8.90061e-09
1.06007e-08
9.82247e-09
1.02344e-08
1.12405e-08
1.06701e-08
1.13903e-08
1.06096e-08
1.07945e-08
1.06995e-08
1.03658e-08
1.04105e-08
1.06906e-08
1.25539e-08
2.49704e-08
2.84588e-07
1.02257e-06
5.59665e-07
4.38613e-07
3.74844e-07
4.15934e-07
5.59877e-07
2.06844e-07
2.82201e-07
3.38035e-07
3.50374e-07
3.43267e-07
3.9956e-07
4.83723e-07
6.22181e-07
8.18157e-07
9.7113e-07
1.02138e-06
1.07772e-06
9.40034e-07
1.07802e-06
9.2471e-07
1.00912e-06
9.53076e-07
9.58491e-07
9.72668e-07
9.94266e-07
1.01787e-06
1.05799e-06
1.05683e-06
1.03792e-06
8.28059e-07
5.53977e-07
4.40535e-07
4.50067e-07
4.79006e-07
6.58436e-07
4.23186e-07
4.97209e-07
5.76096e-07
8.2686e-07
1.14279e-06
1.62469e-06
1.76341e-06
1.87297e-06
1.66783e-06
1.25577e-06
1.5554e-06
2.78923e-06
2.44246e-06
1.46833e-06
4.16406e-07
8.70178e-07
9.3674e-07
8.83093e-07
8.31553e-07
8.06431e-07
8.23654e-07
8.58855e-07
9.00387e-07
9.527e-07
9.90087e-07
1.02979e-06
1.04741e-06
1.07727e-06
1.10632e-06
1.12023e-06
1.2002e-06
1.22799e-06
1.38311e-06
1.43463e-06
1.53244e-06
1.5019e-06
1.45255e-06
1.36126e-06
1.29254e-06
1.24034e-06
1.09827e-06
8.54131e-07
8.7724e-07
1.17015e-06
1.19733e-06
1.07377e-06
1.03336e-06
1.02914e-06
1.03231e-06
1.02483e-06
1.00833e-06
9.8214e-07
1.00744e-06
9.69607e-07
9.17233e-07
9.04455e-07
8.72998e-07
8.41729e-07
8.36911e-07
7.65974e-07
7.66978e-07
7.21142e-07
7.35475e-07
7.04385e-07
7.00041e-07
7.71644e-07
8.80158e-07
9.31595e-07
7.27726e-07
6.01004e-07
4.20162e-07
4.80738e-07
7.00019e-07
6.79794e-07
2.98778e-07
4.6947e-07
3.12153e-07
1.92584e-07
8.28999e-08
7.1351e-08
6.33986e-08
6.13265e-08
6.27247e-08
6.64892e-08
7.24991e-08
8.11949e-08
1.48253e-07
2.09228e-07
2.84566e-07
4.03107e-07
4.89043e-07
5.46055e-07
5.90511e-07
5.32168e-07
4.36077e-07
2.83002e-07
2.25052e-07
2.28924e-07
3.94579e-07
7.39225e-07
6.88103e-07
6.74107e-07
7.3558e-07
8.21427e-07
2.80977e-07
3.81052e-07
4.79101e-07
6.05807e-07
6.16839e-07
5.73489e-07
4.58524e-07
4.06747e-07
3.62949e-07
3.24525e-07
3.00582e-07
2.65434e-07
2.39933e-07
1.98097e-07
1.45376e-07
1.29575e-07
1.26963e-07
1.20307e-07
1.139e-07
1.10066e-07
1.27372e-07
1.20319e-07
1.48592e-07
2.01542e-07
3.03324e-07
5.07367e-07
5.70214e-07
5.58241e-07
5.7661e-07
6.3655e-07
6.72083e-07
1.8559e-07
2.73505e-08
2.66963e-08
5.53939e-08
1.50211e-07
3.12038e-07
5.34291e-07
5.9867e-07
6.06759e-07
5.87258e-07
5.17548e-07
4.32782e-07
3.09337e-07
2.57073e-07
2.00143e-07
1.4469e-07
8.53946e-08
7.66156e-08
6.88692e-08
6.44731e-08
5.49508e-08
6.99489e-08
7.07198e-08
1.13543e-07
1.64949e-07
2.12182e-07
2.0722e-07
3.80432e-07
7.42413e-07
2.76831e-07
4.51457e-07
5.28395e-07
3.33115e-07
4.18385e-08
1.54815e-08
9.29274e-09
1.09196e-08
1.56121e-08
3.1224e-08
2.09437e-07
4.76733e-07
6.89235e-07
7.09073e-07
6.50826e-07
6.55012e-07
6.05615e-07
6.04932e-07
5.88607e-07
5.86286e-07
5.81357e-07
5.98967e-07
6.2955e-07
6.53685e-07
5.59848e-07
2.74439e-07
8.56678e-08
6.19058e-08
2.80787e-07
4.27986e-07
4.80558e-07
5.60684e-07
5.98668e-07
6.29192e-07
3.60899e-07
1.35626e-08
5.41496e-09
5.83053e-09
7.52126e-09
9.35168e-09
1.07788e-08
1.16956e-08
1.36441e-08
1.44269e-08
2.25661e-08
2.08348e-08
2.37681e-08
2.42188e-08
2.56354e-08
2.73236e-08
3.58903e-08
6.77569e-08
1.53885e-07
4.03217e-07
4.61169e-07
3.39874e-07
1.46571e-07
7.99128e-08
7.90664e-08
6.3802e-08
2.44787e-07
2.49119e-07
5.01683e-07
2.81016e-08
8.9507e-10
2.98083e-10
2.55094e-10
2.43481e-10
2.47188e-10
2.70185e-10
3.01829e-10
3.2784e-10
4.19575e-10
4.68164e-10
5.10791e-10
5.45064e-10
5.75414e-10
6.04326e-10
6.42214e-10
6.96352e-10
9.41835e-10
1.14893e-09
1.19783e-09
6.06108e-10
3.41034e-10
6.25361e-10
5.33338e-09
4.95909e-07
4.54501e-07
4.25273e-07
1.66824e-06
1.71347e-06
2.02524e-06
1.18175e-06
4.15643e-07
3.17079e-07
3.20585e-07
3.15896e-07
2.63307e-07
2.27542e-07
1.98954e-07
2.06375e-07
1.90386e-07
1.68033e-07
1.25276e-07
1.08961e-07
8.81267e-08
6.04209e-08
4.70454e-08
3.38525e-08
2.18266e-08
1.58679e-08
1.24061e-08
8.93512e-09
8.20204e-09
7.99392e-09
9.16344e-09
1.70358e-08
4.85398e-08
1.37512e-07
4.10491e-07
8.9964e-07
3.07807e-07
4.46667e-08
2.50402e-08
2.22864e-08
1.97714e-08
2.14701e-08
1.96833e-08
1.99267e-08
1.72913e-08
1.57495e-08
1.35053e-08
1.35358e-08
1.4678e-08
1.70945e-08
2.03184e-08
2.5303e-08
3.33901e-08
5.16631e-08
8.18001e-08
1.35104e-07
2.09175e-07
2.86993e-07
3.4737e-07
2.57716e-07
1.71174e-07
1.62338e-07
2.1595e-07
6.43642e-07
3.71493e-07
6.96725e-07
2.69319e-08
1.72554e-08
1.54287e-08
1.2762e-08
9.6163e-09
8.659e-09
7.35836e-09
7.50224e-09
6.6588e-09
6.9904e-09
6.30625e-09
6.51291e-09
5.84653e-09
5.47475e-09
5.52633e-09
5.62468e-09
5.69312e-09
5.48051e-09
4.9224e-09
3.89416e-09
3.51954e-09
4.62509e-09
1.0932e-08
6.29889e-08
1.05762e-06
6.05034e-07
3.2849e-07
3.95577e-07
2.31437e-07
3.24488e-07
3.48975e-07
3.54868e-07
4.54831e-07
6.81815e-07
1.07081e-06
1.03352e-06
1.31099e-07
3.57368e-08
1.29397e-08
6.44087e-09
3.19785e-09
2.54311e-09
1.17728e-09
1.38144e-09
1.10159e-09
1.10586e-09
1.24532e-09
1.35215e-09
2.10827e-09
2.50339e-09
4.64603e-09
8.71792e-09
1.97765e-08
1.6039e-07
1.15519e-06
6.6723e-07
4.72062e-07
5.4724e-07
4.8455e-07
5.56025e-07
7.61651e-07
9.05513e-07
1.18817e-06
1.60718e-06
1.81463e-06
2.2625e-06
2.23202e-06
1.52996e-06
1.15248e-06
1.67176e-06
2.72571e-06
1.60202e-06
5.60862e-07
9.14941e-07
7.94522e-07
6.40075e-07
6.08684e-07
6.03411e-07
6.24241e-07
6.98789e-07
7.90523e-07
8.72522e-07
9.47151e-07
1.0055e-06
1.0463e-06
1.05807e-06
1.10335e-06
1.07661e-06
1.14046e-06
1.12176e-06
1.26562e-06
1.36913e-06
1.48428e-06
1.51159e-06
1.4783e-06
1.41793e-06
1.3237e-06
1.29825e-06
1.26688e-06
1.04305e-06
8.52603e-07
1.1726e-06
1.05384e-06
8.01346e-07
6.79196e-07
7.7086e-07
8.83223e-07
1.02887e-06
1.01585e-06
9.81242e-07
9.90818e-07
9.32196e-07
8.87842e-07
8.42381e-07
8.30745e-07
8.07995e-07
8.14686e-07
7.5128e-07
7.57234e-07
6.93842e-07
7.11507e-07
6.90464e-07
6.94252e-07
6.99738e-07
7.31964e-07
8.75818e-07
9.59315e-07
7.47665e-07
5.0187e-07
4.07763e-07
5.67699e-07
7.2293e-07
6.10593e-07
2.3016e-07
4.94835e-08
3.38118e-08
3.63759e-08
3.99636e-08
4.2224e-08
5.12091e-08
4.98752e-08
4.80726e-08
4.82186e-08
4.84007e-08
5.66153e-08
6.44562e-08
8.00237e-08
1.7054e-07
2.71643e-07
4.5422e-07
6.00646e-07
6.3721e-07
6.14727e-07
4.58278e-07
2.79534e-07
2.28847e-07
2.99296e-07
5.66141e-07
6.5351e-07
6.66235e-07
7.0922e-07
8.3071e-07
6.3271e-07
7.76586e-07
8.06244e-07
8.20524e-07
7.8985e-07
7.23625e-07
6.14376e-07
4.98605e-07
4.54668e-07
4.35216e-07
3.8752e-07
3.61537e-07
3.08567e-07
2.65642e-07
2.02802e-07
1.47636e-07
1.30803e-07
1.28335e-07
1.17615e-07
1.14726e-07
1.02168e-07
9.62411e-08
1.16856e-07
1.55327e-07
2.33936e-07
3.84687e-07
5.21568e-07
5.60845e-07
4.97748e-07
5.76647e-07
6.69517e-07
6.35728e-08
2.69374e-08
5.09201e-08
1.98145e-07
4.95325e-07
6.26622e-07
6.36415e-07
5.72251e-07
3.80794e-07
2.35353e-07
1.48889e-07
7.60452e-08
6.1539e-08
4.81842e-08
3.16081e-08
2.81128e-08
2.57901e-08
2.61447e-08
2.64936e-08
3.2131e-08
3.52466e-08
5.1153e-08
5.67519e-08
8.46728e-08
1.1019e-07
1.69064e-07
2.04423e-07
2.11589e-07
4.57026e-07
9.47965e-08
3.90751e-07
3.46037e-07
6.92891e-08
1.40363e-08
7.51223e-09
8.70176e-09
2.51835e-08
1.6009e-07
5.8138e-07
7.62401e-07
6.97875e-07
6.4724e-07
6.51152e-07
6.35222e-07
6.51827e-07
6.27375e-07
6.17294e-07
5.84927e-07
5.65698e-07
5.33252e-07
5.2912e-07
5.3202e-07
5.74238e-07
6.31564e-07
6.21501e-07
2.78122e-07
7.73033e-08
1.9016e-07
5.1604e-07
5.23916e-07
5.96693e-07
6.35471e-07
4.08815e-07
4.3202e-08
7.91241e-09
5.5226e-09
6.55705e-09
9.09473e-09
9.50071e-09
1.00153e-08
9.4353e-09
9.96557e-09
1.04496e-08
1.25699e-08
1.71667e-08
2.47332e-08
2.56966e-08
2.26012e-08
2.27079e-08
2.65201e-08
5.74966e-08
2.93713e-07
8.93366e-07
1.00069e-06
8.61662e-07
1.93625e-07
8.30682e-08
7.75393e-08
6.69161e-08
2.4882e-07
2.98696e-07
3.16813e-07
2.72314e-09
4.66423e-10
2.88803e-10
2.79491e-10
3.02525e-10
3.42881e-10
5.00035e-10
5.83068e-10
6.39988e-10
6.74142e-10
7.05838e-10
7.26804e-10
8.57302e-10
8.73524e-10
8.89305e-10
9.08427e-10
9.49312e-10
1.137e-09
1.54439e-09
3.9438e-09
5.41453e-09
1.99032e-09
3.10074e-10
4.08755e-10
4.90219e-09
7.18048e-07
4.04379e-07
1.6274e-06
1.72332e-06
1.69673e-06
4.52101e-07
2.89605e-07
3.41113e-07
4.41879e-07
3.02964e-07
3.72027e-07
2.67198e-07
5.01449e-07
5.77717e-07
6.51883e-07
6.22121e-07
5.16382e-07
2.60942e-07
1.63724e-07
8.06384e-08
3.89115e-08
2.04907e-08
1.18832e-08
7.68177e-09
5.74653e-09
5.2764e-09
4.65315e-09
3.8349e-09
3.81052e-09
7.05629e-09
2.66831e-08
1.24823e-07
4.98173e-07
1.17033e-06
9.0661e-08
3.5337e-08
2.55852e-08
3.05598e-08
5.94568e-08
9.83755e-08
1.11391e-07
1.17406e-07
9.60391e-08
6.49948e-08
3.08043e-08
1.6322e-08
1.27111e-08
1.38181e-08
1.60614e-08
2.59012e-08
5.65924e-08
1.90403e-07
7.69685e-07
1.18003e-06
1.17043e-06
1.02374e-06
1.08669e-06
9.87613e-07
8.71469e-07
4.36747e-07
2.87097e-07
5.52649e-07
6.51328e-07
8.94246e-08
2.25898e-08
1.74442e-08
1.44889e-08
1.10592e-08
9.31483e-09
8.9226e-09
7.98802e-09
7.4315e-09
6.34016e-09
5.92538e-09
4.79806e-09
4.45132e-09
4.32002e-09
4.16684e-09
4.31644e-09
4.79547e-09
5.18874e-09
5.26418e-09
5.08824e-09
4.55938e-09
3.83144e-09
2.43592e-09
1.67817e-09
2.09183e-09
1.20665e-08
6.96119e-07
5.06613e-07
2.73928e-07
2.35173e-07
3.43249e-07
3.66549e-07
4.48127e-07
7.97905e-07
1.07272e-06
6.98006e-08
1.28057e-08
3.63266e-09
1.82368e-09
1.33295e-09
1.22125e-09
1.00914e-09
9.46904e-10
7.69675e-10
8.04457e-10
6.44319e-10
5.98347e-10
6.07607e-10
5.47784e-10
7.26148e-10
8.84275e-10
1.55438e-09
3.48898e-09
8.02148e-09
1.10528e-08
2.92466e-08
8.66159e-07
6.40984e-07
4.49908e-07
5.34619e-07
7.67681e-07
1.10787e-06
1.39097e-06
1.43588e-06
1.5608e-06
1.69959e-06
2.19406e-06
2.31607e-06
1.99252e-06
1.09167e-06
1.0933e-06
2.29408e-06
1.72105e-06
9.01103e-07
8.83248e-07
6.58446e-07
6.18549e-07
6.0307e-07
5.96237e-07
6.44719e-07
7.72855e-07
9.01722e-07
1.005e-06
1.06698e-06
1.10123e-06
1.10575e-06
1.10784e-06
1.10512e-06
1.15688e-06
1.17549e-06
1.1762e-06
1.2033e-06
1.27321e-06
1.42965e-06
1.49345e-06
1.46997e-06
1.43816e-06
1.36478e-06
1.33845e-06
1.37338e-06
1.20253e-06
9.06911e-07
1.17125e-06
1.00139e-06
5.6631e-07
4.08121e-07
5.857e-07
8.32925e-07
1.02148e-06
1.0033e-06
1.01095e-06
9.62809e-07
9.27702e-07
8.82423e-07
8.33285e-07
8.24144e-07
7.96036e-07
7.82182e-07
7.67218e-07
7.1022e-07
6.93869e-07
6.60103e-07
6.55175e-07
6.63049e-07
6.70012e-07
6.90998e-07
7.46729e-07
9.00148e-07
9.79116e-07
7.1218e-07
4.39157e-07
5.58559e-07
7.66188e-07
2.56785e-07
2.65139e-08
2.37621e-08
3.94048e-08
7.66051e-08
1.03716e-07
1.12232e-07
1.6317e-07
1.48002e-07
1.18053e-07
8.2449e-08
7.83509e-08
7.70437e-08
7.62942e-08
8.00372e-08
1.28825e-07
2.02311e-07
3.02586e-07
5.26524e-07
6.52484e-07
6.64912e-07
6.13888e-07
4.10208e-07
2.5378e-07
2.71714e-07
3.9985e-07
6.01198e-07
6.29298e-07
6.94891e-07
8.31314e-07
7.70508e-07
7.54232e-07
7.97433e-07
8.26417e-07
7.27003e-07
6.17844e-07
4.7277e-07
4.14315e-07
3.83676e-07
3.51753e-07
3.60632e-07
3.45329e-07
3.34727e-07
2.91196e-07
2.46988e-07
1.60002e-07
1.44598e-07
1.29115e-07
1.24323e-07
1.11665e-07
1.08262e-07
9.33431e-08
8.58567e-08
1.17304e-07
1.77184e-07
2.73566e-07
4.47628e-07
5.78454e-07
5.22177e-07
5.56599e-07
5.16624e-07
4.27812e-08
3.03417e-08
1.28105e-07
4.48211e-07
6.06374e-07
5.75409e-07
3.05655e-07
1.6676e-07
7.3394e-08
5.49461e-08
3.93124e-08
2.80353e-08
2.34871e-08
1.88655e-08
1.33937e-08
1.19431e-08
1.1341e-08
1.2967e-08
1.8011e-08
2.99262e-08
4.03859e-08
5.05366e-08
6.80716e-08
8.97003e-08
1.06327e-07
1.31311e-07
1.88001e-07
2.02522e-07
3.78918e-07
5.76937e-08
3.13365e-07
1.17087e-07
2.16184e-08
9.48594e-09
8.58736e-09
2.20095e-08
1.76083e-07
6.83372e-07
7.97191e-07
7.70086e-07
7.45192e-07
6.83652e-07
6.70706e-07
5.978e-07
6.11087e-07
6.15233e-07
6.55325e-07
6.55281e-07
6.41841e-07
6.11307e-07
5.93624e-07
5.95818e-07
5.98919e-07
6.26159e-07
6.4434e-07
4.53435e-07
1.33315e-07
1.69888e-07
5.56248e-07
5.44553e-07
6.49428e-07
4.1997e-07
5.08603e-08
1.21081e-08
5.79088e-09
5.86979e-09
7.95244e-09
7.83081e-09
5.79752e-09
4.22176e-09
2.75306e-09
2.37917e-09
2.53002e-09
3.06959e-09
5.87041e-09
1.21342e-08
2.44008e-08
2.75365e-08
2.08657e-08
2.28658e-08
4.35378e-08
3.36924e-07
9.46448e-07
8.52739e-07
9.81855e-07
1.75e-07
5.98551e-08
7.21161e-08
6.49259e-08
2.73718e-07
5.36604e-07
2.0634e-08
9.91275e-10
3.36882e-10
3.07084e-10
3.39626e-10
5.02898e-10
6.16255e-10
7.11358e-10
8.69716e-10
9.49242e-10
9.78288e-10
1.00069e-09
1.02552e-09
1.0703e-09
1.10725e-09
1.15734e-09
1.16801e-09
1.10348e-09
1.00417e-09
1.05011e-09
2.49069e-09
1.16948e-08
1.50655e-08
2.71623e-09
2.9724e-10
5.46109e-10
4.17178e-08
4.2255e-07
1.38143e-06
1.73613e-06
8.77011e-07
2.90593e-07
2.60348e-07
3.63129e-07
3.06547e-07
2.5712e-07
2.0206e-07
2.8118e-07
4.71953e-07
7.79252e-07
9.78689e-07
9.8431e-07
7.86763e-07
4.13759e-07
1.24533e-07
3.88272e-08
1.63581e-08
8.02794e-09
8.31015e-09
1.88271e-08
4.34349e-08
5.44944e-08
2.58075e-08
1.07247e-08
5.62584e-09
5.98628e-09
2.23545e-08
1.21929e-07
5.54836e-07
1.06611e-06
6.24419e-08
2.80897e-08
3.39941e-08
6.47329e-08
1.68877e-07
2.54951e-07
2.58717e-07
2.96485e-07
4.51778e-07
4.42507e-07
1.0255e-07
2.38359e-08
1.13897e-08
1.23895e-08
1.52709e-08
4.0375e-08
1.89859e-07
1.10397e-06
1.07683e-06
1.00638e-06
8.80844e-07
8.73602e-07
7.49952e-07
8.60444e-07
8.85226e-07
8.26753e-07
4.21774e-07
4.98559e-07
9.1562e-07
4.16099e-08
2.20726e-08
1.75257e-08
1.45116e-08
1.15313e-08
1.22125e-08
1.15108e-08
1.11884e-08
9.27805e-09
6.72281e-09
5.37163e-09
4.38432e-09
4.21938e-09
4.45321e-09
6.22639e-09
1.03284e-08
1.82741e-08
2.18685e-08
2.11312e-08
1.34494e-08
8.35676e-09
4.77567e-09
3.0196e-09
1.67127e-09
8.5538e-10
1.29778e-09
1.08625e-08
1.02575e-06
2.35574e-07
2.6741e-07
3.39979e-07
4.08897e-07
6.89551e-07
9.75413e-07
3.42654e-08
5.85309e-09
2.15348e-09
1.68482e-09
1.71766e-09
2.22765e-09
2.52152e-09
2.74366e-09
2.88226e-09
2.52235e-09
2.19321e-09
1.85204e-09
1.53796e-09
9.91675e-10
6.76451e-10
5.5812e-10
6.97466e-10
1.09598e-09
3.51528e-09
1.92381e-08
3.49277e-08
2.1633e-08
5.86992e-08
1.00514e-06
4.11867e-07
7.80381e-07
1.47885e-06
1.72543e-06
1.74688e-06
1.72324e-06
1.80941e-06
1.89313e-06
2.23159e-06
2.28558e-06
2.08814e-06
1.01974e-06
7.7826e-07
1.57125e-06
1.90999e-06
1.0905e-06
8.62612e-07
6.36348e-07
6.08398e-07
5.94727e-07
6.23893e-07
7.79367e-07
9.54575e-07
1.05375e-06
1.09754e-06
1.08339e-06
9.72825e-07
9.36128e-07
8.86463e-07
1.03454e-06
1.14155e-06
1.24736e-06
1.18309e-06
1.18945e-06
1.22829e-06
1.37864e-06
1.47104e-06
1.44862e-06
1.4222e-06
1.36821e-06
1.3375e-06
1.38631e-06
1.28807e-06
9.47201e-07
1.1383e-06
9.27684e-07
4.68115e-07
1.64088e-07
4.68857e-07
9.00374e-07
1.01001e-06
1.03201e-06
9.72016e-07
9.51417e-07
8.92255e-07
8.62648e-07
8.46414e-07
8.18862e-07
7.84344e-07
7.9109e-07
7.25064e-07
7.05501e-07
6.55142e-07
6.29795e-07
6.20162e-07
6.16792e-07
6.41348e-07
6.55196e-07
6.77019e-07
7.7652e-07
9.74459e-07
8.88969e-07
4.99297e-07
5.55872e-07
7.94011e-07
3.03297e-08
1.49431e-08
3.8266e-08
9.89247e-08
2.19487e-07
2.54455e-07
2.46211e-07
2.28852e-07
2.09851e-07
1.87094e-07
1.78915e-07
1.72741e-07
1.7032e-07
1.64157e-07
1.66721e-07
1.77997e-07
2.21922e-07
2.8493e-07
4.93574e-07
6.62301e-07
7.14646e-07
6.61754e-07
4.96237e-07
2.86784e-07
2.68169e-07
3.61484e-07
4.5188e-07
4.98704e-07
6.56759e-07
8.38407e-07
6.96878e-07
7.40006e-07
8.05254e-07
7.82035e-07
6.63592e-07
5.25676e-07
4.14874e-07
4.00215e-07
3.03899e-07
3.46761e-07
3.10875e-07
3.33171e-07
3.22538e-07
3.12854e-07
2.64844e-07
1.82114e-07
1.48708e-07
1.37621e-07
1.22015e-07
1.20353e-07
1.02729e-07
9.45563e-08
8.38883e-08
8.29116e-08
1.47766e-07
2.35952e-07
4.04176e-07
5.94192e-07
5.76611e-07
5.50234e-07
3.10403e-07
3.07342e-08
5.12974e-08
2.69821e-07
5.19216e-07
4.6205e-07
2.07041e-07
6.86834e-08
4.77616e-08
3.1253e-08
2.78139e-08
2.38374e-08
1.87325e-08
1.26751e-08
9.99566e-09
7.72879e-09
6.21461e-09
6.79193e-09
1.33662e-08
2.30931e-08
3.95119e-08
5.14565e-08
5.24083e-08
6.60156e-08
8.58873e-08
1.04248e-07
1.21593e-07
1.41556e-07
1.91418e-07
2.39322e-07
3.96812e-08
2.57243e-07
5.66716e-08
1.34726e-08
8.44631e-09
1.50243e-08
6.5388e-08
3.58594e-07
7.43017e-07
7.90805e-07
6.95902e-07
5.26544e-07
3.16168e-07
3.04492e-07
3.58656e-07
4.21073e-07
5.2206e-07
5.90397e-07
6.43148e-07
6.47572e-07
6.43377e-07
6.49656e-07
6.3619e-07
6.34709e-07
6.34088e-07
6.17922e-07
4.18462e-07
1.26842e-07
1.61152e-07
5.44064e-07
5.87956e-07
6.61735e-07
1.20292e-07
1.40644e-08
6.35582e-09
5.32903e-09
6.14179e-09
6.33349e-09
5.113e-09
2.74902e-09
1.45765e-09
1.20852e-09
1.0129e-09
1.8834e-09
1.82761e-09
2.81385e-09
5.66514e-09
1.28449e-08
2.71366e-08
2.82369e-08
2.34822e-08
3.45831e-08
3.91578e-07
8.81145e-07
7.29602e-07
9.27663e-07
1.14634e-07
3.49749e-08
6.08719e-08
6.50013e-08
2.5023e-07
6.41046e-07
5.28363e-09
5.98435e-10
3.42798e-10
4.15162e-10
5.17797e-10
6.63364e-10
9.17025e-10
1.01836e-09
1.05692e-09
1.05582e-09
1.04076e-09
1.04681e-09
1.06038e-09
1.09106e-09
1.17347e-09
1.34903e-09
1.7881e-09
1.90426e-09
1.39443e-09
1.22479e-09
1.24147e-09
6.68611e-09
2.79832e-08
1.24311e-08
7.71642e-10
2.96254e-10
5.95853e-09
5.78639e-07
1.37335e-06
1.69077e-06
5.66844e-07
2.19468e-07
2.39632e-07
3.1226e-07
3.0599e-07
1.90256e-07
1.90504e-07
1.83751e-07
2.70097e-07
7.54605e-07
1.02258e-06
1.08823e-06
8.43612e-07
2.21506e-07
5.742e-08
1.64281e-08
6.864e-09
1.23528e-08
1.69433e-07
7.167e-07
5.52457e-07
5.22784e-07
6.34643e-07
3.19791e-07
2.64854e-08
1.21681e-08
3.1427e-08
1.32013e-07
5.36941e-07
8.46346e-07
4.75666e-08
3.24352e-08
4.86115e-08
1.15215e-07
2.30649e-07
2.16763e-07
1.96239e-07
2.44711e-07
4.92206e-07
8.09092e-07
2.47616e-07
2.41799e-08
1.0438e-08
1.08563e-08
2.01867e-08
9.50645e-08
9.71092e-07
9.4626e-07
7.73405e-07
7.25615e-07
7.94622e-07
7.93405e-07
8.95186e-07
7.31717e-07
7.13604e-07
8.07786e-07
5.89368e-07
5.24075e-07
9.37345e-07
3.54964e-08
2.14514e-08
1.81753e-08
1.61012e-08
1.84818e-08
2.08173e-08
2.41338e-08
1.98733e-08
1.28059e-08
7.75709e-09
5.32858e-09
4.21884e-09
4.49304e-09
7.72187e-09
1.99054e-08
6.25583e-08
1.45623e-07
2.16624e-07
2.17448e-07
1.49493e-07
4.81744e-08
1.71002e-08
5.90869e-09
2.48767e-09
1.14411e-09
6.78249e-10
1.80733e-09
1.88977e-07
2.61323e-07
2.86984e-07
3.88778e-07
5.04418e-07
1.06554e-06
5.47998e-08
5.53354e-09
1.86136e-09
1.78084e-09
2.11405e-09
3.07474e-09
4.81865e-09
6.29527e-09
6.91124e-09
6.03877e-09
4.62016e-09
4.2577e-09
4.287e-09
3.70797e-09
3.14898e-09
1.67098e-09
8.93674e-10
5.41822e-10
8.76746e-10
2.28991e-09
2.10552e-08
1.31867e-07
5.86789e-08
4.11145e-08
1.13863e-06
4.57187e-07
1.17873e-06
1.8919e-06
1.78691e-06
1.70292e-06
1.74027e-06
1.74941e-06
1.89861e-06
2.13311e-06
2.26716e-06
1.41806e-06
7.26694e-07
6.72794e-07
9.82108e-07
1.94439e-06
1.15374e-06
7.79422e-07
6.30464e-07
5.96851e-07
5.78112e-07
7.71306e-07
9.36892e-07
1.05055e-06
1.10864e-06
1.09715e-06
9.83718e-07
8.28035e-07
8.13193e-07
8.69206e-07
1.02025e-06
1.21084e-06
1.22327e-06
1.15509e-06
1.19794e-06
1.21942e-06
1.36103e-06
1.45301e-06
1.38572e-06
1.35352e-06
1.34725e-06
1.35393e-06
1.42141e-06
1.35635e-06
9.52847e-07
1.09761e-06
8.70557e-07
4.69411e-07
1.16905e-07
3.999e-07
9.0212e-07
1.05155e-06
1.00445e-06
9.70771e-07
8.93676e-07
8.77808e-07
8.53253e-07
8.44292e-07
8.03884e-07
7.9969e-07
7.21993e-07
6.94713e-07
6.32202e-07
6.20798e-07
6.08299e-07
6.09053e-07
6.12659e-07
6.17907e-07
6.36578e-07
6.56656e-07
7.08937e-07
8.78706e-07
1.01541e-06
6.19832e-07
5.63953e-07
8.0724e-07
1.35202e-08
1.83202e-08
8.0893e-08
1.79658e-07
2.42085e-07
2.60316e-07
2.51447e-07
2.47575e-07
2.53238e-07
2.69644e-07
2.94037e-07
2.77936e-07
2.59423e-07
2.33934e-07
2.22678e-07
2.19924e-07
2.51459e-07
3.1194e-07
5.37779e-07
7.01717e-07
7.49842e-07
7.09769e-07
5.44254e-07
3.11075e-07
2.95251e-07
3.58604e-07
4.21593e-07
4.76053e-07
6.4782e-07
7.74655e-07
7.02956e-07
7.58828e-07
8.05555e-07
7.95298e-07
7.64337e-07
6.83188e-07
5.4957e-07
4.51177e-07
3.44728e-07
3.51732e-07
3.67041e-07
3.66393e-07
3.62761e-07
3.22865e-07
2.79507e-07
1.79611e-07
1.589e-07
1.34917e-07
1.32588e-07
1.12894e-07
1.02628e-07
9.2364e-08
8.35944e-08
8.55447e-08
1.56077e-07
2.41603e-07
4.18782e-07
6.27619e-07
5.89751e-07
5.51124e-07
2.38457e-07
3.08709e-08
7.44852e-08
3.15984e-07
3.96433e-07
1.62608e-07
5.06601e-08
2.96007e-08
2.80323e-08
2.76857e-08
2.67186e-08
2.38462e-08
1.74732e-08
1.10028e-08
6.51498e-09
5.56055e-09
5.29921e-09
8.51667e-09
1.87576e-08
3.90827e-08
5.22838e-08
4.98971e-08
4.64809e-08
5.1428e-08
7.19972e-08
9.05532e-08
1.0969e-07
1.30796e-07
1.74156e-07
2.21291e-07
3.83244e-08
1.32595e-07
3.1854e-08
1.24024e-08
1.08419e-08
2.06143e-08
8.55978e-08
2.78106e-07
3.58656e-07
3.43424e-07
2.54572e-07
1.98836e-07
1.69985e-07
2.03941e-07
2.59976e-07
3.74558e-07
5.40841e-07
6.02946e-07
6.36899e-07
6.41584e-07
6.33437e-07
5.82573e-07
3.68771e-07
2.6548e-07
2.92291e-07
3.51572e-07
2.32609e-07
7.83677e-08
2.02118e-07
5.04098e-07
5.98096e-07
6.40946e-07
4.60489e-08
8.42885e-09
5.07191e-09
5.42185e-09
5.97951e-09
5.37986e-09
2.95558e-09
1.44018e-09
9.34569e-10
1.09113e-09
1.07928e-09
2.08441e-09
1.9436e-09
2.7031e-09
3.49869e-09
6.97705e-09
2.31055e-08
3.04295e-08
2.79185e-08
3.63465e-08
4.5556e-07
8.26051e-07
6.5535e-07
9.5399e-07
6.4122e-08
2.17098e-08
5.57289e-08
6.69721e-08
3.44618e-07
5.32949e-07
2.44183e-09
5.1064e-10
4.11679e-10
5.24264e-10
6.73463e-10
1.00124e-09
1.11882e-09
1.15042e-09
1.13507e-09
1.13385e-09
1.11774e-09
1.07697e-09
1.09247e-09
1.03469e-09
1.08437e-09
1.27836e-09
1.99963e-09
2.75506e-09
3.73808e-09
1.96075e-09
1.19105e-09
3.48838e-09
2.71626e-08
2.51714e-08
2.87348e-09
6.18854e-10
2.95565e-09
6.88445e-07
1.04496e-06
1.48412e-06
4.09972e-07
1.7558e-07
2.04433e-07
3.16922e-07
2.81486e-07
2.1863e-07
1.90169e-07
1.55586e-07
2.17813e-07
6.15876e-07
1.08359e-06
1.102e-06
8.176e-07
1.35539e-07
2.44516e-08
6.93465e-09
1.22471e-08
3.37461e-07
5.31227e-07
3.0117e-07
2.22176e-07
2.10427e-07
2.64045e-07
5.50039e-07
2.34932e-07
2.79334e-08
4.79814e-08
1.26509e-07
5.01179e-07
7.64791e-07
4.3876e-08
3.29633e-08
5.41336e-08
1.26613e-07
2.0332e-07
1.98442e-07
1.23757e-07
1.80496e-07
5.39767e-07
1.02015e-06
4.25458e-07
1.74708e-08
8.64914e-09
9.82022e-09
3.0795e-08
3.88634e-07
9.25627e-07
6.56857e-07
5.8817e-07
7.04104e-07
7.65883e-07
7.13963e-07
5.92544e-07
6.24388e-07
5.76799e-07
6.67353e-07
6.9359e-07
5.38747e-07
6.68816e-07
3.0099e-08
2.05163e-08
1.88893e-08
2.07816e-08
3.23542e-08
5.14785e-08
6.5362e-08
4.52269e-08
2.2479e-08
1.03463e-08
5.76197e-09
4.15728e-09
5.27974e-09
1.16902e-08
5.09262e-08
1.95241e-07
4.85984e-07
7.84605e-07
1.05748e-06
1.02008e-06
7.40493e-07
1.17674e-07
1.89775e-08
5.01083e-09
1.51498e-09
5.30208e-10
8.18367e-10
2.8322e-08
2.8511e-07
3.00729e-07
4.3595e-07
7.00171e-07
5.4527e-07
1.1044e-08
2.46314e-09
1.74742e-09
2.22233e-09
4.23745e-09
7.14793e-09
9.77368e-09
1.17445e-08
1.08336e-08
8.23082e-09
7.10377e-09
4.91489e-09
4.21837e-09
3.99324e-09
4.97682e-09
3.95625e-09
2.11618e-09
6.18563e-10
7.10096e-10
1.46563e-09
1.94084e-08
2.49007e-07
1.37325e-07
6.47954e-08
1.15489e-06
5.16386e-07
1.47998e-06
1.79464e-06
1.69938e-06
1.74637e-06
1.72224e-06
1.78518e-06
1.86857e-06
2.13287e-06
1.67976e-06
7.39631e-07
6.48214e-07
7.12105e-07
1.02942e-06
1.8489e-06
1.03791e-06
7.33723e-07
6.21021e-07
5.62423e-07
7.02382e-07
8.57647e-07
9.80583e-07
1.03573e-06
1.07006e-06
1.0906e-06
1.06271e-06
9.26306e-07
8.20166e-07
8.37258e-07
9.9778e-07
1.16532e-06
1.26884e-06
1.19912e-06
1.26922e-06
1.33103e-06
1.39202e-06
1.3593e-06
1.29594e-06
1.28525e-06
1.32016e-06
1.34005e-06
1.41058e-06
1.31749e-06
8.66767e-07
9.72569e-07
1.01947e-06
5.99313e-07
9.77973e-08
3.42985e-07
9.18811e-07
1.04863e-06
1.0221e-06
9.3883e-07
8.7117e-07
8.45687e-07
8.06982e-07
7.96625e-07
7.33594e-07
7.18116e-07
6.50612e-07
6.54945e-07
6.70349e-07
6.69027e-07
6.51402e-07
6.61477e-07
6.66302e-07
6.89622e-07
6.83131e-07
6.786e-07
6.98268e-07
8.3163e-07
1.01583e-06
6.52042e-07
5.82536e-07
8.15466e-07
1.1647e-08
2.92782e-08
7.73873e-08
1.50606e-07
2.34952e-07
2.6931e-07
2.82847e-07
3.13845e-07
3.63769e-07
5.24573e-07
6.00114e-07
6.03486e-07
5.39518e-07
4.27863e-07
3.31054e-07
2.82639e-07
3.33667e-07
4.45253e-07
6.80238e-07
7.68142e-07
7.76327e-07
7.19637e-07
5.46206e-07
3.35769e-07
3.39836e-07
3.8375e-07
4.4005e-07
5.33074e-07
7.02707e-07
7.94799e-07
7.01787e-07
7.5518e-07
7.78312e-07
7.76848e-07
7.74322e-07
7.76501e-07
7.19969e-07
6.49785e-07
4.29108e-07
3.64239e-07
3.04348e-07
3.18869e-07
3.04353e-07
2.7911e-07
1.94071e-07
1.75468e-07
1.46674e-07
1.39968e-07
1.20387e-07
1.13257e-07
1.01667e-07
9.3257e-08
1.19043e-07
1.46973e-07
2.07841e-07
2.93496e-07
5.18831e-07
6.76586e-07
6.01117e-07
5.51652e-07
1.78195e-07
3.21449e-08
1.46173e-07
2.86637e-07
1.59468e-07
4.11291e-08
2.42626e-08
2.35e-08
2.61028e-08
2.96424e-08
3.12673e-08
2.92949e-08
2.16386e-08
1.16105e-08
6.37272e-09
5.41702e-09
7.00375e-09
1.28694e-08
2.63994e-08
5.21132e-08
5.23057e-08
4.67016e-08
4.10485e-08
5.14373e-08
5.62951e-08
7.75472e-08
9.85588e-08
1.16593e-07
1.60543e-07
2.06548e-07
3.98881e-08
1.02517e-07
2.35493e-08
1.08513e-08
1.33025e-08
2.1853e-08
4.08576e-08
6.62623e-08
7.32926e-08
7.44523e-08
6.27948e-08
6.16542e-08
6.61402e-08
7.64478e-08
1.61997e-07
2.80386e-07
5.06745e-07
6.2161e-07
6.33154e-07
6.32145e-07
5.93448e-07
3.58174e-07
1.25467e-07
6.37587e-08
6.68325e-08
7.72869e-08
7.50971e-08
6.88579e-08
3.06583e-07
4.38632e-07
6.12401e-07
5.83866e-07
2.49422e-08
5.44998e-09
4.86178e-09
5.87167e-09
5.53398e-09
4.3374e-09
2.15926e-09
1.07579e-09
7.03893e-10
1.19679e-09
1.35443e-09