/*--------------------------------*- C++ -*----------------------------------*\
| =========                 |                                                 |
| \\      /  F ield         | OpenFOAM: The Open Source CFD Toolbox           |
|  \\    /   O peration     | Version:  2.1.1                                 |
|   \\  /    A nd           | Web:      www.OpenFOAM.org                      |
|    \\/     M anipulation  |                                                 |
\*---------------------------------------------------------------------------*/
FoamFile
{
    version     2.0;
    format      ascii;
    class       volScalarField;
    location    "0.004100000";
    object      N2;
}
// * * * * * * * * * * * * * * * * * * * * * * * * * * * * * * * * * * * * * //

dimensions      [0 0 0 0 0 0 0];

internalField   nonuniform List<scalar> 
12384
(
0.740117
0.739211
0.739053
0.739533
0.739976
0.740387
0.74065
0.740108
0.740003
0.741051
0.745575
0.750721
0.749795
0.746879
0.751427
0.750379
0.749733
0.749394
0.749202
0.749051
0.748947
0.748844
0.748755
0.748697
0.748623
0.748587
0.748503
0.74851
0.748412
0.748415
0.748275
0.748324
0.748023
0.747835
0.74717
0.747314
0.748235
0.749347
0.750335
0.75145
0.752405
0.752437
0.750546
0.746793
0.747562
0.746904
0.746584
0.746423
0.746381
0.746418
0.746517
0.746666
0.746823
0.747048
0.747271
0.747551
0.747799
0.747946
0.748098
0.748298
0.748433
0.748603
0.748806
0.748861
0.748604
0.747477
0.745324
0.743707
0.743083
0.742999
0.743371
0.744409
0.74662
0.749208
0.74396
0.744313
0.744675
0.74491
0.744913
0.744868
0.744825
0.744812
0.74485
0.744955
0.745051
0.745294
0.745184
0.745248
0.745338
0.745202
0.745213
0.745192
0.744848
0.744433
0.743943
0.743499
0.743355
0.743906
0.745694
0.746605
0.746533
0.746428
0.746313
0.746443
0.743936
0.743367
0.743271
0.743288
0.743255
0.743244
0.743163
0.743145
0.743016
0.74302
0.742954
0.742908
0.742873
0.74282
0.74279
0.742762
0.742734
0.742725
0.742767
0.742832
0.742867
0.742956
0.743297
0.744078
0.745206
0.746068
0.746876
0.747631
0.747797
0.747855
0.748697
0.745431
0.740179
0.73889
0.739469
0.740372
0.741295
0.742189
0.743005
0.743628
0.74404
0.74428
0.744404
0.744442
0.744413
0.744359
0.744263
0.744109
0.743962
0.743782
0.743535
0.743336
0.743317
0.743035
0.74308
0.743115
0.743362
0.742761
0.744844
0.748484
0.744801
0.744883
0.74521
0.746136
0.744784
0.740874
0.738359
0.737592
0.737469
0.737573
0.738565
0.738885
0.740412
0.741357
0.742184
0.743112
0.743459
0.743947
0.744032
0.744091
0.743932
0.74369
0.743325
0.742888
0.742524
0.742058
0.741477
0.741204
0.745644
0.751902
0.750615
0.749936
0.749334
0.749091
0.74827
0.741168
0.734484
0.73453
0.735047
0.735414
0.73562
0.735941
0.735943
0.736321
0.736163
0.736303
0.736303
0.736526
0.736721
0.737168
0.737753
0.73841
0.739018
0.739508
0.739591
0.73942
0.739239
0.739284
0.739834
0.739857
0.753026
0.753234
0.752783
0.749014
0.73363
0.724728
0.722367
0.721443
0.721047
0.720968
0.721117
0.721274
0.721369
0.721893
0.721974
0.722373
0.722753
0.723122
0.723515
0.72394
0.72437
0.724759
0.725091
0.726425
0.730888
0.739594
0.748061
0.751842
0.752114
0.750682
0.751425
0.750838
0.750734
0.749629
0.740899
0.736861
0.737788
0.737836
0.737815
0.738065
0.737728
0.738119
0.73784
0.737615
0.737527
0.737439
0.737377
0.737262
0.737121
0.736984
0.736861
0.736807
0.736749
0.737004
0.736913
0.737612
0.737897
0.738723
0.74002
0.741098
0.753541
0.752819
0.747845
0.738507
0.736658
0.736098
0.735627
0.735287
0.735065
0.734595
0.734493
0.734571
0.73461
0.734789
0.734995
0.735223
0.735484
0.735617
0.735787
0.736112
0.736667
0.73734
0.737926
0.738606
0.739466
0.740089
0.740603
0.741175
0.742774
0.74513
0.753696
0.751549
0.738493
0.733429
0.733391
0.733085
0.732673
0.732495
0.732192
0.731645
0.731625
0.730848
0.73081
0.73039
0.730187
0.729892
0.729651
0.729382
0.729157
0.729219
0.729658
0.731037
0.735306
0.743141
0.749513
0.752969
0.753993
0.754332
0.7539
0.752748
0.753942
0.753698
0.754249
0.754784
0.755032
0.754793
0.754129
0.753298
0.752122
0.751149
0.750686
0.750022
0.750127
0.748698
0.749114
0.747703
0.747882
0.747705
0.747292
0.747657
0.747421
0.74792
0.748416
0.749388
0.751401
0.753327
0.754115
0.754125
0.75378
0.752689
0.735269
0.736031
0.737634
0.739498
0.741333
0.743256
0.744384
0.744282
0.742748
0.739692
0.740403
0.745652
0.749662
0.748487
0.751373
0.74973
0.749218
0.749137
0.749115
0.74913
0.749131
0.749109
0.749053
0.748978
0.748914
0.748853
0.748813
0.7488
0.748775
0.748792
0.748779
0.748744
0.748579
0.748243
0.747647
0.747167
0.747467
0.748398
0.7495
0.750546
0.751622
0.752305
0.751266
0.747382
0.746521
0.745244
0.744878
0.744845
0.744938
0.745078
0.745253
0.745501
0.745816
0.74616
0.746485
0.746834
0.747226
0.747594
0.747882
0.748131
0.748315
0.748485
0.748651
0.748784
0.748867
0.748643
0.747837
0.746198
0.744349
0.743079
0.742535
0.743266
0.745705
0.749038
0.744376
0.745182
0.74451
0.743274
0.742301
0.741753
0.74151
0.741463
0.741537
0.741721
0.742006
0.742421
0.742972
0.743616
0.744367
0.744989
0.745453
0.745752
0.745839
0.745603
0.745004
0.744197
0.74358
0.74359
0.74466
0.745843
0.745551
0.745422
0.745582
0.745822
0.742751
0.74362
0.74457
0.745098
0.745192
0.744977
0.744563
0.744171
0.743848
0.743569
0.743309
0.743058
0.742857
0.742697
0.742615
0.742493
0.742458
0.742472
0.742532
0.74261
0.742681
0.742771
0.743034
0.743598
0.744648
0.745696
0.746182
0.746061
0.746249
0.746918
0.748001
0.743321
0.739684
0.73959
0.741215
0.742976
0.744656
0.745769
0.746188
0.74626
0.74605
0.745659
0.745163
0.744626
0.744089
0.743516
0.742932
0.742386
0.741898
0.741462
0.741131
0.740964
0.740742
0.740844
0.740738
0.741229
0.742088
0.742445
0.743276
0.74516
0.742816
0.744618
0.745133
0.744466
0.740414
0.736327
0.735102
0.73589
0.737893
0.740211
0.743412
0.745173
0.746834
0.747636
0.748432
0.748571
0.748969
0.74909
0.749216
0.749308
0.749276
0.749014
0.748476
0.747433
0.746012
0.744327
0.742645
0.74154
0.744383
0.750996
0.750287
0.74936
0.748789
0.747881
0.744984
0.737848
0.734517
0.734877
0.735593
0.736264
0.736809
0.737128
0.737864
0.737786
0.738165
0.737899
0.737792
0.73732
0.736952
0.736988
0.737908
0.739684
0.741696
0.743549
0.743898
0.742931
0.741155
0.739915
0.740047
0.740012
0.753156
0.753225
0.750239
0.739812
0.727368
0.72298
0.722068
0.72182
0.721904
0.722394
0.723068
0.723624
0.724171
0.72463
0.725032
0.725354
0.725638
0.725908
0.726262
0.72677
0.727557
0.72844
0.72846
0.725906
0.723878
0.726087
0.7344
0.745337
0.751152
0.751431
0.751238
0.750953
0.749199
0.743611
0.738681
0.73738
0.738675
0.739358
0.74045
0.740697
0.741343
0.741249
0.741078
0.74069
0.740137
0.739462
0.738707
0.7379
0.737055
0.736218
0.735468
0.73484
0.734393
0.733911
0.733924
0.733876
0.734536
0.73626
0.738952
0.740999
0.753369
0.750787
0.743038
0.736969
0.735405
0.734442
0.733998
0.734176
0.734612
0.734602
0.733993
0.733346
0.732574
0.732096
0.732151
0.73267
0.732951
0.73331
0.734319
0.736302
0.738663
0.740694
0.742246
0.742971
0.743136
0.742953
0.74227
0.74184
0.742591
0.744647
0.752919
0.745535
0.735852
0.733601
0.733798
0.733366
0.732719
0.732007
0.731067
0.730468
0.729794
0.729161
0.728525
0.727977
0.727466
0.726989
0.726627
0.726244
0.725879
0.725258
0.724427
0.723245
0.72298
0.725703
0.731689
0.739829
0.747642
0.752671
0.754838
0.754096
0.753869
0.753819
0.754513
0.754761
0.754182
0.752565
0.749766
0.746247
0.741072
0.736189
0.731211
0.727735
0.724386
0.723598
0.72054
0.720804
0.720026
0.720151
0.720371
0.720766
0.722402
0.723608
0.726537
0.729721
0.733305
0.741621
0.749021
0.752745
0.753995
0.75361
0.736262
0.737283
0.738912
0.740284
0.741612
0.743016
0.744716
0.746288
0.746141
0.742328
0.738581
0.740807
0.747452
0.749245
0.750808
0.749343
0.749216
0.74919
0.749282
0.74937
0.749376
0.74931
0.749155
0.748951
0.748771
0.748591
0.74847
0.748358
0.748393
0.748436
0.748776
0.748834
0.749018
0.748652
0.748094
0.747373
0.74711
0.747738
0.748831
0.749837
0.750818
0.751855
0.751623
0.747982
0.745393
0.744437
0.744014
0.744289
0.744739
0.745066
0.7453
0.745594
0.746
0.746364
0.7466
0.746755
0.746996
0.747334
0.747621
0.747902
0.748209
0.748392
0.748572
0.748727
0.748877
0.748946
0.748836
0.748061
0.746426
0.744394
0.742633
0.742397
0.744666
0.748792
0.745879
0.743674
0.740712
0.739618
0.739689
0.740011
0.740417
0.740696
0.74083
0.740867
0.740877
0.740897
0.741277
0.741649
0.742359
0.743189
0.744203
0.745232
0.745949
0.746262
0.745944
0.745103
0.744151
0.743606
0.744008
0.74506
0.745361
0.745327
0.745498
0.745881
0.745271
0.746483
0.747058
0.746919
0.746399
0.74578
0.745113
0.744507
0.744264
0.743969
0.743785
0.743566
0.743329
0.743026
0.742722
0.742438
0.742259
0.742235
0.742266
0.742346
0.74246
0.742559
0.742722
0.743117
0.74394
0.74503
0.745748
0.745888
0.745674
0.746227
0.746847
0.741589
0.739624
0.741003
0.743474
0.745536
0.746496
0.746592
0.74591
0.744866
0.743854
0.742957
0.742175
0.741501
0.74088
0.740315
0.739802
0.739388
0.739108
0.739073
0.739156
0.739367
0.739532
0.739659
0.739513
0.739688
0.740606
0.741662
0.742397
0.743593
0.740702
0.744176
0.744206
0.741084
0.73606
0.734256
0.735488
0.739033
0.742872
0.745723
0.747612
0.748421
0.74876
0.748789
0.748658
0.748662
0.7487
0.748834
0.749261
0.749511
0.749809
0.749851
0.749776
0.749305
0.748292
0.746641
0.744366
0.742245
0.743416
0.750161
0.749946
0.748885
0.747572
0.745181
0.740677
0.735734
0.734612
0.735512
0.73618
0.736322
0.736523
0.736281
0.73649
0.736647
0.737442
0.73817
0.739129
0.738868
0.737936
0.737001
0.737084
0.739367
0.743107
0.746466
0.747643
0.745936
0.742177
0.739857
0.740011
0.740211
0.753238
0.752346
0.744762
0.732022
0.724602
0.722781
0.722587
0.723079
0.723938
0.724931
0.725715
0.726255
0.726579
0.726879
0.727074
0.727216
0.727283
0.727343
0.727422
0.727593
0.728392
0.730131
0.733192
0.734219
0.73057
0.723218
0.724038
0.734021
0.746953
0.751926
0.751352
0.750596
0.745777
0.739878
0.737586
0.738277
0.740075
0.74075
0.741703
0.742101
0.743175
0.744295
0.744674
0.744442
0.743648
0.742411
0.740798
0.738938
0.737093
0.735674
0.734906
0.734455
0.734504
0.734358
0.733815
0.733104
0.733065
0.734445
0.738017
0.74094
0.752972
0.748345
0.73984
0.735926
0.734859
0.735267
0.737266
0.739263
0.739679
0.740257
0.739832
0.738143
0.735489
0.732685
0.731501
0.732083
0.732149
0.733903
0.737463
0.741693
0.745167
0.747421
0.748297
0.748866
0.748231
0.747608
0.745897
0.743982
0.743209
0.744481
0.750906
0.740675
0.734874
0.734058
0.733857
0.732916
0.731982
0.731284
0.73049
0.729693
0.728757
0.727774
0.726857
0.726106
0.725587
0.725262
0.725355
0.725952
0.726288
0.726305
0.725677
0.724471
0.72305
0.720866
0.719135
0.722067
0.73321
0.745356
0.753466
0.755226
0.753821
0.754033
0.754582
0.754073
0.751509
0.746689
0.739575
0.732202
0.724374
0.719189
0.716595
0.715351
0.715603
0.714945
0.715384
0.714998
0.714428
0.713651
0.713583
0.713439
0.714368
0.715754
0.718743
0.723449
0.727423
0.729078
0.735337
0.745481
0.753073
0.754507
0.736669
0.739529
0.741943
0.742949
0.743419
0.743739
0.744507
0.746064
0.746821
0.74456
0.739017
0.737845
0.744682
0.749142
0.749624
0.749318
0.749088
0.749169
0.74938
0.749482
0.749408
0.749131
0.748744
0.748359
0.747893
0.747377
0.746876
0.746638
0.746703
0.747199
0.747884
0.748505
0.74896
0.748937
0.748445
0.747637
0.74702
0.747325
0.748302
0.749302
0.750154
0.751315
0.751674
0.748436
0.745046
0.743952
0.743216
0.743878
0.744776
0.745284
0.74554
0.745877
0.746441
0.746865
0.747006
0.746987
0.747023
0.747236
0.747532
0.747845
0.748144
0.748393
0.748589
0.748761
0.748891
0.749004
0.749094
0.748875
0.747917
0.746076
0.743607
0.742107
0.743945
0.748565
0.743964
0.739277
0.738483
0.739726
0.741157
0.742127
0.742639
0.742828
0.742822
0.742693
0.742471
0.742294
0.74223
0.742199
0.742364
0.74276
0.743486
0.744515
0.745591
0.746346
0.746481
0.745854
0.744798
0.74386
0.743827
0.744508
0.744967
0.745037
0.745307
0.745911
0.747843
0.748019
0.747638
0.74678
0.745767
0.744836
0.743979
0.743479
0.743168
0.743034
0.743105
0.743122
0.743145
0.743073
0.74283
0.742475
0.742201
0.742069
0.742057
0.742131
0.742281
0.742412
0.74246
0.742735
0.743356
0.74435
0.745366
0.745976
0.745756
0.745999
0.745635
0.740622
0.740125
0.742739
0.745264
0.746264
0.745957
0.744589
0.743151
0.742051
0.741192
0.740467
0.739789
0.739121
0.738445
0.737761
0.737218
0.73699
0.737238
0.737823
0.738542
0.739088
0.739361
0.739424
0.739285
0.739154
0.739545
0.740834
0.741817
0.742893
0.739131
0.743525
0.742428
0.737596
0.733961
0.734537
0.738453
0.74295
0.746109
0.747501
0.748044
0.747909
0.747127
0.746632
0.746258
0.746265
0.746514
0.746991
0.747573
0.748202
0.748726
0.748951
0.748936
0.748824
0.748428
0.747385
0.745367
0.742836
0.743196
0.74969
0.749654
0.748016
0.74516
0.741027
0.737297
0.734838
0.73491
0.735753
0.735709
0.734843
0.733478
0.732077
0.731353
0.731634
0.732682
0.734844
0.737272
0.739229
0.739375
0.737861
0.736963
0.738672
0.743581
0.748154
0.749884
0.747956
0.742054
0.738685
0.739574
0.740304
0.753114
0.749889
0.738705
0.727775
0.723803
0.72317
0.723863
0.72495
0.726028
0.726931
0.727277
0.727618
0.727741
0.727835
0.727935
0.728129
0.728279
0.728492
0.728534
0.728253
0.727817
0.728015
0.731079
0.736928
0.737917
0.731762
0.722475
0.725336
0.740527
0.751572
0.751528
0.749796
0.743023
0.738234
0.737281
0.738633
0.739551
0.740074
0.740558
0.741548
0.743454
0.745129
0.746113
0.746153
0.745139
0.74316
0.740494
0.737707
0.735679
0.73503
0.735828
0.738406
0.740621
0.741146
0.739447
0.736749
0.734663
0.734976
0.737962
0.741031
0.752644
0.746544
0.738324
0.73548
0.735599
0.737861
0.740459
0.741427
0.741937
0.74254
0.743303
0.742848
0.739626
0.733859
0.731324
0.731875
0.732343
0.736664
0.742238
0.746836
0.749422
0.750163
0.750259
0.749842
0.749896
0.749571
0.748491
0.746301
0.744339
0.744585
0.74877
0.738017
0.734738
0.734304
0.733615
0.732725
0.732489
0.732232
0.73155
0.730314
0.728784
0.727379
0.726302
0.725767
0.72611
0.727702
0.730427
0.733104
0.73412
0.733957
0.732025
0.729048
0.725969
0.722503
0.719519
0.716676
0.720574
0.732906
0.74803
0.755746
0.753809
0.754173
0.754356
0.752372
0.746297
0.737097
0.727472
0.721131
0.7177
0.717027
0.717963
0.719481
0.720914
0.721433
0.721609
0.721223
0.720308
0.718472
0.716131
0.713852
0.712752
0.713607
0.716578
0.723648
0.732105
0.734524
0.732434
0.737933
0.75061
0.754937
0.739877
0.744295
0.746015
0.7464
0.746601
0.746562
0.746672
0.747216
0.747219
0.744858
0.738674
0.735513
0.741341
0.748489
0.749098
0.749185
0.748938
0.749305
0.749557
0.749537
0.749162
0.748634
0.748102
0.747391
0.746495
0.745465
0.744783
0.744614
0.745258
0.74629
0.747561
0.748454
0.749019
0.74904
0.748595
0.747732
0.74691
0.746965
0.74787
0.748893
0.749652
0.750822
0.751683
0.748863
0.744941
0.743872
0.74264
0.743655
0.744954
0.745588
0.745894
0.746255
0.746914
0.747275
0.747288
0.747211
0.747215
0.747392
0.747666
0.747948
0.748249
0.748482
0.748715
0.7489
0.749069
0.749154
0.749259
0.749232
0.748762
0.747409
0.744946
0.742352
0.743501
0.748351
0.740102
0.737336
0.739769
0.742007
0.743158
0.743536
0.743563
0.743489
0.743414
0.743352
0.743293
0.743254
0.743209
0.743169
0.743151
0.743284
0.743683
0.744344
0.745252
0.746272
0.746784
0.746355
0.745281
0.744193
0.743861
0.744247
0.744621
0.744673
0.745082
0.745877
0.74859
0.748183
0.747177
0.746205
0.745307
0.744509
0.743622
0.743257
0.74267
0.742812
0.742748
0.742939
0.74304
0.743053
0.742891
0.742558
0.74218
0.741989
0.741953
0.742102
0.74222
0.742278
0.742366
0.742527
0.743054
0.743961
0.745123
0.74614
0.745962
0.745942
0.744619
0.740182
0.74102
0.74421
0.745672
0.745344
0.743567
0.741833
0.74086
0.740262
0.739758
0.739173
0.738424
0.737493
0.73649
0.735641
0.735189
0.735466
0.736446
0.737817
0.738872
0.73931
0.739263
0.739147
0.739003
0.738868
0.739036
0.740222
0.741398
0.742498
0.738253
0.742832
0.740177
0.73508
0.733679
0.73642
0.741097
0.744602
0.746273
0.746757
0.746221
0.745422
0.744651
0.744502
0.744781
0.7451
0.745759
0.746257
0.746922
0.747496
0.747875
0.747747
0.747227
0.747043
0.747068
0.74665
0.745173
0.742782
0.743118
0.749766
0.74932
0.747275
0.742704
0.738017
0.735321
0.734429
0.735141
0.735311
0.734251
0.732077
0.729789
0.728709
0.727876
0.728772
0.728973
0.730939
0.733831
0.737534
0.739629
0.739195
0.737722
0.738291
0.744016
0.749267
0.750993
0.748708
0.740845
0.736846
0.738962
0.740353
0.753261
0.748213
0.734387
0.72585
0.72393
0.724117
0.725091
0.726468
0.727464
0.727902
0.728069
0.728063
0.728
0.728024
0.728086
0.72821
0.728564
0.729312
0.730196
0.730409
0.729493
0.728083
0.728291
0.734478
0.739791
0.736944
0.726726
0.722923
0.734942
0.749869
0.751606
0.749368
0.741774
0.737456
0.737476
0.738894
0.73931
0.739855
0.739866
0.740497
0.742424
0.745009
0.746697
0.74699
0.745587
0.742505
0.738835
0.73592
0.735172
0.737338
0.743026
0.747726
0.749935
0.750249
0.748784
0.744692
0.739547
0.737286
0.738899
0.741189
0.75245
0.74557
0.737829
0.735634
0.736743
0.739356
0.741086
0.741162
0.740971
0.741794
0.743589
0.744946
0.742313
0.734093
0.731258
0.731679
0.734096
0.740668
0.746415
0.749759
0.750882
0.750595
0.749704
0.749159
0.749274
0.749704
0.749679
0.747986
0.745466
0.74484
0.746913
0.73686
0.734749
0.734386
0.733704
0.733759
0.734672
0.734774
0.734078
0.732038
0.729701
0.727546
0.726469
0.726778
0.729213
0.733746
0.738505
0.741181
0.742491
0.742571
0.741356
0.738315
0.733545
0.727998
0.723097
0.717837
0.715169
0.7232
0.742816
0.755301
0.753812
0.754159
0.753699
0.749212
0.738655
0.727533
0.720203
0.717879
0.718467
0.720643
0.723476
0.725336
0.726099
0.726096
0.725643
0.725059
0.724617
0.723755
0.722201
0.718629
0.714185
0.712466
0.714165
0.720822
0.732972
0.739908
0.736313
0.735442
0.74634
0.754813
0.742362
0.746854
0.747571
0.747683
0.747686
0.747856
0.748034
0.748043
0.746943
0.742337
0.735978
0.733907
0.738027
0.747247
0.749134
0.748984
0.748999
0.749576
0.749707
0.749336
0.748781
0.74825
0.74763
0.746751
0.745608
0.744352
0.743852
0.744107
0.745066
0.746671
0.748054
0.748767
0.749109
0.749004
0.748438
0.747421
0.746478
0.746632
0.747601
0.748631
0.749323
0.750489
0.751844
0.749326
0.745087
0.744281
0.742326
0.743569
0.745217
0.74592
0.746391
0.746798
0.747384
0.747599
0.747528
0.747471
0.747546
0.747743
0.748051
0.748403
0.748705
0.748931
0.749017
0.749048
0.749065
0.749146
0.749274
0.749311
0.749127
0.748265
0.746027
0.742768
0.743339
0.748207
0.73779
0.737826
0.741438
0.742875
0.743528
0.743708
0.743656
0.743649
0.743776
0.744031
0.744301
0.744296
0.744143
0.743885
0.743722
0.743712
0.74392
0.744507
0.74544
0.746497
0.74702
0.746623
0.745547
0.744428
0.74406
0.744266
0.744468
0.744492
0.744976
0.745735
0.748637
0.747898
0.747101
0.746571
0.746134
0.74559
0.744798
0.743992
0.743154
0.742973
0.743064
0.743127
0.743144
0.743072
0.742866
0.742521
0.742196
0.74202
0.742121
0.742223
0.742299
0.742349
0.742384
0.742649
0.74314
0.744027
0.745229
0.74638
0.746134
0.745928
0.743889
0.740203
0.742101
0.744688
0.744956
0.743104
0.740994
0.740018
0.739789
0.73974
0.739598
0.739176
0.738242
0.736867
0.735454
0.734619
0.734503
0.735322
0.737045
0.738688
0.739338
0.739114
0.738793
0.738564
0.738591
0.738612
0.738769
0.739927
0.741187
0.742254
0.737956
0.741773
0.73786
0.733762
0.734261
0.737788
0.741526
0.743615
0.744377
0.74419
0.743735
0.743314
0.743158
0.743463
0.744149
0.744828
0.745801
0.746401
0.746937
0.747221
0.747221
0.746366
0.744961
0.744284
0.744557
0.74483
0.743904
0.7423
0.74357
0.750217
0.74915
0.746661
0.740783
0.735903
0.734199
0.734301
0.734995
0.734477
0.732481
0.729709
0.727545
0.727292
0.726966
0.727829
0.727857
0.729156
0.731221
0.735267
0.739037
0.740111
0.738366
0.738314
0.744481
0.750027
0.751433
0.748512
0.739445
0.735303
0.738627
0.740335
0.75271
0.745691
0.731461
0.72501
0.724075
0.725141
0.726554
0.727823
0.728332
0.728467
0.728405
0.728402
0.728331
0.728156
0.728215
0.727969
0.728175
0.729006
0.730596
0.732068
0.731716
0.729687
0.727721
0.731986
0.738875
0.739205
0.731241
0.725798
0.732442
0.748602
0.751936
0.749344
0.741419
0.737193
0.737655
0.73909
0.739809
0.740346
0.740068
0.739923
0.741387
0.74473
0.747192
0.747519
0.745433
0.74114
0.73693
0.735136
0.737296
0.744746
0.750356
0.752572
0.753434
0.75361
0.752951
0.749804
0.743805
0.739761
0.740094
0.741261
0.752422
0.745369
0.737884
0.735943
0.737457
0.740093
0.741163
0.740913
0.740256
0.741098
0.744021
0.746172
0.742965
0.73315
0.731162
0.731763
0.736852
0.744066
0.74887
0.750935
0.751199
0.750281
0.749386
0.749306
0.749391
0.749592
0.749986
0.748935
0.746405
0.74511
0.745573
0.736341
0.734833
0.734562
0.734558
0.736037
0.737835
0.738616
0.737009
0.734771
0.731232
0.728268
0.726865
0.727989
0.732241
0.738401
0.742521
0.744062
0.7453
0.746549
0.746678
0.745327
0.741215
0.735178
0.72826
0.720976
0.714992
0.717418
0.737514
0.754733
0.753829
0.753993
0.752435
0.744651
0.731241
0.721605
0.718343
0.719256
0.722234
0.725446
0.727642
0.728645
0.728881
0.728573
0.727565
0.726091
0.724913
0.724583
0.724708
0.723728
0.7194
0.712929
0.713118
0.718232
0.7327
0.741914
0.739791
0.737141
0.746329
0.75445
0.743971
0.747989
0.747946
0.747689
0.747653
0.747899
0.748135
0.747333
0.743614
0.737043
0.73612
0.736927
0.739662
0.74679
0.749279
0.748742
0.749236
0.749811
0.749663
0.749218
0.748821
0.748424
0.747973
0.747293
0.746344
0.745086
0.744101
0.744029
0.744825
0.746295
0.74762
0.7483
0.748553
0.748247
0.747437
0.746414
0.745859
0.746379
0.74755
0.748502
0.749193
0.750508
0.752226
0.750196
0.745839
0.744835
0.742193
0.743462
0.745347
0.74621
0.74694
0.747424
0.747833
0.747995
0.747982
0.748053
0.748291
0.748563
0.748737
0.748551
0.747989
0.747209
0.746753
0.746825
0.747175
0.747722
0.748381
0.748865
0.748969
0.748431
0.746455
0.743023
0.743534
0.748155
0.737095
0.739199
0.741618
0.742691
0.743477
0.743832
0.743989
0.744223
0.744709
0.745448
0.745833
0.746012
0.745696
0.745103
0.744569
0.744305
0.744474
0.744997
0.746068
0.746964
0.74725
0.746664
0.745538
0.744594
0.744396
0.744501
0.744418
0.744648
0.745344
0.745797
0.748654
0.747869
0.747513
0.747376
0.747169
0.746865
0.746317
0.745578
0.744354
0.743413
0.742959
0.742959
0.74295
0.742844
0.742627
0.742394
0.74222
0.742217
0.7423
0.742418
0.742473
0.742524
0.74271
0.743084
0.743679
0.744563
0.745727
0.74679
0.746187
0.745917
0.743267
0.740392
0.742934
0.744385
0.743071
0.74055
0.739235
0.739124
0.739509
0.740027
0.740266
0.739978
0.738853
0.737095
0.735327
0.734495
0.73468
0.736061
0.737972
0.739275
0.73924
0.738786
0.738306
0.738123
0.738235
0.7384
0.73867
0.739876
0.741154
0.742072
0.737911
0.7406
0.735782
0.733169
0.734751
0.737457
0.739594
0.740567
0.741009
0.741219
0.741402
0.74146
0.741707
0.742181
0.743124
0.74434
0.745713
0.746594
0.747094
0.747075
0.746481
0.744911
0.742834
0.74164
0.741783
0.742263
0.742157
0.741864
0.744665
0.750826
0.748943
0.746052
0.739336
0.734526
0.733584
0.734129
0.734604
0.733563
0.730928
0.728148
0.726853
0.726871
0.727086
0.727419
0.727672
0.728456
0.729913
0.733429
0.738589
0.74093
0.738857
0.738258
0.744715
0.750498
0.75145
0.747282
0.738453
0.734932
0.738583
0.740261
0.753138
0.747032
0.731495
0.725205
0.724847
0.725949
0.727366
0.728383
0.728871
0.729032
0.729192
0.729275
0.729203
0.729058
0.728533
0.728191
0.727959
0.728592
0.73044
0.732675
0.733521
0.731478
0.728303
0.729957
0.738447
0.738136
0.734047
0.732576
0.737371
0.74507
0.751879
0.749474
0.741704
0.737165
0.737549
0.739161
0.740104
0.740631
0.740456
0.739739
0.740723
0.744909
0.747784
0.747807
0.744905
0.73944
0.735481
0.735649
0.742708
0.749927
0.752678
0.753437
0.753726
0.753847
0.753568
0.751083
0.744836
0.741047
0.741109
0.74142
0.752465
0.745608
0.738252
0.736253
0.7376
0.739943
0.740884
0.74058
0.7399
0.741643
0.745476
0.747164
0.742011
0.731878
0.730991
0.732226
0.73895
0.745722
0.749671
0.751213
0.751211
0.750344
0.749673
0.749661
0.749846
0.749722
0.750159
0.749426
0.74695
0.745408
0.744454
0.736055
0.734951
0.734963
0.736048
0.738834
0.741068
0.740953
0.740149
0.737203
0.733448
0.729251
0.72735
0.728542
0.733851
0.740203
0.742888
0.744135
0.746481
0.748481
0.748911
0.748223
0.746192
0.740785
0.733131
0.723904
0.715878
0.715969
0.734899
0.753483
0.753829
0.753532
0.750115
0.739007
0.725385
0.719634
0.719454
0.722419
0.726123
0.729133
0.731117
0.732761
0.734372
0.734616
0.733089
0.730023
0.726332
0.723918
0.723768
0.724855
0.724109
0.716677
0.712696
0.715995
0.731259
0.743024
0.742586
0.740845
0.747999
0.75434
0.745101
0.748356
0.747891
0.747335
0.747293
0.747295
0.745591
0.741118
0.738267
0.741281
0.745308
0.746537
0.74561
0.747383
0.749355
0.748792
0.74949
0.749855
0.749695
0.749419
0.74924
0.749014
0.748807
0.748453
0.747909
0.747036
0.745678
0.744556
0.744315
0.744793
0.745703
0.746337
0.746576
0.746234
0.745719
0.74537
0.745729
0.746686
0.747834
0.748811
0.749895
0.751469
0.752921
0.750783
0.747502
0.745154
0.742082
0.743312
0.745407
0.746373
0.747344
0.747965
0.748325
0.748554
0.748741
0.748764
0.748338
0.747262
0.745817
0.744707
0.744139
0.743836
0.743832
0.743981
0.744395
0.745187
0.746367
0.747553
0.748275
0.748049
0.74633
0.742978
0.74394
0.748273
0.737102
0.739374
0.741079
0.742159
0.743133
0.743868
0.744359
0.744835
0.745569
0.74649
0.74702
0.747201
0.746923
0.746252
0.74557
0.745225
0.745433
0.746103
0.74694
0.747417
0.747279
0.74646
0.745489
0.74491
0.744788
0.744615
0.74451
0.745958
0.747262
0.747228
0.748516
0.748007
0.747772
0.747488
0.747298
0.747324
0.747269
0.747236
0.746589
0.745421
0.74392
0.743382
0.742896
0.742792
0.742622
0.742521
0.742444
0.742539
0.742611
0.742783
0.742844
0.743058
0.743416
0.743935
0.744605
0.745498
0.746576
0.747111
0.746121
0.746095
0.742837
0.740805
0.743155
0.743334
0.740818
0.738624
0.738028
0.738404
0.739267
0.740284
0.740957
0.740873
0.7398
0.738005
0.736276
0.735253
0.735479
0.736799
0.738523
0.739394
0.739223
0.73872
0.738179
0.73801
0.738095
0.738348
0.738899
0.740112
0.741223
0.741885
0.737706
0.739418
0.734534
0.732961
0.734268
0.735672
0.73654
0.737012
0.737681
0.738153
0.738899
0.739248
0.739594
0.740092
0.741168
0.742829
0.744937
0.746475
0.747182
0.747036
0.745987
0.743979
0.741728
0.740501
0.740381
0.740784
0.741347
0.742564
0.746573
0.751438
0.748901
0.746602
0.739861
0.734103
0.733262
0.733829
0.734198
0.733045
0.730213
0.727547
0.726544
0.72669
0.726926
0.727273
0.727762
0.728327
0.729449
0.73258
0.738406
0.741778
0.739426
0.737916
0.744527
0.750592
0.751299
0.746032
0.737403
0.735717
0.739005
0.740293
0.752847
0.746418
0.731916
0.725435
0.724846
0.726432
0.727971
0.729096
0.729468
0.729714
0.72995
0.730186
0.730215
0.729849
0.729239
0.72848
0.728085
0.728367
0.730196
0.733125
0.734722
0.73297
0.728916
0.728748
0.736929
0.738812
0.738569
0.741934
0.745387
0.747248
0.752207
0.749985
0.742598
0.73745
0.737359
0.73883
0.739752
0.740585
0.740507
0.739395
0.740542
0.745616
0.748506
0.748148
0.744008
0.737675
0.734266
0.737539
0.746745
0.751478
0.752605
0.752745
0.752882
0.752862
0.751851
0.748873
0.744045
0.741372
0.741295
0.741398
0.752576
0.746356
0.738894
0.736611
0.737347
0.739318
0.740113
0.739886
0.740312
0.74362
0.747311
0.747595
0.739088
0.730998
0.730803
0.733077
0.740383
0.746218
0.749545
0.751048
0.751112
0.750403
0.749879
0.749726
0.749948
0.750038
0.75028
0.749619
0.74776
0.74581
0.743961
0.735946
0.735116
0.735554
0.737544
0.740724
0.742233
0.742717
0.74163
0.73967
0.735083
0.730393
0.727645
0.728566
0.734428
0.740809
0.742552
0.744312
0.747863
0.750121
0.750365
0.749673
0.748038
0.743296
0.735124
0.724821
0.71644
0.716678
0.73627
0.75136
0.753816
0.75288
0.746803
0.733441
0.722651
0.720019
0.721867
0.725677
0.729405
0.732279
0.734871
0.737902
0.740351
0.741003
0.739905
0.736346
0.730729
0.725147
0.722908
0.723656
0.725178
0.721685
0.71307
0.714286
0.7286
0.743147
0.74545
0.745968
0.749884
0.751827
0.745388
0.748486
0.747736
0.747202
0.746578
0.744668
0.741026
0.738918
0.741769
0.745672
0.747383
0.747888
0.748096
0.748102
0.748765
0.748962
0.749281
0.749429
0.749755
0.749728
0.749602
0.749387
0.749176
0.749043
0.748932
0.748939
0.748862
0.748557
0.747815
0.746651
0.745407
0.74471
0.744621
0.744764
0.744879
0.744904
0.745035
0.745509
0.746426
0.74765
0.748924
0.750184
0.751332
0.752427
0.753398
0.752024
0.751078
0.750302
0.749019
0.745124
0.741996
0.743083
0.745288
0.746244
0.747392
0.748184
0.74856
0.748568
0.747736
0.746394
0.744931
0.743757
0.743517
0.743851
0.74379
0.743584
0.743115
0.742762
0.742712
0.743231
0.744349
0.745855
0.747059
0.747189
0.745292
0.743539
0.746006
0.744867
0.738541
0.736556
0.737725
0.739232
0.739941
0.740937
0.742147
0.743438
0.744439
0.745103
0.745895
0.746865
0.747539
0.747771
0.747596
0.747259
0.746852
0.746788
0.747027
0.74741
0.74766
0.747602
0.747114
0.746353
0.745722
0.745309
0.744743
0.744259
0.745679
0.748292
0.749103
0.748955
0.748816
0.748648
0.748356
0.747847
0.747071
0.746219
0.745745
0.745931
0.746737
0.747511
0.748051
0.748264
0.747621
0.746392
0.745231
0.744479
0.743949
0.743705
0.743575
0.743576
0.743625
0.743717
0.743899
0.744193
0.744701
0.745322
0.746046
0.74685
0.747503
0.747104
0.745845
0.746073
0.746083
0.743379
0.742194
0.741219
0.742824
0.74153
0.73863
0.737165
0.737111
0.737676
0.738662
0.740053
0.741254
0.741602
0.740904
0.739514
0.737833
0.736631
0.736319
0.737143
0.738616
0.739414
0.739293
0.738873
0.738466
0.738249
0.738311
0.738672
0.739451
0.740544
0.74134
0.741535
0.739889
0.737298
0.737959
0.737801
0.733572
0.732698
0.733528
0.734222
0.734755
0.735168
0.735659
0.736048
0.736627
0.736734
0.737049
0.737314
0.738312
0.740241
0.743231
0.745908
0.747257
0.747308
0.746335
0.744493
0.742682
0.74178
0.741913
0.742439
0.743358
0.745104
0.748586
0.751805
0.751093
0.749638
0.748986
0.747186
0.741204
0.734282
0.732913
0.733407
0.733792
0.732906
0.730374
0.727756
0.726581
0.726515
0.726768
0.727298
0.728021
0.728602
0.729622
0.73277
0.738764
0.742782
0.73992
0.737449
0.744085
0.750579
0.750994
0.745031
0.737029
0.735762
0.738787
0.73951
0.743302
0.748458
0.752355
0.750218
0.73681
0.726457
0.725309
0.726481
0.72816
0.729284
0.729831
0.73005
0.7303
0.730501
0.730547
0.730014
0.729427
0.728651
0.728299
0.72863
0.729979
0.733687
0.735858
0.733794
0.728834
0.728024
0.73729
0.740823
0.744528
0.749007
0.751561
0.752236
0.752408
0.752593
0.751904
0.749846
0.74337
0.738142
0.737246
0.738052
0.739203
0.739755
0.739711
0.739116