/*--------------------------------*- C++ -*----------------------------------*\
| =========                 |                                                 |
| \\      /  F ield         | OpenFOAM: The Open Source CFD Toolbox           |
|  \\    /   O peration     | Version:  2.1.1                                 |
|   \\  /    A nd           | Web:      www.OpenFOAM.org                      |
|    \\/     M anipulation  |                                                 |
\*---------------------------------------------------------------------------*/
FoamFile
{
    version     2.0;
    format      ascii;
    class       volScalarField;
    location    "0.004100000";
    object      p;
}
// * * * * * * * * * * * * * * * * * * * * * * * * * * * * * * * * * * * * * //

dimensions      [1 -1 -2 0 0 0 0];

internalField   nonuniform List<scalar> 
12384
(
901408
904896
901323
918939
904601
937090
918281
964167
945542
998556
993622
1.03032e+06
1.04728e+06
1.06679e+06
710940
712438
714226
715654
716639
716459
717748
717303
719469
718383
722335
719225
729293
719415
747299
726371
779410
756656
826233
824781
851323
858400
862757
874130
872003
888033
885611
899856
900860
906365
904574
908975
909147
904479
895280
885522
878081
869174
858244
836599
812568
778784
760408
745364
717392
702943
705548
680415
691882
686509
694368
700837
712109
712899
712714
713234
706291
705569
705603
705199
776548
777533
777425
777768
775287
767885
755034
738697
721585
700276
686511
658696
674598
653999
688579
671903
715121
717216
734263
753149
770550
784766
791903
795647
803353
798355
819184
809540
832305
827315
769422
775360
776291
773836
766978
755021
736001
736897
705988
715827
702995
708948
695492
686840
666174
665209
656768
653423
645581
648361
636724
638198
624616
627907
613989
618198
614770
619012
621030
624579
697441
693892
688647
682790
681905
675290
674517
675786
676946
680060
682687
682881
681638
680916
678533
672965
673170
671959
663030
657027
669193
633899
706618
644164
786547
811813
844381
850615
852466
846450
890468
866945
830956
831694
796555
808277
803188
812912
813573
801253
804005
782801
741362
754992
690323
714122
672633
678759
671548
664924
655943
651414
653583
641145
643711
622322
625182
634065
626465
608639
615197
589279
578724
579491
585497
575400
572172
586060
565728
616758
574641
676283
632581
729858
717282
757861
757167
764707
768059
777623
774489
784714
786869
792193
793895
791938
783973
780001
772912
774067
659238
648401
647937
629130
634359
600833
602894
581403
542329
556014
529354
522815
523885
524060
556859
544078
586741
616958
635661
684816
715348
737974
754804
772426
756573
762528
772005
759402
762015
784514
1.34304e+06
1.36411e+06
1.36775e+06
1.39095e+06
1.40901e+06
1.37498e+06
1.33902e+06
952866
1.12986e+06
682977
911246
789537
843317
833612
847391
855065
857278
854275
846047
832573
815285
789871
781805
751181
760187
740556
755305
766904
779966
789856
997988
997614
1.00927e+06
1.00806e+06
1.00597e+06
998967
992646
926399
951203
911794
963662
946366
1.00735e+06
1.04207e+06
1.09228e+06
1.12111e+06
1.15177e+06
1.17113e+06
1.18032e+06
1.17858e+06
1.16419e+06
1.13419e+06
1.10303e+06
1.06345e+06
1.07008e+06
1.03813e+06
1.05677e+06
1.06267e+06
1.06029e+06
1.05881e+06
1.0646e+06
1.06853e+06
1.06154e+06
1.058e+06
1.05046e+06
1.03578e+06
1.01597e+06
1.02559e+06
998989
1.06076e+06
1.04584e+06
1.09681e+06
1.11286e+06
1.12163e+06
1.14165e+06
1.15346e+06
1.15648e+06
1.15753e+06
1.15568e+06
1.15343e+06
1.15046e+06
1.13716e+06
1.13026e+06
1.11287e+06
1.10955e+06
1.06359e+06
1.07395e+06
1.04817e+06
1.05456e+06
1.05057e+06
990300
998389
1.00237e+06
1.04581e+06
1.05686e+06
1.09465e+06
1.1041e+06
1.13255e+06
1.14874e+06
1.16515e+06
1.15954e+06
1.15137e+06
1.06674e+06
1.0961e+06
1.00867e+06
1.04305e+06
1.00321e+06
1.00896e+06
1.03455e+06
1.02563e+06
1.05482e+06
1.05817e+06
1.06851e+06
1.0922e+06
1.0944e+06
1.11828e+06
1.11791e+06
1.125e+06
1.11403e+06
1.12934e+06
906305
908607
906920
916336
911562
930345
921451
959322
947123
989152
998562
1.02686e+06
1.04319e+06
1.06263e+06
710955
717348
715988
714593
715962
716429
716229
717549
717547
719596
719191
722364
721021
726500
732282
734812
762443
764457
811003
817036
846103
853197
862884
868863
872428
886398
886377
900292
902427
909110
897676
901453
898331
891696
882864
874669
866425
858309
844043
827419
799829
775906
753578
730720
729147
696818
703423
683243
690724
691279
692044
706490
710230
713947
717008
714468
711146
710218
705218
701618
769839
772043
773090
771846
768463
761521
750472
734689
716264
696756
685385
662638
667188
658676
678304
683572
700600
714958
730154
747040
764470
780746
792422
798118
806034
804867
817572
815975
831395
829767
767672
770138
769733
764474
755533
743634
731798
718430
708815
699281
703798
695396
694138
674312
671594
657070
659272
650981
645723
643743
636657
629659
628513
618600
621197
614799
614570
619854
620352
625641
696057
692825
687449
684129
676748
678209
674523
675775
677436
680061
681177
681970
682251
676583
674228
675372
672050
669366
665914
667182
666126
641425
700352
665651
768320
811491
849373
858939
863640
861772
889496
871923
837500
825904
805617
815640
806966
807828
807451
814067
798001
797594
736259
749755
683303
701983
660970
678392
657387
665808
648846
652051
640046
643769
634111
637144
632976
630197
644817
647482
601476
612556
617367
594218
573616
583460
577173
586526
563883
615401
575183
664074
641677
704901
732999
746916
753596
761590
767404
768201
777167
778456
784824
788026
788961
783600
780433
772015
771373
767775
646307
653167
649506
635477
637346
616011
592523
598175
547490
542835
536728
522626
534576
537363
551808
563301
591773
616569
650268
690005
711989
739017
772517
767487
785230
773105
779321
773214
782715
779433
1.3116e+06
1.33667e+06
1.35915e+06
1.35644e+06
1.35454e+06
1.31053e+06
1.13864e+06
1.07772e+06
901958
866316
807601
834455
833781
837205
846205
850785
851264
847595
838549
825803
810047
787167
777041
749767
746939
743412
746248
763084
776771
791955
1.00961e+06
1.01047e+06
1.00986e+06
997791
978174
968482
943270
954610
915136
925039
923210
954219
993765
1.04011e+06
1.07888e+06
1.11463e+06
1.13924e+06
1.15775e+06
1.16317e+06
1.15904e+06
1.13861e+06
1.10545e+06
1.0831e+06
1.06098e+06
996277
1.01976e+06
1.01357e+06
1.03376e+06
1.04836e+06
1.05955e+06
1.08316e+06
1.07945e+06
1.06208e+06
1.05035e+06
1.03182e+06
1.01613e+06
1.00488e+06
999825
1.00916e+06
1.03695e+06
1.04737e+06
1.0911e+06
1.09457e+06
1.1219e+06
1.12987e+06
1.1394e+06
1.14707e+06
1.14883e+06
1.14668e+06
1.14442e+06
1.13488e+06
1.12688e+06
1.12065e+06
1.11538e+06
1.08286e+06
1.07313e+06
1.05894e+06
1.05064e+06
1.03904e+06
1.04219e+06
992317
1.00255e+06
1.01801e+06
1.03576e+06
1.07378e+06
1.08758e+06
1.10647e+06
1.12867e+06
1.14105e+06
1.15444e+06
1.1559e+06
1.13417e+06
1.08731e+06
1.08674e+06
1.01895e+06
1.03601e+06
1.01663e+06
1.01903e+06
1.03706e+06
1.0301e+06
1.05741e+06
1.05164e+06
1.07085e+06
1.08789e+06
1.097e+06
1.11438e+06
1.12048e+06
1.12018e+06
1.11977e+06
1.1355e+06
900234
905798
904437
918539
910287
932851
918996
953049
943686
989590
991403
1.02372e+06
1.03385e+06
1.05472e+06
722004
714484
720343
715647
715778
716163
716945
715841
718213
717494
720265
718661
723804
717649
734802
720409
764241
747089
804922
809127
835138
845526
855090
862619
868733
882293
884892
899776
902538
908523
887359
892407
886130
877897
869303
861327
855342
846197
834625
813044
791754
763931
746974
725775
723352
696382
706294
682289
693277
690349
695728
705081
708488
717148
717976
714758
717045
712763
709547
709234
763942
764687
765782
765948
761611
754707
743957
727429
711638
691878
684168
658912
664933
648611
679097
677152
699458
708134
729278
743773
759332
779328
787480
801462
804560
808964
814909
820362
828672
833938
770035
765786
760037
755249
742976
736517
714662
714267
689802
699897
681616
687489
673982
675997
659006
661546
650536
652464
640627
640311
628645
629627
618475
620710
613914
615532
615921
619871
622796
624888
694056
690289
687363
682747
677171
678921
674444
675640
677750
679316
680624
681637
676698
676640
675404
670381
670415
670243
677210
665743
673724
654295
697642
692689
767425
809497
846710
863646
869805
874742
886591
870482
851998
831859
814998
808455
823035
822649
826580
824186
808826
783953
732416
743974
665631
701031
650818
668843
654569
645391
646185
641301
634974
635001
631499
637156
635673
655201
663971
675121
649087
626467
603346
613702
612710
581874
573473
577877
569782
609426
574816
667823
629857
715468
709360
745225
747411
750365
764865
768466
770006
780247
778871
784935
783772
779910
772963
768172
758930
763958
642775
637956
638879
631991
626976
632074
594178
584941
582474
546530
556828
549162
538559
536015
563876
580716
589652
637426
661920
685719
715228
767023
763895
788007
777005
791499
771850
787451
789411
791458
1.31007e+06
1.31888e+06
1.32801e+06
1.31495e+06
1.27902e+06
1.17769e+06
1.11931e+06
907096
943306
803434
864640
819650
840395
841082
844760
845870
844247
838888
829416
817057
801082
779996
766447
741816
739840
728528
742250
755364
769731
784463
1.01167e+06
1.01523e+06
997887
978712
955339
938884
944460
901247
917620
912073
903259
947852
989683
1.03037e+06
1.07135e+06
1.10287e+06
1.12818e+06
1.14067e+06
1.14133e+06
1.12396e+06
1.1014e+06
1.07473e+06
1.04407e+06
977299
996372
944034
972697
993881
1.01291e+06
1.02502e+06
1.08975e+06
1.07322e+06
1.05957e+06
1.03637e+06
1.01507e+06
1.00185e+06
978314
988430
990465
1.03744e+06
1.03473e+06
1.07605e+06
1.09261e+06
1.10853e+06
1.1214e+06
1.12715e+06
1.13283e+06
1.13739e+06
1.13609e+06
1.12606e+06
1.12348e+06
1.11617e+06
1.11749e+06
1.08522e+06
1.09011e+06
1.0621e+06
1.0483e+06
1.04121e+06
1.04186e+06
1.02894e+06
996907
1.00099e+06
1.02616e+06
1.04261e+06
1.06185e+06
1.09693e+06
1.10192e+06
1.11908e+06
1.1341e+06
1.14073e+06
1.13207e+06
1.1372e+06
1.07344e+06
1.07532e+06
1.02126e+06
1.03899e+06
1.02233e+06
1.02321e+06
1.04231e+06
1.03692e+06
1.05673e+06
1.05879e+06
1.07365e+06
1.08679e+06
1.10039e+06
1.11508e+06
1.11946e+06
1.13236e+06
1.13121e+06
1.13695e+06
921846
918821
919738
919564
915673
927328
922967
946601
940227
983263
989504
1.01001e+06
1.02725e+06
1.03952e+06
717232
723308
716836
722584
716500
716020
716625
716665
715769
718088
716426
719297
715451
721486
714714
726946
740206
752016
782476
798926
824547
835256
845150
853579
863725
873711
883693
895425
902299
908927
876852
874254
868595
859098
850089
843654
837118
831861
818768
800883
780119
752837
745347
720501
712796
708294
692084
693519
682920
689891
694146
700340
712367
716785
718316
720819
718725
715582
716343
714339
755380
755708
755716
755618
752460
744447
732351
718270
706238
685080
681243
652945
660347
651163
671493
674387
699402
703828
726956
743389
757506
776156
790187
803653
813598
817763
823120
822281
832705
832855
768901
762858
753429
748650
733129
727334
706640
697528
691318
675250
677862
669140
670935
656411
660385
649794
651724
640843
641342
628226
630214
617304
619494
612470
612465
615161
615479
620339
622673
628913
690506
688877
684053
683909
677653
678814
675155
675651
675771
678012
679410
674954
676049
675150
669304
669939
670500
680569
672616
678100
679892
676417
687880
720410
771414
804841
844890
865504
874879
885126
910727
870682
860466
839228
848054
833885
825901
830627
826563
829190
802832
795650
713997
739996
663045
688170
648486
659810
640979
645628
636627
628215
631121
621944
628637
625876
645119
657432
667995
684625
644235
650208
650125
628359
611661
604933
587750
569402
563784
610211
575425
648839
636376
699855
702654
738920
736485
753658
759018
766915
771696
776198
777510
781264
781841
775959
769094
757649
760575
751513
670223
672924
667754
669867
649660
635111
639862
600369
562267
543735
532560
529332
535704
548859
592020
577801
629429
640620
663874
690175
755848
751462
787327
782597
801392
785632
798775
783334
787596
788660
1.22899e+06
1.26655e+06
1.26126e+06
1.24755e+06
1.20088e+06
1.12158e+06
974512
909869
801830
852877
816036
837258
841735
840191
842946
839674
834516
827540
818486
804273
785016
771531
755416
733381
720390
720199
737328
743346
760653
773218
1.00464e+06
1.00551e+06
983628
953463
922371
896641
867969
900707
872653
907634
887299
952807
972727
1.03121e+06
1.05942e+06
1.09122e+06
1.10696e+06
1.1095e+06
1.09673e+06
1.08787e+06
1.06643e+06
1.03453e+06
951406
926493
842368
890726
887661
922402
954256
978944
1.09473e+06
1.07465e+06
1.05356e+06
1.02173e+06
991636
969811
973089
952759
982917
997069
1.02906e+06
1.052e+06
1.0769e+06
1.09389e+06
1.10158e+06
1.11422e+06
1.12063e+06
1.11834e+06
1.10934e+06
1.10371e+06
1.09796e+06
1.10329e+06
1.07801e+06
1.09024e+06
1.062e+06
1.0365e+06
1.02972e+06
1.02863e+06
1.00721e+06
1.0124e+06
1.01304e+06
999298
1.02974e+06
1.05259e+06
1.06784e+06
1.0799e+06
1.11139e+06
1.11113e+06
1.12221e+06
1.12848e+06
1.13571e+06
1.10757e+06
1.06549e+06
1.063e+06
1.0238e+06
1.01574e+06
1.01927e+06
1.03509e+06
1.03993e+06
1.04699e+06
1.05801e+06
1.05885e+06
1.07946e+06
1.08539e+06
1.10203e+06
1.11155e+06
1.12855e+06
1.13498e+06
1.1452e+06
1.14578e+06
909081
912848
909344
922126
914812
929129
916872
948830
936053
970643
982240
1.00074e+06
1.00793e+06
1.02922e+06
722874
728371
730290
718553
723871
716628
716208
716869
716605
714769
717171
713279
716442
710897
721383
709794
740977
739996
772113
785403
808353
821689
831387
842767
853439
864613
876031
889940
898087
906860
869744
860870
850966
840201
831976
823768
819287
811517
805376
785857
766426
752217
732527
713914
718099
697587
700342
685561
680540
686087
689665
700319
710799
712685
721290
721923
720866
720734
718053
717103
746952
744270
742935
741923
738742
731841
722022
709241
698666
677048
677473
649671
662299
646802
676418
665190
703052
695814
732775
739056
760465
775487
799068
810270
818581
823187
823416
827581
827975
833978
768881
763754
755111
743607
730685
725070
694835
703201
667717
679075
654097
654613
644798
651893
643182
649332
639279
640900
628591
630712
615609
618044
610687
608959
610383
613955
618501
618758
626735
627097
688366
684382
684694
680781
680308
677719
676451
675062
675567
674397
671202
674310
673949
668231
669590
670538
682414
676363
690824
695162
689611
694696
693921
728594
768654
802566
830808
859890
873504
886973
895037
895642
884517
865558
850746
855661
842008
837540
839503
832727
796546
791639
707616
725530
659934
680166
647469
646598
638945
627581
624701
624145
613854
617941
615112
626148
641390
647345
659611
665715
671287
664247
653817
650729
644103
634790
615811
602330
587592
610532
579234
654425
619566
700162
684961
718520
746627
751176
757933
769076
774312
774599
782940
779595
783957
773355
767603
759379
755878
750001
644285
645714
644816
639375
644262
627472
604576
617514
626737
603007
596697
602768
593871
606996
580301
624624
623643
651884
672680
743052
736355
788260
784963
808256
794138
812142
792308
800943
786977
789631
1.23695e+06
1.22215e+06
1.22954e+06
1.18775e+06
1.12541e+06
1.01271e+06
956518
799105
840052
793909
824995
837313
839934
847708
840362
836332
825235
816762
809132
792753
776943
759529
727166
711978
702877
706079
718977
729961
750474
762709
986440
981507
959635
930467
903193
879028
877275
851201
859223
902100
897976
945004
977935
1.02076e+06
1.05381e+06
1.07426e+06
1.08197e+06
1.07912e+06
1.07231e+06
1.0377e+06
993883
903837
871669
813261
867834
812303
824182
849881
881352
905593
1.08684e+06
1.06495e+06
1.04095e+06
1.00526e+06
968559
962267
920483
950257
934907
973487
998061
1.0334e+06
1.05018e+06
1.07216e+06
1.09315e+06
1.09605e+06
1.09019e+06
1.0786e+06
1.07705e+06
1.07811e+06
1.07692e+06
1.04552e+06
1.06505e+06
1.04922e+06
1.03435e+06
1.04128e+06
1.03175e+06
1.00245e+06
1.00867e+06
993814
1.01457e+06
1.0086e+06
1.0365e+06
1.04763e+06
1.07736e+06
1.08866e+06
1.09491e+06
1.11345e+06
1.10409e+06
1.11069e+06
1.09628e+06
1.07076e+06
1.06632e+06
1.03537e+06
1.00171e+06
1.00846e+06
1.01732e+06
1.03357e+06
1.04697e+06
1.04449e+06
1.06969e+06
1.05398e+06
1.08536e+06
1.08286e+06
1.09937e+06
1.11453e+06
1.13293e+06
1.1433e+06
1.15441e+06
1.16902e+06
944651
936777
938107
922385
928083
920649
924496
934064
947362
955858
969667
987033
992235
1.00049e+06
754065
728451
726146
731562
720942
724184
717398
716237
717995
715172
712444
713980
708244
712395
707472
713578
726046
729824
769032
773246
792672
809838
821413
827049
838162
851855
865430
877767
890875
897112
847868
840143
835223
825525
813218
805783
801171
796197
783015
779626
756905
746333
721722
727304
703668
706735
685370
691462
674292
680590
692105
694429
703173
712636
719102
721145
722755
720629
719760
717019
735496
741328
742679
734562
724890
720091
712239
702734
691535
674325
672163
654502
654809
650826
677491
670823
700245
703107
732522
741571
763399
785887
806023
820977
831897
836377
833952
826953
826282
824553
781645
770631
760667
747214
731944
722704
693103
700805
662523
673391
652910
651517
650649
641916
644880
634303
638318
627138
630582
616163
614894
611453
605454
608860
611175
610133
615652
623752
623951
631468
679055
681848
680307
681139
680020
678129
676560
676458
672590
667896
669397
670031
664758
668202
669033
681954
677494
694807
699661
699307
704696
708707
703498
723896
761033
789329
811019
843977
863121
880109
927172
915420
904775
898468
871626
856624
858047
843335
834467
835799
784279
788559
694254
724236
654319
680763
633801
645954
624747
625272
609587
609049
605166
601767
605521
619032
629000
641387
640541
650927
669943
672432
671061
671314
658806
647152
637367
616870
599892
612844
592574
649058
629126
691163
679729
726246
728644
756661
760059
772969
775659
786102
790100
792094
782338
782415
768693
761569
757721
761009
711194
709212
705560
709558
696971
693742
678728
635128
612350
619124
592234
577918
588831
588025
632727
626791
666947
667234
736425
719633
781472
780125
800691
798440
825696
804598
818613
795092
799117
774119
1.0908e+06
1.1248e+06
1.11977e+06
1.10939e+06
1.04301e+06
976499
905025
798079
802077
803163
822542
833693
849410
843286
845506
830213
825728
803932
800872
790418
761285
746490
701989
700279
691553
692047
710565
716531
746528
757419
950218
951716
932632
905853
873177
844434
825542
850385
850192
879047
916084
941129
985637
1.01103e+06
1.03742e+06
1.04749e+06
1.04679e+06
1.04273e+06
1.00893e+06
964338
898755
878861
840191
799691
691995
716745
738118
784064
831066
890754
1.06068e+06
1.04317e+06
1.01957e+06
979855
951787
914648
924487
889946
938167
928898
967736
994757
1.03068e+06
1.04237e+06
1.05142e+06
1.05602e+06
1.05426e+06
1.05447e+06
1.04575e+06
1.02774e+06
1.00206e+06
1.03669e+06
1.03577e+06
1.02095e+06
1.01096e+06
1.00439e+06
988229
999868
974842
972106
1.00908e+06
1.02719e+06
1.04854e+06
1.05807e+06
1.07437e+06
1.09469e+06
1.0946e+06
1.09019e+06
1.10785e+06
1.08578e+06
1.06353e+06
1.06389e+06
1.02841e+06
988780
1.00711e+06
997941
1.01754e+06
1.01727e+06
1.04923e+06
1.04523e+06
1.0663e+06
1.05999e+06
1.08593e+06
1.07699e+06
1.10634e+06
1.11358e+06
1.13639e+06
1.14597e+06
1.1648e+06
1.17198e+06
931209
933487
926613
937966
921492
928971
920236
936319
931673
955747
951527
964382
973100
989484
729999
757713
736710
730118
733053
720686
725006
716565
717219
714468
713746
708314
710508
704326
710199
703541
729463
719851
754150
767792
782518
793214
802631
815885
825096
833787
846034
857719
867512
880216
852826
830486
833154
815370
812600
797650
798388
787719
780570
775250
752466
747682
721738
727120
703692
700784
691587
681052
676668
679565
677027
691573
697775
708921
713469
720717
721200
720459
717411
715412
717179
717671
719126
723647
724595
713416
705065
700343
691555
673341
668237
650374
654100
653295
683302
671784
713845
705596
739657
749280
774222
792074
814945
832629
842000
843700
838161
830685
815975
821656
785307
777019
766016
751851
734289
722987
693382
699883
660558
674343
648650
653070
641088
641130
632847
637764
624147
630593
616493
618274
610597
605096
606670
606779
608724
610129
617728
621911
628221
635240
678234
675745
678801
680214
679093
677810
676781
671465
665266
668978
667442
661901
666143
667460
682235
678106
697962
702293
707336
718016
718203
718125
704747
738263
738940
766006
793194
824494
852479
870314
942094
938221
922407
907217
899404
867646
852220
852945
833474
825668
772948
774703
692759
704669
661665
665790
629164
645543
611622
611801
609942
599117
602703
600044
598913
611290
622363
627373
631635
631326
672828
674318
671549
669681
673346
662994
650005
640167
622949
608061
601569
652438
639984
684959
677300
736123
716857
758043
763942
773554
788156
794144
804000
802156
796585
783185
776757
772002
772448
769509
695620
706050
711929
699312
696776
678600
677849
685116
652261
640879
650557
646096
631079
653013
636473
670554
660007
733694
720764
806659
803728
811459
824434
838182
816755
842668
812035
816050
778808
775263
1.11234e+06
1.07835e+06
1.07609e+06
1.03632e+06
1.01205e+06
916617
904389
787876
818621
811183
823452
846611
855274
859820
854505
837934
818251
809837
790443
779792
742405
729361
685584
684127
667370
691362
685648
730277
725517
772872
924766
923177
909843
883252
859872
839627
832849
853502
854172
885442
919262
951505
977861
1.0016e+06
1.01254e+06
1.03172e+06
1.03738e+06
994783
946583
904150
895927
819922
780730
681855
730101
696870
700549
759407
794056
782607
1.01319e+06
1.00482e+06
983776
956911
925429
898191
858589
894352
869579
929125
921272
965030
989283
1.0184e+06
1.02165e+06
1.03983e+06
1.04797e+06
1.0358e+06
1.00741e+06
993183
1.0137e+06
1.00761e+06
977679
979272
1.01049e+06
992924
999760
970849
980735
963301
1.03264e+06
1.05238e+06
1.04442e+06
1.05891e+06
1.09517e+06
1.08729e+06
1.09565e+06
1.09074e+06
1.07122e+06
1.05215e+06
1.04064e+06
1.01395e+06
973671
990512
978089
984406
1.00626e+06
1.00786e+06
1.03837e+06
1.04566e+06
1.062e+06
1.06518e+06
1.07884e+06
1.07906e+06
1.10895e+06
1.11168e+06
1.13316e+06
1.1502e+06
1.16427e+06
1.17369e+06
974452
966114
962124
938078
942951
925744
930341
925512
936135
928472
950141
936788
947434
951689
801685
744325
761312
736043
733359
731903
721206
724013
716277
713908
714670
708328
707290
706096
706132
701970
725562
722493
743144
757299
777827
784484
795471
804337
810526
819105
830942
845518
851845
878969
824829
832893
827796
823937
809078
801541
796567
784428
778486
779264
756644
750063
727452
730043
699786
710602
689049
677810
680981
675155
675681
688335
685280
703923
711147
714453
717373
715187
711497
706718
725156
726799
721204
712916
708875
707078
705695
700157
690770
695384
681675
685465
674634
679747
678242
698752
718531
715750
745447
763567
779906
802692
824298
841665
852415
856393
851087
831400
797171
754797
812475
788820
771568
753685
734335
723882
693044
699592
663839
677486
648323
658163
637557
644094
628518
633097
627352
622201
615347
617282
605761
609454
605676
608316
605519
615551
615940
620747
634105
634700
671679
677038
675915
675494
676166
677300
672447
667742
667197
660785
658095
662502
665790
681882
678214
697248
701885
711093
724775
728451
726055
718212
708076
734066
726928
739124
787396
806834
832369
866517
954302
950715
945949
922642
901233
883076
856779
838710
832234
810094
763137
759757
680437
706845
652054
652173
634737
629028
604725
613314
596252
594807
589006
593081
604490
605161
619477
620504
622888
627060
658904
670850
674478
677083
672684
669538
656811
646389
639402
644095
640240
658936
650888
690553
667485
726867
725210
755571
761059
782344
793840
802705
815037
813245
800974
796173
788971
788486
788363
796405
748867
749879
749365
748295
743666
745972
718339
704667
704040
669297
658418
659369
673382
659374
683664
671706
728819
720770
808387
793480
828681
841175
821902
824248
853813
835489
851315
800526
792792
717189
916300
988858
1.01798e+06
1.02695e+06
957918
925970
880002
806361
831857
828095
841638
863730
875441
867001
864473
846140
830813
798673
791563
768059
748286
717455
687020
678432
683521
678238
717084
714884
757906
781997
905323
909642
894948
873699
859546
835812
826486
848561
884296
886517
940669
947174
973900
982759
995288
979731
954160
952150
951706
902291
848981
794924
778735
678781
661617
683401
663702
782247
765701
856927
977108
965787
954068
924119
892379
859914
867523
836147
882596
873912
929266
927777
961742
968844
986347
993106
989299
953038
934187
935294
913163
916563
947367
988414
957266
978521
963972
976897
967881
949599
1.05761e+06
1.05275e+06
1.07725e+06
1.10698e+06
1.09568e+06
1.10196e+06
1.08712e+06
1.08477e+06
1.04686e+06
1.03072e+06
1.01136e+06
968628
977693
966216
950146
966305
994965
1.01034e+06
1.03586e+06
1.03545e+06
1.06745e+06
1.06163e+06
1.08271e+06
1.07613e+06
1.10553e+06
1.10725e+06
1.12994e+06
1.14154e+06
1.15151e+06
1.15498e+06
965659
964014
957048
963499
939724
944267
928555
931897
923720
932123
914768
936165
914170
930669
838988
872703
791609
805706
740128
758774
730517
725108
728309
718687
721370
714140
711666
711730
704579
704067
709135
702609
711321
731384
742149
747979
767143
778026
780855
780968
791077
802221
810959
810314
801685
757225
686957
788092
821946
831771
839521
830091
818272
804371
801124
799501
789230
784473
773342
753214
737512
736272
703617
710575
688195
684031
670280
674789
670956
678534
683300
700820
708407
713418
714108
713423
706496
702263
690106
674707
685905
691245
701985
706484
706652
707454
707166
703060
702568
684955
686098
674082
692739
693811
716863
705745
717837
738406
749568
768021
786724
810142
829859
847884
860093
865486
859240
843082
800973
793071
744024
761234
769190
769257
763156
751527
735187
726512
695136
701177
671420
677498
657536
656253
644075
641321
633533
630366
626929
622578
617545
616973
607426
610793
605311
607903
611703
611024
615445
626854
634375
636128
627886
584787
641361
660102
673212
674107
673535
672651
668264
665437
660589
658596
660234
663004
679679
676878
695259
703899
712941
728134
736484
736727
732763
724781
718134
718025
737565
732684
777114
805626
833568
878232
897455
910279
941396
950637
945793
933800
903235
876940
859747
839786
804860
798079
755717
737226
679328
696379
636293
654144
631065
614669
610214
607991
593147
593443
591244
590241
608043
607955
619099
621569
628635
630747
631229
646646
655901
668537
678742
678399
675392
669886
663644
652054
641310
647027
647727
672640
676874
682706
681495
705859
735997
752402
762975
780168
798592
805784
817023
812241
803669
796294
788276
789874
799618
808667
797547
800793
771758
775935
774029
770223
766565
751198
748429
714832
696083
701023
671936
670195
668139
683990
676977
721311
704583
803633
810442
858375
851529
853596
870603
883724
877573
885331
850552
831104
761715
703088
668289
553194
939858
936128
970864
975079
971187
925448
876312
865898
858711
854850
875614
882584
893103
889732
877164
860241
834904
815726
788024
777002
746943
725672
695957
692452
677938
704568
713645
741159
767224
814472
809287
774336
855639
885697
895745
884954
874542
868899
881175
884960
906434
926694
941281
963460
972887
979546
985589
984442
983166
959869
918719
896970
847447
747903
718791
648543
676593
668362
742019
757972
872780
879427
885047
811679
884828
911804
913770
889408
868636
852343
819106
847155
838971
891951
889090
944498
940499
973446
992297
989370
958330
965587
949677
928261
927966
924688
955645
939683
967652
965345
974487
974795
966198
966904
993027
967807
1.03327e+06
1.08101e+06
1.11552e+06
1.10808e+06
1.1068e+06
1.10592e+06
1.09906e+06
1.0696e+06
1.05435e+06
1.00211e+06
972929
970811
950693
930286
930253
972505
973951
1.02087e+06
1.02783e+06
1.03596e+06
1.06502e+06
1.06151e+06
1.08293e+06
1.08371e+06
1.0964e+06
1.10956e+06
1.12558e+06
1.13222e+06
1.13743e+06
1.13595e+06
1.10296e+06
1.09731e+06
1.00056e+06
1.00412e+06
989444
960818
963184
935452
940894
921442
926197
910709
916235
901679
908413
899065
878534
845095
818549
784710
769102
738076
745923
726946
725813
725176
715406
718483
708646
710654
706851
703774
708069
707638
715879
718526
747857
744989
758928
769376
777627
785427
783070
776819
773191
772776
773367
788059
774589
812770
841022
855631
848767
840505
827073
820535
810579
808047
803549
791671
782044
772262
734529
745125
707148
712613
687147
690432
672799
674061
673739
669367
689479
696839
704803
711028
710483
707086
701806
695513
687871
676283
690886
692446
691388
694601
699083
706798
710112
719607
715341
722096
704850
707567
700117
713595
709675
720214
733047
753121
742877
776984
788830
812779
828507
847222
857113
860171
850817
839288
788064
788140
749189
760581
768504
765094
760745
749211
735168
725306
701317
705675
679608
683200
659243
665595
642358
649412
634077
636972
624889
624348
620649
615622
618268
608897
612106
605742
612361
608649
619178
630148
637948
644457
641139
624769
654261
660171
658754
664871
670635
665126
663339
659106
656647
659289
659943
677422
674034
694113
705313
712427
727424
735105
737892
737448
732784
727146
719400
729252
737028
755715
780260
819210
850542
887308
901418
918702
938480
946322
942584
930720
907369
875738
843438
837957
789633
794858
722986
731171
679331
667570
641382
651217
618143
624373
610928
608280
601920
606795
603956
600205
608049
609212
620974
632962
633658
632517
639787
648176
657431
671211
675978
681657
682537
672521
667675
659104
651298
648283
671185
688714
673398
699924
699637
712182
722727
763821
761050
779937
790017
801314
807471
806027
786517
783140
780055
786335
795044
810626
790853
791414
773071
777954
777069
778378
774580
764492
740347
732883
703205
686265
679939
671407
680928
673450
708421
689479
769718
796224
865387
898145
906603
899276
899887
886617
905162
899822
895686
840688
823447
766273
756569
742238
912036
950329
981028
987062
984678
921584
918301
883658
877592
893732
900464
914535
916420
911972
895425
869092
852005
825138
798175
781321
767233
731875
716469
691737
705055
711936
740845
760860
794228
833203
824822
835987
885776
911759
919982
915391
892386
884127
880246
904933
914115
935444
949627
966237
976584
982632
986711
984496
972648
955008
922172
853102
838166
702087
730510
653650
684930
713982
758729
838949
870492
959115
948216
923960
941238
917669
905799
875390
858221
832966
821349
821352
872330
861487
908371
930939
957380
965176
970247
960900
967961
932111
934884
904272
911900
919310
940197
949832
962483
958891
975888
975971
973130
1.00292e+06
1.00961e+06
1.01331e+06
1.08318e+06
1.12225e+06
1.11538e+06
1.12102e+06
1.12689e+06
1.1118e+06
1.09439e+06