/*--------------------------------*- C++ -*----------------------------------*\
| =========                 |                                                 |
| \\      /  F ield         | OpenFOAM: The Open Source CFD Toolbox           |
|  \\    /   O peration     | Version:  2.1.1                                 |
|   \\  /    A nd           | Web:      www.OpenFOAM.org                      |
|    \\/     M anipulation  |                                                 |
\*---------------------------------------------------------------------------*/
FoamFile
{
    version     2.0;
    format      ascii;
    class       volScalarField;
    location    "0.004100000";
    object      rho;
}
// * * * * * * * * * * * * * * * * * * * * * * * * * * * * * * * * * * * * * //

dimensions      [1 -3 0 0 0 0 0];

internalField   nonuniform List<scalar> 
12384
(
0.791273
0.783731
0.777464
0.794446
0.78783
0.814347
0.803856
0.833724
0.821592
0.873637
0.93318
1.08818
1.13046
1.14841
0.896635
0.839019
0.809447
0.796035
0.789441
0.783656
0.781005
0.776747
0.77584
0.77235
0.773448
0.769171
0.774604
0.766419
0.787509
0.76982
0.811777
0.794076
0.846747
0.840458
0.849834
0.8627
0.894912
0.939017
0.963429
1.01076
1.05102
1.09115
1.07197
1.00407
0.92127
0.909487
0.89937
0.891335
0.883523
0.877898
0.875986
0.874251
0.871631
0.860692
0.846814
0.824499
0.813372
0.80011
0.774687
0.761868
0.763524
0.743898
0.761424
0.760855
0.760506
0.731597
0.693154
0.674208
0.668855
0.669606
0.670041
0.685617
0.737954
0.829634
0.780887
0.786327
0.789565
0.79304
0.791201
0.784571
0.773399
0.759705
0.74609
0.729625
0.719117
0.698609
0.710579
0.693505
0.724793
0.708587
0.745928
0.74683
0.755581
0.768892
0.781851
0.791274
0.793348
0.798535
0.837261
0.858488
0.873839
0.861908
0.878295
0.878024
0.81331
0.813857
0.812807
0.809818
0.802218
0.791499
0.772688
0.773891
0.744345
0.754211
0.742077
0.746933
0.735271
0.728597
0.710929
0.711194
0.704724
0.702534
0.696816
0.700157
0.689591
0.689922
0.677887
0.681833
0.679064
0.701854
0.725048
0.749832
0.757128
0.762487
0.883743
0.767093
0.690808
0.677743
0.683547
0.684752
0.690088
0.69662
0.702635
0.709679
0.714492
0.715791
0.714871
0.71353
0.710286
0.704121
0.702418
0.69916
0.68947
0.682012
0.689996
0.656927
0.718724
0.661994
0.780291
0.801599
0.82991
0.824889
0.867013
0.983259
0.958434
0.934245
0.898085
0.913493
0.84426
0.815457
0.790562
0.793212
0.792875
0.78762
0.792329
0.790685
0.756145
0.787701
0.731036
0.763236
0.728608
0.738256
0.732198
0.72578
0.715578
0.709011
0.707184
0.692106
0.69103
0.669165
0.668241
0.675795
0.718004
0.912096
0.865694
0.812689
0.780076
0.767755
0.734518
0.62141
0.60627
0.624182
0.606493
0.651548
0.614587
0.702869
0.662941
0.746694
0.733121
0.767719
0.765428
0.771532
0.772709
0.780106
0.776468
0.785427
0.7867
0.791027
0.792098
0.790489
0.78591
0.789025
0.792444
0.784001
0.881489
0.876057
0.859868
0.740875
0.637777
0.590531
0.582767
0.561495
0.52931
0.539361
0.518893
0.513455
0.513933
0.515482
0.540347
0.530565
0.563945
0.586624
0.600334
0.637151
0.659304
0.676502
0.690744
0.709009
0.713657
0.751291
0.857888
0.968767
0.97821
0.945568
1.54735
1.51912
1.50733
1.46431
1.23852
1.17166
1.16532
0.883381
1.01321
0.671662
0.842891
0.756927
0.795884
0.789402
0.800495
0.806756
0.808771
0.806419
0.799553
0.788633
0.774724
0.754276
0.748297
0.723999
0.732187
0.717862
0.731044
0.742389
0.755336
0.762484
1.42667
1.31805
1.05932
0.917162
0.909061
0.904688
0.899178
0.846497
0.865438
0.834132
0.873682
0.862111
0.909588
0.938215
0.97863
1.00307
1.02918
1.04501
1.05301
1.05334
1.04539
1.02641
1.00678
0.979082
0.990967
0.970394
0.98609
0.991925
0.999021
1.02533
1.52561
1.3247
0.970514
0.927304
0.924955
0.915499
0.900245
0.907059
0.885827
0.928604
0.9175
0.95099
0.96121
0.965928
0.977621
0.983817
0.983108
0.981047
0.978017
0.976799
0.978023
0.979256
1.00404
1.05266
1.22923
1.35104
1.42512
1.4234
1.40608
1.32826
1.42019
1.37303
1.36962
1.44116
1.46537
1.48859
1.45422
1.43026
1.38031
1.34654
1.31896
1.2828
1.2066
1.17921
1.1142
1.09598
1.0666
1.06599
1.07533
1.07814
1.09685
1.11488
1.14325
1.20247
1.29119
1.43282
1.48811
1.49789
1.46124
1.40544
0.752811
0.7589
0.768321
0.789674
0.800758
0.837168
0.842988
0.873249
0.843745
0.847671
0.864907
0.957817
1.08371
1.15928
0.89268
0.811101
0.787194
0.785401
0.787978
0.789694
0.788536
0.787297
0.783533
0.78144
0.777562
0.777588
0.774091
0.778089
0.781978
0.784141
0.80859
0.808286
0.846277
0.842502
0.853826
0.851721
0.870932
0.904076
0.939919
0.981345
1.01708
1.07142
1.08089
1.01495
0.895323
0.858431
0.847344
0.840308
0.834324
0.830728
0.829614
0.831832
0.831498
0.830155
0.818118
0.808589
0.799419
0.786292
0.788343
0.760653
0.766905
0.750215
0.759185
0.763378
0.766286
0.772601
0.750883
0.712421
0.683977
0.66887
0.663111
0.673576
0.71261
0.818105
0.781551
0.792824
0.784935
0.775137
0.767392
0.760253
0.751027
0.738771
0.724624
0.709527
0.701728
0.683607
0.690427
0.686522
0.707155
0.716294
0.736906
0.753735
0.768521
0.779405
0.786333
0.793679
0.798324
0.799376
0.816741
0.842659
0.846142
0.839176
0.852685
0.859066
0.800556
0.806824
0.81199
0.812249
0.803931
0.788435
0.771824
0.755824
0.744866
0.733344
0.735869
0.726451
0.724508
0.706639
0.706056
0.693989
0.698017
0.692346
0.690148
0.690747
0.686666
0.681576
0.681138
0.673034
0.678836
0.688074
0.702386
0.707372
0.714992
0.735677
0.853292
0.729723
0.687776
0.686263
0.693455
0.707679
0.719214
0.736959
0.745859
0.748216
0.74326
0.734656
0.725455
0.711967
0.704389
0.699626
0.691497
0.685216
0.678996
0.676857
0.67314
0.649163
0.696408
0.664785
0.747871
0.78509
0.822743
0.830939
0.8469
0.883255
0.930798
0.931978
0.899881
0.86682
0.803708
0.780112
0.764956
0.779162
0.802157
0.834578
0.844159
0.88034
0.861785
0.902369
0.859112
0.881105
0.849911
0.869321
0.849279
0.858223
0.837103
0.828875
0.797349
0.768874
0.7236
0.699404
0.681656
0.67371
0.713762
0.91499
0.834361
0.810847
0.790247
0.731165
0.643935
0.618899
0.612337
0.623075
0.602517
0.647963
0.61157
0.689367
0.667992
0.723169
0.746331
0.761234
0.76836
0.775048
0.777292
0.774148
0.778227
0.778028
0.784928
0.790191
0.789435
0.772848
0.764204
0.76393
0.783042
0.779118
0.870742
0.880653
0.789846
0.651251
0.625613
0.598292
0.576466
0.581162
0.542789
0.541556
0.540175
0.531581
0.543716
0.546854
0.559778
0.568391
0.590714
0.608056
0.631894
0.658403
0.671643
0.688827
0.710099
0.697421
0.706665
0.704807
0.742667
0.795837
0.968672
0.968238
1.49931
1.48629
1.41463
1.24067
1.17654
1.13004
1.00752
0.96593
0.838975
0.81604
0.780412
0.804692
0.8058
0.808085
0.814676
0.816188
0.813548
0.80748
0.796903
0.783641
0.769348
0.749843
0.741875
0.718302
0.717387
0.714474
0.718369
0.734927
0.750929
0.763976
1.39735
1.19174
0.954722
0.900388
0.879248
0.863982
0.840124
0.849478
0.821556
0.829833
0.826463
0.850539
0.879926
0.917464
0.952903
0.988956
1.01309
1.02843
1.03624
1.04253
1.0398
1.0266
1.01816
1.00819
0.954652
0.973516
0.963026
0.976149
0.990225
1.01831
1.45176
1.06873
0.948819
0.926268
0.916562
0.904588
0.893812
0.886595
0.889388
0.906029
0.911018
0.940504
0.940786
0.958022
0.960927
0.964174
0.966223
0.962343
0.956112
0.948095
0.935019
0.923171
0.918719
0.934512
0.945114
0.991839
1.10499
1.31595
1.4412
1.39992
1.40968
1.36741
1.39422
1.42355
1.42434
1.34098
1.2257
1.11875
1.05319
1.02737
0.996763
0.961367
0.909271
0.907671
0.845855
0.859476
0.8427
0.845461
0.858441
0.854797
0.880216
0.879116
0.90548
0.933372
0.95791
1.03215
1.20673
1.39279
1.47541
1.4651
0.754368
0.765756
0.776416
0.798349
0.804134
0.836305
0.846809
0.900093
0.889212
0.871921
0.838831
0.886224
1.0001
1.14925
0.870567
0.789807
0.796499
0.800921
0.809609
0.81167
0.807815
0.798839
0.790906
0.780107
0.775023
0.766893
0.767695
0.758525
0.774905
0.761863
0.811364
0.79558
0.852435
0.844833
0.854189
0.848061
0.853488
0.878389
0.916431
0.956974
0.985773
1.04445
1.07677
1.0219
0.848934
0.838283
0.831853
0.824063
0.818468
0.81661
0.818333
0.821845
0.82839
0.825009
0.816765
0.799139
0.792576
0.781508
0.78448
0.763334
0.776913
0.756807
0.768447
0.766852
0.773028
0.78353
0.783065
0.764691
0.720332
0.682165
0.666052
0.664519
0.695983
0.815122
0.7964
0.771092
0.757273
0.754513
0.753335
0.75087
0.745043
0.733383
0.721498
0.705386
0.69975
0.677915
0.685464
0.671893
0.700405
0.70116
0.724545
0.74063
0.76958
0.788866
0.797063
0.801876
0.800079
0.804902
0.808182
0.826279
0.836444
0.837135
0.845346
0.859526
0.819774
0.838191
0.844608
0.834941
0.809514
0.789744
0.75756
0.749611
0.724586
0.731628
0.713892
0.718372
0.705416
0.705961
0.689576
0.692336
0.683133
0.686601
0.678438
0.68158
0.675547
0.68058
0.671947
0.674189
0.670435
0.678041
0.689968
0.698104
0.701233
0.718209
0.810309
0.708899
0.689197
0.697813
0.71321
0.739866
0.75532
0.758279
0.745655
0.73032
0.723515
0.717871
0.709321
0.705557
0.700952
0.693159
0.689599
0.685848
0.687754
0.674196
0.677006
0.655906
0.689824
0.679843
0.737825
0.771427
0.807744
0.829849
0.840192
0.863792
0.911106
0.923077
0.893389
0.831013
0.773059
0.758296
0.793536
0.834629
0.876572
0.925394
0.96971
0.976139
0.931366
0.942894
0.853342
0.886583
0.832585
0.852478
0.848925
0.845138
0.852889
0.846418
0.833904
0.815503
0.778134
0.738528
0.69674
0.698701
0.719547
0.908888
0.872121
0.803907
0.728215
0.677384
0.647856
0.614364
0.608713
0.612769
0.602643
0.633346
0.597574
0.67293
0.634802
0.70832
0.703755
0.743906
0.75634
0.76878
0.783429
0.784167
0.780771
0.78715
0.790264
0.825968
0.842101
0.796449
0.749507
0.743309
0.760307
0.775053
0.867667
0.835055
0.671178
0.63186
0.613363
0.6134
0.585314
0.581493
0.586342
0.562502
0.576355
0.572793
0.56499
0.563993
0.587155
0.600694
0.607581
0.64533
0.662462
0.677191
0.694477
0.729051
0.725497
0.743367
0.718935
0.708978
0.700027
0.749748
0.848081
1.00512
1.49687
1.44511
1.2639
1.15998
1.10948
1.02762
0.992092
0.832849
0.873592
0.766397
0.833085
0.813784
0.840095
0.841606
0.839129
0.830925
0.820632
0.808362
0.794359
0.781609
0.77033
0.755667
0.748973
0.728941
0.725416
0.711587
0.720182
0.730162
0.744533
0.757696
1.3486
1.08366
0.918416
0.877596
0.851595
0.834313
0.843802
0.81735
0.833434
0.834167
0.828436
0.85844
0.882961
0.90708
0.942928
0.982369
1.00557
1.02019
1.03656
1.04876
1.0688
1.10362
1.10309
1.06027
1.05784
0.992383
0.974462
0.962384
0.969825
0.989323
1.31529
0.997185
0.939759
0.919634
0.903728
0.888008
0.864093
0.867715
0.864071
0.896353
0.891207
0.919029
0.928454
0.938032
0.945311
0.948037
0.952174
0.956737
0.955848
0.946743
0.938266
0.923369
0.914592
0.883183
0.882064
0.880483
0.930197
1.02011
1.34888
1.46392
1.39986
1.36181
1.40113
1.38072
1.25974
1.10373
1.01139
0.977799
0.944359
0.920712
0.898339
0.895064
0.854167
0.851911
0.819044
0.828841
0.816588
0.81516
0.827958
0.824402
0.841081
0.847166
0.868379
0.895593
0.92156
0.940593
0.987863
1.09875
1.42232
1.5224
0.773872
0.794523
0.818332
0.82911
0.831634
0.844278
0.849761
0.89186
0.899938
0.894651
0.839099
0.84485
0.937557
1.11259
0.807639
0.798157
0.798425
0.819769
0.821709
0.818605
0.806865
0.78994
0.772285
0.761028
0.746739
0.737702
0.723379
0.724655
0.718784
0.739609
0.766074
0.790674
0.83047
0.843576
0.853008
0.843835
0.841485
0.859325
0.895815
0.932985
0.962597
1.01555
1.06668
1.02754
0.831692
0.829667
0.819897
0.81008
0.803987
0.805251
0.807908
0.818007
0.829624
0.833041
0.82248
0.799146
0.794395
0.777885
0.777385
0.779651
0.770768
0.776345
0.768716
0.775288
0.778291
0.785008
0.798617
0.794231
0.761571
0.714472
0.676026
0.662565
0.691009
0.810637
0.764625
0.742192
0.740926
0.748869
0.755094
0.754446
0.747303
0.736439
0.726051
0.706896
0.704028
0.679072
0.685828
0.67798
0.695983
0.698764
0.723125
0.731562
0.762667
0.790108
0.805729
0.810993
0.807912
0.810474
0.814802
0.823695
0.833145
0.832193
0.844951
0.857719
0.872439
0.870714
0.848923
0.820739
0.783432
0.76316
0.734472
0.721374
0.711248
0.695142
0.698728
0.691438
0.695036
0.683785
0.687644
0.678133
0.680387
0.671523
0.673935
0.665817
0.673348
0.66785
0.672534
0.667299
0.668166
0.673275
0.682487
0.697162
0.698933
0.715027
0.77065
0.699856
0.691942
0.712799
0.736392
0.758604
0.750722
0.732386
0.724185
0.72189
0.720759
0.714773
0.713475
0.709924
0.701419
0.697744
0.69342
0.696209
0.683647
0.68221
0.677167
0.668336
0.673936
0.695755
0.733916
0.760566
0.797353
0.82446
0.839067
0.860642
0.919891
0.912644
0.874656
0.80418
0.781956
0.788818
0.833796
0.887597
0.944919
0.995985
0.987127
0.97425
0.861923
0.869926
0.781504
0.802504
0.766919
0.787127
0.782111
0.803055
0.807632
0.803372
0.802123
0.785587
0.777982
0.744855
0.717612
0.702669
0.720264
0.899306
0.848725
0.78907
0.706829
0.656937
0.636889
0.631553
0.618841
0.599764
0.587395
0.616971
0.575274
0.62858
0.610497
0.663367
0.667185
0.707523
0.720898
0.75694
0.775753
0.785988
0.787516
0.787452
0.79458
0.859859
0.897694
0.833319
0.740936
0.72114
0.750618
0.762647
0.891991
0.803152
0.677831
0.656362
0.632967
0.622265
0.631819
0.609381
0.583581
0.573255
0.564617
0.562668
0.567655
0.57759
0.612607
0.60055
0.643039
0.652162
0.671402
0.690789
0.737989
0.723768
0.746828
0.751809
0.767605
0.728107
0.710564
0.710838
0.775505
0.988391
1.42649
1.3585
1.1564
1.09384
1.04194
0.976824
0.865176
0.819636
0.742944
0.797805
0.792981
0.838719
0.867358
0.871079
0.856993
0.832975
0.813074
0.797516
0.786914
0.780605
0.775915
0.779468
0.778308
0.762724
0.744895
0.733044
0.734147
0.728782
0.7387
0.749023
1.30789
1.01358
0.895338
0.85285
0.822258
0.804229
0.789211
0.819944
0.802032
0.838582
0.835131
0.888014
0.888793
0.911194
0.933695
0.976843
0.990277
1.00862
1.0316
1.10168
1.16926
1.16412
1.08478
1.04376
0.964253
0.999727
0.966437
0.941105
0.933435
0.953741
1.20699
0.975096
0.933795
0.90913
0.880687
0.856138
0.854639
0.836132
0.856774
0.862525
0.883073
0.896349
0.912545
0.923906
0.931798
0.94817
0.965799
0.977701
0.976571
0.971581
0.956183
0.942454
0.905913
0.895058
0.863199
0.83681
0.851796
0.911073
1.06621
1.47579
1.40562
1.35725
1.38496
1.28951
1.06487
0.975938
0.944057
0.909315
0.895092
0.892468
0.899378
0.885803
0.863243
0.863943
0.838633
0.831674
0.830554
0.835564
0.831165
0.829725
0.834197
0.838479
0.86277
0.895799
0.945292
0.964034
0.967882
1.01447
1.3018
1.56015
0.78897
0.841362
0.86805
0.887176
0.884529
0.894684
0.883836
0.918046
0.904772
0.88885
0.830258
0.817892
0.875692
1.06421
0.788295
0.800203
0.817168
0.82634
0.833392
0.812983
0.789882
0.768597
0.751932
0.7333
0.717868
0.697528
0.691173
0.684299
0.7011
0.706128
0.757297
0.776778
0.821341
0.833481
0.842054
0.833676
0.826726
0.840856
0.874043
0.912378
0.940177
0.991106
1.05538
1.03269
0.827104
0.82719
0.808795
0.796286
0.792045
0.793989
0.801628
0.81165
0.833806
0.834735
0.820009
0.806703
0.789364
0.777816
0.788912
0.777201
0.786848
0.77785
0.776058
0.782509
0.786208
0.795616
0.807701
0.807622
0.79573
0.748808
0.693294
0.6666
0.685372
0.805446
0.737712
0.724936
0.736781
0.749957
0.755821
0.752853
0.744026
0.731986
0.722282
0.702958
0.70406
0.680256
0.692449
0.678806
0.70578
0.695314
0.730756
0.72568
0.765063
0.785366
0.814611
0.820159
0.823114
0.819904
0.820667
0.824661
0.826424
0.830421
0.837389
0.85797
0.894158
0.874378
0.836543
0.802543
0.773511
0.758485
0.720724
0.726307
0.685294
0.697146
0.67161
0.674301
0.667616
0.676619
0.6703
0.676114
0.667236
0.669261
0.659941
0.665375
0.658567
0.667311
0.665583
0.664953
0.667226
0.67184
0.682027
0.697668
0.70455
0.711203
0.746776
0.69307
0.700129
0.725742
0.74994
0.745322
0.728516
0.719258
0.717678
0.716876
0.714295
0.716021
0.713482
0.704953
0.701394
0.696875
0.700466
0.688624
0.693296
0.688761
0.676852
0.674226
0.669138
0.695265
0.72527
0.753236
0.780014
0.814916
0.834963
0.857388
0.899708
0.920793
0.866776
0.801785
0.784904
0.836694
0.882325
0.921618
0.967996
0.977978
0.925217
0.898628
0.799627
0.812285
0.748298
0.769813
0.745895
0.754443
0.759707
0.763511
0.769676
0.763689
0.735999
0.731203
0.72616
0.725564
0.709604
0.693421
0.711879
0.882516
0.86362
0.77927
0.687716
0.663792
0.659128
0.655137
0.638061
0.618494
0.594202
0.598833
0.560839
0.617339
0.58504
0.652994
0.639689
0.675216
0.706966
0.73362
0.762656
0.787794
0.792976
0.787835
0.802502
0.885124
0.930784
0.847769
0.731017
0.712305
0.738913
0.759358
0.868391
0.733471
0.648498
0.629804
0.631908
0.623826
0.613761
0.631841
0.645801
0.628186
0.623228
0.626536
0.616635
0.626956
0.601705
0.637121
0.634729
0.659189
0.678269
0.737609
0.73041
0.763508
0.744184
0.768261
0.771716
0.772589
0.718414
0.716186
0.750216
0.929041
1.43455
1.30045
1.11693
1.04131
0.981824
0.888155
0.842096
0.725496
0.76277
0.737394
0.787838
0.83527
0.878762
0.898253
0.862907
0.826037
0.800605
0.787707
0.788164
0.793121
0.81003
0.877517
0.915925
0.911474
0.85686
0.765475
0.744789
0.7303
0.732442
0.738697
1.272
0.96712
0.872935
0.83234
0.807308
0.792256
0.795508
0.774183
0.781929
0.828451
0.84732
0.909242
0.911371
0.905818
0.933353
0.965029
0.97669
1.0063
1.0784
1.16332
1.16336
1.05605
0.987089
0.908691
0.962866
0.925005
0.938792
0.918921
0.88838
0.896655
1.12309
0.957864
0.92385
0.89437
0.858384
0.847353
0.816767
0.839086
0.824211
0.848747
0.859945
0.881341
0.892348
0.912308
0.939487
0.964891
0.987008
0.994892
1.00185
1.00383
0.995214
0.952799
0.939002
0.896483
0.8611
0.843628
0.829334
0.843864
0.958378
1.41848
1.39843
1.35856
1.34566
1.14114
0.981348
0.925921
0.89134
0.888327
0.880618
0.891884
0.892503
0.882835
0.882816
0.863146
0.838785
0.841321
0.845362
0.852471
0.854718
0.841166
0.843901
0.83006
0.856777
0.88228
0.950803
1.00011
0.989784
0.996244
1.13742
1.5709
0.841476
0.909972
0.929937
0.919352
0.923646
0.920396
0.92349
0.925584
0.90927
0.844356
0.799557
0.795222
0.83169
0.992005
0.815439
0.801388
0.825465
0.846851
0.827021
0.804158
0.773622
0.75497
0.741313
0.720837
0.699041
0.684989
0.674744
0.680124
0.686059
0.714634
0.753375
0.774011
0.819381
0.820533
0.824116
0.816891
0.809209
0.819456
0.852872
0.89217
0.919878
0.967075
1.05052
1.03231
0.816676
0.82173
0.799956
0.786451
0.780495
0.786024
0.79967
0.814404
0.829159
0.83893
0.819142
0.809418
0.789471
0.800554
0.787381
0.799303
0.786165
0.796251
0.780661
0.7849
0.793667
0.795396
0.805866
0.814261
0.810236
0.775192
0.71322
0.668964
0.683921
0.800464
0.719189
0.723991
0.744695
0.74857
0.746475
0.743251
0.735152
0.72571
0.717221
0.703659
0.705118
0.689715
0.690859
0.686714
0.709711
0.704057
0.731228
0.735006
0.76911
0.792852
0.822695
0.835442
0.833751
0.832033
0.834882
0.836372
0.833806
0.828722
0.836638
0.84886
0.906631
0.871457
0.839995
0.815361
0.792384
0.773974
0.733775
0.735415
0.689264
0.697953
0.675894
0.67573
0.675078
0.668017
0.671513
0.662201
0.665793
0.656221
0.661223
0.653538
0.659478
0.664399
0.663036
0.667708
0.670112
0.670591
0.682204
0.706925
0.704482
0.714342
0.728902
0.691548
0.705217
0.734386
0.74105
0.724941
0.71257
0.708845
0.708533
0.709632
0.713697
0.713956
0.706361
0.70408
0.698423
0.702962
0.692643
0.699614
0.694639
0.68539
0.681136
0.67894
0.672571
0.688933
0.717254
0.740518
0.761895
0.800169
0.825367
0.849449
0.923334
0.922672
0.856376
0.815273
0.814771
0.85734
0.901924
0.915379
0.92149
0.924986
0.87094
0.869482
0.775307
0.803118
0.738295
0.765543
0.733054
0.755124
0.744665
0.751934
0.736485
0.714074
0.680912
0.666828
0.669772
0.682885
0.684676
0.685119
0.700458
0.884797
0.850635
0.763523
0.68872
0.674772
0.669233
0.662718
0.649564
0.620057
0.590893
0.587294
0.562099
0.606421
0.589353
0.641392
0.633258
0.676102
0.684594
0.723918
0.752243
0.788066
0.795545
0.799622
0.811237
0.916248
0.940904
0.846399
0.725849
0.708065
0.73832
0.76695
0.920012
0.747882
0.696889
0.689746
0.681178
0.687255
0.684898
0.657006
0.640169
0.646777
0.624071
0.613093
0.622365
0.61868
0.654854
0.641856
0.670535
0.667684
0.725925
0.716537
0.770483
0.765203
0.764786
0.753175
0.793194
0.775337
0.754396
0.718176
0.748006
0.871878
1.30937
1.21421
1.02842
0.980079
0.91881
0.859753
0.806313
0.724414
0.729957
0.738485
0.77626
0.826732
0.900223
0.907404
0.865021
0.81364
0.797155
0.782749
0.799866
0.835496
0.960154
1.02647
1.01402
1.02363
0.993457
0.876648
0.759697
0.723994
0.730106
0.73515
1.23071
0.937377
0.851574
0.812948
0.784794
0.766073
0.753057
0.770845
0.77131
0.806902
0.870759
0.935024
0.926024
0.896988
0.927152
0.944289
0.960346
1.0063
1.10798
1.14846
1.0883
1.02319
0.94914
0.907652
0.803298
0.826275
0.863061
0.884
0.867566
0.890595
1.05734
0.937077
0.907433
0.87238
0.843684
0.815304
0.828472
0.803803
0.836342
0.822332
0.842373
0.854086
0.879007
0.896072
0.924745
0.961205
0.986015
1.00032
1.00969
1.02364
1.00732
1.00587
0.964401
0.916315
0.871463
0.833199
0.799336
0.816767
0.892979
1.35109
1.38604
1.36316
1.2816
1.01645
0.933146
0.896542
0.876807
0.874389
0.895008
0.892004
0.886111
0.890538
0.86736
0.838743
0.848319
0.837835
0.848468
0.847087
0.867581
0.859255
0.8571
0.83401
0.852163
0.867276
0.955866
1.01752
1.01567
1.0087
1.14553
1.54713
0.851054
0.93715
0.931854
0.933395
0.91763
0.928671
0.922559
0.909935
0.841853
0.79733
0.789037
0.80489
0.834104
0.969654
0.798822
0.830843
0.847415
0.848393
0.830389
0.794216
0.781877
0.761683
0.751806
0.733985
0.71474
0.689192
0.679665
0.673228
0.685649
0.7001
0.747029
0.75376
0.791118
0.796587
0.792508
0.782972
0.782612
0.804944
0.839209
0.870553
0.897426
0.948429
1.04079
1.03833
0.849012
0.825999
0.801799
0.780237
0.782112
0.786072
0.812801
0.825848
0.840498
0.84642
0.827768
0.826935
0.809593
0.821967
0.803302
0.794166
0.768628
0.741791
0.726501
0.731812
0.735867
0.759431
0.779483
0.800131
0.802496
0.781979
0.72057
0.671141
0.684958
0.797197
0.699363
0.709011
0.725706
0.737569
0.745417
0.737878
0.73023
0.726095
0.722241
0.715247
0.718076
0.705092
0.70611
0.698978
0.721295
0.708753
0.748423
0.741955
0.786423
0.808333
0.837996
0.842482
0.842785
0.843618
0.846583
0.844486
0.837746
0.837858
0.840606
0.852967
0.90871
0.877253
0.857714
0.841136
0.819319
0.801708
0.761721
0.7554
0.702292
0.707234
0.675903
0.679251
0.668256
0.66791
0.660551
0.665247
0.65381
0.661198
0.653149
0.66177
0.66288
0.664149
0.668716
0.669668
0.671989
0.674334
0.691533
0.712925
0.70894
0.717763
0.720006
0.688224
0.713156
0.733195
0.722735
0.704189
0.692529
0.690027
0.694594
0.709335
0.714308
0.709795
0.709348
0.703633
0.708265
0.698356
0.70835
0.703339
0.697287
0.694854
0.687363
0.68515
0.675857
0.703581
0.702667
0.723996
0.748678
0.785094
0.817391
0.839682
0.932498
0.921359
0.846842
0.819553
0.847792
0.863099
0.872969
0.886279
0.880358
0.882568
0.83737
0.843858
0.766547
0.778073
0.738667
0.748367
0.727898
0.759
0.735193
0.734271
0.717851
0.677493
0.659779
0.64727
0.645191
0.657681
0.666846
0.672485
0.704587
0.888562
0.844794
0.752616
0.686181
0.671196
0.679142
0.672882
0.653864
0.630695
0.600417
0.57636
0.565947
0.604829
0.594582
0.632025
0.628997
0.68149
0.673255
0.718529
0.748241
0.787424
0.808191
0.807458
0.825005
0.937667
0.952264
0.815086
0.728675
0.716969
0.751574
0.771641
0.916724
0.760619
0.698815
0.680787
0.683202
0.678586
0.687736
0.700386
0.677612
0.670971
0.683562
0.683074
0.671087
0.688865
0.667561
0.69035
0.669436
0.722775
0.709569
0.784517
0.787844
0.795118
0.789014
0.781665
0.782627
0.802539
0.760543
0.758134
0.748186
0.793114
1.32363
1.17834
0.997362
0.924926
0.896212
0.817546
0.810104
0.719968
0.744358
0.742733
0.771937
0.841269
0.922299
0.930796
0.863428
0.813814
0.790493
0.797448
0.816836
0.962014
1.0193
1.03802
1.00229
1.0125
0.990034
0.920136
0.737763
0.730604
0.70933
0.746699
1.20572
0.917562
0.835653
0.797059
0.775033
0.762642
0.759241
0.774417
0.774434
0.820628
0.899021
0.974528
0.915306
0.888263
0.91359
0.932208
0.963315
0.997853
1.0855
1.10425
1.08927
0.971168
0.907059
0.802401
0.846211
0.813755
0.830814
0.872741
0.848895
0.805195
0.993667
0.906269
0.879842
0.852945
0.825166
0.809431
0.787285
0.816188
0.795343
0.831742
0.813999
0.836477
0.850235
0.881522
0.911708
0.960544
0.985001
0.98556
1.00323
1.04929
1.08238
1.05952
0.979038
0.918549
0.896651
0.838339
0.810382
0.793837
0.885121
1.26332
1.40414
1.35504
1.16827
0.96718
0.915404
0.878111
0.879019
0.884624
0.884785
0.883118
0.882148
0.868345
0.843357
0.855315
0.841975
0.83773
0.843951
0.838605
0.859741
0.866075
0.870866
0.846953
0.84569
0.858573
0.949996
1.03028
1.04082
1.04109
1.20081
1.53827
0.904422
0.975969
0.960373
0.924016
0.924936
0.906978
0.872868
0.810321
0.793825
0.819664
0.890356
0.903315
0.893675
0.949254
0.868663
0.83016
0.877842
0.853291
0.834308
0.816455
0.799837
0.794934
0.782892
0.770085
0.755624
0.727637
0.69857
0.681216
0.678233
0.679402
0.711251
0.718541
0.741076
0.747831
0.757324
0.758934
0.774511
0.800554
0.831891
0.864111
0.906008
0.97783
1.06448
1.06445
0.888375
0.83974
0.799532
0.789078
0.781257
0.793652
0.822951
0.839155
0.852355
0.865378
0.851794
0.845273
0.810868
0.785444
0.729345
0.72472
0.703979
0.693269
0.69612
0.692006
0.694902
0.711957
0.725018
0.763568
0.782113
0.766952
0.715286
0.666779
0.686304
0.793728
0.704384
0.715473
0.722751
0.723977
0.727972
0.732018
0.732927
0.730037
0.73143
0.750779
0.75003
0.757125
0.745392
0.740964
0.728131
0.741071
0.761059
0.765027
0.80515
0.83037
0.844749
0.85002
0.851211
0.855517
0.858509
0.855782
0.854631
0.872791
0.874924
0.829954
0.929458
0.893684
0.870585
0.845115
0.821328
0.812208
0.782047
0.789433
0.741399
0.735695
0.691595
0.696828
0.671838
0.677166
0.662148
0.667125
0.6638
0.663799
0.663084
0.672558
0.667043
0.67501
0.673194
0.676846
0.67418
0.68997
0.705375
0.718494
0.713984
0.721779
0.709481
0.692708
0.715445
0.719947
0.699581
0.677792
0.665976
0.668658
0.684118
0.697344
0.707066
0.712958
0.711725
0.718097
0.707063
0.716217
0.712818
0.710851
0.708624
0.700185
0.693676
0.688595
0.683328
0.705869
0.697373
0.706531
0.748478
0.773561
0.801066
0.834054
0.939533
0.915731
0.851604
0.83119
0.843909
0.848784
0.83533
0.828211
0.835951
0.832333
0.80127
0.810793
0.742114
0.768487
0.719739
0.72514
0.721641
0.742476
0.731371
0.734745
0.69448
0.665472
0.642706
0.636968
0.645411
0.647314
0.664144
0.674053
0.737651
0.911915
0.826675
0.762035
0.689574
0.675142
0.676738
0.675163
0.655282
0.631156
0.608184
0.599457
0.591672
0.605609
0.599118
0.631702
0.620072
0.673685
0.67951
0.714776
0.743165
0.796017
0.81644
0.815811
0.833176
0.95051
0.949083
0.799151
0.738118
0.740006
0.769844
0.792886
0.9646
0.794937
0.735911
0.727649
0.728497
0.741239
0.727678
0.722275
0.724816
0.700669
0.69578
0.700128
0.713685
0.70098
0.718637
0.697906
0.735191
0.713425
0.77911
0.770212
0.80843
0.820403
0.792286
0.767462
0.806803
0.799625
0.811621
0.786863
0.815078
0.784635
1.15158
1.11776
0.959751
0.920508
0.85856
0.827495
0.795742
0.737617
0.759131
0.756285
0.787065
0.869236
0.962991
0.94668
0.861697
0.81508
0.801222
0.797565
0.876355
0.99899
1.01726
0.98881
0.963332
0.959508
0.930958
0.820042
0.745128
0.703892
0.733192
0.753627
1.19334
0.924311
0.827851
0.792067
0.774937
0.75885
0.753163
0.768979
0.805974
0.843922
0.969396
0.986113
0.897945
0.875576
0.902756
0.893815
0.905529
0.974568
1.0881
1.10025
1.04426
0.95111
0.917251
0.804378
0.788386
0.809595
0.795339
0.904167
0.841513
0.875778
0.958562
0.875415
0.856704
0.82732
0.802699
0.78494
0.799066
0.777284
0.811406
0.798673
0.826398
0.81202
0.831927
0.845851
0.88784
0.926929
0.936354
0.919436
0.979344
1.05291
1.04204
1.02554
1.00455
0.9428
0.870132
0.833704
0.789617
0.799041
0.881072
1.14435
1.42565
1.31393
1.08058
0.967283
0.899054
0.886405
0.880722
0.891882
0.879557
0.878868
0.873234
0.851331
0.865954
0.860583
0.844246
0.843733
0.84697
0.842767
0.854891
0.857173
0.880473
0.860492
0.848625
0.849535
0.934178
1.03098
1.08563
1.11019
1.26231
1.36725
0.901306
0.978761
0.950988
0.941342
0.90284
0.869283
0.812096
0.798095
0.82116
0.882561
0.910756
0.946135
0.932133
0.947733
0.894973
0.937336
0.886968
0.923075
0.866063
0.875822
0.841188
0.825123
0.822343
0.808484
0.808754
0.800165
0.79378
0.780193
0.747823
0.715756
0.695701
0.679705
0.686075
0.704296
0.71497
0.720912
0.739246
0.755726
0.77392
0.799954
0.84269
0.893475
0.947748
1.00049
1.04681
0.971608
0.872137
0.96491
0.949933
0.839923
0.809678
0.795931
0.789836
0.794014
0.828736
0.858242
0.86642
0.865749
0.834395
0.787352
0.749942
0.74171
0.712453
0.720386
0.6982
0.692491
0.67686
0.681275
0.678853
0.68988
0.697228
0.726226
0.74988
0.743564
0.694528
0.676212
0.729051
0.728814
0.682614
0.659765
0.673312
0.68416
0.698018
0.708832
0.717627
0.728004
0.734549
0.736078
0.745856
0.746483
0.761118
0.75273
0.77084
0.764236
0.781469
0.766903
0.78288
0.805868
0.822636
0.840427
0.850358
0.85686
0.86079
0.86619
0.862422
0.865264
0.894922
0.955387
0.942563
0.930808
0.877956
0.889973
0.888279
0.872142
0.842689
0.809346
0.783546
0.77991
0.769164
0.794788
0.779653
0.79296
0.758112
0.732697
0.702399
0.693027
0.683011
0.681102
0.679801
0.680855
0.680285
0.684509
0.678039
0.683846
0.680195
0.688058
0.698077
0.70829
0.72283
0.72362
0.709239
0.722086
0.71114
0.631298
0.676053
0.682884
0.710943
0.70066
0.670201
0.649754
0.644891
0.652022
0.663965
0.68413
0.705547
0.715392
0.727377
0.718809
0.72692
0.726366
0.725242
0.725404
0.717182
0.70691
0.700935
0.697009
0.694526
0.695453
0.710065
0.706367
0.746416
0.775376
0.802623
0.84135
0.878584
0.895597
0.920841
0.891843
0.84203
0.836981
0.83208
0.817923
0.805824
0.79648
0.77813
0.784387
0.761733
0.76069
0.715696
0.737647
0.687583
0.71236
0.705406
0.718416
0.740327
0.737503
0.700079
0.670984
0.652929
0.645402
0.661314
0.663907
0.682636
0.705586
0.804496
0.932113
0.874209
0.824558
0.819848
0.777104
0.701197
0.675992
0.67681
0.673441
0.659352
0.634657
0.609349
0.601598
0.597186
0.613899
0.617104
0.624871
0.631196
0.659574
0.690202
0.714363
0.746244
0.798062
0.824103
0.818622
0.831993
0.949293
0.940243
0.784335
0.739825
0.746494
0.77951
0.793557
0.785123
0.854417
0.951243
0.903099
0.760443
0.743778
0.746528
0.744402
0.753046
0.731679
0.719648
0.727089
0.707577
0.709971
0.710148
0.723654
0.714464
0.744848
0.71561
0.783852
0.776752
0.822141
0.827155
0.832244
0.829074
0.812043
0.825103
0.850287
0.851678
0.947886
0.964825
0.923725
0.880684
0.745284
1.14643
1.06175
0.930816
0.886814
0.871154
0.83075
0.794501
0.786626
0.782351
0.781247
0.823937
0.919259
1.00367
0.967672
0.862013
0.820934
0.804257
0.820399
0.911948
1.00233
0.986033
0.954146
0.928691
0.90963
0.820828
0.749242
0.713972
0.717455
0.737471
0.775458
0.811837
1.00959
1.12745
0.9172
0.834166
0.805791
0.790352
0.785004
0.796523
0.80655
0.849147
0.935455
1.01478
0.964415
0.880483
0.878716
0.895338
0.89764