/*--------------------------------*- C++ -*----------------------------------*\
| =========                 |                                                 |
| \\      /  F ield         | OpenFOAM: The Open Source CFD Toolbox           |
|  \\    /   O peration     | Version:  2.1.1                                 |
|   \\  /    A nd           | Web:      www.OpenFOAM.org                      |
|    \\/     M anipulation  |                                                 |
\*---------------------------------------------------------------------------*/
FoamFile
{
    version     2.0;
    format      ascii;
    class       volScalarField;
    location    "0.004900000";
    object      H;
}
// * * * * * * * * * * * * * * * * * * * * * * * * * * * * * * * * * * * * * //

dimensions      [0 0 0 0 0 0 0];

internalField   nonuniform List<scalar> 
12384
(
0.000446611
0.000376493
0.000313517
0.00027713
0.000251656
0.000247793
0.000261129
0.000284874
0.000331021
0.000407059
0.000476738
0.000541534
0.000455748
4.72977e-05
3.30616e-06
4.03523e-06
3.7226e-06
3.19934e-06
3.06905e-06
3.39907e-06
3.76941e-06
4.35315e-06
4.71252e-06
5.16097e-06
5.46816e-06
5.54362e-06
5.57104e-06
5.47061e-06
5.65925e-06
5.76729e-06
5.65048e-06
5.5883e-06
5.46398e-06
5.39527e-06
5.36274e-06
5.24694e-06
5.42474e-06
5.31429e-06
5.20022e-06
5.36191e-06
4.74415e-06
3.83768e-06
6.66305e-06
8.24635e-06
7.3788e-05
7.56433e-05
7.33725e-05
7.33396e-05
6.85873e-05
6.46714e-05
5.77887e-05
6.11507e-05
7.65306e-05
9.30308e-05
9.18417e-05
9.2386e-05
9.01587e-05
8.95722e-05
8.7107e-05
8.44262e-05
8.57494e-05
7.98138e-05
7.76955e-05
7.16164e-05
7.21936e-05
6.78456e-05
6.82383e-05
6.82742e-05
6.75524e-05
6.89e-05
6.54415e-05
5.45772e-05
2.03364e-05
8.80582e-06
5.38932e-05
5.15301e-05
4.39238e-05
3.75987e-05
3.17288e-05
2.74994e-05
2.26989e-05
2.21145e-05
2.10327e-05
2.0816e-05
2.228e-05
2.39897e-05
2.65914e-05
2.90305e-05
3.16852e-05
3.48555e-05
3.52253e-05
3.87902e-05
3.78726e-05
4.09892e-05
3.84107e-05
4.04215e-05
4.19028e-05
4.79546e-05
4.76693e-05
4.58957e-05
4.40504e-05
4.95309e-05
4.69789e-05
4.31789e-05
7.59389e-05
8.37233e-05
8.86289e-05
9.15302e-05
9.47936e-05
9.53157e-05
9.74035e-05
9.57228e-05
9.70206e-05
9.40788e-05
9.05281e-05
9.5352e-05
8.51801e-05
8.37652e-05
7.32404e-05
7.32311e-05
6.50332e-05
6.61558e-05
6.34552e-05
6.43916e-05
6.33069e-05
6.45181e-05
6.58634e-05
6.78516e-05
6.77786e-05
6.22089e-05
4.17308e-05
3.02475e-05
3.35591e-05
3.6792e-05
6.41444e-05
9.71753e-05
0.000106876
0.000124311
0.00012684
0.000126437
0.000125818
0.000126795
0.000125956
0.000126861
0.000127107
0.000126086
0.000127348
0.000125462
0.000124219
0.000125924
0.000122638
0.000124878
0.000119355
0.00012345
0.000117392
0.00012118
0.000116685
0.000131641
0.000135145
0.000143459
0.000149003
0.000137711
8.7563e-05
7.2536e-05
5.13452e-05
7.3879e-05
8.0578e-05
6.72257e-05
5.30301e-05
4.49275e-05
3.5738e-05
2.42199e-05
1.87937e-05
1.45417e-05
1.13956e-05
9.90974e-06
8.36465e-06
7.02692e-06
5.99638e-06
5.41607e-06
5.60245e-06
5.71071e-06
6.15558e-06
7.46052e-06
8.55485e-06
9.82066e-06
1.05281e-05
1.25257e-05
1.48218e-05
1.70375e-05
1.82412e-05
2.12888e-05
2.53385e-05
2.39606e-05
8.1939e-06
1.63105e-05
7.7007e-05
0.000103
0.00010329
0.000101335
9.93751e-05
9.85187e-05
9.7652e-05
9.66448e-05
9.56856e-05
9.44575e-05
9.28249e-05
8.81278e-05
8.59201e-05
8.25278e-05
8.1971e-05
8.36609e-05
7.83667e-05
8.42234e-05
8.27069e-05
8.6681e-05
8.57614e-05
9.03118e-05
9.30014e-05
0.000100073
0.000107158
0.000121374
0.000136346
0.00014269
5.52265e-06
5.18468e-06
1.26496e-05
5.65835e-05
6.35804e-05
6.12741e-05
6.28462e-05
6.27077e-05
6.17685e-05
6.35193e-05
6.25572e-05
6.39056e-05
6.13267e-05
6.27293e-05
6.20003e-05
6.70259e-05
6.42683e-05
7.0961e-05
7.654e-05
7.68147e-05
8.39727e-05
8.84502e-05
8.82554e-05
8.49278e-05
8.01934e-05
7.18525e-05
6.48942e-05
5.99298e-05
5.6451e-05
5.58494e-05
3.30812e-05
3.61401e-05
5.24924e-05
6.91318e-05
8.22585e-05
9.54882e-05
9.51864e-05
9.71733e-05
9.22051e-05
8.45107e-05
8.50322e-05
7.77471e-05
6.89006e-05
6.74481e-05
6.86175e-05
6.59086e-05
6.54848e-05
6.72851e-05
6.80653e-05
6.82293e-05
6.85698e-05
6.88051e-05
6.78497e-05
6.49696e-05
6.70294e-05
7.91702e-05
8.81486e-05
8.97048e-05
8.93839e-05
8.93712e-05
5.60493e-05
6.73929e-05
7.36788e-05
7.17703e-05
6.93723e-05
6.58399e-05
6.40243e-05
6.24209e-05
5.88722e-05
5.83681e-05
5.49751e-05
5.07911e-05
4.92905e-05
4.94983e-05
4.54271e-05
4.72077e-05
4.69513e-05
4.80655e-05
5.13309e-05
5.39166e-05
5.67321e-05
5.95192e-05
6.44667e-05
6.72812e-05
7.38516e-05
7.50759e-05
7.03228e-05
6.84939e-05
6.88681e-05
6.99235e-05
7.06191e-06
5.22111e-05
6.46924e-05
6.65251e-05
6.75165e-05
6.45883e-05
6.0237e-05
5.56177e-05
5.30877e-05
5.15467e-05
5.16572e-05
5.13924e-05
5.16409e-05
5.16663e-05
5.17939e-05
5.19617e-05
5.207e-05
5.27011e-05
5.34282e-05
5.38677e-05
5.42842e-05
5.4296e-05
5.55269e-05
5.70527e-05
6.06815e-05
6.12921e-05
6.40646e-05
6.90779e-05
3.96856e-05
1.86962e-07
2.28085e-08
2.35633e-08
4.12881e-08
7.19022e-08
2.80544e-07
7.30998e-06
5.63402e-05
4.504e-05
4.38155e-05
4.74138e-05
4.92944e-05
4.76854e-05
5.06175e-05
5.11676e-05
5.428e-05
5.64506e-05
5.85897e-05
5.79147e-05
6.08082e-05
6.53688e-05
6.65216e-05
6.86167e-05
6.68029e-05
6.60105e-05
6.75442e-05
6.48547e-05
3.47739e-05
1.54859e-06
1.11275e-07
8.84972e-08
0.000142018
8.85206e-05
6.88325e-05
6.28912e-05
6.56542e-05
6.97479e-05
6.9091e-05
7.26202e-05
9.35375e-05
0.000167178
0.000314451
0.000461105
0.000503715
0.00012233
3.03588e-06
3.55042e-06
2.94941e-06
3.19973e-06
3.98516e-06
5.9789e-06
7.30047e-06
8.99979e-06
9.73627e-06
1.03415e-05
9.81681e-06
8.94325e-06
8.0713e-06
7.29153e-06
7.45258e-06
7.62873e-06
7.73752e-06
8.06408e-06
8.32994e-06
8.453e-06
8.36455e-06
8.34873e-06
8.02261e-06
7.12259e-06
6.68227e-06
5.85029e-06
5.43814e-06
4.42039e-06
4.20509e-06
4.63846e-06
7.21297e-05
7.14214e-05
6.6597e-05
6.48778e-05
5.89982e-05
5.81053e-05
7.14003e-05
9.2146e-05
9.71483e-05
9.47637e-05
8.77837e-05
8.15413e-05
7.82096e-05
7.74633e-05
7.48795e-05
6.80428e-05
6.05584e-05
5.17722e-05
4.68189e-05
4.20095e-05
4.01006e-05
3.77032e-05
4.0337e-05
4.45967e-05
4.92418e-05
5.65936e-05
6.08518e-05
5.96965e-05
4.25409e-05
2.48251e-05
5.3697e-05
4.80768e-05
3.80028e-05
2.87546e-05
2.14385e-05
1.86644e-05
1.86636e-05
1.87753e-05
2.22802e-05
2.88718e-05
3.6002e-05
4.2323e-05
4.94869e-05
5.82079e-05
6.51419e-05
6.71638e-05
6.67246e-05
6.19361e-05
5.76998e-05
5.38244e-05
4.88727e-05
4.99446e-05
4.98537e-05
5.31271e-05
5.41499e-05
5.32278e-05
5.1297e-05
4.92693e-05
4.97426e-05
4.96724e-05
7.71928e-05
8.86078e-05
9.37695e-05
9.78763e-05
9.89887e-05
9.91473e-05
9.96685e-05
9.84286e-05
9.93502e-05
9.68906e-05
9.82769e-05
9.19606e-05
8.29751e-05
7.73622e-05
7.03375e-05
6.77351e-05
6.38052e-05
6.09913e-05
6.00251e-05
5.95353e-05
6.09278e-05
6.29595e-05
6.48771e-05
6.65963e-05
6.70929e-05
6.43658e-05
5.26593e-05
3.53648e-05
3.31851e-05
3.90677e-05
7.67062e-05
0.000102972
0.000119058
0.000128466
0.000129541
0.0001273
0.000126822
0.000126112
0.000125218
0.00012464
0.000122694
0.000123351
0.000121636
0.000121732
0.000120867
0.000121373
0.000122191
0.000123044
0.000123765
0.000124394
0.000125073
0.000125658
0.000129009
0.000131582
0.0001347
0.000142252
0.000147308
0.000145852
0.0001257
9.91325e-05
6.62457e-05
7.66559e-05
7.29416e-05
5.82035e-05
4.02237e-05
2.6634e-05
2.22441e-05
2.36224e-05
2.26003e-05
1.91297e-05
1.16446e-05
7.35297e-06
4.79443e-06
3.2813e-06
2.77731e-06
2.51052e-06
2.44518e-06
2.46591e-06
2.77295e-06
3.30972e-06
4.81798e-06
6.84031e-06
9.85467e-06
1.3014e-05
1.6478e-05
1.80086e-05
2.1468e-05
2.33908e-05
2.55491e-05
2.50336e-05
4.82533e-05
9.43736e-05
0.000102348
0.000100471
0.000101668
0.000103511
0.000100974
0.000100925
0.000105654
0.000102501
0.000100724
9.79385e-05
9.22143e-05
8.67875e-05
8.3069e-05
8.0103e-05
7.87006e-05
8.05569e-05
8.3315e-05
8.90315e-05
9.08171e-05
9.86908e-05
9.38877e-05
9.44751e-05
9.36664e-05
9.81503e-05
0.000102733
0.000113724
0.000128166
0.000139613
6.21971e-05
6.66086e-05
6.63391e-05
6.60408e-05
6.6584e-05
6.71684e-05
7.0304e-05
7.43772e-05
7.50386e-05
7.55111e-05
7.25863e-05
7.22477e-05
6.87832e-05
6.93825e-05
6.88501e-05
7.08105e-05
7.54954e-05
8.05101e-05
8.16472e-05
8.74478e-05
8.89324e-05
8.94993e-05
9.19017e-05
9.00442e-05
8.67749e-05
8.21659e-05
7.6472e-05
6.92816e-05
6.11055e-05
5.89378e-05
5.50157e-05
6.18261e-05
7.28289e-05
9.18034e-05
9.6083e-05
9.33982e-05
9.09712e-05
8.68289e-05
8.78006e-05
8.3109e-05
7.52008e-05
7.7115e-05
6.97537e-05
6.6656e-05
7.04995e-05
6.8307e-05
6.99492e-05
7.22895e-05
7.31112e-05
7.36819e-05
7.38218e-05
7.21265e-05
7.04676e-05
6.78497e-05
6.55743e-05
6.75642e-05
7.21685e-05
7.38397e-05
7.46444e-05
7.59634e-05
6.8104e-05
7.46633e-05
7.34764e-05
6.92103e-05
6.68538e-05
6.46556e-05
6.43297e-05
6.21255e-05
5.96923e-05
6.02712e-05
5.48228e-05
5.64046e-05
5.11573e-05
5.09631e-05
4.96961e-05
4.93538e-05
5.00005e-05
5.02254e-05
5.38293e-05
5.39595e-05
5.75782e-05
5.92681e-05
6.09723e-05
6.55495e-05
6.9431e-05
7.44498e-05
7.5975e-05
7.4091e-05
7.33126e-05
7.48092e-05
5.10773e-05
6.37927e-05
6.75313e-05
6.85357e-05
6.06938e-05
4.95646e-05
4.22839e-05
4.62639e-05
5.20574e-05
5.62876e-05
5.70773e-05
5.88808e-05
5.94942e-05
5.82271e-05
5.84337e-05
5.90778e-05
6.04074e-05
5.87153e-05
5.83661e-05
5.8024e-05
5.75675e-05
5.81562e-05
5.9847e-05
5.9189e-05
5.98209e-05
6.0908e-05
6.37589e-05
6.74525e-05
6.59788e-05
3.71955e-06
2.9775e-08
8.38129e-08
1.22255e-06
3.49082e-05
5.90029e-05
5.5313e-05
4.58947e-05
4.40631e-05
4.54362e-05
4.82055e-05
5.03637e-05
5.09672e-05
5.14156e-05
5.34091e-05
5.44117e-05
5.53901e-05
5.66503e-05
5.73123e-05
5.51079e-05
5.98643e-05
6.46651e-05
7.13533e-05
7.52162e-05
7.63213e-05
7.28545e-05
6.96666e-05
6.67198e-05
4.68796e-05
6.49751e-07
9.02274e-08
6.37807e-05
4.96158e-05
5.00816e-05
7.17542e-05
0.000111433
0.000141623
0.00013143
9.74939e-05
7.0021e-05
7.50013e-05
0.000155584
0.000346762
0.000482684
0.000194181
2.82169e-06
3.32987e-06
3.62302e-06
5.57367e-06
7.70407e-06
1.12297e-05
1.49036e-05
1.90677e-05
1.85806e-05
1.62969e-05
1.31236e-05
1.06277e-05
9.27384e-06
9.04232e-06
1.04772e-05
1.18927e-05
1.2976e-05
1.46094e-05
1.60983e-05
1.68286e-05
1.67984e-05
1.62232e-05
1.43929e-05
1.17265e-05
9.34068e-06
7.43382e-06
6.12555e-06
5.0713e-06
3.60315e-06
4.11973e-06
6.99528e-05
6.17057e-05
5.13186e-05
4.82958e-05
5.21484e-05
6.93939e-05
9.19563e-05
9.86241e-05
9.10045e-05
6.92143e-05
4.85165e-05
4.29432e-05
5.25486e-05
5.91474e-05
5.45439e-05
4.58787e-05
3.58614e-05
3.02167e-05
2.74363e-05
2.33436e-05
2.16142e-05
2.05558e-05
2.00619e-05
2.1886e-05
2.66755e-05
3.59395e-05
4.84612e-05
5.5934e-05
5.60986e-05
4.22465e-05
5.30957e-05
4.34824e-05
3.08041e-05
2.11973e-05
1.9161e-05
1.91979e-05
2.27083e-05
3.22386e-05
4.28664e-05
5.57589e-05
6.12209e-05
6.71407e-05
7.40126e-05
7.6178e-05
7.7149e-05
7.36436e-05
6.94792e-05
6.44795e-05
5.19255e-05
4.46259e-05
4.00276e-05
3.9392e-05
3.91448e-05
4.42755e-05
4.88057e-05
5.29164e-05
5.32933e-05
5.20891e-05
5.04256e-05
5.19692e-05
7.8557e-05
9.3624e-05
9.89993e-05
0.000101019
9.91263e-05
9.65903e-05
9.84372e-05
9.78788e-05
9.94895e-05
9.89476e-05
8.50023e-05
7.77097e-05
6.34762e-05
5.97429e-05
5.47654e-05
5.42581e-05
5.2674e-05
5.43749e-05
5.47428e-05
5.65753e-05
5.86492e-05
6.11018e-05
6.3674e-05
6.48596e-05
6.54683e-05
6.40833e-05
5.75353e-05
4.57369e-05
3.47366e-05
3.62271e-05
8.17537e-05
0.00010893
0.000124705
0.000129741
0.00012782
0.000126173
0.000124886
0.000122448
0.000119889
0.000117577
0.00011629
0.000113874
0.000113368
0.000114401
0.000113658
0.000116999
0.000116269
0.000122249
0.000123484
0.000129773
0.000131932
0.00013823
0.000136745
0.000142179
0.000140419
0.000143576
0.000145565
0.000147775
0.000143416
0.000116556
7.05997e-05
7.43002e-05
6.80216e-05
4.71922e-05
4.15682e-05
5.76942e-05
7.40651e-05
7.47305e-05
6.14169e-05
3.21223e-05
1.45126e-05
7.40781e-06
6.09952e-06
5.02036e-06
4.36304e-06
3.6788e-06
3.3255e-06
2.87621e-06
2.95563e-06
3.09179e-06
4.34453e-06
6.60218e-06
1.00043e-05
1.52646e-05
1.80684e-05
2.01992e-05
2.40954e-05
2.64829e-05
2.60862e-05
2.5342e-05
8.86668e-05
0.000102577
0.000103272
0.000104693
0.00010756
0.000100837
0.000102195
0.000102495
0.000100837
9.89942e-05
9.78358e-05
9.43327e-05
9.13893e-05
8.63472e-05
8.20693e-05
7.79194e-05
7.51517e-05
7.31558e-05
7.26975e-05
8.00214e-05
8.32177e-05
9.62315e-05
0.000100151
0.000103181
9.76572e-05
9.77895e-05
0.000100717
0.000109614
0.000122661
0.000135469
6.70052e-05
6.58051e-05
6.57943e-05
6.93043e-05
7.63381e-05
8.4625e-05
7.98846e-05
7.59494e-05
6.76318e-05
5.81104e-05
4.91294e-05
4.67437e-05
4.16263e-05
4.3831e-05
4.42863e-05
4.95524e-05
5.26632e-05
6.83888e-05
7.64689e-05
8.39891e-05
9.33084e-05
9.65138e-05
9.5423e-05
9.54921e-05
9.37699e-05
9.05421e-05
8.46789e-05
7.56994e-05
6.6133e-05
6.00341e-05
5.42259e-05
6.40334e-05
9.00891e-05
9.29543e-05
9.36183e-05
9.31321e-05
8.12735e-05
6.71596e-05
5.27527e-05
4.39048e-05
3.62749e-05
3.62703e-05
3.53254e-05
3.20369e-05
3.64526e-05
3.83202e-05
4.54808e-05
5.61924e-05
6.54531e-05
7.06527e-05
7.54799e-05
7.51822e-05
7.35187e-05
7.03418e-05
6.67603e-05
6.46621e-05
6.45531e-05
6.31701e-05
6.53494e-05
7.06764e-05
7.17371e-05
7.64005e-05
7.15987e-05
6.74998e-05
6.69319e-05
6.75567e-05
6.74997e-05
6.82749e-05
6.68257e-05
6.44398e-05
6.16145e-05
6.21013e-05
5.61305e-05
5.68958e-05
5.64059e-05
5.56803e-05
5.37376e-05
5.39297e-05
5.68716e-05
5.75268e-05
5.92121e-05
6.05458e-05
6.23847e-05
6.33653e-05
6.658e-05
6.98163e-05
7.48691e-05
7.7632e-05
7.95524e-05
7.58782e-05
6.51696e-05
6.78509e-05
6.99309e-05
5.75764e-05
4.60684e-05
5.54682e-05
6.576e-05
7.05143e-05
7.03468e-05
6.93982e-05
6.71198e-05
6.43133e-05
6.09503e-05
5.97888e-05
5.83812e-05
5.63366e-05
5.51295e-05
5.55796e-05
5.56434e-05
5.40047e-05
5.49578e-05
5.4533e-05
5.56596e-05
5.73914e-05
5.95007e-05
6.19032e-05
6.31847e-05
6.65401e-05
6.80463e-05
2.07784e-05
4.87086e-08
1.80819e-06
5.83263e-05
5.3052e-05
4.88332e-05
4.36675e-05
4.29277e-05
4.53333e-05
4.82751e-05
5.1914e-05
5.41585e-05
5.68554e-05
5.71801e-05
5.86305e-05
5.92551e-05
6.0939e-05
5.76432e-05
5.53925e-05
5.33479e-05
5.18791e-05
5.54009e-05
6.01705e-05
7.40731e-05
7.66681e-05
7.83572e-05
8.05725e-05
7.06017e-05
6.21715e-05
2.39209e-06
1.00205e-07
5.07186e-05
4.88258e-05
8.86241e-05
0.000198424
0.000283337
0.000301553
0.000289583
0.000219533
0.000120376
6.83337e-05
9.52608e-05
0.000257395
0.000450932
0.000239091
2.67746e-06
3.86898e-06
6.63121e-06
9.93076e-06
1.40223e-05
2.20964e-05
3.21332e-05
3.39302e-05
2.48832e-05
1.90365e-05
1.31915e-05
1.02031e-05
1.01893e-05
1.20101e-05
1.53513e-05
1.93768e-05
2.30424e-05
2.57433e-05
2.70626e-05
2.76983e-05
2.7954e-05
2.73662e-05
2.70247e-05
2.1118e-05
1.48639e-05
9.72599e-06
7.27774e-06
5.92766e-06
4.53536e-06
4.269e-06
6.60961e-05
4.89586e-05
3.57284e-05
3.83398e-05
5.93482e-05
9.30464e-05
9.8467e-05
9.43558e-05
6.8877e-05
3.14166e-05
1.9621e-05
2.34978e-05
4.95473e-05
5.33169e-05
4.00553e-05
3.09713e-05
2.69605e-05
2.33708e-05
2.30406e-05
2.14545e-05
2.14256e-05
2.05964e-05
1.95132e-05
1.79683e-05
1.81746e-05
2.18381e-05
3.30643e-05
4.82424e-05
5.67896e-05
5.15698e-05
5.20586e-05
3.95266e-05
2.66448e-05
2.15029e-05
2.23169e-05
2.99102e-05
4.13935e-05
5.76303e-05
6.06853e-05
6.50788e-05
7.0517e-05
7.55323e-05
7.82503e-05
7.96671e-05
7.69729e-05
7.0756e-05
6.3146e-05
4.79856e-05
3.98361e-05
3.17724e-05
2.80291e-05
2.84252e-05
3.05338e-05
3.12817e-05
3.49794e-05
4.55951e-05
5.2105e-05
5.02785e-05
5.13806e-05
5.26622e-05
7.95022e-05
9.58551e-05
0.000101775
9.97366e-05
9.21553e-05
9.06356e-05
9.44316e-05
9.6524e-05
9.7479e-05
8.17246e-05
6.4313e-05
5.53654e-05
4.89506e-05
4.81748e-05
4.74044e-05
4.48305e-05
4.94708e-05
4.75597e-05
5.19019e-05
5.32991e-05
5.65953e-05
5.99499e-05
6.25408e-05
6.43465e-05
6.44715e-05
6.34254e-05
5.80314e-05
4.96191e-05
4.2705e-05
3.83717e-05
8.39659e-05
0.000114443
0.000125363
0.000128023
0.000126423
0.000124555
0.000122322
0.000119345
0.000114817
0.00011354
0.000111709
0.000108806
0.000107996
0.000107699
0.000110009
0.00010876
0.000112707
0.000114956
0.000124344
0.000131865
0.000141471
0.000146092
0.000152264
0.000148672
0.000149735
0.000147162
0.000146924
0.00014682
0.000141889
0.000123857
7.13161e-05
7.05267e-05
6.36787e-05
6.42274e-05
7.68239e-05
9.02464e-05
9.20456e-05
7.60784e-05
3.40458e-05
1.22523e-05
8.43783e-06
1.0292e-05
1.8255e-05
2.90382e-05
3.96268e-05
4.01363e-05
3.42064e-05
2.29605e-05
1.27379e-05
7.50902e-06
5.33112e-06
6.15695e-06
8.76258e-06
1.0732e-05
1.3208e-05
1.60824e-05
2.05089e-05
2.69491e-05
2.68731e-05
2.5116e-05
9.64131e-05
0.000103778
0.000104946
0.000104892
0.000103258
0.000100753
9.66565e-05
9.77127e-05
0.000102076
0.00010584
0.000106703
0.000103763
9.87418e-05
9.20227e-05
8.57456e-05
8.11767e-05
8.03986e-05
7.86105e-05
7.41931e-05
7.50966e-05
7.73459e-05
8.5894e-05
9.80445e-05
0.000106844
0.000103566
9.91598e-05
0.000100673
0.000107325
0.000119871
0.000131987
6.67115e-05
6.49363e-05
7.39567e-05
8.65205e-05
8.49234e-05
7.3998e-05
5.42524e-05
4.07528e-05
3.08047e-05
2.9074e-05
2.58694e-05
2.67894e-05
2.365e-05
2.42422e-05
2.32306e-05
2.52272e-05
2.64737e-05
3.68146e-05
5.00439e-05
6.54948e-05
8.47051e-05
9.3056e-05
9.79241e-05
9.96616e-05
9.99789e-05
9.55401e-05
9.06907e-05
8.1497e-05
6.99994e-05
6.20118e-05
6.03934e-05
8.82745e-05
9.44019e-05
9.75239e-05
7.70858e-05
4.61148e-05
2.78174e-05
2.30428e-05
2.11665e-05
2.0198e-05
2.1788e-05
1.9569e-05
2.24136e-05
1.98896e-05
2.23569e-05
2.17775e-05
2.46003e-05
2.84367e-05
3.69063e-05
4.90655e-05
6.53503e-05
7.06644e-05
7.48815e-05
7.34824e-05
6.97007e-05
6.74226e-05
6.35493e-05
6.15509e-05
6.10779e-05
6.56846e-05
7.28605e-05
7.32207e-05
6.89503e-05
6.89349e-05
7.06553e-05
7.13186e-05
7.17462e-05
7.01002e-05
6.47849e-05
6.19437e-05
5.51498e-05
5.42715e-05
5.43982e-05
5.42882e-05
5.57549e-05
5.72755e-05
5.87944e-05
5.84847e-05
5.79968e-05
5.94083e-05
6.18426e-05
6.39495e-05
6.43381e-05
6.29681e-05
6.52292e-05
6.91551e-05
7.43672e-05
7.7633e-05
7.98238e-05
7.90491e-05
6.65936e-05
6.90974e-05
6.16372e-05
4.74866e-05
5.92899e-05
7.5178e-05
7.92142e-05
8.082e-05
7.87522e-05
7.50086e-05
7.23398e-05
6.74882e-05
6.38849e-05
5.93069e-05
5.49516e-05
5.51491e-05
5.38282e-05
5.50441e-05
5.98291e-05
6.28332e-05
6.35343e-05
6.27814e-05
6.1354e-05
5.66707e-05
5.8357e-05
5.91236e-05
6.24796e-05
6.39189e-05
6.82571e-05
4.41945e-05
1.23441e-07
5.44179e-05
5.40821e-05
4.52601e-05
4.31711e-05
4.21559e-05
4.51985e-05
4.82268e-05
5.20885e-05
5.52339e-05
6.21944e-05
6.97926e-05
7.10484e-05
7.51517e-05
7.57702e-05
7.4292e-05
6.97805e-05
6.10637e-05
5.78791e-05
5.2335e-05
4.96557e-05
5.17647e-05
5.94084e-05
7.39154e-05
6.73605e-05
8.06458e-05
7.39398e-05
6.66533e-05
4.46198e-06
1.14614e-07
4.4947e-05
6.42783e-05
0.000185737
0.00032831
0.000349216
0.000320464
0.000289388
0.000232386
0.000147318
7.35119e-05
7.54994e-05
0.00019102
0.000411837
0.000263403
2.94804e-06
6.23128e-06
1.06698e-05
1.47775e-05
2.47199e-05
4.30057e-05
5.27768e-05
4.56299e-05
3.02199e-05
1.92016e-05
1.22774e-05
1.05066e-05
1.23175e-05
1.69038e-05
2.27557e-05
2.81935e-05
3.25049e-05
3.37746e-05
3.44129e-05
3.25969e-05
3.28367e-05
3.27858e-05
3.49079e-05
3.19567e-05
2.40073e-05
1.3799e-05
8.69993e-06
6.76502e-06
5.39606e-06
5.01955e-06
6.13421e-05
3.86053e-05
3.13159e-05
4.13094e-05
7.61116e-05
9.58666e-05
9.91933e-05
8.91958e-05
5.05847e-05
1.50919e-05
9.78652e-06
1.95865e-05
5.23682e-05
4.15152e-05
2.94476e-05
2.44917e-05
2.5813e-05
2.7228e-05
2.89924e-05
2.81726e-05
2.67888e-05
2.49458e-05
2.15707e-05
1.96392e-05
1.74609e-05
1.74602e-05
2.45812e-05
4.1352e-05
5.4611e-05
5.73499e-05
5.10694e-05
3.74372e-05
2.73481e-05
2.73743e-05
3.61386e-05
5.06756e-05
6.00978e-05
6.22156e-05
6.4157e-05
6.71523e-05
7.50863e-05
8.05745e-05
8.28926e-05
7.89889e-05
7.1172e-05
6.08565e-05
4.45317e-05
3.40796e-05
2.72756e-05
2.72381e-05
2.68454e-05
2.63589e-05
2.71087e-05
2.58542e-05
3.00668e-05
3.57719e-05
4.95242e-05
5.08118e-05
5.20621e-05
5.33122e-05
8.11947e-05
9.5541e-05
0.000102623
9.29593e-05
8.33361e-05
8.41205e-05
9.25233e-05
9.39436e-05
8.22447e-05
6.74881e-05
5.28702e-05
4.96687e-05
4.86666e-05
5.16158e-05
4.93675e-05
5.50708e-05
5.19313e-05
5.50875e-05
5.21782e-05
5.37997e-05
5.44227e-05
5.85836e-05
6.26998e-05
6.4992e-05
6.52243e-05
6.26908e-05
5.78615e-05
5.02959e-05
4.30566e-05
3.93021e-05
8.55173e-05
0.000115385
0.000123807
0.000125514
0.000123253
0.000122012
0.000119715
0.000117395
0.000113179
0.000109712
0.000106796
0.000105269
0.000101583
0.000102883
0.000100796
0.000101811
0.000101798
0.000110059
0.000123557
0.00013589
0.00014373
0.000151633
0.000155436
0.000153254
0.000153481
0.000151708
0.000146063
0.000146928
0.000139636
0.000124053
7.08447e-05
6.89239e-05
6.70595e-05
7.89833e-05
9.20878e-05
9.42801e-05
8.62282e-05
4.26764e-05
1.36249e-05
1.05162e-05
2.53227e-05
7.23381e-05
8.88255e-05
9.58411e-05
9.49357e-05
8.90278e-05
7.94504e-05
7.63474e-05
6.26206e-05
4.00986e-05
1.82642e-05
9.51504e-06
7.66821e-06
8.10181e-06
8.90601e-06
1.01933e-05
1.73791e-05
2.61747e-05
2.78363e-05
2.51685e-05
9.88071e-05
0.000106009
0.000105377
0.000100373
9.66992e-05
9.61693e-05
9.80777e-05
0.000105433
0.000108909
0.000110883
0.000106448
0.000101227
9.23122e-05
8.52543e-05
8.21577e-05
7.77957e-05
7.82767e-05
7.95339e-05
7.7219e-05
7.77403e-05
7.58605e-05
8.45644e-05
9.16844e-05
0.000107454
0.000106812
0.000100149
0.000100296
0.000107446
0.000118836
0.000128646
6.75608e-05
7.14984e-05
9.25569e-05
8.69065e-05
5.5385e-05
3.61527e-05
2.85864e-05
2.64504e-05
2.43621e-05
2.84906e-05
2.80222e-05
3.01502e-05
2.67142e-05
2.64918e-05
2.1792e-05
1.89788e-05
1.89035e-05
2.16322e-05
2.97151e-05
4.61625e-05
6.19788e-05
8.44306e-05
9.49218e-05
9.96098e-05
0.000101919
0.000101335
9.57276e-05
8.40643e-05
7.05814e-05
6.24543e-05
7.55058e-05
9.19796e-05
9.96554e-05
5.91379e-05
2.91585e-05
2.23462e-05
1.95695e-05
2.10922e-05
2.46156e-05
2.59738e-05
2.84818e-05
3.05915e-05
3.05749e-05
3.35147e-05
3.24151e-05
3.22175e-05
2.94817e-05
2.84257e-05
2.80398e-05
3.22272e-05
4.18624e-05
5.9524e-05
6.7877e-05
7.47723e-05
7.3948e-05
6.93134e-05
6.67351e-05
6.41683e-05
6.26543e-05
6.68914e-05
7.3585e-05
6.92721e-05
7.05508e-05
7.37537e-05
7.3692e-05
7.31017e-05
7.09535e-05
6.35051e-05
5.27323e-05
4.18878e-05
3.2498e-05
2.56776e-05
2.17014e-05
2.08231e-05
2.12465e-05
2.99983e-05
3.95178e-05
5.14252e-05
5.55352e-05
5.79426e-05
6.1387e-05
6.50545e-05
6.44095e-05
6.58522e-05
6.86077e-05
6.74679e-05
7.24237e-05
7.97614e-05
8.32241e-05
8.55949e-05
6.78304e-05
6.78439e-05
5.3345e-05
6.14596e-05
7.82153e-05
8.76325e-05
8.97618e-05
8.99083e-05
8.80852e-05
8.46526e-05
7.94826e-05
7.37707e-05
6.71178e-05
5.9068e-05
5.57144e-05
5.35836e-05
5.55375e-05
6.01823e-05
6.32241e-05
5.84568e-05
4.05644e-05
4.74059e-05
6.5793e-05
6.3045e-05
6.04609e-05
5.87843e-05
6.16547e-05
6.3783e-05
6.78342e-05
5.39465e-05
5.00162e-07
6.06474e-05
4.60344e-05
4.24659e-05
4.27003e-05
4.45425e-05
4.77148e-05
5.33118e-05
5.67293e-05
6.77752e-05
7.77676e-05
8.83135e-05
9.74078e-05
9.98383e-05
9.50864e-05
8.83822e-05
8.23133e-05
7.52133e-05
6.5169e-05
5.88635e-05
5.2124e-05
4.95793e-05
5.09212e-05
6.39602e-05
6.52601e-05
7.6472e-05
7.47017e-05
6.66673e-05
5.05355e-06
1.1076e-07
4.63702e-05
9.34136e-05
0.000282048
0.000363503
0.000314906
0.000234794
0.000170332
0.000127791
9.68318e-05
6.41708e-05
6.39607e-05
0.000167356
0.000388385
0.000270592
3.77301e-06
9.6964e-06
1.57877e-05
2.43632e-05
4.21495e-05
6.06224e-05
6.28974e-05
5.69574e-05
3.55662e-05
1.94543e-05
1.19429e-05
1.21193e-05
1.62871e-05
2.24932e-05
2.91765e-05
3.54158e-05
4.31483e-05
5.05729e-05
5.04589e-05
4.53531e-05
3.65286e-05
3.63924e-05
3.56499e-05
3.83729e-05
3.26856e-05
1.95588e-05
1.03822e-05
7.36402e-06
6.30634e-06
5.99168e-06
5.8928e-05
3.8815e-05
3.37758e-05
5.16665e-05
9.32291e-05
9.89675e-05
9.71735e-05
8.8142e-05
4.36274e-05
9.14194e-06
6.96392e-06
2.12081e-05
5.23277e-05
3.19295e-05
2.46429e-05
2.76721e-05
3.30623e-05
3.48991e-05
3.64319e-05
3.32636e-05
3.24175e-05
2.94799e-05
2.62586e-05
2.17499e-05
1.82151e-05
1.65371e-05
2.07223e-05
3.68741e-05
5.31663e-05
6.12e-05
5.03575e-05
3.6973e-05
3.15836e-05
3.87212e-05
5.46582e-05
6.15416e-05
6.14029e-05
6.00418e-05
6.26186e-05
7.00939e-05
7.70183e-05
8.04149e-05
8.0294e-05
7.33222e-05
6.31218e-05
4.42906e-05
3.25623e-05
2.72359e-05
2.61688e-05
2.69009e-05
2.90075e-05
2.8169e-05
2.65512e-05
2.43383e-05
2.65791e-05
3.32901e-05
4.69514e-05
5.11065e-05
5.25267e-05
5.34242e-05
8.18711e-05
9.77248e-05
0.00010049
8.31124e-05
7.52917e-05
8.83083e-05
9.10713e-05
9.36175e-05
7.09506e-05
5.76873e-05
5.10171e-05
5.436e-05
5.75734e-05
5.93662e-05
6.73285e-05
7.05281e-05
6.94783e-05
6.55908e-05
6.42035e-05
6.07598e-05
6.03914e-05
5.96641e-05
6.286e-05
6.59549e-05
6.50147e-05
6.23483e-05
5.70558e-05
4.98259e-05
4.38987e-05
4.04259e-05
8.40254e-05
0.000116158
0.000122071
0.000123709
0.000121445
0.000123272
0.000122041
0.000120892
0.000113931
0.000108534
0.000106122
9.97084e-05
9.81033e-05
9.4999e-05
9.47466e-05
9.09163e-05
9.57812e-05
0.000104702
0.000125347
0.000136085
0.000150029
0.000148346
0.000153482
0.000155776
0.000154481
0.000150599
0.000146739
0.000143351
0.000139333
0.000121025
7.05289e-05
7.05873e-05
7.97245e-05
8.98088e-05
9.23241e-05
9.30424e-05
7.13783e-05
2.70832e-05
1.65987e-05
3.98091e-05
8.41736e-05
0.000101054
0.000103967
0.000102544
0.000101076
9.73008e-05
9.1616e-05
8.2123e-05
7.49567e-05
7.26229e-05
5.22189e-05
2.35462e-05
9.97215e-06
8.36406e-06
9.08791e-06
1.03271e-05
1.47225e-05
2.53039e-05
2.76835e-05
2.46374e-05
0.00010111
0.000104164
0.000102443
9.89956e-05
9.47804e-05
9.32034e-05
0.000102196
0.000113127
0.000106211
0.000106922
0.000101717
9.45146e-05
8.68929e-05
8.57496e-05
8.06614e-05
7.77715e-05
7.7771e-05
7.81979e-05
7.83922e-05
8.06049e-05
7.76391e-05
8.41869e-05
9.56721e-05
0.000106821
0.000108544
0.0001001
9.95984e-05
0.000107085
0.000118274
0.000126956
6.98447e-05
8.75098e-05
8.87571e-05
4.97404e-05
3.08295e-05
2.7221e-05
2.55215e-05
2.86001e-05
3.38134e-05
4.17975e-05
4.63061e-05
4.58868e-05
3.73334e-05
2.94385e-05
2.10478e-05
1.56563e-05
1.44113e-05
1.56243e-05
1.85527e-05
3.17295e-05
5.07106e-05
6.97518e-05
8.80133e-05
9.84846e-05
0.000102938
0.000101149
9.75071e-05
8.40413e-05
6.90339e-05
6.24013e-05
8.74111e-05
0.000100337
6.52612e-05
3.37825e-05
2.4517e-05
2.51835e-05
2.64902e-05
2.99695e-05
3.40639e-05
3.30921e-05
3.22285e-05
3.17176e-05
3.26237e-05
3.33763e-05
3.44731e-05
3.57901e-05
3.6599e-05
3.45898e-05
3.19524e-05
3.03461e-05
3.22345e-05
4.142e-05
5.97916e-05
7.06823e-05
7.35177e-05
7.31894e-05
7.05151e-05
6.50548e-05
6.30395e-05
6.69461e-05
7.47153e-05
7.14397e-05
7.51749e-05
7.45159e-05
7.51101e-05
7.26008e-05
6.43352e-05
5.17011e-05
3.30512e-05
2.35645e-05
1.64079e-05
1.24534e-05
1.09748e-05
9.67737e-06
9.70895e-06
9.97201e-06
1.30808e-05
2.2227e-05
3.80913e-05
5.33974e-05
5.8628e-05
6.09756e-05
6.43084e-05
6.79864e-05
6.77547e-05
6.95484e-05
7.29651e-05
7.66122e-05
8.18848e-05
8.44423e-05
6.81141e-05
6.15232e-05
4.9986e-05
7.44286e-05
8.95639e-05
9.73798e-05
9.80815e-05
9.67553e-05
9.76533e-05
9.22242e-05
8.67818e-05
7.90728e-05
7.24067e-05
6.13398e-05
5.51501e-05
5.29588e-05
5.43243e-05
6.22509e-05
4.69086e-05
1.703e-05
1.0605e-05
1.09064e-05
3.31366e-05
6.49302e-05
6.25788e-05
6.0365e-05
6.15083e-05
6.42747e-05
6.87673e-05
5.43325e-05
1.68933e-06
5.71558e-05
4.59589e-05
4.32326e-05
4.39903e-05
4.66066e-05
5.14782e-05
5.58644e-05
6.92121e-05
8.39731e-05
0.000100596
0.000110484
0.000116096
0.000122881
0.000120303
0.000107952
9.48435e-05
8.1499e-05
7.27477e-05
6.08877e-05
5.46257e-05
4.9601e-05
4.61815e-05
5.30034e-05
7.03737e-05
6.58816e-05
7.11901e-05
5.79705e-05
2.04214e-06
8.60154e-08
4.42666e-05
0.000122287
0.00032157
0.000337056
0.000241554
0.000156034
0.000104383
7.49257e-05
5.9072e-05
5.13708e-05
6.34603e-05
0.000160422
0.000366686
0.000277385
4.48576e-06
1.41257e-05
2.28437e-05
3.60506e-05
5.49537e-05
6.54391e-05
6.78119e-05
6.55503e-05
4.01525e-05
1.89962e-05
1.23619e-05
1.37945e-05
1.98998e-05
2.62889e-05
3.28366e-05
4.46687e-05
5.9075e-05
7.38449e-05
7.55006e-05
5.98115e-05
4.57112e-05
3.66547e-05
3.85147e-05
4.19871e-05
3.86464e-05
2.44318e-05
1.13478e-05
8.0539e-06
6.66728e-06
7.33563e-06
5.80188e-05
4.59378e-05
3.97854e-05
6.128e-05
9.10396e-05
9.8182e-05
9.37917e-05
8.88424e-05
3.85344e-05
6.7721e-06
6.34577e-06
2.65443e-05
5.0383e-05
2.61016e-05
2.7574e-05
3.48171e-05
3.93033e-05
4.16465e-05
4.60974e-05
4.52904e-05
4.32135e-05
3.52494e-05
2.85733e-05
2.42049e-05
1.76795e-05
1.64869e-05
2.0707e-05
3.82096e-05
5.49567e-05
6.45723e-05
4.95003e-05
3.78897e-05
3.79102e-05
5.25486e-05
6.1334e-05
6.12446e-05
5.91252e-05
5.80874e-05
6.25019e-05
7.1772e-05
7.47228e-05
7.73329e-05
7.67028e-05
6.51304e-05
4.78583e-05
3.39275e-05
2.69799e-05
2.71566e-05
2.97265e-05
3.28098e-05
2.96667e-05
3.10247e-05
2.51672e-05
2.38367e-05
2.48726e-05
3.32446e-05
4.8927e-05
5.16864e-05
5.26906e-05
5.50628e-05
8.55138e-05
0.000101426
9.24034e-05
6.969e-05
7.03683e-05
8.81194e-05
9.09112e-05
8.47027e-05
6.16615e-05
5.38323e-05
5.47367e-05
6.04011e-05
6.7368e-05
8.13958e-05
8.57894e-05
8.94636e-05
8.8945e-05
8.64278e-05
7.47249e-05
6.60896e-05
6.18291e-05
6.3675e-05
6.66657e-05
6.79372e-05
6.72764e-05
6.34484e-05
5.61362e-05
4.96627e-05
4.43148e-05
4.04842e-05
7.91407e-05
0.000108299
0.000114856
0.000118812
0.000118687
0.000120525
0.000121738
0.000120006
0.000115859
0.000108188
0.000102987
0.000100138
9.13729e-05
8.99215e-05
8.60488e-05
8.49296e-05
8.90862e-05
0.000103727
0.000125233
0.000139056
0.00014603
0.000145004
0.000147024
0.000152907
0.000153197
0.000146563
0.000144105
0.000140588
0.00013431
0.000117983
7.0629e-05
7.54104e-05
8.51387e-05
8.91867e-05
9.25803e-05
9.17026e-05
7.53485e-05
4.39991e-05
4.04455e-05
7.51244e-05
9.61885e-05
0.00010337
0.000104502
0.000104077
0.000103754
0.00010132
9.66606e-05
8.9331e-05
7.70152e-05
7.92677e-05
7.74327e-05
5.06494e-05
2.22515e-05
1.26155e-05
1.21914e-05
1.17514e-05
1.46196e-05
2.48676e-05
2.65998e-05
2.35036e-05
0.00010186
0.000104051
9.74516e-05
9.35886e-05
9.31677e-05
9.93937e-05
0.000101876
0.00010479
0.000104663
0.000104644
9.74281e-05
9.31504e-05