/*--------------------------------*- C++ -*----------------------------------*\
| =========                 |                                                 |
| \\      /  F ield         | OpenFOAM: The Open Source CFD Toolbox           |
|  \\    /   O peration     | Version:  2.1.1                                 |
|   \\  /    A nd           | Web:      www.OpenFOAM.org                      |
|    \\/     M anipulation  |                                                 |
\*---------------------------------------------------------------------------*/
FoamFile
{
    version     2.0;
    format      ascii;
    class       volScalarField;
    location    "0.004900000";
    object      HO2;
}
// * * * * * * * * * * * * * * * * * * * * * * * * * * * * * * * * * * * * * //

dimensions      [0 0 0 0 0 0 0];

internalField   nonuniform List<scalar> 
12384
(
3.08569e-06
3.9637e-06
4.49006e-06
5.62717e-06
6.02983e-06
6.00065e-06
5.63721e-06
4.40344e-06
3.91467e-06
3.13339e-06
2.70188e-06
3.13937e-06
6.82075e-06
1.22168e-05
7.28866e-06
7.43107e-06
6.95616e-06
6.52043e-06
6.33525e-06
6.41037e-06
6.47237e-06
6.67379e-06
6.79888e-06
6.94087e-06
7.0646e-06
7.20607e-06
7.32093e-06
7.40955e-06
7.42327e-06
7.46766e-06
7.46556e-06
7.48122e-06
7.43264e-06
7.42126e-06
7.47785e-06
7.40784e-06
7.60421e-06
7.54014e-06
7.55007e-06
7.75045e-06
8.193e-06
8.4023e-06
8.5973e-06
8.71051e-06
2.29431e-06
1.71495e-06
1.6475e-06
1.78662e-06
2.04378e-06
2.71642e-06
3.00715e-06
2.88275e-06
1.86764e-06
1.00579e-06
5.66675e-07
5.63488e-07
5.5026e-07
5.5602e-07
5.34848e-07
5.16696e-07
6.85829e-07
7.24398e-07
8.77814e-07
8.24073e-07
9.45976e-07
9.10615e-07
9.88971e-07
1.08827e-06
1.16505e-06
1.27748e-06
1.53601e-06
2.68516e-06
7.22099e-06
7.65271e-06
5.71073e-07
6.93148e-07
1.08706e-06
1.42136e-06
2.18682e-06
2.66692e-06
3.19822e-06
3.26782e-06
3.37725e-06
3.40482e-06
3.22652e-06
3.03675e-06
2.73093e-06
2.45712e-06
2.15036e-06
1.91572e-06
1.55963e-06
1.63298e-06
1.55465e-06
1.78961e-06
1.70516e-06
1.92161e-06
2.16458e-06
3.09827e-06
3.23183e-06
3.5435e-06
3.95351e-06
4.17652e-06
5.3688e-06
5.89226e-06
3.03045e-07
1.86847e-07
2.43453e-07
3.42178e-07
4.31627e-07
4.86358e-07
5.67306e-07
5.86708e-07
6.77935e-07
6.81878e-07
6.62759e-07
1.02715e-06
7.74959e-07
1.11343e-06
7.68351e-07
1.03445e-06
8.2623e-07
9.7366e-07
9.34498e-07
1.02276e-06
1.08982e-06
1.1687e-06
1.19457e-06
1.10952e-06
1.07686e-06
1.20952e-06
3.32582e-06
6.49227e-06
6.35808e-06
6.16212e-06
1.28072e-06
7.9059e-07
7.18691e-07
3.36086e-07
2.83204e-07
2.30615e-07
1.91378e-07
1.95839e-07
1.83112e-07
1.87696e-07
1.8782e-07
1.80884e-07
1.84001e-07
1.69401e-07
1.58386e-07
1.59903e-07
1.55363e-07
1.42703e-07
1.35715e-07
1.55039e-07
1.39933e-07
1.45873e-07
1.36934e-07
1.75884e-07
2.10578e-07
2.53948e-07
3.24138e-07
5.41827e-07
3.30347e-06
4.39365e-06
1.81584e-06
2.99628e-07
1.69724e-07
7.2097e-07
1.41375e-06
1.57702e-06
2.37496e-06
3.27678e-06
4.32076e-06
4.76814e-06
5.15856e-06
5.67754e-06
5.85857e-06
6.01216e-06
6.11205e-06
6.17397e-06
6.21799e-06
6.10334e-06
6.06029e-06
5.87785e-06
5.7471e-06
5.59416e-06
5.26211e-06
4.96518e-06
4.64984e-06
4.34147e-06
3.57856e-06
3.40459e-06
4.14513e-06
4.5133e-06
9.62251e-06
8.72869e-06
1.78798e-06
2.51968e-07
1.39282e-07
1.81834e-07
2.5828e-07
3.52393e-07
4.17511e-07
4.26659e-07
3.71426e-07
3.25705e-07
2.87108e-07
2.3807e-07
1.99194e-07
2.28919e-07
2.32323e-07
2.47578e-07
2.92049e-07
4.06945e-07
4.11049e-07
5.61156e-07
5.14651e-07
6.54066e-07
6.23634e-07
5.75786e-07
4.21402e-07
2.87707e-07
4.06082e-07
8.19569e-07
7.1637e-06
6.91622e-06
5.28512e-06
2.29125e-07
2.74265e-08
1.29613e-08
1.38242e-08
1.42529e-08
1.54059e-08
1.74801e-08
1.85814e-08
2.08023e-08
2.45717e-08
2.70959e-08
2.82416e-08
3.7874e-08
3.74513e-08
4.26098e-08
5.17595e-08
5.10486e-08
5.67398e-08
6.4082e-08
4.61864e-08
3.32401e-08
1.64555e-08
7.2896e-09
4.38744e-09
3.13735e-09
3.00809e-09
3.63015e-09
9.58681e-06
8.81866e-06
7.7563e-06
5.40118e-06
3.26657e-06
1.90479e-06
6.80954e-07
4.59948e-07
2.67139e-07
1.32817e-07
1.15547e-07
8.36508e-08
5.64583e-08
4.98657e-08
4.735e-08
4.0232e-08
3.8988e-08
3.29957e-08
3.23909e-08
2.84114e-08
2.51563e-08
2.47187e-08
2.39506e-08
1.74621e-08
2.55373e-08
4.00734e-08
4.52218e-08
5.12336e-08
5.37823e-08
5.62947e-08
1.57005e-07
6.17468e-08
2.75288e-08
1.40138e-08
1.15171e-08
9.16124e-09
7.95721e-09
7.56964e-09
6.3596e-09
5.44387e-09
5.14332e-09
3.69174e-09
3.59922e-09
3.78673e-09
2.94168e-09
3.52459e-09
3.10697e-09
3.82662e-09
4.04016e-09
5.00622e-09
5.68619e-09
6.39823e-09
8.62492e-09
1.03642e-08
2.1458e-08
3.11611e-08
2.49722e-08
1.92356e-08
1.64319e-08
1.65561e-08
6.14771e-06
4.11462e-08
6.64831e-09
8.66264e-09
2.11654e-08
3.53151e-08
5.73257e-08
1.06974e-07
1.49223e-07
1.69197e-07
1.73002e-07
1.72874e-07
1.72371e-07
1.68475e-07
1.62919e-07
1.54899e-07
1.35153e-07
1.23027e-07
1.12532e-07
1.01816e-07
9.45107e-08
9.07332e-08
8.64096e-08
7.88338e-08
3.9003e-08
5.02831e-08
2.6851e-08
2.5337e-08
1.26079e-06
4.19156e-06
1.9634e-06
1.98896e-06
2.47148e-06
3.06505e-06
4.3433e-06
6.05892e-06
3.78764e-09
4.98098e-10
4.15474e-10
5.80944e-10
6.54529e-10
6.12691e-10
8.33568e-10
8.93713e-10
1.12327e-09
1.30521e-09
1.50222e-09
1.48622e-09
2.23803e-09
3.27475e-09
4.91767e-09
6.25026e-09
6.17095e-09
7.66546e-09
1.46094e-08
4.28151e-08
1.30276e-06
6.1284e-06
3.34174e-06
3.17246e-06
9.29411e-06
1.15003e-05
1.24116e-05
1.24617e-05
1.23026e-05
1.21231e-05
1.17028e-05
1.14351e-05
1.05765e-05
7.20383e-06
3.94298e-06
2.92956e-06
4.93104e-06
1.16575e-05
7.09472e-06
6.89216e-06
6.20877e-06
6.21229e-06
6.36855e-06
6.60278e-06
6.59893e-06
6.87048e-06
7.05242e-06
7.30458e-06
7.48685e-06
7.66277e-06
7.87435e-06
8.08593e-06
8.26508e-06
8.45792e-06
8.62364e-06
8.76393e-06
8.90254e-06
8.94721e-06
8.86537e-06
8.83153e-06
8.75674e-06
8.34468e-06
8.25782e-06
7.87469e-06
8.14202e-06
8.43968e-06
8.86486e-06
8.90766e-06
2.37825e-06
1.83205e-06
2.07575e-06
2.39095e-06
2.81731e-06
3.73447e-06
2.20538e-06
5.8058e-07
4.0434e-07
4.22565e-07
5.84126e-07
1.31566e-06
1.43264e-06
1.34807e-06
1.40184e-06
1.61109e-06
1.86782e-06
2.09142e-06
2.31072e-06
2.99447e-06
3.17594e-06
3.17276e-06
3.00053e-06
2.56037e-06
1.98074e-06
1.75673e-06
1.66815e-06
2.10499e-06
4.49434e-06
7.11382e-06
5.75812e-07
8.72186e-07
1.39472e-06
2.52714e-06
3.34602e-06
3.94674e-06
3.95835e-06
3.93748e-06
3.238e-06
2.49596e-06
1.45074e-06
1.10933e-06
8.17479e-07
6.35833e-07
4.65277e-07
5.35335e-07
6.16217e-07
8.49855e-07
1.14063e-06
1.49335e-06
1.67658e-06
1.93889e-06
2.22706e-06
2.47577e-06
2.5257e-06
2.55057e-06
3.24745e-06
3.72119e-06
4.48482e-06
5.30526e-06
2.88175e-07
1.98357e-07
2.77857e-07
3.47257e-07
4.09146e-07
4.46501e-07
4.78671e-07
5.39094e-07
6.01325e-07
6.94678e-07
1.05102e-06
1.27971e-06
1.44221e-06
1.55452e-06
1.51441e-06
1.55185e-06
1.50828e-06
1.49258e-06
1.59421e-06
1.62777e-06
1.73408e-06
1.74249e-06
1.70623e-06
1.56808e-06
1.40145e-06
1.2704e-06
1.75829e-06
4.316e-06
5.84852e-06
5.78628e-06
1.3289e-06
7.52902e-07
5.42433e-07
2.71933e-07
1.86562e-07
1.32814e-07
1.45096e-07
1.51263e-07
1.54593e-07
1.56489e-07
1.49551e-07
1.51681e-07
1.38227e-07
1.32033e-07
1.20907e-07
1.17194e-07
1.33478e-07
1.33372e-07
1.31983e-07
1.1153e-07
1.29823e-07
1.07621e-07
1.26087e-07
1.27271e-07
1.62097e-07
2.20252e-07
2.7962e-07
3.93143e-07
9.22822e-07
2.3768e-06
1.00835e-06
2.33349e-07
2.86644e-07
9.63881e-07
1.48736e-06
2.64864e-06
3.13905e-06
2.98539e-06
3.2553e-06
4.39487e-06
5.39908e-06
6.15793e-06
6.29944e-06
6.31918e-06
6.21022e-06
6.11453e-06
6.11058e-06
6.07814e-06
6.13874e-06
6.23102e-06
6.19385e-06
5.97062e-06
5.62543e-06
4.89686e-06
4.40961e-06
3.61071e-06
3.21711e-06
2.99638e-06
3.56051e-06
4.42622e-06
4.33356e-06
9.65072e-07
1.94792e-07
1.68461e-07
1.85685e-07
2.90906e-07
4.25021e-07
4.16107e-07
2.21523e-07
1.39366e-07
7.60003e-08
5.82499e-08
4.3995e-08
3.4126e-08
2.89763e-08
2.41839e-08
2.52061e-08
3.00637e-08
3.77897e-08
5.83538e-08
1.1435e-07
2.44312e-07
4.27943e-07
6.19705e-07
6.7662e-07
6.95215e-07
5.8263e-07
4.43102e-07
3.36852e-07
6.17843e-07
1.65071e-07
5.50241e-08
2.16033e-08
1.95835e-08
2.11079e-08
2.28209e-08
4.62291e-08
6.95582e-08
8.60981e-08
1.39218e-07
1.74789e-07
2.21896e-07
2.31327e-07
2.3835e-07
2.46219e-07
2.15979e-07
2.19559e-07
1.95104e-07
1.33364e-07
1.17696e-07
1.05989e-07
9.40646e-08
7.58477e-08
3.85554e-08
3.66203e-08
1.87141e-08
1.21095e-08
5.99526e-09
3.50387e-09
3.89932e-09
6.69805e-06
6.07142e-06
3.24222e-06
6.76675e-07
2.55027e-07
1.34147e-07
1.16518e-07
1.05347e-07
1.21931e-07
7.60172e-08
1.20976e-07
1.40678e-07
1.37723e-07
1.15578e-07
1.11127e-07
7.81519e-08
7.23661e-08
7.08456e-08
6.30789e-08
5.47166e-08
4.5289e-08
3.16537e-08
2.15306e-08
2.42707e-08
2.16993e-08
2.70131e-08
3.11969e-08
3.92533e-08
4.58106e-08
4.55086e-08
7.77364e-08
3.90763e-08
2.50873e-08
1.29876e-08
1.05201e-08
8.47705e-09
8.23928e-09
7.19035e-09
6.11082e-09
7.08812e-09
5.52407e-09
6.36102e-09
4.93335e-09
5.00443e-09
4.82065e-09
4.73885e-09
4.91316e-09
5.00666e-09
5.8825e-09
5.68645e-09
6.89207e-09
7.27147e-09
7.6542e-09
9.76642e-09
9.48603e-09
2.49996e-08
3.20316e-08
2.54098e-08
2.02062e-08
2.05573e-08
9.39483e-08
1.1732e-08
8.90369e-09
2.44033e-08
9.15324e-08
6.48347e-07
8.80104e-07
7.11246e-07
2.12715e-07
1.32264e-07
1.09177e-07
7.77582e-08
5.39752e-08
4.99383e-08
4.12572e-08
2.98821e-08
2.02037e-08
1.56373e-08
1.29329e-08
1.18794e-08
1.20501e-08
1.46098e-08
1.93483e-08
2.77157e-08
3.95305e-08
3.86684e-08
3.28864e-08
2.41583e-08
8.42648e-08
7.03042e-06
2.20542e-06
3.17061e-06
6.08798e-06
1.2827e-06
1.05264e-08
3.29724e-09
6.26298e-10
4.14867e-10
4.71559e-10
5.79147e-10
6.53076e-10
6.48321e-10
6.6025e-10
7.40211e-10
7.79151e-10
8.22584e-10
8.78835e-10
9.1987e-10
8.05184e-10
1.48645e-09
2.86212e-09
6.76862e-09
1.6282e-08
1.47306e-08
7.15894e-09
6.17772e-09
1.05217e-08
6.64925e-07
5.41901e-06
3.18541e-06
1.29775e-05
1.30605e-05
1.2896e-05
1.18319e-05
9.96581e-06
9.1479e-06
9.52264e-06
1.10052e-05
1.19643e-05
1.11693e-05
7.19198e-06
3.68826e-06
3.96645e-06
9.18255e-06
6.87144e-06
6.34647e-06
6.15611e-06
6.39245e-06
6.42044e-06
6.34277e-06
6.33078e-06
6.6659e-06
7.05362e-06
7.48633e-06
7.89111e-06
8.0679e-06
8.35171e-06
8.76905e-06
9.25408e-06
9.7107e-06
1.01029e-05
1.03523e-05
1.05307e-05
1.06465e-05
1.06231e-05
1.05572e-05
1.03418e-05
9.84604e-06
9.09946e-06
8.54626e-06
8.18189e-06
8.61315e-06
9.01199e-06
9.23809e-06
2.38874e-06
2.39339e-06
3.97695e-06
4.46232e-06
4.11839e-06
2.33099e-06
5.04885e-07
3.0908e-07
4.61624e-07
1.9729e-06
3.86191e-06
4.33419e-06
2.66932e-06
2.28114e-06
2.43379e-06
3.53128e-06
4.46786e-06
5.41833e-06
5.80191e-06
5.99237e-06
6.06458e-06
6.05895e-06
5.88308e-06
5.5854e-06
4.94498e-06
3.6045e-06
2.16463e-06
2.0388e-06
2.65017e-06
5.85346e-06
6.09389e-07
1.10911e-06
2.29401e-06
3.37791e-06
3.88003e-06
3.86902e-06
3.1975e-06
2.12774e-06
1.10948e-06
4.35578e-07
1.75782e-07
1.40954e-07
1.34183e-07
1.05964e-07
1.52684e-07
1.93677e-07
2.81469e-07
7.52739e-07
1.36287e-06
1.9068e-06
2.91258e-06
3.54376e-06
3.96388e-06
4.199e-06
3.82488e-06
2.83277e-06
2.61758e-06
3.26612e-06
3.90366e-06
4.91625e-06
2.80563e-07
1.70531e-07
2.42582e-07
2.81014e-07
3.02448e-07
3.41233e-07
4.31778e-07
5.03552e-07
6.62623e-07
1.15884e-06
1.8747e-06
2.23537e-06
2.43967e-06
2.55334e-06
2.51376e-06
2.53223e-06
2.26479e-06
2.29769e-06
2.07316e-06
2.06597e-06
2.04746e-06
2.0977e-06
2.1569e-06
2.08681e-06
1.86215e-06
1.51974e-06
1.52604e-06
2.58521e-06
4.19102e-06
4.86618e-06
1.2454e-06
6.13896e-07
3.07619e-07
1.96095e-07
1.21653e-07
1.24102e-07
1.28075e-07
1.21877e-07
1.12681e-07
1.20746e-07
1.17939e-07
1.0845e-07
1.06694e-07
1.16299e-07
1.17939e-07
1.40885e-07
1.38319e-07
1.64224e-07
1.62688e-07
1.77813e-07
1.784e-07
1.8495e-07
1.63031e-07
1.64909e-07
1.7292e-07
1.93911e-07
2.29234e-07
3.34528e-07
5.11969e-07
1.13297e-06
3.88007e-07
2.45308e-07
5.32091e-07
1.18096e-06
1.26746e-06
7.67807e-07
2.84539e-07
3.45886e-07
1.25006e-06
3.68633e-06
6.53157e-06
7.13162e-06
7.06614e-06
6.86829e-06
6.70626e-06
6.34055e-06
6.26516e-06
6.25471e-06
6.16689e-06
6.24123e-06
6.22202e-06
6.00275e-06
5.33451e-06
4.57274e-06
4.1807e-06
3.36761e-06
2.92412e-06
2.65097e-06
2.98694e-06
4.16915e-06
1.1648e-06
1.93166e-07
1.30321e-07
1.49616e-07
2.02838e-07
3.68041e-07
1.95213e-07
9.67966e-08
5.84382e-08
4.45076e-08
3.9468e-08
3.16344e-08
2.89967e-08
2.27929e-08
1.39591e-08
1.45574e-08
1.27206e-08
1.11955e-08
1.13949e-08
1.52478e-08
2.36993e-08
5.41025e-08
1.38612e-07
3.74105e-07
6.29749e-07
7.49161e-07
7.20228e-07
5.77479e-07
4.10342e-07
5.64414e-07
3.7204e-08
1.92592e-08
1.97544e-08
2.58125e-08
5.91912e-08
9.16275e-08
2.67932e-07
4.21675e-07
1.11139e-06
1.56905e-06
1.8057e-06
1.99525e-06
1.95624e-06
2.01617e-06
1.94735e-06
1.76849e-06
1.57755e-06
1.30808e-06
7.624e-07
4.01807e-07
2.96243e-07
1.43818e-07
1.32483e-07
9.92572e-08
6.95169e-08
4.54264e-08
2.47782e-08
1.14374e-08
5.10581e-09
3.97977e-09
6.1121e-06
3.09578e-06
2.99205e-07
1.21316e-07
1.30812e-07
2.49896e-07
4.38857e-07
1.33597e-06
1.88961e-06
2.23524e-06
2.68351e-06
2.88743e-06
2.57457e-06
2.33307e-06
1.7053e-06
1.45495e-06
1.28581e-06
8.29988e-07
2.99365e-07
2.02388e-07
9.6156e-08
7.12474e-08
4.82778e-08
2.91239e-08
2.641e-08
2.21583e-08
2.82735e-08
2.57253e-08
2.93779e-08
4.23873e-08
8.00311e-08
5.73736e-08
2.18935e-08
1.03107e-08
8.58291e-09
8.98803e-09
9.88686e-09
1.16136e-08
1.57602e-08
1.81237e-08
1.83768e-08
2.01749e-08
1.86307e-08
1.50176e-08
1.58148e-08
1.47223e-08
1.23682e-08
1.22361e-08
1.19575e-08
1.14386e-08
1.03102e-08
1.04399e-08
9.58568e-09
9.69318e-09
1.11342e-08
1.44549e-08
2.71763e-08
3.32593e-08
3.48653e-08
2.68551e-08
1.84931e-08
1.04488e-08
2.66683e-08
1.84528e-07
9.13998e-07
6.14731e-07
1.31089e-07
4.98835e-08
1.91522e-08
2.57356e-08
2.23306e-08
1.87967e-08
1.40364e-08
1.21455e-08
8.2437e-09
6.21947e-09
4.50923e-09
3.85835e-09
3.82547e-09
2.65522e-09
3.38461e-09
3.31644e-09
4.14739e-09
6.3838e-09
7.50828e-09
1.79045e-08
2.15628e-08
2.23075e-08
4.0054e-08
3.64051e-06
2.58763e-06
6.33619e-06
4.0342e-08
2.78183e-09
9.71155e-10
4.68732e-10
3.63564e-10
4.52298e-10
5.64011e-10
6.9535e-10
7.70058e-10
8.86768e-10
8.8411e-10
1.01907e-09
1.06205e-09
1.05707e-09
9.03331e-10
7.83578e-10
6.79212e-10
6.15398e-10
8.48394e-10
1.79263e-09
1.43421e-08
8.68525e-08
1.01203e-07
2.45828e-08
1.11774e-08
4.93495e-08
6.45187e-06
3.26727e-06
1.33003e-05
1.3068e-05
1.12816e-05
7.07553e-06
4.59209e-06
4.53595e-06
5.54956e-06
7.10706e-06
9.79455e-06
1.14236e-05
1.02597e-05
5.15822e-06
4.10866e-06
8.67068e-06
6.58465e-06
6.28347e-06
6.3024e-06
6.2261e-06
5.91273e-06
5.50812e-06
5.22223e-06
5.69252e-06
6.78684e-06
7.54741e-06
8.0442e-06
8.24108e-06
8.74822e-06
9.4437e-06
1.01434e-05
1.06813e-05
1.09924e-05
1.11587e-05
1.11835e-05
1.12821e-05
1.12462e-05
1.13592e-05
1.14621e-05
1.08891e-05
1.0312e-05
9.24672e-06
8.58776e-06
8.58605e-06
9.22128e-06
9.44383e-06
2.45858e-06
3.92491e-06
6.11819e-06
5.92832e-06
2.8588e-06
8.01242e-07
2.81399e-07
3.26002e-07
1.85802e-06
6.07117e-06
7.69508e-06
6.78917e-06
3.53071e-06
3.07278e-06
4.32008e-06
5.87281e-06
6.59633e-06
6.80121e-06
6.86365e-06
6.69419e-06
6.6879e-06
6.72075e-06
6.70965e-06
6.57239e-06
6.44241e-06
5.58807e-06
3.92966e-06
2.25281e-06
2.38562e-06
4.76326e-06
6.56577e-07
1.31613e-06
2.76144e-06
3.34331e-06
3.24683e-06
2.39564e-06
1.20298e-06
3.57658e-07
1.14698e-07
5.43666e-08
5.82762e-08
6.81262e-08
7.64798e-08
8.42536e-08
9.51608e-08
2.22725e-07
5.63497e-07
1.3528e-06
2.46864e-06
3.46495e-06
4.34615e-06
5.18936e-06
5.68661e-06
5.93554e-06
5.29425e-06
4.30789e-06
2.80662e-06
2.58105e-06
3.576e-06
4.55665e-06
2.8468e-07
1.56832e-07
2.22227e-07
2.52103e-07
3.69482e-07
4.35073e-07
4.75007e-07
5.86721e-07
1.28782e-06
1.99182e-06
2.71753e-06
2.83014e-06
3.3052e-06
3.42169e-06
3.41898e-06
3.33797e-06
3.37922e-06
3.30322e-06
3.20735e-06
2.54006e-06
2.42562e-06
2.36184e-06
2.34759e-06
2.36755e-06
2.20582e-06
1.87872e-06
1.60524e-06
1.84449e-06
3.09783e-06
4.35482e-06
1.07819e-06
4.71821e-07
2.40072e-07
1.36707e-07
1.07398e-07
9.02825e-08
8.37515e-08
9.87265e-08
8.52357e-08
7.95676e-08
8.37091e-08
7.44992e-08
8.10756e-08
9.92594e-08
1.35402e-07
1.45881e-07
1.67111e-07
1.69748e-07
1.91885e-07
2.0469e-07
2.18011e-07
2.34248e-07
2.46211e-07
2.27202e-07
1.93736e-07
2.01224e-07
2.14481e-07
2.85057e-07
3.91245e-07
8.93548e-07
3.43364e-07
2.72247e-07
5.80725e-07
5.04278e-07
1.63023e-07
8.11727e-08
1.05544e-07
3.90743e-07
3.58216e-06
6.90569e-06
7.37242e-06
7.16501e-06
5.96113e-06
4.01988e-06
2.96271e-06
2.71029e-06
3.05853e-06
3.82244e-06
5.09513e-06
5.88438e-06
6.16268e-06
6.06888e-06
5.75851e-06
5.23287e-06
4.8814e-06
4.47016e-06
3.33123e-06
2.60155e-06
2.60808e-06
3.95306e-06
3.70916e-07
1.18737e-07
1.07959e-07
1.82233e-07
2.2794e-07
1.42688e-07
5.39021e-08
4.42342e-08
5.30313e-08
7.04965e-08
6.24916e-08
5.57324e-08
5.43888e-08
4.01937e-08
2.77439e-08
2.18478e-08
1.78473e-08
1.50839e-08
1.19996e-08
1.12385e-08
1.19325e-08
1.88885e-08
5.16705e-08
1.72151e-07
5.18976e-07
7.3475e-07
7.88832e-07
6.72961e-07
4.55482e-07
5.19743e-07
2.27071e-08
1.7718e-08
2.43929e-08
1.10322e-07
3.67728e-07
1.27732e-06
2.17685e-06
3.44117e-06
4.12058e-06
4.82844e-06
4.76754e-06
4.85207e-06
4.74981e-06
4.82984e-06
4.63325e-06
4.78592e-06
4.16342e-06
3.56011e-06
2.36851e-06
1.69897e-06
8.61222e-07
4.42039e-07
2.42481e-07
1.62416e-07
1.28298e-07
6.8755e-08
4.37541e-08
1.36666e-08
6.63123e-09
4.43728e-09
4.36898e-06
3.72841e-07
1.0449e-07
2.661e-07
1.28074e-06
3.17037e-06
4.56156e-06
5.41972e-06
5.36056e-06
5.24173e-06
4.72238e-06
4.30736e-06
3.71171e-06
3.47571e-06
3.35888e-06
3.26359e-06
3.11533e-06
2.79028e-06
2.09155e-06
1.30011e-06
5.9128e-07
2.06437e-07
8.68538e-08
5.98191e-08
3.78929e-08
3.50346e-08
2.97837e-08
2.37821e-08
2.48608e-08
3.68005e-08
8.03871e-08
3.14168e-08
1.00601e-08
7.84608e-09
1.03613e-08
1.33693e-08
2.57339e-08
4.21009e-08
5.99963e-08
9.54885e-08
1.43083e-07
1.88303e-07
2.07626e-07
2.05624e-07
1.81127e-07
1.38095e-07
8.39865e-08
4.48422e-08
3.24518e-08
2.59993e-08
2.03238e-08
2.0503e-08
1.82892e-08
1.45173e-08
1.46393e-08
1.46103e-08
2.43036e-08
3.28498e-08
3.15762e-08
3.34573e-08
1.05641e-08
1.85517e-08
1.52429e-07
9.34121e-07
2.67931e-07
7.83054e-08
3.28656e-08
2.58139e-08
2.31807e-08
1.82535e-08
1.67525e-08
1.2602e-08
9.97763e-09
7.46454e-09
4.75227e-09
3.71703e-09
3.31833e-09
3.6834e-09
7.45935e-09
1.32569e-08
1.85795e-08
1.43019e-08
8.40334e-09
4.27477e-09
5.03382e-09
7.24427e-09
1.26551e-08
1.51239e-08
2.59906e-08
1.10509e-06
3.57972e-06
2.62589e-07
2.08228e-09
6.26366e-10
4.26614e-10
3.23393e-10
4.34032e-10
5.54206e-10
6.86344e-10
7.30224e-10
1.42605e-09
2.17319e-09
2.43673e-09
3.24006e-09
3.28432e-09
2.607e-09
2.12275e-09
1.13652e-09
9.28765e-10
6.39759e-10
4.90653e-10
6.56473e-10
1.59629e-09
2.97367e-08
2.4912e-07
5.37806e-08
1.75953e-08
4.20444e-08
6.57481e-06
3.41064e-06
1.33409e-05
1.24235e-05
7.04241e-06
3.92516e-06
3.85609e-06
4.39292e-06
5.7346e-06
6.94349e-06
9.11163e-06
1.13403e-05
1.09307e-05
6.28704e-06
4.23947e-06
8.40187e-06
6.52385e-06
6.24124e-06
5.96339e-06
5.57178e-06
4.76421e-06
3.70845e-06
3.42419e-06
4.25462e-06
6.38496e-06
7.52929e-06
8.06295e-06
8.42771e-06
9.1963e-06
1.01493e-05
1.08524e-05
1.12293e-05
1.13826e-05
1.12257e-05
1.12169e-05
1.12751e-05
1.14804e-05
1.16186e-05
1.18215e-05
1.16138e-05
1.11074e-05
1.00617e-05
8.98098e-06
8.77414e-06
9.35801e-06
1.02987e-05
2.52254e-06
4.85686e-06
6.47624e-06
4.99135e-06
1.8068e-06
3.40008e-07
1.82084e-07
3.98817e-07
3.3022e-06
8.11635e-06
8.69952e-06
7.5295e-06
3.15044e-06
4.26428e-06
6.28331e-06
7.14547e-06
7.12674e-06
6.72256e-06
6.34977e-06
6.13312e-06
5.96661e-06
6.06895e-06
6.22147e-06
6.62827e-06
6.64563e-06
6.41823e-06
5.25853e-06
3.22173e-06
2.36266e-06
4.40465e-06
7.10061e-07
1.42146e-06
2.68272e-06
2.67991e-06
1.48792e-06
7.30732e-07
1.48171e-07
4.54497e-08
3.44656e-08
3.96965e-08
6.80416e-08
9.25546e-08
1.01656e-07
1.13396e-07
2.05694e-07
5.42211e-07
1.39025e-06
2.64831e-06
3.56585e-06
4.60298e-06
4.94103e-06
5.54319e-06
6.12464e-06
6.52591e-06
6.50288e-06
5.29498e-06
3.83255e-06
2.5839e-06
3.31219e-06
4.35948e-06
2.87066e-07
1.63156e-07
1.80349e-07
3.76943e-07
5.40697e-07
5.31434e-07
5.59429e-07
6.80949e-07
1.83591e-06
2.39113e-06
2.54379e-06
2.31535e-06
2.2057e-06
2.21695e-06
2.11402e-06
2.39519e-06
2.42487e-06
3.06304e-06
3.12625e-06
3.16192e-06
2.65888e-06
2.54784e-06
2.50708e-06
2.49094e-06
2.417e-06
2.1195e-06
1.78256e-06
1.73709e-06
2.15822e-06
3.90292e-06
9.71002e-07
3.6712e-07
1.96681e-07
1.12104e-07
9.9097e-08
9.23497e-08
8.93768e-08
7.59034e-08
8.94982e-08
9.34092e-08
5.2347e-08
6.85982e-08
6.45398e-08
7.58383e-08
1.06479e-07
1.37678e-07
1.47683e-07
1.60934e-07
1.90546e-07
2.11874e-07
2.23306e-07
2.62097e-07
2.63197e-07
2.44956e-07
2.29828e-07
2.05567e-07
1.96269e-07
2.69906e-07
3.37404e-07
7.48934e-07
3.19199e-07
2.82605e-07
2.87866e-07
1.02573e-07
4.74177e-08
4.56772e-08
1.56337e-07
2.681e-06
6.71798e-06
7.14138e-06
5.36615e-06
1.15588e-06
3.27438e-07
2.10364e-07
1.87259e-07
2.46501e-07
3.45381e-07
6.3095e-07
1.21124e-06
1.77963e-06
4.39728e-06
5.65963e-06
5.90217e-06
5.85217e-06
5.76834e-06
5.31963e-06
4.28464e-06
2.69168e-06
2.50211e-06
3.83423e-06
1.78269e-07
8.25755e-08
1.05586e-07
1.57036e-07
1.0848e-07
5.3535e-08
4.77522e-08
5.86186e-08
1.80415e-07
2.21734e-07
1.55003e-07
5.43274e-08
3.90211e-08
2.29567e-08
1.40962e-08
1.15589e-08
1.29353e-08
1.44053e-08
1.42126e-08
1.31779e-08
1.12732e-08
1.59277e-08
2.80511e-08
1.06161e-07
4.26345e-07
7.02961e-07
8.11672e-07
7.3635e-07
4.99127e-07
5.58891e-07
2.14722e-08
2.62763e-08
1.36668e-07
9.30174e-07
2.42035e-06
4.19068e-06
5.29722e-06
5.49663e-06
5.39491e-06
5.12384e-06
4.78691e-06
4.2924e-06
4.13946e-06
4.63188e-06
4.96052e-06
5.37488e-06
5.61899e-06
5.45502e-06
4.98842e-06
3.58077e-06
2.00983e-06
1.11027e-06
4.94592e-07
2.82306e-07
1.70926e-07
1.26257e-07
4.55077e-08
2.37145e-08
7.85133e-09
4.64715e-09
1.69586e-06
1.19349e-07
3.59474e-07
2.03768e-06
4.35269e-06
5.54551e-06
5.48742e-06
5.26477e-06
4.70031e-06
3.4567e-06
3.05417e-06
2.33963e-06
2.32403e-06
1.94285e-06
2.05965e-06
2.09095e-06
2.40074e-06
2.63139e-06
2.74475e-06
2.55337e-06
1.63014e-06
9.23104e-07
2.45033e-07
1.08855e-07
7.08992e-08
5.15895e-08
4.05612e-08
2.9555e-08
3.03159e-08
4.17486e-08
7.03652e-08
1.19224e-08
6.74655e-09
1.23318e-08
2.13637e-08
3.72439e-08
8.05447e-08
1.91879e-07
6.35799e-07
1.21639e-06
2.03695e-06
2.80383e-06
3.25991e-06
3.36828e-06
3.32252e-06
2.33285e-06
1.20189e-06
5.59408e-07
1.51599e-07
7.4437e-08
4.97803e-08
4.53039e-08
3.32302e-08
1.64142e-08
2.41809e-08
1.9601e-08
2.5029e-08
3.56088e-08
3.80035e-08
4.32263e-08
1.20739e-08
5.6365e-08
6.84632e-07
5.08517e-07
8.52836e-08
3.81317e-08
2.89526e-08
2.96351e-08
3.15095e-08
2.71278e-08
2.18784e-08
1.49543e-08
1.05189e-08
5.98248e-09
3.85071e-09
3.35507e-09
3.76075e-09
7.21284e-09
4.96396e-08
3.52891e-07
1.25207e-06
9.29966e-07
6.3523e-08
1.42308e-08
6.49324e-09
5.44122e-09
8.62102e-09
1.08541e-08
2.25251e-08
6.45196e-07
5.05927e-06
1.02548e-08
6.81903e-10
3.60682e-10
3.36173e-10
3.99968e-10
5.2786e-10
7.47613e-10
9.07494e-10
1.99886e-09
3.96945e-09
7.15716e-09
1.14496e-08
1.31797e-08
1.0204e-08
5.85091e-09
4.58437e-09
2.67297e-09
1.70839e-09
9.93263e-10
6.81026e-10
5.41075e-10
6.19401e-10
4.10557e-09
2.20264e-07
7.8448e-08
2.85269e-08
5.31516e-08
6.75936e-06
3.44392e-06
1.35816e-05
1.0952e-05
4.20109e-06
3.47579e-06
4.53693e-06
7.47545e-06
9.352e-06
1.00873e-05
1.10579e-05
1.19801e-05
1.11772e-05
6.7546e-06
4.35791e-06
8.20839e-06
6.70067e-06
6.1471e-06
5.49714e-06
4.69075e-06
3.18061e-06
2.21732e-06
2.23165e-06
2.69219e-06
5.83801e-06
7.48357e-06
8.08385e-06
8.65082e-06
9.68094e-06
1.0649e-05
1.11794e-05
1.12271e-05
1.10032e-05
1.09015e-05
1.08046e-05
1.11547e-05
1.13606e-05
1.19268e-05
1.16913e-05
1.1968e-05
1.15296e-05
1.06268e-05
9.47765e-06
8.93485e-06
9.64855e-06
1.05101e-05
2.55416e-06
4.66997e-06
6.14584e-06
3.85721e-06
8.14096e-07
1.92099e-07
1.46801e-07
3.66036e-07
3.86318e-06
8.64824e-06
8.76509e-06
7.30509e-06
2.60464e-06
5.91907e-06
7.29542e-06
7.1268e-06
6.46166e-06
5.60339e-06
5.1529e-06
4.49e-06
4.84018e-06
5.14241e-06
5.58716e-06
5.97296e-06
6.50777e-06
6.52914e-06
5.68542e-06
3.62582e-06
2.3742e-06
4.383e-06
7.39849e-07
1.44339e-06
2.20283e-06
1.35565e-06
5.1861e-07
1.11427e-07
3.54398e-08
1.67116e-08
2.12163e-08
5.2154e-08
1.55504e-07
2.67379e-07
2.08751e-07
1.96067e-07
3.60888e-07
1.2543e-06
2.51094e-06
3.41493e-06
3.83553e-06
4.20745e-06
4.9039e-06
5.62734e-06
6.14155e-06
6.74383e-06
6.94378e-06
6.07703e-06
4.06283e-06
2.48811e-06
3.21083e-06
4.22512e-06
3.03687e-07
1.70358e-07
2.53595e-07
5.51885e-07
1.43196e-06
8.82988e-07
6.10125e-07
1.22262e-06
2.14006e-06
2.29744e-06
2.03704e-06
2.01706e-06
1.7924e-06
1.71626e-06
1.96702e-06
2.06013e-06
2.31298e-06
2.47385e-06
2.80304e-06
2.93851e-06
3.22566e-06
2.68373e-06
2.54e-06
2.51562e-06
2.4372e-06
2.26523e-06
1.97614e-06
1.84065e-06
2.10925e-06
3.74185e-06
8.44086e-07
2.95134e-07
1.70514e-07
8.1508e-08
8.65848e-08
8.14599e-08
8.01527e-08
9.20434e-08
1.0972e-07
1.30546e-07
9.29168e-08
5.61628e-08
5.29424e-08
5.48331e-08
8.4538e-08
1.13357e-07
1.40509e-07
1.52845e-07
1.91121e-07
2.05464e-07
2.5699e-07
2.28747e-07
2.58005e-07
2.5639e-07
2.38608e-07
1.98566e-07
2.00458e-07
2.57149e-07
3.33509e-07
6.37734e-07
3.15943e-07
2.56772e-07
1.40109e-07
4.39719e-08
2.59176e-08
5.12094e-08
3.60492e-07
4.06321e-06
6.05312e-06
3.30912e-06
3.94734e-07
1.28791e-07
6.6318e-08
5.60005e-08
5.76601e-08
7.46272e-08
1.34014e-07
3.09834e-07
4.24122e-07
9.53588e-07
1.51253e-06
3.51919e-06
5.34031e-06
5.8298e-06
5.97219e-06
5.88919e-06
4.66937e-06
2.78957e-06
2.51946e-06
3.9453e-06
1.36591e-07
6.73792e-08
1.04002e-07
1.10215e-07
5.5392e-08
4.74845e-08
8.25397e-08
2.00774e-07
3.81613e-07
2.54536e-07
1.0775e-07
4.59755e-08
2.39586e-08
1.87515e-08
1.45881e-08
1.25608e-08
1.30146e-08
1.42127e-08
1.48237e-08
1.53168e-08
1.28788e-08
1.59818e-08
3.57335e-08
1.23434e-07
4.39977e-07
7.18287e-07
8.01413e-07
7.34218e-07
4.85388e-07
6.05063e-07
2.34373e-08
8.1407e-08
1.0658e-06
3.6378e-06
4.83578e-06
5.58296e-06
5.70848e-06
5.42065e-06
4.39579e-06
3.64181e-06
2.92033e-06
2.97863e-06
2.97474e-06
3.81435e-06
4.64593e-06
5.46045e-06
6.17437e-06
6.46812e-06
6.01089e-06
5.20613e-06
3.28838e-06
1.75025e-06
6.02129e-07
4.14776e-07
2.24972e-07
1.44543e-07
6.70679e-08
2.30251e-08
7.33418e-09
4.80465e-09
4.56848e-07
1.7058e-07
2.00623e-06
3.67297e-06
4.33181e-06
4.70373e-06
3.92828e-06
3.24474e-06
2.83546e-06
2.26039e-06
2.05714e-06
2.11281e-06
2.02664e-06
1.96082e-06
1.48237e-06
1.41882e-06
1.38883e-06
1.49408e-06
2.11818e-06
2.61642e-06
2.61961e-06
1.68349e-06
9.50114e-07
2.78448e-07
1.24435e-07
7.76148e-08
6.23387e-08
4.36256e-08
3.41848e-08
4.39327e-08
3.38896e-08
8.40977e-09
1.15339e-08
2.07771e-08
4.14421e-08
8.75426e-08
2.37924e-07
9.43226e-07
1.62421e-06
3.26011e-06
4.34648e-06
4.95984e-06
5.29196e-06
5.44024e-06
5.44135e-06
5.39815e-06
4.81745e-06
3.20399e-06
1.26649e-06
4.1616e-07
1.42508e-07
6.58667e-08
6.29999e-08
5.80591e-08
3.93411e-08
2.55072e-08
3.00433e-08
3.50059e-08
4.3926e-08
4.29462e-08
1.53966e-08
1.71578e-07
9.24881e-07
1.54431e-07
4.60301e-08
3.8187e-08
4.0173e-08
4.3933e-08
4.98151e-08
4.19826e-08
3.41167e-08
2.22482e-08
1.31976e-08
6.95649e-09
3.73869e-09
3.28057e-09
4.78119e-09
2.73536e-08
9.41094e-07
4.88089e-06
6.24661e-06
6.12632e-06
2.21527e-06
6.02774e-08
9.37476e-09
6.10807e-09
7.79403e-09
9.3356e-09
2.27014e-08
5.82913e-07
6.13632e-06
3.57638e-09
5.26996e-10
3.55724e-10
3.72084e-10
4.76102e-10
6.73369e-10
8.19681e-10
2.13626e-09
5.28961e-09
1.35444e-08
2.67404e-08
3.08867e-08
4.79697e-08
3.92874e-08
1.93159e-08
9.40094e-09
4.44238e-09
2.46208e-09
1.36617e-09
8.25192e-10
5.69597e-10
3.07407e-10
7.73403e-10
6.37029e-08
1.97875e-07
7.14485e-08
2.10997e-07
6.53302e-06
3.32765e-06
1.33221e-05
8.88929e-06
3.57493e-06
3.79791e-06
7.38194e-06
1.08663e-05
1.26178e-05
1.28082e-05
1.23338e-05
1.20177e-05
1.14899e-05
6.89232e-06
4.5197e-06
8.10236e-06
6.67205e-06
5.68311e-06
4.61689e-06
3.20623e-06
1.93379e-06
1.69052e-06
1.78435e-06
2.32126e-06
5.54498e-06
7.45543e-06
8.09865e-06
8.77618e-06
9.99908e-06
1.09137e-05
1.12113e-05
1.09121e-05
1.03093e-05
9.78902e-06
9.95622e-06
1.05694e-05
1.14867e-05
1.18177e-05
1.21442e-05
1.18318e-05
1.16024e-05
1.09723e-05
9.83847e-06
9.15443e-06
9.94734e-06
1.10114e-05
2.50193e-06
3.95686e-06
4.70545e-06
2.45932e-06
4.92898e-07
1.52831e-07
1.18823e-07
2.73639e-07
4.26331e-06
8.76139e-06
8.91521e-06
6.29119e-06
3.48869e-06
6.84675e-06
7.36988e-06
6.42014e-06
5.44628e-06
3.99241e-06
3.40248e-06
2.92472e-06
3.10128e-06
3.66364e-06
4.66019e-06
5.5071e-06
6.16074e-06
6.4321e-06
5.66047e-06
3.4948e-06
2.45288e-06
4.51446e-06
7.82595e-07
1.38848e-06
1.39146e-06
6.28952e-07
1.18564e-07
3.46985e-08
1.50548e-08
1.38943e-08
2.16452e-08
7.23912e-08
3.49755e-07
4.11302e-07
2.5562e-07
2.46763e-07
9.87856e-07
2.10899e-06
3.1718e-06
3.31638e-06
3.36422e-06
3.76388e-06
4.32005e-06
5.73376e-06
6.11305e-06
6.99317e-06
7.02263e-06
5.95975e-06
3.64897e-06
2.41717e-06
3.24077e-06
4.23658e-06
3.32025e-07
1.82135e-07
4.76824e-07
1.77942e-06
1.7199e-06
1.02539e-06
6.65859e-07
1.51295e-06
2.18921e-06
2.13696e-06
1.93542e-06
2.01408e-06
1.84245e-06
2.17687e-06
2.07905e-06
2.1636e-06
2.31146e-06
2.642e-06
2.6471e-06
2.74257e-06
2.80123e-06
2.78231e-06
2.61166e-06
2.48089e-06
2.49694e-06
2.40985e-06
2.11544e-06
1.99597e-06
2.47214e-06
3.76869e-06
7.67952e-07
2.02675e-07
1.37056e-07
9.0891e-08
7.24556e-08
6.11276e-08
5.75877e-08
6.71057e-08
8.26151e-08
1.63227e-07
1.35321e-07
5.83332e-08
4.0149e-08
4.34127e-08
6.70017e-08
1.0659e-07
1.33419e-07
1.62001e-07
1.97394e-07
2.22807e-07
2.27252e-07
2.22177e-07
2.14432e-07
2.51292e-07
2.24773e-07
1.96157e-07
2.11802e-07
2.49668e-07
3.06431e-07
6.54442e-07
3.06649e-07
2.01142e-07
6.6082e-08
2.15048e-08
2.29043e-08
4.59823e-08
2.9977e-07
1.95066e-06
3.11879e-06
9.36002e-07
1.40129e-07
5.4879e-08
2.98738e-08
2.71142e-08
2.88847e-08
4.2191e-08
6.01219e-08
1.52852e-07
3.92993e-07
7.20436e-07
8.85457e-07
1.57058e-06
3.70666e-06
5.34934e-06
5.96829e-06
6.03726e-06
4.76518e-06
2.83805e-06
2.77398e-06
4.16422e-06
9.747e-08
6.67936e-08
8.09119e-08
6.04132e-08
5.11419e-08
7.41144e-08
1.53256e-07
3.28499e-07
3.74947e-07