/*--------------------------------*- C++ -*----------------------------------*\
| =========                 |                                                 |
| \\      /  F ield         | OpenFOAM: The Open Source CFD Toolbox           |
|  \\    /   O peration     | Version:  2.1.1                                 |
|   \\  /    A nd           | Web:      www.OpenFOAM.org                      |
|    \\/     M anipulation  |                                                 |
\*---------------------------------------------------------------------------*/
FoamFile
{
    version     2.0;
    format      ascii;
    class       volScalarField;
    location    "0.004900000";
    object      O;
}
// * * * * * * * * * * * * * * * * * * * * * * * * * * * * * * * * * * * * * //

dimensions      [0 0 0 0 0 0 0];

internalField   nonuniform List<scalar> 
12384
(
0.000585023
0.000604256
0.000667631
0.000669408
0.000692732
0.0006966
0.000659992
0.000640952
0.000592827
0.000500607
0.000520084
0.000615182
0.00109919
0.000697813
0.000166847
0.000181905
0.000164645
0.000146556
0.000139676
0.000145942
0.000153894
0.000167927
0.000174852
0.000182416
0.000189643
0.000192888
0.000196889
0.00019877
0.000202963
0.000203311
0.000201861
0.000201629
0.000198827
0.000197594
0.000198159
0.000194645
0.000201117
0.000197461
0.000195062
0.000201708
0.000202425
0.000191249
0.000237534
0.000261254
0.000170464
0.000120837
0.000118746
0.000126716
0.000149572
0.000206116
0.000235004
0.000220648
0.000142488
7.40304e-05
7.30248e-05
7.27031e-05
7.05118e-05
7.32494e-05
7.00373e-05
6.7184e-05
5.19046e-05
5.67183e-05
6.90411e-05
6.52079e-05
7.23621e-05
7.10227e-05
7.83647e-05
8.73386e-05
9.39974e-05
0.000101725
0.000122828
0.000215745
0.000311755
0.000241246
4.80303e-05
5.69105e-05
8.56371e-05
0.000110511
0.000133852
0.000152582
0.00016977
0.000173335
0.000174128
0.000175974
0.000165871
0.000159584
0.000144926
0.000135041
0.000121665
0.000111085
0.000112541
0.00011804
0.00011378
0.000129516
0.000123991
0.000140032
0.00015395
0.000174365
0.000181103
0.000195617
0.000212297
0.000238001
0.000309242
0.000332165
3.58548e-05
1.93267e-05
2.59657e-05
4.04627e-05
5.10324e-05
5.58102e-05
6.42819e-05
6.62967e-05
7.98651e-05
7.98868e-05
8.05661e-05
6.02756e-05
4.68543e-05
7.55769e-05
5.57201e-05
7.37415e-05
6.07855e-05
6.9513e-05
6.93259e-05
7.34583e-05
7.86975e-05
8.62052e-05
8.89672e-05
7.80987e-05
7.48637e-05
8.67043e-05
0.000194297
0.000319507
0.000327306
0.000324295
9.65589e-05
8.83176e-05
7.71322e-05
2.39459e-05
4.3855e-05
3.44081e-05
2.725e-05
3.03379e-05
2.80421e-05
2.90398e-05
2.91406e-05
2.78634e-05
2.86022e-05
2.58573e-05
2.38571e-05
2.43262e-05
2.50665e-05
2.13472e-05
2.14185e-05
2.53434e-05
2.35285e-05
2.35253e-05
2.29836e-05
2.63156e-05
3.29752e-05
3.65883e-05
4.6914e-05
4.65964e-05
0.000234189
0.000313293
0.000125457
3.53496e-05
1.82425e-05
3.70354e-05
9.26206e-05
0.000104795
0.000118251
0.000143554
0.000163189
0.000161154
0.000166679
0.000171412
0.000164993
0.000159578
0.000156242
0.000154107
0.00015694
0.000156969
0.000158406
0.000165168
0.00016983
0.000175298
0.000171494
0.000170449
0.000164789
0.000160028
0.000151946
0.000145087
0.000191458
0.000207839
0.000259796
0.000304208
0.000117585
2.36467e-05
7.79829e-06
1.32676e-05
2.35365e-05
3.65285e-05
4.55088e-05
4.67516e-05
3.91127e-05
3.58347e-05
3.29907e-05
2.79578e-05
2.24238e-05
2.80154e-05
2.83965e-05
2.88516e-05
3.62315e-05
4.84368e-05
5.12287e-05
6.72172e-05
6.09121e-05
7.72425e-05
7.37885e-05
6.42739e-05
4.02435e-05
2.06749e-05
3.27552e-05
8.26794e-05
0.000178745
0.00017062
0.000189948
2.98112e-05
4.67555e-06
2.74681e-06
2.98762e-06
3.09165e-06
3.49461e-06
3.85712e-06
4.24704e-06
4.78044e-06
4.56471e-06
4.80239e-06
5.01066e-06
6.60826e-06
6.79828e-06
7.18741e-06
8.64571e-06
8.51648e-06
8.60019e-06
1.02017e-05
9.99703e-06
6.93923e-06
4.03061e-06
1.45489e-06
1.14807e-06
8.09509e-07
8.03531e-07
6.60553e-07
0.000426736
0.000423379
0.000412907
0.000340844
0.000236779
0.000129943
8.40158e-05
5.30419e-05
3.07238e-05
1.50589e-05
2.03287e-05
1.4696e-05
1.01992e-05
9.24714e-06
8.44886e-06
7.33846e-06
7.11444e-06
5.65226e-06
5.58222e-06
4.79949e-06
5.50334e-06
5.58432e-06
5.38814e-06
2.58897e-06
4.23079e-06
6.94481e-06
7.51263e-06
8.76681e-06
9.194e-06
9.62096e-06
1.75888e-05
1.04001e-05
5.76218e-06
2.38413e-06
2.81557e-06
2.13738e-06
1.78993e-06
1.80914e-06
1.56328e-06
1.19847e-06
1.29317e-06
8.66238e-07
9.04314e-07
9.52138e-07
7.52696e-07
9.20939e-07
7.44231e-07
1.00794e-06
9.58491e-07
1.24168e-06
1.3562e-06
1.46363e-06
2.12307e-06
2.49435e-06
4.17599e-06
6.37298e-06
5.1242e-06
3.78886e-06
3.1795e-06
3.23963e-06
0.000153386
6.19492e-06
1.15426e-06
1.73481e-06
3.94107e-06
4.48381e-06
9.42094e-06
1.13144e-05
1.68344e-05
2.06082e-05
2.12318e-05
2.10901e-05
2.11293e-05
2.05548e-05
1.97779e-05
1.86489e-05
1.49502e-05
1.3348e-05
1.19823e-05
1.05587e-05
9.59565e-06
9.08707e-06
8.60103e-06
7.71583e-06
1.44379e-06
7.72849e-06
2.97775e-06
4.98336e-06
7.21102e-05
3.1582e-05
7.90058e-06
7.97211e-06
1.19448e-05
1.73064e-05
3.92737e-05
0.00015788
6.72406e-07
1.91231e-07
1.36895e-07
2.30716e-07
2.64706e-07
1.56546e-07
2.5064e-07
2.75242e-07
3.72632e-07
4.48338e-07
5.28874e-07
3.17773e-07
5.86066e-07
1.02921e-06
1.27585e-06
1.69554e-06
1.16099e-06
1.52558e-06
2.61123e-06
6.6288e-06
8.24498e-05
9.48847e-05
2.25927e-05
1.9545e-05
0.000848205
0.000840494
0.000802202
0.000783343
0.000787721
0.000798166
0.000796933
0.000790178
0.000793956
0.000750272
0.000593936
0.000566474
0.00082331
0.000967097
0.000158563
0.000159905
0.00013619
0.000139796
0.000157338
0.000184344
0.000200183
0.000225071
0.000236107
0.000247495
0.000248086
0.000244637
0.000240064
0.000239907
0.00024711
0.00025313
0.000260856
0.000267574
0.000276066
0.000279435
0.000275598
0.000273205
0.000267568
0.000244253
0.000232063
0.000210888
0.000209053
0.000205306
0.000208018
0.000216533
0.000177265
0.000134255
0.000153667
0.000178366
0.000215533
0.000237486
0.000169722
7.49426e-05
5.1269e-05
5.34017e-05
7.45396e-05
9.95068e-05
0.000107916
0.000100002
0.000103378
0.000123256
0.000141596
0.000160568
0.00017699
0.000186599
0.000193659
0.000192805
0.000183752
0.000165587
0.000153969
0.000139132
0.000131107
0.000167916
0.00028151
0.00034351
4.79783e-05
6.99819e-05
0.000108149
0.000147832
0.000176766
0.000185418
0.000183447
0.000184121
0.000169309
0.000141968
0.000108747
8.28184e-05
5.95088e-05
4.63796e-05
3.30305e-05
4.02234e-05
4.33808e-05
6.05975e-05
8.32848e-05
0.000111007
0.000124182
0.00014304
0.000163829
0.000177265
0.000180902
0.000180767
0.00018252
0.000210697
0.00025516
0.000311081
3.40316e-05
2.18554e-05
3.20809e-05
3.7377e-05
4.62295e-05
5.10854e-05
5.24212e-05
6.37359e-05
6.99738e-05
8.28073e-05
6.77152e-05
8.48826e-05
0.000103593
0.000115755
0.000114451
0.00011627
0.000114909
0.000112044
0.000120159
0.000123211
0.000133775
0.000131819
0.000129504
0.000117065
0.000105477
9.45437e-05
0.000130087
0.000243222
0.000300751
0.000318991
6.29457e-05
8.49464e-05
5.62236e-05
4.18546e-05
2.65505e-05
1.65564e-05
2.09186e-05
2.21134e-05
2.26955e-05
2.30062e-05
2.15907e-05
2.20432e-05
1.94963e-05
1.84484e-05
1.6459e-05
1.59756e-05
2.09477e-05
2.11723e-05
2.12523e-05
1.62026e-05
2.13707e-05
1.60581e-05
1.96588e-05
1.80976e-05
2.4504e-05
3.31234e-05
4.16927e-05
6.17266e-05
0.000102472
0.00020009
6.35372e-05
2.82335e-05
3.48724e-05
5.67113e-05
9.7185e-05
0.000121586
0.000138665
0.000128249
0.000141686
0.000168752
0.000176456
0.000163125
0.000145727
0.000127534
0.000120698
0.000115136
0.000113542
0.000114448
0.000121438
0.000129731
0.000148235
0.000161679
0.00017384
0.000169458
0.000162901
0.000154696
0.0001391
0.000129848
0.000157971
0.000204882
0.000238255
4.67433e-05
3.18243e-05
2.68213e-05
3.01504e-05
2.93976e-05
4.75209e-05
4.62633e-05
1.99538e-05
2.16683e-05
9.92933e-06
1.2183e-05
8.8117e-06
6.91012e-06
6.02885e-06
4.87549e-06
5.36676e-06
6.50941e-06
8.35104e-06
8.38402e-06
1.8965e-05
2.56147e-05
5.06971e-05
7.38574e-05
7.82837e-05
8.10411e-05
6.20929e-05
4.49831e-05
2.52356e-05
5.89499e-05
2.06025e-05
9.49206e-06
4.79435e-06
4.33199e-06
4.6922e-06
3.69425e-06
8.24111e-06
1.24137e-05
1.56069e-05
1.79321e-05
2.2758e-05
2.92034e-05
3.12772e-05
3.13217e-05
3.34e-05
2.84099e-05
2.83001e-05
2.5275e-05
1.68682e-05
2.029e-05
1.81762e-05
1.59388e-05
1.18309e-05
4.77479e-06
7.40598e-06
3.18719e-06
2.81637e-06
1.67746e-06
9.31306e-07
1.0906e-06
0.000401033
0.000367673
0.000238817
8.12034e-05
2.57863e-05
2.11739e-05
1.88792e-05
1.75824e-05
2.06749e-05
6.38448e-06
1.47378e-05
1.64455e-05
1.76419e-05
1.54195e-05
1.42114e-05
1.04221e-05
1.32131e-05
1.30142e-05
1.12067e-05
9.65726e-06
7.87962e-06
5.22375e-06
3.24266e-06
4.01506e-06
3.42505e-06
4.57122e-06
5.25172e-06
6.87797e-06
8.13811e-06
7.72923e-06
7.17338e-06
5.64174e-06
4.91373e-06
2.05147e-06
2.50351e-06
1.93439e-06
2.0133e-06
1.71016e-06
1.40265e-06
1.77571e-06
1.40202e-06
1.63312e-06
1.27874e-06
1.29311e-06
1.28916e-06
1.26511e-06
1.31485e-06
1.34164e-06
1.54615e-06
1.42117e-06
1.77448e-06
1.79687e-06
1.80383e-06
2.43009e-06
1.31472e-06
4.99603e-06
6.60941e-06
5.05157e-06
3.86975e-06
3.98762e-06
9.07059e-06
1.62499e-06
1.80184e-06
4.66991e-06
6.82256e-06
2.88414e-05
4.51747e-05
3.38314e-05
2.56983e-05
1.39368e-05
1.21334e-05
7.94407e-06
4.74626e-06
8.0911e-06
6.50309e-06
4.44266e-06
4.32216e-06
3.06789e-06
2.45748e-06
2.21525e-06
2.24503e-06
2.82667e-06
4.1181e-06
4.02557e-06
6.20456e-06
5.58083e-06
4.65225e-06
4.66115e-06
6.93967e-06
0.000144182
9.44615e-06
1.89852e-05
8.6106e-05
8.00264e-05
1.67587e-06
8.55254e-07
1.85952e-07
1.38271e-07
1.64987e-07
2.16611e-07
2.5369e-07
2.33185e-07
2.403e-07
2.78757e-07
2.97737e-07
3.17887e-07
3.4412e-07
3.61914e-07
1.75869e-07
4.95474e-07
8.29062e-07
1.1977e-06
2.53532e-06
3.39379e-06
2.04258e-06
1.70836e-06
2.49018e-06
3.51345e-05
6.23981e-05
1.97867e-05
0.000817959
0.000753542
0.000744277
0.000811695
0.000843017
0.000834775
0.000846327
0.000838135
0.00079033
0.000779048
0.000740728
0.0005617
0.000757729
0.00101231
0.00014967
0.000144106
0.000147715
0.000175597
0.000201916
0.00022362
0.000249022
0.000290522
0.000299913
0.000298381
0.000290798
0.000271628
0.000268779
0.000280854
0.000311722
0.000343475
0.000368445
0.000392986
0.000415231
0.00042392
0.000422696
0.000416165
0.000387173
0.000343398
0.00029177
0.000247583
0.000220282
0.000215751
0.000200445
0.000218533
0.000176685
0.00017422
0.000240911
0.000269373
0.000256474
0.000179227
6.42449e-05
3.82109e-05
6.00778e-05
0.000151009
0.000237623
0.000257117
0.000203609
0.000173043
0.000188379
0.000217922
0.000258961
0.00027492
0.000284259
0.000282223
0.00027869
0.000273546
0.000265461
0.000257719
0.000246325
0.000212511
0.000169843
0.000161507
0.000213335
0.000342801
5.06058e-05
8.71856e-05
0.00013861
0.000179183
0.000183938
0.000184867
0.000169832
0.00013123
8.49025e-05
3.53001e-05
2.44896e-05
1.98361e-05
1.89858e-05
1.46029e-05
2.10266e-05
2.61491e-05
3.75585e-05
5.38608e-05
0.000102955
0.000141884
0.000174803
0.000201245
0.00022336
0.000241409
0.000225189
0.000203649
0.000187524
0.000186425
0.000221412
0.000287193
3.31929e-05
1.67328e-05
2.58406e-05
2.86962e-05
3.09732e-05
3.54155e-05
4.8622e-05
5.87849e-05
7.90553e-05
6.94615e-05
0.000138086
0.000166365
0.000185218
0.000192782
0.000193631
0.000194097
0.000178617
0.000178488
0.000162896
0.000163019
0.000159265
0.00016566
0.000168773
0.000162432
0.000144931
0.000114839
0.000113082
0.000161005
0.000237631
0.000282871
6.09171e-05
6.30923e-05
4.78359e-05
2.82252e-05
1.44553e-05
1.69249e-05
1.76282e-05
1.6283e-05
1.42767e-05
1.73124e-05
1.66124e-05
1.46542e-05
1.4358e-05
1.63004e-05
1.67924e-05
2.14231e-05
2.12639e-05
2.67353e-05
2.71446e-05
2.92773e-05
3.02012e-05
3.05248e-05
2.66332e-05
2.49278e-05
2.78725e-05
2.90919e-05
3.26117e-05
5.16146e-05
4.43325e-05
0.000126987
4.87638e-05
2.9492e-05
2.54726e-05
7.60616e-05
7.88611e-05
4.20755e-05
3.44291e-05
4.13031e-05
7.85714e-05
0.000178183
0.000224077
0.000192975
0.000176183
0.000161178
0.000148702
0.000133386
0.000129195
0.000124138
0.000125691
0.000126955
0.000142078
0.000160498
0.000172704
0.000166495
0.000160782
0.000146655
0.000129039
0.000117822
0.000132695
0.000193782
6.86608e-05
3.16226e-05
2.01182e-05
2.24295e-05
1.48069e-05
3.98222e-05
3.19378e-05
1.37245e-05
1.16837e-05
8.51157e-06
7.39688e-06
5.56066e-06
5.45612e-06
4.39508e-06
2.27357e-06
3.74492e-06
3.34329e-06
2.75578e-06
2.95173e-06
3.73644e-06
4.83308e-06
1.1238e-05
2.18574e-05
3.85451e-05
7.32334e-05
8.52571e-05
8.15207e-05
6.32865e-05
3.90835e-05
5.58191e-05
6.22926e-06
4.04768e-06
4.3489e-06
5.64365e-06
1.00263e-05
9.61802e-06
3.38785e-05
5.47277e-05
7.86357e-05
0.000117232
0.000133669
0.000148367
0.000146218
0.000152362
0.000147142
0.000134266
0.000120095
9.68268e-05
5.36067e-05
5.14921e-05
3.59827e-05
1.51279e-05
2.27657e-05
1.55613e-05
1.08604e-05
9.55199e-06
4.65716e-06
2.62454e-06
1.46324e-06
1.13029e-06
0.000360514
0.00022257
3.30303e-05
1.97564e-05
2.05805e-05
2.72135e-05
5.15389e-05
8.91769e-05
0.000129475
0.000159229
0.000146896
0.00015534
0.000138766
0.000129105
0.000121953
0.000105362
9.25309e-05
5.61639e-05
3.97008e-05
2.58684e-05
1.17227e-05
1.27939e-05
8.42704e-06
4.68035e-06
4.37519e-06
3.47661e-06
4.94986e-06
4.42079e-06
4.83517e-06
7.14058e-06
1.35292e-05
9.0962e-06
4.41778e-06
2.45902e-06
2.00603e-06
2.13012e-06
2.37143e-06
2.96935e-06
3.24061e-06
3.91084e-06
4.09829e-06
4.4902e-06
3.32621e-06
2.38346e-06
3.65996e-06
3.40102e-06
2.71893e-06
2.80503e-06
2.52946e-06
2.42374e-06
2.01118e-06
2.05447e-06
2.43902e-06
2.36582e-06
2.80202e-06
2.44419e-06
5.49412e-06
6.965e-06
7.37416e-06
5.46703e-06
3.16266e-06
2.19515e-06
5.19814e-06
1.91211e-05
4.48032e-05
2.58827e-05
1.37356e-05
7.07226e-06
1.58603e-06
5.16728e-06
4.62352e-06
3.73319e-06
2.56934e-06
2.33921e-06
2.00054e-06
1.4447e-06
9.85673e-07
1.09442e-06
1.08626e-06
3.63512e-07
5.69067e-07
5.45196e-07
7.74153e-07
1.50474e-06
1.02687e-06
3.64326e-06
4.23868e-06
4.50678e-06
5.65903e-06
0.000152644
1.33788e-05
0.000104423
6.25718e-06
6.78985e-07
3.46064e-07
1.7479e-07
1.14942e-07
1.58197e-07
2.12392e-07
2.77065e-07
2.94821e-07
3.51273e-07
2.28788e-07
2.87077e-07
3.04769e-07
4.32366e-07
3.33653e-07
2.76676e-07
2.26717e-07
1.9503e-07
3.26269e-07
4.43971e-07
3.43077e-06
6.3279e-06
1.65354e-05
4.66891e-06
2.58226e-06
7.7181e-06
0.000114264
2.11513e-05
0.000777667
0.000749657
0.000823427
0.000762435
0.000670151
0.000667407
0.000687322
0.000794778
0.000854462
0.000775722
0.000776743
0.000611092
0.00067279
0.00100542
0.000141446
0.000151418
0.000185543
0.000211529
0.000232706
0.000257163
0.000282749
0.000312118
0.000329533
0.000321419
0.000297489
0.000274265
0.00029147
0.000333581
0.000390937
0.000446037
0.000489879
0.000516706
0.000530308
0.000539858
0.000541351
0.000540056
0.000538157
0.000463321
0.000383495
0.000299665
0.000245187
0.000226437
0.000220733
0.000228093
0.000185505
0.00023657
0.000309343
0.000312613
0.000220276
5.42097e-05
3.4194e-05
4.18114e-05
0.000139766
0.00030069
0.0003145
0.000306907
0.000218883
0.000203496
0.000253409
0.000295883
0.000320552
0.000320197
0.000323128
0.000309192
0.000310911
0.000299296
0.000290071
0.000277417
0.000271884
0.000256938
0.000226607
0.000174657
0.000191873
0.000317496
5.35692e-05
0.000102442
0.000155622
0.000177852
0.000173031
0.000142615
9.29833e-05
3.10096e-05
1.66304e-05
1.05177e-05
1.10516e-05
1.28308e-05
1.45283e-05
1.56104e-05
1.32002e-05
3.06088e-05
4.05421e-05
9.96169e-05
0.000151285
0.000191554
0.000235694
0.000251035
0.000279752
0.000286581
0.00029199
0.000245653
0.000206275
0.000181584
0.000207841
0.000270489
3.38688e-05
1.53071e-05
2.34191e-05
2.39582e-05
4.12887e-05
4.99169e-05
5.38088e-05
7.04225e-05
8.09943e-05
0.000143641
0.00020206
0.000211389
0.000206403
0.000213037
0.000214015
0.000212071
0.00022115
0.000215133
0.000217636
0.000203455
0.000195055
0.00018785
0.000188492
0.000191177
0.000174884
0.000145405
0.000121902
0.000136362
0.000187733
0.000255327
4.90725e-05
4.52693e-05
3.5737e-05
1.7271e-05
1.38714e-05
1.06785e-05
9.31101e-06
1.34951e-05
1.05246e-05
9.23445e-06
1.13384e-05
9.38018e-06
1.05313e-05
1.40413e-05
2.09904e-05
2.30455e-05
2.74372e-05
2.85692e-05
3.26423e-05
3.50317e-05
3.55166e-05
3.97976e-05
4.05786e-05
3.85227e-05
2.95194e-05
3.1776e-05
3.06634e-05
4.27867e-05
6.08622e-05
9.73785e-05
4.27319e-05
3.25598e-05
2.68383e-05
2.44958e-05
1.82981e-05
1.2576e-05
1.71859e-05
4.80268e-05
0.000178166
0.000223408
0.000209897
0.000214501
0.000226018
0.000195643
0.0001534
0.000145261
0.000153374
0.00018145
0.000176102
0.000164816
0.000154718
0.000158015
0.00016907
0.000171204
0.000167062
0.000162808
0.000144917
0.000116805
0.000116515
0.000179797
3.90049e-05
1.81346e-05
1.63261e-05
3.00342e-05
2.07872e-05
2.21188e-05
1.04961e-05
8.38641e-06
9.93891e-06
1.41177e-05
6.93869e-06
6.97715e-06
1.152e-05
8.55082e-06
5.55554e-06
4.48442e-06
3.52843e-06
3.89987e-06
3.14333e-06
2.79042e-06
2.83153e-06
4.60234e-06
1.08172e-05
2.71741e-05
5.93852e-05
8.43287e-05
9.17406e-05
7.6885e-05
4.52647e-05
4.88823e-05
4.83147e-06
3.66095e-06
3.30512e-06
1.89096e-05
4.67256e-05
9.17742e-05
0.000160155
0.000197612
0.000224361
0.000239444
0.000230581
0.000232897
0.000221717
0.000227432
0.000219168
0.000230596
0.00022456
0.000204799
0.000180974
0.000126093
5.68173e-05
5.42472e-05
2.72833e-05
2.78072e-05
2.1384e-05
9.95585e-06
9.20148e-06
2.04203e-06
1.43491e-06
1.28586e-06
0.000262998
4.30775e-05
1.57794e-05
2.79953e-05
7.83216e-05
0.000176683
0.000224334
0.00022493
0.000219637
0.000211842
0.000200095
0.000184681
0.000180091
0.000169834
0.000164693
0.000162126
0.000156823
0.000147645
0.000121832
9.26042e-05
4.08394e-05
2.64029e-05
1.56773e-05
1.05683e-05
6.26215e-06
5.98004e-06
5.17864e-06
3.9429e-06
4.11787e-06
6.24927e-06
1.30691e-05
6.59356e-06
2.42129e-06
1.68686e-06
2.37988e-06
2.23522e-06
5.33244e-06
6.57956e-06
1.01968e-05
1.06722e-05
1.76796e-05
2.47412e-05
2.77068e-05
2.73548e-05
2.43468e-05
1.85753e-05
1.11365e-05
8.26599e-06
5.59453e-06
4.45134e-06
4.49969e-06
4.39353e-06
3.66835e-06
2.77962e-06
2.8633e-06
2.38968e-06
4.76415e-06
6.82844e-06
4.06289e-06
7.03114e-06
2.18453e-06
2.98492e-06
1.51538e-05
4.68515e-05
3.13477e-05
1.176e-05
6.45236e-06
4.4982e-06
4.33817e-06
3.0892e-06
3.01704e-06
2.22918e-06
2.44017e-06
1.82479e-06
1.05068e-06
1.10166e-06
9.22325e-07
1.04257e-06
1.83724e-06
2.48158e-06
3.69318e-06
2.71028e-06
2.10342e-06
8.3467e-07
1.04512e-06
1.62481e-06
2.24473e-06
2.5444e-06
5.10835e-06
6.17247e-05
2.35632e-05
5.51866e-07
6.9e-07
1.82079e-07
1.58224e-07
9.71809e-08
1.51456e-07
2.09095e-07
2.54141e-07
1.62969e-07
4.5946e-07
7.77723e-07
6.25438e-07
9.27631e-07
9.46043e-07
9.10461e-07
7.53753e-07
2.82075e-07
3.43629e-07
2.06801e-07
1.37586e-07
2.3898e-07
5.68579e-07
3.61177e-06
2.91966e-05
7.95527e-06
3.24291e-06
6.12456e-06
0.000147099
2.29146e-05
0.000752397
0.000792612
0.000750388
0.000592876
0.000589989
0.000662949
0.00071258
0.000786053
0.00085352
0.000790981
0.000763958
0.000680721
0.00068261
0.00100166
0.000142576
0.000178715
0.000210387
0.000229562
0.00023581
0.000235547
0.000237502
0.000277418
0.000329828
0.000321324
0.000288702
0.000281404
0.000325516
0.000400607
0.000478353
0.000539471
0.000577663
0.000587499
0.000591368
0.000584437
0.000586908
0.000591958
0.000609741
0.000579196
0.000493066
0.000362387
0.000274094
0.00024274
0.000238652
0.000253434
0.000188162
0.000276697
0.000312099
0.000291291
0.000134995
4.19514e-05
2.25484e-05
5.09103e-05
0.000209302
0.000302068
0.000271175
0.000308239
0.000206627
0.000253375
0.000311789
0.000338886
0.000346082
0.000332626
0.000323375
0.000308975
0.000298096
0.00029512
0.00028824
0.000292836
0.000276272
0.000269991
0.000252075
0.000200271
0.000187534
0.000301206
5.76348e-05
0.000109912
0.000152842
0.000152776
0.000114701
5.91626e-05
2.13948e-05
8.95538e-06
6.81178e-06
7.74323e-06
1.31489e-05
1.77221e-05
1.91644e-05
1.63332e-05
2.84885e-05
4.09179e-05
0.000103705
0.000154415
0.000192355
0.000231142
0.000242301
0.000263495
0.000291451
0.000299788
0.00030837
0.00029474
0.000227491
0.000183343
0.000192535
0.000258558
3.23125e-05
2.69378e-05
1.46389e-05
4.24575e-05
6.56835e-05
6.19771e-05
6.53265e-05
8.32894e-05
0.00012964
0.000175377
0.000187569
0.000172401
0.000165642
0.000168772
0.000166041
0.000189652
0.000193983
0.000213284
0.000218904
0.000219446
0.000214904
0.000206961
0.000201964
0.000201685
0.000193468
0.000165363
0.000135604
0.000127786
0.000160437
0.000231092
4.14999e-05
3.60027e-05
3.00139e-05
1.47424e-05
2.00223e-05
1.85086e-05
1.77468e-05
9.27425e-06
1.12729e-05
1.31133e-05
5.21048e-06
1.43563e-05
1.33103e-05
1.04855e-05
1.61257e-05
2.19699e-05
2.52098e-05
2.63732e-05
3.2548e-05
3.55005e-05
3.75499e-05
4.58515e-05
4.49923e-05
4.12415e-05
3.7555e-05
3.15469e-05
2.7944e-05
4.03421e-05
5.11067e-05
7.76718e-05
3.92808e-05
3.52758e-05
3.56046e-05
1.72615e-05
1.00863e-05
9.36644e-06
1.56037e-05
0.000141447
0.000227889
0.000216607
0.000229928
7.00186e-05
3.8013e-05
2.33144e-05
2.01515e-05
2.73362e-05
4.15516e-05
3.40165e-05
8.06769e-05
0.000122439
0.000171097
0.000172683
0.000163823
0.000165588
0.000168458
0.000170339
0.000160889
0.0001209
0.000113257
0.000177242
2.86849e-05
1.17471e-05
1.45882e-05
2.50035e-05
1.6884e-05
1.0984e-05
9.20543e-06
5.97996e-06
2.89217e-05
3.68026e-05
2.55035e-05
6.51456e-06
7.80451e-06
4.43377e-06
2.3523e-06
2.06055e-06
2.38078e-06
2.72361e-06
3.78636e-06
3.3572e-06
2.82346e-06
3.7959e-06
5.30949e-06
1.51589e-05
4.75917e-05
8.06273e-05
9.56286e-05
8.64605e-05
5.18942e-05
5.92603e-05
4.56681e-06
5.54926e-06
2.34808e-05
6.324e-05
0.000177414
0.000229228
0.000251682
0.000252709
0.000247244
0.00024674
0.000237656
0.000236824
0.00022497
0.000229713
0.000226012
0.000231817
0.000243598
0.000243027
0.000249472
0.000216895
0.000152728
7.99348e-05
6.21556e-05
3.33837e-05
2.96219e-05
2.11593e-05
5.67249e-06
4.43044e-06
1.77176e-06
1.35477e-06
0.000111112
1.94564e-05
3.93041e-05
0.00014016
0.000217296
0.000223819
0.00021574
0.0002127
0.000201918
0.00017002
0.000151518
0.000120283
0.000119079
0.000113611
0.000116082
0.00011961
0.000131498
0.000137657
0.000144641
0.000139509
0.000117155
6.25056e-05
3.14252e-05
1.32897e-05
1.26008e-05
9.16895e-06
6.93089e-06
4.70551e-06
5.13324e-06
7.10465e-06
1.12466e-05
2.90062e-06
1.23422e-06
2.94967e-06
4.07911e-06
5.20283e-06
1.36802e-05
2.28229e-05
3.81081e-05
8.06338e-05
0.000111743
0.000139758
0.000158778
0.000165264
0.000164076
0.000126444
8.5705e-05
3.69581e-05
1.98031e-05
9.3064e-06
8.50508e-06
7.37358e-06
5.09823e-06
1.48549e-06
5.06572e-06
3.76003e-06
5.13915e-06
7.44538e-06
4.48835e-06
9.0344e-06
2.60449e-06
8.35926e-06
2.8573e-05
1.47959e-05
1.3322e-05
6.98907e-06
5.19647e-06
5.37569e-06
6.25309e-06
5.11941e-06
4.13986e-06
2.70068e-06
2.65363e-06
1.32539e-06
1.14828e-06
9.84597e-07
1.12075e-06
1.05238e-06
7.99555e-06
1.02554e-05
8.08507e-05
5.34981e-05
4.92611e-06
2.70436e-06
1.46625e-06
1.16212e-06
2.01942e-06
1.59902e-06
4.33006e-06
2.83795e-05
5.22025e-05
1.66653e-06
2.05701e-07
1.11584e-07
1.04458e-07
1.36314e-07
1.9742e-07
3.03023e-07
2.38141e-07
7.04459e-07
1.20793e-06
1.81725e-06
3.04589e-06
3.80703e-06
2.63469e-06
1.20125e-06
1.33802e-06
9.87311e-07
5.71606e-07
3.97145e-07
2.49463e-07
1.86322e-07
2.21459e-07
1.01843e-06
2.46544e-05
1.28882e-05
5.6846e-06
8.17164e-06
0.000156657
2.28962e-05
0.000756855
0.000815928
0.000616689
0.0005406
0.000680824
0.000845622
0.000920489
0.000899466
0.000844712
0.000763217
0.00074728
0.000709841
0.000693141
0.000992768
0.00015764
0.000205312
0.000229719
0.000228488
0.000203674
0.000182885
0.000182753
0.000221505
0.000321294
0.000320278
0.000285825
0.000306385
0.000380475
0.000470028
0.000544236
0.00059424
0.000623043
0.000652314
0.000655128
0.000645323
0.00060882
0.000627866
0.000620302
0.000639544
0.000575779
0.000430537
0.000308606
0.00025228
0.000261254
0.000276042
0.00018889
0.000265201
0.000303776
0.000236983
5.48193e-05
2.3989e-05
2.61523e-05
4.79722e-05
0.000230331
0.00026306
0.000244204
0.000310593
0.00020336
0.000302345
0.000346687
0.000352034
0.000341469
0.000309161
0.000289609
0.000267452
0.000267775
0.000270182
0.000278413
0.00027785
0.000276746
0.000267827
0.000256272
0.00021573
0.000187554
0.000310303
5.92883e-05
0.000111358
0.000134351
0.000105163
4.3263e-05
1.65339e-05
7.08245e-06
4.07841e-06
4.31312e-06
1.01996e-05
2.23707e-05
3.76224e-05
2.92784e-05
2.69453e-05
2.71564e-05
9.20381e-05
0.000143143
0.000185734
0.000207359
0.000230282
0.000252564
0.000273415
0.00029433
0.00030887
0.000321328
0.000298047
0.000238722
0.000180971
0.0001875
0.000250946
3.46541e-05
2.83675e-05
2.40291e-05
6.45174e-05
8.93671e-05
4.20136e-05
7.24419e-05
7.64076e-05
0.000155615
0.000163696
0.000149553
0.000148808
0.000136518
0.000133557
0.000158374
0.000172842
0.00019427
0.000208692
0.000237016
0.000246436
0.00023655
0.000223372
0.000208158
0.000207345
0.000198038
0.000180956
0.000154246
0.000137415
0.000156729
0.000223069
3.7878e-05
2.62347e-05
2.50465e-05
9.03347e-06
1.72075e-05
1.62393e-05
1.59144e-05
1.92906e-05
1.51926e-05
1.99517e-05
1.40004e-05
1.13714e-05
1.10481e-05
1.13772e-05
1.25385e-05
1.87138e-05
2.41887e-05
2.5712e-05
3.15365e-05
3.48547e-05
4.45836e-05
3.98826e-05
4.58773e-05
4.39111e-05
3.9696e-05
3.0647e-05
2.89994e-05
4.05298e-05
5.3108e-05
6.74289e-05
3.87617e-05
3.0514e-05
1.58898e-05
9.23148e-06
4.91098e-06
1.09738e-05
4.32591e-05
0.000199031
0.000225858
0.000177473
4.65372e-05
2.14591e-05
1.39681e-05
1.16307e-05
1.19627e-05
1.14498e-05
2.2814e-05
3.73268e-05
5.38228e-05
6.03471e-05
0.000103995
0.000161355
0.000172546
0.000166299
0.000173357
0.000180452
0.000164023
0.000124471
0.000113933
0.000183245
2.12479e-05
1.40358e-05
1.5547e-05
1.73958e-05
1.13816e-05
9.5971e-06
1.15962e-05
1.71718e-05
4.16165e-05
2.69393e-05
1.63581e-05
9.42218e-06
4.664e-06
4.82661e-06
3.65971e-06
3.25465e-06
3.36923e-06
3.69341e-06
3.84206e-06
3.98833e-06
3.28488e-06
3.82759e-06
7.19876e-06
1.98975e-05
4.99004e-05
8.69253e-05
9.46315e-05
8.70663e-05
5.07141e-05
6.59065e-05
5.07068e-06
1.3522e-05
7.13439e-05
0.000217324
0.000257681
0.000257367
0.000258422
0.000258626
0.000246626
0.000216666
0.00018402
0.000185029
0.000176778
0.000209347
0.00021121
0.00022477
0.000237939
0.000252161
0.000258148
0.000261715
0.000208565
0.000129737
7.63495e-05
4.92789e-05
2.60457e-05
2.46941e-05
9.87182e-06
4.27317e-06
1.60792e-06
1.39845e-06
5.2549e-05
2.75612e-05
0.000137518
0.000183587
0.000207203
0.000202471
0.000188201
0.000159541
0.000143251
0.000117473
0.000109826
0.000111398
0.00011237
0.000114898
0.000107569
0.000103275
0.000101961
0.000109724
0.000119929
0.000142465
0.00014406
0.000121708
6.48712e-05
3.62187e-05
1.51755e-05
1.37377e-05
1.11235e-05
7.72338e-06
5.84288e-06
7.51842e-06
4.5697e-06
1.67446e-06
2.57796e-06
3.95901e-06
6.05743e-06
1.44225e-05
2.78965e-05
5.90474e-05
0.000111078
0.000154231
0.000175559
0.000176427
0.00018767
0.000182449
0.000182362
0.000184016
0.000181351
0.000157571
8.97368e-05
2.34986e-05
1.66352e-05
6.30186e-06
1.05478e-05
9.21615e-06
5.75047e-06
3.28458e-06
6.2367e-06
7.18278e-06
5.40652e-06
8.93053e-06
2.24344e-06
1.77655e-05
4.2916e-05
1.47072e-05
8.86827e-06
7.01705e-06
7.65363e-06
8.49304e-06
1.03834e-05
8.41059e-06
6.84865e-06
4.2532e-06
3.33331e-06
1.63277e-06
1.06242e-06
9.5932e-07
1.0631e-06
3.87508e-06
5.82644e-05
0.00018183
0.00019535
0.000193537
0.000109535
1.00303e-05
2.25727e-06
1.36444e-06
1.81046e-06
1.28646e-06
4.40775e-06
2.32302e-05
9.50324e-05
9.58805e-07
2.05808e-07
1.14014e-07
1.238e-07
1.73675e-07
2.67861e-07
2.0055e-07
7.62864e-07
1.70604e-06
3.92506e-06
6.23322e-06
4.98321e-06
9.10502e-06
9.82666e-06
4.1717e-06
2.37699e-06
1.28266e-06
8.93911e-07
4.19618e-07
3.14499e-07
1.96307e-07
5.22006e-08
3.08449e-07
9.62509e-06
2.18077e-05
1.18124e-05
2.51934e-05
0.000112458
1.97405e-05
0.000740875
0.000780773
0.00054435
0.000583714
0.000849928
0.00103723
0.000991695
0.000867885
0.000762611
0.000714089
0.00073662
0.000717932
0.000700423
0.000977812
0.00017074
0.000223272
0.000222045
0.000192859
0.00015415
0.000137095
0.000147887
0.000194112
0.000324449
0.000315865
0.000290219
0.000325023
0.000419625
0.000511469
0.000576502
0.000624767
0.000680813
0.000697426
0.00071677
0.000702481
0.000662704
0.000634695
0.000655784
0.000654385
0.000617391
0.00048383
0.000327297
0.000268255
0.000271711
0.000307224
0.000189394
0.000233216
0.00027197
0.000184007
6.43619e-05
2.73792e-05
2.07493e-05
3.51102e-05
0.000245936
0.000241379
0.000237938
0.000295939
0.000221086
0.000327038
0.000362923
0.000343044
0.000311034
0.000250399
0.000219785
0.000196289
0.000201926
0.000219626
0.000245736
0.000263828
0.000269907
0.000263176
0.000254706
0.000210431
0.00019686
0.000325616
6.22851e-05
0.000106808
0.000107321
5.13898e-05
1.75116e-05
6.9284e-06
3.69817e-06
3.40503e-06
4.38603e-06
1.38213e-05
4.91512e-05
5.73191e-05
3.52491e-05
3.43091e-05
7.40065e-05
0.000125942
0.000170539
0.000181192
0.000188534
0.000215356
0.000244995
0.000288613
0.000290137
0.00031798
0.000320787
0.000299083
0.000215844
0.000175014
0.000191142
0.000256156
3.66686e-05
1.6866e-05
5.60916e-05
0.000117223
0.000112074
5.57633e-05
8.04437e-05
9.71336e-05
0.000158822
0.000151219
0.000144504
0.000151663
0.000151161
0.000182241
0.00018541
0.000194918
0.000212075
0.000236383
0.000234483
0.00023701
0.000237188
0.000234382
0.000220129
0.000207611
0.000206923
0.00019635
0.000167484
0.000151892
0.00015739
0.000224634
3.61414e-05
1.62646e-05
2.03971e-05
1.89088e-05
1.40352e-05
1.17492e-05
1.11364e-05
1.31431e-05
1.08466e-05
2.60722e-05
2.17393e-05
1.24279e-05
8.40445e-06
9.0317e-06
1.05454e-05
1.77452e-05
2.31689e-05
2.83335e-05
3.43698e-05
3.84356e-05
3.88737e-05
3.98237e-05
3.72224e-05
4.43911e-05
3.68647e-05
3.19193e-05
3.32582e-05
3.90184e-05
5.01821e-05
6.89893e-05
3.74754e-05
2.36283e-05
1.03683e-05
3.80419e-06
5.85543e-06
6.3803e-06
3.56234e-05
0.000131318
0.000166732
5.28676e-05
2.30964e-05
1.14008e-05
7.52442e-06
6.82142e-06
7.29578e-06
8.65996e-06
8.92353e-06
1.71737e-05
5.01018e-05
4.57744e-05
5.21391e-05
0.00010683
0.000168933
0.000182039
0.000194533
0.000192978
0.000163139
0.000126091
0.0001219
0.000190201
1.42265e-05
1.3913e-05
1.20809e-05
8.93275e-06
1.03956e-05
1.09818e-05
2.60452e-05
3.71946e-05
4.02583e-05
1.39331e-05
1.42278e-05