/*--------------------------------*- C++ -*----------------------------------*\
| =========                 |                                                 |
| \\      /  F ield         | OpenFOAM: The Open Source CFD Toolbox           |
|  \\    /   O peration     | Version:  2.1.1                                 |
|   \\  /    A nd           | Web:      www.OpenFOAM.org                      |
|    \\/     M anipulation  |                                                 |
\*---------------------------------------------------------------------------*/
FoamFile
{
    version     2.0;
    format      ascii;
    class       volScalarField;
    location    "0.004900000";
    object      omegaC_burn;
}
// * * * * * * * * * * * * * * * * * * * * * * * * * * * * * * * * * * * * * //

dimensions      [1 -3 -1 0 0 0 0];

internalField   nonuniform List<scalar> 
12384
(
126657
243094
280310
309102
325428
330331
318583
294542
264614
235198
201122
163353
120586
78710.5
236140
334637
405856
459254
486958
515187
529568
552156
568612
588235
608963
630817
653592
673084
688099
697162
699044
700036
690746
683370
681725
667480
667569
634275
583646
488996
347640
245362
202256
161830
524372
625093
667458
694624
703336
716277
729168
758487
784127
806323
812489
816041
823446
843733
881209
925573
970763
999377
1.03236e+06
1.01511e+06
1.02625e+06
979789
945861
901630
829946
725652
574828
387116
245142
171443
427248
542906
612360
648692
672521
661606
659106
635973
638933
613858
631694
621024
642064
625560
616078
604276
608192
716655
575657
807810
632013
860768
1.08715e+06
1.24754e+06
1.25623e+06
1.23184e+06
1.08842e+06
770577
441415
335897
682869
827982
911956
969585
1.02153e+06
1.07386e+06
1.11984e+06
1.16974e+06
1.20595e+06
1.25398e+06
1.28154e+06
1.33838e+06
1.30061e+06
1.36187e+06
1.1849e+06
1.25854e+06
1.00769e+06
1.10325e+06
1.00876e+06
1.07188e+06
1.0822e+06
1.13123e+06
1.14781e+06
1.12741e+06
1.05747e+06
908557
603134
345752
303436
314572
393763
491549
573559
624879
651924
673488
699965
739603
763731
784725
807922
846476
911800
984200
1.05727e+06
1.14102e+06
1.20701e+06
1.27819e+06
1.31456e+06
1.33198e+06
1.30222e+06
1.2425e+06
1.18171e+06
1.16605e+06
1.11155e+06
1.05434e+06
968144
866407
686907
549428
377637
450470
521008
584347
634225
683919
749072
797085
817514
819486
809165
795517
774880
751715
718213
698530
684360
676950
692792
700173
717947
738625
784283
786706
830115
859792
868765
851136
704125
504962
316644
391896
566953
737486
863264
942733
991909
1.02063e+06
1.03864e+06
1.05475e+06
1.08095e+06
1.10954e+06
1.13605e+06
1.14571e+06
1.13309e+06
1.10693e+06
1.09248e+06
1.07921e+06
1.03837e+06
1.02673e+06
970969
949158
898767
878660
840665
826074
797851
757006
676517
567296
276834
306494
537642
748325
833501
874038
920800
971789
1.00543e+06
1.05696e+06
1.05476e+06
1.06396e+06
994087
1.03259e+06
1.02081e+06
1.09264e+06
1.02945e+06
1.13511e+06
1.12147e+06
1.09917e+06
1.07124e+06
1.01134e+06
945429
877425
793677
696666
584341
463674
340015
237845
416116
491994
644287
756840
835584
892247
940887
1.01336e+06
1.08851e+06
1.13941e+06
1.21575e+06
1.24351e+06
1.12067e+06
1.04949e+06
1.12791e+06
1.0682e+06
1.03996e+06
1.15027e+06
1.16355e+06
1.19136e+06
1.20096e+06
1.17866e+06
1.13822e+06
1.07703e+06
1.00702e+06
897013
816644
757433
711870
716896
529943
678370
785825
845359
885427
922086
977512
1.05515e+06
1.12232e+06
1.19718e+06
1.20554e+06
1.13808e+06
1.04954e+06
1.07483e+06
891871
947268
973746
962432
1.1323e+06
1.19002e+06
1.2783e+06
1.32955e+06
1.34084e+06
1.30759e+06
1.2339e+06
1.09127e+06
943083
841489
778202
812585
382562
597544
703750
828593
952333
1.02422e+06
1.06093e+06
1.04627e+06
1.03884e+06
1.00247e+06
980920
979115
964786
971260
990197
1.01917e+06
1.05058e+06
1.07836e+06
1.10271e+06
1.11546e+06
1.12504e+06
1.12273e+06
1.14025e+06
1.14663e+06
1.14916e+06
1.083e+06
918640
647713
351829
84991.9
60978.3
90067.9
118850
130826
184000
322304
410636
441111
554863
660795
739698
795498
845811
897984
964717
980507
952472
898319
808971
685993
512700
291816
118069
76537.9
66134.9
58821.4
50128.1
39445.4
27678.8
23175.6
200739
243663
269545
298636
327286
352130
370869
381263
383479
372028
339912
287813
230111
198710
252120
228968
262472
282897
295344
310052
316078
326104
345018
375666
408137
423772
403746
355400
302822
259375
226544
199101
187945
175968
160041
165719
176209
158234
201007
235348
420086
414486
256366
234425
513547
334404
341864
366369
410628
471326
534780
573550
578625
559608
535008
522903
533300
569852
620664
647507
623477
492384
390576
239633
197619
135007
154335
179475
274057
423122
568296
619331
464643
339895
459352
411090
370449
269686
194302
142875
133447
127788
159210
200600
258047
299329
336824
387878
355829
284538
176457
89974.7
49953.3
36527.6
18326.7
30901.8
51730.3
117377
186458
273366
383088
660224
785711
642726
678591
674153
717679
753283
781875
808118
825644
847619
871762
903438
878809
825735
628603
469088
245458
171209
99736.4
67617.9
72286.2
79957.1
119112
178453
253385
336057
415161
478270
543617
583262
385789
408973
514395
500673
622293
716665
777728
808086
808984
785847
752153
725511
709692
723288
766119
836492
920702
1.00108e+06
1.03843e+06
1.02695e+06
956157
878142
777629
725678
785350
906722
1.06112e+06
1.26645e+06
1.24839e+06
1.01961e+06
705252
765319
472075
398446
486064
550446
556972
433312
418295
435727
463716
458589
383139
246681
110432
46897.8
18338.8
7237.61
3481.66
1847.18
1422.75
1530.4
2268.39
4084.78
7441.95
12262
20333.7
32878.4
56061.5
109446
476536
817123
594595
489345
549396
580675
595249
606828
628590
680280
782958
910951
995758
948056
770041
520696
334483
240967
188047
197761
216232
383007
462450
737505
807030
971347
965059
899378
784782
674985
567259
734825
608720
442778
473886
522365
590704
639764
604836
524090
325188
200131
94349.2
63720.4
25737.9
22948.8
16453.7
25219.4
52182.6
99101.8
147039
394974
553411
746365
886817
855559
762344
654884
561766
484638
417781
526247
661460
390003
422288
493401
591289
735243
878526
831201
709157
373925
119636
98522.7
28530.1
8028.44
13581.7
6824.92
11714.7
23918.7
43146.8
73789
126149
186849
276145
358481
477212
635777
596918
491501
477944
822032
775462
437667
461221
533377
654622
786812
762981
550383
304794
174135
43466.8
28533.1
6187.69
3497.17
1637
1393.43
1895.66
2598.44
9959.3
19902.9
58313.6
135887
282728
527334
763604
811298
737925
592719
534319
915014
804106
446078
510018
650180
733831
549731
380364
363937
437124
567970
574906
629966
635408
632879
634990
656136
684588
692747
663507
588419
483252
402192
324755
295150
333944
470865
674663
836950
727606
503109
129168
146527
264317
413118
484553
572951
629466
719741
770223
760165
727118
713218
690626
722060
758127
804367
835354
830550
789914
719617
620595
439445
154117
67869.5
50675.2
43193.4
38110.2
32921.9
21271.9
27872.4
256874
277755
295926
314988
330566
343092
353483
361831
368542
369252
359606
324041
272082
255706
305151
265424
286010
311937
329206
343291
348993
359755
382245
415286
441869
450797
447645
448628
462429
479697
494591
501711
510879
510734
501815
497939
464881
403389
312938
269501
308183
457624
349268
290614
542368
335030
345879
381456
440149
512221
561845
576376
565171
543002
538167
566452
610053
646131
642158
577061
498553
389544
337468
239711
186209
153491
123103
128621
154648
230044
379431
562584
582928
481979
497050
381656
285193
189747
143309
119480
130020
158241
219061
282485
386030
460655
522381
469156
388701
223054
118494
59234.9
24394.8
21232.2
16011.2
31153.5
50851.1
126228
179715
296029
352488
469861
747926
911181
685495
674382
684101
731829
787910
842158
882885
908331
931292
906721
818373
758011
499441
396379
235993
207808
109534
123229
93672.4
115188
151218
212113
299912
355038
383231
375197
393257
482840
557821
535188
594539
568466
667290
741813
791588
818061
829316
835141
846397
856793
868436
879895
893853
919677
936989
978130
987317
1.03214e+06
1.00016e+06
1.02309e+06
966400
1.00171e+06
941850
1.05828e+06
1.06431e+06
1.1945e+06
1.24407e+06
1.1379e+06
863272
897553
538924
467305
554719
565829
537575
605484
629119
633248
637528
601307
492181
351515
215392
113671
52073.4
13093.1
6549.34
3828.89
2689.1
2829.23
4474.78
9599.09
21087.9
35479.1
49307.1
60262.3
71427.3
91881.3
219160
910219
791894
557139
596473
614146
627568
644926
697028
799031
929062
1.01364e+06
996475
874948
695149
478505
348303
226245
181175
192305
185681
378658
426161
738781
855588
977354
964214
917715
810249
706502
608932
808330
784811
489281
523047
578801
659584
733933
651202
476935
275189
153315
57758
41585.6
12378.3
14465
10955.6
14384.1
17117.2
77757.6
90027.8
255997
481235
611827
798678
887328
844775
750088
642579
545524
462220
589371
751403
438055
489019
568965
706812
859436
834425
532254
270704
145057
21168.3
15033.7
5547.71
643.402
1463.12
621.102
1722.86
4516.22
14146.6
32841.2
64332.1
113334
162519
212856
262953
394032
562136
568847
510416
902167
855459
465501
494415
597939
753601
824698
701230
462724
248934
99429.8
24009.3
15280.8
1624.33
1556.72
824.803
753.567
824.097
983.576
5852.5
10653.5
30532.5
63025.6
131312
255259
439165
692872
788009
731526
613378
989035
847232
509689
650764
713280
465098
465754
596795
746960
726582
753154
722063
733311
725072
718843
713726
709580
712488
723043
735503
736772
725618
692331
682220
643557
633286
591846
657180
789268
789089
746526
189783
248073
403163
462912
545154
648031
722126
737846
707567
688186
692441
694916
729091
747488
785837
809249
833647
833295
811409
759916
681972
573952
306040
104742
68591.3
51357
41472.4
36373.5
25253.2
31148.3
299023
306069
319825
328110
327745
326060
327170
334283
345157
356684
365078
354314
313083
300441
366797
300097
329068
357167
371548
379814
380515
402746
436933
466437
468373
451989
469197
507794
550253
585753
613154
633006
641235
650555
647667
654352
659009
606436
531547
374489
311733
411932
435025
343174
577469
356791
379646
435581
511481
566006
583048
565404
538553
523579
543569
578393
640651
631678
565648
491790
478116
408598
392318
321903
305344
242959
212393
166274
156003
167843
254622
440450
616401
569574
549969
304976
212161
155958
138463
147367
192904
259680
328049
410588
496011
526068
489614
411386
215530
102376
32124.1
15077.2
13453.8
11440.3
21569.8
32676.6
72137
113810
210978
288483
362535
390422
629481
1.05558e+06
718962
716903
673717
720352
799135
867171
913024
931874
901954
798773
635080
501444
284695
263147
237480
149340
196808
141524
183938
186486
220933
278041
337400
396449
399362
370171
310893
370745
551085
674899
664650
647680
716580
765980
796026
811826
832362
865376
905847
943946
963094
964939
970304
961985
969489
957472
977695
970461
1.0027e+06
1.01038e+06
1.05238e+06
1.05056e+06
1.0972e+06
1.08738e+06
1.13682e+06
1.16627e+06
1.22158e+06
1.17897e+06
965269
976358
604112
551851
599805
616266
642110
629373
647653
682822
603243
439631
343714
361227
426542
446659
422396
321632
204687
93626.5
20343.6
9052.78
9111.74
15942.7
35588
67187.9
93297.9
103473
103600
98449.4
107142
953627
927298
609774
630956
647343
668621
707314
793094
928631
1.02848e+06
1.02642e+06
971228
853670
725768
565282
428725
294882
288615
269926
241606
370117
490937
697242
881226
1.00412e+06
973107
908829
808818
714379
636789
847628
890975
542971
578599
655444
736606
698530
511066
275393
136314
102171
45057.9
40996.2
14497.2
14537.8
6917.22
10522.7
10002.7
31519
82298.4
158928
326416
601263
734374
878242
891036
799934
692185
593124
507120
636576
823628
502904
555024
678751
808977
611399
343583
161379
87399.6
46048.7
25935.4
4249.64
5710.37
690.702
898.091
345.274
565.636
754.5
2106.63
10338
26700.7
60037.9
106891
159138
195576
272824
378959
560992
556442
941947
902582
503068
544629
695712
838327
779018
537859
302096
90816.9
29228.7
4754.22
1919.28
963.905
643.767
519.697
544.387
697.516
1011.62
2406.59
5396.14
17121.6
49514.1
92502.8
135488
273233
529783
740822
813988
723332
1.08493e+06
895990
653583
749711
448489
507586
789939
827422
879279
803728
762700
738331
700307
706693
698179
705054
719367
726841
725622
735804
733773
715123
722190
735057
736022
762480
729448
725125
770383
810827
824171
272509
376985
427678
511365
621146
710993
729542
695392
692162
716649
749643
796328
818194
874474
902090
915580
892987
878857
846472
804318
736177
620224
417925
149689
87390.3
60047.8
46453.2
40546.7
30105.7
34171.3
324912
323611
335004
332027
322183
307637
298441
301479
316943
341541
367573
378788
353471
340430
429070
326594
363973
391255
403475
395757
403950
446019
485861
496437
461826
454038
500448
549193
576740
594475
608530
619613
629141
635586
642192
651327
663129
666891
649655
516025
344301
381373
480767
394772
607786
388554
421203
488554
553751
580589
565092
528851
507307
513981
500915
539009
619772
559028
491736
476361
490447
466317
468490
440398
405785
378705
319412
282821
211775
170097
197324
334870
589711
608497
595052
204829
157939
148385
175806
233173
310709
363966
442202
453650
502476
489550
431521
245768
98054
20380.9
8739.66
5715.88
6941.47
21573.4
33155.8
67530.4
126339
163504
251533
320578
356601
361853
507202
1.13531e+06
773101
784562
676602
712950
803784
864769
918512
906412
749820
593432
349637
247539
202646
284750
193818
333584
262624
319037
259978
277013
296378
346085
410539
447535
448673
376047
285318
266618
424640
765119
731414
724677
760956
784280
786920
784220
806637
860706
927927
970800
981864
985559
953208
954933
915965
926484
886995
944122
958075
917040
868512
884084
942578
1.00672e+06
1.09082e+06
1.15255e+06
1.18047e+06
1.18791e+06
1.02337e+06
1.01259e+06
673315
624974
647310
663167
634122
639570
700801
605023
393897
341434
507249
750551
838553
867737
844806
774648
612070
464399
368247
143499
33055.1
20080.4
33381.2
69877.9
119409
140660
130171
99148.5
77084.3
956814
1.01906e+06
660653
668678
680845
706160
772857
903485
1.00285e+06
1.01688e+06
988094
906150
844849
763342
651801
614471
480757
454880
464494
387412
509952
557109
790011
865533
1.00473e+06
955647
884766
787348
713350
660227
874645
960496
591096
631570
722751
693434
466408
305888
254020
174635
198247
138812
163800
80869.5
68566.7
32854.8
25730.5
24761.4
29714.6
65728.8
164631
256140
499591
748830
838961
887861
822155
712489
617299
541055
668479
881532
552586
634817
760715
483211
268632
144377
120541
114063
56897.6
40908.8
13275.1
10814.5
6083.38
4068.21
2597.65
1683.97
1801.24
1605.81
3789.69
12872.4
36564.9
58759.5
120426
177819
199736
338318
530995
599687
996289
936477
521495
609818
804243
821879
588322
336167
140938
22562.7
11502.8
1946.31
894.282
445.161
257.631
176.81
223.152
364.678
709.685
1425.52
2553.76
16183
42452.3
55381.5
118040
225244
331331
578628
838200
814050
1.17051e+06
991311
802453
488861
445162
773838
944131
910119
880073
786633
749291
689661
654224
608959
613607
607171
627597
664332
675153
576482
435523
396640
491547
676835
729312
768502
761973
760844
770193
810023
820325
379107
419439
460032
570194
684857
730251
707093
693997
725563
784936
856404
933953
1.00408e+06
991907
998181
989131
969254
923684
887731
843810
786346
683164
493714
194274
104974
68207.2
51655.1
45226
35110.2
36944.9
343838
336038
342638
336845
320357
292814
268310
267742
290374
328265
368482
401097
389931
377526
486006
360488
408185
428172
419224
400369
427291
483226
520151
507492
450423
479490
540411
567652
573888
572487
561412
552992
545813
555311
567931
597080
615921
655405
670780
617966
402930
349940
502484
434745
641525
422697
455843
516261
566696
562055
523954
477341
493112
493416
432880
508985
590966
480155
481227
497976
528624
486519
505097
472712
478318
470648
450576
368399
264669
184207
168047
275208
545311
597613
643474
123800
125085
165273
250053
342686
396914
417682
439259
460609
452683
431646
315470
133497
20814.4
5904.58
2978.29
5913.59
13887.6
45019.3
107911
196079
245884
286964
338117
324342
360085
306662
433137
1.16429e+06
840707
858582
692579
716718
805289
865646
896471
828960
562712
354892
163083
233278
269274
302122
490051
578497
584927
542816
568814
532092
481342
441171
460988
490754
452341
381270
275600
225135
338349
825338
790596
802542
809513
800894
767332
735568
749376
824749
925855
968182
976292
946617
928026
854970
836478
734284
784643
886621
953964
824789
680760
613378
724147
871859
1.01162e+06
1.10878e+06
1.16548e+06
1.164e+06
1.06062e+06
1.00446e+06
753368
680122
700106
670941
633942
672135
706504
475716
368978
546553
810248
900673
938388
941163
918436
850358
747734
602805
472776
468097
269276
75037
30418
60185.3
171350
231357
139285
90310.6
55881.1
957396
1.09645e+06
711896
707847
721439
756146
837099
964381
1.00343e+06
886504
851072
850471
825890
782884
796912
772641
733324
722501
676862
652386
690211
689867
839516
915798
960570
942286
847480
760660
704208
672446
884577
1.02035e+06
637874
700005
692621
501125
359992
306566
326204
369517
418106
387093
425664
262838
260804
126911
86719.8
74080.5
76378.9
80180.9
178205
296800
454093
704714
864015
863243
807728
714206
631424
571385
694097
926822
607746
730470
498678
259000
155621
147732
102241
117853
51723.6
28753
30540.3
30682.1
27439.7
26016.9
20315.5
13693.7
8407.06
5240.79
6427.53
7938.12
20984.6
55679.3
103273
131608
217299
315703
454084
607730
1.01482e+06
949004
543114
703938
849608
682545
424474
191461
57231.1
9687.85
6152.64
1458.62
988.92
580.636
342.69
257.297
181.3
239.239
469.498
1121.66
2830.47
12664.7
18467.4
62130.2
132930
163941
283423
507557
740517
844699
1.20959e+06
1.10475e+06
696551
328227
638927
916869
985560
911075
832663
794268
719069
638694
561196
531651
487157
501551
490832
495393
413560
215090
203428
331647
431111
511725
675452
740176
773782
761920
768502
810567
689307
487904
446316
496280
619547
714693
728556
707542
740903
813524
915264
999324
1.02723e+06
1.007e+06
1.01487e+06
1.01097e+06
1.01303e+06
999621
963555
917196
866277
816896
737634
564430
242676
119581
77086.7
59325.7
51538.3
39928.9
40359.4
350717
335308
339231
337039
317280
281098
249230
246114
273407
318388
372171
417667
423867
424444
541734
356774
428089
446838
415746
401891
440480
502241
538154
504291
452567
496951
556997
569662
564722
541164
507009
464676
435374
434940
468335
514340
567678
615896
672964
662296
457700
351768
500358
483780
672179
459729
477452
526647
552290
529568
470958
436217
494127
465441
411857
510263
567454
455688
515134
521917
517336
477098
538805
515855
501981
474927
460914
424785
276470
172515
150924
253266
555198
555757
677360
75996.3
108042
198718
327972
416805
437270
440375
433711
420756
402228
351162
230967
47827.2
6317.02
1957.84
3223.98
6601.93
24689.1
126295
253339
472815
402528
456611
390453
341979
325415
278715
406547
1.1547e+06
924604
924182
723645
732809
814206
874304
877465
709485
362482
212597
156959
315468
374837
675052
676241
660766
621810
624979
610436
592300
560175
565873
547733
528560
508108
422181
271275
218232
251603
844948
845063
847017
833432
806417
742916
667600
649480
733719
877453
963854
933504
915762
824957
783559
629893
576113
624274
852457
948725
842486
658901
513784
600058
787887
967258
1.07364e+06
1.13885e+06
1.14582e+06
1.05436e+06
982483
837377
718392
742927
678425
645490
688034
727651
548652
508763
719119
882134
948623
970051
963668
940938
901321
832126
708436
568174
580205
578486
300357
107618
107272
242567
298002
137855
73593.6
57874.6
936320
1.17127e+06
782531
754704
760197
818087
906311
909389
860618
818731
746103
764433
784486
818412
826398
798219
723893
705404
742161
748168
819242
780832
880318
929652
956263
899324
823803
739441
705028
684295
878746
1.08203e+06
694671
723638
563794
393253
330973
368275
397400
483540
532144
485521
444279
339863
376853
316513
326973
233251
171674
146517
221600
319661
521429
681204
833964
859944
784666
705767
641218
600742
700367
959520
683038
652383
348214
184351
152541
95131
72995.6
44655.3
20790
21952.2
26783.8
33503.8
51731.9
84922.4
120104
107991
64682.5
29126.9
20402.9
10533
31156
55623.4
72586.1
147772
210994
294623
512239
636851
1.04831e+06
949025
594839
809818
810094
561383
275378
91655.9
23503.2
5522.7
2064.59
1561.74
1736.6
1594.2
1684.54
1294.61
913.521
745.196
722.744
1566.34
3630.33
6651.3
25654.8
68800.2
90914.3
152621
275071
435083
681910
855064
1.22529e+06
1.23113e+06
373099
299574
783249
963509
983342
898882
866133
788690
699301
633382
571632
484093
452502
408772
424696
392250
259288
93635.5
121901
254753
421860
475926
625179
748585
752295
770989
744683
782997
552716
570149
471511
528299
651162
725465
733945
738556
786022
881554
963211
976220
917985
846910
822753
890297
963673
1.0155e+06
976440
928321
873528
838220
769691
615378
319953
138650
86773
73442
66180.6
53774.5
60846.4
356907
330526
338465
338741
319390
288982
260763
250933
267257
311721
371226
428537
454130
470214
605235
371901
468609
457009
415933
409749
450329
507259
539569
516217
462154
529036
567974
571868
554563
524068
468049
405169
349170
340370
385744
449992
518853
596974
658847
687096
495830
385662
507911
512618
699448
493847
492885
520297
530963
490837
427906
419304
502834
443095
426891
544177
557083
488733
546712
508686
519138
482155
568469
506469
434510
426170
459789
389157
224828
136679
149512
286493
633657
518247
710196
48570.2
101516
234385
390487
444143
432780
445780
429102
390032
353435
324575
157137
16290
2208.75
1899.72
3536.59
18514
64501.1
323098
452958
556776
489113
522713
428704
330295
287538
275241
511242
1.11846e+06
1.00114e+06
1.0038e+06
753513
752472
835142
885255
814358
625499
218595
222848
257071
488018
663291
779039
691282
658754
585103
553420
581060
609801
608941
562964
552748
583999
492666
400580
301721
179190
241165
840579
896755
885160
876206
822363
724214
607574
554827
634022
812770
929062
923233
916676
847603
675472
529023
411733
502018
763224
964835
882906
761468
636033
671878
802671
989642
1.03298e+06
1.1384e+06
1.11135e+06
1.04862e+06
938964
917981
755106
774933
684617
636474
673066
746499
672761
576426
688876
887111
970850
978648
949003
915146
892290
842158
792748
729332
724914
722554
632085
332663
253636
378073
295888
123188
58116.9
108110
920019
1.2614e+06
851498
791406
794292
844048
914859
850948
663332
606567
639898
618198
720807
747894
819249
803362
732141
645355
664793
758503
796772
867279
890101
950027
934016
890382
803023
737554
694192
668253
858739
1.20712e+06
761647
663183
448096
318659
291310
330397
403091
463267
493403
389312
325706
174731
216339
193696
266914
225487
214631
164404
211287
361099
520940
723205
823022
830952
777109
703047
654720
623265
716026
1.05766e+06
765899
539074
290987
188562
105987
75972.5
33552.5
13884
10525.7
9957.09
10720.4
14351.5
29925.4
76008.2
195168
299667
251099
104472
32849.1
39978.1
37602.3
49609.6
95401.9
132917
184763
321453
514027
651306
1.04242e+06
1.002e+06
701549
871603
739868
427040
162815
42743.2
9877.15
1956.42
1163.87
1159.01
1726.71
2583.11
5473.22
10634.1
10830.2
7580.28
3640.4
6111.47
5617.56
15380.8
29521.3
45735.3
80557.2
144716
217786
375624
669232
869088
1.2055e+06
1.3345e+06
182145
352978
845677
971391
982859
929081
943010
929566
892319
741267
566628
450411
406922
404926
371695
351014
205136
94172.4
106607
206228
381289
499481
650196
761155
722205
718804
729231
715883
448377
616732
501593
552322
666087
728189
741632
777912
832833
930351
974988
915073
776181
612173
602617
770379
922483
1.01026e+06
984528
916482
869243
829776
788821
647725
402822
175999
102617
103282
104031
106074
145773
347656
311556
325326
332127
324119
309315
294147
283874
287789
322857
386968
451331
498657
535943
712758
731312
168431
344657
474332
459750
423815
421117
445122
487764
522445
503170
473910
528198
565504
563693
551578
515713
460058
390733
333535
320297
359979
429804
507922
583567
654611
681205
520260
421968
505569
576353
598681
641398
574197
564761
542834
534276
519459
468973
411599
429098
500748
448579
465854
583188
580733
534204
572447
506111
525722
489312
582659
518031
485326
474008
395185
250640
162408
116664
185336
423640
675168
524578
648132
762800
121192
41146.7
104960
265675
417477
442765
424468
456007
442734
354050
355192
302151
125053
8105.55
2548.47
3643.51
6214.93
42556
148620
464467
495578
514106
510414
469238
433447
310204
220782
360581
642429
863147
949193
1.09524e+06
836411
986352
806077
797488
855510
885978
757782
491301
181965
312210
360123
741734
740718
809875
727584
726293
649558
636409
616256
605713
603356
581980
574682
593349
457017
443939
235011
232199
255302
707953
920785
985610
790125
842928
855573
819734
724548
583691
483235
541262
725400
892904
876700
910979
826013
689746
455635
361855
379515
694867
959360
922680
867347
803889
819333
889075
1.00004e+06
1.06647e+06
1.08088e+06
1.09408e+06
978012
847672
877903
1.03264e+06
741837
785547
795689
687461
613918
626182
720569
781774
684861
688704
891299
976484
936584
873252
794776
797859
824049
772489
730471
719626
796830
821257
597748
470204
415340
221393
102754
83854.3
146596
546952
1.30433e+06
1.48279e+06
1.04539e+06
909809
850868
838237
855454
800178
759179
636685
509130
507590
562738
541497
606945
642984
749336
776236
792106
807751
829906
849282
859179
933159
909607
922221
884095
813712
745289
706459
720775
936578
1.43916e+06
1.46492e+06
667459
581227
428903
295186
229776
216216
246295
319769
407152
368667
334321
170228
84321.4
36543.8
35483.1
39313.1
38907.7
82731.7
112856
186341
357046
580743
744468
833667
820607
762323
705634
663068
635415
739883
1.22387e+06
1.34828e+06
781224
633027
431213
252944
143023
107919
48661.7
19813.8
8061.07
5384.57
4127.48
3388.23
3806.59
7128.16
17852.2
47440.4
94696
108101
111454
57537.4
69003
37834.2
64692.4
94532
109760
190909
304951
554015
705331
811676
1.10923e+06
1.14034e+06
870923
846822
823264
624744
322672
105381
20673.7
3935.05
598.834
544.189
437.833
1152.22
1105.1
3568.85
9589.09
28612.2
36724.4
10879.9
12315.6
8262.43
17383.2
20746.4
38679.6
69454.5
96515.7
163462
351040
669648
863169
830630
1.15648e+06
1.28537e+06
509083
82229.9
380761
871197
964350
986473
978233
981823
938457
942721
837553
636387
481629
437556
443411
416390
371779
249262
121203
129793
191464
313792
476704
589723
687782
662022
656051
641765
412626
383049
445053
334987
511013
526576
565014
665260
725626
754211
787629
860770
930573
935620
855588
686101
511225
583933
808137
957096
1.00385e+06
963749
897026
834713
826663
788902
657105
444434
220240
132240
161303
210839
261385
274658
100931
44062.7
340250
291901
314566
329609
335842
337592
338593
335179
326122
341986
398725
478937
557440
646106
548937
269603
254506
560877
525783
464825
431911
427650
431943
463266
495243
500016
493185
536079
560030
564558
552537
530624
486083
434918
389801
378446
403646
463561
519257
591324
646498
651632
555577
507549
561464
600230
623700
615108
630986
636836
610768
579033
533922
468283
414371
444691
488275
463358
502978
625368
605817
586111
591447
540763
508438
473790
525738
461516
446276
365503
220484
154889
107278
160858
358048
655961
668686
540185
486155
472913
57019.5
62267.1
130104
304547
433195
446577
446866
476448
414291
383896
334040
361444
118464
9592.34
5890.55
4449.74
19277.9
58510.5
254124
424270
520611
550295
476237
451666
352768
201826
283369
477628
625286
853436
750585
466868
585899
905043
838557
841551
866139
883158
702146
435711
211975
369926
437506
755804
685482
806055
674136
704003
618891
607563
546066
544114
509965
546780
510407
544134
418727
380159
245613
208955
262364
611250
647693
747561
674922
805874
880720
832564
729101
596579
500150
526871
680543
842587
874910
914856
883756
728760
496514
319382
311231
603084
919862
932823
932565
905166
937858
937221
1.0291e+06
1.04119e+06
1.06923e+06
1.02395e+06
910618
771464
677187
793950
679573
800308
803972
680874
581917
564240
643712
756939
785558
692092
850067
964983
874071
708374
529151
650389
766760
806992
772799
763694
832330
854295
732334
535143
306412
143821
111204
181313
417183
839418
1.04354e+06
978946
838783
888835
851238
847020
845174
719869
538811
413676
324111
323387
374008
414085
407231
481800
520512
623156
673213
708509
736895
806807
838236
833867
893076
907534
898978
855166
856756
925047
972168
860479
523772
538426
504022
442529
327155
230334
169330
149142
140898
183951
268195
332596
229593
175485
47651.5
30584.8
9190.46
12322.1
15615.2
37614.6
79264.6
253084
374651
630837
752886
832713
787481
754686
709646
710890
761168
869552
864961
736660
725130
685835
461692
245516
162731
87930.8
43232.9
18322.2
6611.93
3400.78
2193.07
1386.35
1020.69
1222.99
6360.39
21038.7
20315.8
31537.3
26130.8
40194.2
41721.9
46888.5
54656.4
74305.1
96069.1
157245
303476
557946
737364
793046
859706
870577
874599
868334
819763
608843
304544
90102.4
14503.3
1784.46
321.094
220.692
157.311
206.595
139.728
302.063
517.744
1089.87
2696.06
2125.62
6679.06
5571.08
10050.4
12846
29421
33089.5
56624.5
149944
368006
738322
844825
748241
705160
899334
263393
54563.1
418165
882326
968980
1.00846e+06
969231
824610
718694
869267
921544
754839
502726
470855
528185
498178
457128
341833
195870
181547
233579
327496
388510
525973
524643
593618
576016
454004
198325
178275
165623
160842
481816
548750
566310
653959
720773
748408
792101
855103
908172
920460
887826
790231
748257
822057
932568
1.00274e+06
986285
906008
851112
809262
801029
784712
640247
446887
255017
131597
138727
178435
175760
142274
50208.8
39252.8
321697
261391
293303
317748
339048
357378
377696
390404
383541
367434
382203
448515
533153
610084
651319
653493
668534
528780
456769
417835
410073
408176
403580
427064
456145
465125
487551
517559
549200
552944
553744
543300
528039
497758
471951
465102
484032
515581
555230
602745
622963
612818
583098
581437
605760
644444
631871
619514
650060
656727
614959
569092
518075
455108
421594
460084
474954
473731
530074
632843
632060
620145
606223
585988
468543
456118
369167
322859
272018
171006
122699
116050
160766
344784
619100
735437
658859
552669
505939
328258
72812.8
143624
183668
368891
444405
459803
476280
448838
428041
350040
406505
438851
129402
20028.5
7560.96
11152.7
16692
91784.1
186721
359405
435798
411891
499671
309617
203198
244502
295134
365890
529908
518625
333934
289727
634862
892262
855157
859425
871934
881288
699606
440593
251095
321439
393126
608670
503147
628040
456502
477031
350917
371959
323945
347965
336838
380415
349742
377879
302180
332393
227790
281228
265497
560211
589762
742134
735324
792798
845279
825549