/*--------------------------------*- C++ -*----------------------------------*\
| =========                 |                                                 |
| \\      /  F ield         | OpenFOAM: The Open Source CFD Toolbox           |
|  \\    /   O peration     | Version:  2.1.1                                 |
|   \\  /    A nd           | Web:      www.OpenFOAM.org                      |
|    \\/     M anipulation  |                                                 |
\*---------------------------------------------------------------------------*/
FoamFile
{
    version     2.0;
    format      ascii;
    class       volScalarField;
    location    "0.004900000";
    object      p;
}
// * * * * * * * * * * * * * * * * * * * * * * * * * * * * * * * * * * * * * //

dimensions      [1 -1 -2 0 0 0 0];

internalField   nonuniform List<scalar> 
12384
(
792310
792096
791292
790654
789721
788345
786871
787129
784348
784508
781801
782765
779766
781596
711465
711643
709798
716267
712963
723418
721042
729992
731846
736497
740916
744224
747322
748835
748944
747683
745504
744103
740114
739279
744647
741857
758037
759494
764979
780121
777486
788743
788415
796537
865200
865124
857512
857355
842033
845844
831314
835699
828068
831429
827160
827491
821632
818238
808560
799715
790889
772681
775174
749388
758956
739239
743515
746059
744860
750546
752280
753270
753193
753706
672522
673948
677276
674302
684510
677587
695439
688110
711782
705406
730978
725356
749316
747556
761402
768212
767201
784130
771588
802153
788529
814375
841436
883493
893039
905728
912618
908605
905835
910859
891698
888850
898074
900247
912575
920784
929015
934120
930232
924851
900659
903582
849182
867799
802457
825944
773840
794380
775133
786553
786841
795066
802910
807495
808447
806894
804743
801082
800219
800319
1.00061e+06
997125
989428
980102
969461
957484
950731
945109
938622
938300
935499
930154
930951
921512
914684
915824
898088
902534
879985
887566
866772
880025
861847
914222
924052
958361
977776
991529
991961
1.00953e+06
881482
878731
886251
883610
894900
896918
905812
912358
917015
920689
920603
919182
913871
906769
890231
885607
880049
862897
869939
855917
859396
858417
887474
876139
897977
917364
924015
930186
935181
938017
942996
944249
940820
941673
940102
941334
942042
944457
944923
940217
930652
915720
900676
874169
862801
848780
846877
859040
842168
886769
872093
915902
903635
942511
939138
966099
971411
981422
985293
991604
840135
831477
832098
828733
822385
819712
819528
812104
798007
802759
784033
784300
766683
775051
765232
795873
776671
815616
839462
840414
863937
879962
879308
885839
887841
889776
890533
891077
892544
892413
943117
942307
941110
939007
936793
924350
909156
911936
879952
845072
858081
823716
787388
783804
797203
789656
784368
808540
810348
819919
823698
824472
822247
817197
813111
805198
804700
803756
804948
808170
903717
903152
903449
903889
901774
899363
898230
886857
869280
875316
845175
829434
817219
819523
795285
805389
812900
808538
836497
846068
863977
876287
886268
887534
889429
892850
885039
882690
883127
884183
994069
988020
982095
971086
962947
953050
935874
927887
927682
909095
904212
910693
904175
907323
908636
911254
912491
912241
912224
911460
911481
910360
913750
916492
925586
932203
939387
943254
944887
945992
922882
922627
922795
919860
921016
922989
925226
926076
930401
929983
932591
930969
935927
933379
942420
947281
951198
953794
955530
954190
950377
944550
935730
935654
919557
923272
909493
912551
902095
905801
790936
791093
790650
789753
788553
787270
787273
784468
783508
782867
782302
780073
780947
779558
709342
711251
710507
717065
714138
723890
721730
730337
732344
737692
741222
744773
747258
748584
748472
746928
744986
741580
742031
741443
740254
743797
755849
754644
772973
773017
784144
787924
795538
795089
864049
860956
857329
852278
844370
840744
833168
830499
830389
826499
825883
822263
819742
812216
807214
794420
787897
770536
768363
750649
750584
739403
742733
741108
744739
748786
752149
754912
754778
756608
677248
675289
679155
674669
684500
677274
694718
687461
709054
708228
722176
731333
740596
751388
755520
764089
769343
770801
776445
791603
786705
815746
835896
871228
886221
897671
903832
908136
907551
908258
891804
893417
895623
907679
912441
922602
927352
928911
924492
918996
892471
886394
851679
841713
809026
803006
783812
774286
779038
775849
783132
788946
794008
800211
803697
804330
801412
800479
799643
798851
999477
993659
984625
975021
963189
953349
947078
941380
937934
935626
930668
931947
924561
922025
913898
909222
898769
892883
881808
875303
865855
859462
870218
887034
903972
944136
966827
987051
996811
1.0077e+06
878833
877831
883480
883215
892142
894571
902305
907849
913517
916325
917774
915990
910336
902595
895252
876831
881242
864388
864236
860506
860459
865381
882007
878821
897059
912434
920032
927028
933066
937574
943635
941117
941957
938127
936927
939008
943931
943652
942775
937688
928427
912720
896154
872996
859018
848450
842875
846961
844138
878790
871383
910683
903826
934116
938289
960448
968250
977477
982301
985368
842813
838279
834128
836769
833446
820794
816240
815588
800445
799020
782499
786358
765669
772477
765232
772004
787575
812903
808437
850277
862007
868144
881579
882081
884725
888231
888445
890360
890954
892499
939280
938293
937744
934981
927380
923953
910481
888743
893392
857608
828851
835581
802586
777373
796821
777593
785684
796394
805247
811851
818811
822568
822733
819001
814282
807081
805888
802634
802721
802091
902514
902745
904358
904296
902318
900027
892604
884186
869603
867853
830416
842989
807119
810173
801207
797852
805256
804448
833356
840431
859544
876159
886003
891968
895209
888306
891681
893604
890592
896805
993749
988448
981911
971969
962321
953335
936084
928861
917317
917805
903518
907531
904890
907164
907391
907317
908505
908758
907849
906464
903614
906427
907615
912091
918895
929203
936587
943153
945545
947618
920588
922737
921890
921115
920762
921393
924701
927162
927920
929248
926981
928444
924820
933268
937052
942405
948677
951858
953575
953262
948860
944919
935887
933809
919443
923545
909516
913416
903025
904983
790341
789928
789162
788289
787364
786701
784545
783105
783391
781654
779468
779710
778938
779073
714894
713832
712376
717317
715640
723773
722954
731119
732953
738552
742031
745256
747810
748651
748476
746385
744297
741339
741115
740661
739887
745351
751977
759915
765638
780220
782050
794257
794176
803700
859946
859607
852926
850270
840714
838452
829105
829428
823414
823504
820437
818855
812980
808720
801379
790331
782562
765863
762576
747652
743465
741091
735365
738704
742204
746323
750675
753514
757180
757516
675511
678205
678902
675660
685067
676402
694648
687727
706238
705295
722978
725812
742914
743160
755861
756802
763393
771010
765991
784879
781892
815521
825542
864358
870228
889722
896159
902056
902993
908406
892972
900513
900914
910330
915687
923543
926521
924290
918111
904956
879939
878842
828677
828690
793895
797451
764725
776419
759931
767579
770785
776988
785845
790857
794604
795735
797852
794776
794207
793942
992384
985332
977567
967420
957290
948145
942264
937001
934510
929604
930731
925307
921839
919606
907148
908923
890704
894213
870145
872782
852330
860353
847042
881089
886704
924425
952161
975775
993367
1.00679e+06
878295
877040
881241
880747
887805
891930
897711
903626
908573
912821
913320
910227
905263
898056
891466
877042
877511
865999
860538
862870
867856
867952
883088
879710
899043
905694
913799
921903
925449
930794
937902
937584
935992
938042
939501
935777
937747
942845
939978
934745
923949
908694
891760
867715
858562
838381
837572
846728
835269
878399
866016
901083
903230
928180
929589
953269
961680
971366
975488
979293
839494
843614
841738
835850
835393
832183
816185
815650
801969
800460
779781
787804
761117
773875
766170
776598
766552
811128
805341
830233
857837
861988
868753
880857
880587
883408
887892
888120
888402
888267
931207
929917
929222
926805
923874
917374
905562
888358
880021
868960
823924
829060
811309
770871
792852
770805
779671
785596
795607
802785
807632
813262
816151
815965
813050
809645
810999
806426
812208
816593
907146
908859
908235
905824
904307
899675
890937
883392
868062
856864
828585
838045
795087
812043
793685
793247
801416
794655
830529
836262
857414
869784
883748
893870
892678
891158
887682
888465
895900
889810
994105
988128
980852
972169
959867
952250
930563
934232
910823
916203
903263
906350
902594
902231
904384
904649
903432
903213
902326
900820
901495
899462
905254
905373
918770
921812
934003
938522
943121
945460
923211
922779
921290
920750
921007
921808
922720
923194
921645
919513
920306
917733
924232
923610
931163
935223
942672
948075
950920
950995
949155
944485
936701
933336
920321
923648
909357
914236
903892
905983
789982
789913
788269
788230
786521
784746
782578
782766
780890
777950
778587
777915
775855
774911
713937
716519
717893
720300
718734
726076
724442
731140
734461
739049
743397
745642
748764
748944
747898
745861
743547
741531
738579
741560
738757
743754
757479
756300
770729
778742
790010
793090
802496
800468
857197
853175
851415
842448
842431
829235
830756
821279
821830
818410
815778
810808
808228
800743
794155
781912
777574
758018
755041
739835
741714
733009
735583
733232
738728
742531
748153
753704
756523
759312
681543
678356
681053
676118
684819
677341
691440
688139
703778
705586
716905
728444
731999
745360
744618
754635
753550
756668
768549
767553
780422
800069
819763
840071
862291
870445
884728
891358
898788
899850
895752
901220
906391
916228
919484
925878
923678
919737
904603
894903
868069
853185
810831
809160
789199
760168
770031
746447
759418
755194
759738
765794
769607
777010
782002
788214
788494
792656
795391
794977
977470
974564
966809
957437
948254
939117
933330
928304
923760
927535
924744
921078
918552
909153
909309
895499
895292
875566
871289
853069
855000
838852
853964
849864
877547
901830
936854
962716
982781
998799
874745
877204
875507
880159
882304
888464
893054
898126
902250
904530
903986
904181
902932
895049
888699
878769
872784
868781
863237
863719
870320
875309
881461
886932
897116
903238
907987
915677
919639
923763
936520
930972
927851
926590
930522
936582
932633
933567
935662
927768
918551
901312
886249
864424
850024
829080
836248
837446
834034
858826
870435
889481
896327
921584
926012
941462
954473
960316
966252
969539
848109
849008
850533
846981
837953
835019
826190
815032
800370
803741
777921
785578
759847
767551
753957
766336
764010
783455
806062
820475
831392
860919
861085
868568
880580
880497
880889
886242
889322
889773
927203
926903
925345
920958
915067
903921
901122
882908
873424
855322
842860
803392
819434
768734
787008
767699
777752
773859
777385
790372
798006
803874
809143
813609
813939
817913
808508
809914
810363
808396
909537
909348
909906
909769
906073
900114
890246
884656
854037
855429
825208
813733
795699
797257
779404
777639
786468
796208
825156
833612
848351
870567
889096
890568
896295
910220
908069
897987
894811
895294
993876
987886
978522
970131
955644
952114
924348
930863
909351
907247
903641
897865
900580
898572
897041
898313
897858
894176
893901
893779
891805
894588
898037
899153
914465
915967
929392
935612
940000
944111
922941
923253
922118
922335
920253
920719
919976
917458
916565
914719
909401
908769
902045
911112
916356
928054
931842
941434
946666
948800
947569
943533
938702
933986
923666
923172
910414
915246
906166
904917
783442
783047
783760
782981
782104
780217
781128
778921
776523
776380
776235
772660
773607
774114
715641
717316
716426
719071
719312
726403
726397
731391
736555
740992
744059
747073
747887
749063
747656
745654
743224
739987
738877
738212
741244
746576
755665
760308
773199
782664
790184
802115
804392
814511
849025
850391
844178
842590
834863
828102
823985
820565
816293
814674
811276
806976
799728
794060
786182
774692
766640
750317
747235
737260
730275
730301
726509
733144
735932
739354
746335
751541
756803
758715
680158
681419
679920
679905
682736
680151
688727
687238
703054
703364
715624
721570
732521
733282
744668
741083
747820
747477
745915
767929
766531
786974
805695
823118
841314
859525
870721
884680
889010
894620
907436
909713
914577
921507
923997
924509
922610
915063
888280
888495
841002
833605
796603
798175
750266
768644
733333
746357
727814
735020
739961
748601
758977
765897
773150
776757
782051
784615
786850
788118
969144
955988
949026
943411
936880
929994
924142
918061
917340
913252
912125
915051
906349
908470
895552
896691
876677
876391
858918
848333
834150
838040
833706
835563
857531
891574
915181
953154
967076
985343
874146
871910
875927
875575
880515
883995
888556
893807
896497
896661
900263
898794
894006
889257
880932
875100
863425
861856
865505
862158
871272
876433
886939
888563
897969
900714
905864
910230
914686
918288
923514
927677
927874
920968
916167
922186
932374
925835
921520
920718
907107
897141
879122
857008
849154
825240
827165
836363
827307
857104
855105
892565
884171
915105
917997
932933
942038
952363
955780
957795
855865
854916
853127
851020
846156
835708
828990
825674
800022
804786
775363
785540
753565
762205
745844
753024
759754
770147
782441
817603
818485
837226
860977
859872
867575
879466
881894
880522
883249
884188
913689
914356
914029
912370
904172
904008
884808
881735
874104
842793
841254
810152
809045
765048
778735
761383
757407
771774
767093
771284
785642
799601
799729
810541
820018
814810
820570
828796
826966
830813
913112
913274
913921
912372
908494
901078
891343
878104
845148
855357
801526
808257
789914
770551
769651
776414
778603
795608
816772
819090
852348
879071
880915
893698
910537
908405
910904
921895
920253
924373
992174
985432
975446
966896
949305
945784
921715
917628
902234
901075
894771
896126
892651
895011
892672
890910
891821
891968
887545
884578
881577
883344
896613
894645
910091
911520
923611
932267
937560
940540
922853
922418
921922
921597
920746
919189
915991
912772
906181
898009
892125
891826
900591
890797
899002
906916
922618
929006
939699
944724
945084
942343
941302
932249
930682
920602
916391
915107
908901
912145
785778
784709
784646
782761
781542
781956
779097
777486
776597
775681
770829
772114
769617
768640
728273
726493
726391
727522
728397
729402
732753
734464
738843
743950
745359
750311
751346
750062
747268
747285
741448
742949
737778
743906
739155
754985
750820
771853
771487
785872
797350
804221
813146
812850
848401
843046
843712
834874
834878
821790
824552
813792
816170
808643
806524
800799
795851
785465
782241
764262
761391
740978
741646
725155
725760
724863
727896
726735
731339
738362
744133
751454
754417
757994
687090
683706
684947
680629
683445
682637
684295
690185
696985
705430
711045
720052
724108
733122
731858
739379
734483
740553
744188
752730
759164
782488
786049
808233
832212
840228
863676
872845
883759
885032
911511
917973
923489
926720
927727
926838
915950
912640
879243
873694
814410
831714
777263
758902
757702
736733
730649
713843
731289
733769
736015
735009
740696
751110
755163
764862
773143
781186
786161
787541
949682
951040
944020
935466
927697
922857
917281
914050
912276
908792
908385
901568
906826
895195
896884
877545
878412
859969
855780
831245
840065
815735
821967
831086
850196
874438
912125
931803
960442
964464
874025
873053
871677
876396
876614
880996
883380
885695
887322
889965
890634
889435
887126
881353
874662
864221
860008
857254
850800
867803
864872
883846
883971
894218
899680
902996
906984
910673
914657
917315
924200
913654
913103
918724
915487
904987
909644
919466
908013
901512
901563
886702
871585
857765
840022
824127
825023
821568
827897
849785
851995
879106
889976
896482
918839
923102
930923
935555
942242
950140
860255
860229
857676
854321
850841
843866
833284
828970
808995
803907
775038
784856
749168
762381
738026
739419
745975
768491
767239
799922
817634
824488
842417
862626
861522
866621
877462
881251
880377
885282
917935
916086
912630
902983
902733
887841
886704
868792
873195
842325
824767
826979
792228
761227
766733
759745
749955
748553
765425
770156
771030
785458
801575
816705
815529
825479
832774
827596
831960
830277
917893
918863
917113
915051
909645
902695
887699
870828
843144
841282
789270
809980
756241
754419
754552
748312
773243
787375
788602
828176
863411
862998
881778
908036
909901
913547
922384
923909
927240
923409
987683
980698
971039
960442
941810
935114
911909
900870
897786
887944
885990
883515
887817
884999
887576
884271
880122
879262
878529
880169
882799
880632
881892
892697
902237
911422
919247
929732
936245
939076
921927
921402
921706
920658
919079
916480
911306
908091
899557
895346
892005
884938
873468
889232
891894
897855
908223
920751
931800
938494
942121
943196
940798
934887
931878
922964
920781
915646
910517
907700
773197
774052
773828
774502
775559
774142
773543
773412
773088
769065
769860
767350
767203
767841
723518
723549
722788
724749
724055
727764
732298
733080
742301
742292
748068
747818
749393
748354
749576
744010
744799
739401
741251
740113
745869
750478
765621
766749
780695
788306
802869
809972
818992
824949
837072
840453
835755
835138
827420
823074
818291
814274
811169
807285
805640
794883
794408
779128
778078
757870
754972
735427
738145
719830
724040
718089
716434
727186
729399
737944
744903
751200
754407
753091
688054
690623
686605
682834
681788
686791
682920
690373
697230
702172
710444
715880
721661
725291
732297
728009
732441
727238
728429
745023
742064
780369
767277
804909
822506
833824
854459
870590
879249
885616
926582
925539
930031
930383
930795
927345
912920
905274
862745
862433
805710
814722
746991
774613
721796
719403
703858
717183
700073
705146
712198
730738
735607
741209
750794
763778
765137
780160
778735
789497
921494
915007
911286
913583
910540
899954
892329
892274
893876
900138
892768
894534
886992
892507
878145
879204
867736
856374
844220
833904
826053
812170
810594
826573
852045
865548
901839
923506
937753
961796
874067
872360
871834
870175
875542
876310
880013
883384
886505
888739
886538
885280
880115
873752
864609
855913
849064
845718
843629
854253
874672
877289
889553
899512
903112
906792
909104
912192
916858
919925
915880
912442
902316
898133
905093
906726
892045
893284
906054
895244
886147
878720
869791
848645
838265
822354
822669
828437
820627
853306
848465
874492
881971
902019
903825
922417
923872
931698
939220
933936
863355
863890
861369
858116
852855
848748
842237
831058
815144
812734
778828
781766
750353
757634
733480
743529
739680
757926
760247
791202
803084
826416
833478
846544
863721
863412
867435
872833
880639
880055
902904
904325
903179
902155
888460
888781
874345
874119
861837
841129
819009
825989
779683
762756
758891
751717
742058
746250
746933
770724
761915
785516
808252
807926
824936
837212
837881
846205
848316
847738
920321
920774
919761
916116
909743
899774
883942
867360
836886
825202
792093
785199
736873
759562
732247
730260
774348
758961
794420
836000
840403
862043
891911
900902
908930
923900
929861
928014
928827
931191
979399
973124
963521
951343
931900
922091
896837
889132
873502
869745
876010
884642
883365
886218
880900
884614
882211
879695
873068
869438
868646
872457
886078
882013
906884
902355
922118
923480
933210
935858
921097
919251
919508
918911
917119
914399
907705
898395
888405
876658
861892
851243
853900
850243
869424
876456
902158
909925
923883
932327
941414
940857
940716
934233
935482
923690
926422
920307
916658
919477
778133
777593
777808
777510
775967
775285
775397
774323
770694
771318
767501
765883
764174
761693
737361
736546
738353
737798
739268
739961
739359
745945
745226
751916
751785
756217
754386
755550
750172
753206
748760
751104
749433
750779
756866
758480
759053
781707
780945
798737
808129
819900
825460
827733
838780
834178
836017
828304
829139
817644
819412
810359
812510
805122
805807
794484
792802
778659
774596
752611
756329
728539
735823
712287
718488
714417
716413
724916
731794
738236
745722
751449
753549
752197
701624
689449
690503
689496
688020
686043
687121
691330
697189
701989
706654
716995
717198
724667
723606
724799
721826
729567
723417
747039
734468
778571
760030
800886
822539
834138
856468
874522
886373
889430
940055
944847
942062
938355
931592
927191
904853
904431
844983
863792
790437
795990
749636
756115
704986
726209
705346
694633
705599
706821
715251
714513
718472
739752
737502
751533
767702
768929
783073
773248
893579
913350
918483
909642
900263
897515
900115
899146
894233
885649
893739
890805
891863
878965
880253
868856
865534
845341
850075
822165
827314
809256
827190
813579
865539
852738
906757
910822
938553
932189
878776
872949
871547
871665
868864
872238
870903
871417
875554
876628
881319
880322
875922
866952
854975
846170
840308
842955
842368
853097
863789
884474
893799
905207
911838
914713
917331
920417
922146
924331
908483
908394
898543
894626
883568
888684
889059
872875
871865
877775
867306
871306
857886
847845
832280
827917
822262
817688
838671
838985
864208
865771
887277
893258
907966
902912
911476
907117
907582
916651
878279
871459
865728
859260
854382
851572
845508
839425
821924
817644
784264
788369
748926
759860
732472
738755
734661
759134
759200
778313
801949
814501
832203
843020
850404
865249
863389
872591
873482
879891
912695
907333
899438
889379
886040
873631
876401
862119
852667
845813
815719
816441
771308
777469
742397
754351
737393
740395
752410
753862
775144
789725
801834
819387
835089
839795
851353
855412
857750
853445
929664
928149
921937
915674
906035
895065
880298
864604
827998
823159
777233
766822
739732
734328
726604
715334
756849
749824
807679
802301
842828
865721
880421
894927
915790
925964
929920
936091
936126
933660
969949
963890
954135
939902
923056
907196
880747
872905
868142
871280
869453
871600
875943
878284
881610
878755
879412
874608
874721
870338
870752
878048
883820
880313
904698
903711
913925
924202
929186
929972
919990
918557
918714
917290
914158
910832
905597
891316
884322
872813
861803
861743
856519
859799
865436
865237
887319
904448
915262
928548
934342
940295
939808
938365
933880
927028
929152
920267
923290
919754
763559
764353
765255
766498
768204
769447
770144
769166
769935
765746
764402
760581
759320
759927
738526
734364
736869
734671
733956
734634
735046
735763
740996
741974
748081
748382
752552
752466
755369
751665
754615
749537
751758
747412
748453
753236
758019
758811
775684
782478
790252
805230
815085
823393
826786
827169
801393
825850
820963
830427
829197
830047
821791
821301
815502
810829
812337
805978
805394
795712
792945
778863
773818
752691
754790
727141
736303
711449
720673
715760
717588
722657
736892
740063
747244
751146
747635
742665
724954
714052
705663
704755
693703
689839
687711
690489
688254
693024
700449
698748
711462
711720
719118
724614
726109
730826
722348
733204
726155
749890
735988
775307
771660
791789
828973
848141
853321
880177
892805
881253
863327
836937
926824
942762
942921
938200
928809
923987
897997
892488
844028
856098
776311
806165
733381
752586
704875
721513
689883
702148
689964
694927
705251
714680
715296
739585
726587
760301
751372
783257
777717
804279
816336
794090
885888
877390
877440
888510
899951
895295
884882
884167
880985
884777
880680
883526
878901
882092
874026
874354
857657
846308
849740
821705
828127
817637
825738
823618
850741
875352
887828
917134
915355
928568
859717
895276
879150
872950
868920
864084
862793
862450
870277
873928
874968
880117
881569
879242
873143
862438
850615
837965
838467
830752
849528
851855
860324
893983
902343
913158
917965
921419
922961
924233
921312
923805
891794
878184
906644
892550
892226
886153
880851
866625
875149
878464
868339
865267
869989
854369
852099
839229
837840
825384
830171
834246
845405
851701
855550
878471
878687
891626
897427
906966
904705
909289
905797
903653
882045
858297
864423
858370
855011
853224
853416
851980
850014
846909
835636
816396
807504
781857
766709
750626
746981
740658
733532
756471
764823
780879
795724
815917
826948
840252
848356
854793
864385
868541
875423
881229
877024
876325
891795
887538
883067
878785
870494
875688
863054
857691
850973
843062
813096
809775
785939
775212
747070
749549
749439
750420
769047
766026
788821
788213
809252
830344
834125
851235
859558
868433
872389
873786
881918
876490
900660
904670
907225
904851
899761
889832
875441
860286
819126
822028
762005
775051
722909
733166
716988
711894
753751
738369
795828
800619
843234
852349
872706
896943
912115
921912
932212
936186
937466
934622
944019
935597
953475
949879
942699
930855
911914
892520
866343
861955
844830
847187
853784
864747
875700
880895
880725
881417
879644
877401
875744
875086
876244
878250
885216
882783
903294
904839
913671
919696
928062
922996
922586
901187
914000
911593
913073
912900
911535
907792
898526
889852
875056
862167
857774
838944
834518
835171
856663
866357
880848
895861
914028
920562
933816
935760
939070
937521
933971
932568
927889
926007
922585
926140
920244
924122
769339
769966
770019
770884
770806
771377
771481
772072
770070
770113
766863
766860
760796
760457
746222
742462
746623
744695
746518
748491
748546
751222
751215
755399
755842
760738
760418
763306
760337
763999
760524
762561
756149
760422
763451
762546
758748
777775
773466
790596
798588
811713
821454
829265
832663
832962
817317
824020
828289
830793
830035
830811
821171
822418
814477
811725
811338
807590
803485
799979
790468
783749
771251
759083
751694
732048
733769
714197
720868
720928
720386
732501
735563
744645
751776
752830
749884
748173
726940
710892
712639
704810
699314
695644
692806
691991
690430
699314
695628
707402
706708
715411
723279
722461
734204
727705
738374
727725
743338
742111
751900
778302
774693
807086
843975
845117
877415
902995
893944
907518
880193
888870
941932
944498
941956
935460
926491
918338
888878
889374
842026
843371
778605
802653
731363
756113
702440
720743
690887
700005
691846
700907
695686
716176
708384
736224
726663
753462
752898
775674
772886
813487
797421
851830
862984
870704
895328
896651
888799
886247
888778
885722
886933
885330
885906
884841
883439
879849
879558
869582
860802
848621
846593
822474
830423
818159
837928
822826
861112
871241
897066
907806
922936
922339
897328
885327
888086
866525
870926
861420
864883
863248
858234
863568
870870
870898
873852
877309
870228
862818
844251
838341
835656
833632
841818
859748
871566
892351
910055
918540
925592
929140
929683
929001
926370
926595
903836
893796
892646
886296
871386
867532
867421
860145
846095
846702
843858
841136
840853
844352
837702
842684
835422
839564
838563
848821
850322
864982
872374
875647
887613
886360
889123
884054
882430
882665
886989
883406
853797
864640
853563
848499
847995
850514
850331
852069
845648
846123
840807
837227
806029
809165
762661
772968
740632
751390
743270
762132
759590
794987
791762
817912
821726
843040
842287
857961
858894
867808
872192
879036
876342
872979
879343
873133
869087
865170
868774
859236
858734
855882
847803
842643
819954
805495
788806
775628
772187
766361
750645
756662
758787
778585
790248
807341
819175
836486
842415
854623
866847
870338
873706
875754
880314
879162
896562
897227
898640
897524
893219
885164
870846
855687
819807
820896
763338
773111
726485
735590
716907
707685
751500
734627
798839
793876
835613
842874
878271
892610
906006
923610
932294
935779
937175
933958
942115
937921
949889
943175
937012
926258
905142
886016
859989
849686
840977
849938
850278
864775
871984
880304
881194
881610
880883
879468
878947
877972
877147
884208
879788
896085
894332
906453
909895
915463
916308
919976
911512
910861
912682
910364
911063
910751
909431
901768
897445
886782
870584
859279
858734
835959
839172
843412
846152
864504
881801
892387
908053
921383
926801
935956
936311
936022
934674
931353
931229
925402
925002
925419
922102
923313
757377
757842
759863
761194
764063
765578
767923
768934
770049
769729
768101
765325
761483
756931
751070
749791
748596
745415
746012
744813
747301
747786
752117
753174
758187
757920
761639
760929
764873
762383
765784
760538
764812
761870
759987
762295
772740
778324
777538
799736
802956
817585
827001
835613
838757
841291
835846
828164
830152
831752
827692
826661
821744
818483
809958
814003
806854
808065
804059
799392
792106
786411
769527
767554
746652
745406
727110
724907
726883
721945
725354
734510
739338
748690
752887
755062
750350
741580
730971
707356
714572
710540
699343
702400
695154
693994
698297
696036
704744
703399
712485
721200
720900
736381
731358
743893
732306
747711
739137
754446
768735
765388
809202
823124
835076
871024
897566
897297
913812
906537
889644
912004
936485
937769
936862
931576
924290
911614
886415
888273
844550
831992
784062
800492
735679
760767
707874
721557
693463
702531
693076
699814
696648
713077
708834
733535
725680
757830
747648
781023
765083
814706
794013
853002
857508
877895
879572
890488
890251
890257
892180
886421
885847
886329
887795
887280
886293
884492
879418
873288
862630
851119
842422
830396
830730
818880
844173
830220
860694
877727
892316
909860
914957
919551
895177
881533
879544
864558
864215
852350
847625
852805
859670
860598
864155
873672
874302
871668
872001
857047
847804
833823
832378
841734
854882
857305
895905
898583
913489
927156
931660
933957
934035
930435
922585
918664
897768
887414
887510
868716
864347
852620
846263
855765
853764
851863
852217
844253
843010
841517
840400
836527
844223
845601
855142
851480
867048
871389
878845
882567
882815
887776
883749
889367
887659
877074
851257
835505
855031
828799
834412
835995
839856
842672
847973
848908
856813
850837
858087
839848
834181
800226
795602
764378
765204
750664
743889
770410
772225
780365
811285
809646
830141
832926
849140
850681
861514
861522
868567
866068
861042
859666
860773
856302
855548
855255
850491
854017
856018
852236
845046
838649
829696
819581
808792
776131
765811
776644
782816
780355
784994
788964
803006
818581
825660
842128
851095
853361
866857
869730
870668
872372
876650
876727
884879
885189
888003
888566
887274
882918
872712
860514
832250
824186
775279
781291
736139
740231
738252
730024
749933
744362
804176
790289
838995
844559
877381
887443
908587
924108
931770
935696
937008
935955
938035
936990
943305
940852
931247
919668
904081
888375
856970
850932
841282
844176
855133
865818
875826
881679
882519
882548
882539
881456
880616
881048
884770
881954
887280
892569
897908
900336
907960
910438
910031
908791
911939