/*--------------------------------*- C++ -*----------------------------------*\
| =========                 |                                                 |
| \\      /  F ield         | OpenFOAM: The Open Source CFD Toolbox           |
|  \\    /   O peration     | Version:  2.1.1                                 |
|   \\  /    A nd           | Web:      www.OpenFOAM.org                      |
|    \\/     M anipulation  |                                                 |
\*---------------------------------------------------------------------------*/
FoamFile
{
    version     2.0;
    format      ascii;
    class       volScalarField;
    location    "0.004900000";
    object      rhoUnburned;
}
// * * * * * * * * * * * * * * * * * * * * * * * * * * * * * * * * * * * * * //

dimensions      [1 -3 0 0 0 0 0];

internalField   nonuniform List<scalar> 
12384
(
1.82678
1.95393
2.07119
2.16792
2.2206
2.22919
2.20498
2.14034
2.04
1.90867
1.7645
1.66316
1.70398
2.95594
4.82216
4.88253
5.30363
5.83046
6.05483
6.12728
6.06408
5.96091
5.86547
5.75295
5.64573
5.55411
5.47194
5.40782
5.3557
5.31038
5.28042
5.24774
5.2511
5.24781
5.23917
5.27581
5.25115
5.3004
5.36829
5.31178
4.92088
4.67346
4.78942
4.81286
4.65658
4.89231
4.97562
4.89204
4.83445
4.62901
4.63297
4.6058
4.62306
4.57532
4.57519
4.56254
4.60819
4.63367
4.68164
4.73628
4.80187
4.91862
4.90981
5.08386
5.00303
5.14238
5.06728
5.00943
4.97746
4.86274
4.83435
4.52687
4.65059
5.09968
6.10242
6.13099
6.21249
6.22912
6.36111
6.32016
6.51212
6.44729
6.67343
6.61536
6.84446
6.78225
6.98863
6.95779
7.06936
6.9552
6.85376
6.49045
6.62432
6.21751
6.40838
6.15352
5.95656
5.62248
5.62014
5.63519
5.54193
5.15573
4.74671
4.69514
5.68492
5.41224
5.18467
5.03442
4.90362
4.85606
4.76251
4.80811
4.72214
4.76492
4.80334
4.81731
5.03303
4.97984
5.32836
5.23741
5.55687
5.46173
5.54463
5.45602
5.45948
5.38205
5.33674
5.32081
5.35483
5.5227
5.39987
4.66037
4.5605
4.51309
5.93268
4.86522
4.63891
4.40436
4.24607
4.20414
4.18485
4.17131
4.16413
4.14398
4.13658
4.13557
4.11345
4.12124
4.11354
4.08813
4.10802
4.06034
4.1111
4.05876
4.12754
4.07853
4.12754
3.96764
3.94503
3.89161
3.8593
4.13042
4.47986
4.47782
5.968
5.71876
5.57655
6.12379
6.35556
6.75308
7.40458
7.92189
8.30536
8.60452
8.72518
8.74552
8.72704
8.68714
8.55102
8.51882
8.47371
8.29656
8.35481
8.19615
8.20811
8.17432
8.42422
8.29528
8.47331
8.62871
8.66192
8.40662
6.93453
6.71931
5.409
5.43266
5.16086
4.85505
4.90402
4.93409
4.94883
4.93162
4.9215
4.92748
4.94839
4.98632
5.03301
5.15167
5.20274
5.28329
5.31023
5.23772
5.37139
5.16941
5.1964
5.06584
5.07698
4.97382
4.91014
4.82489
4.72265
4.50267
4.18854
3.9804
6.56232
6.76808
7.34028
7.00832
6.23079
5.84907
5.7351
5.76757
5.88561
5.82759
6.00048
5.99502
6.18249
6.11648
6.19176
5.89462
6.05238
5.73284
5.43063
5.42586
5.16373
5.0156
4.98433
4.94032
4.837
4.73114
4.65906
4.70111
4.96371
5.4963
4.48218
4.4305
4.30226
4.2954
4.37215
4.53342
4.70482
4.78102
5.0028
5.25558
5.22334
5.48502
5.84127
5.86787
5.83077
5.98736
5.98343
5.88318
5.81832
5.82179
5.75538
5.76927
5.82002
6.00617
5.8784
5.12932
4.7238
4.67076
4.69471
4.71243
7.47873
6.45086
5.61259
5.3356
5.31573
5.33616
5.35115
5.42515
5.5325
5.46824
5.69043
5.8328
5.91484
5.98535
6.24451
6.18495
6.16213
6.17638
5.87151
5.77852
5.64657
5.51571
5.36804
5.32677
5.3492
5.53965
5.73865
5.66768
5.53311
5.46945
9.5136
8.42783
5.36074
5.38457
6.04684
6.63088
7.32601
7.80473
8.01942
8.16115
8.12172
8.18077
8.12065
8.14389
8.14814
8.16081
8.10336
8.0638
8.01053
7.9863
7.96053
7.96361
7.85514
7.71474
7.40833
7.03331
6.58289
6.02769
8.0121
7.21722
9.67062
9.34094
7.77503
7.42289
7.64489
8.77586
5.54068
3.89523
3.82177
3.90501
3.96013
4.00661
4.01105
4.0402
4.04179
4.07505
4.14047
4.23813
4.37528
4.55227
4.76266
4.92572
5.05027
5.25398
5.69279
6.606
8.3828
8.20532
7.39396
7.36235
2.48101
2.66988
2.77956
2.81661
2.80617
2.78578
2.78116
2.77126
2.69385
2.43862
2.07491
1.78186
1.69217
2.42145
4.93122
5.37898
6.18144
6.32594
6.19128
5.93914
5.8353
5.54247
5.36246
5.17432
5.0816
5.01441
4.936
4.83186
4.69978
4.56156
4.43721
4.33749
4.26389
4.23544
4.26569
4.32538
4.43342
4.68019
4.89671
5.16535
5.04949
4.71083
4.46258
4.47966
4.6591
4.95574
4.96493
4.81856
4.74786
4.65522
4.63167
4.56965
4.53329
4.57392
4.66891
4.73133
4.76474
4.80011
4.8318
4.90121
4.98562
5.11534
5.16215
5.24827
5.27039
5.33986
5.31075
5.29996
5.18724
5.04199
4.93051
4.69619
4.47523
4.37737
6.14594
6.16629
6.27044
6.28639
6.41751
6.37358
6.53648
6.46775
6.6409
6.59576
6.67589
6.71189
6.55151
6.13069
5.84016
5.69051
5.62927
5.69746
5.68022
5.64104
5.71492
5.56064
5.44258
5.26679
5.27613
5.35038
5.50215
5.37578
5.00696
4.69625
5.63713
5.23797
4.98874
4.81849
4.77476
4.78855
4.74422
4.78019
4.67979
4.67723
4.67769
4.7164
4.74702
4.83272
4.93401
4.98221
5.08654
5.16252
5.15811
5.14423
5.04061
4.97255
4.9495
5.00422
5.1238
5.35708
5.50887
5.15913
4.78302
4.54112
5.69498
4.74502
4.46059
4.22855
4.15211
4.14936
4.15787
4.15576
4.16388
4.17308
4.19198
4.1837
4.19275
4.17673
4.16944
4.14075
4.10997
4.07294
4.02403
3.97701
3.94761
3.90173
3.87969
3.87518
3.88329
3.87945
3.86363
3.95739
4.23113
4.37985
5.88451
5.69579
5.84626
6.45495
7.26375
8.32852
8.43147
8.44266
8.24445
8.10709
8.23826
8.48169
8.79219
8.77351
8.73843
8.57743
8.62449
8.45955
8.43854
8.36705
8.31398
8.29794
8.39627
8.31485
8.44589
8.55623
8.60103
8.65133
7.53021
6.699
5.31769
5.03747
4.82641
4.84506
4.82257
4.81773
4.82821
4.83209
4.81243
4.76109
4.72638
4.71948
4.74011
4.80625
4.86564
4.90712
4.99895
5.01405
5.0194
4.96294
4.96555
4.89181
4.89003
4.85868
4.82825
4.79168
4.73727
4.60025
4.34808
4.06788
6.63689
6.22537
5.875
5.78621
5.82288
5.87737
5.7574
5.5937
5.58254
5.54115
5.58304
5.56615
5.6919
5.63274
5.64516
5.60243
5.38843
5.24368
5.2679
5.09677
5.01307
5.00217
4.90234
4.91051
4.88238
4.83773
4.76937
4.69712
4.70564
5.0696
4.26192
4.27565
4.59639
4.89691
5.01773
5.03152
5.1018
5.19418
5.20833
5.45435
5.67528
5.56643
5.9582
6.05605
5.87705
6.01192
5.85115
5.70766
5.59923
5.54745
5.5214
5.57989
5.64194
5.82748
5.9754
5.82374
5.51885
5.4299
5.41651
5.3252
6.57294
5.74351
5.52173
5.48219
5.42407
5.36332
5.33976
5.381
5.42315
5.52595
5.75741
5.78691
6.11545
6.16304
6.31597
6.34558
6.30487
6.32108
6.03213
5.95357
5.80757
5.69707
5.58424
5.45455
5.34358
5.38872
5.48748
5.44751
5.36023
5.28559
8.81962
6.08331
5.35329
6.11419
7.35791
8.20036
8.49043
8.28711
7.89991
7.58039
7.5659
7.47211
7.45886
7.35168
7.22381
7.02953
6.80143
6.60248
6.46077
6.42983
6.48789
6.59813
6.79989
7.01406
7.10364
6.96241
6.67177
6.12458
6.9016
8.04223
8.2942
7.41738
7.99221
8.48642
6.28718
5.29075
4.10458
3.77801
3.79444
3.79755
3.75811
3.70905
3.68402
3.66467
3.65053
3.65543
3.66086
3.69901
3.78841
3.97768
4.34863
4.85324
5.28708
5.08132
4.74387
4.77288
5.45596
8.30667
7.63541
7.35361
2.75569
2.86366
2.87677
2.74923
2.5797
2.48054
2.49798
2.62568
2.78571
2.76949
2.48372
2.00154
1.71957
2.19472
5.19289
6.09341
6.48109
6.14162
5.90484
5.65977
5.31513
4.84475
4.68667
4.63874
4.69182
4.70278
4.59856
4.39616
4.14971
3.92645
3.75204
3.62841
3.54674
3.50439
3.507
3.56298
3.69541
3.95474
4.34268
4.77007
5.01731
4.7909
4.32724
4.22505
4.6947
4.95074
4.86954
4.76981
4.71577
4.65353
4.61087
4.54168
4.66861
4.78125
4.86638
4.88575
4.90186
4.87459
4.92585
4.97777
4.95218
4.9321
4.87662
4.92919
4.96894
5.03408
5.13181
5.20388
5.25417
5.22902
5.10641
4.8847
4.5144
4.1628
6.13446
6.22391
6.31442
6.33662
6.44207
6.36087
6.50471
6.38798
6.48141
6.38198
6.14245
5.74843
5.38135
5.28083
5.2418
5.37342
5.53269
5.63912
5.75061
5.73785
5.6232
5.46333
5.29971
5.12699
5.13504
5.14751
5.30331
5.44361
5.21311
4.76367
5.59345
5.08531
4.85018
4.78285
4.84
4.91483
4.82846
4.79268
4.62959
4.66931
4.60846
4.64437
4.73973
4.77942
4.80659
4.85183
4.91705
4.88339
4.94274
4.91151
4.85582
4.76539
4.67886
4.7012
4.83704
5.12627
5.44423
5.54757
5.23937
4.79592
5.53381
4.62382
4.31421
4.16287
4.14801
4.16485
4.17492
4.20467
4.249
4.29844
4.32697
4.36428
4.36011
4.33839
4.31529
4.2574
4.21442
4.11098
4.00971
3.89036
3.78832
3.70139
3.67812
3.69021
3.73907
3.80032
3.83957
3.88986
4.06863
4.31039
5.8344
5.79542
6.2842
7.04969
7.46744
6.80595
5.85006
5.74031
6.08069
6.53314
6.85995
7.09263
7.33382
7.59109
7.85823
8.38885
8.53036
8.43526
8.39119
8.39751
8.40134
8.32711
8.38903
8.29782
8.44634
8.4777
8.52407
8.58126
8.17563
6.88457
5.10407
4.80398
4.72207
4.6751
4.73159
4.82701
4.82521
4.7375
4.64423
4.57011
4.53632
4.54789
4.58486
4.63943
4.67813
4.75178
4.79817
4.81316
4.84786
4.73476
4.77718
4.70914
4.71716
4.71065
4.72584
4.7199
4.6991
4.60794
4.41585
4.13801
6.05566
5.80126
5.85275
5.75143
5.46015
5.25375
5.22272
5.23329
5.31232
5.4082
5.54015
5.54661
5.73227
5.61901
5.62232
5.52856
5.51248
5.18827
5.17009
5.01162
4.84802
4.84868
4.82249
4.78249
4.81403
4.83009
4.80893
4.76968
4.73543
4.96345
4.40846
4.84425
5.21339
5.07978
5.02041
5.10769
5.32676
5.60318
5.7819
5.94872
6.43708
6.24536
6.5962
6.87694
6.64835
6.74636
6.39956
6.21071
5.944
5.73857
5.62918
5.54401
5.54772
5.66357
5.90738
6.04405
6.08561
6.18007
6.05093
5.71998
6.18494
5.73259
5.58981
5.34521
5.17941
5.16375
5.25933
5.44058
5.62951
5.9513
6.22047
6.37284
6.80731
6.71974
6.78302
6.75821
6.76137
6.72319
6.34517
6.21908
6.03426
5.93859
5.82756
5.6793
5.55848
5.45472
5.43147
5.38524
5.32131
5.33071
6.23995
5.49603
6.10598
7.49176
8.05285
7.59654
6.76625
6.15856
5.95221
5.93023
6.00015
6.11703
6.20878
6.22662
6.10733
5.91013
5.68701
5.56156
5.52752
5.55413
5.57202
5.60459
5.63221
5.81993
6.07888
6.41275
6.45984
6.16743
6.36021
8.20355
7.82301
8.1231
7.28122
5.33109
4.43581
4.00175
3.74664
3.72969
3.72213
3.68545
3.65352
3.65132
3.654
3.65095
3.64413
3.63244
3.61736
3.59689
3.58841
3.60772
3.73511
4.18715
5.26478
6.08446
5.78026
5.11208
5.16666
6.87323
8.2279
7.36848
2.82525
2.87
2.67978
2.33486
2.13325
2.08332
2.11363
2.24209
2.52392
2.78281
2.69385
2.21987
1.78095
2.07991
5.52889
6.39618
6.19796
5.87329
5.67315
5.14272
4.63737
4.39106
4.37918
4.46529
4.60458
4.6148
4.37011
4.02705
3.71021
3.48018
3.33523
3.25453
3.2138
3.19911
3.18525
3.20474
3.24566
3.45655
3.81287
4.35846
4.81852
4.81994
4.34719
4.09647
4.77311
4.98859
4.86685
4.77091
4.7097
4.66403
4.56728
4.64318
4.8444
4.89052
4.8917
4.9302
4.90834
4.90139
4.88407
4.77701
4.62676
4.59702
4.56407
4.62432
4.64474
4.75014
4.84428
4.99228
5.10947
5.22593
5.21965
5.05393
4.64087
4.08666
6.19539
6.25262
6.35689
6.33922
6.41559
6.30486
6.35806
6.21654
6.23889
5.87022
5.42487
5.14856
5.04168
5.01917
5.25781
5.51943
5.84433
5.97748
5.8856
5.7642
5.48945
5.39749
5.10798
5.09868
5.01048
5.05999
5.18654
5.41933
5.30024
4.83402
5.56499
5.02261
4.80675
4.85502
5.04235
5.07091
4.89968
4.77027
4.65081
4.71312
4.74409
4.91401
5.04144
5.00594
4.9749
4.9425
4.75608
4.75024
4.66494
4.67202
4.64574
4.59072
4.5365
4.50699
4.60701
4.86794
5.30894
5.54658
5.41791
4.95598
5.48451
4.53846
4.25251
4.14821
4.15354
4.15736
4.1818
4.24587
4.32487
4.36159
4.41184
4.46148
4.48399
4.47242
4.43826
4.43252
4.34938
4.23543
4.00576
3.80187
3.63311
3.52012
3.4719
3.51655
3.56813
3.68195
3.77794
3.85829
4.00232
4.27296
5.83033
5.96097
6.48167
6.59563
5.77891
4.99104
4.97837
5.62167
6.39422
6.67157
6.7861
6.65725
6.50026
6.40423
6.33895
6.43174
6.63108
7.0944
7.91834
8.2692
8.37471
8.40585
8.41263
8.41671
8.48391
8.50812
8.49661
8.5205
8.55754
7.06499
4.94316
4.67524
4.62232
4.69494
4.82961
4.8086
4.73136
4.61109
4.52002
4.50482
4.50606
4.53444
4.56254
4.62745
4.68727
4.74114
4.73373
4.74042
4.77968
4.71731
4.65247
4.60483
4.59369
4.57981
4.62784
4.65705
4.6469
4.57895
4.41994
4.17142
5.90416
5.83115
5.53207
5.08462
5.01
5.07725
5.23147
5.46263
5.57379
5.58827
5.70061
5.63664
5.79202
5.74174
5.86834
5.65267
5.62137
5.4812
5.18062
5.04908
4.94634
4.75185
4.7209
4.6866
4.66834
4.73528
4.78664
4.78711
4.74954
4.93565
4.78418
5.21524
4.96393
4.94569
5.35026
5.82858
6.10783
6.29916
6.44651
6.51577
6.73158
7.03481
6.91298
7.20956
7.12123
7.18823
7.02527
6.8239
6.61142
6.18469
5.93012
5.7438
5.62884
5.60065
5.75538
5.92979
6.19622
6.36132
6.40208
6.05418
6.05078
5.80065
5.19223
4.98109
5.07688
5.34053
5.66045
6.01606
6.4984
6.83358
7.34467
7.31771
7.17676
7.18893
6.9964
6.92929
6.94506
6.96065
6.90447
6.64563
6.4259
6.20208
6.02704
5.97564
5.81157
5.55033
5.44473
5.43428
5.39166
5.34465
5.6272
5.88806
7.25417
7.93491
7.13218
5.99069
5.35598
5.13225
5.14348
5.2496
5.36908
5.56061
5.69284
5.78411
5.75076
5.58873
5.46734
5.51379
5.71424
5.96526
6.15536
6.02195
5.73094
5.52644
5.50326
5.79949
6.07195
6.05972
6.11479
7.82467
7.99653
8.25183
5.00581
4.19879
3.85151
3.70309
3.67551
3.68927
3.67215
3.6709
3.70083
3.72491
3.7555
3.75157
3.73597
3.71337
3.70342
3.67859
3.6509
3.61133
3.57056
3.63006
4.18952
5.86061
6.42654
5.51496
5.31022
6.37766
8.23591
7.21852
2.84534
2.78123
2.37394
2.04206
1.99453
2.03276
2.1008
2.20088
2.42356
2.74166
2.77174
2.37585
1.8364
2.02761
5.79279
6.31488
5.98901
5.73246
5.34997
4.65425
4.36124
4.3277
4.32125
4.47681
4.63228
4.52081
4.11612
3.69253
3.39693
3.22372
3.13045
3.08693
3.07347
3.08669
3.09537
3.09725
3.08021
3.17346
3.45046
3.97904
4.59935
4.77731
4.35328
3.98044
4.84725
5.00267
4.87847
4.78244
4.69658
4.59254
4.59755
4.74832
5.0059
4.91647
4.88193
4.92127
4.90435
4.84393
4.69551
4.49316
4.39908
4.39542
4.44379
4.51936
4.6213
4.66842
4.76551
4.83961
5.00541
5.15805
5.24385
5.14933
4.73304
4.03296
6.18971
6.29493
6.34257
6.3423
6.31603
6.19233
6.1387
5.99748
5.71786
5.50154
5.1451
4.93313
4.85051
5.087
5.46531
5.98195
6.14363
6.10271
5.93896
5.58728
5.39848
5.24186
5.00176
4.996
4.91812
4.96701
5.10814
5.36565
5.34831
4.86217
5.49084
4.95487
4.81132
5.0223
5.26055
5.20065
4.89982
4.77506
4.74619
4.91213
5.11767
5.363
5.28455
5.2027
5.09224
4.75285
4.67132
4.53207
4.51091
4.47324
4.47987
4.45677
4.39106
4.36613
4.43089
4.69043
5.1331
5.56313
5.58558
5.10984
5.44946
4.51941
4.2371
4.15802
4.13606
4.11543
4.14256
4.24105
4.33931
4.4324
4.47381
4.51321
4.57987
4.59591
4.6436
4.64987
4.61885
4.34136
3.98737
3.71096
3.53668
3.44773
3.37879
3.39917
3.47021
3.581
3.72632
3.82999
3.98088
4.27206
5.87433
6.06213
6.18278
5.58504
4.7721
4.63402
5.33888
6.35698
6.62497
6.59506
6.24866
5.54368
5.09784
4.93511
4.9466
5.07659
5.33465
5.59161
5.83056
6.64229
7.85898
8.35026
8.48616
8.49285
8.56569
8.55247
8.5177
8.47599
8.50491
7.16777
4.86125
4.57469
4.59007
4.77651
4.86327
4.76848
4.62087
4.54464
4.53773
4.51505
4.56402
4.59039
4.63115
4.65849
4.65156
4.72109
4.72528
4.71723
4.76785
4.6831
4.6595
4.52825
4.53495
4.50712
4.56637
4.61813
4.60386
4.52447
4.38873
4.18975
5.78419
5.59224
4.86664
4.90156
5.11738
5.4024
5.51597
5.54657
5.5778
5.46362
5.49788
5.42305
5.58808
5.61237
5.70455
5.74928
5.57973
5.53377
5.34254
5.08931
4.98555
4.84413
4.66944
4.64834
4.62129
4.62044
4.70215
4.79571
4.80166
4.96763
5.14003
5.07312
4.78749
5.56214
6.19821
6.43909
6.62512
6.59429
6.67711
6.94438
7.03686
7.39249
7.47242
7.0919
7.2244
7.06605
7.04587
7.05492
6.87178
6.62917
6.26632
5.92663
5.82539
5.68172
5.64743
5.87992
6.05711
6.19755
6.35993
6.08175
5.97433
5.40299
4.82934
5.03866
5.41984
5.82478
6.18755
6.63142
7.21812
7.35454
7.43309
7.53916
7.39466
7.22041
7.20966
7.21792
7.16007
7.21849
7.299
7.22533
6.83821
6.41841
6.37674
6.22676
5.9765
5.82242
5.63757
5.43085
5.33149
5.20601
5.67757
6.61586
7.82434
7.27824
5.82676
5.00298
4.72873
4.724
4.78035
4.87634
5.03763
5.20914
5.41297
5.54085
5.58699
5.54995
5.54941
5.92468
6.67931
7.36185
7.5909
7.44798
6.74716
5.98631
5.51109
5.51364
5.76859
5.90118
6.00739
7.63037
8.45141
6.11053
4.20733
3.81082
3.66932
3.63974
3.6623
3.67846
3.69595
3.73037
3.76542
3.78528
3.77836
3.79299
3.77982
3.76307
3.7373
3.73504
3.73217
3.71728
3.65782
3.56848
3.62787
4.73894
6.62432
5.85892
5.56867
6.44444
7.92534
7.01021
2.85127
2.66464
2.15448
1.9805
2.04251
2.17163
2.31537
2.45069
2.60157
2.80648
2.82287
2.44135
1.86651
2.00532
5.80195
6.04396
5.74129
5.50523
4.98285
4.47254
4.40619
4.35454
4.32088
4.50425
4.64303
4.36825
3.85725
3.45723
3.22911
3.09637
3.00638
2.94068
2.92815
2.96454
3.02399
3.04313
3.03401
3.05204
3.2328
3.72222
4.38417
4.71934
4.32483
3.91517
4.90473
5.04118
4.9034
4.81537
4.67663
4.58946
4.61102
4.80133
5.06645
4.9195
4.82745
4.90944
4.87622
4.72864
4.47356
4.30484
4.31718
4.43858
4.56797
4.74263
4.79203
4.8227
4.81615
4.89607
5.00171
5.14614
5.26498
5.1802
4.76718
3.93184
6.25674
6.31902
6.36591
6.27884
6.19483
6.0461
5.92386
5.89931
5.69313
5.36971
5.02849
4.79048
4.87128
5.27163
5.99877
6.29545
6.33037
6.06219
5.7936
5.50992
5.20616
5.04018
4.89524
4.89198
4.82665
4.94274
5.07896
5.37562
5.35053
4.86424
5.47058
4.91783
4.86019
5.2287
5.38584
5.23059
4.8863
4.81766
4.89304
5.25078
5.41271
5.35702
5.14869
4.98128
4.49551
4.30197
4.15454
4.10647
4.08607
4.12861
4.21333
4.27863
4.28531
4.26198
4.34003
4.56062
4.98586
5.47892
5.57543
5.12984
5.5144
4.51913
4.25089
4.15972
4.09762
4.02163
4.03299
4.13221
4.32137
4.46179
4.51683
4.5574
4.62982
4.7459
4.84335
4.98346
4.83752
4.45569
3.92865
3.6497
3.4746
3.41985
3.37801
3.36218
3.42943
3.55115
3.70364
3.83555
3.99217
4.30687
5.89732
5.95335
5.6197
4.81605
4.46336
4.78784
5.79867
6.50477
6.47675
6.06903
5.19424
4.65848
4.45102
4.39089
4.43872
4.62916
4.92182
5.23954
5.44115
5.55375
6.13969
7.49767
8.39762
8.54106
8.24217
8.15546
8.5587
8.48641
8.50578
7.10455
4.74949
4.53405
4.65251
4.80149
4.81019
4.75417
4.63544
4.5399
4.55976
4.61855
4.63756
4.64374
4.63918
4.56802
4.5545
4.54698
4.58916
4.65038
4.71488
4.64485
4.65851
4.52764
4.47345
4.49184
4.53639
4.60298
4.5827
4.47504
4.35448
4.17708
5.67513
5.0248
4.79896
5.10721
5.42141
5.56345
5.52964
5.44208
5.26461
5.21142
5.18833
5.24584
5.58406
5.66111
5.98362
5.90068
5.69533
5.5204
5.41431
5.20507
5.00583
4.88986
4.73944
4.59922
4.59585
4.60805
4.66804
4.78702
4.85596
5.04932
5.11798
4.78292
5.3295
6.34557
6.61951
6.70474
6.68391
6.87082
6.87115
7.44397
7.64863
7.67217
7.34671
7.05769
7.09288
7.01871
6.92377
6.92631
7.10476
6.74517
6.51792
6.21819
5.91622
5.70374
5.73424
5.77597
5.92425
6.25541
6.38186
6.07755
5.76887
4.90155
4.87949
5.36688
5.7484
6.07641
6.4729
6.96116
7.43636
7.54465
7.44093
7.62411
7.18978
7.19482
7.19531
7.13194
7.32392
7.36811
7.26201
7.49186
7.05174
6.97845
6.69157
6.34674
6.23384
6.06346
5.81799
5.61952
5.41325
5.25283
5.86952
7.24175
7.67089
6.23044
5.00679
4.56618
4.49591
4.54508
4.58283
4.69318
4.8384
5.03094
5.21658
5.43315
5.52852
5.58675
5.8057
6.56077
7.48695
7.56163
7.38473
7.46166
7.78018
6.63206
5.74114
5.45848
5.62812
5.79865
5.93103
7.68631
8.98461
5.18648
3.88208
3.66529
3.61311
3.62608
3.66346
3.69186
3.73336
3.77253
3.79878
3.8219
3.84036
3.7995
3.78182
3.7779
3.75544
3.74621
3.75915
3.78817
3.76745
3.65227
3.53845
3.83657
6.22684
6.5751
6.23092
7.25651
7.74455
6.87019
2.84349
2.56576
2.05431
2.00731
2.13964
2.2649
2.42336
2.62722
2.79969
2.88847
2.8432
2.4492
1.8967
1.99295
5.90338
5.93566
5.65156
5.34599
4.83952
4.60593
4.48466
4.28089
4.25546
4.53339
4.63748
4.2502
3.67996
3.32916
3.1467
3.01221
2.87876
2.77446
2.74733
2.81659
2.92471
3.00279
2.9976
3.00326
3.14323
3.55746
4.24746
4.63376
4.3002
3.85955
4.92416
5.04598
4.94354
4.8168
4.66154
4.57902
4.6671
4.84399
5.08886
4.83084
4.73351
4.90752
4.81215
4.57489
4.29875
4.25285
4.40701
4.62892
4.72805
4.88804
4.9382
5.05569
5.08787
4.99576
5.09029
5.21999
5.28602
5.17741
4.65498
3.79379
6.27115
6.37555
6.33883
6.20356
6.04577
5.94229
5.8089
5.85424
5.70653
5.35185
4.93682
4.77092
4.96791
5.7224
6.36588
6.55053
6.27327
6.04977
5.75877
5.30069
5.16156
4.81603
4.87504
4.79357
4.80658
4.94052
5.14083
5.38915
5.29977
4.80466
5.33899
4.90668
5.01006
5.39084
5.4017
5.1617
4.85041
4.90071
5.11084
5.45305
5.26554
5.05574
4.53358
4.10207
3.83323
3.69025
3.5895
3.59287
3.74918
3.94163
4.06466
4.11316
4.11821
4.1706
4.23303
4.44352
4.8916
5.35183
5.60753
5.13091
5.66358
4.6338
4.30659
4.176
4.06029
3.93995
3.8717
3.94815
4.20539
4.47932
4.59495
4.56913
4.71555
4.85422
5.12282
5.25605
5.10059
4.51115
3.90442
3.61343
3.48639
3.45727
3.41442
3.39759
3.44701
3.58614
3.727
3.84697
4.02708
4.34092
5.9034
5.7666
5.13337
4.51882
4.42974
4.83931
5.66285
6.26404
6.14548
5.53911
4.82192
4.36413
4.10506
4.02195
4.066
4.23748
4.58492
5.04896
5.33939
5.38185
5.40731
6.23922
7.50349
7.9608
7.7247
7.74345
8.49066
8.50362
8.33463
6.9962
4.67338
4.52458
4.75729
4.8711
4.81731
4.68962
4.65861
4.61294
4.60077
4.6824
4.73006
4.67263
4.6407
4.54988
4.47201
4.4787
4.51863
4.58296
4.71735
4.63173
4.64528
4.52108
4.45795
4.47087
4.58001
4.58004
4.49684
4.39253
4.28734
4.19253
5.4435
4.73393
4.94683
5.35103
5.53335
5.53335
5.37186
5.3104
5.04296
5.05098
5.07281
5.39468
5.71972
5.87792
6.02944
5.77037
5.61552
5.50367
5.39506
5.25969
5.09597
4.89323
4.76428
4.64198
4.54048
4.55945
4.69411
4.83711
4.90726
5.10402
5.05212
5.01337
6.09771
6.53826
6.66343
6.66434
6.86937
7.04286
7.41701
7.79653
7.607
7.69017
7.2776
7.11835
7.07775
6.9863
6.86556
6.88896
6.90528
6.82561
6.71428
6.25446
5.90933
5.87104
5.73742
5.71981
5.92913
6.13724
6.29248
6.01187
5.42377
4.72829
5.13748
5.52592
5.83693
6.20447
6.66297
7.14611
7.46997
7.73244
7.51645
7.4854
7.05573
7.29727
7.04937
7.02868
7.4362
7.23946
7.4673
7.69386
7.63263
7.2884
6.84132
6.69423
6.52446
6.25375
6.01784
5.81329
5.51639
5.24266
6.21492
7.71264
7.24529
5.4612
4.60087
4.38866
4.38625
4.39608
4.449
4.55099
4.68422
4.86655
5.1098
5.2992
5.49771
5.58167
5.9408
6.90451
7.79697
7.54039
7.36041
7.37879
7.55135
6.99351
5.83375
5.54769
5.59143
5.78471
6.16094
7.82153
8.90384
4.75858
3.74938
3.61122
3.59711
3.62733
3.67718
3.72899
3.76893
3.81814
3.84969
3.86491
3.84261
3.85146
3.81268
3.80901
3.75926
3.75158
3.76057
3.82501
3.84444
3.75065
3.57937
3.54313
5.0345
7.46374
7.25906
7.77664
7.1017
6.57476
2.84585
2.52163
2.07633
2.06289
2.1666
2.22564
2.31382
2.4785
2.71462
2.85411
2.83907
2.46683
1.9494
1.98561
5.86792
5.79038
5.5478
5.32783
4.98296
4.90444
4.46216
4.07842
4.18894
4.49407
4.65131
4.13562
3.57821
3.2704
3.11161
2.96042
2.7852
2.66093
2.63817
2.7191
2.85967
2.95196
2.9545
2.96506
3.09866
3.51694
4.18531
4.55094
4.22899
3.77906
4.63815
4.88958
4.9454
4.80211
4.63588
4.6
4.6865
4.87873
5.06894
4.71658
4.64787
4.88727
4.74173
4.43759
4.22208
4.3167
4.50968
4.74204
4.71426
4.8754
4.9557
5.14826
5.22609
5.16566
5.24059
5.31243
5.29165
5.06594
4.34988
3.60393
6.39524
6.35152
6.32325
6.1724
5.99205
5.84978
5.80487
5.85544
5.67672
5.29074
4.86705
4.76711
5.20869
6.2368
6.67989
6.47183
6.25799
5.85081
5.60569
5.10629
5.05567
4.70156
4.87167
4.77131
4.80649
5.00486
5.23966
5.36719
5.10017
4.70708
5.28539
4.84541
5.13515
5.41838
5.31925
5.06753
4.87458
4.9745
5.29079
5.27481
4.7729
4.34741
3.75292
3.59664
3.39039
3.34669
3.30621
3.42783
3.55934
3.75644
3.91487
4.03643
4.07644
4.07786
4.19048
4.44811
4.77896
5.3345
5.53656
5.14871
5.90851
4.69949
4.35114
4.18864
4.03895
3.82099
3.67118
3.69632
4.01233
4.4753
4.66242
4.58317
4.70303
4.97777
5.31742
5.56457
5.34319
4.60272
3.91687
3.64099
3.53146
3.50669
3.45394
3.49818
3.52778
3.67209
3.78
3.89232
4.10982
4.47453
5.83383
5.5196
4.78202
4.37724
4.39862
4.69115
5.23725
5.83628
5.95038
5.49914
4.71964
4.11956
3.875
3.87627
3.9967
4.15939
4.43857
4.82056
5.08493
5.16844
5.1538
5.50036
6.4974
7.16519
7.07702
7.55227
8.37797
8.58328
7.73466
6.79965
4.63031
4.49475
4.79141
4.86113
4.84275
4.72585
4.63823
4.68171
4.73334
4.73996
4.78709
4.72603
4.70028
4.56076
4.48896
4.36572
4.45293
4.59186
4.61996
4.64833
4.54302
4.49273
4.47189
4.55049
4.59579
4.57373
4.44085
4.35803
4.29976
4.21226
5.14542
4.81889
5.14466
5.43203
5.54063
5.50147
5.36292
5.21525
5.02408
4.98618
5.11545
5.47579
5.87004
5.94359
6.08877
5.80341
5.66423
5.51052
5.45373
5.40127
5.14514
4.95564
4.74784
4.61268
4.5665
4.57434
4.80739
4.97452
5.13182
5.30901
5.00518
5.46318
6.187
6.39636
6.46457
6.66233
6.83648
7.28883
7.68368
7.82945
7.57705
7.61988
7.21932
7.27653
6.93611
7.03079
6.83109
6.82511
6.93315
6.9788
6.48707
6.18701
6.04208
5.81547
5.76284
5.80927
5.93346
6.17885
6.26718
5.88422
5.09771
4.7538
5.20923
5.5118
5.86382
6.27914
6.76184
7.27701
7.59479
7.68396
7.40591
7.34586
7.11784
7.11083
7.04241
6.93403
7.31854
7.22395
7.36356
7.5153
7.61626
7.34771
7.20008
7.03004
6.74827
6.52021
6.26069
5.91736
5.52293
5.23155
6.5392
7.86485
6.65912
5.00838
4.42678
4.30818
4.28462
4.24614
4.25626
4.32426
4.5192
4.77499
5.0305
5.25783
5.41976
5.58969
5.93829
6.92291
7.637
7.58577
7.40998
7.47126
7.56763
6.76119
5.84658
5.6425
5.71015
5.92651
6.62249
8.12256
8.88037
4.59165
3.69585
3.59133
3.59545
3.63417
3.68808
3.75585
3.79173
3.83954
3.85223
3.83529
3.82379
3.81818
3.81034
3.83152
3.79212
3.75892
3.77113
3.84756
3.91529
3.82046
3.63733
3.50285
4.25031
7.66591
7.8956
7.69337
7.28449
7.22406
2.85222
2.56005
2.09096
2.0783
2.15896
2.20304
2.2819
2.37538
2.50279
2.65755
2.62078
2.25281
2.01355
2.39842
3.85572
5.10146
5.86734
5.65146
5.45148
5.31022
5.27849
5.1839
4.31932
3.91899
4.11517
4.49945
4.66738
4.13526
3.55584
3.26245
3.11038
2.97675
2.78142
2.63395
2.60458
2.67356
2.79065
2.86968
2.88931
2.95587
3.14428
3.58014
4.18943
4.46983
4.17278
3.77923
3.51033
3.64963
3.90143
4.34354
4.87094
4.86685
4.72923
4.60305
4.7138
4.91846
4.99074
4.57248
4.58585
4.8681
4.66818
4.3524
4.19592
4.37446
4.54415
4.73395
4.67416
4.92784
5.01613
5.24232
5.3445
5.37395
5.33002
5.36135
5.19066
4.69954
3.98835
3.58046
4.23283
5.3524
6.43203
6.44023
6.3048
6.10461
5.92707
5.85559
5.81524
5.85658
5.54728
5.24307
4.79178
4.85184
5.50841
6.60551
6.65249
6.33834
6.20893
5.73409
5.42512
4.98896
4.98014
4.7386
4.82649
4.85446
4.89377
5.07276
5.3359
5.19723
4.83652
4.73209
5.13867
4.7071
5.10828
4.9902
5.24516
5.34774
5.22404
4.99283
4.90895
5.08571
5.28806
4.89299
4.26325
3.77117
3.42174
3.36844
3.27611
3.32817
3.36752
3.45656
3.63894
3.80681
3.88166
3.95466
3.98269
4.01416
4.20119
4.39012
4.85949
5.21613
5.33037
4.77086
4.69577
5.77906
5.72941
4.86766
4.47437
4.2493
4.02739
3.79534
3.62621
3.62533
3.91625
4.40541
4.71871
4.61721
4.72822
5.00521
5.4899
5.73433
5.60174
4.72889
3.99897
3.69349
3.59458
3.56986
3.55693
3.59427
3.64936
3.72116
3.83641
3.95706
4.2434
4.43782
4.95938
5.16689
5.76808
5.23621
4.58737
4.38167
4.42171
4.54667
4.81594
5.28823
5.69394
5.49967
4.66175
4.00323
3.86447
3.96
4.20581
4.36012
4.54336
4.79945
4.80427
4.88592
4.96433
5.10478
5.82716
6.43284
6.80167
7.59793
8.2136
8.09735
7.40967
6.77029
5.07487
4.3266
4.54705
4.61692
4.81934
4.82394
4.8092
4.82346
4.70291
4.65628
4.7791
4.85283
4.81601
4.84724
4.80365
4.73783
4.59407
4.53745
4.53487
4.51187
4.54915
4.54887
4.53166
4.48792
4.57507
4.60855
4.56808
4.45189
4.35267
4.29731
4.36015
4.4191
4.62495
4.80104
4.8538
5.03672
5.30073
5.48656
5.56707
5.54794
5.42896
5.2413
5.03565
4.99738
5.00772
5.3966
5.7126
6.05544
6.06229
5.98382
5.96
5.74111
5.56831
5.42736
5.14862
4.86977
4.69055
4.56372
4.57402
4.73082
4.98059
5.20482
5.2811
5.22001
4.91061
5.01228
5.35321
5.7274
6.014
6.22171
6.4068
6.5024
6.89508
7.27032
7.65852
7.77039
7.53463
7.55347
7.36184
7.25124
6.95413
6.9436
6.90847
6.90113
6.68719
6.62952
6.13662
6.17644
5.9641
5.78856
5.85734
5.88384
6.06498
6.19182
6.03605
5.46871
5.09058
4.9709
4.92241
4.9902
5.21935
5.45639
5.8076
6.27437
6.84336
7.39902
7.66871
7.63354
7.2714
7.18711
7.00732
7.0235
6.99955
6.94302
7.16118
7.16487
7.39856
7.54985
7.57475
7.58458
7.47058
7.22588
7.04395
6.81638
6.42708
6.00231
5.56687
5.26123
5.20135
5.54215
6.89628
8.01249
6.24775
4.75946
4.35473
4.25527
4.18083
4.10105
4.12704
4.21067
4.37503
4.65317
4.97431
5.18867
5.37619
5.52973
5.83666
6.69979
7.47079
7.51097
7.49212
7.36003
6.9453
6.40335
5.90581
5.75891
5.90649
6.34935
7.95342
8.17656
7.82095
8.36619
8.59662
4.49414
3.68802
3.59209
3.59652
3.64057
3.69792
3.7584
3.81454
3.86156
3.84866
3.8867
3.8809
3.87898
3.83379
3.82935
3.80596
3.77637
3.78051
3.90001
3.97383
3.87498
3.65827
3.49057
3.78093
6.90466
7.80801
7.91568
7.77591
5.88604
3.13602
2.95149
2.86992
2.65086
2.17087
2.11831
2.2205
2.34791
2.54737
2.67752
2.58449
2.48464
2.36004
2.12231
2.13529
2.81826
4.08836
5.06396
5.19953
4.53126
4.16867
4.12883
4.4593
4.72718
4.0154
3.73449
4.087
4.41675
4.64813
4.17716
3.60909
3.29054
3.15765
3.05078
2.89218
2.72318
2.63854
2.6582
2.75305
2.82017
2.90137
3.04674
3.32107
3.75366
4.21702
4.38368
4.1345
3.82738
3.57997
3.53642
3.688
4.08719
4.60903
4.89296
4.83039
4.67661
4.73915
4.99165
4.83711
4.45827
4.53837
4.84482
4.63823
4.29237
4.18569
4.34068
4.55931
4.70894
4.78648
5.04168
5.22599
5.34348
5.47193
5.41397
5.40114
5.16109
4.66761
4.07824
3.73387
4.09303
5.27705
5.74261
6.29671
6.25764
6.31731
6.12378
5.95959
5.88998
5.88856
5.63875
5.48835
5.05961
4.82284
4.92306
5.77002
6.6492
6.40906
6.31083
5.94353
5.67411
5.23049
5.03227
4.93742
4.77577
4.89631
4.92289
4.99832
5.25097
5.1662
4.91606
4.9334
4.87033
4.77888
4.91168
5.04781
5.08907
5.16536
5.20464
5.15024
4.95487
4.95507
5.08339
5.09558
4.55049
3.96363
3.62216
3.39047
3.35281
3.3539
3.4296
3.49452
3.62606
3.73116
3.81261
3.8676
3.90382
3.95084
4.03183
4.22151
4.49181
4.87588
5.26983
5.31403
4.77122
4.71406
4.82226
5.53613
5.06932
4.55053
4.2934
4.09903
3.86347
3.68188
3.71767
4.00455
4.40554
4.71826
4.63651
4.67423
4.9948
5.50381
5.87563
5.79435
4.96084
4.16814
3.79565
3.67487
3.67601
3.65522
3.73166
3.76462
3.83029
3.93594
4.1045
4.35808
4.55665
5.06745
5.37679
5.59776
5.0245
4.50199
4.39538
4.39815
4.46219
4.5964
4.87638
5.29496
5.50986
4.75279
4.02772
3.93393
4.20975
4.55528
4.58155
4.60247
4.58518
4.57525
4.63531
4.80926
4.99523
5.48337
6.11869
6.87665
7.53945
7.64372
7.12285
6.37598
5.45625
4.30172
4.38868
4.58801
4.65297
4.71978
4.71034
4.78418
4.83457
4.82109
4.78596
4.8799
4.95239
4.94093
4.91439
4.95561
4.8452
4.76007
4.64389
4.55957
4.54886
4.55385
4.54571
4.56135
4.63114
4.62839
4.5978
4.51231
4.41874
4.40642
4.43273
4.4968
4.56557
4.70844
4.64669
4.77392
4.98881
5.21053
5.42994
5.58052
5.60493
5.57399
5.40674
5.15404
4.97491
4.97743
5.10933
5.4605
5.71238
5.98545
5.97789
5.87781
5.72651
5.48802
5.13851
4.95556
4.75704
4.66568
4.64364
4.87208
5.15975
5.4405
5.48171
5.2843
4.99471
4.85791
4.99216
5.06042
5.20937
5.62045
6.00458
6.17077
6.44798
6.74029
7.14315
7.54227
7.71702
7.55888
7.48431
7.38114
7.2373
6.59992
6.33941
6.49536
6.41052
6.46103
6.20328
6.06633
6.00543
5.89371
5.90118
5.97854
6.1145