/*--------------------------------*- C++ -*----------------------------------*\
| =========                 |                                                 |
| \\      /  F ield         | OpenFOAM: The Open Source CFD Toolbox           |
|  \\    /   O peration     | Version:  2.1.1                                 |
|   \\  /    A nd           | Web:      www.OpenFOAM.org                      |
|    \\/     M anipulation  |                                                 |
\*---------------------------------------------------------------------------*/
FoamFile
{
    version     2.0;
    format      ascii;
    class       volScalarField;
    location    "0.004900000";
    object      Xi;
}
// * * * * * * * * * * * * * * * * * * * * * * * * * * * * * * * * * * * * * //

dimensions      [0 0 0 0 0 0 0];

internalField   nonuniform List<scalar> 
12384
(
4.66785
9.52632
11.6594
13.5114
14.6282
14.9416
14.2611
12.7438
10.9381
9.13855
7.3852
5.7233
4.41137
5.25617
30.8952
42.7655
54.8937
65.8445
73.0364
75.8733
77.3141
76.7503
77.1141
77.5749
78.5998
80.4221
82.7744
85.6052
88.4816
91.0533
92.997
93.5228
93.0252
91.3738
88.6784
87.2321
81.6913
77.5117
69.6196
56.0412
38.974
27.2231
21.2
16.3477
36.5612
44.7542
49.0929
50.5459
52.5788
52.1502
55.1568
56.3288
57.6025
57.1635
57.4741
57.5671
59.1923
61.3551
65.7987
71.1331
77.0284
84.5544
87.7193
95.6562
93.3775
95.338
89.3884
82.8217
75.6056
64.0807
50.7358
33.4847
23.8465
19.0863
52.4932
67.2194
78.3064
87.7693
96.5019
103.459
110.964
115.926
121.902
125.591
129.712
131.753
135.63
139.595
145.755
149.676
154.24
149.97
162.277
150.422
159.945
147.492
131.361
115.259
108.779
99.5545
83.415
55.6514
30.5626
23.0451
50.0403
58.0408
61.1758
63.4755
64.4438
66.6604
67.7256
70.9105
72.8408
77.4011
83.749
87.5789
101.029
101.581
120.055
117.322
133.557
128.213
132.535
127.363
124.542
117.185
109.431
101.408
92.2057
79.9628
54.5069
29.6115
25.4487
25.985
25.7839
27.3429
30.8557
32.264
33.1011
34.5233
36.2408
38.5039
40.1355
41.1982
42.4117
44.8785
48.1367
52.6826
57.4163
61.4281
67.3384
70.1511
75.9156
75.1248
77.1767
71.1878
70.4625
61.6886
57.6214
51.1121
45.056
41.9576
37.5224
29.8301
30.9162
34.0736
37.6371
47.0492
52.6468
59.8482
70.6275
80.8319
88.6755
95.1457
98.4478
101.082
103.544
106.506
109.06
111.732
113.533
113.083
112.56
110.953
110.708
110.037
110.187
108.716
107.158
104.499
100.007
89.1391
61.7537
43.2814
26.7412
30.8471
36.953
43.6586
51.4068
56.4569
59.5824
61.07
62.1914
63.7346
66.4686
70.2527
74.2115
79.8057
81.7097
83.238
82.1439
78.7364
80.4068
71.1676
69.3863
62.0406
59.9053
54.2889
51.458
47.409
44.3237
39.5842
33.3106
26.8074
31.8594
36.7119
62.2896
73.152
72.8236
74.3464
77.3821
83.0509
91.6838
96.2794
106.343
110.888
119.106
116.965
116.801
105.683
109.755
96.4413
88.079
84.9451
74.717
67.7534
62.9249
57.4189
51.7045
45.5604
38.8618
31.5405
23.9033
17.4228
27.5546
31.8709
39.682
45.2403
49.313
53.7226
59.1272
63.286
72.7411
86.1073
90.054
102.311
118.822
124.79
121.766
126.735
128.402
121.755
119.058
115.171
109.477
104.768
99.9702
96.5999
87.2489
69.992
59.863
55.1223
51.8418
52.0332
46.9293
52.6337
55.0415
57.6163
60.8506
64.2853
68.6643
76.4301
86.9312
92.7408
105.866
116.607
125.109
126.254
136.909
134.737
134.67
136.424
126.526
122.977
116.62
109.902
102.096
95.5462
87.022
77.4696
69.2804
61.775
56.4126
58.0888
41.9991
49.3732
43.5139
51.9582
64.2782
74.9602
86.3942
94.7621
96.2835
98.5501
96.5672
95.2936
94.1279
94.4329
96.5163
99.9779
103.426
107.547
111.549
115.052
117.412
117.497
114.041
109.247
99.3119
86.0951
68.0514
44.7206
32.1723
13.0105
13.9869
20.4943
23.625
23.682
28.5177
37.415
28.7709
29.7119
37.0657
43.8267
48.5353
52.0737
54.4245
57.9082
60.7404
61.0383
58.6287
54.8228
49.0985
41.7569
31.5799
18.2246
7.55729
4.98636
4.5882
4.48473
5.06742
5.24114
4.88178
4.173
10.4123
14.012
16.4142
18.5381
20.2027
21.5304
22.5698
23.1259
22.274
18.8789
14.3417
10.6584
8.23264
10.6759
33.7369
31.2374
39.9267
43.3568
43.9148
41.8172
41.4778
39.7215
40.911
43.3895
48.2248
54.6395
61.8525
68.9862
75.2686
80.4944
84.7467
88.2252
90.3857
92.2802
94.2711
94.6987
94.2006
95.9928
92.1753
86.8975
68.78
46.3145
27.292
24.7276
35.9762
24.4591
25.3922
27.0395
30.7681
35.3459
39.3701
40.417
39.983
39.256
38.7615
39.021
40.361
44.0967
49.5789
57.0333
65.5203
76.2521
84.4677
94.6172
99.6199
105.426
104.418
102.207
94.7925
84.4941
72.8558
57.8022
40.8742
30.9576
56.134
55.3999
65.9646
74.8313
81.7335
85.7699
87.7395
87.1284
85.1282
81.0273
77.3787
75.294
74.9963
76.08
82.9098
92.9002
105.704
121.157
133.667
141.923
153.346
148.618
142.183
129.662
121.878
114.007
104.687
84.8427
58.2714
43.8389
49.4194
45.7552
47.0273
47.3875
48.6828
49.7577
50.3303
52.3196
54.1083
58.4693
65.5579
73.4264
84.0498
94.2238
107.205
115.141
124.146
129.942
129.289
127.401
120.303
112.787
105.528
98.9297
92.441
85.7221
75.3708
55.6893
33.3238
33.7693
32.6367
27.3526
32.412
35.9548
39.2387
41.4092
41.9276
41.1206
39.6393
38.3436
37.9851
38.5764
41.4031
45.5254
51.2129
57.7882
65.3283
72.8362
80.1297
86.2397
91.6812
94.862
94.068
90.6942
85.175
74.6913
61.8437
47.913
34.9178
39.3928
37.4094
29.825
37.0181
47.0264
57.0855
68.4293
68.9274
67.7361
65.249
65.4515
70.3289
79.9214
93.5524
106.424
120.358
133.421
145.784
154.897
160.817
162.425
160.04
155.315
150.103
144.122
139.435
134.322
127.24
116.089
82.9458
69.8932
41.5521
30.7199
32.2655
34.3512
35.1866
35.8029
37.1243
40.2455
45.948
54.136
64.5169
75.9046
87.637
100.037
110.536
117.723
123.12
122.633
120.301
110.07
104.254
91.8297
84.6653
73.3259
63.6674
53.0987
44.3437
36.2775
28.8459
35.512
54.867
37.4902
38.9007
42.594
49.1801
60.4014
72.733
84.6723
100.133
112.914
127.734
136.688
151.223
154.223
158.923
154.903
143.521
132.025
125.327
107.109
95.5158
83.7314
70.0946
59.7451
50.1497
42.463
36.5887
31.9674
28.3342
37.0005
40.156
23.5048
25.9959
30.5129
36.8464
46.0508
59.0751
74.6786
86.7297
105.599
126.449
132.505
155.459
171.949
167.155
176.435
168.693
157.92
147.448
137.372
126.701
117.25
106.488
97.0309
85.4389
68.1229
49.8164
40.2149
38.9048
66.1479
61.3759
31.1265
31.907
37.0444
45.9301
58.8207
73.932
89.9096
105.856
120.611
144.027
154.263
178.889
188.471
199.706
202.754
198.474
193.951
172.953
160.78
143.302
127.223
110.886
93.688
77.3897
65.1404
53.5848
41.5686
37.1379
62.4603
68.8562
29.1807
31.3288
43.4748
62.6361
80.4977
90.515
90.633
85.3489
78.1462
74.6734
67.7777
62.3709
57.7732
56.5814
58.4979
62.0851
67.3622
73.8925
81.344
89.0037
95.2706
101.137
104.521
103.212
95.5074
83.0514
64.4679
57.3241
56.5749
27.448
26.0225
34.9915
41.3595
36.1043
39.8061
42.577
50.3011
59.692
66.6241
70.696
72.2636
73.031
71.6256
69.1652
65.3656
60.3389
54.9636
49.3109
43.6967
37.4638
26.9421
9.85678
4.25731
3.19576
2.73563
2.63403
3.18511
3.03813
5.01282
15.7695
17.9034
19.1104
18.9357
18.1612
17.9349
18.7896
20.6756
22.6847
22.4156
18.7129
13.2942
9.86856
12.1915
41.6767
39.3359
45.374
44.817
44.2023
42.3284
40.1686
37.4426
39.0946
42.6473
47.9079
53.5145
58.274
61.6846
63.8061
65.4721
66.9841
68.4225
69.4027
70.2026
70.965
71.3944
72.9569
76.238
81.1806
83.2986
77.7696
58.7648
37.394
30.1338
38.5731
24.9591
26.4208
29.0581
33.5933
37.5963
39.7815
39.773
40.6827
41.5847
43.8409
47.2955
51.2421
55.5428
61.8517
68.9532
74.7737
81.2178
85.2507
91.9881
96.645
100.133
103.303
103.026
100.573
94.3049
83.8994
69.724
51.0776
40.5078
61.0212
61.4049
71.1225
79.2115
84.8482
87.4712
88.2227
85.4687
81.8422
77.2609
71.6771
68.807
69.2959
77.6486
87.5853
102.358
117.009
130.556
145.088
150.318
154.034
146.381
139.224
125.178
118.335
109.115
103.84
94.2626
72.5965
62.4104
49.3675
44.1556
43.3197
45.2801
49.1414
53.3008
55.7054
58.9566
61.0078
66.5933
72.1508
77.4437
88.3986
94.9001
104.125
108.919
117.95
117.385
120.741
117.281
112.215
105.438
98.285
94.0372
91.6406
90.613
86.5748
75.1098
53.9547
46.1665
37.1419
30.6118
33.9856
37.2588
40.2979
42.4201
43.4969
44.4686
45.5602
47.0568
47.9966
49.4296
50.8324
52.5153
55.3164
57.8919
62.7888
66.1734
71.4961
74.4294
78.3893
79.4174
81.9296
79.8741
79.3172
74.4382
66.4148
54.3613
41.1431
44.8094
41.8653
35.589
45.8651
57.3215
63.1425
56.7275
47.2206
46.516
50.8752
58.1913
66.1076
74.7329
84.7728
96.3545
109.365
128.496
139.286
146.312
150.826
151.527
147.696
139.793
131.892
125.067
121.801
119.758
118.653
115.422
98.9799
80.7784
50.6914
32.827
34.5472
35.2365
36.5307
38.6115
41.1
46.1779
54.5825
63.8714
73.088
82.3822
91.6751
101.652
109.285
117.473
120.966
119.82
119.044
106.466
101.999
89.4132
81.9275
72.628
64.7036
54.9062
46.4378
38.6628
31.7329
39.9229
65.2281
39.2011
42.3618
47.2166
53.4481
62.7054
76.1323
89.1506
103.475
116.45
132.555
140.126
157.454
157.491
161.936
158.274
156.507
135.322
130.678
114.464
99.8414
90.735
79.2299
67.4985
57.936
48.9557
41.3754
35.6264
31.0892
41.2438
47.1622
28.5395
31.3499
35.4626
44.0953
57.1365
73.1548
91.2417
107.068
121.326
150.15
155.434
174.985
202.077
195.546
206.704
192.603
180.081
163.164
148.822
137.064
126.016
116.941
108.825
101
87.956
70.3396
54.1531
44.5387
74.816
63.9613
32.7574
34.4254
41.1873
52.6741
66.6316
81.1499
96.5697
112.753
132.629
155.931
168.674
200.917
203.87
214.293
215.504
213.076
208.925
182.938
170.99
153.776
140.442
126.069
110.669
95.679
79.9362
66.4393
53.2432
42.3467
69.29
55.5918
31.3629
42.8391
66.2393
85.5818
89.0313
83.9239
77.5019
76.8725
75.0028
73.8003
70.4866
66.6969
62.4695
58.8005
57.0308
56.1733
56.835
59.8453
64.3338
68.5345
72.4787
74.5941
77.9474
80.5045
83.8554
80.7431
70.1405
60.927
73.3665
36.938
31.7635
33.1603
32.485
37.1227
45.052
53.1025
61.8429
68.3917
71.9939
73.5422
74.6487
74.3803
73.609
71.2037
68.0841
63.9816
59.3405
54.2113
48.5352
42.2788
35.0459
19.6037
7.41321
4.76111
3.26108
2.76091
2.89804
3.24502
5.52513
19.1183
19.7822
18.5066
15.7365
14.1954
13.8424
14.2319
15.6394
18.7877
22.0822
21.3481
16.1832
11.7574
13.596
52.2181
47.6201
48.5251
47.5827
46.3016
40.984
37.2659
37.4301
41.5832
46.8609
52.7419
57.2879
58.0882
57.0347
55.699
55.1701
55.5559
56.5587
57.8491
58.5993
59.0388
58.8818
58.4822
62.337
67.9338
76.6135
79.2842
68.0662
46.2966
35.1278
41.9068
27.7736
30.1143
34.4375
38.2477
40.8319
40.2355
40.2977
41.7717
45.0217
51.0751
57.3486
60.6752
65.6227
71.1376
74.8772
75.7031
78.9771
80.2026
84.048
85.5016
89.4893
91.9427
95.6076
97.0927
96.8994
91.045
78.9355
60.0488
46.1747
67.32
71.4945
78.4642
83.4339
86.4788
85.9985
83.7673
78.7887
75.1399
70.0793
66.9821
69.6028
76.867
86.3096
102.973
119.252
138.646
151.037
153.606
155.145
146.642
140.795
128.586
121.52
111.285
105.711
101.512
98.2625
81.7722
74.0325
51.2342
46.5764
41.8293
44.5315
51.7289
58.0006
61.7535
65.6461
70.2304
76.5392
82.9264
89.2383
98.1631
99.5979
102.413
108.407
104.911
109.439
105.977
105.451
102.165
97.4916
93.1326
89.5357
89.2056
90.8014
93.0048
85.6683
67.7804
59.0962
42.1308
34.7357
36.5651
38.9936
41.1979
42.6951
44.437
47.1756
50.854
53.566
56.0745
58.168
59.4643
60.6987
60.9289
62.7239
63.1835
64.6582
63.4616
63.4271
62.8634
64.5497
65.4257
68.7979
69.639
70.4643
66.8566
58.2983
46.119
48.5329
46.9435
43.2754
53.5247
56.6429
48.7081
41.3636
42.0785
50.5608
62.9336
71.0727
76.3326
77.7001
78.4618
81.4084
85.9076
93.587
102.891
115.788
135.171
142.474
139.897
131.519
120.63
111.574
106.855
106.429
109.149
112.888
111.826
88.3372
56.5634
35.5481
36.6356
38.0201
39.9976
41.6667
46.9328
55.2207
64.2236
72.6208
78.8247
84.6914
89.9033
96.4362
102.82
109.757
110.967
111.519
111.661
103.566
95.8263
86.5726
78.3283
69.5256
62.9841
54.7825
46.6809
39.812
33.7779
42.7872
71.3085
43.4018
44.273
47.4595
57.6769
70.4475
83.8459
98.3509
110.4
116.853
129.119
132.494
146.61
149.072
159.685
154.824
155.511
144.045
129.265
118.741
106.88
92.0449
82.7998
71.6001
60.8068
52.4568
44.8271
38.3845
33.5758
44.0916
54.0642
32.5218
34.0815
42.3708
59.3304
80.184
95.9309
109.818
120.427
130.429
142.044
164.737
165.904
192.332
193.481
205.704
200.69
195.837
183.925
162.62
148.363
135.978
125.694
116.836
110.154
99.8612
87.2443
68.6377
53.3221
83.6369
66.1874
35.7497
36.629
46.0685
60.4008
75.9728
91.8824
108.296
131.773
151.696
181.267
196.223
206.331
215.499
217.948
217.824
214.838
209.34
196.173
180.923
163.823
146.775
133.883
124.763
110.116
92.3239
77.714
64.0021
50.7152
74.2179
55.4256
41.5721
65.571
88.8861
89.883
80.1614
77.522
76.3456
79.0206
80.167
79.6934
78.9873
75.6646
72.1681
68.4004
65.1618
62.9101
62.032
63.0657
65.6164
68.6353
68.6207
66.9311
66.2527
66.4832
71.4625
74.7093
71.7633
64.0189
73.6628
47.0088
35.2288
29.4246
34.687
43.0216
52.4342
61.3651
68.5771
72.1195
73.6187
74.3891
74.2464
74.2551
72.3027
70.0903
67.4933
65.4908
62.4785
58.9538
54.0839
47.4149
39.0904
26.0533
10.2565
6.64884
4.00529
3.10702
3.05875
3.61637
5.94468
21.3609
20.1556
16.4901
13.7909
13.1166
12.8831
12.9794
13.9316
16.5814
20.9084
22.4991
18.9036
13.7002
15.0088
61.4024
54.1193
52.5949
50.4752
45.4697
37.6096
36.1547
39.9274
45.3165
51.8242
57.8256
59.5863
56.6187
52.4207
49.5454
48.1146
47.7026
48.1114
48.9685
50.3093
51.2078
51.4934
51.0449
52.9377
58.3325
68.8654
78.7419
73.7772
54.2943
38.0096
45.5015
31.0245
34.2872
38.2679
40.6632
40.6235
39.4768
38.67
42.1326
49.2589
59.0847
65.268
68.0408
73.0524
76.118
75.9472
74.9246
75.1976
74.6369
75.2511
76.6232
77.6154
81.0563
84.0228
89.8028
94.5542
94.2795
85.7422
67.2268
48.515
73.5372
83.2369
85.6813
86.3646
84.5716
80.2288
75.3491
70.9914
66.413
67.9077
70.2202
76.3268
84.1735
99.7116
118.945
144.146
156.981
161.662
158.062
142.565
134.682
124.34
113.877
109.396
102.798
99.7044
99.4005
99.796
89.1339
80.8263
53.6777
49.9891
41.4653
45.1623
55.1199
62.9589
66.5804
72.2693
80.5434
88.1312
98.2831
103.309
103.193
97.8648
100.041
90.7591
93.6014
90.9628
93.8817
93.1262
92.3221
89.819
86.3548
84.6731
85.3836
90.0103
95.2717
94.1731
79.3634
69.1268
46.7761
39.8547
39.8849
40.9579
41.3907
41.6381
43.4767
47.918
53.5083
58.9317
62.4805
64.5593
67.2725
68.0673
69.7017
69.716
70.7151
65.785
59.1632
52.7444
49.0244
48.4708
51.7464
57.2036
61.6927
65.2706
66.4419
60.3161
50.231
51.156
52.6338
51.4848
55.6009
49.414
40.8978
40.1595
49.3209
66.3814
76.3595
79.3424
74.3832
65.5842
63.4697
65.5013
69.9694
75.6462
84.011
91.5
96.6712
111.86
130.595
131.769
121.145
108.018
98.5964
96.913
102.525
112.083
118.358
91.2223
61.9644
37.971
38.6431
41.1279
43.534
46.4208
53.8442
64.7857
73.8433
78.2884
81.5109
82.67
84.1977
86.5734
87.6567
92.8256
95.1019
95.711
98.5217
92.8055
89.2893
79.4318
74.463
65.8718
60.5923
53.3954
46.0685
40.0238
35.4876
45.2312
75.0442
45.2576
43.6058
53.8195
68.0571
82.7153
91.7231
95.988
101.557
100.357
105.564
104.725
114.786
118.28
128.202
133.798
134.29
134.376
126.536
113.894
106.772
94.5544
81.7539
72.9646
62.3658
52.6818
45.6047
40.2513
36.2105
46.7328
59.8668
35.1167
39.1661
59.9672
84.0936
98.3191
109.071
111.982
114.658
124.711
129.811
144.92
151.418
156.585
165.21
171.067
177.578
178.992
178.591
169.849
155.051
140.942
134.187
123.277
114.263
108.603
94.4698
75.7479
58.3847
85.0949
67.4403
35.5079
39.1103
54.1396
71.7382
88.7306
104.437
122.57
149.998
161.715
184.027
196.568
206.388
214.183
220.482
220.86
216.196
209.61
200.64
191.213
166.396
148.014
142.287
130.391
116.427
104.822
88.8737
70.6035
55.0168
74.8037
61.5784
58.0785
88.0534
94.9873
82.8309
76.6853
78.3934
81.0698
84.3985
85.5846
86.8881
86.4435
85.3568
81.7108
78.2861
75.6645
73.448
74.1901
79.853
84.4209
82.4644
76.2925
66.6608
61.9317
60.1279
64.5599
70.3584
72.0348
67.0194
70.997
56.7719
30.5851
31.1104
38.8161
48.4423
58.2985
66.5026
71.4635
73.3091
73.3762
72.2716
70.3095
67.5701
66.8099
65.2941
64.4729
63.6227
63.3973
61.8857
58.8259
53.048
44.0937
31.2236
12.3294
8.07311
4.76773
3.5159
3.42832
4.06674
6.30942
22.622
19.3843
14.9519
13.5616
13.4626
13.3708
13.3871
14.3494
16.7369
20.7769
23.4351
20.7469
15.4671
16.6297
67.3032
58.7511
54.2492
49.8412
41.7002
35.5472
37.1229
42.3346
48.0262
55.0968
60.7706
59.145
53.5933
48.8143
45.6703
43.093
41.0091
39.0558
38.8017
39.8599
42.6809
44.0943
45.874
46.8508
52.2666
63.0168
76.5275
78.1494
60.4792
40.994
48.6112
34.3305
37.0083
40.3762
40.5514
39.3836
36.4853
35.5332
41.8227
54.2392
65.0672
70.4022
72.8258
77.8694
77.1916
75.5001
73.6154
73.716
70.9064
69.8989
66.8005
66.0284
68.4093
75.2658
83.6557
92.0554
96.3886
90.186
72.254
46.6878
79.7626
94.9102
92.3956
87.105
79.9313
72.3505
66.6254
64.7032
65.618
70.0133
76.3746
82.5639
93.3465
112.015
142.769
161.17
169.144
159.076
145.367
128.023
112.024
100.582
95.31
93.6018
92.1033
95.7485
97.8124
102.863
93.9609
84.5031
57.7509
54.2617
42.2617
47.3566
58.3706
66.3402
70.961
78.7163
90.336
101.787
111.825
104.337
98.469
91.7277
77.8654
71.938
69.0677
70.3295
70.7068
73.8945
77.526
80.3173
80.5074
80.1428
83.1164
88.5239
95.7582
98.3703
86.7414
75.0346
52.4023
44.4422
42.9588
42.4032
40.7714
38.8326
39.9222
45.0346
53.4813
61.5495
66.2909
69.5852
71.9773
75.6258
77.0664
80.698
77.7751
70.4548
57.85
47.8803
37.1237
34.5519
39.8238
47.5724
55.5412
62.2653
65.2602
62.3927
53.0608
52.7716
59.0024
57.8447
54.299
44.0047
39.5906
43.4626
58.6747
75.4858
81.0056
75.3778
63.7244
60.4123
62.9208
65.775
68.4356
72.3448
77.6407
84.5687
90.6499
91.7198
101.583
120.036
125.957
111.496
92.2221
86.4832
99.7065
113.719
124.642
90.9602
65.2987
41.6939
42.2385
43.8114
46.7758
53.4081
63.3469
73.3283
81.542
83.8674
82.0156
80.0149
77.4924
73.3034
70.7474
70.0031
71.9285
76.27
79.8974
79.1865
79.2495
73.1012
68.3819
63.7144
57.5954
51.8062
45.1718
40.3137
36.837
46.3215
78.1947
44.4696
49.7757
65.5753
79.9542
88.1673
90.6183
89.2725
86.0438
83.4787
83.1529
80.9716
87.8137
87.4413
98.2219
104.802
109.831
112.318
115.064
107.308
99.9218
92.4239
81.3343
70.139
61.7501
52.8106
45.4956
41.1539
38.8466
48.7556
60.3409
36.9334
52.824
82.336
99.6119
109.057
110.739
116.004
114.218
126.245
131.561
130.709
128.374
127.4
129.727
134.3
140.955
149.38
158.908
156.284
154.905
145.547
134.123
124.792
120.16
110.141
97.951
82.8401
62.5657
87.5675
66.1167
34.6911
44.8224
64.847
83.2166
99.1992
116.391
136.14
158.988
166.177
178.477
184.395
187.208
193.469
198.898
204.489
206.874
202.458
193.578
186.206
163.554
157.691
142.134
128.369
122.219
110.74
95.0871
78.4724
59.7
78.4138
70.2205
77.9469
101.296
90.4179
79.4768
77.8761
81.6613
85.3104
87.1255
89.9911
92.3124
94.0489
93.0253
91.3852
87.1194
85.5134
86.1563
92.6558
102.348
95.1122
78.527
65.7579
63.2624
58.3468
57.9538
62.0071
69.4171
72.8456
68.2723
60.0072
66.1115
30.5595
33.4378
42.3237
52.4429
61.8271
68.6592
71.5568
71.6378
69.3478
65.8312
62.4619
60.211
57.0441
57.2419
59.0482
61.029
62.6857
63.2523
62.1239
57.5963
48.6824
36.1093
15.4624
8.59648
5.97177
4.34005
4.38742
5.01329
7.05542
23.6721
18.5866
14.3963
14.0323
14.4814
14.2103
13.8465
14.8998
17.5535
21.2562
23.978
21.9443
17.1824
18.5871
75.3827
65.3405
56.82
48.8948
39.6303
36.0366
38.5021
42.8629
48.3908
56.9357
61.5318
58.2618
51.4048
46.7283
43.0149
39.1809
34.4052
30.4678
28.22
29.4218
33.1732
37.534
40.1636
43.3848
48.2513
59.1873
74.5952
79.8912
65.8034
43.4801
52.142
36.9908
38.7149
40.2638
39.5117
36.8099
33.3896
32.4698
42.9018
57.4674
67.3788
72.877
75.129
79.1069
76.1565
75.3896
74.7195
73.8166
66.4483
60.6443
53.0242
52.7865
59.9259
68.5772
81.4792
93.0661
98.6691
92.8124
72.8157
42.6219
85.0973
105.566
97.4178
86.3532
74.4788
64.5684
58.14
59.2695
66.358
74.741
81.3618
88.5602
100.364
128.493
158.832
174.38
166.353
153.594
133.065
106.595
91.079
74.7723
77.2879
78.7455
85.3075
93.1487
99.7076
105.182
95.8576
82.6406
60.7344
58.9823
45.3609
51.102
60.9902
68.272
74.143
85.4061
101.145
112.037
112.239
99.3334
87.9607
69.7973
61.9111
54.7974
50.6486
49.2974
55.0935
61.9641
67.8352
70.7311
73.091
75.9059
79.1114
85.5987
95.8439
99.626
93.4522
76.4191
59.4705
51.2225
47.4711
44.5155
40.248
36.0701
35.2623
40.3926
50.8874
61.7615
69.3354
71.7921
76.9038
80.2108
86.4545
88.6479
85.8676
73.7863
59.9329
48.4139
36.8495
29.4301
34.1899
43.2235
52.6105
61.6059
65.2174
62.9468
55.6735
52.3129
65.5857
62.9014
53.0596
43.372
40.298
45.3083
59.4616
74.9572
78.4841
71.1393
64.4299
64.1476
66.2489
67.6896
68.1276
68.1973
70.316
75.613
81.6795
83.6552
84.7368
98.5453
113.041
106.861
88.3907
82.2738
100.587
117.85
125.64
86.8602
69.6937
46.2063
47.123
48.6088
51.8296
59.6354
72.971
82.6115
86.0986
87.5138
84.8388
80.383
74.6781
67.926
59.0757
53.2587
51.9762
55.9092
63.951
66.1739
70.3833
67.616
65.0231
61.1465
57.3234
49.8233
43.8272
39.8534
37.1247
47.4657
79.8117
46.7425
59.8537
76.9742
87.4415
90.8622
88.4388
86.6825
80.9857
78.3458
77.5478
77.6656
77.8586
71.3282
69.6094
70.0294
82.1123
92.1858
99.5818
98.4146
94.9029
86.4304
78.787
68.83
58.6934
51.5026
46.1266
42.8832
41.0555
49.8099
62.8252
44.9858
72.0527
94.6258
108.52
113.179
120.518
124.303
131.465
140.118
135.793
132.129
123.053
112.968
102.967
96.98
100.681
113.164
128.563
137.092
147.013
137.692
130.451
129.058
119.538
110.994
100.952
82.3165
62.8892
86.0944
63.2681
36.9207
53.9686
74.0256
91.9764
110.631
130.805
150.488
167.269
176.028
172.878
167.777
160.524
160.209
160.14
166.33
176.624
179.68
179.186
174.746
168.174
152.556
137.187
132.084
124.262
112.354
99.5809
83.4857
63.0673
78.024
82.4893
99.0009
107.193
86.7282
79.3092
79.5786
82.837
84.1062
86.8204
90.2783
93.6173
96.4571
98.768
96.6605
94.1028
91.3905
94.3868
105.452
117.042
103.192
82.4245
61.2375
52.5594
58.7082
58.8229
65.3855
70.7288
74.4856
71.4626
49.1943
70.3861
31.8628
35.5646
44.7468
54.7819
63.2822
68.6689
70.5632
68.8235
65.1683
60.3869
54.8734
49.2779
47.8716
49.6098
54.8692
58.521
62.6292
64.4122
64.5736
60.7174
52.2978
39.7334
20.8171
8.93221
7.78816
6.29274
6.41724
7.06012
10.7465
23.8203
17.6706
14.3794
14.4343
14.9158
14.4233
13.8374
14.4248
16.8977
20.5298
23.9541
22.8511
19.0251
20.701
81.1184
70.0262
56.1575
46.987
39.0007
37.7285
38.4323
40.3765
47.3355
55.5478
60.9109
55.622
49.4054
45.0551
41.454
36.1238
30.0337
24.6032
21.2631
21.6055
26.1524
31.9434
36.3746
39.8284
46.0023
56.8749
72.7702
78.9643
68.8675
44.4489
53.7823
39.2519
38.9438
39.4377
37.4268
34.5188
30.4013
31.5344
44.5393
58.7135
67.0292
72.4431
75.3125
77.4627
75.2102
76.8658
75.3772
73.3811
61.4677
52.7682
43.2414
45.1114
57.0512
70.8563
86.3032
98.1449
100.808
91.6315
67.8035
38.4079
88.964
114.597
100.941
85.0465
69.4982
56.9241
50.7362
56.6037
67.9867
77.9767
84.6918
90.73
106.94
143.146
171.451
172.48
162.395
137.429
115.678
85.3639
69.1303
54.1115
63.8509
71.8447
83.0242
95.1246
103.752
106.218
91.3651
78.0879
63.9176
63.2442
48.2581
53.4337
62.6794
69.686
78.2551
90.5557
111.024
111.561
103.935
87.8354
72.2534
61.5469
55.2196
47.379
42.8919
43.0615
46.344
53.8444
61.1426
67.6488
71.0888
72.2783
78.3057
86.0556
93.5114
102.426
95.3049
79.2655
69.5126
55.8296
49.8385
45.8352
40.0891
32.6419
28.8297
33.0917
45.022
60.3783
69.2634
71.4133
76.1063
84.265
91.306
96.7699
91.945
77.7138
61.549
52.7322
43.1871
37.0841
37.5232
46.4509
53.2939
63.3816
64.7297
63.4274
56.676
53.7259
70.9725
66.4516
52.3233
43.0032
40.0628
43.6019
54.7514
69.6662
77.3845
74.9132
68.489
67.0786
69.6382
72.2213
72.6535
69.5208
66.6694
65.0088
65.3599
68.7259
73.7775
81.4832
95.3179
95.9957
82.6216
85.3435
105.432
123.343
116.996
82.7451
75.8121
50.7635
50.4301
52.2077
58.4532
67.3883
79.2293
90.6434
94.6004
92.2192
90.3837
84.6597
79.783
71.6133
61.8847
51.2951
45.755
48.7722
54.476
62.865
65.3991
66.8627
64.7945
62.7313
56.945
50.377
43.8504
40.6343
38.4249
48.3145
83.2442
56.9883
72.2129
86.7026
94.6243
96.1378
93.5207
89.6546
85.9583
84.0242
87.0853
89.7602
94.9828
87.2038
82.1433
74.0159
80.324
86.8094
95.6034
97.4265
91.3689
84.7455
75.3077
66.4179
58.004
50.4403
47.6205
45.2232
44.4506
52.1963
67.7316
58.0773
83.3693
101.449
111.803
121.951
127.774
139.95
150.762
154.018
150.787
147.833
136.857
124.282
104.102
85.725
74.5765
83.5448
105.277
125.884
127.796
130.533
130.912
124.684
120.291
114.013
100.674
82.5285
62.6501
83.0501
63.279
43.0225
62.3973
81.466
101.417
123.206
145.768
166.561
183.697
183.582
175.077
161.472
147.126
132.339
120.166
119.699
132.188
146.852
150.689
158.359
153.086
144.633
139.516
133.103
124.082
115.927
103.404
84.9596
63.0209
76.2346
95.9167
116.027
106.853
85.405
80.0055
79.4998
79.3369
76.8341
76.8221
80.2743
88.7188
97.2627
102.013
101.317
96.1126
94.8788
97.6346
110.734
119.608
110.149
92.5383
76.19
69.9608
67.9915
66.0621
71.5046
75.6107
76.6455
75.435
41.6538
76.0948
33.7062
37.0448
45.9611
55.6151
63.2876
67.2323
68.488
65.3915
60.2047
53.2423
43.9272
34.9066
34.2778
43.2299
53.2648
59.2554
63.6356
66.3364
66.5964
63.5648
54.5131
42.2334
26.1917
11.1367
9.44212
10.3723
11.8822
14.6909
23.564
24.1957
17.4705
14.3008
14.6169
15.3158
15.2209
15.1588
15.4866
16.6736
19.8328
22.7208
22.2525
22.1393
29.2122
64.1153
90.5081
92.6492
76.5973
58.8499
48.217
43.0245
41.598
37.1885
38.0414
44.9443
54.0853
59.0399
54.4834
48.305
44.6737
40.7005
35.8459
29.1367
23.545
19.9114
19.8121
23.6925
29.0381
33.2644
38.2713
45.0364
56.2688
70.9611
77.0713
71.5031
53.6179
50.8522
52.0296
47.1827
44.3223
43.1423
40.8709
37.916
32.9369
29.5124
32.6775
45.7256
57.4106
64.7469
70.0662
72.8952
74.6881
74.0169
77.4516
75.7724
73.6986
62.1617
56.7136
49.7891
55.3521
69.0733
84.1252
95.4065
103.871
99.8554
83.3388
59.2731
39.1283
54.9198
77.7028
109.959
119.532
102.164
82.9063
65.6869
52.5675
48.6845
57.9913
68.9935
80.4676
84.1436
91.4262
109.983
150.679
168.626
163.608
153.7
124.512
100.706
72.9962
57.9469
48.5296
61.2385
75.7971
87.1385
99.7282
109.961
101.44
82.8777
68.3989
72.1704
77.9832
83.3054
73.02
55.517
57.6986
65.0078
71.2163
81.6604
96.8847
114.695
106.119
96.2876
77.3085
69.7945
62.4538
59.1469
54.0029
52.3816
50.7078
55.2002
60.66
64.6613
68.3159
70.7951
71.9617
79.7664
83.9507
96.8012
98.8241
94.4136
70.8613
72.8722
91.9256
73.4554
62.0233
54.6138
48.1463
39.8482
31.0516
25.4972
28.5526
40.5737
55.9599
68.0786
69.4182
74.9527
83.0894
94.5413
99.6914
97.8474
80.7264
64.3028
57.0664
50.5815
47.0364
46.9827
52.577
58.2326
62.8279
65.0594
61.2526
56.6166
48.5923
62.1943
70.9596
81.8484
68.0489
52.9617
43.9423
39.4001
40.5605
48.0009
60.342
72.8188
76.4659
70.8906
69.9104
75.5028
80.2734
82.6597
76.9999
68.6433
62.0885
51.9546
53.6567
63.5609
70.8422
82.6697
85.7722
83.8107
94.7354
111.1
117.699
109.084
88.681
88.8163
90.3103
79.2579
61.6005
57.6214
57.671
63.955
76.0939
85.2554
92.7611
98.9392
98.6884
94.3706
93.2699
88.8322
84.4375
75.7602
69.4609
63.4266
62.7515
65.8339
69.4139
71.7569
70.0738
70.0215
65.2607
57.7038
49.3911
43.9578
40.7934
42.2604
55.3335
90.558
110.282
84.1711
81.442
90.5901
99.6978
104.636
105.418
102.644
97.9485
93.822
95.1943
96.959
108.094
116.781
124.802
122.317
118.856
118.58
111.324
108.261
103.259
93.7417
83.0174
73.8611
64.5814
57.3031
52.3618
49.4613
47.7482
46.1724
51.9554
82.1144
94.5091
76.6666
79.5391
93.1949
107.192
119.102
125.329
138.398
150.704
162.72
168.108
168.116
168.107
161.811
150.319
132.678
116.307
104.168
103.104
106.794
119.093
119.269
130.194
127.566
123.944
123.395
114.452
101.932
81.1851
61.6438
60.1812
76.6295
78.9746
61.0901
60.1148
72.6516
88.8553
109.26
133.625
160.657
184.472
202.904
197.151
188.8
169.306
157.877
136.335
117.328
100.164
103.275
123.549
135.604
148.327
145.805
146.28
141.043
133.822
129.005
120.616
104.699
84.2895
62.2183
53.0918
71.9366
85.4598
108.935
131.967
106.81
84.9657
80.3111
77.2207
71.6274
63.6579
62.7305
69.1416
80.6578
93.0367
101.317
101.241
95.2109
92.3908
95.3589
106.936
118.198
113.32
103.784
93.2043
84.2231
80.1961
77.0784
78.9897
80.9616
81.9073
89.0864
69.5823
94.4322
111.216
68.2696
35.7853
38.136
46.1779
55.0357
62.0126
65.6769
66.0231
63.3225
57.9727
49.4594
40.5338
30.8682
35.1811
45.9346
55.5778
62.2124
66.3086
68.2914
69.1941
65.2132
55.9126
43.0817
29.1515
14.3077
10.4124
16.0652
21.484
24.8543
19.0802
7.16228
3.22699
23.635
17.0101
14.2136
14.577
15.9668
17.1868
18.7403
19.6818
19.0154
19.2818
20.9113
22.2064
26.7494
41.6194
66.6314
86.7747
88.8582
60.3001
45.7713
39.6873
39.0662
39.2108
33.7024
34.1211
42.0126
49.5456
55.218
52.1936
47.477
43.8348
41.066
36.9672
31.7356
26.2916
22.8324
22.6665
25.5066
28.9951
33.736
38.7784
46.3756
56.4811
66.5789
69.9941
66.7673
64.6006
56.4653
52.6365
52.3752
50.5942
48.0078
44.8571
39.9919
33.3599
29.9555
34.8668
45.7911
54.834
61.1016
65.6306
69.2905
70.7885
72.4773
75.9891
77.6791
77.0012
71.5799
71.0281
70.3332
76.5311
88.8732
98.0584
106.46
103.243
89.1118
69.1305
51.5238
42.618
47.7421
74.798
122.085
113.876
98.9399
79.7702
63.7646
53.9159
54.3364
60.8068
72.2755
78.1107
83.4293
86.7338
108.285
145.88
156.074
159.164
138.397
118.558
91.9714
75.1689
62.6766
59.1799
72.1565
84.1626
96.6935
112.093
109.599
97.2605
88.0878
80.9911
96.3597
119.777
108.466
76.5286
59.6878
60.914
67.2731
72.3737
84.3893
99.4152
113.055
102.669
93.0796
79.2753
76.3561
70.6925
72.4787
70.3889
71.8928
72.3619
74.5459
75.1298
76.5349
75.4364
76.8728
76.5271
82.4107
86.8176
95.4127
98.87
93.3479
72.3671
62.062
59.0796
73.6061
65.7708
55.014
48.5153
41.3458
32.6881
26.4195
28.2424
38.2589
51.4678
62.973
64.6189
69.0058
79.5002
92.0966
101.79
101.352
85.0194
68.3841
61.5268
56.9938
56.2223
55.1923
60.1034
61.7639
64.4456
63.2332
59.3439
52.4413
45.9741
45.6889
62.3883
82.2507
67.8071
52.9021
43.7793
36.9045
36.2528
42.4929
52.2748
64.1998
75.6925
73.5917
72.7778
81.2315
91.3099
97.1899
86.4532
74.4657
63.3294
54.0671
52.2444
60.9061
69.5085
78.1118
85.0198
93.9604
106.556
113.013
106.415
91.0904
73.0298
64.6773
81.0335
84.3395
68.8399
63.0622
61.7986
68.1237
80.0561
92.5824
100.759
106.532
106.833
103.556
100.341
99.9603
95.714
92.9936
88.1399
84.6319
83.272
83.075
81.6812
80.626
79.5663
74.3695
67.7238
59.6795
54.3469
53.8584
60.1911
72.3768
85.1422
98.9119
96.1776
91.8334
92.9508
100.561
108.607
114.284
115.7
115.46
111.044
105.455
102.991
109.268
115.422
133.802
141.087
154.746
150.928
146.069
134.58
123.418
105.377
96.1142
83.2517
74.3707
65.2411
61.2923
57.5122
56.3635
55.2357
57.9472
65.4481
76.362
84.6916
80.9988
80.7323
93.7929
109.221
118.903
130.882
142.234
155.413
169.868
179.018
182.848
186.125
186.63
180.861
155.688
139.886
138.284
132.298
134.61
129.671
130.465
131.325
130.794
129.084
126.457
118.234
102.286
81.3126
62.6205