/*--------------------------------*- C++ -*----------------------------------*\
| =========                 |                                                 |
| \\      /  F ield         | OpenFOAM: The Open Source CFD Toolbox           |
|  \\    /   O peration     | Version:  2.1.1                                 |
|   \\  /    A nd           | Web:      www.OpenFOAM.org                      |
|    \\/     M anipulation  |                                                 |
\*---------------------------------------------------------------------------*/
FoamFile
{
    version     2.0;
    format      ascii;
    class       volScalarField;
    location    "0.001300000";
    object      N2;
}
// * * * * * * * * * * * * * * * * * * * * * * * * * * * * * * * * * * * * * //

dimensions      [0 0 0 0 0 0 0];

internalField   nonuniform List<scalar> 
12384
(
0.747452
0.747049
0.746693
0.746694
0.746416
0.746526
0.746744
0.746525
0.745769
0.74514
0.744919
0.744688
0.744672
0.7449
0.747126
0.748293
0.749444
0.7501
0.750296
0.75041
0.750578
0.750574
0.750433
0.750155
0.749662
0.749049
0.748358
0.747649
0.746965
0.746323
0.745794
0.74542
0.745109
0.744916
0.744801
0.744736
0.744734
0.744711
0.744749
0.74472
0.744727
0.744728
0.744732
0.744739
0.745527
0.745824
0.745783
0.745689
0.745553
0.745441
0.745252
0.745116
0.744964
0.744876
0.744792
0.74478
0.744742
0.744756
0.74475
0.744752
0.74475
0.744755
0.744746
0.744755
0.744747
0.744753
0.74475
0.74475
0.744751
0.744749
0.74475
0.744749
0.74475
0.744745
0.744747
0.744753
0.744751
0.744755
0.744752
0.744755
0.744752
0.744756
0.744752
0.744758
0.744753
0.744759
0.744755
0.74476
0.744758
0.744761
0.744758
0.744759
0.744758
0.744758
0.744758
0.744757
0.744758
0.744757
0.744758
0.744756
0.744757
0.744757
0.744757
0.744746
0.744746
0.744758
0.744758
0.744759
0.744759
0.744759
0.74476
0.744761
0.744761
0.744762
0.744763
0.744764
0.744766
0.744767
0.744767
0.744768
0.744767
0.744766
0.744765
0.744764
0.744763
0.744762
0.744762
0.744761
0.744761
0.74476
0.74476
0.744759
0.744759
0.744746
0.744746
0.744759
0.744759
0.74476
0.74476
0.744761
0.744761
0.744762
0.744762
0.744763
0.744764
0.744764
0.744766
0.744767
0.744768
0.744768
0.744767
0.744766
0.744765
0.744764
0.744763
0.744762
0.744762
0.744761
0.744761
0.74476
0.74476
0.744759
0.744759
0.744746
0.744746
0.744759
0.744759
0.74476
0.74476
0.74476
0.744761
0.744762
0.744762
0.744763
0.744764
0.744764
0.744766
0.744767
0.744767
0.744768
0.744767
0.744766
0.744764
0.744763
0.744763
0.744762
0.744761
0.744761
0.74476
0.74476
0.74476
0.744759
0.744759
0.744746
0.744746
0.744759
0.744759
0.74476
0.74476
0.744761
0.744761
0.744762
0.744762
0.744763
0.744764
0.744764
0.744766
0.744767
0.744768
0.744768
0.744767
0.744766
0.744764
0.744764
0.744763
0.744762
0.744762
0.744761
0.744761
0.74476
0.74476
0.744759
0.744759
0.744746
0.744746
0.744759
0.744759
0.74476
0.74476
0.744761
0.744761
0.744762
0.744762
0.744763
0.744763
0.744764
0.744766
0.744767
0.744768
0.744768
0.744767
0.744766
0.744765
0.744764
0.744763
0.744762
0.744762
0.744761
0.744761
0.74476
0.74476
0.744759
0.744759
0.744746
0.744746
0.744758
0.744759
0.74476
0.74476
0.744761
0.744761
0.744762
0.744763
0.744763
0.744764
0.744764
0.744766
0.744767
0.744767
0.744768
0.744767
0.744766
0.744764
0.744763
0.744763
0.744762
0.744762
0.744761
0.744761
0.74476
0.74476
0.744759
0.744758
0.744746
0.744746
0.744759
0.744759
0.74476
0.74476
0.744761
0.744761
0.744762
0.744762
0.744763
0.744764
0.744764
0.744766
0.744767
0.744768
0.744768
0.744767
0.744766
0.744765
0.744764
0.744763
0.744762
0.744762
0.744761
0.744761
0.74476
0.74476
0.744759
0.744759
0.744746
0.744746
0.744759
0.744759
0.74476
0.74476
0.74476
0.744761
0.744762
0.744762
0.744763
0.744764
0.744765
0.744766
0.744767
0.744768
0.744768
0.744767
0.744766
0.744765
0.744764
0.744763
0.744762
0.744762
0.744761
0.744761
0.74476
0.74476
0.744759
0.744759
0.744746
0.744746
0.744759
0.744759
0.74476
0.74476
0.744761
0.744761
0.744762
0.744762
0.744763
0.744763
0.744764
0.744765
0.744767
0.744768
0.744768
0.744767
0.744766
0.744765
0.744764
0.744763
0.744762
0.744762
0.744761
0.744761
0.74476
0.74476
0.744759
0.744759
0.744746
0.755669
0.75409
0.753572
0.754257
0.754056
0.754404
0.755415
0.754998
0.754236
0.752542
0.749629
0.748175
0.746844
0.74619
0.755202
0.757056
0.75732
0.757158
0.756775
0.756839
0.756955
0.757256
0.75758
0.757958
0.758053
0.758109
0.757984
0.75761
0.757052
0.756119
0.755236
0.754276
0.753182
0.752141
0.750886
0.749594
0.748298
0.747128
0.746041
0.745472
0.745169
0.744853
0.744903
0.744746
0.754715
0.755465
0.755453
0.755213
0.754905
0.754534
0.753969
0.753341
0.752583
0.751783
0.751145
0.750309
0.749781
0.749052
0.748596
0.748062
0.747621
0.747284
0.746817
0.746576
0.746145
0.74597
0.745742
0.745589
0.745547
0.745416
0.745434
0.745339
0.745387
0.745006
0.747481
0.747629
0.747581
0.747365
0.747195
0.74696
0.746792
0.746615
0.74647
0.74636
0.74624
0.74618
0.746094
0.746098
0.74603
0.746038
0.745929
0.745923
0.745832
0.745845
0.745779
0.745789
0.745731
0.745734
0.745687
0.745685
0.745654
0.74566
0.745635
0.745123
0.745144
0.745715
0.745727
0.745748
0.745754
0.745766
0.745796
0.745808
0.745839
0.74585
0.74588
0.745896
0.745947
0.745987
0.746005
0.746009
0.745979
0.745946
0.745902
0.74589
0.745862
0.745854
0.745825
0.745814
0.745784
0.745772
0.745765
0.745741
0.745728
0.745112
0.745113
0.745724
0.745738
0.745763
0.745768
0.745795
0.745803
0.745832
0.745839
0.745869
0.745877
0.745912
0.745948
0.745984
0.746011
0.746001
0.745985
0.74594
0.745916
0.745883
0.745877
0.745848
0.745841
0.745812
0.745801
0.745774
0.745763
0.745749
0.745721
0.745126
0.745112
0.745728
0.745742
0.745766
0.745772
0.745786
0.745816
0.745827
0.745857
0.745865
0.745893
0.745905
0.745948
0.745974
0.746004
0.746004
0.745995
0.745945
0.74591
0.745872
0.745859
0.745828
0.745822
0.745794
0.745787
0.745761
0.745757
0.745735
0.745722
0.745114
0.745112
0.745729
0.745749
0.745761
0.745786
0.745794
0.745825
0.745833
0.745861
0.745866
0.745893
0.745905
0.74595
0.745979
0.746011
0.746004
0.745989
0.745942
0.745916
0.745883
0.745877
0.745848
0.745842
0.745812
0.745802
0.745775
0.745764
0.745749
0.745721
0.745126
0.745124
0.745715
0.745746
0.745755
0.745781
0.745789
0.745818
0.745825
0.745853
0.745859
0.745886
0.745898
0.745945
0.745979
0.746011
0.746003
0.745988
0.745943
0.745917
0.745884
0.745877
0.745848
0.745841
0.745812
0.745801
0.745775
0.745763
0.745749
0.745721
0.745126
0.745127
0.745721
0.745744
0.745769
0.745778
0.745805
0.745815
0.745843
0.745848
0.745876
0.74588
0.745911
0.745933
0.74598
0.745997
0.746012
0.745988
0.745954
0.7459
0.745876
0.745863
0.745835
0.745825
0.745797
0.74579
0.745763
0.745759
0.745734
0.745723
0.745112
0.745127
0.745718
0.745749
0.745758
0.745784
0.745792
0.745821
0.745828
0.745856
0.745861
0.745888
0.745899
0.745944
0.745976
0.746009
0.746005
0.745991
0.745946
0.745918
0.745885
0.745877
0.745847
0.74584
0.745811
0.7458
0.745774
0.745762
0.745749
0.745721
0.745126
0.745112
0.745729
0.745744
0.745758
0.745779
0.745789
0.74582
0.745829
0.745859
0.745866
0.745895
0.745907
0.745952
0.74598
0.74601
0.74601
0.745982
0.745951
0.745906
0.745893
0.745865
0.745858
0.745829
0.745821
0.74579
0.745782
0.745759
0.745746
0.745729
0.745113
0.745126
0.745719
0.745752
0.745762
0.74579
0.745797
0.745828
0.745834
0.745862
0.745865
0.745892
0.745898
0.745941
0.74597
0.746006
0.746006
0.745993
0.745949
0.745921
0.745887
0.745879
0.745849
0.745843
0.745812
0.745802
0.745775
0.745761
0.745749
0.74572
0.745127
0.759753
0.758386
0.758841
0.759776
0.760065
0.759918
0.759655
0.759565
0.759358
0.759396
0.758907
0.757986
0.755333
0.753725
0.759759
0.758577
0.756005
0.753175
0.752232
0.751172
0.750453
0.750694
0.751638
0.753401
0.755531
0.757434
0.758742
0.759601
0.760063
0.760416
0.760596
0.760677
0.760772
0.76078
0.760775
0.760579
0.760275
0.759541
0.758818
0.756841
0.754641
0.75281
0.751337
0.75058
0.760706
0.76044
0.760374
0.760412
0.760483
0.760556
0.760612
0.76068
0.760704
0.760762
0.760741
0.760764
0.760763
0.76073
0.760765
0.760695
0.760756
0.760692
0.760731
0.760707
0.760674
0.760695
0.7605
0.76053
0.760204
0.760164
0.759834
0.759761
0.759515
0.75974
0.761054
0.760761
0.760712
0.760682
0.760683
0.760653
0.760665
0.760614
0.760641
0.760574
0.760613
0.760546
0.760574
0.7605
0.760511
0.760478
0.760514
0.760518
0.760536
0.760539
0.760539
0.76055
0.76055
0.760562
0.760566
0.760575
0.760576
0.76058
0.760582
0.761027
0.76104
0.760559
0.760541
0.760527
0.760516
0.760506
0.760487
0.760471
0.760454
0.76044
0.760424
0.760406
0.760371
0.760335
0.760325
0.76032
0.760339
0.760371
0.760399
0.760415
0.760428
0.760439
0.760453
0.760466
0.760483
0.760492
0.760498
0.760511
0.760528
0.761038
0.761039
0.760533
0.760513
0.7605
0.760491
0.760479
0.760468
0.760454
0.760444
0.760429
0.760417
0.760398
0.760364
0.760337
0.76032
0.760322
0.760341
0.76037
0.760396
0.760413
0.760424
0.760438
0.760448
0.760462
0.760475
0.760488
0.760499
0.760509
0.760528
0.761038
0.761038
0.760528
0.76051
0.760496
0.760494
0.760481
0.760464
0.760451
0.760437
0.760426
0.760413
0.760397
0.760371
0.760344
0.760325
0.76032
0.760332
0.760365
0.760398
0.76042
0.760435
0.760451
0.760461
0.760474
0.760485
0.760496
0.760503
0.760515
0.760536
0.761039
0.761038
0.760527
0.760511
0.760497
0.760484
0.760473
0.760458
0.760447
0.760435
0.760425
0.760413
0.760398
0.760369
0.760339
0.76032
0.760319
0.760338
0.760368
0.760396
0.760413
0.760424
0.760437
0.760448
0.760462
0.760475
0.760488
0.760499
0.760509
0.760528
0.761038
0.761038
0.760534
0.760513
0.760499
0.760488
0.760477
0.760464
0.760453
0.760441
0.76043
0.760419
0.760402
0.760372
0.760339
0.76032
0.76032
0.760338
0.760367
0.760395
0.760413
0.760424
0.760437
0.760448
0.760462
0.760475
0.760488
0.760499
0.76051
0.760528
0.761038
0.761039
0.760529
0.76051
0.760495
0.760485
0.760472
0.76046
0.760447
0.760437
0.760426
0.760416
0.7604
0.760375
0.760345
0.760326
0.760318
0.760331
0.760363
0.760402
0.760422
0.760431
0.760447
0.760458
0.760471
0.760483
0.760495
0.760503
0.760515
0.760534
0.761039
0.761038
0.76053
0.76051
0.760497
0.760486
0.760476
0.760462
0.760451
0.760439
0.760429
0.760417
0.760402
0.760373
0.760342
0.760321
0.760319
0.760336
0.760365
0.760394
0.760412
0.760424
0.760438
0.760449
0.760462
0.760476
0.760489
0.7605
0.76051
0.760528
0.761038
0.761038
0.760527
0.76051
0.760502
0.760489
0.760478
0.760462
0.76045
0.760436
0.760425
0.760412
0.760395
0.760368
0.760339
0.760319
0.760319
0.760338
0.760368
0.760397
0.760413
0.760426
0.760437
0.76045
0.760461
0.760476
0.760487
0.760499
0.760509
0.760527
0.761038
0.761038
0.760529
0.760508
0.760495
0.760482
0.760471
0.760458
0.760447
0.760435
0.760426
0.760415
0.760402
0.760377
0.760346
0.760324
0.760318
0.760334
0.760363
0.760392
0.76041
0.760423
0.760436
0.760448
0.760462
0.760475
0.760488
0.760501
0.76051
0.760528
0.761038
0.756947
0.754984
0.755384
0.757238
0.758788
0.758596
0.758018
0.757835
0.75807
0.758977
0.759583
0.760248
0.759953
0.758805
0.75841
0.752375
0.747338
0.744603
0.742895
0.741613
0.740438
0.739725
0.739698
0.740614
0.742565
0.746179
0.75042
0.753794
0.755927
0.757219
0.758032
0.758567
0.759033
0.759392
0.759667
0.759973
0.760179
0.760367
0.760384
0.760464
0.760201
0.759535
0.758759
0.757972
0.758321
0.756724
0.756623
0.756968
0.757486
0.75795
0.758411
0.758769
0.759115
0.759368
0.759593
0.759766
0.759895
0.760013
0.760092
0.760168
0.760232
0.760266
0.760329
0.760346
0.7604
0.760413
0.760451
0.760471
0.760478
0.760498
0.760481
0.760511
0.760495
0.760583
0.760201
0.76021
0.760224
0.760265
0.760294
0.76033
0.760348
0.760378
0.760387
0.760411
0.760413
0.760433
0.760429
0.760447
0.760441
0.760453
0.76045
0.760457
0.760455
0.76046
0.760459
0.760461
0.760463
0.760461
0.760465
0.760462
0.760465
0.760464
0.760468
0.760547
0.760544
0.760462
0.760456
0.760457
0.760456
0.760456
0.760456
0.760454
0.760455
0.760453
0.760454
0.760452
0.760453
0.76045
0.760451
0.760451
0.760451
0.760452
0.760452
0.760453
0.760452
0.760454
0.760452
0.760454
0.760453
0.760454
0.760455
0.760454
0.760459
0.760549
0.760549
0.760459
0.760454
0.760455
0.760453
0.760454
0.760453
0.760454
0.760452
0.760453
0.760452
0.760453
0.760451
0.760451
0.760451
0.76045
0.760452
0.760451
0.760453
0.760452
0.760453
0.760452
0.760454
0.760453
0.760454
0.760453
0.760454
0.760455
0.760459
0.760548
0.760549
0.760459
0.760454
0.760454
0.760454
0.760453
0.760454
0.760452
0.760454
0.760452
0.760453
0.760451
0.760453
0.760451
0.760452
0.76045
0.760452
0.760451
0.760453
0.760452
0.760453
0.760452
0.760454
0.760453
0.760454
0.760453
0.760455
0.760454
0.760459
0.760549
0.760549
0.760459
0.760455
0.760454
0.760454
0.760453
0.760454
0.760452
0.760454
0.760452
0.760453
0.760451
0.760452
0.760451
0.760451
0.76045
0.760452
0.760451
0.760453
0.760452
0.760453
0.760452
0.760454
0.760453
0.760454
0.760453
0.760454
0.760455
0.760459
0.760548
0.760548
0.760459
0.760455
0.760453
0.760454
0.760453
0.760454
0.760452
0.760454
0.760452
0.760453
0.760452
0.760452
0.760451
0.760451
0.76045
0.760452
0.760451
0.760453
0.760452
0.760453
0.760452
0.760454
0.760453
0.760454
0.760453
0.760454
0.760455
0.760459
0.760548
0.760548
0.760459
0.760454
0.760455
0.760453
0.760454
0.760453
0.760454
0.760452
0.760453
0.760452
0.760453
0.760451
0.760452
0.76045
0.760451
0.76045
0.760452
0.760452
0.760453
0.760453
0.760452
0.760454
0.760453
0.760454
0.760453
0.760455
0.760454
0.760459
0.760549
0.760548
0.760459
0.760455
0.760453
0.760454
0.760453
0.760454
0.760452
0.760454
0.760452
0.760453
0.760452
0.760453
0.760451
0.760451
0.76045
0.760452
0.760451
0.760453
0.760452
0.760453
0.760452
0.760454
0.760453
0.760454
0.760453
0.760454
0.760455
0.760459
0.760548
0.760549
0.760459
0.760454
0.760454
0.760454
0.760453
0.760454
0.760452
0.760454
0.760452
0.760453
0.760451
0.760453
0.760451
0.760451
0.760451
0.760451
0.760452
0.760452
0.760453
0.760452
0.760454
0.760452
0.760454
0.760453
0.760454
0.760454
0.760454
0.760459
0.760549
0.760548
0.760459
0.760455
0.760453
0.760454
0.760453
0.760454
0.760452
0.760454
0.760452
0.760453
0.760451
0.760453
0.760451
0.760452
0.76045
0.760452
0.760451
0.760453
0.760452
0.760453
0.760452
0.760454
0.760452
0.760454
0.760453
0.760454
0.760455
0.760459
0.760548
0.747457
0.746356
0.746841
0.749653
0.752495
0.753318
0.75357
0.754208
0.755188
0.755597
0.75708
0.75822
0.759508
0.760415
0.755454
0.746722
0.743858
0.74286
0.74289
0.742668
0.741514
0.739547
0.736665
0.734088
0.732885
0.735151
0.739328
0.744716
0.749317
0.752437
0.754212
0.755229
0.755992
0.756666
0.757187
0.757615
0.758141
0.758597
0.759085
0.759513
0.759917
0.760098
0.760134
0.760181
0.754762
0.750679
0.749805
0.750195
0.751518
0.753048
0.75433
0.755292
0.756004
0.756569
0.757005
0.757316
0.757605
0.757771
0.757951
0.758068
0.75818
0.758263
0.758354
0.758404
0.758496
0.758518
0.75862
0.758652
0.758762
0.758828
0.758947
0.759012
0.759126
0.759187
0.758091
0.758092
0.758181
0.758262
0.758319
0.758387
0.758435
0.758477
0.758517
0.758535
0.758573
0.758572
0.75861
0.758597
0.758634
0.758616
0.75865
0.758631
0.75866
0.758643
0.758667
0.758652
0.758671
0.75866
0.758674
0.758667
0.758677
0.758673
0.75868
0.758685
0.758682
0.758673
0.758676
0.758673
0.758677
0.758677
0.758676
0.758679
0.758676
0.75868
0.758676
0.75868
0.758676
0.758679
0.758677
0.758676
0.758679
0.758676
0.75868
0.758677
0.75868
0.758677
0.75868
0.758677
0.75868
0.758679
0.758677
0.75868
0.758678
0.758687
0.758687
0.758678
0.75868
0.758676
0.75868
0.758677
0.75868
0.758676
0.75868
0.758676
0.75868
0.758676
0.758679
0.758679
0.758676
0.75868
0.758676
0.75868
0.758676
0.75868
0.758676
0.75868
0.758676
0.75868
0.758676
0.758679
0.758677
0.758676
0.75868
0.758684
0.758687
0.758678
0.75868
0.758677
0.758678
0.75868
0.758677
0.75868
0.758677
0.75868
0.758677
0.75868
0.758676
0.75868
0.758676
0.75868
0.758676
0.75868
0.758676
0.75868
0.758676
0.75868
0.758676
0.75868
0.758676
0.75868
0.758677
0.75868
0.758678
0.758687
0.758687
0.758678
0.758678
0.75868
0.758676
0.75868
0.758676
0.75868
0.758676
0.75868
0.758676
0.75868
0.758676
0.75868
0.758676
0.758679
0.758676
0.75868
0.758676
0.75868
0.758676
0.75868
0.758676
0.75868
0.758676
0.758679
0.758677
0.758676
0.758679
0.758684
0.758684
0.75868
0.758676
0.75868
0.758676
0.75868
0.758676
0.75868
0.758676
0.75868
0.758676
0.75868
0.758676
0.75868
0.758676
0.758679
0.758676
0.75868
0.758676
0.75868
0.758676
0.75868
0.758676
0.75868
0.758676
0.758679
0.758677
0.758676
0.75868
0.758684
0.758685
0.758679
0.758679
0.758676
0.75868
0.758676
0.75868
0.758676
0.75868
0.758676
0.75868
0.758676
0.75868
0.758676
0.75868
0.758676
0.758679
0.758676
0.758679
0.758677
0.758677
0.75868
0.758676
0.75868
0.758677
0.75868
0.758676
0.75868
0.758678
0.758687
0.758684
0.75868
0.758676
0.75868
0.758676
0.75868
0.758676
0.75868
0.758676
0.75868
0.758676
0.75868
0.758676
0.75868
0.758676
0.758679
0.758676
0.75868
0.758676
0.75868
0.758676
0.75868
0.758676
0.75868
0.758676
0.758679
0.758677
0.758676
0.75868
0.758684
0.758687
0.758678
0.758679
0.758678
0.758677
0.75868
0.758676
0.75868
0.758676
0.75868
0.758676
0.75868
0.758676
0.758679
0.758676
0.758676
0.758679
0.758676
0.75868
0.758676
0.75868
0.758677
0.75868
0.758676
0.75868
0.758677
0.758679
0.758679
0.758678
0.758687
0.758684
0.75868
0.758676
0.75868
0.758676
0.75868
0.758676
0.75868
0.758676
0.758681
0.758676
0.75868
0.758676
0.75868
0.758676
0.758679
0.758676
0.758679
0.758676
0.75868
0.758676
0.75868
0.758676
0.758679
0.758676
0.758679
0.758677
0.758676
0.75868
0.758684
0.744839
0.744811
0.744843
0.745345
0.746597
0.747837
0.748875
0.749954
0.751398
0.752568
0.754145
0.754655
0.757831
0.759703
0.752228
0.745716
0.744867
0.744627
0.747318
0.748125
0.747318
0.744342
0.740212
0.73625
0.731759
0.728094
0.73029
0.735411
0.740243
0.744994
0.748434
0.750487
0.751775
0.752757
0.753632
0.754435
0.755185
0.755993
0.756735
0.75758
0.758347
0.759081
0.759764
0.760068
0.750223
0.744355
0.742335
0.741262
0.742529
0.745218
0.748043
0.750141
0.751603
0.75256
0.753404
0.753897
0.75446
0.754725
0.755112
0.755259
0.75554
0.755652
0.755861
0.755962
0.756139
0.756231
0.756412
0.756487
0.756665
0.756748
0.756939
0.757043
0.757256
0.75742
0.755185
0.755181
0.755392
0.75559
0.755779
0.755916
0.756044
0.756137
0.756218
0.756286
0.756336
0.756384
0.756417
0.75645
0.756472
0.756498
0.75651
0.756532
0.756538
0.756556
0.75656
0.756574
0.756578
0.756588
0.756591
0.7566
0.756602
0.756611
0.756613
0.756712
0.756684
0.756603
0.756597
0.756601
0.756603
0.756606
0.756605
0.756607
0.756607
0.756607
0.756607
0.756607
0.756607
0.756606
0.756607
0.756605
0.756606
0.756606
0.756607
0.756606
0.756607
0.756607
0.756607
0.756607
0.756607
0.756607
0.756606
0.756607
0.756612
0.75671
0.756711
0.756612
0.756607
0.756606
0.756607
0.756607
0.756607
0.756607
0.756607
0.756607
0.756607
0.756606
0.756607
0.756606
0.756606
0.756606
0.756606
0.756607
0.756607
0.756607
0.756607
0.756607
0.756607
0.756607
0.756606
0.756606
0.756606
0.756606
0.756611
0.756711
0.75671
0.756612
0.756607
0.756606
0.756607
0.756607
0.756607
0.756607
0.756607
0.756607
0.756607
0.756607
0.756606
0.756607
0.756606
0.756606
0.756606
0.756606
0.756606
0.756606
0.756606
0.756607
0.756607
0.756607
0.756607
0.756607
0.756607
0.756607
0.756612
0.756711
0.75671
0.756612
0.756607
0.756607
0.756607
0.756607
0.756607
0.756607
0.756607
0.756607
0.756607
0.756607
0.756606
0.756606
0.756606
0.756606
0.756606
0.756606
0.756606
0.756607
0.756607
0.756607
0.756607
0.756607
0.756606
0.756606
0.756606
0.756606
0.756611
0.756711
0.756711
0.756612
0.756606
0.756606
0.756606
0.756607
0.756607
0.756607
0.756607
0.756607
0.756606
0.756607
0.756606
0.756606
0.756606
0.756606
0.756606
0.756606
0.756606
0.756607
0.756607
0.756607
0.756607
0.756607
0.756606
0.756606
0.756606
0.756606
0.756611
0.756711
0.756712
0.756612
0.756606
0.756606
0.756607
0.756607
0.756607
0.756607
0.756607
0.756607
0.756607
0.756606
0.756607
0.756606
0.756606
0.756606
0.756606
0.756606
0.756606
0.756606
0.756606
0.756607
0.756607
0.756607
0.756607
0.756607
0.756606
0.756607
0.756612
0.75671
0.756712
0.756611
0.756606
0.756606
0.756606
0.756607
0.756607
0.756607
0.756607
0.756607
0.756606
0.756607
0.756606
0.756606
0.756606
0.756606
0.756606
0.756606
0.756606
0.756607
0.756607
0.756607
0.756607
0.756607
0.756606
0.756606
0.756606
0.756606
0.756611
0.756711
0.75671
0.756612
0.756606
0.756607
0.756607
0.756607
0.756607
0.756607
0.756607
0.756607
0.756606
0.756607
0.756606
0.756606
0.756606
0.756606
0.756606
0.756606
0.756607
0.756606
0.756607
0.756607
0.756607
0.756607
0.756607
0.756607
0.756607
0.756607
0.756612
0.75671
0.756712
0.756612
0.756606
0.756606
0.756606
0.756607
0.756607
0.756607
0.756607
0.756607
0.756606
0.756607
0.756606
0.756606
0.756605
0.756606
0.756605
0.756606
0.756606
0.756606
0.756606
0.756606
0.756606
0.756606
0.756606
0.756607
0.756606
0.756606
0.756612
0.756712
0.744881
0.744943
0.744701
0.744386
0.744367
0.745013
0.746245
0.747175
0.747697
0.748705
0.750709
0.75221
0.755362
0.75846
0.749357
0.746907
0.745573
0.749271
0.750509
0.750074
0.748798
0.746931
0.74376
0.739215
0.732092
0.726677
0.724727
0.728075
0.732718
0.736698
0.740911
0.744262
0.746313
0.747618
0.748838
0.749803
0.750845
0.751797
0.7528
0.753944
0.755238
0.756552
0.757936
0.759293
0.745947
0.743372
0.740843
0.737181
0.734663
0.735934
0.739659
0.743294
0.745778
0.747304
0.74843
0.749229
0.749888
0.750367
0.750782
0.751053
0.751345
0.75154
0.751731
0.751918
0.752044
0.752235
0.752349
0.752535
0.752713
0.752934
0.753214
0.753528
0.753957
0.754362
0.750455
0.750475
0.750952
0.751342
0.751628
0.751845
0.752007
0.752123
0.75223
0.752289
0.752374
0.752391
0.752472
0.752458
0.752539
0.75251
0.752582
0.752549
0.752611
0.752579
0.752631
0.752606
0.752644
0.75263
0.752655
0.752651
0.752664
0.75267
0.75268
0.752659
0.752621
0.752657
0.752667
0.752667
0.752674
0.752675
0.752678
0.75268
0.752681
0.752683
0.752683
0.752685
0.752684
0.752686
0.752686
0.752685
0.752686
0.752685
0.752686
0.752685
0.752686
0.752685
0.752686
0.752685
0.752686
0.752686
0.752684
0.752685
0.752684
0.752649
0.752649
0.752684
0.752685
0.752684
0.752686
0.752685
0.752686
0.752685
0.752687
0.752685
0.752686
0.752686
0.752686
0.752686
0.752686
0.752687
0.752686
0.752687
0.752685
0.752687
0.752685
0.752686
0.752685
0.752686
0.752684
0.752685
0.752684
0.752684
0.752684
0.752649
0.752648
0.752684
0.752685
0.752684
0.752686
0.752686
0.752685
0.752686
0.752685
0.752687
0.752685
0.752687
0.752686
0.752687
0.752686
0.752686
0.752685
0.752686
0.752685
0.752686
0.752685
0.752686
0.752685
0.752686
0.752685
0.752686
0.752684
0.752685
0.752684
0.752649
0.752648
0.752685
0.752685
0.752685
0.752684
0.752686
0.752685
0.752687
0.752685
0.752687
0.752685
0.752687
0.752685
0.752686
0.752685
0.752686
0.752685
0.752686
0.752685
0.752687
0.752685
0.752686
0.752685
0.752686
0.752684
0.752685
0.752684
0.752684
0.752684
0.752649
0.752649
0.752684
0.752684
0.752685
0.752684
0.752686
0.752685
0.752686
0.752685
0.752687
0.752685
0.752686
0.752685
0.752686
0.752685
0.752686
0.752685
0.752687
0.752685
0.752687
0.752685
0.752687
0.752685
0.752686
0.752684
0.752685
0.752684
0.752684
0.752684
0.752649
0.752649
0.752684
0.752685
0.752684
0.752685
0.752685
0.752686
0.752685
0.752687
0.752685
0.752687
0.752685
0.752687
0.752686
0.752686
0.752685
0.752686
0.752685
0.752686
0.752686
0.752685
0.752686
0.752685
0.752686
0.752685
0.752686
0.752684
0.752685
0.752684
0.752648
0.752649
0.752684
0.752684
0.752685
0.752684
0.752686
0.752685
0.752687
0.752685
0.752687
0.752685
0.752687
0.752685
0.752686
0.752685
0.752686
0.752685
0.752686
0.752685
0.752687
0.752685
0.752686
0.752685
0.752686
0.752684
0.752685
0.752684
0.752684
0.752684
0.752649
0.752649
0.752684
0.752685
0.752685
0.752685
0.752686
0.752685
0.752686
0.752685
0.752687
0.752685
0.752687
0.752685
0.752686
0.752686
0.752686
0.752686
0.752685
0.752687
0.752685
0.752687
0.752685
0.752687
0.752685
0.752686
0.752685
0.752685
0.752685
0.752685
0.752648
0.752649
0.752684
0.752684
0.752685
0.752684
0.752686
0.752684
0.752687
0.752685
0.752687
0.752685
0.752687
0.752685
0.752687
0.752685
0.752686
0.752686
0.752687
0.752685
0.752687
0.752685
0.752687
0.752685
0.752686
0.752685
0.752685
0.752685
0.752685
0.752684
0.752649
0.744779
0.744188
0.742645
0.741765
0.741609
0.742985
0.744523
0.745393
0.74628
0.747481
0.747379
0.751482
0.754735
0.757078
0.748405
0.748819
0.752803
0.751058
0.750497
0.749811
0.748862
0.747246
0.744724
0.74018
0.734622
0.727488
0.722521
0.721485
0.726241
0.729452
0.732823
0.736663
0.739572
0.741507
0.743006
0.74435
0.74563
0.747
0.74837
0.749807
0.751501
0.753384
0.755955
0.758498
0.747931
0.747951
0.744838
0.738832
0.732377
0.72947
0.731568
0.73568
0.73913
0.741205
0.742656
0.743691
0.744585
0.745247
0.745844
0.746269
0.746701
0.746976
0.747333
0.74755
0.74785
0.748074
0.748366
0.748586
0.748904
0.749161
0.74959
0.750027
0.750728
0.751307
0.745127
0.744975
0.745769
0.746471
0.747091
0.747429
0.747764
0.747936
0.748139
0.748238
0.748376
0.748433
0.748535
0.748561
0.748651
0.748651
0.748731
0.748715
0.748788
0.748765
0.748827
0.748809
0.748854
0.748847
0.748878
0.748881
0.748907
0.748916
0.748947
0.748929
0.748817
0.748886
0.748887
0.7489
0.748902
0.748908
0.748909
0.748912
0.748912
0.748914
0.748914
0.748914
0.748915
0.748914
0.748915
0.748913
0.748914
0.748913
0.748914
0.748914
0.748914
0.748914
0.748914
0.748914
0.748915
0.748916
0.748917
0.74892
0.748922
0.748889
0.74889
0.748922
0.74892
0.748917
0.748916
0.748915
0.748914
0.748914
0.748914
0.748914
0.748914
0.748914
0.748914
0.748914
0.748914
0.748914
0.748914
0.748914
0.748914
0.748914
0.748914
0.748914
0.748914
0.748914
0.748915
0.748916
0.748917
0.74892
0.748922
0.74889
0.748889
0.748922
0.74892
0.748917
0.748916
0.748915
0.748914
0.748914
0.748914
0.748914
0.748914
0.748914
0.748914
0.748914
0.748914
0.748914
0.748914
0.748914
0.748914
0.748913
0.748913
0.748914
0.748914
0.748914
0.748915
0.748916
0.748917
0.74892
0.748922
0.74889
0.748889
0.748922
0.748921
0.748917
0.748916
0.748915
0.748914
0.748914
0.748914
0.748914
0.748914
0.748914
0.748914
0.748914
0.748914
0.748914
0.748914
0.748914
0.748914
0.748914
0.748914
0.748914
0.748914
0.748914
0.748915
0.748915
0.748917
0.74892
0.748922
0.74889
0.74889
0.748922
0.74892
0.748917
0.748916
0.748915
0.748914
0.748914
0.748914
0.748914
0.748914
0.748914
0.748914
0.748914
0.748914
0.748914
0.748914
0.748914
0.748914
0.748914
0.748914
0.748914
0.748914
0.748914
0.748915
0.748916
0.748917
0.74892
0.748922
0.74889
0.748891
0.748922
0.74892
0.748917
0.748916
0.748915
0.748914
0.748915
0.748914
0.748914
0.748914
0.748914
0.748914
0.748914
0.748914
0.748914
0.748914
0.748914
0.748914
0.748914
0.748914
0.748914
0.748914
0.748914
0.748915
0.748916
0.748917
0.74892
0.748922
0.748889
0.74889
0.748922
0.74892
0.748917
0.748916
0.748915
0.748914
0.748914
0.748914
0.748914
0.748914
0.748914
0.748914
0.748914
0.748914
0.748914
0.748914
0.748914
0.748914
0.748914
0.748914
0.748914
0.748914
0.748914
0.748915
0.748916
0.748917
0.74892
0.748922
0.74889
0.748889
0.748922
0.74892
0.748918
0.748916
0.748915
0.748914
0.748914
0.748914
0.748914
0.748914
0.748914
0.748914
0.748914
0.748914
0.748914
0.748914
0.748914
0.748914
0.748914
0.748914
0.748914
0.748914
0.748914
0.748915
0.748916
0.748917
0.74892
0.748922
0.748889
0.74889
0.748922
0.74892
0.748917
0.748916
0.748915
0.748914
0.748914
0.748914
0.748914
0.748914
0.748914
0.748914
0.748913
0.748913
0.748913
0.748914
0.748914
0.748914
0.748914
0.748914
0.748914
0.748914
0.748914
0.748915
0.748917
0.748919
0.748925
0.748934
0.748903
0.740673
0.738415
0.735495
0.735676
0.737599
0.740885
0.742827
0.744147
0.745368
0.745991
0.746083
0.748411
0.751383
0.756517
0.756101
0.754958
0.751239
0.754571
0.753877
0.751539
0.748949
0.747629
0.746865
0.745835
0.743282
0.739345
0.733629
0.72919
0.723134
0.719085
0.71923
0.724227
0.726128
0.728799
0.731782
0.734273
0.735991
0.737468
0.738909
0.740349
0.741917
0.743715
0.745841
0.748509
0.751642
0.755835
0.75636
0.755504
0.753565
0.750652
0.745818
0.739045
0.731448
0.726114
0.725743
0.728811
0.732167
0.734458
0.735932
0.737041
0.737957
0.738703
0.739302
0.739821
0.740192
0.740584
0.740838
0.741156
0.741367
0.741651
0.741866
0.742167
0.742479
0.742895
0.74343
0.74415
0.745013
0.746384
0.744363
0.74284
0.740247
0.73894
0.739351
0.740197
0.740747
0.74113
0.741371
0.741591
0.741736
0.741868
0.741971
0.742046
0.74213
0.742166
0.742242
0.742251
0.742321
0.742314
0.74238
0.742363
0.742423
0.742404
0.742455
0.74244
0.742484
0.742474
0.742517
0.742511
0.742557
0.742409
0.742234
0.742208
0.742306
0.742468
0.742511
0.742511
0.742525
0.742525
0.742532
0.742534
0.742537
0.74254
0.742541
0.742543
0.742544
0.742546
0.742547
0.742548
0.742548
0.742548
0.742548
0.742548
0.742549
0.742549
0.742549
0.742549
0.74255
0.742552
0.742552
0.742552
0.742542
0.74236
0.742206
0.742206
0.74236
0.742542
0.742552
0.742552
0.742551
0.74255
0.742549
0.742549
0.742549
0.742549
0.742549
0.742548
0.742548
0.742548
0.742549
0.742549
0.742549
0.742549
0.742549
0.742549
0.742549
0.742549
0.742549
0.742549
0.74255
0.742551
0.742553
0.742552
0.742541
0.742361
0.742206
0.742206
0.74236
0.742542
0.742552
0.742552
0.742552
0.74255
0.742549
0.742549
0.742549
0.742549
0.742549
0.742549
0.742549
0.742549
0.742549
0.742549
0.742548
0.742548
0.742548
0.742548
0.742548
0.742548
0.742549
0.742549
0.74255
0.742551
0.742552
0.742552
0.742542
0.74236
0.742206
0.742206
0.74236
0.742542
0.742553
0.742552
0.742551
0.74255
0.742549
0.742549
0.742549
0.742549
0.742549
0.742549
0.742548
0.742548
0.742549
0.742549
0.742548
0.742549
0.742549
0.742549
0.742549
0.742549
0.742549
0.742549
0.74255
0.742551
0.742552
0.742552
0.742541
0.742361
0.742206
0.742206
0.742361
0.742541
0.742552
0.742552
0.742551
0.74255
0.742549
0.742549
0.742549
0.742549
0.742549
0.742549
0.742549
0.742548
0.742549
0.742549
0.742548
0.742549
0.742549
0.742549
0.742549
0.742549
0.742549
0.742549
0.74255
0.742551
0.742552
0.742552
0.742541
0.742361
0.742206
0.742206
0.742361
0.742541
0.742552
0.742552
0.742551
0.74255
0.742549
0.742549
0.742549
0.742549
0.742549
0.742549