/*--------------------------------*- C++ -*----------------------------------*\
| =========                 |                                                 |
| \\      /  F ield         | OpenFOAM: The Open Source CFD Toolbox           |
|  \\    /   O peration     | Version:  2.1.1                                 |
|   \\  /    A nd           | Web:      www.OpenFOAM.org                      |
|    \\/     M anipulation  |                                                 |
\*---------------------------------------------------------------------------*/
FoamFile
{
    version     2.0;
    format      ascii;
    class       volScalarField;
    location    "0.001300000";
    object      rho;
}
// * * * * * * * * * * * * * * * * * * * * * * * * * * * * * * * * * * * * * //

dimensions      [1 -3 0 0 0 0 0];

internalField   nonuniform List<scalar> 
12384
(
0.721776
0.877542
1.07433
1.18796
1.20162
1.20245
1.19606
1.19423
1.16861
1.15874
1.16815
1.16469
1.17682
1.19275
1.19372
1.19528
1.20236
1.17613
1.19775
1.17893
1.18647
1.18753
1.19157
1.19717
1.20287
1.20312
1.21362
1.2186
1.2157
1.19832
1.18253
1.1858
1.17402
1.20999
1.22425
1.2445
1.25795
1.26693
1.26502
1.24284
1.20767
1.18273
1.11875
1.12471
1.01936
1.0241
1.02389
1.02237
1.02004
1.01762
1.00933
1.00778
0.999554
0.993854
0.987823
0.98907
0.979791
0.9831
0.976396
0.975986
0.975087
0.973648
0.969414
0.970813
0.962736
0.964996
0.955361
0.958567
0.951269
0.95419
0.951118
0.952441
0.952298
0.952498
0.892746
0.89234
0.892321
0.890555
0.890887
0.888956
0.88929
0.886854
0.886647
0.885505
0.883554
0.883793
0.881146
0.88179
0.879059
0.879737
0.87706
0.877998
0.875279
0.876238
0.873627
0.874596
0.872284
0.872539
0.871869
0.870656
0.871029
0.869936
0.8703
0.869585
0.865582
0.865717
0.865695
0.865729
0.865642
0.865671
0.865572
0.865619
0.8655
0.865557
0.865444
0.865478
0.865451
0.86543
0.865441
0.8654
0.865401
0.865351
0.865349
0.865317
0.865323
0.865298
0.865302
0.865284
0.865283
0.865271
0.865269
0.865266
0.86525
0.865117
0.865117
0.865252
0.865265
0.865263
0.865274
0.865277
0.86529
0.865289
0.865306
0.865308
0.86532
0.865326
0.865348
0.865362
0.865365
0.86537
0.865356
0.865349
0.865326
0.865322
0.865308
0.865307
0.86529
0.865291
0.865275
0.865275
0.865267
0.865261
0.865257
0.865115
0.865117
0.865251
0.865267
0.865272
0.865269
0.865281
0.865282
0.865298
0.865296
0.865315
0.865312
0.865331
0.865343
0.865359
0.865365
0.865371
0.86536
0.86535
0.865324
0.865318
0.865304
0.865302
0.865285
0.865288
0.865272
0.865273
0.865262
0.865265
0.865253
0.865117
0.865115
0.865252
0.865256
0.865271
0.865266
0.865284
0.865285
0.8653
0.865298
0.865316
0.865312
0.865332
0.865344
0.865362
0.865367
0.865372
0.865357
0.865349
0.865326
0.865321
0.865308
0.865307
0.86529
0.865291
0.865278
0.865275
0.865265
0.865261
0.865256
0.865115
0.865113
0.865256
0.865254
0.865272
0.865266
0.865285
0.865284
0.865299
0.865296
0.865314
0.86531
0.86533
0.865343
0.865362
0.865367
0.865371
0.865357
0.865349
0.865326
0.865321
0.865308
0.865307
0.86529
0.865291
0.865277
0.865275
0.865267
0.865261
0.865256
0.865115
0.865114
0.865252
0.865263
0.865265
0.865275
0.865277
0.865294
0.865292
0.865309
0.865309
0.865322
0.865325
0.865347
0.865354
0.865369
0.865365
0.865364
0.865344
0.865329
0.865313
0.86531
0.865303
0.865289
0.865289
0.865277
0.865271
0.865262
0.865263
0.865248
0.865117
0.865116
0.865256
0.865256
0.865273
0.865267
0.865286
0.865285
0.8653
0.865298
0.865315
0.865311
0.86533
0.865343
0.86536
0.865366
0.865371
0.865358
0.865349
0.865323
0.865321
0.865307
0.865306
0.865289
0.865291
0.865276
0.865274
0.865264
0.865261
0.865256
0.865115
0.865118
0.865252
0.865263
0.865271
0.865263
0.865281
0.865282
0.865297
0.865298
0.865315
0.865313
0.865331
0.865341
0.865361
0.865368
0.865368
0.865362
0.865345
0.865332
0.865312
0.865315
0.865299
0.865299
0.865284
0.865284
0.865266
0.865272
0.865261
0.865253
0.865116
0.865108
0.86525
0.865249
0.865267
0.865261
0.865281
0.865277
0.865296
0.865294
0.865311
0.865308
0.865328
0.865339
0.865361
0.865363
0.865373
0.865358
0.865354
0.865335
0.86533
0.865313
0.865311
0.865293
0.865295
0.865278
0.865278
0.865267
0.865264
0.865259
0.865116
0.473873
0.559788
0.832888
1.13547
1.28076
1.3103
1.34001
1.32118
1.30962
1.28551
1.23197
1.22297
1.20611
1.19959
1.30472
1.33797
1.33809
1.33194
1.31145
1.30109
1.30352
1.3172
1.33515
1.34333
1.3585
1.36888
1.37561
1.38399
1.38461
1.37147
1.34992
1.33381
1.32122
1.31903
1.32186
1.31519
1.31045
1.29939
1.27804
1.24888
1.21881
1.17763
1.1508
1.1073
1.14838
1.16133
1.16165
1.1591
1.1551
1.14805
1.13673
1.12392
1.10895
1.09049
1.07445
1.06369
1.04672
1.03738
1.02738
1.01893
1.0095
1.00656
0.994574
0.993433
0.980007
0.978655
0.969681
0.965831
0.963136
0.95922
0.960684
0.957772
0.959371
0.954398
0.923715
0.925472
0.924395
0.921977
0.918464
0.915568
0.911556
0.909658
0.9052
0.904688
0.900123
0.900428
0.896073
0.897327
0.893168
0.894555
0.890067
0.89098
0.887739
0.887381
0.885869
0.884903
0.884018
0.882484
0.882353
0.881067
0.88058
0.880236
0.879679
0.873963
0.870054
0.876265
0.876451
0.876547
0.876665
0.876696
0.876983
0.877127
0.877341
0.877521
0.877706
0.877958
0.878396
0.878897
0.879017
0.879057
0.878728
0.87831
0.877864
0.877657
0.877408
0.877247
0.876985
0.876796
0.876513
0.876365
0.876254
0.876044
0.875856
0.869111
0.869116
0.875816
0.876012
0.876224
0.876341
0.876582
0.876734
0.876996
0.877134
0.877412
0.87757
0.877903
0.878347
0.878749
0.879016
0.878954
0.878716
0.878264
0.877939
0.877636
0.8775
0.877235
0.877095
0.87683
0.876645
0.876405
0.876242
0.876078
0.875794
0.869222
0.869112
0.875854
0.87605
0.876269
0.876353
0.87654
0.876822
0.877003
0.877271
0.877429
0.877687
0.877875
0.878297
0.878647
0.878938
0.87898
0.878834
0.878327
0.877881
0.877514
0.877308
0.877015
0.876885
0.876642
0.876496
0.876267
0.876162
0.875982
0.875791
0.869124
0.869104
0.875877
0.876084
0.876259
0.876486
0.876638
0.876918
0.877069
0.877317
0.877445
0.877686
0.877875
0.878319
0.878702
0.879007
0.878984
0.878759
0.878291
0.877942
0.877634
0.877502
0.877238
0.8771
0.876834
0.876652
0.876411
0.876243
0.876081
0.875794
0.869221
0.869196
0.875728
0.876031
0.876196
0.876423
0.876575
0.876839
0.876984
0.877229
0.87736
0.877602
0.877801
0.878274
0.8787
0.879005
0.878975
0.878754
0.878304
0.877955
0.877642
0.877504
0.87724
0.877097
0.876829
0.876645
0.876407
0.876239
0.876075
0.87579
0.869225
0.869245
0.875789
0.876067
0.876296
0.876448
0.876696
0.876863
0.877119
0.877243
0.877482
0.877599
0.877885
0.878195
0.878657
0.878897
0.879024
0.8788
0.878371
0.877809
0.877512
0.877354
0.877083
0.876924
0.876672
0.876522
0.876287
0.87618
0.875975
0.875804
0.869111
0.869238
0.875767
0.876067
0.876234
0.876459
0.876607
0.876869
0.87702
0.877262
0.877385
0.87762
0.87781
0.878257
0.878667
0.878988
0.878991
0.878783
0.878333
0.877966
0.877647
0.877499
0.877229
0.877086
0.87682
0.876635
0.876397
0.876232
0.876075
0.87579
0.869222
0.869114
0.875873
0.876075
0.876208
0.876413
0.876574
0.876859
0.877027
0.877295
0.877443
0.877701
0.877903
0.87834
0.87871
0.879003
0.879
0.878732
0.878332
0.877885
0.87768
0.877431
0.877289
0.877031
0.876872
0.876592
0.876445
0.876228
0.876089
0.875878
0.869121
0.869215
0.875774
0.87609
0.876266
0.876519
0.876666
0.87694
0.87708
0.877325
0.877432
0.877662
0.877809
0.878217
0.878608
0.878954
0.879007
0.878809
0.878373
0.877998
0.877683
0.87753
0.877259
0.877115
0.876838
0.876657
0.876413
0.876228
0.876076
0.875787
0.869233
0.509469
0.4752
0.65529
0.858331
1.06223
1.24227
1.30777
1.37688
1.40663
1.4158
1.40255
1.39918
1.34802
1.31805
1.33125
1.32879
1.3119
1.26781
1.24847
1.23801
1.22882
1.23115
1.23863
1.26115
1.30639
1.3506
1.38839
1.4142
1.44179
1.46704
1.48332
1.48417
1.48336
1.49807
1.51109
1.53334
1.54052
1.53495
1.512
1.45772
1.38001
1.31765
1.26576
1.20577
1.24776
1.2442
1.24516
1.24861
1.25111
1.25436
1.25602
1.25632
1.25252
1.25041
1.24062
1.23798
1.23126
1.22817
1.22222
1.22329
1.21619
1.21691
1.21107
1.21118
1.20279
1.20227
1.1946
1.18879
1.18423
1.17644
1.17338
1.17042
1.16592
1.16908
1.12386
1.1178
1.11677
1.11363
1.11375
1.1109
1.11085
1.10761
1.10681
1.10469
1.1025
1.10215
1.09854
1.09854
1.09492
1.09546
1.09265
1.09334
1.0917
1.08992
1.09059
1.08775
1.08897
1.08643
1.08707
1.08592
1.08521
1.08539
1.08458
1.09249
1.08726
1.07921
1.07879
1.0786
1.07829
1.07814
1.0777
1.07741
1.07708
1.07675
1.07649
1.07608
1.07552
1.07483
1.07469
1.07457
1.07489
1.0754
1.07585
1.07612
1.07631
1.07651
1.07672
1.07695
1.07723
1.07738
1.07749
1.07769
1.07799
1.08662
1.08662
1.07808
1.07772
1.07751
1.07736
1.07718
1.07696
1.07676
1.07656
1.07635
1.07613
1.07583
1.07524
1.0748
1.07451
1.07453
1.07487
1.07535
1.0758
1.07606
1.07626
1.07647
1.07666
1.07687
1.07711
1.07731
1.0775
1.07768
1.07797
1.08662
1.08662
1.07799
1.07768
1.07746
1.07742
1.07719
1.07692
1.07669
1.07648
1.07627
1.07607
1.0758
1.07537
1.07491
1.07461
1.0745
1.07473
1.07526
1.07583
1.07617
1.07644
1.07669
1.07688
1.07707
1.07727
1.07744
1.07758
1.07776
1.07811
1.08662
1.08661
1.07797
1.07771
1.07745
1.07725
1.07706
1.07682
1.07662
1.07644
1.07626
1.07608
1.07581
1.07534
1.07483
1.07452
1.0745
1.07482
1.07532
1.0758
1.07607
1.07626
1.07646
1.07666
1.07686
1.07711
1.0773
1.0775
1.07767
1.07798
1.08662
1.08662
1.07807
1.07773
1.07749
1.07733
1.07713
1.07693
1.07672
1.07655
1.07635
1.07617
1.07588
1.07539
1.07483
1.07452
1.07451
1.07483
1.0753
1.07578
1.07606
1.07626
1.07646
1.07666
1.07687
1.07712
1.07731
1.0775
1.07768
1.07798
1.08662
1.08663
1.078
1.07766
1.07744
1.07725
1.07706
1.07683
1.07664
1.07646
1.07629
1.07611
1.07586
1.07543
1.07494
1.0746
1.07449
1.07469
1.07524
1.07587
1.07622
1.07638
1.07662
1.07683
1.07703
1.07724
1.07742
1.07756
1.07776
1.07809
1.08662
1.08662
1.078
1.07769
1.07745
1.0773
1.0771
1.07689
1.07668
1.07651
1.07633
1.07615
1.07588
1.07541
1.07487
1.07454
1.07449
1.07479
1.07527
1.07576
1.07605
1.07626
1.07647
1.07667
1.07688
1.07712
1.07732
1.07752
1.07768
1.07798
1.08662
1.08661
1.07796
1.07767
1.07754
1.07734
1.07713
1.07688
1.07666
1.07646
1.07625
1.07605
1.07576
1.07532
1.07483
1.0745
1.07451
1.07481
1.07533
1.07579
1.07608
1.07627
1.07647
1.07667
1.07688
1.07711
1.07731
1.07749
1.07767
1.07797
1.08661
1.08661
1.07798
1.07765
1.0774
1.07722
1.07702
1.07682
1.07661
1.07645
1.07627
1.07611
1.07588
1.07547
1.07495
1.07459
1.07447
1.07476
1.07523
1.07574
1.07602
1.07624
1.07645
1.07665
1.07687
1.07711
1.07732
1.07753
1.07769
1.07797
1.08662
0.296536
0.258296
0.270602
0.298492
0.344201
0.551812
0.676073
0.855402
1.17618
1.3652
1.4286
1.44304
1.44516
1.42002
1.28517
1.22109
1.15384
1.10939
1.05682
1.00967
0.969038
0.969854
0.997988
1.03933
1.08064
1.14677
1.22522
1.30062
1.35416
1.40582
1.43675
1.45122
1.4498
1.44982
1.47219
1.49467
1.52337
1.53461
1.53867
1.52325
1.50748
1.45608
1.42772
1.37872
1.19515
1.16855
1.16818
1.17676
1.19012
1.20227
1.21271
1.22052
1.22453
1.22715
1.2246
1.22199
1.21659
1.21787
1.20994
1.21287
1.2049
1.20886
1.20121
1.20042
1.20018
1.1931
1.1963
1.18673
1.1906
1.18275
1.18379
1.1831
1.18153
1.18434
1.10677
1.10738
1.1067
1.10889
1.10611
1.10749
1.10447
1.1054
1.10189
1.10315
1.09896
1.10039
1.09686
1.09628
1.09543
1.09294
1.09337
1.09049
1.0915
1.08828
1.0894
1.08679
1.08675
1.08569
1.08451
1.08479
1.0832
1.08357
1.08276
1.08414
1.07914
1.07757
1.07758
1.07736
1.07743
1.07726
1.0773
1.07713
1.07709
1.07705
1.07694
1.07693
1.07683
1.07682
1.07675
1.07675
1.07673
1.07673
1.07673
1.07671
1.07672
1.0767
1.07672
1.0767
1.07673
1.07671
1.07671
1.07673
1.07679
1.07831
1.07831
1.07678
1.07673
1.0767
1.07672
1.0767
1.07672
1.07669
1.07671
1.07669
1.07671
1.07669
1.0767
1.07669
1.07667
1.07669
1.07667
1.0767
1.07669
1.07671
1.07669
1.07671
1.07669
1.07671
1.07669
1.07671
1.0767
1.07671
1.0768
1.07827
1.07831
1.07678
1.07673
1.0767
1.0767
1.07672
1.07669
1.07671
1.07669
1.07671
1.07669
1.07671
1.07668
1.07669
1.07667
1.07668
1.07667
1.0767
1.07669
1.07671
1.07669
1.07671
1.07669
1.07672
1.0767
1.07672
1.0767
1.07673
1.07678
1.07831
1.0783
1.07679
1.07671
1.07672
1.07669
1.07672
1.07669
1.07671
1.07669
1.07671
1.07669
1.07671
1.07668
1.07669
1.07667
1.07668
1.07667
1.0767
1.07669
1.07671
1.07669
1.07671
1.07669
1.07671
1.07669
1.07671
1.0767
1.07671
1.0768
1.07827
1.07828
1.0768
1.0767
1.07672
1.07669
1.07672
1.07669
1.07671
1.07669
1.07671
1.07669
1.07671
1.07668
1.07669
1.07667
1.07668
1.07667
1.0767
1.07669
1.07671
1.07669
1.07671
1.07669
1.07671
1.07669
1.07671
1.0767
1.07671
1.0768
1.07827
1.07828
1.07679
1.07673
1.0767
1.07672
1.07669
1.07672
1.07669
1.07671
1.07669
1.07671
1.07669
1.0767
1.07667
1.07668
1.07666
1.07669
1.07668
1.0767
1.07669
1.07669
1.07671
1.07669
1.07672
1.0767
1.07672
1.0767
1.07673
1.07678
1.07831
1.07827
1.0768
1.0767
1.07672
1.07669
1.07672
1.07669
1.07671
1.07669
1.07671
1.07669
1.07671
1.07668
1.07669
1.07667
1.07668
1.07667
1.0767
1.07668
1.07671
1.07669
1.07671
1.07669
1.07671
1.07669
1.07671
1.0767
1.07671
1.0768
1.07827
1.07832
1.07679
1.07673
1.07673
1.0767
1.07672
1.07669
1.07671
1.07669
1.07671
1.07669
1.07671
1.07668
1.07669
1.07667
1.07667
1.07669
1.07668
1.07671
1.07669
1.07671
1.07669
1.07671
1.07669
1.07672
1.0767
1.07673
1.07672
1.07679
1.07831
1.07827
1.07679
1.0767
1.07671
1.07669
1.07671
1.07668
1.07671
1.07668
1.07671
1.07668
1.07671
1.07668
1.0767
1.07667
1.07669
1.07668
1.0767
1.07669
1.07671
1.07669
1.07671
1.07669
1.07671
1.07669
1.07672
1.0767
1.07671
1.0768
1.07827
0.190644
0.185471
0.185377
0.203974
0.225656
0.236613
0.236922
0.249549
0.37063
0.736092
1.22213
1.40329
1.4311
1.45994
1.23178
1.12174
1.05178
0.736944
0.554545
0.450774
0.405982
0.412105
0.480119
0.605436
0.816048
0.968223
1.05813
1.15028
1.2452
1.31525
1.36373
1.38274
1.39249
1.3873
1.39526
1.42114
1.44519
1.47737
1.48405
1.50009
1.48873
1.49407
1.47057
1.45288
1.1308
1.06873
1.05798
1.06717
1.08865
1.11524
1.13916
1.15786
1.17119
1.17895
1.18254
1.18392
1.17562
1.18138
1.17137
1.17611
1.16626
1.1719
1.16358
1.1656
1.16262
1.16205
1.15918
1.15782
1.15555
1.15501
1.15297
1.15553
1.15484
1.15506
1.07662
1.07687
1.07723
1.07535
1.07704
1.07444
1.07553
1.07282
1.07331
1.07067
1.07086
1.0678
1.06845
1.06554
1.06497
1.06386
1.06212
1.06198
1.05988
1.06003
1.05789
1.0584
1.05617
1.05686
1.05485
1.05534
1.05409
1.05397
1.0537
1.05342
1.0485
1.04859
1.0484
1.04851
1.04834
1.04841
1.04822
1.04829
1.04811
1.04812
1.04805
1.04799
1.04796
1.04788
1.04788
1.04779
1.04785
1.04777
1.04782
1.04774
1.0478
1.04773
1.04777
1.04773
1.04776
1.04775
1.04772
1.04775
1.04773
1.04787
1.04787
1.04774
1.04775
1.04772
1.04776
1.04773
1.04776
1.04773
1.04777
1.04773
1.04777
1.04774
1.04776
1.04776
1.04774
1.04777
1.04774
1.04777
1.04774
1.04777
1.04773
1.04777
1.04773
1.04776
1.04772
1.04774
1.04773
1.04772
1.04776
1.04784
1.04787
1.04773
1.04774
1.04772
1.04774
1.04775
1.04773
1.04777
1.04773
1.04777
1.04774
1.04778
1.04774
1.04777
1.04774
1.04777
1.04774
1.04777
1.04774
1.04776
1.04773
1.04776
1.04773
1.04776
1.04773
1.04776
1.04772
1.04775
1.04773
1.04787
1.04787
1.04774
1.04773
1.04775
1.04772
1.04776
1.04773
1.04777
1.04773
1.04777
1.04773
1.04777
1.04773
1.04777
1.04774
1.04777
1.04774
1.04777
1.04774
1.04777
1.04773
1.04777
1.04773
1.04776
1.04772
1.04774
1.04772
1.04772
1.04776
1.04783
1.04784
1.04776
1.04772
1.04775
1.04772
1.04776
1.04773
1.04777
1.04773
1.04777
1.04773
1.04777
1.04773
1.04777
1.04774
1.04777
1.04774
1.04777
1.04774
1.04777
1.04773
1.04777
1.04773
1.04776
1.04772
1.04774
1.04772
1.04771
1.04776
1.04783
1.04784
1.04775
1.04774
1.04772
1.04775
1.04772
1.04776
1.04773
1.04777
1.04773
1.04777
1.04774
1.04777
1.04774
1.04777
1.04774
1.04777
1.04774
1.04776
1.04774
1.04773
1.04776
1.04773
1.04776
1.04773
1.04776
1.04772
1.04775
1.04774
1.04787
1.04783
1.04776
1.04772
1.04775
1.04772
1.04776
1.04773
1.04777
1.04773
1.04777
1.04773
1.04777
1.04773
1.04777
1.04774
1.04777
1.04774
1.04777
1.04774
1.04777
1.04773
1.04776
1.04773
1.04776
1.04772
1.04774
1.04773
1.04772
1.04776
1.04784
1.04787
1.04773
1.04774
1.04773
1.04773
1.04776
1.04773
1.04776
1.04773
1.04777
1.04773
1.04777
1.04773
1.04777
1.04774
1.04774
1.04776
1.04773
1.04777
1.04773
1.04777
1.04773
1.04777
1.04773
1.04776
1.04772
1.04774
1.04775
1.04774
1.04787
1.04783
1.04775
1.04771
1.04775
1.04771
1.04775
1.04772
1.04777
1.04773
1.04777
1.04774
1.04778
1.04774
1.04777
1.04774
1.04777
1.04774
1.04777
1.04774
1.04778
1.04774
1.04777
1.04773
1.04776
1.04773
1.04775
1.04773
1.04772
1.04776
1.04784
0.17773
0.177609
0.180651
0.179855
0.187176
0.185245
0.190941
0.201725
0.21611
0.232032
0.484851
0.890783
1.38003
1.43768
1.20399
1.08108
0.660502
0.17546
0.188958
0.195481
0.189806
0.175331
0.170153
0.165787
0.275671
0.611906
0.899429
1.02552
1.10763
1.19429
1.2576
1.29644
1.30909
1.31753
1.31534
1.33237
1.36829
1.39283
1.42814
1.43507
1.45863
1.46767
1.48143
1.47878
1.05939
0.980001
0.957914
0.949577
0.966635
1.00414
1.04281
1.07656
1.09994
1.11549
1.12557
1.12998
1.13233
1.12722
1.12669
1.1294
1.1206
1.12773
1.11902
1.12572
1.11966
1.12446
1.11927
1.12326
1.11684
1.12215
1.11581
1.12195
1.1188
1.12231
1.03051
1.03164
1.03301
1.03748
1.03677
1.03955
1.03727
1.03933
1.03631
1.03796
1.03478
1.036
1.03252
1.03424
1.03022
1.03212
1.02857
1.02976
1.02723
1.02762
1.02554
1.02601
1.02417
1.02429
1.02328
1.02266
1.02258
1.02165
1.02197
1.02282
1.01834
1.01669
1.01681
1.01652
1.01664
1.01646
1.0165
1.01636
1.01638
1.01625
1.0162
1.01619
1.01606
1.01607
1.01598
1.01597
1.01592
1.01592
1.01591
1.0159
1.01589
1.01588
1.01587
1.01587
1.01587
1.01587
1.01585
1.01586
1.01593
1.01741
1.01741
1.01593
1.01586
1.01585
1.01587
1.01586
1.01587
1.01586
1.01588
1.01586
1.01587
1.01586
1.01587
1.01587
1.01586
1.01587
1.01586
1.01588
1.01586
1.01588
1.01586
1.01587
1.01585
1.01587
1.01585
1.01586
1.01585
1.01585
1.01593
1.01742
1.01741
1.01593
1.01586
1.01585
1.01586
1.01587
1.01586
1.01587
1.01586
1.01588
1.01586
1.01588
1.01586
1.01588
1.01586
1.01587
1.01586
1.01587
1.01586
1.01587
1.01585
1.01587
1.01585
1.01587
1.01585
1.01587
1.01585
1.01586
1.01593
1.01742
1.0174
1.01593
1.01586
1.01586
1.01585
1.01587
1.01586
1.01587
1.01586
1.01588
1.01586
1.01588
1.01586
1.01587
1.01586
1.01587
1.01586
1.01587
1.01586
1.01588
1.01586
1.01587
1.01585
1.01587
1.01585
1.01586
1.01584
1.01584
1.01593
1.01742
1.01741
1.01593
1.01584
1.01586
1.01585
1.01587
1.01585
1.01587
1.01586
1.01588
1.01586
1.01588
1.01586
1.01587
1.01586
1.01587
1.01586
1.01587
1.01586
1.01588
1.01586
1.01587
1.01585
1.01587
1.01585
1.01586
1.01584
1.01584
1.01593
1.01742
1.01742
1.01593
1.01585
1.01584
1.01586
1.01585
1.01587
1.01586
1.01588
1.01586
1.01588
1.01586
1.01588
1.01586
1.01587
1.01586
1.01587
1.01586
1.01587
1.01586
1.01586
1.01587
1.01585
1.01587
1.01586
1.01587
1.01585
1.01587
1.01593
1.01741
1.01742
1.01593
1.01584
1.01586
1.01584
1.01587
1.01585
1.01587
1.01586
1.01588
1.01586
1.01588
1.01586
1.01587
1.01586
1.01587
1.01586
1.01587
1.01586
1.01588
1.01586
1.01587
1.01585
1.01587
1.01585
1.01586
1.01585
1.01585
1.01593
1.01742
1.01741
1.01593
1.01585
1.01586
1.01586
1.01587
1.01586
1.01587
1.01586
1.01587
1.01586
1.01588
1.01586
1.01587
1.01586
1.01586
1.01586
1.01585
1.01588
1.01586
1.01588
1.01586
1.01587
1.01586
1.01587
1.01585
1.01586
1.01586
1.01593
1.01741
1.01741
1.01592
1.01583
1.01585
1.01584
1.01586
1.01585
1.01587
1.01585
1.01588
1.01586
1.01588
1.01585
1.01587
1.01585
1.01587
1.01585
1.01586
1.01585
1.01587
1.01586
1.01587
1.01585
1.01587
1.01585
1.01586
1.01585
1.01585
1.01593
1.01741
0.178415
0.179107
0.177738
0.178131
0.17314
0.17314
0.177916
0.182331
0.188138
0.194458
0.208745
0.218932
1.00186
1.41097
1.16618
0.863304
0.177957
0.201823
0.214345
0.209967
0.199902
0.186758
0.173664
0.170361
0.164265
0.249319
0.609599
0.90823
1.01362
1.07085
1.13858
1.18929
1.21892
1.23041
1.21535
1.24062
1.25079
1.29526
1.31661
1.35948
1.3798
1.40942
1.4436
1.46036
1.0012
0.965387
0.939639
0.904681
0.881685
0.898841
0.940786
0.983794
1.01852
1.03921
1.05498
1.06083
1.0678
1.06126
1.06674
1.06107
1.06115
1.0612
1.05667
1.06156
1.05641
1.06075
1.05667
1.05959
1.05603
1.06006
1.05785
1.06225
1.06522
1.06946
0.96849
0.968428
0.975204
0.976781
0.981638
0.980451
0.983258
0.980431
0.982435
0.979176
0.980751
0.977355
0.977577
0.976899
0.974475
0.974927
0.972936
0.972955
0.970936
0.971777
0.96904
0.970324
0.967785
0.968772
0.96708
0.966743
0.966852
0.96567
0.966121
0.965278
0.96056
0.961439
0.961132
0.961335
0.961118
0.96119
0.961024
0.96107
0.960932
0.960972
0.960851
0.960831
0.960798
0.960701
0.960728
0.960608
0.960639
0.960578
0.960577
0.960564
0.960555
0.960537
0.960544
0.96052
0.960525
0.960519
0.960501
0.960503
0.960499
0.960016
0.960022
0.960493
0.960503
0.960501
0.960512
0.960512
0.960523
0.960521
0.96053
0.960525
0.960533
0.960534
0.960537
0.960535
0.960539
0.960542
0.960539
0.960539
0.960534
0.960536
0.960526
0.960529
0.96052
0.960521
0.96051
0.960506
0.960502
0.960498
0.960491
0.960032
0.960015
0.960497
0.960501
0.960498
0.960519
0.960517
0.960515
0.960529
0.960523
0.960535
0.960531
0.960541
0.960537
0.960541
0.96054
0.96054
0.960538
0.960537
0.960533
0.96053
0.960521
0.960526
0.960519
0.960523
0.960511
0.96051
0.960503
0.960506
0.960491
0.960024
0.960014
0.9605
0.960511
0.960503
0.960505
0.960518
0.960517
0.960529
0.960522
0.960534
0.96053
0.960537
0.960534
0.960538
0.960537
0.960538
0.960536
0.960538
0.960533
0.960536
0.960526
0.960528
0.96052
0.960521
0.960509
0.960505
0.960499
0.960498
0.96049
0.960031
0.96003
0.960489
0.960495
0.960499
0.960503
0.960517
0.960516
0.960528
0.960522
0.960533
0.96053
0.960537
0.960535
0.960537
0.960535
0.960537
0.960538
0.960539
0.960534
0.960536
0.960527
0.960529
0.96052
0.960521
0.96051
0.960506
0.9605
0.960497
0.96049
0.960031
0.960034
0.960495
0.960499
0.960498
0.960508
0.960513
0.960524
0.960522
0.96053
0.960529
0.960537
0.960534
0.960539
0.960538
0.960539
0.960536
0.960539
0.960534
0.960531
0.960534
0.960527
0.960525
0.960519
0.960522
0.960512
0.960511
0.960501
0.960508
0.960497
0.960016
0.960036
0.960493
0.960495
0.960499
0.960504
0.960518
0.960517
0.96053
0.960523
0.960534
0.96053
0.960537
0.960535
0.960538
0.960536
0.960537
0.960538
0.960539
0.960533
0.960535
0.960525
0.960527
0.960519
0.96052
0.960509
0.960506
0.960502
0.960498
0.960491
0.960033
0.960015
0.960499
0.960502
0.960507
0.96051
0.960518
0.960516
0.960528
0.960521
0.960532
0.960528
0.960539
0.960533
0.960538
0.960535
0.960537
0.960536
0.960534
0.960538
0.960529
0.960534
0.960522
0.96053
0.960517
0.960519
0.96051
0.960501
0.960502
0.960499
0.960016
0.960031
0.960488
0.960489
0.960497
0.960496
0.960515
0.96051
0.960528
0.960517
0.960536
0.960527
0.960541
0.960534
0.960542
0.96054
0.960542
0.960542
0.960547
0.960538
0.960541
0.960534
0.960536
0.960529
0.960529
0.960518
0.960514
0.960509
0.960503
0.960499
0.960036
0.177961
0.175297
0.170994
0.168668
0.166083
0.167482
0.171034
0.175114
0.180665
0.188057
0.185591
0.362598
1.11574
1.35074
1.09024
0.527889
0.233995
0.219078
0.212474
0.206433
0.196755
0.186784
0.176678
0.169695
0.16646
0.161477
0.284648
0.67984
0.937599
0.990893
1.02382
1.07935
1.11954
1.13443
1.13176
1.14902
1.17393
1.1931
1.23819
1.26454
1.30402
1.34888
1.40236
1.46149
1.01004
0.999713
0.982056
0.93049
0.865813
0.83952
0.860207
0.899855
0.937624
0.963253
0.979967
0.990929
0.995635
0.999562
1.00214
0.993873
1.00372
0.996526
0.998822
0.998942
0.999509
1.00167
1.00078
1.00453
1.00343
1.00583
1.00769
1.01195
1.01752
1.02592
0.901852
0.901926
0.909229
0.918381
0.922907
0.927763
0.92753
0.929909
0.928639
0.929549
0.928435
0.927946
0.92738
0.926665
0.925352
0.925755
0.923684
0.924444
0.921992
0.923046
0.920724
0.921463
0.919847
0.920002
0.919352
0.91849
0.918998
0.917965
0.91864
0.917614
0.913443
0.913297
0.913807
0.913358
0.913559
0.913322
0.913386
0.913223
0.913254
0.913126
0.913154
0.913012
0.913039
0.912929
0.912911
0.912841
0.912805
0.912776
0.912768
0.912732
0.91275
0.91272
0.912728
0.912715
0.912719
0.912733
0.912738
0.912772
0.912798
0.912399
0.912406
0.912799
0.91277
0.91274
0.912722
0.912715
0.912709
0.912712
0.912711
0.912712
0.912709
0.912714
0.912716
0.912714
0.91272
0.912721
0.91272
0.912718
0.912717
0.912715
0.912715
0.912714
0.912711
0.912709
0.912714
0.912721
0.912743
0.91277
0.912794
0.912413
0.912398
0.912797
0.91277
0.912736
0.912733
0.912715
0.912709
0.912712
0.912713
0.912716
0.912716
0.912718
0.912721
0.912721
0.912723
0.91272
0.91272
0.912717
0.912713
0.912706
0.912707
0.912707
0.912708
0.912708
0.912716
0.912722
0.912743
0.912773
0.912798
0.912409
0.912401
0.912798
0.91278
0.912739
0.912723
0.912714
0.912711
0.912711
0.912714
0.912714
0.912714
0.912713
0.912716
0.912717
0.912718
0.912717
0.912718
0.912717
0.912716
0.912713
0.912714
0.912712
0.912711
0.912707
0.912712
0.912719
0.912739
0.912768
0.912794
0.912411
0.912409
0.912791
0.91277
0.912735
0.912722
0.912714
0.912712
0.912712
0.912715
0.912713
0.912714
0.912713
0.912717
0.912717
0.912719
0.912718
0.912719
0.912717
0.912716
0.912713
0.912715
0.912713
0.912711
0.912708
0.912712
0.91272
0.91274
0.912768
0.912794
0.912411
0.912417
0.912794
0.91277
0.912741
0.912721
0.912718
0.912711
0.912715
0.912715
0.912718
0.912716
0.912718
0.912719
0.912721
0.912719
0.912719
0.912717
0.912715
0.912707
0.91271
0.912709
0.912709
0.912708
0.912708
0.912714
0.912721
0.912741
0.912776
0.912803
0.912404
0.912416
0.912793
0.912769
0.912735
0.912723
0.912715
0.912711
0.912712
0.912715
0.912714
0.912714
0.912714
0.912717
0.912717
0.912719
0.912717
0.912718
0.912717
0.912716
0.912713
0.912713
0.912712
0.91271
0.912707
0.912712
0.91272
0.912742
0.912769
0.912793
0.912412
0.912399
0.912799
0.912767
0.912744
0.912727
0.912714
0.912708
0.91271
0.912711
0.912712
0.912714
0.912715
0.912716
0.912717
0.912718
0.912718
0.912717
0.912716
0.912713
0.912713
0.912712
0.912712
0.91271
0.91271
0.912713
0.912722
0.912734
0.912768
0.9128
0.912399
0.912408
0.912792
0.912767
0.912736
0.91272
0.912711
0.912707
0.912708
0.91271
0.912712
0.912716
0.912714
0.912716
0.912714
0.912715
0.912715
0.91272
0.91272
0.912717
0.912714
0.912713
0.912711
0.912711
0.912711
0.912718
0.912733
0.912765
0.912831
0.912937
0.912563
0.165813
0.163972
0.16086
0.159741
0.161219
0.165841
0.167023
0.172552
0.17715
0.180883
0.183041
0.195347
0.224861
0.846835
0.797848
0.812955
0.917915
0.262021
0.250257
0.223064
0.199992
0.188341
0.182743
0.176428
0.170778
0.170799
0.168637
0.163365
0.150644
0.394198
0.783993
0.935107
0.95118
0.979922
1.01241
1.04544
1.04376
1.05512
1.06478
1.08829
1.12056
1.16212
1.19828
1.23822
1.27012
1.27077
1.10185
1.13198
1.11632
1.08175
1.01839
0.931471
0.863054
0.813343
0.810018
0.836102
0.866619
0.889459
0.904507
0.915837
0.919823
0.92867
0.922236
0.923825
0.92558
0.919248
0.926069
0.918907
0.924704
0.920679
0.924454
0.921722
0.926879
0.922893
0.931901
0.928894
0.939201
0.943428
0.91403
0.895438
0.855783
0.845437
0.847875
0.853588
0.857756
0.85789
0.860768
0.857521
0.860684
0.856259
0.859469
0.854727
0.857537
0.85379
0.854807
0.853065
0.852846
0.851623
0.851144
0.850647
0.849448
0.849627
0.848364
0.848527
0.847501
0.847587
0.846649
0.846874
0.845982
0.844681
0.841286
0.841774
0.840803
0.843313
0.842583
0.843009
0.84251
0.842665
0.842433
0.84248
0.842344
0.842377
0.842261
0.842279
0.842207
0.842152
0.842174
0.842082
0.842096
0.842016
0.842039
0.841994
0.841996
0.84199
0.841972
0.841975
0.841975
0.841988
0.841997
0.841986
0.841886
0.840023
0.838443
0.838443
0.840027
0.841882
0.84199
0.841988
0.841982
0.841969
0.841964
0.841961
0.841964
0.841965
0.841964
0.841966
0.841964
0.841965
0.841969
0.841968
0.841967
0.841968
0.841967
0.841969
0.841968
0.841967
0.841961
0.841965
0.84197
0.841981
0.841993
0.841991
0.841879
0.840034
0.838444
0.838443
0.840022
0.841884
0.841986
0.841993
0.841988
0.841971
0.841962
0.841965
0.841964
0.841971
0.841968
0.841969
0.841968
0.841969
0.84197
0.841968
0.841967
0.841965
0.841964
0.841963
0.841962
0.841961
0.84196
0.841963
0.84197
0.841981
0.841989
0.841991
0.84188
0.840028
0.838443
0.838443
0.840026
0.841885
0.841994
0.841991
0.841982
0.841972
0.841963
0.841963
0.841964
0.84197
0.841967
0.841967
0.841967
0.841968
0.841969
0.841967
0.841968
0.841968
0.841967
0.841969
0.841968
0.841966
0.841962
0.841964
0.841969
0.84198
0.841991
0.841989
0.841878
0.840032
0.838442
0.838443
0.840029
0.841879
0.841987
0.841991
0.841981
0.841972
0.841963
0.841965
0.841964
0.841969
0.841968
0.841967
0.841968
0.841966
0.841969
0.841968
0.841968
0.841969
0.841967
0.841969
0.841969
0.841967
0.841962
0.841965
0.841969
0.84198
0.841992
0.84199
0.841878
0.840033
0.838443
0.838445
0.840035
0.841878
0.841988
0.841989
0.841983
0.841973
0.841966
0.841964
0.841967
0.84197
0.841969
0.841968
0.841968
0.841967
0.841967
0.841968
0.841967
0.841963
0.841961
0.841964
0.841966
0.841961
0.84196
0.841963
0.841969
0.841982
0.84199
0.84199
0.841883
0.840025
0.838442
0.838443
0.840034
0.84188
0.841986
0.841991
0.841983
0.841973
0.841963
0.841964
0.841965
0.84197
0.841968
0.841968
0.841968
0.841968
0.841969
0.841967
0.841968
0.841968
0.841967
0.841969
0.841967
0.841966
0.841961
0.841964
0.841969
0.84198
0.841992
0.841989
0.841878
0.840033
0.838444
0.838445
0.840024
0.841887
0.841984
0.841997
0.841981
0.841972
0.841961
0.841964
0.841963
0.84197
0.841968
0.841969
0.841968
0.841967
0.841969
0.841969
0.841967
0.841967
0.841968
0.841968
0.84197
0.841964
0.841965
0.841962
0.841972
0.84198
0.841989
0.841982
0.841882
0.840017
0.83844
0.83844
0.84003
0.841875
0.841983
0.84199
0.84198
0.841972
0.84196
0.841964
0.841968
0.841974
0.841977
0.841977
0.841976
0.841976
0.841976
0.841973
0.841972
0.84197
0.841968
0.84197
0.841968
0.841971
0.841967
0.841973
0.841973
0.84198
0.841988
0.841981
0.841872
0.840032
0.838522
0.839923
0.153501
0.155246
0.153173
0.153853
0.156084
0.159245
0.163376
0.166461
0.167077
0.171642
0.170011
0.173449
0.183599
0.253239
0.235073
0.22892
0.260606
0.248529
0.223201
0.187063
0.173708
0.170847
0.168803
0.167471
0.166083
0.16997
0.165958
0.16069
0.168553
0.212517
0.548706
0.845838
0.904824
0.905254
0.930766
0.951328
0.966009
0.977294
0.987881
1.00738
1.02672
1.05686
1.08823
1.12011
1.14562
1.18629
1.14926
1.13363
1.09087
1.03757
0.970491
0.905788
0.832144
0.793151
0.776842
0.789151
0.808649
0.825886
0.839167
0.847785
0.856364
0.858563
0.857005
0.865931