/*--------------------------------*- C++ -*----------------------------------*\
| =========                 |                                                 |
| \\      /  F ield         | OpenFOAM: The Open Source CFD Toolbox           |
|  \\    /   O peration     | Version:  2.1.1                                 |
|   \\  /    A nd           | Web:      www.OpenFOAM.org                      |
|    \\/     M anipulation  |                                                 |
\*---------------------------------------------------------------------------*/
FoamFile
{
    version     2.0;
    format      ascii;
    class       volScalarField;
    location    "0.001300000";
    object      rhoEu;
}
// * * * * * * * * * * * * * * * * * * * * * * * * * * * * * * * * * * * * * //

dimensions      [1 -1 -2 0 0 0 0];

internalField   nonuniform List<scalar> 
12384
(
-108838
-106451
-103005
-101296
-101126
-100956
-101218
-101174
-101712
-101696
-101215
-101205
-100583
-99714.3
-101416
-102460
-102762
-103948
-103520
-104216
-103938
-103734
-103334
-102683
-101929
-101115
-99693.9
-98370.4
-97499.5
-97666.3
-98230.7
-97684.3
-97379.4
-95111.2
-93931.8
-93164.9
-92944
-93254.6
-94335.8
-96208.9
-98741.5
-100410
-103318
-103270
-106601
-106561
-106535
-106487
-106437
-106367
-106375
-106301
-106350
-106379
-106427
-106398
-106491
-106464
-106545
-106561
-106591
-106627
-106709
-106741
-106882
-106925
-107084
-107123
-107241
-107270
-107335
-107361
-107385
-107401
-107613
-107608
-107607
-107600
-107597
-107590
-107591
-107580
-107580
-107573
-107570
-107568
-107562
-107565
-107556
-107559
-107549
-107554
-107541
-107547
-107536
-107542
-107529
-107533
-107530
-107521
-107525
-107518
-107522
-107518
-107491
-107491
-107491
-107491
-107490
-107491
-107489
-107490
-107489
-107489
-107487
-107488
-107489
-107489
-107488
-107488
-107488
-107488
-107487
-107486
-107487
-107487
-107488
-107488
-107488
-107487
-107488
-107488
-107487
-107488
-107488
-107488
-107488
-107487
-107486
-107488
-107488
-107487
-107487
-107488
-107487
-107487
-107488
-107488
-107487
-107488
-107488
-107488
-107486
-107487
-107488
-107487
-107487
-107488
-107487
-107487
-107488
-107487
-107488
-107488
-107488
-107487
-107488
-107488
-107487
-107488
-107487
-107488
-107487
-107487
-107486
-107487
-107488
-107488
-107488
-107488
-107488
-107488
-107486
-107487
-107488
-107487
-107487
-107488
-107487
-107487
-107487
-107488
-107488
-107488
-107488
-107487
-107487
-107488
-107486
-107488
-107488
-107488
-107487
-107487
-107486
-107487
-107488
-107488
-107488
-107488
-107488
-107488
-107486
-107487
-107488
-107487
-107487
-107488
-107488
-107487
-107487
-107487
-107488
-107488
-107487
-107488
-107487
-107488
-107486
-107488
-107488
-107488
-107487
-107487
-107486
-107487
-107488
-107488
-107488
-107488
-107488
-107488
-107486
-107487
-107488
-107487
-107487
-107488
-107488
-107486
-107488
-107487
-107488
-107488
-107487
-107487
-107488
-107488
-107486
-107487
-107488
-107487
-107487
-107488
-107487
-107486
-107488
-107488
-107488
-107487
-107488
-107488
-107487
-107487
-107488
-107488
-107487
-107488
-107488
-107486
-107487
-107488
-107487
-107488
-107488
-107488
-107487
-107488
-107486
-107488
-107488
-107488
-107487
-107487
-107486
-107487
-107488
-107488
-107488
-107488
-107488
-107488
-107486
-107487
-107488
-107487
-107487
-107488
-107488
-107486
-107487
-107487
-107488
-107488
-107488
-107487
-107487
-107488
-107486
-107488
-107488
-107487
-107488
-107487
-107487
-107487
-107487
-107488
-107488
-107488
-107488
-107488
-107487
-107486
-107487
-107488
-107487
-107487
-107488
-107486
-107488
-107487
-107487
-107488
-107488
-107488
-107487
-107487
-107486
-107488
-107487
-107488
-107488
-107488
-107487
-107487
-107488
-107488
-107486
-107487
-107486
-107487
-107488
-107488
-107488
-107488
-107487
-107488
-107487
-107486
-107487
-107487
-107487
-107487
-87578.3
-97100.5
-102488
-103013
-102042
-101987
-101488
-101958
-101535
-101534
-101650
-101318
-100769
-100497
-102215
-102348
-102799
-103137
-103506
-103957
-103875
-103505
-102973
-102631
-101863
-101115
-100391
-99342.7
-98359.7
-97871.9
-97893.4
-97703.8
-97199.7
-95988.4
-94722.7
-93855
-93531.4
-93731.4
-94424.8
-96207
-98169
-100492
-101949
-103792
-106689
-106623
-106576
-106505
-106420
-106364
-106291
-106277
-106277
-106328
-106382
-106398
-106464
-106496
-106523
-106555
-106604
-106612
-106705
-106735
-106876
-106931
-107062
-107134
-107218
-107275
-107324
-107360
-107392
-107399
-107611
-107608
-107605
-107603
-107594
-107594
-107584
-107585
-107575
-107577
-107568
-107571
-107561
-107566
-107555
-107562
-107547
-107556
-107542
-107546
-107538
-107538
-107533
-107529
-107528
-107524
-107523
-107518
-107520
-107518
-107492
-107490
-107494
-107489
-107492
-107491
-107488
-107492
-107487
-107491
-107487
-107491
-107486
-107490
-107488
-107487
-107490
-107486
-107490
-107485
-107490
-107485
-107490
-107485
-107488
-107488
-107485
-107490
-107486
-107487
-107487
-107486
-107490
-107485
-107489
-107485
-107490
-107485
-107490
-107485
-107490
-107486
-107489
-107489
-107486
-107490
-107486
-107490
-107485
-107490
-107485
-107490
-107485
-107490
-107485
-107489
-107487
-107485
-107488
-107487
-107487
-107486
-107490
-107485
-107488
-107489
-107485
-107490
-107485
-107490
-107485
-107490
-107485
-107490
-107486
-107490
-107486
-107490
-107485
-107490
-107485
-107490
-107486
-107490
-107485
-107489
-107485
-107490
-107486
-107487
-107487
-107487
-107488
-107489
-107486
-107490
-107485
-107489
-107485
-107490
-107485
-107490
-107486
-107490
-107486
-107490
-107486
-107490
-107485
-107490
-107485
-107490
-107485
-107490
-107485
-107489
-107486
-107486
-107488
-107487
-107486
-107487
-107485
-107490
-107484
-107490
-107485
-107490
-107485
-107490
-107485
-107490
-107486
-107490
-107486
-107490
-107486
-107490
-107485
-107490
-107485
-107490
-107485
-107490
-107485
-107489
-107486
-107485
-107487
-107487
-107487
-107487
-107488
-107485
-107489
-107485
-107490
-107485
-107490
-107485
-107490
-107486
-107490
-107486
-107489
-107486
-107490
-107486
-107489
-107486
-107486
-107489
-107486
-107490
-107485
-107489
-107485
-107490
-107486
-107487
-107487
-107488
-107485
-107489
-107484
-107489
-107484
-107490
-107485
-107490
-107485
-107490
-107486
-107490
-107486
-107490
-107486
-107490
-107485
-107490
-107485
-107490
-107485
-107490
-107485
-107489
-107487
-107485
-107487
-107487
-107487
-107486
-107489
-107487
-107486
-107489
-107485
-107490
-107485
-107490
-107485
-107490
-107486
-107489
-107486
-107487
-107489
-107486
-107490
-107485
-107490
-107485
-107490
-107485
-107489
-107485
-107488
-107489
-107486
-107487
-107486
-107487
-107484
-107489
-107485
-107490
-107484
-107490
-107484
-107491
-107485
-107491
-107485
-107490
-107485
-107490
-107486
-107490
-107485
-107490
-107485
-107490
-107484
-107489
-107485
-107489
-107487
-107486
-107487
-107486
-34784.6
-58885.6
-71605.8
-86391.8
-97034.2
-99857.8
-101426
-101269
-101697
-101445
-101649
-100868
-100850
-101075
-104188
-103636
-103033
-103044
-102706
-102211
-102204
-102603
-103044
-103026
-102341
-101417
-100597
-99918.5
-98880.7
-97784.3
-97132.6
-97150.1
-97356.4
-96816.9
-96212.8
-95143.2
-94781.2
-94982
-95567.6
-96866.6
-98543.1
-100198
-101305
-103390
-106801
-106691
-106636
-106533
-106426
-106294
-106195
-106139
-106161
-106201
-106341
-106390
-106499
-106536
-106627
-106620
-106723
-106731
-106827
-106861
-106971
-107035
-107112
-107212
-107249
-107333
-107355
-107390
-107418
-107431
-107625
-107622
-107621
-107616
-107615
-107609
-107611
-107602
-107604
-107597
-107597
-107595
-107589
-107589
-107581
-107584
-107575
-107577
-107572
-107564
-107569
-107555
-107563
-107550
-107555
-107547
-107545
-107546
-107542
-107544
-107515
-107516
-107514
-107516
-107513
-107514
-107514
-107512
-107512
-107511
-107513
-107512
-107513
-107511
-107511
-107512
-107511
-107512
-107511
-107512
-107510
-107511
-107510
-107512
-107511
-107510
-107512
-107511
-107512
-107512
-107511
-107512
-107510
-107512
-107510
-107512
-107510
-107511
-107509
-107512
-107510
-107512
-107511
-107511
-107511
-107509
-107511
-107510
-107512
-107510
-107512
-107510
-107511
-107510
-107513
-107510
-107511
-107512
-107511
-107512
-107512
-107512
-107511
-107512
-107510
-107511
-107512
-107510
-107511
-107510
-107512
-107511
-107512
-107510
-107512
-107510
-107512
-107510
-107511
-107509
-107511
-107509
-107511
-107510
-107512
-107509
-107511
-107510
-107511
-107511
-107512
-107511
-107511
-107511
-107511
-107511
-107511
-107510
-107511
-107511
-107512
-107511
-107512
-107510
-107512
-107510
-107512
-107510
-107512
-107510
-107512
-107510
-107511
-107510
-107513
-107510
-107511
-107512
-107512
-107512
-107512
-107510
-107512
-107510
-107511
-107511
-107512
-107510
-107511
-107510
-107512
-107510
-107512
-107510
-107512
-107510
-107512
-107510
-107512
-107510
-107512
-107510
-107511
-107510
-107513
-107511
-107511
-107512
-107512
-107512
-107511
-107511
-107510
-107511
-107510
-107513
-107510
-107511
-107510
-107512
-107510
-107512
-107510
-107511
-107510
-107512
-107510
-107511
-107510
-107511
-107512
-107509
-107511
-107510
-107513
-107510
-107512
-107510
-107512
-107511
-107512
-107510
-107512
-107510
-107511
-107511
-107511
-107510
-107511
-107511
-107512
-107510
-107512
-107510
-107511
-107510
-107512
-107510
-107512
-107510
-107512
-107510
-107511
-107510
-107513
-107510
-107511
-107512
-107511
-107512
-107512
-107512
-107511
-107511
-107511
-107511
-107511
-107510
-107511
-107511
-107512
-107510
-107512
-107511
-107511
-107511
-107511
-107512
-107511
-107512
-107511
-107511
-107510
-107511
-107511
-107512
-107511
-107511
-107512
-107512
-107511
-107511
-107512
-107510
-107511
-107510
-107511
-107510
-107511
-107510
-107511
-107510
-107511
-107510
-107511
-107510
-107511
-107510
-107511
-107510
-107512
-107511
-107511
-107510
-107513
-107510
-107510
-107512
-107510
-107511
-1794.08
-13324.8
-21127.1
-58467.4
-92223.7
-88763.5
-98609.1
-105895
-102635
-101247
-101019
-101231
-100859
-100380
-103923
-103552
-103065
-101588
-101272
-101662
-102089
-101921
-101717
-101784
-102531
-102134
-100757
-99512
-98537.6
-96947.5
-96050.4
-96007
-96779.7
-97442.2
-96888.7
-96324.6
-95608.7
-95776.3
-96209.7
-97287.6
-97918.5
-99698.5
-100130
-101850
-106905
-106738
-106633
-106492
-106338
-106181
-106042
-105949
-105935
-105967
-106115
-106217
-106394
-106424
-106574
-106591
-106710
-106735
-106829
-106893
-106946
-107043
-107081
-107202
-107227
-107324
-107350
-107389
-107417
-107422
-107599
-107596
-107599
-107603
-107597
-107605
-107596
-107603
-107591
-107600
-107585
-107597
-107581
-107586
-107580
-107576
-107575
-107569
-107571
-107562
-107565
-107557
-107556
-107554
-107548
-107550
-107542
-107543
-107541
-107541
-107514
-107512
-107516
-107511
-107514
-107514
-107511
-107513
-107509
-107512
-107508
-107512
-107508
-107511
-107508
-107508
-107511
-107507
-107511
-107507
-107511
-107507
-107511
-107508
-107511
-107510
-107507
-107511
-107508
-107509
-107509
-107508
-107511
-107507
-107511
-107508
-107511
-107508
-107511
-107507
-107511
-107507
-107510
-107510
-107507
-107511
-107507
-107510
-107507
-107511
-107507
-107510
-107507
-107511
-107508
-107510
-107508
-107507
-107509
-107509
-107509
-107508
-107511
-107507
-107508
-107511
-107507
-107511
-107507
-107510
-107507
-107511
-107507
-107510
-107507
-107510
-107507
-107511
-107507
-107510
-107507
-107510
-107508
-107511
-107508
-107511
-107508
-107511
-107508
-107510
-107509
-107508
-107508
-107511
-107507
-107512
-107508
-107511
-107507
-107511
-107507
-107511
-107507
-107511
-107507
-107510
-107507
-107510
-107507
-107511
-107507
-107510
-107507
-107511
-107508
-107510
-107507
-107507
-107509
-107509
-107509
-107509
-107507
-107510
-107507
-107511
-107507
-107511
-107507
-107511
-107507
-107511
-107506
-107510
-107507
-107510
-107507
-107510
-107507
-107511
-107507
-107510
-107507
-107511
-107508
-107510
-107507
-107507
-107509
-107509
-107509
-107509
-107510
-107507
-107511
-107508
-107511
-107507
-107511
-107507
-107511
-107507
-107510
-107507
-107510
-107507
-107510
-107507
-107510
-107507
-107507
-107510
-107507
-107511
-107508
-107511
-107507
-107511
-107508
-107509
-107509
-107509
-107506
-107511
-107507
-107511
-107507
-107511
-107507
-107511
-107507
-107511
-107506
-107511
-107507
-107510
-107507
-107510
-107507
-107511
-107507
-107510
-107507
-107511
-107508
-107510
-107508
-107507
-107509
-107509
-107509
-107508
-107510
-107510
-107508
-107512
-107508
-107511
-107507
-107510
-107507
-107511
-107507
-107510
-107507
-107507
-107510
-107507
-107511
-107507
-107511
-107507
-107511
-107508
-107512
-107507
-107510
-107510
-107508
-107510
-107509
-107509
-107507
-107511
-107507
-107512
-107507
-107511
-107507
-107511
-107506
-107511
-107507
-107511
-107508
-107511
-107508
-107511
-107508
-107512
-107507
-107510
-107507
-107511
-107508
-107510
-107508
-107508
-107509
-107509
35377.6
34930.7
25883.8
4120.45
-29166.9
-53174.5
-86920.4
-114606
-117554
-110937
-102886
-100463
-101016
-100367
-103697
-103302
-102572
-111909
-120960
-126161
-127280
-125016
-119865
-113087
-104609
-100958
-100986
-99566.9
-97740
-96348
-95206.2
-95308.7
-96045.6
-97335.6
-97869.2
-97299.3
-96852.4
-96290.8
-96874.1
-97081.9
-98236.4
-98446.1
-99642.1
-100360
-106934
-106749
-106521
-106257
-106166
-106034
-105903
-105758
-105705
-105688
-105841
-105951
-106239
-106268
-106498
-106508
-106678
-106693
-106817
-106857
-106934
-106986
-107073
-107139
-107220
-107277
-107341
-107372
-107404
-107425
-107584
-107568
-107577
-107580
-107586
-107584
-107590
-107585
-107591
-107583
-107590
-107578
-107588
-107574
-107580
-107572
-107572
-107567
-107565
-107562
-107556
-107557
-107550
-107552
-107543
-107546
-107540
-107540
-107538
-107536
-107509
-107511
-107509
-107511
-107509
-107509
-107509
-107509
-107508
-107507
-107508
-107506
-107508
-107506
-107507
-107507
-107506
-107507
-107506
-107506
-107505
-107506
-107506
-107506
-107505
-107505
-107506
-107505
-107506
-107505
-107506
-107506
-107504
-107506
-107504
-107506
-107505
-107507
-107504
-107506
-107505
-107507
-107505
-107505
-107507
-107505
-107507
-107505
-107507
-107505
-107506
-107505
-107507
-107505
-107506
-107505
-107506
-107506
-107506
-107505
-107505
-107506
-107505
-107506
-107505
-107505
-107506
-107506
-107506
-107504
-107506
-107506
-107507
-107505
-107507
-107505
-107507
-107505
-107507
-107505
-107506
-107505
-107507
-107505
-107506
-107505
-107506
-107505
-107506
-107505
-107505
-107506
-107506
-107505
-107506
-107505
-107507
-107506
-107507
-107504
-107506
-107505
-107507
-107505
-107507
-107505
-107507
-107505
-107507
-107505
-107506
-107505
-107507
-107505
-107506
-107505
-107506
-107506
-107506
-107505
-107506
-107505
-107506
-107505
-107506
-107505
-107507
-107506
-107506
-107504
-107506
-107505
-107507
-107505
-107507
-107505
-107507
-107505
-107507
-107505
-107506
-107505
-107507
-107505
-107506
-107505
-107506
-107506
-107506
-107505
-107506
-107506
-107505
-107506
-107505
-107507
-107505
-107508
-107505
-107506
-107504
-107507
-107505
-107507
-107505
-107507
-107505
-107507
-107506
-107506
-107505
-107505
-107507
-107505
-107506
-107504
-107506
-107504
-107506
-107505
-107505
-107505
-107507
-107505
-107507
-107505
-107507
-107506
-107507
-107504
-107506
-107505
-107507
-107505
-107507
-107505
-107507
-107505
-107507
-107505
-107506
-107505
-107507
-107505
-107506
-107505
-107505
-107506
-107506
-107505
-107505
-107506
-107505
-107505
-107506
-107505
-107507
-107505
-107506
-107504
-107506
-107505
-107506
-107505
-107507
-107506
-107505
-107506
-107505
-107506
-107504
-107506
-107505
-107507
-107504
-107506
-107505
-107505
-107506
-107505
-107506
-107505
-107507
-107505
-107506
-107504
-107507
-107506
-107508
-107505
-107507
-107505
-107507
-107505
-107507
-107505
-107507
-107505
-107507
-107505
-107506
-107505
-107507
-107506
-107507
-107506
-107506
-107506
-107506
-107507
34543.6
34371.8
37726.8
32246.6
22884.4
-5375.86
-42135.1
-87256.5
-114849
-132108
-121174
-109385
-100876
-100885
-103062
-102593
-113896
-141252
-140721
-146598
-147418
-146476
-147687
-146411
-131677
-110035
-99998.6
-99447.1
-98018.4
-96054.5
-94724.6
-94582.7
-95457.6
-96710.9
-97979.7
-98241.2
-97386.2
-97066.4
-96558.6
-97298.5
-97444.5
-97917.3
-98229.9
-98576.6
-106840
-106528
-106109
-105775
-105678
-105646
-105616
-105519
-105462
-105457
-105523
-105713
-105918
-106172
-106350
-106428
-106623
-106636
-106786
-106799
-106908
-106941
-107050
-107084
-107199
-107222
-107320
-107339
-107390
-107395
-107565
-107525
-107545
-107553
-107560
-107569
-107571
-107579
-107576
-107583
-107576
-107583
-107572
-107582
-107566
-107578
-107561
-107571
-107557
-107563
-107550
-107557
-107545
-107550
-107542
-107542
-107540
-107536
-107537
-107534
-107511
-107508
-107510
-107507
-107508
-107507
-107507
-107506
-107506
-107505
-107504
-107505
-107504
-107505
-107504
-107503
-107504
-107503
-107504
-107503
-107503
-107503
-107503
-107503
-107503
-107503
-107503
-107504
-107503
-107504
-107503
-107503
-107503
-107503
-107504
-107503
-107504
-107502
-107504
-107502
-107503
-107502
-107503
-107503
-107503
-107503
-107503
-107503
-107503
-107503
-107502
-107503
-107502
-107504
-107503
-107503
-107503
-107503
-107503
-107503
-107504
-107503
-107503
-107503
-107503
-107503
-107503
-107503
-107503
-107503
-107502
-107503
-107503
-107503
-107503
-107503
-107503
-107503
-107503
-107503
-107502
-107504
-107502
-107504
-107502
-107504
-107503
-107503
-107503
-107503
-107503
-107503
-107503
-107503
-107503
-107503
-107503
-107503
-107503
-107503
-107502
-107503
-107503
-107503
-107503
-107503
-107503
-107503
-107503
-107503
-107502
-107503
-107502
-107504
-107503
-107504
-107503
-107503
-107503
-107503
-107503
-107503
-107502
-107504
-107503
-107504
-107502
-107503
-107503
-107503
-107502
-107503
-107503
-107503
-107503
-107503
-107503
-107503
-107503
-107503
-107502
-107504
-107502
-107504
-107503
-107504
-107503
-107503
-107503
-107503
-107503
-107503
-107503
-107502
-107504
-107502
-107504
-107502
-107504
-107502
-107503
-107503
-107503
-107503
-107503
-107503
-107503
-107503
-107503
-107503
-107503
-107504
-107502
-107504
-107503
-107503
-107503
-107503
-107503
-107504
-107503
-107503
-107502
-107504
-107502
-107504
-107502
-107503
-107502
-107503
-107502
-107503
-107503
-107503
-107503
-107503
-107503
-107503
-107503
-107503
-107502
-107503
-107502
-107504
-107503
-107503
-107503
-107503
-107503
-107503
-107504
-107503
-107503
-107503
-107503
-107504
-107503
-107503
-107502
-107503
-107502
-107503
-107503
-107503
-107503
-107503
-107503
-107502
-107503
-107502
-107503
-107502
-107503
-107503
-107503
-107503
-107503
-107503
-107503
-107504
-107503
-107503
-107502
-107503
-107502
-107503
-107502
-107503
-107503
-107503
-107502
-107504
-107503
-107503
-107503
-107504
-107504
-107503
-107502
-107504
-107502
-107503
-107503
-107504
-107503
-107503
-107502
-107502
-107504
-107503
34429.6
34996.5
33685.8
30960.1
17454.3
6919.39
-14902.1
-61754.6
-105038
-122822
-131667
-143711
-108090
-100253
-102510
-108208
-139474
-140897
-140016
-140828
-143904
-145569
-141583
-143389
-141963
-132540
-110891
-98570.1
-98211.9
-96751.2
-94759.6
-94277.9
-94741.7
-96015
-98157.2
-98299.2
-98561
-97614.4
-97355.6
-96461.3
-96738.9
-96900.5
-96959.2
-95451.2
-106587
-105692
-105096
-104763
-104827
-105019
-105127
-105173
-105139
-105174
-105229
-105449
-105609
-105991
-106123
-106347
-106491
-106589
-106725
-106751
-106862
-106889
-106993
-107028
-107133
-107168
-107257
-107307
-107333
-107339
-107521
-107455
-107493
-107512
-107532
-107540
-107556
-107555
-107568
-107561
-107576
-107562
-107573
-107566
-107566
-107562
-107563
-107557
-107555
-107555
-107547
-107549
-107540
-107545
-107536
-107535
-107533
-107529
-107530
-107528
-107503
-107504
-107502
-107503
-107501
-107502
-107501
-107501
-107499
-107500
-107500
-107499
-107499
-107498
-107498
-107498
-107498
-107498
-107497
-107498
-107497
-107497
-107497
-107497
-107497
-107497
-107496
-107496
-107497
-107497
-107497
-107497
-107496
-107497
-107496
-107498
-107497
-107498
-107496
-107498
-107497
-107497
-107497
-107497
-107497
-107497
-107498
-107497
-107498
-107497
-107498
-107496
-107498
-107497
-107497
-107496
-107496
-107497
-107496
-107497
-107497
-107497
-107496
-107496
-107497
-107497
-107497
-107497
-107496
-107497
-107498
-107497
-107498
-107497
-107497
-107497
-107498
-107497
-107498
-107497
-107497
-107496
-107498
-107497
-107498
-107496
-107497
-107496
-107497
-107497
-107497
-107497
-107497
-107496
-107497
-107497
-107498
-107497
-107497
-107497
-107498
-107497
-107498
-107497
-107498
-107497
-107498
-107497
-107498
-107497
-107498
-107496
-107498
-107497
-107498
-107496
-107496
-107497
-107496
-107497
-107498
-107497
-107497
-107496
-107497
-107497
-107498
-107497
-107497
-107497
-107498
-107497
-107498
-107497
-107497
-107497
-107498
-107497
-107498
-107497
-107498
-107496
-107498
-107497
-107498
-107496
-107496
-107497
-107496
-107497
-107497
-107497
-107497
-107497
-107496
-107498
-107497
-107498
-107496
-107498
-107497
-107498
-107497
-107498
-107497
-107497
-107497
-107498
-107497
-107497
-107497
-107496
-107498
-107497
-107498
-107497
-107497
-107497
-107497
-107497
-107497
-107497
-107497
-107496
-107498
-107496
-107498
-107497
-107497
-107497
-107498
-107497
-107498
-107497
-107498
-107497
-107498
-107497
-107498
-107497
-107498
-107496
-107498
-107497
-107497
-107496
-107496
-107497
-107496
-107497
-107497
-107497
-107496
-107496
-107497
-107497
-107497
-107497
-107496
-107497
-107498
-107497
-107498
-107497
-107497
-107497
-107496
-107498
-107496
-107498
-107496
-107496
-107497
-107497
-107497
-107497
-107496
-107496
-107496
-107497
-107497
-107497
-107497
-107496
-107498
-107496
-107497
-107496
-107497
-107496
-107497
-107496
-107497
-107496
-107497
-107496
-107497
-107497
-107497
-107497
-107498
-107496
-107498
-107497
-107498
-107497
-107498
-107497
-107498
-107497
33786.4
31033.2
24526.6
16648.2
7138.57
4149.84
-11543.2
-65143
-111370
-124410
-127490
-126172
-104711
-101798
-100866
-120372
-135871
-135515
-132724
-131543
-132742
-136299
-139176
-139644
-141197
-142781
-131037
-105133
-95977.7
-96425.3
-95744.9
-94429.8
-94201.1
-95301.4
-97235.1
-98194.3
-98088.5
-97862.9
-96659.6
-96596.4
-96246.2
-96138.5
-95495.9
-93005.3
-103629
-103219
-102893
-102887
-103426
-104031
-104536
-104778
-104851
-104891
-104974
-105136
-105392
-105700
-105916
-106245
-106292
-106520
-106607
-106714
-106786
-106854
-106933
-106986
-107071
-107145
-107222
-107266
-107260
-107239
-107248
-107248
-107374
-107451
-107486
-107519
-107528
-107546
-107547
-107557
-107556
-107559
-107562
-107561
-107559
-107560
-107554
-107557
-107547
-107551
-107540
-107545
-107536
-107538
-107533
-107530
-107530
-107525
-107526
-107522
-107501
-107499
-107500
-107498
-107499
-107497
-107497
-107496
-107496
-107495
-107495
-107494
-107495
-107495
-107494
-107494
-107494
-107494
-107493
-107492
-107492
-107493
-107493
-107492
-107493
-107493
-107492
-107492
-107492
-107492
-107492
-107492
-107492
-107492
-107493
-107493
-107492
-107493
-107493
-107492
-107492
-107492
-107493
-107493
-107493
-107493
-107493
-107493
-107492
-107492
-107492
-107493
-107493
-107492
-107493
-107493
-107492
-107492
-107492
-107492
-107492
-107492
-107492
-107492
-107493
-107493
-107492
-107493
-107493
-107492
-107492
-107492
-107493
-107493
-107493
-107493
-107493
-107493
-107492
-107492
-107492
-107493
-107493
-107492
-107493
-107493
-107492
-107492
-107492
-107492
-107492
-107492
-107492
-107492
-107493
-107493
-107492
-107493
-107493
-107492
-107492
-107492
-107493
-107493
-107493
-107493
-107493
-107493
-107492
-107492
-107492
-107493
-107493
-107492
-107493
-107493
-107492
-107492
-107492
-107492
-107492
-107492
-107492
-107492
-107493
-107493
-107492
-107493
-107493
-107492
-107492
-107492
-107493
-107493
-107493
-107493
-107493
-107493
-107492
-107492
-107492
-107493
-107493
-107492
-107493
-107493
-107492
-107492
-107492
-107492
-107492
-107492
-107492
-107492
-107493
-107493
-107492
-107493
-107493
-107492
-107492
-107492
-107493
-107493
-107493
-107493
-107493
-107493
-107492
-107492
-107492
-107493
-107493
-107492
-107493
-107493
-107492
-107492
-107492
-107492
-107492
-107492
-107492
-107492
-107493
-107493
-107492
-107493
-107493
-107492
-107492
-107492
-107493
-107493
-107493
-107493
-107493
-107493
-107492
-107492
-107492
-107493
-107493
-107492
-107493
-107493
-107492
-107492
-107492
-107492
-107492
-107492
-107492
-107492
-107492
-107493
-107492
-107493
-107493
-107492
-107492
-107492
-107493
-107493
-107493
-107493
-107493
-107493
-107492
-107492
-107492
-107493
-107493
-107492
-107493
-107493
-107492
-107492
-107492
-107492
-107492
-107492
-107492
-107492
-107493
-107492
-107492
-107493
-107493
-107492
-107493
-107493
-107493
-107493
-107493
-107493
-107493
-107493
-107492
-107492
-107493
-107493
-107492
-107492
-107492
-107492
-107492
-107493
-107493
-107492
21130.9
17865.3
10337.3
4340.83
2700.63
1331.03
-31058.7
-79225.8
-111651
-122604
-123800
-126653
-127551
-113004
-115476
-111279
-104769
-135013
-132649
-128583
-126492
-125437
-126103
-128424
-135204
-138617
-138751
-142034
-143261
-121737
-96451.9
-95091.6
-95985
-94979.9
-94431.7
-94507.2
-96247.8
-97350.3
-98153.1
-97909.9
-97040.9
-95742.8
-95256.4
-94528.9
-92892.5
-82113.7
-87296.2
-94902.5
-96792
-97238.4
-98307.6
-100249
-101844
-103130
-103973
-104445
-104636
-104712
-104801
-104900
-105180
-105369
-105742
-106000
-106172
-106405
-106452
-106635
-106665
-106785
-106823
-106914
-106942
-107027
-107008
-107012
-106823
-106406
-106749
-106999
-106768
-106939
-107151
-107313
-107400
-107469
-107488
-107517
-107528
-107536
-107548
-107541
-107556
-107543
-107554
-107544
-107551
-107540
-107545
-107538
-107537
-107534
-107530
-107528
-107524
-107523
-107518
-107517
-107511
-107510
-107501
-107505
-107494
-107498
-107492
-107493
-107490
-107491
-107489
-107490
-107488
-107489
-107488
-107488
-107487
-107487
-107487
-107486
-107486
-107486
-107486
-107485
-107485
-107485
-107485
-107484
-107484
-107484
-107484
-107484
-107484
-107484
-107484
-107484
-107484
-107484
-107484
-107484
-107484
-107484
-107485
-107485
-107485
-107485
-107485
-107485
-107485
-107485
-107485
-107485
-107485
-107485
-107485
-107485
-107485
-107485
-107485
-107484
-107484
-107484
-107484
-107484
-107485
-107484
-107484
-107484
-107484
-107484
-107484
-107484
-107484
-107484
-107484
-107485
-107485
-107485
-107485
-107485
-107485
-107485
-107485
-107485
-107485
-107485
-107485
-107485
-107485
-107485
-107485
-107485
-107484
-107484
-107484
-107484
-107485
-107484
-107484
-107484
-107484
-107484
-107484
-107484
-107484
-107484
-107484
-107485
-107485
-107485
-107485
-107485
-107485
-107485
-107485
-107485
-107485
-107485
-107485
-107485
-107485
-107485
-107485
-107484
-107484
-107484
-107485
-107484
-107485
-107484
-107484
-107484
-107484
-107485
-107484
-107484
-107484
-107484
-107485
-107485
-107485
-107485
-107485
-107485
-107485
-107485
-107485
-107485
-107485
-107485
-107485
-107485
-107485
-107485
-107485
-107484
-107484
-107484
-107485
-107484
-107485
-107484
-107484
-107484
-107484
-107485
-107484
-107484
-107484
-107484
-107484
-107485
-107485
-107485
-107485
-107485
-107485
-107485
-107485
-107485
-107485
-107485
-107485
-107485
-107485
-107485
-107485
-107485
-107484
-107484
-107484
-107484
-107484
-107484
-107484
-107484
-107484
-107485
-107484
-107484
-107484
-107484
-107485
-107485
-107485
-107485
-107485
-107485
-107485
-107485
-107485
-107485
-107485
-107485
-107485
-107485
-107485
-107485
-107485
-107484
-107484
-107484
-107484
-107484
-107485
-107484
-107484
-107484
-107484
-107484
-107484
-107484
-107484
-107484
-107484
-107485
-107485
-107485
-107485
-107485
-107485
-107485
-107485
-107485
-107485
-107485
-107485
-107485
-107485
-107485
-107485
-107485
-107484
-107484
-107484
-107484
-107484
-107484
-107484
-107484
-107484
-107485
-107484
-107485
-107484
-107484
-107484
-107485
-107485
-107485
-107485
-107485
-107485
-107485
-107485
-107485
-107485
-107485
-107485
-107485
-107485
-107485
-107484
-107485
-107485
-107484
-107485
-107484
-107484
-107484
-107485
-107484
6079.76
7110.54
3023.67
248.183
508.338
2459.83
2662.08
-9942.12
-45440.7
-81101.3
-87802.7
-94653.1
-108538
-127169
-125521
-126453
-131444
-130895
-126670
-124307
-122950
-123945
-125177
-128122
-134449
-140914
-140451
-139692
-138114
-135042
-110009
-93028.9
-94774
-95295.6
-94410.4
-94397.4
-95256.4
-96333.4
-97201
-96924.5
-96172
-95355.4
-94340.2
-93172.6
-91468.6
-83971
-82138.7
-85442.6
-87897.2
-90905.6
-94743.6
-97806.4
-100507
-102462
-103602
-104171
-104426
-104540
-104628
-104743
-104949
-105211
-105581
-105723
-106059
-106226
-106389
-106528
-106597
-106708
-106749
-106843
-106874
-106956
-106953
-106986
-106860
-106606
-106679
-106754
-106814
-107031
-107236
-107334
-107413
-107453
-107478
-107504
-107514
-107525
-107537
-107533
-107544
-107538
-107546
-107535
-107546
-107531
-107541
-107528
-107536
-107523
-107531
-107515
-107526
-107511
-107517
-107509
-107509
-107505
-107500
-107498
-107491
-107493
-107488
-107488
-107485
-107487
-107483
-107485
-107483
-107485
-107483
-107483
-107482
-107482
-107481
-107481
-107481
-107481
-107480
-107481
-107481
-107479
-107479
-107479
-107480
-107479
-107479
-107480
-107480
-107479
-107480
-107480
-107479
-107480
-107480
-107479
-107479
-107480
-107479
-107479
-107480
-107480
-107480
-107480
-107480
-107480
-107480
-107480
-107480
-107480
-107480
-107480
-107480
-107480
-107479
-107479
-107480
-107479
-107479
-107480
-107480
-107479
-107480
-107480
-107479
-107480
-107480
-107479
-107479
-107480
-107479
-107479
-107479
-107480
-107480
-107480
-107480
-107480
-107480
-107480
-107480
-107480
-107480
-107480
-107480
-107479
-107479
-107479
-107480
-107479
-107479
-107480
-107480
-107479
-107480
-107480
-107479
-107480
-107480
-107479
-107479
-107480
-107479
-107479
-107480
-107480
-107480
-107480
-107480
-107480
-107480
-107480
-107480
-107480
-107480
-107480