/*--------------------------------*- C++ -*----------------------------------*\
| =========                 |                                                 |
| \\      /  F ield         | OpenFOAM: The Open Source CFD Toolbox           |
|  \\    /   O peration     | Version:  2.1.1                                 |
|   \\  /    A nd           | Web:      www.OpenFOAM.org                      |
|    \\/     M anipulation  |                                                 |
\*---------------------------------------------------------------------------*/
FoamFile
{
    version     2.0;
    format      ascii;
    class       volScalarField;
    location    "0.003000000";
    object      O2;
}
// * * * * * * * * * * * * * * * * * * * * * * * * * * * * * * * * * * * * * //

dimensions      [0 0 0 0 0 0 0];

internalField   nonuniform List<scalar> 
12384
(
0.0294066
0.0392588
0.0576461
0.071326
0.0812131
0.0798612
0.0812913
0.0656449
0.0598176
0.0546686
0.0421326
0.0221662
0.00783904
0.00819756
0.0657976
0.0695083
0.0762236
0.0813947
0.0828823
0.0814502
0.0782935
0.077815
0.0739402
0.0705125
0.072541
0.0698353
0.0739481
0.0751119
0.0786971
0.0804059
0.0810547
0.0832055
0.0841659
0.0860902
0.0869359
0.0861252
0.0824039
0.0749487
0.0587714
0.0301609
0.0144569
0.00573795
0.194041
0.221298
0.0351192
0.0264384
0.0190747
0.0171611
0.0173293
0.0185733
0.0191971
0.0184777
0.0159252
0.013319
0.00956219
0.00708387
0.00496933
0.00416322
0.00345708
0.00318711
0.0030253
0.00277543
0.00272249
0.00595209
0.0170509
0.0320339
0.0554801
0.068703
0.073195
0.0600794
0.0454507
0.017903
0.0162833
0.0150702
0.015222
0.00213474
0.00110432
0.00162778
0.00236419
0.00274494
0.00299244
0.00244401
0.00190275
0.00127185
0.000738824
0.000241659
0.000209656
0.000171239
0.000175791
0.00018307
0.000160585
0.00024874
0.000110428
0.0011879
0.00301971
0.00748309
0.018465
0.0379454
0.0601092
0.0714798
0.069012
0.0407907
0.0230702
0.0161913
0.0504799
0.041004
0.0189367
0.00721101
0.00478333
0.00435301
0.0047293
0.00265963
0.00286278
0.00123484
0.000900612
0.00085337
0.00116701
0.00148562
0.00136495
0.00159996
0.00183456
0.00333343
0.00872019
0.0204455
0.0343759
0.0616657
0.0762584
0.0812296
0.0804509
0.203689
0.207029
0.204609
0.199766
0.219632
0.182514
0.058183
0.0522108
0.0244675
0.0236623
0.00743651
0.00892183
0.0061584
0.00310732
0.00248363
0.00192048
0.00126812
0.00102165
0.000744682
0.00100203
0.00139523
0.00153204
0.00365728
0.0182665
0.0766003
0.216328
0.20994
0.204744
0.208932
0.214782
0.219546
0.221678
0.21762
0.22718
0.227371
0.227429
0.222954
0.215726
0.166411
0.0139124
0.00590776
0.00312153
0.00260151
0.00238986
0.00150878
0.00147093
0.00138897
0.00175728
0.00145648
0.00125261
0.000857751
0.00114768
0.00150138
0.00705637
0.0235453
0.217241
0.226248
0.22868
0.228808
0.228728
0.228555
0.228619
0.228156
0.227769
0.227789
0.227857
0.22781
0.22063
0.213569
0.20588
0.208227
0.209617
0.21267
0.216884
0.221489
0.227624
0.2283
0.228825
0.228588
0.228305
0.227146
0.226193
0.226195
0.226194
0.226194
0.226194
0.226193
0.226193
0.226193
0.226193
0.226193
0.226193
0.226193
0.226192
0.226179
0.226179
0.226193
0.226194
0.226194
0.226195
0.226195
0.226195
0.226196
0.226196
0.226196
0.226197
0.226197
0.226198
0.226199
0.226199
0.226199
0.226199
0.226199
0.226198
0.226198
0.226197
0.226197
0.226197
0.226196
0.226196
0.226196
0.226196
0.226195
0.226194
0.226179
0.226179
0.226194
0.226195
0.226196
0.226196
0.226196
0.226197
0.226197
0.226197
0.226198
0.226198
0.226198
0.226199
0.2262
0.2262
0.2262
0.2262
0.226199
0.226198
0.226198
0.226198
0.226197
0.226197
0.226196
0.226196
0.226196
0.226195
0.226195
0.226194
0.226179
0.226179
0.226194
0.226195
0.226196
0.226196
0.226196
0.226197
0.226197
0.226197
0.226198
0.226198
0.226198
0.226199
0.2262
0.2262
0.2262
0.2262
0.226199
0.226199
0.226198
0.226198
0.226197
0.226197
0.226197
0.226196
0.226196
0.226196
0.226195
0.226194
0.226179
0.226179
0.226194
0.226195
0.226195
0.226196
0.226196
0.226196
0.226197
0.226197
0.226198
0.226198
0.226199
0.226199
0.2262
0.2262
0.2262
0.2262
0.226199
0.226199
0.226198
0.226198
0.226197
0.226197
0.226197
0.226196
0.226196
0.226196
0.226195
0.226194
0.226179
0.226179
0.226194
0.226195
0.226196
0.226196
0.226196
0.226197
0.226197
0.226197
0.226198
0.226198
0.226198
0.226199
0.2262
0.2262
0.2262
0.2262
0.226199
0.226199
0.226198
0.226198
0.226197
0.226197
0.226197
0.226196
0.226196
0.226196
0.226195
0.226194
0.226179
0.057381
0.0662674
0.0768484
0.0864109
0.0857741
0.0954415
0.0960672
0.0985506
0.0949111
0.0872791
0.0661059
0.0372599
0.0130783
0.0083272
0.0771876
0.0777186
0.0775419
0.0692513
0.0558204
0.0361607
0.0211453
0.0129331
0.00768026
0.00429014
0.00586846
0.00534946
0.0181849
0.0416256
0.064117
0.0758468
0.0797274
0.0826358
0.0839938
0.0866626
0.0880813
0.0889172
0.0847202
0.073001
0.0508707
0.0278133
0.0121035
0.00488117
0.00524412
0.208019
0.0340892
0.0251252
0.0215758
0.0239832
0.0275507
0.0301549
0.0297392
0.0232517
0.0165485
0.00814464
0.00480162
0.00242569
0.00192444
0.00182475
0.00190533
0.00340687
0.00520752
0.00859896
0.00818389
0.00378517
0.00338724
0.020184
0.0512447
0.0709401
0.0718062
0.0576616
0.0362324
0.0235279
0.0169194
0.0146625
0.0187929
0.00231549
0.00138164
0.00171574
0.00229453
0.00261026
0.00246159
0.00216434
0.00175157
0.00129301
0.000597282
0.000213838
0.000170679
2.869e-05
0.000116507
0.000113709
9.83717e-05
0.000176424
-0.00015359
0.00159336
0.00566228
0.0129433
0.0246969
0.0467654
0.0634535
0.071962
0.0637366
0.0446672
0.0208822
0.0146958
0.0507604
0.0438771
0.0290472
0.0185925
0.0150833
0.0149362
0.0132797
0.0096583
0.00470056
0.00183285
0.000594099
0.000261283
0.000244503
0.000122853
0.000125122
0.000103275
0.000673607
0.00381136
0.0229065
0.0473557
0.0658407
0.0813144
0.0850778
0.0858948
0.0821173
0.0818985
0.0705761
0.048888
0.0406061
0.194981
0.0525459
0.0605929
0.0445406
0.0146621
0.000399903
0.00132302
0.00160557
0.00222129
0.00195511
0.00199702
0.00160855
0.00107437
0.000977628
0.000727537
0.000399316
0.000906637
0.00220738
0.0135211
0.0412503
0.0677573
0.0561859
0.054796
0.0782194
0.0903565
0.095333
0.101493
0.0797068
0.0126566
0.224588
0.227389
0.212428
0.0474701
0.064616
0.0280487
0.0102381
0.00592028
0.00347723
0.00314857
0.00274835
0.00242103
0.00139052
0.00190167
0.000564441
4.09114e-05
1.56817e-05
1.98674e-05
7.81474e-05
0.000610577
0.0027672
0.0121514
0.0755482
0.0714933
0.225365
0.228616
0.228965
0.229386
0.229323
0.229151
0.229113
0.228986
0.229662
0.215584
0.0013899
3.61084e-06
2.49312e-07
6.66605e-08
3.34388e-08
4.26269e-08
5.06059e-08
4.05875e-07
0.186067
0.224239
0.226951
0.229016
0.229948
0.229991
0.228679
0.226991
0.22692
0.226825
0.226865
0.226783
0.226825
0.226753
0.226785
0.226736
0.22675
0.226727
0.22672
0.226422
0.22649
0.22678
0.226798
0.226798
0.226797
0.226794
0.226798
0.226792
0.226802
0.226794
0.226808
0.226802
0.226819
0.226821
0.226833
0.226828
0.226828
0.226814
0.226812
0.226801
0.226803
0.226792
0.226794
0.226784
0.226785
0.226777
0.226777
0.22677
0.226751
0.226432
0.226433
0.226751
0.226771
0.226779
0.226779
0.226788
0.226789
0.226797
0.226797
0.226806
0.226807
0.226815
0.226819
0.226831
0.226833
0.226838
0.226831
0.226825
0.226811
0.226805
0.226801
0.226792
0.226791
0.226783
0.226783
0.226775
0.226776
0.226769
0.226753
0.22642
0.226434
0.22675
0.226773
0.226774
0.226781
0.226782
0.226791
0.226791
0.2268
0.2268
0.226809
0.226811
0.226822
0.226829
0.226838
0.226835
0.226834
0.226822
0.226817
0.226807
0.226806
0.226797
0.226796
0.226787
0.226786
0.226778
0.226776
0.22677
0.226751
0.226432
0.226419
0.226753
0.226773
0.226773
0.226781
0.226782
0.226791
0.226792
0.226801
0.226802
0.226811
0.226813
0.226825
0.22683
0.226837
0.226837
0.22683
0.226824
0.226813
0.226811
0.226802
0.226801
0.226792
0.226791
0.226783
0.226783
0.226774
0.226773
0.226753
0.22642
0.226432
0.22675
0.226774
0.226775
0.226783
0.226784
0.226793
0.226793
0.226801
0.226801
0.22681
0.226811
0.226822
0.226828
0.226837
0.226836
0.226834
0.226822
0.226817
0.226808
0.226807
0.226797
0.226796
0.226787
0.226786
0.226778
0.226777
0.22677
0.226751
0.226432
0.0726381
0.0630914
0.0362012
0.0153465
0.00642857
0.00840946
0.0127704
0.0500662
0.0844784
0.100273
0.095037
0.0576584
0.0192733
0.0162714
0.0911468
0.0733225
0.032455
0.00638024
0.00152932
0.00073358
0.000489128
0.000312128
0.00018422
0.000136395
6.75597e-05
0.000100008
0.00014043
0.000559183
0.0198669
0.0516702
0.0703953
0.0766197
0.0818087
0.0859076
0.0892156
0.0903615
0.0860416
0.0734565
0.053921
0.0331472
0.0172447
0.0100829
0.00798268
0.195464
0.0335154
0.0265671
0.0261695
0.032325
0.0385337
0.040699
0.0367212
0.0280786
0.0146468
0.00617521
0.00201118
0.00115209
0.000882725
0.000905178
0.00143335
0.0028611
0.00772218
0.0206329
0.0326877
0.0259108
0.00673316
0.00616888
0.0386956
0.0684716
0.0698106
0.053158
0.0366575
0.0250955
0.0212515
0.0178217
0.0213911
0.00320424
0.00195925
0.00196783
0.00224837
0.00252835
0.00273521
0.00349641
0.00253679
0.00145068
0.000375974
0.000216975
0.000248222
0.000842867
0.00179422
0.00440661
0.0107852
0.0162937
0.0190304
0.021093
0.0236011
0.0283938
0.0373113
0.0546629
0.0681434
0.071634
0.0646857
0.0409843
0.0219144
0.015734
0.0505396
0.0484132
0.0422757
0.0366392
0.0337262
0.0294919
0.0240766
0.0185384
0.0106659
0.00243876
0.00077478
0.00016186
0.000102802
4.75797e-05
2.60479e-05
4.20267e-05
0.000383932
0.0182725
0.0485036
0.0691215
0.0887657
0.0968659
0.0997105
0.0990089
0.0969218
0.0994916
0.0957803
0.0929577
0.0760098
0.189416
0.0533401
0.0622622
0.0463196
0.00150861
0.000169809
0.000115364
0.000139137
0.000225846
0.000429476
0.000789222
0.000602465
0.000368748
0.00019844
0.000174095
0.000147576
0.00142697
0.00747878
0.0185142
0.0317968
0.0389517
0.0308606
0.052563
0.07402
0.0949869
0.0938096
0.0758263
0.0575628
0.0746415
0.226552
0.228091
0.216607
0.0553794
0.054311
0.0389279
0.0131964
0.00600257
0.00421935
0.0026799
0.00242993
0.00182286
0.000786077
7.09676e-05
5.21e-06
9.70562e-07
9.2739e-07
4.34549e-07
1.82278e-06
3.63395e-06
4.05688e-05
0.00181238
0.0488881
0.0144533
0.0438034
0.225022
0.225764
0.226548
0.229047
0.229401
0.229605
0.229646
0.228542
0.183436
1.26588e-07
5.9551e-08
9.16465e-09
3.39968e-09
2.09663e-09
6.24166e-09
1.7496e-08
2.87371e-09
8.80261e-09
0.188075
0.220185
0.224847
0.227556
0.230101
0.231
0.231047
0.230776
0.230778
0.230776
0.230774
0.23078
0.230772
0.230783
0.230768
0.230783
0.230765
0.230784
0.231039
0.231061
0.230802
0.230776
0.23078
0.230769
0.230772
0.230761
0.230763
0.230753
0.230754
0.230744
0.230742
0.23073
0.230724
0.230716
0.230717
0.23072
0.230727
0.230733
0.230737
0.23074
0.230743
0.230746
0.230749
0.230752
0.230755
0.230758
0.230761
0.230777
0.231062
0.231062
0.230777
0.23076
0.230756
0.230752
0.230749
0.230746
0.230743
0.230739
0.230736
0.230732
0.230728
0.230722
0.230715
0.230709
0.230708
0.230711
0.230719
0.230728
0.230735
0.230738
0.230743
0.230747
0.23075
0.230753
0.230756
0.230759
0.230762
0.230779
0.231062
0.231062
0.230778
0.230761
0.230757
0.230754
0.230751
0.230748
0.230744
0.230741
0.230737
0.230733
0.230728
0.230722
0.230713
0.230709
0.230708
0.230712
0.230719
0.230727
0.230731
0.230736
0.23074
0.230743
0.230747
0.230751
0.230754
0.230758
0.230761
0.230777
0.231062
0.231062
0.230777
0.230761
0.230758
0.230755
0.230751
0.230747
0.230743
0.23074
0.230735
0.230732
0.230727
0.23072
0.230713
0.230708
0.230708
0.230713
0.23072
0.230727
0.230732
0.230736
0.23074
0.230743
0.230747
0.23075
0.230754
0.230757
0.230761
0.230777
0.231062
0.231062
0.230777
0.23076
0.230756
0.230753
0.23075
0.230747
0.230743
0.23074
0.230737
0.230733
0.230729
0.230723
0.230715
0.230709
0.230707
0.230712
0.230719
0.230726
0.230731
0.230735
0.230739
0.230743
0.230747
0.230751
0.230754
0.230758
0.230761
0.230777
0.231062
0.0331374
0.0110629
0.00114169
0.000207436
9.52626e-05
0.000117137
0.000230221
0.000641474
0.00957943
0.0569995
0.0915956
0.0783232
0.0314781
0.0356179
0.10163
0.0343804
0.00154118
0.000552742
0.000308462
0.000307055
0.00043877
0.000328587
0.000340028
0.000163181
5.52992e-05
3.38515e-05
1.47932e-05
3.23229e-05
0.000165561
0.00509419
0.040151
0.061422
0.0746155
0.0834601
0.0894753
0.0921222
0.0888302
0.0801699
0.0664086
0.0488575
0.0342838
0.026014
0.0249756
0.208225
0.0331778
0.0286816
0.0310202
0.0378226
0.0438352
0.0459716
0.0419545
0.0309458
0.0165115
0.00541415
0.00149748
0.000558188
0.000398483
0.000387269
0.000437396
0.000553615
0.00129212
0.00782229
0.0320766
0.0409344
0.0192946
0.00516259
0.0219285
0.0671523
0.0729699
0.0556336
0.0398395
0.0309116
0.0241434
0.021722
0.0267343
0.00777275
0.0026919
0.00239287
0.00239072
0.00277025
0.00481154
0.0026102
0.000416788
0.000103436
0.000104291
0.000218636
0.00252046
0.0151547
0.030169
0.0408181
0.0476914
0.0531039
0.0583323
0.0585677
0.0557334
0.0516932
0.0529666
0.0618359
0.0718295
0.0743337
0.0632259
0.0422949
0.0210959
0.0154915
0.0510032
0.0529081
0.052144
0.0507244
0.0457155
0.0375532
0.0279978
0.0238552
0.0159062
0.00564916
0.000818938
0.000117003
3.55614e-05
2.09203e-05
1.69778e-05
2.00192e-05
0.000225917
0.0300598
0.0670147
0.0821542
0.0955096
0.102638
0.100232
0.0971151
0.0949827
0.0992475
0.101344
0.0996133
0.0902018
0.197456
0.0539876
0.0611024
0.0386921
0.00112122
3.7811e-05
1.86758e-05
2.45642e-05
3.4195e-05
8.16633e-05
0.000134026
0.000146838
0.000158552
0.000120232
4.5276e-05
8.0806e-05
0.000164439
0.00123555
0.00247457
0.0049947
0.00566271
0.00718681
0.028691
0.0600264
0.0814214
0.089684
0.0783614
0.071451
0.102618
0.22749
0.228837
0.217203
0.0830138
0.0615083
0.051455
0.0227232
0.0097814
0.00567146
0.00330212
0.000882753
0.000308606
1.08629e-05
5.83062e-07
3.47547e-08
5.06216e-09
2.20083e-08
5.90851e-08
1.59948e-07
1.33838e-06
3.84067e-06
8.47028e-05
0.0164289
0.0241006
0.0290383
0.0588312
0.0486183
0.00474996
0.222454
0.224869
0.228767
0.229518
0.22303
4.6818e-06
1.15755e-07
2.12037e-08
5.3802e-08
1.23915e-08
2.96938e-09
2.16027e-09
2.44696e-09
3.67981e-09
1.52015e-08
1.55208e-08
0.185243
0.218281
0.223579
0.226214
0.229327
0.230614
0.231013
0.230906
0.230913
0.23091
0.230914
0.230915
0.230915
0.230918
0.230916
0.23092
0.230921
0.230971
0.230963
0.230914
0.230916
0.23091
0.230915
0.230911
0.230915
0.230912
0.230915
0.230912
0.230914
0.230912
0.230914
0.230911
0.230912
0.230911
0.230912
0.230911
0.230913
0.230912
0.230913
0.230913
0.230913
0.230913
0.230914
0.230913
0.230914
0.230914
0.230918
0.230968
0.230968
0.230918
0.230914
0.230914
0.230913
0.230913
0.230912
0.230913
0.230912
0.230912
0.230912
0.230912
0.230911
0.230911
0.23091
0.23091
0.23091
0.230911
0.230911
0.230912
0.230913
0.230912
0.230913
0.230913
0.230914
0.230913
0.230914
0.230914
0.230918
0.230969
0.230968
0.230918
0.230914
0.230913
0.230914
0.230913
0.230913
0.230912
0.230913
0.230912
0.230912
0.230911
0.230911
0.23091
0.23091
0.23091
0.230911
0.230911
0.230912
0.230911
0.230912
0.230912
0.230913
0.230913
0.230913
0.230913
0.230914
0.230914
0.230918
0.230968
0.230969
0.230918
0.230914
0.230913
0.230914
0.230913
0.230913
0.230912
0.230913
0.230912
0.230912
0.230911
0.230911
0.23091
0.23091
0.23091
0.23091
0.230911
0.230911
0.230912
0.230912
0.230913
0.230912
0.230913
0.230913
0.230914
0.230913
0.230915
0.230918
0.230969
0.230968
0.230918
0.230914
0.230913
0.230914
0.230913
0.230913
0.230912
0.230913
0.230912
0.230912
0.230911
0.230911
0.23091
0.23091
0.23091
0.230911
0.230911
0.230912
0.230911
0.230912
0.230912
0.230913
0.230912
0.230913
0.230913
0.230914
0.230914
0.230918
0.230968
0.00309975
0.00047629
4.33848e-05
1.8742e-05
2.91382e-05
7.68612e-05
0.000184085
0.000322772
0.0010986
0.00486804
0.0634553
0.0867194
0.0522046
0.0391834
0.0862793
0.00699648
0.000850908
0.000467996
0.00171699
0.0292992
0.0582738
0.0661882
0.0717093
0.0635141
0.0529086
0.00405956
4.16907e-05
2.50729e-05
2.99067e-05
0.000124865
0.00410775
0.0308351
0.0599608
0.0773569
0.088346
0.0929995
0.0916078
0.0870449
0.0826995
0.0823167
0.0798705
0.0713094
0.044487
0.213539
0.0338226
0.0326156
0.0356075
0.0423355
0.0455384
0.0454538
0.0392524
0.0279248
0.012465
0.00351239
0.000841584
0.00029211
0.000148775
0.000129238
0.000124537
0.000189835
0.000342545
0.00232657
0.020237
0.0389571
0.0251913
0.00581162
0.019526
0.0684705
0.0812652
0.0691431
0.0503849
0.0402881
0.0309804
0.0252612
0.0284032
0.0137277
0.00615961
0.00273633
0.00272164
0.00485493
0.00262117
0.000170652
2.22556e-05
2.30163e-05
0.000158412
0.00532874
0.0256137
0.0381092
0.042807
0.0428804
0.043634
0.0474775
0.0552978
0.0650092
0.0725206
0.0700281
0.0703303
0.070671
0.076669
0.0776562
0.0651931
0.0398208
0.0200085
0.0154747
0.0522286
0.056073
0.0587973
0.0551216
0.04559
0.0348138
0.0267911
0.0256487
0.0214269
0.00710617
0.00062141
6.08409e-05
2.15761e-05
8.98252e-06
6.93527e-06
1.24363e-05
0.000140041
0.0215496
0.0636248
0.0830947
0.0918973
0.0851955
0.0777763
0.0727939
0.0775837
0.085506
0.0951995
0.102747
0.0944782
0.207646
0.054734
0.063203
0.0206789
0.00115467
1.37262e-05
3.33235e-06
2.90505e-06
5.23281e-06
8.9501e-06
2.30056e-05
3.10764e-05
2.40345e-05
1.46709e-05
9.78402e-06
9.16369e-06
1.24566e-05
1.36703e-05
1.54648e-05
2.89233e-05
8.79569e-05
0.000521263
0.00191313
0.0203983
0.0572757
0.0876633
0.107339
0.119577
0.11096
0.0664223
0.226009
0.218782
0.108566
0.0818696
0.0551348
0.0359249
0.0182178
0.0114494
0.00475127
0.000695055
2.3618e-05
4.66048e-07
7.5303e-09
4.54529e-09
2.69747e-09
1.99679e-09
4.31792e-09
1.42428e-08
9.67449e-08
7.07737e-07
5.01514e-06
4.95345e-05
0.0296221
0.0867861
0.0966288
0.0923483
0.0277031
0.0499727
0.00484773
0.203168
0.227713
0.222085
5.831e-06
5.27274e-07
1.10824e-07
3.8374e-07
4.1394e-08
4.14948e-09
1.67033e-09
1.842e-09
2.51319e-09
2.95623e-09
7.34849e-09
7.50256e-09
0.187067
0.218889
0.222851
0.225442
0.228536
0.230027
0.230507
0.230367
0.230404
0.230375
0.230406
0.230386
0.230411
0.230394
0.230417
0.230404
0.230421
0.230392
0.230393
0.230387
0.230398
0.230392
0.2304
0.230395
0.230402
0.230397
0.230403
0.230398
0.230404
0.230399
0.230404
0.2304
0.230404
0.230401
0.230405
0.230401
0.230405
0.230402
0.230404
0.230402
0.230404
0.230402
0.230404
0.230403
0.230404
0.230405
0.230409
0.23041
0.230405
0.230404
0.230403
0.230404
0.230403
0.230404
0.230403
0.230404
0.230403
0.230404
0.230403
0.230404
0.230402
0.230404
0.230402
0.230404
0.230402
0.230404
0.230403
0.230403
0.230404
0.230402
0.230404
0.230403
0.230404
0.230403
0.230405
0.230403
0.230411
0.230409
0.230405
0.230403
0.230404
0.230403
0.230404
0.230403
0.230404
0.230403
0.230404
0.230403
0.230404
0.230402
0.230404
0.230402
0.230404
0.230402
0.230404
0.230402
0.230404
0.230403
0.230404
0.230403
0.230404
0.230403
0.230404
0.230403
0.230404
0.230405
0.230409
0.23041
0.230404
0.230404
0.230404
0.230402
0.230404
0.230402
0.230404
0.230402
0.230404
0.230402
0.230404
0.230402
0.230404
0.230403
0.230403
0.230404
0.230402
0.230404
0.230402
0.230404
0.230402
0.230404
0.230402
0.230404
0.230402
0.230404
0.230403
0.230404
0.23041
0.230409
0.230405
0.230403
0.230404
0.230403
0.230404
0.230402
0.230404
0.230402
0.230404
0.230402
0.230404
0.230402
0.230404
0.230402
0.230404
0.230402
0.230404
0.230402
0.230404
0.230403
0.230404
0.230402
0.230404
0.230402
0.230404
0.230403
0.230404
0.230405
0.23041
0.000195146
3.13998e-05
9.23936e-06
2.1226e-05
0.000125042
0.000805098
0.00318028
0.00748922
0.00531105
0.00499748
0.0206878
0.0826596
0.0633562
0.0512762
0.0426241
0.00331303
0.00381041
0.0191811
0.0601303
0.0842581
0.0908776
0.09461
0.0940202
0.0938942
0.0914714
0.0780442
0.0218693
2.37589e-05
1.71958e-05
2.71487e-05
0.000216031
0.00337921
0.0353846
0.0671422
0.0847443
0.0934205
0.0959583
0.0992383
0.106322
0.111704
0.11011
0.0936869
0.0560438
0.215854
0.0377303
0.0374146
0.0407137
0.0426854
0.0410515
0.0346987
0.0229755
0.0110869
0.00327649
0.0007798
0.000196769
8.4444e-05
4.84481e-05
5.03378e-05
5.58272e-05
0.000111207
0.000308469
0.0029072
0.0200545
0.0321331
0.020442
0.00706931
0.0263415
0.0779964
0.0921089
0.0791748
0.0646599
0.0509661
0.0431628
0.0329886
0.0322238
0.0175696
0.0085304
0.00513593
0.00541577
0.00333699
0.000166645
9.48927e-06
8.42751e-06
7.97998e-05
0.00433129
0.0242256
0.0324909
0.0307303
0.0286229
0.0287138
0.0298577
0.031364
0.0320263
0.0383216
0.0543454
0.0671486
0.0757231
0.0781282
0.0816187
0.081692
0.0684234
0.0391697
0.0192777
0.0176519
0.0539305
0.0582952
0.0589722
0.0484533
0.0365067
0.0285332
0.0272184
0.0283841
0.0231893
0.00572259
0.000196959
3.48655e-05
9.48629e-06
4.60497e-06
2.99682e-06
5.17496e-06
3.14159e-05
0.00440538
0.040671
0.0660037
0.0621115
0.0514369
0.048345
0.052981
0.0677831
0.080939
0.0926631
0.102222
0.0976145
0.206835
0.0520655
0.0558606
0.01551
9.96847e-05
5.31472e-06
7.79427e-07
5.02267e-07
8.02909e-07
2.05357e-06
3.25408e-06
5.16009e-06
3.94394e-06
2.45175e-06
2.13526e-06
1.7004e-06
9.13117e-07
8.27249e-07
9.20771e-07
1.60217e-06
4.65842e-06
1.63371e-05
8.77353e-05
0.000716174
0.00677106
0.0467592
0.0947652
0.123139
0.123708
0.121341
0.224227
0.219855
0.124881
0.108231
0.0757946
0.0528021
0.0335083
0.0203851
0.00842491
0.00197905
0.000114728
1.52239e-07
1.03845e-08
9.90059e-09
7.2071e-09
1.76589e-09
1.66231e-09
4.64083e-09
5.21586e-09
8.13592e-09
4.9343e-08
3.21301e-06
7.07402e-06
0.000497114
0.0499812
0.0729394
0.113792
0.144594
0.0361876
0.186457
0.226632
0.219859
0.000410554
6.94351e-07
2.01471e-07
4.87251e-07
1.10188e-08
3.74986e-09
2.39695e-09
1.54736e-09
1.16021e-09
2.01387e-09
2.47771e-09
3.58294e-09
5.98778e-09
0.196823
0.219253
0.22223
0.224734
0.227724
0.229408
0.229788
0.229729
0.229704
0.229745
0.229719
0.22976
0.229736
0.229771
0.229758
0.229824
0.229767
0.229715
0.229732
0.229723
0.229739
0.229733
0.229744
0.22974
0.229748
0.229745
0.22975
0.229748
0.229751
0.229749
0.229752
0.229751
0.229752
0.229752
0.229752
0.229753
0.229752
0.229753
0.229752
0.229753
0.229752
0.229753
0.229752
0.229753
0.229757
0.229803
0.229803
0.229757
0.229753
0.229752
0.229753
0.229752
0.229753
0.229753
0.229753
0.229753
0.229753
0.229753
0.229753
0.229753
0.229753
0.229752
0.229753
0.229752
0.229753
0.229753
0.229753
0.229753
0.229753
0.229753
0.229753
0.229753
0.229753
0.229753
0.229756
0.229803
0.229803
0.229756
0.229753
0.229753
0.229753
0.229753
0.229753
0.229753
0.229753
0.229753
0.229753
0.229753
0.229752
0.229753
0.229752
0.229753
0.229752
0.229753
0.229753
0.229753
0.229753
0.229753
0.229753
0.229753
0.229753
0.229753
0.229753
0.229753
0.229757
0.229803
0.229803
0.229756
0.229754
0.229753
0.229753
0.229753
0.229753
0.229753
0.229753
0.229753
0.229752
0.229753
0.229752
0.229753
0.229753
0.229753
0.229753
0.229752
0.229753
0.229752
0.229753
0.229753
0.229753
0.229752
0.229753
0.229752
0.229753
0.229753
0.229757
0.229803
0.229803
0.229756
0.229753
0.229753
0.229753
0.229753
0.229753
0.229753
0.229753
0.229753
0.229753
0.229753
0.229752
0.229753
0.229752
0.229753
0.229752
0.229753
0.229752
0.229753
0.229752
0.229753
0.229752
0.229753
0.229752
0.229753
0.229753
0.229753
0.229757
0.229803
2.50662e-05
4.90742e-06
6.19436e-06
3.28326e-05
0.000272374
0.00176251
0.0112037
0.0365932
0.049362
0.0253846
0.018475
0.0740937
0.0780058
0.0609733
0.0119852
0.00556831
0.0351892
0.0641672
0.0835206
0.0905866
0.0910116
0.0891732
0.085362
0.0846928
0.0884232
0.0889625
0.0681327
0.0015852
3.1153e-05
1.66743e-05
4.89475e-05
0.000467495
0.0134273
0.0522762
0.0799121
0.0944047
0.104647
0.11552
0.124984
0.128917
0.123763
0.126237
0.192915
0.220792
0.0466606
0.0461286
0.041817
0.0326827
0.0244172
0.0133183
0.00397285
0.00151607
0.00037443
0.000111167
5.88589e-05
3.1646e-05
2.65469e-05
3.30902e-05
6.72706e-05
0.000183449
0.00162575
0.0081358
0.020141
0.0221328
0.0109398
0.0140473
0.056768
0.0885587
0.0908861
0.0775654
0.0672933
0.0607265
0.0531373
0.0419505
0.0333762
0.0196408
0.0103568
0.00766807
0.00412098
0.00019481
9.81405e-06
5.98532e-06
3.19865e-05
0.00197761
0.0161519
0.0235515
0.0239607
0.0242594
0.0258328
0.0284864
0.0318101
0.0356398
0.0371157
0.0336412
0.0367256
0.0533939
0.0694466
0.0783794
0.0830082
0.0854055
0.0731743
0.042024
0.0225455
0.0234419
0.0542179
0.0569634
0.0488117
0.0349975
0.0270899
0.0268452
0.0297587
0.0293859
0.01906
0.00235273
0.000152544
2.90399e-05
6.8916e-06
2.13318e-06
1.21821e-06
1.83862e-06
7.73039e-06
9.25879e-05
0.00297286
0.00697463
0.00558373
0.0097752
0.0293776
0.0526234
0.066222
0.0797584
0.0897899
0.100324
0.104255
0.183577
0.0558179
0.044899
0.00249514
2.47943e-05
8.47324e-07
1.87268e-07
1.04262e-07
2.06518e-07
4.52832e-07
8.81094e-07
9.66501e-07
9.06851e-07
8.55434e-07
5.18161e-07
2.98801e-07
2.5188e-07
7.48844e-07
5.28838e-07
1.53915e-06
9.99252e-07
1.7261e-06
8.86915e-07
2.20604e-06
1.31507e-05
-0.000118926
0.0209821
0.0825476
0.11474
0.130724
0.143915
0.220219
0.122958
0.121958
0.103198
0.0772575
0.0519941
0.0314188
0.0114826
0.00151823
3.20684e-05
5.54355e-07
1.42844e-08
2.89188e-08
2.24882e-08
2.29276e-09
2.97092e-09
7.8453e-10
1.53917e-09
1.88946e-09
1.65953e-09
1.39896e-08
6.0492e-07
2.86784e-06
3.87265e-05
7.16331e-07
2.82286e-05
0.0310288
0.0427929
0.193866
0.226232
0.211367
0.00565167
2.39314e-08
-8.52803e-07
2.10444e-07
5.21335e-08
6.94948e-09
2.97178e-09
1.15502e-09
1.01304e-09
1.08613e-09
1.61693e-09
2.0912e-09
2.81388e-09
0.106518
0.204569
0.219555
0.221562
0.224073
0.226914
0.228549
0.228622
0.228524
0.228585
0.228545
0.228601
0.228569
0.228621
0.228604
0.228636
0.228509
0.228553
0.228546
0.228572
0.228562
0.228581
0.228572
0.228587
0.228578
0.228591
0.228583
0.228593
0.228586
0.228595
0.228588
0.228595
0.22859
0.228595
0.228592
0.228595
0.228593
0.228595
0.228593
0.228595
0.228594
0.228595
0.228595
0.228596
0.228596
0.228582
0.228582
0.228596
0.228595
0.228594
0.228595
0.228594
0.228596
0.228595
0.228596
0.228595
0.228596
0.228595
0.228596
0.228595
0.228596
0.228595
0.228596
0.228595
0.228595
0.228596
0.228596
0.228596
0.228595
0.228596
0.228595
0.228596
0.228595
0.228596
0.228595
0.228581
0.228582
0.228595
0.228595
0.228596
0.228595
0.228596
0.228595
0.228596
0.228595
0.228596
0.228595
0.228596
0.228595
0.228596
0.228595
0.228596
0.228595
0.228596
0.228595
0.228596
0.228595
0.228596
0.228595
0.228596
0.228595
0.228596
0.228595
0.228596
0.228596
0.228582
0.228581
0.228595
0.228596
0.228596
0.228595
0.228596
0.228595
0.228596
0.228595
0.228596
0.228595
0.228596
0.228595
0.228596
0.228596
0.228596
0.228596
0.228595
0.228596
0.228595
0.228596
0.228595
0.228596
0.228595
0.228595
0.228595
0.228596
0.228596
0.228596
0.228581
0.228582
0.228595
0.228595
0.228596
0.228595
0.228596
0.228595
0.228596
0.228595
0.228596
0.228595
0.228596
0.228595
0.228596
0.228595
0.228596
0.228595
0.228596
0.228595
0.228596
0.228595
0.228596
0.228595
0.228596
0.228595
0.228596
0.228595
0.228596
0.228596
0.228583
3.98476e-06
2.81735e-06
5.88278e-06
2.60623e-05
0.000102109
0.000620698
0.0140637
0.0709037
0.0918747
0.0806417
0.0368223
0.0625362
0.0868833
0.0564179
0.0260164
0.0209513
0.0581282
0.0750385
0.081043
0.08031
0.0781875
0.07561
0.0731385
0.0697813
0.0693085
0.0739917
0.0604043
0.00747071
5.89415e-05
2.89316e-05
3.81854e-05
0.00020343
0.00244989
0.034594
0.0716505
0.0961545
0.114469
0.127706
0.134473
0.134908
0.130371
0.120727
0.209649
0.212018
0.0605344
0.0501156
0.0333953
0.0172724
0.00696798
0.0028451
0.00122954
0.000210255
6.2416e-05
3.81668e-05
2.19642e-05
2.09624e-05
2.27433e-05
4.96376e-05
0.000154534
0.00183886
0.00597194
0.0102787
0.0130878
0.0123169
0.0190678
0.0518189
0.0841355
0.0894681
0.0790426
0.0692105
0.0645213
0.0649054
0.0592118
0.0495034
0.0333354
0.0190814
0.0120228
0.00646286
0.000235725
1.25286e-05
5.29186e-06
1.43211e-05
0.000237167
0.00577654
0.0152139
0.0199975
0.0234181
0.0250545
0.0252213
0.0260849
0.0307587
0.0366983
0.0408708
0.0425069
0.0374819
0.040934
0.0563536
0.071741
0.0807823
0.0848815
0.0767909
0.0491035
0.0305486
0.035258
0.0550964
0.0511423
0.0353417
0.02338
0.0202584
0.0231897
0.0286159
0.025691
0.012048
0.00167605
0.000155002
2.83666e-05
2.95326e-06
6.75918e-07
3.98109e-07
5.22637e-07
1.26937e-06
4.89643e-06
1.03074e-05
4.01886e-05
0.000222013
0.0112435
0.0377819
0.0531933
0.0622806
0.0756983
0.0869209
0.0958201
0.104629
0.107263
0.0555823
0.0260419
0.000199676
3.7166e-06
2.45165e-07
6.55549e-08
3.84264e-08
7.25373e-08
1.81417e-07
2.98542e-07
3.49227e-07
3.51e-07
2.76108e-07
2.06929e-07
3.40637e-07
5.72487e-07
7.48941e-07
1.74261e-06
2.44602e-06
2.96122e-06
6.9414e-06
9.65459e-06
8.43334e-06
6.89692e-06
1.10915e-06
1.14414e-06
0.000100983
0.0511287
0.112015
0.130887
0.21287
0.0841624
0.108033
0.104708
0.0777258
0.0391828
0.00432698
0.000183064
3.21971e-05
2.93369e-05
1.34333e-06
1.81663e-08
7.60856e-08
1.68443e-07
3.16337e-08
-3.85659e-10
5.86618e-09
2.12342e-09
1.16424e-09
5.4834e-10
1.14006e-08
1.23299e-07
5.97833e-06
8.13015e-06
1.6596e-06
5.41443e-07
4.27575e-06
0.00280942
0.216974
0.225106
0.208188
0.00140655
0.00321922
7.99105e-06
5.61833e-08
2.53528e-08
6.59368e-09
3.98542e-09
1.86072e-09
1.14144e-09
9.97829e-10
1.05997e-09
1.39896e-09
1.88863e-09
2.27527e-09
0.143545
0.211844
0.219159
0.220939
0.22353
0.226213
0.227484
0.227309
0.22739
0.227333
0.227426
0.227372
0.227461
0.227431
0.227497
0.227268
0.227298
0.227342
0.227347
0.22737
0.227374
0.227386
0.227388
0.227395
0.227398
0.2274
0.227404
0.227403
0.227408
0.227405
0.22741
0.227406
0.227411
0.227407
0.227412
0.227408
0.227412
0.227409
0.227412
0.22741
0.227413
0.227411
0.227414
0.227413
0.227396
0.227395
0.227413
0.227413
0.227412
0.227412
0.227411
0.227411
0.227411
0.227411
0.227411
0.227411
0.227411
0.227411
0.227411
0.227411
0.227411
0.227411
0.227411
0.227411
0.227412
0.227412
0.227411
0.227411
0.227411
0.227412
0.227412
0.227413
0.227414
0.227413
0.227394
0.227395
0.227413
0.227413
0.227413
0.227412
0.227412
0.227412
0.227412
0.227411
0.227412
0.227411
0.227411
0.227411
0.227411
0.227411
0.227411
0.227411
0.227411
0.227411
0.227411
0.227411
0.227411
0.227411
0.227411
0.227411
0.227412
0.227413
0.227414
0.227413
0.227395
0.227394
0.227413
0.227414
0.227413
0.227412
0.227412
0.227411
0.227411
0.227411
0.227411
0.227411
0.227411
0.227411
0.227411
0.227412
0.227412
0.227411
0.227411
0.227411
0.227411
0.227411
0.227411
0.227411
0.227411
0.227412
0.227412
0.227412
0.227414
0.227413
0.227394
0.227395
0.227413
0.227413
0.227413
0.227412
0.227412