/*--------------------------------*- C++ -*----------------------------------*\
| =========                 |                                                 |
| \\      /  F ield         | OpenFOAM: The Open Source CFD Toolbox           |
|  \\    /   O peration     | Version:  2.1.1                                 |
|   \\  /    A nd           | Web:      www.OpenFOAM.org                      |
|    \\/     M anipulation  |                                                 |
\*---------------------------------------------------------------------------*/
FoamFile
{
    version     2.0;
    format      ascii;
    class       volScalarField;
    location    "0.003000000";
    object      rhoEu;
}
// * * * * * * * * * * * * * * * * * * * * * * * * * * * * * * * * * * * * * //

dimensions      [1 -1 -2 0 0 0 0];

internalField   nonuniform List<scalar> 
12384
(
376113
359801
330407
305919
243291
193414
88757.5
32107
-12911
-116484
-174038
-283123
-392546
-448047
-87929.4
-174316
-213478
-178843
-92016.4
-68037.7
1924.8
-12836
32113
28482.8
18595.6
18123.6
-37397.9
-44811.1
-115666
-131599
-174182
-167568
-192796
-200752
-239119
-273042
-322049
-377889
-419298
-432542
-426243
-326755
-155056
5019.96
-335417
-190390
-106386
-104426
-95627.9
-111847
-62928.1
-58349.4
-3454.63
69249.2
94090.1
99365.8
90920.8
69781.9
54898.9
23089.9
-4835.86
-53878.8
-123574
-194158
-266662
-262942
-245861
-231149
-272280
-300935
-307320
-364834
-467018
-546787
-390219
-298089
-268338
-280141
-320407
-353300
-370301
-366215
-359940
-359714
-361730
-384149
-379887
-397061
-390438
-399891
-401203
-404653
-403620
-394213
-386592
-366706
-344448
-351347
-380486
-404828
-356020
-322520
-355971
-393797
-301887
-390065
-485539
-518316
-515123
-514274
-498438
-488882
-481990
-419436
-423541
-369193
-354016
-399903
-319378
-303487
-233003
-137516
-80203.2
-59528.3
-6334.34
-13867.2
-130179
-333224
-582505
827283
943054
619984
618373
1.55073e+06
552958
-304996
-564719
-657349
-597432
-624573
-580133
-570082
-559860
-573700
-607458
-672595
-735060
-773096
-760285
-683933
-593029
-421841
-331178
-437157
645175
371649
129184
78231.5
88892.6
106547
127095
62556.4
231202
243292
8561.65
16464.2
-30746.8
-231911
-385340
-375454
-389926
-422098
-447774
-421234
-218340
-39969.7
-5300.44
-438083
-752122
-778538
-702684
-568878
-654924
-807895
1.67258e+06
1.95024e+06
1.35387e+06
1.39632e+06
753198
997195
584016
611401
440104
363893
308726
681471
956997
887153
832430
1.09306e+06
1.28684e+06
1.71457e+06
2.23821e+06
2.83993e+06
2.76604e+06
2.53068e+06
1.62248e+06
1.73308e+06
961245
221892
-103246
-107562
-107544
-107553
-107566
-107566
-107583
-107571
-107588
-107574
-107584
-107580
-107578
-107584
-107507
-107506
-107506
-107505
-107503
-107504
-107503
-107502
-107499
-107500
-107497
-107498
-107496
-107497
-107494
-107496
-107493
-107493
-107491
-107490
-107492
-107490
-107491
-107490
-107490
-107488
-107490
-107488
-107490
-107490
-107487
-107487
-107488
-107488
-107486
-107487
-107488
-107486
-107487
-107487
-107487
-107486
-107488
-107488
-107488
-107487
-107488
-107488
-107487
-107487
-107487
-107488
-107487
-107488
-107488
-107486
-107487
-107488
-107488
-107488
-107488
-107488
-107487
-107488
-107486
-107488
-107487
-107488
-107486
-107487
-107486
-107487
-107487
-107488
-107488
-107488
-107488
-107488
-107485
-107487
-107487
-107487
-107487
-107488
-107488
-107486
-107488
-107487
-107488
-107488
-107488
-107487
-107487
-107488
-107485
-107488
-107488
-107487
-107487
-107487
-107486
-107487
-107487
-107488
-107488
-107487
-107488
-107488
-107486
-107486
-107488
-107487
-107487
-107487
-107488
-107486
-107488
-107488
-107488
-107488
-107488
-107489
-107487
-107488
-107486
-107488
-107487
-107488
-107487
-107487
-107487
-107487
-107488
-107488
-107486
-107487
-107486
-107487
-107488
-107488
-107488
-107488
-107487
-107488
-107487
-107486
-107487
-107488
-107487
-107487
368761
389816
423587
423225
431419
357089
274476
211640
124816
-16085
-120845
-232852
-433444
-517674
-165797
-183595
-80686.1
57125.9
144779
224590
244440
265969
242848
266769
200131
204813
99467.6
73529.8
-39024.4
-83634.2
-145777
-140612
-175479
-187047
-229571
-261871
-305862
-351538
-395164
-424427
-420129
-390744
-357853
-90048.4
-327350
-185008
-120855
-100159
-99795
-65968.4
-38497
27859.6
117431
164783
227829
248662
247363
238959
211870
167046
106349
45165
1466.43
-59215.4
-142362
-216987
-203604
-213981
-252156
-292618
-307262
-353706
-427567
-536075
-395984
-316264
-277207
-278523
-303835
-329353
-338200
-328764
-312511
-287638
-277531
-288269
-288692
-317204
-328984
-361853
-381319
-398414
-403547
-394372
-376421
-351542
-328777
-338172
-369937
-393912
-341966
-309952
-352484
-367019
-302641
-389774
-468416
-507648
-530525
-539512
-532344
-523391
-491712
-425257
-345013
-350110
-362615
-260307
-359911
-268364
-274827
-155026
-1964.1
101157
175535
255114
139858
17470.2
-287025
-231588
-280234
-341866
-355146
288360
-512441
-395831
-562360
-465033
-356637
-425608
-463705
-525303
-541664
-573835
-604874
-682509
-740903
-732131
-696569
-568316
-420343
-315848
-356861
-482041
-562950
-442179
-407992
-404496
-317567
-371026
-347140
-642229
147002
244251
-60496.3
-295001
-216974
-289469
-362439
-351222
-355861
-365845
-385976
-369309
33694.3
623287
768637
250396
-95337.5
-274068
-270035
-242653
-406599
-390268
24985.2
-527552
1.65154e+06
1.33986e+06
1.02334e+06
920375
614641
724096
449948
552282
451555
570934
-280857
-303432
-247818
-240110
-219438
-258949
-261648
273143
1.83742e+06
1.67562e+06
1.42929e+06
1.02795e+06
933554
600955
165848
-102162
-107566
-107558
-107563
-107574
-107576
-107581
-107578
-107586
-107576
-107584
-107580
-107579
-107506
-107509
-107504
-107509
-107502
-107508
-107500
-107506
-107498
-107504
-107496
-107503
-107495
-107500
-107493
-107499
-107491
-107497
-107490
-107496
-107489
-107495
-107488
-107495
-107487
-107494
-107487
-107491
-107490
-107487
-107487
-107488
-107492
-107485
-107492
-107485
-107492
-107485
-107492
-107485
-107492
-107486
-107492
-107485
-107491
-107485
-107492
-107485
-107491
-107487
-107486
-107492
-107485
-107493
-107485
-107492
-107485
-107492
-107485
-107488
-107485
-107490
-107484
-107492
-107484
-107492
-107484
-107492
-107485
-107492
-107485
-107492
-107486
-107491
-107485
-107492
-107486
-107492
-107485
-107492
-107485
-107492
-107485
-107492
-107485
-107492
-107484
-107489
-107488
-107486
-107489
-107487
-107489
-107492
-107485
-107492
-107485
-107492
-107485
-107492
-107484
-107492
-107485
-107491
-107486
-107486
-107492
-107486
-107492
-107485
-107492
-107485
-107492
-107485
-107491
-107484
-107491
-107487
-107488
-107488
-107486
-107490
-107484
-107491
-107484
-107493
-107484
-107493
-107484
-107492
-107484
-107492
-107485
-107492
-107485
-107491
-107485
-107492
-107485
-107492
-107484
-107492
-107484
-107493
-107484
-107492
-107485
-107490
-107488
-107486
456955
484333
491573
467488
437895
397585
368919
292930
311998
218682
68725.4
-227086
-451289
-557521
-168076
48724.5
295019
376810
466555
426444
449716
362861
343753
323250
276176
291445
208128
168631
33709
-16668.7
-84540.8
-94134.8
-135511
-157920
-205329
-242400
-286399
-345231
-394035
-430872
-441335
-431966
-344022
-164912
-319230
-193502
-135779
-129091
-99737.7
-72611
-3482.54
62847.3
138276
183063
199820
229924
258465
264044
240076
181339
100671
30048.6
-28773.4
-51084.3
-84723
-133937
-178483
-199264
-259350
-300797
-317493
-328110
-377944
-494766
-396475
-335448
-299181
-279420
-286165
-299753
-297670
-279685
-225674
-186617
-167683
-192457
-233506
-287834
-325524
-372360
-391930
-410007
-408768
-393705
-368470
-336674
-316402
-324734
-349622
-372784
-329656
-298740
-347047
-389971
-318337
-378690
-445777
-488507
-525708
-555797
-561762
-553552
-525884
-406003
-353960
-312213
-319348
-349913
-292539
-364066
-241338
-148944
-44187
78785.1
142555
210826
207298
108517
149432
-77037.5
-154117
-245747
-302166
28576.2
-520262
-511146
-508790
-391972
-291051
-329461
-421861
-499769
-537160
-578614
-612591
-665358
-711206
-652851
-541466
-429677
-315096
-284018
-321017
-418911
-482935
-497505
-537144
-565205
-600986
-600781
-630240
-383099
173478
205642
-65847.7
-369585
-286415
-291908
-315039
-317639
-340217
-342697
-343349
-273952
84170.6
803803
988011
940707
823952
720425
589803
297144
30816.1
-128726
-5090.72
12698.4
-975408
1.60724e+06
968549
800970
570176
674330
586722
483710
383820
156714
-66905.5
-137038
-251755
-183082
-152547
-25177.7
49319.7
-19984
-118798
1.05135e+06
1.21688e+06
1.41306e+06
1.08384e+06
1.08491e+06
710432
151735
-106001
-107590
-107594
-107604
-107596
-107611
-107597
-107611
-107600
-107603
-107605
-107603
-107533
-107529
-107531
-107528
-107529
-107526
-107527
-107523
-107524
-107521
-107522
-107519
-107520
-107517
-107518
-107515
-107516
-107514
-107516
-107513
-107515
-107511
-107513
-107511
-107513
-107511
-107512
-107512
-107512
-107513
-107511
-107510
-107510
-107511
-107509
-107511
-107509
-107510
-107508
-107511
-107509
-107511
-107509
-107510
-107509
-107510
-107509
-107510
-107509
-107509
-107510
-107508
-107510
-107509
-107511
-107509
-107510
-107510
-107511
-107510
-107512
-107509
-107511
-107509
-107510
-107509
-107510
-107509
-107510
-107509
-107510
-107509
-107510
-107508
-107509
-107509
-107510
-107508
-107511
-107509
-107511
-107508
-107510
-107509
-107511
-107508
-107511
-107509
-107510
-107512
-107512
-107511
-107511
-107509
-107510
-107510
-107510
-107508
-107510
-107509
-107510
-107509
-107511
-107510
-107510
-107510
-107510
-107511
-107509
-107510
-107509
-107511
-107509
-107510
-107510
-107511
-107509
-107511
-107510
-107511
-107511
-107510
-107510
-107509
-107510
-107509
-107511
-107509
-107511
-107509
-107510
-107509
-107511
-107509
-107509
-107508
-107510
-107508
-107510
-107509
-107510
-107509
-107510
-107509
-107511
-107509
-107510
-107510
-107510
-107511
540455
530989
489613
446331
401076
387926
386351
363063
357146
467033
237209
-88741.2
-447196
-534111
-35959
308621
505698
557629
447960
330790
208934
127998
107934
85953.6
135188
192033
214032
225776
128981
55071.3
-9948.47
-39439.4
-75442.4
-121690
-173494
-219956
-275292
-329695
-391894
-430428
-442555
-445059
-357617
-109705
-318637
-219200
-158326
-137765
-121466
-80892.4
-10013.4
64796
96041.8
143275
150310
153740
169194
196532
209201
186989
127411
22972.3
-59027
-84168.4
-89467.7
-115758
-144647
-205006
-266608
-308386
-309245
-290977
-317120
-425018
-381976
-349671
-319320
-286071
-273399
-277669
-263469
-210721
-144593
-115873
-129723
-205163
-290852
-347790
-390233
-416833
-426727
-429345
-420630
-399932
-372832
-338070
-309385
-308701
-325323
-335051
-325512
-300419
-333125
-393988
-337035
-375832
-423607
-479348
-531348
-564066
-569901
-569673
-501759
-396016
-342951
-328857
-293899
-318773
-359757
-309273
-345770
-189100
-115559
-19625.6
5209.23
-65825.4
-50669.9
21404.8
-82835.8
-142243
-209137
-214147
-244303
3005.33
-532568
-505260
-523033
-343510
-268468
-320689
-406781
-476078
-527856
-560299
-603484
-629508
-602723
-542607
-446848
-389408
-327494
-330209
-351395
-375200
-417127
-485447
-587524
-665707
-721839
-718455
-586081
-284779
200223
177341
-46855
-350563
-376519
-323857
-312555
-311238
-348883
-351975
-373245
-220057
-12312.7
221152
331548
384076
646432
779649
778148
665038
316059
11039.3
-515413
-18571.3
-78492.5
-523470
-674587
-576212
584923
604067
640695
627027
172503
-196415
-59848.9
-162741
-343021
-323433
-310648
-266366
-227092
-195464
-266836
-212217
865746
1.3364e+06
1.49847e+06
1.18057e+06
1.16139e+06
767028
110105
-107443
-107591
-107599
-107595
-107611
-107596
-107611
-107597
-107602
-107604
-107599
-107530
-107531
-107525
-107531
-107524
-107529
-107523
-107527
-107519
-107524
-107517
-107522
-107515
-107519
-107515
-107517
-107513
-107515
-107512
-107514
-107511
-107513
-107511
-107513
-107510
-107512
-107509
-107511
-107510
-107511
-107509
-107509
-107510
-107508
-107511
-107508
-107511
-107508
-107511
-107507
-107510
-107507
-107510
-107506
-107509
-107506
-107509
-107507
-107509
-107507
-107507
-107509
-107507
-107511
-107508
-107510
-107507
-107510
-107508
-107509
-107509
-107510
-107506
-107511
-107507
-107511
-107507
-107511
-107506
-107511
-107507
-107510
-107506
-107510
-107506
-107509
-107506
-107509
-107507
-107510
-107506
-107510
-107507
-107511
-107508
-107510
-107508
-107510
-107508
-107509
-107509
-107508
-107508
-107510
-107506
-107511
-107507
-107511
-107507
-107510
-107507
-107510
-107507
-107510
-107507
-107507
-107510
-107507
-107510
-107507
-107510
-107507
-107511
-107507
-107512
-107507
-107510
-107508
-107508
-107510
-107509
-107509
-107507
-107510
-107507
-107511
-107507
-107511
-107507
-107511
-107507
-107511
-107507
-107511
-107507
-107510
-107507
-107510
-107507
-107511
-107507
-107510
-107507
-107511
-107508
-107511
-107506
-107510
-107509
-107510
575412
498560
402722
330333
310986
319948
307772
317806
447227
470573
453870
13808.5
-434725
-561676
89662.6
369672
478047
383819
187965
55128.4
10733.1
-15598.7
-37723.5
-47152.6
-32233.6
-31005
84946.2
188328
182846
161888
62631.2
28242.6
-15993.5
-77659.3
-146358
-210097
-272192
-333916
-378738
-408868
-416463
-406843
-355328
-80961.1
-307267
-241398
-198934
-157152
-134789
-72726.8
-3027.42
32582.7
82010.7
75580.1
99658.2
114781
138085
176652
216826
213345
125211
16529.9
-66741.2
-108667
-98496.2
-114485
-154381
-200434
-262471
-299705
-291549
-260017
-259601
-340979
-356452
-351371
-331791
-291051
-270241
-262213
-216681
-139894
-91479.9
-106128
-200481
-305188
-373553
-424796
-450575
-461048
-455648
-450480
-441396
-424320
-395777
-358745
-318160
-298340
-294085
-312834
-317082
-315454
-317863
-366846
-355136
-384417
-440294
-500106
-556302
-565317
-560617
-532377
-449361
-377961
-350217
-320486
-316474
-300802
-337241
-360848
-301444
-353799
-265274
-299174
-254935
-182116
-186199
-278590
-323820
-388029
-352828
-255195
-258727
-27913
-432864
-483297
-460586
-322063
-229294
-330785
-391266
-448373
-498172
-525051
-544823
-546262
-485625
-417750
-368238
-321523
-298953
-280434
-329832
-353928
-380855
-434087
-518414
-620575
-660177
-587547
-456013
-398645
-458788
175779
-27177.8
-254562
-408639
-401297
-336500
-344584
-380446
-429279
-472610
-277866
-19765.6
-37925.1
10139.5
134149
190907
387866
588079
672025
526185
-39009.4
-486942
-596781
-88903.6
-388897
39756.2
-309099
-453616
-535182
57382.2
688035
41123.6
-86850.3
-70552.3
-137880
-200252
-286255
-219336
-225561
-223151
-213954
-212002
-273232
-174496
958435
1.41344e+06
1.51918e+06
1.23987e+06
1.23688e+06
767372
27348.2
-107677
-107596
-107589
-107600
-107593
-107602
-107596
-107597
-107599
-107596
-107527
-107529
-107530
-107526
-107528
-107523
-107525
-107520
-107522
-107516
-107519
-107515
-107518
-107513
-107516
-107511
-107514
-107509
-107513
-107508
-107511
-107507
-107511
-107508
-107509
-107506
-107508
-107508
-107508
-107508
-107507
-107506
-107505
-107507
-107505
-107507
-107505
-107508
-107504
-107506
-107504
-107507
-107504
-107507
-107505
-107507
-107505
-107507
-107505
-107506
-107507
-107504
-107507
-107505
-107507
-107504
-107506
-107504
-107507
-107505
-107506
-107505
-107507
-107504
-107507
-107505
-107507
-107506
-107507
-107504
-107507
-107505
-107507
-107505
-107507
-107505
-107507
-107504
-107507
-107504
-107507
-107504
-107507
-107505
-107507
-107505
-107506
-107505
-107506
-107506
-107505
-107506
-107506
-107505
-107506
-107505
-107507
-107505
-107506
-107504
-107507
-107505
-107506
-107505
-107506
-107506
-107505
-107506
-107505
-107506
-107504
-107507
-107506
-107507
-107505
-107507
-107505
-107506
-107506
-107506
-107507
-107505
-107507
-107505
-107507
-107504
-107508
-107505
-107508
-107505
-107507
-107505
-107508
-107505
-107507
-107504
-107506
-107504
-107507
-107505
-107506
-107504
-107508
-107505
-107507
-107505
-107507
-107505
-107507
-107507
493586
412830
321216
298116
294736
293675
309948
321371
307927
438762
509458
197711
-323531
-476124
144502
290742
198432
121331
37670.4
-1198.74
-20111.5
-38355.2
-45143.4
-42551.7
-55807.6
-63494.7
-33885.5
78119.1
187342
197963
156509
90993
39704.3
-16936.9
-99026.9
-177128
-255578
-311591
-347898
-358558
-354472
-344471
-351284
-66541.6
-312308
-259800
-211118
-170164
-123419
-43761.3
-10788.3
28406.6
29761.2
62894.7
56693.9
77706.6
113117
164559
184236
147100
54355.2
-43261.9
-104865
-128099
-124616
-112261
-164963
-230735
-274597
-286116
-273906
-249283
-220353
-253971
-322396
-343220
-332487
-293707
-267612
-233405
-150404
-88780.7
-90326.1
-194678
-308206
-386360
-452676
-494627
-494140
-467552
-431593
-414289
-425306
-438436
-428012
-395733
-342648
-304865
-287361
-286130
-319012
-326322
-318582
-332898
-373617
-402933
-463124
-541625
-572516
-557385
-511274
-445182
-377420
-359614
-351510
-322335
-294984
-303961
-319144
-346436
-377328
-336081
-351436
-267809
-288337
-324974
-362776
-387920
-436066
-438473
-395088
-322241
-265288
-54533.5
-342109
-468000
-440191
-272781
-267258
-328223
-383597
-424181
-456044
-478104
-473684
-426708
-362330
-278005
-202944
-126466
-95637.1
-102827
-107306
-216816
-300935
-375113
-430620
-492203
-555978
-541347
-472901
-471540
-407693
177574
33714.5
-211330
-349069
-461624
-458347
-474802
-496234
-536972
-554192
-398096
-60650.2
-106406
-230207
-141674
107775
237066
348844
363578
173724
-71691.7
-372009
-553185
-827092
-375922
27646.2
21064.1
44836.6
-429923
-133985
617538
68588.8
-108274
-71692.7
-159539
-245477
-266828
-179695
-217266
-230531
-247769
-211926
-205105
-250280
-45562.6
1.08293e+06
1.45713e+06
1.50845e+06
1.30009e+06
1.28026e+06
659650
-56892.9
-107679
-107582
-107590
-107595
-107588
-107599
-107587
-107599
-107589
-107536
-107526
-107527
-107526
-107524
-107523
-107521
-107520
-107518
-107517
-107514
-107515
-107513
-107514
-107511
-107511
-107509
-107509
-107508
-107507
-107506
-107506
-107505
-107506
-107505
-107505
-107505
-107505
-107505
-107505
-107504
-107503
-107504
-107503
-107503
-107502
-107503
-107502
-107503
-107502
-107503
-107502
-107503
-107503
-107503
-107503
-107503
-107503
-107503
-107502
-107502
-107503
-107502
-107503
-107502
-107503
-107502
-107503
-107502
-107504
-107504
-107503
-107502
-107503
-107502
-107503
-107502
-107503
-107502
-107503
-107502
-107503
-107503
-107504
-107503
-107504
-107503
-107504
-107503
-107503
-107502
-107503
-107502
-107504
-107503
-107503
-107503
-107503
-107503
-107503
-107504
-107503
-107503
-107503
-107503
-107503
-107502
-107503
-107502
-107503
-107502
-107504
-107503
-107503
-107503
-107502
-107503
-107502
-107503
-107502
-107503
-107502
-107502
-107503
-107503
-107502
-107503
-107503
-107503
-107504
-107503
-107502
-107502
-107504
-107503
-107503
-107502
-107503
-107503
-107503
-107502
-107504
-107503
-107503
-107503
-107504
-107503
-107503
-107502
-107503
-107502
-107503
-107502
-107504
-107503
-107504
-107502
-107504
-107504
-107504
425231
321341
286085
269111
289904
310803
295483
265492
271108
250522
425315
198541
-185016
-326063
228626
151314
71347.6
2966.77
-9703.99
-12318.9
-29524
-14343
4895.07
13882.3
-10647
-30341
-38643.2
-1422.26
146460
203948
220241
158652
89778.9
15744.8
-68076.8
-158308
-227628
-276564
-300937
-309268
-302091
-278138
-184485
-15987.6
-307495
-277988
-222979
-161276
-104086
-52967.1
-30405
-17923.9
4523.58
10972.9
55024.5
83403.8
138335
175151
180293
64908.2
-47639.8
-105088
-119403
-120308
-116787
-140936
-188400
-263860
-278871
-285969
-279116
-251772
-210634
-201562
-292787
-332507
-322102
-282178
-242871
-175089
-105469
-87707.7
-173891
-287280
-380634
-473520
-533737
-538426
-481553
-409182
-346487
-305677
-302420
-351892
-398061
-406361
-377076
-338053
-295185
-290810
-311726
-331488
-323406
-345133
-392558
-434227
-527806
-580483
-561765
-511938
-430735
-357035
-333288
-351778
-348557
-313843
-298828
-288519
-313480
-332277
-336196
-350449
-350966
-368632
-339779
-334549
-332990
-401822
-436827
-444338
-411144
-333212
-251081
-169297
-363590
-453664
-372414
-254104
-269393
-338205
-374720
-405486
-412168
-415743
-383084
-308258
-205188
-92377.5
15044.1
88277.4
171930
162382
160247
194151
93677.9
-57090.4
-240148
-428587
-494180
-539376
-512081
-463182
-407656
-381726
139390
-180588
-284960
-388547
-461596
-508666
-533712
-540772
-518515
-427764
-150797
-185336
-201083
-2639.3
138394
236430
185736
218381
170590
-240242
-479483
-573247
-994570
-1.98941e+06
-968761
-438154
-79189.4
-334896
11585.8
783686
128850
-156168
-62043.9
-70868.2
-113679
-92828.5
-165188
-141505
-167371
-191131
-228256
-202994
-210657
-223931
169887
1.28033e+06
1.46116e+06
1.47744e+06
1.343e+06
1.26008e+06
390575
-102231
-107568
-107582
-107583
-107582
-107587
-107580
-107590
-107583
-107518
-107528
-107524
-107521
-107522
-107518
-107518
-107514
-107514
-107510
-107511
-107508
-107509
-107506
-107507
-107504
-107505
-107502
-107503
-107500
-107502
-107499
-107502
-107499
-107501
-107499
-107499
-107499
-107499
-107499
-107498
-107498
-107497
-107498
-107497
-107499
-107497
-107498
-107496
-107498
-107496
-107498
-107497
-107498
-107497
-107498
-107497
-107498
-107497
-107497
-107497
-107496
-107498
-107496
-107498
-107496
-107498
-107497
-107498
-107497
-107498
-107497
-107498
-107496
-107498
-107496
-107498
-107496
-107497
-107496
-107497
-107497
-107498
-107497
-107498
-107497
-107498
-107497
-107498
-107496
-107497
-107495
-107498
-107497
-107498
-107497
-107497
-107497
-107497
-107497
-107496
-107497
-107496
-107496
-107497
-107496
-107498
-107496
-107497
-107496
-107497
-107497
-107498
-107497
-107497
-107497
-107497
-107498
-107496
-107498
-107496
-107497
-107496
-107498
-107496
-107498
-107496
-107497
-107497
-107497
-107497
-107497
-107498
-107496
-107498
-107496
-107498
-107496
-107497
-107495
-107498
-107496
-107498
-107496
-107497
-107496
-107497
-107496
-107497
-107496
-107498
-107496
-107498
-107496
-107498
-107497
-107498
-107497
-107497
-107498
326503
294392
268194
279528
284338
280482
233775
185542
146055
179539
204659
242433
-129057
-279079
113304
67723
-1441.24
-4133.08
-14572.1
-22307.3
-21834.3
-7427.95
27632.5
47022
51606.1
10360.9
-10605
-6391.29
127507
203671
212636
217916
129364
56399.4
-29058.6
-114755
-187905
-232020
-258195
-277351
-291140
-282222
-101422
-79737.7
-303663
-260185
-199415
-144467
-112304
-96333.4
-85979.3
-68517.9
-42522.6
11772.9
52402.3
121483
145575
147762
30993.8
-66795.8
-96620.4
-102062
-109053
-120273
-131837
-177796
-251772
-287760
-316095
-312004
-282404
-260020
-215376
-192781
-267304
-322207
-310006
-262240
-192192
-116757
-81108.2
-143970
-246889
-352927
-466194
-555562
-580942
-532947
-447412
-363599
-290291
-241166
-224530
-237433
-306524
-374411
-387237
-355426
-312593
-281352
-298316
-332374
-338024
-350250
-394764
-485751
-574263
-570115
-513146
-438643
-351673
-306488
-318753
-341423
-338440
-307587
-282242
-284755
-303853
-332356
-339904
-340274
-323760
-301009
-307610
-321120
-375930
-398749
-438094
-424316
-398898
-377942
-341454
-341060
-377852
-419110
-301007
-246314
-288304
-330733
-358147
-366482
-369691
-340344
-278834
-184663
-46634.5
61061.4
147152
174498
154458
201965
156133
143370
230642
269789
288149
257538
-64221.6
-385064
-533119
-522033
-423016
-367835
54124.3
-251258
-275965
-353880
-434736
-457704
-444620
-403420
-410688
-370294
-177707
-205849
-246958
18026.7
202021
210447
296959
253746
215355
43825.6
-482295
-823654
-1.03802e+06
-1.69742e+06
-1.71024e+06
-832724
-311066
-368011
608390
779471
39914.6
-191392
-55239.1
-57678
-128301
-63405.8
-108055
-83571.9
-74335.7
-111786
-173419
-228720
-212082
-239224
-200194
488771
1.4697e+06
1.47069e+06
1.47084e+06
1.39144e+06
1.05275e+06
85395.6
-107563
-107584
-107565
-107583
-107575
-107579
-107574
-107580
-107549
-107501
-107525
-107512
-107519
-107514
-107513
-107511
-107510
-107507
-107505
-107505
-107504
-107504
-107502
-107502
-107500
-107499
-107498
-107497
-107497
-107497
-107496
-107495
-107495
-107495
-107495
-107494
-107494
-107494
-107493
-107493
-107493
-107492
-107494
-107493
-107493
-107492
-107493
-107492
-107492
-107492
-107493
-107493
-107494
-107493
-107493
-107493
-107492
-107492
-107492
-107493
-107492
-107492
-107492
-107493
-107492
-107492
-107492
-107492
-107492
-107492
-107492
-107492
-107493
-107493
-107491
-107493
-107492
-107492
-107492
-107492
-107493
-107493
-107493
-107493
-107493
-107493
-107492
-107492
-107492
-107493
-107492
-107492
-107492
-107493
-107492
-107492
-107492
-107492
-107492
-107492
-107492
-107492
-107492
-107493
-107492
-107493
-107492
-107493
-107492
-107493
-107493
-107493
-107493
-107493
-107493
-107493
-107493
-107492
-107492
-107492
-107493
-107492
-107493
-107493
-107492
-107492
-107492
-107492
-107492
-107493
-107492
-107493
-107492
-107493
-107492
-107493
-107492
-107492
-107492
-107493
-107492
-107493
-107492
-107492
-107492
-107493
-107492
-107492
-107492
-107493
-107492
-107493
-107492
-107493
-107492
-107493
-107492
-107492
298949
268311
267516
255282
272331
273561
164167
135754
135726
146976
189037
167193
-60576.9
-278173
-65562.2
41726
15083.9
31187.7
-16374.3
-15627.5
-20230.5
-27868.1
-38594
-38832.5
-14336.2
42071.8
65072.3
82471.7
32035.6
54851.5
126971
209429
220143
223700
178844
81185.7
-1855.17
-87147.5
-162441
-214868
-250435
-279692
-297317
-305480
-317312
-338998
-333908
-325165
-272621
-207662
-164567
-145752
-164093
-173260
-144190
-97453.3
-36719.8
18210.1
87373.6
126119
118165
7771.4
-83970.6
-110230
-107364
-105821
-115437
-138356
-181276
-227142
-264723
-295729
-312806
-314251
-286725
-239685
-223489
-192678
-214522
-264787
-270572
-311783
-275996
-200346
-132572
-85515.1
-112356
-182857
-288235
-420797
-534830
-596173
-590618
-534564
-442631
-349786
-272495
-221446
-206086
-209276
-233043
-317658
-368483
-375535
-334343
-287425
-280671
-308522
-316297
-352285
-422785
-385440
-423454
-536408
-561006
-509240
-402346
-354184
-285909
-285357
-317038
-333504
-326672
-295554
-275981
-269188
-300701
-315067
-318974
-304319
-296022
-289734
-302916
-325688
-341346
-387320
-405818
-402310
-371022
-338845
-356571
-403160
-395126
-296606
-300176
-340284
-257787
-250383
-286005
-316994
-320093
-323282
-301748
-248976
-174747
-69946.6
31644.4
125500
120019
126290
99212.5
42461.2
40881.5
4661.57
5159.76
34534.9
125063
252331
375808
268552
-95212
-389188
-460552
-353853
-393578
-412365
-389532
-330157
-284868
-302518
-359541
-376656
-322883
-263223
-217598
-239120
-163880
-84274.7
-350873
-212067
22381.3
155262
187641
266591
370220
218642
-212768
-970991
-1.23377e+06
-1.35388e+06
-1.44207e+06
-703114
-389793
-361023
-498038
400170
171019
170362
62357.9
-275964
-111593
-119111
-115971
-89282.8
-16351
-22311.8
-35078
-52299.4
-115152
-187078
-244289
-237363
-245145
-46652
905724
1.57938e+06
1.49113e+06
1.51192e+06
1.35614e+06
627978
-75552.6
-107596
-107556
-107571
-107553
-107568
-107544
-107537
-107522
-107537
-107491
-107526
-107507
-107519
-107510
-107510
-107508
-107505
-107503
-107501
-107500
-107498
-107498
-107495
-107495
-107493
-107493
-107491
-107492
-107489
-107490
-107488
-107489
-107487
-107489
-107487
-107488
-107486
-107487
-107486
-107485
-107484
-107485
-107486
-107485
-107486
-107485
-107486
-107485
-107486
-107484
-107485
-107485
-107486
-107485
-107486
-107485
-107485
-107485
-107485
-107485
-107485
-107485
-107485
-107486
-107485
-107485
-107485
-107485
-107484
-107485
-107484
-107483
-107483
-107484
-107485
-107484
-107484
-107485
-107485
-107485
-107485
-107485
-107485
-107485
-107485
-107486
-107485
-107486
-107485
-107486
-107485
-107486
-107485
-107485
-107484
-107485
-107484
-107485
-107484
-107485
-107484
-107485
-107484
-107483
-107484
-107484
-107485
-107485
-107484
-107485
-107485
-107485
-107484
-107486
-107484
-107485
-107485
-107486
-107485
-107486
-107485
-107485
-107486
-107485
-107486
-107485
-107485
-107484
-107485
-107485
-107485
-107485
-107485
-107485
-107484
-107484
-107484
-107484
-107485
-107485
-107484
-107485
-107484
-107485
-107484
-107486
-107484
-107485
-107485
-107486
-107485
-107485
-107484
-107485
-107485
-107486
-107484
-107485
-107484
-107485
-107485
-107486
-107484
-107485
-107485
-107485
-107485
-107485
-107484
267695
262261
240534
221675
230615
243534
141133
114637
140788
184978
183431
178355
16086.7
-214535
-212660
-174227
-24792.2
13265.7
-24186.9
-23251.5
-26308.6
-36882.9
-62743.9
-76787.8
-73315.2
-41004.7
17797.1
66157.1
97855.4
114796
179621
204668
243796
220338
203940
90533
505.009
-95113.6
-171426
-224928
-257241
-279047
-300855
-320365
-330399
-311747
-231809
-225058
-196668
-164759
-169366
-245080
-259903
-214413
-153943
-81641.8
-11404.7
50097.8
77635.9
47587
-44538.7
-110729
-138013
-133102
-136745
-146452
-160846
-188886
-215404
-243223
-270552
-297654
-298276
-275536
-249470
-227821
-223120
-196587
-268677
-285607
-285372
-289625
-227856
-153323
-99801.3
-109530
-126113
-195726
-323689
-461286
-571473
-603150
-607328
-543843
-444691
-341174
-268051
-222903
-204469
-216934
-225479
-260639
-356051
-373281
-337613
-267827
-239212
-260713
-353757
-478024
-477016
-446083
-470462
-504950
-445347
-338418
-263879
-243520
-253467
-267657
-307191
-317648
-308433
-270232
-251281
-267113
-288030
-299606
-283262
-270245
-255128
-262001
-274213
-299857
-317715
-352172
-393216
-405247
-386535
-371532
-381181
-365851
-350347
-286530
-287616
-279393
-253730
-250092
-278209
-287568
-288259
-264799
-222337
-164706
-91067.9
-12386
41839.9
62957.3
70747.1
-6985.56
-59650.8
-102446
-120910
-136764
-85323.3
-48627.4
28087.8
130930
257474
415687
394526
120883
-202027
-340201
-373059
-401969
-368314
-304700
-262731
-286345
-357471
-365044
-313048
-224508
-166091
-159135
-141097
-61831.6
-235906
-386578
-215114
-24252
67599.2
248847
305307
427347
180745
-663200
-1.51559e+06
-1.66685e+06
-1.71684e+06
-1.16008e+06
-492144
-433722
-329653
-358340
-228323
-114099
-250450
-341151
-219893
-213204
-93108.7
-17320
36752.3
29870.9
20920.9
-23402.4
-61417.8
-141537
-220530
-264127
-268978
-236801
271544
1.3336e+06
1.57053e+06
1.54224e+06
1.55205e+06
1.16526e+06
165574
-107571
-107543
-107561
-107543
-107562
-107533
-107548
-107508
-107535
-107487
-107527
-107503
-107516
-107504
-107507