/*--------------------------------*- C++ -*----------------------------------*\
| =========                 |                                                 |
| \\      /  F ield         | OpenFOAM: The Open Source CFD Toolbox           |
|  \\    /   O peration     | Version:  2.1.1                                 |
|   \\  /    A nd           | Web:      www.OpenFOAM.org                      |
|    \\/     M anipulation  |                                                 |
\*---------------------------------------------------------------------------*/
FoamFile
{
    version     2.0;
    format      ascii;
    class       volScalarField;
    location    "0.003000000";
    object      sL;
}
// * * * * * * * * * * * * * * * * * * * * * * * * * * * * * * * * * * * * * //

dimensions      [0 1 -1 0 0 0 0];

internalField   nonuniform List<scalar> 
12384
(
10.2987
8.75345
6.45442
4.96023
3.62821
3.04987
2.04231
1.78269
1.38502
0.775076
0.869356
1.03274
1.16303
1.17136
0.923593
0.633066
0.590786
0.567174
0.712221
0.814738
1.27182
1.16756
1.56723
1.63075
1.53283
1.59566
0.997748
0.944209
0.65741
0.632807
0.646774
0.619333
0.62582
0.602979
0.605588
0.608274
0.64087
0.703771
0.840922
1.09059
1.23751
1.32976
1.56375
2.89215
0.954191
1.03303
1.09765
1.12659
1.11854
1.11753
1.36502
1.34473
2.18461
3.25803
3.71702
3.96203
3.91992
3.61954
3.4398
2.93179
2.51028
1.80328
1.22815
1.19684
1.09201
0.95768
0.776353
0.672121
0.648699
0.77087
0.902775
1.1456
1.16026
1.14496
1.15256
1.32886
1.39552
1.35428
1.31398
1.27638
1.27255
1.28082
1.30592
1.33776
1.38092
1.43416
1.44671
1.48582
1.49357
1.48509
1.48686
1.47156
1.45656
1.41011
1.36288
1.28437
1.19527
1.01093
0.811092
0.703301
0.719763
0.977192
1.14088
1.24025
0.917986
1.00124
1.202
1.31374
1.35896
1.33455
1.35125
1.32697
1.37757
1.32328
1.34495
1.23565
1.17721
1.16975
1.14316
1.13568
1.09944
1.1846
1.49261
1.55222
1.71197
1.29505
0.744293
0.516219
0.515013
2.15592
2.72102
3.00007
3.5408
4.72886
2.64442
0.671146
0.725105
0.973141
0.967995
1.20154
1.15172
1.25779
1.26822
1.31707
1.32291
1.34022
1.38808
1.26869
1.27984
1.22283
1.16674
1.11725
0.981261
0.550195
2.36966
1.80465
1.40134
1.33768
1.44452
1.65507
1.88291
1.99319
2.76559
2.88631
1.88796
1.88359
1.8236
1.16861
1.28891
1.35288
1.40271
1.42274
1.4715
1.40841
1.24428
1.09048
1.85892
1.01108
1.04941
1.06078
1.04622
1.03405
0.991678
0.869781
3.78638
3.21351
2.34672
2.32075
1.96345
2.45604
2.02352
2.71597
2.81105
2.83426
2.33417
2.25366
2.66812
3.21557
3.89303
4.05678
4.14242
4.30618
4.09581
4.01762
3.38835
2.99568
2.02909
2.34479
2.35698
2.79194
2.17213
2.08606
2.09171
2.08927
2.09006
2.08184
2.08524
2.078
2.08099
2.07608
2.07705
2.07577
2.07459
2.08068
2.06612
2.06053
2.06003
2.06002
2.05967
2.05949
2.0592
2.05885
2.05859
2.05833
2.05793
2.05772
2.05711
2.05687
2.05634
2.05641
2.05624
2.05645
2.05667
2.05657
2.0568
2.05669
2.05691
2.05684
2.05705
2.05702
2.05718
2.05723
2.0577
2.06352
2.06332
2.05749
2.05705
2.05685
2.05675
2.05658
2.05644
2.05631
2.05618
2.05604
2.05592
2.05576
2.05552
2.05526
2.05511
2.05503
2.05518
2.05544
2.05579
2.05598
2.0561
2.05629
2.05643
2.05657
2.05667
2.05683
2.05692
2.05707
2.05743
2.06333
2.06329
2.05741
2.057
2.05687
2.05674
2.0566
2.05647
2.05633
2.05621
2.05608
2.05594
2.05578
2.05549
2.05525
2.05504
2.05504
2.05518
2.05545
2.05572
2.0559
2.05604
2.0562
2.05633
2.05648
2.05662
2.05677
2.05685
2.057
2.05741
2.0633
2.06332
2.05738
2.05699
2.05689
2.05679
2.05665
2.0565
2.05636
2.0562
2.05605
2.0559
2.05573
2.05546
2.05523
2.05504
2.05505
2.05521
2.05545
2.05575
2.05592
2.05605
2.05619
2.05634
2.05647
2.05661
2.05674
2.05686
2.05699
2.05737
2.06332
2.0633
2.0574
2.05699
2.05683
2.05671
2.05657
2.05646
2.05632
2.05622
2.05609
2.05596
2.05579
2.05555
2.05529
2.0551
2.05505
2.0552
2.05545
2.05569
2.05587
2.05603
2.05619
2.05635
2.05648
2.05662
2.05677
2.05688
2.05699
2.05742
2.06331
7.37272
6.84982
6.35467
5.4866
5.5426
3.98154
3.21965
2.29233
1.63962
0.949407
0.683929
0.908314
1.12465
1.18022
0.57574
0.575522
0.787939
1.76889
3.11113
5.11198
6.78077
8.15042
8.74127
10.1552
8.51508
8.54151
4.74308
3.18785
1.0942
0.670786
0.656462
0.624275
0.626205
0.599449
0.593534
0.587468
0.621698
0.720943
0.909577
1.11072
1.26058
1.34621
1.33408
2.17433
0.983712
1.05561
1.09328
1.07007
1.04402
1.19849
1.48631
2.58874
4.18253
5.62678
7.35712
8.1414
8.3534
8.08833
7.24275
5.90773
4.43392
3.19052
2.50675
1.67697
1.22619
1.06466
0.807662
0.655033
0.653341
0.78528
0.971558
1.09588
1.14324
1.1614
1.11951
1.32263
1.37238
1.3538
1.31181
1.28931
1.28793
1.29766
1.31796
1.34534
1.38859
1.46466
1.48778
1.52634
1.53038
1.53093
1.50606
1.49392
1.46507
1.39373
1.31877
1.22695
1.13781
0.931736
0.79302
0.698675
0.760851
0.925204
1.1533
1.21799
0.915762
0.979263
1.10561
1.1991
1.22923
1.21099
1.23511
1.2369
1.30234
1.28664
1.29913
1.29684
1.27457
1.26897
1.31138
1.26008
1.20878
1.07319
1.4981
1.62894
1.77344
1.81535
1.34221
0.985846
0.517276
0.515202
0.606507
0.769199
0.83517
2.76052
0.764314
0.688444
0.820068
1.03625
1.31384
1.27275
1.30367
1.32353
1.31721
1.33148
1.35437
1.34105
1.34382
1.3277
1.27846
1.23808
1.16155
1.0233
0.826482
0.627246
0.70569
0.724661
0.561834
0.49261
0.462466
0.432918
0.610925
1.15301
2.19114
2.79221
1.52591
0.949579
0.794112
1.1288
1.29603
1.35475
1.36848
1.40755
1.39903
1.3156
1.18497
5.00913
6.13983
2.5694
1.22045
1.19294
1.13415
1.09249
1.0427
0.960138
0.840787
0.557201
3.61858
2.42908
1.94945
1.45642
1.41696
1.65925
1.53835
1.75269
1.02692
2.26764
1.17996
1.59818
1.5787
1.50874
1.46266
1.45412
1.42021
2.8279
5.95054
5.66041
3.8527
1.62853
0.873586
0.755321
1.5095
1.8322
1.78451
1.82895
1.80666
1.842
1.82064
1.85037
1.83439
1.85551
1.84712
1.85768
1.85919
1.98388
1.94249
1.82124
1.81301
1.81328
1.81335
1.81509
1.81235
1.81552
1.81048
1.81411
1.80779
1.81037
1.80262
1.80198
1.7965
1.79892
1.79868
1.80458
1.80546
1.80998
1.80939
1.81371
1.8131
1.81705
1.81673
1.82019
1.82017
1.82312
1.8312
1.96379
1.96336
1.83079
1.82228
1.81905
1.81881
1.81528
1.81489
1.8112
1.81107
1.80745
1.80715
1.80348
1.80179
1.79669
1.79551
1.79341
1.79645
1.79919
1.80503
1.80768
1.80962
1.81322
1.81373
1.81736
1.81745
1.82084
1.82046
1.82347
1.83007
1.96845
1.96301
1.83149
1.82148
1.8213
1.81793
1.81777
1.81401
1.81376
1.81014
1.80982
1.80614
1.80527
1.80025
1.79757
1.79367
1.79463
1.79546
1.80053
1.80277
1.80673
1.80736
1.81136
1.81172
1.81558
1.81604
1.81954
1.82009
1.82276
1.83113
1.96359
1.96879
1.83011
1.82171
1.82137
1.8179
1.81777
1.81388
1.81344
1.8096
1.80903
1.80509
1.8043
1.79936
1.79702
1.79384
1.79377
1.79684
1.79946
1.80452
1.80536
1.8092
1.80964
1.81335
1.81366
1.8174
1.81746
1.82101
1.82141
1.82998
1.96854
1.96363
1.83134
1.82104
1.82079
1.81709
1.81704
1.81305
1.81311
1.80931
1.80947
1.80562
1.80517
1.8004
1.79808
1.7939
1.79461
1.79545
1.80043
1.80272
1.80657
1.80714
1.81111
1.81145
1.81539
1.81576
1.8194
1.81998
1.82274
1.83115
1.96377
7.46265
9.12323
13.1539
16.5184
17.9072
15.0914
12.8872
6.33308
3.74598
1.96744
1.21638
0.760786
1.06151
1.14721
0.480164
1.53908
5.78063
10.8243
15.5135
15.9912
17.0407
15.3535
14.8272
14.7138
13.9864
14.2669
11.8886
9.18849
3.21864
1.58804
0.733292
0.674526
0.640796
0.602516
0.577903
0.566761
0.603213
0.708506
0.878896
1.06357
1.20501
1.282
1.29426
1.40522
1.00212
1.0696
1.06822
1.01888
0.957945
0.979626
1.85219
3.01976
4.88178
6.42401
7.63869
8.77439
9.54124
9.55481
8.52889
6.50987
4.22676
2.61664
1.68277
1.49712
1.26129
1.19383
0.914842
0.673695
0.665921
0.81173
0.964031
1.07633
1.11037
1.14117
1.10169
1.28574
1.3425
1.33171
1.31539
1.28808
1.2686
1.25324
1.27332
1.34011
1.4174
1.44983
1.45488
1.41508
1.36152
1.27446
1.20135
1.15717
1.14938
1.13513
1.13321
1.0854
1.02694
0.86562
0.748716
0.706653
0.747101
0.946096
1.11764
1.19835
0.917501
0.935858
0.9818
1.0304
1.04989
1.07553
1.12228
1.13763
1.19497
1.21142
1.2973
1.32978
1.4001
1.40748
1.38666
1.38211
1.22577
0.970341
0.938985
1.12889
1.04648
1.16444
1.19943
1.00261
1.12585
0.516217
0.44536
0.475392
0.601981
1.84014
0.801126
0.716824
0.811463
1.27881
1.34025
1.41371
1.39662
1.42507
1.39601
1.38462
1.39665
1.40703
1.35851
1.37051
1.33316
1.2027
1.10212
1.00166
0.889376
0.836755
0.899963
0.744712
0.596784
0.452236
0.471355
0.622906
0.777
0.64632
1.78245
2.10131
1.45423
0.879407
0.899725
1.05155
1.29415
1.3387
1.37458
1.37883
1.34498
1.29336
2.06926
7.37152
7.08649
6.42126
5.89429
6.24554
6.12588
3.61799
1.22062
1.05468
0.816438
1.65715
0.79277
4.34466
3.25421
2.64735
1.59515
1.34311
1.15381
1.09147
1.2759
4.20497
1.7006
1.61036
1.4951
1.39933
1.362
2.29785
2.81399
1.44725
1.46004
4.46821
4.91462
5.10813
2.89515
0.806823
0.267091
0.207991
0.191811
0.188111
0.188404
0.189042
0.186935
0.189134
0.186024
0.189565
0.185824
0.189964
0.185522
0.131038
0.125925
0.180111
0.186229
0.185101
0.187844
0.187049
0.189621
0.189099
0.191535
0.191233
0.193637
0.193897
0.196824
0.198263
0.200153
0.199984
0.19929
0.197584
0.19612
0.195165
0.194376
0.193597
0.192877
0.192254
0.191444
0.190894
0.190117
0.189454
0.185704
0.125555
0.125496
0.185586
0.189584
0.190608
0.191388
0.192117
0.192968
0.193693
0.194484
0.195248
0.19615
0.197093
0.198692
0.2004
0.201696
0.20203
0.201323
0.19929
0.197101
0.195591
0.19489
0.193704
0.192739
0.191966
0.19118
0.190498
0.189865
0.18901
0.18507
0.125528
0.125563
0.185477
0.189318
0.190359
0.190981
0.191778
0.192523
0.193375
0.19411
0.195021
0.19588
0.197072
0.198712
0.200707
0.201855
0.202089
0.200961
0.19929
0.197456
0.196413
0.195383
0.194438
0.193523
0.192722
0.191752
0.190982
0.190092
0.189387
0.185653
0.125518
0.125572
0.185556
0.189388
0.190017
0.19082
0.191712
0.19263
0.193538
0.194396
0.195395
0.196322
0.197465
0.199023
0.200846
0.202011
0.201989
0.200921
0.199001
0.197377
0.196215
0.195314
0.194368
0.193547
0.192695
0.191838
0.191036
0.190269
0.189347
0.185636
0.125599
0.125571
0.185571
0.189535
0.190595
0.191259
0.192039
0.192769
0.193573
0.194253
0.195082
0.195917
0.197039
0.1985
0.200433
0.201685
0.202161
0.201075
0.199428
0.197569
0.196549
0.195506
0.194542
0.193599
0.192764
0.191804
0.191014
0.190106
0.189418
0.185704
0.125519
15.6743
21.0267
23.9495
21.5366
18.8451
18.55
17.9234
17.4535
11.7422
6.89604
2.24722
0.676724
0.988922
0.980486
0.71195
5.92062
16.3722
18.9018
15.8981
12.1608
8.56291
6.38205
5.78833
5.67143
7.6933
10.2261
11.6642
12.3101
8.62683
4.4197
1.89658
1.14703
0.695446
0.62637
0.575037
0.554704
0.580334
0.652727
0.768632
0.92338
1.053
1.12585
1.12887
1.63321
1.0437
1.06073
1.03779
0.980083
0.925146
0.900055
1.67761
2.9137
3.97933
5.73875
6.40501
6.97634
7.61701
8.32467
8.52971
7.60191
5.5437
2.8511
1.31587
1.00512
1.08817
1.22222
1.05352
0.691554
0.641039
0.783794
0.927044
1.01168
1.07581
1.10252
1.0481
1.22155
1.28944
1.30795
1.29768
1.27168
1.23947
1.27223
1.39754
1.51241
1.50816
1.45344
1.31874
1.1566
1.03128
0.941177
0.884763
0.843986
0.810055
0.812947
0.851269
0.883713
0.887332
0.802414
0.725248
0.67695
0.762301
0.927242
1.1072
1.1649
0.915593
0.899679
0.902559
0.907152
0.93398
1.0039
1.05454
1.09772
1.09664
1.1687
1.28732
1.40504
1.43313
1.50722
1.48964
1.42278
1.29828
0.894579
0.633094
0.692599
0.679408
0.517888
0.623723
0.886151
0.609466
0.434281
0.426377
0.447382
0.520076
1.46367
0.794743
0.740783
0.924728
1.28093
1.45845
1.50019
1.51014
1.51545
1.51031
1.47378
1.44514
1.42683
1.44281
1.43024
1.40803
1.31618
1.21312
1.16028
1.11541
1.09561
1.07956
0.909009
0.6969
0.542767
0.499419
0.581161
0.649978
0.425849
1.4027
1.36129
1.45536
0.621346
0.802312
0.899475
1.15803
1.27941
1.31595
1.37922
1.38671
1.31725
1.61425
3.05255
2.54483
2.01723
3.58867
4.87306
5.90997
6.07519
1.48402
1.20998
1.03752
1.41905
1.03315
0.889704
0.784631
1.24602
4.28162
3.63387
1.78163
1.21486
1.84725
1.79136
1.72243
1.70957
1.70116
1.59485
1.46348
1.43716
1.42738
1.47179
1.53965
1.51433
4.29809
4.92202
5.48919
4.12534
1.44446
0.45009
0.214245
0.159554
0.157367
0.158279
0.156941
0.156917
0.156447
0.155885
0.156065
0.155218
0.155124
0.144617
0.14523
0.155466
0.155022
0.156266
0.155116
0.156003
0.155142
0.155841
0.155153
0.155798
0.155229
0.155836
0.155417
0.156005
0.155674
0.156024
0.15566
0.155817
0.155495
0.155643
0.15542
0.155542
0.155357
0.155465
0.155299
0.15539
0.155229
0.15523
0.154319
0.143986
0.143989
0.154298
0.155243
0.155235
0.155428
0.155344
0.155534
0.15545
0.155632
0.155553
0.155738
0.155675
0.155895
0.155891
0.156093
0.156004
0.156064
0.155816
0.155778
0.155577
0.155519
0.155585
0.155395
0.155475
0.155286
0.155381
0.155192
0.155241
0.154294
0.143767
0.143963
0.154331
0.15511
0.155353
0.155276
0.155454
0.155381
0.155559
0.155487
0.155663
0.155601
0.155792
0.155782
0.156025
0.155997
0.15612
0.155932
0.155932
0.155699
0.155749
0.155565
0.155626
0.155445
0.155516
0.155329
0.155399
0.1552
0.155217
0.154295
0.143967
0.143784
0.154305
0.155134
0.155322
0.155262
0.155456
0.155383
0.155574
0.155499
0.155688
0.155624
0.155815
0.1558
0.156028
0.155995
0.155994
0.156034
0.155799
0.155808
0.155619
0.155682
0.155498
0.155571
0.155389
0.15546
0.155281
0.155338
0.155104
0.154322
0.143784
0.143947
0.154339
0.155122
0.155367
0.155291
0.155474
0.155398
0.155578
0.155497
0.155676
0.155604
0.155796
0.15577
0.156014
0.155984
0.156128
0.155941
0.155944
0.15571
0.155766
0.155582
0.155647
0.155463
0.155535
0.155347
0.155413
0.155214
0.15523
0.154293
0.143962
28.0732
25.7209
19.1452
15.4865
14.8002
15.214
15.0129
15.3715
17.8965
15.5837
5.58511
0.937639
0.818976
0.964576
1.58644
10.3393
15.4854
13.0476
6.52216
2.75129
1.66529
1.31312
1.06526
1.04995
1.32098
1.98302
6.26399
10.5283
11.08
10.0438
4.94742
2.85135
1.48897
0.670228
0.57887
0.538471
0.549425
0.588295
0.627444
0.63211
0.653025
0.726472
0.955413
1.64734
1.02921
1.05709
1.02582
0.949945
0.925527
0.902345
1.73752
2.48955
3.8371
4.34821
5.40227
6.00444
6.80845
8.08271
9.29561
9.05419
6.17512
3.00088
1.31307
0.930101
1.03903
1.22893
1.08865
0.688037
0.58363
0.674687
0.832023
0.924303
1.01195
1.06442
1.0368
1.15844
1.23534
1.27616
1.27615
1.24223
1.27634
1.45298
1.60032
1.59314
1.49391
1.26013
1.06494
0.9659
0.928696
0.924669
0.919256
0.890305
0.835289
0.755372
0.706624
0.723961
0.734416
0.724271
0.674387
0.659193
0.739738
0.950942
1.11
1.1532
0.890988
0.852149
0.820912
0.843175
0.925437
1.02473
1.05096
1.05162
1.03204
1.14676
1.311
1.43509
1.5232
1.52976
1.56472
1.50965
1.31985
1.02269
0.675388
0.555339
0.484007
0.523418
0.578256
0.628122
0.599394
0.55977
0.496705
0.440133
0.50334
1.27315
0.809259
0.737627
1.04941
1.31433
1.51819
1.58972
1.59851
1.60375
1.59942
1.55776
1.55135
1.51435
1.54208
1.5431
1.51632
1.50388
1.49477
1.43113
1.41569
1.32431
1.22082
1.16423
0.991067
0.723728
0.504075
0.371443
0.296273
0.359238
0.697241
0.969395
1.49574
0.41371
0.621967
0.841876
1.00941
1.16511
1.24245
1.31231
1.39996
1.3869
1.50831
1.45487
1.37831
1.31215
1.67655
2.71826
3.80185
4.35266
3.22713
1.38386
1.30044
1.01736
0.907001
1.08845
0.673391
1.12228
0.86702
1.37441
1.61615
1.95717
2.20777
1.8388
1.90605
1.8027
1.91873
1.69457
1.56141
1.42124
1.44136
1.4401
1.45889
1.49833
1.45015
4.34487
5.01744
5.63049
4.74003
2.22976
0.810095
0.371165
0.297215
0.286402
0.294849
0.285178
0.290948
0.283398
0.288286
0.281371
0.285187
0.279976
0.286553
0.286201
0.288078
0.284798
0.286699
0.284096
0.285646
0.283537
0.285017
0.283107
0.284589
0.282871
0.28427
0.282749
0.284026
0.282682
0.283799
0.282625
0.283602
0.282599
0.283442
0.282634
0.283316
0.282683
0.283219
0.282707
0.283123
0.28267
0.282496
0.281158
0.28105
0.282433
0.282656
0.283095
0.282613
0.283102
0.282604
0.283107
0.28261
0.283106
0.282635
0.283119
0.282676
0.283141
0.282711
0.283159
0.282721
0.283178
0.282774
0.282933
0.283037
0.282629
0.283129
0.282595
0.283102
0.28257
0.28308
0.282539
0.282848
0.28071
0.281151
0.282473
0.283097
0.282576
0.283106
0.282591
0.283102
0.282605
0.283098
0.282617
0.283112
0.282657
0.283137
0.282708
0.28316
0.282719
0.283152
0.282691
0.283124
0.282642
0.28311
0.282621
0.283119
0.28261
0.283109
0.282602
0.28306
0.282579
0.282453
0.281116
0.280834
0.282695
0.282708
0.282601
0.283124
0.282628
0.283139
0.282634
0.283124
0.282636
0.283134
0.28267
0.283159
0.282728
0.283077
0.2831
0.282744
0.283167
0.282682
0.28314
0.282645
0.283128
0.282641
0.283142
0.282646
0.283148
0.282627
0.28287
0.282632
0.280887
0.281125
0.282479
0.283087
0.282573
0.283123
0.282593
0.283131
0.282608
0.283126
0.282611
0.283125
0.282643
0.283151
0.282698
0.283175
0.282724
0.283173
0.282701
0.283138
0.282648
0.283121
0.282636
0.283138
0.282638
0.283135
0.282615
0.283074
0.28259
0.282441
0.281083
25.3334
19.1771
14.7313
14.1484
14.5236
14.1146
13.3095
12.4491
12.4598
15.6175
11.4918
1.96409
0.725905
0.852226
3.61122
8.65591
6.37524
3.82438
1.79406
1.10239
0.921031
0.792532
0.759021
0.774131
0.724451
0.776685
1.69527
6.06792
10.7565
11.5603
10.083
6.01071
2.9946
1.36724
0.604423
0.534267
0.514139
0.489331
0.434894
0.39548
0.407047
0.53559
0.855636
1.63616
1.02002
1.00872
0.981719
0.967701
0.963955
1.23111
1.84422
2.79384
3.25395
4.35775
4.55756
5.40014
6.51997
8.21137
8.8334
7.40711
4.23145
1.84141
1.09207
0.998612
1.09349
1.21061
1.04705
0.621905
0.512312
0.607363
0.716586
0.83334
0.903691
0.993834
0.99569
1.11717
1.19772
1.24259
1.23797
1.26579
1.46224
1.64422
1.6457
1.54533
1.27308
1.07497
1.00989
1.03229
1.04764
1.04747
1.03723
1.02824
1.03166
0.9833
0.860619
0.74642
0.683607
0.66388
0.622886
0.61997
0.719979
0.952498
1.12035
1.12459
0.881013
0.82806
0.815832
0.902908
0.995517
1.05481
1.04192
0.999356
1.01345
1.16468
1.35324
1.4783
1.54366
1.59737
1.57923
1.58698
1.49661
1.1955
0.902207
0.673393
0.71744
0.814487
0.857394
0.829856
0.702047
0.600912
0.510653
0.454282
0.500564
1.08796
0.837301
0.791291
1.117
1.43656
1.59567
1.62404
1.63258
1.64439
1.65749
1.64251
1.60707
1.61463
1.60342
1.60822
1.61644
1.59664
1.6126
1.60257
1.53751
1.51752
1.44232
1.33912
1.24735
1.11154
0.802572
0.452505
0.270542
0.271904
0.294849
0.851483
1.55454
0.289758
0.401852
0.651659
0.842746
1.00969
1.10577
1.21222
1.34714
1.38755
1.51372
1.45469
1.46152
1.42813
1.34011
1.95886
2.87154
2.79678
1.78802
1.39627
1.4716
1.44128
1.46791
1.19623
1.33759
0.655521
0.357264
0.971994
1.12583
2.4917
3.76604
1.74797
2.00244
1.96945
1.84386
1.70063
1.50604
1.48216
1.42853
1.44023
1.41968
1.43633
1.46219
1.48749
4.5902
5.12132
5.6868
5.18208
3.08515
1.26914
0.603188
0.512753
0.522639
0.506209
0.516636
0.499546
0.509412
0.494998
0.500393
0.475203
0.493982
0.513358
0.50645
0.510032
0.504021
0.506168
0.501921
0.503414
0.500413
0.501607
0.499544
0.500466
0.499006
0.499666
0.498719
0.499021
0.498571
0.498588
0.498439
0.4983
0.498364
0.498159
0.498332
0.4981
0.498325
0.49808
0.498243
0.497918
0.496539
0.479562
0.479416
0.496439
0.497933
0.498225
0.498038
0.49817
0.497996
0.498119
0.497971
0.49811
0.497982
0.498125
0.498012
0.498153
0.498018
0.498168
0.498035
0.498217
0.498074
0.497969
0.498037
0.497969
0.498132
0.497971
0.498109
0.497966
0.498106
0.497843
0.496767
0.479673
0.479411
0.496692
0.498069
0.49799
0.498146
0.497956
0.498098
0.49794
0.498087
0.497954
0.49811
0.497988
0.49816
0.498031
0.498177
0.498035
0.498173
0.498019
0.498138
0.497989
0.49813
0.497978
0.498143
0.49799
0.498153
0.497989
0.498077
0.497814
0.496477
0.479489
0.479709
0.496689
0.497694
0.497922
0.498114
0.497996
0.498151
0.497995
0.498134
0.497993
0.498155
0.498005
0.498184
0.498039
0.498066
0.498091
0.498054
0.498192
0.49801
0.49816
0.497993
0.498142
0.498004
0.498164
0.498029
0.498195
0.497994
0.497797
0.496643
0.479733
0.479404
0.496683
0.498045
0.497981
0.498143
0.497981
0.498127
0.497976
0.498114
0.497978
0.498125
0.498009
0.498184
0.49807
0.498241
0.498087
0.498232
0.498078
0.498192
0.498039
0.49816
0.498029
0.498186
0.498052
0.498204
0.498004
0.498102
0.497824
0.496417
0.479399
19.6678
14.4317
13.1874
13.5952
14.6941
14.3202
11.1453
7.35513
6.15426
7.79129
11.2864
2.43554
0.600911
0.786958
6.46796
4.90626
2.4264
1.33874
1.01443
0.926285
0.851407
0.976349
1.19025
1.29863
1.06623
0.927502
1.10534
2.91795
8.95166
11.5891
12.6411
9.81233
5.05454
2.0791
0.695439
0.523268
0.443851
0.363135
0.298312
0.272846
0.308273
0.29145
0.706095
1.75248
0.935357
0.947219
0.978293
1.05003
1.11008
1.23311
1.7846
2.29808
2.98008
3.40128
4.75792
5.777
7.54471
8.70158
8.57087
4.56981
1.76715
1.20712
1.09958
1.07959
1.18231
1.1566
0.796583
0.548426
0.521108
0.624693
0.709183
0.758459
0.822555
0.915426
0.984098
1.09546
1.17954
1.2086
1.2612
1.45796
1.65895
1.67391
1.60095
1.34666
1.14482
1.08459
1.08604
1.08667
1.07373
1.05168
1.02599
0.997336
0.991255
1.02877
1.00909
0.863662
0.734469
0.651366
0.612046
0.587704
0.683422
0.928689
1.0849
1.07989
0.842585
0.819828
0.885862
0.999543
1.07967
1.04461
1.00192
0.975118
1.04402
1.21969
1.39473
1.50083
1.589
1.61482
1.63692
1.60794
1.58534
1.43556
1.24221
1.21669
1.24414
1.20842
1.0234
0.831339
0.748489
0.636073
0.558251
0.467786
0.439603
0.489224
0.800981
0.888797
1.26198
1.53326
1.63412
1.62518
1.61715
1.65067
1.65441
1.67408
1.66321
1.63472
1.63785
1.62534
1.63444
1.641
3.19956
3.08627
3.83678
4.8014
3.57631
1.83119
1.53041
1.44256
1.28683
0.993359
0.539133
0.322134
0.232082
0.167774
1.60062
0.306671
0.308373
0.432322
0.6319
0.826761
0.994381
1.15029
1.28747
1.41814
1.53803
1.47029
1.50226
1.47762
1.38447
2.13641
1.51695
1.94818
2.0391
1.33017
1.42119
1.53257
1.45212
1.30826
1.58727
1.55033
1.13451
0.899959
2.24688
3.3933
5.66956
1.91102
2.2344
2.46686
2.07215
1.92535
1.64501
1.5094
1.45564
1.40489
1.42028
1.40109
1.42597
1.42992
1.4349
4.86868
5.18051
5.68692
5.46653
3.90738
1.88769
1.01948
1.03287
1.00038
1.02091
0.990943
1.00759
0.980915
0.990335
0.974096
1.02704
1.00721
1.01049
0.997552
1.00282
0.993237
0.99807
0.990266
0.994664
0.988281
0.992427
0.987028
0.990728
0.98633
0.989376
0.985993
0.988315
0.985817
0.987545
0.985731
0.98701
0.985688
0.986629
0.985672
0.986327
0.985655
0.985936
0.985348
0.98535
0.991606
0.991492
0.985222
0.985474
0.985901
0.985485
0.985859
0.985329
0.985744
0.985238
0.985665
0.985212
0.985595
0.985213
0.985529
0.985224
0.985529
0.985253
0.985609
0.985383
0.985198
0.985369
0.98527
0.985692
0.985284
0.985719
0.985316
0.98568
0.985204
0.985764
0.992004
0.991505
0.985483
0.985637
0.985329
0.985731
0.985253
0.985649
0.985185
0.985593
0.985187
0.985578
0.985206
0.985538
0.985218
0.985502
0.98523
0.985522
0.985222
0.985586
0.985236
0.985669
0.985261
0.985728
0.985314
0.985766
0.985343
0.985576
0.98515
0.985246
0.991516
0.992083
0.985488
0.984996
0.985208
0.98569
0.98533
0.985751
0.985284
0.98569
0.985256
0.985653
0.985222
0.985591
0.985234
0.985307
0.985336
0.985243
0.985582
0.985225
0.985654
0.985249
0.985697
0.985287
0.985768
0.985378
0.985821
0.985346
0.985145
0.985354
0.992123
0.991518
0.985499
0.985641
0.985324
0.98579
0.985281
0.985775
0.985218
0.985717
0.985181
0.985643
0.985162
0.985583
0.985197
0.985551
0.985204
0.985501
0.985173
0.985555
0.985177
0.985631
0.985205
0.985725
0.985273
0.985814
0.985306
0.985595
0.985086
0.985064
0.991263
14.4574
12.8706
12.6906
13.8112
14.5906
14.2658
8.68836
3.62478
2.26793
2.96556
5.87156
3.95328
0.540758
0.775421
3.64534
2.55751
1.24489
1.04234
0.962652
0.964126
1.02027
1.19382
1.57224
1.8956
1.97853
1.49714
1.51529
2.51112
7.95374
11.3667
12.2414
12.4482
7.62325
3.28765
1.14307
0.507952
0.369554
0.279093
0.236734
0.234794
0.262954
0.328344
1.09115
1.39568
0.827251
0.912515
1.04657
1.19279
1.27774
1.325
1.39557
1.46607
2.0722
3.55654
4.91888
7.1079
7.98857
7.82815
3.80178
1.37163
1.23292
1.18622
1.16311
1.1778
1.11088
0.841233
0.581115
0.540166
0.632949
0.706469
0.733437
0.736074
0.776786
0.857527
0.980527
1.09966
1.16457
1.23459
1.43621
1.65719
1.68756
1.65358
1.46629
1.25838
1.15906
1.11711
1.09762
1.0875
1.0838
1.07434
1.03756
0.993268
0.965629
0.956688
1.00102
0.974352
0.832158
0.703105
0.616829
0.581626
0.645702
0.86896
1.01257
0.959713
0.823729
0.8555
0.994056
1.10168
1.12169
1.05986
0.988019
0.99394
1.10247
1.26305
1.40152
1.51328
1.61226
1.6532
1.63933
1.66688
1.64331
1.64705
1.58134
1.52271
1.40494
1.17023
0.968424
0.856722
0.76715
0.665597
0.575383
0.516424
0.445299
0.422398
0.811655
1.03389
1.40972
1.61764
1.6381
1.60162
1.60046
1.61376
1.65827
1.66622
1.67206
1.66461
1.63637
1.64743
2.2313
2.86653
2.85629
4.60912
3.94145
4.22819
6.39364
7.67809
8.3283
7.92571
2.44065
1.50794
1.33397
0.772881
0.342232
0.235224
1.53769
0.597529
0.405321
0.420828
0.621378
0.933336
1.22678
1.42946
1.47017
1.45302
1.50013
1.45564
1.52297
1.54201
1.7868
1.6217
2.62273
2.29706
1.98362
1.28223
1.41467
1.51072
1.45011
1.39632
1.44922
1.5856
1.58235
1.596
4.77243
4.51693
4.08646
1.85829
1.8831
2.37586
1.94611
1.96433
1.71482
1.6413
1.4707
1.4552
1.40203
1.41384
1.39296
1.4296
1.406
2.35873
5.07029
5.19491
5.66978
5.68106
4.46691
2.37861
1.60232
1.56527
1.59057
1.54398
1.57041
1.52586
1.54058
1.50874
1.60647
1.59347
1.57115
1.5704
1.55797
1.55715
1.55018
1.54994
1.54573
1.54512
1.54337
1.54189
1.54184
1.53975
1.54069
1.53841
1.53985
1.53745
1.53931
1.53703
1.53869
1.53684
1.53824
1.53669
1.53778
1.53637
1.537
1.53559
1.53615
1.544
1.54425
1.53599
1.53612
1.53657
1.53669
1.53679
1.53683
1.53682
1.5368
1.5368
1.5368
1.53681
1.53679
1.53679
1.53676
1.53682
1.53677
1.53691
1.53685
1.53664
1.5367
1.53677
1.53684
1.53675
1.53668
1.53648
1.53624
1.53581
1.53615
1.54484
1.54421
1.53612
1.53596
1.53626
1.53652
1.53658
1.53673
1.53668
1.53674
1.53672
1.5368
1.53677
1.53681
1.53676
1.5368
1.53676
1.53681
1.53677
1.53683
1.5368
1.53685
1.53679
1.53684
1.53678
1.53673
1.53649
1.53622
1.53574
1.53588
1.54424
1.54481
1.53605
1.53558
1.5361
1.53649
1.53663
1.53681
1.53678
1.53682
1.5368
1.53685
1.53678
1.53684
1.53676
1.53668
1.53672
1.53676
1.53685
1.53679
1.53686
1.53679
1.53684
1.53679
1.53685
1.53671
1.53664
1.53629
1.53565
1.53592
1.5448
1.54433
1.53616
1.53596
1.53625
1.53655
1.53665
1.53681
1.53677
1.53682
1.53678
1.5368
1.53679
1.53684
1.5368
1.53687
1.53681
1.53684
1.5368
1.53685
1.53682
1.53686
1.53683
1.53688
1.53678
1.53675
1.5364
1.53597
1.53496
1.53383
1.54213
12.6689
11.8351
12.4949
12.9746
14.0722
13.9523
5.68147
2.34177
2.54786
2.5491
3.7622
3.56095
0.623048
0.738048
0.886421
1.9219
1.42325
1.66004
0.9923
1.025
1.0532
1.07537
1.03977
1.04976
1.27774
1.95767
2.64031
3.28788
2.93004
4.39685
7.90475
11.3601
12.3728
12.756
10.1069
4.53907
1.50831
0.44896
0.302197
0.244029
0.245527
0.275952
0.327009
0.4237
0.584588
0.657017
0.683095
0.705795
0.817177
1.01748
1.23724
1.30562
1.30226
1.29079
1.35435
1.46221
2.1312
3.81503
6.0169
7.3506
6.75467
3.04947
1.23396
1.14252
1.14587
1.15323
1.13802
0.993377
0.784459
0.598614
0.536565
0.596446
0.721001
0.778398
0.794339
0.757022
0.738398
0.83541
0.84489
0.973267
1.01464
1.12004
1.21642
1.4161
1.64386
1.69017
1.69463
1.58933
1.39985
1.25148
1.15084
1.10909
1.10013
1.1212
1.14613
1.13834
1.06904
1.0058
0.977983
0.976291
0.979273
0.988321
0.920323
0.765776
0.657409
0.600942
0.624454
0.774533
0.873027
0.872969
0.849207
0.834949
0.846978
0.977969
1.13648
1.25047
1.27489
1.15752
1.03435
1.03448
1.12784
1.24863
1.38123
1.54686
1.65528
1.63821
1.65119
1.64217
1.67341
1.66508
1.68846
1.6519
1.51088
1.20759
0.996332
0.881987
0.830564
0.748716
0.676134
0.635628
0.647359
0.721152
0.821549
0.899231
0.934462
1.26655
1.54386
1.65488
1.62299
1.5927
1.57751
1.60205
1.62985
1.65194
1.66021
1.66284
1.65998
2.11386
2.11428
2.92267
2.76063
1.94601
2.71155
2.21472
2.6885
3.44007
5.14047
7.77019
10.3936
7.57578
1.54928
1.50244
1.04983
0.5176
0.525109
0.717452
0.766205
0.845298
0.681394
0.575042
0.752916
1.11037
1.38494
1.50682
1.55489
1.53225
1.48364
1.53712
1.47668
1.54943
1.56828
1.82795
2.15589
2.29882
3.36114
2.20271
1.30041
1.43947
1.47039
1.44847
1.51604
1.53303
1.58835
1.64916
1.22693
3.64688
3.94736
2.08152
2.69249
1.69871
2.07069
2.04943
1.90665
1.72095
1.72944
1.52483
1.55533
1.43588
1.43804
1.40154
1.41317
1.39134
1.41167
1.32418
3.39714
5.14018
5.17955
5.66126
5.89725
4.95054
2.66969
2.32195
2.34046
2.31486
2.32059
2.2952
2.29413
2.28699
2.35348
2.35331
2.38194
2.32339
2.33253
2.30528
2.31777
2.29908
2.30872
2.29612
2.30268
2.29441
2.29878
2.29301
2.29626
2.29208
2.29432
2.29141
2.29289
2.2908
2.29195
2.29029
2.29115
2.2899
2.29056
2.28956
2.28995
2.28903
2.28911
2.28853
2.2911
2.31881
2.34515
2.34508
2.31945
2.29109
2.28877
2.28879
2.28871
2.28899
2.2889
2.28911
2.28893
2.28908
2.28896
2.28911
2.28902
2.28911
2.28903
2.2891
2.28903
2.28913
2.28907
2.28884
2.28888
2.28894
2.289
2.28885
2.28879
2.28851
2.28846
2.28844
2.29118
2.31924
2.345
2.34501
2.31895
2.29111
2.28857
2.28837
2.28861
2.28863
2.2889
2.28881
2.28897
2.28886
2.28902
2.28896
2.28907
2.289
2.28906
2.28901
2.28908
2.289
2.28907
2.28894
2.28905
2.28892
2.28905
2.28884
2.28884
2.28853
2.28841
2.28834
2.29094
2.31894
2.34501
2.345
2.3192
2.29101
2.28823
2.28829
2.28861
2.28867
2.28895
2.28889
2.28903
2.28893
2.28907
2.28898
2.28909
2.28901
2.28896
2.28898
2.28902
2.28909
2.28898
2.28906
2.2889
2.28903
2.28888
2.28898
2.28872
2.28871
2.28843
2.28832
2.29094
2.31922
2.34498
2.34501
2.31905
2.29115
2.28859
2.28836
2.28867
2.28867
2.289
2.28884
2.28901
2.28884
2.289
2.28887
2.28901
2.28895
2.28905
2.289
2.28907
2.289
2.28907
2.2889
2.28901
2.2888
2.28896
2.28866
2.28874
2.28835
2.28824
2.28813
2.29082
2.31874
2.34332
2.32325
11.3656
11.501
12.0225
11.7581
12.4628
12.4594
4.15978
1.94491
3.59063
5.37074
3.93142
3.23027
1.0185
0.574718
0.527195
0.366013
0.843944
1.46079
1.03613
1.12859
1.17136
1.141
0.937778
0.823208
0.834604
1.12683
1.90748
3.26083
4.99839
6.72889
9.66586
11.3964
13.0034
12.7236
11.0884
4.59158
1.27969
0.357775
0.265515
0.263693
0.330619
0.429061
0.496032
0.542054
0.625808
0.740615
0.8599
0.893995
1.06491
1.3181
1.34534
1.22002
1.0879
1.13629
1.26137
1.43498
2.64533
4.54317
5.4239
4.20627
1.63541
1.11546
0.999655
0.94193
0.902417
0.866413
0.783928
0.676236
0.582613
0.541568
0.585546
0.69182
0.775729
0.841146
0.841728
0.827107
0.799724
0.811369
0.970932
1.03272
1.06035
1.19948
1.37504
1.59666
1.68284
1.72318
1.68276
1.57396
1.41262
1.244
1.15258
1.1114
1.11297
1.15866
1.19271
1.18089
1.10523
1.02112
0.997685
0.998182
0.961664
0.992323
0.961987
0.835342
0.696858
0.612314
0.623923
0.753249
0.854201
0.893541
0.908943
0.925225
1.02287
1.24911
1.43406
1.52782
1.49689
1.28678
1.11255
1.06369
1.12222
1.21848
1.39661
1.62577
1.65341
1.62414
1.61049