/*--------------------------------*- C++ -*----------------------------------*\
| =========                 |                                                 |
| \\      /  F ield         | OpenFOAM: The Open Source CFD Toolbox           |
|  \\    /   O peration     | Version:  2.1.1                                 |
|   \\  /    A nd           | Web:      www.OpenFOAM.org                      |
|    \\/     M anipulation  |                                                 |
\*---------------------------------------------------------------------------*/
FoamFile
{
    version     2.0;
    format      ascii;
    class       volScalarField;
    location    "0.005850000";
    object      p;
}
// * * * * * * * * * * * * * * * * * * * * * * * * * * * * * * * * * * * * * //

dimensions      [1 -1 -2 0 0 0 0];

internalField   nonuniform List<scalar> 
12384
(
905947
905605
905841
905001
903959
902066
901515
900506
900588
900856
902349
903313
904492
905505
871045
871245
870463
873074
872251
875101
878439
879999
884960
885785
889124
891130
892105
894443
894222
896652
895275
899841
900539
904699
911341
920542
925540
931449
937495
939733
940454
941271
941339
942415
857681
857896
858789
859455
859570
861062
860600
859842
860093
859610
858646
858047
857193
854810
855156
852293
851276
851931
848827
858021
852101
869489
867406
884122
887644
898251
900012
901930
905969
905076
939621
936235
933493
931839
926670
922645
922612
910560
910163
887687
896029
860246
859602
854532
819680
831726
800182
813046
798911
804287
802207
803247
797974
794049
784014
785295
771738
776155
768098
770569
809197
809708
807407
805329
802393
795235
789977
792213
781355
783661
780724
778272
784190
780897
792514
792354
800490
809484
817279
825951
830994
835974
838881
840273
842116
841096
846357
847826
851314
851183
879428
878227
877239
876975
868747
871455
861473
863892
856226
856466
848631
849493
838620
837062
830752
824966
814952
816933
805997
808993
806073
807531
812235
814444
815766
814923
814011
810923
811746
808630
823164
822997
826377
825443
827351
827516
827882
827641
826636
825555
819569
821432
811866
814561
808608
807982
817031
809740
832294
833269
846649
852024
860632
864886
865196
868732
869991
872434
873601
873892
858031
862771
863686
864805
865293
862594
855947
856868
834962
840097
814096
822099
803434
810348
800805
815190
818807
828900
835145
855795
854772
858484
868186
867790
871792
871627
874679
877345
878801
879266
851235
851580
851525
849824
846794
841718
834117
833793
816801
818382
813452
809697
813743
811085
821553
825926
838944
844377
851155
854371
854517
853061
852057
846049
841609
837937
838240
831206
833256
827902
786177
789233
791834
796546
799600
803696
805676
804918
800297
795929
787426
786424
782625
776289
798297
789190
818717
820084
835990
842620
847354
849195
848287
846959
843633
843209
839662
838618
837068
833430
906006
905591
905023
902759
902016
894556
889544
872313
872904
836120
845541
797425
815177
785043
799694
802084
808735
825319
830373
835439
838220
838141
836616
835447
832664
832135
828065
828141
827918
825001
892473
891829
890629
887925
884795
880181
879280
873186
873780
870211
868935
875915
873004
880841
890337
888389
902251
905013
910155
914746
916839
914823
910891
909120
902732
905382
910903
914215
915553
919111
928594
930677
929124
931428
926499
928766
928049
920663
921078
906961
910590
889334
895786
881845
885976
883273
884291
883362
882388
879242
877245
872822
873416
870098
870761
868381
868969
868145
868153
868145
903189
904207
903261
903801
901785
900936
899395
899315
899333
899292
900529
902088
902815
904215
871146
871928
870172
873774
871344
877060
875560
881674
882453
885956
887873
889963
891627
892171
894008
893345
896218
896649
898039
905244
907609
913295
920888
925908
930142
934931
936488
936157
935820
935472
857693
857398
858245
858310
858259
858875
858508
858567
858266
857431
857020
855988
853629
853522
850423
849127
848905
848494
850672
849144
856885
856630
867298
875666
884907
894816
899725
902840
905205
905731
940187
937127
933645
930088
926445
921410
917258
908457
903237
891788
881895
856370
865207
833719
819498
822878
800885
801549
800419
792427
797208
797485
798455
794509
788465
784632
772782
774561
767336
769281
808185
807929
806048
804568
797161
793622
791797
785024
781468
781007
777888
779307
778804
782890
784249
792961
796490
805783
814484
822969
831766
836529
841120
841167
843160
841714
846122
848127
850151
851568
879359
878191
876736
875108
868912
868268
860708
860817
855576
851589
848876
842920
836152
836675
823464
821930
814875
808217
808542
801504
804762
806943
807211
810948
813101
814375
813848
811921
811421
808742
824345
823357
825796
825541
826523
827104
827334
826908
825273
823705
819451
818104
809972
811454
807582
808820
810329
812187
826017
825504
842577
848615
860207
862414
866961
868863
868104
870671
873047
873844
860026
860959
861988
863774
862848
861221
856611
848308
833154
837409
811170
813360
806534
799257
802375
811136
809447
824423
837887
848908
851618
863225
865228
868622
868331
870241
870007
872293
874381
874144
849820
851068
850069
848362
845010
841021
830983
824335
818670
814553
804507
805592
804391
811614
812681
824230
831179
841861
850101
854362
855506
853729
851716
846954
841344
836583
838174
832080
831278
830015
793106
794114
795513
796976
800449
803233
804191
802489
798528
792788
786175
780357
778758
780821
786494
791355
808867
815942
826215
836231
845082
848643
848952
847708
845735
846172
842171
843290
837586
838339
905689
904001
903113
902859
898655
893998
886345
871719
860052
841057
827639
802125
801416
791581
789046
797126
805593
816837
823864
834758
839706
840416
839055
836167
834932
830750
828604
827595
825928
824392
891552
890578
888787
885705
883758
879725
877463
872410
872349
869606
867570
873619
876545
879033
883014
897327
895779
904118
910986
912673
914029
912441
907414
903386
901842
903111
906130
911227
915942
919557
928044
929435
929881
931341
928902
930781
928863
922509
922230
904074
906630
888106
887849
882499
879426
881284
880970
881640
880329
878576
875370
873403
871020
870859
867940
868704
868050
868346
868185
868378
900995
901003
900794
899968
899936
898494
897742
896016
896971
896263
897821
898237
899750
900551
871035
871523
869226
873734
871289
877639
875471
881472
882830
885297
887970
889097
890998
891891
892265
893720
892099
895305
896624
896596
904437
906714
911613
918741
922797
925395
928308
928932
928621
928841
857461
856693
856969
858188
858498
857527
857627
857239
855743
855343
854789
852727
852507
848659
847624
847689
846670
846352
844032
850392
849135
850898
861536
871382
879374
888274
896803
901332
904601
906467
941221
937616
934438
929853
927044
917606
915698
905183
896430
891766
868196
860907
851184
825208
818278
809001
795872
793202
784152
791358
787781
792690
790488
792085
784914
785341
772632
776556
768805
771124
807990
807332
805231
802510
792935
794675
789227
778761
781769
775108
774720
772563
776971
781267
778519
790982
789526
804386
808449
821323
826661
835717
838343
840850
843915
841454
847953
847703
851227
850471
878386
877089
875248
873499
866952
865888
857984
859881
849710
852016
843031
839214
834628
829276
819521
821310
806580
809703
799013
801575
799637
799316
805472
805840
809585
810574
811343
811657
810942
809902
823994
823472
825918
826092
826449
826904
826780
825912
824059
822133
816471
815226
807744
808244
801085
803616
808754
804154
822808
821042
838144
845281
852383
860370
864974
866056
869442
870402
871910
871074
860480
860707
861666
861721
861554
858161
852040
844613
832548
825881
806907
813185
792686
801107
795716
808638
803631
825716
833316
838505
852160
856630
861968
863284
868643
868603
871406
871555
874192
874820
848524
849272
848613
847581
841639
837149
826648
825393
808742
803584
799650
800901
806027
804915
806043
818185
825120
836143
845250
851019
852905
852654
850013
845545
842723
836128
837858
831866
832429
829322
789998
791806
793950
797526
799977
802789
803070
800470
796405
789403
785865
774292
779116
772332
787991
784894
798192
807957
820695
826656
836247
843141
846098
847229
847188
843607
841766
840148
839289
834773
905224
904115
904089
899647
898300
890610
882818
864841
853442
838343
814163
796858
802528
779625
789719
790647
797027
808911
817614
828259
835276
839382
839805
840150
836583
832838
833229
831300
832177
830410
888396
887903
886012
884019
881933
877658
875510
870755
871017
867729
868446
870399
868923
884192
882002
891289
900878
901343
907571
912349
910616
908509
904597
902233
898586
899484
902345
906829
910880
915703
928969
928862
930975
931808
931603
928716
929807
918304
918840
901026
902725
881370
886194
877260
879266
877124
878287
877868
878419
876560
875119
871962
871583
869005
867858
867958
867265
867431
867224
867863
898467
899159
899164
898168
896063
895139
894046
894593
893842
895528
896206
897544
898663
898766
870011
871092
868612
873633
871237
877705
875583
882304
881998
886036
886942
889337
890063
891413
891614
890305
892585
890116
891557
892826
891512
899591
902732
907111
912556
915228
916882
919732
920762
920510
856749
855852
856415
855257
854635
856256
855538
853312
853190
852702
849863
849433
846092
845465
843436
841697
840260
841267
843451
839852
845277
849563
848221
868639
872904
882079
892593
899890
902963
905764
942521
938521
934875
929678
924604
915499
913308
898849
891218
888302
855908
864557
826177
833200
799699
803559
787740
780696
785825
776270
785282
783570
789481
786847
787242
782324
778062
774183
773912
767415
807881
807121
803934
797665
792954
792281
779074
778994
775769
773088
770149
770146
768154
773006
776934
785094
785203
802009
801447
818343
823099
833107
836212
841458
842166
844663
846948
848824
850763
854889
877017
875242
873415
871806
863970
862875
857243
851602
849387
844039
838475
833052
830519
819050
821148
806610
808485
794596
793822
789620
793028
796997
795849
803114
805166
808765
811287
811363
811236
811379
824744
824222
825373
825574
826121
826200
825734
824732
822313
819947
813568
811998
803812
799887
801192
797262
796042
803687
811889
816390
832717
834281
850514
855232
861090
865123
867872
868987
871041
871885
861203
860802
861080
860451
858382
853596
846675
840812
822519
819157
807011
795829
797401
790525
792000
792621
805252
816619
821659
835525
847856
852704
857069
864062
863848
866059
866088
868695
867526
868056
847961
848055
847293
844034
835403
834307
820404
815533
799527
803706
799724
793132
788587
796821
801601
811849
817391
830238
838658
846125
849513
849558
846976
844480
840595
837314
835358
833222
832098
831537
800832
798708
801684
804383
805439
802466
801235
797377
794572
783336
783924
771589
771761
771145
770515
787413
789935
794539
809173
818569
827655
837522
842384
848035
848055
851049
850775
847673
845033
846234
904831
902569
900692
899826
893550
889151
875136
859794
846464
831571
798735
799964
783108
785054
775676
784198
789505
799485
809964
819237
833274
836921
840540
838268
837498
836260
830324
829755
828519
827798
888300
886438
883577
881769
878144
876214
872004
870440
865302
866126
867064
869777
866774
873610
887005
887332
893482
904141
903010
907269
909024
905066
902445
895954
892676
892254
897740
902118
906195
910947
926965
928321
930392
931150
930142
929363
929266
915364
918031
893915
898933
874902
880770
872819
867937
871404
872700
875102
874690
875354
873162
873097
869319
869913
867829
867992
867536
867665
867425
867245
890771
891328
891576
891927
890097
889741
889258
885947
886405
886019
887374
888526
887727
887935
869351
870223
868635
873536
871827
877108
876511
882081
882913
885686
887659
888846
890509
890287
890651
890707
888954
887446
885108
886333
886571
885323
893771
898598
902309
905477
904327
904255
906458
908288
852993
854201
853878
852619
853187
851682
849264
850496
851231
849893
849663
844775
844034
842385
841414
839559
840322
838428
834250
837388
835166
849831
840741
862587
868086
878045
886875
898019
900755
904106
942667
939114
934808
928399
922131
913958
908320
895528
888476
877183
854818
852004
815266
827008
787014
799947
769303
779596
767653
776969
772038
780159
779656
786518
787570
786598
777799
776404
772932
776170
809038
806212
802975
795166
793086
785577
775500
777409
769040
762887
761924
759899
765329
767488
769322
781292
781041
798567
796223
817969
819668
828260
837163
839751
845679
845251
849493
855019
855977
854839
874775
873255
871590
868708
861373
861110
850640
850054
842825
839800
830123
831934
817251
820074
805583
806356
794397
794374
790341
788467
785693
785712
795303
794802
801870
805345
808142
810121
810812
813352
825894
825830
826547
826456
826555
825957
824573
823660
819280
817826
809928
809277
796604
800330
789449
788092
792243
793070
804640
808407
823873
830307
843447
848389
856857
862907
864983
868574
868667
866888
861966
861397
860995
859878
855662
850555
840551
835330
813909
816657
790820
795451
785125
781022
782611
788018
799378
804586
815945
832670
839003
846145
854211
858164
861759
864102
866839
866930
869161
869662
845682
847933
843660
838823
831983
828529
809376
808992
798997
792480
778668
777839
778982
782786
786933
803762
807382
824821
831418
840037
844392
845091
844885
841940
838438
836875
835029
832295
831346
832323
802224
804441
803565
801505
803555
805302
798706
795074
794416
780246
777909
768760
766992
764122
769231
768623
787929
785007
800943
804837
823695
828581
842464
846280
848692
848028
846240
846452
843550
841322
902271
901146
901642
895182
893634
879971
876246
843000
852535
808972
798129
792493
777057
764272
769463
770424
778938
792671
796085
818221
826728
836664
839898
844343
842823
838801
839372
835847
837792
837448
880542
880759
879761
877369
876293
872099
869709
862681
861245
855810
855186
861040
869506
867388
873755
889654
889695
895415
903847
900598
902421
902440
895967
894741
892601
892623
893096
896833
899230
901710
929148
928813
930693
930274
930972
928284
928019
913308
914912
890300
891836
872272
873392
864240
867965
865678
868379
869780
872188
871702
873360
871204
870429
868995
866919
866941
865580
865532
865872
867188
893320
890612
890512
888897
890284
885602
884394
887922
887123
887599
887364
888541
890849
891196
868149
870418
867933
873635
871541
877991
876718
883060
882560
886054
887799
889259
890541
890664
890834
887937
885675
883844
886010
882979
885949
883930
878121
881869
886278
892618
901152
901921
900323
899424
852539
850823
850176
851804
850194
846987
846862
846762
843714
844275
842424
844320
839799
835766
832953
833416
832393
832629
835017
834080
828726
844403
839152
857576
862453
876555
882792
894647
899629
901841
941673
937001
933180
925747
919789
913557
899168
900720
875085
880615
843015
845508
814477
811140
787390
781689
772519
765447
770453
764303
773956
776306
779911
786743
785155
784608
789325
786110
780256
774289
810418
807086
802058
794868
790318
781224
775465
766028
764564
764838
761176
762308
756906
767657
761529
776950
778305
792505
794790
815543
816582
829103
836415
843528
844697
852168
852452
853125
855504
859279
872962
871309
868974
865009
858978
857072
846652
847070
836978
833129
829742
819603
816878
806376
805185
792233
790152
778098
776747
771935
776751
778202
787430
790300
799750
801662
807484
809019
813180
811985
826814
826102
826315
826174
826373
825353
823723
822454
817524
817199
807429
806114
793671
792326
781468
784621
781195
786309
796378
797756
818846
822079
836582
842464
854262
857828
862691
863706
865509
867171
862523
862349
861546
859311
853473
848698
834767
829908
808221
806284
786314
790681
773401
780483
783858
783170
791018
795434
812699
824713
829979
841412
851483
854987
859483
862354
863265
863985
863414
864373
846645
843797
838041
839148
825047
817798
805460
807501
784561
785098
780150
782132
779293
785515
782850
798222
799225
820729
822469
834361
838714
842109
841366
839789
837555
835183
834313
831951
831583
831197
811168
810560
812438
813015
808662
804122
804102
792322
791147
781430
772421
764930
763991
760064
762006
765198
773883
778586
794987
798837
815379
828485
838321
846844
857037
860495
859820
859391
857167
857104
900061
900052
897996
894898
887916
883371
859511
845924
839789
797556
804945
772148
764450
762687
754172
764410
772050
779168
798439
810509
825883
833207
842838
840772
839501
838319
836009
836362
834116
834381
882023
880192
878256
875954
871777
869318
862808
863726
857475
854617
848192
844632
852789
867088
869758
874115
891656
890872
895885
903012
899634
897615
892023
889955
883278
883690
886027
892313
900026
901309
926970
928461
929553
930014
929803
928235
925500
911243
911873
884295
889513
864007
863461
855707
851551
854216
856476
864205
868388
872542
871758
872356
870511
869157
867464
866100
866142
865078
865099
862388
883087
886404
884534
881593
878201
881981
877379
874838
875535
875539
875324
875136
874871
874503
868451
869656
867870
873146
871417
878027
876589
883182
882882
886830
887944
890072
891083
890780
890376
886354
887550
880554
874566
871658
871194
877336
883117
881146
880476
878584
876417
878925
877793
876415
850217
846427
847030
847162
845981
848097
847050
845271
845561
842395
842319
839198
837226
834743
836252
834842
834845
831402
829312
833266
828532
841165
837056
855056
859448
878656
881303
892752
899362
900312
937624
935733
928953
925654
917030
908181
901916
891457
874815
870253
835386
847850
800435
814422
773182
787711
760760
770574
763887
767595
770026
775722
781603
784907
794145
793123
785589
785944
786085
784601
812111
808778
802822
794338
788765
779578
771592
760819
764931
752210
752726
750224
752497
760855
760010
774579
774182
788229
796049
814867
815836
832353
838300
846138
853113
853521
856591
862256
862251
862608
871547
869102
865538
862212
855732
852616
844001
841992
829806
833853
817879
818910
803708
806882
791204
792939
780343
780874
773739
774951
774165
772475
785719
785313
797380
801387
805415
811018
813295
816064
827818
827826
827497
826989
825764
825241
823383
821613
817125
814429
804851
806068
787641
788767
778555
775432
779782
775278
794029
790535
811581
817970
826736
840583
847847
854851
858412
862578
862150
860643
862297
862989
862073
858928
852165
845576
829597
826753
801454
803489
781594
783905
772094
774384
777466
773431
788795
790872
810405
814743
825592
839313
846589
853206
857607
861445
863055
861748
863055
864472
844539
840935
838280
834921
815662
821579
800218
796047
780862
786434
766413
769825
764903
776825
774129
795813
792532
812247
818383
828692
835547
838209
838519
837746
836438
834759
831406
831925
830286
830885
814944
814722
814666
813435
813562
809635
802672
798974
788231
777398
778487
760249
760719
754880
761590
757936
773113
768735
790697
791349
820549
819594
841514
855355
854615
854071
858013
855246
853602
854652
898738
898174
897509
890431
889869
871706
858767
836184
831981
793592
804419
758662
765847
760397
756748
762135
759198
784780
793200
810679
821794
836652
843531
851794
851995
849397
844099
842192
844159
841988
871871
872924
871751
871252
869733
863862
864084
854943
849642
844854
848811
845378
841181
846275
870980
867398
880085
891989
891574
893321
896676
893165
894366
886731
884913
885244
887495
890516
891727
899242
927604
926224
929059
928774
929979
926700
924066
908449
909453
880718
886156
855532
862865
850605
856056
856754
858928
859445
864138
869460
872208
872032
870613
868717
866630
865319
863176
862133
861810
863389
884967
879650
881309
882248
880062
872454
877261
877458
876674
877113
877216
878056
879244
879091
870690
869536
871973
871301
874295
877622
877909
883089
883995
887396
888603
890716
891075
891350
889247
888066
882985
881242
874352
875353
869473
864350
865645
865034
866753
872942
878364
881301
883105
883085
841751
845588
845842
840847
840896
839895
837669
838534
838718
840849
837267
836081
834646
834913
832718
832927
832567
829505
833722
831205
830002
842392
841718
851258
865586
878459
883570
896833
898626
906318
936363
928229
927050
922444
909330
911432
890274
894454
866068
868433
836699
840791
796670
811361
772723
782314
761382
764910
762602
762632
767200
777486
782547
790401
790774
795557
799775
795114
790100
782939
826363
814106
804991
795407
788040
777887
768681
759319
756290
748330
747836
749520
746705
757730
754273
775605
771844
790506
800023
810118
822561
835041
843507
852375
856685
861648
865159
862994
864384
867147
871084
868439
865492
860467
853004
850516
840074
837744
829935
826283
815091
811405
802908
795712
792388
777772
780113
765897
767986
761205
769118
764907
784007
782025
797116
799945
808752
812929
814058
815294
830313
831089
830511
829360
827498
825174
823217
821542
816492
812808
802569
802348
783267
789303
771448
774402
775743
770578
791303
783794
809749
811296
825765
833615
845746
850049
855530
855399
856733
860095
868184
867809
864901
859236
850759
842636
829489
821254
797646
804109
779092
783978
769855
773644
775808
771610
791094
785565
803786
810172
827132
834209
842796
851478
856637
859256
860645
859801
859438
861751
846292
843450
835143
831781
816532
817223
793708
799391
780477
778238
767119
771291
763952
774216
769907
792424
789272
807414
814946
824227
828980
834203
835809
835721
835371
832906
831948
827841
825615
823193
827392
826875
825878
822721
818299
813432
808614
803144
789409
783213
776419
770813
753767
759303
753795
757037
768315
768041
786262
800969
809645
830689
848022
854567
866021
875653
870352
875075
873889
869627
902548
901406
896826
890444
882897
869641
858339
831679
828557
798125
783790
769381
754880
759762
758902
758236
766694
782694
795574
809938
826688
840922
848295
846902
847258
849408
848742
846017
842842
838946
874111
873471
872886
870234
864652
863734
856046
852185
842500
841703
833112
836632
845560
838527
853372
865837
877731
881149
893763
891316
895295
894555
893055
887053
886515
885408
887492
892122
893548
898693
926790
926997
928061
928962
929422
925766
924592
906132
911245
876304
884340
853152
861758
842548
845783
843960
851204
856612
861289
868417
871442
872418
870983
869016
865575
864519
862108
862216
860162
857522
879766
881074
875654
873724
872383
873631
867845
869093
869314
868127
868024
867153
865616
861818
866266
842630
860269
864678
868703
869030
874916
874659
880040
880887
885479
886830
889360
890979
891450
891274
889632
888206
880101
882899
871652
873624
867466
868584
863593
866033
869044
864593
856476
852464
849644
846187
851763
824145
843921
839020
837575
842986
841559
840162
841047
840554
838462
836569
838091
835748
835257
832007
831139
831272
832451
834854
832093
835918
838524
842822
852531
853480
870501
882981
888848
896517
903796
906550
892597
916486
924736
925526
923934
913998
910351
901544
893358
884452
867305
866903
833331
838157
798859
811920
773308
788093
765146
773662
772520
774779
781377
783861
791103
797672
801142
803689
805763
808415
807815
802824
816912
830678
817143
813274
805310
795896
786908
778354
767819
757021
757252
747527
748428
744877
749586
755771
753230
778764
770541
799471
799371
814006
827172
839730
850278
858525
864481
867230
867834
866123
866164
867338
868007
851352
867471
863978
861317
855393
851384
845159
838481
834253
826458
820831
816198
804269
803286
789833
789685
775261
776081
766172
761012
760766
771114
763514
783215
783312
796619
803080
810541
814425
819268
820171
821845
817222
830234
829495
828962
828010
826744
825236
823415
820950
815459
813496
801822
802761
782661
789535
773011
776941
776866
770191
790436
783112
806106
813258
821604
830883
840600
848646
852584
857031
857775
855478
856463
848514
856685
857624
856979
854027
849177
841320
830276
818186
804641
801305
783397
782362
770688
775558
769788
776309
790992
784735
804372
811433
825418
830691
843055
851342
856640
861290
862338
861357
858449
857035
851973
860732
843191
845147
834953
835578
813663
819288
793607
801498
777843
782526
769000
768683
766226
775021
771721
789830
787583
807469
808882
820960
826188
830665
832658
834353
833861
833982
830732
828504
824681
823575
824437
810208
825402
824895
821856
820440
822631
815844
806868
807183
805804
783801
772812
775207
765404
750268
752785
760882
777593
779456
788816
796348
826858
833892
851103
867607
872315
871268
877069
874097
873946
874075
881549
878277
888523
888899
888423
885401
877218
868174
856961
826831
832251
798042
784318
766819
765157
748197
749960
752448
776402
780973
799610
817428
834556
843581
852771
862586
863238
856453
854578
853442
852938
852033
867218
865016
863817
865972
866455
865802
864544
858304
855375
844207
844680
828880
827881
821932
831679
839994
853529
852146
878219
877218
888504
892780
892919
893553
893635
891353
887697
888357
892539
894445
899526
903090
895741
910826
916564
919773
925062
928096
930114
925832
923370
906292
907889
876882
882800
859398
850610
848499
845247
844581
851997
854437
862284
866878
871564
871956
870857
867572
866067
862002
861912
856944
854761
854847
846910
848279
874758
874640
876506
873013
871234
868515
870048
866810
867815
870970
871070
871144
869086
867323
863021
858409
866771
864480
869128
867751
875961
873242
881414
879918
885559
886829
889222
890728
891391
891473
889398
887433
881563
882310
869907
873882
862658
860278
858807
853425
855453
858438
863752
861423
859414
859004
835630
835393
836070
831863
834354
833233
832970
833773
833396
834793
834911
835719
836135
836213
836232
837688
837769
837129
834767
838383
837757
844889
840860
852453
858422
864774
878372
888664
894633
905571
908641
913527
911062
921467
929317
923971
918150
916221
901127
904576
882171
887542
861389
868523
830945
842907
802274
810865
781596
785820
771259
768924
769759
774180
778589
785479
792845
796689
805669
810579
811217
805836
803101
806041
818260
820291
815836
812756
805973
796371
788758
779528
768078
760178
756738
749651
751643
752693
747187
760242
762592
774425
779228
804850
804716
821925
835746
847470
858288
866358
871485
873535
874891
874363
871195
870754
869035
861640
868379
863393
858268
852786
849952
839230
837205
831915
822669
815910
816855
800720
805266
786818
789902
771897
775968
762065
763316
762521
769284
764263
788473
783648
800883
806249
814005
819717
823220
826879
824913
824646
829538
828560
828530
827624
826757
826449
823766
822037
814772
815203
803312
804220
786633
789649
774485
774997
774954
777107
793556
784965
811462
808954
825036
830019
841539
846810
852162
853522
853834
855594
853492
849667
857441
856121
855767
853787
849894
843026
831502
820382
812473
797495
793479
782267
780824
773600
782108
776304
790572
788283
812247
810945
824206
833694
844587
850607
856242
858929
859656
858189
856240
855839
852985
853866
844705
844989
835699
836753
817322
817368
800867
797567
785450
786259
770561
774350
765261
773686
773328
793255
790053
809937
806969
818493
825515
827738
830787
830948
832233
830911
830462
829286
828566
825713
824171
824724
825705
826363
825833
827135
829005
829918
822880
808768
803634
808385
791666
772434
767505
776885
775168
765128
770959
775625
805814
818683
830154
849298
865335
874695
881208
889254
890334
887099
881597
883198
881264
882952
887709
886382
886596
885026
877953
871947
858706
835137
829475
809190
795467
793512
769298
780584
773107
789763
792540
791954
811064
829731
840626
853705
862224
863683
862844
861278
856613
854185
853057
852841
864523
863144
864844
867762
867418
864524
860337
857522
849227
845707
837706
831668
826035
824135
833938
826268
855482
846916
875897
876086
888350
890439
893848
894534
895966
891878
893061
893508
895019
899269
900666
903496
897290
908682
916254
918584
924460
928361
929690
926999
923324
910297
908291
880258
876474
870028
849975
845332
849651
851083
851068
854776
861711
867544
870296
871690
869387
867679
863585
860994
856932
856133
853592
853318
845759
847995
876053
872575
870495
870194
866414
865404
862934
862407
860591
858719
859412
859199
860755
860610
863973
862220
868586
864969
871067
867989
875762
874099
880075
880364
885060
886073
889205
890066
891354
891164
889222
888282
883658
877806
875459
867094
866924
857403
860942
856189
853525
846032
845400
844405
840656
836170
841321
828267
832948
833896
832830
831900
833226
835764
835510
836452
836877
836579
837812
838329
837244
836444
836340
838040
842589
839609
847852
843854
857424
857059
867554
876508
885976
894765
905347
910042
915169
920334
915979
919299
926318
922823
915490
912418
900484
897080
883265
881894
864699
864695
835684
842028
809093
818401
787060
795559
786325
785615
788270
790866
795269
800453
804949
809966
813099
813793
810693
811937
814876
815711
816022
816915
816390
812378
807601
799654
791223
784609
771420
767154
763151
749057
745381
748019
756954
763946
769283
775591
795951
805149
814887
832117
844568
855431
865675
872637
876610
878717
879586
876388
875457
874088
869813
865290
868102
861176
856199
850974
846565
835524
838387
825503
823852
816338
812614
801764
803641
786501
792184
771950
777704
762730
768244
761926
770395
770796
788655
787997
807499
808609
818343
823517
826155
827740
829411
827858
829590
830084
827952
827833
828395
827339
825031
822858
817225
815370
806647
804369
792574
793659
785677
787494
781797
785256
790736
794392
813297
812920
826726
836956
839736
847930
850199
852529
853990
852654
853071
851370
854351
853063
853965
852951
849891
844082
835838
825688
816581
804016
799908
795314
788254
789723
782204
792436
789068
801925
813686
815035
828754
838537
845564
851691
855833
857576
856734
856141
855108
853441
850031
851630
844230
845437
838299
836956
822048
824095
802172
807030
792297
786667
788192
775246
778907
782152
792878
795036
793858
811014
809473
821402
822763
827606
826391
828265
827397
827627
827466
828081
826981
826584
827539
824671
829391
827567
829858
831297
831126
831005
832159
827287
812163
798761
803157
799694
788883
771137
765626
775130
791489
812242
817005
827046
850180
863158
873798
883075
890610
889528
888575
889065
891851
885541
886654
883075
888203
884965
887574
888187
882561
873678
861999
846746
833792
809904
809702
784923
801487
774432
781350
780599
791159
811839
828845
840912
850140
862907
871359
872873
870447
868339
862397
856547
855135
854015
862625
860806
861069
859797
860110
860692
858295
853808
851893
839348
842153
829069
828218
826613
833568
828304
853577
848212
873603
871872
888880
888094
893482
896587
896190
896279
895480
897683
900311
901202
904312
907130
901899
907041
915378
918279