/*--------------------------------*- C++ -*----------------------------------*\
| =========                 |                                                 |
| \\      /  F ield         | OpenFOAM: The Open Source CFD Toolbox           |
|  \\    /   O peration     | Version:  2.1.1                                 |
|   \\  /    A nd           | Web:      www.OpenFOAM.org                      |
|    \\/     M anipulation  |                                                 |
\*---------------------------------------------------------------------------*/
FoamFile
{
    version     2.0;
    format      ascii;
    class       volScalarField;
    location    "0.001150000";
    object      cSound;
}
// * * * * * * * * * * * * * * * * * * * * * * * * * * * * * * * * * * * * * //

dimensions      [0 1 -1 0 0 0 0];

internalField   nonuniform List<scalar> 
12384
(
482.557
451.347
426.373
418.759
418.867
418.893
418.347
420.287
422.233
423.604
423.845
424.553
424.115
423.777
422.617
419.849
418.464
418.122
417.693
417.542
418.074
418.79
419.16
420.29
421.476
421.736
422.924
423.078
423.18
423.862
424.518
425.2
425.299
425.266
425.24
424.301
423.192
423.506
421.888
421.307
421.564
420.564
420.626
419.694
412.295
412.128
412.218
412.065
412.237
412.014
412.134
411.787
411.888
411.502
411.503
411.102
411.216
410.735
410.895
410.409
410.6
409.979
410.241
409.587
409.578
409.415
409.122
409.192
408.92
409.024
408.843
408.907
408.814
408.843
405.966
405.91
405.921
405.918
405.856
405.856
405.757
405.773
405.639
405.641
405.593
405.485
405.522
405.412
405.394
405.396
405.323
405.35
405.297
405.287
405.284
405.242
405.252
405.204
405.213
405.185
405.159
405.172
405.141
405.182
405.137
405.112
405.11
405.108
405.108
405.107
405.105
405.103
405.103
405.1
405.1
405.098
405.094
405.092
405.091
405.09
405.092
405.095
405.098
405.1
405.1
405.102
405.103
405.105
405.106
405.108
405.108
405.109
405.111
405.137
405.137
405.111
405.109
405.108
405.108
405.106
405.105
405.104
405.102
405.1
405.1
405.098
405.095
405.092
405.091
405.091
405.093
405.095
405.098
405.1
405.1
405.102
405.103
405.105
405.106
405.108
405.107
405.109
405.11
405.136
405.136
405.111
405.109
405.107
405.108
405.106
405.105
405.103
405.102
405.1
405.1
405.098
405.095
405.093
405.091
405.091
405.092
405.095
405.098
405.1
405.101
405.103
405.104
405.105
405.107
405.108
405.109
405.109
405.11
405.137
405.136
405.111
405.11
405.108
405.108
405.106
405.104
405.103
405.102
405.1
405.1
405.098
405.095
405.093
405.09
405.09
405.092
405.095
405.098
405.1
405.1
405.102
405.103
405.104
405.105
405.107
405.108
405.109
405.11
405.136
405.137
405.111
405.11
405.108
405.108
405.106
405.104
405.103
405.102
405.1
405.1
405.098
405.095
405.092
405.09
405.091
405.092
405.095
405.098
405.1
405.1
405.102
405.103
405.105
405.106
405.108
405.107
405.109
405.11
405.136
405.137
405.112
405.109
405.108
405.108
405.106
405.104
405.103
405.101
405.1
405.1
405.098
405.095
405.093
405.091
405.091
405.092
405.095
405.098
405.1
405.1
405.102
405.104
405.105
405.106
405.108
405.109
405.11
405.111
405.136
405.137
405.111
405.11
405.108
405.108
405.105
405.104
405.103
405.102
405.1
405.1
405.098
405.095
405.093
405.09
405.09
405.092
405.095
405.098
405.1
405.1
405.102
405.103
405.105
405.106
405.108
405.108
405.109
405.11
405.136
405.137
405.111
405.11
405.108
405.109
405.106
405.105
405.103
405.102
405.1
405.1
405.098
405.095
405.092
405.09
405.09
405.092
405.094
405.098
405.1
405.1
405.102
405.103
405.104
405.106
405.108
405.108
405.109
405.111
405.136
405.137
405.111
405.11
405.108
405.108
405.105
405.105
405.103
405.102
405.1
405.1
405.098
405.095
405.093
405.091
405.09
405.093
405.094
405.097
405.098
405.1
405.101
405.103
405.104
405.106
405.107
405.108
405.109
405.11
405.137
572.829
532.454
451.815
406.58
399.693
396.652
394.436
398.882
401.38
408.061
414.309
416.956
419.13
420.239
396.17
391.668
391.816
392.186
392.408
392.365
392.107
391.555
391.665
391.962
392.871
394.864
396.59
398.892
401.66
403.762
406.254
409.029
411.574
414.24
416.081
418.188
418.754
419.383
420.453
419.754
420.343
419.803
419.509
419.488
392.865
392.176
392.903
393.913
394.864
396.054
397.354
398.735
400.137
401.23
402.397
403.176
404.053
404.636
405.2
405.545
406.085
406.101
406.591
406.528
406.782
406.781
406.952
406.919
406.996
407.115
407.042
407.193
407.05
408.065
403.382
402.564
402.549
402.621
402.774
402.854
402.921
402.966
402.989
402.958
402.989
402.926
402.867
402.813
402.665
402.711
402.72
402.775
402.813
402.805
402.823
402.843
402.842
402.889
402.875
402.94
402.905
402.956
402.968
404.313
404.299
402.899
402.861
402.813
402.783
402.753
402.69
402.649
402.59
402.556
402.502
402.463
402.362
402.257
402.22
402.209
402.28
402.373
402.461
402.495
402.547
402.58
402.639
402.681
402.744
402.781
402.807
402.856
402.896
404.3
404.299
402.904
402.863
402.812
402.786
402.731
402.696
402.636
402.606
402.544
402.513
402.448
402.357
402.268
402.205
402.219
402.275
402.379
402.444
402.503
402.527
402.586
402.617
402.677
402.718
402.772
402.808
402.847
402.908
404.282
404.299
402.896
402.855
402.804
402.781
402.74
402.676
402.636
402.575
402.542
402.489
402.458
402.37
402.291
402.222
402.212
402.247
402.361
402.451
402.523
402.565
402.631
402.66
402.716
402.75
402.802
402.826
402.869
402.91
404.297
404.3
402.895
402.847
402.806
402.755
402.722
402.658
402.625
402.569
402.542
402.493
402.46
402.366
402.279
402.206
402.212
402.265
402.373
402.443
402.503
402.527
402.585
402.615
402.676
402.716
402.771
402.807
402.846
402.908
404.282
404.289
402.921
402.856
402.819
402.767
402.733
402.672
402.64
402.584
402.556
402.505
402.471
402.374
402.279
402.206
402.214
402.266
402.37
402.441
402.502
402.526
402.584
402.616
402.677
402.718
402.771
402.808
402.847
402.908
404.281
404.279
402.909
402.852
402.8
402.766
402.71
402.672
402.613
402.586
402.532
402.511
402.455
402.394
402.288
402.232
402.202
402.254
402.351
402.469
402.526
402.558
402.615
402.65
402.708
402.743
402.797
402.822
402.87
402.906
404.3
404.28
402.913
402.848
402.811
402.759
402.726
402.666
402.632
402.577
402.551
402.502
402.47
402.378
402.287
402.21
402.21
402.259
402.364
402.439
402.501
402.528
402.587
402.619
402.679
402.72
402.774
402.81
402.848
402.909
404.282
404.299
402.893
402.849
402.815
402.77
402.734
402.67
402.632
402.571
402.54
402.487
402.452
402.36
402.277
402.206
402.207
402.272
402.362
402.457
402.492
402.543
402.573
402.631
402.666
402.73
402.762
402.809
402.844
402.892
404.298
404.283
402.911
402.843
402.805
402.747
402.715
402.652
402.621
402.565
402.543
402.494
402.469
402.386
402.302
402.219
402.207
402.254
402.355
402.434
402.494
402.521
402.58
402.612
402.675
402.715
402.769
402.811
402.847
402.909
404.281
569.625
574.495
495.089
442.097
401.73
387.949
383.733
381.323
381.98
383.268
384.885
388.973
394.344
397.023
384.568
388.991
392.216
395.295
396.686
395.873
393.779
390.745
387.537
384.934
382.899
381.123
381.115
380.054
379.712
379.423
378.999
379.109
379.073
379.05
379.64
379.654
380.176
380.594
382.193
384.349
386.946
389.558
390.89
392.439
368.343
368.787
368.795
368.931
368.635
368.743
368.292
368.367
367.845
368.124
367.619
367.849
367.373
367.59
367.108
367.334
366.776
367.051
366.328
366.767
365.976
366.435
365.785
366.207
365.879
366.152
366.078
366.286
366.303
365.558
362.11
362.993
363.091
363.134
363.087
363.135
363.093
363.143
363.096
363.116
363.099
363.078
363.134
363.136
363.222
363.151
363.129
363.005
362.999
362.933
362.931
362.893
362.844
362.83
362.763
362.753
362.707
362.69
362.652
361.356
361.33
362.627
362.671
362.706
362.732
362.75
362.797
362.833
362.871
362.902
362.934
362.972
363.052
363.148
363.17
363.185
363.129
363.041
362.972
362.938
362.908
362.877
362.84
362.804
362.757
362.729
362.712
362.676
362.629
361.329
361.329
362.617
362.672
362.708
362.731
362.764
362.798
362.835
362.865
362.903
362.933
362.975
363.061
363.135
363.187
363.181
363.125
363.042
362.977
362.939
362.914
362.879
362.849
362.811
362.773
362.739
362.711
362.681
362.632
361.328
361.329
362.629
362.677
362.716
362.727
362.761
362.807
362.843
362.881
362.912
362.943
362.974
363.041
363.116
363.17
363.186
363.15
363.06
362.978
362.929
362.89
362.846
362.816
362.781
362.749
362.718
362.697
362.665
362.611
361.328
361.33
362.632
362.675
362.715
362.749
362.778
362.821
362.852
362.884
362.91
362.939
362.973
363.046
363.129
363.186
363.187
363.133
363.048
362.978
362.939
362.914
362.88
362.85
362.812
362.774
362.741
362.712
362.682
362.632
361.328
361.329
362.617
362.673
362.709
362.739
362.769
362.807
362.839
362.871
362.9
362.929
362.964
363.04
363.13
363.186
363.185
363.133
363.05
362.98
362.94
362.915
362.88
362.85
362.812
362.773
362.74
362.711
362.681
362.632
361.328
361.328
362.628
362.678
362.718
362.745
362.779
362.816
362.851
362.879
362.909
362.933
362.968
363.029
363.113
363.17
363.191
363.153
363.064
362.966
362.919
362.896
362.857
362.825
362.788
362.755
362.722
362.7
362.665
362.615
361.329
361.329
362.628
362.679
362.715
362.744
362.774
362.812
362.845
362.876
362.903
362.931
362.965
363.036
363.122
363.182
363.189
363.139
363.055
362.982
362.941
362.914
362.878
362.848
362.81
362.771
362.737
362.708
362.68
362.632
361.328
361.329
362.634
362.679
362.703
362.736
362.768
362.812
362.847
362.883
362.913
362.944
362.98
363.05
363.129
363.189
363.188
363.133
363.049
362.975
362.939
362.91
362.881
362.846
362.813
362.771
362.742
362.711
362.682
362.633
361.329
361.33
362.63
362.683
362.721
362.753
362.784
362.822
362.853
362.884
362.91
362.936
362.965
363.027
363.109
363.174
363.192
363.144
363.061
362.985
362.947
362.919
362.883
362.852
362.813
362.775
362.74
362.707
362.68
362.634
361.329
782.424
832.75
809.239
771.458
585.763
507.966
477.671
410.685
387.611
382.221
381.111
379.04
380.826
383.817
393.535
408.023
418.286
423.924
427.056
429.047
427.784
421.074
411.727
402.825
396.227
392.003
388.708
387.337
385.428
384.073
383.212
382.011
381.161
381.125
380.391
379.762
379.358
378.559
377.72
377.935
376.871
377.322
377.262
377.011
373.193
374.129
373.78
373.206
372.841
372.248
371.786
371.074
370.561
370
369.777
369.199
369.162
368.585
368.595
368.079
368.008
367.716
367.412
367.353
366.936
367.007
366.534
366.649
366.296
366.361
366.16
366.159
366.123
365.881
363.821
364.04
363.965
363.859
363.862
363.733
363.733
363.61
363.611
363.486
363.497
363.373
363.391
363.304
363.261
363.262
363.218
363.169
363.192
363.135
363.138
363.128
363.1
363.092
363.076
363.068
363.051
363.047
363.03
362.798
362.761
362.993
363.004
363.003
363.005
363.004
363.004
363.006
363.004
363.007
363.004
363.007
363.006
363.009
363.008
363.007
363.009
363.005
363.007
363.004
363.006
363.004
363.006
363.003
363.004
363.004
363.002
363.003
362.991
362.76
362.76
362.992
363.003
363.002
363.004
363.002
363.005
363.004
363.006
363.004
363.007
363.005
363.007
363.008
363.008
363.01
363.007
363.008
363.005
363.006
363.004
363.006
363.004
363.005
363.003
363.004
363.003
363.002
362.99
362.763
362.76
362.991
363.003
363.003
363.003
363.004
363.003
363.006
363.004
363.006
363.004
363.007
363.005
363.009
363.007
363.01
363.007
363.008
363.005
363.007
363.004
363.006
363.004
363.005
363.002
363.004
363.002
363.003
362.992
362.76
362.76
362.992
363.002
363.003
363.003
363.005
363.003
363.006
363.004
363.006
363.004
363.007
363.006
363.009
363.008
363.01
363.007
363.008
363.005
363.006
363.004
363.006
363.004
363.005
363.003
363.004
363.003
363.002
362.99
362.763
362.763
362.992
363.001
363.004
363.003
363.004
363.003
363.006
363.004
363.006
363.004
363.007
363.006
363.009
363.007
363.01
363.007
363.008
363.005
363.006
363.004
363.006
363.004
363.005
363.003
363.004
363.003
363.002
362.99
362.763
362.763
362.991
363.003
363.002
363.005
363.003
363.005
363.004
363.006
363.004
363.006
363.005
363.008
363.006
363.01
363.008
363.009
363.006
363.007
363.005
363.004
363.006
363.004
363.005
363.002
363.004
363.002
363.003
362.992
362.76
362.764
362.991
363.002
363.004
363.003
363.005
363.003
363.005
363.004
363.006
363.004
363.007
363.006
363.008
363.008
363.01
363.007
363.008
363.005
363.006
363.004
363.006
363.004
363.005
363.003
363.004
363.002
363.002
362.99
362.763
362.76
362.991
363.004
363.003
363.003
363.004
363.003
363.006
363.004
363.006
363.005
363.007
363.006
363.009
363.008
363.008
363.009
363.005
363.007
363.004
363.006
363.004
363.006
363.003
363.005
363.003
363.003
363.003
362.991
362.76
362.764
362.992
363.002
363.004
363.003
363.004
363.003
363.006
363.004
363.006
363.004
363.007
363.005
363.008
363.006
363.009
363.006
363.007
363.004
363.006
363.004
363.006
363.004
363.006
363.003
363.004
363.003
363.002
362.99
362.763
977.065
988.985
986.255
938.944
879.176
855.884
844.506
683.243
518.269
410.352
386.515
383.266
381.225
379.405
402.43
424.507
430.616
434.82
442.213
443.254
447.311
448.719
443.604
430.374
417.197
407.321
401.494
396.96
395.15
392.001
390.839
388.359
387.824
386.636
385.834
385.175
384.476
383.302
382.409
381.156
379.695
378.946
378.148
377.863
381.663
384.694
383.648
382.406
381.009
379.998
378.913
378.12
377.072
376.436
375.625
375.4
374.628
374.578
373.857
373.891
373.206
373.288
372.659
372.754
372.203
372.294
371.812
371.819
371.486
371.412
371.143
371.074
370.888
370.805
369.433
369.303
369.251
369.153
369.035
369.015
368.872
368.845
368.716
368.691
368.576
368.557
368.446
368.438
368.373
368.299
368.323
368.234
368.246
368.213
368.175
368.181
368.155
368.126
368.14
368.097
368.115
368.082
368.087
368.061
368.013
368.036
368.033
368.036
368.033
368.03
368.035
368.029
368.035
368.028
368.035
368.027
368.034
368.03
368.031
368.034
368.028
368.034
368.027
368.034
368.028
368.034
368.028
368.034
368.03
368.031
368.035
368.03
368.032
368.012
368.013
368.032
368.029
368.035
368.029
368.035
368.028
368.034
368.028
368.035
368.028
368.034
368.03
368.03
368.034
368.028
368.034
368.028
368.034
368.027
368.034
368.028
368.035
368.029
368.035
368.031
368.034
368.036
368.03
368.017
368.013
368.032
368.031
368.035
368.032
368.03
368.034
368.028
368.034
368.027
368.034
368.027
368.034
368.028
368.034
368.029
368.034
368.029
368.034
368.029
368.035
368.029
368.035
368.029
368.035
368.029
368.035
368.03
368.032
368.013
368.014
368.031
368.032
368.03
368.035
368.029
368.035
368.027
368.035
368.027
368.035
368.027
368.035
368.029
368.035
368.029
368.035
368.029
368.034
368.028
368.035
368.028
368.035
368.029
368.036
368.031
368.035
368.036
368.03
368.018
368.017
368.03
368.036
368.03
368.036
368.029
368.035
368.028
368.035
368.028
368.035
368.028
368.035
368.029
368.035
368.029
368.035
368.029
368.034
368.028
368.035
368.028
368.035
368.029
368.036
368.031
368.035
368.036
368.03
368.018
368.016
368.031
368.033
368.035
368.03
368.035
368.028
368.034
368.028
368.034
368.028
368.034
368.028
368.034
368.029
368.035
368.029
368.035
368.03
368.033
368.034
368.029
368.035
368.028
368.035
368.029
368.035
368.029
368.032
368.013
368.018
368.03
368.036
368.03
368.036
368.029
368.035
368.028
368.035
368.028
368.035
368.028
368.035
368.029
368.035
368.029
368.035
368.029
368.034
368.028
368.035
368.028
368.035
368.029
368.036
368.031
368.034
368.036
368.03
368.017
368.013
368.032
368.032
368.033
368.034
368.029
368.035
368.028
368.035
368.028
368.035
368.027
368.035
368.029
368.035
368.034
368.03
368.035
368.027
368.035
368.027
368.034
368.027
368.035
368.029
368.034
368.031
368.031
368.031
368.012
368.018
368.03
368.037
368.03
368.037
368.029
368.035
368.027
368.035
368.027
368.034
368.027
368.035
368.028
368.035
368.029
368.035
368.029
368.035
368.027
368.035
368.028
368.035
368.029
368.035
368.031
368.034
368.035
368.029
368.017
1005.84
1006.88
1006.05
1000.71
988.712
973.516
957.259
920.731
896.487
646.046
460.866
395.053
385.181
382.695
410.729
426.939
453.717
519.725
570.507
536.827
492.07
464.402
460.523
458.43
445.309
429.517
418.036
412.002
406.585
403.595
401.266
397.563
396.662
394.293
393.196
392.3
391.131
390.014
388.51
387.032
384.844
383.687
381.525
380.698
394.077
400.501
399.514
396.532
393.419
390.914
388.981
387.316
386.087
384.599
383.823
382.663
382.294
381.284
381.118
380.284
380.155
379.516
379.304
378.859
378.615
378.178
378.07
377.518
377.532
377.003
376.981
376.587
376.477
376.097
375.745
375.831
375.627
375.443
375.233
375.008
374.944
374.726
374.689
374.499
374.481
374.319
374.314
374.167
374.179
374.067
374.031
374.019
373.951
373.956
373.917
373.881
373.893
373.846
373.862
373.821
373.838
373.804
373.807
373.539
373.503
373.747
373.76
373.76
373.758
373.757
373.756
373.756
373.756
373.756
373.756
373.755
373.757
373.757
373.754
373.757
373.756
373.756
373.754
373.756
373.755
373.756
373.755
373.756
373.754
373.756
373.757
373.756
373.744
373.494
373.493
373.743
373.755
373.757
373.755
373.755
373.755
373.756
373.755
373.756
373.755
373.756
373.756
373.757
373.757
373.756
373.757
373.755
373.755
373.754
373.756
373.755
373.757
373.755
373.756
373.756
373.758
373.757
373.745
373.491
373.494
373.744
373.757
373.757
373.756
373.755
373.756
373.755
373.756
373.755
373.755
373.754
373.756
373.755
373.756
373.756
373.757
373.756
373.756
373.756
373.757
373.755
373.756
373.755
373.756
373.755
373.757
373.756
373.743
373.492
373.494
373.744
373.756
373.755
373.756
373.755
373.756
373.755
373.756
373.754
373.756
373.755
373.757
373.756
373.757
373.756
373.757
373.756
373.756
373.755
373.756
373.755
373.757
373.755
373.757
373.756
373.758
373.758
373.745
373.491
373.493
373.744
373.758
373.757
373.757
373.755
373.756
373.755
373.756
373.755
373.756
373.755
373.757
373.756
373.757
373.756
373.757
373.756
373.756
373.754
373.756
373.755
373.757
373.755
373.757
373.756
373.758
373.758
373.745
373.491
373.492
373.745
373.757
373.758
373.756
373.756
373.755
373.756
373.754
373.756
373.754
373.756
373.755
373.757
373.756
373.757
373.756
373.757
373.756
373.756
373.756
373.756
373.757
373.755
373.755
373.755
373.757
373.755
373.743
373.493
373.491
373.745
373.758
373.757
373.758
373.755
373.756
373.755
373.756
373.755
373.756
373.755
373.757
373.756
373.757
373.756
373.757
373.756
373.756
373.755
373.756
373.755
373.757
373.755
373.756
373.756
373.758
373.757
373.745
373.491
373.494
373.744
373.757
373.756
373.755
373.755
373.756
373.755
373.756
373.755
373.757
373.755
373.757
373.757
373.757
373.758
373.757
373.758
373.755
373.757
373.754
373.756
373.755
373.756
373.755
373.756
373.756
373.757
373.744
373.493
373.492
373.745
373.759
373.757
373.758
373.755
373.756
373.755
373.756
373.755
373.756
373.755
373.758
373.757
373.759
373.757
373.758
373.757
373.758
373.756
373.757
373.755
373.757
373.756
373.757
373.755
373.758
373.757
373.744
373.491
1005.52
1004.34
1005.45
1009.69
1017.28
1018.92
1010.76
997.832
977.909
961.018
923.357
565.954
401.153
386.091
418.16
457.286
633.162
770.7
940.517
994.69
728.011
604.465
485.038
467.972
467.214
454.253
439.031
428.758
421.336
418.387
414.11
411.017
408.267
406.492
404.777
403.32
402.507
401.115
399.224
397.185
393.698
391.594
387.988
384.981
408.601
416.441
418.495
415.846
410.435
405.782
402.465
400.092
398.34
396.654
395.564
394.187
393.615
392.583
392.197
391.518
390.984
390.801
390.098
390.097
389.41
389.443
388.763
388.765
388.19
387.953
387.574
387.179
386.678
386.232
387.339
387.079
386.686
386.321
386.166
385.927
385.712
385.639
385.432
385.384
385.21
385.174
385.031
385.002
384.883
384.871
384.771
384.739
384.719
384.651
384.66
384.608
384.594
384.576
384.565
384.537
384.54
384.513
384.521
384.588
384.542
384.455
384.449
384.449
384.447
384.444
384.444
384.441
384.443
384.44
384.441
384.439
384.44
384.44
384.439
384.44
384.439
384.44
384.439
384.441
384.44
384.442
384.44
384.442
384.442
384.442
384.445
384.444
384.445
384.536
384.535
384.446
384.444
384.445
384.443
384.443
384.441
384.442
384.44
384.442
384.44
384.44
384.439
384.44
384.439
384.439
384.44
384.439
384.44
384.439
384.441
384.44
384.442
384.441
384.443
384.444
384.445
384.445
384.447
384.534
384.536
384.445
384.444
384.445
384.442
384.442
384.442
384.44
384.442
384.439
384.441
384.439
384.44
384.439
384.439
384.439
384.44
384.439
384.44
384.44
384.442
384.441
384.442
384.441
384.443
384.443
384.445
384.444
384.446
384.535
384.536
384.445
384.443
384.444
384.444
384.442
384.442
384.44
384.442
384.439
384.441
384.439
384.44
384.439
384.44
384.44
384.44
384.439
384.44
384.439
384.441
384.44
384.442
384.441
384.443
384.444
384.445
384.445
384.447
384.534
384.534
384.446
384.446
384.445
384.444
384.442
384.442
384.44
384.442
384.44
384.441
384.439
384.44
384.44
384.44
384.44
384.44
384.439
384.44
384.439
384.441
384.44
384.442
384.441
384.443
384.444
384.445
384.445
384.447
384.534
384.534
384.447
384.445
384.446
384.443
384.443
384.441
384.442
384.44
384.441
384.439
384.44
384.439
384.44
384.439
384.44
384.439
384.44
384.44
384.44
384.441
384.441
384.442
384.441
384.443
384.443
384.445
384.443
384.445
384.536
384.533
384.446
384.446
384.445
384.444
384.442
384.442
384.44
384.442
384.44
384.441
384.439
384.44
384.439
384.44
384.44
384.439
384.439
384.44
384.439
384.441
384.441
384.442
384.441
384.443
384.444
384.445
384.445
384.447
384.534
384.537
384.445
384.445
384.444
384.443
384.442
384.442
384.44
384.442
384.44
384.441
384.439
384.44
384.439
384.44
384.44
384.44
384.44
384.439
384.441
384.44
384.442
384.44
384.442
384.442
384.443
384.445
384.445
384.445
384.536
384.534
384.447
384.447
384.445
384.446
384.442
384.443
384.44
384.442
384.439
384.441
384.439
384.44
384.439
384.439
384.439
384.439
384.438
384.439
384.438
384.44
384.439
384.44
384.439
384.441
384.442
384.443
384.443
384.445
384.532
1004.82
1007.31
1018.04
1030.9
1043.1
1043.29
1035.43
1030.16
1018.94
1009.62
976.675
599.239
418.25
390.184
451.42
637.826
896.492
959.341
965.742
990.695
1012.98
1033.96
615.857
479.936
475.139
473.281
460.812
446.84
439.825
434.135
428.865
426.835
421.955
419.466
417.074
415.795
413.948
412.39
410.272
407.662
403.755
399.896
394.691
388.444
412.519
421.433
431.271
433.789
429.195
422.466
417.665
414.335
412.123
409.861
408.576
406.425
405.931
404.181
403.97
402.728
402.456
401.604
401.165
400.811
400.063
399.933
399.17
399.023
398.275
398.051
397.333
396.938
396.038
395.54
399.373
398.46
397.781
397.196
396.647
396.376
396.057
395.797
395.683
395.431
395.362
395.172
395.105
394.948
394.934
394.771
394.789
394.659
394.657
394.603
394.558
394.554
394.505
394.505
394.481
394.454
394.448
394.421
394.41
394.48
394.443
394.348
394.362
394.365
394.37
394.372
394.371
394.372
394.37
394.371
394.37
394.37
394.369
394.369
394.367
394.369
394.369
394.369
394.369
394.369
394.369
394.369
394.369
394.37
394.367
394.365
394.362
394.355
394.348
394.427
394.425
394.348
394.355
394.362
394.366
394.368
394.369
394.369
394.37
394.369
394.37
394.369
394.369
394.369
394.368
394.368
394.368
394.369
394.368
394.369
394.369
394.369
394.369
394.369
394.368
394.366
394.362
394.355
394.349
394.425
394.427
394.348
394.355
394.362
394.364
394.367
394.369
394.369
394.369
394.369
394.369
394.369
394.368
394.368
394.368
394.368
394.368
394.369
394.369
394.371
394.37
394.37
394.37
394.369
394.368
394.366
394.361
394.354
394.348
394.425
394.427
394.348
394.353
394.362
394.366
394.368
394.369
394.369
394.369
394.369
394.369
394.37
394.369
394.369
394.369
394.369
394.368
394.369
394.369
394.369
394.369
394.369
394.369
394.37
394.368
394.366
394.363
394.355
394.349
394.425
394.426
394.349
394.355
394.363
394.366
394.368
394.368
394.369
394.369
394.369
394.369
394.37
394.369
394.369
394.368
394.369
394.368
394.369
394.369
394.369
394.369
394.369
394.369
394.369
394.368
394.366
394.362
394.355
394.349
394.425
394.424
394.35
394.355
394.362
394.366
394.367
394.369
394.368
394.369
394.368
394.369
394.368
394.368
394.368
394.368
394.368
394.369
394.369
394.37
394.37
394.37
394.37
394.37
394.37
394.368
394.366
394.362
394.354
394.347
394.426
394.424
394.349
394.355
394.363
394.366
394.368
394.369
394.369
394.368
394.369
394.369
394.369
394.369
394.369
394.368
394.369
394.369
394.369
394.369
394.37
394.369
394.369
394.369
394.37
394.368
394.366
394.362
394.355
394.349
394.425
394.427
394.348
394.356
394.361
394.365
394.368
394.37
394.369
394.369
394.369
394.369
394.369
394.369
394.369
394.369
394.369
394.369
394.369
394.37
394.369
394.369
394.369
394.37
394.369
394.368
394.366
394.363
394.356
394.347
394.427
394.426
394.349
394.355
394.363
394.366
394.368
394.369
394.37
394.369
394.37
394.369
394.37
394.369
394.37
394.37
394.37
394.368
394.368
394.369
394.369
394.369
394.369
394.369
394.368
394.366
394.363
394.356
394.344
394.325
394.396
1025.47
1036.13
1053.95
1064.96
1069.24
1060.5
1047.97
1044.09
1036.65
1026.3
995.806
979.212
939.729
512.346
473.158
467.983
506.763
852.261
963.566
1006.38
1028.97
1032.71
1043.82
1039.54
763.304
521.079
479.946
483.47
479.085
466.143
459.234
450.824
447.207
443.71
439.214
436.5
434.629
432.354
430.877
429.274
426.492
423.239
418.559
412.933
405.809
396.063
392.026
400.155
408.914
423.173
438.521
446.828
445.182
439.224
433.953
430.742
428.473
426.627
424.788
423.545
422.022
420.988
420.412
419.257
419.119
418.113
417.914
417.288
416.809
416.454
415.877
415.592
414.933
414.587
413.638
413.009
411.868
410.67
412.583
413.926
415.125
415.376
414.142
413.689
413.163
412.781
412.562
412.316
412.074
412.005
411.754
411.715
411.51
411.479
411.323
411.256
411.187
411.118
411.039
411.036
410.955
410.946
410.911
410.875
410.873
410.828
410.827
410.794
410.803
411.195
411.525
411.535
411.159
410.752
410.714
410.713
410.712
410.711
410.713
410.711
410.711
410.709
410.709
410.709
410.709
410.709
410.708
410.709
410.709
410.709
410.709
410.708
410.708
410.709
410.709
410.709
410.707
410.704
410.701
410.702
410.723
411.14
411.496
411.496
411.14
410.724
410.702
410.702
410.704
410.707
410.709
410.709
410.709
410.709
410.709
410.709
410.709
410.709
410.708
410.709
410.709
410.709
410.708
410.708
410.708
410.709
410.709
410.709
410.707
410.705
410.701
410.702
410.724
411.139
411.496
411.496
411.14
410.724
410.702
410.701
410.703
410.707
410.709
410.709
410.709
410.708
410.708
410.709
410.708
410.709
410.708
410.709
410.709
410.709
410.709
410.709
410.709
410.71
410.709
410.709
410.707
410.704
410.702
410.702
410.724
411.139
411.496
411.496
411.14
410.723
410.701
410.702
410.704
410.707
410.708
410.709
410.709
410.708
410.708
410.709
410.709
410.709
410.708
410.709
410.708
410.709
410.708
410.708
410.708
410.709
410.709
410.709
410.707
410.705
410.701
410.702
410.725
411.139
411.496
411.496
411.14
410.725
410.702
410.702
410.704
410.707
410.709
410.709
410.709
410.708
410.708
410.709
410.708
410.709
410.708
410.709
410.708
410.709
410.708
410.708
410.708
410.709
410.709
410.709
410.707
410.705
410.701
410.702
410.724
411.139
411.496
411.496
411.139
410.725
410.702
410.702
410.704
410.706
410.709
410.709
410.708
410.707
410.708
410.708
410.709
410.709
410.709
410.708
410.709
410.709
410.71
410.709
410.709
410.71
410.71
410.709
410.707
410.704
410.702
410.702
410.724
411.14
411.496
411.496
411.138
410.725
410.702
410.702
410.703
410.707
410.709
410.709
410.708
410.708
410.708
410.709
410.708
410.709
410.708
410.709
410.708
410.709
410.709
410.708
410.708
410.709
410.709
410.709
410.707
410.705
410.701
410.702
410.725
411.139
411.496
411.496
411.14
410.723
410.703
410.701
410.704
410.707
410.709
410.709
410.709
410.708
410.708
410.708
410.708
410.709
410.708
410.708
410.709
410.709
410.709
410.708
410.708
410.709
410.709
410.709
410.707
410.704
410.702
410.703
410.724
411.141
411.496
411.496
411.14
410.726
410.703
410.702
410.704
410.707
410.709
410.709
410.708
410.707
410.706
410.707
410.707
410.707
410.707
410.708
410.708
410.708
410.708
410.708
410.708
410.708
410.707
410.707
410.705
410.704
410.702
410.703
410.724
411.136
411.478
411.161
1071.65
1076.72
1088.45
1094.94
1093.41
1080.75
1066.17
1054.24
1050.94
1047
1037.25
1036.35
1042.66
918.617
910.74
919.435
964.979
994.092
1038.66
1053.62
1047.39
1057.48
1056.94
1062.54
874.024
567.606
488.471
490.457
491.229
485.294
475.567
468.247
465.268
459.847
457.193
452.682
451.144
448.102
446.228
443.993
441.811
439.002
435.229
429.686
425.762
414.884
412.062
413.398
421.681
435.448
449.782
458.086
457.88
453.318
449.358
446.51
444.239
442.557
440.333
439.312
437.109
436.42
435.145
434.177
433.516
432.691
432.291
431.437
431.201
430.303
430.117
429.241
429.012
428.143
427.82
427.011
426.506
425.438
426.593
427.224
428.555
428.892
427.778
427.566
426.901
426.638
426.37
426.015
425.849
425.65
425.397
425.362
425.104
425.083
424.901
424.848
424.713
424.711
424.577
424.562
424.518
424.451
424.465
424.399
424.404
424.365
424.351
424.341
424.323
424.326
424.718
424.732
424.294
424.294
424.271
424.273
424.264
424.272
424.267
424.27
424.267
424.268
424.266
424.267
424.266
424.267
424.266
424.266
424.267
424.266
424.266
424.265
424.266
424.265
424.266
424.265
424.263
424.259
424.257
424.259
424.264
424.272
424.698
424.697
424.272
424.264
424.26
424.257
424.259
424.262
424.265
424.265
424.266
424.265
424.266
424.266
424.267
424.267
424.266
424.266
424.266
424.266
424.266
424.265
424.265
424.266
424.265
424.265
424.262
424.259
424.258
424.259
424.264
424.271
424.697
424.697
424.272
424.264
424.259
424.258
424.258
424.263
424.265
424.265
424.265
424.265
424.265
424.266
424.266
424.267
424.266
424.266
424.266
424.267
424.266
424.266
424.266
424.267
424.266
424.266
424.262
424.259
424.257
424.26
424.264
424.272
424.697
424.697
424.272
424.264
424.259
424.258
424.258
424.262
424.264
424.266
424.266
424.266
424.265
424.266
424.266
424.267
424.266
424.267
424.266
424.267
424.266
424.266
424.265
424.266
424.265
424.265
424.262
424.259
424.258
424.259
424.265
424.272
424.697
424.697
424.272
424.264
424.259
424.258
424.258
424.262
424.265
424.266
424.265
424.266
424.265
424.266
424.266
424.267
424.266
424.266
424.266
424.266
424.266
424.266
424.265
424.266
424.265
424.265
424.262
424.259
424.258
424.259
424.265
424.272
424.697
424.697
424.271
424.265
424.26
424.257
424.259
424.261
424.265
424.265
424.266
424.265
424.265
424.266
424.266
424.266
424.266
424.266
424.267
424.267
424.266
424.266
424.265
424.267
424.266
424.265
424.262
424.259
424.257
424.26
424.265