/*--------------------------------*- C++ -*----------------------------------*\
| =========                 |                                                 |
| \\      /  F ield         | OpenFOAM: The Open Source CFD Toolbox           |
|  \\    /   O peration     | Version:  2.1.1                                 |
|   \\  /    A nd           | Web:      www.OpenFOAM.org                      |
|    \\/     M anipulation  |                                                 |
\*---------------------------------------------------------------------------*/
FoamFile
{
    version     2.0;
    format      ascii;
    class       volScalarField;
    location    "0.001150000";
    object      N2;
}
// * * * * * * * * * * * * * * * * * * * * * * * * * * * * * * * * * * * * * //

dimensions      [0 0 0 0 0 0 0];

internalField   nonuniform List<scalar> 
12384
(
0.746982
0.746632
0.746249
0.746129
0.745844
0.74603
0.746118
0.745814
0.745199
0.744891
0.744813
0.744701
0.744683
0.744843
0.746556
0.747675
0.748426
0.748656
0.748754
0.748646
0.748427
0.747945
0.747423
0.746897
0.746452
0.74602
0.745629
0.74531
0.745074
0.744923
0.744819
0.744774
0.744756
0.74474
0.744749
0.744744
0.744734
0.744739
0.744748
0.744737
0.744746
0.744732
0.744736
0.744741
0.744905
0.744953
0.744908
0.744878
0.744818
0.7448
0.744754
0.744759
0.744745
0.744751
0.744751
0.74475
0.744749
0.744755
0.744745
0.744758
0.744743
0.744759
0.744743
0.744759
0.744744
0.744757
0.744746
0.744755
0.744748
0.744753
0.744749
0.744752
0.744749
0.744746
0.744745
0.744752
0.744753
0.744753
0.744753
0.744754
0.744753
0.744754
0.744754
0.744755
0.744756
0.744756
0.744757
0.744758
0.744759
0.74476
0.744759
0.744759
0.744758
0.744758
0.744758
0.744757
0.744758
0.744757
0.744757
0.744756
0.744757
0.744756
0.744756
0.744746
0.744746
0.744756
0.744756
0.744757
0.744757
0.744757
0.744758
0.744758
0.744759
0.744759
0.74476
0.744761
0.744762
0.744763
0.744763
0.744763
0.744763
0.744762
0.744761
0.74476
0.74476
0.744759
0.744759
0.744758
0.744757
0.744757
0.744757
0.744756
0.744756
0.744746
0.744746
0.744756
0.744756
0.744757
0.744757
0.744758
0.744758
0.744759
0.744759
0.74476
0.74476
0.744761
0.744762
0.744763
0.744763
0.744763
0.744762
0.744762
0.744761
0.74476
0.74476
0.744759
0.744759
0.744758
0.744758
0.744757
0.744757
0.744756
0.744756
0.744746
0.744746
0.744756
0.744756
0.744757
0.744757
0.744757
0.744758
0.744758
0.744759
0.74476
0.74476
0.744761
0.744761
0.744762
0.744763
0.744763
0.744763
0.744762
0.74476
0.74476
0.744759
0.744759
0.744758
0.744758
0.744757
0.744757
0.744757
0.744756
0.744756
0.744746
0.744746
0.744756
0.744756
0.744757
0.744757
0.744758
0.744758
0.744759
0.744759
0.74476
0.74476
0.744761
0.744762
0.744762
0.744763
0.744763
0.744762
0.744762
0.744761
0.74476
0.74476
0.744759
0.744759
0.744758
0.744758
0.744757
0.744757
0.744756
0.744756
0.744746
0.744746
0.744756
0.744756
0.744757
0.744757
0.744758
0.744758
0.744759
0.744759
0.744759
0.74476
0.74476
0.744761
0.744762
0.744763
0.744763
0.744762
0.744762
0.744761
0.74476
0.74476
0.744759
0.744759
0.744758
0.744758
0.744757
0.744757
0.744756
0.744756
0.744746
0.744746
0.744756
0.744756
0.744757
0.744757
0.744758
0.744758
0.744759
0.744759
0.74476
0.74476
0.744761
0.744761
0.744762
0.744763
0.744763
0.744763
0.744762
0.74476
0.74476
0.744759
0.744759
0.744758
0.744758
0.744758
0.744757
0.744757
0.744756
0.744756
0.744746
0.744746
0.744756
0.744756
0.744757
0.744757
0.744758
0.744758
0.744759
0.744759
0.74476
0.74476
0.744761
0.744761
0.744762
0.744763
0.744763
0.744763
0.744762
0.744761
0.74476
0.744759
0.744759
0.744759
0.744758
0.744757
0.744757
0.744757
0.744756
0.744756
0.744746
0.744746
0.744756
0.744756
0.744757
0.744757
0.744757
0.744758
0.744758
0.744759
0.74476
0.74476
0.744761
0.744762
0.744763
0.744763
0.744763
0.744763
0.744762
0.744761
0.74476
0.74476
0.744759
0.744759
0.744758
0.744758
0.744757
0.744757
0.744756
0.744756
0.744746
0.744746
0.744756
0.744756
0.744757
0.744757
0.744758
0.744758
0.744759
0.744759
0.74476
0.74476
0.74476
0.744761
0.744762
0.744763
0.744763
0.744763
0.744762
0.744761
0.74476
0.74476
0.744759
0.744759
0.744758
0.744757
0.744757
0.744757
0.744756
0.744756
0.744746
0.755386
0.753471
0.753059
0.753816
0.752916
0.754033
0.75478
0.753653
0.753071
0.75057
0.748407
0.747211
0.746481
0.746105
0.756274
0.757888
0.757824
0.757583
0.757514
0.757634
0.757714
0.757771
0.757551
0.757143
0.756522
0.755871
0.75498
0.754171
0.753188
0.752299
0.751501
0.750536
0.749748
0.748763
0.747893
0.747176
0.74647
0.745908
0.745596
0.74528
0.745159
0.745102
0.745058
0.744946
0.75218
0.752496
0.752176
0.751854
0.751383
0.75095
0.750321
0.749792
0.749184
0.74872
0.748227
0.747829
0.747497
0.747117
0.746967
0.746611
0.746526
0.746254
0.746123
0.746004
0.745808
0.745797
0.745594
0.745634
0.745498
0.745482
0.745443
0.745406
0.745418
0.74504
0.745763
0.746104
0.746083
0.746042
0.74598
0.74592
0.745888
0.745836
0.745828
0.745785
0.745795
0.745759
0.745791
0.745791
0.745827
0.745805
0.745791
0.74575
0.745743
0.745722
0.745722
0.745699
0.745695
0.745672
0.745663
0.745644
0.745637
0.745628
0.745609
0.745083
0.745071
0.745622
0.745634
0.745657
0.745666
0.745677
0.745705
0.745717
0.745744
0.745753
0.745779
0.74579
0.745833
0.745871
0.745887
0.745893
0.745862
0.745829
0.74579
0.745781
0.745757
0.745748
0.745721
0.745709
0.74568
0.745667
0.745659
0.745636
0.745623
0.745071
0.745071
0.74562
0.745633
0.745657
0.745663
0.74569
0.745699
0.745726
0.745734
0.745762
0.74577
0.745799
0.745832
0.745867
0.745894
0.745885
0.745867
0.745823
0.745801
0.745774
0.745769
0.745742
0.745734
0.745706
0.745694
0.74567
0.745658
0.745644
0.745618
0.74508
0.745071
0.745623
0.745637
0.74566
0.745668
0.745682
0.745711
0.745722
0.74575
0.745759
0.745784
0.745792
0.74583
0.745857
0.745888
0.745888
0.745878
0.74583
0.745799
0.745766
0.745754
0.745724
0.745717
0.745691
0.745682
0.745657
0.745652
0.745631
0.745618
0.745072
0.745071
0.745623
0.745642
0.745656
0.74568
0.745688
0.745718
0.745726
0.745753
0.745759
0.745782
0.745791
0.745832
0.745862
0.745894
0.745888
0.745871
0.745825
0.745802
0.745774
0.745769
0.745742
0.745735
0.745707
0.745695
0.74567
0.745658
0.745644
0.745618
0.74508
0.745078
0.745612
0.745641
0.745651
0.745676
0.745684
0.745713
0.745721
0.745747
0.745753
0.745777
0.745786
0.745829
0.745862
0.745894
0.745887
0.745871
0.745826
0.745803
0.745774
0.745769
0.745742
0.745734
0.745706
0.745695
0.74567
0.745658
0.745644
0.745617
0.745081
0.745081
0.745618
0.745639
0.745662
0.745672
0.745698
0.745708
0.745736
0.745742
0.745767
0.745771
0.745797
0.745817
0.745862
0.74588
0.745896
0.745872
0.745837
0.745788
0.745768
0.745756
0.745731
0.745721
0.745694
0.745685
0.745659
0.745654
0.74563
0.745619
0.745071
0.745081
0.745615
0.745644
0.745654
0.745679
0.745687
0.745715
0.745724
0.74575
0.745755
0.745779
0.745787
0.745827
0.745859
0.745892
0.745889
0.745873
0.745829
0.745803
0.745775
0.745769
0.745741
0.745733
0.745705
0.745694
0.745669
0.745657
0.745644
0.745617
0.74508
0.745071
0.745624
0.745639
0.745654
0.745673
0.745684
0.745713
0.745724
0.745752
0.74576
0.745784
0.745794
0.745834
0.745863
0.745893
0.745893
0.745865
0.745833
0.745792
0.745782
0.745758
0.745751
0.745724
0.745715
0.745685
0.745677
0.745656
0.745641
0.745624
0.745071
0.74508
0.745617
0.745646
0.745656
0.745684
0.745691
0.745721
0.745728
0.745755
0.745758
0.745782
0.745787
0.745824
0.745853
0.745889
0.74589
0.745875
0.745832
0.745805
0.745777
0.745771
0.745744
0.745736
0.745707
0.745696
0.74567
0.745656
0.745643
0.745617
0.745081
0.759738
0.758438
0.759168
0.759899
0.759873
0.759725
0.759635
0.75956
0.759617
0.759303
0.758878
0.75721
0.755296
0.754018
0.760277
0.758713
0.757334
0.756226
0.75578
0.756013
0.7569
0.758085
0.759137
0.759763
0.760154
0.760417
0.760569
0.760717
0.760786
0.760856
0.760858
0.760871
0.760898
0.760813
0.760722
0.76044
0.7602
0.759666
0.759151
0.758119
0.757137
0.756201
0.755545
0.755005
0.760932
0.760805
0.760793
0.76075
0.76083
0.76077
0.760852
0.760761
0.760845
0.760738
0.760817
0.760719
0.760792
0.760698
0.760772
0.760671
0.760771
0.760658
0.760782
0.760647
0.760764
0.760648
0.760724
0.760625
0.760635
0.760565
0.760539
0.760471
0.760444
0.760702
0.761076
0.760735
0.760704
0.760687
0.76068
0.760664
0.760649
0.760633
0.760615
0.760602
0.760584
0.760576
0.760547
0.760523
0.760493
0.760494
0.760508
0.760528
0.760538
0.760542
0.760546
0.760552
0.760558
0.760567
0.760575
0.760584
0.760587
0.760595
0.760604
0.761057
0.761056
0.7606
0.760584
0.760572
0.760563
0.760556
0.760539
0.760527
0.760513
0.760502
0.760491
0.760477
0.760449
0.760415
0.760408
0.760402
0.760422
0.760453
0.760477
0.760489
0.7605
0.760511
0.760524
0.760537
0.760553
0.760563
0.760569
0.760582
0.760599
0.761056
0.761056
0.760603
0.760584
0.760571
0.760563
0.760551
0.760539
0.760526
0.760516
0.760502
0.760491
0.760477
0.760446
0.76042
0.760402
0.760404
0.760424
0.760453
0.760475
0.760489
0.760498
0.760511
0.760521
0.760534
0.760548
0.76056
0.76057
0.76058
0.760598
0.761056
0.761056
0.760599
0.760582
0.760568
0.760564
0.760552
0.760536
0.760523
0.76051
0.760499
0.760488
0.760477
0.760453
0.760427
0.760408
0.760402
0.760415
0.760446
0.760475
0.760493
0.760507
0.760522
0.760533
0.760545
0.760556
0.760567
0.760575
0.760586
0.760605
0.761056
0.761056
0.760598
0.760582
0.760568
0.760556
0.760546
0.760531
0.76052
0.760509
0.760499
0.760489
0.760477
0.760451
0.760422
0.760402
0.760402
0.76042
0.760451
0.760475
0.760489
0.760498
0.76051
0.760521
0.760534
0.760547
0.760559
0.76057
0.76058
0.760598
0.761056
0.761056
0.760603
0.760584
0.760571
0.76056
0.760549
0.760536
0.760525
0.760513
0.760503
0.760493
0.76048
0.760453
0.760422
0.760402
0.760402
0.760421
0.76045
0.760474
0.760489
0.760498
0.76051
0.760521
0.760534
0.760548
0.76056
0.76057
0.760581
0.760598
0.761056
0.761056
0.760599
0.760581
0.760568
0.760558
0.760545
0.760533
0.76052
0.760511
0.760499
0.760491
0.760479
0.760457
0.760428
0.760408
0.7604
0.760414
0.760445
0.76048
0.760496
0.760504
0.760518
0.760529
0.760543
0.760554
0.760566
0.760574
0.760586
0.760604
0.761056
0.761056
0.7606
0.760581
0.760569
0.760558
0.760547
0.760534
0.760523
0.760511
0.760502
0.760492
0.76048
0.760455
0.760424
0.760403
0.760401
0.760419
0.760448
0.760474
0.760489
0.760498
0.760511
0.760521
0.760535
0.760548
0.760561
0.760571
0.760581
0.760598
0.761056
0.761056
0.760597
0.760581
0.760573
0.760561
0.76055
0.760534
0.760522
0.760509
0.760498
0.760488
0.760475
0.76045
0.760422
0.760401
0.760401
0.760421
0.76045
0.760476
0.760489
0.760499
0.76051
0.760522
0.760534
0.760548
0.760559
0.76057
0.76058
0.760597
0.761056
0.761056
0.760599
0.76058
0.760567
0.760555
0.760544
0.760531
0.76052
0.760508
0.7605
0.76049
0.76048
0.760458
0.760429
0.760406
0.7604
0.760417
0.760446
0.760473
0.760486
0.760496
0.760509
0.76052
0.760534
0.760547
0.76056
0.760571
0.760581
0.760597
0.761056
0.75734
0.755509
0.756468
0.757899
0.759212
0.758809
0.758112
0.75817
0.75863
0.759508
0.759958
0.760614
0.759936
0.758783
0.75741
0.751747
0.747927
0.7455
0.744311
0.743646
0.744322
0.747148
0.750849
0.753998
0.756043
0.757145
0.757971
0.75852
0.75893
0.759257
0.759489
0.759719
0.759859
0.76004
0.76017
0.760313
0.760401
0.760456
0.760485
0.760519
0.760508
0.760466
0.760333
0.760389
0.759196
0.758927
0.759055
0.759276
0.759398
0.759591
0.759701
0.759879
0.759951
0.760092
0.76012
0.760233
0.760229
0.760322
0.760305
0.760376
0.760364
0.760405
0.760413
0.760426
0.760449
0.760441
0.760477
0.760461
0.76049
0.760482
0.760492
0.760496
0.7605
0.760574
0.760447
0.76041
0.760415
0.760428
0.760432
0.760443
0.760448
0.760454
0.760459
0.760462
0.760466
0.760466
0.76047
0.760467
0.760472
0.760468
0.760471
0.76047
0.76047
0.76047
0.76047
0.760469
0.760469
0.760469
0.760468
0.760468
0.760467
0.760468
0.76047
0.760549
0.76055
0.760469
0.760465
0.760465
0.760464
0.760464
0.760465
0.760464
0.760465
0.760463
0.760464
0.760463
0.760464
0.760462
0.760463
0.760463
0.760462
0.760464
0.760463
0.760464
0.760463
0.760465
0.760464
0.760465
0.760464
0.760465
0.760465
0.760465
0.760469
0.760551
0.76055
0.760469
0.760465
0.760465
0.760464
0.760465
0.760464
0.760465
0.760464
0.760465
0.760463
0.760464
0.760463
0.760463
0.760463
0.760462
0.760464
0.760463
0.760464
0.760463
0.760465
0.760463
0.760465
0.760464
0.760465
0.760464
0.760465
0.760466
0.760469
0.76055
0.760551
0.760469
0.760465
0.760465
0.760465
0.760464
0.760465
0.760464
0.760465
0.760463
0.760464
0.760463
0.760464
0.760463
0.760463
0.760462
0.760464
0.760463
0.760464
0.760463
0.760465
0.760464
0.760465
0.760464
0.760465
0.760464
0.760466
0.760465
0.760469
0.76055
0.76055
0.760469
0.760465
0.760465
0.760465
0.760464
0.760465
0.760464
0.760465
0.760463
0.760464
0.760463
0.760464
0.760462
0.760463
0.760462
0.760464
0.760463
0.760464
0.760463
0.760465
0.760463
0.760465
0.760464
0.760465
0.760464
0.760465
0.760466
0.760469
0.76055
0.76055
0.760469
0.760466
0.760464
0.760465
0.760464
0.760465
0.760464
0.760465
0.760463
0.760464
0.760463
0.760464
0.760462
0.760463
0.760462
0.760464
0.760463
0.760464
0.760463
0.760465
0.760463
0.760465
0.760464
0.760465
0.760464
0.760465
0.760466
0.760469
0.76055
0.76055
0.760469
0.760465
0.760466
0.760464
0.760465
0.760464
0.760465
0.760464
0.760465
0.760463
0.760464
0.760463
0.760464
0.760462
0.760463
0.760462
0.760464
0.760463
0.760464
0.760464
0.760464
0.760465
0.760464
0.760465
0.760464
0.760466
0.760465
0.760469
0.76055
0.76055
0.760469
0.760466
0.760464
0.760465
0.760464
0.760465
0.760464
0.760465
0.760463
0.760464
0.760463
0.760464
0.760462
0.760463
0.760462
0.760464
0.760463
0.760464
0.760463
0.760465
0.760463
0.760465
0.760464
0.760465
0.760464
0.760465
0.760466
0.760469
0.76055
0.76055
0.760469
0.760465
0.760465
0.760465
0.760464
0.760465
0.760464
0.760465
0.760463
0.760464
0.760463
0.760464
0.760462
0.760463
0.760463
0.760462
0.760464
0.760463
0.760464
0.760463
0.760465
0.760464
0.760465
0.760464
0.760465
0.760465
0.760465
0.760469
0.76055
0.76055
0.760469
0.760466
0.760464
0.760465
0.760464
0.760465
0.760464
0.760465
0.760463
0.760465
0.760463
0.760464
0.760462
0.760463
0.760462
0.760464
0.760463
0.760464
0.760463
0.760464
0.760463
0.760465
0.760464
0.760465
0.760464
0.760465
0.760466
0.760469
0.76055
0.747467
0.746558
0.746994
0.75055
0.753708
0.754849
0.755223
0.755884
0.755436
0.756533
0.757811
0.758908
0.75989
0.760414
0.753356
0.745529
0.743126
0.74223
0.741133
0.739323
0.736983
0.736499
0.738932
0.744262
0.74911
0.752275
0.75396
0.755133
0.755863
0.756429
0.756896
0.757253
0.757548
0.757818
0.758034
0.758311
0.758534
0.758806
0.759065
0.759341
0.759652
0.759813
0.76002
0.760145
0.7562
0.755145
0.755532
0.755996
0.756533
0.756876
0.757267
0.75748
0.757774
0.757867
0.75809
0.758113
0.758284
0.758276
0.758408
0.75839
0.758488
0.758475
0.75855
0.758534
0.7586
0.758578
0.758643
0.758621
0.758683
0.75868
0.758732
0.758751
0.758789
0.758805
0.758537
0.75854
0.75856
0.758571
0.758594
0.758606
0.75862
0.758632
0.758639
0.75865
0.758651
0.758662
0.758658
0.75867
0.758663
0.758674
0.758668
0.758676
0.758672
0.758676
0.758675
0.758677
0.758676
0.758678
0.758677
0.758678
0.758678
0.758677
0.75868
0.758683
0.758687
0.758679
0.758681
0.758678
0.75868
0.75868
0.758678
0.758681
0.758678
0.758681
0.758678
0.758681
0.758678
0.75868
0.758679
0.758678
0.758681
0.758678
0.758681
0.758678
0.758681
0.758678
0.758681
0.758678
0.75868
0.75868
0.758678
0.75868
0.758679
0.758687
0.758686
0.758679
0.758681
0.758678
0.758681
0.758678
0.758681
0.758678
0.758681
0.758678
0.758681
0.758678
0.75868
0.75868
0.758678
0.758681
0.758678
0.758681
0.758678
0.758681
0.758678
0.758681
0.758678
0.758681
0.758678
0.75868
0.758678
0.758678
0.75868
0.758684
0.758687
0.758679
0.75868
0.758678
0.758679
0.75868
0.758678
0.758681
0.758678
0.758681
0.758678
0.758681
0.758678
0.758681
0.758678
0.75868
0.758678
0.758681
0.758678
0.758681
0.758678
0.758681
0.758678
0.758681
0.758678
0.758681
0.758678
0.75868
0.758679
0.758686
0.758686
0.75868
0.758679
0.75868
0.758678
0.758681
0.758678
0.758681
0.758678
0.758681
0.758678
0.758681
0.758678
0.75868
0.758678
0.75868
0.758678
0.758681
0.758678
0.758681
0.758678
0.758681
0.758678
0.758681
0.758677
0.75868
0.758678
0.758678
0.75868
0.758684
0.758684
0.75868
0.758678
0.75868
0.758677
0.758681
0.758678
0.758681
0.758678
0.758681
0.758678
0.758681
0.758678
0.75868
0.758677
0.75868
0.758678
0.758681
0.758678
0.758681
0.758678
0.758681
0.758678
0.758681
0.758677
0.75868
0.758678
0.758678
0.75868
0.758684
0.758685
0.75868
0.758679
0.758678
0.758681
0.758678
0.758681
0.758678
0.758681
0.758678
0.758681
0.758678
0.758681
0.758678
0.75868
0.758678
0.75868
0.758678
0.75868
0.758678
0.758678
0.75868
0.758678
0.758681
0.758678
0.758681
0.758678
0.758681
0.758679
0.758686
0.758684
0.75868
0.758677
0.75868
0.758677
0.758681
0.758678
0.758681
0.758678
0.758681
0.758678
0.758681
0.758678
0.75868
0.758677
0.75868
0.758678
0.758681
0.758678
0.758681
0.758678
0.758681
0.758678
0.75868
0.758678
0.75868
0.758678
0.758678
0.75868
0.758684
0.758687
0.758679
0.75868
0.758679
0.758678
0.758681
0.758678
0.758681
0.758678
0.758681
0.758678
0.758681
0.758678
0.75868
0.758678
0.758678
0.75868
0.758677
0.758681
0.758678
0.758681
0.758678
0.758681
0.758678
0.758681
0.758678
0.75868
0.75868
0.758679
0.758687
0.758684
0.75868
0.758677
0.75868
0.758677
0.758681
0.758677
0.758681
0.758678
0.758681
0.758678
0.758681
0.758677
0.758681
0.758677
0.75868
0.758677
0.75868
0.758677
0.758681
0.758678
0.758681
0.758677
0.75868
0.758677
0.75868
0.758679
0.758678
0.75868
0.758684
0.744853
0.744749
0.744819
0.745631
0.747339
0.749062
0.750149
0.751921
0.752851
0.753981
0.754474
0.756352
0.758275
0.759751
0.750305
0.744537
0.745523
0.746637
0.746784
0.744683
0.740911
0.735591
0.731942
0.733289
0.738658
0.744527
0.748118
0.750247
0.751454
0.752512
0.753158
0.75388
0.754338
0.754796
0.755245
0.755684
0.756052
0.756542
0.756919
0.757393
0.757821
0.758292
0.758734
0.759183
0.751675
0.749348
0.749692
0.750877
0.752013
0.752987
0.753653
0.754251
0.754618
0.755031
0.755216
0.755514
0.755608
0.75583
0.75588
0.756053
0.756068
0.756216
0.756221
0.756339
0.756348
0.756442
0.756457
0.756538
0.756559
0.756635
0.756662
0.756727
0.756788
0.756897
0.756237
0.756232
0.756285
0.756356
0.756393
0.756447
0.756471
0.756507
0.756524
0.756548
0.756559
0.756574
0.756581
0.75659
0.756596
0.7566
0.756605
0.756607
0.75661
0.756613
0.756612
0.756616
0.756614
0.756617
0.756616
0.756618
0.756617
0.756617
0.756622
0.756711
0.756712
0.756621
0.756617
0.756617
0.756617
0.756618
0.756617
0.756617
0.756617
0.756617
0.756617
0.756617
0.756617
0.756616
0.756617
0.756616
0.756617
0.756617
0.756617
0.756617
0.756617
0.756617
0.756617
0.756617
0.756618
0.756618
0.756617
0.756617
0.756622
0.756712
0.756713
0.756622
0.756617
0.756617
0.756617
0.756617
0.756618
0.756617
0.756617
0.756617
0.756617
0.756617
0.756617
0.756617
0.756617
0.756617
0.756617
0.756617
0.756617
0.756617
0.756617
0.756617
0.756617
0.756617
0.756617
0.756617
0.756617
0.756617
0.756621
0.756713
0.756712
0.756622
0.756617
0.756617
0.756617
0.756618
0.756617
0.756617
0.756617
0.756618
0.756617
0.756618
0.756617
0.756617
0.756617
0.756617
0.756617
0.756617
0.756617
0.756617
0.756617
0.756617
0.756617
0.756617
0.756617
0.756617
0.756617
0.756617
0.756622
0.756713
0.756712
0.756622
0.756617
0.756617
0.756617
0.756618
0.756617
0.756618
0.756617
0.756618
0.756617
0.756617
0.756617
0.756617
0.756616
0.756617
0.756616
0.756617
0.756617
0.756617
0.756617
0.756617
0.756617
0.756617
0.756617
0.756617
0.756616
0.756617
0.756621
0.756713
0.756713
0.756621
0.756617
0.756617
0.756617
0.756617
0.756617
0.756618
0.756617
0.756617
0.756617
0.756617
0.756617
0.756617
0.756616
0.756617
0.756617
0.756617
0.756617
0.756617
0.756617
0.756617
0.756617
0.756617
0.756617
0.756617
0.756616
0.756617
0.756621
0.756713
0.756713
0.756621
0.756617
0.756617
0.756617
0.756617
0.756617
0.756617
0.756618
0.756617
0.756617
0.756617
0.756617
0.756617
0.756617
0.756617
0.756617
0.756616
0.756617
0.756617
0.756617
0.756617
0.756617
0.756617
0.756617
0.756617
0.756617
0.756618
0.756622
0.756712
0.756714
0.756621
0.756617
0.756617
0.756617
0.756617
0.756617
0.756618
0.756617
0.756617
0.756617
0.756617
0.756617
0.756617
0.756616
0.756617
0.756617
0.756617
0.756617
0.756617
0.756617
0.756617
0.756617
0.756617
0.756617
0.756617
0.756616
0.756617
0.756621
0.756713
0.756712
0.756622
0.756617
0.756617
0.756618
0.756617
0.756617
0.756618
0.756617
0.756617
0.756617
0.756617
0.756617
0.756617
0.756616
0.756616
0.756616
0.756617
0.756617
0.756617
0.756617
0.756617
0.756618
0.756617
0.756617
0.756617
0.756617
0.756617
0.756622
0.756713
0.756714
0.756621
0.756617
0.756617
0.756617
0.756617
0.756617
0.756617
0.756617
0.756617
0.756617
0.756617
0.756616
0.756616
0.756616
0.756616
0.756616
0.756616
0.756616
0.756617
0.756617
0.756617
0.756617
0.756617
0.756617
0.756617
0.756617
0.756617
0.756622
0.756714
0.744863
0.744933
0.744857
0.744672
0.744918
0.74574
0.746975
0.747799
0.748811
0.749543
0.751273
0.75252
0.755649
0.758315
0.747299
0.748333
0.750249
0.75111
0.750659
0.749575
0.747226
0.74134
0.733817
0.72889
0.729926
0.735241
0.740723
0.744129
0.74612
0.747276
0.748291
0.749104
0.749811
0.750376
0.750941
0.751444
0.751949
0.752523
0.753132
0.753881
0.754638
0.755505
0.756493
0.757576
0.74631
0.743276
0.742501
0.74356
0.74566
0.747421
0.748725
0.749535
0.75021
0.75064
0.751037
0.751271
0.751547
0.751664
0.751872
0.751927
0.752093
0.752126
0.752245
0.752285
0.752366
0.752417
0.75247
0.75254
0.75258
0.752675
0.752744
0.752868
0.753015
0.753143
0.752024
0.752138
0.75226
0.752341
0.752413
0.75246
0.752506
0.752534
0.752562
0.752583
0.752597
0.752616
0.752622
0.752637
0.752638
0.752651
0.752651
0.752659
0.752659
0.752664
0.752666
0.752668
0.752671
0.752671
0.752674
0.752674
0.752675
0.752677
0.752677
0.752646
0.752646
0.752681
0.752681
0.752681
0.752681
0.752682
0.752682
0.752682
0.752682
0.752683
0.752682
0.752683
0.752682
0.752682
0.752683
0.752682
0.752683
0.752682
0.752683
0.752682
0.752683
0.752682
0.752683
0.752682
0.752682
0.752682
0.752681
0.752681
0.752681
0.752647
0.752647
0.75268
0.752681
0.752681
0.752682
0.752681
0.752682
0.752682
0.752683
0.752682
0.752683
0.752682
0.752682
0.752682
0.752682
0.752683
0.752682
0.752683
0.752682
0.752683
0.752682
0.752683
0.752682
0.752682
0.752681
0.752681
0.752681
0.752681
0.75268
0.752647
0.752647
0.752681
0.752681
0.752681
0.752682
0.752682
0.752682
0.752683
0.752682
0.752683
0.752682
0.752683
0.752682
0.752683
0.752682
0.752683
0.752682
0.752683
0.752682
0.752682
0.752681
0.752682
0.752681
0.752682
0.752681
0.752682
0.752681
0.752681
0.75268
0.752647
0.752647
0.752681
0.752681
0.752681
0.752681
0.752682
0.752681
0.752683
0.752682
0.752683
0.752682
0.752683
0.752682
0.752683
0.752682
0.752682
0.752682
0.752683
0.752682
0.752683
0.752682
0.752683
0.752682
0.752682
0.752681
0.752681
0.752681
0.752681
0.75268
0.752647
0.752647
0.75268
0.75268
0.752681
0.752681
0.752682
0.752681
0.752683
0.752682
0.752683
0.752682
0.752683
0.752682
0.752683
0.752682
0.752682
0.752682
0.752683
0.752682
0.752683
0.752682
0.752683
0.752682
0.752682
0.752681
0.752681
0.752681
0.75268
0.75268
0.752647
0.752648
0.75268
0.752681
0.75268
0.752682
0.752681
0.752682
0.752682
0.752683
0.752682
0.752683
0.752682
0.752683
0.752682
0.752683
0.752682
0.752682
0.752682
0.752682
0.752682
0.752682
0.752682
0.752681
0.752682
0.752681
0.752682
0.752681
0.752682
0.752681
0.752647
0.752648
0.75268
0.75268
0.752681
0.752681
0.752682
0.752681
0.752683
0.752682
0.752683
0.752682
0.752683
0.752682
0.752683
0.752682
0.752682
0.752682
0.752683
0.752682
0.752683
0.752682
0.752683
0.752681
0.752682
0.752681
0.752681
0.752681
0.752681
0.75268
0.752647
0.752647
0.752681
0.752681
0.752681
0.752681
0.752682
0.752681
0.752683
0.752682
0.752683
0.752682
0.752683
0.752682
0.752682
0.752682
0.752682
0.752682
0.752682
0.752683
0.752682
0.752683
0.752682
0.752683
0.752681
0.752682
0.752681
0.752681
0.752681
0.752681
0.752647
0.752647
0.75268
0.75268
0.752681
0.75268
0.752682
0.752681
0.752683
0.752681
0.752683
0.752682
0.752683
0.752682
0.752683
0.752682
0.752683
0.752682
0.752683
0.752682
0.752683
0.752682
0.752683
0.752682
0.752683
0.752682
0.752682
0.752681
0.752681
0.752681
0.752648
0.744918
0.744722
0.743754
0.742877
0.742309
0.7431
0.744546
0.745465
0.746122
0.746481
0.748475
0.751044
0.75422
0.756797
0.74976
0.751829
0.752556
0.750258
0.749136
0.748199
0.745679
0.741844
0.7356
0.728543
0.726078
0.727576
0.732494
0.736938
0.739605
0.741207
0.742439
0.743508
0.744452
0.745275
0.746106
0.746774
0.747581
0.748331
0.749107
0.750074
0.751086
0.752494
0.7542
0.756094
0.7443
0.741028
0.73735
0.736414
0.738348
0.741002
0.742869
0.744176
0.74496
0.745747
0.746149
0.746708
0.746936
0.747304
0.747473
0.747709
0.747852
0.748016
0.748136
0.748266
0.748362
0.748491
0.748559
0.748703
0.748768
0.748925
0.749039
0.749225
0.749462
0.749674
0.747525
0.747806
0.748066
0.748295
0.74843
0.74855
0.748615
0.748692
0.748724
0.748776
0.748795
0.74883
0.748841
0.748865
0.748871
0.748888
0.748891
0.748901
0.748905
0.748909
0.748914
0.748916
0.748919
0.748921
0.748923
0.748926
0.748928
0.748932
0.748936
0.748907
0.748907
0.748937
0.748934
0.74893
0.748928
0.748927
0.748927
0.748927
0.748927
0.748927
0.748927
0.748927
0.748927
0.748927
0.748928
0.748927
0.748927
0.748927
0.748927
0.748927
0.748927
0.748927
0.748927
0.748927
0.748928
0.748929
0.74893
0.748933
0.748936
0.748905
0.748906
0.748936
0.748933
0.74893
0.748929
0.748928
0.748927
0.748927
0.748927
0.748927
0.748927
0.748927
0.748927
0.748927
0.748927
0.748927
0.748927
0.748927
0.748927
0.748927
0.748927
0.748927
0.748927
0.748927
0.748928
0.748929
0.74893
0.748933
0.748935
0.748906
0.748905
0.748936
0.748933
0.74893
0.748929
0.748928
0.748927
0.748927
0.748927
0.748927
0.748927
0.748927
0.748927
0.748927
0.748927
0.748927
0.748927
0.748927
0.748927
0.748926
0.748927
0.748927
0.748927
0.748927
0.748928
0.748929
0.748931
0.748933
0.748936
0.748906
0.748905
0.748935
0.748934
0.74893
0.748929
0.748928
0.748927
0.748927
0.748927
0.748927
0.748927
0.748927
0.748927
0.748927
0.748927
0.748927
0.748927
0.748927
0.748927
0.748927
0.748927
0.748927
0.748927
0.748927
0.748928
0.748928
0.74893
0.748933
0.748935
0.748906
0.748906
0.748935
0.748933
0.74893
0.748929
0.748928
0.748927
0.748927
0.748927
0.748927
0.748927
0.748927
0.748927
0.748927
0.748927
0.748927
0.748927
0.748927
0.748927
0.748927
0.748927
0.748927
0.748927
0.748927
0.748928
0.748929
0.74893
0.748933
0.748935
0.748906
0.748906
0.748935
0.748933
0.74893
0.748929
0.748928
0.748927
0.748928
0.748927
0.748927
0.748927
0.748927
0.748927
0.748927
0.748927
0.748927
0.748927
0.748927
0.748927
0.748927
0.748927
0.748927
0.748927
0.748927
0.748928
0.748929
0.74893
0.748933
0.748936
0.748906
0.748906
0.748935
0.748933
0.74893
0.748929
0.748928
0.748927
0.748927
0.748927
0.748927
0.748927
0.748927
0.748927
0.748927
0.748927
0.748927
0.748927
0.748927
0.748927
0.748927
0.748927
0.748927
0.748927
0.748927
0.748928
0.748929
0.74893
0.748933
0.748935
0.748906
0.748905
0.748936
0.748933
0.748931
0.748929
0.748928
0.748927
0.748927
0.748927
0.748927
0.748927
0.748927
0.748927
0.748927
0.748927
0.748927
0.748927
0.748927
0.748927
0.748927
0.748927
0.748927
0.748927
0.748927
0.748928
0.748929
0.74893
0.748933
0.748936
0.748905
0.748906
0.748935
0.748933
0.74893
0.748929
0.748928
0.748927
0.748927
0.748927
0.748927
0.748927
0.748927
0.748927
0.748927
0.748927
0.748927
0.748927
0.748927
0.748927
0.748927
0.748927
0.748927
0.748927
0.748927
0.748928
0.74893
0.748932
0.748937
0.748944
0.748917
0.742901
0.741328
0.738356
0.736946
0.737263
0.739758
0.74232
0.743395
0.743949
0.745146
0.747404
0.748334
0.750398
0.756236
0.755678
0.75427
0.753778
0.754703
0.749561
0.746647
0.745852
0.744106
0.742705
0.738767
0.731968
0.727217
0.723546
0.722734
0.725122
0.729275
0.732317
0.734268
0.735594
0.736738
0.737761
0.738665
0.739464
0.740208
0.741012
0.741777
0.742888
0.744018
0.74558
0.747344
0.749675
0.752602
0.752115
0.750058
0.746448
0.74089
0.734794
0.731276
0.731866
0.734315
0.736411
0.737696
0.738556
0.739221
0.739771
0.740209
0.740549
0.740852
0.74106
0.741274
0.741428
0.741576
0.741706
0.741817
0.741929
0.742023
0.742123
0.742218
0.742333
0.742459
0.742675
0.742903
0.743283
0.743659
0.74256
0.742204
0.741356
0.741374
0.741726
0.741894
0.742051
0.742133
0.742214
0.742266
0.742312
0.742351
0.742374
0.742408
0.742418
0.742445
0.742449
0.74247
0.742472
0.742486
0.742489
0.742498
0.742501
0.742508
0.74251
0.742516
0.742518
0.742524
0.742527
0.742531
0.742526
0.742368
0.742228
0.742228
0.742364
0.742531
0.742539
0.74254
0.742539
0.742538
0.742537
0.742537
0.742537
0.742537
0.742537
0.742537
0.742537
0.742537
0.742537
0.742537
0.742537
0.742537
0.742537
0.742537
0.742537
0.742537
0.742537
0.742538
0.742538
0.74254
0.742541
0.74254
0.742532
0.742366
0.742225
0.742224
0.742366
0.742532
0.74254
0.742541
0.74254
0.742538
0.742538
0.742537
0.742537
0.742537
0.742537
0.742537
0.742537
0.742537
0.742537
0.742537
0.742537
0.742537
0.742537
0.742537
0.742538
0.742537
0.742537
0.742538
0.742539
0.742539
0.742541
0.742541
0.742531
0.742366
0.742224
0.742224
0.742365
0.742532
0.74254
0.742541
0.74254
0.742538
0.742538
0.742537
0.742538
0.742538
0.742537
0.742537
0.742537
0.742537
0.742537
0.742537
0.742537
0.742537
0.742537
0.742537
0.742537
0.742537
0.742537
0.742538
0.742539
0.742539
0.742541
0.74254
0.742532
0.742366
0.742224
0.742225
0.742366
0.742532
0.742541
0.742541
0.74254
0.742539
0.742538
0.742537
0.742537
0.742538
0.742537
0.742537
0.742537
0.742537
0.742537
0.742537
0.742537
0.742537
0.742537
0.742537
0.742538
0.742537
0.742538
0.742538
0.742539
0.742539
0.742541
0.74254
0.742531
0.742366
0.742224
0.742224
0.742366
0.742531
0.74254
0.74254
0.74254
0.742538
0.742538
0.742537
0.742537
0.742537
0.742537
0.742537
0.742537
0.742537
0.742537
0.742537
0.742537
0.742537
0.742537
0.742537
0.742538
0.742537
0.742538
0.742538
0.742539
0.742539
0.742541
0.742541
0.742531
0.742366
0.742224
0.742225
0.742366
0.742531
0.74254
0.742541
0.74254
0.742539
0.742538
0.742538
0.742537
0.742538