/*--------------------------------*- C++ -*----------------------------------*\
| =========                 |                                                 |
| \\      /  F ield         | OpenFOAM: The Open Source CFD Toolbox           |
|  \\    /   O peration     | Version:  2.1.1                                 |
|   \\  /    A nd           | Web:      www.OpenFOAM.org                      |
|    \\/     M anipulation  |                                                 |
\*---------------------------------------------------------------------------*/
FoamFile
{
    version     2.0;
    format      ascii;
    class       volScalarField;
    location    "0.001150000";
    object      O2;
}
// * * * * * * * * * * * * * * * * * * * * * * * * * * * * * * * * * * * * * //

dimensions      [0 0 0 0 0 0 0];

internalField   nonuniform List<scalar> 
12384
(
0.21686
0.221743
0.225446
0.226516
0.226504
0.226566
0.226593
0.226501
0.226314
0.22622
0.226197
0.226163
0.226157
0.226206
0.226726
0.227066
0.227294
0.227364
0.227394
0.227361
0.227294
0.227148
0.226989
0.22683
0.226694
0.226563
0.226444
0.226348
0.226276
0.22623
0.226198
0.226185
0.226179
0.226174
0.226177
0.226176
0.226173
0.226174
0.226177
0.226174
0.226176
0.226172
0.226173
0.226175
0.226225
0.226239
0.226226
0.226216
0.226198
0.226193
0.226179
0.22618
0.226176
0.226178
0.226178
0.226178
0.226177
0.226179
0.226176
0.22618
0.226176
0.22618
0.226176
0.22618
0.226176
0.22618
0.226176
0.226179
0.226177
0.226179
0.226177
0.226178
0.226177
0.226176
0.226176
0.226178
0.226178
0.226179
0.226178
0.226179
0.226179
0.226179
0.226179
0.226179
0.226179
0.226179
0.22618
0.22618
0.22618
0.22618
0.22618
0.22618
0.22618
0.22618
0.22618
0.22618
0.22618
0.22618
0.22618
0.22618
0.22618
0.226179
0.226179
0.226176
0.226176
0.226179
0.226179
0.22618
0.22618
0.22618
0.22618
0.22618
0.22618
0.22618
0.226181
0.226181
0.226181
0.226181
0.226182
0.226182
0.226181
0.226181
0.226181
0.226181
0.22618
0.22618
0.22618
0.22618
0.22618
0.22618
0.22618
0.22618
0.226179
0.226176
0.226176
0.226179
0.226179
0.22618
0.22618
0.22618
0.22618
0.22618
0.22618
0.22618
0.226181
0.226181
0.226181
0.226181
0.226182
0.226182
0.226181
0.226181
0.226181
0.226181
0.22618
0.22618
0.22618
0.22618
0.22618
0.22618
0.22618
0.22618
0.226179
0.226176
0.226176
0.226179
0.22618
0.22618
0.22618
0.22618
0.22618
0.22618
0.22618
0.22618
0.226181
0.226181
0.226181
0.226181
0.226182
0.226182
0.226181
0.226181
0.226181
0.226181
0.22618
0.22618
0.22618
0.22618
0.22618
0.22618
0.22618
0.226179
0.226179
0.226176
0.226176
0.226179
0.226179
0.22618
0.22618
0.22618
0.22618
0.22618
0.22618
0.22618
0.226181
0.226181
0.226181
0.226181
0.226182
0.226182
0.226181
0.226181
0.226181
0.226181
0.22618
0.22618
0.22618
0.22618
0.22618
0.22618
0.22618
0.22618
0.226179
0.226176
0.226176
0.226179
0.226179
0.22618
0.22618
0.22618
0.22618
0.22618
0.22618
0.22618
0.226181
0.226181
0.226181
0.226181
0.226182
0.226182
0.226181
0.226181
0.226181
0.226181
0.22618
0.22618
0.22618
0.22618
0.22618
0.22618
0.22618
0.22618
0.226179
0.226176
0.226176
0.226179
0.226179
0.22618
0.22618
0.22618
0.22618
0.22618
0.22618
0.22618
0.226181
0.226181
0.226181
0.226181
0.226182
0.226182
0.226181
0.226181
0.226181
0.226181
0.22618
0.22618
0.22618
0.22618
0.22618
0.22618
0.22618
0.226179
0.226179
0.226176
0.226176
0.226179
0.226179
0.22618
0.22618
0.22618
0.22618
0.22618
0.22618
0.22618
0.226181
0.226181
0.226181
0.226181
0.226182
0.226182
0.226181
0.226181
0.226181
0.226181
0.22618
0.22618
0.22618
0.22618
0.22618
0.22618
0.22618
0.22618
0.226179
0.226176
0.226176
0.226179
0.22618
0.22618
0.22618
0.22618
0.22618
0.22618
0.22618
0.22618
0.226181
0.226181
0.226181
0.226181
0.226182
0.226182
0.226181
0.226181
0.226181
0.226181
0.22618
0.22618
0.22618
0.22618
0.22618
0.22618
0.22618
0.22618
0.226179
0.226176
0.226176
0.226179
0.226179
0.22618
0.22618
0.22618
0.22618
0.22618
0.22618
0.22618
0.226181
0.226181
0.226181
0.226181
0.226182
0.226182
0.226181
0.226181
0.226181
0.226181
0.22618
0.22618
0.22618
0.22618
0.22618
0.22618
0.22618
0.22618
0.226179
0.226176
0.197784
0.206701
0.221089
0.227674
0.228549
0.228978
0.229222
0.228881
0.228705
0.227945
0.227288
0.226925
0.226703
0.226589
0.229677
0.230168
0.230148
0.230075
0.230054
0.23009
0.230115
0.230132
0.230065
0.229941
0.229753
0.229555
0.229284
0.229039
0.22874
0.22847
0.228228
0.227935
0.227695
0.227396
0.227132
0.226914
0.2267
0.226529
0.226434
0.226339
0.226302
0.226284
0.226271
0.226237
0.228434
0.22853
0.228433
0.228335
0.228192
0.228061
0.22787
0.227709
0.227524
0.227383
0.227233
0.227113
0.227012
0.226896
0.226851
0.226743
0.226717
0.226634
0.226595
0.226558
0.226499
0.226496
0.226434
0.226446
0.226405
0.2264
0.226388
0.226377
0.22638
0.226266
0.226485
0.226589
0.226582
0.22657
0.226551
0.226533
0.226523
0.226507
0.226505
0.226492
0.226495
0.226484
0.226494
0.226494
0.226505
0.226498
0.226494
0.226481
0.226479
0.226473
0.226473
0.226466
0.226464
0.226457
0.226455
0.226449
0.226447
0.226444
0.226438
0.226279
0.226275
0.226443
0.226446
0.226453
0.226456
0.226459
0.226468
0.226471
0.22648
0.226482
0.22649
0.226493
0.226507
0.226518
0.226523
0.226525
0.226515
0.226505
0.226493
0.226491
0.226483
0.226481
0.226472
0.226469
0.22646
0.226456
0.226454
0.226447
0.226443
0.226275
0.226275
0.226442
0.226446
0.226453
0.226455
0.226463
0.226466
0.226474
0.226476
0.226485
0.226487
0.226496
0.226506
0.226517
0.226525
0.226522
0.226517
0.226503
0.226497
0.226489
0.226487
0.226479
0.226476
0.226468
0.226464
0.226457
0.226453
0.226449
0.226441
0.226278
0.226275
0.226443
0.226447
0.226454
0.226456
0.226461
0.226469
0.226473
0.226481
0.226484
0.226491
0.226494
0.226506
0.226514
0.226523
0.226523
0.22652
0.226506
0.226496
0.226486
0.226482
0.226473
0.226471
0.226463
0.226461
0.226453
0.226451
0.226445
0.226441
0.226275
0.226275
0.226443
0.226448
0.226453
0.22646
0.226463
0.226472
0.226474
0.226482
0.226484
0.226491
0.226494
0.226506
0.226515
0.226525
0.226523
0.226518
0.226504
0.226497
0.226489
0.226487
0.226479
0.226477
0.226468
0.226465
0.226457
0.226453
0.226449
0.226441
0.226278
0.226277
0.226439
0.226448
0.226451
0.226459
0.226461
0.22647
0.226472
0.22648
0.226482
0.22649
0.226492
0.226505
0.226515
0.226525
0.226523
0.226518
0.226504
0.226497
0.226489
0.226487
0.226479
0.226477
0.226468
0.226464
0.226457
0.226453
0.226449
0.226441
0.226278
0.226278
0.226441
0.226448
0.226455
0.226457
0.226465
0.226469
0.226477
0.226479
0.226487
0.226488
0.226496
0.226502
0.226515
0.226521
0.226526
0.226518
0.226508
0.226493
0.226487
0.226483
0.226475
0.226472
0.226464
0.226461
0.226454
0.226452
0.226445
0.226442
0.226275
0.226278
0.22644
0.226449
0.226452
0.22646
0.226462
0.226471
0.226473
0.226481
0.226483
0.22649
0.226492
0.226505
0.226514
0.226524
0.226523
0.226519
0.226505
0.226497
0.226489
0.226487
0.226479
0.226476
0.226468
0.226464
0.226457
0.226453
0.226449
0.226441
0.226278
0.226275
0.226443
0.226448
0.226452
0.226458
0.226461
0.22647
0.226473
0.226482
0.226484
0.226492
0.226495
0.226507
0.226516
0.226525
0.226525
0.226516
0.226507
0.226494
0.226491
0.226484
0.226482
0.226473
0.226471
0.226462
0.226459
0.226453
0.226448
0.226443
0.226275
0.226278
0.226441
0.22645
0.226453
0.226461
0.226463
0.226472
0.226474
0.226483
0.226484
0.226491
0.226492
0.226504
0.226512
0.226523
0.226524
0.226519
0.226506
0.226498
0.22649
0.226488
0.226479
0.226477
0.226468
0.226465
0.226457
0.226453
0.226449
0.226441
0.226278
0.196109
0.196672
0.213269
0.222089
0.227978
0.229765
0.230416
0.23067
0.230692
0.230597
0.230468
0.229962
0.22938
0.228992
0.230893
0.230418
0.229999
0.229663
0.229527
0.229598
0.229867
0.230227
0.230547
0.230737
0.230856
0.230936
0.230982
0.231027
0.231048
0.231069
0.231069
0.231074
0.231082
0.231056
0.231028
0.230942
0.23087
0.230707
0.230551
0.230238
0.229939
0.229655
0.229456
0.229292
0.231092
0.231054
0.23105
0.231037
0.231061
0.231043
0.231068
0.23104
0.231066
0.231033
0.231057
0.231027
0.23105
0.231021
0.231043
0.231013
0.231043
0.231009
0.231047
0.231006
0.231041
0.231006
0.231029
0.230999
0.231002
0.230981
0.230973
0.230952
0.230944
0.231022
0.231136
0.231032
0.231023
0.231017
0.231016
0.231011
0.231006
0.231001
0.230996
0.230992
0.230986
0.230984
0.230975
0.230968
0.230959
0.230959
0.230963
0.230969
0.230972
0.230974
0.230975
0.230977
0.230979
0.230981
0.230983
0.230986
0.230987
0.23099
0.230992
0.23113
0.23113
0.230991
0.230986
0.230983
0.23098
0.230978
0.230973
0.230969
0.230965
0.230961
0.230958
0.230954
0.230945
0.230935
0.230933
0.230931
0.230937
0.230947
0.230954
0.230958
0.230961
0.230964
0.230968
0.230972
0.230977
0.23098
0.230982
0.230986
0.230991
0.23113
0.23113
0.230992
0.230986
0.230982
0.23098
0.230976
0.230973
0.230969
0.230966
0.230961
0.230958
0.230954
0.230944
0.230936
0.230931
0.230932
0.230938
0.230946
0.230953
0.230957
0.23096
0.230964
0.230967
0.230971
0.230975
0.230979
0.230982
0.230985
0.23099
0.23113
0.23113
0.230991
0.230986
0.230981
0.23098
0.230977
0.230972
0.230968
0.230964
0.23096
0.230957
0.230954
0.230947
0.230939
0.230933
0.230931
0.230935
0.230945
0.230953
0.230959
0.230963
0.230968
0.230971
0.230974
0.230978
0.230981
0.230983
0.230987
0.230993
0.23113
0.23113
0.230991
0.230986
0.230982
0.230978
0.230975
0.23097
0.230967
0.230963
0.230961
0.230958
0.230954
0.230946
0.230937
0.230931
0.230931
0.230937
0.230946
0.230953
0.230958
0.23096
0.230964
0.230967
0.230971
0.230975
0.230979
0.230982
0.230985
0.230991
0.23113
0.23113
0.230992
0.230986
0.230982
0.230979
0.230976
0.230972
0.230968
0.230965
0.230962
0.230959
0.230955
0.230947
0.230937
0.230931
0.230931
0.230937
0.230946
0.230953
0.230957
0.23096
0.230964
0.230967
0.230971
0.230975
0.230979
0.230982
0.230985
0.230991
0.23113
0.23113
0.230991
0.230986
0.230981
0.230978
0.230975
0.230971
0.230967
0.230964
0.230961
0.230958
0.230954
0.230948
0.230939
0.230933
0.230931
0.230935
0.230944
0.230955
0.23096
0.230962
0.230966
0.23097
0.230974
0.230977
0.230981
0.230983
0.230987
0.230992
0.23113
0.23113
0.230991
0.230985
0.230982
0.230978
0.230975
0.230971
0.230968
0.230964
0.230961
0.230958
0.230955
0.230947
0.230938
0.230931
0.230931
0.230936
0.230945
0.230953
0.230957
0.23096
0.230964
0.230967
0.230971
0.230975
0.230979
0.230982
0.230985
0.230991
0.23113
0.23113
0.23099
0.230985
0.230983
0.230979
0.230976
0.230971
0.230968
0.230964
0.23096
0.230957
0.230953
0.230946
0.230937
0.230931
0.230931
0.230937
0.230946
0.230954
0.230957
0.230961
0.230964
0.230968
0.230971
0.230975
0.230979
0.230982
0.230985
0.23099
0.23113
0.23113
0.230991
0.230985
0.230981
0.230977
0.230974
0.23097
0.230967
0.230963
0.230961
0.230958
0.230955
0.230948
0.230939
0.230932
0.23093
0.230936
0.230944
0.230952
0.230957
0.23096
0.230963
0.230967
0.230971
0.230975
0.230979
0.230982
0.230985
0.23099
0.23113
0.129091
0.109476
0.119808
0.135076
0.194898
0.211415
0.217087
0.22712
0.230034
0.230657
0.230796
0.230996
0.23079
0.230439
0.230022
0.228302
0.227142
0.226405
0.226043
0.225842
0.226047
0.226906
0.22803
0.228986
0.229607
0.229942
0.230193
0.23036
0.230484
0.230583
0.230654
0.230723
0.230766
0.230821
0.230861
0.230904
0.230931
0.230947
0.230956
0.230967
0.230963
0.23095
0.23091
0.230927
0.230565
0.230483
0.230522
0.230589
0.230626
0.230685
0.230718
0.230772
0.230794
0.230837
0.230845
0.23088
0.230878
0.230907
0.230901
0.230923
0.230919
0.230932
0.230934
0.230938
0.230945
0.230943
0.230954
0.230949
0.230958
0.230955
0.230958
0.23096
0.230961
0.230983
0.230945
0.230934
0.230935
0.230939
0.23094
0.230943
0.230945
0.230947
0.230948
0.230949
0.23095
0.23095
0.230952
0.230951
0.230952
0.230951
0.230952
0.230952
0.230952
0.230952
0.230952
0.230951
0.230951
0.230951
0.230951
0.230951
0.230951
0.230951
0.230952
0.230976
0.230976
0.230951
0.23095
0.23095
0.23095
0.23095
0.23095
0.23095
0.23095
0.23095
0.23095
0.23095
0.23095
0.230949
0.23095
0.23095
0.230949
0.23095
0.23095
0.23095
0.23095
0.23095
0.23095
0.23095
0.23095
0.23095
0.23095
0.23095
0.230951
0.230976
0.230976
0.230951
0.23095
0.23095
0.23095
0.23095
0.23095
0.23095
0.23095
0.23095
0.23095
0.23095
0.23095
0.230949
0.23095
0.230949
0.23095
0.230949
0.23095
0.23095
0.23095
0.23095
0.23095
0.23095
0.23095
0.23095
0.23095
0.23095
0.230951
0.230976
0.230976
0.230951
0.23095
0.23095
0.23095
0.23095
0.23095
0.23095
0.23095
0.23095
0.23095
0.23095
0.23095
0.230949
0.23095
0.230949
0.23095
0.230949
0.23095
0.23095
0.23095
0.23095
0.23095
0.23095
0.23095
0.23095
0.23095
0.23095
0.230951
0.230976
0.230976
0.230951
0.23095
0.23095
0.23095
0.23095
0.23095
0.23095
0.23095
0.23095
0.23095
0.23095
0.23095
0.230949
0.23095
0.230949
0.23095
0.230949
0.23095
0.23095
0.23095
0.23095
0.23095
0.23095
0.23095
0.23095
0.23095
0.23095
0.230951
0.230976
0.230976
0.230951
0.23095
0.23095
0.23095
0.23095
0.23095
0.23095
0.23095
0.23095
0.23095
0.23095
0.23095
0.230949
0.23095
0.230949
0.23095
0.230949
0.23095
0.23095
0.23095
0.23095
0.23095
0.23095
0.23095
0.23095
0.23095
0.23095
0.230951
0.230976
0.230976
0.230951
0.23095
0.23095
0.23095
0.23095
0.23095
0.23095
0.23095
0.23095
0.23095
0.23095
0.230949
0.23095
0.230949
0.23095
0.230949
0.23095
0.23095
0.23095
0.23095
0.23095
0.23095
0.23095
0.23095
0.23095
0.23095
0.23095
0.230951
0.230976
0.230976
0.230951
0.23095
0.23095
0.23095
0.23095
0.23095
0.23095
0.23095
0.23095
0.23095
0.23095
0.23095
0.230949
0.23095
0.230949
0.23095
0.230949
0.23095
0.23095
0.23095
0.23095
0.23095
0.23095
0.23095
0.23095
0.23095
0.23095
0.230951
0.230976
0.230976
0.230951
0.23095
0.23095
0.23095
0.23095
0.23095
0.23095
0.23095
0.23095
0.23095
0.23095
0.23095
0.230949
0.23095
0.23095
0.230949
0.23095
0.23095
0.23095
0.23095
0.23095
0.23095
0.23095
0.23095
0.23095
0.23095
0.23095
0.230951
0.230976
0.230976
0.230951
0.23095
0.23095
0.23095
0.23095
0.23095
0.23095
0.23095
0.23095
0.23095
0.23095
0.23095
0.230949
0.23095
0.230949
0.23095
0.230949
0.23095
0.23095
0.23095
0.23095
0.23095
0.23095
0.23095
0.23095
0.23095
0.23095
0.230951
0.230976
0.025886
0.0186832
0.021607
0.0559237
0.0902094
0.102505
0.106469
0.168978
0.210061
0.227442
0.230122
0.230477
0.230776
0.230935
0.228791
0.226413
0.225656
0.225209
0.224619
0.224241
0.223781
0.223668
0.224411
0.226029
0.227502
0.228463
0.228975
0.229331
0.229553
0.229724
0.229866
0.229975
0.230064
0.230146
0.230212
0.230296
0.230364
0.230446
0.230525
0.230609
0.230703
0.230752
0.230815
0.230853
0.229655
0.229335
0.229452
0.229593
0.229756
0.22986
0.229979
0.230044
0.230133
0.230161
0.230229
0.230236
0.230288
0.230285
0.230326
0.23032
0.23035
0.230346
0.230368
0.230364
0.230384
0.230377
0.230397
0.23039
0.230409
0.230408
0.230424
0.23043
0.230441
0.230446
0.230365
0.230365
0.230372
0.230375
0.230382
0.230386
0.23039
0.230394
0.230396
0.230399
0.230399
0.230403
0.230401
0.230405
0.230403
0.230406
0.230404
0.230407
0.230406
0.230407
0.230406
0.230407
0.230407
0.230407
0.230407
0.230408
0.230407
0.230407
0.230408
0.230409
0.23041
0.230408
0.230408
0.230407
0.230408
0.230408
0.230408
0.230408
0.230407
0.230408
0.230407
0.230408
0.230407
0.230408
0.230408
0.230407
0.230408
0.230407
0.230408
0.230407
0.230408
0.230407
0.230408
0.230407
0.230408
0.230408
0.230407
0.230408
0.230408
0.23041
0.23041
0.230408
0.230408
0.230407
0.230408
0.230407
0.230408
0.230407
0.230408
0.230407
0.230408
0.230407
0.230408
0.230408
0.230407
0.230408
0.230407
0.230408
0.230407
0.230408
0.230407
0.230408
0.230407
0.230408
0.230407
0.230408
0.230408
0.230407
0.230408
0.230409
0.23041
0.230408
0.230408
0.230407
0.230408
0.230408
0.230407
0.230408
0.230407
0.230408
0.230407
0.230408
0.230407
0.230408
0.230407
0.230408
0.230407
0.230408
0.230407
0.230408
0.230407
0.230408
0.230407
0.230408
0.230407
0.230408
0.230407
0.230408
0.230408
0.23041
0.23041
0.230408
0.230408
0.230408
0.230407
0.230408
0.230407
0.230408
0.230407
0.230408
0.230407
0.230408
0.230407
0.230408
0.230407
0.230408
0.230407
0.230408
0.230407
0.230408
0.230407
0.230408
0.230407
0.230408
0.230407
0.230408
0.230407
0.230407
0.230408
0.230409
0.230409
0.230408
0.230407
0.230408
0.230407
0.230408
0.230407
0.230408
0.230407
0.230408
0.230407
0.230408
0.230407
0.230408
0.230407
0.230408
0.230407
0.230408
0.230407
0.230408
0.230407
0.230408
0.230407
0.230408
0.230407
0.230408
0.230407
0.230407
0.230408
0.230409
0.230409
0.230408
0.230408
0.230407
0.230408
0.230407
0.230408
0.230407
0.230408
0.230407
0.230408
0.230407
0.230408
0.230407
0.230408
0.230407
0.230408
0.230407
0.230408
0.230408
0.230408
0.230408
0.230407
0.230408
0.230407
0.230408
0.230407
0.230408
0.230408
0.23041
0.230409
0.230408
0.230407
0.230408
0.230407
0.230408
0.230407
0.230408
0.230407
0.230408
0.230407
0.230408
0.230407
0.230408
0.230407
0.230408
0.230407
0.230408
0.230407
0.230408
0.230407
0.230408
0.230407
0.230408
0.230407
0.230408
0.230408
0.230407
0.230408
0.230409
0.23041
0.230408
0.230408
0.230408
0.230408
0.230408
0.230407
0.230408
0.230407
0.230408
0.230407
0.230408
0.230407
0.230408
0.230407
0.230407
0.230408
0.230407
0.230408
0.230407
0.230408
0.230407
0.230408
0.230407
0.230408
0.230408
0.230408
0.230408
0.230408
0.23041
0.230409
0.230408
0.230407
0.230408
0.230407
0.230408
0.230407
0.230408
0.230407
0.230408
0.230407
0.230408
0.230407
0.230408
0.230407
0.230408
0.230407
0.230408
0.230407
0.230408
0.230407
0.230408
0.230407
0.230408
0.230407
0.230408
0.230408
0.230407
0.230408
0.230409
0.00894567
0.00845827
0.0087391
0.0125178
0.0240659
0.0402798
0.0518023
0.0708669
0.0808952
0.180655
0.219989
0.229216
0.230284
0.230733
0.227864
0.226033
0.222252
0.212328
0.202008
0.20928
0.216771
0.221671
0.222277
0.222697
0.224327
0.22611
0.227201
0.227847
0.228214
0.228535
0.228731
0.22895
0.229089
0.229228
0.229365
0.229498
0.22961
0.229759
0.229873
0.230017
0.230147
0.23029
0.230425
0.230561
0.228281
0.227574
0.227678
0.228038
0.228383
0.228679
0.228881
0.229063
0.229174
0.2293
0.229356
0.229447
0.229475
0.229542
0.229558
0.22961
0.229615
0.22966
0.229661
0.229697
0.2297
0.229728
0.229733
0.229758
0.229764
0.229787
0.229795
0.229815
0.229833
0.229867
0.229666
0.229665
0.229681
0.229702
0.229713
0.22973
0.229737
0.229748
0.229753
0.229761
0.229764
0.229769
0.229771
0.229773
0.229775
0.229776
0.229778
0.229779
0.229779
0.22978
0.22978
0.229781
0.229781
0.229782
0.229781
0.229782
0.229782
0.229782
0.229783
0.22981
0.22981
0.229783
0.229782
0.229781
0.229782
0.229782
0.229782
0.229782
0.229782
0.229782
0.229782
0.229782
0.229781
0.229781
0.229782
0.229781
0.229782
0.229781
0.229782
0.229782
0.229782
0.229782
0.229782
0.229782
0.229782
0.229782
0.229782
0.229782
0.229783
0.229811
0.229811
0.229783
0.229782
0.229782
0.229782
0.229782
0.229782
0.229782
0.229782
0.229782
0.229782
0.229782
0.229782
0.229781
0.229781
0.229782
0.229781
0.229782
0.229782
0.229782
0.229782
0.229782
0.229782
0.229782
0.229782
0.229782
0.229781
0.229781
0.229783
0.229811
0.22981
0.229783
0.229782
0.229781
0.229782
0.229782
0.229782
0.229782
0.229782
0.229782
0.229782
0.229782
0.229782
0.229782
0.229781
0.229782
0.229781
0.229782
0.229782
0.229782
0.229781
0.229782
0.229782
0.229782
0.229782
0.229782
0.229782
0.229782
0.229783
0.229811
0.229811
0.229783
0.229782
0.229782
0.229782
0.229782
0.229782
0.229782
0.229782
0.229782
0.229782
0.229782
0.229781
0.229781
0.229781
0.229781
0.229781
0.229782
0.229782
0.229782
0.229782
0.229782
0.229782
0.229782
0.229782
0.229782
0.229781
0.229781
0.229783
0.229811
0.229811
0.229783
0.229781
0.229781
0.229782
0.229782
0.229782
0.229782
0.229782
0.229782
0.229782
0.229782
0.229781
0.229781
0.229781
0.229781
0.229781
0.229782
0.229782
0.229782
0.229782
0.229782
0.229782
0.229782
0.229782
0.229782
0.229781
0.229781
0.229783
0.229811
0.229811
0.229783
0.229782
0.229781
0.229782
0.229782
0.229782
0.229782
0.229782
0.229782
0.229782
0.229782
0.229782
0.229781
0.229781
0.229781
0.229781
0.229781
0.229781
0.229782
0.229782
0.229782
0.229782
0.229782
0.229782
0.229782
0.229782
0.229782
0.229783
0.229811
0.229811
0.229783
0.229781
0.229781
0.229781
0.229782
0.229782
0.229782
0.229782
0.229782
0.229782
0.229782
0.229781
0.229781
0.229781
0.229781
0.229781
0.229782
0.229782
0.229782
0.229782
0.229782
0.229782
0.229782
0.229782
0.229782
0.229781
0.229781
0.229783
0.229811
0.229811
0.229783
0.229781
0.229782
0.229782
0.229782
0.229782
0.229782
0.229782
0.229782
0.229782
0.229782
0.229781
0.229781
0.229781
0.229781
0.229781
0.229781
0.229782
0.229782
0.229782
0.229782
0.229782
0.229782
0.229782
0.229782
0.229782
0.229782
0.229783
0.229811
0.229811
0.229783
0.229781
0.229781
0.229781
0.229782
0.229782
0.229782
0.229782
0.229782
0.229782
0.229782
0.229781
0.229781
0.229781
0.229781
0.229781
0.229781
0.229781
0.229781
0.229781
0.229782
0.229782
0.229782
0.229782
0.229782
0.229781
0.229782
0.229783
0.229811
0.00885985
0.00918494
0.00883393
0.00781525
0.00812482
0.0115545
0.0197885
0.0273826
0.0376617
0.0453501
0.0638756
0.20016
0.228484
0.230296
0.226818
0.221204
0.187124
0.144324
0.0572853
0.0456942
0.158875
0.194845
0.218679
0.221349
0.221676
0.22329
0.224955
0.225989
0.226594
0.226945
0.227253
0.2275
0.227715
0.227886
0.228058
0.22821
0.228364
0.228538
0.228723
0.228951
0.229181
0.229444
0.229744
0.230073
0.226651
0.22573
0.225495
0.225816
0.226454
0.226989
0.227385
0.227631
0.227836
0.227966
0.228087
0.228158
0.228242
0.228277
0.228341
0.228357
0.228407
0.228418
0.228454
0.228466
0.22849
0.228506
0.228522
0.228543
0.228555
0.228584
0.228605
0.228643
0.228688
0.228727
0.228387
0.228421
0.228458
0.228483
0.228505
0.228519
0.228533
0.228541
0.22855
0.228556
0.228561
0.228566
0.228568
0.228573
0.228573
0.228577
0.228577
0.228579
0.22858
0.228581
0.228582
0.228582
0.228583
0.228583
0.228584
0.228584
0.228585
0.228585
0.228585
0.228576
0.228576
0.228586
0.228586
0.228586
0.228586
0.228586
0.228586
0.228587
0.228586
0.228587
0.228586
0.228587
0.228587
0.228587
0.228587
0.228587
0.228587
0.228586
0.228587
0.228586
0.228587
0.228586
0.228587
0.228586
0.228586
0.228586
0.228586
0.228586
0.228586
0.228576
0.228576
0.228586
0.228586
0.228586
0.228586
0.228586
0.228587
0.228586
0.228587
0.228586
0.228587
0.228587
0.228587
0.228587
0.228587
0.228587
0.228587
0.228587
0.228586
0.228587
0.228586
0.228587
0.228586
0.228587
0.228586
0.228586
0.228586
0.228586
0.228586
0.228576
0.228576
0.228586
0.228586
0.228586
0.228586
0.228586
0.228586
0.228587
0.228586
0.228587
0.228586
0.228587
0.228587
0.228587
0.228587
0.228587
0.228587
0.228587
0.228586
0.228587
0.228586
0.228587
0.228586
0.228587
0.228586
0.228586
0.228586
0.228586
0.228586
0.228576
0.228576
0.228586
0.228586
0.228586
0.228586
0.228587
0.228586
0.228587
0.228586
0.228587
0.228586
0.228587
0.228586
0.228587
0.228587
0.228587
0.228587
0.228587
0.228586
0.228587
0.228586
0.228587
0.228586
0.228587
0.228586
0.228586
0.228586
0.228586
0.228586
0.228576
0.228576
0.228586
0.228586
0.228586
0.228586
0.228587
0.228586
0.228587
0.228586
0.228587
0.228586
0.228587
0.228586
0.228587
0.228587
0.228587
0.228587
0.228587
0.228586
0.228587
0.228586
0.228587
0.228586
0.228587
0.228586
0.228586
0.228586
0.228586
0.228586
0.228576
0.228576
0.228586
0.228586
0.228586
0.228586
0.228586
0.228587
0.228586
0.228587
0.228586
0.228587
0.228586
0.228587
0.228587
0.228587
0.228587
0.228587
0.228586
0.228587
0.228587
0.228586
0.228587
0.228586
0.228587
0.228586
0.228586
0.228586
0.228586
0.228586
0.228576
0.228576
0.228586
0.228586
0.228586
0.228586
0.228587
0.228586
0.228587
0.228586
0.228587
0.228586
0.228587
0.228586
0.228587
0.228587
0.228587
0.228587
0.228587
0.228586
0.228587
0.228586
0.228587
0.228586
0.228587
0.228586
0.228586
0.228586
0.228586
0.228586
0.228576
0.228576
0.228586
0.228586
0.228586
0.228586
0.228586
0.228586
0.228587
0.228586
0.228587
0.228586
0.228587
0.228586
0.228587
0.228587
0.228587
0.228587
0.228586
0.228587
0.228586
0.228587
0.228586
0.228587
0.228586
0.228587
0.228586
0.228586
0.228586
0.228586
0.228576
0.228576
0.228586
0.228586
0.228586
0.228586
0.228587
0.228586
0.228587
0.228586
0.228587
0.228586
0.228587
0.228586
0.228587
0.228586
0.228587
0.228587
0.228587
0.228587
0.228587
0.228586
0.228587
0.228586
0.228587
0.228586
0.228586
0.228586
0.228586
0.228586
0.228576
0.00910504
0.00820006
0.00526856
0.00250885
0.00136575
0.00230121
0.00550149
0.00834501
0.0127292
0.0155668
0.0342216
0.192854
0.226069
0.229773
0.222074
0.18317
0.0777211
0.052989
0.0410765
0.0314234
0.00948531
0.000497295
0.192111
0.219355
0.220503
0.220962
0.222455
0.223805
0.224615
0.225101
0.225476
0.225801
0.226087
0.226337
0.226589
0.226792
0.227037
0.227265
0.227501
0.227795
0.228102
0.228529
0.229048
0.229623
0.226041
0.225047
0.22393
0.223646
0.224233
0.225039
0.225606
0.226003
0.226241
0.22648
0.226602
0.226772
0.226841
0.226953
0.227005
0.227076
0.22712
0.22717
0.227206
0.227245
0.227274
0.227314
0.227334
0.227378
0.227398
0.227446
0.22748
0.227537
0.227609
0.227673
0.22702
0.227106
0.227185
0.227254
0.227295
0.227332
0.227351
0.227375
0.227385
0.2274
0.227406
0.227417
0.22742
0.227427
0.227429
0.227434
0.227435
0.227438
0.227439
0.227441
0.227442
0.227443
0.227444
0.227444
0.227445
0.227446
0.227446
0.227448
0.227449
0.22744
0.22744
0.227449
0.227448
0.227447
0.227447
0.227446
0.227446
0.227446
0.227446
0.227446
0.227446
0.227446
0.227446
0.227446
0.227446
0.227446
0.227446
0.227446
0.227446
0.227446
0.227446
0.227446
0.227446
0.227446
0.227446
0.227447
0.227447
0.227448
0.227449
0.22744
0.22744
0.227449
0.227448
0.227447
0.227447
0.227446
0.227446
0.227446
0.227446
0.227446
0.227446
0.227446
0.227446
0.227446
0.227446
0.227446
0.227446
0.227446
0.227446
0.227446
0.227446
0.227446
0.227446
0.227446
0.227446
0.227447
0.227447
0.227448
0.227449
0.22744
0.22744
0.227449
0.227448
0.227447
0.227447
0.227446
0.227446
0.227446
0.227446
0.227446
0.227446
0.227446
0.227446
0.227446
0.227446
0.227446
0.227446
0.227446
0.227446
0.227446
0.227446
0.227446
0.227446
0.227446
0.227446
0.227447
0.227447
0.227448
0.227449
0.22744
0.22744
0.227449
0.227448
0.227447
0.227447
0.227446
0.227446
0.227446
0.227446
0.227446
0.227446
0.227446
0.227446
0.227446
0.227446
0.227446
0.227446
0.227446
0.227446
0.227446
0.227446
0.227446
0.227446
0.227446
0.227446
0.227447
0.227447
0.227448
0.227449
0.22744
0.22744
0.227449
0.227448
0.227447
0.227447
0.227446
0.227446
0.227446
0.227446
0.227446
0.227446
0.227446
0.227446
0.227446
0.227446
0.227446
0.227446
0.227446
0.227446
0.227446
0.227446
0.227446
0.227446
0.227446
0.227446
0.227447
0.227447
0.227448
0.227449
0.22744
0.22744
0.227449
0.227448
0.227447
0.227447
0.227446
0.227446
0.227446
0.227446
0.227446
0.227446
0.227446
0.227446
0.227446
0.227446
0.227446
0.227446
0.227446
0.227446
0.227446
0.227446
0.227446
0.227446
0.227446
0.227446
0.227447
0.227447
0.227448
0.227449
0.22744
0.22744
0.227449
0.227448
0.227447
0.227447
0.227446
0.227446
0.227446
0.227446
0.227446
0.227446
0.227446
0.227446
0.227446
0.227446
0.227446
0.227446
0.227446
0.227446
0.227446
0.227446
0.227446
0.227446
0.227446
0.227446
0.227447
0.227447
0.227448
0.227449
0.22744
0.22744
0.227449
0.227448
0.227447
0.227447
0.227446
0.227446
0.227446
0.227446
0.227446
0.227446
0.227446
0.227446
0.227446
0.227446
0.227446
0.227446
0.227446
0.227446
0.227446
0.227446
0.227446
0.227446
0.227446
0.227446
0.227447
0.227447
0.227448
0.227449
0.22744
0.22744
0.227449
0.227448
0.227447
0.227447
0.227446
0.227446
0.227446
0.227446
0.227446
0.227446
0.227446
0.227446
0.227446
0.227446
0.227446
0.227446
0.227446
0.227446
0.227446
0.227446
0.227446
0.227446
0.227446
0.227446
0.227447
0.227448
0.227449
0.227451
0.227443
0.00288864
0.00116142
0.000193213
7.76713e-05
7.07445e-05
0.000253146
0.0011869
0.0020385
0.00307598
0.00661066
0.023693
0.0327993
0.0544652
0.209884
0.217169
0.218702
0.212325
0.100941
0.045535
0.0168707
0.0105218
0.00337041
0.000654261
7.81568e-05
0.150993
0.212083
0.21969
0.219491
0.220217
0.221478
0.222402
0.222994
0.223397
0.223744
0.224055
0.22433
0.224572
0.224798
0.225042
0.225275
0.225612
0.225955
0.22643
0.226965
0.227673
0.228562
0.228414
0.22779
0.226693
0.225005
0.223154
0.222085
0.222265
0.223008
0.223645
0.224035
0.224297
0.224498
0.224665
0.224798
0.224902
0.224994
0.225057
0.225122
0.225169
0.225214
0.225253
0.225287
0.225321
0.225349
0.22538
0.225409
0.225444
0.225482
0.225548
0.225617
0.225732
0.225846
0.225513
0.225404
0.225147
0.225152
0.225259
0.22531
0.225358
0.225383
0.225407
0.225423
0.225437
0.225449
0.225456
0.225466
0.225469
0.225477
0.225479
0.225485
0.225486
0.22549
0.225491
0.225494
0.225495
0.225497
0.225497
0.225499
0.2255
0.225502
0.225503
0.225504
0.225502
0.225454
0.225412
0.225412
0.225453
0.225504
0.225506
0.225507
0.225506
0.225506
0.225506
0.225506
0.225506
0.225506
0.225506
0.225505
0.225506
0.225505
0.225506
0.225506
0.225506
0.225506
0.225506
0.225506
0.225506
0.225506
0.225506
0.225506
0.225506
0.225506
0.225507
0.225506
0.225504
0.225453
0.225411
0.225411
0.225454
0.225504
0.225507
0.225507
0.225506
0.225506
0.225506
0.225506
0.225506
0.225506
0.225506
0.225506
0.225506
0.225505
0.225506
0.225506
0.225506
0.225506
0.225506
0.225506
0.225506
0.225506
0.225506
0.225506
0.225506
0.225506
0.225507
0.225507
0.225504
0.225454
0.225411
0.225411
0.225453
0.225504
0.225506
0.225507
0.225506
0.225506
0.225506
0.225506
0.225506
0.225506
0.225506
0.225506
0.225506
0.225506
0.225506
0.225506
0.225506
0.225506
0.225506
0.225506
0.225506
0.225506
0.225506
0.225506
0.225506
0.225506
0.225507
0.225507
0.225504
0.225453
0.225411
0.225411
0.225454
0.225504
0.225507
0.225507
0.225506
0.225506
0.225506
0.225506
0.225506
0.225506
0.225506
0.225506
0.225506
0.225506
0.225506
0.225506
0.225506
0.225506
0.225506
0.225506
0.225506
0.225506
0.225506
0.225506
0.225506
0.225506
0.225507
0.225507
0.225504
0.225454
0.225411
0.225411
0.225454
0.225504
0.225507
0.225507
0.225506
0.225506
0.225506
0.225506
0.225506
0.225506
0.225506
0.225506
0.225506
0.225506
0.225506
0.225506
0.225506
0.225506
0.225506
0.225506
0.225506
0.225506
0.225506
0.225506
0.225506
0.225506
0.225507
0.225507
0.225504
0.225454
0.225411
0.225411
0.225454
0.225504
0.225507
0.225507
0.225506
0.225506
0.225506
0.225506
0.225506
0.225506
0.225506
0.225506
0.225506
0.225506
0.225506
0.225506
0.225506
0.225506
0.225505
0.225506
0.225506