/*--------------------------------*- C++ -*----------------------------------*\
| =========                 |                                                 |
| \\      /  F ield         | OpenFOAM: The Open Source CFD Toolbox           |
|  \\    /   O peration     | Version:  2.1.1                                 |
|   \\  /    A nd           | Web:      www.OpenFOAM.org                      |
|    \\/     M anipulation  |                                                 |
\*---------------------------------------------------------------------------*/
FoamFile
{
    version     2.0;
    format      ascii;
    class       volScalarField;
    location    "0.000550000";
    object      HO2;
}
// * * * * * * * * * * * * * * * * * * * * * * * * * * * * * * * * * * * * * //

dimensions      [0 0 0 0 0 0 0];

internalField   nonuniform List<scalar> 
12384
(
1.46491e-09
7.59003e-10
1.09498e-10
2.22658e-12
4.28655e-14
8.21521e-16
1.33747e-17
2.19065e-19
3.16959e-21
3.6681e-23
3.53884e-25
2.90371e-27
2.18295e-29
1.5204e-31
1.76089e-46
9.36434e-48
5.70615e-50
2.99007e-52
1.41706e-54
6.18951e-57
2.42788e-59
9.962e-62
3.64967e-64
1.45322e-66
5.27428e-69
2.12259e-71
7.85699e-74
3.25723e-76
1.3198e-78
5.66469e-81
2.54351e-83
1.22856e-85
6.24464e-88
3.38388e-90
1.90476e-92
1.10767e-94
6.48647e-97
3.76159e-99
2.12223e-101
1.15409e-103
6.03328e-106
3.04124e-108
1.47557e-110
6.92139e-113
9.16904e-123
3.09655e-123
3.27181e-125
2.2028e-127
1.16186e-129
5.22479e-132
2.09721e-134
7.72119e-137
2.65458e-139
8.72307e-142
2.77303e-144
8.59891e-147
2.61436e-149
7.75287e-152
2.24208e-154
6.25015e-157
1.6601e-159
4.21194e-162
1.03171e-164
2.45879e-167
5.72695e-170
8.08203e-173
9.5545e-177
5.42816e-180
7.69243e-183
1.2113e-185
1.74285e-188
2.06955e-191
2.06607e-194
2.22181e-198
2.61789e-216
4.2507e-214
1.00113e-216
1.37263e-219
1.377e-222
1.20545e-225
9.40946e-229
6.74723e-232
4.57004e-235
2.95148e-238
1.83504e-241
1.10922e-244
6.76854e-248
4.19969e-251
2.41029e-254
1.24143e-257
5.39161e-261
2.09037e-264
7.51042e-268
2.63068e-271
8.95395e-275
2.97982e-278
9.66491e-282
3.08069e-285
9.58001e-289
2.93904e-292
8.96332e-296
2.634e-299
7.44622e-303
4.98551e-307
0
0
0
0
0
0
0
0
0
0
0
0
0
0
0
0
0
0
0
0
0
0
0
0
0
0
0
0
0
0
0
0
0
0
0
0
0
0
0
0
0
0
0
0
0
0
0
0
0
0
0
0
0
0
0
0
0
0
0
0
0
0
0
0
0
0
0
0
0
0
0
0
0
0
0
0
0
0
0
0
0
0
0
0
0
0
0
0
0
0
0
0
0
0
0
0
0
0
0
0
0
0
0
0
0
0
0
0
0
0
0
0
0
0
0
0
0
0
0
0
0
0
0
0
0
0
0
0
0
0
0
0
0
0
0
0
0
0
0
0
0
0
0
0
0
0
0
0
0
0
0
0
0
0
0
0
0
0
0
0
0
0
0
0
0
0
0
0
0
0
0
0
0
0
0
0
0
0
0
0
0
0
0
0
0
0
0
0
0
0
0
0
0
0
0
0
0
0
0
0
0
0
0
0
0
0
0
0
0
0
0
0
0
0
0
0
0
0
0
0
0
0
0
0
0
0
0
0
0
0
0
0
0
0
0
0
0
0
0
0
0
0
0
0
0
0
0
0
0
0
0
0
0
0
0
0
0
0
0
0
0
0
0
0
0
0
0
0
0
0
8.64134e-08
5.81633e-08
5.78402e-09
1.2353e-10
1.39778e-12
1.53584e-14
2.57471e-16
3.65668e-18
4.56482e-20
4.85524e-22
4.71032e-24
3.6225e-26
2.71484e-28
2.01124e-30
8.40399e-44
4.57904e-45
2.27515e-47
1.07828e-49
4.74276e-52
1.88651e-54
6.90871e-57
2.40105e-59
8.64003e-62
3.1615e-64
1.19371e-66
4.59561e-69
1.72158e-71
6.32567e-74
2.46684e-76
9.11546e-79
3.48644e-81
1.44847e-83
5.86226e-86
2.88082e-88
1.50787e-90
8.40073e-93
5.26847e-95
2.99318e-97
1.79759e-99
1.02697e-101
5.45031e-104
3.01474e-106
1.48909e-108
6.84934e-111
3.50218e-120
9.3458e-121
1.03974e-122
7.45553e-125
4.19326e-127
1.99672e-129
8.38402e-132
3.18686e-134
1.12234e-136
3.76986e-139
1.21522e-141
3.83196e-144
1.18509e-146
3.56554e-149
1.04317e-151
2.93744e-154
7.87045e-157
1.9946e-159
4.90755e-162
1.17209e-164
2.75278e-167
6.29257e-170
8.48201e-173
3.92157e-176
5.12991e-179
8.08085e-182
1.15388e-184
1.40476e-187
1.41669e-190
2.42432e-194
7.02145e-212
3.69286e-210
8.37837e-213
1.113e-215
1.11066e-218
9.64648e-222
7.57418e-225
5.42658e-228
3.68705e-231
2.35035e-234
1.45315e-237
8.53342e-241
5.03716e-244
2.95584e-247
1.65454e-250
8.58457e-254
3.99957e-257
1.63698e-260
6.23441e-264
2.24901e-267
7.94613e-271
2.69843e-274
8.97264e-278
2.88459e-281
9.04694e-285
2.75934e-288
8.30853e-292
2.45496e-295
7.03474e-299
7.48379e-303
0
0
0
0
0
0
0
0
0
0
0
0
0
0
0
0
0
0
0
0
0
0
0
0
0
0
0
0
0
0
0
0
0
0
0
0
0
0
0
0
0
0
0
0
0
0
0
0
0
0
0
0
0
0
0
0
0
0
0
0
0
0
0
0
0
0
0
0
0
0
0
0
0
0
0
0
0
0
0
0
0
0
0
0
0
0
0
0
0
0
0
0
0
0
0
0
0
0
0
0
0
0
0
0
0
0
0
0
0
0
0
0
0
0
0
0
0
0
0
0
0
0
0
0
0
0
0
0
0
0
0
0
0
0
0
0
0
0
0
0
0
0
0
0
0
0
0
0
0
0
0
0
0
0
0
0
0
0
0
0
0
0
0
0
0
0
0
0
0
0
0
0
0
0
0
0
0
0
0
0
0
0
0
0
0
0
0
0
0
0
0
0
0
0
0
0
0
0
0
0
0
0
0
0
0
0
0
0
0
0
0
0
0
0
0
0
0
0
0
0
0
0
0
0
0
0
0
0
0
0
0
0
0
0
0
0
0
0
0
0
0
0
0
0
0
0
0
0
0
0
0
0
0
0
0
0
0
0
0
0
0
0
0
0
0
0
0
0
0
0
2.59892e-09
2.94991e-09
4.37427e-10
5.8532e-11
1.59952e-13
9.40179e-15
3.32525e-17
3.34736e-20
2.9351e-23
4.68398e-26
7.8163e-29
8.02909e-31
1.72021e-32
2.28245e-34
2.76787e-44
1.78835e-45
8.02647e-48
3.76268e-50
1.84037e-52
6.53681e-55
2.53821e-57
7.98107e-60
3.05762e-62
1.21245e-64
5.01784e-67
2.03147e-69
8.52097e-72
3.20188e-74
1.31726e-76
5.03507e-79
1.91603e-81
7.00774e-84
2.60055e-86
9.02268e-89
3.4177e-91
1.22534e-93
4.50086e-96
1.76375e-98
7.25451e-101
3.47462e-103
1.74062e-105
9.6818e-108
5.94416e-110
8.59502e-113
3.03458e-120
5.74002e-121
6.2926e-123
4.69852e-125
2.91599e-127
1.56541e-129
7.12079e-132
2.79665e-134
9.88235e-137
3.30542e-139
1.04476e-141
3.23664e-144
9.8665e-147
2.88324e-149
8.2141e-152
2.25909e-154
5.996e-157
1.50939e-159
3.7833e-162
9.17012e-165
2.18723e-167
5.0319e-170
1.14262e-172
2.40444e-175
4.23552e-178
7.1901e-181
1.0221e-183
1.24193e-186
1.21693e-189
1.41504e-193
4.04855e-210
5.37462e-209
1.05902e-211
1.26158e-214
1.14886e-217
9.10356e-221
6.54293e-224
4.3556e-227
2.75998e-230
1.6594e-233
9.64869e-237
5.32401e-240
2.88922e-243
1.53326e-246
7.71782e-250
3.66147e-253
1.65301e-256
6.86995e-260
2.72468e-263
1.04304e-266
3.88361e-270
1.38612e-273
4.79258e-277
1.59522e-280
5.10905e-284
1.57901e-287
4.71475e-291
1.381e-294
3.96542e-298
2.95498e-302
0
1.4822e-323
0
0
0
0
0
0
0
0
0
0
0
0
0
0
0
0
0
0
0
0
0
0
0
0
0
0
0
0
0
0
0
0
0
0
0
0
0
0
0
0
0
0
0
0
0
0
0
0
0
0
0
0
0
0
0
0
0
0
0
0
0
0
0
0
0
0
0
0
0
0
0
0
0
0
0
0
0
0
0
0
0
0
0
0
0
0
0
0
0
0
0
0
0
0
0
0
0
0
0
0
0
0
0
0
0
0
0
0
0
0
0
0
0
0
0
0
0
0
0
0
0
0
0
0
0
0
0
0
0
0
0
0
0
0
0
0
0
0
0
0
0
0
0
0
0
0
0
0
0
0
0
0
0
0
0
0
0
0
0
0
0
0
0
0
0
0
0
0
0
0
0
0
0
0
0
0
0
0
0
0
0
0
0
0
0
0
0
0
0
0
0
0
0
0
0
0
0
0
0
0
0
0
0
0
0
0
0
0
0
0
0
0
0
0
0
0
0
0
0
0
0
0
0
0
0
0
0
0
0
0
0
0
0
0
0
0
0
0
0
0
0
0
0
0
0
0
0
0
0
0
0
0
0
0
0
0
0
0
0
0
0
0
0
0
0
0
0
0
4.69467e-06
3.80608e-06
1.25611e-07
6.11367e-09
8.05159e-10
1.39391e-10
4.21772e-13
2.02649e-16
1.44195e-19
1.0664e-22
1.48073e-25
2.52685e-28
5.11482e-31
1.27265e-33
4.08498e-40
2.41239e-41
1.02186e-43
5.43609e-46
2.25663e-48
9.25166e-51
2.98463e-53
9.81371e-56
3.19849e-58
1.20845e-60
4.5978e-63
1.96768e-65
7.54143e-68
2.98678e-70
1.17917e-72
4.04808e-75
1.56874e-77
5.65435e-80
2.00267e-82
7.4665e-85
2.55284e-87
9.24421e-90
3.33195e-92
1.17204e-94
4.45731e-97
1.72028e-99
6.92228e-102
3.19868e-104
1.52209e-106
5.12166e-109
2.45048e-116
8.39718e-118
7.83531e-120
5.7245e-122
3.65068e-124
2.13726e-126
1.08895e-128
4.72279e-131
1.72904e-133
5.71681e-136
1.7937e-138
5.4241e-141
1.61897e-143
4.66002e-146
1.34e-148
3.75924e-151
1.0273e-153
2.74228e-156
7.1082e-159
1.79071e-161
4.36604e-164
1.05798e-166
2.51499e-169
5.96014e-172
1.34679e-174
2.45653e-177
3.73259e-180
4.61711e-183
4.5476e-186
1.02325e-189
2.28804e-205
3.23125e-205
5.52558e-208
5.79745e-211
4.67858e-214
3.26465e-217
2.03092e-220
1.17601e-223
6.4813e-227
3.47539e-230
1.8244e-233
9.33964e-237
4.61275e-240
2.20094e-243
1.01572e-246
4.54969e-250
1.97923e-253
8.38523e-257
3.45512e-260
1.38321e-263
5.32484e-267
1.99585e-270
7.33885e-274
2.66788e-277
9.52655e-281
3.34347e-284
1.13609e-287
3.68545e-291
1.14169e-294
1.69826e-298
1.00962e-319
1.02479e-319
1.58101e-322
0
0
0
0
0
0
0
0
0
0
0
0
0
0
0
0
0
0
0
0
0
0
0
0
0
0
0
0
0
0
0
0
0
0
0
0
0
0
0
0
0
0
0
0
0
0
0
0
0
0
0
0
0
0
0
0
0
0
0
0
0
0
0
0
0
0
0
0
0
0
0
0
0
0
0
0
0
0
0
0
0
0
0
0
0
0
0
0
0
0
0
0
0
0
0
0
0
0
0
0
0
0
0
0
0
0
0
0
0
0
0
0
0
0
0
0
0
0
0
0
0
0
0
0
0
0
0
0
0
0
0
0
0
0
0
0
0
0
0
0
0
0
0
0
0
0
0
0
0
0
0
0
0
0
0
0
0
0
0
0
0
0
0
0
0
0
0
0
0
0
0
0
0
0
0
0
0
0
0
0
0
0
0
0
0
0
0
0
0
0
0
0
0
0
0
0
0
0
0
0
0
0
0
0
0
0
0
0
0
0
0
0
0
0
0
0
0
0
0
0
0
0
0
0
0
0
0
0
0
0
0
0
0
0
0
0
0
0
0
0
0
0
0
0
0
0
0
0
0
0
0
0
0
0
0
0
0
0
0
0
0
0
0
0
0
0
0
2.68659e-06
2.43583e-06
3.90608e-06
1.16044e-06
6.83848e-08
3.09059e-08
4.20179e-09
3.70725e-12
2.44548e-15
1.85025e-18
1.86892e-21
2.59585e-24
4.84543e-27
1.07611e-29
7.56959e-36
4.71955e-37
2.42789e-39
1.22413e-41
5.75736e-44
2.2426e-46
8.29096e-49
2.50965e-51
8.59835e-54
3.06846e-56
1.29321e-58
5.19886e-61
2.25243e-63
8.66283e-66
3.66918e-68
1.3323e-70
5.36466e-73
1.95505e-75
7.08511e-78
2.67581e-80
8.93361e-83
3.39347e-85
1.17921e-87
4.16179e-90
1.54107e-92
5.42275e-95
2.08503e-97
7.94672e-100
3.29818e-102
1.28898e-104
6.04623e-112
7.0136e-114
4.73619e-116
3.02313e-118
1.86882e-120
1.10804e-122
6.29807e-125
3.1666e-127
1.31847e-129
4.65223e-132
1.51186e-134
4.65738e-137
1.41384e-139
4.10929e-142
1.21067e-144
3.45599e-147
9.60932e-150
2.59902e-152
6.84179e-155
1.75175e-157
4.38193e-160
1.08366e-162
2.63894e-165
6.38322e-168
1.49914e-170
3.40077e-173
5.30156e-176
6.48156e-179
5.92295e-182
1.32954e-185
4.80075e-200
8.50738e-201
1.16101e-203
1.01412e-206
6.88171e-210
4.05938e-213
2.17964e-216
1.09109e-219
5.24904e-223
2.4867e-226
1.18118e-229
5.61141e-233
2.63441e-236
1.2052e-239
5.37316e-243
2.32655e-246
9.79102e-250
4.00002e-253
1.58863e-256
6.05458e-260
2.20785e-263
7.83831e-267
2.76005e-270
9.67323e-274
3.35651e-277
1.12376e-280
3.65819e-284
1.1681e-287
3.57692e-291
5.76303e-295
2.24528e-314
3.09311e-315
3.7547e-318
2.76677e-321
0
0
0
0
0
0
0
0
0
0
0
0
0
0
0
0
0
0
0
0
0
0
0
0
0
0
0
0
0
0
0
0
0
0
0
0
0
0
0
0
0
0
0
0
0
0
0
0
0
0
0
0
0
0
0
0
0
0
0
0
0
0
0
0
0
0
0
0
0
0
0
0
0
0
0
0
0
0
0
0
0
0
0
0
0
0
0
0
0
0
0
0
0
0
0
0
0
0
0
0
0
0
0
0
0
0
0
0
0
0
0
0
0
0
0
0
0
0
0
0
0
0
0
0
0
0
0
0
0
0
0
0
0
0
0
0
0
0
0
0
0
0
0
0
0
0
0
0
0
0
0
0
0
0
0
0
0
0
0
0
0
0
0
0
0
0
0
0
0
0
0
0
0
0
0
0
0
0
0
0
0
0
0
0
0
0
0
0
0
0
0
0
0
0
0
0
0
0
0
0
0
0
0
0
0
0
0
0
0
0
0
0
0
0
0
0
0
0
0
0
0
0
0
0
0
0
0
0
0
0
0
0
0
0
0
0
0
0
0
0
0
0
0
0
0
0
0
0
0
0
0
0
0
0
0
0
0
0
0
0
0
0
0
0
0
0
2.23585e-06
2.22984e-06
2.5941e-06
3.10974e-06
2.26558e-06
1.10559e-06
2.43891e-07
1.0995e-08
1.03595e-11
1.08934e-14
1.00925e-17
1.09024e-20
1.95458e-23
3.90631e-26
5.29652e-32
3.83632e-33
2.01252e-35
1.12186e-37
4.81284e-40
2.08333e-42
7.51433e-45
2.56e-47
7.96004e-50
2.80345e-52
1.11101e-54
4.69806e-57
2.02754e-59
8.09579e-62
3.49624e-64
1.3179e-66
5.36147e-69
1.99443e-71
7.36971e-74
2.78962e-76
9.75325e-79
3.62157e-81
1.26157e-83
4.50959e-86
1.62514e-88
5.77202e-91
2.149e-93
7.80872e-96
3.00023e-98
1.1203e-100
5.07646e-108
4.02091e-110
1.84037e-112
9.96721e-115
5.48003e-117
3.08789e-119
1.71494e-121
9.16206e-124
4.29412e-126
1.70255e-128
5.94781e-131
1.91018e-133
5.94801e-136
1.76312e-138
5.28758e-141
1.54095e-143
4.36598e-146
1.20436e-148
3.23574e-151
8.53858e-154
2.20806e-156
5.62136e-159
1.4028e-161
3.45923e-164
8.31437e-167
1.9481e-169
4.47118e-172
5.39749e-175
4.62239e-178
9.17167e-182
5.45845e-195
1.45514e-196
1.48369e-199
1.0208e-202
5.71753e-206
2.83062e-209
1.28834e-212
5.51727e-216
2.2768e-219
9.28316e-223
3.79065e-226
1.56315e-229
6.51379e-233
2.73618e-236
1.14116e-239
4.65278e-243
1.82928e-246
6.92672e-250
2.52987e-253
8.98233e-257
3.11184e-260
1.06049e-263
3.57454e-267
1.20033e-270
3.992e-274
1.29009e-277
4.10017e-281
1.27995e-284
3.79208e-288
5.72742e-292
2.6174e-309
5.75818e-311
5.30531e-314
3.14678e-317
1.54e-320
4.94066e-324
0
0
0
0
0
0
0
0
0
0
0
0
0
0
0
0
0
0
0
0
0
0
0
0
0
0
0
0
0
0
0
0
0
0
0
0
0
0
0
0
0
0
0
0
0
0
0
0
0
0
0
0
0
0
0
0
0
0
0
0
0
0
0
0
0
0
0
0
0
0
0
0
0
0
0
0
0
0
0
0
0
0
0
0
0
0
0
0
0
0
0
0
0
0
0
0
0
0
0
0
0
0
0
0
0
0
0
0
0
0
0
0
0
0
0
0
0
0
0
0
0
0
0
0
0
0
0
0
0
0
0
0
0
0
0
0
0
0
0
0
0
0
0
0
0
0
0
0
0
0
0
0
0
0
0
0
0
0
0
0
0
0
0
0
0
0
0
0
0
0
0
0
0
0
0
0
0
0
0
0
0
0
0
0
0
0
0
0
0
0
0
0
0
0
0
0
0
0
0
0
0
0
0
0
0
0
0
0
0
0
0
0
0
0
0
0
0
0
0
0
0
0
0
0
0
0
0
0
0
0
0
0
0
0
0
0
0
0
0
0
0
0
0
0
0
0
0
0
0
0
0
0
0
0
0
0
0
0
0
0
0
0
0
0
2.37935e-06
2.32458e-06
2.31763e-06
2.63446e-06
2.6695e-06
3.56736e-06
3.66298e-06
3.16121e-07
4.53825e-09
6.30831e-12
1.10537e-14
2.2812e-17
4.90206e-20
9.05354e-23
1.2101e-28
7.8986e-30
5.64634e-32
3.36661e-34
1.76371e-36
7.805e-39
3.27972e-41
1.15525e-43
3.98346e-46
1.36774e-48
5.69226e-51
2.39971e-53
1.10322e-55
4.60997e-58
2.0261e-60
8.19046e-63
3.34247e-65
1.31819e-67
5.0427e-70
1.91292e-72
7.04775e-75
2.57506e-77
9.28269e-80
3.35357e-82
1.18814e-84
4.33304e-87
1.56081e-89
5.66439e-92
2.11201e-94
7.84241e-97
3.71481e-104
2.27524e-106
9.11524e-109
4.14469e-111
2.01174e-113
1.01165e-115
5.23424e-118
2.69747e-120
1.32365e-122
5.8232e-125
2.25579e-127
7.82048e-130
2.54795e-132
7.87673e-135
2.40248e-137
7.15496e-140
2.08045e-142
5.89965e-145
1.63273e-147
4.42959e-150
1.17751e-152
3.07e-155
7.84834e-158
1.96925e-160
4.83663e-163
1.15767e-165
2.71378e-168
6.15803e-171
4.9697e-174
1.08547e-177
8.38346e-190
3.56856e-192
2.57267e-195
1.36706e-198
6.27182e-202
2.64637e-205
1.05007e-208
3.9811e-212
1.46435e-215
5.30289e-219
1.91325e-222
6.92938e-226
2.53511e-229
9.37134e-233
3.46341e-236
1.26557e-239
4.54584e-243
1.59907e-246
5.49507e-250
1.85788e-253
6.21792e-257
2.068e-260
6.84915e-264
2.26032e-267
7.39249e-271
2.35387e-274
7.37515e-278
2.26779e-281
6.57516e-285
1.02554e-288
4.04106e-304
1.46549e-306
9.71872e-310
4.57264e-313
1.83773e-316
6.66e-320
2.47033e-323
0
0
0
0
0
0
0
0
0
0
0
0
0
0
0
0
0
0
0
0
0
0
0
0
0
0
0
0
0
0
0
0
0
0
0
0
0
0
0
0
0
0
0
0
0
0
0
0
0
0
0
0
0
0
0
0
0
0
0
0
0
0
0
0
0
0
0
0
0
0
0
0
0
0
0
0
0
0
0
0
0
0
0
0
0
0
0
0
0
0
0
0
0
0
0
0
0
0
0
0
0
0
0
0
0
0
0
0
0
0
0
0
0
0
0
0
0
0
0
0
0
0
0
0
0
0
0
0
0
0
0
0
0
0
0
0
0
0
0
0
0
0
0
0
0
0
0
0
0
0
0
0
0
0
0
0
0
0
0
0
0
0
0
0
0
0
0
0
0
0
0
0
0
0
0
0
0
0
0
0
0
0
0
0
0
0
0
0
0
0
0
0
0
0
0
0
0
0
0
0
0
0
0
0
0
0
0
0
0
0
0
0
0
0
0
0
0
0
0
0
0
0
0
0
0
0
0
0
0
0
0
0
0
0
0
0
0
0
0
0
0
0
0
0
0
0
0
0
0
0
0
0
0
0
0
0
0
0
0
0
0
0
0
2.4441e-06
2.48208e-06
2.42143e-06
2.14168e-06
1.3745e-06
1.72009e-06
2.16656e-06
7.79754e-07
8.41308e-08
3.44716e-10
1.07524e-12
2.83904e-15
6.54392e-18
1.33331e-20
1.6656e-26
7.41524e-28
9.78751e-30
1.02666e-31
7.69493e-34
4.30789e-36
2.04983e-38
8.11441e-41
2.84994e-43
9.62497e-46
4.04815e-48
1.85371e-50
8.58711e-53
3.90354e-55
1.72033e-57
7.45592e-60
3.10235e-62
1.26755e-64
5.05552e-67
1.95768e-69
7.45885e-72
2.78672e-74
1.00384e-76
3.73157e-79
1.30796e-81
4.87502e-84
1.72348e-86
6.36558e-89
2.30446e-91
8.32331e-94
4.36239e-101
2.28595e-103
8.77231e-106
3.72395e-108
1.61004e-110
7.431e-113
3.52379e-115
1.72931e-117
8.43425e-120
3.92973e-122
1.66229e-124
6.2812e-127
2.17277e-129
7.04495e-132
2.20794e-134
6.73247e-137
2.004e-139
5.82683e-142
1.65479e-144
4.59982e-147
1.25168e-149
3.3349e-152
8.70788e-155
2.22773e-157
5.57464e-160
1.36136e-162
3.25001e-165
7.55761e-168
1.70077e-170
5.98632e-174
3.98121e-185
2.96354e-188
1.41466e-191
5.57478e-195
2.03114e-198
7.15158e-202
2.46629e-205
8.32679e-209
2.75504e-212
8.98023e-216
2.90732e-219
9.40358e-223
3.06045e-226
1.00422e-229
3.30028e-233
1.07962e-236
3.51079e-240
1.13146e-243
3.60165e-247
1.13783e-250
3.58374e-254
1.12748e-257
3.55207e-261
1.11983e-264
3.51433e-268
1.08153e-271
3.27726e-275
9.67163e-279
2.70413e-282
4.28858e-286
1.94345e-299
1.21361e-302
5.30813e-306
1.90412e-309
6.21806e-313
1.90998e-316
5.67385e-320
1.4822e-323
0
0
0
0
0
0
0
0
0
0
0
0
0
0
0
0
0
0
0
0
0
0
0
0
0
0
0
0
0
0
0
0
0
0
0
0
0
0
0
0
0
0
0
0
0
0
0
0
0
0
0
0
0
0
0
0
0
0
0
0
0
0
0
0
0
0
0
0
0
0
0
0
0
0
0
0
0
0
0
0
0
0
0
0
0
0
0
0
0
0
0
0
0
0
0
0
0
0
0
0
0
0
0
0
0
0
0
0
0
0
0
0
0
0
0
0
0
0
0
0
0
0
0
0
0
0
0
0
0
0
0
0
0
0
0
0
0
0
0
0
0
0
0
0
0
0
0
0
0
0
0
0
0
0
0
0
0
0
0
0
0
0
0
0
0
0
0
0
0
0
0
0
0
0
0
0
0
0
0
0
0
0
0
0
0
0
0
0
0
0
0
0
0
0
0
0
0
0
0
0
0
0
0
0
0
0
0
0
0
0
0
0
0
0
0
0
0
0
0
0
0
0
0
0
0
0
0
0
0
0
0
0
0
0
0
0
0
0
0
0
0
0
0
0
0
0
0
0
0
0
0
0
0
0
0
0
0
0
0
0
0
0
2.60472e-06
2.53885e-06
1.99711e-06
4.83246e-07
1.69252e-07
2.81414e-07
3.51148e-07
2.34236e-07
2.59066e-08
1.29207e-09
4.86778e-12
2.73594e-14
1.79078e-16
1.29805e-18
5.48647e-21
2.44163e-23
7.9471e-26
4.37617e-28
4.08363e-30
5.5878e-32
5.55781e-34
5.70534e-36
4.54269e-38
3.40818e-40
2.11442e-42
1.31509e-44
7.13361e-47
3.97068e-49
1.88912e-51
9.54956e-54
4.326e-56
1.9582e-58
8.69096e-61
3.65863e-63
1.53569e-65
6.28685e-68
2.45726e-70
9.68975e-73
3.58451e-75
1.35555e-77
4.89742e-80
1.80398e-82
6.50322e-85
2.3986e-87
8.68817e-90
3.07668e-92
1.08801e-94
4.33993e-97
2.00726e-99
8.8206e-102
3.49623e-104
1.45246e-106
5.64978e-109
2.48697e-111
1.05045e-113
4.90504e-116
2.25624e-118
1.05586e-120
4.70449e-123
1.92891e-125
7.18082e-128
2.4679e-130
8.03661e-133
2.52211e-135
7.69465e-138
2.29042e-140
6.66152e-143
1.89465e-145
5.27419e-148
1.43592e-150
3.82829e-153
9.99085e-156
2.55009e-158
6.3563e-161
1.54834e-163
3.68307e-166
8.55505e-169
1.89333e-171
4.80366e-175
8.04988e-179
3.49954e-182
1.36411e-185
4.19925e-189
1.20947e-192
3.44057e-196
9.97263e-200
2.97214e-203
8.98268e-207
2.71033e-210
8.11164e-214
2.41104e-217
7.13434e-221
2.11556e-224
6.30387e-228
1.88254e-231
5.61341e-235
1.67155e-238
4.95747e-242
1.45999e-245
4.27946e-249
1.25267e-252
3.66124e-256
1.07101e-259
3.13048e-263
9.07256e-267
2.57149e-270
7.11543e-274
1.89225e-277
4.76722e-281
1.14121e-284
1.61459e-288
8.44242e-293
1.78241e-296
5.39388e-300
1.46163e-303
3.87342e-307
1.01882e-310
2.66341e-314
6.96965e-318
1.82804e-321
0
0
0
0
0
0
0
0
0
0
0
0
0
0
0
0
0
0
0
0
0
0
0
0
0
0
0
0
0
0
0
0
0
0
0
0
0
0
0
0
0
0
0
0
0
0
0
0
0
0
0
0
0
0
0
0
0
0
0
0
0
0
0
0
0
0
0
0
0
0
0
0
0
0
0
0
0
0
0
0
0
0
0
0
0
0
0
0
0
0
0
0
0
0
0
0
0
0
0
0
0
0
0
0
0
0
0
0
0
0
0
0
0
0
0
0
0
0
0
0
0
0
0
0
0
0
0
0
0
0
0
0
0
0
0
0
0
0
0
0
0
0
0
0
0
0
0
0
0
0
0
0
0
0
0
0
0
0
0
0
0
0
0
0
0
0
0
0
0
0
0
0
0
0
0
0
0
0
0
0
0
0
0
0
0
0
0
0
0
0
0
0
0
0
0
0
0
0
0
0
0
0
0
0
0
0
0
0
0
0
0
0
0
0
0
0
0
0
0
0
0
0
0
0
0
0
0
0
0
0
0
0
0
0
0
0
0
0
0
0
0
0
0
0
0
0
0
0
0
0
0
0
0
0
0
0
0
0
0
0
0
0
0
0
0
0
0
0
0
0
0
0
0
0
0
0
0
0
0
0
2.55826e-06
2.09723e-06
3.16702e-07
8.71814e-09
9.84786e-09
4.13157e-08
7.89619e-08
6.62636e-08
5.57913e-09
1.71422e-10
5.25717e-13
3.28347e-15
2.62473e-17
2.81776e-19
1.8534e-21
8.75232e-24
2.82399e-26
1.30896e-28
9.60056e-31
1.1875e-32
1.24223e-34
1.08114e-36
8.58109e-39
6.57332e-41
4.99556e-43
3.74054e-45
2.41998e-47
1.61337e-49
9.09465e-52
5.25236e-54
2.94232e-56
1.44055e-58
7.65365e-61
3.60001e-63
1.67614e-65
7.72474e-68
3.3657e-70
1.43272e-72
6.14784e-75
2.44996e-77
1.01178e-79
3.95458e-82
1.59658e-84
6.19342e-87
2.48899e-89
9.99216e-92
3.97817e-94
1.655e-96
7.19475e-99
3.24213e-101
1.48627e-103
6.9618e-106
3.30682e-108
1.57112e-110
7.48606e-113
3.54358e-115
1.6656e-117
7.72493e-120
3.49353e-122
1.49309e-124
5.85319e-127
2.10861e-129
7.14156e-132
2.31308e-134
7.24035e-137
2.20501e-139
6.55215e-142
1.90328e-144
5.4085e-147
1.50398e-149
4.09429e-152
1.0915e-154
2.84711e-157
7.26248e-160
1.81305e-162
4.43451e-165
1.06354e-167
2.50752e-170
5.64147e-173
2.24891e-176
7.55831e-180
1.95717e-183
4.72866e-187
1.09328e-190
2.51301e-194
5.95853e-198
1.49213e-201
3.91663e-205
1.05403e-208
2.86048e-212
7.76842e-216
2.10548e-219
5.71308e-223
1.56011e-226
4.28271e-230
1.17808e-233
3.24525e-237
8.92823e-241
2.44458e-244
6.67124e-248
1.81677e-251
4.94008e-255
1.34202e-258
3.63373e-262
9.73862e-266
2.56638e-269
6.67166e-273
1.70737e-276
4.29894e-280
1.06284e-283
2.83072e-287
8.63124e-291
2.36983e-294
5.41818e-298
1.22772e-301
2.75474e-305
6.21259e-309
1.41804e-312
3.29185e-316
7.76375e-320
1.97626e-323
0
0
0
0
0
0
0
0
0
0
0
0
0
0
0
0
0
0
0
0
0
0
0
0
0
0
0
0
0
0
0
0
0
0
0
0
0
0
0
0
0
0
0
0
0
0
0
0
0
0
0
0
0
0
0
0
0
0
0
0
0
0
0
0
0
0
0
0
0
0
0
0
0
0
0
0
0
0
0
0
0
0
0
0
0
0
0
0
0
0
0
0
0
0
0
0
0
0
0
0
0
0
0
0
0
0
0
0
0
0
0
0
0
0
0
0
0
0
0
0
0
0
0
0
0
0
0
0
0
0
0
0
0
0
0
0
0
0
0
0
0
0
0
0
0
0
0
0
0
0
0
0
0
0
0
0
0
0
0
0
0
0
0
0
0
0
0
0
0
0
0
0
0
0
0
0
0
0
0
0
0
0
0
0
0
0
0
0
0
0
0
0
0
0
0
0
0
0
0
0
0
0
0
0
0
0
0
0
0
0
0
0
0
0
0
0
0
0
0
0
0
0
0
0
0
0
0
0
0
0
0
0
0
0
0
0
0
0
0
0
0
0
0
0
0
0
0
0
0
0
0
0
0
0
0
0
0
0
0
0
0
0
0
0
0
0
0
0
0
0
0
0
0
0
0
0
0
0
0
1.37643e-06
3.21804e-07
2.46587e-09
2.92505e-10
5.24757e-10
5.61329e-09
1.71705e-08
9.4803e-09
5.78142e-10
9.38307e-12
2.06314e-14
1.11803e-16
6.92743e-19
5.70936e-21
3.26825e-23
1.57333e-25
6.49898e-28
3.3542e-30
2.33285e-32
1.81627e-34
1.36543e-36
1.01637e-38
7.06547e-41
5.14359e-43
3.47481e-45
2.30341e-47
1.35513e-49
8.1303e-52
4.52121e-54
2.31786e-56
1.26431e-58
6.00523e-61
2.93652e-63
1.38533e-65
6.20667e-68
2.78604e-70
1.22164e-72
5.08807e-75
2.18742e-77
8.73382e-80
3.56068e-82
1.42313e-84
5.55264e-87
2.21527e-89
8.67522e-92
3.47932e-94
1.42557e-96
5.89288e-99
2.52085e-101
1.12147e-103
5.16091e-106
2.43441e-108
1.16416e-110
5.63658e-113
2.72522e-115
1.32087e-117
6.34159e-120
3.02541e-122
1.42019e-124
6.46563e-127
2.77026e-129
1.09142e-131
3.96535e-134
1.35587e-136
4.43295e-139
1.40086e-141
4.30205e-144
1.28799e-146
3.76529e-149
1.07608e-151
3.008e-154
8.22339e-157
2.19569e-159
5.72564e-162
1.46034e-164
3.64672e-167
8.93006e-170
2.14071e-172
4.75516e-175
1.62502e-178
4.28937e-182
9.51889e-186
2.18138e-189
5.36957e-193
1.42514e-196
3.95532e-200
1.11856e-203
3.14644e-207
8.68315e-211
2.35439e-214
6.3128e-218
1.68277e-221
4.48864e-225
1.20457e-228
3.23806e-232
8.69123e-236
2.33667e-239
6.26538e-243
1.66604e-246
4.41053e-250
1.16719e-253
3.0927e-257
8.21329e-261
2.18114e-264
5.72771e-268
1.47481e-271
3.73178e-275
9.24596e-279
2.24733e-282
5.27034e-286
1.36937e-289
3.91385e-293
9.74879e-297
2.17605e-300
4.95435e-304
1.13289e-307
2.62851e-311
6.22597e-315
1.50816e-318
3.70549e-322
0
0
0
0
0
0
0
0
0
0
0
0
0
0
0
0
0
0
0
0
0
0
0
0
0
0
0
0
0
0
0
0
0
0
0
0
0
0
0
0
0
0
0
0
0
0
0
0
0
0
0
0
0
0
0
0
0
0
0
0
0
0
0
0
0
0
0
0
0
0
0
0
0
0
0
0
0
0
0
0
0
0
0
0
0
0
0
0
0
0
0
0
0
0
0
0
0
0
0
0
0
0
0
0
0
0
0
0
0
0
0
0
0
0
0
0
0
0
0
0
0
0
0
0
0
0
0
0
0
0
0
0
0
0
0
0
0
0
0
0
0
0
0
0
0
0
0
0
0
0
0
0
0
0
0
0
0
0
0
0
0
0
0
0
0
0
0
0
0
0
0
0
0
0
0
0
0
0
0
0
0
0
0
0
0
0
0
0
0
0
0
0
0
0
0
0
0
0
0
0
0
0
0
0
0
0
0
0
0
0
0
0
0
0
0
0
0
0
0
0
0
0
0
0
0
0
0
0
0
0
0
0
0
0
0
0
0
0
0
0
0
0
0
0
0
0
0
0
0
0
0
0
0
0
0
0
0
0
0
0
0
0
0
0
0
0
0
0
0
0
0
0
0
0
0
0
0
0
0
0
3.24329e-08
9.53223e-10
6.04826e-11
4.13085e-11
1.0756e-10
4.82573e-10
1.29982e-09
4.9843e-10
2.95821e-11
5.82754e-14
2.71403e-16
1.22593e-18
5.40034e-21
2.88355e-23
1.36491e-25
6.02098e-28
2.93121e-30
1.54215e-32
8.4751e-35
6.03839e-37
4.77302e-39
3.52787e-41
2.47679e-43
1.67916e-45
1.07869e-47
6.77154e-50
3.9177e-52
2.19777e-54
1.22777e-56
5.96522e-59
3.12936e-61
1.47772e-63
6.89814e-66
3.24468e-68
1.42332e-70
6.19329e-73
2.70349e-75
1.09223e-77
4.611e-80
1.82174e-82
7.26746e-85
2.88926e-87
1.10887e-89
4.45169e-92
1.73323e-94
7.05855e-97
2.92593e-99
1.24091e-101
5.52739e-104
2.51694e-106
1.18483e-108
5.70915e-111
2.7606e-113
1.35765e-115
6.60052e-118
3.23911e-120
1.57183e-122
7.63569e-125
3.65532e-127
1.7122e-129
7.64317e-132
3.13994e-134
1.17334e-136
4.07695e-139
1.34586e-141
4.27138e-144
1.31265e-146
3.92311e-149
1.14335e-151
3.25446e-154
9.0565e-157
2.4655e-159
6.56934e-162
1.71443e-164
4.38556e-167
1.10014e-169
2.70804e-172
6.4405e-175
2.77635e-178
1.11087e-181
3.81517e-185
1.21202e-188
3.77816e-192
1.14158e-195
3.40426e-199
1.01392e-202
3.02461e-206
9.00414e-210
2.66091e-213
7.78018e-217
2.24906e-220
6.43876e-224
1.83032e-227
5.18065e-231
1.46304e-234
4.12744e-238
1.16399e-241
3.28266e-245
9.26335e-249
2.61862e-252
7.42573e-256
2.11517e-259
6.05632e-263
1.7428e-266
5.03276e-270
1.45488e-273
4.19646e-277
1.20329e-280
3.41749e-284
9.24933e-288
2.47235e-291
6.70346e-295
1.70833e-298
4.2719e-302
1.08707e-305
2.71622e-309
6.68209e-313
1.62493e-316
3.92683e-320
9.88131e-324
0
0
0
0
0
0
0
0
0
0
0
0
0
0
0
0
0
0
0
0
0
0
0
0
0
0
0
0
0
0
0
0
0
0
0
0
0
0
0
0
0
0
0
0
0
0
0
0
0
0
0
0
0
0
0
0
0
0
0
0
0
0
0
0
0
0
0
0
0
0
0
0
0
0
0
0
0
0
0
0
0
0
0
0
0
0
0
0
0
0
0
0
0
0
0
0
0
0
0
0
0
0
0
0
0
0
0
0
0
0
0
0
0
0
0
0
0
0
0
0
0
0
0
0
0
0
0
0
0
0
0
0
0
0
0
0
0
0
0
0
0
0
0
0
0
0
0
0
0
0
0
0
0
0
0
0
0
0
0
0
0
0
0
0
0
0
0
0
0
0
0
0
0
0
0
0
0
0
0
0
0
0
0
0
0
0
0
0
0
0
0
0
0
0
0
0
0
0
0
0
0
0
0
0
0
0
0
0
0
0
0
0
0
0
0
0
0
0
0
0
0
0
0
0
0
0
0
0
0
0
0
0
0
0
0
0
0
0
0
0
0
0
0
0
0
0
0
0
0
0
0
0
0
0
0
0
0
0
0
0
0
0
0
0
0
0
0
0
0
0
0
0
0
0
0
0
0
0
0
0
4.0698e-10
1.83691e-11
6.75504e-12
1.37624e-11
6.05753e-12
6.60758e-12
1.27013e-11
5.52482e-12
1.50809e-13
2.56876e-16
5.77642e-19
1.15695e-21
3.80023e-24
2.01198e-26
1.09763e-28
7.47303e-31
4.84072e-33
3.34804e-35
2.17714e-37
1.50032e-39
1.03956e-41
6.82424e-44
4.46372e-46
2.72534e-48
1.65974e-50
9.40831e-53
5.37929e-55
2.75045e-57
1.48039e-59
7.04927e-62
3.42765e-64
1.617e-66
7.26037e-69
3.26896e-71
1.4339e-73
5.98372e-76
2.55988e-78
1.02217e-80
4.1684e-83
1.63484e-85
6.40413e-88
2.50454e-90
9.72371e-93
3.83625e-95
1.53985e-97
6.31358e-100
2.70338e-102
1.18059e-104
5.43193e-107
2.52322e-109
1.21971e-111
5.88899e-114
2.89327e-116
1.41346e-118
6.93452e-121
3.38271e-123
1.66152e-125
8.1267e-128
3.96733e-130
1.89977e-132
8.68936e-135
3.60098e-137
1.33794e-139
4.58995e-142
1.49305e-144
4.6677e-147
1.41252e-149
4.15696e-152
1.19294e-154
3.34465e-157
9.17199e-160
2.46227e-162
6.47577e-165
1.66971e-167
4.22386e-170
1.04894e-172
2.55238e-175
1.36843e-178
6.70804e-182
2.94949e-185
1.15927e-188
4.22058e-192
1.44674e-195
4.78232e-199
1.55263e-202
5.00647e-206
1.60799e-209
5.13299e-213
1.6228e-216
5.07061e-220
1.56605e-223
4.78878e-227
1.45363e-230
4.39036e-234
1.32181e-237
3.97031e-241
1.19022e-244
3.56184e-248
1.06409e-251
3.1743e-255
9.4583e-259
2.81576e-262
8.37497e-266
2.48755e-269
7.372e-273
2.17706e-276
6.39701e-280
1.86726e-283
5.40675e-287
1.54614e-290
4.38923e-294
1.22887e-297
3.38784e-301
9.26016e-305
2.49775e-308
6.66348e-312
1.75913e-315
4.59955e-319
1.18576e-322
0
0
0
0
0
0
0
0
0
0
0
0
0
0
0
0
0
0
0
0
0
0
0
0
0
0
0
0
0
0
0
0
0
0
0
0
0
0
0
0
0
0
0
0
0
0
0
0
0
0
0
0
0
0
0
0
0
0
0
0
0
0
0
0
0
0
0
0
0
0
0
0
0
0
0
0
0
0
0
0
0
0
0
0
0
0
0
0
0
0
0
0
0
0
0
0
0
0
0
0
0
0
0
0
0
0
0
0
0
0
0
0
0
0
0
0
0
0
0
0
0
0
0
0
0
0
0
0
0
0
0
0
0
0
0
0
0
0
0
0
0
0
0
0
0
0
0
0
0
0
0
0
0
0
0
0
0
0
0
0
0
0
0
0
0
0
0
0
0
0
0
0
0
0
0
0
0
0
0
0
0
0
0
0
0
0
0
0
0
0
0
0
0
0
0
0
0
0
0
0
0
0
0
0
0
0
0
0
0
0
0
0
0
0
0
0
0
0
0
0
0
0
0
0
0
0
0
0
0
0
0
0
0
0
0
0
0
0
0
0
0
0
0
0
0
0
0
0
0
0
0
0
0
0
0
0
0
0
0
0
0
0
0
0
0
0
0
0
0
0
0
0
0
0
0
0
0
0
0
0
0
3.38138e-12
4.97824e-12
2.70135e-12
1.17183e-12
4.62286e-13
8.98137e-14
1.53032e-14
3.14405e-15
8.04588e-17
1.69057e-19
4.84105e-22
1.65251e-24
7.28513e-27
4.42688e-29
3.44231e-31
2.73743e-33
2.2004e-35
1.63978e-37
1.17956e-39
8.0987e-42
5.42131e-44
3.44304e-46
2.11824e-48
1.23418e-50
7.07012e-53
3.83987e-55
2.03937e-57
1.03832e-59
5.0775e-62
2.45408e-64
1.11788e-66
5.17923e-69
2.25778e-71
9.91799e-74
4.18398e-76
1.74322e-78
7.08554e-81
2.83949e-83
1.11382e-85
4.34808e-88
1.67943e-90
6.49175e-93
2.54266e-95
1.00436e-97
4.11925e-100
1.72908e-102
7.57629e-105
3.42294e-107
1.59944e-109
7.60814e-112
3.69198e-114
1.79982e-116
8.8022e-119
4.30576e-121
2.09482e-123
1.02118e-125
4.9681e-128
2.41926e-130
1.16933e-132
5.55872e-135
2.54232e-137
1.07644e-139
4.0909e-142
1.40952e-144
4.55177e-147
1.40532e-149
4.19136e-152
1.21444e-154
3.43083e-157
9.47031e-160
2.5582e-162
6.76945e-165
1.75628e-167
4.47112e-170
1.11761e-172
2.74209e-175
4.03841e-178
1.21661e-181
4.79313e-185
2.07822e-188
8.63483e-192
3.35762e-195
1.23623e-198
4.3928e-202
1.53019e-205
5.27196e-209
1.80086e-212
6.09028e-216
2.03483e-219
6.71086e-223
2.18611e-226
7.047e-230
2.25268e-233
7.15459e-237
2.26057e-240
7.10952e-244
2.2259e-247
6.93745e-251
2.15208e-254
6.64467e-258
2.0421e-261
6.247e-265
1.90208e-268
5.7624e-272
1.73611e-275
5.19866e-279
1.54594e-282
4.56184e-286
1.33479e-289
3.86897e-293
1.11116e-296
3.15839e-300
8.88337e-304
2.47421e-307
6.82009e-311
1.86149e-314
5.03272e-318
1.3488e-321
0
0
0
0
0
0
0
0
0
0
0
0
0
0
0
0
0
0
0
0
0
0
0
0
0
0
0
0
0
0
0
0
0
0
0
0
0
0
0
0
0
0
0
0
0
0
0
0
0
0
0
0
0
0
0
0
0
0
0
0
0
0
0
0
0
0
0
0
0
0
0
0
0
0
0
0
0
0
0
0
0
0
0
0
0
0
0
0
0
0
0
0
0
0
0
0
0
0
0
0
0
0
0
0
0
0
0
0
0
0
0
0
0
0
0
0
0
0
0
0
0
0
0
0
0
0
0
0
0
0
0
0
0
0
0
0
0
0
0
0
0
0
0
0
0
0
0
0
0
0
0
0
0
0
0
0
0
0
0
0
0
0
0
0
0
0
0
0
0
0
0
0
0
0
0
0
0
0
0
0
0
0
0
0
0
0
0
0
0
0
0
0
0
0
0
0
0
0
0
0
0
0
0
0
0
0
0
0
0
0
0
0
0
0
0
0
0
0
0
0
0
0
0
0
0
0
0
0
0
0
0
0
0
0
0
0
0
0
0
0
0
0
0
0
0
0
0
0
0
0
0
0
0
0
0
0
0
0
0
0
0
0
0
0
0
0
0
0
0
0
0
0
0
0
0
0
0
0
0
0
0
0
6.49485e-13
4.72153e-13
2.33851e-13
8.7478e-14
7.27387e-15
2.66431e-16
4.4058e-17
5.80427e-18
9.5911e-20
3.88023e-22
1.50553e-24
6.8054e-27
4.09356e-29
3.15276e-31
2.82447e-33
2.48805e-35
1.98641e-37
1.57343e-39
1.10173e-41
7.66121e-44
4.99341e-46
3.1277e-48
1.84293e-50
1.05228e-52
5.7222e-55
3.05967e-57
1.53773e-59
7.71394e-62
3.62527e-64
1.71159e-66
7.60549e-69
3.41656e-71
1.46038e-73
6.25647e-76
2.5811e-78
1.05538e-80
4.20848e-83
1.65388e-85
6.4122e-88
2.46658e-90
9.50087e-93
3.65928e-95
1.4488e-97
5.80595e-100
2.43442e-102
1.04945e-104
4.71785e-107
2.18046e-109
1.03632e-111
4.97449e-114
2.43049e-116
1.17827e-118
5.779e-121
2.79429e-123
1.36356e-125
6.58525e-128
3.21329e-130
1.55535e-132
7.51813e-135
3.5697e-137
1.6461e-139
7.0456e-142
2.6652e-144
9.07563e-147
2.89362e-149
8.81122e-152
2.58982e-154
7.39277e-157
2.05732e-159
5.59556e-162
1.48986e-164
3.88795e-167
9.95433e-170
2.50229e-172
6.17775e-175
1.27107e-177
4.6694e-181
1.6408e-184
6.48578e-188
2.74683e-191
1.14754e-194
4.5836e-198
1.75415e-201
6.51251e-205
2.37252e-208
8.53484e-212
3.03622e-215
1.06694e-218
3.69848e-222
1.26446e-225
4.26793e-229
1.42463e-232
4.71111e-236
1.54564e-239
5.03538e-243
1.6294e-246
5.23733e-250
1.67209e-253
5.30215e-257
1.6698e-260
5.22308e-264
1.62275e-267
5.00736e-271
1.53429e-274
4.66714e-278
1.40884e-281
4.21844e-285
1.25239e-288
3.68537e-292
1.07458e-295
3.10383e-299
8.87935e-303
2.51591e-306
7.06084e-310
1.96298e-313
5.4071e-317
1.47627e-320
4.94066e-324
0
0
0
0
0
0
0
0
0
0
0
0
0
0
0
0
0
0
0
0
0
0
0
0
0
0
0
0
0
0
0
0
0
0
0
0
0
0
0
0
0
0
0
0
0
0
0
0
0
0
0
0
0
0
0
0
0
0
0
0
0
0
0
0
0
0
0
0
0
0
0
0
0
0
0
0
0
0
0
0
0
0
0
0
0
0
0
0
0
0
0
0
0
0
0
0
0
0
0
0
0
0
0
0
0
0
0
0
0
0
0
0
0
0
0
0
0
0
0
0
0
0
0
0
0
0
0
0
0
0
0
0
0
0
0
0
0
0
0
0
0
0
0
0
0
0
0
0