/*--------------------------------*- C++ -*----------------------------------*\
| =========                 |                                                 |
| \\      /  F ield         | OpenFOAM: The Open Source CFD Toolbox           |
|  \\    /   O peration     | Version:  2.1.1                                 |
|   \\  /    A nd           | Web:      www.OpenFOAM.org                      |
|    \\/     M anipulation  |                                                 |
\*---------------------------------------------------------------------------*/
FoamFile
{
    version     2.0;
    format      ascii;
    class       volScalarField;
    location    "0.000550000";
    object      O;
}
// * * * * * * * * * * * * * * * * * * * * * * * * * * * * * * * * * * * * * //

dimensions      [0 0 0 0 0 0 0];

internalField   nonuniform List<scalar> 
12384
(
2.8741e-07
1.54026e-07
2.25452e-08
4.61003e-10
9.0057e-12
1.67945e-13
2.80134e-15
4.71588e-17
6.78279e-19
7.68277e-21
7.5505e-23
6.19568e-25
4.66394e-27
3.25312e-29
3.78406e-44
2.01021e-45
1.22641e-47
6.42913e-50
3.04765e-52
1.33195e-54
5.46073e-57
2.1475e-59
8.22432e-62
3.14035e-64
1.19272e-66
4.59751e-69
1.78114e-71
7.0812e-74
2.88298e-76
1.23617e-78
5.56873e-81
2.68737e-83
1.37036e-85
7.41744e-88
4.18415e-90
2.43216e-92
1.42464e-94
8.25512e-97
4.65612e-99
2.53041e-101
1.32256e-103
6.66586e-106
3.23816e-108
1.51741e-110
2.04659e-120
6.9053e-121
7.29574e-123
4.91228e-125
2.59081e-127
1.16508e-129
4.67631e-132
1.72157e-134
5.91858e-137
1.94478e-139
6.18213e-142
1.91701e-144
5.82814e-147
1.7283e-149
4.99804e-152
1.39327e-154
3.7008e-157
9.38965e-160
2.30009e-162
5.48161e-165
1.27682e-167
1.80194e-170
2.13036e-174
1.21037e-177
1.71534e-180
2.70119e-183
3.88665e-186
4.61544e-189
4.60793e-192
4.95894e-196
5.84299e-214
9.48024e-212
2.23267e-214
3.06103e-217
3.07073e-220
2.68804e-223
2.09815e-226
1.50441e-229
1.01893e-232
6.5802e-236
4.09106e-239
2.47285e-242
1.50892e-245
9.36205e-249
5.37302e-252
2.76738e-255
1.20193e-258
4.66004e-262
1.67436e-265
5.86482e-269
1.99628e-272
6.64369e-276
2.15497e-279
6.86936e-283
2.13626e-286
6.55407e-290
1.99886e-293
5.87424e-297
1.66073e-300
1.11274e-304
0
0
0
0
0
0
0
0
0
0
0
0
0
0
0
0
0
0
0
0
0
0
0
0
0
0
0
0
0
0
0
0
0
0
0
0
0
0
0
0
0
0
0
0
0
0
0
0
0
0
0
0
0
0
0
0
0
0
0
0
0
0
0
0
0
0
0
0
0
0
0
0
0
0
0
0
0
0
0
0
0
0
0
0
0
0
0
0
0
0
0
0
0
0
0
0
0
0
0
0
0
0
0
0
0
0
0
0
0
0
0
0
0
0
0
0
0
0
0
0
0
0
0
0
0
0
0
0
0
0
0
0
0
0
0
0
0
0
0
0
0
0
0
0
0
0
0
0
0
0
0
0
0
0
0
0
0
0
0
0
0
0
0
0
0
0
0
0
0
0
0
0
0
0
0
0
0
0
0
0
0
0
0
0
0
0
0
0
0
0
0
0
0
0
0
0
0
0
0
0
0
0
0
0
0
0
0
0
0
0
0
0
0
0
0
0
0
0
0
0
0
0
0
0
0
0
0
0
0
0
0
0
0
0
0
0
0
0
0
0
0
0
0
0
0
0
0
0
0
0
0
0
0
0
0
0
0
0
0
0
0
0
0
0
0
0
0
0
0
0
3.47589e-06
3.23279e-06
2.79652e-07
6.35795e-09
7.1852e-11
6.01195e-13
1.56076e-14
2.84382e-16
4.44153e-18
5.81582e-20
5.96634e-22
5.27339e-24
4.18703e-26
3.01627e-28
9.19665e-42
5.02157e-43
2.6219e-45
1.30073e-47
5.99821e-50
2.51302e-52
9.79484e-55
3.59197e-57
1.33618e-59
5.11867e-62
2.00609e-64
7.91559e-67
3.08823e-69
1.16344e-71
4.53154e-74
1.70204e-76
6.5933e-79
2.69116e-81
1.12585e-83
5.44571e-86
2.86804e-88
1.62518e-90
9.96141e-93
5.82498e-95
3.46521e-97
1.9748e-99
1.06794e-101
5.77559e-104
2.92235e-106
1.39903e-108
7.48347e-118
1.87389e-118
2.07687e-120
1.48477e-122
8.32966e-125
3.95581e-127
1.65501e-129
6.2734e-132
2.20385e-134
7.38099e-137
2.3762e-139
7.48381e-142
2.31183e-144
6.94824e-147
2.03092e-149
5.72143e-152
1.53398e-154
3.89394e-157
9.58566e-160
2.29258e-162
5.38893e-165
1.23546e-167
1.66882e-170
7.74188e-174
1.01568e-176
1.60497e-179
2.29729e-182
2.8045e-185
2.8395e-188
5.19031e-192
1.50324e-209
7.40074e-208
1.6732e-210
2.21572e-213
2.20583e-216
1.91074e-219
1.49491e-222
1.06817e-225
7.23562e-229
4.60308e-232
2.84056e-235
1.66757e-238
9.8259e-242
5.76148e-245
3.22114e-248
1.67224e-251
7.79552e-255
3.19592e-258
1.21768e-261
4.39895e-265
1.55547e-268
5.29757e-272
1.76518e-275
5.69425e-279
1.79121e-282
5.48011e-286
1.65416e-289
4.90129e-293
1.41002e-296
1.60221e-300
4.94066e-324
1.77864e-322
0
0
0
0
0
0
0
0
0
0
0
0
0
0
0
0
0
0
0
0
0
0
0
0
0
0
0
0
0
0
0
0
0
0
0
0
0
0
0
0
0
0
0
0
0
0
0
0
0
0
0
0
0
0
0
0
0
0
0
0
0
0
0
0
0
0
0
0
0
0
0
0
0
0
0
0
0
0
0
0
0
0
0
0
0
0
0
0
0
0
0
0
0
0
0
0
0
0
0
0
0
0
0
0
0
0
0
0
0
0
0
0
0
0
0
0
0
0
0
0
0
0
0
0
0
0
0
0
0
0
0
0
0
0
0
0
0
0
0
0
0
0
0
0
0
0
0
0
0
0
0
0
0
0
0
0
0
0
0
0
0
0
0
0
0
0
0
0
0
0
0
0
0
0
0
0
0
0
0
0
0
0
0
0
0
0
0
0
0
0
0
0
0
0
0
0
0
0
0
0
0
0
0
0
0
0
0
0
0
0
0
0
0
0
0
0
0
0
0
0
0
0
0
0
0
0
0
0
0
0
0
0
0
0
0
0
0
0
0
0
0
0
0
0
0
0
0
0
0
0
0
0
0
0
0
0
0
0
0
0
0
0
0
0
0
0
0
0
8.85713e-10
1.28157e-09
8.9327e-11
1.47217e-11
3.49275e-14
2.47504e-15
6.84436e-18
6.90859e-21
6.04669e-24
1.22262e-26
1.68458e-29
2.76282e-31
7.59624e-33
1.62882e-34
3.30716e-45
2.64865e-46
1.3235e-48
5.72713e-51
3.10461e-53
1.00273e-55
4.33838e-58
1.29552e-60
5.23662e-63
2.10756e-65
8.80881e-68
3.56873e-70
1.5411e-72
5.73865e-75
2.42673e-77
9.69782e-80
3.67672e-82
1.37652e-84
5.20149e-87
1.76183e-89
6.96916e-92
2.45352e-94
8.9075e-97
3.49073e-99
1.38491e-101
6.7143e-104
3.32403e-106
1.81732e-108
1.13422e-110
9.59359e-114
3.53999e-121
1.12336e-121
1.25579e-123
9.44729e-126
5.92699e-128
3.20894e-130
1.47713e-132
5.85499e-135
2.08419e-137
7.03035e-140
2.2297e-142
6.92259e-145
2.11839e-147
6.20598e-150
1.77294e-152
4.87229e-155
1.28961e-157
3.23386e-160
8.08674e-163
1.95536e-165
4.65226e-168
1.0621e-170
2.3954e-173
4.99154e-176
8.70576e-179
1.46407e-181
2.06692e-184
2.48665e-187
2.40042e-190
1.656e-194
4.7382e-211
1.06035e-209
2.11929e-212
2.55035e-215
2.33911e-218
1.86976e-221
1.3586e-224
9.12347e-228
5.82957e-231
3.52788e-234
2.05968e-237
1.13762e-240
6.1994e-244
3.30051e-247
1.66585e-250
7.89503e-254
3.55484e-257
1.47173e-260
5.82436e-264
2.22424e-267
8.26119e-271
2.9263e-274
1.00507e-277
3.31253e-281
1.05031e-284
3.21478e-288
9.53506e-292
2.76492e-295
7.82175e-299
3.45839e-303
0
4.94066e-324
0
0
0
0
0
0
0
0
0
0
0
0
0
0
0
0
0
0
0
0
0
0
0
0
0
0
0
0
0
0
0
0
0
0
0
0
0
0
0
0
0
0
0
0
0
0
0
0
0
0
0
0
0
0
0
0
0
0
0
0
0
0
0
0
0
0
0
0
0
0
0
0
0
0
0
0
0
0
0
0
0
0
0
0
0
0
0
0
0
0
0
0
0
0
0
0
0
0
0
0
0
0
0
0
0
0
0
0
0
0
0
0
0
0
0
0
0
0
0
0
0
0
0
0
0
0
0
0
0
0
0
0
0
0
0
0
0
0
0
0
0
0
0
0
0
0
0
0
0
0
0
0
0
0
0
0
0
0
0
0
0
0
0
0
0
0
0
0
0
0
0
0
0
0
0
0
0
0
0
0
0
0
0
0
0
0
0
0
0
0
0
0
0
0
0
0
0
0
0
0
0
0
0
0
0
0
0
0
0
0
0
0
0
0
0
0
0
0
0
0
0
0
0
0
0
0
0
0
0
0
0
0
0
0
0
0
0
0
0
0
0
0
0
0
0
0
0
0
0
0
0
0
0
0
0
0
0
0
0
0
0
0
0
0
0
0
0
0
0.000449837
0.000254655
6.13903e-07
5.35147e-09
6.45581e-10
1.84423e-10
3.52956e-13
8.63459e-17
5.40517e-20
3.24687e-23
4.45249e-26
6.69075e-29
1.11928e-31
2.78154e-34
1.82439e-40
1.08689e-41
4.35195e-44
2.29619e-46
8.77478e-49
3.57886e-51
1.04615e-53
3.38716e-56
1.02207e-58
3.76813e-61
1.27802e-63
5.75164e-66
1.95778e-68
7.90943e-71
3.01566e-73
1.01817e-75
3.95347e-78
1.42158e-80
5.0162e-83
1.87745e-85
6.41406e-88
2.31148e-90
8.39909e-93
2.92967e-95
1.11959e-97
4.32976e-100
1.72939e-102
8.07683e-105
3.81033e-107
1.27103e-109
6.05156e-117
2.10752e-118
1.96566e-120
1.43785e-122
9.16293e-125
5.36746e-127
2.73399e-129
1.18589e-131
4.3414e-134
1.43522e-136
4.5036e-139
1.36171e-141
4.06471e-144
1.16995e-146
3.36408e-149
9.43836e-152
2.57899e-154
6.88525e-157
1.78445e-159
4.49616e-162
1.09604e-164
2.65649e-167
6.3141e-170
1.49666e-172
3.38167e-175
6.1691e-178
9.37349e-181
1.15937e-183
1.14159e-186
2.52581e-190
5.64876e-206
8.11104e-206
1.38763e-208
1.45579e-211
1.17482e-214
8.19829e-218
5.09916e-221
2.95296e-224
1.62714e-227
8.72609e-231
4.57999e-234
2.34499e-237
1.158e-240
5.52595e-244
2.54994e-247
1.1423e-250
4.96874e-254
2.10535e-257
8.67371e-261
3.473e-264
1.33672e-267
5.01141e-271
1.84247e-274
6.69938e-278
2.39205e-281
8.39626e-285
2.85309e-288
9.25431e-292
2.86593e-295
4.19204e-299
2.49256e-320
2.57211e-320
3.95253e-323
0
0
0
0
0
0
0
0
0
0
0
0
0
0
0
0
0
0
0
0
0
0
0
0
0
0
0
0
0
0
0
0
0
0
0
0
0
0
0
0
0
0
0
0
0
0
0
0
0
0
0
0
0
0
0
0
0
0
0
0
0
0
0
0
0
0
0
0
0
0
0
0
0
0
0
0
0
0
0
0
0
0
0
0
0
0
0
0
0
0
0
0
0
0
0
0
0
0
0
0
0
0
0
0
0
0
0
0
0
0
0
0
0
0
0
0
0
0
0
0
0
0
0
0
0
0
0
0
0
0
0
0
0
0
0
0
0
0
0
0
0
0
0
0
0
0
0
0
0
0
0
0
0
0
0
0
0
0
0
0
0
0
0
0
0
0
0
0
0
0
0
0
0
0
0
0
0
0
0
0
0
0
0
0
0
0
0
0
0
0
0
0
0
0
0
0
0
0
0
0
0
0
0
0
0
0
0
0
0
0
0
0
0
0
0
0
0
0
0
0
0
0
0
0
0
0
0
0
0
0
0
0
0
0
0
0
0
0
0
0
0
0
0
0
0
0
0
0
0
0
0
0
0
0
0
0
0
0
0
0
0
0
0
0
0
0
0
0.00060247
0.000568689
0.00057505
1.75842e-05
2.73789e-07
1.78865e-07
2.35101e-08
1.21146e-11
5.20786e-15
2.89163e-18
2.75809e-21
3.4731e-24
5.59356e-27
1.13688e-29
1.98548e-35
1.25823e-36
6.13703e-39
2.81218e-41
1.26167e-43
4.37152e-46
1.54257e-48
4.373e-51
1.49494e-53
5.18977e-56
2.19309e-58
8.61231e-61
3.75549e-63
1.40928e-65
6.05743e-68
2.13493e-70
8.76141e-73
3.14902e-75
1.13732e-77
4.3415e-80
1.41118e-82
5.48347e-85
1.89495e-87
6.63736e-90
2.49627e-92
8.62232e-95
3.35826e-97
1.26931e-99
5.28219e-102
2.06141e-104
9.58965e-112
1.11091e-113
7.52124e-116
4.78393e-118
2.96397e-120
1.75429e-122
9.98345e-125
5.01696e-127
2.08918e-129
7.37228e-132
2.3951e-134
7.37982e-137
2.23991e-139
6.51057e-142
1.91848e-144
5.47482e-147
1.52279e-149
4.1168e-152
1.08418e-154
2.77445e-157
6.94411e-160
1.71634e-162
4.18194e-165
1.01106e-167
2.37544e-170
5.38695e-173
8.39927e-176
1.02725e-178
9.38175e-182
2.10521e-185
7.59735e-200
1.34773e-200
1.83909e-203
1.60701e-206
1.09044e-209
6.43026e-213
3.45384e-216
1.72829e-219
8.31789e-223
3.93863e-226
1.87181e-229
8.88786e-233
4.17475e-236
1.9092e-239
8.51477e-243
3.68554e-246
1.5516e-249
6.33584e-253
2.51745e-256
9.58908e-260
3.49885e-263
1.24144e-266
4.37386e-270
1.5322e-273
5.31846e-277
1.78026e-280
5.79527e-284
1.85136e-287
5.66607e-291
9.12526e-295
3.55317e-314
4.90041e-315
5.94733e-318
4.38236e-321
4.94066e-324
0
0
0
0
0
0
0
0
0
0
0
0
0
0
0
0
0
0
0
0
0
0
0
0
0
0
0
0
0
0
0
0
0
0
0
0
0
0
0
0
0
0
0
0
0
0
0
0
0
0
0
0
0
0
0
0
0
0
0
0
0
0
0
0
0
0
0
0
0
0
0
0
0
0
0
0
0
0
0
0
0
0
0
0
0
0
0
0
0
0
0
0
0
0
0
0
0
0
0
0
0
0
0
0
0
0
0
0
0
0
0
0
0
0
0
0
0
0
0
0
0
0
0
0
0
0
0
0
0
0
0
0
0
0
0
0
0
0
0
0
0
0
0
0
0
0
0
0
0
0
0
0
0
0
0
0
0
0
0
0
0
0
0
0
0
0
0
0
0
0
0
0
0
0
0
0
0
0
0
0
0
0
0
0
0
0
0
0
0
0
0
0
0
0
0
0
0
0
0
0
0
0
0
0
0
0
0
0
0
0
0
0
0
0
0
0
0
0
0
0
0
0
0
0
0
0
0
0
0
0
0
0
0
0
0
0
0
0
0
0
0
0
0
0
0
0
0
0
0
0
0
0
0
0
0
0
0
0
0
0
0
0
0
0
0
0.00053785
0.000539865
0.000604524
0.000494868
6.78914e-05
2.85482e-05
5.79296e-06
1.7241e-07
9.60439e-11
8.39932e-14
6.15263e-17
5.3713e-20
7.97694e-23
1.43647e-25
7.07455e-31
5.41081e-32
2.47658e-34
1.24536e-36
4.68679e-39
1.93249e-41
6.27358e-44
2.03127e-46
5.65977e-49
1.97472e-51
7.5696e-54
3.16256e-56
1.34575e-58
5.21498e-61
2.28839e-63
8.279e-66
3.43727e-68
1.24591e-70
4.56129e-73
1.74752e-75
5.94723e-78
2.25744e-80
7.6997e-83
2.75817e-85
9.99892e-88
3.50071e-90
1.32496e-92
4.7277e-95
1.82459e-97
6.63695e-100
2.92354e-107
2.39018e-109
1.08507e-111
5.91618e-114
3.23149e-116
1.82833e-118
1.01255e-120
5.42165e-123
2.53891e-125
1.00691e-127
3.51753e-130
1.12931e-132
3.51758e-135
1.04241e-137
3.12603e-140
9.11275e-143
2.58107e-145
7.12187e-148
1.9126e-150
5.0487e-153
1.30515e-155
3.3236e-158
8.29058e-161
2.04525e-163
4.91367e-166
1.15188e-168
2.64396e-171
3.1906e-174
2.73067e-177
5.24338e-181
3.12211e-194
8.59235e-196
8.77394e-199
6.03419e-202
3.37929e-205
1.67353e-208
7.61399e-212
3.26206e-215
1.34567e-218
5.48901e-222
2.24073e-225
9.24264e-229
3.85082e-232
1.61816e-235
6.74675e-239
2.75162e-242
1.08144e-245
4.0961e-249
1.49537e-252
5.3111e-256
1.83935e-259
6.27006e-263
2.11255e-266
7.0968e-270
2.35919e-273
7.62736e-277
2.42474e-280
7.56623e-284
2.2402e-287
3.27437e-291
1.49707e-308
3.40036e-310
3.1375e-313
1.86014e-316
9.10415e-320
3.95253e-323
0
0
0
0
0
0
0
0
0
0
0
0
0
0
0
0
0
0
0
0
0
0
0
0
0
0
0
0
0
0
0
0
0
0
0
0
0
0
0
0
0
0
0
0
0
0
0
0
0
0
0
0
0
0
0
0
0
0
0
0
0
0
0
0
0
0
0
0
0
0
0
0
0
0
0
0
0
0
0
0
0
0
0
0
0
0
0
0
0
0
0
0
0
0
0
0
0
0
0
0
0
0
0
0
0
0
0
0
0
0
0
0
0
0
0
0
0
0
0
0
0
0
0
0
0
0
0
0
0
0
0
0
0
0
0
0
0
0
0
0
0
0
0
0
0
0
0
0
0
0
0
0
0
0
0
0
0
0
0
0
0
0
0
0
0
0
0
0
0
0
0
0
0
0
0
0
0
0
0
0
0
0
0
0
0
0
0
0
0
0
0
0
0
0
0
0
0
0
0
0
0
0
0
0
0
0
0
0
0
0
0
0
0
0
0
0
0
0
0
0
0
0
0
0
0
0
0
0
0
0
0
0
0
0
0
0
0
0
0
0
0
0
0
0
0
0
0
0
0
0
0
0
0
0
0
0
0
0
0
0
0
0
0
0
0.000572331
0.00055438
0.000551354
0.000595132
0.000440887
0.000349385
0.000280806
1.83183e-05
1.85133e-07
2.15821e-10
3.30508e-13
5.56204e-16
1.00021e-18
1.41082e-21
7.90853e-27
5.55386e-28
3.3312e-30
1.73376e-32
8.05845e-35
3.32505e-37
1.33192e-39
4.36798e-42
1.47227e-44
4.74803e-47
2.02102e-49
8.24303e-52
3.8181e-54
1.54506e-56
6.88751e-59
2.71271e-61
1.11113e-63
4.36919e-66
1.64756e-68
6.30462e-71
2.28858e-73
8.42449e-76
3.02321e-78
1.09537e-80
3.86279e-83
1.40466e-85
5.08562e-88
1.82074e-90
6.84189e-93
2.52775e-95
1.19884e-102
7.23887e-105
2.90866e-107
1.31487e-109
6.39899e-112
3.20811e-114
1.6623e-116
8.55646e-119
4.2014e-121
1.84796e-123
7.16034e-126
2.4818e-128
8.08697e-131
2.49982e-133
7.62459e-136
2.27092e-138
6.6023e-141
1.87248e-143
5.18144e-146
1.40597e-148
3.73717e-151
9.744e-154
2.49081e-156
6.25036e-159
1.5351e-161
3.67495e-164
8.61548e-167
1.95513e-169
1.57791e-172
3.47207e-176
2.68139e-188
1.13297e-190
8.16759e-194
4.34028e-197
1.99084e-200
8.4001e-204
3.3327e-207
1.26359e-210
4.64732e-214
1.6832e-217
6.07198e-221
2.19934e-224
8.04506e-228
2.97435e-231
1.09914e-234
4.01683e-238
1.44261e-241
5.0753e-245
1.74384e-248
5.89697e-252
1.97343e-255
6.56371e-259
2.1737e-262
7.17428e-266
2.3463e-269
7.47213e-273
2.34146e-276
7.19997e-280
2.08775e-283
3.28034e-287
1.29252e-302
4.65272e-305
3.08523e-308
1.45173e-311
5.83341e-315
2.11395e-318
7.21336e-322
0
0
0
0
0
0
0
0
0
0
0
0
0
0
0
0
0
0
0
0
0
0
0
0
0
0
0
0
0
0
0
0
0
0
0
0
0
0
0
0
0
0
0
0
0
0
0
0
0
0
0
0
0
0
0
0
0
0
0
0
0
0
0
0
0
0
0
0
0
0
0
0
0
0
0
0
0
0
0
0
0
0
0
0
0
0
0
0
0
0
0
0
0
0
0
0
0
0
0
0
0
0
0
0
0
0
0
0
0
0
0
0
0
0
0
0
0
0
0
0
0
0
0
0
0
0
0
0
0
0
0
0
0
0
0
0
0
0
0
0
0
0
0
0
0
0
0
0
0
0
0
0
0
0
0
0
0
0
0
0
0
0
0
0
0
0
0
0
0
0
0
0
0
0
0
0
0
0
0
0
0
0
0
0
0
0
0
0
0
0
0
0
0
0
0
0
0
0
0
0
0
0
0
0
0
0
0
0
0
0
0
0
0
0
0
0
0
0
0
0
0
0
0
0
0
0
0
0
0
0
0
0
0
0
0
0
0
0
0
0
0
0
0
0
0
0
0
0
0
0
0
0
0
0
0
0
0
0
0
0
0
0
0
0.000577078
0.000584391
0.000570881
0.000517994
0.000292176
0.000308887
0.00036231
0.000115318
9.47043e-06
3.17845e-08
8.34713e-11
1.85926e-13
3.44151e-16
5.29641e-19
3.73271e-24
1.71878e-25
2.02452e-27
1.79876e-29
1.10013e-31
5.53168e-34
2.40985e-36
8.99194e-39
3.03248e-41
9.82456e-44
4.03432e-46
1.77565e-48
8.25866e-51
3.59703e-53
1.60299e-55
6.79978e-58
2.83652e-60
1.1566e-62
4.57256e-65
1.7592e-67
6.74545e-70
2.48023e-72
8.96427e-75
3.34811e-77
1.15236e-79
4.3793e-82
1.51557e-84
5.62657e-87
2.02031e-89
7.20184e-92
3.83332e-99
2.00368e-101
7.60812e-104
3.23678e-106
1.39234e-108
6.44267e-111
3.04774e-113
1.49849e-115
7.30245e-118
3.40523e-120
1.44021e-122
5.4427e-125
1.88254e-127
6.10394e-130
1.91297e-132
5.8332e-135
1.73623e-137
5.04833e-140
1.43368e-142
3.98526e-145
1.0844e-147
2.88908e-150
7.54342e-153
1.92986e-155
4.82866e-158
1.17911e-160
2.81451e-163
6.54174e-166
1.47162e-168
5.19709e-172
3.45665e-183
2.56424e-186
1.22457e-189
4.82762e-193
1.75918e-196
6.19477e-200
2.13648e-203
7.21347e-207
2.38674e-210
7.78022e-214
2.51891e-217
8.14729e-221
2.65155e-224
8.70069e-228
2.85939e-231
9.35413e-235
3.04171e-238
9.80289e-242
3.12038e-245
9.8581e-249
3.10476e-252
9.76753e-256
3.07706e-259
9.70097e-263
3.04406e-266
9.36748e-270
2.83813e-273
8.37139e-277
2.33989e-280
3.72321e-284
1.68736e-297
1.05013e-300
4.59487e-304
1.64891e-307
5.38589e-311
1.6545e-314
4.91519e-318
1.43279e-321
0
0
0
0
0
0
0
0
0
0
0
0
0
0
0
0
0
0
0
0
0
0
0
0
0
0
0
0
0
0
0
0
0
0
0
0
0
0
0
0
0
0
0
0
0
0
0
0
0
0
0
0
0
0
0
0
0
0
0
0
0
0
0
0
0
0
0
0
0
0
0
0
0
0
0
0
0
0
0
0
0
0
0
0
0
0
0
0
0
0
0
0
0
0
0
0
0
0
0
0
0
0
0
0
0
0
0
0
0
0
0
0
0
0
0
0
0
0
0
0
0
0
0
0
0
0
0
0
0
0
0
0
0
0
0
0
0
0
0
0
0
0
0
0
0
0
0
0
0
0
0
0
0
0
0
0
0
0
0
0
0
0
0
0
0
0
0
0
0
0
0
0
0
0
0
0
0
0
0
0
0
0
0
0
0
0
0
0
0
0
0
0
0
0
0
0
0
0
0
0
0
0
0
0
0
0
0
0
0
0
0
0
0
0
0
0
0
0
0
0
0
0
0
0
0
0
0
0
0
0
0
0
0
0
0
0
0
0
0
0
0
0
0
0
0
0
0
0
0
0
0
0
0
0
0
0
0
0
0
0
0
0
0.000601819
0.000588159
0.000498381
0.00017061
6.56213e-05
9.15088e-05
0.000113265
8.30865e-05
8.46648e-06
3.68129e-07
1.26554e-09
6.32016e-12
3.50912e-14
1.71599e-16
1.05864e-18
6.22732e-21
3.02451e-23
2.25141e-25
1.95953e-27
2.61344e-29
2.57342e-31
2.14452e-33
1.66863e-35
1.22776e-37
7.60352e-40
4.69325e-42
2.54867e-44
1.40975e-46
6.7217e-49
3.39003e-51
1.5349e-53
6.9541e-56
3.08099e-58
1.29672e-60
5.44372e-63
2.22546e-65
8.70995e-68
3.43136e-70
1.27134e-72
4.80914e-75
1.7392e-77
6.41224e-80
2.31112e-82
8.52192e-85
3.08359e-87
1.09321e-89
3.87684e-92
1.54472e-94
7.1709e-97
3.13221e-99
1.24363e-101
5.16014e-104
2.00974e-106
8.84603e-109
3.73792e-111
1.74579e-113
8.03063e-116
3.7588e-118
1.67476e-120
6.86731e-123
2.55646e-125
8.78621e-128
2.86114e-130
8.97919e-133
2.73943e-135
8.1544e-138
2.37163e-140
6.74537e-143
1.8777e-145
5.11224e-148
1.36295e-150
3.55699e-153
9.07867e-156
2.2629e-158
5.51206e-161
1.31116e-163
3.04586e-166
6.76149e-169
1.72036e-172
2.88295e-176
1.24978e-179
4.85666e-183
1.49492e-186
4.30569e-190
1.22486e-193
3.55044e-197
1.05814e-200
3.19806e-204
9.64932e-208
2.88792e-211
8.58374e-215
2.53999e-218
7.5318e-222
2.24431e-225
6.70213e-229
1.99848e-232
5.951e-236
1.76497e-239
5.19785e-243
1.52359e-246
4.45973e-250
1.30349e-253
3.81301e-257
1.11453e-260
3.22995e-264
9.15472e-268
2.53308e-271
6.73629e-275
1.69727e-278
4.07551e-282
5.78242e-286
3.02353e-290
6.36546e-294
1.92039e-297
5.2034e-301
1.37893e-304
3.62708e-308
9.48225e-312
2.48134e-315
6.51243e-319
1.72923e-322
0
0
0
0
0
0
0
0
0
0
0
0
0
0
0
0
0
0
0
0
0
0
0
0
0
0
0
0
0
0
0
0
0
0
0
0
0
0
0
0
0
0
0
0
0
0
0
0
0
0
0
0
0
0
0
0
0
0
0
0
0
0
0
0
0
0
0
0
0
0
0
0
0
0
0
0
0
0
0
0
0
0
0
0
0
0
0
0
0
0
0
0
0
0
0
0
0
0
0
0
0
0
0
0
0
0
0
0
0
0
0
0
0
0
0
0
0
0
0
0
0
0
0
0
0
0
0
0
0
0
0
0
0
0
0
0
0
0
0
0
0
0
0
0
0
0
0
0
0
0
0
0
0
0
0
0
0
0
0
0
0
0
0
0
0
0
0
0
0
0
0
0
0
0
0
0
0
0
0
0
0
0
0
0
0
0
0
0
0
0
0
0
0
0
0
0
0
0
0
0
0
0
0
0
0
0
0
0
0
0
0
0
0
0
0
0
0
0
0
0
0
0
0
0
0
0
0
0
0
0
0
0
0
0
0
0
0
0
0
0
0
0
0
0
0
0
0
0
0
0
0
0
0
0
0
0
0
0
0
0
0
0
0
0
0
0
0
0
0
0
0
0
0
0
0
0
0
0
0
0.00059358
0.000519594
0.000121668
5.88545e-06
6.54278e-06
2.07689e-05
3.50933e-05
3.14444e-05
2.61357e-06
9.45701e-08
2.95622e-10
1.69676e-12
1.27895e-14
1.29006e-16
8.88068e-19
4.9583e-21
1.90992e-23
9.74915e-26
7.4135e-28
8.11626e-30
8.45013e-32
7.38166e-34
5.84722e-36
4.48857e-38
3.01721e-40
2.23798e-42
1.45429e-44
9.6193e-47
5.45571e-49
3.13782e-51
1.75913e-53
8.6321e-56
4.57542e-58
2.15336e-60
1.00306e-62
4.61526e-65
2.0134e-67
8.57765e-70
3.67711e-72
1.46998e-74
6.06862e-77
2.37541e-79
9.58425e-82
3.71957e-84
1.49293e-86
5.9884e-89
2.39022e-91
9.94644e-94
4.32391e-96
1.94754e-98
8.92991e-101
4.183e-103
1.98914e-105
9.44817e-108
4.50787e-110
2.13319e-112
1.00337e-114
4.65335e-117
2.10483e-119
8.99646e-122
3.52681e-124
1.27053e-126
4.30314e-129
1.39373e-131
4.3627e-134
1.32863e-136
3.94802e-139
1.14683e-141
3.25892e-144
9.06234e-147
2.46704e-149
6.57683e-152
1.71549e-154
4.37581e-157
1.09239e-159
2.67185e-162
6.40812e-165
1.51068e-167
3.40772e-170
1.35845e-173
4.55359e-177
1.17925e-180
2.84908e-184
6.5872e-188
1.51415e-191
3.59024e-195
8.99087e-199
2.35998e-202
6.35114e-206
1.7236e-209
4.68089e-213
1.26867e-216
3.44243e-220
9.40052e-224
2.58055e-227
7.0985e-231
1.95543e-234
5.37973e-238
1.47299e-241
4.01979e-245
1.0947e-248
2.97668e-252
8.08643e-256
2.18951e-259
5.8679e-263
1.5463e-266
4.01978e-270
1.02871e-273
2.59022e-277
6.40319e-281
1.70989e-284
5.21368e-288
1.42774e-291
3.26461e-295
7.39722e-299
1.65977e-302
3.74324e-306
8.54429e-310
1.98351e-313
4.67796e-317
1.11659e-320
4.94066e-324
0
0
0
0
0
0
0
0
0
0
0
0
0
0
0
0
0
0
0
0
0
0
0
0
0
0
0
0
0
0
0
0
0
0
0
0
0
0
0
0
0
0
0
0
0
0
0
0
0
0
0
0
0
0
0
0
0
0
0
0
0
0
0
0
0
0
0
0
0
0
0
0
0
0
0
0
0
0
0
0
0
0
0
0
0
0
0
0
0
0
0
0
0
0
0
0
0
0
0
0
0
0
0
0
0
0
0
0
0
0
0
0
0
0
0
0
0
0
0
0
0
0
0
0
0
0
0
0
0
0
0
0
0
0
0
0
0
0
0
0
0
0
0
0
0
0
0
0
0
0
0
0
0
0
0
0
0
0
0
0
0
0
0
0
0
0
0
0
0
0
0
0
0
0
0
0
0
0
0
0
0
0
0
0
0
0
0
0
0
0
0
0
0
0
0
0
0
0
0
0
0
0
0
0
0
0
0
0
0
0
0
0
0
0
0
0
0
0
0
0
0
0
0
0
0
0
0
0
0
0
0
0
0
0
0
0
0
0
0
0
0
0
0
0
0
0
0
0
0
0
0
0
0
0
0
0
0
0
0
0
0
0
0
0
0
0
0
0
0
0
0
0
0
0
0
0
0
0
0.000388309
0.000124885
1.98893e-06
2.9818e-07
5.15633e-07
3.80636e-06
1.00596e-05
6.35405e-06
3.863e-07
7.47222e-09
1.79194e-11
9.24052e-14
5.63905e-16
4.57307e-18
2.72095e-20
1.39311e-22
5.65992e-25
3.35101e-27
2.33776e-29
1.80217e-31
1.36462e-33
1.01628e-35
7.10281e-38
4.55199e-40
3.1231e-42
2.06253e-44
1.22578e-46
7.35105e-49
4.10581e-51
2.11238e-53
1.15337e-55
5.50647e-58
2.68902e-60
1.27184e-62
5.69549e-65
2.56047e-67
1.12276e-69
4.68506e-72
2.01333e-74
8.07032e-77
3.28526e-79
1.31766e-81
5.13744e-84
2.05241e-86
8.0383e-89
3.22307e-91
1.32036e-93
5.45804e-96
2.33756e-98
1.0396e-100
4.7882e-103
2.25975e-105
1.0815e-107
5.23976e-110
2.53569e-112
1.22928e-114
5.90492e-117
2.8173e-119
1.32276e-121
6.02213e-124
2.58047e-126
1.01663e-128
3.69374e-131
1.263e-133
4.12934e-136
1.30492e-138
4.00744e-141
1.19978e-143
3.50745e-146
1.00239e-148
2.80204e-151
7.66034e-154
2.04538e-156
5.33373e-159
1.3604e-161
3.3972e-164
8.31913e-167
1.99429e-169
4.42888e-172
1.51352e-175
3.99598e-179
8.86768e-183
2.03212e-186
5.00208e-190
1.3276e-193
3.68454e-197
1.04198e-200
2.93099e-204
8.08858e-208
2.19316e-211
5.8805e-215
1.56752e-218
4.18123e-222
1.12207e-225
3.0163e-229
8.096e-233
2.17664e-236
5.83628e-240
1.55194e-243
4.10848e-247
1.08727e-250
2.88093e-254
7.65092e-258
2.0318e-261
5.33561e-265
1.37386e-268
3.47638e-272
8.61331e-276
2.09359e-279
4.90987e-283
1.27541e-286
3.64531e-290
9.082e-294
2.02719e-297
4.61536e-301
1.05536e-304
2.44859e-308
5.79975e-312
1.4049e-315
3.45717e-319
8.39912e-323
0
0
0
0
0
0
0
0
0
0
0
0
0
0
0
0
0
0
0
0
0
0
0
0
0
0
0
0
0
0
0
0
0
0
0
0
0
0
0
0
0
0
0
0
0
0
0
0
0
0
0
0
0
0
0
0
0
0
0
0
0
0
0
0
0
0
0
0
0
0
0
0
0
0
0
0
0
0
0
0
0
0
0
0
0
0
0
0
0
0
0
0
0
0
0
0
0
0
0
0
0
0
0
0
0
0
0
0
0
0
0
0
0
0
0
0
0
0
0
0
0
0
0
0
0
0
0
0
0
0
0
0
0
0
0
0
0
0
0
0
0
0
0
0
0
0
0
0
0
0
0
0
0
0
0
0
0
0
0
0
0
0
0
0
0
0
0
0
0
0
0
0
0
0
0
0
0
0
0
0
0
0
0
0
0
0
0
0
0
0
0
0
0
0
0
0
0
0
0
0
0
0
0
0
0
0
0
0
0
0
0
0
0
0
0
0
0
0
0
0
0
0
0
0
0
0
0
0
0
0
0
0
0
0
0
0
0
0
0
0
0
0
0
0
0
0
0
0
0
0
0
0
0
0
0
0
0
0
0
0
0
0
0
0
0
0
0
0
0
0
0
0
0
0
0
0
0
0
0
1.89704e-05
8.67514e-07
7.32883e-08
5.07701e-08
1.17448e-07
4.7428e-07
1.13248e-06
3.71174e-07
2.60086e-08
6.3005e-11
2.95392e-13
1.3336e-15
5.90005e-18
3.1564e-20
1.51042e-22
6.63e-25
3.18726e-27
1.81061e-29
1.02983e-31
7.33321e-34
5.1223e-36
3.79765e-38
2.70294e-40
1.84008e-42
1.19429e-44
7.52837e-47
4.3692e-49
2.46518e-51
1.37802e-53
6.74018e-56
3.53026e-58
1.67934e-60
7.82142e-63
3.69389e-65
1.62105e-67
7.05822e-70
3.08309e-72
1.24747e-74
5.26778e-77
2.08538e-79
8.31953e-82
3.31637e-84
1.27184e-86
5.11707e-89
1.9908e-91
8.11354e-94
3.36256e-96
1.42685e-98
6.35667e-101
2.89481e-103
1.36404e-105
6.57188e-108
3.18255e-110
1.5648e-112
7.62004e-115
3.73801e-117
1.81597e-119
8.81927e-122
4.22402e-124
1.97832e-126
8.83267e-129
3.62847e-131
1.35593e-133
4.71146e-136
1.55532e-138
4.93619e-141
1.51695e-143
4.53371e-146
1.32131e-148
3.76099e-151
1.04661e-153
2.84925e-156
7.59185e-159
1.98129e-161
5.06819e-164
1.27139e-166
3.12958e-169
7.44303e-172
3.20845e-175
1.28376e-178
4.40904e-182
1.40069e-185
4.36626e-189
1.31927e-192
3.93413e-196
1.17174e-199
3.49538e-203
1.04056e-206
3.07506e-210
8.9911e-214
2.59911e-217
7.44088e-221
2.11519e-224
5.98695e-228
1.69074e-231
4.76982e-235
1.34515e-238
3.79357e-242
1.07051e-245
3.02618e-249
8.58151e-253
2.44438e-256
6.99896e-260
2.01405e-263
5.8161e-267
1.68133e-270
4.84966e-274
1.39059e-277
3.94946e-281
1.06891e-284
2.85715e-288
7.74678e-292
1.97425e-295
4.93687e-299
1.25628e-302
3.13901e-306
7.72216e-310
1.87785e-313
4.53794e-317
1.09436e-320
4.94066e-324
0
0
0
0
0
0
0
0
0
0
0
0
0
0
0
0
0
0
0
0
0
0
0
0
0
0
0
0
0
0
0
0
0
0
0
0
0
0
0
0
0
0
0
0
0
0
0
0
0
0
0
0
0
0
0
0
0
0
0
0
0
0
0
0
0
0
0
0
0
0
0
0
0
0
0
0
0
0
0
0
0
0
0
0
0
0
0
0
0
0
0
0
0
0
0
0
0
0
0
0
0
0
0
0
0
0
0
0
0
0
0
0
0
0
0
0
0
0
0
0
0
0
0
0
0
0
0
0
0
0
0
0
0
0
0
0
0
0
0
0
0
0
0
0
0
0
0
0
0
0
0
0
0
0
0
0
0
0
0
0
0
0
0
0
0
0
0
0
0
0
0
0
0
0
0
0
0
0
0
0
0
0
0
0
0
0
0
0
0
0
0
0
0
0
0
0
0
0
0
0
0
0
0
0
0
0
0
0
0
0
0
0
0
0
0
0
0
0
0
0
0
0
0
0
0
0
0
0
0
0
0
0
0
0
0
0
0
0
0
0
0
0
0
0
0
0
0
0
0
0
0
0
0
0
0
0
0
0
0
0
0
0
0
0
0
0
0
0
0
0
0
0
0
0
0
0
0
0
0
4.07906e-07
2.47732e-08
9.94074e-09
1.87084e-08
8.14609e-09
7.92769e-09
1.37503e-08
5.93032e-09
1.81368e-10
3.20442e-13
7.28028e-16
1.53711e-18
5.08574e-21
2.694e-23
1.48303e-25
1.0161e-27
6.4464e-30
4.60374e-32
2.86721e-34
1.97842e-36
1.3757e-38
9.04289e-41
5.94745e-43
3.65561e-45
2.22722e-47
1.27561e-49
7.2804e-52
3.74563e-54
2.01752e-56
9.6594e-59
4.70174e-61
2.22742e-63
1.00253e-65
4.51762e-68
1.9859e-70
8.2887e-73
3.54943e-75
1.41868e-77
5.78562e-80
2.27458e-82
8.90422e-85
3.49332e-87
1.35475e-89
5.35893e-92
2.1492e-94
8.82246e-97
3.77702e-99
1.65002e-101
7.59228e-104
3.52808e-106
1.7062e-108
8.24122e-111
4.05338e-113
1.98073e-115
9.72771e-118
4.74758e-120
2.33234e-122
1.1415e-124
5.5719e-127
2.66898e-129
1.22069e-131
5.0591e-134
1.87974e-136
6.44861e-139
2.09768e-141
6.55792e-144
1.98454e-146
5.84038e-149
1.67605e-151
4.69913e-154
1.28864e-156
3.45941e-159
9.09824e-162
2.34589e-164
5.93437e-167
1.47373e-169
3.58601e-172
1.92258e-175
9.42465e-179
4.14397e-182
1.62873e-185
5.92977e-189
2.03262e-192
6.71899e-196
2.18139e-199
7.03393e-203
2.25917e-206
7.2117e-210
2.27999e-213
7.12405e-217
2.20024e-220
6.72807e-224
2.04229e-227
6.16828e-231
1.85709e-234
5.57813e-238
1.67221e-241
5.00426e-245
1.495e-248
4.45978e-252
1.32886e-255
3.95606e-259
1.17666e-262
3.49493e-266
1.03574e-269
3.0587e-273
8.98758e-277
2.62343e-280
7.59631e-284
2.17226e-287
6.16677e-291
1.72653e-294
4.75977e-298
1.30102e-301
3.50925e-305
9.36196e-309
2.47152e-312
6.46223e-316
1.67473e-319
4.44659e-323
0
0
0
0
0
0
0
0
0
0
0
0
0
0
0
0
0
0
0
0
0
0
0
0
0
0
0
0
0
0
0
0
0
0
0
0
0
0
0
0
0
0
0
0
0
0
0
0
0
0
0
0
0
0
0
0
0
0
0
0
0
0
0
0
0
0
0
0
0
0
0
0
0
0
0
0
0
0
0
0
0
0
0
0
0
0
0
0
0
0
0
0
0
0
0
0
0
0
0
0
0
0
0
0
0
0
0
0
0
0
0
0
0
0
0
0
0
0
0
0
0
0
0
0
0
0
0
0
0
0
0
0
0
0
0
0
0
0
0
0
0
0
0
0
0
0
0
0
0
0
0
0
0
0
0
0
0
0
0
0
0
0
0
0
0
0
0
0
0
0
0
0
0
0
0
0
0
0
0
0
0
0
0
0
0
0
0
0
0
0
0
0
0
0
0
0
0
0
0
0
0
0
0
0
0
0
0
0
0
0
0
0
0
0
0
0
0
0
0
0
0
0
0
0
0
0
0
0
0
0
0
0
0
0
0
0
0
0
0
0
0
0
0
0
0
0
0
0
0
0
0
0
0
0
0
0
0
0
0
0
0
0
0
0
0
0
0
0
0
0
0
0
0
0
0
0
0
0
0
0
5.13675e-09
7.41529e-09
4.01166e-09
1.72595e-09
6.46347e-10
1.22084e-10
2.04012e-11
4.23346e-12
1.10286e-13
2.46127e-16
7.05886e-19
2.42144e-21
1.06702e-23
6.53573e-26
5.11902e-28
4.0679e-30
3.25251e-32
2.43721e-34
1.75243e-36
1.20631e-38
8.07259e-41
5.13466e-43
3.15748e-45
1.85267e-47
1.05806e-49
5.79216e-52
3.07274e-54
1.56801e-56
7.689e-59
3.71468e-61
1.70273e-63
7.86829e-66
3.45387e-68
1.51257e-70
6.40704e-73
2.66594e-75
1.08533e-77
4.3481e-80
1.7078e-82
6.66726e-85
2.57715e-87
9.97749e-90
3.90627e-92
1.54581e-94
6.33638e-97
2.6626e-99
1.16605e-101
5.27086e-104
2.46269e-106
1.17169e-108
5.68856e-111
2.77287e-113
1.35789e-115
6.6396e-118
3.23527e-120
1.57645e-122
7.67772e-125
3.73784e-127
1.80744e-129
8.59196e-132
3.92978e-134
1.66403e-136
6.32385e-139
2.17895e-141
7.03645e-144
2.17247e-146
6.47936e-149
1.87739e-151
5.30368e-154
1.46401e-156
3.9547e-159
1.04648e-161
2.71502e-164
6.91186e-167
1.7277e-169
4.23897e-172
6.24294e-175
1.88075e-178
7.40969e-182
3.21271e-185
1.33485e-188
5.19052e-192
1.91107e-195
6.7908e-199
2.36551e-202
8.14987e-206
2.78394e-209
9.41491e-213
3.14562e-216
1.03742e-219
3.37948e-223
1.08939e-226
3.48239e-230
1.10602e-233
3.49458e-237
1.09905e-240
3.44099e-244
1.07245e-247
3.32688e-251
1.02719e-254
3.15686e-258
9.65719e-262
2.94042e-265
8.90805e-269
2.68383e-272
8.03656e-276
2.38985e-279
7.0521e-283
2.06344e-286
5.981e-290
1.71774e-293
4.88255e-297
1.37327e-300
3.82487e-304
1.05431e-307
2.87766e-311
7.78003e-315
2.0843e-318
5.53354e-322
0
0
0
0
0
0
0
0
0
0
0
0
0
0
0
0
0
0
0
0
0
0
0
0
0
0
0
0
0
0
0
0
0
0
0
0
0
0
0
0
0
0
0
0
0
0
0
0
0
0
0
0
0
0
0
0
0
0
0
0
0
0
0
0
0
0
0
0
0
0
0
0
0
0
0
0
0
0
0
0
0
0
0
0
0
0
0
0
0
0
0
0
0
0
0
0
0
0
0
0
0
0
0
0
0
0
0
0
0
0
0
0
0
0
0
0
0
0
0
0
0
0
0
0
0
0
0
0
0
0
0
0
0
0
0
0
0
0
0
0
0
0
0
0
0
0
0
0
0
0
0
0
0
0
0
0
0
0
0
0
0
0
0
0
0
0
0
0
0
0
0
0
0
0
0
0
0
0
0
0
0
0
0
0
0
0
0
0
0
0
0
0
0
0
0
0
0
0
0
0
0
0
0
0
0
0
0
0
0
0
0
0
0
0
0
0
0
0
0
0
0
0
0
0
0
0
0
0
0
0
0
0
0
0
0
0
0
0
0
0
0
0
0
0
0
0
0
0
0
0
0
0
0
0
0
0
0
0
0
0
0
0
0
0
0
0
0
0
0
0
0
0
0
0
0
0
0
0
0
0
0
9.67435e-10
6.99703e-10
3.45578e-10
1.29034e-10
1.07243e-11
3.91796e-13
6.4673e-14
8.50051e-15
1.40514e-16
5.68369e-19
2.2082e-21
1.00163e-23
6.05521e-26
4.67776e-28
4.18861e-30
3.68542e-32
2.94765e-34
2.33683e-36
1.63596e-38
1.13584e-40
7.41282e-43
4.64364e-45
2.73533e-47
1.56981e-49
8.54068e-52
4.58472e-54
2.31189e-56
1.15867e-58
5.47009e-61
2.58099e-63
1.15428e-65
5.17679e-68
2.22721e-70
9.52181e-73
3.94312e-75
1.61049e-77
6.4316e-80
2.52721e-82
9.80986e-85
3.7737e-87
1.45483e-89
5.61315e-92
2.22093e-94
8.92041e-97
3.73724e-99
1.61315e-101
7.24846e-104
3.3516e-106
1.59261e-108
7.64803e-111
3.7366e-113
1.81288e-115
8.89322e-118
4.30468e-120
2.10091e-122
1.0157e-124
4.95546e-127
2.40055e-129
1.16006e-131
5.51032e-134
2.54072e-136
1.08761e-138
4.11417e-141
1.40099e-143
4.46684e-146
1.36018e-148
3.99791e-151
1.14122e-153
3.1759e-156
8.63788e-159
2.29991e-161
6.00185e-164
1.53665e-166
3.8628e-169
9.5366e-172
1.96215e-174
7.20816e-178
2.53291e-181
1.00121e-184
4.24029e-188
1.77146e-191
7.07571e-195
2.70788e-198
1.00534e-201
3.66247e-205
1.31753e-208
4.68702e-212
1.64704e-215
5.70936e-219
1.95195e-222
6.58841e-226
2.19921e-229
7.27253e-233
2.386e-236
7.77309e-240
2.5153e-243
8.08483e-247
2.5812e-250
8.18493e-254
2.57767e-257
8.06289e-261
2.50504e-264
7.7299e-268
2.36848e-271
7.20468e-275
2.17483e-278
6.51201e-282
1.93332e-285
5.6891e-289
1.65883e-292
4.79139e-296
1.37071e-299
3.88381e-303
1.08998e-306
3.03025e-310
8.34695e-314
2.27855e-317
6.16594e-321
0
0
0
0
0
0
0
0
0
0
0
0
0
0
0
0
0
0
0
0
0
0
0
0
0
0
0
0
0
0
0
0
0
0
0
0
0
0
0
0
0
0
0
0
0
0
0
0
0
0
0
0
0
0
0
0
0
0
0
0
0
0
0
0
0
0
0
0
0
0
0
0
0
0
0
0
0
0
0
0
0
0
0
0
0
0
0
0
0
0
0
0
0
0
0
0
0
0
0
0
0
0
0
0
0
0
0
0
0
0
0
0