/*--------------------------------*- C++ -*----------------------------------*\
| =========                 |                                                 |
| \\      /  F ield         | OpenFOAM: The Open Source CFD Toolbox           |
|  \\    /   O peration     | Version:  2.1.1                                 |
|   \\  /    A nd           | Web:      www.OpenFOAM.org                      |
|    \\/     M anipulation  |                                                 |
\*---------------------------------------------------------------------------*/
FoamFile
{
    version     2.0;
    format      ascii;
    class       volScalarField;
    location    "0.000550000";
    object      rhoUnburned;
}
// * * * * * * * * * * * * * * * * * * * * * * * * * * * * * * * * * * * * * //

dimensions      [1 -3 0 0 0 0 0];

internalField   nonuniform List<scalar> 
12384
(
0.967564
0.96495
0.963457
0.966621
0.961781
0.961654
0.961738
0.961025
0.971866
0.971711
0.9794
0.978948
0.975848
0.973952
0.89479
0.895675
0.894266
0.894162
0.894442
0.893817
0.893568
0.892146
0.891343
0.890034
0.887072
0.88832
0.884081
0.885591
0.882128
0.882685
0.880197
0.880686
0.878438
0.878827
0.877575
0.877533
0.877409
0.878248
0.878114
0.879035
0.878961
0.879118
0.878353
0.879443
0.865036
0.865237
0.865227
0.86515
0.865172
0.86513
0.865143
0.865133
0.865135
0.865133
0.865139
0.865136
0.865144
0.865146
0.865145
0.865148
0.865141
0.865145
0.865133
0.865139
0.865129
0.865134
0.865121
0.865124
0.865114
0.865114
0.865112
0.865111
0.865106
0.865081
0.865079
0.865113
0.865113
0.865114
0.86511
0.86512
0.865116
0.865129
0.865125
0.865138
0.865131
0.865141
0.865139
0.865147
0.865143
0.865148
0.865141
0.865145
0.865133
0.865139
0.865129
0.865134
0.865121
0.865124
0.865113
0.865114
0.865111
0.86511
0.865105
0.865079
0.865079
0.865111
0.865111
0.865115
0.865112
0.86512
0.865117
0.86513
0.865126
0.865138
0.865131
0.86514
0.86514
0.865145
0.865147
0.865143
0.865147
0.865139
0.865141
0.86513
0.865138
0.865125
0.86513
0.865117
0.865121
0.865112
0.865115
0.865111
0.865111
0.865078
0.86508
0.865105
0.865112
0.86511
0.865114
0.865113
0.865124
0.865121
0.865133
0.86513
0.865138
0.865136
0.865144
0.865148
0.865144
0.865148
0.865141
0.865145
0.865133
0.865139
0.865129
0.865134
0.865121
0.865124
0.865114
0.865114
0.865112
0.86511
0.865106
0.86508
0.865078
0.865111
0.865111
0.865115
0.865112
0.865121
0.865117
0.86513
0.865125
0.865138
0.86513
0.865141
0.865139
0.865147
0.865143
0.865148
0.865142
0.865146
0.865135
0.865139
0.86513
0.865133
0.865122
0.865124
0.865114
0.865113
0.86511
0.865111
0.865106
0.86508
0.865079
0.865112
0.86511
0.865115
0.865109
0.865121
0.865116
0.865129
0.865124
0.865138
0.86513
0.865141
0.865139
0.865147
0.865143
0.865148
0.865141
0.865145
0.865133
0.865139
0.865129
0.865134
0.865121
0.865124
0.865114
0.865114
0.865112
0.86511
0.865106
0.86508
0.865076
0.865108
0.865106
0.865115
0.865108
0.865121
0.865115
0.86513
0.865124
0.865138
0.86513
0.865141
0.865139
0.865147
0.865143
0.865148
0.865141
0.865145
0.865133
0.865139
0.865129
0.865134
0.865121
0.865124
0.865113
0.865114
0.865111
0.86511
0.865106
0.86508
0.865078
0.865105
0.865108
0.865109
0.865113
0.865112
0.865124
0.86512
0.865134
0.865129
0.865139
0.865134
0.865146
0.865141
0.865148
0.865144
0.865148
0.865141
0.865141
0.865133
0.865135
0.86513
0.865123
0.865123
0.865114
0.865114
0.86511
0.865112
0.865105
0.86508
0.86508
0.865106
0.865108
0.865115
0.865108
0.865121
0.865115
0.86513
0.865124
0.865138
0.86513
0.865141
0.865139
0.865147
0.865143
0.865148
0.865141
0.865145
0.865133
0.865139
0.865129
0.865134
0.865121
0.865124
0.865113
0.865114
0.865111
0.86511
0.865106
0.86508
0.865079
0.86511
0.86511
0.865114
0.865111
0.86512
0.865117
0.86513
0.865125
0.865138
0.86513
0.86514
0.865138
0.865146
0.865144
0.865144
0.865146
0.865139
0.865141
0.865131
0.865139
0.865126
0.865131
0.865118
0.865122
0.865112
0.865116
0.865111
0.865112
0.86508
0.865072
0.8651
0.8651
0.865108
0.865099
0.865116
0.865109
0.865127
0.865121
0.865138
0.865129
0.865142
0.86514
0.865149
0.865142
0.865151
0.865142
0.865149
0.865142
0.865147
0.865136
0.865141
0.865129
0.865132
0.865121
0.865121
0.865114
0.865115
0.86511
0.865084
1.0944
1.06506
1.04035
1.03571
1.03646
1.04624
1.02259
1.01161
1.00252
1.00107
1.00313
0.997774
0.992902
0.993058
0.933328
0.931316
0.928508
0.925217
0.922369
0.918813
0.91547
0.910727
0.908302
0.904881
0.900668
0.899579
0.895591
0.894224
0.891772
0.891103
0.887927
0.889562
0.885133
0.88679
0.884813
0.884225
0.885197
0.883668
0.884652
0.885082
0.884095
0.885774
0.883112
0.88296
0.867205
0.869927
0.8701
0.870354
0.870379
0.870569
0.870724
0.870875
0.870998
0.871164
0.871236
0.871302
0.871368
0.871429
0.871483
0.871456
0.871418
0.871327
0.871294
0.871219
0.871163
0.871004
0.870878
0.870695
0.870528
0.870362
0.870229
0.870082
0.869869
0.866743
0.866736
0.869885
0.870074
0.870235
0.870361
0.870509
0.8707
0.870858
0.871022
0.871145
0.871248
0.871272
0.87137
0.871414
0.871484
0.87145
0.871417
0.871325
0.871297
0.871219
0.871166
0.871007
0.870883
0.870698
0.870528
0.870363
0.870228
0.870081
0.869869
0.866744
0.866737
0.869884
0.870074
0.870241
0.870361
0.870503
0.870696
0.87086
0.871023
0.871149
0.871252
0.871275
0.871374
0.871428
0.87146
0.871477
0.871395
0.871364
0.871273
0.871254
0.871147
0.871028
0.870864
0.870703
0.870508
0.870365
0.870244
0.870075
0.869884
0.866737
0.866743
0.869865
0.870073
0.870237
0.870363
0.870527
0.870688
0.870868
0.870997
0.871158
0.871229
0.871292
0.871359
0.871434
0.871482
0.871445
0.871412
0.871324
0.871297
0.871222
0.871167
0.871007
0.870881
0.870698
0.870528
0.87036
0.870226
0.870079
0.869867
0.866743
0.866737
0.869884
0.870075
0.870245
0.870365
0.87051
0.870706
0.870865
0.871031
0.871147
0.871255
0.871273
0.87136
0.871381
0.871459
0.871456
0.871446
0.87137
0.871323
0.871255
0.871148
0.870981
0.870853
0.870679
0.870516
0.870355
0.870223
0.87007
0.869864
0.866744
0.866736
0.869884
0.87008
0.870237
0.870385
0.870524
0.870718
0.870866
0.871029
0.871127
0.871234
0.871261
0.871359
0.871398
0.871483
0.871462
0.871427
0.871327
0.871295
0.871217
0.871164
0.871006
0.870883
0.870698
0.87053
0.870362
0.870229
0.870082
0.869869
0.866743
0.866733
0.869864
0.870082
0.870237
0.870387
0.870523
0.870717
0.870858
0.871021
0.871123
0.871232
0.871263
0.871362
0.871405
0.871484
0.871455
0.871422
0.871326
0.871297
0.871218
0.871165
0.871007
0.870883
0.870697
0.870529
0.870363
0.870229
0.870082
0.869869
0.866744
0.866742
0.869867
0.870083
0.870234
0.870371
0.87054
0.8707
0.870886
0.871
0.871154
0.871205
0.871293
0.871327
0.871414
0.87144
0.871474
0.871431
0.87139
0.871292
0.87123
0.871135
0.870996
0.870865
0.870683
0.870521
0.870357
0.870232
0.870067
0.869867
0.866741
0.866744
0.869869
0.870085
0.870238
0.870389
0.870521
0.870717
0.870859
0.871024
0.871121
0.871229
0.871258
0.871357
0.871397
0.871481
0.871462
0.871428
0.871332
0.8713
0.871225
0.871167
0.871007
0.870879
0.870696
0.870526
0.870359
0.870223
0.870077
0.869866
0.866743
0.866736
0.869884
0.870074
0.870244
0.870364
0.870516
0.870711
0.870866
0.871032
0.87114
0.871247
0.871265
0.871361
0.871397
0.871479
0.871478
0.871415
0.871364
0.871262
0.871243
0.871136
0.871031
0.870865
0.870712
0.870518
0.87037
0.870247
0.870077
0.869886
0.866737
0.866735
0.869861
0.870082
0.870233
0.870392
0.870523
0.870722
0.870862
0.871029
0.871122
0.871235
0.871263
0.871364
0.871381
0.871461
0.871476
0.871425
0.871315
0.871282
0.871234
0.871173
0.87102
0.870892
0.870708
0.870538
0.870368
0.87023
0.870087
0.869874
0.866751
1.00041
1.1044
1.17132
1.17709
1.17837
1.18645
1.18331
1.18344
1.18979
1.19805
1.21094
1.21299
1.20912
1.20222
1.12694
1.12721
1.12574
1.12416
1.12205
1.12148
1.1192
1.11921
1.117
1.11617
1.11301
1.1133
1.10949
1.11068
1.10705
1.10684
1.10502
1.10374
1.10265
1.10131
1.10023
1.10015
1.09988
1.09979
1.10084
1.10047
1.10077
1.10021
1.10039
1.10511
1.08807
1.08467
1.08424
1.08388
1.0838
1.08351
1.08333
1.08312
1.08298
1.08281
1.08274
1.08271
1.08262
1.08258
1.08252
1.08253
1.0826
1.08266
1.08272
1.08274
1.08281
1.08294
1.08308
1.08325
1.08344
1.08359
1.08371
1.08387
1.0841
1.08816
1.08815
1.0841
1.08387
1.08372
1.0836
1.08344
1.08326
1.08309
1.08294
1.0828
1.08274
1.08271
1.08264
1.08257
1.08252
1.08253
1.0826
1.08266
1.08271
1.08274
1.08281
1.08293
1.08308
1.08325
1.08344
1.08359
1.08371
1.08388
1.0841
1.08816
1.08815
1.0841
1.08387
1.08372
1.08359
1.08346
1.08326
1.08308
1.08294
1.0828
1.08274
1.0827
1.08264
1.08255
1.08254
1.08253
1.08259
1.08265
1.0827
1.08273
1.0828
1.08293
1.08308
1.08326
1.08345
1.08358
1.08372
1.08387
1.0841
1.08815
1.08816
1.08412
1.08387
1.08371
1.08358
1.08344
1.08326
1.08309
1.08294
1.08281
1.08274
1.08271
1.08264
1.08255
1.08252
1.08254
1.0826
1.08266
1.08271
1.08274
1.0828
1.08293
1.08308
1.08325
1.08344
1.08359
1.08371
1.08388
1.0841
1.08816
1.08815
1.0841
1.08387
1.08372
1.08359
1.08345
1.08325
1.08308
1.08293
1.0828
1.08273
1.0827
1.08266
1.08261
1.08256
1.08253
1.08256
1.08262
1.08267
1.08271
1.08281
1.08297
1.08311
1.08327
1.08345
1.08359
1.08373
1.08388
1.08412
1.08816
1.08815
1.0841
1.08386
1.08372
1.08358
1.08342
1.08324
1.08307
1.08294
1.08282
1.08276
1.08271
1.08265
1.08258
1.08252
1.08252
1.08258
1.08266
1.08272
1.08274
1.08281
1.08293
1.08308
1.08324
1.08344
1.08359
1.0837
1.08388
1.0841
1.08816
1.08816
1.08411
1.08387
1.08369
1.08357
1.08342
1.08325
1.08308
1.08295
1.08282
1.08276
1.08271
1.08265
1.08257
1.08252
1.08253
1.08259
1.08266
1.08271
1.08274
1.08281
1.08293
1.08308
1.08325
1.08344
1.08359
1.0837
1.08388
1.0841
1.08816
1.08816
1.0841
1.08387
1.08371
1.08357
1.08343
1.08324
1.08308
1.08294
1.08282
1.08276
1.08271
1.08265
1.0826
1.08255
1.08254
1.08256
1.08261
1.08269
1.08275
1.08284
1.08295
1.0831
1.08326
1.08345
1.08359
1.08372
1.08387
1.08412
1.08815
1.08816
1.0841
1.08387
1.08369
1.08357
1.08342
1.08325
1.08308
1.08294
1.08283
1.08277
1.08272
1.08265
1.08258
1.08252
1.08252
1.08258
1.08265
1.08271
1.08274
1.0828
1.08293
1.08308
1.08325
1.08344
1.0836
1.08371
1.08388
1.0841
1.08816
1.08815
1.08409
1.08387
1.08371
1.0836
1.08344
1.08325
1.08308
1.08293
1.08281
1.08275
1.08271
1.08265
1.08259
1.08253
1.08253
1.08257
1.08265
1.08272
1.08275
1.08281
1.08294
1.08308
1.08325
1.08344
1.08359
1.08371
1.08387
1.0841
1.08815
1.08815
1.08409
1.08385
1.08368
1.08355
1.08341
1.08323
1.08307
1.08294
1.08282
1.08276
1.08271
1.08265
1.08261
1.08255
1.0825
1.08259
1.08269
1.08275
1.08274
1.08282
1.08294
1.08308
1.08325
1.08344
1.08361
1.08371
1.08388
1.0841
1.08816
0.732413
0.891453
1.00178
1.16241
1.16121
1.12989
1.17003
1.16759
1.17528
1.18682
1.19723
1.21023
1.21831
1.22309
1.11526
1.11545
1.1133
1.11098
1.10951
1.10816
1.10618
1.10702
1.10567
1.10536
1.10357
1.10376
1.10093
1.10207
1.09904
1.1005
1.09795
1.09885
1.09614
1.097
1.09371
1.09493
1.0929
1.0937
1.09315
1.09212
1.093
1.0925
1.09308
1.09344
1.07965
1.07784
1.07798
1.07806
1.07774
1.07792
1.07771
1.07778
1.07772
1.0777
1.07772
1.07769
1.07771
1.07769
1.07769
1.07771
1.07768
1.07771
1.07768
1.07771
1.07767
1.07771
1.07767
1.0777
1.07767
1.07769
1.07768
1.07766
1.07769
1.07841
1.07842
1.07769
1.07769
1.07767
1.07766
1.07769
1.07767
1.0777
1.07767
1.07771
1.07768
1.07771
1.07768
1.07771
1.07769
1.07771
1.07768
1.07771
1.07768
1.07771
1.07767
1.07771
1.07767
1.0777
1.07767
1.07768
1.07768
1.07766
1.07769
1.07841
1.07842
1.0777
1.0777
1.07767
1.07769
1.07769
1.07767
1.0777
1.07767
1.07771
1.07768
1.07771
1.07768
1.07771
1.07769
1.07769
1.07771
1.07768
1.07771
1.07768
1.07771
1.07767
1.07771
1.07767
1.0777
1.07769
1.07767
1.07769
1.07769
1.07841
1.07843
1.07768
1.07768
1.07766
1.07769
1.07767
1.0777
1.07767
1.0777
1.07767
1.07771
1.07768
1.07769
1.07771
1.07769
1.07771
1.07768
1.07771
1.07768
1.07771
1.07767
1.07771
1.07767
1.0777
1.07767
1.07769
1.07768
1.07766
1.07769
1.07841
1.07841
1.07769
1.07769
1.07767
1.07769
1.0777
1.07767
1.07771
1.07767
1.07771
1.07768
1.07771
1.07768
1.07772
1.07769
1.07771
1.07768
1.07771
1.07768
1.07771
1.07767
1.0777
1.07767
1.0777
1.07767
1.07769
1.07766
1.07766
1.07768
1.0784
1.07842
1.0777
1.07769
1.07767
1.07767
1.0777
1.07767
1.0777
1.07767
1.07771
1.07768
1.07771
1.07768
1.07771
1.07769
1.07771
1.07768
1.07771
1.07768
1.07771
1.07767
1.07771
1.07767
1.0777
1.07767
1.07769
1.07768
1.07766
1.07769
1.07841
1.0784
1.0777
1.07766
1.07769
1.07766
1.0777
1.07767
1.07771
1.07767
1.07771
1.07768
1.07771
1.07768
1.07771
1.07769
1.07771
1.07768
1.07771
1.07768
1.07771
1.07767
1.07771
1.07767
1.0777
1.07767
1.07769
1.07768
1.07766
1.07769
1.07841
1.0784
1.07768
1.07766
1.07766
1.07768
1.07766
1.0777
1.07767
1.07771
1.07767
1.07771
1.07768
1.07772
1.07768
1.07771
1.07769
1.07771
1.07768
1.07771
1.07768
1.07768
1.0777
1.07767
1.0777
1.07767
1.07769
1.07766
1.07769
1.07768
1.07843
1.07841
1.07769
1.07765
1.07768
1.07766
1.0777
1.07767
1.07771
1.07767
1.07771
1.07768
1.07771
1.07768
1.07771
1.07769
1.07771
1.07768
1.07771
1.07768
1.07771
1.07767
1.0777
1.07767
1.0777
1.07767
1.07768
1.07768
1.07766
1.07769
1.07841
1.07842
1.07769
1.07769
1.07767
1.07767
1.07769
1.07767
1.0777
1.07767
1.07771
1.07768
1.07771
1.07768
1.07771
1.07768
1.07769
1.07771
1.07768
1.07771
1.07768
1.07771
1.07767
1.0777
1.07767
1.07769
1.07767
1.07767
1.07769
1.07769
1.07842
1.0784
1.07768
1.07765
1.07768
1.07766
1.07769
1.07767
1.07771
1.07767
1.07771
1.07768
1.07772
1.07769
1.07772
1.07769
1.07772
1.07769
1.07772
1.07769
1.07772
1.07768
1.07771
1.07767
1.0777
1.07767
1.07767
1.07768
1.07766
1.07769
1.07841
0.651876
0.653155
0.747119
1.20811
1.2093
1.25843
1.15003
1.14028
1.13684
1.14777
1.15709
1.17078
1.18575
1.19519
1.0801
1.07768
1.07953
1.0808
1.0804
1.07762
1.07515
1.07397
1.07437
1.0733
1.07201
1.07281
1.06968
1.07098
1.06826
1.06999
1.06718
1.06826
1.06662
1.06601
1.06542
1.0637
1.06268
1.06272
1.06105
1.06177
1.06053
1.06026
1.06085
1.06182
1.04813
1.04926
1.04849
1.04838
1.04835
1.04796
1.04803
1.04784
1.04788
1.0478
1.04784
1.0478
1.04782
1.0478
1.04779
1.04781
1.04779
1.04781
1.0478
1.04781
1.04779
1.0478
1.04779
1.04781
1.04779
1.04781
1.0478
1.04778
1.0478
1.04779
1.04783
1.04779
1.0478
1.04778
1.04778
1.0478
1.04779
1.04781
1.04779
1.04781
1.04779
1.04781
1.04779
1.04781
1.0478
1.04781
1.04779
1.04781
1.0478
1.04781
1.04779
1.04781
1.04779
1.04781
1.04779
1.0478
1.0478
1.04778
1.0478
1.04779
1.04783
1.04779
1.0478
1.04778
1.0478
1.0478
1.04779
1.0478
1.04779
1.0478
1.04779
1.04781
1.04779
1.04781
1.0478
1.04779
1.04781
1.04779
1.04781
1.04779
1.04781
1.04779
1.0478
1.04779
1.0478
1.0478
1.04778
1.0478
1.04779
1.04783
1.0478
1.04779
1.04779
1.04778
1.0478
1.04778
1.04781
1.04779
1.04781
1.04779
1.04781
1.04779
1.0478
1.04781
1.0478
1.04781
1.04779
1.04781
1.0478
1.04781
1.04779
1.04781
1.04779
1.04781
1.04779
1.0478
1.0478
1.04778
1.0478
1.04779
1.04783
1.04779
1.0478
1.04778
1.0478
1.0478
1.04779
1.0478
1.04779
1.04781
1.04779
1.04781
1.04779
1.04781
1.0478
1.04781
1.0478
1.04781
1.0478
1.0478
1.04779
1.0478
1.04779
1.04781
1.04779
1.0478
1.04778
1.04778
1.04779
1.0478
1.04783
1.04779
1.0478
1.04779
1.04778
1.0478
1.04779
1.04781
1.04779
1.04781
1.04779
1.04781
1.04779
1.04781
1.04779
1.04781
1.04779
1.04781
1.0478
1.04781
1.04779
1.04781
1.04779
1.04781
1.04779
1.04781
1.0478
1.04778
1.0478
1.04779
1.04781
1.0478
1.04778
1.0478
1.04778
1.04781
1.04779
1.04781
1.04779
1.04781
1.04779
1.04781
1.04779
1.04781
1.04779
1.04781
1.04779
1.04781
1.0478
1.04781
1.04779
1.04781
1.04779
1.04781
1.04779
1.0478
1.0478
1.04778
1.0478
1.04779
1.0478
1.0478
1.04778
1.04778
1.04781
1.04779
1.04781
1.04779
1.04781
1.04779
1.04781
1.04779
1.04781
1.0478
1.04781
1.0478
1.04781
1.0478
1.04781
1.04779
1.04779
1.0478
1.04779
1.04781
1.04778
1.0478
1.04778
1.0478
1.04779
1.04782
1.04779
1.0478
1.04778
1.0478
1.04779
1.04781
1.04779
1.04781
1.04779
1.04781
1.04779
1.04781
1.04779
1.04781
1.04779
1.04781
1.04779
1.04781
1.0478
1.04781
1.04779
1.04781
1.04779
1.04781
1.04779
1.0478
1.0478
1.04778
1.0478
1.04779
1.04783
1.04779
1.0478
1.04778
1.04779
1.0478
1.04779
1.04781
1.04779
1.04781
1.04779
1.04781
1.04779
1.04781
1.04779
1.0478
1.04781
1.04779
1.04781
1.04779
1.04781
1.04779
1.04781
1.04779
1.0478
1.04778
1.04778
1.0478
1.04779
1.04783
1.04779
1.04779
1.04778
1.0478
1.04778
1.04781
1.04778
1.04781
1.04779
1.04781
1.04779
1.04782
1.0478
1.04781
1.0478
1.04781
1.0478
1.04781
1.0478
1.04781
1.04779
1.04781
1.04779
1.0478
1.04779
1.0478
1.0478
1.04778
1.0478
1.0478
0.665781
0.661069
0.643414
0.820491
1.29115
1.27071
1.35782
1.14001
1.10275
1.10552
1.1165
1.13048
1.14347
1.15596
1.03455
1.03324
1.03894
1.04016
1.04203
1.04203
1.04051
1.03847
1.03802
1.03913
1.03785
1.03855
1.03689
1.03626
1.03595
1.03593
1.03503
1.03568
1.03524
1.03364
1.03421
1.03117
1.03177
1.0294
1.02786
1.0272
1.027
1.02812
1.02819
1.02872
1.02015
1.01789
1.01816
1.01736
1.01731
1.01731
1.01693
1.01696
1.01679
1.01682
1.01677
1.01678
1.01676
1.01677
1.01677
1.01676
1.01676
1.01676
1.01676
1.01676
1.01676
1.01676
1.01676
1.01675
1.01676
1.01675
1.01675
1.01675
1.01677
1.01755
1.01754
1.01678
1.01675
1.01675
1.01676
1.01675
1.01676
1.01675
1.01677
1.01675
1.01676
1.01676
1.01676
1.01676
1.01676
1.01676
1.01676
1.01676
1.01676
1.01676
1.01676
1.01676
1.01676
1.01675
1.01676
1.01675
1.01675
1.01675
1.01677
1.01755
1.01754
1.01678
1.01675
1.01676
1.01675
1.01675
1.01676
1.01675
1.01677
1.01675
1.01676
1.01676
1.01676
1.01676
1.01676
1.01676
1.01676
1.01676
1.01676
1.01676
1.01676
1.01677
1.01675
1.01676
1.01675
1.01675
1.01676
1.01675
1.01678
1.01754
1.01755
1.01678
1.01675
1.01676
1.01675
1.01677
1.01676
1.01676
1.01676
1.01676
1.01675
1.01676
1.01676
1.01676
1.01676
1.01676
1.01677
1.01676
1.01676
1.01676
1.01676
1.01676
1.01676
1.01675
1.01676
1.01675
1.01675
1.01676
1.01677
1.01755
1.01754
1.01678
1.01675
1.01675
1.01675
1.01675
1.01676
1.01675
1.01677
1.01676
1.01676
1.01676
1.01676
1.01676
1.01677
1.01676
1.01677
1.01676
1.01676
1.01675
1.01676
1.01676
1.01676
1.01675
1.01676
1.01675
1.01676
1.01675
1.01678
1.01755
1.01754
1.01678
1.01675
1.01675
1.01676
1.01675
1.01676
1.01676
1.01677
1.01676
1.01676
1.01676
1.01676
1.01676
1.01676
1.01676
1.01676
1.01676
1.01676
1.01676
1.01676
1.01676
1.01676
1.01675
1.01676
1.01675
1.01675
1.01675
1.01677
1.01755
1.01754
1.01678
1.01675
1.01675
1.01676
1.01676
1.01676
1.01676
1.01677
1.01676
1.01676
1.01676
1.01676
1.01676
1.01676
1.01676
1.01676
1.01676
1.01676
1.01676
1.01676
1.01676
1.01676
1.01675
1.01676
1.01675
1.01675
1.01675
1.01677
1.01755
1.01755
1.01677
1.01675
1.01675
1.01675
1.01676
1.01676
1.01676
1.01676
1.01676
1.01676
1.01676
1.01676
1.01677
1.01676
1.01677
1.01676
1.01676
1.01676
1.01676
1.01676
1.01676
1.01676
1.01675
1.01676
1.01675
1.01676
1.01675
1.01678
1.01754
1.01755
1.01677
1.01675
1.01675
1.01676
1.01676
1.01676
1.01676
1.01677
1.01676
1.01676
1.01676
1.01676
1.01676
1.01677
1.01676
1.01676
1.01676
1.01676
1.01676
1.01676
1.01676
1.01676
1.01675
1.01676
1.01675
1.01675
1.01675
1.01677
1.01755
1.01755
1.01678
1.01675
1.01675
1.01676
1.01675
1.01676
1.01676
1.01677
1.01676
1.01676
1.01676
1.01676
1.01676
1.01677
1.01676
1.01676
1.01676
1.01676
1.01676
1.01676
1.01676
1.01676
1.01676
1.01675
1.01676
1.01675
1.01675
1.01678
1.01755
1.01754
1.01677
1.01675
1.01675
1.01676
1.01676
1.01676
1.01676
1.01677
1.01676
1.01676
1.01676
1.01676
1.01676
1.01676
1.01676
1.01676
1.01676
1.01676
1.01675
1.01676
1.01675
1.01676
1.01675
1.01676
1.01675
1.01675
1.01676
1.01677
1.01755
0.656204
0.663079
0.660047
0.652493
0.97727
1.21836
1.18975
1.32281
1.07738
1.04926
1.05397
1.06814
1.07877
1.09418
0.971379
0.967384
0.973707
0.980299
0.983969
0.986187
0.986108
0.983829
0.981705
0.981329
0.981514
0.980108
0.980069
0.978382
0.978224
0.977755
0.97804
0.976895
0.978109
0.975823
0.977165
0.97406
0.974415
0.97141
0.96943
0.97049
0.968089
0.968761
0.969077
0.969553
0.961662
0.96294
0.961776
0.961896
0.961048
0.96072
0.960729
0.96031
0.960386
0.960216
0.960249
0.960211
0.960214
0.9602
0.960206
0.960196
0.960204
0.960196
0.960198
0.960192
0.960191
0.960189
0.960192
0.960191
0.96019
0.960184
0.960175
0.960173
0.96017
0.959881
0.959892
0.960173
0.960175
0.960172
0.960182
0.960185
0.960189
0.96019
0.96019
0.96019
0.960194
0.960196
0.9602
0.960199
0.960202
0.960198
0.960202
0.960197
0.960198
0.960193
0.960191
0.960189
0.960192
0.96019
0.960189
0.960185
0.960175
0.960174
0.960169
0.959882
0.959891
0.960175
0.96018
0.960173
0.960183
0.960187
0.96019
0.96019
0.96019
0.96019
0.960194
0.960195
0.960201
0.960199
0.960199
0.960202
0.960198
0.9602
0.960195
0.960193
0.96019
0.96019
0.960191
0.96019
0.960187
0.960184
0.960173
0.96018
0.960175
0.95989
0.959881
0.960167
0.960173
0.960174
0.960184
0.960189
0.96019
0.960192
0.960188
0.960191
0.96019
0.960199
0.960197
0.960198
0.960201
0.960198
0.960202
0.960197
0.960198
0.960193
0.960191
0.960189
0.960192
0.96019
0.96019
0.960185
0.960174
0.960174
0.96017
0.959882
0.959891
0.960176
0.96018
0.960173
0.960184
0.960186
0.96019
0.960191
0.96019
0.960191
0.960193
0.960196
0.9602
0.960199
0.960202
0.960198
0.960201
0.960197
0.960197
0.960194
0.960191
0.96019
0.960192
0.960191
0.960187
0.960183
0.960172
0.960172
0.960167
0.95988
0.959891
0.960174
0.960176
0.960173
0.960182
0.960186
0.96019
0.960191
0.960189
0.960191
0.960194
0.960196
0.960199
0.960199
0.960202
0.960198
0.960202
0.960197
0.960198
0.960193
0.960191
0.960189
0.960192
0.96019
0.96019
0.960184
0.960174
0.960174
0.96017
0.959882
0.959885
0.960171
0.960173
0.960174
0.960183
0.960187
0.96019
0.960192
0.96019
0.960191
0.960194
0.960196
0.9602
0.960199
0.960202
0.960198
0.960202
0.960197
0.960198
0.960193
0.960191
0.960189
0.960192
0.96019
0.96019
0.960185
0.960174
0.960174
0.96017
0.959882
0.95988
0.960167
0.960173
0.960173
0.960182
0.960188
0.96019
0.960192
0.96019
0.960192
0.960193
0.960197
0.960198
0.960202
0.960198
0.960201
0.960198
0.960199
0.960196
0.960193
0.960192
0.960187
0.960192
0.960189
0.960187
0.960183
0.960172
0.960176
0.960171
0.959891
0.959882
0.960171
0.960173
0.960173
0.960184
0.960188
0.96019
0.960192
0.960189
0.960191
0.960194
0.960196
0.9602
0.960199
0.960202
0.960198
0.960202
0.960197
0.960198
0.960193
0.960191
0.960189
0.960192
0.96019
0.960189
0.960185
0.960174
0.960173
0.960171
0.959883
0.959892
0.960175
0.960178
0.960173
0.960182
0.960185
0.96019
0.960191
0.96019
0.960191
0.960194
0.960196
0.960199
0.960199
0.960201
0.960202
0.960199
0.960201
0.960197
0.960195
0.960191
0.96019
0.960191
0.960189
0.960185
0.960182
0.960173
0.960177
0.960174
0.959891
0.959876
0.960168
0.960169
0.960173
0.960181
0.960188
0.960191
0.960194
0.960191
0.960193
0.960196
0.960196
0.960201
0.960201
0.960204
0.960202
0.960207
0.960204
0.960203
0.960197
0.960196
0.960191
0.960195
0.960192
0.96019
0.960185
0.960179
0.960177
0.96017
0.959886
0.656891
0.653014
0.654339
0.674281
1.06324
1.20298
1.11726
1.21348
1.10562
1.00549
1.00569
1.01721
1.02998
1.04604
0.901007
0.898973
0.90924
0.917727
0.926543
0.930978
0.933367
0.934201
0.932279
0.93102
0.930947
0.932398
0.928546
0.931311
0.927936
0.92852
0.928419
0.928592
0.928305
0.928814
0.926838
0.927374
0.923898
0.92453
0.920795
0.921561
0.920682
0.921511
0.921227
0.922944
0.91725
0.915528
0.916421
0.915153
0.915211
0.914385
0.914175
0.91401
0.913726
0.913727
0.913628
0.913637
0.913618
0.913621
0.913612
0.913611
0.913609
0.913608
0.913605
0.9136
0.913604
0.913605
0.913609
0.913603
0.913613
0.913613
0.913618
0.91364
0.913658
0.913491
0.913485
0.91366
0.913638
0.913619
0.913617
0.913609
0.913606
0.913605
0.913608
0.9136
0.913603
0.913602
0.913609
0.913607
0.91361
0.913607
0.91361
0.913607
0.913606
0.9136
0.913604
0.913605
0.913609
0.913603
0.913613
0.913613
0.913618
0.913642
0.913657
0.913491
0.913486
0.913658
0.913637
0.913621
0.913612
0.913607
0.913605
0.913605
0.913608
0.9136
0.913603
0.913602
0.91361
0.913608
0.913608
0.913609
0.913608
0.91361
0.913602
0.913604
0.913601
0.913608
0.913605
0.913605
0.913608
0.913612
0.913619
0.913637
0.913658
0.913486
0.913491
0.913659
0.913637
0.913622
0.913614
0.913613
0.913603
0.913609
0.913605
0.913604
0.9136
0.913605
0.913608
0.913607
0.913611
0.913608
0.913611
0.913607
0.913606
0.9136
0.913604
0.913605
0.913609
0.913603
0.913613
0.913613
0.913617
0.913641
0.913657
0.913491
0.913486
0.913658
0.913637
0.913619
0.913613
0.913608
0.913605
0.913605
0.913608
0.913601
0.913604
0.913602
0.91361
0.913608
0.913611
0.913607
0.91361
0.913606
0.913603
0.913599
0.913601
0.913604
0.913608
0.913603
0.913613
0.913614
0.913623
0.91364
0.913659
0.913493
0.913483
0.913658
0.913637
0.913617
0.913616
0.913609
0.913607
0.913606
0.913608
0.913601
0.913604
0.913602
0.913609
0.913607
0.91361
0.913607
0.91361
0.913606
0.913606
0.9136
0.913604
0.913605
0.913609
0.913603
0.913613
0.913613
0.913617
0.913641
0.913657
0.913491
0.913486
0.913657
0.913641
0.913618
0.913617
0.91361
0.913607
0.913606
0.913609
0.913601
0.913603
0.913602
0.913609
0.913607
0.91361
0.913607
0.91361
0.913606
0.913606
0.9136
0.913604
0.913605
0.913609
0.913603
0.913613
0.913613
0.913618
0.913642
0.913656
0.913491
0.913492
0.913657
0.913641
0.913622
0.913614
0.913614
0.913603
0.91361
0.913605
0.913605
0.9136
0.913605
0.913607
0.913611
0.913608
0.91361
0.913607
0.91361
0.913601
0.913602
0.9136
0.913605
0.913608
0.913603
0.913612
0.913613
0.913622
0.913637
0.913659
0.913486
0.91349
0.913658
0.913641
0.913617
0.913616
0.91361
0.913607
0.913606
0.913608
0.913601
0.913604
0.913602
0.913609
0.913607
0.91361
0.913607
0.91361
0.913606
0.913606
0.9136
0.913604
0.913605
0.913609
0.913603
0.913613
0.913613
0.913617
0.913642
0.913658
0.913491
0.913486
0.913658
0.913638
0.91362
0.913615
0.913609
0.913606
0.913606
0.913608
0.913601
0.913604
0.913602
0.91361
0.913608
0.913611
0.91361
0.913609
0.913609
0.913602
0.913603
0.9136
0.913607
0.913605
0.913605
0.913608
0.913616
0.913619
0.913639
0.91366
0.913487
0.913486
0.913659
0.913644
0.913621
0.913621
0.913611
0.91361
0.91361
0.91361
0.913603
0.913608
0.913603
0.913607
0.913606
0.913609
0.913606
0.91361
0.913608
0.913605
0.913598
0.913601
0.913597
0.913598
0.913598
0.913604
0.913605
0.913612
0.913646
0.913672
0.913514
0.651016
0.654022
0.657536
0.750434
0.983081
1.18725
1.1614
1.0096
1.20687
0.969199
0.930161
0.936001
0.945002
0.954617
0.924866
0.907603
0.869697
0.851993
0.84825
0.85442
0.859085
0.863027
0.863607
0.864278
0.862102
0.861365
0.859198
0.859323
0.857971
0.856649
0.856025
0.855085
0.854388
0.854924
0.854189
0.854383
0.853185
0.853513
0.850707
0.851136
0.848119
0.84827
0.846517
0.847062
0.847242
0.846378
0.845536
0.845762
0.843144
0.845542
0.843719
0.844101
0.84283
0.842404
0.842065
0.841561
0.841596
0.841302
0.841362
0.841251
0.841284
0.841254
0.841265
0.841251
0.841254
0.841247
0.841247
0.841244
0.841247
0.841241
0.841244
0.84124
0.84125
0.841253
0.841262
0.841261
0.841231
0.840309
0.839505
0.839504
0.840306
0.841232
0.84126
0.841262
0.841256
0.841245
0.841244
0.84124
0.841245
0.841244
0.841247
0.841245
0.84125
0.841249
0.841254
0.841251
0.841252
0.841247
0.841248
0.841244
0.841248
0.841241
0.841244
0.84124
0.84125
0.841254
0.841262
0.841262
0.841232
0.840309
0.839503
0.839502
0.840305
0.841231
0.841257
0.841262
0.841254
0.841245
0.841244
0.84124
0.841245
0.841243
0.841247
0.841244
0.84125
0.841249
0.841252
0.841254
0.841249
0.84125
0.841244
0.841248
0.841243
0.841245
0.84124
0.841244
0.841244
0.841253
0.841261
0.841256
0.841231
0.840305
0.839503
0.839505
0.840309
0.841231
0.84126
0.841265
0.841255
0.84125
0.84124
0.841244
0.841241
0.841248
0.841243
0.841248
0.841248
0.84125
0.841253
0.841251
0.841252
0.841247
0.841248
0.841244
0.841248
0.841241
0.841244
0.84124
0.84125
0.841254
0.841262
0.841261
0.841231
0.840309
0.839503
0.839502
0.840305
0.841232
0.841257
0.841262
0.841254
0.841244
0.841244
0.84124
0.841245
0.841243
0.841248
0.841244
0.84125
0.841248
0.841253
0.841251
0.841251
0.841248
0.841246
0.841246
0.841245
0.841242
0.841242
0.841241
0.84125
0.841255
0.841263
0.84126
0.841232
0.840309
0.839506
0.839503
0.840306
0.841231
0.841259
0.84126
0.841256
0.841245
0.841245
0.841239
0.841246
0.841244
0.841248
0.841245
0.84125
0.841249
0.841254
0.841251
0.841252
0.841247
0.841248
0.841244
0.841248
0.841241
0.841244
0.841241
0.84125
0.841254
0.841261
0.841262
0.841231
0.84031
0.839504
0.839504
0.840308
0.841231
0.841262
0.841262
0.841259
0.841246
0.841245
0.841239
0.841245
0.841244
0.841248
0.841245
0.84125
0.841249
0.841254
0.841251
0.841252
0.841247
0.841248
0.841244
0.841248
0.841241
0.841244
0.841241
0.84125
0.841254
0.841262
0.841262
0.841231
0.84031
0.839504
0.839505
0.840309
0.841232
0.841259
0.841264
0.841255
0.841251
0.84124
0.841245
0.841241
0.841248
0.841244
0.841248
0.841247
0.841252
0.841251
0.841254
0.841249
0.841249
0.841246
0.841246
0.841245
0.841241
0.841242
0.841239
0.841249
0.841253
0.841263
0.841258
0.841231
0.840308
0.839505
0.839504
0.84031
0.841231
0.841262
0.841262
0.841259
0.841246
0.841245
0.84124
0.841246
0.841244
0.841248
0.841245
0.84125
0.841249
0.841254
0.841251
0.841252
0.841247
0.841248
0.841244
0.841248
0.841241
0.841244
0.841241
0.84125
0.841254
0.841262
0.841262
0.841231
0.840309
0.839504
0.839504
0.840306
0.841233
0.841259
0.841262
0.841255
0.841245
0.841245
0.84124
0.841246
0.841244
0.841248
0.841245
0.841251
0.84125
0.841255
0.841255
0.84125
0.841252
0.841245
0.841248
0.841244
0.841246
0.84124
0.841245
0.841246
0.841257
0.841261
0.841259
0.841231
0.840303
0.839504
0.839502
0.84031
0.841229
0.84126
0.841261
0.84126
0.841247
0.841247
0.841242
0.841252
0.841247
0.841252
0.841249
0.841255
0.841254
0.841258
0.841254
0.841254
0.84125
0.84125
0.841246
0.841245
0.841241
0.841239
0.84124
0.841246
0.841243
0.841251
0.841251
0.841222
0.8403
0.839533
0.840265
0.650892
0.654076
0.751561
0.96609
1.00087
1.04191
1.12123
0.948493
1.10603
0.924306
0.866695
0.873452
0.876561
0.876152
0.866575
0.845639
0.816039
0.80192
0.800102
0.800042
0.807105
0.80583
0.80937
0.808748
0.807331
0.808863
0.805077
0.80729
0.803076
0.804672
0.8021
0.801679
0.801163
0.801092
0.800525
0.800972
0.799928
0.799215
0.79889
0.796896
0.7961
0.79515
0.794743
0.794526
0.794864
0.795263
0.793715
0.793696
0.793201
0.793088
0.792714
0.792513
0.791219
0.79152
0.79012
0.790443
0.789736
0.789823
0.789644
0.789595
0.789589
0.789588
0.789577
0.789582