/*--------------------------------*- C++ -*----------------------------------*\
| =========                 |                                                 |
| \\      /  F ield         | OpenFOAM: The Open Source CFD Toolbox           |
|  \\    /   O peration     | Version:  2.1.1                                 |
|   \\  /    A nd           | Web:      www.OpenFOAM.org                      |
|    \\/     M anipulation  |                                                 |
\*---------------------------------------------------------------------------*/
FoamFile
{
    version     2.0;
    format      ascii;
    class       volScalarField;
    location    "0.005350000";
    object      fH;
}
// * * * * * * * * * * * * * * * * * * * * * * * * * * * * * * * * * * * * * //

dimensions      [0 0 0 0 0 0 0];

internalField   nonuniform List<scalar> 
12384
(
0.0324309
0.0307491
0.0294631
0.0288502
0.0285815
0.0286184
0.0286965
0.0288922
0.0291651
0.0296817
0.0306701
0.0332167
0.0349588
0.0288484
0.0226976
0.0231674
0.0236457
0.0242277
0.0246754
0.0248926
0.0249856
0.0249435
0.0249292
0.0248678
0.0248422
0.0248284
0.0248075
0.024772
0.0247497
0.0246999
0.024677
0.0246093
0.0245761
0.024492
0.0244487
0.0243419
0.0242836
0.0241425
0.02403
0.0238486
0.0236643
0.0232751
0.0233095
0.023141
0.0302844
0.0304918
0.0304711
0.0295103
0.0276551
0.0265997
0.0262432
0.0259953
0.0259809
0.0260827
0.026219
0.0263934
0.026604
0.0268047
0.0269925
0.027132
0.0272738
0.0274009
0.0275419
0.0276897
0.0278507
0.0280706
0.0283282
0.0288184
0.0294355
0.030301
0.0306305
0.0284549
0.0265032
0.0265185
0.029949
0.0302972
0.0320606
0.0320369
0.0314829
0.0310005
0.0306739
0.0304349
0.0303047
0.0302509
0.0301955
0.0302205
0.0301983
0.0302426
0.0302351
0.0302495
0.030327
0.0303213
0.0303862
0.0304017
0.0305625
0.0306458
0.0308655
0.0313945
0.031936
0.030872
0.029137
0.0284295
0.0282745
0.0282997
0.0334393
0.0335683
0.0336393
0.0336574
0.0335459
0.0332857
0.0330222
0.032714
0.0324624
0.0322071
0.0319719
0.0317858
0.0316444
0.0315001
0.0317237
0.0313762
0.0319182
0.0314298
0.0317967
0.0318416
0.0321426
0.0323866
0.0324009
0.0315795
0.0295624
0.0279321
0.0275816
0.0278198
0.0280626
0.0282108
0.0330523
0.0361351
0.0368879
0.037223
0.0376041
0.0378538
0.0379668
0.0379726
0.0379051
0.0378146
0.0377173
0.0375387
0.0374233
0.0371653
0.0371399
0.0369034
0.0369895
0.0367651
0.0368672
0.0367282
0.0367764
0.0367574
0.036749
0.0368418
0.0368568
0.0368343
0.0367871
0.0364553
0.0336827
0.0309781
0.0311306
0.0319105
0.030416
0.0292652
0.0289573
0.0288386
0.0292003
0.0302288
0.0311212
0.0316999
0.0319744
0.0320653
0.0320683
0.032115
0.0320062
0.0320734
0.0319502
0.0319684
0.0318955
0.0317943
0.0314967
0.0310439
0.0302687
0.0287926
0.0268823
0.0254848
0.0251563
0.0258334
0.0270899
0.0277211
0.0281104
0.0281791
0.0290026
0.0305068
0.032168
0.0338707
0.035008
0.0359155
0.0363864
0.0368194
0.0369868
0.0372058
0.0372431
0.0373267
0.0373696
0.037381
0.0373827
0.0373455
0.0372695
0.0371227
0.0368451
0.0364274
0.0358225
0.0348482
0.0336847
0.03386
0.034013
0.0339472
0.0339171
0.0339089
0.0325131
0.0322758
0.0320345
0.0318747
0.0317812
0.0317318
0.0316929
0.0316608
0.0316439
0.0316174
0.031629
0.031681
0.0316629
0.0317805
0.031804
0.0318347
0.0321574
0.0323035
0.0326603
0.0329139
0.0340253
0.0391952
0.0452178
0.0459218
0.0453705
0.0450815
0.0448337
0.045008
0.0452372
0.0453769
0.0280237
0.0289776
0.030162
0.0312374
0.0318493
0.032236
0.0324573
0.0325996
0.0326334
0.0326314
0.0325575
0.0324972
0.0322829
0.0322036
0.0320337
0.0319216
0.0317406
0.0315092
0.0312807
0.0310632
0.0310891
0.0327391
0.0364002
0.0369491
0.0367559
0.0366525
0.0365683
0.0365236
0.0365039
0.0365134
0.0343518
0.0358597
0.0365339
0.036666
0.0366655
0.0366096
0.0365463
0.0364948
0.0364628
0.0363771
0.0363787
0.0360886
0.0360816
0.0360047
0.0357769
0.0360467
0.0361949
0.0363052
0.0366582
0.0375137
0.0399019
0.0408017
0.0393118
0.0386364
0.0383374
0.0383221
0.0383566
0.038363
0.0382733
0.0381565
0.0291917
0.0350008
0.038863
0.034964
0.0338485
0.035172
0.0373123
0.0389591
0.0399176
0.0404693
0.0406514
0.0406542
0.0405308
0.0403264
0.0400677
0.0397608
0.0395389
0.0393969
0.0392908
0.0392271
0.0391583
0.0392159
0.0392306
0.0394411
0.0395734
0.0397202
0.0393402
0.0375621
0.0336785
0.0225478
0.0168355
0.0171351
0.0174118
0.0174314
0.0173501
0.0192422
0.0462525
0.054161
0.0542183
0.0539599
0.0537073
0.053581
0.0532165
0.0532913
0.0530724
0.053243
0.0534997
0.0539273
0.0544084
0.0548173
0.0548739
0.0543586
0.0518743
0.0480861
0.0446725
0.0432045
0.0423281
0.0376069
0.0249731
0.0180941
0.0263069
0.0260537
0.0260776
0.0267343
0.0276151
0.0283128
0.0286331
0.0284341
0.0280165
0.0278888
0.0283518
0.0305029
0.0339821
0.0304916
0.0227546
0.0234148
0.0242445
0.025175
0.0257566
0.0258563
0.0256559
0.0254054
0.0252275
0.0252362
0.0251966
0.0251435
0.0250694
0.0249935
0.0249545
0.0249545
0.0249792
0.0249938
0.0250124
0.0249331
0.0248514
0.0246826
0.0245127
0.0243132
0.0241185
0.0239162
0.0237465
0.0234457
0.0231899
0.0223635
0.0303074
0.0305401
0.0300215
0.0277819
0.0255491
0.0247999
0.0247339
0.0249882
0.025289
0.0255557
0.0259985
0.0264765
0.0269341
0.0273091
0.0274999
0.027606
0.0276624
0.0276958
0.0277006
0.0277244
0.0277251
0.0277479
0.027829
0.0281171
0.0286565
0.0295145
0.0303895
0.0303156
0.0292579
0.0286511
0.029856
0.0307511
0.0322958
0.0319242
0.031129
0.0304259
0.0299368
0.0297286
0.0297857
0.029891
0.0300001
0.0300886
0.0301286
0.030143
0.0300782
0.0300723
0.0299749
0.0299282
0.0298638
0.0298591
0.029922
0.0300675
0.0303437
0.0308466
0.0315695
0.0316844
0.0307918
0.0296591
0.0290845
0.0287384
0.0334927
0.0338111
0.0337962
0.0332257
0.0323697
0.0315682
0.0309555
0.0305439
0.0302528
0.0300604
0.0299187
0.0298168
0.0297313
0.0297011
0.0297478
0.029785
0.0299374
0.0301376
0.0304633
0.0308694
0.0313601
0.0318896
0.0322655
0.0322838
0.031669
0.0300117
0.0285984
0.0284454
0.028825
0.028831
0.0340273
0.0366326
0.0373878
0.0377967
0.0379597
0.0378358
0.0375041
0.0372124
0.0370575
0.0368993
0.0365954
0.0362757
0.0357844
0.0357133
0.0354776
0.0355486
0.0354586
0.035493
0.0355267
0.0355917
0.0356316
0.0356969
0.035846
0.0360389
0.0362992
0.0364994
0.0366054
0.0366293
0.0355294
0.0331179
0.0314695
0.0312564
0.0298836
0.0295555
0.0295525
0.0305287
0.033118
0.0340945
0.0338325
0.0332287
0.032463
0.0318482
0.0314517
0.0312471
0.0312072
0.03131
0.0315216
0.0317252
0.0319731
0.0321547
0.0322704
0.0321136
0.031566
0.0304755
0.0287383
0.0267995
0.025431
0.0251777
0.0261691
0.0274363
0.0325486
0.034106
0.0358186
0.0381097
0.0397019
0.0402682
0.0403507
0.0400969
0.0396816
0.0392362
0.0388161
0.038501
0.0382496
0.0381629
0.0382008
0.0382803
0.0383528
0.0384083
0.0384227
0.038331
0.0380002
0.037494
0.0367125
0.0356998
0.0343141
0.0335737
0.0332089
0.0334541
0.0336073
0.0338384
0.0313239
0.031015
0.0310367
0.0312516
0.031516
0.0317513
0.0318863
0.0319238
0.0318826
0.0317697
0.0316046
0.0313908
0.0311454
0.0309146
0.0307697
0.0307834
0.0308746
0.0310707
0.031562
0.0321314
0.0330382
0.0360213
0.0423916
0.0448361
0.0427835
0.0416235
0.0411784
0.0421494
0.043683
0.0450594
0.0307082
0.0327027
0.0340639
0.0344548
0.0343773
0.0341149
0.0337686
0.0334193
0.0331257
0.0329446
0.0328461
0.0328019
0.0328426
0.0329573
0.0329778
0.0329488
0.0328215
0.0325364
0.0320959
0.031596
0.0311618
0.0316585
0.0345211
0.0369085
0.0368188
0.0367287
0.0367172
0.0367067
0.0366758
0.0367386
0.0367888
0.0373661
0.03712
0.0367394
0.036352
0.035988
0.0356008
0.0352252
0.0348702
0.0344965
0.0341546
0.0338089
0.0335402
0.0332748
0.0332741
0.0334638
0.033848
0.0344607
0.0352373
0.0363458
0.0382506
0.0405187
0.0396453
0.0385534
0.0385611
0.0389671
0.0394695
0.0395643
0.0389665
0.0382632
0.0345838
0.0378156
0.0367021
0.0355164
0.0374779
0.040534
0.0419993
0.0422793
0.041941
0.0410687
0.0401889
0.0393874
0.038722
0.0382468
0.0379391
0.0380352
0.0382811
0.0385294
0.0386444
0.0384611
0.0380716
0.0376016
0.037304
0.0373433
0.0378529
0.0387221
0.0392171
0.0384433
0.0359584
0.0282073
0.0187601
0.0221602
0.0238875
0.0228656
0.0218395
0.0349703
0.0515429
0.0541348
0.053537
0.0528478
0.0522102
0.0517218
0.0513861
0.0512019
0.0510991
0.0510841
0.0512416
0.0518075
0.0529576
0.0548
0.0566276
0.0573944
0.0562602
0.0496102
0.0435241
0.041492
0.0418393
0.0392635
0.0283033
0.0187113
0.0253394
0.0258056
0.0276982
0.0297198
0.0311199
0.0315105
0.031634
0.0316174
0.0311534
0.0297044
0.0283234
0.0288458
0.0322455
0.0313989
0.0228551
0.0238326
0.0251084
0.0262693
0.0266733
0.0263525
0.0258065
0.0254651
0.0253158
0.0253692
0.025243
0.0250947
0.0248984
0.0248008
0.0248843
0.02498
0.0251058
0.0253241
0.0253846
0.0254774
0.025408
0.0252434
0.0249784
0.0246474
0.0243311
0.0240471
0.0238308
0.0236118
0.0232797
0.0224011
0.0302894
0.0305204
0.0293422
0.0265947
0.0251088
0.0250486
0.0257486
0.0260941
0.0261578
0.0264107
0.026964
0.0275997
0.0279497
0.0280693
0.0280533
0.0279801
0.0279299
0.0279402
0.0280016
0.0280749
0.0280947
0.0280693
0.0279602
0.0278865
0.0280514
0.0286885
0.0296625
0.0303412
0.0302247
0.0294584
0.0299005
0.0313213
0.0327078
0.0323235
0.0313662
0.030291
0.029761
0.0298743
0.0301233
0.0302819
0.0303097
0.0302669
0.0301118
0.029987
0.0298828
0.0297717
0.0298379
0.0297542
0.0298107
0.0297576
0.0297205
0.0297309
0.0298558
0.030236
0.0309105
0.0316339
0.031629
0.0309525
0.0301097
0.0291473
0.0336146
0.033866
0.0326375
0.031175
0.0302149
0.0297471
0.0295039
0.0293881
0.029318
0.0293159
0.0293071
0.0293072
0.0292911
0.029328
0.0292933
0.0293874
0.0293027
0.0295016
0.0296667
0.0299991
0.0304627
0.0310342
0.0316197
0.0320816
0.0321907
0.0316373
0.0304413
0.0298213
0.0297536
0.0292119
0.0346842
0.0370701
0.0375583
0.0374528
0.0368378
0.0362223
0.0360206
0.0360915
0.036177
0.0360391
0.0355933
0.0353504
0.0352343
0.0354764
0.035698
0.0360056
0.036039
0.0362283
0.0361243
0.0361118
0.0359286
0.0357208
0.0355534
0.0354985
0.0356457
0.0359447
0.0362665
0.0365027
0.0362456
0.0343483
0.0316786
0.0309855
0.0301095
0.030082
0.031156
0.0348998
0.0352113
0.0333257
0.0313708
0.0301545
0.0295555
0.0294011
0.0295016
0.0297747
0.0301886
0.0304904
0.0306747
0.0308606
0.031075
0.0314624
0.0318716
0.0322737
0.0324211
0.0319119
0.0306515
0.0285925
0.0263313
0.0250167
0.025491
0.027072
0.0344222
0.0362672
0.0397162
0.0413706
0.0412612
0.0402126
0.0388074
0.0375173
0.0365402
0.0359086
0.0354557
0.0353497
0.035298
0.0353406
0.0354026
0.0355426
0.0358487
0.0363651
0.0370064
0.0376961
0.0381219
0.0380892
0.0375994
0.0366982
0.0353949
0.0341811
0.0333752
0.0329388
0.0330182
0.0335043
0.0306185
0.0314336
0.0324474
0.0333246
0.0338133
0.0340103
0.0340375
0.0339278
0.0337274
0.0334877
0.0332256
0.0329444
0.0326185
0.0321987
0.0317375
0.0312287
0.0309305
0.0306472
0.0307054
0.0312364
0.0320548
0.0339583
0.0388856
0.0431969
0.0413013
0.0385402
0.0376339
0.0385765
0.0411083
0.0440762
0.033075
0.0347314
0.0349044
0.034319
0.0334346
0.0325562
0.0317878
0.0311804
0.0307168
0.0304603
0.0302994
0.0302697
0.0303112
0.0306623
0.0310975
0.031601
0.0321432
0.0324732
0.0324869
0.0321085
0.0315676
0.0313075
0.0325924
0.0360523
0.0369768
0.0370084
0.0371495
0.0371165
0.036976
0.0371336
0.0385465
0.0376331
0.0370762
0.03667
0.0361755
0.0356051
0.0349548
0.0342723
0.0335922
0.0329453
0.0323147
0.0318172
0.0314387
0.0312493
0.0311107
0.0311831
0.0315193
0.0322424
0.0333389
0.0347426
0.0366079
0.0394662
0.0403774
0.0386859
0.0387688
0.0396623
0.0406159
0.0409538
0.0399867
0.038301
0.0369795
0.0371726
0.036379
0.0382546
0.0411254
0.0420799
0.0414135
0.0402161
0.0390339
0.0381791
0.0376195
0.037214
0.0369491
0.0369071
0.0372947
0.0383196
0.0397151
0.0405235
0.0405603
0.0398482
0.0385723
0.0372993
0.0361439
0.0355125
0.0356919
0.0368757
0.038357
0.038768
0.0372984
0.0313766
0.025561
0.0338184
0.0364506
0.029671
0.031512
0.0472408
0.0536398
0.0535653
0.0526082
0.0519968
0.0516476
0.0515426
0.0515176
0.0514887
0.0513703
0.0512182
0.0510129
0.0509209
0.0514312
0.0533978
0.0561787
0.0580605
0.0580118
0.0511075
0.040775
0.0387056
0.0408984
0.0402344
0.0307196
0.0191792
0.025324
0.0271286
0.0305722
0.0319126
0.0319777
0.03153
0.0310711
0.0313868
0.03185
0.03141
0.0294709
0.0285041
0.0309767
0.0316326
0.0230078
0.0243726
0.0260595
0.0273292
0.027467
0.026776
0.0259656
0.0254842
0.0253019
0.025286
0.0250935
0.0248609
0.0246044
0.0247188
0.0249402
0.0251748
0.0254858
0.0257328
0.0259534
0.0260584
0.0260435
0.0258549
0.0255408
0.0251112
0.0246411
0.0242198
0.0239209
0.0236984
0.0233844
0.0224717
0.0302145
0.0304409
0.0290836
0.026533
0.025764
0.0267432
0.0276159
0.0272657
0.0267125
0.0268611
0.0275257
0.0280892
0.0281892
0.0280436
0.0277892
0.0275708
0.0274926
0.027569
0.0277187
0.0278986
0.0281093
0.0282225
0.0282249
0.028088
0.027956
0.0281718
0.0289445
0.0299151
0.0303189
0.0297433
0.0298596
0.0317559
0.0333814
0.0330453
0.031485
0.0300633
0.0298051
0.0301166
0.0303051
0.0302255
0.0299264
0.0295258
0.0291489
0.0288529
0.0286714
0.0286301
0.0285726
0.0286963
0.0288468
0.0290495
0.0291949
0.0292841
0.0294199
0.0297313
0.0303387
0.0312032
0.0317454
0.0316006
0.0308599
0.0295202
0.0337729
0.0326407
0.0306079
0.029683
0.0293676
0.0292748
0.0292507
0.0292653
0.0293003
0.0293347
0.0293618
0.0293895
0.0294262
0.0294541
0.0295066
0.0294475
0.0294286
0.0294443
0.0294544
0.0295683
0.0298327
0.0302966
0.0308997
0.031534
0.0320474
0.0320718
0.0315426
0.0309009
0.0304585
0.0295308
0.0352186
0.0372256
0.0372001
0.036303
0.0353841
0.0351249
0.0353291
0.0356405
0.0357732
0.0355007
0.0351492
0.0352721
0.0357048
0.0361316
0.0365568
0.0366335
0.0368428
0.0368552
0.03684
0.0367994
0.0366312
0.0363439
0.0359376
0.0355327
0.0353242
0.035437
0.0358559
0.0362832
0.0363851
0.0349846
0.031689
0.030932
0.0304449
0.0313917
0.0351042
0.0362274
0.0326082
0.0301263
0.029315
0.0291182
0.0291429
0.0295388
0.0303729
0.0315506
0.0326685
0.0333843
0.0335154
0.0330627
0.0323273
0.0318252
0.0316914
0.0320572
0.0325887
0.03269
0.0320259
0.0302242
0.0273926
0.025141
0.0251336
0.026776
0.0354821
0.0382959
0.0424212
0.0414949
0.0394123
0.0372621
0.0357591
0.0349063
0.0347104
0.0346997
0.0349817
0.0353351
0.035653
0.0358079
0.0358077
0.0356866
0.0355047
0.0354223
0.0355732
0.0361469
0.0370625
0.0379113
0.0380017
0.0374619
0.0363825
0.0350727
0.034009
0.0333431
0.0330472
0.0333079
0.0319341
0.0332548
0.0343048
0.0348119
0.0349111
0.0347295
0.0342542
0.0336595
0.0330602
0.0325956
0.0322585
0.0320877
0.0320558
0.032033
0.0319348
0.0316299
0.0313519
0.0309224
0.0305692
0.0306602
0.0312992
0.0325988
0.0361409
0.0409135
0.0409615
0.0381847
0.0366906
0.0365768
0.0388068
0.0430258
0.0350761
0.0351734
0.0343419
0.0332856
0.0322804
0.0313512
0.0305193
0.0298575
0.0293987
0.0291212
0.0290215
0.0289703
0.0289566
0.0289512
0.029248
0.0297767
0.030539
0.0314214
0.0321166
0.0322505
0.0318805
0.0313736
0.0317408
0.0344657
0.0368369
0.0372194
0.0374538
0.0374036
0.0372568
0.0374317
0.0378759
0.0376043
0.0373009
0.0366254
0.035771
0.0348742
0.0338816
0.0328157
0.0317508
0.0307258
0.029953
0.0293396
0.0290148
0.0287883
0.0289378
0.0291546
0.0295727
0.0303077
0.0314978
0.0331046
0.0351105
0.038117
0.0404335
0.0394287
0.038758
0.0395421
0.0408301
0.0417692
0.0408173
0.0382423
0.0373401
0.0367056
0.0378344
0.0406864
0.0417687
0.0409354
0.0395373
0.0384894
0.0379309
0.0375898
0.0372618
0.036909
0.0365742
0.0364295
0.0368948
0.0383977
0.0405595
0.0414178
0.0411197
0.0395248
0.0367913
0.034312
0.0330223
0.0327033
0.0331412
0.0347693
0.0370607
0.0386387
0.037866
0.0328996
0.0341935
0.0456527
0.0439534
0.0352632
0.0413879
0.0518746
0.0537623
0.0527997
0.0519853
0.0515834
0.0513673
0.0512234
0.051266
0.051451
0.0518405
0.052071
0.0520088
0.0515808
0.0514079
0.0527881
0.0561188
0.0586618
0.0584711
0.0513417
0.0391865
0.0364715
0.0401496
0.0403352
0.0310995
0.0192115
0.0255894
0.0287105
0.0317885
0.0317984
0.0304247
0.0293941
0.028652
0.0286685
0.0299418
0.0311136
0.0300957
0.0286161
0.0303782
0.0316199
0.0231973
0.0249601
0.0270169
0.0283636
0.0282971
0.0272954
0.0261555
0.0254286
0.0251425
0.025065
0.0248543
0.0245953
0.0244522
0.0247133
0.0251489
0.0254513
0.0259167
0.026116
0.0265082
0.0266592
0.0266876
0.0264896
0.0260963
0.0255535
0.0249601
0.0244144
0.0240015
0.0237541
0.0234292
0.0225014
0.0301004
0.0303629
0.0292329
0.0271985
0.0272019
0.0289481
0.0294678
0.0281648
0.0270519
0.0271237
0.0278744
0.028255
0.0280973
0.0277194
0.027394
0.0272349
0.0273414
0.027568
0.0277206
0.0278457
0.0280493
0.0282764
0.0283835
0.0282884
0.028084
0.0280112
0.0284556
0.0293947
0.0300908
0.0297719
0.0299484
0.0322059
0.034063
0.0335378
0.0311798
0.0299317
0.0299752
0.0301965
0.0301275
0.0297452
0.0291844
0.0286511
0.0282699
0.0280123
0.0279253
0.0278474
0.0278251
0.0278335
0.0279259
0.0281197
0.028388
0.0286556
0.0289335
0.0292881
0.0299036
0.0307988
0.0315547
0.0317267
0.0311451
0.0297193
0.0337381
0.0308017
0.0295955
0.0293655
0.029275
0.0292517
0.0292734
0.0293147
0.02937
0.0294262
0.0295057
0.0296044
0.0296615
0.029751
0.0297499
0.0297547
0.0296691
0.0296441
0.0295686
0.0295171
0.0295789
0.029886
0.0303529
0.0310043
0.0316689
0.0320162
0.0318704
0.031425
0.0308651
0.0297403
0.0355249
0.0371267
0.0364667
0.0353033
0.034827
0.0348255
0.0350264
0.0353615
0.0354221
0.0351304
0.0351212
0.0356192
0.036229
0.036558
0.036862
0.0368124
0.0368844
0.0368541
0.0368802
0.0369134
0.0369219
0.0367659
0.0364005
0.0358146
0.0352966
0.0351314
0.0355124
0.0360498
0.0363307
0.0352679
0.0317249
0.0309975
0.0312697
0.0343764
0.037035
0.0332221
0.0300998
0.0295866
0.0298728
0.0297137
0.0296971
0.0305944
0.0325177
0.0345635
0.0359328
0.0364708
0.036409
0.0357851
0.0345251
0.033129
0.032167
0.032038
0.0325048
0.0330456
0.0328989
0.0314385
0.0282906
0.0253288
0.0249596
0.0266354
0.0366145
0.0412259
0.0425702
0.0395287
0.0370747
0.0354942
0.0347935
0.0348485
0.035335
0.0363702
0.0373342
0.038254
0.038818
0.0391145
0.0391469
0.0388306
0.0381311
0.0371734
0.0362947
0.0358785
0.0361337
0.0370987
0.0379219
0.0378256
0.037073
0.0358387
0.0346735
0.033886
0.033324
0.0332812
0.0332296
0.0344296
0.0350873
0.03527
0.0349233
0.0340646
0.0329203
0.031783
0.0308103
0.0301382
0.0296926
0.0295362
0.029565
0.0298992
0.0303678
0.0308645
0.0311916
0.031086
0.0306989
0.0304747
0.0308143
0.0317682
0.0342414
0.0386113
0.0403831
0.038681
0.0369328
0.036012
0.0370632
0.0415995
0.035868
0.0348703
0.0339454
0.0330308
0.0319929
0.0309266
0.0299377
0.0292173
0.0288089
0.0286577
0.0286357
0.0286456
0.0286366
0.0286468
0.0286115
0.028767
0.0292656
0.0301976
0.0312792
0.0320013
0.0319723
0.0314852
0.0313747
0.0330584
0.0360382
0.0372838
0.03757
0.0374784
0.0373448
0.0376363
0.0373078
0.0378014
0.037133
0.036067
0.0350993
0.0340778
0.0327618
0.0313189
0.0298791
0.028717
0.0279277
0.0273201
0.0269826
0.0269605
0.0270414
0.0273551
0.0279132
0.0287325
0.0299238
0.0316136
0.0337485
0.0367905
0.0399668
0.0402665
0.0392732
0.0393598
0.0407499
0.0421237
0.0411541
0.0382301
0.037437
0.0372089
0.0395618
0.0413582
0.0409175
0.0394347
0.0384326
0.0380059
0.0378249
0.0376192
0.0373358
0.0369258
0.036384
0.0358027
0.0356319
0.0367905
0.0394581
0.0412738
0.0409694
0.0387031
0.0344929
0.0300958
0.0285456
0.0289973
0.0303527
0.0328365
0.0359907
0.038476
0.0380614
0.0335899
0.0403768
0.0526599
0.0462797
0.0407855
0.0476487
0.0534446
0.0533279
0.0520735
0.0511957
0.0502916
0.0491902
0.0482988
0.0479409
0.0486198
0.0498078
0.0513773
0.0523681
0.0523768
0.0520362
0.0523081
0.0558179
0.0594324
0.0590459
0.0515159
0.0394685
0.036277
0.0394404
0.039664
0.0297965
0.0189729
0.0257929
0.029782
0.031865
0.0305184
0.0290387
0.0282048
0.0275275
0.027182
0.0280575
0.0299802
0.0297984
0.0287467
0.0302481
0.031571
0.0233996
0.025611
0.0279647
0.0292512
0.0290949
0.0279076
0.0264485
0.0254364
0.0249753
0.0248395
0.0246292
0.0243878
0.0243925
0.0247532
0.0253284
0.025645
0.0261026
0.0263186
0.0268346
0.0270223
0.0271956
0.027004
0.0265466
0.025876
0.0251694
0.0245327
0.0240482
0.0237678
0.0234637
0.0224813
0.0299102
0.0303004
0.0296721
0.0282561
0.0289132
0.0310388
0.0311348
0.0289071
0.0272852
0.0273164
0.0280475
0.028251
0.0278586
0.0274602
0.0272566
0.0273432
0.0277361
0.028173
0.0283275
0.0282169
0.0282178
0.0283822
0.0285194
0.0284621
0.0282086
0.0279804
0.0281814
0.0289849
0.0298052
0.0296742
0.0298959
0.0325451
0.0346803
0.0338062
0.0307859
0.0298878
0.0300353
0.0300932
0.0298156
0.0293098
0.0287343
0.0282833
0.0279987
0.027819
0.0277808
0.027737
0.027658
0.0275686
0.027492
0.0275522
0.0277492
0.0280717
0.0284785
0.0289414
0.0295977
0.0305076
0.0314022
0.0317652
0.0312126
0.0296953
0.0330936
0.0297342
0.0294742
0.0292898
0.0292116
0.0292261
0.0292718
0.0293184
0.0293968
0.0295034
0.0296685
0.0298201
0.0299372
0.030007
0.0300479
0.0300125
0.0299337
0.0298707
0.0297671
0.0296526
0.0296013
0.0296973
0.0300427
0.0306341
0.0313088
0.0317745
0.031791
0.0314995
0.0309856
0.0298302
0.035698
0.0369176
0.0358487
0.0351406
0.0349671
0.0347662
0.0348261
0.035146
0.0351798
0.0349637
0.0352543
0.0358668
0.0363631
0.036619
0.036731
0.0367285
0.0366921
0.036697
0.036689
0.0367812
0.0369068
0.0369192
0.0366472
0.0360276
0.0353322
0.0349856
0.0352928
0.0358831
0.0362741
0.0353156
0.0316652
0.0312909
0.033151
0.0366623
0.0355082
0.0308793
0.0302544
0.031288
0.0310731
0.0299958
0.0298759
0.0316112
0.0344667
0.0366331
0.0371547
0.0370497
0.0366945
0.0362905
0.035332
0.0340248
0.0327422
0.0322621
0.0325761
0.0333334
0.0335521
0.0322122
0.0286595
0.0252908
0.0249081
0.0266847
0.0381789
0.0426716
0.0410478
0.0381854
0.0362322
0.0351914
0.0351531
0.0358206
0.0371048
0.0385094
0.0395826
0.0402106
0.0406146
0.0408701
0.0409742
0.0409653
0.0405752
0.0396629
0.0380964
0.0367138
0.0360345
0.0364363
0.0374682
0.0379017
0.0374072
0.0363487
0.0351828
0.0343805
0.0336376
0.0333507
0.0341198
0.0349639
0.0353249
0.0352787
0.0344902
0.0330527
0.0314229
0.0300197
0.0290379
0.0283997
0.0280981
0.0278776
0.0277932
0.0279165
0.0283642
0.0292285
0.0301413
0.0307578
0.0307452
0.0304267
0.0304805
0.0312127
0.033023
0.0367234
0.0392755
0.038814
0.0373064
0.0360082
0.0363929
0.0401556
0.0358967
0.0347904
0.0342123
0.033252
0.0320383
0.0307268
0.029541
0.0287965
0.0284757
0.0284517
0.0285594
0.0286557
0.0287063
0.028676
0.0286161
0.0285365
0.0286952
0.0293617
0.0304557
0.0314916
0.0318596
0.0315122
0.031216
0.0322108
0.0350187
0.0369635
0.0373457
0.0373259
0.0374011
0.0377697
0.0375297
0.0378523
0.0366447
0.0356076
0.0348118
0.0336862
0.0319458
0.0301727
0.0284771
0.0274326
0.0266376
0.0260993
0.0258651
0.0256721
0.0257853
0.026093
0.0266893
0.0275613
0.028727
0.0304078
0.0326733
0.0357352
0.0391643
0.0406956
0.0401806
0.039997
0.0411405
0.042289
0.0408831
0.0381414
0.0374808
0.0380014
0.0404381
0.0410123
0.0397099
0.0385083
0.0380847
0.0379968
0.0379306
0.0378292
0.0376318
0.0372774
0.0367319
0.0358461
0.0348615
0.0347084
0.0371691
0.0401304
0.0408819
0.0392225
0.0348197
0.0293361
0.0268644
0.0270784
0.0286977
0.0317718
0.0357332
0.0385823
0.0381479
0.0338024
0.0433973
0.0546784
0.0483971
0.0454715
0.0509035
0.0537182
0.0527659
0.0512392
0.0497842
0.0477754
0.04548
0.0437312
0.0433565
0.0439699
0.0461744
0.0487495
0.0514864
0.0528393
0.0526332
0.0521326
0.0548122
0.060036
0.0603105
0.0523381
0.0403999
0.0364438
0.0386475
0.037382
0.0270161
0.0186473
0.0260694
0.0300419
0.031155
0.0295651
0.0285062
0.0278882
0.0272032
0.0266706
0.0271932
0.0288239
0.0290607
0.0286434
0.0304109
0.0315331
0.0237197
0.0262963
0.0287021
0.0297381
0.0296466
0.0283635
0.026848
0.0255702
0.0248779
0.0246704
0.0244359
0.0242254
0.0243454
0.0247945
0.0254059
0.0257052
0.0260066
0.0262887
0.0268421
0.0272603
0.0274349
0.0271794
0.0266316
0.0258888
0.0251245
0.02452
0.0240394
0.0237789
0.0234027
0.0223595
0.0297144
0.030201
0.0300923
0.0294684
0.0306507
0.032838
0.0324863
0.029517
0.0274735
0.0274203
0.0281044
0.028178
0.0277146
0.0274008
0.0273302
0.0276259
0.0282557
0.0288405
0.0290069
0.028832
0.028671
0.0286841
0.028705
0.0285698
0.0282378
0.0279273
0.0280205
0.0287068
0.0295227
0.0295299
0.0299811
0.0329618
0.0350042
0.0333486
0.0304634
0.029857
0.0300143
0.0299711
0.0296394
0.0291816
0.0287013
0.0283158
0.0281067
0.0279905
0.0279977
0.0279471
0.0278761
0.0276483
0.0274318
0.0273227
0.027461
0.0277365
0.0281615
0.028742
0.0294967
0.0304545
0.03131
0.0316061
0.0309811
0.0295594
0.0318288
0.029545
0.0293734
0.0292169
0.0292106
0.029248
0.0292774
0.0292995
0.0293867
0.0295026
0.0297111
0.0299118
0.0300944
0.0301802
0.0302434
0.0302441
0.0301728
0.0300823
0.0299525
0.0298091
0.0297213
0.0297509
0.0299665
0.0304552
0.0310607
0.031529
0.0316318
0.0314202
0.0309789
0.0298405
0.0358704
0.03663
0.0357603
0.0356119
0.0353864
0.0347472
0.0346853
0.0350114
0.0350271
0.034877
0.0353118
0.035843
0.0361851
0.0363695
0.0365392
0.0366542
0.0366752
0.0367007
0.0367103
0.036753
0.0368852
0.0369126
0.0366558
0.0360071
0.035255
0.0348935
0.0352131
0.0358449
0.0362143
0.035251
0.0316835
0.0323109
0.0356806
0.0370767
0.0327626
0.0311712
0.0323597
0.0329422
0.0313309
0.0296614
0.0298358
0.0323394
0.0354536
0.0370919
0.0368834
0.0359156
0.0354218
0.035386
0.0349455
0.0339999
0.0329074
0.0324952
0.0328901
0.0338062
0.0340403
0.0324759
0.0282802
0.0249846
0.0249927
0.0270244
0.0396099
0.0428045
0.0402011
0.037889
0.0360954
0.0353942
0.0355744
0.0366306
0.0382099
0.0394721
0.040285
0.0406308
0.0408304
0.0410247
0.0412853
0.0415229
0.0414814
0.040998
0.0396963
0.0378441
0.0364897
0.0362903
0.0370773
0.0377427
0.0374777
0.0365524
0.0354655
0.0347076
0.0338119
0.0334059
0.0348246
0.0352141
0.0353908
0.0352314
0.0340947
0.0322915
0.0304806
0.0291073
0.02831
0.0278798
0.0277079
0.0274883
0.0272898
0.0271335
0.0272454
0.027852
0.0289286
0.0300032
0.0304954
0.0303565
0.0302949
0.0308436
0.0322847
0.0353647
0.0380269
0.0383662
0.0372221
0.0359763
0.036086
0.0390416
0.0356657
0.0352245
0.0346908
0.0336915
0.0323371
0.0307505
0.0293398
0.028578
0.0283236
0.0284016
0.028574
0.0287088
0.0287859
0.0287849
0.0287232
0.0285799
0.0285373
0.0289502
0.0299039
0.031039
0.031623
0.0314072
0.0310743
0.0317382
0.0341787
0.036254
0.0367533
0.0370527
0.037447
0.0379279
0.0380683
0.0375646
0.0362853
0.0355015
0.0348342
0.0335322
0.0314364
0.0295352
0.0277003
0.0267948
0.0259311
0.0254895
0.0251764
0.02508
0.025068
0.0253471
0.0258872
0.0267043
0.0278553
0.0295457
0.0318648
0.0349046
0.0383629
0.0406983
0.0408835
0.040901
0.0417811
0.0424501
0.0404113
0.0380875
0.0375524
0.0385596
0.040611
0.0402722
0.038852
0.0381342
0.0380134
0.0379685
0.0379387
0.0379464
0.0379003
0.0376922
0.0372547
0.0365808
0.0351026
0.0334205
0.0342147
0.037911
0.0402614
0.0401819
0.0374353
0.0326629
0.0286908
0.0278053
0.0292886
0.0324514
0.0366569
0.0389232
0.0380088
0.0337384
0.0418208
0.0554268
0.0507961
0.0489496
0.0525817
0.0537603
0.052205
0.0502891
0.0480355
0.0449357
0.0417051
0.039641
0.0386721
0.0399654
0.042072
0.0456826
0.0494369
0.0525497
0.0533423
0.052182
0.0531201
0.0600975
0.0620962
0.0538923
0.0409288
0.0357015
0.0368195
0.0339836
0.0240443
0.0181818
0.0260005
0.0297128
0.0303237
0.0289357
0.0282314
0.0277529
0.0270869
0.0265214
0.026567
0.0277596
0.0283283
0.0290027
0.0306088
0.0307159
0.023907
0.0266799
0.0291387
0.0298918
0.0295713
0.0284751
0.0272596
0.0258233
0.0248623
0.0245499
0.0242758
0.0240926
0.0242964
0.0247969
0.0254014
0.0256404
0.0258839
0.0261693
0.0267941
0.0271859
0.0272594
0.0269107
0.0262496
0.0255263
0.0248705
0.0242788
0.0238765
0.0235724
0.0231055
0.0223466
0.0294835
0.0300592
0.0304747
0.0305989
0.0321055
0.0340229
0.0334949
0.0299515
0.0276003
0.0274649
0.0281349
0.0281489
0.0276916
0.0274177
0.0274069
0.0277021
0.0283363
0.0289715
0.0292817
0.029265
0.0290914
0.0289217
0.0287961
0.0284638
0.0280722
0.0277647
0.0279193
0.0285594
0.0293148
0.0293403
0.0300944
0.0333718
0.0351735
0.03299
0.0303026
0.0298531
0.0299753
0.0299164
0.0296593
0.0293128
0.0289036
0.0285506
0.0283487
0.0282271
0.0282316
0.02824
0.0281311
0.0278876
0.0275784
0.027443
0.0274814
0.0277522
0.0281773
0.0288491
0.029671
0.0306215
0.0313676
0.0315301
0.0304923
0.029568
0.0309437
0.0293707
0.0293434
0.0292675
0.0292868
0.0293172
0.0293145
0.0292856
0.0293198
0.0293959
0.0296247
0.0298604
0.0300432
0.0301885
0.0302729
0.0302933
0.030239
0.0301324
0.0300014
0.0298778
0.0297825
0.0297901
0.0300033
0.0304284
0.0309489
0.0313119
0.0313711
0.0311956
0.0308101
0.0297037
0.0358885
0.0364763
0.0362129
0.0365543
0.0357655
0.0347044
0.0345715
0.0349227
0.0349203
0.0347678
0.0351755
0.0355916
0.0357475
0.0359277
0.0361944
0.0364799
0.036598
0.0366761
0.0367606
0.0368048
0.036832
0.0367328
0.0363693
0.0356892
0.0350559
0.0349008
0.0353283
0.0359194
0.0360746
0.0351305
0.0318548
0.0334687
0.0370016
0.0360691
0.0324875
0.0326454
0.0342593
0.0337917
0.0311025
0.0293024
0.0296437
0.0322049
0.0351984
0.0367124
0.0363493
0.0351424
0.0345691
0.0344198
0.0341421
0.0335614
0.0329314
0.0328662
0.0335897
0.034539
0.0342869
0.0317133
0.0269974
0.0247059
0.025297
0.0269203
0.0404317
0.0426745
0.0401908
0.0382477
0.0364119
0.0356112
0.0358786
0.0370311
0.0385723
0.039655
0.0400886
0.0400828
0.0400498
0.0403996
0.0409451
0.0415281
0.0417624
0.0414834
0.0404341
0.0384918
0.0368323
0.0363426
0.0368767
0.0375432
0.0373599
0.0364965
0.0355365
0.0349742
0.033968
0.03342
0.0355906
0.0355225
0.0354623
0.0352429
0.0339885
0.0320523
0.03018
0.0288345
0.0281816
0.027884
0.0277648
0.0274892
0.027132
0.0268056
0.0266768
0.0271134
0.0281165
0.0293013
0.0301623
0.0301951
0.0301517
0.030602
0.0319059
0.0344601
0.0368728
0.0374977
0.0365769
0.0358851
0.0363195
0.0384163
0.0357428
0.0357033
0.0352247
0.034393
0.0329077
0.031018
0.0293648
0.0284977
0.0282855
0.0284117
0.0286177
0.0287941
0.0289152
0.0289377
0.0288315
0.0286385
0.028514
0.0288105
0.0296854
0.030788
0.0313828
0.0312017
0.0309137
0.0314903
0.0336195
0.0353104
0.036353
0.0370793
0.0376737
0.0381528
0.0382149
0.0373302
0.0361324
0.0355456
0.0350036
0.0336516
0.0314042
0.029368
0.0274946
0.0265799
0.0256525
0.025228
0.0247396
0.0245855
0.0247435
0.0249203
0.0254507
0.0262087
0.0273949
0.0291245
0.0315327
0.0345568
0.0378565
0.0402831
0.0412027
0.0415713
0.0422835
0.042412
0.0396538
0.0379691
0.0375057
0.0388851
0.0404731
0.0395736
0.038334
0.0379305
0.0377326
0.0374587
0.0373281
0.0375204
0.0378211
0.0379425
0.0376066
0.0371888
0.0362889