/*--------------------------------*- C++ -*----------------------------------*\
| =========                 |                                                 |
| \\      /  F ield         | OpenFOAM: The Open Source CFD Toolbox           |
|  \\    /   O peration     | Version:  2.1.1                                 |
|   \\  /    A nd           | Web:      www.OpenFOAM.org                      |
|    \\/     M anipulation  |                                                 |
\*---------------------------------------------------------------------------*/
FoamFile
{
    version     2.0;
    format      ascii;
    class       volScalarField;
    location    "0.005350000";
    object      O;
}
// * * * * * * * * * * * * * * * * * * * * * * * * * * * * * * * * * * * * * //

dimensions      [0 0 0 0 0 0 0];

internalField   nonuniform List<scalar> 
12384
(
0.000660921
0.000727242
0.000812744
0.000814848
0.000834987
0.000812646
0.000827038
0.000811269
0.000808021
0.000780192
0.000713167
0.000593814
0.000695349
0.000918493
0.000283102
0.000256378
0.000256075
0.000282212
0.000323895
0.000353117
0.00036792
0.000369711
0.000362681
0.000363146
0.000356075
0.000369662
0.000352854
0.000375226
0.000344933
0.000366738
0.000331526
0.000341791
0.000309032
0.000311067
0.000290903
0.000284037
0.000270067
0.000255352
0.000241252
0.000228715
0.000209046
0.000192249
0.000200209
0.000201802
0.000140473
0.000128834
0.000147788
0.000206095
0.00031485
0.000336637
0.000342288
0.000352582
0.000353939
0.000368001
0.000376735
0.000386248
0.000381438
0.000379473
0.00037131
0.000355706
0.00033964
0.000327188
0.000315876
0.000315797
0.000297434
0.000297543
0.000271561
0.000246642
0.000209747
0.000160816
0.000151047
0.000303557
0.000387682
0.000400592
0.000130647
0.000111358
7.09586e-05
8.06828e-05
8.36711e-05
0.000116904
0.000136883
0.000144886
0.000146363
0.000141896
0.000141685
0.000129191
0.000129905
0.000126197
0.000128965
0.000122993
0.000136211
0.000128751
0.00014795
0.00015151
0.000147887
0.000156064
0.000144217
0.000112818
9.73588e-05
0.000104344
0.000195043
0.000246527
0.000260871
0.000258601
2.76943e-05
2.75424e-05
2.5372e-05
2.78664e-05
3.07563e-05
3.51198e-05
3.99269e-05
4.39052e-05
4.73289e-05
5.17887e-05
5.81848e-05
4.20982e-05
4.58554e-05
5.52583e-05
4.45181e-05
5.80221e-05
7.50052e-05
7.0387e-05
5.52351e-05
8.6267e-05
7.69611e-05
7.76035e-05
8.20513e-05
9.1887e-05
0.000244111
0.000371727
0.000394571
0.000371896
0.000341943
0.000325217
4.44082e-05
2.6539e-05
1.91365e-05
1.07769e-05
9.07878e-06
1.31085e-05
1.26574e-05
1.13649e-05
1.17196e-05
5.64107e-06
4.90995e-06
5.7663e-06
8.1813e-06
7.75362e-06
8.54771e-06
1.07407e-05
6.86084e-06
9.59259e-06
7.20441e-06
8.70534e-06
7.2791e-06
8.20609e-06
8.03218e-06
7.46568e-06
8.93601e-06
8.71469e-06
1.07152e-05
1.65496e-05
3.44525e-05
8.38959e-05
4.78636e-05
3.78233e-05
6.31647e-05
9.91269e-05
0.000107835
0.000113284
0.000102153
7.587e-05
4.48654e-05
2.74998e-05
3.69615e-05
3.77438e-05
3.78324e-05
3.44188e-05
3.60839e-05
3.39994e-05
3.51443e-05
3.61317e-05
3.91049e-05
1.90255e-05
3.867e-05
5.79993e-05
9.53372e-05
0.000159041
0.000221635
0.000203823
0.000202363
0.000209866
0.000211981
0.000206074
0.000255111
0.000246586
0.00019057
0.000110474
5.56184e-05
2.2856e-05
2.23865e-05
1.71008e-05
1.14907e-05
1.05965e-05
9.59922e-06
6.6887e-06
7.56479e-06
8.23016e-06
7.45339e-06
8.08123e-06
8.78929e-06
6.21015e-06
8.24744e-06
1.06811e-05
1.01962e-05
1.3732e-05
1.77771e-05
2.40995e-05
3.05999e-05
2.99433e-05
2.89924e-05
3.11769e-05
3.43942e-05
3.36704e-05
5.09038e-05
6.77611e-05
7.32297e-05
7.76255e-05
4.1828e-05
5.15072e-05
4.46432e-05
4.91756e-05
5.22198e-05
4.04333e-05
4.78423e-05
4.06318e-05
3.30763e-05
3.27888e-05
2.26118e-05
4.60341e-05
4.54339e-05
4.3872e-05
3.85779e-05
3.69241e-05
1.61922e-05
5.9905e-06
1.38617e-06
1.14443e-06
1.38064e-06
1.43407e-06
1.54322e-06
1.43573e-06
1.38396e-06
1.30593e-06
0.000362873
0.000272472
0.000173118
8.37279e-05
7.5172e-05
6.34726e-05
5.66433e-05
4.72091e-05
4.31139e-05
4.02739e-05
4.15829e-05
3.98539e-05
3.85951e-05
4.20798e-05
4.18096e-05
4.86735e-05
2.71881e-05
5.42229e-05
6.83697e-05
8.39394e-05
8.70725e-05
5.801e-05
1.87357e-05
1.08435e-05
1.16931e-05
9.27121e-06
1.11733e-05
1.02021e-05
1.07586e-05
8.74845e-06
1.00158e-05
1.30262e-05
8.88686e-06
8.57732e-06
7.47295e-06
8.80212e-06
9.53219e-06
8.22076e-06
6.45821e-06
8.23848e-06
6.65855e-06
7.92853e-06
6.46705e-06
7.61355e-06
7.65821e-06
8.69312e-06
8.65416e-06
1.16477e-05
1.12084e-05
4.65163e-06
4.7095e-06
2.67046e-06
5.57278e-06
6.97341e-06
6.95494e-06
6.98317e-06
6.6187e-06
6.3663e-06
6.72413e-06
6.79203e-06
0.000102521
8.47341e-06
2.7166e-06
8.55543e-06
1.21088e-05
8.12439e-06
3.56373e-06
2.65834e-06
1.45857e-06
1.14376e-06
9.51241e-07
9.894e-07
1.03422e-06
1.27872e-06
1.47148e-06
1.8535e-06
2.01993e-06
2.2784e-06
2.3018e-06
2.66561e-06
2.5322e-06
2.56345e-06
2.84256e-06
2.47516e-06
2.53628e-06
3.11762e-06
3.27773e-06
1.62222e-06
1.29054e-05
9.33534e-05
9.74303e-06
1.21912e-05
1.29987e-05
1.28696e-05
1.24692e-05
2.85327e-05
9.63443e-07
3.48055e-07
3.04826e-07
3.99783e-07
3.99223e-07
3.56247e-07
3.55591e-07
3.93957e-07
3.66509e-07
3.50637e-07
3.01032e-07
2.73695e-07
2.04192e-07
1.76947e-07
2.10463e-07
2.35559e-07
2.2219e-07
3.36878e-07
1.01473e-06
1.19552e-06
1.48373e-06
2.97984e-06
0.000155385
1.68769e-05
0.000835324
0.000802375
0.000791659
0.000807158
0.000825479
0.00081048
0.00080768
0.000815007
0.00083246
0.000831661
0.00082666
0.000714288
0.000650233
0.000871823
0.000276047
0.000259936
0.000286397
0.000365252
0.000416266
0.00043247
0.000423329
0.000410714
0.00040453
0.000421789
0.000431759
0.000475332
0.000480087
0.000508931
0.000493585
0.000512395
0.000488412
0.000505223
0.000478629
0.000470424
0.000427893
0.000395978
0.000349182
0.000312594
0.000274395
0.000250626
0.000223384
0.00020097
0.000190549
0.000175111
0.000137166
0.000134485
0.000169885
0.000302861
0.000322242
0.000316698
0.000323586
0.00033547
0.000359807
0.00037196
0.000400816
0.000423376
0.000418979
0.000411866
0.000401251
0.000385978
0.000365988
0.000353347
0.000346655
0.000340487
0.000341078
0.000343249
0.000330879
0.000311445
0.000269103
0.000215685
0.000164977
0.000173519
0.000257427
0.000313954
0.000131859
9.11745e-05
7.54491e-05
8.87613e-05
0.000109681
0.000146134
0.000166485
0.000157708
0.000145798
0.000131259
0.000119813
0.000113392
0.000107699
0.00010529
0.000106512
0.00011231
0.000116533
0.000131668
0.000139729
0.000154721
0.000164973
0.000169641
0.000159689
0.000143357
9.46043e-05
7.42248e-05
0.000105187
0.000164465
0.000196222
0.000216599
2.65095e-05
2.30416e-05
2.82017e-05
3.75317e-05
5.49226e-05
6.33855e-05
0.000107961
0.000132369
0.00015774
0.000172178
0.000184503
0.000189701
0.000198004
0.000201636
0.000208512
0.000205581
0.000203946
0.000194601
0.000172149
0.000136614
9.95881e-05
9.09086e-05
8.06969e-05
8.45051e-05
8.41846e-05
0.000200333
0.000303418
0.000301095
0.000267174
0.000265065
3.12869e-05
2.14038e-05
1.02927e-05
6.68209e-06
1.25326e-05
1.14383e-05
8.53066e-06
9.32435e-06
9.2854e-06
1.04121e-05
1.33596e-05
1.72635e-05
1.96872e-05
2.16065e-05
2.47118e-05
2.44324e-05
2.25816e-05
2.21025e-05
1.82586e-05
1.86542e-05
1.61348e-05
1.49491e-05
1.33547e-05
1.10834e-05
9.99533e-06
1.01601e-05
1.05853e-05
1.43318e-05
2.32023e-05
4.42449e-05
3.30737e-05
4.11284e-05
7.68193e-05
8.65281e-05
9.79722e-05
7.49521e-05
2.90685e-05
2.0906e-05
2.31487e-05
2.72347e-05
3.54872e-05
3.91404e-05
3.46715e-05
4.14401e-05
4.72445e-05
4.44701e-05
2.80892e-05
2.02375e-05
4.09191e-05
4.10058e-05
4.22533e-05
4.51066e-05
4.32574e-05
8.81004e-05
0.000158938
0.000215594
0.000202057
0.00020165
0.000215301
0.000205595
5.82061e-05
2.53168e-05
2.15532e-05
1.14998e-05
6.1785e-06
4.4012e-06
4.3118e-06
5.23629e-06
6.32855e-06
6.43165e-06
7.75378e-06
7.92976e-06
8.71754e-06
8.11216e-06
8.04869e-06
8.36748e-06
7.93222e-06
8.11088e-06
7.94455e-06
8.46495e-06
9.64885e-06
8.46017e-06
1.07702e-05
1.74137e-05
1.94973e-05
3.09499e-05
3.58131e-05
3.20964e-05
3.52794e-05
3.11278e-05
9.73445e-05
0.00011337
0.000100906
8.7486e-05
5.90288e-05
4.63681e-05
6.88114e-05
6.15178e-05
5.9675e-05
4.0111e-05
3.96926e-05
5.11282e-05
6.08711e-05
7.29252e-05
7.84251e-05
7.23284e-05
7.02625e-05
6.83957e-05
4.75018e-05
4.55356e-05
3.30841e-05
1.36086e-05
2.67907e-06
1.5699e-06
2.86022e-06
3.75681e-06
4.82676e-06
3.60944e-06
1.57095e-06
1.73594e-06
0.000134284
5.80079e-05
2.24842e-05
8.70055e-06
1.63599e-05
1.76022e-05
1.95862e-05
2.8881e-05
2.80292e-05
3.22897e-05
3.1573e-05
2.72842e-05
2.93007e-05
2.31525e-05
2.3639e-05
2.5471e-05
2.79551e-05
3.52675e-05
4.62455e-05
4.20517e-05
7.61665e-05
5.24736e-05
2.10089e-05
1.16351e-05
8.34285e-06
8.29248e-06
7.73962e-06
8.2358e-06
9.5803e-06
8.9909e-06
6.89811e-06
6.27834e-06
6.97905e-06
7.05738e-06
9.40692e-06
1.10494e-05
1.21686e-05
1.17973e-05
1.06877e-05
7.0135e-06
7.18725e-06
1.30029e-05
1.49816e-05
1.71176e-05
1.51918e-05
1.61229e-05
1.52413e-05
1.16534e-05
1.6082e-05
1.29953e-05
8.8306e-06
2.42532e-06
4.792e-06
6.65161e-06
6.61592e-06
5.59363e-06
4.29099e-06
3.99562e-06
5.02499e-06
6.24822e-06
6.70641e-06
2.47797e-06
4.84728e-06
7.37398e-06
3.20074e-06
1.62836e-06
1.4385e-06
1.29927e-06
1.33025e-06
1.08413e-06
1.5078e-06
1.97254e-06
2.84726e-06
3.19875e-06
3.4213e-06
3.15772e-06
3.18127e-06
3.13563e-06
3.21629e-06
3.37474e-06
3.66666e-06
3.11011e-06
3.25253e-06
4.27184e-06
4.65605e-06
3.88172e-06
3.61712e-06
3.9565e-06
7.71379e-06
0.000139189
2.73426e-05
9.41468e-05
0.000143277
0.000110213
8.04198e-05
9.65034e-06
3.43967e-07
3.5763e-07
3.71469e-07
5.1313e-07
5.37524e-07
3.12021e-07
3.01247e-07
4.56303e-07
4.07031e-07
3.15263e-07
4.0598e-07
2.86685e-07
3.18085e-07
2.27038e-07
1.5198e-07
1.48344e-07
1.69466e-07
4.4013e-07
9.53612e-07
1.98746e-06
1.68673e-06
2.39355e-06
0.000140434
2.21301e-05
0.000750736
0.000784403
0.000836163
0.000760364
0.000686858
0.000684744
0.000692099
0.000689938
0.000708575
0.000787156
0.000835396
0.000806577
0.000703261
0.000806444
0.000256272
0.00027627
0.000351714
0.000432276
0.000458784
0.000462292
0.000432676
0.000417726
0.000412064
0.000447539
0.00047371
0.00052901
0.000533793
0.00054499
0.000535187
0.000550837
0.00054075
0.000563368
0.000552305
0.000562983
0.000544031
0.000522228
0.000472736
0.000408865
0.000342325
0.00028384
0.000248671
0.000218691
0.000196868
0.0001784
0.000137257
0.000127963
0.000205607
0.000321953
0.00031758
0.000318376
0.000340109
0.000357603
0.000376237
0.000412005
0.000419481
0.000426597
0.000410701
0.000389034
0.000369778
0.000353724
0.000339103
0.00032647
0.000317907
0.000310309
0.000315236
0.00033051
0.000333197
0.000351303
0.000327117
0.000280785
0.000212927
0.000168941
0.00018904
0.00025869
0.000137488
7.32938e-05
6.80709e-05
8.17144e-05
8.70887e-05
0.000139617
0.000158434
0.000134563
0.000109869
0.000104909
0.000100268
9.53924e-05
0.000102851
0.000109862
0.000111426
0.000118982
0.00011632
0.000129463
0.000131206
0.000136905
0.000159165
0.000164419
0.000170615
0.000165971
0.000125197
7.39919e-05
6.551e-05
0.000103994
0.000139665
0.000192613
2.47029e-05
2.06099e-05
4.8021e-05
9.42167e-05
0.00016214
0.000205922
0.00023782
0.000250651
0.000260002
0.000266116
0.000274234
0.000277545
0.000280718
0.000282111
0.000288199
0.000284535
0.000304306
0.000285231
0.000276903
0.000234147
0.000180344
0.000118766
6.77705e-05
8.24168e-05
7.78702e-05
7.47401e-05
0.000165388
0.000203733
0.000205939
0.000241007
1.20083e-05
1.60053e-05
9.68152e-06
1.06868e-05
1.49686e-05
1.72888e-05
1.7321e-05
1.91449e-05
1.59438e-05
1.9218e-05
2.48973e-05
3.07244e-05
3.47991e-05
3.54148e-05
3.19528e-05
2.99983e-05
2.84075e-05
2.54357e-05
2.34573e-05
2.27502e-05
2.23733e-05
2.23087e-05
1.97239e-05
1.61542e-05
1.39678e-05
1.13368e-05
1.13947e-05
1.28887e-05
1.63234e-05
2.40037e-05
2.66925e-05
4.8174e-05
7.07885e-05
8.39167e-05
4.94191e-05
1.85566e-05
1.72436e-05
2.39089e-05
4.02317e-05
8.47866e-05
0.000101188
0.000106276
0.000102411
9.38982e-05
7.73646e-05
6.66267e-05
6.5799e-05
6.20316e-05
4.96177e-05
4.50029e-05
4.71224e-05
4.33849e-05
4.54333e-05
4.94964e-05
7.64095e-05
0.000157476
0.000216695
0.000191311
0.000197466
0.000208093
1.66488e-05
1.96345e-05
6.5053e-06
5.27837e-06
5.09076e-06
4.80245e-06
9.56258e-06
7.0498e-06
1.53869e-05
2.11874e-05
2.0867e-05
2.24164e-05
2.21656e-05
2.20993e-05
2.12205e-05
1.92139e-05
1.6266e-05
1.42871e-05
1.10723e-05
6.26238e-06
9.11494e-06
9.27066e-06
7.04534e-06
1.25947e-05
1.97303e-05
1.86729e-05
3.53353e-05
3.96237e-05
4.05462e-05
3.66016e-05
0.000141013
8.61633e-05
6.71363e-05
4.11638e-05
3.43657e-05
2.57595e-05
2.06958e-05
2.65732e-05
2.56289e-05
3.09474e-05
3.67035e-05
3.45733e-05
4.01606e-05
4.27209e-05
3.03501e-05
5.32531e-05
7.01994e-05
8.97664e-05
8.87874e-05
5.72491e-05
4.72403e-05
2.02093e-05
6.10615e-06
2.04926e-06
4.1878e-06
9.30477e-06
6.07645e-06
9.72044e-06
5.08406e-06
1.68844e-06
4.23665e-05
3.94366e-06
2.19333e-05
1.72875e-05
2.7569e-05
4.49461e-05
3.75711e-05
6.52747e-05
9.10803e-05
9.59146e-05
0.000100849
9.80829e-05
8.46102e-05
7.37195e-05
5.0573e-05
2.63231e-05
3.38565e-05
3.18551e-05
3.38112e-05
4.38736e-05
4.0321e-05
6.62521e-05
5.64097e-05
1.91506e-05
8.69615e-06
7.18161e-06
7.18568e-06
8.31179e-06
8.59878e-06
7.97708e-06
7.1724e-06
4.1608e-06
7.48297e-06
6.54722e-06
9.45958e-06
1.19866e-05
1.27209e-05
6.38233e-06
1.66142e-05
1.89685e-05
2.42152e-05
1.72208e-05
3.15309e-05
3.67706e-05
4.10375e-05
3.99516e-05
3.17704e-05
3.37275e-05
2.47515e-05
1.9452e-05
1.07519e-05
6.06447e-06
2.80995e-06
6.81943e-06
5.96338e-06
4.42577e-06
2.50734e-06
1.49259e-06
2.81344e-06
5.62353e-06
4.26133e-06
3.85052e-06
5.53812e-06
3.16925e-06
1.79139e-06
1.62691e-06
1.6556e-06
2.04506e-06
2.63256e-06
3.2557e-06
2.96684e-06
3.82999e-06
4.40282e-06
4.46855e-06
3.6445e-06
2.90028e-06
2.20281e-06
1.20061e-06
1.33182e-06
1.81557e-06
3.21859e-06
2.80872e-06
6.58579e-06
8.66531e-06
9.41432e-06
4.96721e-06
4.33873e-06
3.66458e-06
3.96615e-06
2.81574e-05
0.00018346
1.23928e-05
7.00588e-06
8.84223e-05
1.53276e-05
7.72871e-07
3.83178e-07
4.08677e-07
5.20059e-07
2.83397e-07
3.73385e-07
3.71211e-07
5.64866e-07
4.81032e-07
3.5911e-07
4.6094e-07
3.29424e-07
4.00472e-07
2.53773e-07
2.71307e-07
1.1207e-07
1.25489e-07
1.13267e-07
2.97972e-07
1.48662e-06
3.50113e-06
1.5255e-06
1.86787e-06
5.23687e-05
2.72241e-05
0.000777213
0.000833433
0.000684068
0.000659856
0.000701194
0.00075725
0.000830856
0.00078406
0.000742992
0.000720767
0.000807681
0.000829857
0.000735043
0.000817957
0.000254027
0.000295274
0.000397995
0.000445408
0.00045843
0.000458677
0.000446256
0.000428267
0.000425105
0.000461289
0.000505384
0.000531193
0.000517842
0.00053832
0.000529001
0.000560226
0.000552103
0.000590947
0.000593879
0.000618831
0.000613807
0.000605061
0.000565645
0.000511842
0.000424374
0.000343525
0.00028575
0.000238742
0.00020461
0.00017981
0.000137368
0.000139556
0.00021758
0.000319471
0.000312927
0.000321153
0.000304341
0.000335227
0.000373648
0.000402301
0.00042371
0.000403957
0.000391241
0.000371036
0.000355807
0.000344571
0.000327277
0.000322672
0.000302354
0.000294658
0.000293995
0.000295113
0.000317775
0.000337592
0.000355307
0.000328583
0.00026497
0.000198692
0.000178165
0.000229093
0.000135305
5.03128e-05
5.02101e-05
5.9673e-05
7.50452e-05
0.000144682
0.000141394
0.000118805
9.88649e-05
0.000103715
0.000115968
0.000133138
0.000145596
0.000160657
0.000170057
0.000180859
0.000180989
0.000179418
0.000183172
0.000167822
0.000171746
0.000183455
0.000182693
0.000177382
0.000153509
0.00010696
6.15261e-05
6.39043e-05
0.000102283
0.000170398
2.35473e-05
4.64199e-05
0.000125606
0.000213321
0.000249275
0.000264382
0.000279961
0.000280607
0.00028712
0.000295841
0.000300027
0.000300619
0.000299689
0.00031029
0.000307771
0.00032078
0.000323621
0.00033599
0.000324572
0.000311274
0.000266697
0.000195495
0.000132467
7.66955e-05
7.69439e-05
8.18205e-05
7.43086e-05
0.000126151
0.000155998
0.000217886
3.14753e-05
1.3712e-05
1.3366e-05
1.9602e-05
2.54495e-05
2.77726e-05
2.56775e-05
2.20643e-05
2.2525e-05
2.76669e-05
3.46337e-05
4.03345e-05
3.78209e-05
3.46192e-05
2.91149e-05
2.97954e-05
2.30338e-05
2.50307e-05
2.49455e-05
2.25592e-05
2.40967e-05
2.24471e-05
2.33939e-05
2.2045e-05
1.74808e-05
1.39364e-05
1.17852e-05
1.28613e-05
1.52769e-05
2.65876e-05
2.04239e-05
4.78507e-05
6.47956e-05
3.49995e-05
1.66197e-05
1.20819e-05
3.13567e-05
8.5621e-05
0.000108132
0.000114974
0.000111371
9.96064e-05
7.069e-05
2.86344e-05
3.30127e-05
2.73183e-05
2.692e-05
3.15066e-05
3.69985e-05
2.9105e-05
3.70727e-05
4.87587e-05
4.14279e-05
4.18167e-05
4.80938e-05
9.43009e-05
0.000198585
0.00019203
0.000190908
0.000203954
2.44615e-05
1.22147e-05
4.14277e-06
5.36082e-06
8.32617e-06
9.24843e-06
2.35649e-05
3.15226e-05
1.45314e-05
2.04256e-05
2.78178e-05
2.1984e-05
2.00505e-05
1.95069e-05
1.84515e-05
2.01837e-05
2.04929e-05
1.92066e-05
1.90993e-05
1.66909e-05
1.03523e-05
9.49726e-06
9.18252e-06
7.14271e-06
1.33081e-05
2.05154e-05
1.95296e-05
3.42678e-05
3.96449e-05
4.07293e-05
8.32501e-05
5.06406e-05
2.56872e-05
3.2467e-05
2.97532e-05
1.62288e-05
2.24713e-05
3.19386e-05
4.60189e-05
5.09221e-05
5.58884e-05
5.63633e-05
5.30453e-05
5.09917e-05
5.09312e-05
4.57641e-05
5.73393e-05
7.95329e-05
9.12568e-05
8.9168e-05
5.37167e-05
4.05673e-05
1.3481e-05
2.45371e-06
3.19538e-06
1.03345e-05
1.34571e-05
1.68484e-05
9.49304e-06
2.25826e-06
1.95523e-05
2.01781e-05
9.30132e-06
3.41731e-05
5.61828e-05
6.21725e-05
0.000113197
0.000139509
0.000155746
0.00016245
0.000155087
0.000145646
0.000148597
0.000145136
0.000133568
0.000109484
7.83897e-05
4.10863e-05
3.68201e-05
3.78358e-05
4.75346e-05
5.28535e-05
4.36517e-05
1.51597e-05
9.05682e-06
6.78883e-06
6.0482e-06
7.42232e-06
6.86652e-06
6.67226e-06
8.95808e-06
5.09779e-06
3.69465e-06
7.48245e-06
1.1233e-05
1.2287e-05
1.28508e-05
2.56439e-05
1.98324e-05
5.2448e-05
8.11515e-05
0.000100358
0.000110359
0.00012176
0.000116019
0.000114428
0.000107346
8.7023e-05
4.24534e-05
3.24784e-05
1.79169e-05
7.68086e-06
3.69959e-06
4.75526e-06
5.38565e-06
4.29682e-06
1.77761e-06
2.31688e-06
2.17673e-06
5.82648e-06
3.49928e-06
4.84779e-06
3.48344e-06
1.48676e-06
1.70806e-06
1.56782e-06
2.69638e-06
3.48738e-06
4.0698e-06
3.09263e-06
2.86498e-06
4.49925e-06
5.19061e-06
5.50774e-06
4.48269e-06
3.07986e-06
1.638e-06
1.55034e-06
1.6985e-06
2.13191e-06
4.94456e-06
8.3148e-06
1.98971e-05
2.18876e-05
2.12154e-05
1.21094e-05
4.13735e-06
3.60528e-06
4.43941e-06
1.82668e-05
1.08533e-05
1.00516e-06
6.99266e-07
9.62037e-06
2.69094e-06
3.17254e-07
4.12724e-07
5.311e-07
4.21944e-07
6.2137e-07
4.44744e-07
7.19667e-07
7.52315e-07
5.7546e-07
3.59941e-07
5.74773e-07
1.93446e-07
2.50942e-07
3.07197e-07
2.92034e-07
1.09711e-07
1.01648e-07
1.05145e-07
2.6149e-07
3.30914e-06
6.42108e-06
2.56513e-06
2.05227e-06
3.9695e-05
2.72225e-05
0.000782358
0.000809275
0.000643376
0.000681977
0.000826328
0.000970199
0.00104458
0.00104877
0.000913085
0.000775325
0.000806899
0.000830402
0.000765981
0.000809181
0.000252589
0.000327768
0.000416915
0.000408064
0.000424591
0.000466957
0.000473572
0.000441863
0.000442671
0.000468696
0.000498867
0.000519207
0.000503286
0.000519391
0.000537366
0.000584457
0.000607882
0.0006584
0.000658792
0.000681351
0.000668885
0.000671575
0.000641573
0.000585056
0.000499466
0.000399348
0.000320414
0.000261235
0.00021723
0.00018382
0.000143497
0.000138926
0.000208959
0.000297968
0.000299232
0.000215884
0.000195976
0.000285447
0.000366914
0.000410903
0.000416595
0.000395506
0.000380538
0.000362439
0.00034662
0.000341117
0.000329151
0.000321179
0.000297902
0.00029169
0.000274968
0.000284014
0.0002896
0.000327935
0.000352499
0.000356414
0.000307167
0.000238698
0.000190601
0.000223629
0.00013633
6.61898e-05
3.79188e-05
4.93846e-05
9.55913e-05
0.000151227
0.000123866
0.000111816
0.000116017
0.000129976
0.000148818
0.000178049
0.000199562
0.000217782
0.000224729
0.00022679
0.000241365
0.000236036
0.000235027
0.000238237
0.000218265
0.000205588
0.000202488
0.000195454
0.000173433
0.000124164
7.40335e-05
6.33868e-05
9.16363e-05
0.000160482
2.6109e-05
0.000113953
0.000215216
0.000247469
0.000260702
0.000272564
0.000282738
0.000280369
0.000292382
0.000291602
0.000288284
0.000289548
0.000300065
0.000303052
0.000316186
0.000317149
0.000338976
0.000332783
0.000345909
0.00032717
0.000312686
0.000259558
0.000187458
0.000120032
6.75909e-05
7.43081e-05
8.60001e-05
8.12964e-05
0.000125939
0.000206603
2.63691e-05
1.30234e-05
1.95867e-05
3.00531e-05
3.32389e-05
3.20081e-05
2.9074e-05
2.68317e-05
2.51414e-05
3.29746e-05
3.85654e-05
4.02645e-05
3.2328e-05
3.14371e-05
2.658e-05
3.01351e-05
2.89168e-05
3.14957e-05
2.47062e-05
2.47322e-05
2.50451e-05
2.24015e-05
2.48337e-05
2.23324e-05
2.06111e-05
1.63994e-05
1.41322e-05
1.22458e-05
1.37492e-05
2.44352e-05
2.19674e-05
4.7039e-05
3.68407e-05
1.31507e-05
8.37635e-06
2.47982e-05
8.55358e-05
9.97894e-05
8.62454e-05
9.19703e-05
8.93273e-05
6.04716e-05
3.14605e-05
1.08027e-05
1.48676e-05
1.32497e-05
1.40243e-05
1.67088e-05
1.57369e-05
3.17222e-05
4.74581e-05
4.8589e-05
4.25557e-05
3.68425e-05
3.68691e-05
3.60228e-05
0.000166495
0.000184081
0.000180124
0.000202387
1.4927e-05
5.81277e-06
3.45094e-06
6.95647e-06
1.24974e-05
2.75347e-05
3.27229e-05
3.10103e-05
2.54732e-05
1.79815e-05
1.00772e-05
9.48886e-06
7.59792e-06
6.42477e-06
6.6979e-06
7.09304e-06
8.84501e-06
1.00918e-05
1.39037e-05
1.7208e-05
1.65344e-05
1.003e-05
9.29608e-06
9.27412e-06
8.81963e-06
1.60655e-05
8.72196e-06
2.5913e-05
3.53139e-05
3.95995e-05
5.42643e-05
1.74934e-05
3.24645e-05
2.80057e-05
2.85498e-05
2.94216e-05
5.20622e-05
5.8196e-05
0.00011112
0.000144437
0.000165987
0.00016788
0.000162976
0.00013584
0.000112701
8.1354e-05
6.4713e-05
7.25301e-05
8.70928e-05
0.000105319
8.0301e-05
3.21812e-05
1.59579e-05
7.20217e-06
4.34006e-06
8.15839e-06
1.00523e-05
2.10162e-05
1.38978e-05
4.26927e-06
1.48967e-05
2.16177e-05
1.90571e-05
4.07e-05
6.17295e-05
8.9133e-05
0.000128223
0.000156024
0.000161364
0.000163021
0.000155592
0.000157956
0.000156437
0.000152053
0.000156815
0.000154208
0.000134731
9.20121e-05
4.2022e-05
3.96288e-05
4.18021e-05
3.82546e-05
5.62046e-05
4.4596e-05
1.68185e-05
6.64755e-06
3.9648e-06
4.8981e-06
5.09048e-06
4.60414e-06
4.60184e-06
2.00413e-06
5.27143e-06
9.61171e-06
1.14376e-05
1.16065e-05
2.86572e-05
3.58916e-05
8.90056e-05
0.00014156
0.000177825
0.000180167
0.000180691
0.000180088
0.000184327
0.000190602
0.000187059
0.000152644
0.000110206
3.33638e-05
2.25273e-05
7.31282e-06
3.70167e-06
2.61686e-06
4.99349e-06
4.60458e-06
2.12794e-06
2.08969e-06
2.52065e-06
5.41446e-06
3.29807e-06
3.78171e-06
2.15302e-06
1.98712e-06
1.3208e-06
3.03693e-06
4.4759e-06
5.15859e-06
5.59086e-06
3.28041e-06
4.15304e-06
4.72228e-06
5.61896e-06
6.84491e-06
7.17342e-06
4.69883e-06
2.15025e-06
1.54431e-06
8.22496e-07
3.1223e-06
5.98454e-06
7.0561e-05
0.000137931
0.000114079
7.36595e-05
2.31294e-05
7.5611e-06
3.52266e-06
4.13336e-06
1.17761e-05
1.33917e-06
3.5025e-07
8.25207e-07
1.7554e-06
6.77196e-07
4.06687e-07
4.92792e-07
6.65822e-07
4.98501e-07
9.11149e-07
1.30359e-06
1.7059e-06
1.04041e-06
1.41959e-06
1.10252e-06
5.81325e-07
5.71449e-07
4.55818e-07
1.34283e-07
3.36848e-07
1.18608e-07
7.88955e-08
9.29642e-08
2.67007e-07
3.16613e-06
7.2327e-06
3.50955e-06
2.63662e-06
8.26369e-05
2.54105e-05
0.00081289
0.000761532
0.000654365
0.000728452
0.000813783
0.00089005
0.0010116
0.00107723
0.00104263
0.000883244
0.000835267
0.000838835
0.000793886
0.000814213
0.000259511
0.000349997
0.000408472
0.000358409
0.000385142
0.00047129
0.000516915
0.000471325
0.000449043
0.000473473
0.000493034
0.000503088
0.000485344
0.000523934
0.000555624
0.000634218
0.000679177
0.000728361
0.000730422
0.000731247
0.000719338
0.00070496
0.000686731
0.000633266
0.000559462
0.000443514
0.000348666
0.000280344
0.000223772
0.000190948
0.000150433
0.000135039
0.000174812
0.000255723
0.000209746
8.9067e-05
9.21921e-05
0.00023456
0.000353729
0.000412781
0.000413029
0.000386925
0.00037368
0.000351762
0.000344939
0.000338414
0.000329348
0.000292669
0.00026756
0.000269433
0.000262728
0.000268757
0.000271563
0.000311062
0.000347852
0.000365232
0.000337449
0.000264533
0.000208389
0.000232309
0.000137261
5.92334e-05
1.91294e-05
4.34127e-05
0.00011009
0.000147018
0.000132107
0.000120961
0.000128957
0.000152843
0.00017445
0.000197492
0.000217914
0.000237829
0.000236513
0.00024906
0.000249771
0.000263627
0.000260244
0.000261756
0.000272062
0.000242686
0.000225483
0.000207555
0.000183855
0.000135398
8.4892e-05
5.46019e-05
8.32703e-05
0.000163426
3.52767e-05
0.000193819
0.000227936
0.00024995
0.000267152
0.00026597
0.000270777
0.000269241
0.000270971
0.000259453
0.000258546
0.000269296
0.00027337
0.000300239
0.000305183
0.000328964
0.000326821
0.000341858
0.00033486
0.000343247
0.000316918
0.000279823
0.000214465
0.000145198
9.13e-05
5.8602e-05
5.06249e-05
8.2379e-05
0.000116878
0.000196967
2.67513e-05
1.8221e-05
2.61747e-05
3.5589e-05
3.58731e-05
3.46598e-05
3.14907e-05
2.85624e-05
2.94978e-05
3.82741e-05
4.08404e-05
3.69775e-05
3.20299e-05
3.35956e-05
2.93283e-05
3.6077e-05
2.8956e-05
3.36964e-05
3.06447e-05
2.823e-05
2.40206e-05
2.47252e-05
2.38536e-05
2.53019e-05
2.33975e-05
1.76849e-05
1.45462e-05
1.25e-05
1.54868e-05
2.45396e-05
2.31385e-05
3.45694e-05
2.63108e-05
8.8173e-06
1.35557e-05
5.20563e-05
7.6382e-05
4.11055e-05
4.12288e-05
7.56884e-05
7.78323e-05
2.71287e-05
1.50352e-05
1.35553e-05
1.05976e-05
1.15059e-05
1.34365e-05
1.51377e-05
2.05724e-05
2.21103e-05
4.07722e-05
4.70953e-05
4.36909e-05
3.27358e-05
2.95217e-05
4.33541e-05
0.000145106
0.00018243
0.000176586
0.000198224
1.14365e-05
3.34195e-06
1.89557e-06
1.32416e-05
2.11557e-05
3.1457e-05
2.84329e-05
2.16884e-05
1.15912e-05
8.90872e-06
5.50352e-06
4.2926e-06
3.12438e-06
2.87467e-06
2.87585e-06
2.56932e-06
3.39397e-06
5.33911e-06
9.05275e-06
1.25119e-05
1.67645e-05
1.42824e-05
7.05929e-06
9.16727e-06
6.78533e-06
1.3307e-05
2.00976e-05
1.44645e-05
2.76371e-05
3.71914e-05
2.70664e-05
3.41137e-05
3.05582e-05
2.66982e-05
2.08563e-05
4.92445e-05
6.92102e-05
0.000156342
0.000211055
0.000243884
0.000258154
0.000264784
0.000258293
0.000258183
0.000226625
0.000169689
0.000129056
9.31383e-05
9.48143e-05
0.000109338
0.000100529
6.65606e-05
3.47126e-05
9.70989e-06
6.2748e-06
7.89221e-06
8.99445e-06
1.97912e-05
1.88169e-05
5.47848e-06
1.62767e-05
2.16845e-05
1.45e-05
3.31209e-05
5.77783e-05
9.30868e-05
0.000139259
0.000161186
0.000172581
0.000166123
0.000153178
0.00014654
0.00013729
0.000137007
0.00015171
0.000163905
0.000158217
0.000128539
7.87096e-05
2.83683e-05
4.0154e-05
3.49765e-05
6.04152e-05
5.84201e-05
2.32235e-05
1.13427e-05
8.62789e-06
6.35635e-06
7.92686e-06
3.69032e-06
3.38681e-06
7.27795e-06
8.13089e-06
1.0329e-05
1.28736e-05
1.83325e-05
3.69726e-05
8.44644e-05
0.000160967
0.000203226
0.000197263
0.000192508
0.000186049
0.000179949
0.000185709
0.000193978
0.000208087
0.000208667
0.000162939
8.75658e-05
3.30225e-05
1.19951e-05
5.14769e-06
2.67535e-06
2.95973e-06
2.65002e-06
2.58164e-06
2.11863e-06
1.09727e-06
4.89673e-06
3.20211e-06
3.36914e-06
2.12817e-06
1.58777e-06
3.44816e-06
5.14633e-06
6.1769e-06
7.46886e-06
7.72721e-06
7.19361e-06
5.17682e-06
4.56237e-06
4.62551e-06
6.74032e-06
8.82732e-06
5.78366e-06
3.84169e-06
1.80296e-06
1.34021e-06
2.50103e-06
9.31299e-06
9.73051e-05
0.0001853
0.000189362
0.000129645
1.86258e-05
8.15665e-06
3.84476e-06
3.88751e-06
9.3188e-06
1.2455e-06
2.31177e-07
6.12171e-07
1.01119e-06
4.97545e-07
3.97903e-07
5.6561e-07
7.18056e-07
1.07946e-06
1.33095e-06
3.23013e-06
3.67815e-06
4.48667e-06
3.05765e-06
2.20411e-06
1.38339e-06
5.56726e-07
5.25944e-07
4.39376e-07
3.78176e-07
1.8879e-07
6.28666e-08
6.78497e-08
3.26881e-07
1.91758e-06
5.89162e-06
3.81858e-06
3.41908e-06
0.000172399
2.23349e-05
0.000852326
0.000757033
0.000660182
0.000710021
0.00066853
0.00071182
0.000880923
0.000994033
0.000990986
0.000923385
0.000870395
0.000851675
0.000806761
0.0008481
0.000269909
0.000374734
0.000359072
0.000307337
0.000333646
0.000464773
0.000547993
0.000511803
0.000467606
0.000476918
0.000486299
0.000489229
0.000475306
0.000524124
0.000593139
0.000667588
0.000720749
0.000766244
0.000775756
0.000769707
0.000747263
0.000736518
0.000712638
0.000646407
0.000568055
0.000459779
0.000358052
0.000285786
0.000227777
0.000188053
0.000163008
0.000139936
0.000152592
0.000182559
0.000111513
5.01113e-05
5.56415e-05
0.000190359
0.000352914
0.000406983
0.00040564
0.000384707
0.000366108
0.000348741
0.00034587
0.000338952
0.000309554
0.000252114
0.000233577
0.000235058
0.000240783
0.000253595
0.000258759
0.000304992
0.000342657
0.000368547
0.000348207
0.000285925
0.00022295
0.000241467
0.000133212
5.21292e-05
3.08283e-05
5.06107e-05
0.000134194
0.000147285
0.000135396
0.000134913
0.000139302
0.000154122
0.000178946
0.000198788
0.000209821
0.000232282
0.000226514
0.000239186
0.000246327
0.000265495
0.000275911
0.000270678
0.000275577
0.000276056
0.000238799
0.000219011
0.000184819
0.000132861
8.50489e-05
6.04201e-05
9.15456e-05
0.000157597
4.78813e-05
0.000220626
0.000234189
0.000248034
0.000249577
0.00025062
0.000253366
0.000241762
0.000239283
0.000231225
0.000236297
0.000233294
0.00026056
0.000283755
0.000311311
0.000315921
0.00033418
0.000321508
0.000325711
0.000329453
0.000319721
0.000287697
0.000233439
0.000157644
0.000105877
6.62569e-05
6.83234e-05
8.52453e-05
0.000115972
0.000199546
2.70664e-05
2.12069e-05
3.03035e-05
3.08606e-05
3.18104e-05
3.67544e-05
1.96543e-05
2.96841e-05
3.25095e-05
3.84581e-05
4.18416e-05
4.12516e-05
3.38838e-05
3.38362e-05
2.875e-05
3.52617e-05
3.06369e-05
3.3904e-05
2.88183e-05
2.9161e-05
2.3729e-05
2.41845e-05
2.40168e-05
2.53761e-05
2.28356e-05
1.79776e-05
1.44514e-05
1.29153e-05
1.54142e-05
2.51657e-05
1.57442e-05
3.15391e-05
1.30564e-05
8.47132e-06
2.80673e-05
4.84156e-05
3.37807e-05
2.63782e-05
3.62606e-05
8.88566e-05
8.3671e-05
3.17043e-05
1.59884e-05
1.04121e-05
1.12552e-05
1.7937e-05
1.97311e-05
1.95844e-05
2.22828e-05
2.82862e-05
3.70073e-05
4.59314e-05
4.10978e-05
2.33367e-05
1.82561e-05
4.04121e-05
0.000162075
0.000172638
0.000171706
0.000188653
6.39156e-06
3.92591e-06
5.96835e-06
1.40065e-05
2.417e-05
2.78906e-05
2.40108e-05
1.3878e-05
9.2416e-06
6.49514e-06
3.82558e-06
4.04557e-06
3.2955e-06
2.47521e-06
3.39932e-06