/*--------------------------------*- C++ -*----------------------------------*\
| =========                 |                                                 |
| \\      /  F ield         | OpenFOAM: The Open Source CFD Toolbox           |
|  \\    /   O peration     | Version:  2.1.1                                 |
|   \\  /    A nd           | Web:      www.OpenFOAM.org                      |
|    \\/     M anipulation  |                                                 |
\*---------------------------------------------------------------------------*/
FoamFile
{
    version     2.0;
    format      ascii;
    class       volScalarField;
    location    "0.005350000";
    object      p;
}
// * * * * * * * * * * * * * * * * * * * * * * * * * * * * * * * * * * * * * //

dimensions      [1 -1 -2 0 0 0 0];

internalField   nonuniform List<scalar> 
12384
(
781751
778075
785735
779870
788516
783588
790455
786969
790233
789010
789048
788694
791205
789273
853699
853911
855726
858574
859682
858790
854870
853341
838846
844864
823499
832101
803837
815697
783718
797496
766099
780335
755742
767591
753012
760353
753834
756909
753083
753054
748697
748456
746470
746577
836785
835034
838009
837210
838572
839588
836123
846100
843858
853288
855386
859041
858572
854478
843508
831527
815755
807416
797346
801511
794758
812917
808343
828878
825964
842684
841422
850146
855032
857519
840115
839662
832510
825003
828462
815871
819194
806676
809958
798499
801786
791091
793403
785621
792648
783755
813912
798369
844936
840981
861390
873710
880263
882708
883290
881395
878464
877039
877656
876197
854195
855716
857563
858758
858093
856194
853147
847464
842090
839431
834977
829061
839920
827194
862677
841463
899991
897236
932209
943359
949582
948790
944384
937521
928370
918954
913055
904291
906537
902043
897713
897714
895344
892330
890902
889544
889397
887176
887665
884131
878893
880174
865741
853922
837296
841432
803298
820284
789346
804037
793539
802889
800181
808656
810713
813182
812704
812333
810636
809458
846999
849556
849534
853487
853659
854715
856262
857230
856653
854774
852432
845831
843367
830806
831965
818394
819218
830481
840347
854003
870707
878760
882198
880368
877135
870292
863816
860399
854517
856029
936699
931245
924442
918264
903827
900207
885798
882320
863378
869722
850230
856349
842197
847282
841980
844662
849126
849935
856110
863200
867703
869441
867764
863256
857075
849138
846767
837582
837132
830506
951737
952566
951714
948469
942501
933438
923243
909531
896586
878345
872648
845825
852571
825458
835099
827469
846380
842605
861110
860047
869827
868337
877788
874334
885007
881416
894778
894717
901193
904397
953530
955048
955128
954250
948587
942822
932680
920983
900837
894079
868805
872740
848687
857708
848182
862960
867667
881340
890360
895766
899424
901112
902035
902444
901739
901799
898770
894742
897087
885915
954877
953540
952297
948704
940182
927277
913279
900436
868061
865634
834084
841181
814640
838608
821532
872841
884272
908388
918540
922390
922345
921207
917389
911114
905867
897966
897820
896893
899116
897684
842291
842157
841787
841871
841948
840687
840919
838157
837222
837424
834587
835770
834681
837714
836932
841008
840515
844388
842185
850293
845222
860871
853457
877529
876014
889327
890425
895867
895955
895689
910134
910759
910479
909271
909974
910214
909495
907962
906524
902392
898868
893944
888349
884476
879487
880341
874619
874823
865602
866497
852792
856271
843645
847174
837359
841013
834722
836585
833950
833986
784057
780544
782155
781516
784662
786600
788532
788416
790676
788961
790445
791482
789843
792455
855613
855737
857440
859250
860081
858977
854603
853357
839877
844694
823703
831831
804123
814996
783887
796359
766431
779198
756511
767348
753169
760077
753745
756597
753564
754397
751015
749975
746117
744078
835330
835911
835374
836780
834284
836025
841656
837472
848413
847532
854876
856587
856145
850307
841144
827908
815067
803494
799946
793696
796830
808903
809110
822655
829678
840646
845652
850287
855207
855604
838990
840057
837785
826837
824920
819380
817301
806492
806206
799353
798023
790082
786773
785761
780779
788875
794656
808045
817758
843253
850216
860220
872801
878182
879075
877231
876155
875747
874254
873433
852099
852940
854408
855661
855495
853477
847777
845014
840562
834519
830822
831823
831254
832556
846237
853373
874968
893918
916005
931487
941377
943041
938741
931291
924111
917013
910536
904860
903166
904516
902648
898069
897364
897148
891876
889095
888738
888584
886084
885024
880191
875618
865007
856185
835860
833942
805465
810026
791335
797667
794274
792524
800162
804284
808243
810681
812410
812228
811056
810198
847770
847996
849619
849578
853405
853037
853273
853518
853767
851592
846520
841970
833597
829951
819371
820110
819068
813046
836832
851101
857918
875439
880483
880398
877110
870926
863948
860023
854288
855267
933517
929107
921979
916187
900810
900712
879818
881318
862866
863326
851853
843619
846057
836460
837988
835281
841608
848175
849166
854649
861566
865720
866995
863790
857521
850258
844657
839181
837264
833771
946812
946549
944413
940270
934626
925845
914299
901648
888555
874041
862156
845626
840314
828083
824026
831242
832007
843658
851202
856248
870142
869707
877131
875691
883757
881577
891704
895384
899518
903336
950623
951766
951233
949205
944751
936484
923627
912719
893573
884908
864750
853315
853985
837589
844239
847723
859435
873917
884430
894195
899765
902034
903012
901988
899153
895800
892115
891527
884486
887109
947222
947403
945869
940421
931027
921612
908898
886980
860262
865135
830614
821470
821496
815067
830134
851870
872097
891663
908084
918048
921922
920076
916265
907768
901232
892987
889559
891237
893526
893398
842138
842189
842439
842299
842004
841810
839453
837439
837883
836069
834852
834792
835321
836129
837930
839067
841317
841497
844371
843094
851985
848833
857807
870331
875750
881506
892613
895197
895260
896868
908619
910047
909857
909011
909205
910233
909002
906158
902208
898061
892549
887556
884249
880476
879670
875501
875047
871033
866190
864289
853728
855364
843815
846299
838431
840860
836421
836025
834503
833708
779885
783765
788555
790550
790073
790103
787496
788798
787923
789638
789980
790208
792505
790793
856895
857034
858197
860260
860810
859327
854808
854099
840756
845091
823871
831645
804575
815186
783611
796824
765481
779446
755937
766016
753883
758891
754273
755954
753930
752949
751714
751884
750406
750655
833600
833001
833799
831517
834829
831901
838318
839138
842798
849906
851477
854696
852719
846958
836855
824550
811702
801283
798310
792845
795356
807095
803957
826636
825924
842893
843478
852871
854903
858380
847813
836494
839057
833917
822850
818194
820182
806618
803276
800129
796121
784355
786812
777385
782021
774499
785680
800130
812721
818613
844211
848931
856731
867857
871944
873587
874971
873230
874312
875492
848798
850377
851451
852049
850892
847642
844992
842123
835143
831849
830791
826749
831266
827172
841850
840948
871164
873427
899376
912971
922738
926509
925846
921956
917841
912372
909222
904125
905579
904665
899184
899784
895400
891906
896900
890697
889863
890026
888334
884163
880362
875946
857660
861542
823855
837343
796271
810519
786474
795527
789518
794737
795141
798381
804215
807413
808912
810039
810195
810388
842379
844542
845336
847480
848623
852306
853029
852501
850104
845801
841163
833434
828358
818223
815779
804398
808807
811591
815160
841971
854420
863318
875453
876998
873776
869289
863838
858057
854957
853206
931529
924491
922057
912076
903177
896100
878599
877950
858187
862330
842875
846581
833586
834880
833020
829519
826019
835074
844516
847161
851933
857899
860289
859467
856312
850407
845807
841111
837465
832752
940080
939221
936219
931446
924488
915348
904948
892311
880169
864270
853912
837739
830476
822377
824553
821400
827774
838699
840992
854784
857456
868466
873439
873096
881916
880906
889818
893957
900090
901562
947709
948237
947349
944586
937927
927662
914355
900178
880878
869176
852005
851165
828931
835874
834968
841311
850755
865733
876867
887317
894937
898334
898753
898220
896463
891415
888136
883747
886060
879499
942238
941086
936693
929693
923911
915061
891958
875886
865846
850161
812902
823645
801600
813637
817501
835907
854885
874719
890516
903076
909303
911117
907302
902014
895259
889417
889124
886897
888654
889792
841898
841903
842150
842118
842026
840894
837656
838468
836071
834394
835345
835320
834459
836841
836648
839764
839658
842125
844511
842029
847404
852031
857380
858656
879063
877879
885164
892742
893986
894314
908951
908557
907728
907867
907794
905688
903668
899788
895539
890224
885743
882332
878422
877433
872762
874168
870112
870497
863997
864943
853232
856290
844169
847761
839125
840810
837231
838357
836078
836641
792113
787692
785894
785761
786997
787816
791554
792182
794310
794134
793002
795604
795602
794985
857988
858266
860005
860558
860703
859806
854664
854980
842492
844752
826034
831157
805055
815157
784084
795646
766286
776885
757252
764382
754351
758406
754285
755303
755319
756298
753248
752941
749661
749496
828432
829626
827989
830484
829086
833841
830593
839070
842243
843953
850788
849753
847701
841577
830086
820807
804964
801782
788779
790406
796975
795548
810141
818499
832803
839682
847012
852917
856142
857720
845647
845954
836808
837934
832111
817061
816382
814141
802589
794762
791216
785480
775773
773913
765323
776308
769376
780243
800800
810073
816659
840892
847063
852493
861117
865141
864916
866501
869642
871152
847193
847653
847916
846531
843638
841774
839527
833981
830841
830621
826661
825419
819596
827819
822702
840758
841954
869093
872765
894204
903690
906949
909431
910335
908478
907757
905270
905566
904022
903591
908399
905151
905470
903268
895414
899499
892538
889698
888404
887618
876443
877958
854071
857084
820315
832505
793189
801437
786468
784082
782106
783149
790362
794715
797647
801917
805121
807130
808070
809234
843548
840761
843498
845779
846502
845540
846537
844954
841924
838202
832551
826127
818464
812468
803715
805638
800803
811729
805227
819205
851463
855410
863593
871684
870369
867312
861242
858316
853213
850356
924669
924551
915549
912132
898666
893570
873942
873461
857588
848001
847706
832648
834678
825887
820552
825684
824056
816782
825200
838830
843564
848820
853637
855907
854197
851568
848224
845240
842982
843094
927581
926028
924092
920415
912725
902517
891461
880216
865897
853839
841193
827874
820761
818599
809981
819626
820908
828101
836720
847237
853705
862289
866746
876047
874824
882912
888028
893090
898116
901916
942503
943515
942461
936899
927384
916458
899816
885198
866423
851793
840907
816217
819992
814819
818744
826523
842737
854312
866249
880409
888630
894267
896743
895974
891137
888355
880751
878252
873347
872814
930042
928164
926085
922956
913443
893224
876547
875726
848016
820822
817782
808573
800873
793745
809711
816824
834518
853497
872235
886716
896742
899713
898015
893086
886567
880670
876213
878212
881403
883508
841323
841639
841923
842188
840943
837632
837620
834629
831821
833396
833151
833166
835561
834596
838086
837777
841662
840140
843065
844351
845804
846035
861567
852382
873513
877449
880099
887053
892730
892654
906517
907758
907812
905499
903507
902398
898651
893648
887363
881176
876481
868596
871369
866517
868681
864967
868029
864728
865978
861237
857863
854273
848105
846399
843600
842499
837809
837604
836729
835342
787667
792970
793835
796387
791696
793074
790805
790715
790073
791077
796181
794076
793795
798629
857068
859348
860107
861438
861090
860293
855537
855509
843699
845900
825598
832981
805896
814059
784453
795911
765865
778259
756300
765142
754459
758690
755118
757353
754977
755842
757188
754227
756182
751428
827566
824616
827540
821501
824903
826880
832927
831467
839052
844677
843453
848108
842237
835228
825337
814919
801065
798980
783342
789314
786949
803745
804803
820699
831254
841885
846859
853467
854619
857488
849848
846202
845469
834664
834474
829101
813005
811861
809563
794654
784937
780681
772739
764850
765938
754574
771435
765354
775812
800090
805145
811192
832792
842828
851983
862263
865763
867971
868420
867724
845606
846927
845597
841495
838579
835031
829957
827839
828531
823857
818275
814490
819615
812280
823521
817756
837104
835989
859742
864609
881856
895656
897146
897802
898740
897741
901554
900898
902349
905257
907925
903725
902847
901356
904070
896792
900400
893579
887981
888106
874874
877213
847915
857445
816454
829697
785008
803680
771064
781653
778217
780246
784753
786205
793663
796006
801605
804181
806131
807538
832933
834418
834166
839835
841234
844044
844605
843967
838366
832176
825132
818728
810931
801647
798217
785387
785669
789093
809708
802759
834651
851248
857653
862998
866892
862822
862049
856222
852160
853746
924075
916203
916675
904712
896102
888298
867953
871468
846648
851927
829234
833043
815338
807802
811019
806328
815698
821869
814421
821590
834319
842180
847504
850886
852897
852080
849081
844257
843706
840288
921109
917293
911366
903686
896041
886884
876591
863955
853143
840949
827250
820100
810513
800239
806995
804968
812496
826576
824667
845543
844309
860611
860841
872785
875772
879224
888900
893663
897812
901440
934038
933318
931004
926217
917330
903094
884394
869830
847123
833719
813183
819303
813219
807110
802523
818669
828648
838453
859631
871576
881317
886892
889491
888253
887627
883659
878930
875111
877413
875161
922615
917000
915315
909558
893053
877391
874311
851955
820415
825770
805052
780341
763868
771357
780113
801822
816376
831868
849124
865477
876970
883094
884259
882031
879040
875892
876142
874000
875382
875977
840975
841040
841788
840516
836828
836194
833328
828832
830956
828579
827261
829877
833248
834335
838035
838845
840797
845249
847612
842685
848015
846580
856770
856670
865375
875523
881111
882473
890074
892285
905613
903962
903416
903190
901199
898537
893516
885086
876872
869919
863612
865823
857198
858781
855668
860696
859037
864799
862804
862350
858089
856343
850214
850658
843296
845679
842945
840173
840365
840427
794416
793754
797694
792631
798308
797726
796573
800538
798992
801006
797285
799705
803793
797482
856699
859308
860799
862724
862512
860844
856821
856808
844057
848469
826241
833639
805550
815433
784063
796317
767415
777826
758930
763589
759029
757992
755724
757880
759668
757639
757950
759337
755675
760802
816134
817234
816190
821965
818809
819033
825008
833531
831561
839712
842742
838824
839106
828263
822397
808453
801913
791434
786231
787290
787306
805269
806241
821546
833227
841161
848339
850790
854276
853479
850581
847432
846332
843670
830907
830847
826347
810109
805038
804277
785723
773172
772046
764859
752000
756501
748306
768369
763337
775461
801433
804624
816778
835500
840951
846872
853701
856162
857196
861109
835897
837006
834951
833651
831815
826537
824922
826063
820891
816129
813428
815516
805632
813143
803251
819079
814657
831073
836023
850228
852872
860970
875950
885285
889939
896040
896765
898304
902451
902867
914126
916856
914396
914089
908883
907068
898153
900470
889760
888615
872110
877688
844273
857295
814148
828227
781973
798615
766149
782421
771937
775155
782210
782046
791186
791110
797098
802965
802934
807022
836386
835427
837313
836227
838520
837011
832781
831180
828178
823366
819006
811570
805736
796771
793788
786181
788666
775953
805336
800452
819277
841547
855152
854450
860080
863380
861248
858417
857332
854691
917245
917536
908656
905403
890082
886419
868789
860837
847904
837519
825568
815514
807213
809999
795162
788500
789072
803398
816665
820216
823963
834562
841295
848182
851501
853266
852762
853375
851990
852281
912949
907906
901961
894712
886841
876600
864041
853392
841249
825892
817076
806293
797020
804938
800067
798209
811546
815740
825428
837477
839665
860925
857289
873431
871111
885367
884591
895063
896450
900425
934502
930008
925375
917280
904685
888460
871183
852898
831974
816516
804307
792033
779099
781429
801457
807344
813897
833996
851212
861799
872064
882968
887438
888349
883697
881562
880935
873422
875325
872383
919040
918193
909337
891652
881931
872938
853048
827351
822135
810980
768967
765367
762608
754332
766141
769420
793993
813146
834242
852038
867220
875779
878193
875479
869779
864518
862782
864698
866095
866898
841129
839206
837595
834676
834630
832903
827399
828750
826248
823653
827930
824420
831622
836000
836747
842845
843343
847140
844121
850991
850588
847244
856901
861307
860587
873634
881910
883220
887788
891670
903478
904861
903185
899773
897006
891477
885758
876874
869173
861366
856509
842883
846530
842316
848449
847755
858654
859498
863194
864342
863432
857292
854012
852401
849302
844318
845723
843257
841226
840683
809920
803999
796632
803252
795521
796861
796816
795724
798582
798436
801070
804202
801412
804701
852067
857029
858362
861994
862420
862693
860710
856996
848190
847939
828627
833411
808412
813384
787687
793960
771024
775978
764349
764546
758700
762493
761334
757948
760428
761141
758910
758515
761230
757878
818492
817941
816981
811410
818343
820304
817986
825124
833871
831728
838400
837995
831529
825557
816551
805058
804406
787852
791322
793027
789522
807130
804790
828021
828712
843345
844767
849826
849554
852216
849703
848202
844681
845291
839753
828015
827199
824387
805645
800318
795248
779279
762727
767356
751455
748031
752195
753102
767751
763011
780842
804137
798947
823697
834017
845247
854047
858968
859422
856080
836983
836837
833313
828174
822237
821913
823816
817370
814765
813487
812257
802508
807576
798166
805856
797123
811631
804928
819959
835812
849533
863130
870690
870827
879211
883710
889531
896207
899801
903473
919568
916809
915500
912753
911931
910914
906975
898581
894577
890150
871866
877630
846520
857552
813362
831676
779593
800275
764030
780561
767196
769147
776773
778593
785733
792524
793987
800558
805022
804791
823340
824156
826991
829384
827961
832172
835038
830470
824343
819969
812827
807152
803960
793648
789157
777290
778509
775178
795917
805437
807845
835593
851551
854163
859108
860908
858450
856279
854746
857706
915437
909362
909732
896015
893889
878866
859876
862583
832646
839913
809703
820982
792498
786093
788682
794759
788369
787681
794118
812070
820843
829508
836404
844790
850879
854180
855900
855223
855968
855600
898805
897179
893187
883169
870877
860312
853487
841445
828004
820016
808875
797760
792494
781480
787318
787879
805508
818200
814953
841163
836712
859854
857738
873824
873501
884790
890719
892569
898140
900953
915412
913871
909916
901614
890882
874184
854364
838014
816861
806374
785440
775722
778796
786222
782440
795640
806036
835658
834255
853930
867191
877300
880194
883228
884426
883354
881562
876515
875392
877167
910097
901998
896172
891590
871880
854033
841669
829921
802374
784885
759723
767031
747941
755157
762708
773488
781128
798973
815827
836314
849108
856809
860305
862306
864839
866150
865217
862492
864397
867955
836911
835417
832859
833778
832293
823316
819970
811807
808531
814375
821117
823153
833876
832995
843356
843164
851700
847003
855842
854427
849014
860628
854389
861368
865066
872632
882336
882688
888463
893024
900339
899433
899086
897835
893149
887884
880308
868685
861417
852838
839090
845490
835967
841605
839287
847183
853907
857757
863688
863074
862812
864033
856840
853350
853292
850244
845380
846718
845409
843557
801235
807281
812515
804427
809150
808249
807215
809254
804199
805090
808474
803326
809938
799365
861450
861193
864175
864732
865360
864346
861709
860359
849774
849961
830444
835071
807084
817851
787253
798661
772836
780673
765293
769804
765057
760585
765064
764902
761927
764501
765311
765152
762799
767382
803162
806822
809905
813388
808346
814268
819892
819407
825387
833950
830372
834576
828530
826963
812346
813858
800779
799035
798815
794648
796834
808591
812187
826115
832609
842339
846372
847727
848788
846362
845250
844340
845825
841587
839832
839092
825739
823940
822406
803829
797739
785072
774503
764409
760893
760993
747702
755369
763460
766584
766587
802031
795906
815095
830144
840334
842015
841467
838670
838562
842979
839363
832357
824800
822058
820992
814805
815454
815470
811087
805056
805839
796180
800462
792388
800542
795801
811518
808243
816871
836289
839284
855970
867487
879236
880431
886955
893457
899236
902317
924960
924905
925685
924909
920420
914887
909077
906937
891207
895680
873377
877940
850231
857356
817004
832152
782621
804088
763823
781686
769004
770613
776560
779308
785255
790090
795889
800096
804871
805988
828334
828801
828285
830364
830715
824021
821803
821484
819659
815146
810770
806169
804880
792553
790239
778388
783629
772348
795607
809468
805230
832172
852533
851672
859020
865982
866883
865606
868541
869252
913612
913713
906448
897924
888156
876762
858596
854062
835370
826997
812238
804929
787332
793931
779319
779108
786876
793020
795545
804942
812157
826525
836786
843499
851275
856011
859549
862314
861142
861234
903063
892998
884069
875152
864618
855962
847241
833051
826207
813703
804285
790738
787582
788298
793097
790979
803495
813897
815792
842940
841505
859762
866295
873856
880669
887115
890329
892198
890033
897367
922232
911258
903722
890537
876284
859560
840751
826166
803234
789687
774835
775770
769322
770350
772735
795448
802682
820467
829959
851881
862175
871047
879592
883712
885773
884418
881418
877204
873434
867168
924610
909392
895247
880699
862400
850305
829111
823405
782617
792615
752649
751017
730948
727428
739311
761726
762470
794051
804118
826552
839604
855841
864093
864934
860155
853868
850374
851813
853206
855811
833776
834688
835665
829782
816524
809429
805459
799018
803088
799099
812669
818301
829625
839562
843001
853826
851516
859100
861192
855086
866895
857008
862629
871690
874208
874973
885402
887730
891274
890875
899899
901531
898634
895483
891105
885234
875560
866789
851697
849567
835738
831858
832352
827927
836508
842715
853229
857096
863331
869934
866722
864542
865855
857125
852709
853586
850927
846806
847874
847263
821636
814187
808276
811573
807397
807204
806273
805702
809232
812640
807962
814320
810988
809550
805421
778101
822786
848830
857735
863389
865544
865566
864108
861397
853251
852735
835063
836308
812969
816831
791441
800298
776051
785469
772081
770480
770317
769798
764438
768835
767235
764179
764915
765319
767339
766584
779527
770377
800661
802108
801295
804565
808954
808324
810869
821752
820220
826565
833174
828961
830574
821750
819744
809720
802232
798321
795636
800444
804017
811684
815808
828023
832664
841275
842566
843129
838184
838022
820928
824545
842135
844446
843504
843627
838671
839316
836320
827161
819857
821442
800873
799256
792388
771919
771493
763570
759631
750350
756757
764421
769782
796827
793028
818082
824380
837800
844066
849084
845043
839700
817729
806163
817320
817101
815986
815525
813651
810973
812493
814234
811439
809268
804692
804367
794658
796877
794173
788666
793841
799574
796784
818028
824967
838835
847795
866083
864428
879723
879957
886249
895824
897212
910111
904829
927180
929178
930252
929025
926423
921982
913094
909069
894744
896129
874215
880738
851998
860012
824452
830941
790756
806453
768054
781695
771258
774332
774259
785488
784853
791906
797466
800826
801138
804640
799104
784181
809983
816564
819226
819942
823608
826864
824293
820197
817089
813854
810070
808906
804517
795944
794099
786333
780883
781251
800818
809343
811183
836704
852066
855581
865680
868147
868109
872289
873511
882478
886693
882698
905727
900358
897705
891895
881949
871737
858572
847193
839437
816341
812555
802227
786986
783213
774056
774953
777409
780189
800770
799658
817364
820596
841079
840648
853044
858515
864623
866823
871164
873488
877188
887654
886264
881459
876605
868541
860984
854078
843161
832490
826433
811815
807581
790298
789427
779519
780013
789717
811457
822925
823025
846889
847981
864655
870979
880343
886290
892511
895089
895685
893816
892002
885148
881389
884671
882353
873963
872796
861401
848608
828767
819581
791926
791088
769846
770220
761702
772042
769935
798269
792965
813908
829577
850623
855761
869900
879729
886512
890413
894362
893042
893095
885712
882443
877224
885252
888908
887172
881602
870851
858230
846186
819818
820632
781446
787365
741939
755824
726265
734200
732639
766914
754638
789420
800089
821975
832539
846714
849211
850283
851806
851965
852237
848081
846954
846508
839733
828628
835688
831742
827769
817068
814826
813657
804414
804939
802756
797292
816469
810495
834012
837684
854305
851853
858450
866666
861004
874081
867351
872354
872924
871622
871631
882909
886742
890921
892289
897489
894202
897949
896466
897487
898347
895425
889626
883734
873717
864950
848256
847623
832806
831406
831433
830844
831357
846380
851623
859052
868863
869534
871504
867089
864511
865394
857783
852324
854431
851811
848561
850118
848796
848665
815348
819885
823716
819979
821718
818001
817729
818276
816581
813971
818649
819621
824405
820308
828785
823521
843778
853175
859574
864401
866294
867005
864334
862067
854657
854608
837823
840962
817972
819321
800678
797862
788726
784254
775848
780708
770282
774147
772318
767965
770903
769194
766555
765372
772366
770417
779199
780408
791182
795451
802091
801070
802789
810795
806990
816064
821828
822797
827407
831594
828192
826788
822449
817843
818399
809114
805437
808596
805326
820881
820802
825481
837365
838413
841504
840575
838229
835802
828924
824755
838810
842217
842783
841950
841804
837555
836887
834189
827581
823255
820594
799522
791307
793736
777576
780428
779560
775697
765411
763986
783650
789782
796423
817759
824739
832452
837731
832251
830053
821542
819896
805821
813800
808536
809221
808844
809076
811962
813610
813152
810193
810599
802943
804367
793871
797496
791138
791516
794391
793454
801717
817894
816530
839209
841951
859364
861752
872271
871759
888084
888047
903319
909866
913171
933578
933896
935050
934737
931292
927983
916751
912872
898319
896553
878656
879222
854776
862462
826898
836528
800234
808163
777643
789589
775495
776997
786040
783311
792760
794363
801708
806645
811013
809794
805212
802714
814089
814551
820040
821419
816331
816233
817306
817840
815426
814475
812619
809129
807699
801454
797807
788597
792030
788553
811572
807365
829808
840309
852827
864104
870490
873635
881509
883168
886557
892035
893555
893597
899204
897563
894317
887614
879325
867393
860264
845242
836976
818265
811182
804774
784364
789123
779654
778471
785006
781496
805455
801675
818217
826488
842736
843820
858734
861334
867677
870750
872446
874005
876014
879937
879295
878210
873462
866452
863231
854958
849018
836955
830333
825487
810291
812846
804636
806842
814019
818646
814848
821020
839974
855285
863132
873252
880037
887046
891424
893574
893676
890184
887133
885980
875113
867099
877207
875216
877895
861265
853199
841752
823138
818020
786445
791673
769003
773787
764516
775079
772310
796132
789780
822445
828098
846107
854692
872435
879502
887200
891965
893379
891380
889264
879278
877379
873734
878021
884441
880782
876718
870564
857512
843235
823774
821905
780188
789717
750133
755420
746433
735285
752671
762510
765095
779960
809100
814566
832999
839356
851263
854135
851821
848608
845304
840858
836483
834272
838648
825425
833500
826483
824916
821980
813340
802970
792999
790196
791646
787293
809793
819250
831413
850851
852160
861884
872500
866524
879876
873552
875121
878141
883159
885336
893449
892782
894026
896116
899127
896928
895800
897147
897565
899625
897975
897378
889253
886581
870787
871199
849474
854305
833628
830957
825191
830138
835662
847504
855131
865909
867889
871614
876322
875727
868460
863495
865227
856434
853182
854479
852371
851765
850638
852035
833211
828651
823560
823703
819447
819929
817217
816401
817087
819655
823230
823738
825346
830073
834247
840571
851521
856421
861025
864275
866455
867050
865842
862601
857977
853276
842381
843141
821566
826864
804290
807055
790015
794283
783344
781808
782302
774373
776886
774367
770607
771762
769852
770220
768866
776216
772370
782858
787753
795888
795314
801705
800561
802499
808221
812130
818555
822172
827023
829564
830936
830532
823446
823986
817853
818800
816427
814200
812571
823778
824086
827739
836100
839836
839995
839781
834201
834264
824249
824919
837504
841323
840567
841174
839319
840569
837223
838885
835763
827716
825089
823843
809023
800467
805134
784801
781983
778055
777519
785520
780199
798283
799200
817666
823336
831522
831341
833914
824960
825035
806864
810483
806697
804724
804317
805094
808591
809739
811667
812832
811939
809772
803132
805073
794178
797505
792697
792394
798431
791104
801817
819743
810603
838916
837686
849281
858311
864739
866708
882520
879845
902959
903258
913325
928393
935601
936785
936404
934268
932258
919426
919145
898904
902405
877049
886418
854071
864599
830120
840205
802835
811201
789711
789613
788738
789194
784534
793839
793527
801885
805337
808585
809489
810518
806453
806849
813377
812426
812619
813850
818618
818339
819736
818791
817763
816020
816283
814795
809987
803812
801680
802383
799460
807213
815159
815934
837876
847841
860950
871158
878574
885036
886176
890320
894508
901139
893896
893736
898495
892529
890125
883690
875945
867426
861239
842424
842809
818600
820061
800322
794702
791300
778223
784282
781540
799659
807517
806785
828204
833391
846419
851663
861179
866010
869926
872084
873744
874199
874277
876858
876698
874781
872630
871120
865188
859498
856065
847073
837899
826777
826723
806709
811685
811985
811686
818510
833973
846400
853042
859421
870068
880068
886434
891292
892315
894078
892112
889519
881777
876652
862588
863409
854061
854574
849018
854114
846952
838377
825693
818072
794419
790631
775659
776492
772776
777266
777170
793626
795604
827383
822980
848893
858072
870629
880431
887452
891744
893034
890582
888120
875386
879530
868523
873251
878422
876151
874865
869123
858567
846518
832643
819712
785113
791066
755071
763850
742360
756932
754466
768139
773212
791083
808240
816773
829473
840587
841493
840879
841394
839383
839195
839530
839268
833991
830913
827247
832747
827907
827376
822800
811158
804171
792916
793386
795730
793185
808244
824077
840465
849920
861681
874229
871248
883196
880809
883496
888379
889151
886091
891239
891194
896366
897704
900760
899002
900958
897377
901163
898211
899759