/*--------------------------------*- C++ -*----------------------------------*\
| =========                 |                                                 |
| \\      /  F ield         | OpenFOAM: The Open Source CFD Toolbox           |
|  \\    /   O peration     | Version:  2.1.1                                 |
|   \\  /    A nd           | Web:      www.OpenFOAM.org                      |
|    \\/     M anipulation  |                                                 |
\*---------------------------------------------------------------------------*/
FoamFile
{
    version     2.0;
    format      ascii;
    class       volScalarField;
    location    "0.005350000";
    object      rhoUnburned;
}
// * * * * * * * * * * * * * * * * * * * * * * * * * * * * * * * * * * * * * //

dimensions      [1 -3 0 0 0 0 0];

internalField   nonuniform List<scalar> 
12384
(
2.064
2.22233
2.36286
2.43969
2.47507
2.48272
2.47443
2.45757
2.42726
2.37278
2.27291
2.0467
1.77687
2.34199
4.37615
4.73682
4.99497
4.91415
4.70292
4.53349
4.44611
4.42067
4.39926
4.40539
4.35506
4.30238
4.30182
4.1715
4.25312
4.14662
4.26108
4.22098
4.35193
4.36403
4.46278
4.51988
4.61419
4.7213
4.83102
4.95265
5.09664
5.1068
4.99066
4.86747
4.89817
4.87593
4.62798
4.66689
4.74254
4.73445
4.71447
4.64799
4.62677
4.55284
4.51811
4.46205
4.44498
4.40923
4.41754
4.4477
4.50434
4.53602
4.59416
4.58153
4.64294
4.58918
4.64426
4.6106
4.64165
4.56512
4.44975
4.42177
4.40976
4.34362
5.47138
5.48345
4.76098
4.50718
4.46621
4.50635
4.53297
4.63012
4.71259
4.82733
4.88246
4.97535
4.99308
5.06549
4.97535
5.09899
4.82368
4.93877
4.63515
4.64712
4.52081
4.45474
4.36788
4.31629
4.45343
4.98013
5.26646
5.14267
5.05631
5.05768
5.6329
5.40423
5.2622
5.19561
5.17494
5.18291
5.17929
5.20608
5.21614
5.21565
5.23255
5.26769
5.19947
5.29256
5.08972
5.24943
4.95512
4.99887
4.91606
4.84777
4.87329
4.76739
4.61397
4.54951
4.54023
4.41953
4.34163
4.41692
4.49197
4.54912
5.12315
4.33185
4.29753
4.40219
4.47744
4.54448
4.61989
4.70823
4.77112
4.8484
4.88685
4.91273
4.97155
5.02776
5.08473
5.06715
5.30862
5.26471
5.47315
5.45645
5.52466
5.48896
5.49281
5.35088
5.23415
5.0915
4.82049
4.52289
4.68474
5.08159
6.25439
6.25699
7.1955
7.89357
7.91852
7.93737
7.75144
7.05921
6.62291
6.39958
6.27121
6.25687
6.23896
6.32856
6.31891
6.43747
6.45281
6.35019
6.24567
6.22243
6.17482
6.258
6.26424
6.36434
6.54386
6.75363
6.77465
6.70397
6.56012
6.48979
5.5121
5.53668
5.53675
5.42664
5.32816
5.20631
5.1528
5.09827
5.1475
5.06537
5.14508
5.08083
5.14458
5.09188
5.10638
5.07833
5.03932
5.02498
4.97584
4.92717
4.90312
4.89565
4.91448
5.02253
5.11223
4.86095
4.65817
4.61455
4.56743
4.55842
5.32968
5.13031
5.05841
5.04732
5.08814
5.1354
5.19897
5.27366
5.35505
5.46229
5.49992
5.64582
5.61386
5.81751
5.80947
5.8261
5.66907
5.62519
5.57033
5.61889
5.56779
5.14029
4.84597
4.92094
4.95343
4.97523
4.92718
4.9421
4.94266
4.96241
4.54698
4.65635
4.80746
4.97174
5.09852
5.19005
5.2798
5.3699
5.49413
5.53662
5.68468
5.6701
5.85785
5.81936
5.88882
5.75222
5.7002
5.53202
5.38645
5.23757
5.07219
4.90406
4.70168
4.81667
5.15759
5.33224
5.41071
5.46874
5.45389
5.54298
6.21219
5.81255
5.62214
5.57339
5.60825
5.69079
5.78483
5.87807
6.15902
6.16334
6.48199
6.46214
6.8365
6.54487
6.78948
6.11046
5.89311
5.53009
5.295
5.14488
4.99964
5.12255
5.22314
5.23809
5.31731
5.40527
5.45071
5.48403
5.46991
5.49396
7.79551
7.38314
7.12984
7.38308
7.45935
7.3588
7.22072
7.09311
7.00478
6.88297
6.87312
6.85659
6.89339
6.88429
6.91444
6.89192
6.91783
6.87367
6.90501
6.79171
6.86355
6.65974
6.71075
6.4085
6.31837
6.13197
6.26095
6.64642
7.15228
8.49292
8.33114
8.18214
8.26813
8.39518
8.2545
8.77645
4.95062
4.00099
4.02994
4.0545
4.07851
4.13174
4.16374
4.17944
4.23222
4.23508
4.24839
4.22391
4.22058
4.20147
4.21323
4.26243
4.53739
4.99924
5.53506
5.76928
6.04556
7.16473
8.04361
8.14785
2.70822
2.75611
2.77812
2.71657
2.61926
2.54475
2.50888
2.52751
2.57008
2.58495
2.53063
2.31263
1.89033
2.15245
4.46401
4.84516
4.88055
4.53478
4.22539
4.12423
4.13621
4.17774
4.16749
4.08127
3.95486
3.79334
3.67358
3.57393
3.52112
3.49084
3.47879
3.46989
3.4919
3.55054
3.66479
3.81885
4.02022
4.25103
4.49682
4.72548
4.95533
5.08397
5.05243
4.81807
4.91153
4.78753
4.68607
4.8019
4.80273
4.71755
4.63937
4.612
4.50797
4.42281
4.29871
4.19712
4.12063
4.07818
4.09918
4.14421
4.19706
4.25588
4.28055
4.32678
4.33967
4.32894
4.4098
4.46108
4.52844
4.55122
4.48956
4.41372
4.34728
4.21116
5.53558
5.27571
4.5482
4.39618
4.43397
4.59724
4.7743
5.04524
5.23088
5.42504
5.5229
5.63275
5.6862
5.71956
5.73346
5.66841
5.5911
5.41582
5.32364
5.07269
4.9275
4.77076
4.59459
4.45358
4.42796
4.62159
4.99972
5.23536
5.2743
5.2334
5.63506
5.39991
5.26483
5.15239
5.04152
4.95209
4.85301
4.76009
4.68511
4.64513
4.59565
4.55804
4.53382
4.52523
4.49727
4.46731
4.48055
4.45198
4.50604
4.59521
4.72458
4.76859
4.73841
4.65661
4.60867
4.56317
4.53533
4.604
4.68498
4.70339
4.83155
4.32445
4.38275
4.5142
4.64286
4.74481
4.83832
4.90543
4.94858
4.94606
4.90058
4.81328
4.72314
4.63309
4.59264
4.5722
4.63216
4.67337
4.76287
4.84461
4.97019
5.12964
5.23777
5.3628
5.36169
5.28124
5.053
4.68778
4.53549
4.73331
6.23011
6.78388
7.69436
7.81299
7.22418
6.49447
5.75401
5.51111
5.5753
5.75361
6.00518
6.19762
6.39925
6.44082
6.52128
6.48171
6.4084
6.36658
6.03723
5.82456
5.76608
5.73402
5.84805
6.04677
6.41389
6.66135
6.80502
6.81358
6.74163
6.58192
5.01119
4.84719
4.75622
4.68741
4.69499
4.67576
4.74226
4.72558
4.79746
4.7818
4.84747
4.87652
4.87655
4.92895
4.92901
4.94735
4.92671
4.90411
4.92136
4.92014
4.91252
4.92357
4.92105
4.95793
5.0837
5.12605
5.1553
5.10572
4.95454
4.78169
4.776
4.8282
4.91198
4.99299
5.06992
5.14775
5.21616
5.30322
5.39423
5.50637
5.6024
5.71209
5.74704
5.84576
5.85368
5.83058
5.78762
5.68843
5.64862
5.61883
5.57963
5.33985
4.92469
4.83353
4.80538
4.78218
4.72826
4.73617
4.77199
4.8146
4.85752
5.11839
5.32824
5.4329
5.48265
5.54971
5.62102
5.68295
5.78995
5.87727
6.03559
6.19184
6.25457
6.43559
6.41071
6.35277
6.1855
5.94985
5.73513
5.51711
5.27412
5.05589
4.79887
4.79839
5.31182
5.53301
5.55302
5.52371
5.59029
5.61659
5.61934
5.4267
5.47627
5.60432
5.77034
5.93397
6.12391
6.41334
6.74307
6.76823
7.29958
7.28057
7.29879
7.25942
7.25186
6.84721
6.45138
6.06607
5.65595
5.31055
5.08307
5.03205
5.2069
5.29228
5.39421
5.51623
5.56538
5.5951
5.62773
5.65035
7.41102
7.1994
7.27324
7.34996
7.2194
6.61143
6.24628
6.23971
6.35578
6.5933
6.81875
7.00063
7.08383
7.12041
7.15516
7.10855
6.96874
6.85819
6.76779
6.77697
6.70957
6.82303
6.69132
6.55
6.38229
6.30224
6.22279
6.46223
6.85922
8.22709
8.0091
7.81595
7.87175
7.74742
8.07513
7.16369
4.26196
3.9899
4.04774
4.06746
4.11364
4.16901
4.22148
4.27843
4.33164
4.38876
4.43062
4.42195
4.3728
4.23844
4.11321
4.0228
4.13374
4.74222
5.55739
5.86469
5.92276
6.8432
7.78978
8.26802
2.83629
2.79457
2.60938
2.38993
2.22386
2.16262
2.1358
2.14258
2.19681
2.35541
2.52184
2.47802
2.0761
2.06916
4.59
4.89279
4.62536
4.15668
3.97456
4.02096
4.10343
4.15039
4.11563
3.95444
3.74871
3.58209
3.44456
3.42417
3.36507
3.36769
3.31462
3.28338
3.24667
3.24205
3.26306
3.35232
3.50008
3.73295
4.03253
4.37016
4.68752
4.94365
5.03912
4.82971
4.91649
4.76765
4.76528
4.85875
4.81955
4.76431
4.68201
4.58987
4.46468
4.27668
4.11969
3.98061
3.95531
3.99465
4.09206
4.19618
4.29171
4.35732
4.38088
4.3732
4.34716
4.25349
4.28291
4.25752
4.36497
4.43351
4.50066
4.44475
4.36572
4.2488
5.45575
5.06905
4.42262
4.37551
4.59525
4.81839
5.06763
5.42861
5.60267
5.65677
5.7197
5.79817
5.80174
5.84803
5.83293
5.83793
5.80851
5.59399
5.53147
5.46372
5.20355
5.06265
4.8832
4.66069
4.53252
4.52466
4.72207
5.00412
5.19394
5.27408
5.61571
5.43037
5.15792
4.87249
4.63615
4.47253
4.35317
4.27628
4.22572
4.16995
4.11903
4.08534
4.05902
4.04673
4.05033
4.0292
4.02775
4.04768
4.11069
4.22984
4.41302
4.61841
4.77458
4.79414
4.72705
4.65872
4.62169
4.65689
4.68368
4.71702
4.69606
4.33969
4.49182
4.62292
4.68076
4.77781
4.83267
4.85217
4.82931
4.73371
4.56036
4.37152
4.23029
4.10077
4.04463
3.98185
4.00884
4.00381
4.07403
4.13457
4.26781
4.4391
4.69694
5.03851
5.28977
5.39642
5.26844
4.93392
4.59009
4.60521
6.38506
7.16647
7.57029
6.93769
6.19801
5.36769
5.33482
5.82538
6.427
6.81754
7.05057
7.17582
7.14715
7.03496
6.8547
6.74674
6.5646
6.42558
6.36636
5.9567
5.78408
5.6405
5.55775
5.70733
6.0747
6.57931
6.82479
6.93846
6.88617
6.72468
4.85693
4.68624
4.6112
4.60715
4.62635
4.64213
4.68348
4.67524
4.73568
4.71341
4.79533
4.77588
4.83288
4.822
4.84499
4.87552
4.91768
4.89559
4.86812
4.88335
4.89491
4.91349
4.93889
4.95978
5.03039
5.13626
5.2326
5.30847
5.22668
4.94906
4.81833
4.88708
4.92064
4.93342
4.94819
4.98053
5.01924
5.07096
5.13549
5.22478
5.29976
5.43763
5.527
5.62586
5.68342
5.71523
5.7158
5.67351
5.64295
5.60603
5.61317
5.47803
5.10772
4.84877
4.78203
4.78571
4.72698
4.69952
4.72627
4.82604
5.22119
5.40054
5.46978
5.4873
5.46687
5.46646
5.50586
5.55414
5.62536
5.72283
5.84012
5.93019
6.21838
6.28524
6.39077
6.47209
6.44817
6.25216
6.04691
5.81894
5.57016
5.28168
4.9885
4.78222
5.22116
5.47745
5.40075
5.31978
5.36301
5.51321
5.24864
5.42333
5.63259
5.83714
6.0023
6.16943
6.44673
6.66917
6.76802
7.08118
7.30483
7.4358
7.26248
7.38466
7.42941
7.14846
6.77969
6.36207
5.96094
5.59673
5.30039
5.08907
5.17961
5.3255
5.39732
5.46995
5.4858
5.54628
5.65538
5.74058
7.25058
7.23816
7.29182
7.17091
6.29828
6.05797
6.27972
6.53913
6.84421
7.10988
7.15331
7.17892
7.18847
7.21169
7.18517
7.09898
6.71945
6.48593
6.42001
6.55042
6.63853
6.73184
6.72637
6.7665
6.43887
6.42706
6.337
6.40694
6.74407
7.62243
7.63277
6.81747
6.51742
7.65587
7.58851
4.80069
4.02712
3.99828
4.01416
4.0013
3.99733
4.00348
4.02136
4.07009
4.14325
4.24644
4.36821
4.47899
4.4976
4.38707
4.1946
4.00824
4.00828
4.61711
5.93745
6.21293
5.862
6.33359
7.62632
8.36167
2.82975
2.65431
2.31623
2.14096
2.09361
2.0904
2.10156
2.09838
2.09154
2.15667
2.37836
2.51051
2.2148
2.04505
4.7028
4.85323
4.34387
3.93559
3.86428
3.95669
4.05157
4.10451
4.06185
3.89263
3.65284
3.5281
3.44222
3.43241
3.39349
3.3619
3.28647
3.21147
3.14333
3.09621
3.0742
3.10481
3.19628
3.3781
3.64811
3.99394
4.37352
4.74024
4.99157
4.84317
4.94615
4.77442
4.82802
4.88966
4.89086
4.8446
4.80178
4.62591
4.43163
4.19697
3.98981
3.8972
3.94156
4.10503
4.28946
4.39901
4.50926
4.54696
4.63854
4.6244
4.52937
4.41549
4.28707
4.21712
4.22631
4.31315
4.43355
4.45542
4.40094
4.2966
5.50553
4.94057
4.41439
4.40721
4.67974
5.01104
5.31585
5.51507
5.65484
5.70944
5.73051
5.7463
5.81733
5.74782
5.72074
5.6269
5.63484
5.62673
5.44999
5.43065
5.39101
5.20275
5.06644
4.87914
4.67865
4.57588
4.64487
4.84223
5.07027
5.24776
5.55723
5.28306
4.79815
4.49534
4.33978
4.23937
4.14571
4.08407
4.01408
3.94982
3.90402
3.85559
3.82328
3.78893
3.76148
3.7565
3.75968
3.75914
3.84363
3.93349
4.10195
4.3482
4.61765
4.81025
4.83784
4.75371
4.69066
4.65196
4.66644
4.71067
4.58553
4.37069
4.52126
4.59903
4.66745
4.68941
4.76198
4.77867
4.71149
4.53674
4.33024
4.11358
3.96844
3.86609
3.80121
3.74017
3.7506
3.73374
3.77368
3.82751
3.90845
4.03356
4.23353
4.58857
5.01632
5.36814
5.38694
5.13869
4.70375
4.56025
6.54658
7.23132
7.06828
6.2568
5.38614
5.25238
6.10439
6.82131
7.15021
7.27224
7.34786
7.18967
6.84847
6.33936
5.91218
5.61347
5.54334
5.49682
5.7761
5.84873
5.71748
5.62792
5.53704
5.50964
5.75702
6.27422
6.87231
7.02475
7.02902
6.8942
4.77991
4.62116
4.55414
4.56286
4.59833
4.58165
4.62496
4.59621
4.66272
4.67823
4.67307
4.74518
4.72592
4.77278
4.79705
4.76963
4.78955
4.8641
4.87516
4.85323
4.87688
4.90051
4.93139
4.96346
5.01179
5.08243
5.18888
5.27679
5.25859
4.98589
4.8561
4.79978
4.73918
4.72023
4.74443
4.79194
4.84038
4.88671
4.95732
5.01395
5.10587
5.19065
5.26553
5.33727
5.42801
5.48221
5.52472
5.55614
5.56862
5.56193
5.60362
5.54704
5.29289
4.92723
4.82484
4.80418
4.74739
4.68422
4.6703
4.80836
5.40989
5.45354
5.44943
5.38875
5.35113
5.36995
5.42074
5.52577
5.67404
5.81155
5.92412
6.13076
6.07569
6.14902
6.2877
6.34108
6.34743
6.35013
6.24965
6.05524
5.83538
5.54915
5.22757
4.89641
5.05014
5.40692
5.332
5.24092
5.32217
5.4635
5.32206
5.5482
5.76086
5.9695
6.16355
6.40998
6.56129
6.56033
6.88326
7.24896
7.19467
7.38629
7.42478
7.37474
7.27195
7.12382
6.79614
6.44324
6.10356
5.79027
5.52309
5.27044
5.19374
5.34765
5.45209
5.49705
5.49083
5.50256
5.67651
5.81523
7.2224
7.26611
7.19593
6.292
5.96029
6.12335
6.31833
6.49567
6.62785
6.7613
7.02999
7.17989
7.22212
7.22313
7.22321
7.12496
6.58893
6.38294
6.39516
6.58749
6.89674
7.11628
6.94915
7.00697
6.62596
6.5249
6.46252
6.463
6.70714
7.34859
6.63286
5.36963
5.61298
6.77865
5.59069
4.19577
3.96109
3.96874
3.92886
3.87878
3.84434
3.84244
3.83291
3.8651
3.90801
3.98216
4.11551
4.30371
4.45757
4.43412
4.22764
3.99406
3.98789
4.60877
6.26702
6.51952
5.86845
6.20398
7.60496
8.43492
2.80571
2.49697
2.1811
2.13177
2.19576
2.22451
2.24106
2.22925
2.18434
2.14563
2.28468
2.49003
2.27746
2.04902
4.7947
4.76096
4.13477
3.80392
3.76046
3.82737
3.92661
4.01943
4.00318
3.85791
3.62366
3.53339
3.48269
3.48292
3.39756
3.28611
3.13584
3.04142
2.96427
2.93026
2.91972
2.94617
3.01306
3.1569
3.39632
3.71593
4.09891
4.53083
4.87716
4.8223
4.95496
4.81346
4.82321
4.94826
4.95365
4.90509
4.82308
4.70388
4.41346
4.10997
3.9207
3.87277
4.03347
4.28249
4.43216
4.49521
4.53617
4.55223
4.68549
4.70263
4.73428
4.54517
4.41327
4.22674
4.18054
4.22608
4.34773
4.44322
4.42777
4.31853
5.44188
4.84421
4.3699
4.46405
4.77009
5.08451
5.44802
5.53405
5.5327
5.65795
5.74444
5.666
5.64053
5.53848
5.46486
5.45268
5.33109
5.35462
5.38133
5.23135
5.27206
5.28961
5.14668
4.9923
4.80072
4.66152
4.65203
4.77366
4.98863
5.27637
5.4886
4.88782
4.47917
4.3455
4.25086
4.17529
4.08415
4.03494
3.94673
3.91318
3.84403
3.78034
3.69456
3.62206
3.57619
3.55054
3.55908
3.59391
3.64252
3.75518
3.88512
4.09144
4.40016
4.70479
4.88714
4.84812
4.74655
4.68966
4.66249
4.6852
4.54836
4.41485
4.54646
4.57397
4.56761
4.64244
4.68336
4.71416
4.63724
4.41791
4.17787
3.96521
3.8469
3.73799
3.6802
3.60716
3.60215
3.56124
3.62855
3.65393
3.71718
3.81603
3.95866
4.28712
4.73479
5.26146
5.43325
5.26395
4.79269
4.55128
6.70742
7.12913
6.5517
5.56498
5.16443
6.00398
6.85743
7.06717
7.1038
7.26201
7.35133
6.88867
6.12979
5.36884
4.96429
4.80941
4.78282
4.88066
5.03545
5.40531
5.55461
5.54269
5.5029
5.437
5.52751
6.03531
6.82582
7.15695
7.16123
6.99985
4.72015
4.57272
4.50433
4.56303
4.54654
4.54434
4.57178
4.5666
4.65333
4.65639
4.73776
4.72797
4.806
4.82712
4.80116
4.83802
4.77937
4.74927
4.81515
4.84398
4.84565
4.87641
4.91402
4.96186
4.99828
5.04993
5.13781
5.24094
5.25107
5.0123
4.7328
4.6222
4.60037
4.65363
4.71425
4.78265
4.83641
4.90445
4.93571
4.98182
5.05686
5.1181
5.19052
5.26918
5.25821
5.32432
5.34301
5.36963
5.46369
5.46396
5.55867
5.56932
5.42283
5.06195
4.86465
4.84869
4.80362
4.71094
4.65594
4.76843
5.44672
5.4439
5.38083
5.32593
5.3277
5.44098
5.617
5.84665
6.05047
6.21782
6.39639
6.32482
6.3933
6.4415
6.32929
6.1928
6.25659
6.36158
6.29103
6.21752
6.07195
5.83611
5.48392
5.07992
4.96171
5.16919
5.19426
5.15372
5.20485
5.33107
5.4357
5.62047
5.9073
6.19328
6.38886
6.50182
6.42134
6.65906
6.90296
6.74139
6.87817
7.18047
7.22265
7.29505
7.13591
6.87095
6.66813
6.43136
6.14491
5.92083
5.74421
5.52054
5.2871
5.34065
5.45559
5.48273
5.44854
5.46032
5.72332
5.88612
7.21319
7.2284
6.56052
5.92139
5.91766
6.00946
5.98929
5.92747
5.87912
6.03289
6.34156
6.7881
7.21441
7.26168
7.30513
7.23649
6.89158
6.48737
6.44394
6.77812
7.1745
7.60542
7.45554
7.30024
7.02128
6.72214
6.54261
6.53673
6.73352
7.28632
6.1791
4.51177
5.3326
5.89581
4.73661
4.01328
3.93022
3.91396
3.85027
3.80787
3.80302
3.79984
3.81903
3.82919
3.84027
3.85187
3.92059
4.07851
4.30307
4.42914
4.26128
3.96848
3.95343
4.58807
6.19882
6.48785
5.90856
6.3033
7.73285
8.26519
2.77737
2.38802
2.17718
2.28811
2.45425
2.47673
2.41273
2.3771
2.33339
2.22886
2.30364
2.47058
2.28386
2.0493
4.84437
4.65327
3.99014
3.72416
3.67525
3.6853
3.75887
3.88399
3.93007
3.80866
3.61227
3.55532
3.52965
3.49299
3.3198
3.14564
2.96411
2.88228
2.78532
2.77921
2.77263
2.82238
2.90097
3.03613
3.24727
3.55047
3.9283
4.37823
4.8045
4.7463
5.03976
4.86649
4.85289
4.93186
5.00375
4.88407
4.81623
4.71727
4.42062
4.06063
3.86798
3.90727
4.15641
4.39935
4.45442
4.46672
4.4294
4.49019
4.58113
4.6767
4.74827
4.6209
4.48358
4.26006
4.16024
4.18754
4.29047
4.43228
4.44997
4.34146
5.47584
4.84463
4.39393
4.49872
4.87594
5.15221
5.33678
5.48418
5.54006
5.58638
5.70108
5.65462
5.51849
5.36722
5.34847
5.21158
5.19132
5.08377
5.09851
5.16959
5.05367
5.16399
5.15046
5.03118
4.9022
4.7636
4.7131
4.78835
4.98794
5.2299
5.32419
4.59391
4.40799
4.34003
4.25359
4.20034
4.13499
4.12996
4.06734
4.06552
3.94381
3.82949
3.69173
3.54081
3.44475
3.39475
3.41385
3.43375
3.51358
3.58983
3.75409
3.95472
4.2536
4.58417
4.85153
4.89574
4.83662
4.73347
4.66395
4.70004
4.51227
4.39187
4.48725
4.44906
4.46924
4.5593
4.66351
4.66156
4.58782
4.3375
4.08586
3.8896
3.80745
3.69528
3.65875
3.54103
3.55539
3.47819
3.54449
3.55105
3.64051
3.71626
3.8275
4.11226
4.57553
5.18906
5.4704
5.30513
4.8222
4.53164
6.76635
6.88629
5.94264
5.25681
5.55509
6.62349
6.88273
6.66436
6.92557
7.44053
7.51522
6.59723
5.51418
4.78474
4.62303
4.57123
4.60558
4.72111
4.78289
5.05413
5.3996
5.4422
5.42452
5.3603
5.37852
5.79225
6.85468
7.26989
7.28109
7.16348
4.6734
4.49936
4.50999
4.51105
4.51914
4.50305
4.54577
4.61374
4.67105
4.74145
4.75614
4.82095
4.81156
4.79277
4.87569
4.88857
4.8983
4.81912
4.75426
4.77735
4.81584
4.85445
4.90322
4.93832
4.98262
5.01909
5.06936
5.15381
5.1802
4.95366
4.6096
4.51049
4.54988
4.65208
4.75243
4.83054
4.89654
4.8973
4.95692
4.98046
5.03395
5.0768
5.16828
5.12159
5.19344
5.30201
5.22929
5.2791
5.31089
5.39889
5.50988
5.50629
5.47766
5.16569
4.95603
4.85727
4.86778
4.76608
4.68068
4.76764
5.35831
5.35434
5.32316
5.34823
5.43441
5.61664
5.838
6.09005
6.21989
6.39341
6.49208
6.61806
6.81263
6.74934
6.45675
6.28857
6.26327
6.27097
6.29355
6.37067
6.29365
6.06655
5.71253
5.26525
5.01138
5.01926
5.02976
5.12529
5.20374
5.33088
5.41812
5.61728
6.07274
6.41989
6.41066
6.38501
6.44559
6.69803
6.46735
6.52609
6.8336
6.84487
6.88786
6.94123
6.90202
6.85859
6.60662
6.3498
6.1431
5.99315
5.92317
5.75556
5.46252
5.36836
5.47033
5.57143
5.51976
5.49734
5.8339
6.00794
7.21171
7.16211
6.13927
5.7864
5.76027
5.63597
5.41909
5.21882
5.19466
5.30113
5.52885
6.00611
6.63346
7.27332
7.34499
7.40883
7.25076
6.73405
6.58963
6.6363
7.15253
7.83052
7.57913
7.27548
7.35183
6.97337
6.60653
6.55057
6.78132
7.30909
5.75893
4.28903
5.02958
5.23416
4.36799
3.95707
3.91275
3.87152
3.81793
3.80579
3.82393
3.85863
3.86478
3.86542
3.86244
3.84517
3.83849
3.90822
4.12629
4.38175
4.30977
3.9442
3.87593
4.4735
6.02444
6.63183
6.15163
6.87528
7.95149
8.11666
2.74841
2.36906
2.27155
2.51864
2.77684
2.81398
2.60427
2.49506
2.46827
2.35309
2.39355
2.4781
2.2441
2.048
4.87529
4.54905
3.93964
3.74422
3.67396
3.57918
3.57108
3.72564
3.83651
3.76603
3.61496
3.58952
3.56581
3.47806
3.22204
3.05608
2.88435
2.81181
2.71552
2.6921
2.69406
2.75258
2.85257
2.99908
3.20883
3.4884
3.86744
4.33285
4.75396
4.70078
5.0345
4.88355
4.80875
4.93956
4.90002
4.77009
4.80785
4.7766
4.40077
4.03798
3.84898
3.93569
4.24822
4.41662
4.44936
4.39121
4.33413
4.43268
4.50818
4.60617
4.67913
4.58243
4.48067
4.23643
4.16253
4.17278
4.28506
4.41847
4.47942
4.34724
5.46448
4.81263
4.4195
4.55926
4.87567
5.17764
5.28271
5.33688
5.54555
5.64059
5.61117
5.60316
5.56786
5.29554
5.30764
5.14721
5.08648
4.98656
4.91495
5.02305
5.011
5.01313
5.13284
5.05883
4.93622
4.8128
4.7727
4.84356
5.06676
5.3928
5.02614
4.4747
4.40736
4.37189
4.34219
4.30906
4.28587
4.33718
4.29274
4.2824
4.09879
3.98242
3.69676
3.49537
3.33527
3.29183
3.3016
3.35026
3.42874
3.51789
3.65505
3.86087
4.15441
4.53
4.82408
4.93605
4.8688
4.74969
4.66681
4.67548
4.47719
4.39656
4.41124
4.34675
4.38523
4.51753
4.62162
4.66436
4.55406
4.30405
4.05099
3.89696
3.82733
3.74943
3.7079
3.57938
3.59865
3.47824
3.56504
3.53785
3.63131
3.70419
3.80263
4.10088
4.60769
5.20829
5.49161
5.28147
4.73849
4.51426
6.91345
6.463
5.46148
5.26973
6.23921
6.59584
6.22658
6.22929
7.02538
7.5549
7.47666
6.34649
5.20333
4.65154
4.65934
4.6843
4.76102
4.76465
4.79106
4.917
5.37658
5.33771
5.32805
5.21028
5.25132
5.74366
7.03585
7.47519
7.51456
7.33356
4.62062
4.4746
4.47344
4.50148
4.47791
4.53233
4.60187
4.65317
4.76614
4.74181
4.83271
4.75752
4.85241
4.87366
4.80446
4.78017
4.81715
4.86847
4.83437
4.79946
4.77579
4.83115
4.88236
4.92853
4.96297
4.99522
5.03105
5.11263
5.1395
4.88942
4.52631
4.46046
4.51912
4.66096
4.80988
4.89951
4.91418
4.94394
4.97745
4.99349
5.10195
5.20095
5.26027
5.31895
5.24456
5.22425
5.20811
5.149
5.26765
5.26735
5.43695
5.45685
5.46896
5.2244
5.01542
4.90112
4.86825
4.80963
4.72917
4.82629
5.31299
5.25914
5.33308
5.43974
5.54474
5.7473
5.93789
6.05956
6.03218
6.16906
6.25443
6.50447
6.50837
6.53794
6.62488
6.43389
6.28639
6.15598
6.43039
6.47959
6.45504
6.27156
5.93827
5.46817
5.09007
4.96424
4.98956
5.11227
5.22077
5.26756
5.34694
5.73659
6.23642
6.40384
6.42277
6.44145
6.34048
6.46918
6.34176
6.55666
6.51354
6.52491
6.68077
6.65625
6.57732
6.49905
6.47363
6.26496
6.1855
6.14573
6.19368
6.06143
5.69686
5.4487
5.44967
5.45968
5.44263
5.51977
5.91939
6.00902
7.17099
6.89828
5.92476
5.6346
5.4868
5.22572
4.93418
4.82888
4.81647
4.85618
5.01027
5.34494
5.82098
6.67837
7.38681
7.49957
7.52047
7.23444
6.67495
6.58327
6.9107
7.31334
7.75344
7.56589
7.49416
6.99935
6.60014
6.52795
6.85079
7.3301
5.75188
4.21314
4.71816
4.77594
4.19061
3.92826
3.89472
3.85442
3.81462
3.82516
3.86697
3.86426
3.87893
3.88384
3.87884
3.87078
3.83478
3.82912
3.95476
4.28046
4.40237
3.94475
3.7738
4.33235
5.94003
6.94165
6.77322
7.49232
8.2305
7.77556
2.75127
2.41429
2.415
2.77154
3.07091
3.08195
2.78725
2.59754
2.59773
2.51583
2.49638
2.43757
2.20298
2.15568
4.87385
4.48414
3.96014
3.84724
3.75794
3.51852
3.39575
3.56869
3.75344
3.73208
3.62947
3.62315
3.60609
3.46117
3.17391
3.02356
2.86772
2.82094
2.71545
2.69299
2.69654
2.77203
2.88652
3.05483
3.27913
3.57489
3.94868
4.3883
4.71078
4.58346
5.14603
4.95272
4.83972
4.83538
4.8599
4.72419
4.72831
4.82945
4.44092
4.00539
3.84148
3.94307
4.26413
4.41111
4.42515
4.32249
4.31185
4.34082
4.40691
4.51466
4.54365
4.46051
4.33822
4.19481
4.15109
4.1971
4.31615
4.46138
4.50157
4.34708
5.51003
4.82357
4.44259
4.62835
4.87882
5.07304
5.24035
5.29878
5.40526
5.62242
5.64045
5.59367
5.54276
5.3993
5.28812
5.12557
5.11784
4.95428
4.85953
4.92089
4.99123
4.93184
5.0589
5.06772
4.95603
4.86785
4.85809
4.9395
5.18525
5.29609
4.75711
4.42345
4.42352
4.45756
4.46179
4.45456
4.49081
4.51492
4.48634
4.46738
4.31148
4.12675
3.84561
3.57001
3.38794
3.30649
3.31665
3.34223
3.44333
3.53448
3.69326
3.91938
4.20334
4.54261
4.81305
4.93286
4.86891
4.75064
4.66301
4.68603
4.44987
4.35935
4.27402
4.18169
4.28985
4.48584
4.6043
4.64914
4.58306
4.31625
4.09316
3.97217
3.94042
3.89825
3.84621
3.72702
3.71873
3.58331
3.64035
3.58965
3.66669
3.74527
3.90409
4.27496
4.81574
5.31137
5.42062
5.11029
4.6292
4.4652
6.7476
6.0476
5.26155
5.51649
6.21096
6.09207
5.73297
6.09053
7.28441
7.53629
7.47142
6.42442
5.26721
4.75942
4.74077
4.81985
4.88181
4.92821
4.93116
4.97664
5.36749
5.25421
5.15291
5.05833
5.18421
5.97368
7.32689
7.65398
7.6311
7.54525
4.5569
4.39
4.43562
4.4535
4.4899
4.54118
4.6341
4.70288
4.7811
4.80829
4.81381
4.8476
4.83931
4.80956
4.81374
4.79498
4.77179
4.77535
4.80128
4.81425
4.79954
4.83043
4.8445
4.92052
4.939
4.97525
4.99399
5.05515
5.08246
4.8153
4.40968
4.40864
4.49789
4.66595
4.83221
4.93275
4.95876
4.9814
5.01294
5.05484
5.23107
5.28904
5.35533
5.33416
5.2318
5.14627
5.15972
5.113
5.22826
5.16369
5.35873
5.39182
5.39668
5.25224
5.042
4.94808
4.90437
4.85496
4.96598
5.04588
5.09984
5.07
5.31609
5.50064
5.63292
5.79748
5.9157
5.92641
5.92253
6.16818
6.15466
6.26144
6.36906
6.50091
6.58413
6.37511
6.26805
6.30334
6.50871
6.56042
6.60514
6.45315
6.06851
5.56357
5.16708
5.02657
5.06824
5.22529
5.30236
5.32933
5.20973
5.65132
6.264
6.51095
6.45285
6.33998
6.34029
6.3915
6.31914
6.29331
6.34792
6.63846
6.65846
6.79322
6.74658
6.43359
6.55371
6.19322
6.25948
6.35829
6.46236
6.25345
5.84185
5.55123
5.48575
5.54269
5.56171
5.67867
6.12454
6.17878
7.14709
6.60331
5.70102
5.49122
5.28866
4.92731
4.68174
4.59892
4.56037
4.64002
4.7426
4.93037
5.35582
5.88605
6.89186
7.59282
7.7002
7.56869
7.08629
6.71602
6.49522
6.83453
7.17295
7.28828
7.11704
6.76335
6.46954
6.51518
6.94571
7.38164
6.58303
4.17955
4.42125
4.48084
4.08761
3.91305
3.88788
3.84923
3.83383
3.84297
3.87811
3.88762
3.88856
3.90096
3.89715
3.89329
3.8535
3.82432
3.85025
4.13577
4.48082
4.01279
3.6741
4.20607
6.07143
7.55545
7.57883
7.8134
8.24252
7.42591
2.76668
2.50153
2.57024
2.94744
3.21099
3.23338
2.88776
2.68351
2.68736
2.65494
2.46805
2.27799
2.30829
3.12511
4.24197
5.02446
4.87855
4.37237
4.02957
3.99355
3.88944
3.43066
3.2449
3.4417
3.67929
3.70582
3.64559
3.65648
3.64818
3.47782
3.18358
3.02017
2.89044
2.8391
2.7727
2.74837
2.7774
2.87708
3.04989
3.26769
3.55505
3.88681
4.21444
4.51272
4.68152
4.61646
4.75814
4.994
5.18383
5.00464
4.863
4.83816
4.7683
4.70358
4.75573
4.82642
4.4893
4.01918
3.79902
3.92716
4.22593
4.39854
4.38969
4.3375
4.29978
4.27352
4.30054
4.31604
4.30499
4.26753
4.20476
4.17567
4.19358
4.2611
4.38221
4.45825
4.46069
4.28581
4.30474
4.39826
5.4283
4.83404
4.47477
4.63985
4.85812
5.01693
5.10623
5.23765
5.37932
5.48371
5.64329
5.59813
5.47485
5.48324
5.30034
5.19544
5.12509
5.06789
4.98755
4.96513
4.99248
4.98325
5.06166
5.05015
4.97676
4.93373
4.95864
5.10557
5.12657
4.8496
4.61678
4.63163
4.58686
4.55201
4.57845
4.60141
4.62485
4.64799
4.65403
4.65683
4.66526
4.64534
4.53614
4.40206
4.17364
3.91387
3.68797
3.5518
3.50263
3.52178
3.61358
3.7019
3.88833
4.12085
4.42605
4.6937
4.9337
4.90914
4.86219
4.74368
4.64556
4.64865
4.64635
4.35321
4.42945
4.29246
4.1324
4.0521
4.24808
4.45133
4.59132
4.66904
4.62433
4.40983
4.19393
4.10215
4.12947
4.13162
4.09431
3.98988
3.93995
3.81883
3.86454
3.77906
3.8703
3.98881
4.26153
4.6239
5.08297
5.31706
5.21052
4.82785
4.50787
4.54048
5.81019
6.79087
6.60962
5.61502
5.27015
5.81942
6.03328
5.62592
5.4041
5.98279
7.34879
7.54352
7.50844
6.88151
5.69562
4.9772
4.80508
4.85917
5.00465
5.08518
5.03042
5.10201
5.25089
5.07136
4.94908
4.93673
5.34178
6.83787
7.73468
7.8954
7.78811
7.33086
4.51642
4.46969
4.42442
4.31765
4.35019
4.4269
4.51125
4.56751
4.65472
4.74354
4.78681
4.87385
4.83191
4.86423
4.86156
4.85887
4.8228
4.81462
4.78292
4.84738
4.74799
4.83001
4.77504
4.85343
4.82572
4.90853
4.92575
4.9514
4.96514
5.03064
4.95381
4.78804
4.7496
4.51231
4.38439
4.39215
4.46464
4.64392
4.83911
4.95193
5.00866
5.02749
5.03439
5.08483
5.20112
5.26363
5.3735
5.37674
5.36993
5.16919
5.10528
5.03324
5.14396
5.10794
5.2845
5.30856
5.35471
5.20566
5.04306
4.96421
4.81441
5.03878
5.39868
5.42655
5.31714
5.01264
4.73231
4.87095
5.29813
5.53855
5.68842
5.82589
5.90116
5.8879
6.00456
6.19971
6.28376
6.4119
6.4726
6.42439
6.53709
6.28957
6.43191
6.52017
6.63953
6.7112
6.79249
6.54714
6.12138
5.57553
5.1748
5.03589
5.17956
5.28611
5.31933
5.25457
5.1341
5.06789
5.21233
5.73116
6.34418
6.62719
6.44764
6.24627
6.32198
6.26795
6.37052
6.3321
6.53514
6.56342
6.75786
6.77156
6.72709
6.37559
6.60671
6.35653
6.45188
6.67402
6.76471
6.49372
6.03762
5.69594
5.57184
5.54241
5.55224
5.83565
6.31262
6.39038
6.50368
7.04345
7.15358
6.44924
5.65438
5.41895
5.04029
4.65912
4.49476
4.39277
4.39836
4.46757
4.54665
4.72212
5.0307
5.49395
6.08188
7.44871
7.83455
7.87656
7.59637
6.98964
6.58013
6.4215
6.48192
6.63422
6.65784
6.42631
6.43463
6.62906
7.06944
7.37862
7.73914
7.94404
7.88283
4.70554
4.16859
4.27552
4.02401
3.90035
3.88437
3.85462
3.8466
3.84722
3.8816
3.88347
3.87762
3.89092
3.90319
3.88394
3.8679
3.82821
3.80707
4.02745
4.49044
4.09701
3.61996
4.10447
6.2487
7.78463
8.03103
8.33196
8.0323
8.3007
3.34403
3.03096
2.80205
2.62709
2.69918
3.03755
3.24832
3.25663
2.93614
2.73073
2.71685
2.70485
2.42582
2.23924
2.50158
3.65575
4.66021
4.91542
4.67509
4.2888
4.12728
4.13321
3.71551
3.21475
3.11804
3.34376
3.61849
3.68904
3.65697
3.67706
3.7021
3.54755
3.24848
3.05964
2.92745
2.89459
2.86186
2.88792
3.00515
3.19986
3.48073
3.83112
4.17537
4.49042
4.71181
4.85922
4.82826
4.79566
4.94276
5.04472
5.22059
5.03192
4.85651
4.7994
4.74843
4.67387
4.77434
4.88376
4.52582
4.04435
3.77908
3.85015
4.14746
4.34281
4.36982
4.34222
4.28181
4.27185
4.23804
4.20184
4.21898
4.1957
4.22386
4.2601
4.27916
4.36145
4.37968
4.3568
4.33651
4.37966
4.68784
4.69632
5.45351
4.79979
4.50159
4.65858
4.78564
4.94845
5.02968
5.11663
5.26818
5.40572
5.52279
5.6455
5.63384
5.46572
5.43746
5.27451
5.15173
5.11323
5.11411
5.11899
5.03346
5.09417
5.13644
5.05987
5.03342
5.05653
5.16004
5.22523
4.95452
4.69068
4.62843
4.61515
4.5804
4.6414
4.65262
4.69064
4.73213
4.76319
4.78337
4.7981
4.79836
4.79051
4.74678
4.69537
4.59195
4.42634
4.25704
4.09099
3.99592
3.99337
4.05948
4.14607
4.37175
4.53926
4.77861
4.88942
4.94086
4.86108
4.78845
4.66333
4.65258
4.64567
4.55126
4.29223
4.3749
4.1637
3.95755
3.9695
4.21269
4.41174
4.55984
4.67588
4.68623
4.5374
4.33761
4.2835
4.36424
4.44844
4.48345
4.34834
4.25107
4.16009
4.20721
4.1865
4.31398
4.46016
4.65864
4.94573
5.09537
5.08085
4.8157
4.54439
4.53469
5.21832
6.1979
6.44352
5.92751
5.25924
5.3024
5.72845
5.79317
5.39325
5.2044
5.70022
7.09013
7.54926
7.5796
7.46176
6.53658
5.53162
5.02526
4.89488
4.93605
4.98223
4.95725
4.97956
4.95958
4.85552
4.92243
5.208
6.38061
7.66464
7.8968
7.82003
7.18079
5.53091
4.33197
4.30489
4.17997
4.09435
4.18709
4.34537
4.48396
4.58637
4.64762
4.77144
4.8138
4.89355
4.85739
4.90191
4.90846
4.88629
4.84338
4.82966
4.8088
4.84585
4.75734
4.82736
4.80628
4.83415
4.83834
4.8972
4.90351
4.92963
4.96602
4.98927
4.86492
4.74516
4.59584
4.40957
4.37104
4.35542
4.41481
4.57336
4.79134
4.93888
5.00599
5.05454
5.04482
5.04679
5.13138
5.17296
5.17378
5.20682
5.0666
4.99233
5.04036
5.05924
5.04904
5.08006
5.20734
5.24451
5.26773
5.15623
5.03959
4.95586
4.83853
5.2955
5.42955
5.20265
4.73689
4.26516
4.04677
4.31704
4.93953
5.47016
5.67427
5.81538
5.92776
5.95803
6.20073
6.38133
6.5544
6.61156
6.69601
6.59757
6.62048
6.5084
6.73773
6.71514
6.90586
6.98588
6.92848
6.54857
6.06142
5.52707
5.15641
5.15923
5.33414